/*--------------------------------*- C++ -*----------------------------------*\
  =========                 |
  \\      /  F ield         | OpenFOAM: The Open Source CFD Toolbox
   \\    /   O peration     | Website:  https://openfoam.org
    \\  /    A nd           | Version:  9
     \\/     M anipulation  |
\*---------------------------------------------------------------------------*/
FoamFile
{
    format      ascii;
    class       volScalarField;
    location    "0.0022";
    object      overpressure;
}
// * * * * * * * * * * * * * * * * * * * * * * * * * * * * * * * * * * * * * //

dimensions      [1 -1 -2 0 0 0 0];

internalField   nonuniform List<scalar> 
18437
(
315390
193901
216141
30561.4
768.367
0.0960023
0.352948
0.00860367
161630
23.1606
0.0192818
0.00133972
158504
134568
285653
202041
282774
210527
241834
136451
107885
130300
111452
126040
130489
155412
161220
46110.8
100358
139416
87062.8
102545
187481
74857.9
118179
60344.1
47889.9
58520.9
59304.2
61255.5
72102.6
74763.5
63697
81359.5
70449.8
54721.9
79302.6
63697.4
77481.8
77445.1
117408
91468.9
103914
80259.7
94847.7
121558
72764.7
104643
89085.7
92130.1
75203.9
90338.7
108415
133315
112678
86184
108272
83129.8
98779
126972
99226.8
95463.1
83170
77803.7
97760.5
94012.4
113126
143921
115844
120540
147464
140286
180696
169349
108296
129417
170442
177446
134116
144465
112217
140402
151355
201159
160405
148364
122719
117195
362214
291014
333479
326780
314390
212819
346236
288.131
280309
222307
66.2393
29932.4
80981.2
255965
219536
273396
204912
229127
164609
214442
278185
265152
211084
160958
220505
166765
211466
271324
249564
233617
186532
174969
241721
224710
277720
173246
257095
185256
244534
287094
227733
283213
321026
319879
325887
392121
383177
387485
387866
389011
5687.81
456472
1647.99
407789
126047
412406
332442
339506
344225
397263
398924
401797
393437
355780
339406
363142
402445
415743
419490
397964
254612
266463
284507
272779
245570
283733
282896
356114
379802
371496
407179
423406
410231
423071
270014
275042
271740
274242
278485
231261
241872
265874
267639
281065
278292
274762
214876
190301
273763
284914
273706
279390
231521
280220
279819
428258
396292
433996
432230
433345
432174
427676
81291.5
74.0912
14.5261
111046
29755.9
23.2315
4.43672
412646
414190
353665
352536
343025
413268
414191
444609
404759
440531
427893
433113
419695
406456
14837.5
66907.1
66248.6
115936
61636.8
38815
82775
77434.1
23562.7
35698.3
27892.9
19657.5
31626.4
30640.1
33068.7
190468
109518
47754.9
84457.8
178014
44638
90144.7
26491.1
48303.8
35410.7
33014.7
38634
40331.3
49749.9
57713.5
64877.5
56084.9
46305.4
38345.4
39625.3
47401.3
148584
52415
108051
46895.6
65888.2
70470.9
53401.8
72884.2
68852.4
59834.9
66055.1
44759.7
50485.9
62652.7
74907.1
55283.9
65543.2
86530.3
89569.4
56768.6
67681.2
96019.5
65691.1
73611.5
79903.7
92933.9
58838.3
69719.7
1.2077
367904
3266.03
857.459
0.433413
212.801
96163.1
409319
332477
405241
274065
319719
399993
411804
409578
337187
405815
301958
402167
326457
412088
403986
248659
271763
375758
393813
300058
390816
442212
435438
456801
317018
400460
390082
296271
252462
141766
243217
132206
36771.1
26381.8
152707
9747.46
4.38736
0.530793
1.50898
0.332014
0.98772
2420.96
90931.8
71992.2
208846
107057
18860.5
13173
127896
450188
424623
455621
373955
223351
349578
265445
381924
193609
372323
114532
329452
313132
94727
4.62842
0.52451
315.004
87.9534
0.281941
9630.01
1.49896
49909.5
157629
187985
80796.6
4633.67
52122.4
8233.22
207039
114492
228688
104509
9156.64
71908.6
16447.8
162886
334343
357067
288927
45455.8
254173
70168
198605
351349
171147
152416
126928
24752.1
17864.7
176562
173256
156142
24558.2
19884.7
15255.8
18905.9
145071
96013.7
128600
10544.2
8211.23
6629.05
13077.5
290340
326566
135651
63800.9
95615.6
11633
6944.27
0.12587
336.078
1.17721
1.02737
0.0830088
11.6676
0.299907
32716.9
87722.8
227999
203346
4215.52
24355.8
68918.2
138141
65397.4
118627
5267.64
12008.9
9196.47
4017.6
46855.9
65053.8
93297.7
6364.19
1670.88
3985.78
2741.55
20881.4
3409.5
2542.87
198.987
2370.71
1764.52
29633.5
169671
2790.09
29722.2
9766
129020
16191
48445.7
6868.01
1544.22
1074.68
779.897
544.094
120.144
83.0135
23115.2
8239.57
6206.43
1729.11
1294.25
337.893
453.899
12960.4
121.766
598.37
805.041
7237.44
1461.03
1087.95
35830.9
2321.54
25942
211.864
2326.58
1662.76
150.04
183.769
4333.88
364.661
664.554
335.916
50.6264
27.3947
15676.5
2545.9
4201.83
526.903
869.56
224.628
133.738
13443.5
558.475
9814.61
84.0818
1475.2
1062.6
60.3664
2.36624
0.0157822
0.259923
0.131282
0.00984382
11.0649
0.0646381
1440.76
59.4804
1160.52
884.103
56.2468
1099.36
45.0603
9946.64
1481
16824.7
1070.54
54.5425
624.963
95.2887
363.87
3891.23
6491.23
689.301
22.4859
403.553
38.8268
1836.68
230.122
1355.62
72.4537
17.1844
12.5033
98.4944
291.916
34.9385
690.174
523.916
10.8874
219.397
26.3412
603.999
38.1291
464.052
18.5293
371.53
752.276
30.4769
150.047
537.697
898.366
47.548
4.86234
28.0348
8.27673
203.68
15.9116
140.343
2.10433
15.4909
10.72
1.58683
355.906
7.29949
88.579
10.7266
216.909
147.067
17.7195
236.219
48.6181
33.9222
22.7348
16.0462
3.89163
2.87182
0.00859286
0.212284
0.0335486
0.168122
0.0260192
0.0158128
0.0078032
58.5889
3.1156
40.2678
0.92229
8.9131
6.19015
0.766992
92.162
3.48639
68.5887
17.6833
1.38521
1.09307
23.8782
83.5104
147.986
21.0178
5.83626
10.03
1.936
1.27542
38239.4
204458
55863.8
215627
96434.4
162365
237416
166134
179306
79343.3
269600
110779
169234
153472
191128
174149
289928
200199
300849
62794.5
215983
64329.3
228281
104411
209648
260982
48627.3
42869.1
36213.1
108838
106595
90551.2
87273.9
78498.6
123064
131001
191347
121638
117982
176868
69566.2
42386.2
57354.9
112034
142925
89628.8
104281
85100.3
163884
236608
148677
127150
115166
199396
42937.9
37727.4
32601.9
54985.6
49337.2
54666.8
59735.1
172551
105119
95436.1
97548.4
157826
91311.6
160295
59042.5
118103
113951
141921
152084
90215.5
93871.3
43949.2
55285.7
51230.6
61005.6
71786.3
68278.8
65339
30457.3
39104.8
33284.7
50212.3
47649.5
53441.8
56027.4
79601.8
98609.5
97534.4
90767
90738.6
111370
111240
78319.5
98543.8
97450.3
93767.4
91710.7
112126
114212
124386
189387
202086
117903
175372
98640.8
175887
189656
129999
125212
170286
178673
108701
104829
85851.2
72645.7
67088.5
72550.6
94968.8
91465.2
77170.9
48869.9
37147.5
44068.8
53145.6
59396.8
58736.4
64708.9
77783.9
121918
154507
159099
96717.8
123263
200771
50470.2
53214.4
45683.2
60105.5
70496.6
62725.6
67787
69159.8
53122.9
65334.4
80238.9
67999.5
72997.9
84973.9
100012
229042
129045
98919.3
165160
122022
207994
59398.8
71159.6
68517.8
79138.2
76524.3
85654.7
87364.8
112740
118614
112380
134413
128134
128717
135909
78991.9
88884
105321
100267
97923.3
86357.9
82581
84824.7
68163.4
65751.8
71586.2
93420.3
90756.1
74087
81557.5
100928
104669
97049.4
117709
101662
122677
114841
120239
113003
130391
142436
133302
138524
90923
99659.3
93518.5
114106
116440
111591
118424
48589.4
61678.1
54672.5
73036.5
65326.1
71124.5
78759
150770
144603
284597
116896
128762
197114
218266
149687
222081
406938
142636
242281
203829
376884
165753
100974
106396
138670
198800
149802
216876
176462
255879
159515
162462
204903
227959
359343
104633
123602
105654
146338
127019
127876
148221
61856
71570.1
68512.3
79366.5
76404.2
85898.4
89271.2
210506
112097
145144
181693
229520
116689
156260
78373.9
89015
105334
100590
97578.9
81023.5
86093.6
62787.7
80837.3
74285
79235.4
98564.5
91047.1
86829.4
100785
102140
96773.3
117280
123846
121234
120842
134340
170265
288527
186385
110437
240159
126416
110777
126687
107659
129852
155968
133128
151390
70618.2
95557
76491.6
95944.9
76544.1
82371.3
102048
89164.8
94207.9
91950.8
112956
112725
110277
115576
80274.8
89171.2
78438.1
95636.5
106448
106500
96475.6
86806.6
84301.5
82064.1
31873.6
25605.8
26611.6
79123.2
12943.6
70962.1
32659.7
112004
49941.4
25590.4
73307.8
46658.5
102398
29399.1
16640.4
20781.7
44158.5
35686.6
38839.7
46349.6
34569.1
28475.2
24626.9
41863.9
51355
45167.9
48551
17168.6
19135.7
15206.6
33056.2
31506.4
35071.8
36550.8
35075.3
22984.1
33585.6
38346.9
46937
41161.1
48898.3
21277
28013.8
23331.5
38723.6
45038.7
42773.1
40488.9
60945.2
46268
61463.6
72643.6
58257.2
59368.1
73101.7
61205.1
71731.9
53748.4
56113.6
81148.8
74087.5
63239.2
28773.5
40168.6
37182.7
48417.1
44472.2
51528.1
54997.2
58987.9
81081.7
68861.7
83692.7
62568.7
77173.3
65769.2
62722.4
47792.5
61255
61268.9
76766.5
64122.3
74413.2
69248.2
51567.3
50242.4
53207.3
74035.9
72035.8
54798.1
56659.8
79733.9
63076
77700.5
60772.5
75486.6
58641.9
55110
79428.4
62128.7
76264.3
57982.7
64508.8
82161.7
88712.7
86135.3
72261
74069.3
104581
91164.8
87504.5
65587.5
79886.4
61405.6
67636.2
90154.6
71601.1
85729.6
76724.3
98854
93055.7
107760
80311
94533.5
89778.3
90044.2
116368
109784
115314
107706
129163
137283
199344
139496
132786
239364
261668
161851
174866
117981
132669
122559
147765
137571
143483
154717
96167.3
113678
94622.9
103807
122265
123032
104404
119095
111016
112629
134385
136282
127331
129515
84924.8
97439.9
117484
90752.9
124446
111007
103171
99731.1
97844.3
102308
116426
124000
120764
119338
105519
113165
111127
127660
126020
131733
132501
70004.6
73952.9
81896.9
79733.5
87732.4
91934.7
98172.8
168623
153924
146511
148074
180253
171255
156354
82279.4
89863.6
78794.9
96198.7
111977
107412
100136
194770
285654
355892
419107
285110
232322
417309
136702
162163
137882
144019
121024
144298
170206
135592
159906
136046
155921
158318
133112
138091
98081.4
114051
94704.7
104231
128372
123753
108199
121219
117984
114870
143276
139180
132395
136238
150807
165142
180922
185011
154994
175239
160031
91671
103380
83517.2
89409.8
118803
109762
97716.2
125199
118650
117675
138384
145132
145955
138357
107720
114121
110833
129641
125995
132217
136267
100799
112464
113368
117221
118284
130751
129001
138836
165584
144191
162698
142880
161554
140774
109989
155759
220469
167064
229518
196328
297025
136479
139787
128680
151163
173974
163420
160733
113921
131590
144042
123558
124877
133092
113543
88874.6
98538.1
87515.3
107690
95904.6
106540
118523
93162.2
96175.6
101974
114862
117963
120881
124214
243268
120374
163777
247797
327526
152207
206853
97881.6
119141
128554
132932
119082
110376
106411
111615
121954
122739
129773
130608
141571
139974
124651
114166
124643
134919
147276
135862
159376
135300
163347
156492
135617
159246
132607
138559
125727
121547
117769
139428
152642
143920
147621
84699.4
103214
90812
115828
103249
109885
122976
104723
105961
110877
127149
122073
128649
134112
107948
124968
110972
145521
130337
133847
149160
134518
122242
148715
127817
155616
141279
147637
101830
119789
114891
124672
119705
133085
138384
144809
183386
311036
278412
183994
331623
235024
171853
188469
160867
168552
209340
197838
180294
138895
167563
147334
167459
143399
162961
142477
114692
139672
146387
131238
126225
134539
119277
99326.7
101778
101846
118543
116895
119806
122115
101011
129273
107421
133153
111610
118520
141087
112327
128829
123918
136746
131818
143671
149092
161579
177117
286826
204562
237654
318337
322110
137584
153065
128460
152409
192232
180158
162319
153586
178787
156215
166048
145514
148297
169654
170498
148476
147759
153476
175330
176404
153555
145523
169999
172918
168178
172005
198817
203017
116871
117211
124027
133290
140572
140732
148600
133643
141337
142915
152851
154435
163965
161761
115010
120098
134314
138564
160506
144467
154151
124953
140753
126614
144183
156407
158935
141984
146146
172434
157890
186418
172289
185912
200887
109018
105813
105022
123459
132333
128014
126676
156043
134641
136553
149262
166609
169448
146903
164935
183378
159941
151848
180367
156389
174259
173085
153178
148816
155171
185937
179627
160046
132948
147306
134540
153521
164271
166861
151326
225714
250634
376776
252120
355636
334751
435465
109983
111703
98817.4
118765
145677
132597
131114
141801
143508
134841
174280
164076
155489
165367
155225
183331
177270
184265
177345
208911
216761
134705
150063
144742
162500
156828
167191
173599
116991
124581
129722
132261
137612
144750
153681
412625
172741
233280
436440
455248
256938
377065
178051
222317
202613
221503
209080
190502
189457
160102
191968
166238
181689
183485
167791
159389
129483
139566
116400
128001
167911
152192
141497
145546
136671
123525
130966
169155
144923
154347
159377
144314
138842
152512
180885
173661
158619
134160
144086
129017
147460
169696
163029
153349
125164
142259
132462
158749
149047
157788
168404
174517
153217
215861
146227
195952
220962
248479
306908
191269
171293
201283
193024
226935
203940
239981
151884
173410
146401
154184
189614
160220
183007
148711
171256
150286
161476
180937
183430
159338
168686
138707
142003
173741
145675
149320
177713
114077
124358
120415
139439
133789
141143
148407
194960
208225
198757
238977
227352
232396
245043
139762
125896
147429
164415
149096
173858
190669
150334
141900
136591
156636
177862
170885
162758
140988
149206
134072
168422
151724
160382
177956
150899
164531
153178
174827
184349
187293
172176
127859
133761
142115
141955
150859
155779
165729
129535
148288
149153
132575
151716
169898
166620
315888
429915
435912
484112
328313
434191
469848
171329
207079
179272
188766
162233
169767
200358
148529
206394
174288
191059
161309
188472
223343
162508
196485
177200
194484
187362
168023
170950
174940
158213
152634
164805
195642
187885
171181
174412
154086
186519
167075
178119
201371
195035
211354
214196
204170
239450
264964
248970
253453
163320
181619
176200
202224
179165
184694
160633
161792
168125
155837
178859
200312
192077
186123
153485
156460
169813
166144
180563
182268
194257
162358
142470
136625
140118
181830
167135
146801
186874
173640
156419
160426
213099
191356
178003
158494
194748
166309
197564
167502
176122
206968
202062
174566
176757
187201
210784
213919
184586
142327
126186
138516
162273
148069
165279
180793
148970
157051
140310
178466
160840
171127
190240
150974
185549
160374
190687
166465
177234
203594
141224
183322
182492
171372
156043
166463
155403
188495
187467
171931
201767
238626
220487
217846
153635
158954
143114
170509
202139
189141
182200
148237
174481
157542
187320
170750
182023
200147
95476.4
55395.8
237859
111684
101112
196158
46390.4
79030.3
89154.9
168860
79396.7
113604
208282
150699
126723
114619
233062
48574.9
58747.5
58689.6
61132.3
61039.1
71516.3
74144
51607.8
68541.8
64436.6
68292.2
64252.5
77732.9
82208
73291.6
65693
60054.9
73591.2
79719.2
87751
94498
118243
166057
271710
261738
149801
223013
296261
72863.6
92210.5
75595.2
104140
86522.8
89517.5
107564
102316
76472.4
99263.5
116292
90528.4
93470.6
119891
80415
86737.3
72429
95813.9
87069.5
102618
112327
87016.3
82571.9
106448
97456.1
131057
102454
124776
83692.6
96194.4
79216.9
93516.2
117705
98484.5
112071
111953
48492.5
59312.7
92139.2
108003
69127.3
39693.6
103686
81245
97166
77573.5
122089
70910.6
58301.5
66604.6
97640.5
111473
68199
54401.3
79830.3
55533.5
79324.1
68603.8
69400.8
67762.4
67428.4
57019.8
80141.9
79224.6
70687.7
72787.8
72605.2
62502.5
69523.2
82288.9
85691.2
75853.9
79932.8
40894.6
41862.4
43009.4
52087.3
54516.5
56523.5
54411.8
91043.4
104241
91076.3
96248.5
82278.1
83190.6
97418.4
49276.2
44816.9
45782.3
59159.2
61351.6
62484.3
57516.4
93390.5
105648
91753.8
84581.7
101711
86799.6
99160.7
88020.9
120149
125708
135246
115328
152439
188607
82338.5
71602.9
76878.9
96221.8
90316.9
85044.6
91315.7
52964.7
58424.6
53479.8
66034.7
66585.9
71561.5
71683.4
96138.6
116198
100102
105311
90016.7
94323.4
110114
65864
83389.7
68603.1
70647.6
84038.5
85605.1
68386.8
93178.3
84683.7
89034.9
103524
112458
98931.9
108168
72006.6
64191.6
64600.2
77518.5
86445
78429.6
84632.5
105334
129962
122305
99806.8
123960
116264
106638
73288.7
75797.1
91984
87672.3
76625
88423.1
71714.2
80816
96508.8
80818.7
86021.5
104330
102177
86915.3
132587
118630
136239
106947
103313
123263
119290
78772.6
80682.5
90830.1
95920.6
93118.9
103235
107048
139400
150830
130188
133430
115049
125323
144907
92387.2
117772
103027
112400
109188
94256.6
100128
118334
99301.3
92533.5
139197
108721
116490
149720
95918.4
107195
89212.7
124813
104656
112197
133740
120067
116425
102671
111670
129328
98907
115230
100811
106132
89812.1
105797
117987
123958
138054
147716
113431
133693
128168
109480
120683
140715
156812
175270
180402
164440
142325
137706
158669
138198
128431
107378
110802
174944
132590
142614
134638
123630
103977
121387
159665
145085
132615
117511
137277
107526
126097
181965
163464
138051
201123
220052
189027
179798
238339
216300
193499
207176
187711
180633
191765
229161
219569
199758
144562
159797
181994
190211
150318
173496
152462
137924
128256
133443
150555
175011
159926
162631
167433
197785
207704
191775
183956
189609
174334
238439
216945
202783
218322
281122
258514
234361
174168
194612
185851
213934
197532
188757
171608
138011
168333
152965
179565
162731
178921
197139
145639
156962
183923
138255
148765
115398
121229
165839
204939
191513
220125
172576
197392
183977
220478
245625
231761
280555
261516
277880
301625
185769
204472
175383
186169
230378
217898
197751
220344
257620
211504
250609
331841
261678
314378
165381
204364
176126
206595
179783
191917
221434
174282
179944
155781
182261
210356
202744
233778
230757
274006
207097
259382
296170
276127
145217
199849
248596
204709
293133
236564
242354
301684
178366
219687
211505
202013
202677
193671
185682
182073
228370
213408
232843
217166
256501
277329
169497
196260
180328
211797
196200
209628
226757
145824
132349
126565
175833
151107
143919
165509
216346
190991
188553
165624
168584
190924
188395
169802
173832
199228
222338
223301
193643
190761
179127
150485
128561
132526
113627
132552
155716
157738
174898
149754
165233
155935
140229
133986
169448
193378
157885
167885
239465
208852
182300
208153
193414
176101
205009
268180
224659
243741
199374
224045
243573
210123
213539
227672
196384
165788
198464
179566
217143
195573
210691
234281
214081
200797
180777
190496
253633
224909
211911
174936
179793
160155
184321
224644
205335
201528
183373
207852
189574
244675
220011
217899
249157
201706
190279
204115
221561
239637
223989
263940
206776
192327
168261
129728
144905
153131
172764
204799
178659
148367
138850
125076
146641
164677
197585
244504
210927
242591
210963
225697
260611
204593
244198
250197
229121
219319
233786
213527
209008
202404
183520
195773
245837
216336
223648
165001
158696
149910
195320
178472
199644
224024
230761
251590
207960
265456
243051
271189
301826
168022
182975
212439
155347
168005
128689
138157
152601
205935
80779.8
373075
96244.5
82876.2
175986
117587
121655
120653
117906
174943
96946.9
159225
157356
96169.1
156252
88872.2
158239
81482.7
99953
100854
91389.9
91897.5
112978
112152
89049.7
105140
101530
93887.4
91954.1
113365
113974
172072
173576
116893
117410
173287
96587.1
172042
95890
161955
120316
95274.5
162830
119444
204648
115148
117994
113792
128782
133794
133810
128534
118097
113386
113833
128514
133710
128141
133615
131606
102752
93281.6
111198
138936
118016
126743
240373
202220
142583
140437
238276
201167
371687
105027
121259
105065
128353
147865
146632
128474
120620
104446
104793
127554
145451
126953
145577
96752.2
88942.3
88806.5
108460
114779
109458
114434
110905
88114.1
88687.5
108098
113790
108580
117583
87108.5
86868.4
85870.8
106529
110497
108018
108735
193916
76455.7
176579
88684.2
129034
33452.4
78047.3
9886.51
68262.9
90491.6
100526
70461.4
20509.6
70839.2
46055.9
101110
104920
165024
73343.5
72298.7
204933
173277
97110.3
25454.9
17683.6
13799.4
35244.3
43031.7
33314.8
47464.8
40482.3
105709
26968.8
47046.8
101598
134732
36421.9
9484.71
11276.4
11990.7
28094.3
29963.5
28452.2
28667.8
28511.9
76459.4
36993.2
46435.6
75444.3
62216.2
38365.2
20895.4
32411.7
32624.3
44301.1
35831.5
34832.3
45269.4
49468.7
64775.9
75563.6
57917.4
76206
64465.6
72781
62134
46304.5
62538.7
56886.6
72677.9
57499.7
72663.4
72895.3
196877
149488
92063.5
166983
79683.6
90375.4
52681.5
78898.1
60029.7
70105.6
51878.2
70364.7
62207.3
57093.9
117828
92743.4
68761.9
129831
71440.7
51096.3
47163.4
66731.7
66969.4
48743.3
47744.3
66445
47456.8
59044.9
68711.7
78338.6
69403.9
65101.6
52641.2
74939.2
58682.3
68924.1
52553.6
77398.1
50928.5
60220.9
75748.4
69654.8
86155.3
85697.1
100668
72534.6
85434.3
84940
70135.9
100648
87104.5
85475.3
71052.6
86087.1
85246
117298
109086
108958
133558
133035
124727
125407
117325
109945
109230
133381
132933
124946
125923
146500
153457
169166
174319
167525
152467
147079
145861
173979
167180
152629
145799
166761
152127
130631
143438
156044
154755
152174
134977
137540
129615
154873
134327
154166
131100
152692
133128
92690.4
94342.6
88320.5
112597
110004
116657
117243
88955.3
96803.8
90841.3
112647
110964
117223
118638
128847
134299
154867
156295
152278
131168
134066
128882
156913
154563
133505
130519
153086
131909
104687
119724
104536
126779
143914
142506
127447
104880
120188
105976
126797
143176
128021
142094
115907
96666.7
95148
95972.5
113166
114551
114153
152456
172027
151325
142144
163109
161611
143210
171985
152082
151236
142368
163578
143683
161830
95256.8
97584
96300.6
113462
116173
114916
114640
141191
171056
168941
167629
165530
196247
198956
140935
168323
167894
165780
164784
195264
196268
135387
161309
134380
141735
171079
169852
142485
161540
136483
135036
141899
171112
143256
169739
194797
200033
192473
223348
236414
233622
226225
199701
192724
191747
222637
235243
224193
233243
139416
132352
158870
169835
157065
137685
133675
132583
169833
159205
139573
134259
157211
137739
152385
202964
183911
170784
153770
182372
169384
152572
184514
171836
203481
182668
169860
153894
236409
196718
195272
231317
287934
232935
285727
57765.1
74263.7
166066
84946.2
44932.1
74853.6
87148.9
165124
45020.5
57107.5
44284
56238.3
56745.8
69105.7
70248.9
44200.3
57268.9
57078.1
56181.2
56531.3
68920.2
69833.4
96494.3
98008.3
75508.7
114682
89258.1
87856.5
112956
71050.4
102226
87095.4
85934.8
70044.7
83654.6
100752
97297.8
74004.1
96219.2
87607.8
113962
88644.2
112672
85923.4
71075.1
70015.6
83495
101904
84590.7
100604
37640.4
78996.1
102631
53834.2
69760.4
38213.6
103657
79403.1
101344
86660.9
71729
80637.9
51638.8
66400.6
65414.1
70134.7
53438.4
80312
80620.1
52596.2
67319.7
67889.8
49991.6
37603.5
37286.7
37821.2
51531.2
51137.1
49461.6
91398.9
103462
91156.5
80368.3
93793.7
79190.3
94443
37425.6
39333.5
38432.8
52105.3
50520.4
53027.6
49597.1
103796
91316.2
91587.6
81139.8
95426.4
81589.3
94913
63709.7
65611.3
80613.4
78088.9
65508.4
80288.6
62991.9
66095.1
78215
64182.8
81801.4
67106.9
80664.4
63122.2
136133
105754
126356
104145
163643
124486
134131
103903
163308
135360
125730
105154
124237
133835
290902
235602
198623
237184
196013
232289
286753
345144
290723
270775
267169
370062
340517
287132
266337
369656
342306
289142
268438
339543
286630
216533
269134
293543
212284
236893
237950
306463
348979
272922
294614
280250
385199
360085
304143
237040
314898
285860
317405
260411
284192
256487
263957
262929
246008
299249
363844
329877
327269
231679
355185
276322
304400
245802
295655
383577
200488
189294
172647
191148
242695
220401
209466
188429
186457
169773
197009
239355
217084
217015
246659
227076
268887
251239
303056
272741
333918
223932
213674
195815
209602
261389
240381
229167
290867
395077
336522
395754
305595
375839
318015
201777
252012
240163
269590
237504
224956
214727
222446
211020
190729
208271
269998
241402
230496
215597
212573
195091
227672
276407
246666
253799
235071
286482
258616
315885
281911
314674
360060
181062
258552
224517
263553
230408
199870
198650
219220
224018
195423
252262
225781
261361
294736
207749
190550
164501
225546
255524
207645
190411
180260
199825
168832
234475
267905
211671
193293
278058
228203
256510
184963
202855
150208
165728
173947
169004
146353
172009
212020
202893
258333
259000
242739
225974
242157
302571
260608
279474
297108
256751
317820
253040
262017
217382
217895
190805
164351
224010
236894
293297
271867
199816
178605
222901
280312
189666
241332
155963
188690
211579
267734
266776
257359
234098
242349
232040
213402
297522
248138
277347
236019
275975
334322
210455
273026
245194
273394
246732
292928
329182
287039
355450
317195
399594
363563
404264
429266
283175
327557
262872
320634
446057
415304
350934
416762
359029
325629
352501
424225
437283
384369
268761
257822
229484
246090
338471
288378
278298
211005
202042
184622
228715
297262
269119
262062
241881
361157
289600
319886
265115
321290
406322
227793
286565
296038
277728
262484
249419
252574
294035
258611
286278
307146
409104
354559
351427
230879
312406
199493
307438
225048
5.21972
462603
948.228
0.136344
226695
62423.6
0.850928
0.0191805
154592
178088
0.800341
0.0106299
0.00185574
127999
55910.8
22.4034
0.0838601
0.00411602
0.000203155
450.204
1.60543
0.0550838
0.00476273
0.000286733
1.35477e-05
0.170733
0.0180656
0.00306057
0.000238527
1.4076e-05
6.63102e-07
0.00624314
0.00130175
0.000126622
9.49604e-06
5.63174e-07
2.75177e-08
0.000211368
4.08737e-05
4.13638e-06
3.15864e-07
1.93832e-08
9.31323e-10
275037
178221
184038
178441
264397
185009
273999
272456
320380
240628
198749
322195
226290
274194
123170
286810
196159
105635
260092
212039
287387
126922
264318
213201
188693
263796
282422
215123
408815
262752
224673
192058
307563
261846
464872
176774
176865
175798
202260
201023
201142
202187
177529
177770
176625
202684
202295
203623
201535
178427
183665
178036
206198
214365
213584
206345
183905
179904
178740
206404
214406
207379
213384
105596
127531
104226
125842
121422
149491
151647
104213
127494
122818
125812
121267
149302
151141
55559.7
427007
395348
392928
461884
412999
58143.3
126624
152040
150404
181277
179435
219747
221594
128785
182320
152931
150738
179794
220076
222663
191044
236682
199013
196987
189030
234044
237848
196946
191336
189189
236224
233955
237885
240500
238583
191949
203106
190963
201380
223106
236431
190819
202558
201093
224007
222735
236094
237713
265550
268679
233095
232465
264035
267070
230355
367468
300971
329837
312327
413460
396784
411163
232234
263396
230877
267608
233147
266457
230112
1.71248
0.207183
0.0022282
6807.74
0.016389
0.00102075
3.77794
0.0270676
0.00190377
1.81195
0.22781
0.00231768
405.076
0.0336563
0.00171897
6.32243e-05
104629
0.333536
0.012836
0.000415048
399357
20887
1138.63
427501
71.2767
3.70548
813.201
0.429528
0.049321
297559
136764
0.0178896
0.00451959
200876
1436.01
0.0845194
0.0116583
0.000891503
256157
251279
426.452
0.00949842
0.00168774
6.81308e-05
0.849801
0.0933491
0.00181839
9.52343e-05
3.88364e-06
0.00983317
0.00112898
7.75436e-05
4.05047e-06
1.79047e-07
0.000437768
3.95191e-05
2.7683e-06
1.54992e-07
7.21775e-09
1.15992e-05
1.22661e-06
8.98144e-08
5.26779e-09
2.03727e-10
283699
195503
183154
344489
208495
4.23319
15412.2
774.445
0.102411
220724
53726.5
0.636199
0.0125207
142080
167135
25.4274
0.0191112
0.0012832
178693
48697.2
19.4027
0.0749966
0.00300225
0.00014758
391.174
1.39562
0.0373226
0.00333965
0.000205368
9.6369e-06
24.2706
0.0991922
0.00211665
0.000168902
9.96712e-06
4.66578e-07
0.00443299
0.000907796
8.84355e-05
6.6995e-06
3.96365e-07
1.9194e-08
0.000144869
2.86561e-05
2.90637e-06
2.22528e-07
1.35333e-08
6.1118e-10
255662
139013
83.4245
0.0335946
0.00117217
95.5842
0.104923
0.00147375
2.73373e-05
4.74017e-06
6.09376e-07
5.07134e-08
3.11411e-09
1.01863e-10
0
0.000700856
0.000172287
2.10376e-05
1.72216e-06
1.05007e-07
5.18048e-09
1.60071e-10
0.0222006
0.00503322
0.000612805
5.11355e-05
3.11955e-06
1.50758e-07
6.1118e-09
19.9443
0.343726
0.0105139
0.00125417
8.03888e-05
3.94449e-06
1.54629e-07
316746
6123.76
3.17493
0.0339201
0.00168045
8.59144e-05
3.4198e-06
287286
435660
171236
29.3349
0.053039
0.00143098
6.02691e-05
228912
361086
303587
33.9713
0.0295845
0.00081987
211389
355840
203460
4.63823
0.00827582
257581
408657
46.893
0.0328598
9.59238e-06
1.44035e-06
1.76384e-07
1.48866e-08
8.87667e-10
0
0
0.000263799
4.15744e-05
5.85173e-06
4.84724e-07
3.00206e-08
1.46974e-09
0
0.00437003
0.00110087
0.000203227
1.48069e-05
8.7329e-07
4.23315e-08
1.70257e-09
1.30961
0.0545017
0.00371252
0.000407754
2.3874e-05
1.09825e-06
4.29427e-08
123187
427.461
0.377663
0.00638067
0.000523844
2.5615e-05
9.48101e-07
351868
439268
21292.9
1.82744
0.00807468
0.00045879
1.75977e-05
265003
443373
90194
2.13079
0.00576617
0.000256381
220181
438259
31872.5
0.417971
0.00220416
302617
317580
0.322585
0.0038072
1.25382e-06
2.18701e-07
2.50438e-08
2.02272e-09
5.82077e-11
0
0
3.58095e-05
7.2339e-06
8.02582e-07
6.48288e-08
3.97267e-09
1.45519e-10
0
0.000912594
0.000225786
2.3328e-05
1.88586e-06
1.1269e-07
5.52973e-09
1.60071e-10
0.0382508
0.00374551
0.000582748
4.9696e-05
2.96542e-06
1.40208e-07
5.61704e-09
201.575
0.641442
0.0167877
0.00114392
6.8538e-05
3.18966e-06
1.22469e-07
448657
100325
24.0467
0.0535995
0.00135747
6.02506e-05
2.26816e-06
463560
336948
113.529
0.0557403
0.000825119
3.20365e-05
396274
484400
38.2515
0.0146743
0.000297715
490658
443236
0.0188714
0.00207151
1.62647e-07
2.68192e-08
2.98314e-09
1.60071e-10
0
0
0
4.50097e-06
8.10949e-07
9.24192e-08
7.31961e-09
3.7835e-10
0
0
0.000111514
2.24693e-05
2.57835e-06
2.04425e-07
1.23837e-08
5.67525e-10
0
0.00281604
0.000546862
6.52892e-05
5.24937e-06
3.11076e-07
1.53086e-08
5.82077e-10
0.126797
0.00846565
0.00139253
0.000118692
7.02243e-06
3.36033e-07
1.36497e-08
313840
8064.56
0.0486521
0.00244
0.000133322
6.31897e-06
2.48954e-07
415098
359479
78507.9
0.100713
0.00196868
9.21452e-05
3.62331e-06
314451
158508
34119.3
0.0495574
0.000901378
3.73688e-05
297000
397378
672.32
0.00436354
0.000292786
1.93686e-08
2.95404e-09
2.47383e-10
0
0
0
0
5.47065e-07
8.9567e-08
9.51695e-09
7.13044e-10
0
0
0
1.39289e-05
2.43082e-06
2.63841e-07
2.00234e-08
1.16415e-09
0
0
0.000387762
6.10778e-05
6.81177e-06
5.08007e-07
2.96277e-08
1.45519e-09
0
0.00971167
0.00129456
0.00015627
1.17576e-05
6.66972e-07
3.21743e-08
1.29512e-09
0.663629
0.0239495
0.00295632
0.000231926
1.31278e-05
6.13916e-07
2.46218e-08
6082.04
17804.7
0.0933662
0.00357866
0.000205433
9.63137e-06
3.76676e-07
297956
164711
38658.6
0.088314
0.00209354
0.000108036
4.3007e-06
153046
4089.73
0.00586646
0.000818684
3.34177e-05
1.62981e-09
1.60071e-10
0
0
0
0
0
4.80504e-08
7.05768e-09
6.40284e-10
0
0
0
0
1.25334e-06
1.90092e-07
1.92813e-08
1.39698e-09
0
0
0
3.24955e-05
4.78575e-06
4.86441e-07
3.56231e-08