/*--------------------------------*- C++ -*----------------------------------*\
  =========                 |
  \\      /  F ield         | OpenFOAM: The Open Source CFD Toolbox
   \\    /   O peration     | Website:  https://openfoam.org
    \\  /    A nd           | Version:  9
     \\/     M anipulation  |
\*---------------------------------------------------------------------------*/
FoamFile
{
    format      ascii;
    class       volScalarField;
    location    "0.00185";
    object      alpha.c4;
}
// * * * * * * * * * * * * * * * * * * * * * * * * * * * * * * * * * * * * * //

dimensions      [0 0 0 0 0 0 0];

internalField   nonuniform List<scalar> 
14816
(
0.00120757
0.000982712
0.0013392
0.00118584
0.0013372
0.000368155
0.00028516
0.000365655
0.000305688
4.40554e-09
3.64093e-12
3.24717e-13
0.0122391
0.0044348
0.00907184
0.00371431
0.00283174
0.000284287
0.00103274
0.00014826
0.000102688
2.38547e-06
1.97395e-06
4.5197e-08
2.86746e-06
4.44287e-05
0.0270341
0.0100747
0.0405868
0.00840009
0.0354264
0.00750075
0.0292591
0.0220501
0.00618026
0.00420909
0.0179756
0.00576473
0.022844
0.0179947
0.0093743
0.00273122
0.0133618
0.00154455
0.0138305
0.00154485
0.00877244
0.00529465
0.000712164
0.000312815
0.00216219
0.000746454
0.00477379
0.00248788
0.000426288
0.000118988
0.000887372
3.3055e-05
0.00106192
4.09233e-05
0.000338887
0.000152167
8.84491e-06
6.45301e-06
3.31476e-05
1.22594e-05
0.000114194
5.49115e-05
2.04734e-05
3.52448e-08
1.56899e-06
6.89438e-05
3.77629e-05
1.19631e-05
3.47394e-06
7.27511e-05
4.71765e-05
6.9197e-06
0.104206
0.0249366
0.0312954
0.00764033
0.0150957
0.000632142
0.00193391
5.10576e-06
2.86944e-06
7.52929e-10
0.0452676
0.0628863
0.0668186
0.0261681
0.0203329
0.0117152
0.0136822
0.00871542
0.0156666
0.0114875
0.0219807
0.00398845
0.000969588
0.00211411
0.00121406
0.000229982
0.0025553
9.67029e-05
0.00454012
0.00022773
4.67946e-07
1.21918e-06
2.32525e-05
2.67651e-08
0.00904327
0.000717822
7.01928e-05
1.23981e-08
0.000288198
3.97762e-07
1.90223e-10
6.70841e-10
1.20215e-08
1.49228e-11
0.00960945
0.0239542
0.010645
0.0240863
0.0230977
0.0102385
0.010011
0.0010816
0.00706922
0.00270713
0.00405159
0.00242364
0.00361701
0.00126128
9.97139e-06
0.000398798
8.84465e-05
0.000266817
4.81282e-05
0.000132892
2.38452e-05
6.60349e-09
1.26101e-06
1.75939e-07
8.66474e-07
4.56101e-08
1.90661e-07
2.63191e-08
1.33546e-05
1.69979e-07
8.26709e-07
4.93281e-08
1.82791e-09
7.19273e-09
7.24578e-12
3.71549e-08
5.52959e-10
0.0672109
0.0731627
0.0439452
0.0436914
0.0704929
0.042374
0.0697205
0.0574266
0.0372017
0.0439226
0.0250057
0.0606465
0.0359177
0.0409987
0.00780468
0.0202186
0.0129092
0.0053385
0.0192912
0.00837379
0.0049032
0.016041
0.0277275
0.0147347
0.00928347
0.0254575
0.0178544
0.00850401
0.0110906
0.00596095
0.0102505
0.00314291
0.0129709
0.00517331
0.00794328
0.000461979
0.00220452
0.000910448
0.000251672
0.00183811
0.000586492
0.000169256
0.00289611
0.00804191
0.00173383
0.00144918
0.0052837
0.00558503
0.00079962
0.00124432
0.000638963
0.00136853
8.36518e-05
0.0031145
0.000288635
0.000448202
1.66748e-06
8.7694e-05
7.08173e-06
9.98296e-07
3.39035e-05
5.14572e-06
2.80952e-07
0.00176739
0.0106994
0.00322055
0.00415011
0.00395291
0.00501104
0.00139548
0.000513667
0.000989774
0.00126223
0.000383364
0.000729191
0.00181576
0.000922154
0.000189629
0.00225165
0.000554579
0.000262985
0.000185513
3.37235e-05
0.000129054
5.41431e-05
3.78233e-05
0.000524175
2.07206e-05
1.78227e-05
0.000143172
0.000176894
4.07831e-06
7.49175e-06
3.29994e-06
9.16406e-06
5.92137e-08
4.72881e-05
5.61052e-07
9.97544e-07
8.11754e-10
1.15422e-07
2.42734e-09
3.40642e-10
2.35826e-08
3.3004e-09
8.46861e-11
5.0833e-06
3.85473e-07
1.78834e-08
9.84382e-06
3.93473e-08
8.99943e-07
4.12207e-07
1.86501e-12
9.99335e-14
1.02964e-12
1.69191e-09
6.88965e-13
1.41275e-12
1.2166e-13
9.11194e-08
3.7646e-08
1.0267e-06
4.10737e-09
2.80997e-09
7.53495e-08
2.97806e-10
7.01394e-15
4.57289e-08
5.06212e-13
0.25677
0.189879
0.152648
0.104303
0.0917128
0.0272788
0.0199861
0.00209543
0.0130342
0.00116422
0.000374344
6.93857e-05
0.000947723
0.000814669
7.48037e-05
5.92046e-05
0.180513
0.29744
0.186925
0.251261
0.291356
0.181716
0.184833
0.163647
0.228758
0.23086
0.129173
0.269083
0.162407
0.13306
0.0830641
0.193313
0.0976594
0.128991
0.102846
0.166611
0.0777816
0.0705932
0.115081
0.133773
0.0559161
0.148318
0.0655974
0.0605716
0.0368179
0.118248
0.0454886
0.0737318
0.0498224
0.0971351
0.0329502
0.0228684
0.0499789
0.0388942
0.00986233
0.0684878
0.019852
0.0117469
0.00245752
0.0189798
0.00443777
0.00608866
0.00544729
0.00907845
0.00192207
0.00105452
0.00277339
0.00199297
0.000282434
0.00432683
0.00077958
0.000428839
0.0213025
0.0375667
0.0230849
0.00960712
0.0424017
0.0188538
0.0111651
0.0109442
0.00460378
0.00486888
0.00251592
0.00969291
0.00540465
0.00555513
0.000157721
0.00102589
8.2479e-05
0.000118075
0.000272431
0.000454139
2.82664e-05
0.00217707
0.00103294
0.000259275
0.00261555
0.000849268
0.00104893
0.00034022
2.73548e-05
1.46173e-11
9.72784e-12
6.15854e-08
3.07945e-05
9.07957e-06
7.03419e-06
6.53426e-05
1.93458e-11
4.21464e-06
1.28754e-12
3.96243e-09
1.2906e-14
3.28589e-12
3.03024e-17
1.14196e-09
4.2194e-16
3.36605e-19
1.35397e-17
0.000673826
9.93288e-05
0.000226208
5.9745e-05
6.05999e-06
8.62386e-10
1.16355e-06
3.58255e-10
8.18931e-05
4.57095e-06
9.89297e-07
6.56099e-09
2.97718e-07
4.58944e-11
1.58341e-07
2.02778e-09
8.01021e-10
5.36766e-11
1.3362e-10
6.88065e-12
2.59916e-13
1.32322e-12
4.15412e-09
4.6632e-14
2.61104e-12
5.07779e-14
5.2642e-06
2.80414e-09
4.98486e-09
1.52042e-05
2.66547e-06
1.23914e-09
1.81781e-09
1.40393e-07
9.57817e-11
9.23348e-11
2.63856e-08
1.88609e-10
1.0705e-10
2.59526e-12
5.08601e-12
8.69181e-13
2.87613e-13
1.96121e-11
1.75278e-12
3.1381e-14
3.86483e-14
3.68275e-13
1.54348e-15
7.24699e-15
6.78522e-15
3.36616e-14
8.97939e-17
7.16181e-16
3.7894e-12
2.48967e-14
8.99533e-14
7.2564e-13
2.71498e-14
0.00286602
0.0032194
0.000643959
0.000620726
0.00306323
0.000588633
0.0030204
0.00224459
0.000446805
0.0014425
0.000205417
0.00241922
0.000417382
0.00131337
2.85647e-08
2.03269e-07
6.92324e-07
5.20514e-06
1.70596e-07
5.80128e-07
3.45805e-08
1.5637e-08
3.1156e-06
3.37364e-08
1.13217e-07
9.70292e-08
3.27914e-07
5.14192e-09
0.000205829
0.000655618
7.02835e-05
2.35338e-05
0.00057439
0.000252253
1.82791e-05
6.20781e-05
5.44969e-06
2.40014e-05
5.27359e-07
8.61347e-05
3.53417e-06
1.44265e-05
2.39868e-10
8.24396e-09
2.74563e-08
6.30521e-08
1.22381e-09
1.67332e-09
5.54673e-09
3.45332e-07
5.10789e-06
6.96077e-08
2.5732e-08
2.39427e-06
9.20689e-07
9.61054e-09
5.28832e-08
4.4712e-09
2.9494e-08
2.61274e-10
1.636e-07
1.51801e-09
8.85656e-09
2.09306e-10
4.96068e-09
4.35429e-11
1.95341e-11
1.44239e-09
7.29092e-10
7.06624e-12
2.62271e-11
2.45441e-12
9.33104e-12
2.02776e-13
9.0005e-11
8.92972e-13
2.90829e-12
3.23254e-11
9.07796e-09
9.5545e-11
5.77365e-10
1.94553e-10
1.20484e-09
1.64083e-11
7.97947e-13
2.13361e-12
8.25939e-14
1.3655e-14
4.03972e-12
4.29509e-13
2.16035e-14
6.84045e-05
3.02268e-06
5.7566e-05
5.92221e-05
2.55462e-06
2.54318e-06
3.08543e-06
3.56517e-06
1.29922e-07
9.37295e-07
6.96108e-07
2.66946e-08
1.88622e-08
1.04888e-07
1.79756e-09
9.57715e-11
6.31441e-10
2.53142e-10
1.73256e-11
7.51429e-12
4.33591e-11
1.28857e-12
8.29204e-14
4.85874e-13
2.31641e-13
1.42306e-14
2.87995e-14
6.72266e-14
1.59747e-10
3.27162e-11
9.47574e-11
5.95583e-12
3.04445e-12
7.12744e-13
1.16335e-11
2.23242e-15
9.62921e-18
5.22184e-17
4.2771e-16
1.75603e-16
7.86021e-18
5.39218e-18
1.1297e-13
3.4548e-15
4.95575e-15
1.60392e-16
3.68557e-05
1.41204e-05
5.27969e-07
3.65348e-05
1.47725e-06
1.39859e-06
4.61678e-07
1.69549e-07
1.40044e-08
6.60263e-10
1.05547e-07
4.43516e-09
2.70771e-09
3.5256e-10
1.08995e-10
7.44665e-12
5.46393e-13
4.12493e-11
2.67397e-12
1.18534e-12
3.42243e-13
6.09963e-14
9.02118e-15
2.6231e-16
3.04027e-14
1.59909e-15
4.14094e-15
1.22843e-15
9.0202e-13
1.75714e-14
4.27983e-15
2.12575e-13
9.00378e-14
3.3641e-14
8.9394e-15
7.857e-12
7.327e-13
1.67919e-13
1.33943e-11
2.58081e-12
2.7796e-13
4.91269e-14
2.8419e-13
2.06994e-14
7.58354e-15
1.63864e-13
6.66353e-14
3.81347e-15
1.45484e-15
6.90146e-15
2.04512e-16
1.47323e-16
5.37723e-16
9.29768e-16
1.00328e-17
3.31259e-17
1.38933e-16
6.84797e-19
3.18795e-18
2.05945e-18
1.48576e-17
7.84034e-20
6.45921e-19
3.67528e-15
1.35294e-16
2.07405e-18
3.0215e-20
1.04433e-14
1.21535e-12
1.87376e-12
3.33633e-10
9.38595e-14
2.25988e-12
1.28404e-10
1.39151e-12
6.12291e-13
7.72886e-13
3.57195e-14
6.21249e-12
5.12007e-08
2.58001e-05
2.13118e-06
2.1152e-08
5.72756e-11
7.79674e-13
3.43518e-14
1.11138e-16
2.54377e-15
2.34675e-13
7.03541e-15
4.18044e-11
4.10401e-10
9.93251e-13
9.63818e-09
1.50827e-11
1.37968e-10
4.51676e-13
2.36181e-12
1.99405e-12
1.02322e-13
6.4326e-12
3.69278e-13
1.71133e-13
1.30565e-14
4.76602e-14
2.82432e-14
1.79302e-15
1.51083e-13
9.67403e-15
6.35512e-15
5.15467e-16
1.69047e-15
1.06667e-15
7.07172e-17
4.2679e-15
2.7102e-16
1.46632e-16
2.0899e-17
8.54027e-17
7.26056e-14
1.60188e-14
1.8295e-15
5.60432e-16
1.043e-15
1.42756e-16
1.86182e-14
9.50966e-15
2.7919e-16
8.01721e-18
3.53221e-21
2.71006e-17
2.10832e-19
1.57434e-18
1.61347e-20
2.68359e-20
3.10683e-22
4.33194e-22
5.4085e-24
3.56478e-23
3.53154e-25
1.51767e-19
1.78557e-21
2.10114e-23
2.3976e-25
4.38944e-14
1.57735e-14
2.63672e-15
1.79134e-16
2.92023e-16
3.44072e-18
4.38666e-20
5.72638e-22
7.21301e-24
8.62069e-26
0.113406
0.0548687
0.0573527
0.0984575
0.103202
0.0364836
0.0657371
0.0692918
0.0348232
1.26592e-18
1.21337e-17
1.18078e-19
1.23356e-18
1.23531e-20
3.9076e-20
4.13188e-22
1.17465e-21
1.28497e-23
1.17677e-22
1.12124e-24
9.27778e-16
1.10884e-16
3.44573e-18
1.01005e-19
1.22086e-20
0.00250769
3.28961e-14
1.57934e-15
1.31437e-13
1.18835e-11
2.30526e-14
7.95505e-13
4.22534e-14
1.90408e-15
1.91533e-15
9.46205e-17
0.0025087
0.00198779
4.84556e-05
1.919e-06
1.04274e-08
3.7302e-10
5.73862e-13
1.55427e-13
1.92617e-14
1.46217e-15
6.93628e-06
9.75922e-09
1.16572e-05
2.17394e-06
1.17393e-06
1.61035e-06
7.22988e-07
5.92118e-08
1.3569e-07
0.223487
0.170461
0.0953336
0.04669
0.143464
0.0447868
0.0243491
0.0832048
0.0456872
0.0640563
0.0408885
0.0514248
0.0291588
0.0157112
0.0306344
0.0275597
0.0183279
0.0166438
0.0507606
0.033056
0.0183044
0.0377899
0.0213857
0.0135257
0.00992793
0.00949648
0.0122989
0.00726794
0.0109661
0.0309404
0.0168512
0.040772
0.0121826
0.0279938
0.015301
0.00468811
0.00793034
0.0058625
0.00647281
0.227075
0.0986708
0.0543101
0.010531
7.84746e-05
0.189717
0.145427
0.128493
0.0929361
0.0562396
0.0610678
0.0573151
0.0215892
0.0188927
0.000876986
0.112423
0.215838
0.118861
0.221836
0.21156
0.115516
0.11556
0.0323223
0.0981292
0.0474557
0.0708836
0.0472342
0.0731752
0.0316394
0.0191546
0.0586067
0.0200302
0.0490386
0.0214393
0.05207
0.0180897
0.00185351
0.011007
0.00393117
0.00490492
0.00411755
0.00517904
0.00174896
7.77863e-07
1.29829e-09
0.108434
0.204037
0.10688
0.185896
0.200264
0.103739
0.111503
0.078344
0.081786
0.078815
0.0813113
0.0770068
0.077596
0.0746358
0.0799871
0.0977436
0.194128
0.142094
0.0729954
0.186674
0.0999757
0.071915
0.0943695
0.165304
0.137035
0.0668142
0.177738
0.0902239
0.0697211
0.0680269
0.0503158
0.0684685
0.0499617
0.0666947
0.0469682
0.0644353
0.0488131
0.0324084
0.0970036
0.0448171
0.072422
0.0464359
0.0742824
0.0317139
0.0197628
0.0315935
0.0314587
0.0195442
0.0195501
0.0296963
0.0308075
0.0190253
0.0257673
0.0594523
0.0609278
0.0215716
0.063611
0.0244344
0.023094
0.026282
0.0641443
0.0632139
0.023083
0.0657733
0.025774
0.0236971
0.0141721
0.0109265
0.0137035
0.0114682
0.0141561
0.0112072
0.0138565
0.0115223
0.019331
0.0603199
0.021061
0.0487875
0.0219165
0.0525799
0.0181111
0.00793958
0.00926069
0.0097486
0.00757796
0.00787114
0.00934534
0.00977919
0.00725211
0.0145696
0.0369914
0.0224032
0.00820549
0.0385931
0.0139582
0.0085232
0.014382
0.0342154
0.0218961
0.0069481
0.0382253
0.0128058
0.00824553
0.00550528
0.00288034
0.00530089
0.00298228
0.00534595
0.00232318
0.00464882
0.00283586
0.000552079
0.00128609
0.00134316
0.000521142
0.000769686
0.0021816
0.000958512
0.00025199
0.00233504
0.000714397
0.000278713
0.000201878
5.32065e-05
0.000186413
5.9851e-05
3.25668e-08
9.31821e-06
3.49586e-07
4.62481e-07
1.13034e-05
4.53775e-08
1.04557e-06
0.507959
0.476213
0.392232
0.311135
0.282686
0.360858
0.40206
0.248621
0.200252
0.165702
0.0474555
0.0237008
0.00529842
0.466431
0.356564
0.294623
0.429965
0.222634
0.181007
0.129341
0.117433
0.0406305
0.401381
0.398492
0.392873
0.40656
0.384372
0.339442
0.372548
0.35632
0.296987
0.306663
0.324865
0.281739
0.276051
0.264439
0.176504
0.381144
0.363308
0.321356
0.289341
0.356628
0.315933
0.387205
0.35962
0.265144
0.296055
0.242777
0.333622
0.289822
0.323045
0.246941
0.259032
0.193773
0.154117
0.281721
0.231043
0.161648
0.223279
0.13947
0.19641
0.135614
0.211592
0.145543
0.2067
0.167478
0.180099
0.124576
0.0987603
0.190547
0.156264
0.106739
0.129935
0.0707843
0.0730643
0.0463874
0.118836
0.078695
0.081565
5.17215e-14
6.11194e-16
2.95879e-15
9.8445e-18
9.99599e-17
2.74945e-15
8.79583e-15
4.69545e-16
6.29014e-16
2.49944e-16
3.78086e-17
1.16096e-17
3.50834e-19
2.0279e-19
4.61442e-21
6.43932e-17
5.58187e-19
1.75716e-18
0.0283838
0.169364
0.00175857
4.57905e-07
5.30709e-10
3.73753e-14
5.40574e-14
1.99182e-16
3.63614e-17
0.00871638
0.0453038
0.000522917
1.71549e-08
2.11583e-11
1.4034e-15
7.7522e-17
1.09544e-17
1.49701e-18
0.000303555
0.00974607
4.14769e-06
1.75498e-12
3.17924e-15
8.4398e-18
2.93995e-21
9.62894e-20
1.86115e-20
2.95587e-06
0.00190138
3.13104e-10
3.32069e-16
6.01416e-20
1.60347e-20
2.86694e-22
7.07121e-22
1.41162e-22
4.85544e-13
9.83217e-06
6.75377e-15
5.23582e-11
1.95349e-18
7.19432e-18
7.19617e-22
9.66976e-20
1.02827e-14
3.01745e-10
1.83229e-17
6.07093e-14
2.63191e-20
1.54635e-18
0.404521
0.370187
0.341114
0.406807
0.127304
0.00931379
0.0226198
0.0609105
0.00782553
0.233402
0.0838981
0.145797
0.000110107
0.00143643
7.64155e-05
2.18545e-08
1.81137e-10
6.21683e-12
2.15494e-07
4.10501e-09
9.55748e-11
1.36856e-12
4.65177e-12
1.84471e-12
6.78557e-13
8.80597e-11
5.83631e-13
6.04385e-13
2.25847e-13
0.166228
0.0763781
0.0322028
0.00338365
0.00218543
0.00716555
0.000776131
0.0115983
1.55182e-05
7.79687e-05
6.69491e-07
1.02455e-09
6.57789e-12
1.40585e-12
3.17754e-10
2.32724e-12
1.54192e-13
3.42322e-13
1.35099e-13
1.18246e-13
4.0432e-14
4.30832e-14
4.71242e-16
6.97992e-15
1.78537e-15
0.0574067
0.0429332
0.0752138
0.00567659
0.000295661
4.60266e-05
0.00205062
3.61543e-05
0.00390405
0.0185526
4.65598e-09
2.4835e-08
1.2411e-11
1.75013e-13
2.87587e-14
6.81101e-15
6.18291e-15
4.05257e-17
3.02485e-16
5.265e-17
6.27402e-17
9.87392e-17
4.59826e-17
7.34191e-19
3.64277e-19
1.04628e-18
1.16649e-18
0.00778878
0.0389034
0.00173457
0.00434429
0.00100068
1.7006e-06
4.03215e-08
4.60297e-05
6.2542e-11
0.00893485
9.65327e-05
0.000665822
2.15998e-13
1.9739e-12
3.88976e-16
3.29806e-18
4.19698e-18
4.01755e-19
7.62993e-18
3.20073e-20
1.67851e-19
5.22145e-21
6.35647e-20
1.00805e-20
3.4955e-20
1.67368e-19
1.54083e-17
1.54133e-21
9.86854e-21
1.26667e-11
5.24439e-17
8.6197e-17
6.13118e-15
3.41325e-14
1.16646e-16
6.88484e-16
3.42932e-09
3.78781e-16
2.43006e-14
2.66174e-13
1.41538e-12
6.00683e-15
4.15048e-14
0.000132163
6.46064e-11
1.21507e-05
1.77467e-12
8.11287e-10
5.48073e-15
1.04985e-13
2.28708e-18
8.10073e-16
3.77639e-19
0.00684471
0.00568814
0.00208052
2.88437e-06
7.2332e-05
8.43415e-05
0.00163023
1.53057e-06
4.6561e-05
0.00191489
8.37563e-05
0.000479307
2.13501e-09
7.0337e-06
2.67224e-07
4.2494e-05
5.69766e-10
1.65377e-07
3.74253e-06
3.79814e-08
4.62077e-08
2.4858e-13
5.67867e-10
1.72138e-12
9.46216e-11
4.36487e-14
1.07525e-12
3.83443e-10
3.13368e-12
9.81897e-13
3.79523e-15
6.45805e-14
1.20893e-14
2.46992e-13
3.17376e-16
6.14373e-15
0.100847
0.209616
0.0847696
0.160046
0.200266
0.0805877
0.105336
0.00169444
0.00447556
0.00433251
0.00178078
0.0046854
0.00454121
0.00184539
2.18572e-12
1.21337e-11
9.60693e-11
4.41686e-10
9.94826e-12
7.86451e-11
2.70826e-12
0.0183433
0.0636055
0.0247813
0.0244415
0.0328854
0.0363892
0.0132619
0.00155604
0.000221657
0.000734124
0.000253266
0.00166789
0.000573459
0.000810738
2.05936e-14
4.22075e-13
3.37458e-12
3.75254e-12
8.93274e-14
7.24545e-14
5.86462e-13
0.00659415
0.0179608
0.0044357
0.00823456
0.00758886
0.0158558
0.00362881
4.38466e-07
2.94241e-05
6.15437e-06
1.09472e-06
4.59513e-05
7.19519e-06
1.24469e-05
4.03632e-18
5.68173e-17
4.42005e-16
1.97252e-16
1.68063e-17
3.57972e-18
3.27347e-17
0.000500868
0.00364436
0.000659332
0.000806124
0.00128946
0.00156355
0.000246216
8.46489e-12
3.61945e-09
9.65955e-11
4.22935e-11
2.19794e-08
4.75586e-10
1.98947e-09
1.97591e-22
1.12571e-21
9.43063e-21
4.24427e-21
8.04356e-22
2.59457e-22
1.21943e-21
8.36689e-14
4.77701e-08
1.75122e-13
1.15259e-06
6.74547e-10
1.68156e-09
2.35464e-13
5.16956e-05
2.64287e-09
3.61336e-07
6.71838e-09
3.65821e-07
5.87807e-13
5.31189e-10
7.00663e-13
2.36076e-10
1.02023e-12
6.15413e-12
4.57871e-12
2.78667e-11
1.61711e-13
3.31047e-20
9.34693e-21
9.76995e-19
1.65454e-18
1.50608e-20
1.26303e-17
2.1761e-19
1.79828e-16
8.82266e-20
4.28841e-19
8.14126e-17
5.43199e-16
1.27385e-18
6.86165e-18
0.044323
0.0929192
0.0636704
0.119515
0.0870546
0.0603481
0.0467368
0.00899864
0.0169745
0.0162938
0.0210535
0.0101614
0.00982005
0.0220056
0.0288328
0.040807
0.0388387
0.0302788
0.0366616
0.0955807
0.0444545
0.0331552
0.0695947
0.0496163
0.0247965
0.0139749
0.00570847
0.0100006
0.0179401
0.00625938
0.00854692
0.0127403
0.0243202
0.022544
0.0326213
0.0169752
0.114056
0.232658
0.120258
0.227395
0.224806
0.116728
0.118208
0.0643642
0.0539255
0.0514413
0.067224
0.0738415
0.0809265
0.0779575
0.0768387
0.0842489
0.129598
0.111975
0.0444812
0.166244
0.0664626
0.057472
0.0970339
0.197764
0.136314
0.0726395
0.192064
0.100606
0.0682783
0.0547943
0.0300898
0.0433664
0.0386402
0.0635976
0.0494733
0.0676247
0.0458283
0.000101921
0.000525332
0.000501327
0.00052756
0.000113559
0.000105533
0.00055176
0.00375688
0.000984008
0.00270444
0.00151726
0.00285714
0.00394568
0.00105241
0.000411209
4.15699e-05
0.000263638
0.000436049
4.49808e-05
8.01701e-05
0.000285068
6.50233e-08
8.02333e-07
3.08378e-09
1.84886e-08
6.94991e-07
2.56189e-09
7.71254e-08
3.82174e-08
1.09756e-08
1.78158e-07
5.06387e-10
4.38265e-07
1.45047e-09
1.40861e-08
1.36324e-13
3.8514e-13
1.4523e-12
3.73995e-12
3.10374e-13
1.15917e-12
1.58956e-13
1.16806e-12
2.51066e-10
1.80515e-12
1.46236e-11
5.44561e-12
4.30018e-11
3.92929e-13
6.08809e-14
1.92237e-12
4.99757e-14
1.98339e-13
1.60832e-13
5.78525e-13
2.63261e-14
0.00725964
0.0234914
0.0183649
0.0168177
0.0138819
0.012093
0.00963734
0.00584344
0.00169944
0.00296855
0.00386846
0.0037505
0.00743686
0.00193043
0.00502652
0.0127556
0.00971606
0.00660335
0.00403659
0.0100666
0.0047506
0.00362696
0.00699975
0.00550185
0.002526
0.00143467
0.000675199
0.000322653
0.0019952
0.000424499
0.000927099
0.00106156
0.00264919
0.00212011
0.00356463
0.00149421
0.0122237
0.0171178
0.0224835
0.00899679
0.0116315
0.0153701
0.0200879
0.00553923
0.0246527
0.0078903
0.00882504
0.00723784
0.00318687
0.00503856
0.00493308
0.000125124
3.97655e-06
4.3582e-05
5.27544e-05
1.78402e-05
0.000140971
4.97064e-06
0.000296691
2.14453e-05
0.000102508
9.55409e-05
0.000134047
0.000347992
3.00111e-05
6.85496e-08
1.14684e-05
2.07049e-06
1.51229e-05
1.22492e-07
9.74159e-07
3.25213e-06
6.408e-10
4.73856e-08
1.21241e-10
1.9e-10
3.47413e-09
9.23103e-09
2.16297e-11
8.08074e-11
2.43632e-11
1.2254e-10
2.57046e-13
1.24322e-09
2.60879e-12
7.75896e-12
1.55405e-15
1.14923e-14
4.29492e-14
2.47123e-14
5.66146e-15
1.94678e-15
1.16495e-14
1.90077e-15
4.62948e-13
7.88653e-16
6.50334e-15
8.57512e-15
6.71423e-14
4.10789e-16
1.69399e-16
3.5392e-15
2.52103e-17
3.09075e-16
2.37706e-16
1.2061e-15
4.41213e-17
0.00121997
0.00357082
0.00270063
0.00455532
0.00174648
0.00271291
0.00205599
0.000112543
0.000115964
3.44303e-05
0.000280022
0.000179573
0.000564534
6.88299e-05
0.000517106
0.00136653
0.000885953
0.000886475
0.000767859
0.00335608
0.0011023
0.000778492
0.00189332
0.00141511
0.000391389
9.41742e-06
7.99683e-06
1.17427e-06
0.000120073
4.84935e-06
2.08505e-05
4.14431e-05
0.000268202
0.000239342
0.000516308
0.000111904
0.00285155
0.00222776
0.00374127
0.00157604
0.00504045
0.00630441
0.00762395
0.00151344
0.0124113
0.0026541
0.00292583
0.00855696
0.0314421
0.0132038
0.007026
0.0219357
0.0119478
0.00501082
0.00190832
0.000487537
0.000993347
0.000972864
0.00325513
0.00245441
0.00454921
0.00171867
2.49702e-10
2.02721e-07
1.18737e-08
3.32261e-08
1.03894e-08
4.17432e-07
6.95716e-10
7.46359e-07
5.01569e-08
1.34058e-09
9.30213e-08
2.5657e-07
2.37157e-06
6.15122e-09
7.17471e-13
5.75253e-10
3.15832e-11
2.05179e-09
2.55389e-12
4.11013e-11
1.27308e-10
3.13945e-14
9.40222e-12
1.73865e-14
1.09903e-14
5.08593e-13
5.99075e-13
1.25658e-15
1.79083e-15
6.31869e-16
2.18883e-15
5.70999e-18
3.45488e-14
6.26529e-17
1.18072e-16
9.41052e-19
2.4329e-18
2.35943e-17
1.01197e-17
3.48966e-18
3.01158e-19
6.86493e-18
1.12163e-19
1.13279e-17
1.36347e-20
1.61897e-19
2.03646e-19
1.6565e-18
1.90084e-20
8.33859e-20
1.85416e-18
8.95196e-21
2.02371e-19
4.67649e-20
6.6261e-19
2.35211e-20
5.58514e-05
0.00051907
0.000333748
0.000416151
0.000160229
0.000208911
0.000120902
2.16811e-07
1.00783e-08
1.11927e-07
2.21326e-06
7.57031e-07
1.08187e-05
8.5696e-08
9.82491e-06
8.57115e-05
3.69762e-05
2.47156e-05
1.5634e-05
0.000151056
2.16988e-05
7.85648e-06
7.42212e-05
3.6252e-05
3.11798e-06
1.52607e-09
2.0435e-08
8.55907e-10
2.88707e-07
5.43837e-10
7.63711e-09
2.32087e-08
1.77797e-06
5.79684e-07
5.1404e-06
1.78254e-07
0.000929266
0.00629068
0.00329093
0.00405573
0.00227174
0.00276302
0.00141597
0.000126345
0.00018203
0.000378956
5.59857e-05
0.000255878
0.00106273
0.000708143
0.000412182
0.000171575
0.000302562
0.000206171
1.8864e-05
0.000611626
7.84808e-05
4.67503e-05
0.000340865
0.00174186
0.000405332
0.000183061
0.00113229
0.000553165
0.000103143
3.43866e-05
1.81041e-06
1.32975e-05
6.07307e-06
7.79477e-05
3.59565e-05
0.000138476
1.73257e-05
9.68914e-15
5.66924e-14
2.34581e-12
8.75775e-13
2.00434e-13
9.82136e-12
1.81854e-14
2.62808e-11
6.75145e-14
7.2659e-13
3.57077e-12
1.20475e-11
1.67816e-10
2.62667e-13
2.02138e-15
1.87615e-14
9.0053e-16
7.44421e-14
1.29129e-16
1.55897e-15
5.60264e-15
8.2156e-19
1.76322e-16
3.45448e-19
2.42083e-19
9.4322e-18
1.46095e-17
3.93349e-20
6.59891e-20
1.85502e-20
8.03422e-20
2.95957e-21
1.12491e-18
2.45961e-21
1.16469e-20
8.57216e-22
1.53887e-21
2.20525e-20
1.21527e-20
2.60892e-21
1.0102e-21
6.63481e-21
1.32065e-21
2.52539e-21
1.04483e-18
1.00976e-20
1.35392e-20
4.1321e-22
5.31125e-20
5.75031e-21
2.16171e-19
4.35947e-18
7.78378e-19
5.89383e-20
2.04805e-20
2.27493e-19
1.1035e-14
3.57152e-12
2.38014e-13
1.46158e-12
6.5266e-14
3.879e-13
3.73167e-14
2.92151e-16
4.47347e-15
2.2342e-17
6.65026e-17
1.18817e-15
9.4032e-16
2.13252e-17
2.90764e-12
1.00281e-09
6.69958e-11
4.04951e-10
1.92839e-11
1.15959e-10
1.01432e-11
1.68573e-14
1.96142e-14
1.66138e-15
2.3164e-16
8.7404e-14
4.01501e-15
6.808e-16
6.77435e-14
1.28038e-12
6.89087e-15
7.05393e-15
3.65158e-13
2.36377e-13
3.26793e-15
1.73829e-10
1.13935e-12
2.6156e-15
5.53757e-12
2.85138e-15
1.31677e-16
2.86457e-15
9.68721e-20
7.91662e-19
2.7544e-18
3.85092e-21
3.98116e-21
7.7095e-09
4.17458e-16
2.59646e-19
1.04407e-13
4.0442e-18
3.69209e-11
2.36781e-11
1.15069e-11
2.22776e-12
2.094e-14
1.59264e-09
1.17882e-13
7.07408e-12
2.33269e-10
2.97315e-15
1.69709e-13
1.57967e-17
1.17048e-12
7.78911e-17
4.67323e-15
1.97711e-13
2.30956e-18
1.35671e-16
3.89701e-17
2.31662e-16
1.05862e-19
3.93826e-18
5.93284e-14
1.92465e-12
5.06942e-14
1.08226e-09
6.10306e-09
4.52537e-11
1.41601e-10
5.0432e-09
3.65171e-11
1.3294e-09
8.27049e-12
2.17106e-10
1.43444e-12
1.04621e-12
4.32131e-11
4.23752e-11
3.83797e-13
3.49604e-15
1.26553e-13
7.92232e-16
4.53141e-16
2.11865e-14
1.99374e-14
2.29133e-16
3.12513e-18
1.15908e-16
7.32881e-19
4.10053e-19
2.00962e-17
1.71642e-17
2.00044e-19
3.48077e-11
1.05987e-08
1.55475e-10
9.45764e-10
2.1859e-10
1.34255e-09
2.41054e-11
9.72251e-16
1.39362e-18
1.84898e-18
1.03222e-15
1.05505e-15
1.70965e-17
1.7764e-17
5.72996e-10
7.50222e-11
9.104e-10
6.31458e-12
2.76475e-09
1.89356e-11
1.87415e-10
1.17684e-12
1.5522e-13
9.06481e-13
1.04025e-14
6.53629e-12
4.11009e-14
1.67201e-13
3.60007e-11
1.06836e-08
3.86106e-11
1.2628e-10
2.69123e-10
8.75275e-10
5.25517e-12
1.08808e-13
5.51521e-12
1.57051e-11
3.69277e-11
6.63793e-13
8.69483e-13
2.4844e-12
6.02855e-16
8.26149e-17
6.72253e-16
6.88879e-18
3.5807e-15
2.21648e-17
1.21319e-16
1.84706e-14
6.44345e-12
2.8344e-14
8.08742e-14
1.53746e-13
4.31276e-13
3.61304e-15
9.36835e-17
4.83631e-15
1.35874e-14
2.94051e-14
5.97572e-16
7.20645e-16
2.06231e-15
4.55344e-19
6.08517e-19
5.92874e-17
1.99156e-18
2.98609e-18
6.78408e-20
3.12423e-18
1.14457e-17
3.68469e-15
6.50208e-17
2.22743e-17
9.07602e-17
2.55989e-16
4.22986e-18
8.31458e-13
3.05296e-12
8.65865e-14
1.55379e-14
4.37894e-12
5.64484e-13
2.1782e-14
3.48555e-08
1.94144e-10
5.33178e-11
1.03003e-08
1.49371e-11
4.42847e-10
1.5348e-09
1.25251e-07
1.18965e-08
2.19416e-10
5.25998e-07
9.85126e-10
2.66738e-08
5.98214e-09
1.42658e-08
5.26121e-06
1.64862e-07
5.03597e-08
1.95877e-06
4.16286e-09
1.10731e-07
3.80213e-07
1.14679e-05
1.00965e-05
3.53564e-07
1.05192e-05
9.3611e-06
4.16164e-07
1.67122e-14
1.00134e-12
9.18964e-13
6.43716e-13
1.01701e-14
2.32673e-13
4.29192e-15
1.79253e-15
6.23865e-16
1.90963e-14
3.30023e-14
6.68486e-16
1.2886e-14
2.92472e-16
2.78802e-09
7.37089e-07
1.33419e-07
3.89207e-09
8.46229e-07
2.07404e-08
1.75272e-07
9.9288e-14
2.37943e-16
1.03632e-14
9.13599e-14
1.57181e-15
6.90575e-15
1.01566e-16
3.13273e-15
4.40739e-18
1.20701e-16
4.33976e-15
7.88977e-17
1.77111e-16
4.02231e-18
1.01445e-13
9.22167e-11
5.02081e-12
2.53372e-13
2.02714e-10
3.90252e-12
1.31341e-11
4.16925e-16
1.61622e-18
7.6484e-18
1.03784e-16
1.82922e-18
1.20897e-18
4.78142e-20
7.91874e-20
1.00001e-19
3.13833e-18
3.77541e-18
7.55597e-20
5.54318e-20
1.92912e-21
9.69423e-17
1.52129e-16
1.42202e-15
1.05501e-17
3.79725e-15
7.42337e-17
3.59038e-16
1.2791e-20
3.23972e-20
1.18977e-19
1.21951e-20
9.54409e-22
3.56685e-22
2.00221e-22
1.34105e-23
8.28748e-23
2.49841e-21
6.68479e-22
3.44255e-23
5.54941e-23
6.14613e-24
9.48711e-14
1.24012e-15
3.63145e-15
1.70588e-15
8.16792e-13
1.8485e-14
4.85737e-14
3.07406e-17
1.9559e-19
9.73092e-18
7.01139e-19
2.22569e-17
4.98168e-18
1.8465e-18
5.21933e-16
1.50938e-13
1.26402e-14
1.67524e-12
5.30655e-14
4.55323e-14
2.16057e-15
8.81583e-13
4.53426e-14
5.41133e-13
6.6449e-12
4.4806e-13
2.93145e-13
1.2835e-14
3.51962e-18
3.91204e-16
1.36646e-17
1.85998e-15
6.40403e-17
7.74604e-17
3.11922e-18
1.70647e-15
1.66439e-15
5.49091e-17
1.23158e-14
3.69939e-16
4.43767e-16
1.75571e-17
6.5643e-06
7.54212e-08
2.77739e-06
2.12816e-07
2.86603e-06
6.31413e-06
8.20124e-08
2.7152e-11
1.62743e-08
1.40835e-09
5.1319e-10
2.58791e-09
2.52698e-08
5.05436e-11
1.38629e-15
2.56888e-13
1.65605e-14
1.43427e-14
4.77107e-14
7.61019e-13
9.3248e-16
1.79221e-17
3.52457e-17
1.00345e-17
9.75503e-19
3.19305e-18
3.15592e-17
2.75006e-19
1.80893e-17
2.41125e-17
1.23746e-16
5.42088e-17
9.99187e-18
4.07755e-16
8.80927e-18
3.10784e-11
2.05299e-07
8.6627e-08
3.00752e-09
2.87775e-13
1.34482e-09
1.4885e-13
9.8036e-14
5.22461e-09
6.42442e-11
5.25089e-11
1.12074e-13
5.52079e-13
1.23248e-14
3.00051e-16
2.63032e-13
1.34528e-14
2.70713e-14
6.57996e-16
1.29558e-15
4.26966e-17
1.15861e-16
2.39723e-17
1.30764e-15
9.99511e-17
3.25483e-18
7.9198e-18
7.06995e-19
1.83718e-17
1.10543e-14
2.20172e-16
5.84044e-16
1.54512e-17
4.42534e-17
3.40783e-18
2.36608e-20
1.09548e-19
6.06766e-18
5.29531e-19
2.74473e-20
8.45133e-20
2.51577e-20
3.06859e-12
8.89828e-11
3.41609e-11
1.28971e-09
1.75789e-12
5.82133e-11
4.44875e-12
5.75222e-19
1.38076e-18
2.85548e-19
3.01822e-20
4.12459e-19
1.2336e-19
1.88419e-19
4.47806e-19
5.39432e-20
2.87162e-18
1.89226e-20
1.34766e-18
2.93412e-19
8.21247e-19
2.88525e-17
8.37434e-18
4.36877e-16
1.25255e-16
2.60975e-18
8.88996e-17
1.17653e-17
4.48318e-14
1.59965e-14
4.02253e-13
1.58156e-11
3.88977e-13
5.34393e-12
1.38554e-13
1.07684e-13
1.6856e-16
4.31463e-15
1.75267e-12
3.34282e-14
1.14335e-13
2.25739e-15
2.54218e-18
3.78897e-18
1.01812e-16
3.21918e-15
5.57982e-17
8.57775e-17
1.5101e-18
2.42867e-22
2.47527e-21
8.03705e-20
2.76878e-18
5.65432e-20
1.11177e-19
3.64806e-21
5.22612e-17
2.0531e-17
1.08857e-15
1.6152e-15
3.09373e-17
5.57586e-16
7.11604e-17
4.2254e-15
3.31406e-15
1.44987e-16
1.57686e-15
4.33966e-17
4.28427e-16
3.17712e-17
5.66221e-16
7.36773e-17
6.27304e-17
3.55251e-16
0.410104
0.159762
0.120135
0.0258895
0.00380508
1.16045e-08
0.233901
0.0580649
0.198169
0.119159
0.0414702
0.0922002
0.432504
0.0353657
0.0119429
0.0477222
0.0194683
0.00303957
0.0114574
0.136053
0.024169
0.00140086
0.00939442
0.0155277
0.000677698
0.003987
0.0815859
0.178444
0.00553319
0.000199832
0.00217843
3.03648e-05
0.000170545
0.107327
0.0161447
2.48626e-13
0.0251999
0.0179416
0.0102023
0.00736793
0.00451539
0.00108393
0.000876719
0.00017662
0.000423545
0.000165402
3.49358e-05
2.74977e-06
3.31874e-05
2.9755e-06
8.22759e-08
9.65141e-10
0.251928
0.307312
0.287579
0.195027
0.264472
0.246668
0.210797
0.0535739
0.0593571
0.0545487
0.104115
0.100313
0.0928137
0.113004
0.186293
0.233451
0.154743
0.153433
0.127338
0.197452
0.0958683
0.0418084
0.0248914
0.0250417
0.080463
0.0443078
0.0723463
0.0486193
0.0637484
0.0514003
0.0873838
0.0267078
0.0691125
0.0497119
0.0388432
0.00559807
0.0121738
0.00571216
0.0117943
0.0221331
0.0239251
0.0109185
0.023913
0.0295823
0.0359051
0.0175189
0.0210059
0.0262008
0.0138956
0.00196788
0.00303947
0.00190771
0.00688108
0.00424443
0.00623448
0.00484168
0.0157767
0.0173895
0.0265392
0.0107484
0.0184173
0.0121321
0.0163799
0.00100614
0.00131913
0.000915566
0.00298973
0.00320584
0.00378032
0.00245084
0.0209084
0.0102754
0.0136101
0.00902075
0.00987232
0.0137635
0.00662732
0.000400431
0.000586234
0.000322975
0.002216
0.00107001
0.00174417
0.00142993
0.00963524
0.00383728
0.00656277
0.00233525
0.00599334
0.00412829
0.00334238
8.49963e-05
0.000149279
5.78274e-05
0.000381286
0.000549209
0.000784654
0.000243883
8.80692e-06
1.78541e-05
4.27602e-06
0.000167968
2.87856e-05
9.38193e-05
6.14859e-05
0.0232518
0.0228026
0.0209899
0.0160266
0.00946769
0.0107369
0.00208418
0.00510964
0.0022958