/*--------------------------------*- C++ -*----------------------------------*\
  =========                 |
  \\      /  F ield         | OpenFOAM: The Open Source CFD Toolbox
   \\    /   O peration     | Website:  https://openfoam.org
    \\  /    A nd           | Version:  9
     \\/     M anipulation  |
\*---------------------------------------------------------------------------*/
FoamFile
{
    format      ascii;
    class       volScalarField;
    location    "0.00185";
    object      rho.c4;
}
// * * * * * * * * * * * * * * * * * * * * * * * * * * * * * * * * * * * * * //

dimensions      [1 -3 0 0 0 0 0];

internalField   nonuniform List<scalar> 
14816
(
4.62574
6.74852
4.74132
3.25957
3.37813
9.53911
7.60663
7.83115
9.2559
36.4717
0.573358
0.00612632
1.90134
3.01952
2.75111
3.75889
3.4162
5.34564
4.95302
7.58836
7.25573
20.4097
20.6475
32.411
22.9309
24.1823
1.007
1.464
1.55792
2.16371
0.982982
1.74812
1.5503
1.11255
2.57151
2.53396
1.79142
2.13974
1.60882
1.32022
1.76697
2.85468
2.02192
3.77245
1.54605
3.12587
2.26959
2.02718
4.28831
4.39513
3.14092
3.54031
2.58449
2.45882
4.63005
5.93247
4.19583
10.1738
3.25913
8.31307
6.04757
6.944
14.5347
17.104
14.5229
12.1522
9.18523
11.2678
36.0151
47.1514
41.4229
18.7615
14.9205
24.9862
25.726
15.8866
17.5405
29.4655
1.52365
0.78098
2.65265
1.64827
3.62184
9.36656
5.01113
21.4254
38.5265
53.6273
0.719041
1.40355
1.86989
1.06962
2.26284
2.39383
1.17611
2.87502
1.46236
3.20833
3.47464
4.38778
8.89116
5.69051
6.33152
16.9294
6.03028
12.8646
4.00067
11.4356
20.6642
23.1593
17.0964
23.1613
2.93892
7.90261
15.6193
29.658
8.81075
36.1009
39.4787
32.0575
38.5659
6.18577
1.73394
1.18109
1.10544
0.826066
1.2417
1.16372
1.65495
6.36281
2.41852
2.64238
2.48912
3.76522
3.69542
4.41976
21.1917
13.4074
16.4599
12.1696
21.1227
16.359
18.0717
31.2751
23.4579
24.977
27.2517
26.0494
28.7599
30.3915
39.5024
43.014
53.6506
50.1998
50.5903
44.1399
2.38739
44.7882
46.6846
1.31796
1.2735
1.04447
0.760745
1.32444
1.0984
1.26365
1.44485
0.854103
1.69668
1.51437
1.44276
1.2265
1.71812
1.97682
0.93448
1.74573
1.78152
1.39563
1.34488
2.55178
2.85091
2.11988
2.02571
2.07038
2.18188
2.7257
2.85284
3.69391
2.99686
4.40658
6.17558
3.48976
4.23905
4.67495
11.0761
3.962
9.61241
12.4105
6.09832
7.72554
17.147
6.43079
5.27271
8.19023
7.55808
5.62041
5.98645
10.0709
7.27608
9.12972
7.52413
14.8508
6.59966
12.0323
8.88435
20.6013
14.4326
19.6726
20.7896
17.8559
18.8046
22.0485
6.15298
3.01576
4.7018
3.73967
4.67964
3.76168
6.30698
13.1162
9.9292
9.62843
13.7619
8.84715
5.16128
7.69881
14.8422
5.12028
9.2292
13.9632
19.0105
29.0819
19.9164
28.3117
18.4476
9.73421
19.4358
22.052
12.3535
14.1902
25.3241
26.3898
29.4413
31.3834
37.0643
21.7013
31.3934
33.6544
36.1256
33.2233
39.1142
40.1813
34.2514
35.6035
35.3693
38.866
44.5313
45.0818
39.4221
46.5715
46.3373
44.6338
0.112843
4.06056e-05
0.0507567
51.3048
0.0647128
0.0805729
6.71277e-05
39.6683
41.8369
39.3229
41.7349
45.4354
44.2319
45.5801
3.5102e-07
49.2187
0.0134488
1.2453
1.35108
1.3804
1.28405
1.30842
1.69822
2.12203
4.84052
2.04918
5.42541
10.1406
24.2428
10.0934
7.78903
29.3529
29.4971
1.02455
0.941025
1.26861
1.26046
0.910203
1.28282
1.06388
0.964947
1.29362
0.796423
1.39437
0.848948
1.31846
0.907209
0.789637
0.747701
1.44106
1.35883
0.844093
0.705396
1.41514
0.790995
1.30873
0.735918
1.36195
0.696109
1.35411
0.864743
1.12087
0.822295
1.4443
1.36766
0.989107
0.923095
1.56497
1.28882
1.48548
1.24208
2.05038
1.05649
1.74925
1.53067
2.5529
1.48972
2.57865
2.65337
1.9093
1.88368
3.52242
3.68635
3.64933
3.62915
8.49019
2.54175
5.24191
5.8992
2.27354
1.72378
2.27838
2.64948
1.90934
2.08937
2.77104
2.82335
3.46772
3.43082
4.89636
2.62566
3.5644
3.621
16.4758
6.37282
17.3938
19.1207
11.1332
10.9128
28.5949
5.00116
7.6444
14.0059
5.0168
8.34199
8.02292
13.1963
40.1267
7.03336
4.40615
49.0555
37.8652
47.148
45.3009
8.12187
4.49788
16.5295
0.0899268
27.3258
7.69166e-07
0.606902
2.22045e-16
43.287
1.26132e-13
2.22045e-16
2.22045e-16
4.52021
12.49
7.41608
14.0161
9.70571
18.887
13.6791
20.4499
11.1066
23.3673
25.8133
32.9862
18.657
14.0236
25.2661
25.5254
25.139
15.4145
29.4863
1.80273
0.00136569
0.0573358
45.0976
2.13039e-05
0.240942
1.76433e-05
17.2087
18.7752
23.0542
11.8482
18.432
20.0846
24.0128
26.7525
26.6797
29.3959
28.8098
34.2264
33.4255
0.359015
0.792192
0.0602616
0.00136238
5.49081
0.132046
8.81667e-06
4.57649e-06
0.00456905
4.09997e-11
6.39801e-08
9.98835e-09
2.82403e-06
2.22045e-16
2.65962e-12
0.976984
7.20349e-07
8.71789e-05
0.0668243
1.0131e-05
2.98436
2.08194
5.70471
4.68512
2.18197
5.92234
2.8541
3.47732
5.44493
3.5846
9.12415
2.57549
6.84915
4.70825
13.8338
12.3039
11.9001
9.84674
12.4377
12.0306
13.6987
14.992
10.8752
16.6247
16.1451
13.5564
13.1269
18.1403
12.4731
5.61935
13.4624
16.9179
7.3335
9.55895
20.0709
19.7491
22.9413
20.6482
28.3065
15.5138
26.2058
24.9271
28.7908
21.9045
21.3446
24.7502
23.3007
27.6432
27.1508
23.1287
22.1174
27.0013
23.5265
25.0474
21.4997
24.376
22.3173
23.2371
23.2534
25.6691
21.3774
23.7639
24.0104
33.2409
27.5214
13.3447
6.65099
28.1592
32.5567
1.46879
9.61759
0.322796
3.3507
5.82233e-05
34.514
0.0127138
0.29394
15.7123
46.4929
45.6221
45.9598
48.061
47.1566
7.02367
0.0229197
0.400825
0.000204703
5.96692e-08
1.53118
0.00496961
5.07693e-07
9.96239
11.7872
8.27726
10.1291
11.9079
13.8146
13.7122
18.8867
21.2071
22.7186
25.1697
27.0966
28.8011
23.0979
28.477
28.7421
24.8965
25.5511
4.14893
1.29172
13.7318
0.0323765
6.56077e-05
0.00648258
0.000428473
1.02059e-07
6.58255e-07
2.17416e-06
44.1836
15.1159
45.8739
1.47286
0.45857
0.00343368
4.39451
1.78079e-10
2.22045e-16
2.22045e-16
4.74093e-12
1.99878e-15
2.22045e-16
2.22045e-16
5.92512e-05
3.65236e-10
7.90785e-10
2.22045e-16
9.25177
13.9254
15.9848
11.1983
12.9883
14.9017
17.8818
27.5985
30.3632
30.9064
29.7083
30.8056
32.1521
32.0339
25.4725
1.47544
0.00553987
10.8181
0.335999
0.0235143
0.00053429
2.16345e-05
5.15823e-10
1.40502e-15
3.70139e-07
2.77369e-11
3.31555e-11
3.57504e-12
0.0252846
2.56314e-09
1.13441e-10
0.000315025
3.67206e-05
7.43474e-08
5.58589e-10
1.58413
0.0215675
0.000812778
2.99607
0.355674
0.00369801
2.2445e-05
0.00222286
1.83578e-06
2.11941e-08
0.000777421
0.000100723
6.81856e-09
1.2019e-10
1.87985e-08
1.17722e-13
3.54597e-15
3.02521e-12
3.02341e-12
2.22045e-16
2.22045e-16
9.65454e-15
2.22045e-16
2.22045e-16
2.22045e-16
2.22045e-16
2.22045e-16
2.22045e-16
1.62124e-07
1.53478e-13
2.22045e-16
2.22045e-16
6.77435e-07
0.106204
0.511291
43.4344
8.78254e-05
0.176961
49.4103
0.264659
0.0203799
0.0445056
5.97108e-06
2.12615
47.4543
36.5935
43.8291
23.6378
20.4192
0.00939492
4.17219e-07
4.4615e-14
2.58573e-10
0.000707284
8.97303e-09
11.8913
25.2726
0.0193093
24.5353
3.87645
26.0401
0.00269659
0.339867
0.298711
0.000144206
1.31281
0.00219754
0.000232758
3.38538e-08
1.06047e-06
2.45416e-07
1.46631e-12
9.34528e-05
1.11795e-09
2.93313e-10
8.38034e-16
8.84822e-13
4.61564e-13
2.22045e-16
5.25398e-11
2.22045e-16
2.22045e-16
2.22045e-16
2.22045e-16
8.0025e-05
2.31687e-07
1.12923e-10
5.93505e-14
4.03734e-12
2.90185e-16
3.09969e-05
3.07061e-06
2.72414e-13
2.22045e-16
2.22045e-16
4.9387e-15
2.22045e-16
2.22045e-16
2.22045e-16
2.22045e-16
2.22045e-16
2.22045e-16
2.22045e-16
2.22045e-16
2.22045e-16
2.22045e-16
2.22045e-16
2.22045e-16
2.22045e-16
2.40845e-05
4.29356e-06
1.14001e-09
2.33573e-14
9.71846e-13
2.22045e-16
2.22045e-16
2.22045e-16
2.22045e-16
2.22045e-16
2.04134
1.496
1.65055
1.31686
1.4577
1.94341
1.57646
1.67476
1.84149
2.22045e-16
2.22045e-16
2.22045e-16
2.22045e-16
2.22045e-16
2.22045e-16
2.22045e-16
2.22045e-16
2.22045e-16
2.22045e-16
2.22045e-16
2.19114e-10
2.46574e-13
2.22045e-16
2.22045e-16
2.22045e-16
6.48643
2.15932e-06
9.95109e-10
0.00219453
9.08903
1.32465e-06
0.0262232
4.32325e-06
8.72964e-12
2.65238e-08
9.67528e-15
6.99495
7.67236
27.0075
65.6922
110.187
89.8808
0.00839765
0.00332401
5.78694e-07
5.63932e-12
50.3463
87.3126
37.245
54.7093
67.9106
59.7333
71.5095
78.9481
72.2748
2.45298
2.70196
4.83142
5.91524
2.95384
5.7711
7.12735
5.52992
5.17916
5.36614
5.92265
6.30244
6.07208
8.20991
5.43947
6.31845
6.9097
8.40476
5.77414
7.14526
7.45262
6.90638
6.9243
9.28764
10.6871
10.5049
8.71091
13.2999
9.18327
7.0282
7.51304
5.3593
9.46383
6.59167
7.24966
15.5483
11.6753
15.0124
12.0582
3.20441
4.09921
4.57196
3.83627
29.4778
1.69467
3.71084
2.03232
2.22644
4.7425
2.49599
2.48783
3.70017
2.55866
9.61082
2.73201
2.62659
3.22198
3.29621
2.70016
3.29978
2.65738
4.09494
3.37124
4.40871
4.45901
3.64846
3.60602
5.04647
4.59802
3.57085
5.87854
4.2238
4.67535
3.33413
5.68999
6.5489
3.31821
5.74494
4.61787
5.02679
4.07015
7.39635
51.0535
53.1602
2.18821
2.08748
1.72305
1.74899
2.14779
1.78581
2.12163
2.64958
3.1141
3.21492
2.56441
2.13433
1.68413
1.75433
2.05801
2.87671
3.42928
3.06839
3.83505
2.82039
3.46542
3.19091
2.31933
1.85318
2.46537
2.17083
2.25748
1.91241
2.58919
2.81427
3.83438
3.40607
3.17853
2.27718
2.17762
1.88904
2.59129
3.29692
2.69202
2.53823
2.3668
2.95598
2.84957
2.90497
4.66176
4.59861
3.80185
5.71865
3.84708
2.66039
3.12528
3.34034
4.43109
4.69923
3.71695
5.868
3.72461
5.57427
4.64096
3.58638
2.45407
2.931
3.54459
2.92664
3.24085
3.82563
5.62283
8.25072
6.99872
6.6127
4.6801
5.17612
4.17825
5.61844
3.94053
2.85562
3.71024
2.44822
3.93278
2.73366
3.76447
7.86219
9.14229
7.40724
9.53271
6.94291
6.08241
6.42101
6.73747
4.4759
3.88693
3.09117
5.27743
3.14347
5.40252
4.48739
3.93402
2.44013
2.7115
3.97411
2.66061
3.79495
4.04928
8.18633
10.0728
9.73005
8.67474
7.36061
8.01692
7.26581
7.97396
14.0825
11.68
10.2816
15.928
9.4401
6.29807
8.36041
17.0669
5.53142
10.7161
14.9566
20.5577
34.182
23.2252
30.5553
50.3703
45.741
48.823
46.8749
42.4263
48.708
49.0329
1.17794
1.08423
1.38006
1.74505
2.12252
2.71628
1.78528
2.04554
2.12878
2.29387
2.33824
2.59386
4.5764
0.70648
1.20314
1.42484
0.922766
1.56485
1.60933
1.45805
1.46192
1.79719
0.547017
0.389679
0.426076
0.505058
0.587854
0.560791
0.484128
0.647958
0.81094
0.644139
0.730559
0.714608
0.887159
0.780196
1.20947
1.12413
0.890328
1.75769
1.4435
0.897801
1.78885
1.10735
1.13036
1.48867
0.910001
1.97174
0.894793
1.85151
1.15725
1.14425
0.909883
2.05193
1.5785
1.16295
0.89911
2.02646
1.14158
1.51097
0.953847
1.78893
0.901213
1.91296
1.19084
1.38397
1.05354
1.7331
1.49476
1.28655
1.16045
1.7329
1.4931
1.59449
1.47589
1.98188
1.28785
1.80371
1.66654
1.84755e-05
2.76558e-12
2.36165e-08
2.22045e-16
1.35332e-14
1.01723e-08
1.44765e-06
1.48031e-10
2.94309e-09
3.75572e-12
4.58953e-15
2.22045e-16
2.22045e-16
2.22045e-16
2.22045e-16
1.16075e-14
2.22045e-16
2.22045e-16
4.07866
4.34329
4.09828
36.0927
39.3041
3.32997e-05
2.07596e-06
1.31279e-11
6.27741e-16
6.54617
6.42398
8.46719
55.2809
12.3964
1.34547e-09
2.22045e-16
2.22045e-16
2.22045e-16
20.342
9.46161
89.1232
0.650386
7.33794e-09
2.22045e-16
2.22045e-16
2.22045e-16
2.22045e-16
65.5378
9.29748
81.1276
1.31778e-15
2.22045e-16
2.22045e-16
2.22045e-16
2.22045e-16
2.22045e-16
0.065743
54.674
8.14041e-10
35.1779
2.22045e-16
2.22045e-16
2.22045e-16
2.22045e-16
1.16585e-07
55.289
2.22045e-16
5.63109e-05
2.22045e-16
2.22045e-16
2.03146
3.04703
2.24008
1.97595
4.32478
2.86325
4.54587
5.35964
3.32674
3.71545
5.41179
4.31999
14.1869
4.85115
16.6579
31.2761
51.9432
1.50149
38.1196
39.623
51.1115
0.3409
0.683207
0.346765
0.0113658
41.4923
0.0069396
0.0341397
0.000839502
2.94896
3.52138
6.35541
5.40366
11.8296
9.46324
12.1615
9.5085
29.621
24.4051
67.6354
50.9787
3.83037
0.763484
91.6268
1.23277
0.0160564
0.0388897
0.000276565
0.000703427
1.36181e-05
6.00947e-05
2.9709e-13
9.73567e-07
5.51699e-10
4.17625
4.57836
3.15789
9.56948
27.525
32.7064
9.78137
48.1686
8.40994
4.56208
115.849
109.853
13.0355
0.00242642
0.000100819
9.23685e-07
2.29409e-08
2.22045e-16
1.97519e-11
3.7012e-14
2.22045e-16
8.84089e-14
2.22045e-16
2.22045e-16
2.22045e-16
2.22045e-16
2.22045e-16
5.54604
3.29645
8.36577
5.29802
11.848
72.8989
94.9828
43.6587
62.0191
4.58673
30.0847
11.478
0.00130943
0.240052
1.63418e-13
2.22045e-16
2.22045e-16
2.22045e-16
2.22045e-16
2.22045e-16
2.22045e-16
2.22045e-16
2.22045e-16
2.22045e-16
2.22045e-16
2.22045e-16
2.22045e-16
2.22045e-16
2.22045e-16
9.56222
2.22045e-16
1.76613e-15
3.61219e-08
5.4518e-06
8.77643e-15
4.24695e-12
51.1812
7.10015e-13
3.80577e-06
0.00788279
0.234539
1.64905e-07
6.55517e-05
19.3219
39.1831
40.8704
0.47571
119.275
7.89848e-08
0.000418864
2.22045e-16
2.00784e-12
2.22045e-16
5.26868
5.7846
6.79207
48.9995
20.7863
22.7374
7.92732
51.8058
24.0578
8.79351
31.2436
13.6523
76.8518
41.0457
84.9897
39.875
101.291
84.3193
82.5127
78.9492
123.013
0.0368447
122.108
0.206015
92.4031
1.75878e-05
0.0877873
78.3553
0.601927
0.0607127
6.69373e-10
0.00013649
3.4975e-07
0.0130316
6.70391e-14
2.51661e-07
4.50836
4.26627
4.43793
4.47026
4.39449
4.56144
4.3924
4.2912
3.04905
3.19534
2.72846
1.9186
2.02441
2.59129
0.246694
5.26689
40.8197
39.2618
4.17848
33.4136
0.433894
8.1707
6.13855
6.81117
7.74295
6.57323
7.23633
8.65503
5.98427
13.4246
8.89402
9.13503
3.95747
5.69724
6.01054
2.0905e-07
0.0114242
0.886441
1.94533
7.76277e-05
0.000216608
0.0128206
11.5788
8.43325
14.2419
9.06288
11.89
7.9121
14.1343
113.671
54.8561
92.5721
98.4619
37.0091
67.2028
67.5848
2.22045e-16
2.84148e-16
4.23586e-14
7.03731e-14
2.22045e-16
2.22045e-16
2.22045e-16
13.7772
7.15843
14.4092
12.1767
10.6541
8.71347
19.6658
4.92562
79.6362
79.3039
36.5102
78.8901
79.744
81.0325
2.22045e-16
2.22045e-16
2.22045e-16
2.22045e-16
2.22045e-16
2.22045e-16
2.22045e-16
0.000965544
104.934
0.000247915
87.1797
80.3021
80.9386
0.00722641
35.1914
65.3034
53.4174
68.0284
55.9125
0.0276281
54.7963
0.0186345
58.3524
0.0825092
2.49111
2.18329
16.3264
0.000460507
2.22045e-16
2.22045e-16
2.22045e-16
2.22045e-16
2.22045e-16
2.22045e-16
2.22045e-16
1.08384e-15
2.22045e-16
2.22045e-16
9.0392e-15
6.88614e-11
2.22045e-16
2.22045e-16
4.29923
4.22509
4.32215
4.44071
4.34038
4.44045
4.18428
2.99111
3.61876
3.75637
3.56594
2.01095
2.10047
3.43123
4.23257
4.34757
4.51672
4.07891
4.60715
4.74252
5.23442
5.41945
4.63806
4.75279
5.25234
4.10355
4.05622
4.85779
3.89408
2.85736
2.33591
4.60359
4.58652
5.70106
4.88785
5.35396
4.23527
4.07043
3.72188
3.81873
4.17902
3.81204
4.13436
4.61751
4.52633
4.6936
4.46091
4.27713
3.64602
3.76514
4.13735
4.8078
4.78122
5.24595
5.59808
4.68068
4.88947
5.46334
4.48174
3.98103
4.8452
4.45769
4.4038
4.01237
5.02361
4.94668
5.8967
5.07011
5.67686
4.54761
4.49653
3.99157
5.14862
14.6695
7.01722
7.31578
4.97706
10.6056
10.9814
4.74388
3.5851
6.06829
4.41767
3.12633
2.86601
2.29408
3.99642
8.36619
21.2293
10.7848
5.78417
16.3283
12.5741
7.63297
30.2936
24.0698
35.199
31.4192
24.3061
35.2775
30.1427
32.3375
33.4667
31.8941
43.7512
26.3078
37.37
38.4099
1.76392e-05
0.00321829
0.0251552
0.481601
0.00198686
0.0148685
3.70969e-05
0.0450747
40.9295
0.347924
6.09139
2.07714
19.0098
0.00364665
1.61487e-06
0.111852
1.52739e-05
0.000222602
0.000450063
0.00335323
7.03192e-08
8.23261
6.19934
6.57759
7.65907
6.3962
7.48127
8.39847
6.26008
7.76572
8.66213
8.2376
3.858
5.93322
5.67472
9.42041
7.27539
6.82681
9.97381
10.8665
8.86299
9.54835
13.4841
8.76537
10.8592
13.9433
12.7102
19.0517
21.0079
12.1838
15.4049
8.99477
18.4542
13.843
20.7927
14.3436
20.7177
9.50697
7.51347
7.11186
10.259
10.0484
8.93503
8.55693
13.2683
8.16287
11.0457
11.5061
12.9127
19.9792
14.4746
16.7697
15.6741
44.4665
25.7219
19.0603
23.218
11.3212
35.7871
14.8441
48.8247
28.0485
16.8881
18.8258
10.1184
34.2471
95.7463
45.9338
78.333
34.775
84.9428
56.559
62.2333
65.7873
42.1508
56.657
67.3303
49.5641
58.2539
14.4636
72.0947
21.7784
104.69
0.00128125
80.1213
0.517879
4.5823
1.69301e-11
1.33854e-07
1.35455e-06
1.04034e-06
2.70471e-10
2.94764e-10
8.53259e-09
2.98045e-11
0.0203159
3.54577e-11
5.5102e-09
2.22817e-07
2.76992e-05
3.04581e-13
2.22045e-16
1.81585e-09
2.22045e-16
1.71873e-15
3.20514e-14
6.59048e-13
2.22045e-16
17.3922
9.84398
15.2633
9.47526
16.3301
9.88607
15.8586
37.0751
36.0164
57.553
33.2218
26.2146
26.205
41.9876
36.1914
27.887
29.3018
32.5912
17.9896
9.35492
10.806
16.6348
9.93937
16.0536
19.3848
61.3581
80.2487
84.2149
39.3162
71.895
59.509
46.4017
40.9694
37.6271
35.3223
45.2839
20.5091
24.8057
19.5512
26.9682
10.8352
8.5491
6.88951
13.1966
7.26947
13.5919
10.2096
8.5685
4.89099
5.61738
6.42681
6.03837
6.77326
8.02413
20.5156
27.8584
27.5904
20.2273
15.5107
12.1461
12.0885
15.3372
121.468
108.52
117.721
110.67
109.263
94.9503
116.79
104.23
91.7738
93.5373
101.557
85.7775
89.0791
90.5405
0.0352719
112.968
31.0047
107.703
1.16125
47.625
95.062
3.02779e-06
9.23325
1.88626e-07
4.786e-07
0.0155683
0.0409832
2.33798e-12
2.31958e-11
3.65065e-12
2.35374e-10
2.22045e-16
7.20789e-06
2.22045e-16
2.22045e-16
2.22045e-16
2.22045e-16
2.22045e-16
2.22045e-16
2.22045e-16
2.22045e-16
2.22045e-16
2.22045e-16
2.22045e-16
2.22045e-16
2.22045e-16
2.22045e-16
2.22045e-16
2.22045e-16
2.22045e-16
2.22045e-16
2.22045e-16
2.22045e-16
2.22045e-16
2.22045e-16
2.22045e-16
35.6473
13.6794
19.6373
16.6812
24.1793
19.9447
28.0819
80.1656
80.9311
79.1717
76.5679
75.6992
59.2759
80.9609
66.7177
41.7463
52.0103
53.4525
57.8285
26.1523
55.0896
71.2737
32.2357
44.893
88.1086
95.3843
87.9803
87.5458
89.0896
96.3271
88.9498
96.9053
86.0252
81.0853
71.4841
96.092
10.5616
5.64587
6.79319
5.41673
8.33056
6.66833
8.62162
27.9479
29.9711
21.5685
38.5821
22.1488
13.6458
16.7324
18.4036
21.0606
18.3087
20.0497
50.6769
12.4919
30.9776
34.8204
15.7702
7.41888
14.6697
20.3017
9.30125
12.6117
25.6287
40.0273
64.5597
53.5035
53.6975
31.9332
38.8413
26.7611
45.1323
7.2717e-09
2.48735e-05
0.5651
0.0643677
0.0023513
7.31705
1.35776e-06
22.9948
1.1789e-05
0.0239095
2.00864
11.2136
89.7514
0.00486213
1.42549e-11
3.97633e-07
2.90391e-13
0.000191236
2.50526e-15
2.40615e-10
2.84092e-08
2.22045e-16
3.27343e-15
2.22045e-16
2.22045e-16
2.22045e-16
2.22045e-16
2.22045e-16
2.22045e-16
2.22045e-16
2.22045e-16
2.22045e-16
2.22045e-16
2.22045e-16
2.22045e-16
2.22045e-16
2.22045e-16
2.22045e-16
2.22045e-16
2.22045e-16
2.22045e-16
2.22045e-16
2.22045e-16
2.22045e-16
2.22045e-16
2.22045e-16
2.22045e-16
2.22045e-16
2.22045e-16
2.22045e-16
2.22045e-16
2.22045e-16
2.22045e-16
2.22045e-16
2.22045e-16
2.22045e-16
6.71158e-08
2.71759
0.00436983
0.118223
0.000271596
0.00811894
4.03979e-06
1.11972e-14
2.40577e-08
2.22045e-16
2.22045e-16
3.1188e-10
2.60256e-12
2.22045e-16
0.665336
53.9376
36.135
51.876
10.6893
55.9392
4.3007
3.13859e-07
1.99475e-06
5.48037e-10
1.72183e-14
0.000314928
1.41556e-09
1.67411e-13
4.3673e-05
0.13525
7.35363e-08
8.95538e-09
0.00805215
0.00154136
7.24481e-10
17.9338
0.019112
1.6875e-08
1.1837
1.92587e-10
2.89127e-12
7.53459e-10
2.22045e-16
2.22045e-16
2.22045e-16
2.22045e-16
2.22045e-16
49.3674
4.75359e-14
2.22045e-16
4.73571e-05
2.22045e-16
7.35435
5.30384
2.09164
0.164583
6.64596e-07
29.8224
0.000297418
1.74955
28.3441
2.55354e-09
0.000962441
2.22045e-16
0.0326982
3.258e-16
6.14137e-09
0.000395778
2.22045e-16
9.46565e-16
2.22045e-16
1.54324e-15
2.22045e-16
2.22045e-16
8.70012e-05
0.117412
1.63411e-05
16.5187
15.3919
8.43925
17.9707
15.5095
6.72578
16.4179
1.64952
25.0092
0.0303664
0.0315672
11.4851
13.3616
0.000729329
2.76502e-11
0.000254168
2.8714e-14
1.91024e-13
7.04943e-08
4.51119e-07
8.97991e-16
2.22045e-16
2.22045e-16
2.22045e-16
2.22045e-16
2.22045e-16
2.22045e-16
2.22045e-16
17.4045
48.0422
50.3659
50.0673
49.1635
48.7462
11.8583
1.90799e-11
2.22045e-16
2.22045e-16
3.94188e-11
4.55608e-11
2.22045e-16
2.22045e-16
17.8099
14.5506
19.861
0.858565
16.6697
3.32007
20.8077
0.0228768
0.000461267
0.0247866
6.99895e-09
1.7645
7.96504e-07
0.000109447
11.9218
29.1307
12.9108
31.9232
31.3806
30.8721
0.699395
1.13972e-05
1.25265
4.03599
9.96347
0.00407163
0.0176178
0.114277
7.49698e-15
2.22045e-16
8.17675e-13
2.22045e-16
8.61291e-10
2.22045e-16
2.22045e-16
2.06048e-08
1.00475
1.23931e-06
7.62327e-06
0.000227886
0.00141209
1.97358e-11
2.22045e-16
1.74131e-09
1.06563e-08
6.09316e-07
3.41307e-15
4.14505e-13
2.54391e-12
2.22045e-16
2.22045e-16
2.22045e-16
2.22045e-16
2.22045e-16
2.22045e-16
2.22045e-16
2.22045e-16
1.6696e-10
2.22045e-16
2.22045e-16
2.22045e-16
2.22045e-16
2.22045e-16
0.0264777
1.03588
0.000257366
1.63748e-07
1.77612
0.0115287
5.85841e-07
83.8516
100.706
43.2544
100.757
13.6712
100.636
82.3058
67.1596
58.3171
64.7204
58.6302
58.5544
60.2617
67.045
52.3604
49.7006
51.1579
54.0578
53.7926
54.9269
56.266
36.1146
25.6131
25.902
29.6358
19.7496
20.0577
29.4865
9.47838e-06
0.156521
0.135882
0.0441107
4.64135e-07
0.00510476
2.13335e-08
4.00544e-12
2.37532e-14
4.17114e-08
9.89452e-06
3.82192e-12
3.48581e-07
5.78978e-14
71.7216
43.5601
59.9399
65.222
36.3432
48.791
51.7187
0.000892448
5.47303e-13
1.20853e-06
0.000573438
2.30856e-09
9.81123e-07
5.38725e-14
2.12964e-10
2.22045e-16
2.22045e-16
7.23276e-09
9.72831e-16
3.21949e-13
2.22045e-16
0.000531745
112.337
4.35439
0.00673445
117.805
3.24035
15.7923
2.52096e-11
2.22045e-16
2.22045e-16
8.95685e-14
2.22045e-16
2.22045e-16
2.22045e-16
2.22045e-16
2.22045e-16
2.22045e-16
2.22045e-16
2.22045e-16
2.22045e-16
2.22045e-16
2.22045e-16
2.22045e-16
2.06353e-11
2.22045e-16
9.69307e-09
5.38676e-16
4.31031e-13
2.22045e-16
2.22045e-16
2.22045e-16
2.22045e-16
2.22045e-16
2.22045e-16
2.22045e-16
2.22045e-16
2.22045e-16
2.22045e-16
2.22045e-16
2.22045e-16
2.22045e-16
2.22045e-16
6.0421e-05
3.83709e-13
1.07009e-10
8.284e-12
0.0506292
1.00212e-06
9.45792e-06
2.22045e-16
2.22045e-16
2.22045e-16
2.22045e-16
2.22045e-16
2.22045e-16
2.22045e-16
1.1062e-13
0.0027513
1.6021e-07
0.107698
9.23672e-06
3.99642e-06
1.5506e-11
0.0284027
5.49636e-06
0.0166816
3.0212
0.0193076
0.00554264
1.4214e-07
2.22045e-16
6.71176e-14
2.22045e-16
1.34364e-11
2.22045e-16
2.22045e-16
2.22045e-16
8.53646e-11
1.63225e-10
2.22045e-16
2.51138e-07
7.45879e-14
5.12501e-14
2.22045e-16
28.0724
44.0085
33.5055
31.6967
27.1138
22.04
37.7141
29.6631
82.4269
105.443
85.8267
99.0478
73.9109
55.3485
1.93797e-12
0.00496684
5.28175e-07
1.14715e-06
6.07479e-05
0.0727228
3.87648e-11
2.22045e-16
2.22045e-16
2.22045e-16
2.22045e-16
2.22045e-16
2.22045e-16
2.22045e-16
2.22045e-16
2.22045e-16
2.22045e-16
2.22045e-16
2.22045e-16
3.12434e-13
2.22045e-16
19.1921
46.025
47.9
66.2811
0.0242634
67.4106
0.00617282
0.00403269
65.2979
64.619
43.5782
0.00302102
0.0231137
8.82205e-07
1.55373e-13
0.00438568
7.39976e-07
7.20591e-06
6.96279e-12
1.79212e-11
2.22045e-16
1.64757e-14
2.22045e-16
1.49984e-10
2.22045e-16
2.22045e-16
2.22045e-16
2.22045e-16
2.22045e-16
4.47554e-07
1.39493e-13
5.55324e-13
2.22045e-16
2.22045e-16
2.22045e-16
2.22045e-16
2.22045e-16
2.22045e-16
2.22045e-16
2.22045e-16
2.22045e-16
2.22045e-16
0.82187
93.5378
35.9927
101.788
0.220204
63.3198
1.97677
2.22045e-16
2.22045e-16
2.22045e-16
2.22045e-16
2.22045e-16
2.22045e-16
2.22045e-16
2.22045e-16
2.22045e-16
2.22045e-16
2.22045e-16
2.22045e-16
2.22045e-16
2.22045e-16
2.22045e-16
2.22045e-16
1.63636e-12
8.98863e-15
2.22045e-16
2.22045e-16
2.22045e-16
1.06544e-06
1.93658e-08
0.00110757
3.51142
0.00334626
0.796899
0.00020471
4.22407e-05
2.22045e-16
1.48947e-09
0.126847
1.04803e-05
0.000294587
5.74296e-10
2.22045e-16
2.22045e-16
2.22045e-16
2.55069e-09
2.22045e-16
3.32007e-16
2.22045e-16
2.22045e-16
2.22045e-16
2.22045e-16
2.22045e-16
2.22045e-16
2.22045e-16
2.22045e-16
2.22045e-16
2.22045e-16
9.15117e-11
4.68091e-10
2.22045e-16
2.48339e-13
2.22045e-16
4.33324e-10
2.55784e-10
2.22045e-16
3.57882e-10
2.22045e-16
1.70815e-14
2.22045e-16
2.22789e-13
2.22045e-16
2.22045e-16
7.54871e-13
1.52161
2.28568
3.45542
4.19045
5.76764
49.9528
2.06221
3.12623
3.48022
2.56724
3.41658
4.35296
1.44268
3.61508
2.44046
5.0038
4.27966
2.91365
5.86338
2.86781
4.52322
3.77727
6.04746
4.79708
5.33423
7.09714
3.86537
2.47265
5.51834
8.59488
8.26748
21.867
25.7176
2.56425
3.54644
0.0127116
3.39802
3.66856
4.55346
4.99633
2.57619
3.48359
8.1526
15.0064
5.762
9.13286
30.9991
45.6636
16.4568
39.1522
65.4631
90.2684
1.98921
1.78034
1.84153
2.32557
1.97874
2.04367
2.25613
3.20329
1.82697
1.87263
1.79365
3.05429
3.14558
1.73462
2.22687
1.99035
2.29523
2.50349
2.56086
2.21265
2.863
1.97846
2.18166
3.82699
1.93367
3.85682
3.39036
2.20187
3.06987
3.23333
2.73857
3.94641
3.05785
3.39006
3.58761
2.66528
4.41916
5.02504
2.83316
4.47833
2.53847
5.02853
4.03535
4.04655
3.68449
4.38441
4.38068
4.03205
4.65418
3.25815
5.26549
5.42358
3.06691
5.2593
5.22722
3.28582
4.49129
4.42685
4.34119
4.98726
4.69067
4.8499
4.92648
4.48378
5.94171
6.8417
3.94465
5.43554
3.57897
5.80074
4.65602
4.67843
4.57074
5.13502
5.36449
5.1314
5.35541
6.48666
8.08489
10.0354
4.3864
7.43569
6.39076
5.02554
4.99218
5.80603
4.97154
7.12975
5.73591
5.87035
6.63054
12.9946
13.5944
20.4096
8.72151
9.54417
6.23329
13.6639
39.013
33.4813
56.8531
13.5744
37.2567
21.4306
23.2807
3.47325
2.13586
2.16889
2.25013
2.39603
4.05553
2.86385
4.59577
5.09995
4.46371
5.68186
6.80083
7.23997
8.61469
10.9568
11.7968
13.8427
17.7777
24.912
24.2508
35.1964
60.6348
52.5921
74.4023
16.115
12.207
40.0133
2.29849
2.35043
3.35282
3.56295
2.4208
3.44113
2.23393
2.46944
3.82911
2.9922
4.18316
2.61277
3.69312
2.8136
3.75376
3.46167
4.78622
5.51529
3.2753
3.95123
5.2965
4.15931
5.75674
4.74558
5.6992
4.3953
5.55943
4.44793
4.91649
5.04504
5.88519
6.27933
4.6882
5.30975
6.11173
5.21157
6.5871
6.02094
7.16636
5.60998
6.48732
5.66655
8.43971
6.67779
8.75443
10.9178
6.51528
8.09839
12.1651
12.0847
16.1708
16.1185
31.2754
10.8236
18.7284
1.49543e-06
0.00455691
2.22045e-16
2.22045e-16
2.22045e-16
2.22045e-16
2.22045e-16
2.22045e-16
2.22045e-16
2.22045e-16
2.22045e-16
2.22045e-16
2.22045e-16
2.22045e-16
2.22045e-16
2.22045e-16
2.22045e-16
2.22045e-16
2.22045e-16
2.22045e-16
2.22045e-16
2.22045e-16
2.22045e-16
2.22045e-16
2.22045e-16
2.22045e-16
2.22045e-16
2.22045e-16
2.22045e-16
2.22045e-16
2.22045e-16
2.22045e-16
2.22045e-16
2.22045e-16
2.22045e-16
2.22045e-16
2.22045e-16
2.22045e-16
2.22045e-16
2.22045e-16
2.22045e-16
2.22045e-16
2.22045e-16
2.22045e-16
2.22045e-16
2.22045e-16
2.22045e-16
2.22045e-16
2.22045e-16
2.22045e-16
2.22045e-16
2.22045e-16
2.22045e-16
2.22045e-16
2.22045e-16
2.22045e-16
2.22045e-16
2.22045e-16
2.22045e-16
2.22045e-16
2.22045e-16
2.22045e-16
2.22045e-16
2.22045e-16
2.22045e-16
2.22045e-16
2.22045e-16
2.22045e-16
2.22045e-16
2.22045e-16
2.22045e-16
2.22045e-16
2.22045e-16
2.22045e-16
2.22045e-16
6.23815e-16
2.22045e-16
2.22045e-16
2.22045e-16
2.22045e-16
2.22045e-16
2.22045e-16
2.22045e-16
2.22045e-16
2.22045e-16
2.22045e-16
2.22045e-16
2.22045e-16
2.22045e-16
2.22045e-16
2.22045e-16
2.22045e-16
2.22045e-16
2.22045e-16
2.22045e-16
2.22045e-16
2.22045e-16
2.22045e-16
2.22045e-16
2.22045e-16
2.22045e-16
2.22045e-16
2.22045e-16
2.22045e-16
2.22045e-16
2.22045e-16
2.22045e-16
7.31425e-05
31.5964
0.0361135
7.92392
5.34533
14.57
67.4391
42.5099
77.1455
41.9234
98.2869
79.4287
21.0542
38.2924
54.6545
13.5798
21.3012
36.5177
23.0766
6.4983
9.22461
7.18353
9.36363
10.8081
8.20486
13.2682
13.407
8.43516
20.2189
56.3943
78.6529
0.00621789
0.0259185
75.4502
16.8937
73.8752
0.00996222
19.2645
10.0435
11.633
17.9689
30.2524
15.3683
18.5469
24.0337
85.9075
91.7077
100.163
69.5892
72.8987
42.9214
101.191
53.6131
25.0914
54.3582
69.3785
31.0515
41.3235
88.3451
82.1772
11.4649
75.1321
87.2351
94.3393
96.564
86.5857
0.26062
12.5052
28.039
1.19214
0.242123
0.381608
0.569088
1.48233
0.723824
0.930548
1.92273
1.17688
0.294878
0.170294
0.209678
0.288275
0.476846
0.379765
0.470373
0.554037
0.653859
0.829181
0.633728
0.735814
0.858238
0.9694
1.03444
0.82754
0.931403
1.17444
0.965022
1.06981
1.08166
1.30294
1.04203
1.15444
1.29971
1.38028
1.47438
0.628661
0.358448
0.422885
0.940674
1.00887
0.746174
0.68777
1.06406
1.44421
0.878086
1.07623
0.767928
1.30078
0.969802
0.797033
0.521921
0.644946
1.06204
1.16155
0.866212
0.79559
1.2313
1.0238
0.95497
1.18057
1.24503
1.33287
1.39063
1.33925
1.72592
1.58384
0.980156
1.17945
1.28528
1.08884
0.239465
0.00450255
0.00530393
92.7373
58.2475
34.4583
0.0164226
89.7704
19.4337
4.10764
4.10284e-14
3.72533e-16
2.22045e-16
2.22045e-16
2.31188
3.72839
3.79334
2.26648
2.42288
4.29548
3.95521
2.66454
4.10409
4.86875
3.14774
5.89832
5.88891
11.5955
7.99032
8.7357
15.3488
16.1293
12.1677
20.8351
18.3759
30.4343
25.4741
22.2936
40.6236
37.9619
29.1439
50.3743
57.3425
83.3498
67.0451
76.4304
2.22045e-16
2.22045e-16
2.22045e-16
2.22045e-16
2.22045e-16
2.22045e-16
2.22045e-16
2.22045e-16
2.22045e-16
2.22045e-16
2.22045e-16
2.22045e-16
2.22045e-16
2.22045e-16
2.22045e-16
2.22045e-16
2.22045e-16
94.4282
85.7377
96.4514
1.05507e-11
2.22045e-16
3.79421e-15
2.22045e-16
2.22045e-16
2.22045e-16
2.22045e-16
2.22045e-16
2.22045e-16
2.22045e-16
2.22045e-16
2.22045e-16
2.22045e-16
2.22045e-16
2.22045e-16
2.22045e-16
1.21184
1.29154
1.43652
1.30128
1.46742
1.43628
1.64296
1.55905
1.64122
1.81695
1.86257
1.62333
1.8871
2.14318
1.60776
1.70252
1.94232
1.84923
1.38508
1.47697
1.28884
1.94703
2.22774
2.01563
2.3709
2.09914
2.39639
2.67039
1.72792
1.7654
2.7708
2.23565
2.28223
1.47326
1.44069
1.31569
1.36323
1.57221
1.46776
1.52172
1.67989
1.73944
1.68444
1.93103
1.63693
1.62497
1.86057
1.87929
2.18072
2.23526
2.51997
2.4058
2.82576
2.64389
2.94833
3.15285
2.85901
1.89017
3.07171
2.35952
2.53487
1.54724
1.49153
1.87665
1.9236
3.10543
1.94051
1.99197
3.21822
3.28342
1.91381
2.21048
2.67903
2.19116
2.53145
2.59929
3.04143
1.57337
2.00207
3.2751
3.33864
2.67549
2.68238
1.58331
2.51987
3.47297
3.07931
2.86159
3.19695
3.44046
3.81202
2.06427
1.55752
1.59658
3.27792
3.12857
2.56868
2.38767
3.21761
2.09251
2.14414
3.49985
2.33577
3.83477
3.44878
2.09325
3.46754
2.2104
2.27701
3.54091
3.35024
3.42237
1.53755
1.74841
2.19006
1.79976
2.04523
1.58939
1.39992
2.34081
3.81603
2.62664
2.81479
4.54911
4.29485
3.95966
2.54754
2.98682
3.21801
4.5564
4.58179
3.9416
3.87023
3.21399
4.09474
3.83736
3.54648
3.82791
4.18799
4.51415
2.2226
1.67781
1.75483
2.8585
2.97879
2.26471
2.20027
2.56297
4.15013
2.45339
3.80348
2.8198
4.35871
3.65162
2.79311
2.34438
2.6395
3.13632
2.98085
3.33471
3.51948
5.27114
10.8264
59.1662
54.9959
5.8639
8.63453
5.73892
12.0788
38.9045
31.2456
44.9209
49.4863
59.0178
57.4512
2.88605
4.88081
4.11885
6.10435
5.13963
4.21746
2.78032
3.20181
6.89213
7.89081
5.21091
5.99937
4.51218
3.93294
8.31644
11.3271
6.65152
18.2931
5.44748
17.1136
9.55639
13.0099
28.1528
33.3555
22.7533
25.3667
14.924
19.1907
27.3159
37.1575
30.4709
46.0453
24.5085
38.1089