/*--------------------------------*- C++ -*----------------------------------*\
  =========                 |
  \\      /  F ield         | OpenFOAM: The Open Source CFD Toolbox
   \\    /   O peration     | Website:  https://openfoam.org
    \\  /    A nd           | Version:  9
     \\/     M anipulation  |
\*---------------------------------------------------------------------------*/
FoamFile
{
    format      ascii;
    class       volScalarField;
    location    "0.0014";
    object      alpha.c4;
}
// * * * * * * * * * * * * * * * * * * * * * * * * * * * * * * * * * * * * * //

dimensions      [0 0 0 0 0 0 0];

internalField   nonuniform List<scalar> 
11229
(
0.653981
0.691328
0.680273
0.658303
0.666657
0.657295
0.664897
0.652811
0.657385
0.694788
0.69542
0.694897
0.69365
0.695681
0.69033
0.697828
0.655344
0.656746
0.655379
0.648524
0.650293
0.656903
0.653005
0.698523
0.693505
0.698696
0.68591
0.690405
0.698785
0.698147
0.657471
0.658928
0.683665
0.673184
0.652435
0.678878
0.660989
0.660565
0.658826
0.66131
0.658187
0.657635
0.659711
0.656644
0.668267
0.682035
0.685376
0.659467
0.684323
0.681516
0.665422
0.659315
0.658795
0.66125
0.658305
0.660558
0.6581
0.656567
0.668122
0.666619
0.685324
0.683363
0.681804
0.659401
0.681365
0.655265
0.654573
0.656056
0.655268
0.648312
0.650152
0.652813
0.660077
0.678784
0.682389
0.657377
0.673035
0.652304
0.678714
0.693671
0.696708
0.697279
0.698306
0.693722
0.692161
0.697955
0.69565
0.692795
0.692984
0.696669
0.693879
0.694075
0.696463
0.69782
0.697971
0.694552
0.69462
0.698204
0.694781
0.697073
0.697314
0.693171
0.694784
0.696815
0.697974
0.698311
0.692058
0.693
0.695515
0.692844
0.696503
0.693892
0.696685
0.694083
0.692765
0.698526
0.698133
0.698525
0.685777
0.690276
0.698767
0.697054
0.694517
0.694785
0.697829
0.694608
0.698194
0.694786
0.696653
0.691725
0.697277
0.689006
0.697393
0.689625
0.696432
0.667343
0.669887
0.680798
0.677074
0.677814
0.666738
0.670309
0.659381
0.657837
0.661339
0.65484
0.661767
0.655477
0.658818
0.6973
0.696999
0.693441
0.693626
0.696708
0.693524
0.697465
0.696316
0.69072
0.696808
0.688296
0.69695
0.688882
0.696089
0.69688
0.697786
0.696698
0.697991
0.696611
0.697965
0.696937
0.652728
0.65283
0.656163
0.654034
0.653871
0.654687
0.65193
0.653323
0.655405
0.653873
0.657098
0.655605
0.654451
0.65296
0.651028
0.649998
0.64874
0.64949
0.64972
0.650225
0.650809
0.651165
0.650977
0.651452
0.649219
0.652069
0.650014
0.65051
0.698645
0.698611
0.698655
0.698502
0.698644
0.698647
0.698577
0.697117
0.692648
0.692328
0.697805
0.697643
0.69101
0.697497
0.698727
0.69883
0.698767
0.698627
0.698799
0.69871
0.698727
0.695874
0.686924
0.686643
0.695139
0.687646
0.695446
0.695587
0.69649
0.69684
0.691064
0.688392
0.689283
0.697081
0.696137
0.698579
0.698732
0.698783
0.698434
0.698726
0.698478
0.698549
0.698739
0.698395
0.698578
0.698465
0.698745
0.69867
0.698617
0.659849
0.654927
0.661425
0.65819
0.655909
0.662165
0.658909
0.660459
0.662937
0.655974
0.659222
0.656508
0.659944
0.663265
0.668887
0.682166
0.681645
0.673198
0.679635
0.670976
0.671539
0.664877
0.674414
0.662938
0.674038
0.675261
0.663714
0.664128
0.658117
0.65309
0.653542
0.656335
0.654164
0.657026
0.657459
0.666754
0.668355
0.679773
0.676189
0.677302
0.66918
0.66574
0.661729
0.659228
0.659699
0.665975
0.657695
0.663759
0.664276
0.674838
0.675545
0.685589
0.684425
0.676094
0.674263
0.684653
0.666465
0.661174
0.663588
0.659982
0.664348
0.661735
0.665797
0.674057
0.685366
0.682907
0.674079
0.672386
0.68433
0.675492
0.67355
0.683558
0.670834
0.68205
0.671469
0.673058
0.683865
0.674644
0.675507
0.685478
0.68433
0.676001
0.674194
0.684404
0.67353
0.673146
0.684745
0.682139
0.674841
0.671655
0.683782
0.666251
0.659739
0.661138
0.663499
0.665746
0.66158
0.664012
0.673226
0.683427
0.681582
0.67071
0.672959
0.671042
0.683485
0.652323
0.653974
0.655818
0.652743
0.654361
0.653445
0.651847
0.652322
0.655828
0.652728
0.65398
0.651837
0.654375
0.653441
0.650507
0.649372
0.648535
0.649359
0.649589
0.649601
0.650282
0.650634
0.650862
0.650851
0.649052
0.649884
0.651539
0.649895
0.66074
0.658565
0.6649
0.658574
0.662972
0.662974
0.656939
0.666236
0.668266
0.679283
0.676081
0.668716
0.665641
0.676771
0.667776
0.671928
0.680687
0.680672
0.67004
0.670033
0.678562
0.659361
0.657838
0.654817
0.661312
0.658782
0.661753
0.655466
0.664326
0.673904
0.662798
0.67388
0.663569
0.66359
0.67472
0.657581
0.652978
0.652965
0.656203
0.656894
0.653637
0.65691
0.666205
0.679235
0.668213
0.67602
0.66559
0.668683
0.676734
0.697314
0.693461
0.696996
0.693674
0.696677
0.693654
0.697471
0.698253
0.697882
0.698545
0.698247
0.69854
0.697779
0.698327
0.697471
0.693648
0.693093
0.697648
0.697678
0.693575
0.69713
0.697554
0.693314
0.697334
0.692502
0.69745
0.693439
0.697541
0.696876
0.697984
0.696691
0.697771
0.697962
0.696597
0.696929
0.69692
0.69686
0.698082
0.697878
0.698014
0.69703
0.696712
0.695846
0.69452
0.695979
0.69445
0.695893
0.695951
0.694331
0.696974
0.698105
0.698151
0.697143
0.698057
0.697032
0.697081
0.697411
0.69336
0.697467
0.692633
0.697043
0.693279
0.697551
0.698271
0.69789
0.698265
0.698541
0.69833
0.697814
0.698531
0.697508
0.693236
0.692205
0.6973
0.693226
0.697524
0.697358
0.69682
0.691719
0.697555
0.691708
0.697282
0.690287
0.697278
0.69859
0.698603
0.698502
0.698652
0.698613
0.69863
0.698561
0.698642
0.698506
0.698389
0.69839
0.698617
0.698617
0.698573
0.698587
0.698502
0.698599
0.698652
0.698557
0.698611
0.69863
0.695671
0.686523
0.686503
0.695066
0.695374
0.687221
0.695383
0.696305
0.690683
0.696789
0.688247
0.69607
0.688853
0.696937
0.698498
0.698723
0.698723
0.698401
0.69845
0.69869
0.698452
0.69688
0.697787
0.697992
0.696699
0.696938
0.696612
0.697966
0.695834
0.694453
0.695965
0.694453
0.695899
0.695898
0.694314
0.696967
0.698108
0.698108
0.697132
0.697039
0.698045
0.697038
0.669847
0.659041
0.658672
0.667994
0.658268
0.682088
0.656504
0.659366
0.669925
0.681625
0.683496
0.669856
0.683987
0.683441
0.670649
0.669229
0.682597
0.66855
0.682069
0.66917
0.668383
0.682874
0.658038
0.657248
0.659266
0.661131
0.65818
0.660427
0.658682
0.664851
0.681401
0.683343
0.667997
0.685219
0.666486
0.681698
0.666171
0.659698
0.663481
0.661064
0.661502
0.665674
0.663986
0.673166
0.67072
0.681598
0.683406
0.672908
0.683449
0.671037
0.673468
0.673123
0.682127
0.684698
0.674788
0.683734
0.67163
0.674532
0.684259
0.675367
0.685359
0.675854
0.67409
0.684318
0.669963
0.68296
0.68276
0.670218
0.683765
0.683634
0.670598
0.661127
0.659521
0.662244
0.66218
0.659811
0.662663
0.659461
0.658633
0.6609
0.661355
0.661566
0.658481
0.661044
0.658894
0.659071
0.661868
0.661935
0.662265
0.659674
0.662544
0.659464
0.668522
0.684769
0.656836
0.657842
0.647358
0.657414
0.667853
0.64778
0.669189
0.67381
0.689098
0.677853
0.689612
0.689491
0.678514
0.674514
0.66826
0.680894
0.681147
0.666004
0.678232
0.665829
0.678318
0.689557
0.69084
0.690656
0.68733
0.686383
0.686302
0.687502
0.668313
0.681124
0.680603
0.665911
0.677264
0.678071
0.665383
0.688084
0.690046
0.688898
0.686718
0.684698
0.685803
0.685535
0.657674
0.660108
0.660429
0.658368
0.655528
0.658216
0.655655
0.689291
0.686455
0.686641
0.685949
0.683264
0.68614
0.68308
0.678384
0.677307
0.677208
0.683266
0.682318
0.682221
0.68342
0.657347
0.65727
0.66911
0.662319
0.674335
0.662303
0.674324
0.688679
0.687529
0.685878
0.685331
0.681372
0.682492
0.684155
0.657697
0.660649
0.660494
0.658309
0.655245
0.657911
0.655598
0.655777
0.66744
0.668621
0.662031
0.672943
0.673952
0.66122
0.650254
0.647716
0.650184
0.654953
0.652339
0.654936
0.652355
0.675548
0.676721
0.676691
0.68268
0.680557
0.681708
0.681493
0.674345
0.677257
0.677098
0.681918
0.679282
0.682095
0.679103
0.6498
0.646494
0.648875
0.654714
0.651531
0.654046
0.652139
0.672714
0.676545
0.67541
0.681316
0.677401
0.678523
0.680134
0.687567
0.691534
0.69494
0.692304
0.692038
0.69217
0.692087
0.696684
0.694234
0.696117
0.697176
0.696116
0.693547
0.694227
0.695114
0.695294
0.691942
0.693498
0.69398
0.693287
0.693602
0.695606
0.693162
0.69831
0.697973
0.69681
0.693602
0.694751
0.697311
0.696502
0.693892
0.694083
0.695513
0.692999
0.69568
0.692843
0.697504
0.69222
0.69731
0.693232
0.693209
0.697523
0.697362
0.697403
0.692629
0.697466
0.693338
0.693254
0.697038
0.69755
0.698269
0.698543
0.698264
0.697889
0.697813
0.69833
0.698532
0.697289
0.693597
0.69338
0.696985
0.693484
0.696686
0.69746
0.690659
0.692683
0.691593
0.694674
0.692431
0.693177
0.69364
0.694952
0.695949
0.693332
0.694951
0.69127
0.692303
0.693923
0.691971
0.689189
0.689362
0.694025
0.691455
0.694212
0.691295
0.691374
0.690272
0.688632
0.693444
0.689703
0.69075
0.69238
0.0190308
1.18598e-05
0.0192655
0.0179297
0.00081163
0.0010963
0.000834926
0.00466918
0.0177818
9.57359e-05
0.00104544
2.64593e-05
0.0154644
0.0167921
0.000477134
0.00165704
0.000190899
0.00878136
2.64458e-07
0.00168926
0.00048825
6.11988e-05
3.39114e-05
3.83296e-08
0.0178587
0.00544236
0.0182726
0.0051442
0.0166869
0.00499662
0.00457936
0.00556343
0.0188788
0.0053948
0.0188058
0.0188538
0.005457
0.005426
0.0180935
0.0183187
0.0185346
0.00515663
0.00525596
0.00534336
0.00528
0.0168288
0.0167568
0.00465469
0.0181007
0.0182301
0.00519042
0.00515744
0.00502511
0.015984
0.00434376
0.00460173
0.0166893
0.0183178
0.00518982
0.00461282
0.0145062
0.00384939
0.0148205
0.0124035
0.00395314
0.00317919
0.0122105
0.0141649
0.0110889
0.00313744
0.0041786
0.00374463
0.00277539
0.00736491
0.00242212
0.00994637
0.0122521
0.00939672
0.00313287
0.00225472
0.00572785
0.00792634
0.00510873
0.0020926
0.00182341
0.0012111
0.00102819
0.00291587
0.000980442
0.00493031
0.00656771
0.00410567
0.00142519
0.000765368
0.0014238
0.00333998
0.0029106
0.000235573
0.000592247
0.000484941
0.000183347
9.90403e-05
0.00103557
8.88948e-05
0.000100734
0.00108869
0.00105972
9.40219e-05
9.82012e-05
0.00102947
0.00105302
0.00104972
9.32508e-05
0.00103704
9.43547e-05
5.98941e-05
0.000741591
5.173e-05
0.000920329
7.26091e-05
0.000975332
8.05415e-05
0.000835179
6.32561e-05
6.36034e-05
0.000986901
8.2994e-05
0.000982202
8.31195e-05
8.96906e-05
0.00095226
7.65701e-05
7.12025e-05
0.00091091
0.000799262
5.79466e-05
0.000623261
3.97086e-05
2.6701e-05
0.000807515
5.89107e-05
0.000647339
4.20654e-05
4.77715e-05
0.000472019
0.000703018
0.000600189
2.02054e-05
3.7509e-05
0.000394841
0.000637929
0.000198035
0.00149168
0.00103711
0.00224091
0.000339384
0.000118096
0.000326093
1.53825e-05
7.33844e-06
0.000467267
1.32444e-05
2.58518e-05
0.000294096
0.000268916
8.80721e-06
0.000218612
4.24541e-06
0.000124636
9.7126e-05
3.05172e-06
9.10203e-05
2.81107e-06
8.40027e-07
5.47885e-06
0.000153628
6.3593e-05
1.79043e-06
1.1932e-06
1.19995e-05
4.51005e-05
3.32109e-05
1.76023e-07
8.19762e-07
8.30173e-06
1.98376e-06
9.36403e-06
1.96093e-07
1.98264e-05
9.26402e-08
4.49096e-07
4.57519e-06
0.65803
0.683289
0.659634
0.670164
0.659254
0.68273
0.660031
0.684092
0.662461
0.659644
0.65841
0.659824
0.660495
0.662183
0.659895
0.669564
0.661111
0.684707
0.687458
0.666229
0.6685
0.683272
0.683737
0.670705
0.682467
0.684252
0.668771
0.684221
0.670961
0.6707
0.670808
0.68414
0.683991
0.67048
0.670737
0.684342
0.675295
0.672732
0.683438
0.685564
0.685457
0.672943
0.675185
0.668097
0.665367
0.661276
0.662962
0.663204
0.665704
0.667741
0.675314
0.683796
0.674548
0.686069
0.685476
0.673333
0.676283
0.67674
0.686518
0.677822
0.687349
0.686389
0.678058
0.676502
0.662393
0.662867
0.659224
0.660027
0.661748
0.660066
0.662904
0.671061
0.683983
0.670238
0.683633
0.67069
0.684373
0.67094
0.662789
0.66291
0.660192
0.659854
0.662882
0.6627
0.660109
0.662965
0.659912
0.662167
0.659674
0.662579
0.660085
0.662821
0.693274
0.694169
0.694783
0.694292
0.690133
0.687339
0.692959
0.68943
0.696975
0.693936
0.698528
0.694917
0.698075
0.69533
0.697626
0.695919
0.696059
0.695196
0.693379
0.697143
0.694419
0.694806
0.695636
0.69687
0.693991
0.693287
0.696575
0.695932
0.693001
0.693948
0.695482
0.694886
0.692456
0.694156
0.696015
0.693478
0.698008
0.69337
0.697852
0.69452
0.697848
0.694402
0.698096
0.697802
0.693634
0.697751
0.694081
0.697906
0.694277
0.697335
0.698527
0.698819
0.698418
0.698148
0.698749
0.697988
0.698664
0.697811
0.694928
0.694544
0.697624
0.694672
0.697239
0.698038
0.692219
0.694896
0.693333
0.691147
0.695902
0.692322
0.693674
0.694566
0.692107
0.691006
0.69154
0.693291
0.692512
0.693203
0.689768
0.692535
0.694177
0.691807
0.694539
0.69214
0.691496
0.688657
0.693363
0.689531
0.689823
0.691261
0.690775
0.692036
0.0480796
0.0472179
0.0523845
0.0459813
0.376072
0.36991
0.343006
0.350099
0.214122
0.211833
0.368269
0.370875
0.371736
0.219205
0.217522
0.374264
0.225076
0.220497
0.372842
0.373838
0.22276
0.224401
0.366324
0.350882
0.366885
0.218677
0.208704
0.217267
0.209859
0.363064
0.349752
0.367193
0.220567
0.206738
0.210138
0.219507
0.61822
0.480876
0.496785
0.527695
0.656512
0.658717
0.662375
0.664228
0.664484
0.663415
0.663149
0.652242
0.651996
0.651016
0.650699
0.663585
0.661316
0.662512
0.649878
0.651347
0.6499
0.648065
0.658987
0.643191
0.661634
0.66137
0.648407
0.647995
0.642657
0.621132
0.52754
0.621332
0.52588
0.619634
0.619082
0.525377
0.658012
0.659459
0.660728
0.646827
0.637183
0.641021
0.64411
0.526026
0.528171
0.620496
0.617761
0.519962
0.524547
0.613866
0.599941
0.517206
0.613962
0.61306
0.496188
0.51635
0.598685
0.610376
0.505904
0.492322
0.583835
0.513916
0.594298
0.603177
0.0488545
0.108493
0.106901
0.112253
0.0498786
0.0504508
0.111057
0.116307
0.0508769
0.112882
0.0519084
0.114692
0.0514817
0.116044
0.107081
0.047487
0.11249
0.0498265
0.0502434
0.111509
0.107798
0.0501686
0.0473675
0.113808
0.105883
0.0507128
0.107976
0.113359
0.295628
0.0871041
0.116467
0.357972
0.0370299
0.157274
0.0478665
0.32808
0.371777
0.224566
0.365349
0.348282
0.221474
0.217421
0.211301
0.19688
0.180094
0.304658
0.35146
0.330772
0.212982
0.199099
0.332236
0.284327
0.320918
0.173906
0.200357
0.192428
0.165894
0.27272
0.129146
0.231139
0.2632
0.301325
0.178027
0.150893
0.0522168
0.0499788
0.112754
0.0508934
0.0475752
0.114629
0.108843
0.0426224
0.0433541
0.0374495
0.0998311
0.089704
0.109564
0.101223
0.0446301
0.102815
0.0366775
0.0416913
0.0339664
0.0976479
0.0820466
0.677191
0.684594
0.669834
0.654829
0.64955
0.658302
0.680984
0.683658
0.659482
0.675866
0.684866
0.677722
0.688087
0.685428
0.688356
0.692881
0.682686
0.669571
0.683663
0.670277
0.682169
0.669689
0.670637
0.691023
0.69431
0.692153
0.690776
0.691924
0.689827
0.693078
0.66155
0.658816
0.659633
0.662303
0.65867
0.661672
0.662542
0.693149
0.690943
0.690576
0.68961
0.689428
0.687134
0.691927
0.680556
0.66512
0.667385
0.675668
0.663885
0.679487
0.668052
0.668694
0.678151
0.668996
0.682897
0.680751
0.666624
0.67031
0.685841
0.688372
0.689345
0.687819
0.683204
0.684201
0.686904
0.688822
0.685292
0.68893
0.690387
0.687953
0.686231
0.691309
0.681963
0.685484
0.688101
0.686646
0.680558
0.68304
0.684155
0.657542
0.659631
0.653868
0.657345
0.656507
0.656836
0.660168
0.660853
0.656497
0.661149
0.659327
0.659196
0.658017
0.662236
0.687694
0.682842
0.6878
0.687733
0.685322
0.685166
0.690161
0.658586
0.665796
0.673245
0.674437
0.661754
0.677431
0.663144
0.679022
0.685673
0.680822
0.681816
0.68192
0.684715
0.682878
0.651884
0.658375
0.652187
0.653614
0.654689
0.656124
0.655692
0.67807
0.68458
0.678532
0.679579
0.680858
0.682205
0.681866
0.688636
0.690778
0.677826
0.672834
0.665644
0.678974
0.680797
0.667262
0.684691
0.690476
0.686103
0.689707
0.685802
0.68941
0.684982
0.683918
0.684031
0.689791
0.687581
0.685109
0.688742
0.682866
0.685701
0.681088
0.686011
0.683034
0.688124
0.68783
0.683315
0.67861
0.680054
0.672551
0.671705
0.679756
0.6789
0.671424
0.670637
0.677945
0.671869
0.669578
0.679057
0.670766
0.676752
0.680145
0.683786
0.685002
0.68239
0.685979
0.687158
0.681242
0.667507
0.67451
0.674775
0.676864
0.669928
0.677138
0.669662
0.666685
0.67281
0.673899
0.676228
0.667895
0.669038
0.675083
0.663409
0.668806
0.676856
0.682184
0.644972
0.672726
0.663937
0.681963
0.68471
0.686959
0.685878
0.683584
0.681141
0.679858
0.678777
0.67941
0.677156
0.68425
0.681855
0.67951
0.67705
0.67462
0.666354
0.673596
0.676015
0.667783
0.674978
0.672598
0.665412
0.678313
0.67331
0.681803
0.677078
0.680607
0.675732
0.672233
0.668107
0.67521
0.676291
0.67877
0.673966
0.670486
0.671665
0.671051
0.666179
0.673365
0.670941
0.661341
0.663825
0.668652
0.670604
0.659643
0.667116
0.669589
0.658044
0.666096
0.662406
0.660969
0.667961
0.654288
0.656582
0.66433
0.660512
0.665694
0.641464
0.631713
0.347191
0.426643
0.461696
0.498774
0.634534
0.653665
0.646977
0.660505
0.657762
0.659364
0.656366
0.644216
0.637577
0.657282
0.647894
0.653625
0.629339
0.639138
0.629645
0.61333
0.64624
0.611924
0.653689
0.641329
0.651399
0.624598
0.599136
0.517488
0.597443
0.611896
0.507793
0.604079
0.586174
0.485318
0.646395
0.604924
0.629424
0.539121
0.610221
0.575863
0.584223
0.489489
0.567011
0.589478
0.568306
0.43439
0.464043
0.542021
0.467446
0.572649
0.538107
0.559358
0.412185
0.453039
0.522002
0.452739
0.538011
0.386412
0.397258
0.430325
0.49423
0.504562
0.031062
0.0295733
0.0239744
0.0764721
0.0610532
0.0887005
0.0731411
1.38281e-05
1.12596e-09
0.00306143
0.000718692
0.00904
1.06782e-05
0.00914753
3.26197e-07
0.00181142
0.00933504
0.00184462
1.4384e-05
3.30969e-07
0.00172036
1.24975e-05
0.00654959
2.69542e-06
2.65721e-07
0.000584371
3.29318e-08
1.06808e-06
1.94691e-08
0.000896024
1.17528e-05
1.08504e-10
0.000289841
1.02517e-08
0.00598274
0.00926157
0.00605896
0.0022201
0.00226403
0.00132808
0.00129853
0.000265467
9.74133e-11
5.93534e-08
0.000791029
5.97704e-08
1.06938e-05
4.83588e-09
0.00934993
0.00611111
0.00610927
0.00227553
0.00228384
0.00134007
0.0013291
4.68271e-08
7.83916e-07
0.000198958
8.34152e-06
5.17824e-12
4.94043e-09
3.57009e-09
0.00810299
0.00586965
0.00516819
0.00216338
0.00187072
0.00124397
0.00104016
0.00473713
0.00274255
0.00402732
0.000941412
0.00142364
0.000747909
0.000455565
0.00352252
0.00184908
0.00357661
0.000664
0.000263746
0.000645977
0.000273462
0.00359305
0.00186274
0.00360511
0.000669546
0.000268261
0.000659277
0.000275464
0.00176228
0.00163892
0.000538603
0.000861754
0.000263574
0.000234674
0.000101187
0.00341105
0.0014238
0.00292466
0.000238808
0.000604323
0.000484883
0.000181366
2.45216e-13
2.09887e-07
1.37177e-11
4.42647e-08
8.78175e-05
1.45678e-12
1.43776e-09
0.000998463
0.00138294
0.00217487
0.000325944
5.45108e-05
0.000180562
0.000111554
0.0003935
0.000154469
0.000394089
3.51275e-05
0.000107961
3.51783e-05
9.585e-06
0.000296548
1.46998e-05
0.000307306
0.00014634
5.02149e-06
0.000140258
5.35416e-06
1.49131e-05
0.000305741
0.000310645
0.000147886
5.1759e-06
5.42012e-06
0.000144076
0.000280272
9.17624e-06
0.000225858
4.3879e-06
0.000128499
9.82794e-05
3.08301e-06
0.000755935
0.000122454
0.00035819
2.13635e-05
8.18333e-05
2.99951e-05
6.69208e-06
0.000778209
0.00080125
0.000276316
8.19902e-05
8.63217e-05
1.94899e-05
1.81929e-05
0.000806686
0.000269157
0.000277965
8.30517e-05
8.68416e-05
1.95757e-05
1.83273e-05
0.000567653
0.000236755
0.000176876
7.07541e-05
4.99299e-05
1.48245e-05
9.57303e-06
5.51326e-06
8.74355e-05
0.000154104
6.18148e-05
7.66494e-07
3.12698e-05
1.72839e-06
5.4967e-05
1.44298e-06
1.44257e-05
3.51909e-07
5.22191e-05
1.54634e-06
1.53996e-05
5.54704e-05
3.54441e-07
1.46463e-05
1.47349e-06
1.56087e-06
5.33398e-05
1.55117e-05
0.0003719
5.05878e-05
0.000106575
1.20094e-05
2.78369e-05
4.7022e-06
1.75534e-06
1.20852e-05
1.21214e-06
4.59378e-05
3.29406e-05
1.70846e-07
8.10212e-06
8.08011e-07
4.08041e-05
3.39225e-07
1.52235e-05
2.71494e-07
1.25825e-05
4.01517e-06
7.92731e-08
4.93405e-05
4.28944e-05
0.000146229
8.80579e-06
3.23693e-07
2.02431e-06
1.62592e-06
1.87394e-05
1.73759e-07
8.4941e-08
1.72185e-06
8.34461e-06
4.23369e-06
4.21371e-07
3.16892e-05
1.88662e-05
3.97797e-06
5.40845e-06
1.03949e-06
5.14182e-07
1.21803e-07
6.74763e-05
1.1587e-05
7.136e-05
2.82377e-06
2.57985e-07
2.58494e-06
2.84738e-07
1.1611e-05
6.81143e-05
7.16857e-05
2.82939e-06
2.56935e-07
2.5864e-06
2.84854e-07
5.71938e-05
5.08657e-06
3.91997e-05
1.91173e-07
1.98921e-06
1.19691e-06
1.09299e-07
8.73084e-08
1.03994e-06
4.43263e-06
1.04121e-06
4.20251e-09
2.29192e-07
1.94914e-08
5.81527e-08
5.59366e-07
2.96345e-06
8.58374e-07
2.60184e-09
1.46225e-07
1.60278e-08
2.94809e-06
6.43705e-08
3.18341e-06
4.94403e-07
8.47522e-09
4.53375e-07
9.2593e-09
6.46642e-08
2.97388e-06
3.19974e-06
4.95918e-07
8.48593e-09
4.54603e-07
9.28313e-09
2.3092e-06
8.15558e-06
2.05887e-05
5.42476e-07
1.50547e-08
1.8571e-07
4.65793e-08
2.36825e-06
2.8917e-08
1.50588e-06
6.47818e-09
3.50224e-07
2.11023e-07
3.84366e-09
1.91573e-06
8.96347e-06
1.20529e-06
4.01264e-08
2.27011e-07
2.43246e-08
3.97319e-09
1.36141e-08
2.75325e-07
7.35906e-07
9.63714e-08
5.96479e-10
3.38648e-08
1.72461e-09
2.05829e-07
2.446e-06
5.76088e-07
3.81374e-09
4.96211e-08
1.11184e-08
8.271e-10
2.05186e-07
7.47894e-10
6.07747e-09
5.7725e-10
4.12376e-08
3.22983e-08
3.71193e-09
5.36893e-09
4.86054e-09
8.79782e-11
5.75927e-08
9.53945e-10
5.24346e-08
1.05059e-09
8.74584e-11
9.74194e-11
5.36983e-09
5.76705e-08
9.51167e-10
5.23424e-08
1.05175e-09
8.12884e-08
3.51327e-10
1.97783e-08
1.64575e-10
9.46051e-09
2.19786e-09
3.93404e-11
6.45238e-11
7.12705e-10
3.94551e-08
2.30024e-08
3.61505e-11
2.01162e-09
4.09338e-10
7.83065e-09
1.71558e-08
1.11525e-07
2.08938e-09
2.17794e-11
3.1923e-10
1.47067e-10
1.00565e-08
2.69157e-10
5.95489e-11
1.52187e-11
3.35095e-09
8.4329e-10
1.77148e-10
7.272e-10
7.32174e-11
4.19806e-09
4.3974e-10
1.50603e-12
7.1451e-11
7.92249e-12
0.0437996
0.199513
0.0473104
0.342338
0.017592
0.135557
0.20378
0.0200952
0.343771
0.302881
0.304534
0.207689
0.209557
0.180463
0.178828
0.169581
0.327909
0.287758
0.340507
0.301182
0.208036
0.178624
0.201599
0.254976
0.257202
0.146386
0.109295
0.110691
0.144693
0.239853
0.100741
0.186955
0.200873
0.254073
0.144516
0.108912
0.047619
0.107593
0.108601
0.0910059
0.0384676
0.0902416
0.0386662
0.102088
0.0350012
0.0842782
0.0467982
0.107471
0.0897369
0.0378547
0.0712954
0.0289575
0.0202012
0.0513609
0.0518793
0.0705871
0.0291312
0.0259408
0.065033
0.0464496
0.0700747
0.0195946
0.0507698
0.0284169
0.050727
0.156847
0.0110134
0.0247105
0.0571831
0.075678
0.160755
0.153588
0.307115
0.309438
0.123632
0.0255315
0.00679787
0.129491
0.017073
0.182051
0.0315224
0.0161426
0.117361
0.304533
0.121116
0.024771
0.075362
0.24176
0.0114234
0.0635531
0.304876
0.407279
0.410866
0.320837
0.324416
0.223699
0.221538
0.311147
0.412702
0.412983
0.328659
0.327083
0.226299
0.228383
0.403109
0.369293
0.321062
0.291108
0.277816
0.223552
0.202347
0.00926801
0.010071
0.000917631
0.0476429
0.174425
0.00686604
0.041616
0.151154
0.304116
0.261334
0.270328
0.157435
0.223252
0.12546
0.00386737
0.0363199
0.0882621
0.0132708
0.000849974
0.0351893
0.00607149
0.311567
0.175655
0.171216
0.237905
0.229346
0.162927
0.116859
0.177359
0.0965249
0.22711
0.127962
0.177066
0.0963319
0.06829
0.120304
0.136415
0.203488
0.120978
0.204765
0.137562
0.0762643
0.158995
0.241318
0.239278
0.151706
0.0942709
0.153477
0.0931243
0.0901778
0.147564
0.232864
0.156411
0.23628
0.149444
0.0915744
0.122371
0.206882
0.208741
0.139393
0.0780729
0.140972
0.0772434
0.211319
0.0845468
0.159174
0.122683
0.171507
0.0927785
0.063796
0.235691
0.14025
0.211984
0.0919863
0.150071
0.134999
0.0823115
0.20458
0.110104
0.186327
0.0763369
0.138054
0.12496
0.0689878
0.119206
0.120223
0.118196
0.0786591
0.0776989
0.0773726
0.0491485
0.0235483
0.0384027
0.09147
0.0299196
0.0736913
0.0771126
0.0596578
0.0880979
0.0865149
0.127724
0.0671618
0.0283377
0.0451134
0.0439472
0.109738
0.119528
0.168823
0.106781
0.0439213
0.0743697
0.0643416
0.0889372
0.110207
0.151725
0.100029
0.0385922
0.0706957
0.0550446
0.128167
0.0674234
0.0869343
0.0573721
0.045204
0.0441714
0.0284347
0.078644
0.0311036
0.0314495
0.0501948
0.0496643
0.0305227
0.0185596
0.0112725
0.0241575
0.0170364
0.0447483
0.0609635
0.0446535
0.0308596
0.0490561
0.0447026
0.0847237
0.0856333
0.0250169
0.0451468
0.0496921
0.0869204
0.0253261
0.0510115
0.0461991
0.0879726
0.045739
0.0504443
0.0100644
0.0141262
0.0215348
0.055309
0.0383487
0.0427667
0.02834
0.0782402
0.0290239
0.0492962
0.0274384
0.0476829
0.029398
0.0164184
0.0736944
0.0259955
0.0470935
0.0246931
0.0459021
0.0285492
0.0150248
0.049705
0.0450375
0.0859861
0.077398
0.021988
0.0444406
0.0404123
0.0575504
0.0224513
0.0363737
0.0174343
0.0286662
0.0174607
0.0102967
0.0563749
0.0219905
0.0361198
0.0162767
0.027503
0.0171282
0.00981026
0.00681177
0.0303549
0.0197871
0.00647188
0.0191162
0.011862
0.00377393
0.00376103
0.0109697
0.00643926
0.0302345
0.0118214
0.0197468
0.0190193
0.061199
0.0170276
0.0236396
0.0219135
0.042409
0.0347332
0.0318427
0.0178598
0.0157675
0.0293379
0.0172984
0.00494943
0.0101866
0.00881751
0.0184503
0.0173115
0.0304493
0.0177105
0.0053384
0.0103931
0.00953931
0.377108
0.397832
0.123494
0.116262
0.374202
0.364829
0.0495331
0.0459503
0.37302
0.224996
0.217602
0.380958
0.375146
0.21891
0.227986
0.390553
0.398118
0.386962
0.229334
0.245198
0.241687
0.236728
0.38956
0.360764
0.374114
0.214793
0.214863
0.230073
0.202883
0.207705
0.203279
0.360588
0.355494
0.36317
0.206013
0.199044
0.10876
0.0537802
0.108787
0.0462744
0.117962
0.101812
0.0495278
0.0562663
0.0587311
0.129008
0.117978
0.0573576
0.125845
0.0537766
0.118147
0.0537182
0.0526065
0.0502179
0.110945
0.111819
0.0508521
0.0472585
0.104526
0.101772
0.103789
0.0452286
0.0997165
0.0471426
0.654586
0.479097
0.557714
0.649377
0.492489
0.633777
0.563607
0.656003
0.516375
0.625494
0.620779
0.0797806
0.461979
0.382709
0.545404
0.654317
0.491681
0.388083
0.607835
0.281305
0.549117
0.605104
0.60868
0.633963
0.571622
0.617354
0.48761
0.62593
0.654978
0.655956
0.65721
0.638161
0.641836
0.639467
0.632935
0.24756
0.237584
0.496666
0.607187
0.570356
0.639815
0.467068
0.641165
0.638237
0.657132
0.656375
0.65785
0.642661
0.640924
0.653167
0.652151
0.655764
0.635457
0.620136
0.626976
0.628785
0.626517
0.651593
0.655542
0.65284
0.65645
0.637309
0.630629
0.241421
0.59255
0.554785
0.270804
0.52629
0.120573
0.31711
0.635387
0.628001
0.654053
0.649164
0.645167
0.603542
0.62162
0.623155
0.64556
0.632853
0.643206
0.632131
0.627418
0.620449
0.627607
0.617379
0.615512
0.62387
0.625898
0.615259
0.613539
0.612904
0.647188
0.651785
0.634165
0.640323
0.591615
0.583536
0.0582939
0.22795
0.0463779
0.223818
0.0300324
0.1789
0.0469244
0.606574
0.567151
0.613779
0.599789
0.523895
0.587989
0.537159
0.533021
0.611676
0.596788
0.568722
0.615236
0.602468
0.539763
0.642101
0.617155
0.644132
0.621039
0.611555
0.570368
0.566748
0.643481
0.614354
0.620197
0.601447
0.609943
0.568855
0.56122
0.635781
0.573522
0.621677
0.558249
0.547625
0.594431
0.489183
0.637891
0.62346
0.629007
0.594226
0.61534
0.615331
0.606133
0.588411
0.504981
0.565837
0.506058
0.575111
0.51937
0.578251
0.504779
0.585572
0.575938
0.591507
0.509477
0.522575
0.581157
0.604202
0.557208
0.611744
0.541302
0.460151
0.467139
0.533779
0.635011
0.604828
0.617372
0.578584
0.562503
0.551079
0.516351
0.50818
0.59978
0.577486
0.53848
0.510203
0.57488
0.460695
0.587665
0.576926
0.611226
0.559088
0.60006
0.603882
0.579945
0.62124
0.619072
0.623137
0.61186
0.605563
0.606286
0.610342
0.18498
0.0490533
0.0178705
0.190527
0.446402
0.0782235
0.241104
0.483239
0.56462
0.556182
0.521923
0.435981
0.44246
0.514325
0.603759
0.589221
0.589269
0.602171
0.585778
0.584902
0.601212
0.551974
0.481413
0.556104
0.502922
0.422735
0.422718
0.501013
0.501899
0.566903
0.573458
0.505227
0.417154
0.498648
0.422341
0.501133
0.503253
0.574495
0.506933
0.42432
0.504751
0.424459
0.542694
0.478266
0.553635
0.500698
0.411259
0.492392
0.41969
0.582982
0.471186
0.53457
0.440991
0.512406
0.46195
0.390265
0.390072
0.371125
0.360366
0.243625
0.239732
0.230564
0.223733
0.477357
0.457222
0.471375
0.311739
0.532478
0.398637
0.392571
0.487393
0.45047
0.520389
0.413163
0.490318
0.452239
0.37682
0.299984
0.0890146
0.117458
0.362908
0.390975
0.123975
0.18065
0.0474255
0.374577
0.225948
0.378864
0.366939
0.229324
0.223546
0.220432
0.386253
0.37359
0.371238
0.242384
0.236404
0.228085
0.231266
0.456708
0.365119
0.287371
0.367919
0.374069
0.37094
0.450288
0.597187
0.580091
0.590738
0.566997
0.589415
0.577744
0.597041
0.530125
0.5479
0.580017
0.595364
0.54747
0.581548
0.567104
0.533799
0.41935
0.494584
0.410744
0.486151
0.448116
0.373774
0.208148
0.365621
0.338956
0.308928
0.185612
0.339221
0.208393
0.337703
0.30139
0.340566
0.205831
0.176734
0.203821
0.177588
0.304785
0.209943
0.344241
0.303186
0.342831
0.208096
0.17907
0.392757
0.353603
0.35344
0.308316
0.308707
0.263135
0.228702
0.427773
0.340739
0.245561
0.338157
0.339237
0.427714
0.336815
0.425309
0.242245
0.328734
0.329504
0.418746
0.335887
0.333856
0.35215
0.353755
0.433362
0.387489
0.236754
0.311432
0.311798
0.390907
0.395312
0.466056
0.391556
0.243385
0.317293
0.315739
0.301534
0.208472
0.341011
0.288304
0.328456
0.199992
0.170005
0.627707
0.634044
0.583303
0.590499
0.626317
0.606561
0.610924
0.634884
0.645549
0.646558
0.634982
0.624587
0.633683
0.623554
0.635252
0.624332
0.646532
0.63491
0.646819
0.635187
0.624765
0.635551
0.625568
0.626409
0.628576
0.618699
0.615807
0.617743
0.616718
0.628473
0.618478
0.616529
0.626584
0.628755
0.618861
0.616878
0.611532
0.614459
0.590431
0.588228
0.609995
0.59276
0.617731
0.591559
0.586079
0.616585
0.611738
0.588907
0.593027
0.618241
0.606961
0.604405
0.590771
0.591671
0.605871
0.592182
0.605413
0.605083
0.591462
0.591127
0.607107
0.591794
0.592326
0.605556
0.332094
0.329575
0.416035
0.379081
0.216453
0.300099
0.297525
0.125865
0.270626
0.157676
0.261995
0.304608
0.182474
0.151654
0.31672
0.17328
0.239909
0.174961
0.241042
0.173109
0.11958
0.0529929
0.051278
0.114703
0.119631
0.0542407
0.0524093
0.116715
0.0563027
0.0537385
0.057982
0.0545354
0.12788
0.121685
0.119638
0.0540603
0.128964
0.121248
0.0515369
0.0568573
0.12675
0.116987
0.262436
0.161563
0.228608
0.123915
0.18425
0.160425
0.108136
0.266274
0.164735
0.23174
0.125172
0.186011
0.161218
0.107532
0.317629
0.171507
0.178872
0.177242
0.244816
0.24413
0.2416
0.0528017
0.119534
0.0393567
0.0463047
0.107237
0.0934808
0.107392
0.0460791
0.105129
0.0378422
0.0468308
0.0382323
0.106435
0.0896034
0.0477313
0.0385355
0.0387217
0.0911159
0.108834
0.107834
0.0903827
0.0379275
0.0898958
0.107738
0.0351034
0.0439348
0.102381
0.0845151
0.1202
0.1193