/*--------------------------------*- C++ -*----------------------------------*\
  =========                 |
  \\      /  F ield         | OpenFOAM: The Open Source CFD Toolbox
   \\    /   O peration     | Website:  https://openfoam.org
    \\  /    A nd           | Version:  9
     \\/     M anipulation  |
\*---------------------------------------------------------------------------*/
FoamFile
{
    format      ascii;
    class       volScalarField;
    location    "0.00265";
    object      impulseMax;
}
// * * * * * * * * * * * * * * * * * * * * * * * * * * * * * * * * * * * * * //

dimensions      [1 -1 -1 0 0 0 0];

internalField   nonuniform List<scalar> 
22339
(
116.038
1.60248e-05
5.94122e-06
6.3344e-07
2.432e-08
7.82398e-05
2.82107e-06
1.48886e-07
0.000855513
112.374
0.364615
17.9335
14.4323
0.000434846
0.0115534
5.77226
0.0655561
0.00189572
0.00133861
2.91929
0.0514264
0.0652951
106.366
51.6635
102.751
92.0144
65.9567
191.684
3.33975
109.895
72.5216
72.9983
90.173
72.0858
70.7588
93.4036
0.266187
0.0185774
0.021695
0.107335
0.0327106
0.1659
0.188054
1.76921
0.885707
7.4311
8.15171
1.24086
1.43003
9.05096
101.696
72.7549
71.6763
85.6227
64.372
68.2951
79.4789
0.0105561
1.53701
1.31438
0.377167
17.244
15.1537
24.3255
3.89861
87.3252
56.2026
41.2628
97.8904
42.8171
27.8196
18.6787
37.9805
59.2188
24.0873
43.3442
35.2343
165.65
92.1942
144.573
44.3365
188.375
147.851
157.787
47.8382
10.0346
0.000199709
1.42128e-06
6.88521e-06
0.001706
0.033722
0.000223025
8.15144e-05
1.10249e-06
3.71173e-07
8.22561e-06
5.98977e-06
3.13278e-07
4.94756e-06
2.63816e-07
2.55935e-08
2.236e-07
1.1232e-07
1.13422e-08
5.72464e-07
2.80266e-08
1.8102e-09
5.51768e-09
2.55311e-09
3.41991e-10
3.66705e-08
2.02991e-09
1.14381e-10
1.25742e-10
5.41355e-11
8.98835e-12
2.11597e-09
1.23379e-10
6.64101e-12
2.71611e-12
1.05319e-12
1.91479e-13
1.03214e-10
6.16892e-12
2.99406e-13
4.25644e-14
1.26117e-14
0
38.1631
0.0011583
8.6556e-05
5.42062e-07
2.58471e-06
0.000809061
0.0126365
3.47057e-05
2.62118e-05
4.43869e-07
1.05514e-07
2.75408e-06
1.22369e-06
1.48473e-07
1.74059e-06
1.01871e-07
8.32393e-09
7.0245e-08
3.01836e-08
4.6928e-09
1.84444e-07
1.02472e-08
6.39782e-10
1.62949e-09
6.86373e-10
1.24495e-10
1.30062e-08
7.50947e-10
4.15827e-11
3.52871e-11
1.44308e-11
2.98399e-12
7.70528e-10
4.56627e-11
2.4429e-12
7.40935e-13
2.61692e-13
5.26294e-14
3.76937e-11
2.26416e-12
9.85892e-14
6.54836e-15
4.85064e-16
0
9.11113
4.43804e-05
2.28133e-07
1.86794e-07
0.000136111
0.000690982
1.29322e-06
3.10943e-06
1.58029e-07
1.25442e-08
2.85989e-07
1.19761e-07
2.36573e-08
5.64651e-07
3.02425e-08
1.62456e-09
5.87736e-09
2.60361e-09
5.9465e-10
4.55383e-08
2.5249e-09
1.32891e-10
1.17227e-10
5.39767e-11
1.47503e-11
2.86126e-09
1.67096e-10
8.74982e-12
2.42156e-12
1.05865e-12
3.36756e-13
1.57275e-10
9.40296e-12
4.75241e-13
4.31707e-14
1.30967e-14
9.70128e-16
7.27802e-12
4.18489e-13
7.88229e-15
0
0
0
0.0476884
1.34378e-06
8.04316e-05
6.29233e-07
1.53326e-06
5.75104e-06
5.4163e-08
2.32905e-05
1.81606e-06
4.89961e-08
5.87658e-09
3.207e-09
1.45727e-09
1.03078e-06
7.6097e-08
2.86701e-09
2.12335e-10
7.77218e-11
3.60246e-11
4.6622e-08
3.12765e-09
1.37575e-10
7.83233e-12
1.82699e-12
8.30308e-13
1.90251e-09
1.23765e-10
5.8934e-12
2.78912e-13
3.08016e-14
1.01863e-14
7.2879e-11
4.68899e-12
2.14519e-13
2.54659e-15
0
0
2.49893e-12
1.42124e-13
1.21266e-16
0
0
0
51.7282
2.39185
0.00763371
1.23251e-06
4.24758e-08
2.96216
0.0466209
7.45838e-05
1.69303e-07
2.58047e-08
1.41884e-09
0.000187736
9.47413e-06
1.66993e-07
3.88482e-09
1.27987e-10
4.42898e-11
1.38042e-06
1.92762e-07
7.27523e-09
2.61059e-10
9.41157e-12
1.33647e-12
6.46601e-08
6.59482e-09
2.95499e-10
1.18283e-11
4.16064e-13
2.93464e-14
2.64692e-09
2.28006e-10
1.12021e-11
4.46986e-13
7.63976e-15
0
9.70014e-11
7.68074e-12
3.72772e-13
6.0633e-15
0
0
3.0998e-12
2.07365e-13
2.54659e-15
0
0
0
90.6127
0.0243018
4.969e-05
4.59856e-07
1.55581e-08
1.2609e-09
0.000102704
0.00217209
1.38833e-06
3.43095e-08
1.08719e-09
6.47365e-11
8.69202e-06
8.01208e-07
5.16205e-08
1.89514e-09
6.65344e-11
3.13679e-12
3.59068e-07
3.87842e-08
2.27213e-09
9.57768e-11
3.47621e-12
1.25995e-13
1.66296e-08
1.63353e-09
9.45991e-11
4.22284e-12
1.39941e-13
0
6.8708e-10
6.29129e-11
3.64416e-12
1.52916e-13
0
0
2.59429e-11
2.22281e-12
1.13384e-13
0
0
0
8.38918e-13
5.59036e-14
0
0
0
0
6.32097e-05
1.4491e-05
8.94578e-07
3.19265e-08
1.4816e-09
7.445e-11
9.58151e-06
1.07921e-06
6.5755e-08
2.81503e-09
1.3353e-10
5.48474e-12
5.85391e-07
5.83826e-08
3.66261e-09
1.80178e-10
8.2741e-12
3.20506e-13
3.00396e-08
2.94019e-09
1.83643e-10
9.25878e-12
3.96661e-13
6.18456e-15
1.38597e-09
1.31625e-10
8.22013e-12
4.03088e-13
7.88229e-15
0
5.86971e-11
5.36141e-12
3.13351e-13
6.0633e-15
0
0
2.28938e-12
1.78989e-13
2.54659e-15
0
0
0
5.90565e-14
0
0
0
0
0
2.04842e-06
4.23527e-07
3.42311e-08
1.83134e-09
9.60089e-11
4.64327e-12
4.23088e-07
4.46917e-08
3.01571e-09
1.60287e-10
8.0557e-12
3.41e-13
2.92782e-08
2.91365e-09
1.93673e-10
1.06073e-11
4.97797e-13
9.82254e-15
1.62831e-09
1.58684e-10
1.05163e-11
5.63765e-13
1.37031e-14
0
8.01891e-11
7.55596e-12
4.76696e-13
1.37031e-14
0
0
3.55358e-12
3.06318e-13
9.82254e-15
0
0
0
1.2648e-13
1.69772e-15
0
0
0
0
0
0
0
0
0
0
1.44341e-07
1.705e-08
1.37941e-09
8.73946e-11
4.96596e-12
2.26646e-13
1.69881e-08
1.79667e-09
1.28864e-10
7.65879e-12
3.90234e-13
6.18456e-15
1.25065e-09
1.26244e-10
8.86794e-12
4.9331e-13
1.22479e-14
0
7.46921e-11
7.26783e-12
4.9137e-13
1.49157e-14
0
0
3.8542e-12
3.41242e-13
1.18841e-14
0
0
0
1.5801e-13
4.36557e-15
0
0
0
0
0
0
0
0
0
0
0
0
0
0
0
0
5.09625e-09
6.12601e-10
5.17107e-11
3.55988e-12
1.8869e-13
1.21266e-16
6.0057e-10
6.46474e-11
4.91818e-12
2.91645e-13
4.72937e-15
0
4.69458e-11
4.78043e-12
3.34937e-13
7.88229e-15
0
0
2.94082e-12
2.68968e-13
7.88229e-15
0
0
0
1.36545e-13
3.39545e-15
0
0
0
0
0
0
0
0
0
0
0
0
0
0
0
0
0
0
0
0
0
0
0.000126186
2.89834e-06
8.11418e-05
2.78464e-06
5.92635e-07
1.78187e-07
5.3937e-07
1.10477e-07
1.5189e-06
0.00107878
9.2346e-07
0.000668548
21.9923
0.00877062
0.34007
20.9089
0.00564254
0.216207
43.457
0.36498
0.027722
44.885
38.7116
0.216612
0.01201
1.79983e-05
0.000171406
1.57363e-05
0.000149201
1.32124e-05
0.000126814
1.18111e-05
4.88435e-07
1.31005e-06
2.68661e-07
1.03755e-06
3.5577e-07
9.7214e-07
2.15836e-07
0.00013284
7.31726e-07
1.138e-05
5.28791e-06
0.000106441
5.33732e-07
8.80288e-06
0.0357326
0.000118951
0.000281652
0.00122742
0.0218809
0.000100315
0.000208678
5.54582e-05
1.49736e-06
5.54683e-07
2.88327e-07
6.08518e-08
1.05357e-07
1.20492e-08
5.4854e-07
0.000476315
9.56379e-08
9.77913e-05
18.7529
0.00413543
0.157472
14.693
0.000950833
0.0366073
13.1328
0.149179
0.00655888
23.7891
1.36559
0.0266145
0.000519908
7.36241e-06
6.73978e-05
5.99754e-06
3.04487e-06
3.10182e-05
2.75307e-06
1.66425e-07
4.79607e-07
9.51366e-08
2.25875e-07
5.60701e-08
2.21671e-07
4.39337e-08
5.64322e-05
2.43115e-07
4.39524e-06
8.31519e-07
2.29255e-05
8.05901e-08
1.58925e-06
0.0152161
5.75551e-05
0.000119342
0.000417802
0.00308422
2.786e-05
5.66745e-05
2.42604e-07
2.46207e-05
6.01695e-08
4.39812e-09
6.87266e-06
1.17849e-07
3.24317e-08
4.68474e-05
2.0321e-08
1.81506e-06
13.6377
0.000477441
0.0181826
4.93705
2.23049e-05
0.000928856
0.382691
0.0117484
0.000234697
1.17405
0.00318076
0.000455979
6.8636e-05
2.2487e-06
1.20065e-05
1.20868e-06
2.41925e-05
2.0948e-05
4.40309e-06
3.21869e-08
1.1696e-07
2.05047e-08
3.538e-06
3.77327e-07
6.99691e-07
8.64062e-08
4.97591e-06
1.68965e-08
3.22482e-07
5.12797e-08
6.42266e-07
9.9713e-09
4.67397e-08
0.00127838
6.29624e-06
2.1058e-05
2.04684e-05
0.000109873
1.01588e-06
4.89808e-06
0.000293733
0.355883
8.23042e-05
1.42485e-06
0.117394
0.00206606
2.35724e-07
4.32469e-07
0.000409276
3.28397e-06
0.640413
5.73078e-06
0.000222192
0.00385908
5.86531e-07
1.44606e-06
0.000481685
0.000111237
1.61138e-05
0.00075489
2.36566e-05
1.13875e-05
1.29232e-06
0.000454443
0.000221462
4.88504e-05
0.132349
0.00168776
0.00139321
9.92314e-06
8.49184e-06
1.26645e-06
0.0137189
0.000234706
8.36265e-05
1.37557e-05
8.6797e-08
1.08185e-07
9.1649e-09
1.6843e-05
8.08412e-07
9.42494e-07
5.09194e-08
9.26729e-06
6.73396e-08
3.27482e-07
8.416e-08
3.52864e-07
4.79739e-09
1.33834e-08
20.6325
0.477743
0.00872768
34.6332
5.12465
0.135217
0.000887799
0.135998
0.00200488
2.10009e-05
0.132247
0.00305774
0.000261309
5.91209e-05
2.7663e-05
3.99286e-06
1.32487e-07
0.000104409
8.13833e-06
5.3897e-06
3.88416e-07
137.375
1.50233
0.0168078
60.0189
2.93563e-05
231.012
103.287
1.74812e-05
3.37055e-07
194.134
0.146665
0.000148496
3.88778e-06
3.44817e-07
1.88105e-08
36.5999
0.351333
4.72575e-06
3.39898e-07
2.00852e-08
9.55793e-10
0.00235151
7.64787e-06
2.30749e-07
1.66918e-08
1.01666e-09
5.13563e-11
5.68703e-07
9.77467e-08
1.01572e-08
7.63787e-10
4.85091e-11
2.54865e-12
2.30377e-08
3.69846e-09
3.89126e-10
3.07363e-11
2.01035e-12
8.33097e-14
31.3657
31.3436
179.294
132.755
136.785
173.941
140.446
131.729
32.2061
31.2954
155.391
121.487
118.676
106.609
107.858
78.2097
43.5794
197.434
25.3034
83.1105
83.962
37.5603
173.151
11.0254
66.4541
18.3231
163.233
7.07791
32.1235
0.0603741
1.92889
0.685638
0.00552092
5.00599
0.00123239
0.0101352
4.73949e-05
102.921
140.928
83.1628
51.2614
191.876
121.988
115.005
22.6087
139.22
16.4912
1.65804
93.9246
40.0533
1.37052
0.0329921
5.22013
0.111916
0.000410382
5.79097
0.000510502
0.000990176
3.18276e-05
72.9409
78.5442
6.04968
15.3131
35.8716
42.6309
30.3667
11.6483
19.5659
10.1725
23.0914
0.552577
2.95156
0.84219
0.0465477
0.29075
0.0754397
0.21157
0.00137349
0.0203759
0.00441457
8.27225e-05
0.00128452
0.000245358
0.000491949
1.40456e-05
7.32365e-05
3.93342e-05
0.000119324
6.82297e-05
3.65249e-05
1.51592e-05
2.83643e-06
7.74106e-07
8.36e-06
2.75485e-06
7.35873e-07
7.91698e-06
3.04156e-06
1.187e-05
9.80111e-05
4.35764e-05
2.4429e-05
5.68389e-05
3.20066e-05
8.90508e-06
2.32331e-06
3.01889e-06
6.25907e-07
5.17496e-06
7.31746e-07
6.30008e-06
1.78396e-06
4.68709e-08
1.69381e-07
2.10085e-07
5.76252e-07
1.63138e-07
1.97736e-07
4.95581e-08
2.78857e-08
1.78489e-07
8.25804e-08
1.6981e-07
1.64969e-07
7.7336e-08
2.98969e-08
4.33275e-08
5.61659e-07
1.39898e-07
1.47844e-07
1.57924e-07
1.79723e-07
3.52405e-08
2.35838e-08
1.31199e-07
9.97198e-08
4.88204e-08
1.33868e-07
6.41361e-08
1.80751e-08
1.98427e-05
1.98191e-06
1.20731e-05
1.42942e-06
1.83005e-06
1.1131e-05
2.14823e-05
0.000209933
0.00216294
0.000111685
0.00100071
0.00201381
0.000103775
0.000226474
1.66891e-05
1.1437e-06
1.13861e-06
7.01864e-06
1.51208e-06
9.28854e-06
1.2734e-05
0.00017895
0.000855477
0.00138652
6.80182e-05
0.00174067
8.7456e-05
0.000139515
21.528
36.8282
36.0273
8.74267
14.17
13.6092
9.09744
0.163429
0.0200648
0.0599149
0.00819137
0.0187569
0.0562263
0.174021
34.7541
20.0404
32.9074
8.15248
11.2246
12.6217
7.3305
0.144929
0.00707477
0.0133481
0.0400642
0.0164237
0.0492922
0.120289
3.84058e-06
2.94351e-05
1.90793e-05
6.29071e-06
1.21788e-05
7.971e-07
3.61236e-07
3.62237e-06
8.55677e-07
1.22639e-06
2.06575e-07
2.67285e-06
4.65697e-07
6.48465e-07
1.04894e-07
9.76257e-07
1.42164e-07
1.51538e-06
2.78092e-07
1.30237e-08
8.09559e-08
9.98835e-08
1.84117e-07
2.29653e-08
4.70854e-08
5.8977e-08
6.59173e-09
6.25287e-08
3.3856e-08
4.37919e-08
1.16135e-08
3.71321e-08
1.92676e-08
8.37485e-09
1.11953e-07
2.36529e-08
2.68137e-08
2.95227e-08
3.8866e-08
5.60217e-09
3.71089e-09
1.87723e-08
8.76437e-09
6.46867e-09
1.83852e-08
1.18347e-08
2.10533e-09
5.43758e-06
7.46763e-07
4.65613e-06
3.75896e-07
8.73857e-06
4.53685e-07
2.87548e-06
6.40452e-05
0.00101513
4.63797e-05
0.000311598
9.90018e-05
0.000683103
2.99741e-05
3.04148e-06
1.67511e-07
1.15421e-07
7.50506e-07
2.37105e-07
1.54012e-06
1.52968e-06
3.76944e-05
0.000183405
0.000238493
8.6794e-06
0.000422942
1.65044e-05
2.00264e-05
30.3274
16.9603
26.9761
5.11944
9.47648
6.29657
7.50231
0.0667323
0.0100508
0.0301279
0.00278137
0.0928418
0.00700375
0.0209618
22.9325
18.3959
12.0652
3.89844
3.6742
5.50359
2.73741
0.044686
0.00169113
0.00270553
0.00802601
0.00454393
0.0134863
0.0278789
8.79407e-07
6.43133e-08
6.87979e-07
5.50512e-07
2.21075e-07
2.73123e-07
1.23574e-06
1.01437e-05
3.34401e-06
4.20175e-05
7.68707e-05
3.194e-06
8.32865e-06
0.000129802
1.86001e-08
1.60184e-08
1.79369e-08
1.12799e-07
4.1694e-09
7.01967e-08
4.7003e-08
4.00919e-09
3.38877e-09
5.11532e-09
5.8569e-09
1.3459e-09
2.27351e-09
9.41652e-09
2.21318e-07
8.3329e-07
1.19688e-05
2.00439e-06
8.69003e-07
2.79276e-07
3.09984e-06
4.88589e-08
1.96316e-08
1.48812e-07
4.20306e-07
1.06273e-08
6.24395e-08
7.04824e-07
2.5466e-07
4.67369e-08
3.14831e-07
1.70099e-08
6.71786e-07
1.71496e-08
1.17778e-07
3.78695e-06
0.000119478
3.75842e-06
1.8622e-05
9.38577e-06
5.19709e-05
1.50014e-06
8.11418e-08
7.18691e-09
2.82168e-08
1.69719e-08
7.15415e-09
3.57834e-08
2.79069e-08
1.28816e-06
6.53719e-06
5.77969e-06
1.38513e-07
1.89903e-05
4.66983e-07
3.64142e-07
8.99351
9.22587
6.39311
0.958609
2.1718
1.72857
1.10103
0.00798021
0.00145325
0.00427273
0.000207122
0.0158277
0.000681742
0.00200992
2.07045
3.86112
1.93091
0.456272
0.168947
0.473141
0.189429
0.00343345
7.52875e-05
8.84029e-05
0.000251131
0.000270043
0.000763862
0.00121906
0.0201349
0.00057369
0.000873598
0.0034151
0.00168436
0.00743358
0.00999517
0.221951
0.0377835
1.06194
0.920128
0.0910079
0.10315
2.25335
0.000644812
0.000172218
2.41601e-05
0.00105782
4.57288e-05
0.00232229
0.000279815
0.000159903
2.33332e-06
5.30095e-06
1.41575e-05
1.0835e-05
3.5852e-05
6.60769e-05
0.00909177
0.0119241
0.397756
0.0340724
0.0310568
0.00331994
0.121999
0.00237396
0.000178333
0.00819588
0.00877406
0.000556022
0.00080576
0.0333465
1.40575e-06
4.42268e-07
6.64411e-08
2.67396e-06
8.86834e-08
7.28396e-06
5.01092e-07
2.81002e-07
1.437e-06
4.20034e-08
9.95716e-08
1.02653e-07
3.46531e-07
9.17743e-08
2.50297e-05
3.49806e-05
0.00186271
8.39628e-05
0.000120452
6.86677e-06
0.000413051
5.06009e-06
2.56282e-07
1.92877e-05
1.69219e-05
1.03308e-06
1.2818e-06
9.02977e-05
0.158128
0.229146
0.760374
0.0175951
0.048508
0.0648759
0.011183
8.05902e-05
2.34877e-05
6.59775e-05
1.14196e-06
0.000348391
5.05818e-06
1.42622e-05
0.0296514
0.00878905
0.0535534
0.00365294
0.000238034
0.00192677
0.000525992
1.37258e-05
2.10397e-07
3.7717e-06
3.11316e-07
9.86354e-07
2.19071e-06
2.17933e-06
8.63396
18.1823
8.50466
4.0167
1.11172
3.89287
0.960389
0.034008
0.250525
0.0754932
0.0106141
0.00542237
0.0203727
0.00241729
138.595
118.636
112.147
217.454
150.525
68.7332
203.016
81.0215
152.179
68.1056
125.13
89.0354
4.14055
65.4225
27.0753
39.2851
13.7505
15.6226
13.3639
31.1571
66.91
66.2698
40.6033
96.5294
96.0825
40.8057
65.3896
31.8336
64.2695
40.8431
95.345
95.5475
41.7073
62.4998
32.1151
59.7715
44.0218
94.878
42.8286
93.7622
55.8436
50.5116
29.5743
45.1411
88.283
91.6847
45.6363
35.0489
26.7536
22.655
43.4471
83.0988
45.1513
75.6572
80.6017
226.806
266.766
103.377
299.8
117.388
75.0732
15.4056
17.4049
11.6298
40.202
51.7848
65.4248
34.9149
2.11351
2.61798
6.38041
17.1458
34.9157
27.1
17.7412
0.430119
0.137184
0.719925
7.642
0.896823
5.55214
1.97481
94.3398
68.6451
66.0004
126.148
75.9409
76.5844
119.209
124.487
92.9932
176.919
103.489
198.66
108.011
68.6713
61.1035
53.2187
99.2837
73.9541
69.9688
110.485
32.7313
42.2031
29.0828
84.9911
53.7324
63.2978
67.5461
48.1641
172.513
41.2487
67.6136
55.0063
96.6454
28.8124
5.91529
16.4647
7.37811
29.0865
41.9468
29.261
48.0842
0.453769
2.77129
0.95672
14.1928
9.2648
17.8354
5.3868
0.0220695
0.30001
0.0747215
0.32988
3.87926
1.17618
1.54252
54.8969
228.961
84.2367
123.209
67.0448
185.528
59.1814
37.645
77.2621
80.237
9.63017
135.625
31.2418
18.2744
66.337
60.852
53.0759
30.4457
41.2599
36.1186
49.1982
2.00516e-05
0.00191582
102.456
1.5084e-05
4.00831e-05
9.44241e-06
0.000535676
0.000112864
0.0055127
3.65124
0.813509
115.011
129.437
95.7407
19.9914
16.2748
3.94313e-05
1.83482e-05
2.36733e-06
2.30008e-05
5.81408e-06
4.72078e-06
1.03381e-05
8.38344e-06
1.30588e-06
2.90804e-06
3.90888e-06
2.80729e-06
1.06129e-05
9.30245e-07
8.01282e-06
5.34725e-06
2.97763e-05
5.68361e-05
0.000845743
0.000214654
7.4674e-05
2.62802e-05
0.000353856
0.0466777
0.0094774
0.00235467
0.0552952
0.00427209
0.0934265
0.0249916
0.453625
0.493401
5.67244
1.99535
0.797727
0.242312
3.88245
109.66
69.7134
69.7424
131.745
76.859
76.613
136.243
71.378
58.628
69.5832
88.1906
66.1401
50.8801
61.1881
5.85779e-08
7.72759e-07
1.44899e-05
6.11935e-07
8.20223e-08
4.13931e-08
5.02059e-09
0.592085
0.00230444
0.0584379
0.703331
0.00437521
0.237983
0.000264121
0.000812664
0.000171834
3.66727e-05
0.0118482
0.000195668
0.000111957
1.88592e-05
3.99929e-06
3.7418e-06
2.21347e-07
3.40485e-05
3.33073e-06
2.08525e-06
2.18286e-07
1.3973e-08
1.07501e-08
1.0113e-09
2.77383e-07
1.97128e-08
1.72171e-08
2.42479e-09
13.2478
0.282522
11.0984
0.146071
53.8931
6.25961
0.000369582
16.1762
0.000176197
0.768151
0.0274263
0.000248384
0.000233374
5.28382e-05
0.0137687
5.19615e-06
0.000190164
6.50758e-05
6.5937e-06
5.23728e-06
4.9984e-07
7.90756e-06
5.73759e-07
4.55645e-08
6.08864e-07
4.72935e-08
4.53345e-08
6.26963e-09
1.6956
2.92559
0.220917
0.316934
2.74209
0.20715
1.79836
1.50886
0.272945
1.95036
0.147082
2.40182
0.181207
1.25837
0.706159
1.46267
0.110559
0.105687
0.97794
1.01553
0.0770439
0.476316
0.0651919
0.391409
0.0297419
0.655827
0.0498068
0.299438
0.0883799
0.209678
0.0160815
0.0078949
0.172222
0.0977089
0.00772335
0.0395842
0.00282574
0.0126527
0.00117014
0.038638
0.00320917
0.0150661
0.00114931
0.00339306
0.000317341
5.22141e-05
0.00464925
0.000735636
8.06582e-05
0.000212657
7.37196e-06
1.44748e-05
1.53248e-06
0.000119435
1.25169e-05
2.78592e-05
1.63012
4.36276
0.137207
0.606282
1.40968
5.59796
0.15303
0.388559
0.100211
0.0359746
0.00726456
0.388146
0.0852548
0.0347294
0.00369497
0.0244316
0.000443794
0.00140384
0.0058848
0.0177791
0.000283421
0.000792491
0.000339497
9.8741e-05
1.30081e-05
0.00142471
0.000165663
5.56364e-05
0.000334946
0.000182338
0.00134831
1.11602e-05
2.04672e-05
7.50481e-05
2.53334e-06
4.96574e-06
7.19553e-05
6.41598e-07
2.11288e-06
1.24383e-05
3.0548e-05
5.01264e-07
6.70229e-07
1.25916e-06
2.06459e-07
3.69487e-08
3.93223e-06
2.02261e-07
6.69674e-08
7.32443e-07
1.14463e-05
8.80424e-05
0.0234756
8.91496e-05
7.25677e-05
3.50604e-06
118.329
27.495
0.844761
112.243
160.283
77.9614
76.3655
67.44
0.000541463
5.85267
112.897
18.2182
5.06094
0.13526
0.126966
3.77206e-05
0.00261707
0.779881
0.0207386
0.00266095
0.00010104
8.73064e-05
6.6346e-06
4.34407e-07
0.00189472
1.93828e-05
1.32656e-05
2.24203e-06
0.583183
27.8755
1.03613
0.266191
5.73363
2.97369
0.0626652
0.00523961
0.0029289
0.0233122
0.0429174
0.0760882
0.380984
0.00548018
22.8738
3.85061
16.9122
1.48129
9.80534
2.15722
13.1638
12.3879
33.0793
7.90435
24.4538
13.1103
42.8398
31.6153
0.00197757
0.000132977
4.49305e-05
0.0191963
0.000892337
0.000125078
3.01207e-05
0.000480665
6.34903e-05
1.58438e-05
0.00199857
9.85036e-05
2.79324e-05
7.29519e-06
3.38388e-05
9.48331e-06
1.92215e-06
4.02205e-05
6.86612e-06
1.93712e-06
4.20113e-07
9.05037e-07
2.50155e-07
4.86491e-08
4.78728e-07
7.67178e-08
1.992e-08
5.15435e-09
4.59766e-09
1.09654e-09
3.03036e-10
2.13778e-09
3.52117e-10
2.19126e-10
5.76582e-11
1.78882e-05
6.46079e-07
3.30128e-06
1.98953e-07
7.84701e-07
4.39225e-08
3.09496e-07
1.58533e-08
3.04388e-07
1.35292e-08
0.000118839
4.07523e-05
9.11315e-06
5.2298e-06
6.44749e-06
0.000224428
1.42019e-06
7.63029e-08
3.62785e-09
3.40091e-06
1.75295e-07
8.10352e-09
3.65592e-10
2.26784e-06
1.84164e-07
9.90866e-09
5.08514e-10
2.38137e-11
9.92188e-08
7.5557e-09
4.72224e-10
2.56994e-11
1.19641e-12
3.41648e-09
2.89659e-10
1.93025e-11
1.0709e-12
3.11654e-14
399.32
517.85
357.197
143.875
584.567
417.112
159.298
691.751
190.272
253.34
465.542
79.3474
37.4449
549.798
380.367
2.88487
642.431
175.849
241.208
228.413
354.42
76.1005
0.0818652
477.679
293.335
0.0320898
530.373
197.597
113.38
98.9016
293.106
183.911
0.183836
5.48565e-05
485.914
325.193
88.8117
3.6902e-05
521.977
360.747
11.0544
0.298087
0.0260515
3.12323e-06
291.689
225.276
42.4913
0.0161731
5.91915e-07
307.283
2.03659
0.000243179
6.94113e-06
3.98141e-07
143.24
19.6512
6.08391e-06
1.33771e-06
8.48989e-08
0.000196415
5.4479e-06
5.57682e-07
2.6361e-08
0.634558
0.00358727
2.09516e-06
1.21556e-07
5.9082e-09
3.10346e-05
1.20702e-06
1.01719e-07
6.50819e-09
3.43479e-10
719.796
694.404
464.332
669.835
443.704
575.397
441.852
644.355
423.596
750.757
717.549
360.154
661.097
344.474
190.563
678.771
608.645
698.184
616.198
334.381
563.534
292.754
161.189
512.922
575.448
549.463
517.625
574.565
449.333
348.858
526.666
365.612
377.35
214.799
404.067
290.444
581.568
573.704
453.561
273.867
408.816
503.387
556.382
388.893
422.465
431.674
374.661
369.894
523.75
400.496
291.789
159.754
345.992
225.174
150.839
355.837
195.378
107.651
4.59445
177.67
78.9145
560.948
459.534
382.157
403.497
348.038
230.192
185.759
320.825
193.715
254.936
630.279
688.53
627.102
428.035
628.986
409.661
499.029
374.954
559.502
350.042
584.094
619.743
561.978
477.955
493.797
444.004
482.533
468.701
429.344
316.14
309.47
263.768
234.982
346.481
292.188
189.945
176.645
241.693
149.033
84.5337
264.637
188.778
50.4332
0.480684
116.734
51.5744
0.211801
104.472
27.1003
0.0519634
0.000205571
7.57375
0.000469562
291.987
233.682
700.879
717.099
698.082
706.873
675.565
687.854
604.748
655.031
610.635
666.954
651.956
607.903
608.109
595.118
656.784
630.261
587.023
642.337
598.406
583.028
746.861
733.537
676.249
602.078
615.974
90.6985
352.491
438.282
151.328
447.896
152.683
90.4105
661.203
659.926
644.735
637.05
597.865
624.233
674.871
647.501
89.7819
425.89
149.643
322.734
90.123
411.258
147.535
593.445
508.834
536.878
573.549
565.145
622.336
537.531
611.483
526.847
583.42
573.564
623.379
563.376
535.384
611.499
583.049
526.085
530.127
495.245
436.948
493.112
483.761
539.974
482.843
428.789
516.81
471.909
489.692
466.321
478.706
436.049
387.85
448.771
391.044
353.2
436.591
396.319
343.617
627.014
542.875
586.426
624.538
533.83
583.322
500.233
493.835
541.777
84.5137
353.651
135.291
252.036
87.0965
328.53
127.721
453.363
363.412
406.022
509.742
541.529
579.571
501.6
561.847
488.676
524.139
472.092
430.018
415.038
483.01
414.909
455.295
442.344
371.482
396.903
432.941
465.034
395.725
424.014
513.01
485.374
470.533
476.191
460.357
432.954
380.846
387.531
443.725
348.548
432.955
335.491
391.633
368.088
412.764
341.574
310.865
404.229
376.435
304.451
324.853
291.786
212.733
269.945
278.806
335.301
260.602
242.019
342.407
306.544
303.838
295.572
290.095
254.538
180.266
245.565
163.126
129.233
231.179
194.797
113.888
597.303
506.665
540.51
436.433
506.462
447.182
411.327
478.118
443.158
351.061
390.266
411.553
310.532
373.187
295.506
271.398
334.858
252.605
138.061
204.367
168.908
333.039
123.09
247.769
126.294
260.033
160.537
274.914
91.5947
457.068
155.364
358.597
455.431
154.378
92.4658
89.4513
308.875
375.586
140.77
394.697
144.708
88.6778
401.866
545.056
442.798
486.507
386.85
533.806
419.047
248.951
308.475
257.363
393.708
220.529
299.46
248.657
201.883
278.399
180.213
323.892
119.003
247.63
126.73
388.906
470.159
370.042
347.285
432.729
407.163
197.103
408.052
318.717
228.854
116.847
341.921
179.778
84.8979
236.209
102.103
147.741
4.51385
206.565
18.3261
219.501
412.648
330.504
164.928
105.34
260.31
121.634
37.7089
287.071
115.153
72.4047
1.96221
72.734
0.959791
0.390953
77.4833
3.78374
0.373775
0.00014588
7.9286
0.00162338
615.793
572.699
610.599
568.145
598.917
554.499
550.296
587.839
549.875
504.035
577.365
531.724
499.226
527.272
352.514
481.135
404.173
388.819
268.37
459.672
345.889
3.6545e-05
0.0273474
0.000102955
4.43297e-05
4.72303e-06
7.36066e-05
4.14738e-06
86.0613
49.262
0.0162243
6.01663e-06
3.84684e-07
613.154
721.227
662.355
736.323
932.917
528.035
347.004
634.257
574.078
779.323
685.66
855.026
324.118
521.062
463.382
648.287
613.971
719.51
222.774
428.053
497.778
117.686
142.379
215.266
0.721772
45.6144
0.000103839
4.17021e-06
4.41268e-07
2.75169e-08
1.45216e-09
0.00478669
1.42263e-06
2.06906e-07
1.81759e-08
1.25068e-09
7.13657e-11
3.16122e-06
4.78186e-07
5.40317e-08
4.62857e-09
3.12013e-10
1.72443e-11
5.85041e-08
7.53379e-09
6.98425e-10
5.08411e-11
2.99515e-12
1.18014e-07
1.90921e-08
2.14229e-09
1.85456e-10
1.28903e-11
7.03828e-13
839.2
905.115
803.145
777.955
872.412
624.11
857.349
704.455
613.58
827.014
1002.07
942.3
881.327
714.052
854.269
719.519
642.488
785.526
585.549
811.174
637.165
533.189
743.914
912.569
809.539
759.927
634.473
750.248
543.186
594.183
608.867
709.705
766.369
613.583
868.183
924.956
861.776
1036.9
999.544
801.091
826.186
775.349
862.792
806.099
673.208
673.736
630.195
628.8
569.88
235.451
898.754
862.218
953.174
901.975
861.343
949.84
899.218
922.872
964.032
982.351
908.334
886.424
888.399
837.676
918.62
850.036
935.001
873.355
783.631
824.063
810.498
854.011
822.734
807.374
785.432
742.196
765.167
762.291
744.485
773.411
841.445
800.542
783.135
812.386
795.902
761.231
731.813
739.977
751.779
718.752
1074.69
992.579
1063.7
1073.84
1107.96
969.482
1006.74
1037.37
808.054
803.03
904.984
824.221
844.536
770.196
787.975
873.526
944.374
891.654
921.352
842.056
823.556
899.266
834.39
858.522
806.89
876.4
852.381
859.509
893.485
822.887
821.707
812.59
761.42
824.201
786.514
852.475
795.446
729.001
786.24
769.036
793.495
746.073
769.07
751.102
687.352
725.059
703.924
706.266
708.614
771.403
723.897
700.633
748.363
728.267
684.484
667.496
655.705
683.548
642.806
973.326
879.865
937.765
914.55
959.856
846.44
860.611
901.361
749.426
725.168
794.908
711.634
745.505
663.44
696.265
732.803
816.955
782.799
765.335
715.092
728.776
786.881
707.438
759.536
688.185
740.728
678.702
651.629
708.869
625.538
665.39
659.537
592.642
634.598
641.901
689.122
613.626
617.155
693.45
667.049
669.085
654.529
655.643
627.496
813.939
717.772
762.119
687.3
746.853
666.083
652.411
707.665
524.374
596.316
574.563
541.566
683.64
785.598
765.885
703.019
619.743
759.476
739.555
554.766
710.756
583.332
601.579
520.291
671.325
570.406
592.312
729.264
674.297
574.216
510.48
629.651
597.358
497.85
649.827
514.831
493.104
420.991
521.825
492.321
480.758
567.145
536.596
478.239
394.36
516.274
504.595
494.314
326.549
448.269
433.271
302.683
236.821
371.986
327.254
267.317
101.808
11.962
0.00273412
0.00140098
1.82261e-05
7.13856e-06
1.18155e-06
5.19175e-07
250.476
126.291
122.451
188.073
175.479
124.8
66.4265
67.1755
144.633
79.849
78.9269
145.937
119.215
68.021
69.0499
142.608
77.3635
78.0742
139.827
499.141
484.924
531.825
280.206
222.843
182.263
355.76
132.492
176.048
344.682
129.194
270.782
872.529
1230.73
1103.49
912.623
656.201
1054.25
1010.11
1143.56
987.999
893.811
970.97
842.357
665.147
716.713
508.826
619.943
420.346
447.526
610.054
679.998
481.011
1150.77
1215.69
1137.99
1063.94
847.955
597.214
329.503
304.151
241.112
936.729
977.317
1003.11
1049.83
976.693
999.219
937.199
1031.16
942.905
960.185
1181.65
923.569
964.216
902.466
934.307
841.528
876.762
1020.79
794.157
784.184
737.929
723.895
629.844
681.873
781.43
547.617
585.301
628.1
568.681
589.426
541.207
579.717
503.113
513.6
443.062
462.139
494.822
527.119
453.617
581.354
556.557
534.273
701.173
619.805
641.277
554.255
501.35
576.254
866.517
1106.3
846.112
1056.84
1314.79
1216.62
796.191
1031.7
727.496
922.427
1173.5
1027.57
652.838
862.368
551.847
673.717
959.361
742.15
1061.55
1019.31
1159.9
1101.2
1018.6
1154.05
1061.85
1038.16
1080.5
976.794
1103.88
998.664
1131.01
1010.23
1404.68
1297.04
1383.51
1258.91
1293.34
1340.82
948.52
954.152
1075.78
1004.45
982.852
927.604
1043.13
905.297
969.744
850.441
942.635
893.813
1000.12
852.969
1247.41
1130.48
1199.8
1083.51
1080.52
1147.29
733.493
795.457
873.461
796.932
792.037
736.434
802.812
680.435
732.941
630.951
679.057
681.223
737.193
632.795
999.606
884.554
914.864
809.896
764.258
835.658
208.375
192.56
136.242
288.387
140.391
295.477
187.76
575.448
439.762
487.968
615.049
554.753
490.694
573.354
401.193
408.541
446.34
505.254
464.006
460.766
375.295
544.392
587.534
557.432
561.727
533.261
574.545
546.927
513.228
500.748
526.24
472.054
501.691
515.915
486.301
731.45
693.237
704.134
724.898
698.195
701.141
722.017
539.195
516.391
464.332
505.796
542.624
649.988
583.883
874.144
937.444
934.963
967.732
880.218
892.902
961.657
586.74
603.39
576.934
600.187
571.052
587.946
561.039
527.217
516.57
546.82
513.181
539.463
530.465
500.593
467.013
479.952
459.674
447.025
461.332
424.422
439.153
678.046
655.687
680.68
692.896
645.018
669.231
670.002
787.607
799.189
805.823
756.456
765.29
753.894
751.033
913.673
821.15
889.878
941.786
837.076
864.849
913.354
484.961
490.507
467.804
492.168
472.094
475.306
453.185
658.943
606.219
631.068
620.968
622.516
646.528
596.591
209.861
294.168
258.874
373.878
272.178
414.366
307.889
598.964
545.061
567.882
590.413
536.012
566.463
559.694
712.587
695.864
699.665
675.508
691.862
693.453
715.129
776.496
735.705
753.522
712.968
738.23
723.132
700.857
425.299
415.134
438.885
376.79
401.596
416.605
392.09
825.692
826.672
871.852
848.341
852.02
905.232
904.774
602.244
626.11
614.601
585.896
574.316
586.743
598.633
545.664
501.006
518.265
542.217
559.176
532.67
516.027
509.089
437.018
420.271
481.987
400.407
473.319
555.459
541.146
500.019
518.376
504.542
508.63
530.551
484.489
865.067
765.12
834.709
773.778
849.069
810.79
886.171
471.59
456.697
488.218
503.225
456.452
487.388
472.211
764.72
740.592
737.625
736.943
718.445
713.879
738.392
680.756
644.897
633.665
641.833
658.637
664.799
657.585
797.092
689.444
757.042
691.422
731.103
760.346
805.056
440.746
420.883
445.135
427.923
451.382
430.696
406.445
853.683
825.69
884.27
803.688
864.387
783.622
836.541
690.149
662.51
701.595
713.363
687.476
650.701
676.234
589.305
548.212
564.049
557.022
573.298
547.558
531.411
621.707
638.485
610.196
638.114
626.283
598.311
610.238
318.659
297.677
387.703
365.694
442.93
348.829
322.106
668.128
596.703
633.572
624.837
657.22
619.823
588.41
667.802
713.077
618.027
622.991
655.748
671.44
714.407
520.242
504.914
535.215
518.466
473.079
503.179
487.858
427.968
425.682
443.799
379.534
402.055
418.103
396.744
179.541
151.148
199.948
282.228
181.876
262.44
136.777
570.851
553.381
584.024
518.257
547.812
561.117
532.518
637.184
633.558
676.17
652.148
622.955
667.825
646.145
697.354
715.781
719.798
707.778
667.494
688.255
686.137
607.048
608.404
614.947
567.539