/*--------------------------------*- C++ -*----------------------------------*\
  =========                 |
  \\      /  F ield         | OpenFOAM: The Open Source CFD Toolbox
   \\    /   O peration     | Website:  https://openfoam.org
    \\  /    A nd           | Version:  9
     \\/     M anipulation  |
\*---------------------------------------------------------------------------*/
FoamFile
{
    format      ascii;
    class       volScalarField;
    location    "0.00265";
    object      overpressure;
}
// * * * * * * * * * * * * * * * * * * * * * * * * * * * * * * * * * * * * * //

dimensions      [1 -1 -2 0 0 0 0];

internalField   nonuniform List<scalar> 
22339
(
191107
0.176101
0.0501955
0.00518784
0.000194814
0.73999
0.0127319
0.00115124
6.44577
36495.4
4535.51
165562
121950
4.90481
120.704
35097.4
689.811
16.9082
21.6514
23738.5
565.885
767.644
54307.5
114423
60710.6
89766.7
121418
97749.8
49495.1
44823.1
11489.6
17170.3
58839.3
30177.2
41113.5
46835.8
1943.77
176.925
208.497
1003.07
284.17
1341
1595.47
9783.08
7187.48
27529.6
40644.9
7734.23
10269.4
27123.1
65291.2
23797.3
31996.2
74248.9
73378.6
55401.9
93764.3
131.192
17493.9
17833.1
5182.3
108158
89689.1
115655
60176.9
161826
187496
221935
134100
225688
111235
82976.8
87532.1
101593
83689.6
78083.8
109016
100185
227495
110343
245084
95084.4
197368
184819
150990
154935
1.22506
0.0111724
0.080459
18.0434
473.898
5.81506
0.73035
0.00595064
0.0043352
0.0851987
0.0883038
0.00310045
0.0481889
0.00197369
0.00027498
0.0025618
0.00139498
0.000121912
0.00532462
0.000234709
1.74435e-05
7.00986e-05
3.64606e-05
4.1036e-06
0.000318091
1.74381e-05
1.10255e-06
1.75468e-06
8.2278e-07
1.18176e-07
1.83467e-05
1.11923e-06
6.55418e-08
4.06435e-08
1.71276e-08
2.96859e-09
9.40869e-07
5.97502e-08
3.33239e-09
8.14907e-10
3.0559e-10
0
163325
28.7554
0.564245
0.00467117
0.0349778
8.5796
192.772
0.725057
0.24406
0.00281778
0.00139025
0.0314037
0.0217408
0.00138771
0.0120509
0.000754951
9.29474e-05
0.000897682
0.000450373
5.48081e-05
0.00147231
8.45969e-05
6.28991e-06
2.30841e-05
1.03038e-05
1.6721e-06
0.000108711
6.65575e-06
4.0936e-07
5.43703e-07
2.32511e-07
4.34084e-08
6.89445e-06
4.33021e-07
2.50438e-08
1.2049e-08
4.68572e-09
9.31323e-10
3.60043e-07
2.30066e-08
1.26602e-09
1.89175e-10
4.36557e-11
0
122117
0.553541
0.00271077
0.00335983
1.9383
14.4205
0.0367695
0.0227596
0.00128176
0.000164714
0.00432172
0.00183313
0.00037706
0.00438205
0.000244131
1.58568e-05
9.81953e-05
4.26877e-05
8.51533e-06
0.000393022
2.22829e-05
1.31717e-06
2.07087e-06
9.22693e-07
2.12807e-07
2.58359e-05
1.56589e-06
8.79081e-08
4.28408e-08
1.88884e-08
5.19503e-09
1.49349e-06
9.39763e-08
5.23869e-09
8.87667e-10
3.20142e-10
5.82077e-11
7.32689e-08
4.68572e-09
2.03727e-10
0
0
0
1137.78
0.0162629
0.973023
0.0108376
0.0319974
0.0774113
0.000676264
0.200066
0.0188629
0.000595285
0.000105266
5.67038e-05
2.06665e-05
0.00706487
0.000808024
3.3685e-05
3.45072e-06
1.40198e-06
5.55054e-07
0.000404108
3.47359e-05
1.6461e-06
1.18307e-07
3.32075e-08
1.35915e-08
1.87495e-05
1.42408e-06
7.25413e-08
4.19095e-09
7.13044e-10
2.61934e-10
7.75181e-07
5.59521e-08
2.91038e-09
1.01863e-10
0
0
2.8449e-08
1.94996e-09
1.45519e-11
0
0
0
171643
39582
168.357
0.0264944
0.000540366
42121.6
671.462
1.23819
0.00358982
0.000499271
2.05696e-05
2.72039
0.132295
0.0020707
5.15934e-05
1.92881e-06
6.966e-07
0.00927107
0.00196414
8.85838e-05
3.11313e-06
1.2471e-07
2.16824e-08
0.000482286
7.21647e-05
3.55519e-06
1.47629e-07
5.96629e-09
6.1118e-10
2.26777e-05
2.5412e-06
1.37108e-07
6.06815e-09
1.89175e-10
0
9.34451e-07
8.90141e-08
4.91855e-09
1.60071e-10
0
0
3.27709e-08
2.75031e-09
1.01863e-10
0
0
0
188723
506.206
0.646109
0.00734665
0.000235395
1.75317e-05
1.16035
46.9924
0.0262573
0.000467336
1.41779e-05
9.20409e-07
0.0930464
0.00712076
0.00061577
2.23484e-05
8.26069e-07
4.39322e-08
0.00251296
0.000371519
2.55532e-05
1.14401e-06
4.43688e-08
1.9354e-09
0.000141214
1.69126e-05
1.10021e-06
5.26052e-08
2.05182e-09
0
6.501e-06
6.92395e-07
4.43688e-08
2.13913e-09
0
0
2.65762e-07
2.61207e-08
1.62981e-09
0
0
0
9.35688e-09
8.44011e-10
0
0
0
0
0.604256
0.171705
0.0095745
0.000376414
1.66765e-05
8.80405e-07
0.111007
0.0109185
0.000763072
3.11428e-05
1.54987e-06
6.69097e-08
0.00483018
0.000561357
3.99533e-05
2.03066e-06
9.6421e-08
4.13274e-09
0.000269711
3.00326e-05
2.0833e-06
1.10493e-07
5.12227e-09
1.74623e-10
1.34928e-05
1.43316e-06
9.77598e-08
5.26779e-09
2.03727e-10
0
6.06145e-07
6.16274e-08
4.13274e-09
1.60071e-10
0
0
2.50584e-08
2.37196e-09
1.01863e-10
0
0
0
8.44011e-10
0
0
0
0
0
0.00824529
0.00361814
0.000369966
1.86667e-05
1.00529e-06
5.09899e-08
0.00339609
0.000421179
3.20934e-05
1.7517e-06
9.14588e-08
4.19095e-09
0.000266482
2.9362e-05
2.14871e-06
1.22513e-07
6.17001e-09
2.32831e-10
1.59402e-05
1.70594e-06
1.22251e-07
7.01402e-09
2.76486e-10
0
8.27626e-07
8.58126e-08
6.0536e-09
2.76486e-10
0
0
3.87226e-08
3.79805e-09
2.32831e-10
0
0
0
1.62981e-09
8.73115e-11
0
0
0
0
0
0
0
0
0
0
0.00104287
0.000150487
1.3874e-05
8.97504e-07
5.28671e-08
2.6921e-09
0.000150054
1.76688e-05
1.38712e-06
8.53615e-08
4.71482e-09
1.74623e-10
1.21335e-05
1.33332e-06
1.00626e-07
6.09725e-09
2.47383e-10
0
7.65678e-07
8.13598e-08
6.00994e-09
3.0559e-10
0
0
4.17349e-08
4.19095e-09
2.47383e-10
0
0
0
1.97906e-09
1.16415e-10
0
0
0
0
0
0
0
0
0
0
0
0
0
0
0
0
4.30639e-05
5.73567e-06
5.25732e-07
3.76167e-08
2.2701e-09
1.45519e-11
5.65975e-06
6.62214e-07
5.40022e-08
3.55067e-09
1.45519e-10
0
4.73039e-07
5.22705e-08
4.10364e-09
2.03727e-10
0
0
3.14467e-08
3.31784e-09
2.03727e-10
0
0
0
1.71713e-09
1.01863e-10
0
0
0
0
0
0
0
0
0
0
0
0
0
0
0
0
0
0
0
0
0
0
0.98953
0.0229388
0.647166
0.0222147
0.00500707
0.00252622
0.00465084
0.00160784
0.0216591
13.018
0.0137254
8.43533
68432.2
98.5325
3870.13
70330.2
66.4972
2555.06
249044
4715.32
553.247
154531
244178
2948.67
250.342
0.124678
1.23419
0.113647
0.928627
0.0941425
0.904082
0.0869004
0.00553081
0.010348
0.0024767
0.00837438
0.00423096
0.00781101
0.00196952
1.37155
0.00940898
0.126132
0.0650715
1.11377
0.00727718
0.103044
441.746
0.996372
2.95689
11.9147
281.314
0.860808
2.1906
0.456089
0.0125937
0.00513938
0.00258651
0.000935556
0.00101992
0.00019376
0.00863119
6.21134
0.00171053
1.47478
75525
50.3548
1915.63
75704.8
13.4386
513.103
175231
2104.62
139.356
192050
31822.6
427.238
9.5431
0.0570622
0.474973
0.0473769
0.0267814
0.246661
0.023446
0.00213204
0.00415399
0.000967632
0.00210484
0.000768593
0.00196796
0.000472306
0.63589
0.00362634
0.0570337
0.0140316
0.354909
0.00132848
0.0256914
204.401
0.543624
1.21126
3.72761
46.5582
0.399759
0.551858
0.00252253
0.36361
0.000675763
7.88196e-05
0.108749
0.00210474
0.000620262
0.754465
0.00039385
0.0362075
99629.7
7.1773
272.97
57119.2
0.424002
16.6839
9274.2
200.389
3.12718
24177.8
81.3149
8.14974
0.435821
0.0226954
0.105064
0.0111503
0.240976
0.197584
0.0468199
0.000479052
0.0011818
0.000215825
0.0442607
0.00583727
0.00866128
0.00122602
0.0916963
0.000292571
0.00568549
0.000924234
0.0123479
0.000165946
0.000950243
22.282
0.110415
0.227941
0.37216
1.65835
0.0191589
0.0950001
4.17827
4370.65
1.26115
0.0250865
1580.09
34.6826
0.0044862
0.00943064
7.33149
0.0746805
10653.5
0.117938
4.38661
93.7017
0.0148801
0.0313519
11.9003
1.85234
0.254234
19.8361
0.393328
0.202489
0.0253149
5.14375
2.13406
0.497609
1658.18
18.9285
22.5031
0.143259
0.0940754
0.018201
202.987
3.52176
0.886966
0.187726
0.00176297
0.00175441
0.000162664
0.279828
0.0155049
0.0159454
0.00093214
0.191174
0.00144385
0.00682914
0.00192057
0.00807906
0.000102415
0.000304358
157465
6395.51
140.32
216646
83599.3
2428.04
14.302
2469.69
34.5884
0.455074
2824.61
69.7844
2.78643
0.8709
0.793101
0.0970442
0.00309466
2.06136
0.150364
0.0847303
0.00717364
376124
34990.3
427.746
469102
0.437544
319683
519497
0.393317
0.00376782
141750
2952.57
1.53888
0.0571762
0.00384586
0.000211096
238869
6817.78
0.0531091
0.00354735
0.000201938
1.04734e-05
45.6005
0.0992707
0.00175607
0.000151889
1.00128e-05
5.29515e-07
0.00476704
0.000721423
8.6465e-05
7.13328e-06
4.79064e-07
2.64845e-08
0.000183592
3.12819e-05
3.5454e-06
2.96757e-07
2.06346e-08
1.09139e-09
21334.8
25882
220994
98052.8
230489
233732
168262
245303
39607.2
59287.3
344126
144342
285947
436511
191313
377117
163121
347500
163155
461964
261151
354247
334749
205774
299815
260973
400920
90680.4
406040
1401.6
50772.6
16360.3
143.974
119796
35.9303
266.391
0.31668
82723.8
110700
139512
205921
191237
339879
167425
214911
490090
165297
28596
377074
358926
28965.7
743.26
124575
2334.14
11.6117
116580
14.4296
23.406
0.192927
199104
123285
63791.5
138097
176015
131463
140579
110342
119198
89952.5
141721
9552.71
40131.5
12903.5
842.359
4481.86
1229.56
3662.57
34.6015
404.521
101.918
2.14192
27.6073
6.09316
11.4886
0.126252
0.686979
0.279726
0.934496
0.642692
0.261344
0.135678
0.0256076
0.00694429
0.0648893
0.0219094
0.00663543
0.0614321
0.0273855
0.108002
0.781992
0.422993
0.181569
0.542584
0.231939
0.0825126
0.0212677
0.0241438
0.00570451
0.0413267
0.0066596
0.0498887
0.0165456
0.000462413
0.00156713
0.00182622
0.00489576
0.00151819
0.00173212
0.00048664
0.000361378
0.00267688
0.00100055
0.00240263
0.00248376
0.000940183
0.000388044
0.000432653
0.00486129
0.00132426
0.00132261
0.00149046
0.00159724
0.000353752
0.000307571
0.00191001
0.00155616
0.000607437
0.0020436
0.000799083
0.000234677
0.261759
0.027959
0.166844
0.0203964
0.0259379
0.154471
0.281786
2.57617
24.477
1.42626
12.1524
22.9388
1.33169
2.7614
0.223223
0.0168334
0.0167556
0.101143
0.0217519
0.131073
0.174262
2.22636
10.5502
16.3496
0.909339
20.0973
1.14294
1.77495
68720.9
113809
114342
53374.4
84265.3
82593.2
54663.7
1607.95
211.319
628.039
92.6374
198.816
592.378
1703.6
116343
72904.3
119624
51413.2
76325.3
80007.2
48711.9
1447.01
81.3625
146.634
437.475
176.487
525.975
1232.3
0.0372205
0.292298
0.148681
0.0596324
0.098397
0.00768468
0.00338005
0.0304511
0.00760638
0.0116365
0.00199455
0.0230124
0.00455165
0.00594733
0.00104773
0.00906608
0.00139779
0.0135603
0.00279801
0.000134895
0.000783313
0.000907812
0.00169767
0.000232411
0.000466585
0.000558812
8.89474e-05
0.00100845
0.00042703
0.000683479
0.000155533
0.000620174
0.000241745
8.69782e-05
0.00107544
0.000245187
0.000271931
0.000299727
0.000365088
6.02376e-05
5.13616e-05
0.000302476
0.000159408
7.75678e-05
0.000321125
0.000148763
2.89506e-05
0.0800879
0.0113645
0.0696662
0.00603678
0.123507
0.00718709
0.0447414
0.875004
12.3203
0.64375
4.22783
1.29883
8.60548
0.432575
0.0470369
0.00290277
0.00202033
0.0129384
0.00393832
0.025178
0.025024
0.540529
2.60934
3.3315
0.140846
5.58315
0.25291
0.304204
122760
76919.4
124175
39792.2
71011.2
44878.6
62860.5
732.356
113.486
339.369
35.2867
985.198
81.7892
245.202
121597
113424
71075.6
33490.2
39127.9
51834.7
26305.1
508.544
22.5832
34.5509
103.246
55.1462
165.451
330.603
0.0127139
0.000748845
0.00691547
0.00687521
0.00250808
0.00413277
0.0154588
0.146806
0.0484718
0.617435
1.08355
0.0492932
0.114893
1.78135
0.000305545
0.000196118
0.000210652
0.00153884
5.36076e-05
0.0011229
0.000634189
7.12034e-05
6.52067e-05
6.44542e-05
9.43807e-05
2.0148e-05
4.38037e-05
0.000141874
0.00375559
0.012645
0.187359
0.0317658
0.014116
0.00440356
0.0511817
0.000884427
0.000334401
0.00279393
0.00737269
0.000205415
0.00104583
0.0123897
0.00474504
0.000868089
0.00576406
0.000329811
0.0117083
0.000338297
0.00227704
0.0661897
1.79062
0.0647125
0.324379
0.152508
0.842639
0.0276173
0.00161951
0.000132885
0.00057449
0.00035367
0.000147782
0.000737927
0.000593269
0.0242707
0.122081
0.110416
0.00288472
0.334878
0.00920739
0.00737508
81181.6
63019.9
51642.5
11474.3
26140.7
18591.9
14867.6
108.755
19.9075
59.22
3.37391
199.204
10.1338
29.8882
30306.7
37719.8
22647.5
5890.59
2742.31
6904.75
2642.14
51.6984
1.32159
1.58258
4.62854
4.42141
12.7961
20.3773
236.201
8.0216
11.7554
46.8005
21.6258
97.2993
125.109
2264.8
489.816
11078.8
9933.24
1080.72
1208.46
18585.4
9.80013
2.57925
0.375894
15.6881
0.729421
32.9786
4.37851
2.59579
0.0422252
0.0900867
0.258823
0.183505
0.62341
1.121
131.332
168.262
4987.27
490.379
415.149
50.2767
1683.7
36.8742
3.16218
131.336
137.09
9.25016
13.2568
494.2
0.0282866
0.00863236
0.00131053
0.0519235
0.00187585
0.136629
0.0102176
0.00620185
0.029644
0.000939541
0.00237534
0.0022466
0.00795699
0.002069
0.480762
0.653216
32.0138
1.61596
2.16004
0.13567
7.56899
0.104815
0.00597134
0.416327
0.351415
0.0237098
0.0275993
1.77808
2918.01
3665.48
10852
310.734
861.745
1020.57
219.623
1.64344
0.45877
1.29365
0.0261164
6.42777
0.109343
0.311309
625.691
194.199
989.667
74.0794
5.96295
43.1475
12.4655
0.317076
0.00531872
0.0917586
0.00836654
0.0239087
0.0535347
0.0564315
104409
124595
85656.5
56100.7
16073
47780.4
15665.7
670.966
3997.96
1316.15
203.355
103.63
354.627
50.4137
129274
31014.7
51753.3
191376
101086
287541
382649
137659
339791
169229
390109
256459
79218
507964
209901
388578
166619
252634
180021
22511.8
83958.5
85980.2
-23178.4
36736.2
38307.9
-23756.1
90571.8
31782
98545.7
-21156.7
48235.1
41637
-17018.2
109377
48890.7
122284
-3346.81
57538.8
-11132.9
69657.8
136473
150910
70631.7
6441.99
103931
84866.9
18747.2
169274
83072.1
94004.7
50891.6
127013
33556.5
153421
58866.3
304403
350873
210532
307369
163769
83029
137279
96474
86122.2
72813.8
219952
184809
98883.4
36190.9
34695
62272
127307
232311
123505
188273
8460.84
2768.66
11974.7
91162
19877.2
92327.9
35075.9
105990
26626.1
45162.4
63790.7
11846
2066.69
79879.2
165254
104654
286710
76008.6
235959
210169
177665
72109.5
105278
136226
26710.2
49715.8
102662
207316
136293
150601
178791
117114
82021.5
221260
299805
442406
214574
428358
196572
422268
265797
87564.5
130627
83029.8
230202
147038
159574
246088
8362.15
38684.3
14932.8
166081
101665
142704
84937.3
527.224
5340.97
1580.51
7449.8
56538.4
22164.9
30157.5
171314
402965
272764
468971
119308
467693
322156
213320
511516
555157
158808
535748
296625
189748
151263
80538.3
107972
130963
127363
153101
150208
0.167721
20.8562
98841
0.137225
0.308691
0.0868747
6.53794
1.02099
62.6959
27361.1
8897.28
54274
83302.7
78909.4
107176
129718
0.330967
0.186254
0.0230581
0.201508
0.0599594
0.0426246
0.10604
0.0710418
0.0130542
0.0391724
0.0412018
0.0255924
0.111632
0.00989961
0.100806
0.0577058
0.401231
0.687577
9.86053
2.81823
0.94101
0.329382
4.4905
482.937
99.7915
29.0924
570.618
49.8684
852.798
286.799
3919.01
4536.35
26673.6
18188
5824.32
2524.5
24172.4
66366.2
14215.5
6384.14
50638.7
-12613.7
-5513.9
39197.9
116152
93644.6
42983.8
97742.9
58461.4
113448
136444
0.00115053
0.0160856
0.290445
0.0131002
0.00159823
0.000813409
9.24259e-05
7704.29
35.4901
814.895
9741.85
65.4332
3978.95
1.39765
12.4049
1.26523
0.395146
218.387
1.81738
1.0634
0.227703
0.075352
0.0587606
0.00394087
0.413216
0.0559966
0.0284913
0.00323448
0.000318802
0.000206849
2.01434e-05
0.00457925
0.000359768
0.00027506
3.52671e-05
141779
5397.97
137613
2930.23
238399
88045
5.51916
174825
1.82945
15890.6
535.895
2.61667
1.73524
0.711835
312.942
0.0814366
5.46602
0.850735
0.10363
0.0787083
0.00739379
0.120086
0.00980923
0.000648754
0.0094326
0.000832005
0.000701022
8.28001e-05
15825.2
29488.5
2301.91
3621.45
27984.6
2169.27
16621.6
14406
3157.2
21352.3
1598.74
25242.1
1923.99
12420.4
7617.78
16627.9
1239.75
1333.79
10101.9
11950.2
894.452
5297.01
863.42
4971.85
376.513
7928.43
601.516
3461.03
1152.11
2858.29
214.31
126.416
2101.04
1439.63
109.061
553.7
48.6905
220.17
19.1898
619.432
49.105
232.728
21.9188
64.03
5.84518
1.11202
79.8924
15.2795
1.64747
4.64699
0.173577
0.370726
0.039451
2.8081
0.291086
0.69414
24419.1
48093
1965.3
8949.43
19228.6
65740.5
2403.29
6175
1530.94
542.178
128.53
5522.3
1444.29
580.317
69.7668
399.038
8.14551
26.21
101.945
319.419
5.39217
15.912
6.95143
1.95878
0.274788
26.571
3.60879
1.14411
9.03052
5.04256
34.6678
0.31154
0.560528
2.0091
0.0646541
0.129662
1.65081
0.0172536
0.0490433
0.32513
0.745762
0.0115284
0.018719
0.034578
0.00580273
0.000830036
0.108932
0.00486753
0.00160743
0.0144399
0.242271
1.93371
681.385
2.30781
1.81755
0.059859
153756
217041
16335.5
212400
205257
278210
291422
276603
9.67144
98705.7
299440
216072
85156.1
2822.75
2807.43
0.509746
60.6934
16947.5
484.042
58.5764
1.49759
1.68454
0.111061
0.00599032
50.4937
0.167542
0.236744
0.023152
15085.7
377346
26794.5
7373.65
108397
74364.4
1725.33
137.564
78.5143
568.455
1116.47
1965.33
8699.07
152.039
124162
39822.9
93672.8
18390.1
77143.2
29359
105502
92955.3
127780
62510.3
97745.1
76843.2
123726
94792.5
38.8932
0.957153
0.532538
280.522
17.233
1.57371
0.347027
9.40481
0.682608
0.174566
34.3854
1.05325
0.299216
0.0934202
0.496606
0.115904
0.0274757
0.656121
0.0985079
0.0297708
0.00669552
0.014115
0.00403689
0.000844859
0.00821089
0.00140905
0.000359246
9.07552e-05
9.12859e-05
2.175e-05
5.79571e-06
4.18946e-05
6.38998e-06
3.47481e-06
9.39021e-07
0.285057
0.00618041
0.0285085
0.00162284
0.00624846
0.000385598
0.0022958
0.000132318
0.00244299
0.000105904
1.03292
0.340225
0.0717555
0.0351386
0.0464765
2.11294
0.0104557
0.000563329
2.82637e-05
0.0227162
0.00172682
7.15357e-05
3.28731e-06
0.0135454
0.00189066
9.16653e-05
4.71016e-06
2.30662e-07
0.000964436
7.02984e-05
4.40677e-06
2.50526e-07
1.26456e-08
3.06877e-05
2.6749e-06
1.86934e-07
1.11613e-08
4.80213e-10
274588
207472
327556
438704
201470
305679
398835
170918
97668.7
377412
233668
368900
296261
225993
359451
65385.9
203666
134438
150572
189215
396789
383894
1862.1
316678
553160
823.666
301324
296216
229863
256501
452976
394589
3611.31
0.619269
289799
575534
739530
0.644877
286525
434602
126213
5347.43
492.983
0.0279852
296469
598948
554721
531.233
0.00519534
139367
34301.4
1.40121
0.0488629
0.00367446
320062
186245
0.0370379
0.00797965
0.000770635
1.08044
0.0209611
0.00451218
0.000238454
12236.7
69.3625
0.0175907
0.00111025
5.37702e-05
0.330563
0.00955035
0.000883862
5.68853e-05
3.13915e-06
164350
181427
278245
179218
177756
205955
304409
198824
200533
160941
177817
123126
190129
143309
165519
192507
249983
189047
251159
155760
271209
213860
171888
276963
275130
256450
295037
251803
365223
463419
305038
349387
468700
749232
398956
429816
281351
255999
380973
239585
401595
249301
246298
235014
280290
188062
330472
492557
283269
400222
524149
803225
389230
599567
798971
436933
558147
775580
131037
639795
603556
245432
182256
323775
412957
382890
576994
620155
109984
160581
262967
177351
175938
183321
321587
211849
213915
287573
413084
276371
277731
215436
221936
234042
310536
334384
343210
330561
317259
363348
468232
478802
535186
445792
187467
339319
336070
443974
255440
407944
699369
409289
550451
329021
8920.97
463075
447633
6797.65
588604
406035
1042.38
1.62795
164561
13.5178
174718
154489
166621
169208
171280
173630
183768
175820
211537
187253
186078
184569
192166
192181
205759
217248
189543
206197
208587
197202
197839
227715
165524
170091
180960
200116
188914
-10291.1
133616
141247
49570.2
131275
43535.7
-6163.89
194750
208050
209678
227866
251062
228634
204839
225095
4810.31
154590
57150.6
171249
-1027.87
170867
66030.8
244395
281583
256026
266127
276425
241863
303810
240343
303748
268189
256908
223787
249167
288495
221943
259242
285978
294122
334005
363048
326849
332276
296798
324684
368620
309895
327028
335462
340220
337868
358016
398760
366286
399943
418839
366699
387920
434161
245720
312982
274308
227480
296919
265087
346020
338195
304731
40553
240475
107104
269351
27233.9
271184
131236
368466
421744
380138
237937
243762
212660
277367
210087
277296
238416
223747
205841
229285
218503
249615
266703
306509
361935
276863
315463
260670
301378
362746
281002
321249
318196
319750
319338
359157
406529
400354
360317
445372
360433
450750
401437
420444
354863
430003
452487
367425
404060
498120
472477
513463
635608
525526
530729
454666
567353
573839
440893
465526
491695
485216
503106
543645
658316
583849
673747
645143
606817
625168
669847
208234
271774
229617
222964
204234
295088
270676
247319
372900
441798
404098
345765
446524
393535
494104
510824
439032
561596
640630
611715
59802
85948.8
14726.8
123624
2146.01
98200.2
78465.9
215757
-12217
120665
38820.1
128479
126165
40672.4
-13323.4
10976.6
190828
213468
89478.5
190392
76440.9
18030.5
289336
204882
290216
221174
303146
209170
316918
580634
211105
252573
337802
640979
222569
265530
678054
248056
367501
481794
712409
294765
451584
341448
252982
306589
405854
283422
345043
411102
347996
518045
444549
401962
551903
829654
675304
362054
485311
782144
129492
404044
299527
461616
314474
582966
312978
251934
557812
711751
302623
698485
814434
271913
36440.4
658030
29643.1
12995.5
543369
97562.3
12350.4
2.93699
188612
50.5085
218524
223901
229617
241807
235739
243444
260869
251273
282518
295979
257187
267582
311747
284131
337859
246875
333891
332933
455012
269231
446869
0.423967
846.496
2.79891
0.461086
0.0606831
1.84105
0.068963
217282
212178
257.712
0.0223957
0.00246054
144945
38207.8
117434
103157
99270
144932
230346
55929.6
133933
47645.5
122224
119855
277021
101636
197555
87569.1
205590
178561
369639
189471
174846
168141
265406
148944
12010.5
261910
1.16969
0.0217182
0.00360551
0.000244379
1.31143e-05
86.6953
0.0100899
0.0018201
0.000157734
1.1163e-05
6.55768e-07
0.0275838
0.00316585
0.000419322
3.89879e-05
2.7998e-06
1.63636e-07
0.000424297
6.3338e-05
6.08672e-06
4.63493e-07
2.88564e-08
0.00108578
0.00014302
1.75371e-05
1.63628e-06
1.21232e-07
7.27596e-09
63886.8
80664.7
54522.3
71759.4
93117.4
175615
100142
116009
179292
113435
80076.5
92588.7
112851
101272
98974.7
63046.8
134119
133545
197038
120266
185949
250564
158722
98555.5
133557
158771
168291
150690
137444
190339
217633
177847
151173
219054
120329
104699
125768
61237.8
68368.1
143357
129505
154742
105899
122734
211192
201792
236964
176775
192601
191068
67480.1
80966.6
62752.2
85424.5
85640.4
67274.7
63030.8
53088.9
57182.9
52899.9
57431.3
69977.8
88035.6
93341.3
74369.2
88268.5
69667.7
74615
126355
100353
121388
105251
105255
126395
121419
148085
143466
148313
143444
129466
108053
113539
135697
108068
129741
135592
151818
158777
152185
158602
62407.6
84954.9
66895.4
56813.8
52621.1
87524.2
73919.8
69268.3
142305
147202
107518
135186
129258
158032
151327
69005.2
61728
62053.2
68756.4
87517.6
99139.6
79475.4
107567
79754.1
107781
87261.6
78296.1
90606.9
78065.5
90487.2
97676.9
119022
133300
110960
118924
97572
110750
154740
120267
143638
129892
143533
129991
154788
180914
167906
167857
180913
168842
142681
158547
187362
142474
169238
186747
197401
218524
197853
217379
78978.8
107160
86848.2
90489.9
77738.6
118811
110915
97273
167421
180623
142485
188006
169547
219125
197654
120899
105636
104884
122376
143414
150264
126745
170220
126140
169186
144493
138695
160807
140800
158307
162943
192318
214895
187429
190502
164541
185113
230801
177207
208417
199220
207308
198129
232181
127168
171326
145297
158271
140208
194094
185830
164922
202126
181852
179532
202042
98237.5
50173.6
67670.1
43485
107199
55947.7
73457.8
184609
105738
179193
127861
195656
118005
182880
112538
49007.6
103026
73977.7
148994
66889.4
135786
206349
123971
215734
175639
286120
192125
234704
167462
91916.3
170133
139474
253257
125541
194181
214318
357138
189975
264223
347519
435926
249072
361409
147317
226111
123130
35.8751
17.9322
0.139216
0.02973
0.00701963
0.00283616
108771
23915
37112.1
52347.2
75063.5
30212.1
-9577.04
-6245.51
14384.2
-30252.9
-27288.8
8397.71
44897.6
-2679.97
1246.43
21292.5
-18712.1
-23551.4
29445.1
180633
186543
166666
60478.2
112544
32079.6
50063.5
-16373.7
44596.9
66333.5
-7904.61
77486.6
47095.4
31285.5
45163.6
86882.4
149498
31324.8
41453.7
41197.3
45591.3
72120.5
71985.4
86634.6
137110
134922
147054
129157
181897
153380
153934
125207
148430
46191.9
35396.1
50514.4
51580.1
103099
160273
198168
123958
212782
50783.9
31249.1
46374.8
35408.6
35390.5
50646.3
46494
37531.8
41659
37613.4
37384.1
45912.2
51953.6
52218.2
60332.4
72109.2
60633.1
59975.9
85894.4
102772
101130
119882
134665
117511
119291
118042
128805
107258
140147
107507
142407
115160
126946
148252
168960
124232
154421
120581
138043
152537
169032
170329
104248
132285
108827
135337
120740
109903
17974.7
17565.2
23931.2
27059.5
17611.6
26931
32551.5
30954.2
46904.4
55293.7
30639.2
55163.5
70434.5
69321.7
116545
115798
69534.9
113977
8501.85
17342.7
5118.17
21483.9
21310.4
8733.59
4810.62
10462.3
23476
27184
13927.4
23435.5
10609.1
13924.7
5271.85
21538.4
8847.92
23428.5
13897.6
10629.4
23153.3
31217.1
17670.8
36738.5
17835.8
36978.7
22957.8
30208.8
44317.8
55409.6
40007.9
44669.5
29885.1
40184.5
17506.2
36427.5
22744.1
43965.7
39912
29599.4
67271.1
68726.9
53371.2
85033.6
52932.6
83508.3
68643.5
81704.6
100863
114000
96554.3
98800.3
83571.5
95203.4
53669.2
85424.9
69204.9
100564
95391
83579.8
74476.5
12493.7
-23753.8
46270.6
-30146.9
34138.2
21539.1
78552.6
198354
115982
59815.7
79329.4
156489
117805
208365
219410
153803
108766
148186
176448
266657
88094
70677.8
80130.1
99280.2
109290
89613.4
99106.2
100748
106392
91904.5
139751
123015
111169
126344
40614.4
42040.2
43727.4
57778
60353.7
61638.1
55815.1
159981
200250
224831
197741
186297
123112
132583
21824.2
21364.9
17402.6
8378.21
4857.98
8559.67
4653.62
69046.6
77919.1
87252.3
65019.4
74388
83433.8
92817.5
93129.3
111733
97691.5
99877.7
85548.6
104068
118539
133439
122869
141740
158991
144154
180900
164736
46811.4
50924.3
48167
60655.9
68529.9
64562.4
65288.6
53399.6
33858.1
37324.6
35632.6
38654.8
55188.8
52515.5
23518.8
28190.2
27532.6
10367.1
14519.5
10506.1
14088.5
126978
127976
147179
116040
134554
135338
154772
52997
64586.9
61110.7
78675.6
73504.5
70185.2
82455.6
176030
284409
304012
240739
345089
198634
380189
69954
86908.6
82100.7
87654.2
105310
92028.4
100213
75961.2
79158
93403.3
99621.6
80337
95041
74329.7
39689.9
41240.7
44367
46046.6
60828.5
57911.2
62800.6
178823
190643
164111
236302
207016
189826
219952
48361.6
52107.2
51225.7
32494.7
36332.1
35650.8
31565.6
148898
134688
137973
161715
167162
155878
151432
121562
158614
133090
131124
109861
120123
143030
168751
238762
227871
209514
307309
184572
139088
95982.7
119124
112388
132337
120718
114696
139425
31733.7
38851.8
37688.4
24613
23689.7
18756.4
18164.1
177289
168077
148898
133500
181493
159348
151148
70748.3
86200.2
89333.1
72945.3
89324.2
91814.9
70499.7
78908.1
102702
87410.2
103248
83263.6
98116.2
83675.1
45610.3
57621.4
56313.1
42147.8
32107.2
40963
30988.4
172198
196291
169864
180384
155973
177896
205384
53546.1
38596.9
37898
43088.2
42178.4
59271.8
58118.2
50762.5
58354.3
56200.6
65654
73378.5
75713.9
67643.6
97346.6
128122
106951
123505
103064
112817
134219
141920
125374
145386
128675
131487
149954
146003
174543
254314
245745
361342
209591
327639
401319
64670
78571.2
76040.8
94068.7
82180.2
84464.5
96592.6
83534
69237.7
84638.8
68106.3
54451.9
67138.1
53346.7
140015
132611
117860
124586
166214
147525
140239
188943
206827
171975
239469
211250
195722
233916
141365
123510
135680
103527
191971
146817
221838
155501
145959
143249
181972
175233
162219
167043
135941
137068
112756
119572
140146
115109
132784
97609
92177.6
78561.4
75759.2
100069
94725.2
80792.9
97618.1
92371
108424
122607
88634.4
101726
118083
89208.5
107431
104186
107705
123549
126991
110429
131564
162835
153770
153503
187661
161605
178647
200730
150106
171019
188850
158945
180763
215273
221087
278159
259517
269018
254873
300675
299405
65464
69173.5
68092.3
83745
81976.9
87553.7
86338.9
107020
133575
125811
142816
111809
128304
120244
128757
153447
148930
137932
135453
154437
158220
46601.5
54492.7
53123
70059
64090.1
62874.9
71564.4
114170
98576.8
99995.6
97654
95456.2
82598.6
81355.3
226904
225977
260599
207274
239152
237080
277967
293755
308896
302432
222920
246478
222708
207498
262365
258281
235420
223760
295443
263151
256340
139239
122778
149451
123882
143484
118247
145678
190534
181888
155111
142362
160027
135753
162758
180005
207401
186637
174863
189475
195382
169496
70572
95690.8
90299.2
76782.2
94233.5
88969
75429.2
126350
109116
130246
132744
108890
111741
129295
185144
153331
168119
192407
176889
211214
195756
61680.1
74340.3
73044.3
79318.5
92424.6
80596.5
91289.6
83615.9
112224
92014.5
94473.2
105344
85805.6
114736
140966
146353
121322
164699
142334
146983
170669
230034
225915
195927
207067
284947
246826
238975
218386
209195
179649
242101
217624
208515
250378
180860
160973
165726
168619
183032
188323
163796
205958
217310
189495
251348
233706
222833
255948
161250
150684
174819
144627
157183
166705
182544
101326
86443.6
102387
121091
106149
105317
121753
112089
139936
133363
135921
120605
114767
142477
122259
113845
101322
103699
138433
124754
116344
153607
134350
130424
129254
113081
109363
122994
203837
217083
195927
182298
212926
204050
189405
178483
181652
175681
157929
157349
161744
153719
218513
243072
209247
178859
216610
187205
207655
226405
311031
272804
300739
302055
297303
329523
127220
123903
101312
107215
128416
105957
122214
164520
156646
129582
145140
152289
169361
140327
88597.6
81930
99977.3
110274
80649.8
90074.2
108790
174851
151338
128187
145287
149129
154538
131026
197642
97456.5
198311
120521
104679
185767
257834
191240
174904
169628
174028
202750
195145
179505
218995
164595
192658
198013
173992
205026
237572
246924
255792
274314
253660
283638
240276
297210
137794
142859
195331
219540
185443
208679
181302
167089
204581
122396
192025
150783
434539
312815
149386
165042
153224
132493
156012
155662
170455
291344
328217
294983
252217
298656
333517
334018
135039
117496
118876
158902
160848
138844
139721
199286
163703
170792
191482
223252
232903
199313
357049
309396
319726
262230
310213
283609
330330
130236
110124
138045
114496
131506
108758
136550
188644
185543
193548
161480
171923
165328
168830
313669
261477
308484
333378
277757
330908
377930
253544
240608
296324
227633
261353
276394
315402
178007
341666
283467
222521
281930
236415
352004
98526.1
120632
112248
133550
99673.2
119597
111356
173226
177240
171257
147950
152791
155098
150695
146686
134189
158183
160773
126360
149005
136768
206811
198077
178293
157709
168500
184503
151903
225201
192249
233634
200860
166256
171632
199088
215551
226343
201484
259659
236968
224223
253260
229656
211563
217695
249225
254276
244453
238501
200583
212681
351863
324945
323668
398190
455373
289756
248728
273580
239528
278500
290761
328569
259566
316387
297291
185699
215442