/*--------------------------------*- C++ -*----------------------------------*\
  =========                 |
  \\      /  F ield         | OpenFOAM: The Open Source CFD Toolbox
   \\    /   O peration     | Website:  https://openfoam.org
    \\  /    A nd           | Version:  9
     \\/     M anipulation  |
\*---------------------------------------------------------------------------*/
FoamFile
{
    format      ascii;
    class       volVectorField;
    location    "0.00135";
    object      rhoU;
}
// * * * * * * * * * * * * * * * * * * * * * * * * * * * * * * * * * * * * * //

dimensions      [1 -2 -1 0 0 0 0];

internalField   nonuniform List<vector> 
11180
(
(-12.173 17.479 31.0493)
(-5.6846 48.9661 143.306)
(-5.91045 50.2451 159.176)
(-53.2076 6.15341 27.2613)
(-64.8625 9.76882 119.655)
(-39.2971 -22.1965 27.4699)
(-47.0167 -27.9865 118.963)
(-9.68214 -22.9537 30.3136)
(-4.20882 -30.6205 116.226)
(-40.8445 17.4993 57.239)
(-12.2034 5.23344 10.6284)
(-1.71199 5.19352 15.0371)
(-65.4329 -3.34774 91.7023)
(-11.9831 -1.70351 10.3239)
(-5.76444 -46.7134 145.028)
(-0.873235 -6.10553 9.18387)
(-26.1556 2.18469 99.5838)
(-6.13048 23.4129 101.542)
(-26.6379 21.6247 29.1647)
(-9.22972 1.00413 15.9665)
(-6.62379 2.24839 116.108)
(-24.1964 20.4699 87.4494)
(-23.1849 5.97644 30.5864)
(-6.96379 0.997703 9.2817)
(-42.7079 44.7597 127.571)
(-0.973568 6.89799 9.00742)
(-6.25097 7.93162 158.45)
(-46.6585 7.60335 144.451)
(-1.15961 1.21532 13.4596)
(-6.5637 6.573 8.11786)
(-30.8529 2.79205 116.809)
(-5.0403 29.2973 119.078)
(-45.8521 47.8259 149.986)
(-6.33818 7.81944 166.874)
(-5.90188 3.5125 131.924)
(-47.4741 7.68349 157.947)
(-32.2765 30.7606 107.671)
(-52.6979 6.91507 81.5586)
(-58.1283 20.5486 26.9961)
(-57.7788 22.1555 81.0678)
(-36.7598 6.08313 84.2929)
(-41.41 19.8792 27.9863)
(-40.4451 21.1605 82.8023)
(-36.7277 5.77577 28.0236)
(-69.8117 30.9104 120.962)
(-73.4691 33.8615 124.688)
(-79.9894 6.28562 128.335)
(-39.8053 4.6198 112.336)
(-56.2954 46.5925 142.292)
(-59.7059 7.94787 153.216)
(-48.2621 28.55 120.709)
(-38.7761 -22.6344 81.3269)
(-55.8219 -22.1 26.5758)
(-55.988 -23.0439 79.8087)
(-52.5131 -7.85428 27.1071)
(-52.1745 -8.1806 81.1142)
(-36.28 -8.00652 83.7954)
(-36.1582 -8.468 27.8616)
(-68.6047 -30.1896 119.459)
(-64.4538 -9.65016 119.124)
(-80.0437 -4.91931 128.464)
(-55.8324 -44.2408 141.825)
(-73.4191 -32.5326 124.59)
(-39.5997 -5.57073 112.083)
(-59.6113 -6.19888 153.252)
(-4.67781 -26.2297 98.9256)
(-24.6185 -24.9364 28.4958)
(-22.5618 -22.735 85.516)
(-26.1008 -4.7086 99.2328)
(-8.21348 -8.2787 15.838)
(-6.24329 -6.32345 115.632)
(-22.6641 -9.90829 30.4081)
(-30.8734 -30.8953 105.516)
(-5.96367 -47.3214 158.043)
(-45.2118 -45.0717 149.019)
(-30.6068 -4.20266 116.535)
(-6.38241 -6.35641 166.868)
(-5.70165 -5.71465 131.434)
(-47.3844 -5.93153 158.058)
(-65.1944 4.52128 91.1829)
(-15.0684 6.30591 11.3258)
(-13.9007 1.88931 8.52089)
(-8.41955 0.986895 8.38148)
(-50.0316 43.5854 115.581)
(-57.3127 7.53647 136.478)
(-10.8361 6.40603 10.1489)
(-11.9239 1.70959 10.3727)
(-11.9036 5.11246 14.6499)
(-11.829 1.69423 14.7989)
(-8.55635 1.73531 10.4991)
(-8.59753 5.18275 15.0381)
(-8.48161 1.71272 14.9277)
(-8.72422 5.25895 10.678)
(-6.05622 0.867987 9.15198)
(-0.860619 6.11511 9.1422)
(-5.18535 5.23583 15.2253)
(-0.648182 0.694799 16.5995)
(-0.902496 0.895424 10.1296)
(-5.10493 1.73795 15.0066)
(-5.25788 5.29261 10.7829)
(-14.0105 -1.87406 8.57767)
(-50.5637 -42.2473 117.934)
(-41.8766 -17.1951 59.1258)
(-15.255 -6.28491 11.5936)
(-11.0456 -6.48441 10.5999)
(-8.48299 -0.978379 8.40937)
(-57.4534 -5.74762 137.023)
(-11.8869 -1.72146 14.7277)
(-12.2232 -5.21255 10.6066)
(-11.9066 -5.11855 14.5441)
(-8.73678 -5.22278 10.6399)
(-8.60221 -5.15641 14.9202)
(-8.62062 -1.72103 10.4523)
(-8.53854 -1.71844 14.8662)
(-42.7903 -42.6913 129.398)
(-0.961402 -7.02567 9.38716)
(-6.60044 -6.58547 8.2445)
(-7.03046 -0.962297 9.40567)
(-6.29455 -6.28127 158.911)
(-46.7478 -5.74546 145.028)
(-1.18615 -1.1899 13.9128)
(-5.26717 -5.26441 10.7175)
(-5.19708 -5.19681 15.1267)
(-1.72827 -5.16253 14.975)
(-6.10447 -0.873176 9.18838)
(-0.643618 -0.647815 16.6694)
(-0.93467 -0.939252 10.2832)
(-5.1608 -1.72825 14.9764)
(-16.0799 27.4911 100.65)
(-19.6725 48.0273 141.271)
(-4.15925 36.1477 90.6596)
(-5.99379 36.04 148.774)
(-14.3071 34.5099 87.191)
(-20.4879 35.3571 147.064)
(-4.71876 28.6248 104.083)
(-18.0868 29.2834 150.972)
(-5.25076 42.6708 152.748)
(-20.1381 49.3492 157.692)
(-6.1033 35.8666 160.966)
(-20.7321 35.2651 159.471)
(-5.64282 29.8891 152.408)
(-17.0701 41.6322 151.111)
(-15.2648 -23.179 132.357)
(-11.6011 -28.4792 113.955)
(-4.45173 -34.212 132.153)
(-5.17217 -22.2086 120.806)
(-13.4216 -32.5098 130.161)
(-13.5246 -20.5162 117.447)
(-5.22094 -24.1837 134.628)
(-31.8624 -5.5161 40.1686)
(-29.2334 -1.63475 29.1175)
(-61.7622 -11.9015 88.4481)
(-67.8629 -4.45873 109.261)
(-28.8562 -3.84591 30.6259)
(-64.1118 -15.8667 106.385)
(-33.6225 -1.91391 40.1667)
(-16.2633 -26.3953 103.669)
(-19.6306 -45.7356 142.594)
(-4.26582 -35.6397 96.0345)
(-6.1088 -33.8716 149.683)
(-14.7098 -34.1203 92.3168)
(-20.4616 -33.2432 147.818)
(-4.81299 -27.3731 107.156)
(-2.71868 -4.12545 11.5644)
(-2.74095 -6.10314 8.95318)
(-0.499747 -6.23617 11.6839)
(-0.922237 -4.53221 9.86624)
(-2.83852 -6.1773 11.3762)
(-2.69657 -4.53489 9.65126)
(-0.734496 -4.18838 11.8355)
(-19.5616 11.6155 76.6284)
(-20.9501 1.84266 103.777)
(-25.7158 7.83636 98.6409)
(-28.7501 3.77085 73.5736)
(-19.0154 7.17724 102.179)
(-30.5066 14.9026 73.166)
(-21.1488 2.9779 77.5747)
(-17.0831 14.9565 77.4363)
(-9.0437 25.3456 74.7009)
(-6.02927 17.541 104.921)
(-11.5605 22.9316 100.146)
(-20.1679 26.9408 74.3794)
(-10.8617 15.5488 102.872)
(-8.48883 16.6055 78.4484)
(-11.487 4.51941 48.7694)
(-9.1357 10.5711 15.7442)
(-6.2095 -1.09772 51.0271)
(-17.6133 1.22528 15.6258)
(-10.8739 -0.0762583 50.1231)
(-6.94534 4.16191 50.5248)
(-19.5514 12.719 15.7762)
(-12.3835 6.77018 81.6471)
(-14.4182 1.53785 110.909)
(-5.91005 10.3614 111.318)
(-6.75047 0.613207 89.0525)
(-12.0109 8.02921 107.797)
(-14.2286 0.355213 84.4845)
(-6.52892 8.63995 84.8724)
(-12.0353 7.84938 33.5247)
(-14.957 2.25876 27.7926)
(-5.35315 1.07216 10.7824)
(-6.63317 3.03616 8.89734)
(-13.6584 6.31953 24.5979)
(-5.04423 3.22561 10.2087)
(-13.1597 2.84789 37.7819)
(-25.0333 26.4693 89.975)
(-32.4706 48.5363 135.056)
(-46.3798 34.5037 135.769)
(-26.6075 27.7739 63.5466)
(-22.6528 33.1472 76.9187)
(-33.474 35.5529 140.287)
(-32.1389 24.1877 78.5147)
(-7.30846 12.3297 32.664)
(-1.80774 14.4451 24.8498)
(-1.03175 5.32701 10.5451)
(-3.01547 6.62182 8.76529)
(-5.7583 13.4454 22.8604)
(-3.19106 5.06408 10.1331)
(-2.29271 13.3457 35.8058)
(-16.7462 18.2491 112.336)
(-5.94964 22.7337 155.827)
(-20.9395 7.79883 156.206)
(-5.16388 6.55182 121.143)
(-20.2956 22.2332 153.504)
(-17.5474 6.35167 117.219)
(-4.85081 18.8987 116.12)
(-26.0195 17.6207 101.463)
(-35.401 5.63352 94.9835)
(-45.7352 21.5895 141.681)
(-33.8276 7.96973 149.141)
(-33.1913 22.4522 146.976)
(-33.6071 15.9488 90.0567)
(-27.1814 6.24796 106.032)
(-8.66838 9.22188 43.803)
(-3.45763 1.10849 12.2449)
(-1.03208 3.46271 11.9709)
(-2.90601 3.56686 53.9514)
(-3.23572 3.28289 11.1588)
(-9.48323 3.27482 49.2571)
(-2.61616 9.92782 47.9261)
(-10.5567 10.8839 25.3892)
(-6.61929 4.70309 8.59138)
(-9.70689 9.82309 13.0466)
(-4.69633 6.63426 8.53769)
(-8.47716 11.7891 18.0816)
(-11.866 8.87589 18.734)
(-5.10084 5.11616 9.4341)
(-23.5783 15.2 133.346)
(-22.3892 3.58399 121.52)
(-34.5731 4.21434 132.74)
(-29.1024 10.3515 115.003)
(-20.9854 12.0619 118.465)
(-33.0747 13.4044 131.37)
(-24.4457 5.03005 135.146)
(-15.618 23.331 134.261)
(-4.73175 34.7426 135.449)
(-5.7429 20.4023 122.972)
(-12.6013 27.6205 116.638)
(-14.1567 19.2051 119.361)
(-5.41072 24.1175 136.787)
(-13.9925 33.2517 133.225)
(-29.9025 30.9221 147.205)
(-33.5691 50.9004 153.633)
(-48.6007 35.4891 153.55)
(-41.4464 42.636 147.057)
(-34.1933 36.1711 154.451)
(-42.7142 29.9171 147.711)
(-28.9251 44.1469 148.3)
(-17.1012 17.9363 153.735)
(-6.02308 22.3447 165.741)
(-5.79171 6.3877 156.609)
(-20.6891 7.70017 165.416)
(-20.0396 21.8107 163.758)
(-17.8288 6.27677 155.095)
(-5.43964 18.5401 155.648)
(-14.5597 14.0919 137.92)
(-14.3677 3.09991 127.683)
(-5.41671 12.1513 128.331)
(-5.55176 4.90263 142.672)
(-13.3043 11.1686 124.536)
(-15.3689 4.67947 140.019)
(-5.15247 14.7872 140.63)
(-28.1297 18.9649 150.055)
(-40.8836 6.12453 150.211)
(-46.8042 21.8212 156.755)
(-33.6426 7.96836 159.884)
(-33.1551 22.4604 158.76)
(-39.98 17.8278 149.394)
(-28.7043 6.62211 150.824)
(-25.9108 25.6141 130.679)
(-32.2847 19.6626 111.468)
(-21.5753 30.8594 112.063)
(-36.1584 36.0229 129.114)
(-23.7965 22.0672 115.617)
(-35.6184 23.8403 129.462)
(-24.2876 35.7106 130.28)
(-73.5203 21.1294 141.344)
(-85.9193 7.79494 137.23)
(-76.6608 15.878 125.864)
(-77.9688 6.98522 139.167)
(-85.042 22.0038 137.076)
(-75.2367 7.94717 140.135)
(-74.9972 18.4136 137.826)
(-54.4786 16.2174 128.839)
(-47.1382 4.70287 108.17)
(-44.5748 5.25965 128.771)
(-37.5141 13.3745 111.846)
(-43.2195 14.7632 129.21)
(-47.1447 15.3322 107.243)
(-54.6072 5.33431 128.297)
(-67.7309 30.8175 142.853)
(-62.5076 41.3839 133.326)
(-60.3313 36.2252 147.857)
(-53.6054 45.9874 143.149)
(-55.4153 32.9146 144.179)
(-67.9792 32.3075 141.01)
(-67.3717 45.7682 140.331)
(-63.666 17.9295 146.58)
(-71.1097 7.11117 149.164)
(-52.4989 6.80754 146.987)
(-58.9591 22.8152 152.935)
(-51.7724 19.5258 147.483)
(-65.0233 6.15854 146.609)
(-68.6566 20.4059 147.988)
(-73.0939 -19.8524 140.787)
(-85.7079 -6.66739 136.949)
(-76.9506 -14.6586 126.014)
(-77.854 -5.28827 139.133)
(-84.7736 -20.8504 136.729)
(-74.9742 -6.74717 139.893)
(-74.9628 -16.8071 137.82)
(-66.6635 -29.1493 141.414)
(-52.5756 -43.639 141.299)
(-62.5089 -39.6606 133.405)
(-59.7275 -33.9107 147.285)
(-66.3144 -43.7129 138.944)
(-54.5048 -31.078 142.651)
(-67.5736 -30.3766 140.571)
(-53.8614 -15.9082 127.917)
(-36.9456 -14.059 111.111)
(-46.9043 -5.68593 107.939)
(-44.266 -5.21793 128.455)
(-54.3345 -5.3216 128.071)
(-46.6298 -16.0238 106.484)
(-42.6279 -14.5057 128.251)
(-63.1442 -16.6168 145.757)
(-70.9589 -5.31371 149.114)
(-58.6669 -20.8196 152.657)
(-52.1934 -5.75534 146.729)
(-64.6905 -5.01443 146.343)
(-51.2639 -18.2464 146.579)
(-68.4739 -18.5901 147.821)
(-14.9739 -19.1975 75.7632)
(-7.17129 -28.8321 72.9815)
(-10.0695 -25.1833 97.5902)
(-4.91145 -20.8789 102.966)
(-17.9586 -30.239 72.5231)
(-9.82104 -18.4556 100.973)
(-6.60993 -21.1044 76.8917)
(-18.9295 -15.1825 75.9334)
(-24.9934 -10.1271 97.7725)
(-20.7161 -4.99463 103.263)
(-28.6609 -7.24486 73.2099)
(-20.8984 -6.71563 77.1251)
(-30.0247 -18.1195 72.6949)
(-18.2591 -9.94125 101.125)
(-10.1691 -10.6081 48.5194)
(-8.76845 -17.1319 15.5455)
(-5.66386 -5.72286 50.6147)
(-17.0275 -8.78683 15.594)
(-10.6979 -5.68781 50.0251)
(-5.50418 -10.8451 49.8858)
(-19.0698 -19.2243 15.9925)
(-11.1564 -11.4544 80.8334)
(-5.17307 -14.2445 110.332)
(-14.0955 -5.2724 110.506)
(-6.1708 -6.29736 88.5254)
(-13.7439 -5.54292 84.1611)
(-11.1802 -11.3629 106.776)
(-5.38083 -13.9293 84.0091)
(-25.2869 -25.2233 128.813)
(-20.4784 -31.1447 109.825)
(-35.017 -34.9393 126.653)
(-31.1137 -20.4937 109.878)
(-23.4687 -34.6889 127.647)
(-34.7485 -23.4037 127.675)
(-23.0094 -23.0201 113.926)
(-17.8273 -27.7808 149.179)
(-5.22691 -40.5198 149.843)
(-19.857 -46.4544 156.476)
(-6.24005 -33.4888 159.89)
(-16.7001 -39.4496 148.405)
(-5.69122 -28.4288 150.528)
(-20.501 -32.9278 158.399)
(-29.3218 -29.2436 145.363)
(-40.4804 -40.3307 144.687)
(-33.1041 -47.8816 152.627)
(-47.9704 -33.0332 152.617)
(-28.2703 -41.777 145.85)
(-41.8795 -28.1675 145.854)
(-33.7747 -33.7238 153.429)
(-23.2122 -15.2062 132.439)
(-28.4257 -11.6021 114.111)
(-22.1765 -5.18556 121.121)
(-34.2869 -4.40943 132.405)
(-24.2403 -5.17336 134.83)
(-32.5464 -13.3669 130.262)
(-20.4554 -13.5387 117.584)
(-16.9573 -16.8967 152.888)
(-6.13077 -20.5525 165.361)
(-5.77826 -5.7383 156.381)
(-20.5887 -6.09576 165.394)
(-17.699 -5.45087 154.858)
(-5.49341 -17.6411 154.81)
(-19.9746 -19.9309 163.318)
(-14.2958 -14.2649 136.994)
(-5.01568 -14.1891 127.148)
(-14.1595 -5.04784 127.332)
(-5.45987 -5.42807 142.351)
(-15.2145 -4.98193 139.713)
(-12.7788 -12.846 123.549)
(-5.00703 -15.1669 139.603)
(-27.8554 -17.7649 149.222)
(-46.529 -19.8152 156.453)
(-40.615 -5.17847 149.953)
(-33.5508 -6.20739 159.957)
(-28.519 -5.64085 150.634)
(-39.5281 -16.6264 148.439)
(-32.988 -20.4718 158.414)
(-30.9973 5.90328 38.5896)
(-60.9614 12.8159 87.3336)
(-29.0123 2.00159 28.7456)
(-67.6853 6.01075 108.806)
(-28.1768 4.11102 29.6315)
(-63.5696 17.1392 105.225)
(-33.2629 2.53382 39.4964)
(-13.412 3.98156 10.8845)
(-9.92567 0.627876 7.79499)
(-15.0454 1.81831 18.8723)
(-8.15493 2.77808 8.20199)
(-13.872 5.10163 16.8591)
(-9.69016 2.89083 7.68651)
(-14.3915 1.24214 12.0529)
(-30.3853 14.503 46.213)
(-53.029 35.5317 100.474)
(-55.7791 33.8572 125.355)
(-26.6112 21.0746 49.7243)
(-33.4021 20.2173 62.0259)
(-61.4737 28.5846 112.613)
(-24.5549 15.1504 38.4957)
(-35.9061 11.0936 55.5161)
(-65.7367 6.64265 125.927)
(-39.6356 5.08823 79.0479)
(-56.047 21.7381 133.925)
(-37.4623 14.7096 74.4612)
(-62.4678 18.8084 122.588)
(-39.8536 4.00233 59.9568)
(-4.04283 2.73044 11.633)
(-4.46501 0.892244 9.78041)
(-6.14991 0.510572 11.6716)
(-6.02641 2.73056 8.98057)
(-4.44569 2.66284 9.65376)
(-6.11477 2.85426 11.4501)
(-4.09741 0.725662 11.788)
(-2.69993 4.10041 11.6637)
(-0.504208 6.24523 11.73)
(-0.878239 4.49091 9.77001)
(-2.73269 6.07408 8.9881)
(-2.64796 4.48067 9.66499)
(-0.714297 4.15529 11.8304)
(-2.84858 6.20403 11.4945)
(-2.67789 2.7326 13.4025)
(-0.54884 2.77936 15.9195)
(-0.891953 0.948794 14.2261)
(-2.71805 0.607672 15.9146)
(-2.43073 0.987821 13.7576)
(-0.920246 2.50645 13.7539)
(-2.83791 2.89408 15.4455)
(-2.52068 2.56944 11.2434)
(-2.68839 0.878657 9.67212)
(-0.866238 2.69329 9.61262)
(-0.800251 0.804734 11.8286)
(-2.72792 2.74884 9.36006)
(-2.50625 0.792148 11.4731)
(-0.744877 2.53017 11.4675)
(-31.78 -14.4387 49.2485)
(-54.2249 -34.8656 103.111)
(-28.2961 -21.4708 54.366)
(-55.8413 -32.0132 126.744)
(-26.0268 -15.3635 41.8234)
(-62.0777 -27.2086 114.328)
(-34.6926 -19.9407 65.6331)
(-13.7244 -3.93784 11.3653)
(-9.96707 -0.626894 7.79611)
(-8.26008 -2.74429 8.25819)
(-15.2642 -1.58995 19.3289)
(-14.4997 -1.13223 12.2558)
(-9.79 -2.8092 7.71267)
(-14.3553 -5.07438 17.7924)
(-36.8893 -10.4423 57.6733)
(-65.8459 -4.89332 126.427)
(-56.1784 -19.8503 134.922)
(-40.0261 -3.93226 80.1426)
(-62.7914 -17.1198 123.676)
(-40.2432 -3.09286 60.7979)
(-38.2539 -13.7305 76.7971)
(-25.524 -25.5243 93.2732)
(-32.4316 -46.2334 136.743)
(-27.9954 -27.9667 68.8866)
(-46.2971 -32.3929 136.733)
(-23.5035 -32.9753 82.2212)
(-33.4101 -33.3866 141.061)
(-33.008 -23.5043 82.2239)
(-7.62853 -12.527 35.4866)
(-1.87875 -15.1636 28.4982)
(-3.02502 -6.75574 9.01376)
(-1.05784 -5.43734 11.008)
(-6.14082 -14.1714 26.0302)
(-3.24481 -5.19085 10.4124)
(-2.38226 -13.406 38.8858)
(-11.1471 -11.1458 27.792)
(-10.293 -10.2447 14.7762)
(-4.73941 -6.67882 8.73957)
(-6.71303 -4.72897 8.72954)
(-9.11354 -12.4509 20.5601)
(-12.5996 -9.10969 20.5561)
(-5.18312 -5.17702 9.64471)
(-12.5428 -7.65142 35.5573)
(-6.76147 -3.02979 9.02015)
(-15.2185 -1.88547 28.6465)
(-5.43921 -1.05721 11.0322)
(-13.4248 -2.38657 39.014)
(-14.2078 -6.16399 26.1043)
(-5.19527 -3.2467 10.4217)
(-16.8848 -16.8939 114.215)
(-6.08103 -20.9101 156.597)
(-20.9202 -6.05901 156.609)
(-5.18096 -5.17886 122.132)
(-17.5553 -4.97879 118.163)
(-20.334 -20.3149 154.132)
(-4.98665 -17.5703 118.128)
(-26.4035 -16.2802 103.682)
(-45.7883 -19.6145 142.545)
(-35.6878 -4.26663 96.1609)
(-33.8849 -6.08834 149.677)
(-27.3706 -4.80851 107.211)
(-33.2698 -20.45 147.781)
(-34.1699 -14.7298 92.3622)
(-8.93236 -8.94406 46.0073)
(-1.14739 -3.51983 12.5427)
(-3.51657 -1.14723 12.5585)
(-2.91397 -2.91767 55.3742)
(-9.57327 -2.76586 50.5104)
(-3.36239 -3.36209 11.5044)
(-2.76535 -9.58452 50.4477)
(-4.12721 -2.7171 11.564)
(-6.10596 -2.74138 8.95456)
(-4.53001 -0.920535 9.87226)
(-6.23364 -0.499609 11.6838)
(-4.18635 -0.733145 11.8379)
(-6.17871 -2.83796 11.3761)
(-4.537 -2.6948 9.65275)
(-2.74641 -2.74581 13.3921)
(-0.604379 -2.73992 15.9284)
(-0.930381 -0.93174 14.3156)
(-2.73643 -0.605386 15.9291)
(-2.48007 -0.997459 13.8105)
(-0.998548 -2.48159 13.8091)
(-2.87755 -2.87824 15.42)
(-2.6063 -2.60529 11.2273)
(-0.950243 -2.74055 9.76461)
(-2.73705 -0.9502 9.76866)
(-0.85668 -0.860353 11.9248)
(-2.57769 -0.860273 11.539)
(-2.80603 -2.80493 9.38996)
(-0.859954 -2.58033 11.537)
(-45.73 -99.3003 115.739)
(-42.2565 -100.197 25.9356)
(-37.8881 -38.3746 26.7888)
(-49.6428 -49.5994 119.413)
(-7.84782 -94.8298 26.6307)
(-7.99583 -84.7051 98.7882)
(-8.25295 -36.4673 27.7772)
(-5.56 -39.5971 111.852)
(-69.5851 -50.4087 118.434)
(-55.3693 -55.189 127.288)
(-65.6468 -47.518 109.955)
(-50.4169 -69.4511 118.446)
(-59.0537 -58.8841 98.3957)
(-47.6764 -65.4064 110.084)
(-67.922 -67.8505 117.358)
(-29.6425 -86.328 118.5)
(-23.9038 -82.897 93.6669)
(-9.33023 -100.087 119.155)
(-9.65042 -82.4658 115.442)
(-28.1039 -100.655 116.881)
(-9.80479 -83.9468 119.768)
(-27.6343 -77.6207 105.605)
(-7.85878 -36.4318 83.5689)
(-21.7238 -39.5639 27.4584)
(-22.3666 -38.9105 81.284)
(-22.8253 -56.0483 79.767)
(-7.76118 -52.826 27.0462)
(-8.12318 -52.2843 80.928)
(-21.7016 -56.0161 26.5634)
(-27.99 -46.9165 118.943)
(-6.20814 -59.5116 153.297)
(-44.3277 -55.5936 141.848)
(-30.1956 -68.3558 119.484)
(-4.97976 -79.719 128.624)
(-9.67836 -64.3171 118.99)
(-32.6554 -73.0904 124.782)
(-15.9463 -53.7746 127.854)
(-14.0076 -36.978 110.932)
(-5.25624 -44.2008 128.299)
(-5.66007 -46.9036 107.773)
(-15.9793 -46.6323 106.35)
(-5.35875 -54.2652 127.968)
(-14.5338 -42.581 128.172)
(-16.6732 -62.985 145.786)
(-5.7908 -52.0901 146.675)
(-20.7985 -58.5515 152.752)
(-5.33638 -70.7672 149.21)
(-5.05273 -64.5484 146.341)
(-18.6057 -68.2843 147.933)
(-18.2871 -51.1603 146.585)
(-29.212 -66.4172 141.435)
(-43.7254 -52.3763 141.319)
(-33.9113 -59.5415 147.329)
(-39.7558 -62.2296 133.534)
(-43.7767 -66.0519 139.018)
(-30.4181 -67.2904 140.653)
(-31.1454 -54.3377 142.658)
(-19.9107 -72.868 140.846)
(-5.34814 -77.5296 139.216)
(-6.72275 -85.3673 136.943)
(-14.7682 -76.6895 126.276)
(-20.9073 -84.4411 136.77)
(-6.80857 -74.7521 139.911)
(-16.8675 -74.6913 137.953)
(-62.0089 -97.4899 113.486)
(-37.7327 -80.279 89.6887)
(-49.6281 -77.2879 85.0158)
(-48.3118 -85.5235 116.915)
(-53.2498 -67.5266 89.5877)
(-41.7888 -72.673 96.6483)
(-64.5464 -82.5477 115.047)
(-38.8235 -39.1014 79.899)
(-56.1371 -39.8669 25.9191)
(-56.2988 -40.0202 78.6215)
(-39.7322 -56.489 78.6025)
(-58.7005 -59.1005 25.6783)
(-57.5414 -57.771 78.7061)
(-39.3734 -56.4857 25.9123)
(-23.3367 -98.8048 26.0635)
(-8.09273 -91.2517 81.0148)
(-23.8266 -94.2153 79.9465)
(-23.179 -74.3683 79.304)
(-7.66818 -72.3573 26.7003)
(-8.04798 -70.8034 80.6208)
(-22.1923 -76.2018 26.0242)
(-62.5724 -102.446 25.8713)
(-41.2095 -95.1418 79.9845)
(-59.432 -96.1398 80.0326)
(-40.4455 -75.4426 78.9141)
(-60.6295 -80.2487 25.6901)
(-58.5406 -76.6477 79.2705)
(-40.606 -77.6177 25.7118)
(-44.1414 -114.575 115.706)
(-11.0879 -21.0032 13.4257)
(-44.2089 -169.025 126.546)
(-43.817 -123.526 26.361)
(-48.5246 -195.524 29.1177)
(-8.20452 -118.817 26.7543)
(-9.04033 -114.767 118.366)
(-8.90262 -192.749 28.6099)
(-7.25756 -132.645 95.3754)
(-7.54633 -28.5622 12.7437)
(-18.7488 -48.2935 30.1523)
(-9.7202 -37.0793 9.76951)
(-3.93295 -49.6329 33.6098)
(-1.70327 -21.6168 9.71813)
(-2.04476 -37.3276 9.78939)
(-1.63137 -29.0369 13.1837)
(-27.067 -115.166 116.763)
(-7.335 -92.1977 92.4668)
(-22.0431 -91.7797 89.8105)
(-26.4203 -131.492 118.468)
(-6.969 -103.867 91.8266)
(-8.66833 -131.151 119.657)
(-21.3184 -103.79 90.1105)
(-11.7195 -49.2879 31.9814)
(-2.0776 -26.4282 9.56404)
(-6.15082 -26.427 9.39028)
(-5.77965 -30.3071 9.44833)
(-3.7001 -56.479 33.438)
(-11.2265 -56.0203 32.209)
(-1.92655 -30.408 9.55205)
(-61.0267 -113.495 115.279)
(-35.4615 -90.7134 87.4924)
(-48.1278 -89.2962 85.6953)
(-43.7385 -131.03 118.145)
(-47.9887 -101.932 88.7165)
(-34.7423 -103.11 88.97)
(-60.7325 -130.273 118.787)
(-25.2013 -47.1866 28.5577)
(-10.037 -26.1277 9.08621)
(-13.7127 -25.8373 8.70082)
(-9.60461 -29.9112 9.29654)
(-25.253 -54.1278 30.629)
(-18.2671 -55.1092 31.1367)
(-13.426 -29.3709 9.25328)
(-24.5804 -122.377 26.3871)
(-8.24755 -112.364 81.8912)
(-24.4896 -114.412 81.2348)
(-24.9174 -134.571 82.986)
(-8.19255 -143.647 27.1573)
(-8.03202 -133.217 83.3329)
(-25.637 -146.496 26.9635)
(-5.05863 -21.6045 9.65831)
(-4.9961 -21.1387 13.6538)
(-1.68901 -21.1397 13.6835)
(-4.75755 -24.699 9.45171)
(-1.52663 -24.2065 13.2526)
(-1.59782 -24.7604 9.4212)
(-4.41719 -24.1585 13.3318)
(-6.00434 -37.3638 9.74186)
(-3.93698 -71.3085 34.4885)
(-11.4965 -71.1406 34.2247)
(-6.28552 -33.45 9.29771)
(-3.929 -63.3556 31.8318)
(-11.7235 -63.1115 30.9916)
(-2.08458 -33.5336 9.4223)
(-8.94199 -168.525 124.447)
(-26.762 -168.876 124.886)
(-21.398 -132.6 95.3155)
(-26.585 -149.654 119.98)
(-7.21911 -118.034 91.0017)
(-8.88184 -149.39 120.542)
(-21.4994 -118.003 89.9122)
(-8.3311 -21.5054 9.53508)
(-11.486 -21.3538 9.34752)
(-8.1517 -21.1023 13.5719)
(-7.89654 -24.5215 9.45051)
(-10.3245 -23.4103 13.1286)
(-7.39239 -23.9491 13.3243)
(-11.0321 -24.1831 9.50099)
(-64.212 -125.491 26.4741)
(-42.0325 -114.965 81.3264)
(-60.3021 -115.763 81.7568)
(-42.7214 -134.923 83.2826)
(-66.3113 -149.043 27.3644)
(-60.9486 -135.582 84.2707)
(-45.4602 -147.438 27.0243)
(-61.338 -169.209 129.985)
(-48.3662 -131.855 98.5019)
(-35.0161 -132.257 96.2828)
(-44.0581 -149.472 120.14)
(-48.8955 -117.614 90.03)
(-35.2958 -117.605 89.4448)
(-61.4659 -149.567 121.412)
(-8.49533 -176.205 87.4599)
(-27.9948 -194.393 28.7294)
(-26.4063 -176.951 87.9234)
(-25.602 -155.578 85.6021)
(-8.74682 -168.343 28.0794)
(-8.43101 -154.72 85.6874)
(-26.8006 -170.434 28.0015)
(-26.0114 -69.9313 34.9668)
(-13.3806 -35.9574 9.44419)
(-18.7094 -70.627 34.4165)
(-10.3454 -33.1928 9.14454)
(-26.3618 -62.5425 30.3077)
(-19.0774 -62.5829 30.3732)
(-14.3259 -33.2073 9.13767)
(-4.73955 -29.027 13.1244)
(-1.62239 -29.8663 9.55303)
(-4.78561 -29.8687 9.5117)
(-5.00053 -27.018 9.62404)
(-1.62744 -26.3292 13.538)
(-1.66648 -27.1174 9.67494)
(-4.94928 -26.223 13.4719)
(-44.7195 -177.51 89.1426)
(-69.3589 -197.158 30.1263)
(-62.961 -178.484 91.8995)
(-43.6952 -155.821 85.9822)
(-68.1575 -172.681 28.4382)
(-62.4893 -156.55 87.0477)
(-46.9269 -171.253 28.0901)
(-10.4457 -27.4486 12.3215)
(-7.75463 -29.6441 9.43102)
(-10.551 -28.4297 8.99728)
(-8.26972 -26.8015 9.52943)
(-11.6105 -26.3767 13.5093)
(-8.26699 -26.1055 13.3723)
(-11.4825 -26.8046 9.55874)
(-11.7576 -17.9357 13.9462)
(-19.7907 -42.2679 31.5906)
(-32.3885 -32.2913 64.685)
(-11.8496 -8.4621 14.346)
(-4.1844 -44.6914 37.5485)
(-1.70635 -18.5841 10.0467)
(-5.74271 -57.3805 137.069)
(-1.72251 -8.62039 10.4512)
(-35.476 -25.3692 47.2692)
(-15.3593 -10.8908 11.4541)
(-11.1786 -11.1665 12.4458)
(-10.9059 -15.3607 11.4843)
(-31.144 -31.0684 38.1994)
(-25.4806 -35.4149 47.4256)
(-14.9567 -14.9493 10.3812)
(-6.32472 -19.1947 10.7786)
(-12.4775 -43.8438 34.4288)
(-2.07344 -22.6008 10.0122)
(-4.76045 -43.7639 47.4362)
(-6.22497 -22.6866 9.80227)
(-14.1222 -41.3168 42.8541)
(-2.0364 -18.6093 10.3228)
(-42.3256 -50.3674 117.979)
(-0.976593 -8.47972 8.40171)
(-6.47364 -11.0676 10.6064)
(-6.29795 -15.261 11.6399)
(-3.37358 -65.2825 92.0553)
(-17.2917 -41.7922 59.4385)
(-1.87426 -14.0295 8.59643)
(-5.2252 -8.73516 10.6384)
(-5.15907 -8.60121 14.9187)
(-1.72066 -8.54106 14.8655)
(-5.21581 -12.2227 10.6119)
(-1.7242 -11.8896 14.7254)
(-1.70467 -11.9832 10.3204)
(-5.12108 -11.9046 14.54)
(-10.4294 -36.8512 57.8095)
(-19.8039 -56.0929 135.022)
(-3.91604 -39.9529 80.0782)
(-4.90268 -65.7044 126.528)
(-17.1137 -62.6564 123.838)
(-3.08478 -40.1711 60.8348)
(-13.6776 -38.1918 76.8362)
(-14.4683 -31.7093 49.4216)
(-31.9881 -55.6866 126.796)
(-21.5011 -28.2199 54.3981)
(-34.9436 -54.0016 103.281)
(-27.2232 -61.8512 114.461)
(-15.4479 -25.9678 41.9718)
(-19.9165 -34.6191 65.6883)
(-3.95865 -13.717 11.3861)
(-1.58169 -15.2239 19.2665)
(-2.72449 -8.26422 8.26277)
(-0.629121 -9.96285 7.79076)
(-2.88317 -9.77648 7.7025)
(-1.12833 -14.476 12.2481)
(-5.05784 -14.3387 17.7913)
(-5.50372 -31.8299 40.401)
(-4.48718 -67.6243 109.43)
(-11.9778 -61.6854 88.9585)
(-1.63502 -29.3646 29.3803)
(-15.9068 -63.9349 106.658)
(-3.84855 -28.9888 30.9726)
(-1.90579 -33.5198 40.2521)
(-25.9238 -40.2618 28.3062)
(-10.2598 -22.3505 9.41641)
(-14.0628 -21.9016 9.00968)
(-10.5136 -18.9806 10.1527)
(-27.7709 -35.2845 31.6369)
(-21.7272 -38.31 36.7293)
(-14.4265 -18.5251 9.52553)
(-12.2025 -8.70517 10.4382)
(-8.80544 -8.80226 10.7555)
(-8.54993 -8.54677 14.561)
(-8.7092 -12.2011 10.4427)
(-11.7437 -11.7409 14.1976)
(-8.46466 -11.846 14.3438)
(-12.0484 -12.0458 10.144)
(-5.07803 -18.5453 10.0042)
(-5.08611 -18.1198 14.086)
(-1.70968 -18.145 14.0757)
(-5.15685 -15.5076 10.3035)
(-1.70415 -15.1162 14.3293)
(-1.71818 -15.4125 10.2609)
(-5.04085 -15.1006 14.2947)
(-8.40248 -18.4085 9.86191)
(-11.6844 -18.2151 9.78589)
(-8.45266 -18.0778 13.9992)
(-8.52389 -15.3928 10.1012)
(-11.6228 -14.9001 14.1047)
(-8.33893 -15.0374 14.1721)
(-11.8013 -15.2202 9.94721)
(-166.155 105.168 1230.8)
(-4.31656 1.21098 17.4815)
(-115.844 100.256 1228.88)
(-129.452 192.608 1239.39)
(-33.7875 101.942 615.078)
(-50.4188 47.877 765.064)
(-1.49002 99.9955 637.956)
(-36.4654 209.337 1245.14)
(-5.41808 87.9728 1232.87)
(0.432239 4.28062 105.949)
(-76.0412 50.1905 725.471)
(-6.38445 2.09221 30.3748)
(-283.819 115.49 1251.66)
(-180.232 200.802 1243.28)
(-74.557 82.8232 434.708)
(-279.638 214.844 1021.17)
(-64.658 49.878 231.257)
(-426.684 125.741 1290.46)
(-0.37587 0.0809 1.13303)
(-590.952 123.629 1156.37)
(-257.987 154.398 632.477)
(-80.2613 41.2038 148.846)
(-21.5177 13.08 58.2389)
(-0.0983697 0.0518999 0.297426)
(-222.29 110.509 1237.73)
(-146.579 94.9098 1265.22)
(-172.372 150.65 1235.7)
(-152.049 136.152 1254.06)
(-228.173 157.732 1243.2)
(-198.61 99.2238 1250.89)
(-201.855 141.345 1236.63)
(-98.0807 89.0259 1273.51)
(-121.981 143.476 1233.04)
(-105.08 128.907 1264.57)
(-73.4682 95.6037 1228.87)
(-78.0687 137.269 1234.05)
(-56.3981 82.377 1276.08)
(-63.1028 121.365 1270.9)
(-37.937 90.4597 1231.04)
(-6.99721 126.164 1237.66)
(-40.8085 130.103 1236.31)
(-0.953165 71.5844 1274.6)
(-25.3187 75.1105 1275.64)
(-29.3065 112.537 1273.05)
(-2.8606 107.722 1272.21)
(-47.4949 235.156 1248.82)
(-9.57402 231.05 1248.86)
(-5.4259 204.833 1244.74)
(-8.28356 175.173 1242.64)
(-43.8393 179.459 1241.52)
(-32.9999 159.501 1263.75)
(-4.23472 154.649 1263.17)
(-112.081 173.288 1250.32)
(-136.903 247.394 1250.35)
(-117.386 219.432 1227.68)
(-75.1908 214.58 1239.38)
(-89.6747 241.154 1248.61)
(-83.6928 186.485 1240.22)
(-69.7742 166.847 1259.56)
(-157.734 179.956 1236.46)
(-189.21 256.073 1256.12)
(-161.698 223.96 1208.59)
(-236.326 209.419 1252.99)
(-246.677 266.475 1267.75)
(-204.913 184.247 1214.05)
(-206.195 226.254 1177.39)
(-352.063 120.617 1271.04)
(-289.444 164.882 1257.11)
(-358.008 172.627 1275.26)
(-298.862 100.481 1180.16)
(-250.717 101.247 1226.39)
(-251.076 143.471 1206.21)
(-295.578 141.932 1149.66)
(-379.53 290.515 1290.94)
(-247.954 224.294 1121.19)
(-310.521 278.368 1282.2)
(-298.529 218.75 1267.84)
(-367.48 229.038 1283.78)
(-250.87 185.146 1174.4)
(-290.132 181.115 1100.21)
(-501.966 129.43 1293.39)
(-431.777 180.385 1289.75)
(-504.132 186.209 1283.79)
(-334.303 96.111 1090.12)
(-325.497 134.862 1043.07)
(-343.47 86.5144 932.421)
(-326.446 119.688 866.829)
(-507.994 303.285 1242.42)
(-289.398 193.888 861.704)
(-448.947 300.366 1282.56)
(-439.86 238.736 1288.91)
(-507.368 244.939 1269.58)
(-311.906 169.052 970.656)
(-299.943 144.773 769.834)
(-573.436 174.889 1107.25)
(-564.473 129.913 1260.83)
(-560.708 186.707 1238.52)
(-204.625 42.3481 392.669)
(-305.918 69.1131 692.04)
(-276.446 91.724 610.917)
(-169.937 52.2192 320.907)
(-5.6122 5.60549 98.771)
(-53.3884 68.0896 724.922)
(-5.51451 7.29753 85.3591)
(-2.7362 5.26581 105.723)
(-26.4743 43.89 782.8)
(-30.7188 64.4614 750.207)
(-3.15114 7.23216 93.5459)
(-0.902453 4.63351 107.24)
(1.60545 36.6457 781.627)
(-10.3113 38.9855 785.664)
(-12.5961 59.3742 759.025)
(0.175493 6.31419 96.2064)
(0.112004 56.1859 757.04)
(-1.12561 6.75836 96.6696)
(-2.67355 8.52788 57.6539)
(-51.7953 99.5684 576.115)
(-3.90821 7.67129 50.3001)
(-54.3585 86.9434 663.072)
(-4.93285 8.12631 68.4403)
(-33.6776 85.8279 695.919)
(-3.15811 8.58912 76.8198)
(-15.2346 101.737 634.358)
(-1.11478 8.86876 61.602)
(-0.0606216 8.80979 62.4494)
(-14.3712 82.9147 710.534)
(0.00701629 8.29231 81.2688)
(-0.907724 80.2068 711.439)
(-1.20843 8.56314 80.8359)
(-8.03467 5.39708 85.4085)
(-75.8727 69.3459 678.052)
(-7.21165 6.70534 72.115)
(-9.00846 4.51797 67.1507)
(-98.2457 49.2046 658.711)
(-93.8855 66.4444 605.278)
(-7.62852 5.44754 55.6424)
(-66.3112 93.5359 515.99)
(-4.46276 6.37406 40.6788)
(-4.34029 4.86199 30.3821)
(-73.1416 85.1168 608.743)
(-5.95894 7.0456 56.4225)
(-86.2688 78.5501 530.199)
(-5.9889 5.50937 42.7359)
(-8.22115 3.27035 47.5227)
(-109.304 36.1654 435.48)
(-110.853 44.3829 561.114)
(-102.338 58.6766 504.463)
(-5.22487 2.51487 24.7906)
(-6.7768 3.90563 38.9787)
(-97.7367 46.8303 380.618)
(-489.888 243.956 898.13)
(-174.741 95.4088 361.824)
(-534.743 289.802 1133.93)
(-542.641 217.868 1026.24)
(-552.983 241.907 1200.95)
(-232.389 102.021 498.102)
(-126.495 51.8764 234.771)
(-74.4166 67.7924 336.317)
(-3.71175 3.40193 20.7941)
(-2.74559 2.13288 12.6564)
(-90.117 66.9801 427.958)
(-3.96478 2.49905 18.6235)
(-5.19842 3.89169 29.6235)
(-82.6327 51.7099 310.478)
(-92.3728 26.0437 296.795)
(-3.4851 1.455 14.0411)
(-79.9246 33.0096 250.98)
(-2.41144 0.605376 8.57342)
(-62.8737 15.6946 168.608)
(-50.825 18.8548 135.519)
(-1.86434 0.702404 6.61899)
(-44.5982 30.1682 133.017)
(-1.6354 1.11897 6.47871)
(-0.771755 0.475831 2.73872)
(-2.54533 1.40583 10.1685)
(-63.6179 34.6488 193.698)
(-35.822 17.576 95.4842)
(-1.2768 0.635697 4.52544)
(-1.0414 0.239623 3.37838)
(-10.2959 2.17503 24.6587)
(-29.2999 6.67623 71.6178)
(-21.8395 7.41604 54.067)
(-0.276729 0.0903958 0.836217)
(-0.782467 0.27168 2.54187)
(-7.62055 2.41939 18.5653)
(-2.78469 1.45659 7.08585)