/*--------------------------------*- C++ -*----------------------------------*\
  =========                 |
  \\      /  F ield         | OpenFOAM: The Open Source CFD Toolbox
   \\    /   O peration     | Website:  https://openfoam.org
    \\  /    A nd           | Version:  9
     \\/     M anipulation  |
\*---------------------------------------------------------------------------*/
FoamFile
{
    format      ascii;
    class       surfaceScalarField;
    location    "0.00095";
    object      phi;
}
// * * * * * * * * * * * * * * * * * * * * * * * * * * * * * * * * * * * * * //

dimensions      [0 3 -1 0 0 0 0];

internalField   nonuniform List<scalar> 
23758
(
1.32651
1.07946
3.2056
-1.77364
-0.0950023
0.217757
0.16374
0.839886
-0.0317223
-0.668375
0.00506512
0.235865
-3.51156
3.56436
-2.23977
-0.117813
-3.8363
3.86478
-1.55912
-2.57912
-6.24036
0.0492992
-3.73435
-6.57477
-0.0815132
-3.84666
-0.00688314
0.0746946
-6.09275
1.28734
-0.177504
0.114749
-6.51663
1.25136
-0.156113
0.0235963
-3.71774
-1.26873
-0.40688
1.68986
2.47169
4.96367
1.28891
3.60712
0.651585
0.657588
0.650405
0.652298
-0.589097
-0.583565
-0.595197
-0.601007
-0.0164174
0.946368
3.3647
2.18102
-1.99938
0.692821
1.155
4.62929
-0.109789
2.23509
2.5003
-2.52471
1.98395
4.88151
-0.0432385
2.31062
4.76211
-3.66774
-1.23294
-0.165052
2.53222
5.13584
0.26753
0.164308
0.765215
-0.609731
0.00708195
0.625493
-0.479643
0.160314
0.810076
-0.0482447
-0.641437
1.31274
-1.17025
0.167858
0.131435
-0.0383625
0.00304951
2.51179
-0.217405
-0.309203
-0.344698
-0.253551
-0.0990358
-0.0895471
-0.0907147
-0.100275
-0.678064
-0.657669
-0.615485
-0.602477
5.00225
-0.902234
-0.954731
-0.966585
-0.908971
-0.104626
-0.119934
-0.118123
-0.112884
0.0180429
2.54018
5.23892
-0.984097
-0.988625
-0.97535
-0.997235
-0.2966
-0.309743
-0.282085
-0.322069
-0.234486
-3.87136
3.90253
-0.167149
-2.54434
-3.86576
-0.133993
3.82934
-1.5125
5.17499
0.0975334
3.88334
-0.642377
-0.644641
-0.662927
-0.215623
-0.632034
-0.656104
-0.646978
-0.66769
-3.88008
0.134607
5.23348
-0.144578
-1.83294
-2.549
5.23344
-0.171258
-1.38766
5.16892
-6.43407
1.27617
-1.43944
-0.00529362
-1.25509
6.50438
-0.15932
2.52594
-1.45193
0.201145
1.25271
-1.31023
-1.30713
-1.30412
-0.232967
0.0258069
0.0704992
-6.58317
2.53782
-0.116472
-1.56016
0.00388672
2.56262
-1.41685
2.55517
-0.182795
-0.201787
-0.780966
-0.139745
0.168194
0.274128
0.932476
0.154816
0.826621
0.205497
-0.663648
-3.11782e-05
0.806538
0.20595
0.336832
-0.0331652
-0.646384
0.159395
0.216645
1.01214
-0.0340056
0.0046263
0.312585
0.969314
-0.0296754
0.176889
0.310807
-0.632565
0.200331
0.966803
0.00296987
-0.302861
-0.716545
-0.0674222
0.0729946
0.717242
-0.652318
0.0013594
0.767031
0.329119
-0.59721
0.185324
0.286301
0.0055408
-0.625764
0.00621394
-0.163871
-0.82016
0.472712
0.824882
0.171566
-0.0492306
-0.673478
-0.482853
0.807492
-0.623715
-0.470777
0.151705
-0.0337021
-0.046443
-0.652064
-0.158772
1.11475
-0.14706
0.146878
0.171726
-0.043214
0.00165977
0.149156
-1.13617
0.00472224
-1.13499
0.157685
-0.0291072
-0.0435022
0.00429143
-3.72312
3.71659
-2.46235
-3.72008
-0.19747
3.72902
4.99974
0.539961
3.47943
-2.13354
-3.61591
0.0629888
4.91006
-2.51051
4.84628
5.01836
6.50588
-0.125676
3.82693
-1.39443
-3.87207
0.0967017
-0.13615
-3.87632
-6.48329
-1.52013
0.0212394
-6.58571
-0.0768238
-1.434
-0.146533
-1.40902
-6.26027
1.29675
-0.104012
-1.2694
6.31053
-0.135455
2.4786
0.286436
1.22438
-0.14316
0.0210589
-6.17403
2.48002
-0.0757166
2.51165
2.40471
6.31893
-0.0503763
3.74907
-3.68388
0.0179715
-3.76636
-6.31301
0.00871242
-6.21107
0.173681
0.159573
0.850199
-0.677272
-0.0062945
1.18809
-3.96094
3.96855
-2.65115
-2.61815
3.95843
-3.96002
3.98195
-2.65849
-3.91718
1.32062
4.00443
-2.67366
0.0229257
-6.62203
1.16166
-3.90018
-3.96286
-6.7147
-3.92384
1.15879
-6.60202
1.29787
0.00775007
-1.30214
-3.91985
-6.7057
2.62635
-4.02906
-1.25664
-1.32839
2.63581
2.63449
5.36406
0.661589
-0.503521
0.149355
0.842906
-0.649005
0.649741
-0.497263
0.163324
0.832261
-0.636552
0.0018766
1.35745
-1.20338
0.155205
0.13942
-0.0030822
2.64333
2.63373
-0.339748
-0.329236
-0.324795
-0.352075
-0.349796
-0.337846
-0.32869
-0.356681
-0.70005
-0.694181
-0.686269
-0.680205
2.63424
5.34271
-1.02256
-1.03046
-1.01446
-1.03489
-0.341838
-0.351089
-0.322301
-0.361629
2.59567
5.35068
-1.02369
-1.02517
-1.02799
-1.01837
-0.323127
-0.337018
-0.345348
-0.313155
0.00898988
-3.9593
3.97878
-2.66391
-3.98743
-1.18696
3.94686
2.61453
5.31163
1.24377
3.98535
-0.66795
-0.68703
-0.694488
-0.664445
-0.689602
-0.671673
-0.697888
-3.9446
1.18458
5.28923
2.6339
-2.66708
5.31577
2.60816
5.29343
-3.99339
-1.30706
3.94933
2.63083
5.32084
1.31723
3.97128
-0.651579
-0.668886
-0.674031
-0.667665
-0.689037
-0.670505
-0.695063
0.0184929
-3.9499
4.03152
2.66199
-2.70295
-3.90537
1.31751
5.33801
0.0235124
2.64017
-2.67024
5.30275
0.0208472
2.65932
5.36181
-6.67145
1.30104
2.56346
0.0184297
-1.18635
-1.31189
6.69304
2.62412
2.60599
1.31935
1.22131
-1.34516
-1.34594
-1.34272
0.00327356
-6.66328
1.16484
2.59603
2.61961
2.58713
0.0147316
2.61025
2.58101
-0.76726
-0.160905
-0.172371
0.309254
0.306768
0.926728
0.165235
0.815373
0.344695
-0.655355
0.183214
0.809834
0.337156
-0.654282
-0.00356837
0.171504
0.150925
1.02239
-0.0071218
0.345758
0.344428
-0.620623
0.322225
0.981208
0.308645
0.973849
-0.000557717
-0.851324
-0.147642
0.494247
0.155262
0.850261
-0.6798
-0.498838
0.835187
-0.626115
-0.501658
0.129845
-0.676856
-0.859777
0.48314
-0.163243
0.166239
0.8576
-0.687058
0.000457741
-0.495216
0.826303
-0.617023
0.136379
-0.485027
0.00194247
-0.689559
0.000252331
-0.159472
1.13248
-0.178369
0.165942
0.151351
-0.00470874
-1.17012
0.139851
0.154122
-1.16476
0.00135338
0.000900351
-3.99462
4.03102
-2.68884
-3.99391
3.95368
3.95088
5.31741
-3.95723
4.03012
-2.69562
-3.99738
-3.95426
5.37243
-2.67208
5.36398
5.3043
-1.17208
6.64331
3.93176
2.59706
-3.92584
1.15335
-3.91718
-6.62088
2.57094
-6.64659
1.16678
2.58352
2.58693
-3.89537
-6.682
0.0216421
-6.63759
1.30241
0.0233374
-1.30618
6.65833
3.93883
2.63071
-3.90198
1.3179
0.0224889
0.0226009
2.62323
2.65756
-3.92666
-6.71062
6.6503
3.94204
3.95111
-3.98761
-3.93745
-3.93677
-6.6407
1.00122
0.385763
0.355534
0.365344
0.399625
-0.140042
-0.18181
-0.113806
-0.22053
-0.0973555
0.0303658
0.1694
0.151147
-0.506646
-0.00815562
0.212797
0.157062
-0.497658
0.00558572
0.840167
1.0934
-3.20945
-0.0203664
-2.14685
1.28771
-0.0246977
-0.0784598
-0.0900478
-0.0939076
-0.0801969
-0.893671
-0.947104
-0.956877
-0.896255
1.0379
3.35678
-1.01619
-1.99218
-2.33853
3.66705
-0.671551
-0.0752872
-0.0683724
-0.0821259
-0.0618378
-0.220068
-0.31484
-0.344674
-0.25424
-0.606964
-0.650938
-0.594831
0.956532
0.380351
0.365022
0.374477
0.397487
-0.157195
-0.202481
-0.131006
-0.240499
-0.032821
-0.912454
0.129407
0.555948
-0.459141
0.0111051
0.221999
1.25711
-0.345542
-0.353417
-0.366485
-0.323833
-1.0159
-1.02445
-1.00826
-1.02852
-2.6399
-1.32709
3.95768
-3.95985
1.33484
-0.994061
-0.99757
-0.990452
-1.00084
-0.344813
-0.358352
-0.329558
-0.364313
0.0197717
0.0381717
0.00166995
0.14116
0.152527
-1.20327
-0.00676159
-2.5979
3.90707
1.34184
-3.96217
0.0288846
0.161842
0.154233
-0.507583
0.000933599
-0.630329
0.171276
0.816817
-0.506799
0.00166115
0.909557
0.590188
-0.00876292
-0.453825
0.151029
-0.885142
0.880264
-0.865501
-0.460577
0.135065
0.00311023
1.50251
-0.934686
2.03516
0.0179974
0.0796386
0.34507
0.114978
-0.0262067
1.17217
-0.0147818
0.191486
0.211512
-1.14416
0.0123107
0.693898
2.51529
-0.341732
-0.305292
-0.312254
-0.344183
-0.344825
-0.290412
-0.347679
-0.299102
0.705914
0.703538
0.706824
1.78855
0.0269561
0.381408
0.361538
0.372402
0.401308
-0.164503
-0.204991
-0.134605
-0.247228
0.632282
0.632186
-0.000576044
-0.477459
-0.473374
0.166143
0.0298561
0.646789
-0.486951
-0.487019
0.153433
0.626753
-0.473684
-0.476861
0.16297
0.0018994
0.0412613
0.00278732
0.166627
0.171701
0.161602
-0.00566045
0.0291153
0.677325
-0.000317217
0.154101
0.163403
-0.508096
0.665682
0.00375375
0.157639
0.159911
-0.499828
0.00386275
0.694446
0.686331
-0.499936
-0.488478
-0.495893
0.600765
-0.0119918
-0.460597
0.542996
0.151617
0.442541
-0.476122
0.124648
0.0104617
0.637427
-0.47911
-0.482279
0.195322
0.00784525
0.158933
0.179309
0.160394
0.00618184
-0.0175322
0.201115
0.232769
0.974177
0.0157718
0.66787
0.00304459
0.203584
0.160092
-0.497669
0.666034
-0.518404
-0.503062
0.426303
1.26544
-3.60948
-0.0293486
0.496926
-3.39649
-3.72653
1.80317
1.31172
-1.41425
0.681246
-0.0251886
-0.588329
-0.582853
-0.597406
0.679053
0.682533
0.676464
0.991288
-1.02508
2.28725
0.00192617
-0.116649
-3.64723
-0.30195
-0.320593
-0.328255
-0.296614
-0.976887
-0.991039
-0.979881
-0.991811
-0.00149499
-0.0369307
0.155446
0.141693
-1.17677
-0.0097878
0.76487
0.342527
0.189028
-0.0485638
0.813684
-0.484151
0.156806
0.00305535
-0.0313535
0.839214
0.21024
0.167145
-0.643535
-0.602475
-0.588249
-0.234486
-0.331629
-0.270737
-0.361224
-0.0841283
-0.0829585
-0.0766897
-0.0912738
3.72672
-1.2672
-2.51091
0.521536
-1.06547
-1.22217
1.83769
0.846523
-3.20301
-3.61898
2.15631
-1.4351
0.686569
-0.591446
0.690105
0.684284
0.682143
-0.592688
-0.582941
-0.59865
-1.78149
-1.24794
-0.100313
-0.0757234
-0.0901776
-0.0927864
-0.0781986
-0.898015
-0.949421
-0.900279
-0.961595
0.156445
0.138717
-1.18716
-0.646997
-0.0519983
0.153389
0.821912
-0.486331
-0.221608
-0.298357
-0.319349
-0.325332
-0.295284
-0.981183
-0.996903
-0.995173
-0.986127
-0.603398
0.169512
0.769258
0.352815
-0.679647
-0.0307454
0.850082
0.172169
0.208287
-0.887002
0.134787
-0.450579
0.00753416
1.55738
-0.950329
0.704253
-0.336606
-0.292186
-0.339922
-0.300277
-0.335139
-0.290686
-0.338318
-0.298818
0.721995
0.721497
0.726007
0.913331
0.133072
-0.453601
-0.887863
0.111033
0.346056
0.114983
-0.0202013
1.17726
0.187337
0.189907
-1.14847
0.0124736
0.38687
0.365082
0.403946
0.374653
-0.156382
-0.205309
-0.13086
-0.242539
-0.511885
0.470984
-0.50698
0.201765
0.164763
-0.510463
-0.00282107
-0.0301474
0.18837
-0.487761
-0.488919
0.127974
-0.462814
0.555108
-0.0311083
0.173884
0.165193
0.173728
-0.00785441
0.200122
0.202574
0.985726
0.0154763
-0.0283739
0.164982
0.201508
-0.510104
0.155873
0.142043
-1.20075
-1.34702
-3.99852
2.61295
0.000755163
-0.325891
-0.339957
-0.348381
-0.316145
-1.01645
-1.01921
-1.01983
-1.01182
0.65337
0.000451557
0.827277
-0.501069
0.166552
0.838685
-0.50419
0.148939
-0.00109705
0.849375
0.162095
0.170335
2.63747
-0.680249
-0.68935
-0.675235
-0.35339
-0.342481
-0.332219
-0.361495
-0.340505
-0.329678
-0.32574
-0.352377
3.92564
-3.93278
-1.33887
-3.99251
-3.96221
0.0083809
3.93303
1.34306
-0.657437
-0.000752957
-0.67324
-0.65489
-0.677294
-0.680128
-0.662045
-0.684902
-1.34772
-3.95379
-2.66591
-2.63304
0.00231907
-2.63942
-0.00169114
-0.498673
0.817997
0.173004
0.812258
-0.508985
0.167669
0.00393811
-1.36582
-3.98392
-0.00280945
0.160587
-1.17193
0.152659
0.0044384
0.000886994
0.166184
0.173343
0.831343
0.00517763
-0.00499143
-0.996524
-1.00188
-1.00408
-0.993992
-0.336948
-0.349821
-0.320558
-0.355154
-0.675058
-0.674475
-0.668221
-0.352585
-0.348424
-0.333824
-0.36452
-0.345337
-0.34351
-0.327522
-0.358258
1.35027
-0.323754
-0.33819
-0.345231
-0.314245
-1.02546
-1.02712
-1.01885
-1.02931
-0.644715
0.838564
0.148285
-0.502986
1.24728
-0.344416
-0.351302
-0.364958
-0.322006
-1.02133
-1.02707
-1.03284
-1.01264
-4.02379
2.62799
2.62621
-0.699998
-0.338833
-0.328419
-0.350128
-0.324296
-0.353629
-0.341552
-0.361618
-0.33193
-0.693115
-0.685864
-0.679513
0.650231
-0.640351
0.835714
0.166222
-0.497903
-0.677762
0.850458
0.168274
0.162111
1.35555
-3.99258
3.94353
-3.9839
-4.01983
3.9416
-1.34307
-2.6607
-1.35211
-2.69298
3.91913
-0.664397
-0.670454
-0.652004
-0.673975
-0.670029
-0.687264
-0.692104
-2.66192
-0.484005
0.155393
-0.484481
-0.475564
0.163638
-0.481287
0.000630364
0.685762
-0.48762
-0.500191
-0.499948
0.630288
0.163728
-0.47557
-0.481075
0.170105
0.170419
0.172687
-0.00307682
0.162396
0.154425
-0.507972
0.67418
0.164444
0.164083
-0.508717
-0.00347058
3.97829
-0.349083
-0.347395
-0.362241
-0.331852
-0.674484
-0.674474
-0.668616
-0.34904
-0.347255
-0.362044
-0.331694
-1.35662
-1.35631
-0.99466
-1.00069
-1.00136
-0.993967
-0.342688
-0.35506
-0.324872
-0.361529
0.00471081
0.171224
-0.506607
0.816823
0.15526
-1.17725
0.154668
0.0032962
0.172897
0.17264
0.838914
-0.000688951
-0.994668
-1.00072
-0.994056
-1.00141
-0.342488
-0.354595
-0.324484
-0.36125
0.468417
-0.163836
-0.181532
0.352083
0.338277
-0.315603
0.156135
-0.492946
0.0264422
0.330043
0.169169
-0.494841
0.316575
-0.00398097
0.174364
0.161986
0.0308498
-0.338407
-0.00418168
0.325647
0.323741
0.0290129
0.343737
-0.329787
0.333658
-0.332801
-0.00556186
-0.218792
-0.172518
0.4836
0.177279
0.341085
-0.333886
-0.501832
0.165424
0.182194
0.00222525
-0.485464
0.201537
0.321212
0.165293
0.217965
-0.330325
0.00587792
0.336556
-0.325256
0.162571
-0.343786
0.00222533
0.169107
0.321244
0.456488
-0.601048
-0.151773
0.333949
-0.15434
-0.336595
0.559726
-0.448905
-0.892346
0.277707
0.138784
-0.475655
-0.152776
0.00830359
0.142231
0.661331
-0.958001
-0.353129
0.0160287
0.296307
-0.143402
-0.926674
0.318742
-0.323293
-0.132312
-0.358297
0.00912889
1.1316
-0.158254
-0.180605
-0.925845
0.156981
-1.16435
0.000412423
0.138313
-1.16851
0.0303176
0.163081
0.152517
0.0524299
0.0017151
-1.02245
0.0561885
-0.979824
-0.000234232
-0.972743
0.47193
-0.165372
-0.176459
0.351525
0.339067
-0.320319
0.156498
-0.497441
0.0274792
0.325005
0.164596
-0.493987
0.319024
0.00266175
0.170619
0.167443
0.0274519
-0.340467
0.000719977
0.323873
0.324284
0.0284899
0.342164
-0.335727
0.338684
-0.332279
0.00198888
0.496864
-0.830546
-0.160206
-0.307972
0.808011
-0.50651
-0.614141
0.139803
-0.498376
0.00161264
0.168133
0.837191
-0.668333
-0.343345
0.00112144
-0.660984
-0.350482
-0.313444
0.00141119
0.888668
0.409952
-0.196599
-0.24374
0.159282
-0.927986
-0.354985
0.954337
-0.0160298
-0.452533
-0.857698
0.880327
0.197148
-0.423775
-0.000201726
-0.322193
0.910601
-0.281969
-0.00197676
0.408025
0.88472
-0.201998
-0.236627
0.206023
-0.419769
-0.0123242
0.135565
-0.916112
-0.370469
0.937837
0.0118267
-0.846232
-0.464699
0.864575
-0.34016
0.904631
-0.274255
-0.00930822
-0.038505
-0.0649841
-0.268244
0.617748
0.30933
0.149251
-0.0279663
0.0365282
0.00903538
0.794606
0.0148398
-0.0186093
0.3134
0.106823
0.0176697
0.705919
0.0103074
0.695549
-0.021189
0.986661
-0.11596
-0.11993
0.183602
-1.06345
1.08555
-0.0155572
0.15807
-1.05581
1.0767
0.0124584
0.133893
0.128375
-4.36512e-06
-0.00421167
1.0033
-0.00265019
-0.00406312
0.517641
0.500381
-0.178859
-0.337277
-0.352074
0.356367
0.173444
-0.513313
-0.320012
0.683724
-0.00158814
0.169197
-0.498715
-0.316892
0.66593
-0.00101585
-0.474086
-0.45427
0.310042
0.610057
0.615831
-0.324566
0.343751
0.683232
-0.308627
0.336262
0.662483
-0.334509
-0.344492
-0.00158849
0.512898
-0.16836
0.510367
-0.351859
0.352732
0.15445
-0.509988
0.0373339
-0.508491
0.155433
-0.326928
0.0364948
0.676634
-0.468507
-0.470467
0.30294
0.622004
0.332036
-0.343287
0.0335933
-0.32573
0.332914
0.671553
0.521702
0.500497
-0.179021
-0.353221
0.355854
0.172299
-0.515983
-0.00147805
0.165392
-0.497303
-0.319633
0.66385
0.00124589
-0.472484
-0.460731
0.307521
0.614067
0.342086
-0.314603
0.332183
0.662588
-0.346977
-0.00176024
-0.152876
-0.156838
-0.158159
0.314738
0.317084
0.173199
0.148223
0.0367638
-0.00794055
0.163049
0.154008
0.341538
0.0319084
0.0035945
0.167466
0.166125
0.334749
0.00153249
-0.00372936
0.338101
0.0297229
0.333046
0.319086
0.00341523
0.314392
-0.000920375
-0.161774
0.465253
-0.179906
0.169534
-0.49395
0.651725
-0.00251786
-0.498472
0.156602
0.02698
0.65738
0.172017
0.161998
0.0330001
-0.000410193
0.0326304
0.615205
-0.00196356
0.471952
-0.177053
-0.177933
0.15841
-0.478373
0.638946
0.00129609
0.152199
-0.474798
0.635862
0.00586564
0.173559
0.175904
0.00067629
0.000449072
0.627125
0.00231445
0.000204584
0.523069
0.520562
0.517598
-0.506385
-0.504988
-0.517515
-0.520478
-0.505602
-0.50977
-0.556682
0.451385
-0.173267
-0.333246
-0.172617
0.348226
0.171888
0.649524
-0.354159
-0.0180817
0.155265
-0.474647
-0.15713
0.644958
-0.00834029
-0.445812
0.514282
0.296088
0.582794
-0.32241
0.33982
-0.156559
0.30904
0.613736
-0.35768
-0.142499
-0.00972047
-0.53008
-0.153477
0.468262
-0.350823
0.333419
-0.488709
0.137173
0.00744782
0.139908
0.592896
-0.378902
0.016218
-0.465429
0.462476
0.267161
-0.347385
0.314377
-0.376416
0.0111518
0.290553
-0.224497
0.492621
0.501359
-0.347509
0.191045
-0.504744
0.214459
-0.500327
0.211608
-0.323803
0.667203
-0.473103
-0.466271
0.154709
0.61675
-0.340085
-0.327013
0.164171
0.643219
0.171424
-0.195994
-0.168279
-0.156541
0.116086
0.324691
0.156893
0.193527
0.00743114
0.172568
0.173653
-0.00823745
0.00274285
0.00405443
0.160754
0.184447
0.331099
0.00344627
0.323128
0.0572702
0.342421
0.000996597
0.074698
0.0128728
-0.70308
-0.191357
-0.166021
0.201734
0.840947
-0.0186143
0.167742
0.820143
0.0177283
0.18915
0.214711
-0.0092552
0.0121013
-0.00915575
0.0156983
-0.220016
0.474491
-0.179212
0.172656
-0.499449
0.659876
-0.00492207
-0.483857
0.197413
0.644169
0.168991
0.212948
0.00312812
0.623401
-0.00305653
-0.434572
0.406489
0.423088
-0.501013
0.450883
-0.517163
0.438933
-0.430818
-0.415116
1.10749
-0.155983
-0.147655
-0.922358
0.158994
-1.13122
-0.00314723
0.149851
-1.13785
-0.0277015
0.157878
0.159025
-1.00972
0.000233836
-0.0512177
-0.961391
-0.00365757
-0.963044
-0.0523097
-0.706441
-0.372531
-0.0851326
-0.145637
0.208241
0.382943
-0.00823252
0.091299
0.704758
-0.186317
-0.00681883
0.389735
0.763732
-0.163971
-0.173421
-0.00785234
-0.812236
-0.158218
0.479138
-0.280143
-0.479539
0.150158
-0.0305115
0.165574
0.828562
-0.338839
-0.0521192
-0.486312
0.802143
-0.313136
-0.314958
-0.0444335
-0.770852
-0.147981
-0.191635
0.204683
0.164596
0.00123288
-0.0299479
0.161351
0.820597
-0.00372356
0.203444
0.802522
-0.0349258
-0.00373007
-0.0284476
1.11272
-0.149297
-0.148957
-0.929081
0.153514
-1.1356
0.15153
-1.14659
0.157664
0.157946
-1.01947
-0.966335
-0.971777
0.47573
-0.817438
-0.156489
-0.275196
0.804429
-0.483341
-0.619665
0.149687
-0.479814
-0.0331171
0.162001
0.836712
-0.344498
-0.675816
-0.0544648
-0.309877
-0.650706
-0.316643
-0.0467407
-0.0728397
-0.391659
-0.711978
-0.139394
0.77089
0.402365
-0.589753
0.393267
0.190658
0.706929
0.0762292
-0.183131
-0.647219
-0.170636
-0.155276
-0.61898
-0.139516
-0.778433
-0.190775
0.203771
0.165281
-0.0306168
0.200721
0.811312
-0.653183
-0.0358425
0.825679
0.15398
-0.665422
-0.633537
-0.031566
0.405209
0.899403
-0.193988
-0.238938
0.196198
-0.41964
-0.00119334
-0.865174
-0.452405
0.136735
-0.929548
-0.351878
0.0134978
-0.321617
-0.27866
0.000238828
-0.192862
0.406705
0.900925
-0.23875
-0.864886
-0.454594
0.891857
-0.932337
0.134447
-0.354439
0.960387
-0.421933
0.194861
-0.279143
-0.322999
0.92752
-0.0536905
-0.0551229
-0.275348
0.625403
0.315634
0.141152
-0.0203915
0.033475
0.0314984
0.797093
-0.0173588
0.316102
0.138081
0.70773
0.706742
-0.0123879
-0.11445
1.00037
-0.115646
0.15861
-1.06786
1.09124
0.0131444
-1.06895
0.156786
1.09237
0.132158
0.130841
-0.00236786
1.02033
0.000312036
0.409913
0.416415
-0.486076
-0.170783
-0.337189
0.492508
-0.504682
-0.422939
-0.41845
-0.135017
0.489946
-0.509142
-0.275068
-0.145198
-0.147234
-0.292784
-0.317413
0.48536
-0.173151
-0.211279
0.344607
-0.336696
0.164348
-0.505094
0.0041623
0.19271
-0.493493
0.328626
0.206316
0.174216
-0.344194
-0.00294136
0.322439
-0.348085
0.00261226
0.345565
-0.332596
0.497634
0.500466
-0.215172
-0.344134
-0.469982
-0.469105
0.20491
-0.510734
-0.0349582
0.204731
-0.509521
-0.329051
-0.0339812
-0.322711
-0.346223
-0.029163
-0.152031
0.456864
-0.600924
-0.337996
-0.154602
0.558627
-0.451671
0.664218
0.14021
-0.356096
-0.478062
0.13691
-0.152994
-0.360189
-0.132007
-0.143683
-0.325182
-0.169661
-0.170158
-0.188076
0.0940722
0.337592
0.179737
0.166795
-0.0298372
-0.00318576
0.177774
0.177291
-0.0271692
-0.0032629
0.179459
0.167279
0.343844
-0.0295571
0.0453635
0.348565
0.0459422
-0.00116862
0.331848
-0.0311277
-0.167689
-0.742967
-0.169303
0.169373
0.854809
0.0166914
0.856124
0.167381
0.190237
0.18857
0.00826943
0.00836532
-0.172921
0.486778
-0.211401
0.192936
-0.492676
-0.0277842
-0.505791
0.163813
0.206177
0.174613
-0.0272194
-0.028619
1.12518
-0.160395
-0.181502
-0.919441
0.140919
-1.16534
0.158322
-1.15938
0.166246
0.153171
-1.02065
-0.977279
-0.968859
-0.852634
0.485309
-0.166222
-0.307672
0.139753
-0.489853
-4.90793e-05
0.168395
0.852491
-0.340576
-0.00013403
-0.49705
0.819131
-0.344805
-0.313253
-0.00124102
-0.844935
-0.148496
0.49681
-0.310722
-0.503015
0.129687
0.155591
0.845823
-0.342945
-0.500628
0.829769
-0.345455
-0.321795
-0.76051
-0.162522
-0.174276
0.168883
0.155596
-0.00164889
0.182686
0.80579
-0.000994962
0.165354
0.813758
1.89272e-05
-0.832146
0.490479
-0.163679
-0.302875
0.169736
0.835294
-0.335441
-0.00120759
0.142525
-0.490694
-0.00173312
-0.498723
0.809929
-0.342608
-0.307512
-0.0014031
-0.831378
-0.158533
0.499252
-0.310823
-0.49976
0.136973
0.00322258
0.164408
0.832019
-0.343856
0.00309913
-0.507543
0.807812
-0.350528
-0.315542
0.00201061
-0.183313
-0.174388
1.12037
-0.927266
-1.13932
0.146291
0.00690623
0.164293
0.173713
-0.998393
-0.00262492
0.00580323
-1.14193
0.15535
-0.0019229
-0.95729
-0.00217959
-0.954282
0.00677751
-0.778048
-0.164502
-0.15538
0.177837
0.797685
0.00053047
0.171624
0.794805
0.00569066
0.158396
0.166396
-0.000999839
0.00678343
-0.000550412
0.00848583
0.497134
-0.1476
-0.850595
-0.31126
0.127619
-0.500065
0.832587
-0.500635
-0.623174
0.849708
0.15591
-0.341814
-0.678616
-0.318462
-0.346518
-0.676446
-0.16526
0.482596
-0.861171
-0.306033
-0.487064
0.139726
0.827697
-0.494575
-0.61874
0.857305
0.167966
-0.338933
-0.68684
-0.311833
-0.343821
-0.691351
-0.160726
-0.173174
-0.767199
0.165231
0.155796
0.815272
0.164927
-0.657771
0.808345
0.180574
-0.65284
-0.622218
0.513538
-0.173191
0.513602
0.355874
-0.351488
0.15824
-0.509226
-0.468628
-0.468787
0.303724
-0.508805
0.158303
-0.32552
0.334434
-0.342558
0.334248
-0.324049
0.524059
0.499945
-0.177495
0.356354
-0.357302
0.171246
-0.516525
0.00147575
-0.472565
-0.462919
0.308976
0.1664
-0.501488
-0.32422
0.000915521
0.343185
0.334309
-0.316845
-0.346981
0.0014135
0.522323
0.522844
0.519487
-0.355905
-0.519784
-0.519441
-0.506451
-0.509075
-0.506367
-0.509302
-0.308928
-0.342862
-0.334152
-0.177197
0.524458
0.499861
-0.338955
-0.357688
-0.472452
-0.463017
0.614047
-0.516537
0.171064
-0.319068
-0.501605
0.166263
-0.323937
0.668429
-0.338793
-0.346949
-0.324102
-0.316936
0.660897
-0.162734
-0.151085
-0.163079
0.32073
0.314628
0.170005
0.156818
-0.00375528
0.157101
0.169832
0.340789
0.166599
0.166393
0.344555
-0.00171772
0.332563
0.322477
0.335877
0.322206
-0.00370421
-0.176461
-0.165187
0.472371
-0.497546
0.156198
-0.49433
0.164754
0.167595
0.170933
-0.182252
0.469012
-0.182573
0.160985
-0.481839
0.642847
-0.00145933
-0.482113
0.160898
0.643075
0.17525
0.175345
-0.000591789
0.624919
-0.00262065
-0.160203
0.496803
-0.83052
-0.307963
0.807986
-0.506555
0.837295
0.167974
-0.343166
-0.498028
0.139659
-0.313226
-0.350569
-0.17937
-0.179259
1.12133
-0.926847
-1.14442
0.151392
0.00218908
0.166076
0.166524
-1.00447
0.0029838
-1.14454
0.151651
-0.960679
-0.960479
0.00229813
-0.162591
-0.776796
-0.16258
0.179673
0.801431
-0.000704886
0.80162
0.179567
0.162577
0.162756
0.00107595
0.000495285
6.62391
1.36242
4.02236
-5.27417
-2.70101
-9.2
1.42601
4.26719
11.1135
-2.82752
-6.61583
3.87708
-3.88628
7.82421
-2.60131
-9.33384
4.24797
-4.28977
10.988
-2.86655
-6.58783
1.3191
-6.39697
7.82246
-5.13818
6.39266
-6.59681
-3.88841
7.81809
-9.79924
1.37862
-6.86194
10.4901
-5.48229
-9.83342
6.63992
-4.10574
10.4907
-3.89318
-6.61744
-1.31155
2.60124
5.15262
7.84109
1.31594
3.89219
7.86601
-2.61394
6.64355
4.02989
2.70203
-5.28601
-2.70797
1.35619
6.59464
5.33866
-5.24596
2.61048
7.88948
-2.61598
2.69266
5.34385
-5.27022
5.15267
7.82327
4.01656
-4.02738
-5.27034
-2.69256
-6.60595
-3.87717
7.79997
-4.01679
5.32683
-5.26284
-3.88603
-6.6156
5.14596
7.824
6.63225
4.02703
-5.28102
-2.70176
7.86477
-2.61034
5.34326
-5.27016
1.34868
-6.648
-5.22202
6.60292
-6.64938
2.6943
-5.23689
-6.39676
2.62352
7.83348
-6.59525
-1.30836
2.60065
7.80408
1.34396
6.57636
-5.23229
2.66893
-5.25529
7.79231
-4.00735
-1.35325
9.28184
2.6952
5.3568
1.3492
3.9974
-2.67429
-9.24757
4.2808
2.85747
11.128
-2.84359
-9.23348
1.4329
5.66529
11.0589
2.68151
-2.67959
5.34261
2.86578
5.65013
11.0468
-6.68098
-3.90208
7.91856
-6.59791
-4.05771
-5.28221
-3.98712
-5.25318
6.62274
-6.6375
-5.24642
-6.38824
7.8581
-6.59113
7.79539
-5.25168
4.04627
-4.01615
-2.69558
-9.52094
-4.24773
10.8717
-4.04615
5.41146
-4.01604
9.33364
5.3732
-9.26312
4.28966
11.0829
-2.85792
-2.68153
5.59834
10.9877
1.37666
-6.72086
-9.80111
-6.82817
2.71382
10.4253
-6.73451
2.73567
-1.36707
9.50145
2.7276
-9.44461
1.41888
10.9051
2.80097
10.8582
6.79458
-4.08862
-9.8171
-3.99969
10.2932
-4.09524
-9.81897
-6.74884
10.3838
-6.75248
9.69106
10.7571
-3.96762
1.2145
3.9599
0.187934
-2.6374
0.162427
0.166406
0.845118
0.0253706
-0.671997
-3.94396
1.36924
4.01951
-2.69064
4.048
-3.95584
-4.04055
-2.7111
1.31844
1.18203
-6.59509
0.141813
-1.19413
-6.63096
-3.96885
2.59696
-3.90923
1.3471
-6.69167
-6.71251
-3.94668
-4.00837
-3.99717
-1.21412
3.99925
-2.68259
2.6263
5.31967
1.2627
3.9684
-0.659303
-0.66759
-0.68343
-0.695937
0.245815
-0.659625
-0.683463
-0.667392
-0.695742
-3.9967
3.99995
2.62628
-2.68356
-3.95968
1.2065
5.28403
0.175453
-2.6736
2.64345
-2.67429
-2.63775
5.29858
0.190918
2.61608
5.31207
-4.02728
-1.27961
-1.35817
2.64841
5.36397
-0.499477
0.154797
0.835288
0.0402472
-0.640808
0.656544
-0.503735
0.167167
0.838118
-0.643452
1.35385
-1.19781
0.149437
0.148218
0.0268586
2.64509
-0.345011
-0.334
-0.355938
-0.329907
-0.353247
-0.342207
-0.331631
-0.362963
-0.699657
-0.692673
-0.685946
-0.678031
5.32696
-1.01873
-1.02521
-1.03135
-1.01188
-0.340926
-0.348006
-0.31906
-0.363998
0.245181
2.61916
5.35428
-1.02358
-1.02861
-1.01831
-1.02906
-0.329821
-0.343299
-0.319787
-0.351476
-4.00264
-1.35549
3.95844
2.68845
5.32922
1.36029
3.98465
-0.65916
-0.676717
-0.68023
-0.66825
-0.692511
-0.673781
-0.696158
-3.95856
4.03602
2.71157
-2.71374
-3.9266
1.36717
5.35071
2.69021
-2.67855
5.3181
2.71194
5.36024
1.18785
-6.64191
2.62657
0.125961
1.34094
-6.67325
2.58113
-6.6917
2.65739
2.5922
-1.21081
-1.34854
2.67306
2.6196
1.33251
1.24367
-1.34252
-1.3441
-1.34042
0.218742
2.64076
0.191456
2.60684
-0.172243
-0.765146
-0.167926
0.308916
0.313106
0.924521
0.173349
0.812301
0.336617
0.0250507
-0.653022
0.808411
0.177105
0.34402
-0.651835
0.16169
0.160058
1.01755
0.0248184
0.318344
0.972952
0.342425
0.351205
-0.619145
0.313163
0.978249
0.0237683
0.494904
-0.847776
-0.154415
0.162258
0.848718
0.0409878
-0.676349
0.830292
-0.498554
-0.620442
0.13352
-0.494339
0.0238647
-0.673061
0.0367479
-0.164102
-0.858395
0.489043
0.857569
0.167701
-0.687821
-0.501616
0.827738
-0.618956
-0.493184
0.141127
-0.688845
-0.179743
-0.166063
1.13079
0.158577
0.159754
0.0380591
-1.16747
0.145153
0.0189325
-1.16382
0.157722
0.036302
-3.9501
-4.04875
5.38039
4.00935
-4.01048
-2.6879
-4.00998
5.32468
-4.00998
3.95578
5.32992
-3.96225
4.03993
-2.71085
-2.68995
5.3679
-6.60958
-3.93966
0.0651462
-1.18338
-3.98696
2.596
-3.95564
0.170403
1.18776
-6.62575
0.112131
-6.64717
2.59114
-1.20004
2.60812
0.163183
1.35106
-6.65146
-3.92376
-6.70044
2.67403
-6.66458
2.67578
-1.35542
3.9456
2.68699
-3.91992
1.36472
2.70747
-3.93569
-4.03623
-6.64945
-3.98777
-4.0095
-3.92721
-6.70867
-6.65733
3.94073
-0.319495
-3.48047
-3.46362
4.84994
0.215573
-3.90669
3.92932
-2.58992
0.905272
1.28817
3.21464
-1.75739
0.172724
0.212752
0.854627
-0.683424
0.935541
0.035839
-6.12581
-0.392307
-6.20678
-3.52844
0.111863
1.30349
-6.55039
0.0653023
-6.61269
-3.90485
-3.86976
3.86988
-0.218023
-2.56957
-1.20549
5.19676
-3.86546
3.87125
-1.20344
-2.57315
0.201493
3.91087
-0.652136
-0.654343
-0.672604
-0.675479
-0.65217
-0.670918
-0.655409
-0.675001
0.238795
-3.9324
5.2692
-2.53373
-1.57517
-2.53951
-0.984086
5.19475
-2.5735
5.26161
-3.69214
-1.15791
-0.249482
1.52408
2.3654
4.96972
0.816057
3.35792
2.03533
-1.96751
1.23075
3.60702
0.643628
0.646672
0.642488
0.642011
-0.586342
-0.579198
-0.586401
-0.593575
0.663062
0.92534
4.65655
2.11096
2.42224
-2.48307
1.95594
4.90536
2.10265
4.7665
-3.66683
-1.26887
-0.218106
5.15188
-0.501568
0.166479
0.832288
-0.652338
0.245675
0.180029
0.763636
-0.611577
1.33888
-1.19303
0.161435
0.143716
-0.114838
-0.11268
-0.108724
-0.120596
-0.242328
-0.324091
-0.276334
-0.360563
-0.675512
-0.61999
-0.655039
-0.610145
5.03012
-0.908362
-0.956237
-0.913945
-0.968135
-0.108476
-0.116504
-0.110598
-0.120155
5.26136
-0.995293
-1.01277
-1.008
-0.998669
-0.307195
-0.328568
-0.331856
-0.304894
1.27768
-6.46717
-1.4
0.123518
-6.60838
2.59387
-6.53087
2.57639
-1.19065
-1.27427
-0.210351
2.55703
-1.24989
0.196927
1.30562
-1.32227
-1.33042
-1.31884
-1.53098
2.60717
-0.794007
-0.146966
-0.199055
0.28541
0.173883
0.943216
0.203433
0.821071
0.346271
-0.661124
0.157835
0.835189
0.203174
-0.673333
0.2111
0.168403
1.0246
0.318726
0.18331
-0.647792
0.198757
0.977293
0.323323
0.98262
-0.829438
0.485634
-0.16777
0.172825
0.844976
-0.682702
-0.492221
0.816324
-0.629803
0.159173
-0.494589
-0.661721
-0.721882
-0.0859333
-0.273168
0.0920068
0.722466
-0.658429
0.309591
0.763316
-0.592315
0.274103
0.19939
-0.631265
-0.156264
1.12584
-0.157271
0.166871
0.161299
-1.14754
0.159243
0.155087
-1.15769
-3.66014
-3.65108
4.98496
-0.0913241
-3.4091
-2.12623
-3.66452
-2.37992
-3.68046
0.0882085
4.98616
0.304785
3.43309
-2.06706
-2.44447
4.81663
-6.50842
-3.89677
-1.05132
-0.230819
-3.86756
-0.918922
-3.93532
0.128953
-6.61077
-6.5321
-1.0557
-0.209337
-1.04688
-0.197688
-6.18459
2.188
1.09054
-6.29537
-6.33077
2.34261
-1.1114
0.0564325
2.34287
0.257745
0.929692
2.14948
-6.28798
-3.6418
-0.419784
-3.50249
-3.65184
-0.345056
-6.19833
-6.31694
0.276879
-5.48777
2.41953
-2.43221
6.45125
-1.96293
-2.48998
-5.4846
1.51483
2.91346
6.27139
-1.05331
-4.78784
-9.6748
2.59669
4.86654
5.97913
-1.95719
-4.01592
-5.67009
1.34452
5.05401
-1.10714
-4.60965
5.27488
5.27541
9.25384
-4.6098
1.50512
-3.353
-5.31676
6.53645
-1.03831
-1.9884
2.48677