/*--------------------------------*- C++ -*----------------------------------*\
  =========                 |
  \\      /  F ield         | OpenFOAM: The Open Source CFD Toolbox
   \\    /   O peration     | Website:  https://openfoam.org
    \\  /    A nd           | Version:  9
     \\/     M anipulation  |
\*---------------------------------------------------------------------------*/
FoamFile
{
    format      ascii;
    class       volScalarField;
    location    "0.0022";
    object      T;
}
// * * * * * * * * * * * * * * * * * * * * * * * * * * * * * * * * * * * * * //

dimensions      [0 0 0 1 0 0 0];

internalField   nonuniform List<scalar> 
18252
(
671.372
761.977
624.071
700.426
717.562
794.298
652.269
664.049
754.592
669.996
739.652
657.92
579.267
741.519
712.21
652.105
604.045
602.738
731.91
663.747
722.022
650.202
707.285
735.287
714.548
813.671
732.135
759.746
792.176
748.5
775.539
621.194
660.647
628.883
690.443
654.96
661.517
695.685
664.531
743.681
740.365
714.345
714.524
763.667
832.027
573.424
598.686
592.649
597.459
619.241
625.78
605.02
639.73
684.271
672.061
669.863
708.218
678.689
702.334
588.327
581.209
573.018
596.571
615.943
633.351
608.245
635.383
617.575
645.123
671.689
645.172
663.795
689.708
671.867
744.473
722.211
707.789
720.037
808.307
688.242
718.392
711.397
684.889
689.441
739.606
714.04
720.604
689.184
693.852
670.614
696.972
723.92
714.474
742.323
603.457
695.813
700.463
697.388
694.084
668.589
602.735
589.147
619.341
607.669
634.994
635.951
647.174
617.736
766.323
730.436
747.668
750.387
716.904
671.735
657.584
625.084
617.699
595.989
656.596
651.198
678.934
627.591
694.97
702.777
676.463
712.856
687.795
697.208
716.966
676.432
625.311
647.109
653.415
669.732
683.198
634.807
695.143
740.319
723.606
725.704
701.753
718.126
723.349
687.6
682.01
659.433
686.125
724.019
703.508
710.427
668.338
568.444
598.511
698.693
697.424
708.803
664.605
846.631
721.541
748.369
873.094
778.384
955.755
862.117
633.629
649.969
651.281
659.876
662.754
682.188
688.77
626.45
686.963
649.592
667.366
679.94
701.154
641.709
731.51
740.623
713.14
745.686
734.349
762.669
772.998
663.241
688.154
708.742
672.08
676.723
693.888
650.461
710.221
703.017
677.727
694.015
738.619
720.383
717.135
754.176
735.88
710.869
769.92
744.536
762.187
782.882
708.451
700.034
688.18
707.84
727.851
720.247
721.738
730.497
728.298
709.162
718.211
747.454
740.008
731.486
642.266
667.149
687.783
675.473
695.14
700.448
706.311
697.099
719.156
704.261
726.753
711.47
711.793
721.051
727.893
780.877
756.244
758.938
740.525
768.315
783.39
687.621
700.02
685.838
724.626
703.898
714.87
662.69
680.746
697.433
672.705
705.139
753.915
731.05
720.905
693.678
705.076
699.501
700.716
706.231
699.808
698.041
710.362
741.242
727.391
734.408
719.329
727.528
730.253
777.985
758.854
777.184
781.813
800.935
791.094
796.95
727.537
698.869
694.003
715.113
771.06
749.882
729.288
695.026
702.58
708.07
702.027
707.523
701.26
701.495
729.057
753.774
744.303
768.441
752.438
742.807
736.701
738.963
736.838
744.918
761.675
769.59
735.034
755.736
713.724
731.297
729.808
736.803
735.216
753.581
748.994
697.247
818.682
745.27
910.82
830.254
709.88
688.7
758.463
752.562
751.575
778.068
766.291
776.373
780.148
704.105
703.193
708.935
709.721
703.411
700.407
697.031
802.653
800.177
779.22
789.214
808.213
802.363
804.53
739.46
802.185
792.898
802.191
775.22
765.91
761.417
693.084
712.555
700.084
750.341
726.073
716.842
729.186
724.466
780.485
752.945
785.587
758.351
787.275
816.603
784.131
785.714
778.86
791.947
786.425
771.316
773.8
709.712
732.115
714.468
766.265
733.921
723.349
740.757
714.84
705.559
705.816
708.894
700.642
707.911
711.064
772.31
744.52
749.064
775.902
787.93
803.046
765.57
721.744
728.475
719.37
714.609
706.711
716.299
716.376
708.93
694.107
701.394
708.045
701.126
690.033
678.636
796.826
796.423
796.579
779.395
792.954
796.031
805.802
699.532
706.318
708.095
689.546
669.152
671.357
687.432
728.447
732.828
749.339
704.213
720.356
736.104
714.748
755.423
788.702
760.006
781.338
799.964
814.513
770.981
694.649
671.746
694.489
682.882
652.148
652.989
682.631
709.653
700.888
709.527
690.939
671.819
672.523
690.741
670.564
691.386
693.124
681.616
650.09
679.617
652.066
742.508
743.417
762.278
708.476
725.523
740.375
716.714
815.362
812.369
783.007
818.57
885.261
852.32
849.66
823.079
830.734
793.647
823.604
894.011
861.874
854.699
726.479
768.437
772.911
740.587
742.273
795.053
755.797
787.713
779.298
757.211
733.812
762.537
751.025
745.543
693.297
661.512
689.408
648.05
679.889
673.507
639.82
708.467
690.653
705.075
667.853
688.104
681.865
659.543
770.118
748.065
765.838
750.359
725.708
726.722
750.8
707.068
695.132
693.095
712.401
711.713
718.765
691.062
807.716
823.172
830.494
890.954
847.736
841.078
792.801
710.989
694.09
692.647
719.892
715.776
712.697
702.918
776.691
754.156
776.809
753.114
717.017
724.888
750.686
636.488
681.819
650.663
663.053
613.566
627.906
648.965
679.583
686.332
697.993
671.496
631.598
657.313
647.092
791.818
773.144
755.313
850.432
820.499
772.479
793.544
662.965
604.479
637.192
627.3
639.206
660.877
629.194
687.495
687.614
705.987
715.78
667.404
690.374
692.126
856.164
922.873
932.934
926.211
895.608
890.907
888.669
800.408
775.836
758.111
856.081
824.143
773.103
793.252
664.031
628.653
638.843
604.944
639.993
629.871
663.336
726.281
686.509
694.156
667.726
695.273
699.139
722.483
623.911
634.071
659.454
651.348
590.102
615.175
625.01
694.19
730.199
720.35
727.884
699.541
740.438
693.859
882.975
884.527
852.322
792.64
836.208
814.579
815.887
688.826
726.38
718.434
726.305
692.957
735.984
690.653
731.946
679.512
724.588
736.972
721.984
678.348
650.656
644.312
658.329
684.089
652.874
679.488
647.753
685.192
688.302
646.974
646.491
671.982
674.475
645.867
683.183
683.175
707.13
740.106
710.905
723.279
758.6
756.488
726.178
678.964
660.587
659.103
693.203
703.067
694.404
703.228
700.591
733.962
703.031
721.339
753.888
755.093
720.473
678.636
659.913
658.742
693.14
704.616
703.955
693.949
723.375
723.633
744.01
718.207
744.166
724.03
719.181
723.5
744.177
720.502
724.826
744.539
720.231
723.71
849.657
693.939
647.827
765.675
860.726
952.766
760.139
845.263
714.976
742.272
707.053
727.905
726.132
724.744
726.436
746.491
741.942
820.557
911.338
717.832
699.456
755.913
739.67
703.441
717.366
777.285
775.78
747.795
749.514
780.518
810.043
670.869
606.844
676.497
684.773
667.33
707.048
710.228
775.935
744.66
749.134
772.32
787.925
803.003
762.041
770.541
741.014
745.599
770.544
784.071
799.457
760.166
724.941
765.687
764.414
740.135
740.15
790.237
755.69
818.524
812.375
782.992
815.324
885.235
846.62
852.242
813.794
809.315
779.696
813.779
882.869
845.258
849.378
708.729
697.831
699.574
715.112
713.971
722.235
696.928
800.343
818.454
880.077
816.18
834.675
836.729
785.063
717.437
694.44
696.301
701.71
699.927
684.281
683.034
713.037
736.009
732.881
755.006
767.243
725.821
712.789
770.433
646.715
612.018
716.742
710.68
735.433
641.462
634.295
705.198
603.252
618.531
618.956
628.923
633.357
631.658
647.786
627.925
665.884
645.938
671.59
651.038
668.919
691.458
629.944
657.741
643.001
660.883
646.128
662.69
679.358
650.619
669.314
649.597
668.211
650.066
667.429
689.361
687.706
691.149
667.668
686.644
707.93
706.182
730.221
730.046
685.047
704.614
704.513
680.007
662.371
685.948
740.197
713.617
693.79
716.431
692.171
672.183
692.29
726.12
701.423
705.898
683.808
681.428
663.063
682.616
751.214
708.017
727.811
747.24
728.544
749.97
766.323
754.463
726.943
710.79
731.791
721.237
747.824
758.734
702.029
737.768
725.137
721.885
716.283
741.953
747.443
753.773
775.184
758.425
733.945
753.303
728.824
709.56
771.228
786.395
772.77
766.576
787.27
780.19
776.714
761.553
756.594
745.1
760.938
776.794
765.57
774.72
537.096
642.373
531.477
603.89
564.716
702.846
674.592
639.376
571.191
549.831
613.631
703.027
711.062
687.313
592.606
691.073
537.497
572.463
559.443
586.022
569.562
592.213
616.717
520.954
535.01
546.064
541.611
553.775
569.719
556.61
525.689
543.699
576.084
549.966
581.29
608.42
571.142
597.393
661.618
622.684
664.832
626.706
649.366
681.246
606.783
610.25
584.373
615.968
670.557
638.505
645.963
517.199
573.082
520.026
385.314
506.682
649.87
575.745
601.551
568.962
530.665
499.322
542.768
586.229
687.535
552.132
594.884
511.496
503.285
510.756
515.189
528.227
531.912
516.547
504.768
502.319
510.547
517.721
528.201
528.234
516.408
418.178
477.028
449.821
459.335
508.763
519.416
493.05
585.577
538.356
578.459
595.156
557.122
565.4
606.227
501.21
460.098
498.54
532.578
555.639
549.433
525.413
509.299
511.978
502.647
531.959
529.487
540.637
521.188
511.929
503.299
518.308
541.151
534.21
557.686
523.47
620.751
601.031
554.959
580.951
645.16
602.271
624.632
540.268
585.077
547.477
555.282
614.141
592.485
559.393
548.258
551.841
532.813
549.239
556.574
572.78
535.606
532.481
566.241
546.679
553.195
558.368
576.309
536.901
575.224
609.219
624.879
587.576
642.308
610.463
624.097
567.674
605.247
619.989
630.791
584.282
604.456
581.356
554.789
551.1
591.817
564.138
565.178
580.422
542.019
566.773
558.652
619.394
569.232
587.993
594.841
545.629
607.065
666.82
657.299
665.66
630.516
632.997
645.322
636.841
630.988
668.408
624.794
684.418
653.191
655.642
592.314
579.045
605.988
595.394
614.196
583.014
622.532
551.055
582.558
563.458
587.606
600.863
607.756
576.117
644.4
577.879
609.428
638.901
634.633
602.208
665.566
566.376
631.135
604.317
634.412
623.563
596.617
656.848
644.626
695.679
681.678
690.96
662.134
668.058
676.391
685
653.62
677.357
672.416
711.054
698.021
691.005
677.971
665.752
646.052
668.472
702.544
683.057
693.871
613.958
641.91
665.565
635.722
635.558
606.46
642.286
686.176
713.055
702.22
709.354
695.128
705.822
698.607
660.47
660.274
695.934
654.929
628.326
678.111
682.018
725.82
730.127
724.181
752.146
744.772
749.773
754.704
770.328
780.1
761.81
775.959
767.539
781.295
772.265
741.867
706.787
710.199
782.803
753.668
684.839
722.909
750.239
771.619
717.214
698.084
699.491
810.043
709.32
709.892
705.084
667.068
705.179
597.066
672.662
679.111
651.768
656.4
678.461
691.3
710.289
696.886
790.209
715.586
711.052
620.497
707.81
700.728
767.659
717.952
681.624
624.579
770.7
776.745
688.346
634.793
687.797
686.612
658.189
656.271
675.111
697.593
759.345
715.626
682.962
716.268
719.595
751.097
773.839
725.369
725.919
699.066
730.176
705.834
733.316
751.469
604.014
631.597
629.521
631.056
628.803
657.742
667.58
726.434
737.32
707.14
756.518
725.986
740.092
764.511
667.937
696.125
685.257
707.776
699.906
712.603
713.914
694.858
699.487
677.453
691.665
717.356
709.374
706.358
696.909
690.243
674.316
690.205
714.088
706.25
705.039
654.565
651.218
649.274
675.738
674.567
680.751
692.446
681.231
707.526
706.767
693.296
692.468
700.131
709.137
747.405
747.343
763.359
756.857
777.557
761.238
763.205
787.99
774.21
751.401
756.433
773.353
766.57
772.463
723.14
709.107
706.366
726.78
719.392
735.473
719.342
691.826
670.26
660.681
688.162
744.61
706.766
719.979
686.354
666.713
656.753
686.352
741.482
716.503
705.21
744.56
723.504
722.469
745.372
746.803
721.501
741.058
706.987
746.459
727.77
726.096
724.719
726.36
714.869
744.419
721.201
726.894
733.712
718.895
745.064
721.987
710.166
683.234
693.597
741.78
712.555
709.037
725.277
679.902
708.664
692.105
738.95
711.055
708.661
724.868
772.992
756.648
759.584
777.372
780.437
758.904
749.81
762.501
771.793
762.893
773.216
764.455
758.066
764.536
704.382
709.498
700.633
704.514
701.753
707.189
707.719
791.061
785.109
785.322
765.865
767.907
762.024
752.432
717.363
780.529
777.284
775.782
747.795
742.287
749.514
704.867
709.111
700.024
704.851
704.098
709.116
707.783
732.099
712.368
733.662
713.03
736.425
730.916
701.808
722.172
731.304
742.225
705.413
715.777
731.056
715.995
721.374
731.277
740.758
707.666
716.231
731.232
717.961
739.718
710.894
734.619
712.975
739.733
742.811
720.128
765.637
764.4
739.653
724.925
755.667
740.124
740.112
720.933
700.767
732.885
721.026
663.263
685.26
703.922
780.743
756.053
772.751
750.985
716.003
736.316
735.348
720.225
702.075
729.259
720.678
670.575
707.037
687.31
765.477
746.881
750.372
746.593
730.491
750.723
728.724
764.269
746.715
757.694
746.672
732.897
730.51
751.06
708.7
697.752
722.202
699.548
715.098
703.384
713.925
850.073
920.852
926.069
919.984
883.416
886.622
887.939
791.88
772.532
755.365
850.447
818.709
773.168
793.556
773.873
789.772
818.029
849.593
818.036
773.88
795.366
701.67
684.218
696.265
694.331
706.972
717.351
699.807
732.282
710.067
730.051
708.195
708.38
686.492
683.378
683.332
686.424
710.028
729.968
708.108
732.216
708.264
705.917
644.089
665.434
649.133
688.671
667.798
685.159
727.947
694.275
720.414
730.23
699.592
697.294
740.462
697.881
723.005
731.843
731.855
703.994
699.472
744.051
882.445
882.385
849.732
794.81
840.75
818.931
817.685
681.134
660.413
679.793
669.55
674.746
664.749
650.18
684.256
677.17
685.485
674.059
677.194
667.36
654.975
639.278
590.188
579.562
598.114
603.437
624.332
612.521
737.65
703.911
765.771
699.984
749.717
752.927
695.866
656.965
679.542
683.263
661.614
624.238
653.292
638.839
743.032
707.735
772.883
710.192
702.802
758.396
756.27
656.315
664.269
687.683
664.296
629.872
656.332
643.928
764.453
653.241
790.128
796.766
768.284
806.656
716.351
713.979
632.415
807.485
633.247
779.402
800.321
712.57
624.8
675.455
580.501
743.673
766.137
778.832
780.198
793.908
795.443
792.295
790.511
770.834
781.963
780.905
798.323
796.691
792.445
792.315
768.04
778.535
794.763
779.748
798.932
787.11
781.425
656.443
565.671
713.938
597.985
733.378
629.351
557.621
728.229
704.123
674.676
663.982
663.261
623.235
631.682
792.277
769.61
778.327
794.267
801.158
770.85
753.478
716.046
751.017
752.069
745.587
695.2
743.84
697.369
811.274
808.794
812.905
786.469
757.582
760.663
784.088
751.765
717.163
752.701
746.24
696.765
698.186
744.621
808.618
813.6
813.32
786.359
758.681
760.609
785.11
775.331
753.797
777.566
733.819
754.867
730.935
706.248
808.582
788.405
804.298
748.651
777.637
765.92
732.729
749.158
704.683
744.057
691.239
739.441
729.588
680.553
692.109
719.494
734.486
714.411
646.48
694.691
665.107
769.472
776.95
794.887
747.995
684.022
724.403
710.412
714.836
691.442
688.906
696.952
694.184
677.117
675.39
724.68
667.445
635.042
689.013
691.084
722.607
669.473
725.073
688.046
667.819
635.026
691.062
669.858
722.755
755.699
689.182
711.918
703.348
729.534
681.317
656.918
727.486
704.489
705.46
699.848
702.35
678.659
673.764
679.3
660.943
715.475
702.244
612.226
664.33
648.602
700.592
636.706
679.987
626.663
672.617
650.222
607.134
751.939
683.758
723.749
656.713
697.762
670.852
631.067
552.595
581.959
623.913
623.295
756.354
677.585
737.08
589.984
672.01
748.993
768.472
775.156
769.256
736.867
756.554
720.469
602.468
651.442
634.308
538.097
550.593
624.883
584.751
700.71
717.89
739.45
721.008
756.639
739.426
700.698
653.561
691.709
707.531
652.181
690.772
672.238
632.408
736.257
694.978
718.838
713.962
738.324
698.804
672.402
683.634
596.652
613.475
623.47
661.636
644.833
632.059
681.01
664.663
679.652
669.488
670.756
660.275
650.103
673.797
650.531
671.163
661.461
666.597
655.29
640.938
585.493
609.395
604.957
645.007
629.612
669.804
649.466
662.598
648.339
689.369
651.444
692.118
716.874
676.287
611.505
611.501
633.286
629.032
651.6
673.013
651.594
676.297
692.129
716.91
689.409
648.341
662.613
623.286
638.022
617.091
658.967
628.545
571.756
608.053
588.646
655.225
667.441
695.17
645.319
589.903
608.582
621.908
679.449
661.535
683.132
656.839
624.196
638.769
647.743
666.579
644.412
673.543
650.983
611.176
627.698
640.445
594.812
602.693
638.703
616.716
553.242
584.212
577.493
604.053
631.551
637.961
630.218
699.44
665.32
646.312
687.743
639.734
650.223
642.301
644.258
638.195
650.624
656.694
615.539
617.987
627.75
616.858
625.659
638.557
630.459
661.392
674.794
656.574
654.299
649.579
659.788
669.41
650.732
657.068
660.006
673.549
676.745
664.926
660.286
628.172
644.141
636.559
649.066
656.104
661.165
642.349
636.972
645.264
650.035
662.494
666.794
650.976
644.595
691.307
676.003
707.772
711.133
690.214
671.462
686.185
676.638
675.425
702.813
681.102
679.807
662.917
657.237
751.444
685.986
816.577
729.8
692.404
735.855
752.047
817.934
671.574
673.805
694.762
694.543
692.895
718.596
720.194
664.014
687.991
666.731
689.523
690.025
716.011
715.826
710.941
713.791
738.737
741.911
771.475
743.964
769.282
703.392
732.251
706.219
738.921
765.516
767.053
737.62
723.172
751.723
722.146
750.429
778.978
778.858
751.33
721.308
751.012
720.641
749.152
778.678
778.4
749.875
776.758
818.133
802.404
804.032
803.799
778.013
801.195
775.265
802.515
798.935
817.982
803.272
800.121
774.735
672.046
674.625
672.837
653.671
646.278
648.062
645.863
567.174
627.779
588.874
552.189
569.297
605.187
581.946
607.262
634.304
664.271
578.018
598.888
624.968
598.882
669.148
668.08
665.313
645.537
639.903
638.26
642.236
552.201
569.303
602.477
567.185
588.877
605.193
627.779
601.799
630.97
657.906
618.442
590.446
573.94
595.885
579.158
599.789
918.314
932.554
622.747
576.968
562.665
536.948
561.109
573.074
681.675
679.403
590.163
537.542
578.911
591.092
540.455
980.347
1075.35
1062.05
785.06
883.436
929.584
982.126
574.546
677.078
583.77
509.468
533.319
637.579
551.929
800.367
816.199
818.518
834.703
836.789
880.162
860.808
793.278
795.007
954.8
702.776
849.731
931.061
720.848
850.117
919.997
920.886
886.653
888.021
926.135
952.788
681.621
644.941
654.06
656.113
647.027
618.566
616.725
560.562
547.987
551.965
482.818
535.876
539.528
550.589
682.686
646.626
655.16
656.755
647.847
619.006
617.323
579.728
595.897
642.23
581.791
606.953
488.296
550.402
935.058
859.274
878.82
935.111
987.451
997.788
918.369
495.699
619.479
551.007
542.555
558.053
536.073
409.54
865.351
944.79
884.076
938.306
994.842
1004.11
922.133
667.846
641.596
649.337
638.59
632.003
611.613
601.68
794.809
882.39
882.453
818.937
817.698
911.347
840.766
648.471
643.42
691.435
628.971
672.805
673.292
619.963
968.69
952.487
925.351
968.72
1005.48
1014.84
980.353
953.787
975.065
928.534
970.774
1006.37
1018.7
980.904
654.253
603.293
607.205
623.944
618.707
588.933
575.265
621.524
619.756
641.343
592.522
612.217
590.501
572.156
684.22
665.933
709.438
676.958
633.319
650.592
610.848
580.44
610.608
612.445
585.389
558.659
583.775
559.972
623.557
592.616
625.342
588.777
561.369
562.668
587.215
1077.47
1052.52
1049.67
999.407
1051.87
1054.3
989.341
611.423
580.75
612.954
585.711
559.105
560.325
584.044
946.731
866.752
857.48
911.489
841.49
932.556
857.488
623.448
592.547
625.557
588.936
560.925
562.753
587.003
743.023
710.185
707.717
758.398
756.272
772.897
717.833
910.983
853.244
838.777
945.165
932.016
855.992
863.587
601.264
587.284
590.084
571.881
573.818
562.297
550.932
603.827
583.255
702.493
647.14
556.319
591.355
631.525
601.351
691.316
682.331
689.77
674.722
667.214
663.624
646.445
659.903
650.016
676.773
639.107
657.573
628.161
609.367
637.658
654.806
620.399
598.287
632.512
615.024
583.27
670.989
628.617
653.528
614.517
640.582
622.654
597.079
615.966
609.877
634.998
604.388
564.334
586.361
580.119
572.679
587.737
619.601
597.465
556.998
580.525
569.23
1051.94
1023.76
1021.74
1015.82
1023.25
1052.64
1005.7
606.188
567.395
597.102
555.974
579.064
571.129
551.669
616.871
574.013
605.727
556.224
581.433
572.684
549.727
569.055
549.842
558.103
564.211
576.76
607.979
591.456
653.63
674.613
672.011
648.049
645.83
676.488
646.268
461.283
586.492
547.639
381.597
532.41
575.682
441.362
542.03
535.348
411.612
418.668
534.89
333.831
394.68
579.594
579.592
600.768
573.133
555.402
555.403
542.3
569.183
573.423
596.724
556.95
577.576
553.747
540.286
597.041
563.062
617.295
557.321
589.11
572.432
546.689
630.957
618.446
657.87
601.791
624.854
590.454
573.954
552.029
559.326
585.498
561.74
543.98
547.469
552.462
562.81
576.783
591.651
562.428
539.236
552.213
543.515
786.086
733.782
727.552
719.131
774.037
786.096
727.558
870.29
865.149
949.149
953.44
946.335
865.949
868.399
564.816
559.256
583.471
566.674
548.972
551.182
542.694
641.046
575.194
601.045
589.34
616.657
583.324
564.72
714.357
780.072
769.818
783.972
729.434
789.189
725.13
583.65
546.504
567.144
547.443
559.344
541.649
536.205
544.32
545.887
541.024
553.604
546.256
561.238
575.66
579.358
550.715
562.536
569.045
544.126
539.526
596.709
608.959
642.532
628.354
626.812
606.834
622.136
598.611
626.838
622.141
598.606
628.98
608.962
628.375
642.569
603.178
618.204
617.268
595.197
598.785
619.062
633.546
546.485
550.519
542.676
540.48
544.915
540.444
535.78
561.882
540.657
547.113
545.022
546.215
560.561
548.211
537.286
542.845
562.903
536.335
543.49
538.061
533.13
562.085
548.427
546.492
539.968
546.916
548.897
560.486
539.892
564.493
542.34
552.944
542.335
583.231
564.486
541.557
578.223
550.064
559.324
539.176
550.613
540.484
545.336
544.181
559.646
541.806
533.949
534.825
534.734
647.319
681.736
677.628
686.993
652.784
681.736
648.47
539.157
540.467
559.306
541.543
550.048
578.208
562.648
546.533
544.661
556.396
550.784
527.495
543.502
541.816
735.369
733.031
790.868
792.225
733.507
792.985
732.659
643.441
644.048
675.881
683.221
679.558
646.768
650.639
564.174
576.93
605.797
584.756
563.081
576.56
558.439
552.668
538.808
538.024
534.721
535.279
534.524
531.904
576.55
558.425
563.065
586.489
564.167
605.799
576.919
541.509
542.964
540.082
541.511
533.739
537.59
540.086
537.933
541.955
549.004
540.734
530.055
539.515
537.424
596.047
574.71
578.228
569.665
554.008
559.007
561.322
565.277
542.563
537.486
554.879
531.697
546.498
539.493
545.556
534.296
519.759
534.169
539.612
541.871
538.471
539.496
538.589
534.526
538.011
515.458
535.32
528.302
541.472
534.774
532.398
535.602
517.556
527.862
533.133
599.328
622.984
599.258
628.77
606.793
622.749
599.334
597.004
620.156
598.359
621.613
606.82
628.828
598.884
661.573
694.815
675.138
689.889
685.994
652.175
661.285
527.05
527.907
539.141
535.815
476.308
518.316
516.188
533.375
552.026
539.772
531.25
546.928
538.11
506.877
535.422
526.659
533.629
526.821
534.893
522.036
496.809
546.909
547.632
533.367
506.863
531.23
539.761
552.013
551.862
576.916
558.865
577.737
576.976
551.869
532.076
524.837
506.454
533.107
494.54
528.706
513.407
461.404
537.597
516.47
524.872
513.319
535.913
532.839
535.325
548.962
526.124
526.659
516.62
540.577
545.023
537.187
575.337
544.151
557.018
573.903
576.507
549.492
523.052
524.985
508.453
532.25
498.339
527.42
513.139
466.947
530.182
448.73
475.851
479.84
503.003
519.744
500.029
614.671
606.784
653.461
628.732
612.971
643.791
606.827
288.058
288.054
287.926
287.926
287.926
287.926
287.926
287.926
287.936
287.926
287.926
287.926
287.926
506.58
388.118
526.792
530.693
545.331
308.079
346.798
482.783
432.802
535.868
544.172
559.641
541.801
534.823
534.729
533.943
290.438
287.949
290.036
300.389
289.356
503.038
302.088
534.874
535.336
535.412
521.993
533.613
526.636
496.765
535.317
536.141
535.313
528.302
533.947
528.295
504.891
334.808
293.803
459.943
287.935
287.926
288.168
321.171
516.456
513.277
532.819
537.593
535.909
535.309
524.852
1048.62
1069.32
819.113
834.267
899.663
932.608
937.574
835.825
858.573
915.241
698.771
660.064
829.187
771.985
784.145
837.845
852.91
695.623
715.634
871.691
788.477
803.878
865.232
935.025
730.994
808.897
848.96
699.099
718.67
720.428
723.685
747.001
754.284
901.696
735.207
804.917
722.169
702.911
758.27
745.53
775.707
747.561
752.295
774.035
788.646
770.158
792.066
1051.74
811.32
870.045
963.131
1031.41
840.271
936.371
779.805
763.826
757.72
778.181
798.468
782.488
795.327
770.395
793.314
777.492
801.912
787.688
794.63
806.206
668.096
772.254
745.202
643.318
604.259
798.038
741.322
715.056
699.926
720.381
752.045
736.842
747.659
740.955
735.646
705.938
727.114
757.406
756.22
764.408
746.654
798.474
795.393
785.63
803.715
819.708
815.926
811.915
746.525
752.541
760.121
771.788
774.337
788.149
793.336
702.184
715.935
718.127
744.658
747.664
752.068
749.913
1061.35
844.875
856.438
1018.42
1024.85
892.047
905.801
792.455
822.333
801.87
812.176
815.689
789.009
805.12
942.352
826.38
884.94
697.436
695.189
731.346
699.164
796.119
825.628
811.488
824.187
819.576
800.234
808.121
796.821
779.143
776.791
805.987
849.362
827.95
819.893
707.907
731.462
722.796
761.913
752.509
755.615
762.049
730.856
747.974
732.412
749.073
749.784
747.569
750.776
741.672
750.469
735.82
751.543
753.805
755.132
752.35
807.784
823.116
824.975
831.156
832.696
856.023
849.09
1079.2
863.777
922.509
1025.4
994.368
916.332
979.603
815.678
831.134
806.088
814.588
841.882
841.675
821.274
744.094
757.015
758.597
776.713
795.992
770.999
780.683
784.07
817.266
841.475
785.606
820.961
780.304
789.448
655.342
725.301
671.448
595.039
587.071
712.959
629.524
788.647
831.6
845.918
802.749
825.42
794.909
794.402
749.313
759.736
756.2
753.687
758.805
760.588
749.966
820.313
872.028
847.879
880.109
854.329
885.626
911.46
826.346
853.545
840.56
879.358
857.122
842.613
829.039
841.773
816.972
804.765
819.38
883.881
857.51
837.357
781.296
779.526
771.209
838.231
817.429
788.803
794.537
841.648
882.08
849.077
888.417
917.499
931.495
876.88
769.623
789.039
782.988
756.724
748.772
764.681
753.214
839.012
907.708
907.836
891.344
879.364
863.806
862.802
756.271
755.702
758.979
758.861
729.012
753.959
741.423
917.165
904.276
880.116
922.316
972.609
963.868
942.777
848.253
845.504
849.144
901.522
890.629
897.623
894.4
858.369
910.863
865.389
897.287
940.559
953.41
886
938.374
875.295
887.556
687.28
691.087
704.758
709.054
839.2
791.386
794.644
778.05
795.777
798.582
775.582
843.18
806.209
798.765
781.052
805.655
801.796
785.813
851.943
858.655
853.304
906.06
905.006
912.598
898.798
784.876
846.057
790.672
856.854
799.484
874.49
805.344
760.665
750.679
770.19
717.19
735.167
735.647
713.487
903.661
894.867
928.646
691.357
691.168
708.536
697.251
818.615
871.993
835.028
810.972
792.487
799.618
816.875
753.721
751.1
721.765
738.081
753.062
752.095
739.149
803.468
785.577
794.275
753.042
769.861
755.604
736.798
864.028
895.56
867.699
928.051
946.954
924.261
950.371
867.434
875.468
881.391
915.904
924.08
942.57
933.641
755.79
757.442
723.165
740.893
755.33
758.277
740.365
942.655
921.383
894.072
930.17
990.218
983.257
951.527
878.278
899.822
872.108
932.479
959.864
938.836
954.553
940.183
993.979
980.521
1058.21
1005.27
992.843
926.717
750.044
716.756
744.129
715.598
748.341
744.988
704.471
886.953
870.756
853.339
805.677
825.581
821.848
810.341
759.191
739.126
760.215
760.09
717.491
759.227
733.634
865.417
808.016
798.641
909.705
892.566
812.858
821.756
894.037
933.326
902.638
969.929
997.487
1006.24
960.532
888.968
933.151
906.233
968.845
950.226
968.641
983.129
755.25
766.309
778.076
735.008
689.127
709.927
714.742
971.608
1063.43
1014.07
1005.67
1025.85
1015.51
980.137
962.972
955.031
930.913
994.338
1018.54
1025.18
1000.9
726.595
704.221
700.902
697.744
689.542
680.124
666.858
729.108
690.198
684.449
719.355
726.034
712.89
672.879
878.569
812.749
815.529
908.152
911.267
828.485
825.871
977.852
1051.79
966.045
1050.97
1054.1
973.864
969.982
887.041
828.806
814.786
926.875
902.711
819.773
832.473
757.319
754.511
710.316
713.522
757.264
753.056
724.44
982.552
1055.73
982.211
1062.92
1057.83
989.753
974.765
882.632
822.782
819.151
919.899
915.408
832.232
835.725
743.986
705.305
741.839
745.453
696.127
748.855
697.861
995.217
1069.92
1002.37
1021.54
1078.25
1077.26
1015.19
678.994
689.061
705.212
694.97
645.261
658.7
674.809
670.196
696.378
721.023
705.354
630.723
657.044
680.057
998.811
1050.87
1020.62
995.513
1053.59
995.132
998.622
728.125
683.613
699.392
662.605
683.051
657.171
637.575
905.476
826.969
831.818
925.653
933.617
839.037
842.493
1002.96
1060.05
1023.08
1006.57
1056.62
1008.89
1002.33
935.993
929.868
917.382
826.381
839.089
836.046
833.043
752.569
703.791
749.529
748.397
694.681
752.253
697.44
685.383
656.168
676.558
660.022
667.111
648.447
636.494
917.562
838.028
835.687
947.017
941.629
844.684
844.585
1046.43
1083.88
1070.34
1074.22
1080.84
1071.99
1041.81
1064.04
1012.95
1019.23
1034.39
1022.45
1066.61
1021.34
749.936
706.413
752.066
751.784
694.83
749.696
696.529
684.925
626.964
616.831
639.015
641.648
662.564
660
757.044
708.199
754.81
754.724
699.673
756.973
698.556
674.186
635.188
655.771
655.759
663.261
641.072
630.044
1052.53
1051.44
1013.07
1031.35
1064.09
1068.3
1028.96
646.375
655.171
671.34
635.011
599.826
619.153
616.034
758.799
705.729
759.44
699.737
758.488
759.133
698.399
934.63
930.959
933.683
835.013
827.215
829.112
832.675
750.007
755.413
694.274
695.57
753.465
753.178
695.057
937.092
941.079
937.513
838.506
832.598
831.473
841.351
944.615
932.686
947.962
831.855
843.325
844.263
827.955
615.646
619.558
641.357
624.04
589.961
610.059
603.595
756.497
701.389
758.387
758.159
693.81
756.048
696.071
654.57
655.728
657.378
632.277
630.482
628.915
629.013
921.757
943.495
948.448
842.502
807.595
819.933
837.032
750.093
742.103
688.543
689.677
743.743
748.177
691.188
752.768
746.62
690.158
694.248
745.703
754.606
693.133
612.741
612.776
587.834
588.977
609.794
608.661
592.965
746.264
694.478
755.452
755.118
691.232
744.005
693.822
752.939
733.469
691.106
690.867
739.626
749.123
692.412
287.926
287.926
287.926
287.926
287.926
287.926
287.926
287.926
287.926
287.926
289.274
289.986
287.926
287.926
287.926
657.862
346.529
313.005
289.549
1068.2
760.785
732.845
639.244
1057.8
287.926
287.926
287.926
287.926
287.926
287.926
287.926
287.926
287.926
287.926
288
288.041
287.926
287.926
287.926
588.697
292.379
289.474
288.016
900.598
688.915
662.592
577.786
878.424
287.926
287.926
287.926
287.926
287.926
287.926
287.926
287.926
287.926
287.926
287.926
287.926
287.926
287.926
287.926
308.345
287.931
287.927
287.926
666.847
470.091
663.043
636.615
678.719
660.903
659.613
665.845
287.926
287.926
287.926
287.926
287.926
287.926
287.926
287.926
287.926
287.926
287.926
287.926
287.926
287.926
287.926
287.927
287.926
287.926
287.926
345.166
287.965
287.94
287.927
581.604
467.588
438.9
336.847
569.872
287.926
287.926
287.926
287.926
287.926
287.926
287.926
287.926
287.926
287.926
287.926
287.926
287.926
287.926
287.926
287.926
287.926
287.926
287.926
287.962
287.926
287.926
287.926