/*--------------------------------*- C++ -*----------------------------------*\
  =========                 |
  \\      /  F ield         | OpenFOAM: The Open Source CFD Toolbox
   \\    /   O peration     | Website:  https://openfoam.org
    \\  /    A nd           | Version:  9
     \\/     M anipulation  |
\*---------------------------------------------------------------------------*/
FoamFile
{
    format      ascii;
    class       volVectorField;
    location    "0.0022";
    object      U;
}
// * * * * * * * * * * * * * * * * * * * * * * * * * * * * * * * * * * * * * //

dimensions      [0 1 -1 0 0 0 0];

internalField   nonuniform List<vector> 
18252
(
(-34.0101 -131.153 175.734)
(-197.068 -277.014 -15.8012)
(3.39424 -187.914 -59.2621)
(-91.3392 -118.047 86.6958)
(-40.6344 -64.7122 114.246)
(-55.2831 -88.8819 209.536)
(34.6369 -208.444 -62.5894)
(-36.3564 -227.212 -11.5935)
(-54.5426 -175.287 161.873)
(-71.1364 -126.713 152.739)
(14.6976 -293.996 -30.4571)
(-9.65488 -266.21 -46.1597)
(33.1771 -237.001 -69.2312)
(-10.5879 -325.804 -23.0107)
(-44.1755 -236.341 -41.074)
(16.1118 -253.001 -83.678)
(18.8007 -206.363 -61.4364)
(-0.479814 -123.059 49.9696)
(-56.6774 -179.967 114.383)
(-25.3269 -74.2417 152.924)
(-65.8041 -196.435 -11.7327)
(-20.4663 -92.7556 36.8948)
(-33.9161 -59.2155 125.997)
(-77.5374 -167.453 94.8377)
(-25.8219 -59.76 228.351)
(-53.3591 -187.628 241.66)
(-30.1741 -67.374 237.336)
(-31.5235 -51.3535 202.94)
(-48.1831 -79.8461 215.854)
(-73.9596 -164.754 136.163)
(-81.2653 -191.56 220.257)
(28.0781 -241.42 -125.365)
(38.4579 -219.91 -56.2231)
(28.8564 -249.161 -111.15)
(28.4674 -225.564 -51.8896)
(24.8605 -255.725 -96.261)
(25.3224 -261.983 -84.9298)
(32.0167 -238.053 -46.4001)
(3.32258 -252.061 -69.0368)
(-29.7608 -334.088 -22.1192)
(-59.5638 -230.522 -39.5679)
(-64.4858 -263.053 -24.9018)
(-60.297 -159.971 -51.6783)
(-107.909 -351.724 -12.797)
(-112.474 -236.414 -25.3757)
(32.5783 -244.968 -73.21)
(27.4945 -258.861 -115.585)
(27.7104 -256.382 -125.281)
(25.4572 -252.986 -63.8439)
(25.9002 -271.014 -99.9117)
(23.4592 -269.976 -90.6127)
(22.0736 -241.332 -60.2602)
(24.377 -253.112 -97.5661)
(26.4713 -235.227 -46.6229)
(35.5157 -228.751 -51.3572)
(20.9541 -266.511 -72.6742)
(18.419 -260.12 -37.1395)
(12.1528 -268.979 -60.3296)
(28.4239 -249.909 -41.5946)
(6.64232 -143.993 53.9681)
(26.7762 -176.902 -11.4014)
(30.5739 -192.735 -13.8766)
(8.28215 -203.846 -10.8222)
(-21.0281 -160.629 45.7366)
(-29.0439 -142.013 40.3664)
(0.787441 -186.938 -10.1574)
(-21.0026 -90.5244 103.142)
(-15.3062 -111.148 111.569)
(-23.8057 -92.4676 165.171)
(-42.7056 -124.703 149.027)
(-38.9538 -136.586 98.5904)
(-44.1678 -118.425 89.5091)
(-47.5811 -108.228 137.788)
(-33.6654 -89.8691 32.1388)
(-76.9872 -193.13 -10.5328)
(-85.5842 -171.274 90.548)
(-75.5736 -102.768 90.2738)
(-68.206 -128.925 -15.5174)
(-116.012 -206.637 2.22138)
(-121.053 -194.512 89.5254)
(22.0469 -256.266 -39.6836)
(12.8698 -301.767 -41.9166)
(20.4349 -275.907 -66.3927)
(19.0008 -281.36 -58.0501)
(11.0051 -304.109 -28.5533)
(8.03674 -306.914 -36.6328)
(22.9265 -267.836 -36.1973)
(-25.276 -63.1657 197.97)
(-23.3125 -75.4141 238.608)
(-23.9804 -80.1685 210.894)
(-41.9575 -116.023 196.505)
(-41.4053 -111.364 233.38)
(-45.7907 -101.073 184.454)
(-44.5428 -98.3061 223.054)
(-41.5472 -185.215 207.832)
(-22.8076 -82.2379 74.4907)
(-31.6246 -138.122 125.591)
(-4.9567 -131.795 120.097)
(-9.07651 -79.8054 68.8906)
(-5.71382 -125.871 169.454)
(-7.41315 -179.196 201.575)
(28.2088 -224.22 -64.7527)
(14.2366 -249.364 -89.6806)
(22.6046 -256.972 -103.547)
(16.6889 -265.144 -79.2687)
(1.72543 -209.318 -55.0034)
(6.84639 -256.994 -67.8754)
(13.4843 -226.657 -57.1286)
(-37.1692 -59.0968 190.632)
(-82.5621 -169.271 129.409)
(-91.0367 -197.255 213.59)
(-87.9641 -127.978 198.182)
(-72.8472 -99.8468 123.564)
(-120.576 -196.394 120.708)
(-128.862 -221.571 201.063)
(-9.44208 -104.548 43.4447)
(2.79925 -141.233 -11.5605)
(16.8433 -158.708 -11.2926)
(-37.619 -126.806 34.5646)
(-24.2912 -154.54 -12.1189)
(-46.8984 -118.154 29.6886)
(-10.7966 -169.397 -11.2519)
(11.5095 -242.589 -40.698)
(-9.6561 -249.828 -34.8235)
(-14.0437 -250.737 -55.1233)
(2.16867 -270.174 -32.797)
(-1.77158 -270.449 -48.7832)
(-22.3822 -271.668 -40.598)
(-19.2258 -280.075 -27.9549)
(5.55889 -298.138 -54.6161)
(10.4926 -258.231 -53.8591)
(18.7428 -283.498 -74.6473)
(13.7494 -280.731 -67.1136)
(-18.8407 -255.614 -44.4837)
(-1.29319 -295.974 -49.1786)
(3.67022 -245.988 -51.8584)
(12.6912 -286.362 -49.1488)
(2.4811 -314.499 -25.2219)
(-16.36 -316.22 -26.7688)
(5.15859 -291.301 -30.1846)
(1.29629 -290.259 -40.9245)
(-1.8511 -311.793 -31.4162)
(16.9645 -279.84 -33.2317)
(-30.7605 -61.5705 139.975)
(-31.8049 -68.7527 82.3455)
(-26.4024 -75.0353 93.0931)
(-48.3924 -106.065 80.142)
(-53.8185 -95.897 113.516)
(-53.2638 -101.879 71.3342)
(-50.3112 -97.9773 125.54)
(-44.4037 -132.507 177.614)
(-92.7191 -199.292 221.989)
(-53.5335 -187.362 209.843)
(-30.7784 -82.2058 76.3589)
(-41.7308 -139.77 126.781)
(-54.6549 -90.3133 90.0637)
(-73.7942 -152.687 137.223)
(-152.017 -189.101 -23.961)
(-95.5414 -268.292 -20.2469)
(-83.7708 -163.546 -48.003)
(-227.824 -354.507 11.3351)
(-138.936 -353.84 -8.38826)
(-192.423 -267.544 34.2886)
(-131.229 -242.909 -15.3498)
(1.44725 -238.928 -75.7681)
(-15.532 -171.435 -56.886)
(-14.9574 -228.854 -63.6786)
(-15.2399 -193.093 -53.0629)
(-7.17242 -249.185 -57.8094)
(-26.2225 -240.879 -50.6027)
(-34.8676 -183.264 -51.4086)
(-15.9096 -214.74 -9.76961)
(-54.7734 -200.101 28.9342)
(-42.5311 -179.709 37.0571)
(-51.0218 -164.3 32.2716)
(-46.2519 -214.822 -12.4323)
(-63.4021 -188.675 25.7552)
(-25.4784 -198.602 -10.857)
(-31.7932 -52.4676 168.265)
(-27.7508 -51.0509 215.946)
(-28.4872 -52.8579 183.443)
(-51.2244 -91.4249 157.065)
(-47.9421 -92.2744 170.86)
(-46.9088 -90.8707 210.821)
(-50.1628 -91.1719 197.801)
(5.08259 -276.166 -58.699)
(-30.6784 -245.272 -42.9432)
(-25.845 -287.589 -37.8479)
(-21.3204 -217.964 -48.3436)
(-6.91707 -270.178 -51.1548)
(-12.0327 -292.487 -43.6351)
(-7.62876 -231.951 -49.9346)
(-57.8317 -185.895 70.1927)
(-53.3796 -153.324 131.301)
(-51.9482 -161.055 83.5847)
(-58.1658 -147.274 76.1266)
(-64.2859 -171.533 107.691)
(-65.8997 -176.513 65.3513)
(-58.7108 -140.651 121.674)
(-36.5319 -76.8563 232.407)
(-31.0562 -83.3476 241.099)
(-26.4147 -79.2524 246.016)
(-43.1123 -119.84 246.597)
(-42.3069 -115.023 247.779)
(-46.6831 -105.128 239.365)
(-50.0117 -114.82 238.341)
(-35.6317 -256.635 -29.8039)
(-64.2977 -249.455 -38.3567)
(-36.6982 -249.756 -44.7208)
(-48.2255 -273 -34.7936)
(-74.346 -293.845 -21.5345)
(-76.5136 -275.883 -28.3992)
(-44.7361 -288.37 -23.1165)
(-34.2652 -321.135 -22.2276)
(-11.2419 -302.206 -24.9932)
(-16.2553 -293.028 -34.8341)
(-38.0749 -296.493 -28.7861)
(-52.4568 -341.904 -19.088)
(-56.1874 -324.993 -18.4677)
(-33.6656 -311.138 -22.9693)
(-14.5392 -129.093 -12.0569)
(-32.8763 -124.037 -13.2226)
(-46.6472 -94.2888 28.3303)
(-39.1177 -145.944 -13.6117)
(-57.187 -117.213 25.9627)
(-53.9616 -143.225 -14.7055)
(-66.9514 -121.66 23.6536)
(-39.8059 -71.7479 73.7014)
(-49.2491 -75.3741 104.055)
(-49.0806 -80.8348 66.6747)
(-59.5992 -100.364 103.397)
(-60.173 -105.045 64.5329)
(-68.9945 -112.899 59.898)
(-68.1433 -109.162 95.6217)
(-51.6158 -147.546 179.56)
(-52.942 -174.367 208.15)
(-49.9205 -144.562 222.409)
(-61.3859 -167.373 153.589)
(-56.4997 -135.807 168.986)
(-55.0997 -134.423 212.83)
(-60.0245 -167.504 199.667)
(-58.7752 -152.768 27.8911)
(-55.8834 -203.979 -12.6451)
(-47.9262 -173.281 -13.5509)
(-77.8217 -176.83 22.0109)
(-66.1038 -146.95 24.1568)
(-70.7095 -180.67 23.2308)
(-36.6126 -184.039 -12.4647)
(-37.2275 -162.226 -54.4819)
(-60.4102 -213.049 -49.876)
(-35.8962 -219.437 -55.2578)
(-49.1247 -235.029 -45.0238)
(-78.2358 -182.172 -45.8564)
(-74.5215 -233.368 -39.76)
(-56.2352 -180.044 -49.116)
(-3.79358 -75.7937 65.9122)
(-3.97849 -92.2889 84.6661)
(-4.32086 -95.3301 97.993)
(-10.8986 -99.0757 100.964)
(-10.1636 -96.1743 87.6566)
(-12.0676 -115.564 115.871)
(-4.65159 -111.963 112.86)
(-63.2744 -138.421 68.9257)
(-70.7772 -167.1 100.885)
(-79.308 -170.335 57.2947)
(-67.5143 -132.193 102.47)
(-69.1379 -136.152 62.651)
(-72.4368 -170.972 60.7977)
(-62.5737 -133.115 111.642)
(-38.1959 -62.7943 216.972)
(-33.2428 -61.1628 227.183)
(-42.1765 -75.2546 223.679)
(-50.7175 -100.028 229.517)
(-62.7261 -118.115 221.516)
(-54.9785 -101.583 219.173)
(-56.4886 -113.94 229.643)
(-42.8157 -283.522 -32.5718)
(-37.8471 -207.973 -47.0626)
(-23.2015 -263.183 -45.0032)
(-43.2075 -257.963 -39.3069)
(-76.3363 -228.683 -36.7814)
(-62.7661 -281.057 -27.5706)
(-56.2815 -203.247 -45.1236)
(-15.9894 -81.8144 71.5171)
(-27.0583 -101.317 105.191)
(-25.7069 -98.6634 92.0217)
(-19.1789 -100.521 102.78)
(-18.0847 -97.7624 89.8043)
(-21.1264 -116.716 117.405)
(-29.6689 -117.801 119.389)
(-63.5664 -300.236 -23.8283)
(-78.8279 -347.525 -16.2161)
(-89.5393 -323.063 -17.7275)
(-107.578 -331.046 -9.18355)
(-80.9824 -328.462 -14.095)
(-91.4119 -303.746 -18.9662)
(-60.1606 -317.89 -20.5967)
(-37.9798 -59.503 154.544)
(-46.7185 -71.1237 142.152)
(-56.7158 -96.7091 144.582)
(-45.6958 -71.4971 179.109)
(-55.5384 -97.4661 185.458)
(-64.9569 -105.991 133.775)
(-63.7778 -107.396 173.764)
(-94.6613 -250.497 -32.3119)
(-128.491 -270.459 -20.2272)
(-125.967 -254.001 -25.7579)
(-106.104 -297.886 -19.3253)
(-106.604 -279.002 -23.1512)
(-137.218 -282.161 -17.5432)
(-139.541 -300.555 -17.5461)
(-146.314 -165.281 91.4848)
(-143.124 -170.347 6.17961)
(-86.7124 -136.49 -14.7478)
(-182.953 -247.443 57.9727)
(-130.453 -215.402 12.1271)
(-192.77 -248.25 126.145)
(-137.004 -205.74 93.5285)
(-67.3442 -163.665 144.562)
(-64.2882 -128.825 145.493)
(-60.1509 -129.11 157.165)
(-59.0577 -129 201.37)
(-72.3932 -166.212 179.748)
(-63.0446 -129.713 189.222)
(-65.9958 -164.567 189.643)
(-38.9506 -83.0822 79.1095)
(-36.1067 -101.936 106.944)
(-34.4104 -99.2628 93.7532)
(-43.3872 -100.946 96.6183)
(-45.4651 -103.278 109.544)
(-39.2215 -118.871 121.185)
(-49.1214 -120.771 124.029)
(-52.6117 -178.558 236.566)
(-49.6741 -154.493 246.188)
(-49.5106 -147.936 244.219)
(-55.9617 -140.544 236.431)
(-63.2817 -186.223 235.117)
(-60.8006 -173.886 229.149)
(-58.1324 -151.288 238.886)
(-66.3226 -256.156 -34.1074)
(-94.1018 -231.08 -32.3486)
(-95.9356 -208.181 -37.4681)
(-108.214 -284.472 -15.1985)
(-84.7871 -281.765 -22.0298)
(-91.1693 -257.66 -28.2283)
(-75.8613 -203.697 -42.3526)
(-50.5661 -124.547 -14.7632)
(-73.6842 -112.192 22.6036)
(-59.8631 -102.342 25.239)
(-85.7948 -151.389 -13.2941)
(-69.3512 -145.439 -14.7448)
(-77.4696 -128.877 22.1768)
(-90.2054 -137.797 21.652)
(-87.0569 -211.592 -44.5443)
(-107.031 -170.906 -43.1198)
(-114.863 -214.459 -38.2582)
(-100.203 -188.456 -41.0639)
(-101.299 -235.46 -33.7199)
(-128.246 -239.717 -25.8951)
(-121.903 -196.242 -33.0323)
(-44.2188 -70.7668 207.934)
(-64.1411 -100.818 204.651)
(-52.5644 -82.6467 200.223)
(-70.0158 -125.795 214.613)
(-60.743 -108.177 209.709)
(-68.7709 -117.872 200.95)
(-78.8636 -135.847 208.759)
(-59.9249 -167.397 -13.9827)
(-85.5746 -176.995 22.5073)
(-74.0606 -146.884 22.321)
(-89.2726 -194.27 -8.26654)
(-72.9895 -166.761 -13.3417)
(-82.2594 -150.651 21.7731)
(-94.7176 -180.171 23.5567)
(-61.2286 -88.3782 95.9579)
(-75.6565 -106.013 58.2748)
(-61.5314 -92.7007 61.57)
(-79.911 -123.183 57.0022)
(-92.919 -133.221 86.3105)
(-92.2922 -134.503 55.6222)
(-79.65 -120.307 89.8988)
(-188.297 -259.809 -13.9911)
(-162.473 -273.601 -18.896)
(-157.605 -256.937 -20.535)
(-167.623 -284.386 -11.4291)
(-207.841 -306.229 -7.84149)
(-197.364 -286.628 -4.28847)
(-173.864 -303.552 -14.0918)
(-87.0014 -173.198 55.8463)
(-74.4782 -136.169 95.3862)
(-76.05 -139.396 58.4401)
(-84.3406 -145.886 55.9981)
(-95.4127 -177.501 87.9825)
(-95.9748 -178.024 55.9094)
(-83.4822 -143.495 89.9865)
(-46.797 -85.7544 83.7061)
(-63.834 -110.291 119.119)
(-61.0347 -109.745 106.909)
(-52.1386 -104.604 100.961)
(-54.6051 -106.096 113.631)
(-58.9355 -124.282 128.043)
(-69.0325 -128.947 133.252)
(-61.3254 -137.303 226.992)
(-72.3794 -187.569 227.673)
(-73.0978 -155.579 222.811)
(-74.917 -175.214 211.46)
(-66.3861 -139.207 216.928)
(-67.8656 -172.679 220.452)
(-65.8033 -151.511 230.767)
(-13.0221 -135.458 123.034)
(-4.35142 -111.07 102.832)
(-11.4305 -114.79 105.877)
(-13.3505 -133.713 130.487)
(-5.74526 -150.095 141.527)
(-14.8357 -153.42 144.571)
(-5.12374 -130.257 127.413)
(-58.5183 -84.8439 131.612)
(-72.2331 -101.423 159.661)
(-57.6125 -86.0119 168.635)
(-90.9041 -131.299 119.46)
(-76.6135 -117.659 125.287)
(-75.4157 -119.521 163.743)
(-89.8252 -133.109 155.935)
(-121.176 -326.615 -15.2558)
(-135.274 -332.65 -3.47377)
(-120.371 -306.541 -13.5915)
(-149.699 -308.653 -7.75039)
(-170.527 -354.423 -2.17492)
(-163.854 -333.479 2.26958)
(-154.323 -329.093 -11.5907)
(-30.6039 -117.278 139.78)
(-24.557 -129.937 173.783)
(-21.9138 -116.182 137.697)
(-23.7736 -132.434 150.075)
(-36.3878 -147.487 186.2)
(-26.3321 -146.023 184.417)
(-33.111 -133.764 151.894)
(-28.5334 -117.307 109.264)
(-22.5477 -136.801 124.238)
(-20.195 -116.175 107.528)
(-23.0959 -134.82 131.776)
(-35.0109 -156.128 147.265)
(-25.1919 -154.564 145.726)
(-32.2681 -136.128 133.535)
(-14.4824 -128.994 172.526)
(-4.99136 -111.641 133.34)
(-12.6587 -115.104 136.332)
(-13.8532 -131.431 148.855)
(-6.18657 -141.979 180.183)
(-5.39211 -128.135 145.85)
(-15.6856 -144.994 183.184)
(-70.9233 -133.241 135.483)
(-80.935 -171.113 171.07)
(-69.432 -134.851 177.865)
(-93.1906 -176.413 124.279)
(-80.2789 -141.155 127.365)
(-78.6878 -143.082 167.818)
(-91.9344 -178.62 164.073)
(-169.723 -224.041 -19.2754)
(-129.771 -179.696 -35.1359)
(-142.73 -218.791 -30.0068)
(-154.905 -244.458 -16.1829)
(-164.833 -214.554 -8.87679)
(-181.079 -250.261 -4.43022)
(-143.307 -204.955 -22.2606)
(-116.187 -214.916 -29.8144)
(-132.398 -288.264 -6.747)
(-116.673 -261.18 -20.8016)
(-142.267 -265.758 -11.8068)
(-150.648 -250.485 -2.54776)
(-157.173 -292.736 3.50188)
(-136.358 -222.721 -19.3763)
(-88.9649 -123.284 21.3147)
(-105.533 -146.641 -10.9596)
(-102.737 -160.44 -9.49046)
(-105.736 -135.483 22.5053)
(-105.008 -148.374 23.1095)
(-120.013 -171.336 -2.7914)
(-120.9 -160.37 27.4136)
(-102.226 -199.022 -4.15984)
(-101.922 -177.796 -7.59616)
(-87.1006 -170.478 -11.3975)
(-92.6183 -156.756 22.2218)
(-118.847 -193.678 30.6636)
(-106.07 -185.647 26.0168)
(-105.455 -164.991 23.9542)
(-40.3932 -118.343 141.606)
(-55.2231 -134.425 180.169)
(-50.6019 -120.047 144.22)
(-47.2581 -149.078 188.088)
(-43.3787 -135.142 153.759)
(-54.0121 -137.3 156.476)
(-58.4967 -151.353 190.638)
(-37.978 -118.521 110.69)
(-52.2541 -142.586 129.176)
(-47.7558 -120.915 113.329)
(-45.7528 -157.972 148.839)
(-42.3931 -137.667 135.204)
(-52.9059 -140.115 137.959)
(-56.9273 -160.741 151.452)
(-75.0266 -114.116 200.932)
(-76.8219 -110.647 187.477)
(-63.4985 -96.2573 193.45)
(-79.5542 -129.389 193.208)
(-102.615 -159.337 200.138)
(-93.0681 -142.113 186.664)
(-89.6432 -147.242 203.948)
(-90.6287 -119.697 56.4678)
(-108.266 -133.566 85.7084)
(-107.816 -146.751 85.2644)
(-106.941 -133.613 56.5735)
(-106.533 -146.545 56.0249)
(-122.91 -159.69 58.7561)
(-124.348 -160.703 86.776)
(-179.144 -310.193 -1.36355)
(-218.757 -331.674 2.87898)
(-200.667 -354.371 5.26325)
(-220.722 -333.559 17.7223)
(-192.889 -334.022 8.2271)
(-208.55 -311.741 5.35023)
(-187.509 -330.763 -5.34573)
(-94.4919 -153.974 55.301)
(-107.327 -185.257 87.6413)
(-107.805 -163.952 85.8328)
(-120.401 -192.986 60.7798)
(-106.989 -184.363 57.431)
(-106.789 -163.412 56.096)
(-94.6732 -153.081 86.6498)
(-81.3562 -162.25 215.729)
(-83.6221 -180.352 203.191)
(-73.1555 -144.821 207.527)
(-82.2276 -152.902 198.869)
(-102.07 -204.227 207.854)
(-94.4827 -187.678 196.225)
(-91.0838 -170.645 209.487)
(-77.4407 -140.669 187.675)
(-60.7431 -122.929 147.973)
(-66.1342 -137.21 183.587)
(-64.6924 -140.602 160.155)
(-81.8946 -158.253 198.013)
(-69.9231 -154.444 194.024)
(-75.7827 -144.721 164.622)
(-62.7776 -147.072 132.825)
(-67.4349 -130.639 122.666)
(-57.3989 -125.075 117.496)
(-63.458 -143.928 141.96)
(-80.1659 -169.664 159.283)
(-74.4996 -148.866 146.668)
(-68.2663 -164.768 155.072)
(-124.244 -158.178 -3.82465)
(-141.012 -162.419 35.3385)
(-123.146 -148.597 27.1317)
(-155.884 -194.469 19.8916)
(-137.51 -182.882 7.12581)
(-137.269 -173.305 35.6336)
(-154.774 -186.67 47.3182)
(-15.2309 -149.394 160.951)
(-18.5156 -182.002 204.496)
(-6.58473 -165.643 169.861)
(-6.76495 -159.729 190.642)
(-16.6809 -168.716 172.82)
(-5.94526 -146.245 157.924)
(-17.0446 -162.619 193.619)
(-105.779 -185.699 121.144)
(-106.582 -163.904 118.147)
(-92.4574 -151.529 121.501)
(-91.0581 -153.585 159.841)
(-120.192 -199.852 156.482)
(-105.128 -188.321 159.111)
(-105.895 -166.03 154.617)
(-168.005 -271.002 -1.01001)
(-178.625 -241.291 9.75244)
(-206.013 -301.13 33.4454)
(-171.283 -259.191 13.4673)
(-181.999 -297.546 16.7176)
(-193.578 -276.944 12.7092)
(-156.897 -231.516 -6.36461)
(-117.381 -187.339 -0.94567)
(-132.441 -203.468 39.0561)
(-119.669 -175.302 28.3491)
(-145.987 -225.037 24.9048)
(-133.374 -197.666 9.05063)
(-134.591 -186.788 36.7916)
(-147.107 -214.563 50.9553)
(-25.7791 -150.451 162.114)
(-38.9113 -165.434 196.737)
(-38.3748 -171.584 175.631)
(-30.2791 -183.354 205.945)
(-27.8153 -169.857 174.029)
(-28.2586 -163.793 194.912)
(-35.7304 -151.962 163.854)
(-93.957 -162.895 191.549)
(-114.631 -212.294 203.405)
(-116.268 -190.679 200.472)
(-122.72 -207.854 188.377)
(-107.679 -196.862 191.127)
(-108.46 -174.517 186.258)
(-102.656 -180.242 204.378)
(-50.2971 -167.305 198.599)
(-49.6997 -173.445 177.372)
(-46.4917 -153.655 165.642)
(-57.5855 -156.196 168.285)
(-65.942 -190.365 212.759)
(-62.0122 -169.916 201.222)
(-61.3833 -176.179 179.908)
(-126.467 -149.199 87.2028)
(-143.866 -163.268 65.136)
(-124.854 -148.195 59.3257)
(-140.607 -173.792 64.6853)
(-162.844 -191.609 98.4434)
(-159.047 -188.323 74.175)
(-142.757 -175.701 91.0093)
(-169.124 -220.166 36.8546)
(-163.457 -235.897 39.971)
(-150.332 -208.536 21.7825)
(-150.529 -199.31 48.585)
(-182.627 -240.481 81.57)
(-163.729 -227.051 65.2623)
(-168.519 -212.558 62.8251)
(-122.714 -175.812 87.4057)
(-135.702 -203.77 66.7487)
(-121.647 -174.534 59.0329)
(-138.155 -187.121 65.0896)
(-154.931 -219.022 100.728)
(-151.891 -215.902 76.295)
(-139.86 -189.054 91.5331)
(-17.7284 -52.7816 214.17)
(-16.9243 -59.2228 51.9459)
(-28.2774 -117.75 117.618)
(-9.2371 -51.7732 223.044)
(-4.22108 -110.47 113.255)
(-6.98725 -56.6352 44.7477)
(-0.64002 21.0105 61.4376)
(35.0053 50.9869 119.793)
(1.13866 63.8784 134.551)
(-1.99067 27.6218 172.681)
(13.6135 57.6911 129.643)
(3.54329 22.6287 168.165)
(3.40232 15.3603 60.9899)
(-2.44286 -3.93615 106.472)
(-3.23605 1.66306 108.125)
(24.7555 51.7699 125.132)
(10.9835 9.57043 65.0691)
(13.3791 19.2423 158.222)
(8.7433 18.549 163.835)
(7.14439 10.2993 62.7743)
(-1.94113 -8.78851 105.947)
(-1.80144 -10.2772 105.463)
(-4.2632 -13.2837 199.685)
(-5.74528 -48.3619 224.608)
(-4.60716 -9.56714 202.868)
(-6.63325 -28.6106 147.137)
(-5.00493 -56.1724 179.166)
(-9.63927 -60.3321 178.391)
(-4.70241 -23.827 148.797)
(-3.29494 -52.4487 41.8328)
(-2.44464 -22.067 36.2074)
(-3.78207 -26.5444 38.7044)
(-6.24002 -42.6138 70.7776)
(-3.48964 -68.9886 67.3797)
(-3.12092 -37.8112 68.801)
(-8.28525 -73.2024 69.9918)
(-4.20947 -15.4347 190.101)
(-13.4872 -53.7351 220.146)
(-3.90809 -16.1921 195.925)
(-9.24235 -32.8868 145.44)
(-21.9098 -65.2625 172.332)
(-15.5779 -63.4499 176.758)
(-12.6631 -34.8504 142.505)
(-11.8068 -59.3529 48.2536)
(-6.91898 -29.6745 46.8574)
(-5.03176 -30.0297 42.6926)
(-9.65065 -46.2089 73.6191)
(-20.9448 -76.1014 75.069)
(-14.57 -75.5507 72.6408)
(-13.6635 -46.8468 76.311)
(-8.05332 -62.3607 101.18)
(-11.2048 -114.516 115.818)
(-3.8751 -82.6763 126.928)
(-3.75838 -88.3337 91.6243)
(-9.78504 -87.0966 128.48)
(-3.50375 -57.6976 99.5646)
(-9.64703 -92.4063 94.219)
(-13.5277 -65.6696 102.898)
(-24.7598 -91.7823 128.665)
(-24.58 -95.4745 97.4054)
(-19.8746 -116.37 116.993)
(-17.1983 -89.8642 129.282)
(-17.1811 -94.4591 96.0325)
(-19.3802 -67.1444 103.953)
(-204.871 -143.321 -22.2762)
(-175.689 -142.816 91.0218)
(-199.184 -154.404 195.671)
(-303.71 -173.799 -14.0833)
(-310.46 -267.181 9.13084)
(-235.675 -211.04 28.6236)
(-222.831 -249.812 -16.7033)
(-162.593 -175.025 -24.8401)
(-210.588 -151.103 -19.3249)
(-131.14 -103.175 -49.013)
(-197.845 -142.598 -33.8006)
(-242.578 -155.221 -19.7306)
(-213.607 -184.142 -19.1271)
(-200.823 -174.016 -28.8776)
(-227.792 -148.675 -27.6376)
(-231.359 -180.612 -22.3116)
(-245.651 -188.732 -19.4267)
(-182.764 -137.541 7.08164)
(-219.012 -198.31 53.1544)
(-223.027 -205.909 123.376)
(-151.068 -157.258 91.9726)
(-132.239 -132.29 27.1154)
(-114.199 -96.5197 -16.6609)
(-99.6764 -91.9771 88.7252)
(-167.676 -123.056 -49.7644)
(-155.014 -116.133 -43.9238)
(-140.535 -127.464 -44.1245)
(-171.909 -150.868 -43.438)
(-193.331 -131.513 -41.6103)
(-198.379 -159.563 -32.7465)
(-164.845 -139.682 -36.3597)
(-177.829 -144.104 118.627)
(-229.172 -197.303 205.037)
(-228.322 -210.61 147.262)
(-152.301 -152.31 192.544)
(-154.796 -161.497 147.744)
(-97.7327 -90.4325 118.468)
(-136.017 -129.106 191.972)
(-284.496 -167.579 -11.3889)
(-273.778 -162.401 -18.8977)
(-257.091 -157.545 -20.4991)
(-259.918 -188.247 -13.9697)
(-306.334 -207.797 -7.83944)
(-286.684 -197.342 -4.2657)
(-277.168 -196.99 -15.7946)
(-211.114 -235.18 -15.348)
(-217.067 -216.928 -19.5459)
(-205.642 -205.531 -22.9284)
(-235.272 -211.042 -15.3378)
(-255.573 -255.507 -10.0694)
(-239.962 -239.933 -6.79318)
(-249.945 -222.726 -16.6984)
(-103.948 -92.5992 20.5467)
(-135.327 -110.44 -12.143)
(-125.67 -117.27 -12.74)
(-118.018 -112.222 21.7861)
(-125.53 -108.128 21.9989)
(-147.158 -130.22 -4.40191)
(-139.396 -126.86 27.0931)
(-244.458 -154.885 -16.1453)
(-179.655 -129.766 -35.1485)
(-218.85 -142.682 -29.9719)
(-224.05 -169.712 -19.2582)
(-214.442 -164.885 -8.89625)
(-189.027 -152.053 -23.9738)
(-250.215 -181.101 -4.41157)
(-186.394 -204.61 -20.9342)
(-151.452 -151.472 -36.6888)
(-178.419 -178.359 -33.6822)
(-204.618 -186.384 -20.9271)
(-186.012 -186.105 -10.803)
(-174.96 -162.644 -24.8433)
(-212.53 -212.575 -7.26568)
(-101.064 -92.0831 58.394)
(-124.023 -109.87 86.6533)
(-117.397 -112.853 87.4311)
(-116.989 -111.997 57.9587)
(-123.995 -108.655 57.3637)
(-139.456 -128.11 60.0663)
(-140.704 -129.73 88.0433)
(-263.086 -217.841 -6.13777)
(-308.408 -239.319 1.02274)
(-292.365 -253.931 13.9699)
(-284.912 -261.668 -0.0193024)
(-267.461 -246.398 2.07625)
(-289.391 -226.551 3.25932)
(-281.012 -230.826 -9.48692)
(-98.5111 -90.6626 150.257)
(-123.287 -109.559 115.661)
(-116.816 -112.494 116.057)
(-117.583 -112.973 147.258)
(-124.36 -109.647 147.561)
(-141.541 -130.768 115.552)
(-142.957 -131.544 146.269)
(47.8749 44.6972 188.43)
(14.891 13.1532 191.293)
(35.5499 34.469 186.619)
(4.64603 1.86696 194.839)
(-71.4596 -97.3341 194.224)
(-31.3088 -41.1746 137.629)
(18.4236 14.2953 155.406)
(-9.70083 -12.6934 173.268)
(104.856 88.7322 204.419)
(117.35 97.0163 224.289)
(25.5348 24.0556 201.5)
(50.0134 48.4641 192.763)
(15.7914 13.4172 202.208)
(72.8964 82.8656 160.189)
(33.6621 4.01895 224.366)
(-3.42675 -27.8885 230.667)
(104.393 96.1706 226.754)
(105.084 101.643 216.815)
(67.034 49.8413 225.144)
(116.507 102.183 211.517)
(67.7228 52.9851 224.218)
(76.9664 57.4124 219.665)
(75.9489 59.1614 217.846)
(118.695 94.672 217.157)
(101.108 90.2461 196.079)
(115.946 98.6782 205.349)
(66.0467 58.5743 196.117)
(76.9853 61.3248 209.709)
(74.269 62.1982 209.07)
(62.284 58.0512 198.151)
(96.9261 99.3975 190.909)
(77.157 81.3452 157.241)
(105.061 98.2075 188.169)
(40.99 41.197 187.672)
(61.6157 51.1385 211.241)
(66.4723 54.8533 206.552)
(42.91 42.9141 182.774)
(2.70759 -39.9636 220.389)
(2.20889 -36.5246 237.293)
(33.2686 6.45941 231.271)
(3.7091 -23.3245 209.22)
(39.3102 17.0745 215.806)
(37.8548 18.0417 223.098)
(2.96682 -21.2065 228.071)
(82.7121 74.5917 187.438)
(51.8353 45.4958 181.329)
(86.9707 74.3131 190.117)
(64.5387 56.2488 177.828)
(60.9584 55.8429 180.364)
(33.1469 27.4941 168.359)
(30.2638 27.2031 181.42)
(27.839 30.6589 176.846)
(85.9767 81.8771 181.716)
(60.182 63.8196 157.757)
(37.1262 40.5573 178.946)
(71.1256 76.0509 156.218)
(100.211 93.4243 185.867)
(61.8438 55.6522 200.21)
(-6.09925 -12.4506 203.907)
(-5.30472 -13.0029 178.436)
(28.626 24.6218 187.796)
(-1.15448 -11.5661 216.572)
(0.833898 -12.7564 194.549)
(36.8527 25.9041 203.709)
(33.9214 26.0912 213.565)
(-16.4225 -37.2877 221.404)
(11.3423 3.02586 204.861)
(-11.6759 -44.1683 229.45)
(-1.59793 -40.2788 239.194)
(12.6685 -2.1546 211.044)
(28.3146 3.52123 227.548)
(30.4626 12.5162 220.176)
(14.4895 15.7483 176.161)
(68.0184 65.7595 178.809)
(44.1135 47.5064 160.824)
(26.9061 28.0007 164.62)
(48.0926 46.2967 176.534)
(19.059 16.7028 182.967)
(0.0552026 -2.075 177.154)
(-13.7012 -21.5875 192.484)
(-13.4117 -22.2833 163.897)
(17.0313 13.3583 172.81)
(-24.0781 -36.952 150.892)
(2.76719 -3.80571 159.607)
(1.87197 -3.28863 182.73)
(-23.6511 -36.3442 182.169)
(41.7012 35.9009 165.883)
(17.7843 14.9564 171.407)
(39.1157 35.6603 175.392)
(-7.43926 -13.2031 146.201)
(13.0102 7.19857 156.827)
(11.9893 7.85929 175.747)
(-6.94949 -12.1296 170.116)
(-2.46068 -4.51602 193.109)
(-28.2905 -41.5259 206.252)
(-14.5103 -23.8319 210.739)
(-8.26441 -21.2644 220.665)
(-21.6477 -35.862 213.217)
(5.23713 3.10814 198.408)
(24.2851 17.8725 211.797)
(-12.7665 -17.3087 189.757)
(-36.2606 -52.3824 200.959)
(-22.4036 -33.5969 202.392)
(-8.23554 -14.5073 189.793)
(-46.0597 -66.4313 197.497)
(-24.5579 -33.3604 188.09)
(-32.4374 -47.9208 196.082)
(8.93175 7.65121 168.942)
(7.67763 5.25759 175.994)
(27.9179 25.861 175.669)
(1.57797 -2.3816 181.068)
(-32.1745 -39.6851 181.271)
(-16.5119 -22.079 180.402)
(-15.6043 -20.7474 178.862)
(-31.9773 -229.094 -130.249)
(83.7506 56.6257 176.964)
(-14.8408 -205.162 -121.627)
(-6.83762 -235.624 -112.608)
(17.8973 -187.856 -68.2978)
(-59.1998 -230.794 -30.325)
(-44.8457 -142.727 -56.3851)
(-69.9398 -160.278 -57.4187)
(-41.7971 -121.352 -67.9347)
(68.8317 -33.6558 76.7222)
(23.8718 -51.2605 51.8385)
(-15.7019 -30.3201 126.032)
(-55.562 -73.6052 96.7369)
(-51.3403 -109.887 -14.5617)
(-11.4222 -63.7085 -8.76357)
(13.558 5.80646 128.955)
(-28.3715 -226.034 -42.6381)
(-37.6004 -198.056 -52.8323)
(-50.9074 -214.376 -127.999)
(-3.37719 -212.649 -55.7458)
(-16.7481 -233.177 -127.101)
(-35.6159 -219.761 -116.875)
(-19.7708 -196.723 -59.0314)
(8.25924 -181.844 -62.2907)
(-8.41732 -162.974 -67.2115)
(-37.4735 -196.924 -123.835)
(17.0904 -186.792 -68.5172)
(-6.90516 -218.872 -125.422)
(-26.9875 -208.738 -119.52)
(-0.276089 -166.157 -68.9653)
(47.5354 -110.024 2.3361)
(29.0557 -88.6254 -3.08439)
(47.2099 -24.6717 67.9511)
(43.6458 -110.321 -5.35842)
(50.0158 -40.8305 63.9465)
(28.1294 -35.6303 55.8744)
(23.3665 -92.0767 -7.59653)
(77.2727 22.4219 135.31)
(59.4974 41.3634 158.657)
(53.4932 16.1341 120.439)
(48.0953 30.3622 156.542)
(47.6446 4.49313 115.173)
(27.1011 -2.93209 103.053)
(29.0808 15.3918 140.785)
(-53.5686 -177.08 -58.1091)
(-86.1192 -180.24 -105.196)
(-69.5867 -198.06 -118.938)
(-54.0605 -205.21 -102.662)
(-60.7065 -177.274 -49.3013)
(-72.05 -190.213 -85.4097)
(-38.796 -185.571 -56.4564)
(-15.1211 -245.108 -125.856)
(96.5541 21.1929 151.169)
(6.39256 -209.122 -117.841)
(-100.619 -480.582 33.6666)
(29.6929 -217.675 -107.695)
(29.4148 -221.816 -54.4617)
(27.8299 -206.618 -67.0799)
(38.6276 -208.644 -67.5639)
(27.0384 -239.287 -141.894)
(88.6999 -49.0142 83.4928)
(65.0603 -145.436 12.2736)
(111.782 11.9487 163.675)
(27.7712 -133.743 -10.7168)
(-7.55137 -23.2047 139.546)
(46.4561 -181.255 -14.8747)
(12.6878 -82.3168 123.556)
(99.35 -67.8792 85.4615)
(60.3924 -136.345 1.19326)
(92.4118 -62.8023 77.5973)
(58.7552 -153.567 -3.78439)
(76.8313 -80.9186 69.3196)
(82.4343 -79.4213 74.5859)
(65.1485 -154.831 -0.689569)
(23.7093 -217.618 -92.7127)
(41.8256 -189.289 -63.4674)
(42.5502 -169.141 -73.8314)
(35.9744 -194.543 -81.8996)
(30.6947 -206.804 -137.437)
(35.0522 -216.987 -130.147)
(36.8676 -206.119 -68.943)
(-84.0568 -415.016 19.3884)
(-14.7404 -297.543 -73.1679)
(-34.2011 -351.099 -20.8145)
(-25.1469 -366.548 -7.99972)
(13.2145 -266.304 -127.612)
(21.0867 -259.07 -134.745)
(-1.03396 -305.355 -26.9638)
(115.208 70.2329 218.176)
(102.584 14.043 158.967)
(102.321 70.1568 217.536)
(66.7658 28.6983 205.527)
(72.1079 -15.485 146.219)
(79.465 -10.18 146.7)
(76.7083 35.9717 202.264)
(-31.2532 -267.451 -27.7025)
(-54.169 -333.692 -2.27997)
(-6.59916 -262.259 -110.458)
(15.5139 -251.38 -137.525)
(9.46802 -232.418 -49.2556)
(1.23237 -243.27 -134.191)
(11.7881 -260.964 -40.5906)
(21.1163 -195.219 -55.9787)
(21.9282 -212.465 -113.618)
(32.4998 -198.432 -54.7126)
(27.3293 -222.293 -127.405)
(29.7142 -202.921 -66.5981)
(11.7812 -224.183 -125.819)
(37.5951 -208.529 -65.7715)
(60.6997 -131.904 7.94971)
(67.3533 -144.13 13.1108)
(95.2721 -63.904 88.8504)
(77.2671 -70.8044 76.8715)
(58.8919 -132.837 -2.68058)
(69.4268 -54.1566 70.848)
(68.3947 -148.679 0.0382037)
(102.89 67.2083 197.439)
(116.618 69.5919 211.582)
(110.157 15.0199 161.223)
(77.7261 -2.41478 141.308)
(65.4898 40.1424 174.669)
(63.7545 4.40305 129.933)
(76.397 40.7311 191.665)
(28.629 -253.162 -53.7325)
(30.1374 -236.628 -149.582)
(27.9865 -242.814 -161.601)
(30.8253 -245.441 -148.298)
(42.0882 -214.831 -62.7189)
(30.8123 -243.561 -133.564)
(37.5579 -237.664 -54.9946)
(26.9318 -221.032 -146.79)
(32.5782 -231.708 -79.7419)
(29.6111 -215.362 -81.3253)
(31.0027 -228.923 -136.536)
(38.1385 -228.901 -75.2198)
(29.1474 -245.014 -132.717)
(37.8036 -217.615 -74.7543)
(53.9719 -166.668 -12.4482)
(34.218 -125.772 59.5885)
(56.8839 -103.019 63.4193)
(59.0804 -93.77 67.053)
(48.132 -169.844 -11.1864)
(30.7109 -108.655 59.4297)
(60.8935 -162.836 -8.64433)
(42.5374 -49.9742 135.127)
(34.4204 -14.4607 193.437)
(3.47612 -55.6917 179.893)
(45.5667 -36.7884 131.354)
(3.54159 -38.41 168.844)
(11.587 -63.7821 116.424)
(39.1891 -1.11294 185.175)
(23.7123 -246.698 -135.416)
(24.3494 -218.263 -58.4768)
(14.5355 -244.914 -106.124)
(38.8925 -219.598 -58.8871)
(10.4694 -243.076 -123.83)
(24.6761 -246.872 -120.043)
(34.5392 -227.194 -57.2273)
(26.2084 -235.23 -131.782)
(30.638 -206.898 -69.8259)
(15.6041 -243.404 -111.715)