/*--------------------------------*- C++ -*----------------------------------*\
  =========                 |
  \\      /  F ield         | OpenFOAM: The Open Source CFD Toolbox
   \\    /   O peration     | Website:  https://openfoam.org
    \\  /    A nd           | Version:  9
     \\/     M anipulation  |
\*---------------------------------------------------------------------------*/
FoamFile
{
    format      ascii;
    class       volScalarField;
    location    "0.00345";
    object      impulse;
}
// * * * * * * * * * * * * * * * * * * * * * * * * * * * * * * * * * * * * * //

dimensions      [1 -1 -1 0 0 0 0];

internalField   nonuniform List<scalar> 
27150
(
156.628
145.64
39.7727
121.123
0.0277631
0.668481
0.000117578
0.000215146
178.179
205.808
161.166
149.857
0.187334
0.0680632
0.0176594
0.00621421
212.432
162.909
202.368
165.797
204.535
180.357
214.404
168.729
174.327
211.2
152.512
195.318
161.053
201.039
198.255
159.66
200.468
135.75
132.012
190.886
188.529
191.006
154.681
195.222
129.539
185.27
117.707
183.135
213.4
209.423
210.415
202.754
203.788
200.391
199.338
214.059
211.481
211.113
204.861
204.49
201.117
201.502
209.68
208.159
206.589
201.421
199.755
197.978
196.284
207.875
202.657
204.75
195.509
197.781
194.281
191.969
204.131
208.193
207.806
197.398
193.714
193.293
197.799
206.075
203.391
207.082
196.65
191.431
192.524
195.58
204.779
199.404
203.174
190.002
194.188
192.459
188.228
208.277
201.558
238.71
210.428
240.489
196.608
194.316
229.801
227.492
206.986
232
235.777
192.912
194.556
226.043
224.55
240.871
237.54
237.148
229.616
229.228
225.601
225.996
239.738
235.331
236.377
227.502
228.49
224.862
223.878
237.401
233.971
226.262
232.307
224.73
222.614
221.07
233.963
228.452
230.464
221.12
223.011
219.331
217.401
233.872
229.4
233.477
221.643
217.696
217.298
222.04
210.01
219.844
219.441
215.598
206.294
216.01
205.866
231.615
228.586
232.683
220.901
215.54
216.544
219.911
217.722
209.269
218.704
214.859
204.116
213.887
205.12
230.208
224.306
228.511
214.202
218.622
217.048
212.588
216.472
205.419
214.95
202.8
212.614
211.075
201.2
220.196
226.625
222.352
215.267
208.643
210.736
213.264
203.613
211.294
213.217
209.317
197.21
207.332
199.342
211.371
201.714
196.157
207.115
206.687
211.791
201.277
210.631
199.488
195.384
204.918
205.934
209.642
200.52
198.138
203.572
208.343
206.765
191.185
201.938
196.486
197.502
199.182
201.307
190.413
183.689
186.128
188.05
192.316
202.877
197.857
200.043
186.756
189.143
204.948
191.591
179.486
192.742
188.829
173.592
187.668
174.918
163.742
72.4884
48.5473
142.829
77.0234
52.7742
146.331
193.516
180.842
193.935
189.619
176.301
190.053
175.806
200.049
195.942
195.506
189.19
188.748
183.667
184.13
193.663
199.295
194.736
186.835
187.957
182.847
181.683
156.582
56.8702
65.9673
129.841
34.2023
45.8222
140.55
176.469
188.232
190.097
171.852
186.153
184.261
169.669
190.537
196.896
192.264
185.358
183.525
180.147
178.23
185.358
165.262
181.125
171.316
180.658
185.805
170.8
171.754
183.45
186.018
182.014
163.931
179.395
167.033
184.548
168.532
178.613
164.313
179.824
183.367
169.886
193.265
188.509
186.137
178.786
181.341
175.94
173.246
300.433
245.248
315.847
253.027
255.459
311.609
244.933
242.212
296.083
251.484
297.971
308.785
240.498
233.801
293.454
283.427
315.253
311.412
294.312
310.689
293.791
290.375
290.962
313.816
290.748
307.004
309.184
292.572
289.078
287.201
305.33
288.457
304.278
300.979
285.651
284.849
282.007
301.674
279.428
293.746
297.43
282.6
278.93
275.722
306.319
299.636
305.565
286.025
281.556
280.903
286.641
254.226
270.818
272.339
269.256
249.911
267.682
251.174
273.801
255.067
273.36
270.35
252.473
270.827
252.066
298.142
301.911
304.043
284.707
277.828
279.614
282.848
268.914
249.571
266.569
248.281
265.688
263.28
246.302
299.235
290.352
296
275.539
280.514
277.708
272.83
261.379
247.473
264.042
260.683
241.848
257.943
244.149
288.846
286.973
292.505
274.678
266.7
269.863
271.459
266.595
262.679
248.999
244.482
262.149
267.107
248.57
265.465
246.339
243.526
259.451
261.025
263.876
247.633
244.65
257.445
261.845
259.43
238.466
255.061
242.63
390.889
412.521
389.482
409.404
410.481
426.649
392.948
386.462
409.81
418.843
414.966
428.349
422.278
415.95
421.137
401.968
393.93
405.844
397.776
410.956
406.759
396.106
402.188
396.585
412.986
399.889
409.424
405.719
394.371
393.362
395.426
402.271
399.492
384.881
391.955
390.339
420.648
416.622
412.004
405.364
415.633
411.039
401.855
399.459
396.611
404.884
403.586
389.568
396.465
394.991
402.631
380.03
389.373
399.565
378.117
390.519
387.275
374.765
383.597
369.987
380.764
378.43
387.957
394.489
366.43
315.474
318.457
337.118
374.547
332.16
381.092
313.31
361.934
356.448
328.697
368.807
310.243
298.789
352.625
335.884
389.344
383.061
388.149
381.556
373.6
366.376
367.625
385.394
367.961
374.329
378.7
371.484
363.991
360.366
375.645
369.441
363.208
362.424
357.417
355.635
350.057
375.558
364.839
373.88
358.539
351.456
350.102
359.934
357.048
336.466
356.25
349.255
331.376
330.508
350.305
362.961
345.311
349.681
355.959
351.369
344.337
338.726
334.826
351.337
354.406
347.171
326.107
344.099
328.708
370.91
357.791
366.54
356.058
344.245
347.684
352.448
347.215
324.453
342.097
322.805
340.102
335.333
318.835
361.046
346.93
354.853
339.903
347.864
342.627
335.055
331.422
319.964
336.756
330.391
310.424
325.482
314.652
342.815
341.289
348.674
337.299
325.23
330.108
332.088
341.953
335.426
325.208
317.482
334.271
324.237
343.089
339.829
315.728
319.933
329.369
332.224
336.83
322.428
316.76
325.765
333.017
328.578
306.654
321.639
313.01
323.982
304.9
302.789
312.841
317.279
319.368
309.023
256.812
238.055
236.23
249.675
252.461
254.032
240.425
736.436
403.489
331.033
381.802
387.448
471.487
491.664
405.428
439.368
445.707
810.612
350.686
574.252
517.322
643.147
538.791
335.45
352.293
346.19
422.131
444.415
448.489
421.605
376.973
434.162
450.537
475.848
512.322
488.162
523.08
380.383
374.884
361.546
418.438
440.991
447.08
411.711
355.918
387.699
360.335
414.952
425.395
417.996
419.949
499.623
413.1
475.143
494.465
495.964
533.843
539.812
796.956
565.579
568.11
714.44
569.834
571.084
704.466
571.494
770.889
569.744
570.823
659.546
569.208
684.696
371.229
386.878
366.852
408.008
397.561
398.545
410.221
450.352
483.356
487.7
459.48
454.726
479.96
454.568
531.728
535.208
573.287
558.591
530.572
562.084
572.108
440.034
458.898
479.216
436.484
445.587
470.037
428.61
440.576
427.849
433.576
434.159
422.887
435.894
427.34
511.095
526.386
522.287
560.614
557.104
565.64
555.805
596.958
569.866
570.361
570.72
593.198
569.353
636.696
568.851
605.906
561.793
584.518
566.197
565.17
622.753
423.674
404.263
417.934
414.588
427.103
412.293
416.386
590.874
421.648
477.938
697.777
460.291
543.274
500.201
563.651
510.626
408.366
363.989
373.055
465.38
466.747
380.662
402.643
516.216
462.895
524.431
487.089
540.093
538.227
483.5
378.37
407.75
378.856
432.08
403.767
400
428.952
570.191
658.36
565.984
631.88
564.678
558.811
604.654
368.509
365.988
365.303
385.761
388.707
383.51
378.026
555.509
621.608
560.51
553.178
563.196
549.866
580.668
411.753
389.745
382.907
400.545
440.996
403.867
432.84
533.699
467.686
529.358
536.731
492.274
535.46
486.075
587.947
556.846
559.568
554.052
554.406
553.009
571.417
501.899
548.279
548.878
542.623
506.758
540.956
498.569
370.951
362.887
365.859
382.13
372.459
383.728
373.824
450.83
429.915
419.529
414.917
465.088
426.557
449.386
409.932
393.802
396.904
396.707
389.692
403.897
386.218
550.321
549.109
549.685
547.399
550.547
549.085
557.953
537.548
499.808
529.709
503.457
534.841
533.619
498.796
413.993
456.367
464.665
427.272
425.628
416.429
451.891
393.479
377.81
397.987
384.328
399.775
392.338
380.892
364.05
364.607
379.055
383.031
374.283
388.209
364.033
345.261
370.766
383.315
386.239
375.764
378.037
386.731
378.915
366.06
367.119
370.627
368.275
372.026
372.172
366.762
385.239
376.71
378.56
378.51
384.423
377.183
371.645
389.475
380.391
381.112
381.787
386.328
378.097
373.936
367.468
370.329
372.705
370.176
358.108
363.793
364.716
369.326
373.98
369.031
370.608
360.656
366.805
364.353
373.922
372.098
380.641
372.994
357.541
366.65
365.124
365.56
351.749
353.49
351.2
359.734
358.904
358.199
166.743
177.018
181.82
179.886
158.71
175.02
164.492
190.433
184.722
185.198
177.946
172.004
171.49
178.434
182.741
189.641
183.903
177.093
169.295
170.592
175.869
177.579
158.554
169.788
155.875
172.62
174.87
161.772
179.312
187.074
181.214
167.592
174.256
172.239
165.452
135.074
43.8236
138.788
108.752
16.9561
14.1011
104.196
159.093
175.92
175.435
169.574
152.767
170.088
152.17
173.31
158.097
174.57
168.668
149.556
167.349
151.115
180.624
174.391
177.049
169.815
159.747
162.864
166.955
46.2125
37.1656
132.637
12.3491
101.176
54.9658
6.13678
171.649
152.224
169.559
147.481
165.602
163.406
144.847
164.335
158.957
158.351
142.42
141.701
135.044
135.784
164.076
149.227
167.05
160.758
137.708
157.606
141.611
162.709
155.718
157.295
138.514
140.427
133.728
131.753
162.98
144.879
135.066
156.057
155.473
163.526
144.241
162.023
141.434
133.844
152.95
154.454
160.623
143.113
159.132
153.633
151.01
135.971
132.763
129.118
125.789
153.501
144.038
147.828
124.23
128.862
121.741
116.936
139.185
150.947
158.77
156.436
126.371
148.408
136.317
149.651
144.539
151.283
126.193
115.582
117.721
124.139
145.683
152.997
152.374
127.563
119.941
119.149
128.328
153.592
128.479
122.449
141.495
145.284
150.162
132.772
147.486
137.661
144.755
112.723
121.395
117.93
109.126
137.424
134.111
141.42
113.723
99.6522
104.773
108.751
138.103
130.157
129.431
110.539
109.725
99.2782
100.107
136.889
126.175
128.13
106.029
108.245
97.7588
95.4862
129.538
123.544
120.193
103.073
99.3614
92.4551
88.6617
125.719
111.132
116.069
89.6572
94.8903
84.1081
78.8046
12.856
0.235785
0.052287
0.0390514
19.7887
14.8906
22.9434
112.192
76.2049
111.355
103.606
69.4434
104.441
68.6453
107.594
74.7088
109.845
102.092
64.9916
99.8352
67.1743
120.196
107.94
119.423
87.8474
76.3519
75.5245
88.6812
222.296
123.566
93.9646
0.00780951
2.553e-05
203.49
145.592
0.0307291
0.000405308
227.577
190.091
199.225
189.725
217.827
209.062
172.715
194.743
151.413
165.232
132.128
148.546
187.463
192.84
229.883
226.28
219.057
223.895
216.751
215.26
212.861
225.063
218.374
221.272
211.282
214.178
210.171
207.131
222.283
215.198
219.795
206.282
211.023
208.503
203.603
141.369
178.057
185.428
112.08
177.698
158.083
89.4228
209.14
196.581
206.717
194.769
205.081
202.541
191.97
200.896
200.306
197.664
192.922
190.006
189.334
186.348
213.991
212.286
217.048
205.661
197.167
200.581
202.432
193.561
200.856
203.971
199.647
185.055
196.336
188.748
197.995
191.331
194.692
183.006
186.72
182.957
179.1
200.513
195.342
183.99
197.82
180.812
192.459
186.726
196.777
190.01
194.06
180.866
185.34
182.247
177.627
249.841
266.264
240.397
294.245
231.212
279.791
268.658
222.194
290.47
276.224
289.951
286.102
272.949
272.424
269.082
269.643
282.816
286.649
278.383
282.236
265.678
262.194
255.791
242.888
258.621
239.411
255.093
252.173
236.839
285.095
276.113
281.294
263.415
268.15
264.779
260.049
504.43
375.022
342.685
546.081
569.546
490.063
541.201
499.779
537.965
489.329
468.703
435.511
366.812
421.176
376.445
467.016
383.158
362.899
358.138
364.385
365.95
339.934
361.95
327.276
552.604
556.282
552.477
552.135
549.565
551.301
546.331
536.717
499.669
537.443
498.281
534.237
532.513
501.214
398.113
449.859
407.356
451.028
409.984
417.881
460.023
377.305
369.734
383.519
372.686
386.393
389.658
373.647
555.037
549.229
554.252
552.479
543.133
551.902
543.918
544.085
548.869
549.579
550.213
540.272
547.128
541.996
364.285
364.016
365.805
361.386
362.34
363.994
358.347
533.089
504.059
536.003
530.018
499.884
526.924
501.361
530.268
525.369
496.906
527.271
493.871
521.493
498.618
427.446
460.996
417.345
426.705
470.964
466.916
434.542
461.392
430.432
466.492
427.547
467.466
465.954
434.231
394.143
372.516
388.731
394.038
376.829
400.066
375.155
549.381
540.876
539.524
539.255
543.95
546.616
541.266
392.708
378.581
398.68
395.437
378.121
401.872
376.22
362.632
352.768
358.117
352.178
358.234
353.235
346.779
363.322
355.255
358.273
362.439
362.87
354.904
352.299
365.565
355.813
359.216
363.18
363.691
355.019
352.159
524.046
494.604
491.279
513.616
517.584
520.485
496.695
433.712
470.013
467.633
439.626
468.895
437.246
438.382
400.188
379.361
379.853
410.396
406.219
405.97
376.92
349.344
347.633
353.662
348.724
337.179
344.759
341.793
346.024
348.195
353.233
348.266
335.075
343.589
340.791
362.051
361.901
362.414
351.971
348.26
349.73
350.039
344.067
332.009
330.913
337.292
339.935
340.618
336.138
298.21
334.471
311.044
350.352
294.735
330.779
323.001
282.761
344.749
339.542
343.897
334.168
338.551
333.348
328.228
339.523
324.315
329.148
328.737
333.549
323.413
318.736
326.249
306.727
321.337
306.143
320.631
315.937
301.826
337.383
325.959
332.243
320.437
327.003
322.097
315.708
312.181
316.693
302.469
311.371
293.296
306.841
297.507
317.323
327.476
321.46
317.429
306.98
311.213
312.874
300.667
308.367
314.742
310.132
290.693
303.933
296.418
305.62
288.119
286.705
295.513
299.645
301.229
292.23
234.959
237.775
252.881
249.159
231.176
246.01
234.102
273.647
277.478
272.398
261.337
253.038
256.616
257.796
235.541
246.735
251.135
248.141
228.43
243.675
232.867
245.028
226.94
225.427
237.085
240.468
241.756
230.011
194.728
179.355
177.093
185.406
189.192
191.224
183.302
183.065
190.981
186.777
178.714
169.642
173.908
174.67
51.45
32.4563
128.271
104.145
13.9482
124.777
29.3958
180.502
161.213
177.137
160.319
176.366
172.883
156.165
188.413
183.394
175.823
180.219
172.396
170.102
166.452
168.943
156.637
173.299
168.906
145.889
164.377
151.394
154.803
166.496
171.719
168.093
143.896
162.695
150.445
181.995
172.374
176.574
163.883
168.454
162.19
157.201
171.268
167.568
174.331
156.024
163.579
159.594
151.615
163.939
139.509
138.461
153.216
158.309
159.184
145.388
165.769
163.198
170.394
154.911
140.436
146.449
149.43
22.2266
72.7748
40.7692
42.6489
2.72792
28.5169
0.867665
160.606
136.337
156.56
133.052
153.874
149.473
127.556
140.643
139.58
134.366
118.822
112.608
111.348
104.957
130.442
146.307
151.828
144.307
113.636
138.275
121.119
123.359
136.97
146.071
141.23
105.511
131.635
117.329
134.909
121.279
128.301
97.6714
105.561
97.7498
89.7309
132.693
118.846
127.148
93.7584
102.996
96.4496
87.0956
135.561
102.233
97.9595
118.129
125.394
128.956
110.307
113.254
111.982
120.696
89.1133
71.5264
79.6736
81.0009
1.31371
0.0363975
0.75775
0.0275566
0.636872
0.00999854
1.56554
0.155391
0.965761
72.951
64.4866
69.037
1.25754
2.04732
77.7325
0.811787
0.375639
69.9437
61.6075
49.3164
0.541807
57.0976
60.388
64.8366
0.986212
0.285092
16.7058
0.357231
19.0258
0.218081
0.105308
57.5655
45.5338
31.4081
0.189695
39.1888
0.123821
26.0471
33.4267
10.3568
0.0134112
0.0320369
17.8267
69.5655
104.614
100.906
62.1203
96.847
93.1308
58.5886
115.913
106.445
118.021
86.306
71.6588
73.9776
83.9956
61.7238
83.5566
49.6853
91.3473
96.4814
88.6971
54.4293
105.344
83.6671
115.689
109.367
98.6848
76.9349
66.0474
113.073
97.3579
109.464
68.5767
80.9176
77.0771
64.7483
95.1604
52.0248
61.3442
86.8397
86.015
95.9924
60.5671
21.8739
7.78312
0.0090721
0.00702713
1.94072
0.205553
0.00250039
77.7231
44.4094
85.5111
45.5191
78.9869
71.2232
38.6687
93.6442
56.9903
82.2338
50.6234
84.4982
91.3828
59.1259
67.1909
87.312
99.824
92.7365
105.054
72.4935
60.1991
54.1811
79.2361
88.3868
84.6629
42.4885
75.5149
50.7318
102.126
82.7786
91.1582
61.3839
69.4931
58.6602
50.6734
65.9944
75.0908
42.0888
80.2241
38.5936
71.094
46.6844
49.0939
61.1961
74.0836
81.0875
93.7614
86.8757
54.5501
70.8069
75.2621
73.0862
38.222
38.0784
36.3293
40.0138
75.5198
76.8459
74.6479
42.076
39.5273
40.235
41.3494
0.0206972
13.7584
16.4469
2.90414
2.1468
0.00263469
0.00344298
43.1121
76.9891
76.1749
65.6936
34.6531
66.4916
33.9904
67.9743
66.6938
70.2213
35.8725
31.2342
34.0302
33.0161
72.6118
68.2025
71.7584
37.1417
34.9029
34.2428
37.8278
72.4099
41.7656
74.6647
64.2003
30.8528
61.9724
32.7238
67.8358
66.2681
64.205
35.5874
33.8909
30.9601
32.5948
0.00124113
3.35824
0.00713908
0.0169229
12.122
1.74122
0.00219514
69.4271
33.9941
65.7325
28.4218
59.0283
55.3948
25.4911
39.1515
63.9814
71.798
64.0844
26.2193
56.3537
32.5585
65.0454
58.0886
61.4661
28.9413
31.6568
28.8079
26.1957
62.5494
55.7277
57.8385
28.0087
29.7162
26.0558
24.4372
60.0639
64.0242
59.2762
31.5232
30.8923
27.7674
27.1715
60.2468
69.2855
37.0078
62.8372
24.2908
53.8929
31.5296
61.967
55.142
59.9555
27.6071
25.3877
29.1659
23.92
53.9736
52.5353
57.2784
25.5556
19.669
23.071
21.9907
19.5328
48.2874
49.0196
54.7721
54.0114
23.7308
23.1744
54.1174
52.9703
49.6039
25.8152
23.1961
22.3648
19.907
18.4916
26.2235
56.3257
30.3189
61.355
51.1076
22.144
35.7338
57.8868
66.3331
70.6901
79.1738
47.3162
39.5937
18.0742
44.9455
46.9341
50.5603
52.6137
22.131
20.6223
50.0873
41.2441
45.6761
17.0468
20.2355
17.1581
14.2354
12.9822
14.9816
42.3493
47.878
44.6065
18.7039
16.4526
54.6694
25.5446
44.0178
16.4584
43.2902
55.4406
24.9495
53.2113
22.1159
15.4963
39.8144
41.8943
51.037
23.8022
15.3374
42.166
42.8646
36.3833
35.721
11.3378
10.963
55.7867
19.938
39.6515
19.054
46.995
48.2032
25.7786
14.0525
38.947
40.8623
32.6539
34.4774
10.2599
9.26612
35.519
10.8087
8.58771
36.5093
40.7966
13.966
11.3644
19.9501
37.0884
48.1712
44.6525
10.3452
33.7666
17.3888
0.266236
0.00093259
0.000558919
2.28295
0.00478025
0.045729
0.000996431
14.6966
21.8166
50.6884
17.263
44.5033
34.8652
10.9639
9.66264
11.3637
36.4528
30.288
27.4345
8.04912
6.69591
206.376
214.878
182.601
210.446
169.939
206.752
175.308
188.095
218.281
213.236
197.783
156.217
187.527
179.965
167.24
204.993
217.274
215.991
214.952
209.882
208.91
207.043
206.094
216.202
212.488
213.852
206.002
207.645
204.854
203.215
211.257
210.795
208.776
204.008
201.698
201.211
198.882
213.392
209.364
212.325
200.492
203.926
202.988
199.566
209.781
208.203
211.186
201.753
196.665
200.107
198.325
208.965
203.82
206.445
196.161
199.084
196.24
193.292
208.048
202.904
205.997
194.624
198.089
195.736
192.238
186.674
200.202
199.014
184.215
196.853
195.713
182.842
200.967
200.497
203.629
193.065
186.459
189.521
190.071
195.466
184.845
197.438
194.18
178.829
192.232
181.051
189.229
179.968
193.207
192.1
173.97
178.621
188.14
193.146
190.501
176.938
176.195
189.922
187.273
173.147
190.587
174.62
184.676
172.186
188.646
176.845
186.629
173.495
169.603
184.205
184.28
165.694
169.655
180.915
171.965
182.341
186.332
183.665
164.078
168.875
179.633
236.479
262.862
231.718
222.842
288.704
220.91
215.726
259.678
285.66
226.973
249.898
245.996
215.474
221.443
207.657
214.069
250.292
278.02
288.139
279.841
260.307
253.06
261.43
253.679
242.465
270.39
262.857
271.38
247.001
246.927
241.567
236.602
212.852
204.92
194.524
203.197
225.803
230.907
289.129
279.303
280.224
260.362
261.45
253.291
251.889
255.765
239.371
254.762
248.135
237.172
237.797
235.23
269.584
261.781
271.063
245.999
237.75
239.995
244.19
243.447
241.297
243.912
233.182
235.213
233.116
231.019
252.948
243.101
245.853
233.23
235.734
232.955
230.402
239.908
225.279
235.385
225.387
239.575
234.581
223.506
231.102
224.052
232.768
231.478
220.811
229.454
222.152
238.969
238.991
241.565
230.781
226.092
228.224
228.654
229.635
219.771
228.044
219.296
227.727
225.975
217.533
239.007
241.173
238.788
230.919
228.729
228.368
226.168
236.684
223.378
238.509
233.179
218.826
221.364
231.163
229.713
218.433
217.268
224.922
227.392
219.893
227.448
224.155
217.786
226.243
224.078
213.127
215.484
221.934
234.252
234.194
236.669
223.771
226.341
223.77
221.156
233.931
236.144
233.168
222.461
225.556
223.341
220.215
216.832
222.887
225.466
223.612
212.211
215.01
220.991
221.658
216.803
210.533
210.087
212.924
219.007
219.484
221.742
210.478
219.495
209.95
219.029
216.767
207.545
228.933
228.472
231.533
220.924
214.962
217.74
218.239
214.312
207.852
217.024
214.276
201.854
211.509
204.869
206.744
212.766
216.036
213.75
200.667
210.431
204.297
333.869
249.458
351.789
306.288
317.601
300.849
301.196
274.773
365.875
376.637
345.747
375.36
362.448
344.579
331.145
329.828
305.576
335.906
319.919
352.106
346.805
315.948
367.473
372.342
357.748
337.823
341.938
327.309
322.42
312.508
271.681
281.391
280.717
311.769
298.895
270.027
334.546
291.818
296.634
323.78
340.961
311.437
306.297
399.073
391.732
410.215
381.136
318.73
319.673
322.666
313.306
396.328
405.259
370.67
400.821
367.366
375.808
371.02
385.13
385.94
394.373
355.232
362.443
364.385
355.576
409.252
402.312
402.963
379.341
378.824
372.471
371.58
392.774
384.698
394.811
364.306
351.087
354.223
362.255
341.681
306.845
337.105
316.869
346.098
340.33
309.538
290.733
299.27
330.916
332.786
291.204
323.196
300.907
348.807
318.619
348.448
341.495
309.866
310.463
340.837
322.216
290.374
288.175
332.851
299.631
300.998
331.186
277.823
288.732
262.917
256.864
254.546
285.883
260.648
309.72
278.962
276.018
295.922
264.161
267.523
291.952
267.984
271.511
252.087
282.446
254.745
257.917
278.371
262.433
303.566
289.383
267.921
256.405
286.946
264.464
298.007
314.298
293.452
320.174
308.125
303.361
285.945
282.739
281.617
285.476
308.829
295.218
299.139
279.685
276.587
301.737
294.348
297.979
279.498
282.393
279.432
276.37
270.545
253.631
251.458
251.302
267.056
264.588
249.091
290.829
294.441
290.688
276.392
269.938
273.185
273.285
265.246
246.714
249.166
262.034
244.207
259.319
246.744
261.724
248.83
246.031
261.885
243.632
259.015
246.529
253.296
238.388
241.453
241.1
244.083
256.217
259.213
332.675
361.841
398.729
347.246
317.233
340.223
315.771
351.114
390.725
388.123
382.261
373.909
379.321
370.914
362.207
370.941
440.508
444.758
436.855
392.005
378.911
396.424
416.264
373.592
294.465
446.228
509.09
457.283
467.215
408.961
460.253
441.095
448.842
349.789
322.258
327.595
377.96
385.092
360.762
402.847
448.981
479.883
458.483
482.441
462.353
480.123
475.575
379.852
401.339
369.034
348.365
363.663
364.28
362.869
394.273
349.735
391.088
414.544
451.486
423.498
364.444
356.466
395.222
397.545
377.025
379.531
401.79
392.74
408.507
440.398
423.214
447.672
430.123
426.137
435.331
367.413
416.003
409.956
390.436
384.222
407.672
406.566
458.882
463.366
476.292
452.116
460.388
465.516
452.528
504.342
493.265
494.101
491.079
489.279
479.513
478.94
446.921
425.459
422.642
433.038
459.152
453.433
428.134
384.319
369.963
362.451
374.205
382.194
364.296
372.799
432.179
444.181
434.299
423.223
426.621
430.704
419.91
385.476
377.747
383.958
399.932
388.044
390.246
398.053
409.406
429.355
420.044
416.39
409.949
404.547
423.31
440.399
438.964
447.904
434.453
428.604
438.759
425.811
475.137
460.872
478.468
466.33
448.666
451.717
464.428
432.873
417.43
410.636
444.87
412.716
434.824
421.212
235.406
135.474
281.183
78.4803
132.521
256.183
257.398
295.537
67.2513
112.076
101.368
81.3418
118.541
125.534
91.5203
231.011
166.311
234.427
157.987
181.101
181.543
243.529
105.607
90.5746
121.61
137.711
129.457
162.201
105.63
151.094
173.329
188.792
102.281
140.229
146.904
111.689
186.187
173.697
231.889
190.166
251.988
206.904
241.734
270.595
231.912
235.76
290.54
202.637
201.596
259.258
200.188
223.669
277.64
168.919
182.7
208.22
133.681
304.418
334.523
297.284
213.874
283.259
240.445
262.931
110.643
510.525
427.78
981.295
69.3249
293.421
1412.14
1092.6
56.0755
109.737
132.31
69.3733
135.023
163.598
85.7282
1392.92
394.946
426.015
1343.58
433.125
467.146
1311.78
200.99
86.0781
161.716
202.571
147.489
256.96
110.405
249.984
142.812
173.718
96.4889
179.995
215.317
117.871
1316.03
1362.37
465.014
508.934
1210.96
554.167
1268.33
564.66
1139.96
536.952
1252.03
483.672
516.278
1209.31
314.653
355.126
229.44
266.835
211.064
336.732
153.172
620.313
1038.41
593.727
554.247
1093.7
593.713
1156.33
513.678
403.273
359.862
321.404
456.901
364.748
283.242
438.173
305.121
354.933
297.453
345.503
301.616
370.964
355.546
284.8
334.727
334.454
302.087
294.588
350.674
361.55
381.591
412.038
378.762
446.232
406.077
403.704
453.424
332.715
353.699
318.219
426.158
389.729
380.004
422.707
382.136
339.008
319.063
384.529
424.105
399.004
424.319
389.078
425.056
378.683
408.876
458.198
421.025
458.43
489.954
483.847
442.758
442.462
496.847
487.086
476.436
443.749
476.356
447.53
460.354
443.274
476.503
463.984
652.423
435.4
713.919
429.103
495.834
924.64
494.235
389.074
147.585
955.262
557.532
359.651
363.079
371.773
346.486
349.459
248.523
160.193
254.63
205.178
328.564
206.028
330.827
417.943
297.499
129.123
174.776
200.702
177.171
203.111
262.418
264.421
1250.85
1167.1
602.597
1139.6
598.772
634.205
1057.95
204.751
272.436
232.457
275.587
234.859
281.412
315.629
502.308
439.259
845.356
507.171
553.596
603.138
476.691
368.729
353.379
387.189
368.888
462.877
418.041
359.247
400.8
301.248
419.232
492.766
455.579
394.852
542.036
295.413
485.642
415.416
491.429
449.015
532.975
393.446
334.318
268.348
266.358
327.887
401.163
354.151
368.034
322.951
261.643
259.65
326.499
395.159
360.914
353.018
641.616
1026.17
627.091
648.788
859.474
650.969
954.204
642.3
1067.54
635.107
650.309
865.85
644.075
965.496
339.388
320.817
285.686
332.548
373.518
355.604
362.227
325.279
312.277
278.565
329.526
361.083
352.05
351.677
364.473
419.496
393.605
414.985
380.2
398.156
384.905
539.612
575.004
482.376
477.47
560.152
453.139
566.756
520.457
467.45
547.374
453.496
530.608
549.227
474.222
353.502
407.02
373.075
395.607
363.521
378.912
411.424
651.798
627.425
785.514
784.661
639.281
644.845
871.157
628.112
770.454
625.548
745.451
605.659
600.959
687.043
357.156
373.071
374.113
366.646
363.503
367.203
370.172
344.668
359.231
356.368
352.081
348.661
359.199
357.644
604.578
704.226
617.317
591.958
605.216
582.71
639.321
397.667
421.539
387.199
391.591
443.172
427.763
401.477
571.455
486.924
564.368
559.158
505.301
561.186
492.234
662.533
562.454
581.417
576.132
578.242
558.891
621.724
462.889
536.383
533.999
545.452
492.286
541.512
482.182
403.317
385.267
372.558
386.676
435.49
396.873
420.82
375.464
364.19
366.142
369.7
366.97
378.581
362.737
353.14
365.546
354.328
365.821
364.457
375.261
359.264
439.848
464.981
438.049
457.175
431.595
431.485
457.593
396.156
394.793
386.694
383.738
391.753
379.354
379.852
427.39
407.533
404.521
421.928
417.56
412.564
397.021
371.757
365.89
365.443
377.168
379.745
370.46
367.614
440.818
425.363
430.594
432.516
436.784
422.113
416.163
412.36
412.455
395.209
403.491
400.121
418.074
408.456
361.746
359.275
361.152
364.828
367.231
366.148
363.481
402.553
392.814
413.45
402.243
423.393
410.792
389.61
570.024
572.483
558.164
562.514
557.728
566.554
591.957
446.998
432.024
421.411
412.384
435.045
422.913
445.83
549.945
507.005
539.912
502.958
542.326
549.195
497.534
372.318
368.777
364.512
376.049
388.951
383.092
383.704
398.455
453.622
418.303
451.363
407.67
438.505
409.029
381.036
387.574
386.746
373.95
365.016
368.168
372.404
363.252
363.468
363.151
364.305
358.514
361.311
361.859
373.537
366.588
373.263
368.888
358.799
362.657
367.013
416.571
399.554
421.421
406.437
378.02
384.63
399.956
408.926
399.757
416.138
406.399
379.89
388.703
398.534
387.688
380.343
401.992
396.538
357.045
379.844
374.397
370.484
382.091
373.271
365.535
357.536
353.98
346.272
339.77
362.055
370.638
332.019
353.772
345.537
325.338
359.905
357.126
367.354
346.058
355.974
348.498
340.167
353.502
360.626
354.674
364.212
354.218
358.527
359.489
342.354
363.442
371.771
389.852
360.326
367.712
382.058
346.722
345.537
353.015
341.895
329.774
334.829
335.943
325.85
345.631
353.706
338.021
313.772
331.207
319.273
321.533
331.989
340.122
333.471
311.287
326.689
316.328
302.849
307.375
322.566
327.716
307.009
321.861
311.673
211.212
198.413
197.793
204.829
207.799
208.362
201.537
180.628
172.975
161.248
160.413
165.315
176.521
177.192
88.768
209.949
42.329
500.189
431.756
836.439
341.39
929.084
212.804
192.267
109.094
73.8795
309.271
190.052
342.102
317.088
35.9193
122.577
111.776
62.2136
174.507
160.269
71.7298
69.0634
43.6455
38.4459
55.4325
91.0155
96.8844
61.9316
60.1049
189.707
148.999
206.516
133.451
255.212
95.2392
1272.62
1280.21
417.451
479.208
1179.34
468.459
1165.29
189.508
127.069
123.499
211.394
150.866
154.691
214.029
87.0579
77.4468
56.9658
114.083
109.226
78.7309
143.994
198.603
159.323
139.606
166.396
232.943
185.994
219.571
460.623
1224.88
1254.8
500.876
1088.33
531.157
1134.44
96.5487
225.292
139.413
148.242
213.816
238.105
107.7
116.475
256.158
235.125
337.384
355.753
239.11
130.678
290.503
218.415
430.442
279.775
388.689
341.083
162.712
524.694
1057.22
912.641
549.904
555.255
515.82
1040.37
171.304
192.805
257.185
297.556
263.501
137.058
209.003
250.452
269.696
197.633
201.367
321.404
275.755
253.608
539.326
955.64
569.252
880.26
562.271
556.483
1005.33
213.602
282.601
311.062
329.741
289.515
238.885
262.792
380.788
229.008
132.078
926.919
544.135
639.279
460.21
785.667
400.258
338.153
342.246
143.496
402.785
359.872
353.849
351.22
247.308
194.961
321.713
195.058
321.323
395.841
284.463
110.32
166.011
190.569
167.215
189.169
249.301
253.874
185.641
258.517
220.189
259.755
218.809
265.006
297.187
1175.52
1102.53
585.026
1027.51
562.867
587.558
956.471
286.758
474.654
404.245
459.956
426.552
503.827
372.491
315.601
255.119
252.57
308.737
376.717
335
343.997
298.469
470.613
401.611
455.729
432.957
498.433
375.337
267.83
332.878
260.608
310.94
383.363
352.16
336.92
625.402
1015.1
612.346
600.885
811.448
605.684
882.59
894.738
573.01
571.344
580.339
733.162
573.511
831.231
300.661
317.926
269.341
310.38
345.281
336.066
329.939
309.414
334.079
276.217
312.887
352.063
344.364
332.598
493.443
444.27
526.979
447.213
515.076
516.966
421.734
340.679
388.403
392.017
373.094
362.145
372.596
357.656
583.924
712.995
566.869
683.829
570.976
584.204
769.745
333.11
347.19
355.566
350.851
348.426
343.878
342.088
264.068
375.304
422.77
351.467
277.403
426.693
394.754
329.848
277.338
273.456
271.57
322.887
272.072
320.421
318.916
265.316
283.495
274.381
315.218
313.154
322.432
338.991
271.781
325.701
318.836
291.245
276.484
323.194
343.539
373.871
392.201
365.049
404.058
367.271
366.636
410.863
429.723
417.949
364.232
378.767
435.288
397.006
430.088
315.393
319.462
289.97
342.74
391.759
370.044
373.867
378.659