/*--------------------------------*- C++ -*----------------------------------*\
  =========                 |
  \\      /  F ield         | OpenFOAM: The Open Source CFD Toolbox
   \\    /   O peration     | Website:  https://openfoam.org
    \\  /    A nd           | Version:  9
     \\/     M anipulation  |
\*---------------------------------------------------------------------------*/
FoamFile
{
    format      ascii;
    class       volScalarField;
    location    "0.00345";
    object      rho.air;
}
// * * * * * * * * * * * * * * * * * * * * * * * * * * * * * * * * * * * * * //

dimensions      [1 -3 0 0 0 0 0];

internalField   nonuniform List<scalar> 
27150
(
1.48092
1.61777
2.1906
1.93516
1.22763
1.28791
1.22501
1.22501
1.24884
0.813505
1.47861
1.60489
1.24197
1.23135
1.22672
1.22562
0.759155
1.40956
0.865311
1.38334
0.85375
1.2315
0.753257
1.35011
1.28663
0.765814
1.53701
0.953198
1.43025
0.876764
0.918398
1.45203
0.904403
1.72603
1.76788
1.03242
1.05112
1.0165
1.50358
0.95246
1.7996
1.0933
1.94437
1.12581
0.755665
0.786081
0.781649
0.897383
0.891718
0.924125
0.930546
0.75417
0.778836
0.779732
0.88731
0.888866
0.920928
0.91942
0.776213
0.794012
0.806523
0.906628
0.920368
0.940982
0.956913
0.791605
0.851169
0.825203
0.966378
0.939922
0.979623
1.0097
0.855111
0.811965
0.813004
0.960853
1.00693
1.00892
0.959183
0.821229
0.858502
0.815629
0.964617
1.02196
1.01339
0.972046
0.830785
0.894691
0.845934
1.03586
0.984087
1.00251
1.05678
0.783944
0.870826
0.565494
0.772037
0.560572
0.964047
0.982254
0.724003
0.73079
0.795367
0.619998
0.581211
0.998746
0.97457
0.738334
0.733001
0.559519
0.609781
0.610872
0.596313
0.597749
0.647453
0.645732
0.562254
0.615914
0.61261
0.605739
0.600568
0.650656
0.656374
0.571192
0.621942
0.614047
0.632761
0.627129
0.665579
0.680137
0.597322
0.673608
0.649887
0.67265
0.646524
0.70133
0.729328
0.664523
0.725215
0.665666
0.704397
0.766284
0.768441
0.702437
0.773549
0.670257
0.671697
0.723375
0.827023
0.721535
0.828964
0.670798
0.72703
0.667382
0.70784
0.778878
0.772141
0.714027
0.680843
0.777102
0.674876
0.727136
0.841186
0.734012
0.833212
0.677429
0.751705
0.68933
0.790174
0.724211
0.740296
0.807971
0.690591
0.813143
0.705806
0.854386
0.745195
0.762451
0.874542
0.799166
0.707805
0.771984
0.763335
0.865184
0.83306
0.793292
0.838298
0.756882
0.727818
0.786807
0.937246
0.818215
0.902294
0.783401
0.891058
0.966589
0.849437
0.851871
0.781228
0.893328
0.787665
0.907294
0.97207
0.865231
0.856606
0.795402
0.898209
0.922187
0.879299
0.808008
0.827255
1.02303
0.900547
0.944526
0.920143
0.897878
0.868104
1.0283
1.12099
1.08528
1.06149
1.01154
0.88753
0.965077
0.929368
1.09323
1.05492
0.853875
1.06025
1.23787
1.05205
1.09051
1.29413
1.09938
1.28233
1.45524
2.22201
2.21245
1.67319
2.21737
2.21762
1.63697
1.04749
1.22824
1.04516
1.08565
1.27216
1.08327
1.27555
0.906182
0.963981
0.966143
1.06272
1.06507
1.12939
1.12672
0.980396
0.910347
0.971065
1.0801
1.0703
1.13538
1.14644
1.5272
2.22948
2.22902
1.83812
2.17088
2.20863
1.70144
1.26475
1.09019
1.07258
1.31136
1.11285
1.13236
1.33512
1.0188
0.931862
0.995788
1.09588
1.11913
1.16399
1.18927
1.13114
1.3873
1.18144
1.32361
1.18427
1.12858
1.32725
1.31505
1.14432
1.11397
1.15867
1.40374
1.19193
1.36596
1.13648
1.34747
1.20113
1.39543
1.19025
1.14626
1.33462
0.980808
1.04958
1.08721
1.18759
1.14996
1.22195
1.26081
0.477687
0.593633
0.408396
0.55093
0.55115
0.414701
0.69527
0.697621
0.486686
0.553663
0.466019
0.419568
0.703182
0.75561
0.495737
0.556259
0.410485
0.423308
0.470393
0.424438
0.470545
0.497094
0.497388
0.412423
0.471084
0.430218
0.426554
0.47053
0.497379
0.499329
0.429594
0.474058
0.43697
0.449154
0.482277
0.504436
0.514826
0.445633
0.517993
0.491072
0.467652
0.497248
0.531528
0.553751
0.448384
0.478811
0.449136
0.529563
0.564473
0.564967
0.529505
0.550459
0.519251
0.519451
0.557091
0.596609
0.557733
0.595758
0.521953
0.550892
0.520777
0.557816
0.596178
0.558648
0.595987
0.481488
0.455843
0.451297
0.530399
0.570319
0.566512
0.5333
0.521532
0.560798
0.528691
0.600109
0.561269
0.569729
0.608241
0.464044
0.510325
0.477711
0.577946
0.539695
0.5514
0.591036
0.562047
0.574029
0.542293
0.5844
0.642922
0.605046
0.622471
0.521908
0.530888
0.497481
0.569282
0.635036
0.610273
0.592465
0.597605
0.6405
0.643867
0.695329
0.640423
0.59802
0.643802
0.597496
0.64509
0.695675
0.643464
0.64098
0.598993
0.643789
0.649464
0.649654
0.603707
0.61352
0.71419
0.661254
0.658847
0.113822
0.0794667
0.18307
0.116773
0.111756
0.0988889
0.147814
0.162778
0.0846548
0.0946686
0.101426
0.0865425
0.0903475
0.104734
0.100168
0.095194
0.134696
0.114007
0.116102
0.0994103
0.114859
0.132535
0.137249
0.139013
0.113089
0.146759
0.121563
0.122106
0.144884
0.157718
0.161993
0.136
0.133035
0.173883
0.15113
0.15611
0.10278
0.114989
0.119317
0.12967
0.112761
0.116861
0.134229
0.128059
0.145433
0.128801
0.126396
0.161126
0.14415
0.143222
0.129483
0.172204
0.151979
0.133862
0.177177
0.152582
0.156711
0.187365
0.166932
0.20394
0.179858
0.18372
0.160992
0.143864
0.206174
0.415585
0.391352
0.337928
0.215687
0.352241
0.214205
0.4063
0.220974
0.311396
0.3609
0.227064
0.418365
0.485739
0.25838
0.351791
0.17074
0.17085
0.180598
0.17689
0.224898
0.221472
0.215885
0.195411
0.252444
0.204259
0.187749
0.237471
0.231107
0.245304
0.237284
0.263023
0.271343
0.254968
0.294397
0.265029
0.290085
0.184196
0.211077
0.189038
0.234227
0.252868
0.257342
0.229694
0.272007
0.34211
0.279018
0.279678
0.345919
0.348869
0.275139
0.288666
0.341823
0.313294
0.284936
0.318897
0.318153
0.34569
0.346888
0.298155
0.287987
0.287104
0.359863
0.297699
0.353378
0.199055
0.236508
0.214773
0.243366
0.280263
0.266391
0.257219
0.31199
0.375109
0.33088
0.36996
0.312924
0.333594
0.38539
0.236888
0.286285
0.264816
0.299784
0.276663
0.301887
0.325177
0.375886
0.394315
0.35323
0.358341
0.430448
0.384103
0.406151
0.328342
0.318523
0.296463
0.331456
0.387098
0.355168
0.362404
0.294165
0.314813
0.365043
0.393631
0.318395
0.367135
0.290568
0.301387
0.398408
0.379004
0.337005
0.325722
0.312333
0.371644
0.390404
0.353073
0.328013
0.349426
0.435932
0.3748
0.407391
0.375785
0.456097
0.458957
0.430969
0.401498
0.404582
0.429981
0.62954
0.69635
0.73167
0.703098
0.679128
0.651487
0.674463
0.0117085
0.0448453
0.0371197
0.095237
0.0662459
0.0757938
0.0615764
0.131069
0.074727
0.0295608
0.0121619
0.0290473
0.0169275
0.049703
0.0148186
0.0430565
0.0453578
0.0370589
0.0468917
0.0554611
0.0446347
0.0444964
0.0538379
0.0277149
0.0199136
0.0185599
0.0334639
0.0219022
0.0323312
0.0209562
0.0384849
0.0621586
0.0513096
0.0604451
0.0542088
0.0463906
0.0724771
0.055001
0.0702926
0.0578978
0.0662966
0.0745534
0.0635306
0.0777536
0.0184473
0.0271622
0.0178141
0.0356352
0.032216
0.0205995
0.0217571
0.0117845
0.013523
0.0128176
0.0134075
0.0150429
0.0145031
0.0131107
0.0127265
0.0115786
0.0124338
0.0142482
0.0132694
0.0147459
0.0130133
0.0788615
0.0790108
0.0648451
0.0732164
0.101191
0.0874085
0.0857273
0.0660567
0.0526535
0.0618151
0.0769906
0.0789106
0.0526555
0.0642269
0.0379493
0.0425329
0.0269768
0.0241479
0.0371227
0.0235844
0.0266664
0.0718082
0.0645238
0.0653668
0.0994402
0.0853363
0.0553711
0.0849108
0.0893787
0.101754
0.0863333
0.0778661
0.10577
0.092787
0.089951
0.0423871
0.0438807
0.0377538
0.0236711
0.0296433
0.0271523
0.0254653
0.0164579
0.0187686
0.0167567
0.0163887
0.0163105
0.0185601
0.0145982
0.0163363
0.0149674
0.0198182
0.0163818
0.0187122
0.0171292
0.0145869
0.0854863
0.114069
0.116722
0.114756
0.100999
0.100467
0.0983284
0.0183395
0.121709
0.0798468
0.0125034
0.0374096
0.0285949
0.114114
0.0184548
0.0614755
0.0588397
0.200969
0.11936
0.169024
0.0943205
0.252936
0.12405
0.0216876
0.0504316
0.0279521
0.044933
0.0258191
0.0329462
0.0591051
0.0812655
0.0790897
0.106228
0.0699218
0.0929077
0.119012
0.091324
0.0142912
0.0140768
0.0171627
0.0142288
0.0166875
0.0198968
0.0159662
0.101064
0.147713
0.128388
0.124995
0.110116
0.138487
0.154144
0.0244153
0.0160883
0.0206921
0.0237668
0.0208118
0.0279459
0.0182056
0.101101
0.156725
0.132469
0.146661
0.136224
0.17265
0.114391
0.0439336
0.0655077
0.0358602
0.0415718
0.09027
0.050335
0.0749937
0.0161923
0.0224561
0.0194377
0.0230527
0.021035
0.0265571
0.0183299
0.0529454
0.0354387
0.0304222
0.0383505
0.0777894
0.0441583
0.0681373
0.181597
0.175854
0.15632
0.168209
0.212848
0.196013
0.184447
0.0816303
0.122181
0.106505
0.133973
0.118347
0.150873
0.104293
0.1411
0.138246
0.155767
0.153632
0.186688
0.171671
0.168353
0.0274657
0.0243499
0.0375771
0.0244248
0.0316894
0.032389
0.0210831
0.0477212
0.101679
0.065366
0.0959271
0.0544769
0.0574392
0.0850464
0.163161
0.151977
0.144099
0.210835
0.181441
0.190967
0.128667
0.18504
0.231498
0.236252
0.22014
0.204432
0.215097
0.200483
0.285432
0.220263
0.139649
0.208955
0.215128
0.170014
0.227389
0.324325
0.168304
0.161559
0.140689
0.19034
0.170166
0.157799
0.187734
0.195843
0.241347
0.217499
0.229201
0.200637
0.218554
0.247336
0.18461
0.236525
0.212971
0.198524
0.176516
0.206634
0.22805
0.152409
0.200735
0.182601
0.185734
0.16789
0.198309
0.216435
0.262881
0.262744
0.239695
0.237722
0.28756
0.266511
0.258899
0.246706
0.234444
0.267839
0.231321
0.284464
0.250496
0.263492
0.204244
0.207528
0.185634
0.216029
0.256935
0.234702
0.237143
0.249199
0.30219
0.302848
0.29047
0.268775
0.281577
0.269908
1.36631
1.2178
1.16121
1.18283
1.45846
1.2417
1.39224
1.03489
1.11191
1.10915
1.20177
1.27824
1.28157
1.19879
1.13003
1.04053
1.11827
1.20852
1.30269
1.28913
1.22084
1.21174
1.46601
1.31149
1.49424
1.27312
1.24776
1.42561
1.17508
1.06828
1.14863
1.32318
1.23999
1.26684
1.35115
1.76442
2.20138
1.7235
2.04085
1.99741
1.93779
2.0743
1.45636
1.24223
1.24539
1.31477
1.53036
1.31125
1.5351
1.26423
1.46537
1.25211
1.32235
1.56239
1.33582
1.54514
1.16448
1.24736
1.20847
1.30065
1.42554
1.38564
1.34003
2.21652
2.18229
1.79512
1.89474
2.09746
2.2329
1.66704
1.28275
1.53406
1.30889
1.58734
1.35609
1.38409
1.62056
1.45076
1.50309
1.50781
1.75048
1.75669
1.82533
1.81898
1.38231
1.57231
1.34242
1.41921
1.71097
1.46035
1.66188
1.46404
1.53303
1.51726
1.78987
1.76943
1.83852
1.85962
1.39243
1.62039
1.73211
1.47467
1.47903
1.38852
1.62565
1.40095
1.65642
1.74548
1.50505
1.48855
1.41587
1.63704
1.49944
1.55565
1.58578
1.81857
1.85522
1.88881
1.92477
1.56231
1.67003
1.62387
1.9463
1.89862
1.9656
2.00977
1.68423
1.52894
1.43787
1.46754
1.84046
1.56047
1.72118
1.5972
1.65387
1.57993
1.91419
2.00886
1.99039
1.93447
1.64244
1.56456
1.56961
1.90134
1.97329
1.97868
1.89524
1.50417
1.82157
1.88961
1.64495
1.59925
1.54694
1.76737
1.62207
1.73862
1.65515
2.03315
1.96191
1.99529
2.0617
1.74842
1.78446
1.69737
2.032
2.12219
2.09216
2.0697
1.72966
1.82448
1.83097
2.04719
2.05146
2.11361
2.11072
1.74274
1.86808
1.84503
2.07627
2.06105
2.12086
2.13278
1.83474
1.89983
1.93872
2.09629
2.11916
2.14862
2.1669
1.88237
2.0303
1.9829
2.16662
2.14289
2.18561
2.20247
1.88863
1.2462
1.2299
1.22869
2.03477
1.93845
2.07641
2.07908
2.21726
2.08232
2.11755
2.22247
2.11505
2.22199
2.10128
2.21894
2.08963
2.12364
2.22481
2.13361
2.22298
1.93476
2.04565
1.94076
2.16409
2.20117
2.20164
2.16229
0.764082
1.88411
2.14651
1.22581
1.225
0.842776
1.65536
1.22794
1.22503
0.682394
1.05977
0.909952
1.05428
0.832595
0.966834
1.29156
0.973959
1.559
1.39183
1.78451
1.58649
1.08256
0.99313
0.648638
0.70333
0.704979
0.73839
0.742736
0.763521
0.803226
0.72085
0.823858
0.778516
0.833297
0.785501
0.848125
0.898256
0.764328
0.871721
0.8012
0.903557
0.829501
0.871315
0.947498
1.67054
1.21294
1.10573
2.00308
1.20799
1.44728
2.16958
0.792409
0.954844
0.833677
0.978455
0.855971
0.899359
1.02505
0.879545
0.884627
0.92521
1.00008
1.04087
1.0469
1.09065
0.891244
0.91641
0.843437
0.918434
1.05098
0.996675
0.970842
1.00491
0.932041
0.880262
0.947976
1.13202
1.00164
1.07638
0.923463
1.02524
0.972305
1.14163
1.08824
1.14033
1.1954
0.927373
1.00664
1.13665
0.972642
1.18433
1.05327
1.10186
0.934943
1.039
0.978585
1.16297
1.10144
1.14737
1.21036
0.68041
0.629029
0.648426
0.488862
0.785313
0.584714
0.684091
0.9063
0.513282
0.542613
0.516833
0.543434
0.569248
0.579471
0.607443
0.597858
0.565486
0.538645
0.600275
0.570971
0.637708
0.670964
0.614281
0.618761
0.586443
0.66883
0.630323
0.659381
0.699502
0.548833
0.615328
0.577172
0.664038
0.619387
0.649166
0.696433
0.129389
0.281015
0.35947
0.0329725
0.0209106
0.0928625
0.0336233
0.117585
0.0559985
0.181023
0.187693
0.139881
0.22262
0.216294
0.259979
0.251121
0.359656
0.299228
0.304951
0.24135
0.275942
0.357022
0.37814
0.442125
0.0282613
0.0241524
0.0325856
0.0238508
0.0324004
0.0374688
0.0276496
0.0515893
0.104962
0.0591081
0.104426
0.0588568
0.0674412
0.117835
0.177944
0.156429
0.196805
0.155783
0.195733
0.216493
0.173738
0.20342
0.242363
0.223014
0.238777
0.221018
0.243672
0.262283
0.0434097
0.0281467
0.0375783
0.0433328
0.0382875
0.0503061
0.0323942
0.0282524
0.0441959
0.037809
0.043948
0.0397012
0.0516628
0.0330785
0.261942
0.260889
0.255293
0.281147
0.273531
0.279409
0.297932
0.0756451
0.116911
0.0669727
0.0764557
0.145082
0.0864095
0.13115
0.0671731
0.0765243
0.13176
0.0770646
0.148525
0.0880104
0.132733
0.232228
0.172005
0.214285
0.236126
0.208022
0.190892
0.255434
0.173575
0.237815
0.192241
0.238933
0.213406
0.193399
0.261886
0.261311
0.261461
0.241914
0.264979
0.305539
0.285707
0.284224
0.051023
0.0463261
0.047029
0.0704587
0.060276
0.0594862
0.0389985
0.242488
0.283136
0.265372
0.267189
0.310554
0.291628
0.285699
0.282759
0.32337
0.301494
0.313486
0.292467
0.316606
0.337486
0.279885
0.318589
0.299657
0.323509
0.301839
0.320777
0.342636
0.299012
0.316613
0.293566
0.327298
0.30238
0.320622
0.345702
0.0875228
0.162916
0.164845
0.113298
0.100168
0.0990728
0.147659
0.259837
0.229773
0.232864
0.304263
0.211896
0.283805
0.279811
0.289935
0.331888
0.335747
0.338162
0.315619
0.311512
0.309398
0.337961
0.341128
0.319478
0.339714
0.383469
0.36185
0.360842
0.332941
0.335383
0.312024
0.339358
0.386934
0.36493
0.360558
0.349975
0.353362
0.326809
0.345644
0.398031
0.372519
0.369365
0.364764
0.411354
0.414931
0.418644
0.392334
0.389044
0.3864
0.50329
0.385992
0.43661
0.331181
0.514253
0.384229
0.439081
0.606336
0.34968
0.362228
0.33931
0.380981
0.363471
0.371433
0.395881
0.367457
0.41825
0.399106
0.410432
0.387182
0.419842
0.443616
0.396643
0.457464
0.416043
0.456045
0.409585
0.434519
0.481558
0.35918
0.414346
0.387127
0.418578
0.392511
0.420352
0.448447
0.456236
0.435341
0.479565
0.45879
0.533374
0.483388
0.506951
0.471002
0.413413
0.44289
0.446852
0.506401
0.47735
0.473183
0.483312
0.46088
0.433179
0.4605
0.543543
0.490207
0.510623
0.487263
0.567449
0.573949
0.549767
0.519497
0.514522
0.538363
0.720802
0.682368
0.645465
0.69214
0.775138
0.729098
0.734818
0.639165
0.606997
0.648209
0.681782
0.772022
0.732217
0.717929
0.723817
0.732269
0.678318
0.709334
0.820241
0.765911
0.756292
0.744422
0.836606
0.86042
0.846913
0.80396
0.784085
0.793743
1.02291
1.2094
1.23595
1.1602
1.10454
1.07793
1.15366
1.14529
1.02804
1.08994
1.19863
1.31869
1.26244
1.25463
2.2239
2.16268
1.86452
2.08747
1.93551
1.89845
2.14253
1.18135
1.44044
1.22513
1.44827
1.23196
1.27852
1.4995
1.05851
1.13039
1.23091
1.17813
1.27898
1.30467
1.3529
1.33219
1.49609
1.27559
1.33102
1.62347
1.38885
1.55764
1.51299
1.35577
1.29037
1.33882
1.6432
1.40529
1.56668
1.15736
1.28538
1.22982
1.38777
1.33125
1.40552
1.46327
1.2907
1.33823
1.25562
1.47055
1.38413
1.4329
1.52121
1.39246
1.69749
1.70822
1.52064
1.46003
1.4514
1.62772
1.36306
1.39018
1.30721
1.48696
1.64355
1.57842
1.54756
2.09222
2.216
2.20405
2.22113
1.46288
2.16103
1.3098
1.42769
1.73173
1.47841
1.76923
1.5071
1.55968
1.83604
1.7156
1.72568
1.79004
1.9966
2.04676
2.05396
2.09632
1.80324
1.59812
1.53487
1.61911
1.98929
1.68709
1.91093
1.88361
1.69815
1.59593
1.65199
2.06373
1.75991
1.95092
1.78567
1.94038
1.8626
2.13597
2.09403
2.1347
2.16927
1.80742
1.96201
1.87399
2.15074
2.10609
2.1398
2.17797
1.71659
2.08966
2.12055
1.91615
1.83287
1.79219
2.02101
2.01664
2.02669
1.94502
2.17097
2.21842
2.20136
2.19809
1.33554
1.22846
1.28954
1.22762
1.27961
1.22597
1.35594
1.23931
1.30675
2.24262
2.24442
2.24596
1.33057
1.39438
2.24058
1.29408
1.25817
2.24495
2.24477
2.23144
1.27195
2.24368
2.24315
2.24627
1.3083
1.25044
1.97977
1.2565
2.02326
1.24472
1.23471
2.24204
2.22192
2.15623
1.2422
2.19681
1.23634
2.11273
2.16721
1.82278
1.22626
1.22804
2.00255
2.22583
2.11692
2.13493
2.2268
2.14708
2.16287
2.22763
1.97568
2.05667
1.95411
2.16967
2.21079
2.20488
2.1792
2.23061
2.19537
2.22009
2.17342
2.15394
2.17964
2.22587
2.07718
2.18913
1.99086
2.04741
2.12105
2.20791
2.2264
2.00475
2.12335
2.03929
2.21815
2.19138
2.2039
2.22546
2.1494
2.21588
2.22338
2.17727
2.1785
2.14756
2.22239
2.06758
1.72808
1.22585
1.22564
1.39002
1.24506
1.22519
2.20856
2.20927
2.19188
2.21268
2.20728
2.21869
2.19137
2.15457
2.22271
2.18973
2.21452
2.18266
2.16342
2.22246
2.22442
2.17646
2.11286
2.14994
2.07611
2.21502
2.23083
2.22223
2.19876
2.1754
2.1886
2.20169
2.20796
2.21949
2.10038
2.19464
2.15997
2.23071
2.22163
2.23233
2.23141
2.22267
2.21175
2.20217
2.20119
2.18974
2.21619
2.21318
2.23041
2.23102
2.22061
2.20087
2.14701
2.17904
2.23306
2.24293
2.2408
2.24148
2.20217
2.20243
2.19389
2.20971
2.24192
2.23993
2.241
2.21893
2.20799
2.21238
2.21484
1.22696
1.9164
1.97543
1.4657
1.41209
1.2252
1.22527
2.19875
2.20035
2.20067
2.21499
2.16911
2.21534
2.16518
2.24391
2.24407
2.24293
2.1912
2.16337
2.18152
2.17493
2.24413
2.24444
2.24288
2.19787
2.18779
2.18267
2.20259
2.20842
2.1956
2.2034
2.21654
2.14933
2.21935
2.15911
2.24482
2.24664
2.24599
2.19134
2.18144
2.16278
2.17446
1.22507
1.49562
1.22565
1.22661
1.87493
1.38032
1.22516
2.21473
2.16891
2.22058
2.13406
2.22231
2.22384
2.11109
2.1937
2.22614
2.21866
2.22547
2.11849
2.22694
2.16279
2.24518
2.24361
2.24547
2.14633
2.16706
2.14589
2.12244
2.24366
2.23845
2.24018
2.13747
2.15121
2.11844
2.10229
2.24371
2.24451
2.24165
2.16602
2.16034
2.13518
2.12889
2.22616
2.22025
2.18422
2.22563
2.10063
2.22537
2.15644
2.24668
2.24109
2.24524
2.13603
2.11551
2.14963
2.0994
2.23952
2.23744
2.24334
2.11667
2.03906
2.08878
2.07506
2.03242
2.22197
2.22459
2.23672
2.2344
2.09341
2.08606
2.23889
2.23555
2.23022
2.11785
2.08959
2.07788
2.04151
2.02619
2.1181
2.22589
2.1484
2.22463
2.22241
2.07758
2.20017
2.24401
2.23492
2.22729
2.2069
2.22847
2.21309
2.00623
2.21461
2.21901
2.22919
2.23221
2.0728
2.0514
2.23251
2.20759
2.22138
1.98987
2.04781
1.99138
1.92635
1.89312
1.94228
2.20769
2.22445
2.21681
2.01959
1.97595
2.21853
2.10926
2.20791
1.98741
2.20533
2.21983
2.1032
2.21824
2.07534
1.96823
2.19801
2.20249
2.21804
2.09263
1.94907
2.20335
2.20643
2.17925
2.17536
1.8449
1.83304
2.22634
2.04895
2.2001
2.0354
2.21778
2.21975
2.11442
1.91869
2.19269
2.19921
2.15977
2.16935
1.81032
1.77571
2.18032
1.83001
1.75104
2.18655
2.20477
1.91902
1.84796
2.048
2.19007
2.21669
2.21237
1.83642
2.17653
2.00667
1.25168
1.22505
1.22502
1.42262
1.22543
1.22972
1.22505
1.95259
2.0739
2.22283
2.00485
2.21324
2.1821
1.85609
1.79073
1.8466
2.18256
2.14511
2.12351
1.72877
1.66984
0.809453
0.73226
1.22061
0.809475
1.34717
0.809988
1.29513
1.18087
0.736945
0.745875
0.929194
1.5025
1.10379
1.24205
1.37556
0.830516
0.725043
0.757202
0.744056
0.847341
0.849797
0.868914
0.871427
0.725095
0.751828
0.743635
0.873681
0.859736
0.882203
0.897694
0.763071
0.767168
0.787129
0.889614
0.908164
0.915789
0.937351
0.780974
0.796749
0.767388
0.928202
0.895279
0.898655
0.9329
0.777305
0.798082
0.767363
0.910747
0.965963
0.928069
0.946567
0.783611
0.841852
0.81153
0.961655
0.931454
0.964458
0.99873
0.794974
0.85785
0.818444
0.989711
0.948837
0.973962
1.01839
1.19136
0.998836
1.00899
1.21239
1.0245
1.03559
1.22378
0.881881
0.890723
0.847194
1.00502
1.09401
1.05296
1.04301
1.03626
1.20421
1.02167
1.0496
1.25572
1.06573
1.23776
1.09466
1.25015
1.05614
1.06839
1.3087
1.26262
1.10815
1.05381
1.07586
1.26931
1.27929
1.08533
1.11005
1.3091
1.08373
1.29767
1.14456
1.3254
1.10157
1.27789
1.12482
1.30292
1.34355
1.13872
1.14111
1.38919
1.34557
1.17932
1.32358
1.16913
1.12356
1.15121
1.41089
1.3561
1.19976
0.552284
0.677841
0.6193
0.625121
0.731647
0.778707
0.693964
0.759898
0.688699
0.697459
0.556753
0.485814
0.683266
0.628939
0.790155
0.702535
0.724732
0.703133
0.694655
0.712251
0.776561
0.75632
0.793919
0.778122
0.612505
0.699937
0.699716
0.712859
0.696811
0.725645
0.643984
0.544116
0.713039
0.831901
0.993295
0.84896
0.711031
0.632194
0.708887
0.754321
0.729576
0.844333
0.816599
0.803859
0.832797
0.631322
0.538043
0.659979
0.583647
0.50164
0.562838
0.521246
0.761956
0.726829
0.733841
0.75625
0.707946
0.675945
0.788155
0.466446
0.489783
0.506531
0.508322
0.496723
0.517063
0.532151
0.691628
0.636223
0.611153
0.616474
0.589445
0.545153
0.573491
0.772048
0.65108
0.680789
0.723349
0.801527
0.71274
0.67101
0.56401
0.630715
0.601677
0.628209
0.642692
0.583529
0.649048
0.518608
0.556725
0.530387
0.543154
0.598892
0.57511
0.562405
0.551106
0.641295
0.550856
0.647121
0.569241
0.569612
0.661663
0.508923
0.481387
0.513194
0.533628
0.561685
0.56778
0.599277
0.863976
0.750473
0.832427
0.745151
0.721663
0.69428
0.777207
0.6569
0.665234
0.699249
0.634826
0.607116
0.671593
0.687123
0.5826
0.659614
0.56174
0.583241
0.71137
0.683339
0.607988
0.579693
0.579278
0.541749
0.635805
0.595938
0.636272
0.678184
0.586434
0.554186
0.599289
0.653248
0.60774
0.64169
0.689162
0.671338
0.619951
0.591963
0.594118
0.723308
0.688642
0.625071
0.611444
0.680122
0.747073
0.753534
0.71448
0.646877
0.640565
0.610898
0.745678
0.640621
0.750256
0.64581
0.679305
0.786968
0.663356
0.669456
0.62292
0.680659
0.775576
0.729974
0.724316
0.719808
0.7855
0.67713
0.7189
0.879343
0.764034
0.8302
0.795609
0.736343
0.687518
0.724046
0.89169
0.775367
0.83567
0.473421
0.565988
0.502056
0.638652
0.648834
0.563834
0.632425
0.620265
0.366403
0.298839
0.40397
0.328822
0.409054
0.434845
0.516431
0.592589
0.599475
0.55742
0.552124
0.469514
0.515256
0.593859
0.408454
0.365998
0.454696
0.52316
0.47524
0.563233
0.612312
0.526177
0.615683
0.615732
0.640586
0.554209
0.600662
0.646613
0.595818
0.683327
0.660747
0.622363
0.556503
0.634541
0.673286
0.245366
0.250754
0.280767
0.345974
0.575355
0.577326
0.49434
0.549066
0.244976
0.251054
0.305797
0.252633
0.317814
0.309599
0.322989
0.265769
0.284291
0.262319
0.360684
0.334581
0.343948
0.37827
0.26345
0.288917
0.268057
0.342527
0.322472
0.338308
0.362459
0.308772
0.311712
0.282319
0.364746
0.446478
0.40784
0.395058
0.407435
0.584834
0.435673
0.54658
0.406691
0.436252
0.584982
0.610456
0.603506
0.464953
0.470656
0.626651
0.509463
0.611108
0.437379
0.555009
0.416657
0.44864
0.620015
0.596626
0.473074
0.537895
0.653203
0.689067
0.489714
0.65904
0.630177
0.520357
0.596057
0.599267
0.582529
0.506936
0.525313
0.636701
0.609986
0.592209
0.67403
0.7155
0.642963
0.719396
0.681839
0.689279
0.655491
0.641274
0.544954
0.674834
0.659786
0.636656
0.711036
0.568324
0.628141
0.602451
0.53967
0.596669
0.535232
0.510626
0.471188
0.60937
0.588721
0.588499
0.548389
0.546921
0.514904
0.51794
0.610191
0.608885
0.621851
0.53901
0.542468
0.528562
0.545477
0.47571
0.490744
0.484386
0.510537
0.488777
0.509726
0.53493
0.529409
0.46718
0.492936
0.489551
0.490119
0.512446
0.518791
0.516129
0.498297
0.511982
0.533369
0.591041
0.561716
0.559627
0.552095
0.558043
0.52404
0.538056
0.587868
0.567024
0.551821
0.545463
0.52816
0.572104
0.535857
0.601564
0.572537
0.5578
0.636364
0.672186
0.627806
0.634905
0.591095
0.602765
0.564452
0.591366
0.50738
0.391224
0.547388
0.438314
0.372312
0.430437
0.355784
0.422692
0.436574
0.426046
0.4504
0.467651
0.469472
0.491572
0.328525
0.169794
0.172671
0.192419
0.123427
0.313656
0.384076
0.289561
0.216102
0.0847631
0.126384
0.175848
0.15892
0.208564
0.274997
0.13013
0.169909
0.201641
0.0991872
0.108402
0.0928295
0.127817
0.109108
0.127704
0.148869
0.147278
0.18326
0.196961
0.143666
0.160291
0.191321
0.159417
0.428925
0.354328
0.275328
0.345667
0.283758
0.327686
0.253902
0.326074
0.554415
0.416709
0.323037
0.14306
0.194192
0.487143
0.15176
0.243812
0.176045
0.255047
0.182952
0.208368
0.282839
0.11247
0.15898
0.143069
0.137546
0.123017
0.164964
0.181617
0.106608
0.13966
0.123505
0.175036
0.150473
0.171198
0.193763
0.129372
0.135307
0.13202
0.149443
0.147002
0.151959
0.157005
0.177524
0.15154
0.145024
0.189705
0.188605
0.163756
0.173305
0.176264
0.213907
0.201782
0.217223
0.200488
0.179461
0.208728
0.303782
0.305222
0.30583
0.335758
0.334365
0.325537
0.35728
0.153856
0.153068
0.137844
0.187409
0.226688
0.204668
0.209234
0.248757
0.287237
0.215926
0.240038
0.338857
0.313841
0.270131
0.265378
0.214711
0.194592
0.227592
0.328584
0.304534
0.248036
0.165071
0.178877
0.155569
0.203012
0.205472
0.179935
0.232532
0.149667
0.145521
0.139222
0.161656
0.186123
0.16981
0.174235
0.174701
0.202005
0.210011
0.177795
0.225375
0.185803
0.212036
0.0647493
0.0539302
0.0470489
0.0699056
0.0847362
0.124053
0.0646556
0.121097
0.067717
0.0856609
0.0927245
0.0741564
0.0968447
0.0828081
0.0719775
0.127379
0.09167
0.093297
0.112993
0.113068
0.0856805
0.0879783
0.0555368
0.0653715
0.0693975
0.062484
0.0501253
0.0494375
0.06266
0.0722231
0.101274
0.076076
0.0794404
0.0993976
0.0789661
0.0726888
0.0562641
0.0676849
0.0703402
0.0629
0.0662081
0.0549024
0.0683422
0.12175
0.112516
0.0803968
0.0876534
0.112458
0.0814122
0.0859925
0.0559707
0.0571907
0.051796
0.0581456
0.0473046
0.0485571
0.0588123
0.0769996
0.0808793
0.0647991
0.062269
0.0715923
0.0575332
0.0708856
0.0508658
0.0264223
0.0463548
0.0251355
0.0476346
0.0485153
0.00829442
0.025214
0.0412469
0.0216718
0.0260705
0.048401
0.0267329
0.0320903
0.0533766
0.010694
0.0116529
0.0141665
0.0121407
0.0154123
0.0189789
0.0153963
0.0402101
0.0518572
0.0325997
0.0396138
0.0497248
0.0452703
0.0539529
0.0418947
0.0632038
0.0622598
0.0556453
0.0331911
0.0398392
0.0580964
0.019837
0.0148337
0.0187554
0.0253839
0.0231588
0.0316891
0.0197447
0.0319991
0.0226117
0.0272547
0.0170756
0.0205439
0.0253656
0.0204594
0.047367
0.0503024
0.0554866
0.0465558
0.0486721
0.0469047
0.0550542
0.0335223
0.026205
0.0349098
0.0313389
0.0245175
0.0336941
0.0237106
0.163716
0.182882
0.129969
0.133624
0.138934
0.0900571
0.0765664
0.114434
0.139403
0.152672
0.097743
0.106676
0.0937455
0.144683
0.103126
0.0778825
0.0886732
0.088534
0.0790375
0.0779015
0.0891653
0.0916914
0.168275
0.133545
0.119294
0.17229
0.158314
0.115363
0.129061
0.130349
0.0969815
0.0936553
0.14042
0.140672
0.103633
0.107883
0.0964176
0.0859318
0.0820826
0.0939259
0.110059
0.0992146
0.102453
0.100844
0.114241
0.100613
0.101631
0.118356
0.104304
0.115669
0.165824
0.151859
0.153123
0.115248
0.134304
0.129182
0.120081
0.10664
0.130503
0.123504
0.127052
0.112302
0.121322
0.11535
0.020105
0.170125
0.0179817
0.122334
0.0635134
0.0225239
0.0384768
0.04166
0.047426
0.01902
0.0319423
0.0462019
0.102048
0.28265
0.175594
0.052567
0.0695602
0.0478244
0.0448491
0.0443788
0.0447452
0.0449027
0.045498
0.0417292
0.0418227
0.0470895
0.0446238
0.0492056
0.0437314
0.046407
0.0504599
0.0435354
0.0227327
0.0217957
0.0312594
0.0231401
0.0326391
0.0297609
0.0214439
0.0561564
0.0847466
0.0628124
0.0743536
0.0572439
0.0702815
0.0994285
0.098053
0.0513458
0.019809
0.118312
0.0342471
0.0223468
0.0854628
0.316438
0.236328
0.0801202
0.258581
0.170874
0.129764
0.22006
0.0419734
0.043282
0.0436608
0.0362932
0.0399378
0.0403871
0.0306322
0.0415252
0.0337616
0.0393224
0.0344273
0.0439267
0.0317126
0.0400718
0.0567887
0.0431075
0.0490023
0.0584718
0.0520737
0.0450742
0.0767185
0.0792971
0.0452038
0.055912
0.0658334
0.0647232
0.105883
0.0472641
0.0286446
0.0232471
0.0317287
0.0261953
0.0190949
0.0223832
0.0204083
0.0230385
0.0198485
0.0273533
0.0239458
0.0183534
0.0214643
0.0187992
0.0776112
0.0854818
0.0641219
0.0872804
0.148425
0.1212
0.113606
0.125035
0.117881
0.0816373
0.103114
0.214612
0.161931
0.146312
0.0874735
0.0747528
0.187066
0.0879257
0.143234
0.0553727
0.123308
0.0301855
0.0321132
0.0440658
0.0507374
0.031159
0.0405859
0.0283386
0.0355373
0.0633097
0.0369041
0.0745373
0.0435983
0.0496912
0.0918161
0.128704
0.106564
0.163619
0.120975
0.175482
0.199097
0.145499
0.0210812
0.020867
0.0174765
0.0180344
0.0209206
0.0198885
0.0179002
0.0235062
0.0193441
0.0230829
0.0220925
0.0268087
0.028415
0.0224954
0.13517
0.242001
0.218434
0.250851
0.202194
0.180575
0.17599
0.185828
0.268318
0.221543
0.27038
0.227879
0.248788
0.289875
0.0255359
0.0194107
0.0237361
0.0311034
0.0263142
0.0349933
0.0238483
0.230415
0.137816
0.198983
0.215656
0.185626
0.166597
0.228996
0.0457684
0.0794326
0.04013
0.0570525
0.126075
0.0659404
0.109113
0.0248136
0.0280532
0.0307271
0.034389
0.02592
0.0326327
0.0270093
0.0880791
0.0477389
0.0508476
0.0588423
0.0960829
0.0551214
0.100081
0.134469
0.167329
0.178858
0.189132
0.143081
0.181927
0.146919
0.279363
0.293936
0.252349
0.261157
0.302641
0.268507
0.299031
0.257103
0.195606
0.219764
0.225904
0.23198
0.209822
0.258532
0.237555
0.202374
0.225085
0.188268
0.238889
0.221897
0.201712
0.327222
0.386008
0.388979
0.361106
0.358805
0.384514
0.413471
0.241127
0.362032
0.366607
0.275557
0.275988
0.313118
0.405743
0.348233
0.336248
0.334293
0.377021
0.357916
0.367626
0.370065
0.191373
0.251404
0.227634
0.222205
0.199918
0.260014
0.287449
0.258554
0.307435
0.360362
0.358915
0.335289
0.278659
0.287581
0.291091
0.291896
0.24517
0.27311
0.325506
0.325535
0.278537
0.234719
0.290363
0.241054
0.259871
0.213341
0.272805
0.327948
0.0387071
0.0339009
0.0431063
0.0298256
0.0375849
0.0439932
0.0299498
0.190252
0.223669
0.249169
0.247515
0.202699
0.228202
0.206294
0.067071
0.123016
0.0710707
0.106793
0.0627881
0.076004
0.111306
0.261869
0.246227
0.257094
0.229145
0.24155
0.225229
0.234621
0.196409
0.167892
0.213319
0.156475
0.197235
0.157327
0.205212
0.401943
0.409737
0.382684
0.396894
0.430628
0.400426
0.426819
0.281482
0.266669
0.286171
0.318424
0.302499
0.288752
0.312216
0.384631
0.300997
0.355331
0.357613
0.328911
0.30372
0.38813
0.265972
0.291114
0.23819
0.305163
0.407782
0.367083
0.338414
0.336596
0.391821
0.306976
0.346869
0.460219
0.435377
0.378641
0.420514
0.383798
0.321442
0.362972
0.524478
0.459453
0.429564
0.489659
0.445601
0.463847
0.462504
0.464666
0.500144
0.499317
0.573825
0.519004
0.489425
0.546931
0.513505
0.528478
0.55315
0.420276
0.354847
0.418534
0.379925
0.450703
0.447621
0.3832
0.334177
0.379736
0.369002
0.349834
0.323356
0.310811
0.340946
0.582245
0.514659
0.488753