/*--------------------------------*- C++ -*----------------------------------*\
  =========                 |
  \\      /  F ield         | OpenFOAM: The Open Source CFD Toolbox
   \\    /   O peration     | Website:  https://openfoam.org
    \\  /    A nd           | Version:  9
     \\/     M anipulation  |
\*---------------------------------------------------------------------------*/
FoamFile
{
    format      ascii;
    class       volScalarField;
    location    "0.00195";
    object      alpha.c4;
}
// * * * * * * * * * * * * * * * * * * * * * * * * * * * * * * * * * * * * * //

dimensions      [0 0 0 0 0 0 0];

internalField   nonuniform List<scalar> 
16523
(
9.98391e-27
5.80181e-25
3.17242e-23
1.59718e-21
7.29206e-20
2.98186e-18
1.12508e-16
4.1689e-28
2.4018e-26
1.30323e-24
6.52101e-23
2.97113e-21
1.2113e-19
4.36044e-18
1.37423e-29
7.81972e-28
4.18815e-26
2.06597e-24
9.28889e-23
3.74221e-21
1.31516e-19
3.76591e-31
2.11142e-29
1.11281e-27
5.38725e-26
2.37195e-24
9.35453e-23
3.22041e-21
9.07745e-33
5.00919e-31
2.59492e-29
1.23131e-27
5.29478e-26
2.0339e-24
6.82347e-23
1.42795e-16
3.91604e-18
9.3159e-20
1.93289e-21
4.6446e-15
7.57735e-10
4.56152e-15
9.5791e-17
2.16141e-18
4.43785e-20
4.54138e-06
5.57567e-14
1.53667e-15
3.70678e-17
7.93311e-19
1.46959e-16
2.95608e-14
6.58269e-08
4.08372e-05
2.06592e-17
1.53563e-15
1.51016e-13
1.45456e-06
0.00072475
3.37918e-18
1.98612e-16
4.52595e-14
1.71181e-11
4.44844e-06
8.95273e-37
5.99584e-35
3.77818e-33
2.18627e-31
1.14813e-29
5.40148e-28
2.24048e-26
8.01443e-25
2.40075e-23
5.81498e-22
4.55074e-35
3.12419e-33
2.0208e-31
1.20419e-29
6.54299e-28
3.20026e-26
1.38275e-24
5.13844e-23
1.58921e-21
3.9666e-20
2.11048e-33
1.48604e-31
9.88978e-30
6.09461e-28
3.44283e-26
1.75439e-24
7.87016e-23
3.01184e-21
9.51295e-20
2.3644e-18
8.60151e-32
6.22104e-30
4.27369e-28
2.73369e-26
1.60655e-24
8.4844e-23
3.91325e-21
1.54552e-19
5.1051e-18
1.22761e-16
3.01046e-30
2.23933e-28
1.59043e-26
1.05466e-24
6.40232e-23
3.46293e-21
1.65418e-19
7.32995e-18
2.98188e-16
4.11022e-15
8.82655e-29
6.74722e-27
4.93842e-25
3.36644e-23
2.08123e-21
1.14717e-19
6.04144e-18
3.64547e-16
1.3927e-15
2.60587e-11
2.12162e-27
1.65908e-25
1.24084e-23
8.58931e-22
5.32951e-20
2.95078e-18
1.7299e-16
1.0886e-15
1.25425e-05
1.3179e-05
4.14869e-26
3.30509e-24
2.52532e-22
1.80421e-20
1.15847e-18
6.12628e-17
9.30447e-13
3.11623e-06
0.00113393
3.03178e-37
1.90982e-35
1.14064e-33
6.28967e-32
3.15586e-30
1.41739e-28
5.59313e-27
1.89595e-25
5.33047e-24
1.18738e-22
1.45795e-35
9.45219e-34
5.81217e-32
3.30316e-30
1.71163e-28
7.96686e-27
3.27241e-25
1.15341e-23
3.34712e-22
7.58462e-21
6.4432e-34
4.29598e-32
2.7201e-30
1.59622e-28
8.58045e-27
4.17013e-25
1.79354e-23
6.60641e-22
1.97363e-20
4.55729e-19
2.5155e-32
1.72403e-30
1.12539e-28
6.84375e-27
3.8399e-25
1.95696e-23
8.83496e-22
3.36973e-20
1.00461e-18
2.23127e-17
8.4618e-31
5.95767e-29
4.01486e-27
2.53851e-25
1.48855e-23
7.93959e-22
3.70266e-20
1.4017e-18
3.83317e-17
7.13944e-16
2.38639e-29
1.72372e-27
1.19887e-25
7.86211e-24
4.78524e-22
2.61619e-20
1.19964e-18
4.27682e-17
2.90828e-16
3.48868e-12
5.5018e-28
4.06167e-26
2.89852e-24
1.94876e-22
1.2054e-20
6.43948e-19
2.61448e-17
2.24011e-16
5.36705e-07
3.73248e-06
1.02252e-26
7.65992e-25
5.53552e-23
3.75373e-21
2.2996e-19
1.12229e-17
7.744e-15
5.63184e-08
7.31927e-05
0.00418976
5.57203e-38
3.24201e-36
1.79111e-34
9.15851e-33
4.27907e-31
1.797e-29
6.64508e-28
2.10961e-26
5.57211e-25
1.17806e-23
2.50355e-36
1.49233e-34
8.45429e-33
4.4388e-31
2.13134e-29
9.2056e-28
3.50545e-26
1.1476e-24
3.11684e-23
6.69522e-22
1.03928e-34
6.3438e-33
3.68541e-31
1.98742e-29
9.82062e-28
4.37956e-26
1.73156e-24
5.91101e-23
1.66403e-21
3.62493e-20
3.84195e-33
2.40017e-31
1.4296e-29
7.92538e-28
4.04375e-26
1.87716e-24
7.7995e-23
2.80184e-21
8.1309e-20
1.74354e-18
1.2391e-31
7.90843e-30
4.82492e-28
2.7528e-26
1.45806e-24
7.1112e-23
3.12624e-21
1.17213e-19
3.44012e-18
6.89461e-17
3.405e-30
2.21291e-28
1.37998e-26
8.10704e-25
4.47277e-23
2.29512e-21
1.05427e-19
4.06164e-18
1.35398e-16
6.54721e-15
7.78123e-29
5.12139e-27
3.24801e-25
1.95561e-23
1.11592e-21
5.92167e-20
2.7549e-18
1.13501e-16
7.03181e-16
1.0721e-10
1.44812e-27
9.57173e-26
6.10839e-24
3.71286e-22
2.14913e-20
1.14926e-18
5.00368e-17
4.14537e-16
4.21599e-11
4.66565e-07
8.0586e-39
4.57235e-37
2.45203e-35
1.21379e-33
5.48546e-32
2.23111e-30
8.01523e-29
2.48186e-27
6.41847e-26
1.33563e-24
3.55497e-37
2.05445e-35
1.1245e-33
5.69162e-32
2.63406e-30
1.09818e-28
4.04502e-27
1.28285e-25
3.38554e-24
7.12766e-23
1.44851e-35
8.53601e-34
4.77171e-32
2.47115e-30
1.17201e-28
5.0148e-27
1.89855e-25
6.19699e-24
1.68116e-22
3.60955e-21
5.27107e-34
3.16805e-32
1.80908e-30
9.58842e-29
4.66327e-27
2.0518e-25
8.02253e-24
2.71722e-22
7.64483e-21
1.68169e-19
1.68281e-32
1.0304e-30
6.00296e-29
3.25242e-27
1.62175e-25
7.35444e-24
2.98699e-22
1.05576e-20
3.06979e-19
6.77739e-18
4.61153e-31
2.86804e-29
1.69895e-27
9.37985e-26
4.78664e-24
2.23858e-22
9.4419e-21
3.44153e-19
1.00458e-17
2.1442e-16
1.05811e-29
6.64925e-28
3.98164e-26
2.22633e-24
1.1558e-22
5.5338e-21
2.38237e-19
8.58867e-18
2.43647e-16
1.73364e-14
1.98418e-28
1.25175e-26
7.52074e-25
4.2211e-23
2.20646e-21
1.06963e-19
4.59851e-18
1.50479e-16
1.0697e-14
1.92597e-10
7.46996e-40
4.21272e-38
2.24024e-36
1.09729e-34
4.89931e-33
1.96808e-31
6.99458e-30
2.15247e-28
5.57992e-27
1.17865e-25
3.28701e-38
1.88347e-36
1.01953e-34
5.09196e-33
2.32219e-31
9.54265e-30
3.47324e-28
1.09483e-26
2.90329e-25
6.24583e-24
1.33626e-36
7.79044e-35
4.29664e-33
2.19045e-31
1.02156e-29
4.30041e-28
1.60606e-26
5.20358e-25
1.42012e-23
3.1384e-22
4.85826e-35
2.88388e-33
1.62192e-31
8.44799e-30
4.03296e-28
1.74163e-26
6.69339e-25
2.24227e-23
6.36066e-22
1.46026e-20
1.55419e-33
9.39213e-32
5.38498e-30
2.86455e-28
1.39951e-26
6.20509e-25
2.46262e-23
8.59012e-22
2.55241e-20
6.09625e-19
4.28677e-32
2.63318e-30
1.53609e-28
8.32648e-27
4.15522e-25
1.89071e-23
7.75945e-22
2.81691e-20
8.6788e-19
2.12143e-17
9.94828e-31
6.19093e-29
3.66008e-27
2.01254e-25
1.02102e-23
4.74245e-22
1.99239e-20
7.33726e-19
2.25588e-17
6.00893e-16
1.89123e-29
1.18695e-27
7.07402e-26
3.92036e-24
2.00427e-22
9.36727e-21
3.91555e-19
1.37445e-17
3.83325e-16
1.1189e-11
4.73972e-41
2.65924e-39
1.40478e-37
6.82436e-36
3.01747e-34
1.19902e-32
4.21402e-31
1.28414e-29
3.30966e-28
7.00057e-27
2.07951e-39
1.18332e-37
6.34901e-36
3.1369e-34
1.4127e-32
5.72549e-31
2.05499e-29
6.39917e-28
1.6843e-26
3.62774e-25
8.42771e-38
4.86994e-36
2.6562e-34
1.33611e-32
6.13582e-31
2.53992e-29
9.32539e-28
2.97463e-26
8.02753e-25
1.77081e-23
3.05537e-36
1.7943e-34
9.9581e-33
5.1054e-31
2.3936e-29
1.01335e-27
3.81318e-26
1.25042e-24
3.48277e-23
7.93938e-22
9.7564e-35
5.82415e-33
3.28966e-31
1.71925e-29
8.23016e-28
3.56495e-26
1.37733e-24
4.66506e-23
1.35183e-21
3.20777e-20
2.69129e-33
1.63181e-31
9.37063e-30
4.98532e-28
2.43321e-26
1.07753e-24
4.2789e-23
1.50168e-21
4.53296e-20
1.11089e-18
6.26256e-32
3.84817e-30
2.24069e-28
1.20964e-26
5.99858e-25
2.70694e-23
1.10087e-21
3.96914e-20
1.22202e-18
3.02602e-17
1.19547e-30
7.42005e-29
4.36387e-27
2.37941e-25
1.19192e-23
5.43571e-22
2.23062e-20
8.01472e-19
2.39468e-17
6.21273e-16
2.23787e-42
1.24707e-40
6.53662e-39
3.14697e-37
1.3773e-35
5.41078e-34
1.87848e-32
5.65404e-31
1.44089e-29
3.02292e-28
9.76822e-41
5.51227e-39
2.92885e-37
1.43077e-35
6.36036e-34
2.54063e-32
8.97692e-31
2.75103e-29
7.13482e-28
1.51979e-26
3.93723e-39
2.25212e-37
1.21381e-35
6.02127e-34
2.72132e-32
1.10651e-30
3.98441e-29
1.2455e-27
3.2954e-26
7.14929e-25
1.41923e-37
8.23428e-36
4.50534e-34
2.27177e-32
1.04498e-30
4.33013e-29
1.59111e-27
5.08278e-26
1.37642e-24
3.05536e-23
4.50663e-36
2.65272e-34
1.47389e-32
7.55666e-31
3.53867e-29
1.4946e-27
5.6071e-26
1.83374e-24
5.10352e-23
1.1654e-21
1.23721e-34
7.38376e-33
4.16325e-31
2.16834e-29
1.03248e-27
4.43958e-26
1.69949e-24
5.6972e-23
1.63372e-21
3.83587e-20
2.86826e-33
1.73288e-31
9.89576e-30
5.22252e-28
2.52095e-26
1.09996e-24
4.28366e-23
1.46668e-21
4.2966e-20
1.01674e-18
5.46012e-32
3.33043e-30
1.92014e-28
1.02285e-26
4.98135e-25
2.19204e-23
8.60691e-22
2.96195e-20
8.59403e-19
1.9547e-17
8.36523e-44
4.62387e-42
2.40235e-40
1.1454e-38
4.96005e-37
1.92634e-35
6.60661e-34
1.96309e-32
4.93947e-31
1.02442e-29
3.627e-42
2.0274e-40
1.06595e-38
5.14646e-37
2.25823e-35
8.89202e-34
3.09327e-32
9.3245e-31
2.37852e-29
4.99021e-28
1.45168e-40
8.21169e-39
4.37095e-37
2.13802e-35
9.51169e-34
3.80031e-32
1.34243e-30
4.11091e-29
1.06482e-27
2.26386e-26
5.19411e-39
2.97457e-37
1.60389e-35
7.95428e-34
3.59092e-32
1.45714e-30
5.2316e-29
1.62917e-27
4.29066e-26
9.25795e-25
1.63688e-37
9.49108e-36
5.18507e-34
2.60778e-32
1.19492e-30
4.92488e-29
1.79705e-27
5.69064e-26
1.52487e-24
3.343e-23
4.46025e-36
2.61716e-34
1.44782e-32
7.37893e-31
3.42819e-29
1.43314e-27
5.30591e-26
1.70616e-24
4.64875e-23
1.03427e-21
1.0271e-34
6.09022e-33
3.40599e-31
1.75533e-29
8.24586e-28
3.48433e-26
1.30365e-24
4.23821e-23
1.16726e-21
2.60534e-20
1.94334e-33
1.16179e-31
6.55042e-30
3.40191e-28
1.60878e-26
6.83238e-25
2.56359e-23
8.33048e-22
2.2748e-20
4.92802e-19
2.58675e-45
1.41715e-43
7.29418e-42
3.44313e-40
1.4753e-38
5.66628e-37
1.92058e-35
5.6381e-34
1.40135e-32
2.87238e-31
1.11311e-43
6.15939e-42
3.20349e-40
1.52863e-38
6.6232e-37
2.57272e-35
8.82011e-34
2.61798e-32
6.5729e-31
1.35805e-29
4.42055e-42
2.47168e-40
1.29927e-38
6.26881e-37
2.74744e-35
1.07993e-33
3.74759e-32
1.12586e-30
2.85858e-29
5.95959e-28
1.56871e-40
8.86494e-39
4.71159e-37
2.29972e-35
1.02011e-33
4.06003e-32
1.42694e-30
4.34126e-29
1.11516e-27
2.34604e-26
4.9017e-39
2.79948e-37
1.50439e-35
7.42865e-34
3.33528e-32
1.34398e-30
4.78229e-29
1.47238e-27
3.82269e-26
8.10299e-25
1.32441e-37
7.6401e-36
4.14872e-34
2.07097e-32
9.40173e-31
3.83025e-29
1.37711e-27
4.27926e-26
1.11934e-24
2.38076e-23
3.02537e-36
1.76053e-34
9.64563e-33
4.85815e-31
2.22443e-29
9.13125e-28
3.30248e-26
1.0299e-24
2.69453e-23
5.6912e-22
5.68214e-35
3.32861e-33
1.83544e-31
9.29816e-30
4.27656e-28
1.75934e-26
6.35376e-25
1.96805e-23
5.07158e-22
1.03942e-20
6.98713e-47
3.79182e-45
1.93261e-43
9.02909e-42
3.82741e-40
1.45375e-38
4.87198e-37
1.41389e-35
3.47457e-34
7.04539e-33
2.98211e-45
1.63289e-43
8.39877e-42
3.96072e-40
1.69488e-38
6.49809e-37
2.19749e-35
6.43078e-34
1.59153e-32
3.24267e-31
1.17438e-43
6.48963e-42
3.3687e-40
1.60356e-38
6.92703e-37
2.68097e-35
9.15111e-34
2.70173e-32
6.73767e-31
1.38005e-29
4.13095e-42
2.30398e-40
1.20721e-38
5.80196e-37
2.53077e-35
9.89058e-34
3.40843e-32
1.01536e-30
2.55156e-29
5.25169e-28
1.27918e-40
7.19933e-39
3.80707e-37
1.8471e-35
8.13439e-34
3.20915e-32
1.11594e-30
3.35116e-29
8.47248e-28
1.74808e-26
3.42516e-39
1.94405e-37
1.03683e-35
5.07409e-34
2.25371e-32
8.9633e-31
3.13869e-29
9.47394e-28
2.40002e-26
4.93611e-25
7.757e-38
4.43456e-36
2.38186e-34
1.17364e-32
5.24534e-31
2.09653e-29
7.36169e-28
2.22029e-26
5.59131e-25
1.13401e-23
1.44551e-36
8.30725e-35
4.48319e-33
2.21782e-31
9.9369e-30
3.9717e-28
1.38893e-26
4.1459e-25
1.02371e-23
2.00942e-22
2.17648e-18
3.28325e-19
5.61146e-20
8.52514e-21
4.66024e-19
2.22332e-17
8.36619e-16
8.95339e-14
2.58567e-11
6.64868e-25
5.46508e-23
4.45591e-21
3.67861e-19
2.85163e-17
1.55147e-15
1.77095e-11
1.61628e-05
0.00246745
8.0966e-24
6.51532e-22
4.75385e-20
3.06814e-18
1.91823e-16
3.46873e-15
2.13957e-12
0.00624154
5.17757e-23
3.95896e-21
3.12128e-19
2.65046e-17
2.49592e-15
6.77457e-14
3.03134e-09
0.0103803
1.7461e-22
1.49224e-20
1.46464e-18
1.41768e-16
2.92885e-14
3.73942e-09
0.000799107
3.26807e-22
2.67195e-20
1.51824e-25
1.14703e-23
8.31891e-22
5.61231e-20
3.45501e-18
2.18623e-16
2.07366e-13
6.54506e-07
0.000473355
1.70705e-24
1.31787e-22
9.87777e-21
6.65268e-19
3.50194e-17
6.49097e-16
1.35326e-13
0.000994645
1.25029e-23
8.68685e-22
5.61426e-20
3.317e-18
1.93683e-16
8.42865e-15
2.41296e-11
0.00166927
4.38257e-23
2.92583e-21
1.94209e-19
1.28827e-17
9.20405e-16
5.2416e-13
1.10342e-06
0.000966385
7.79964e-23
5.10593e-21
2.15329e-26
1.41642e-24
8.98161e-23
5.43352e-21
3.21538e-19
1.84578e-17
3.42299e-16
6.38207e-13
8.09016e-14
2.45622e-25
1.60301e-23
1.00785e-21
5.87576e-20
3.02433e-18
1.33773e-16
1.9899e-15
2.62811e-10
1.9684e-24
1.23047e-22
7.28916e-21
4.10127e-19
2.5771e-17
9.47579e-16
4.20153e-14
1.65098e-05
8.27876e-24
5.08973e-22
3.04349e-20
1.8642e-18
1.17666e-16
5.00975e-15
1.27381e-11
7.29416e-05
1.561e-23
9.46401e-22
2.98132e-27
1.8807e-25
1.12963e-23
6.34759e-22
3.35971e-20
1.70649e-18
7.74127e-17
2.41182e-14
8.05605e-14
3.46973e-26
2.18428e-24
1.31166e-22
7.33478e-21
3.75512e-19
1.73133e-17
7.39619e-16
1.65373e-11
1.54429e-08
2.77422e-25
1.7035e-23
1.01465e-21
5.88802e-20
3.42349e-18
1.83908e-16
3.22418e-15
7.21683e-10
1.23106e-24
7.64924e-23
4.56769e-21
2.53798e-19
1.24251e-17
4.74351e-16
4.99046e-13
2.13665e-06
2.33158e-24
1.44117e-22
2.86841e-28
1.80894e-26
1.08309e-24
6.02653e-23
3.09112e-21
1.4522e-19
6.10929e-18
2.01814e-16
1.19972e-14
3.34376e-27
2.11507e-25
1.27394e-23
7.1618e-22
3.74205e-20
1.84248e-18
8.6689e-17
2.29403e-15
7.83479e-14
2.68917e-26
1.68204e-24
1.01421e-22
5.79057e-21
3.08308e-19
1.45081e-17
5.36606e-16
1.04456e-14
1.16855e-25
7.28581e-24
4.34969e-22
2.41758e-20
1.21521e-18
5.40662e-17
2.31289e-15
3.69788e-13
2.11974e-25
1.29314e-23
7.48267e-22
3.98362e-20
1.90978e-18
8.30963e-17
3.73882e-15
4.55889e-13
1.81562e-29
1.13474e-27
6.71873e-26
3.68665e-24
1.85648e-22
8.49394e-21
3.4819e-19
1.21945e-17
3.21198e-16
1.99483e-14
2.10652e-28
1.32249e-26
7.88056e-25
4.36381e-23
2.22561e-21
1.03931e-19
4.44051e-18
1.60405e-16
5.29346e-15
8.99258e-14
1.69063e-27
1.05607e-25
6.31591e-24
3.54426e-22
1.83843e-20
8.49863e-19
3.3017e-17
1.08209e-15
7.28139e-27
4.51919e-25
2.67744e-23
1.47797e-21
7.45065e-20
3.36792e-18
1.40893e-16
6.25426e-15
1.30757e-26
7.9641e-25
4.60321e-23
2.46087e-21
1.19794e-19
5.29988e-18
2.38904e-16
1.3915e-14
8.25914e-31
5.0715e-29
2.94285e-27
1.57678e-25
7.71306e-24
3.40006e-22
1.33099e-20
4.51926e-19
1.25077e-17
2.48317e-16
9.50309e-30
5.86063e-28
3.41814e-26
1.8429e-24
9.08072e-23
4.03193e-21
1.5914e-19
5.47423e-18
1.48602e-16
3.07402e-15
7.56038e-29
4.64962e-27
2.71875e-25
1.47967e-23
7.40566e-22
3.31682e-20
1.26489e-18
3.84602e-17
3.2411e-28
1.98075e-26
1.15056e-24
6.20746e-23
3.056e-21
1.33619e-19
5.06792e-18
1.68133e-16
5.81601e-28
3.50684e-26
2.0048e-24
1.06092e-22
5.11562e-21
2.20232e-19
8.404e-18
3.11576e-16
2.92012e-32
1.75551e-30
9.94912e-29
5.18865e-27
2.45952e-25
1.04353e-23
3.88855e-22
1.24252e-20
3.27682e-19
6.59508e-18
3.32825e-31
2.00762e-29
1.14161e-27
5.97326e-26
2.83982e-24
1.20604e-22
4.47355e-21
1.41146e-19
3.64964e-18
7.07791e-17
2.61714e-30
1.57535e-28
8.96392e-27
4.71158e-25
2.26234e-23
9.72101e-22
3.59582e-20
1.0776e-18
1.11692e-29
6.68205e-28
3.78222e-26
1.9794e-24
9.43602e-23
3.99343e-21
1.44496e-19
4.28254e-18
2.00338e-29
1.18689e-27
6.64848e-26
3.43921e-24
1.61948e-22
6.78211e-21
2.44518e-19
7.34908e-18
8.47591e-34
4.98611e-32
2.75931e-30
1.40117e-28
6.446e-27
2.64259e-25
9.45048e-24
2.86858e-22
7.12873e-21
1.37849e-19
9.57247e-33
5.64319e-31
3.12814e-29
1.58969e-27
7.3091e-26
2.98672e-24
1.05845e-22
3.14816e-21
7.55461e-20
1.4019e-18
7.43774e-32
4.3751e-30
2.42292e-28
1.23197e-26
5.68346e-25
2.33639e-23
8.30801e-22
2.43567e-20
3.15895e-31
1.84671e-29
1.01739e-27
5.15669e-26
2.37308e-24
9.7016e-23
3.4041e-21
9.77007e-20
5.6556e-31
3.2813e-29
1.79444e-27
9.0273e-26
4.12316e-24
1.67378e-22
5.84137e-21
1.67156e-19
2.14056e-35
1.23373e-33
6.67205e-32
3.30306e-30
1.47762e-28
5.87448e-27
2.03087e-25
5.93415e-24
1.41365e-22
2.63337e-21
2.39845e-34
1.38307e-32
7.48116e-31
3.69951e-29
1.64981e-27
6.5181e-26
2.22737e-24
6.3743e-23
1.46845e-21
2.63432e-20
1.85491e-33
1.06012e-31
5.72193e-30
2.82378e-28
1.25751e-26
4.96668e-25
1.69645e-23
4.82509e-22
7.78586e-33
4.45228e-31
2.38943e-29
1.17467e-27
5.22114e-26
2.05908e-24
7.00081e-23
1.96951e-21
1.39119e-32
7.89485e-31
4.21245e-29
2.0597e-27
9.10911e-26
3.57571e-24
1.21024e-22
3.38573e-21
5.8587e-07
2.95979e-05
5.81119e-12
1.91949e-12
5.66042e-07
3.23843e-13
5.94881e-08
7.4824e-11
7.91392e-07
9.99666e-10
5.38399e-06
9.00644e-16
1.04653e-13
4.87052e-15
8.93176e-12
1.2063e-14
9.70196e-11
2.42713e-17
3.97821e-16
9.87133e-17
1.47191e-15
1.85784e-16
2.43253e-15
5.53466e-19
9.61923e-18
2.16629e-18
3.46953e-17
3.6914e-18
5.59915e-17
1.08732e-20
1.88463e-19
4.36986e-20
7.39905e-19
7.4258e-20
1.21859e-18
0.000127464
0.0038765
0.0340625
0.0125551
0.000353191
0.00172423
9.9665e-05
0.000616139
0.000931177
2.48763e-06
3.27196e-05
3.36225e-05
0.00224149
1.03376e-07
0.000130461
0.00217806
7.93296e-09
6.28548e-06
7.87954e-08
0.000120927
0.00103701
4.0694e-05
7.77787e-05
0.00495352
0.00113957
0.00113596
1.81556e-05
0.000738515
0.00497998
0.00105172
8.81998e-05
2.63617e-05
0.00129736
0.0185665
0.000500278
0.00664561
1.60104e-05
0.000706956
0.004569
0.00313093
0.00132314
0.000358296
4.32736e-06
0.00234471
6.31936e-06
0.0009208
0.000170818
7.18354e-07
0.00033231
4.13931e-05
5.88248e-05
2.01014e-11
2.60785e-08
2.23774e-09
6.07735e-07
0.000592339
7.50291e-06
0.00229865
6.25726e-05
0.000921573
2.90234e-05
0.000228716
4.92773e-08
1.91886e-06
0.000437767
0.000219978
0.00130933
0.000547123
2.17515e-05
2.56006e-05
1.56847e-07
0.0310978
0.0242873
0.0222101
0.0141528
0.013124
0.00911883
0.00983151
0.000529894
7.10946e-05
2.65084e-08
0.000525944
7.48314e-05
6.72016e-10
2.53075e-06
7.8985e-06
1.69377e-05
1.21825e-08
0.000202071
0.00295738
2.01962e-05
0.000189911
0.000496495
6.53453e-05
5.10198e-10
2.0728e-06
2.49676e-06
3.39442e-07
5.16938e-11
0.0168037
0.00991241
0.00911894
0.0082846
0.00763138
0.00398137
0.00426575
7.87813e-06
0.00129494
0.000903505
0.000932192
2.42852e-07
2.9164e-06
0.00134403
0.0228409
0.00896566
0.0163345
0.00555943
0.00988789
0.00684676
0.00381036
0.00214357
0.000728356
0.00219729
0.000955616
0.000750622
0.000286891
0.000277854
0.00222861
0.000964653
0.000965531
0.000757244
0.000758969
0.000289476
0.000287015
0.0109456
0.00493874
0.0109198
0.00535441
0.00538034
0.00233279
0.00231813
0.0110443
0.00497032
0.0109985
0.00543662
0.00541451
0.00234285
0.00234337
0.00955121
0.0163209
0.0149661
0.00595811
0.00394685
0.00366427
0.00641894
1.94282e-07
2.43309e-06
0.0013005
4.40806e-07
0.000699503
2.94164e-08
0.000458173
0.00195913
0.000925324
0.000812844
0.000722472
0.000627756
0.000270012
0.000228926
0.0121759
0.00384527
0.00680813
0.00321018
0.0056987
0.00303548
0.00174248
0.0102988
0.00489025
0.0108962
0.00533719
0.00497787
0.00228356
0.00209765
4.18469e-05
0.000496961
0.000381579
7.94885e-08
0.000194987
5.30398e-09
0.000135435
0.00246169
0.00105075
0.00178089
0.00238526
0.00101661
0.00128591
0.000543042
1.40184e-05
1.06003e-07
3.95953e-05
1.08116e-05
3.70222e-11
1.49341e-06
1.0268e-08
0.00706271
0.00605631
0.0110347
0.00445593
0.00147399
0.00272429
0.00244979
0.00154747
0.000402804
0.000622255
0.000299021
0.00047268
0.000165951
9.91229e-05
0.00395001
0.00907208
0.00736632
0.00336938
0.00428631
0.00176559
0.00134718
0.000342531
2.5885e-05
6.0272e-06
3.7289e-08
5.31286e-05
2.4321e-09
3.43282e-05
0.00232757
0.00506067
0.00472352
0.0019722
0.000965496
0.000912373
0.00209373
3.16897e-06
9.12795e-10
5.75636e-11
1.16997e-06
0.000413913
9.34673e-08
0.000279537
0.005764
0.00353417
0.00327695
0.00227283
0.00210719
0.0011222
0.00121348
6.39098e-05
1.65322e-07
0.000459756
1.80389e-10
1.15677e-05
1.05229e-08
0.000290662
0.00532409
0.00160026
0.00497062
0.00332613
0.00110288
0.00101904
0.00357248
0.00344353
0.00121343
0.00321263
0.0015931
0.000589627
0.000550484
0.00169567
0.00554943
0.00392844
0.00158723
0.00243284
0.00163218
0.000939121
0.000605607
1.03769e-07
1.42739e-12
1.8261e-08
5.51191e-09
1.88633e-06
3.92297e-10
1.93423e-12
3.44679e-11
3.53264e-05
1.49161e-08
2.30402e-12
7.63323e-09
6.83711e-06
2.93413e-08
4.5601e-06
3.51293e-10
6.58924e-08
1.9136e-09
1.7974e-08
9.24394e-13
1.40521e-12
1.30984e-07
1.98559e-12
2.38676e-08
5.71196e-06
1.3027e-07
2.62194e-08
1.97951e-12
0.00123942
0.00174542
0.00144555
0.000728665
0.000591205
0.000783654
0.000310096
0.00209167
0.00108839
0.00228732
0.000364379
0.000940287
0.000841294
0.000315424
9.58901e-09
2.3171e-06
2.15258e-07
2.12908e-09
1.20918e-07
4.53686e-13
1.52807e-11
1.34023e-06
3.15708e-12
2.12528e-08
3.21372e-10
2.78275e-08
1.18298e-13
1.85772e-10
7.81219e-13
5.49614e-10
5.74197e-09
5.44514e-06
8.90412e-07
2.04612e-09
1.9962e-08
0.000366394
0.000131679
0.000377015
9.74765e-05
2.49742e-05
9.3819e-05
2.62323e-05
0.00207194
0.00117872
0.00375227
0.00248372
0.000373946
0.00073944
0.00134019
0.000132516
0.000377062
0.000380039
9.81486e-05
2.5459e-05
9.62639e-05
2.636e-05
0.00234928
0.00112458
0.00233427
0.000981087
0.000383169
0.000970761
0.000390087
0.00235263
0.00114307
0.00235595
0.000984203
0.000386288
0.000391122
0.000978811
0.00180392
0.00208662
0.00360942
0.00152096
0.000397327
0.00070227
0.000876655
0.000913496
0.0013806
0.00243639
0.00121765
0.000218728
0.00041027
0.000687999
0.00427532
0.00132955
0.00243674
0.000823322
0.00155306
0.000818238
0.00042389
0.000299629
0.000222427
0.000158561
0.000108227
7.22315e-05
4.83819e-05
1.97605e-05
0.000181158
1.36019e-08
5.752e-07
1.36533e-06
0.000187242
1.76713e-11
3.48607e-08
0.00221731
0.000736114
0.00223823
0.000890217
0.000257229
0.000879482
0.000262034
0.00263219
0.00063782
0.00103714
0.000596067
0.00102234
0.00036361
0.000203183
0.000145737
1.35236e-11
2.7516e-08
3.99096e-09
6.89067e-05
1.96326e-12
1.7525e-07
0.00207149
0.00129874
0.00065259
0.000321133
0.00119991
0.000599148
0.00223229
0.000356292
0.000100204
0.000305522
2.25038e-05
8.82378e-05
7.1482e-05
1.71475e-05
0.00225622
0.000741459
0.00225357
0.000894694
0.000260783
0.000263468
0.000890724
0.00219272
0.000627077
0.00199996
0.000246157
0.000855089
0.000763544
0.000213138
1.55994e-05
7.74452e-07
2.23752e-05
3.01828e-08
6.76161e-07
7.3527e-09
2.4344e-13
9.81487e-10
2.6168e-06
2.44432e-09
2.86446e-06
6.27194e-11
3.08242e-09
8.31949e-13
0.000194038
3.46035e-05
0.000201511
6.30135e-05
7.05305e-06
6.00857e-05
7.58963e-06
3.4828e-05
0.000200913
0.000203406
6.34644e-05
7.1977e-06
7.62431e-06
6.17595e-05
0.000542591
0.000768756
0.00174743
0.000680613
0.000164542
0.000493292
0.000242693
0.00187453
0.000855357
0.00174236
0.000548925
0.000267304
0.000245177
0.000595503
0.000760135
0.000172227
0.000323713
0.000163788
0.000421459
0.000214754
7.45836e-05
3.81252e-09
7.78187e-06
9.28172e-05
7.04047e-10
5.42617e-06
3.00346e-13
7.46758e-09
1.4395e-06
5.2342e-06
8.34507e-10
3.2428e-10
4.80664e-06
1.79721e-13
5.9762e-09
4.75722e-11
2.20112e-10
2.62278e-07
2.3199e-09
7.76267e-13
5.45916e-12
8.01226e-13
0.00018676
2.23601e-05
0.000154497
5.99899e-06
5.54385e-05
4.33606e-05
4.12937e-06
0.00152701
0.000446982
0.000221119
0.000205258
0.000871834
0.000425457
0.000803541
0.000501705
0.00124735
0.00166344
0.000616706
0.000111251
0.000446432
0.000164285
0.000553855
0.000254223
0.000626226
0.000266725
0.000626614
0.000254372
9.93082e-05
0.00121481
0.00021729
0.000510361
0.000239065
0.000599789
0.000241801
8.71036e-05
0.000525859
0.0012806
0.00135066
0.000552615
0.000522564
0.000176828
0.000189328
0.00107414
0.000475835
0.000448907
0.000404955
0.000380798
0.000138298
0.000148593
0.000953104
0.000183071
0.0003887
0.000165784
0.000385476
0.000143187
5.68174e-05
5.90086e-10
4.06799e-07
4.95394e-10
4.35362e-07
6.65589e-06
7.20044e-10
7.01407e-08
7.05208e-05
0.000141294
0.000226902
4.83484e-05
5.0985e-06
2.64517e-05
1.06141e-05
0.000732614
0.000323843
8.09302e-05
0.000242296
0.000302891
0.000225081
0.000779213
0.000139028
1.74246e-05
4.67819e-05
9.6011e-06
2.83846e-05
6.85163e-06
1.89958e-06
0.000346691
0.00020673
0.00060203
0.000100097
0.00032452
0.000197435
5.61388e-05
0.00120797
0.0013189
0.00123144
0.000301943
0.000321946
0.000330868
0.000293328
0.00125116
0.00133805
0.00124805
0.000306078
0.00033463
0.000304297
0.000335669
2.56004e-07
5.98255e-10
2.43215e-05
2.3215e-13
1.69733e-08
3.57349e-11
3.43817e-06
7.7911e-12
2.8982e-10
4.60238e-14
1.25919e-08
1.40689e-05
4.33403e-12
3.03629e-07
0.000364865
0.000549319
0.000321768
0.000192076
0.000160024
0.00010503
4.87912e-05
2.35582e-06
1.40179e-09
3.82112e-05
1.0146e-13
1.10354e-09
7.44461e-13
6.2908e-08
7.05175e-08
1.59678e-12
1.11403e-10
2.4457e-13
1.39078e-10
3.31509e-09
5.91175e-13
1.35674e-05
5.97808e-05
0.000107184
2.79888e-05
8.87521e-07
2.20999e-06
1.43541e-05
0.000700076
0.000152986
0.00064386
0.000316356
7.05955e-05
6.1845e-05
0.000346504
0.000696169
0.000630767
0.00129373
0.000395774
8.3079e-05
0.000173347
0.000199978
0.000848898
0.000130769
0.000531027
6.62454e-05
0.000292515
0.000175812
3.47534e-05
0.000518046
0.000217949
0.000225115
0.000142194
0.000146238
4.41217e-05
4.22244e-05
0.000531954
0.00022272
0.000226246
0.000143785
0.000146657
4.42168e-05
4.27184e-05
0.000605483
6.76335e-05
0.000228492
8.42788e-05
0.000291498
0.000102941
2.58222e-05
0.000503476
9.79439e-05
0.000284697
7.07991e-05
0.000220804
0.000107248
3.12961e-05
0.00120882
0.00117134
0.00108646
0.000317101
0.000287123
0.000246115
0.000273658
0.000999774
0.000585182
0.00021369
0.000226749
0.000402341
0.000131201
6.89941e-05
4.56149e-15
5.90362e-14
1.14659e-14
4.45262e-15
5.65057e-15
3.08271e-13
1.98242e-14
6.88888e-14
7.76009e-13
3.6413e-06
3.59884e-10
9.38519e-12
6.54758e-10
7.97881e-13
3.72774e-14
1.52518e-12
8.25629e-10
9.4613e-10
1.29687e-08
1.06393e-11
3.7152e-10
2.52499e-13
7.65146e-20
1.35858e-15
2.95625e-16
1.30587e-18
1.90124e-19
5.62881e-20
1.94681e-19
2.43457e-18
1.21455e-18
3.30777e-18
2.82127e-17
3.39168e-17
5.16093e-17
2.63425e-17
6.60343e-15
1.21235e-16
1.30133e-15
2.49959e-15
3.9914e-16
2.99806e-16
6.7713e-17
4.02429e-17
3.03839e-19
1.10391e-18
2.53848e-19
9.34052e-19
6.94638e-18
3.11537e-18
1.71813e-19
3.44444e-20
7.07312e-20
1.82866e-20
9.81138e-20
1.28037e-19
3.01849e-21
6.45237e-23
1.04538e-20
2.58446e-22
5.6852e-24
2.99874e-16
7.71199e-15
4.25333e-15
3.33124e-16
1.7438e-16
5.10091e-16
1.77574e-16
2.25524e-15
3.11591e-13
9.14748e-15
3.15634e-14
6.07279e-18
1.82292e-16
7.35575e-17
2.56601e-15
1.03289e-17
3.84362e-18
9.09555e-18
3.59405e-16
1.84506e-16
3.59015e-16
2.63274e-17
2.00713e-16
8.5098e-18
1.62416e-16
3.18081e-19
4.21728e-14
1.51931e-08
5.66023e-16
1.03385e-14
1.17153e-18
3.31205e-17
1.39027e-17
4.63355e-16
2.52441e-18
1.13039e-18
3.05384e-19
1.85314e-17
6.97848e-18
2.36468e-17
7.27785e-18
1.33002e-16
3.32919e-16
1.37457e-17
1.46912e-16
1.02161e-14
3.44572e-16
1.74708e-15
2.30295e-16
1.6605e-16
1.65776e-16
1.41786e-17
4.02548e-17
6.64409e-18
7.88334e-18
6.51443e-16
8.32641e-16
2.17043e-14
6.78259e-17
9.147e-16
6.19456e-14
9.2081e-15
8.6223e-18
5.36459e-20
1.48655e-18
1.36549e-17
5.84368e-19
3.1632e-19
1.04268e-18
1.38641e-20
1.284e-19
2.76674e-19
5.72942e-20
1.11515e-18
9.02566e-19
3.16229e-19
7.39307e-19
4.87849e-19
7.25191e-18
2.03571e-17
6.70225e-18
2.2265e-17
1.0751e-16
1.63263e-17
1.64894e-17
7.43313e-18
2.56976e-19
7.93762e-19
2.21565e-19
7.50202e-19
4.64856e-18
1.36328e-16
3.55597e-18
7.81509e-20
1.59316e-21
1.71728e-14
6.82387e-17
2.57655e-19
5.42812e-18
1.59751e-18
6.37299e-21
1.3676e-19
3.21677e-20
1.37895e-22
2.87529e-21
1.23461e-12
1.47648e-13
5.02579e-11
3.80013e-11
1.21781e-11
4.66728e-10
1.08032e-12
4.51348e-14
9.30862e-16
2.0459e-14
2.51396e-16
1.51197e-15
3.73167e-13
5.48508e-14
1.47115e-22
7.51877e-21
1.04886e-23
2.21484e-23
1.54471e-23
3.77055e-22
1.19758e-21
1.64336e-22
7.16375e-22
3.62873e-19
1.69036e-17
1.96584e-20
6.14986e-20
8.34854e-21
3.66465e-20
9.98579e-19
4.24804e-19
2.76783e-18
1.92214e-18
3.19656e-17
2.13944e-17
4.8937e-26
2.75229e-24
4.39247e-26
1.82021e-24
7.6546e-29
8.15041e-30
1.65052e-29
2.27118e-30
2.70164e-25
1.02898e-26
3.36015e-26
1.01629e-23
1.89194e-27
2.4281e-26
7.28686e-25
7.83127e-24
2.34082e-24
2.13634e-24
1.79683e-24
2.16661e-29
8.61659e-30
3.05924e-29
9.96543e-31
3.61405e-29
1.30804e-30
1.61448e-29
7.1693e-30
1.07516e-29
4.55196e-31
1.96534e-30
8.03269e-30
9.18125e-30
3.8927e-31
1.34026e-24
3.14966e-25
3.60851e-25
1.04656e-23
3.57119e-23
8.50728e-23
1.48579e-23
1.54879e-25
2.72761e-25
7.3973e-26
9.87597e-27
2.01825e-26
4.88802e-27
2.10757e-26
1.62878e-23
5.33224e-24
1.54546e-23
3.20778e-30
1.44654e-30
5.18394e-31
1.94679e-29
1.2013e-29
1.99626e-30
7.63786e-30
4.93355e-30
8.38245e-31
2.46655e-30
8.50009e-32
5.96698e-31
1.7562e-30
3.12267e-30
5.61848e-31
1.74023e-30
8.7889e-32
3.59522e-32
3.23198e-31
7.28838e-31
1.315e-30
4.15556e-32
2.18895e-31
7.13089e-31
1.30618e-32
1.19294e-31
2.45532e-31
4.58508e-31
1.5169e-32
9.94941e-32
2.34942e-31
6.18901e-32
2.10296e-30
4.38075e-31
1.09522e-30
4.75716e-31
1.1208e-30
5.74485e-32
2.51318e-32
9.1293e-31
1.50195e-31
4.65185e-31
1.42454e-31
4.77515e-31
2.39e-32
1.18555e-27
3.9738e-26
3.53633e-26
3.51884e-26
3.18341e-27
1.71076e-27
2.08573e-27
2.47399e-27
5.90537e-21
6.24407e-22
7.60664e-21
5.84133e-21
6.56238e-21
5.06163e-21
4.51961e-20
1.0398e-21
3.47289e-22
1.07148e-21
9.41151e-23
4.17143e-22
2.06577e-20
1.27549e-22
9.31395e-23
1.14752e-22
7.31642e-22
1.90098e-21
3.23976e-27
4.53359e-25
5.80372e-26
1.16346e-25
4.77757e-25
2.1254e-26
4.40535e-27
2.17388e-19
2.79668e-20
2.36869e-19
2.12758e-19
2.30659e-19
2.10901e-19
1.47002e-18
3.90608e-20
1.16107e-20
3.11192e-20
8.97671e-19
9.99891e-20
1.82955e-22
2.99012e-18
1.04164e-18
1.37201e-17
5.12448e-18
6.47886e-18
2.91934e-18
3.6648e-19
1.5911e-18
6.69086e-19
4.54962e-20
1.85223e-19
1.24768e-18
2.71207e-18
1.63133e-19
1.23014e-18
4.79189e-20
2.42323e-20
1.61176e-18
5.60147e-20
5.616e-19
1.02159e-19
5.91135e-19
1.95321e-20
3.99879e-21
2.13023e-20
1.38891e-19
2.1044e-19
5.59175e-21
1.05831e-20
1.24601e-19
2.79475e-19
6.1805e-18
3.23904e-20
1.0325e-18
5.97495e-22
9.84295e-20
1.82865e-23
6.48674e-21
8.41647e-25
1.16186e-21
5.46894e-22
2.34188e-20
1.08223e-20
5.37897e-21
1.71898e-20
2.73625e-21
1.58128e-20
4.87598e-19
1.33151e-19
4.36741e-19
1.43549e-22
2.65021e-23
2.72742e-21
3.70778e-22
1.99202e-20
6.35146e-22
3.32301e-21
1.45778e-22
2.51147e-21
9.07059e-20
4.675e-21
1.78129e-19
6.93361e-20
2.26631e-19
4.01149e-24
1.42374e-24
5.38763e-23
4.29859e-21
1.35447e-23
2.00981e-23
2.64079e-22
1.07603e-23
1.92837e-22
1.85179e-20
6.97194e-21
2.55495e-20
1.60814e-22
5.55701e-21
9.91491e-21
1.38223e-25
4.97567e-26
7.15625e-25
4.82984e-25
1.03169e-24
1.36343e-23
3.99816e-25
8.78052e-24
3.89596e-22
1.09733e-21
6.18617e-24
2.97416e-22
4.77255e-22