/*--------------------------------*- C++ -*----------------------------------*\
  =========                 |
  \\      /  F ield         | OpenFOAM: The Open Source CFD Toolbox
   \\    /   O peration     | Website:  https://openfoam.org
    \\  /    A nd           | Version:  9
     \\/     M anipulation  |
\*---------------------------------------------------------------------------*/
FoamFile
{
    format      ascii;
    class       volScalarField;
    location    "0.00195";
    object      rhoE;
}
// * * * * * * * * * * * * * * * * * * * * * * * * * * * * * * * * * * * * * //

dimensions      [1 -1 -2 0 0 0 0];

internalField   nonuniform List<scalar> 
16523
(
253245
253245
253245
253245
253245
253245
253245
253245
253245
253245
253245
253245
253245
253245
253245
253245
253245
253245
253245
253245
253245
253245
253245
253245
253245
253245
253245
253245
253245
253245
253245
253245
253245
253245
253245
253245
253245
253245
253245
253245
253641
253245
253245
253245
253245
585624
253245
253245
253245
253245
253245
253245
258174
973252
253245
253245
253245
338434
2.07235e+06
253245
253245
253245
253258
606382
253245
253245
253245
253245
253245
253245
253245
253245
253245
253245
253245
253245
253245
253245
253245
253245
253245
253245
253245
253245
253245
253245
253245
253245
253245
253245
253245
253245
253245
253245
253245
253245
253245
253245
253245
253245
253245
253245
253245
253245
253245
253245
253245
253245
253245
253245
253245
253245
253245
253245
253245
253245
253245
253245
253245
253245
253245
253245
253245
253307
253245
253245
253245
253245
253245
253245
253245
253245
1.64032e+06
1.69745e+06
253245
253245
253245
253245
253245
253245
253248
823518
1.69298e+06
253245
253245
253245
253245
253245
253245
253245
253245
253245
253245
253245
253245
253245
253245
253245
253245
253245
253245
253245
253245
253245
253245
253245
253245
253245
253245
253245
253245
253245
253245
253245
253245
253245
253245
253245
253245
253245
253245
253245
253245
253245
253245
253245
253245
253245
253245
253245
253245
253245
253245
253245
253245
253245
253245
253245
253245
253245
253245
253245
253260
253245
253245
253245
253245
253245
253245
253245
253245
529323
1.24579e+06
253245
253245
253245
253245
253245
253245
253245
283282
2.32242e+06
1.17015e+06
253245
253245
253245
253245
253245
253245
253245
253245
253245
253245
253245
253245
253245
253245
253245
253245
253245
253245
253245
253245
253245
253245
253245
253245
253245
253245
253245
253245
253245
253245
253245
253245
253245
253245
253245
253245
253245
253245
253245
253245
253245
253245
253245
253245
253245
253245
253245
253245
253245
253245
253245
253245
253245
253245
253245
253245
253245
253245
253245
253245
253245
253245
253245
253245
253245
253245
253245
253245
253245
253745
253245
253245
253245
253245
253245
253245
253245
253245
253463
670233
253245
253245
253245
253245
253245
253245
253245
253245
253245
253245
253245
253245
253245
253245
253245
253245
253245
253245
253245
253245
253245
253245
253245
253245
253245
253245
253245
253245
253245
253245
253245
253245
253245
253245
253245
253245
253245
253245
253245
253245
253245
253245
253245
253245
253245
253245
253245
253245
253245
253245
253245
253245
253245
253245
253245
253245
253245
253245
253245
253245
253245
253245
253245
253245
253245
253245
253245
253245
253245
253245
253245
253245
253245
253245
253245
253245
253245
253245
253245
253835
253245
253245
253245
253245
253245
253245
253245
253245
253245
253245
253245
253245
253245
253245
253245
253245
253245
253245
253245
253245
253245
253245
253245
253245
253245
253245
253245
253245
253245
253245
253245
253245
253245
253245
253245
253245
253245
253245
253245
253245
253245
253245
253245
253245
253245
253245
253245
253245
253245
253245
253245
253245
253245
253245
253245
253245
253245
253245
253245
253245
253245
253245
253245
253245
253245
253245
253245
253245
253245
253245
253245
253245
253245
253245
253245
253245
253245
253245
253245
253309
253245
253245
253245
253245
253245
253245
253245
253245
253245
253245
253245
253245
253245
253245
253245
253245
253245
253245
253245
253245
253245
253245
253245
253245
253245
253245
253245
253245
253245
253245
253245
253245
253245
253245
253245
253245
253245
253245
253245
253245
253245
253245
253245
253245
253245
253245
253245
253245
253245
253245
253245
253245
253245
253245
253245
253245
253245
253245
253245
253245
253245
253245
253245
253245
253245
253245
253245
253245
253245
253245
253245
253245
253245
253245
253245
253245
253245
253245
253245
253245
253245
253245
253245
253245
253245
253245
253245
253245
253245
253245
253245
253245
253245
253245
253245
253245
253245
253245
253245
253245
253245
253245
253245
253245
253245
253245
253245
253245
253245
253245
253245
253245
253245
253245
253245
253245
253245
253245
253245
253245
253245
253245
253245
253245
253245
253245
253245
253245
253245
253245
253245
253245
253245
253245
253245
253245
253245
253245
253245
253245
253245
253245
253245
253245
253245
253245
253245
253245
253245
253245
253245
253245
253245
253245
253245
253245
253245
253245
253245
253245
253245
253245
253245
253245
253245
253245
253245
253245
253245
253245
253245
253245
253245
253245
253245
253245
253245
253245
253245
253245
253245
253245
253245
253245
253245
253245
253245
253245
253245
253245
253245
253245
253245
253245
253245
253245
253245
253245
253245
253245
253245
253245
253245
253245
253245
253245
253245
253245
253245
253245
253245
253245
253245
253245
253245
253245
253245
253245
253245
253245
253245
253245
253245
253245
253245
253245
253245
253245
253245
253245
253245
253245
253245
253245
253245
253245
253245
253245
253245
253245
253245
253245
253245
253245
253245
253245
253245
253245
253245
253245
253245
253245
253245
253245
253245
253245
253245
253245
253245
253245
253245
253245
253245
253245
253245
253245
253245
253245
253245
253245
253245
253245
253245
253245
253245
253245
253245
253245
253245
253245
253245
253245
253245
253245
253245
253245
253245
253245
253245
253245
253245
253245
253245
253245
253245
253245
253245
253245
253245
253245
253245
253245
253245
253245
253245
253245
253245
253245
253245
253245
253245
253245
253245
253245
253245
253245
253245
253245
253245
253245
253245
253245
253245
253245
253245
253245
253245
253245
253245
253245
253245
253245
253245
253245
253245
253245
253245
253245
253245
253245
253245
253245
253245
253245
253245
253245
253245
253245
253245
253245
253245
253245
253245
253245
253245
253245
253245
253245
253245
253245
253245
253245
253245
253245
253245
253245
253245
253245
253245
253245
253245
253245
253245
253245
253245
253245
253245
253245
253245
253245
253245
253245
253245
253245
253245
253245
253245
253245
253245
253245
253245
253245
253245
253245
253245
253245
253245
253245
253245
253245
253245
253245
253245
253245
253245
253245
253245
253245
253268
253245
253245
253245
253245
253245
253245
253279
1.5294e+06
1.48618e+06
253245
253245
253245
253245
253245
253245
253249
1.48504e+06
253245
253245
253245
253245
253245
253245
253973
1.4003e+06
253245
253245
253245
253245
253245
253841
2.01641e+06
253245
253245
253245
253245
253245
253245
253245
253245
253246
492707
1.8561e+06
253245
253245
253245
253245
253245
253245
253246
1.86735e+06
253245
253245
253245
253245
253245
253245
253270
1.68979e+06
253245
253245
253245
253245
253245
253246
378439
2.13945e+06
253245
253245
253245
253245
253245
253245
253245
253245
253245
253250
253246
253245
253245
253245
253245
253245
253245
253245
253641
253245
253245
253245
253245
253245
253245
253245
1.45467e+06
253245
253245
253245
253245
253245
253245
253255
1.81063e+06
253245
253245
253245
253245
253245
253245
253245
253245
253245
253245
253246
253245
253245
253245
253245
253245
253245
253245
253286
263590
253245
253245
253245
253245
253245
253245
253245
253778
253245
253245
253245
253245
253245
253245
253246
348514
253245
253245
253245
253245
253245
253245
253245
253245
253245
253245
253245
253245
253245
253245
253245
253245
253245
253245
253245
253246
253245
253245
253245
253245
253245
253245
253245
253245
253245
253245
253245
253245
253245
253245
253245
253246
253245
253245
253245
253245
253245
253245
253245
253246
253245
253245
253245
253245
253245
253245
253245
253245
253245
253245
253245
253245
253245
253245
253245
253245
253245
253245
253245
253246
253245
253245
253245
253245
253245
253245
253245
253245
253245
253245
253245
253245
253245
253245
253245
253245
253245
253245
253245
253245
253245
253245
253245
253245
253245
253245
253245
253245
253245
253245
253245
253245
253245
253245
253245
253245
253245
253245
253245
253245
253245
253245
253245
253245
253245
253245
253245
253245
253245
253245
253245
253245
253245
253245
253245
253245
253245
253245
253245
253245
253245
253245
253245
253245
253245
253245
253245
253245
253245
253245
253245
253245
253245
253245
253245
253245
253245
253245
253245
253245
253245
253245
253245
253245
253245
253245
253245
253245
253245
253245
253245
253245
253245
253245
253245
253245
253245
253245
253245
253245
253245
253245
253245
253245
253245
253245
253245
253245
253245
253245
253245
253245
253245
253245
253245
253245
253245
253245
253245
253245
253245
253245
253245
253245
253245
253245
253245
253245
253245
253245
253245
253245
253245
253245
253245
253245
253245
253245
253245
253245
253245
253245
253245
253245
253245
253245
253245
253245
253245
253245
253245
253245
253245
253245
253245
253245
253245
253245
253245
253245
253245
253245
253245
253245
253245
253245
253245
253245
253245
253245
253245
253245
253245
253245
253245
253245
253245
253245
253245
253245
253245
253245
253245
253245
253245
253245
253245
253245
253245
253245
253245
253245
253245
253245
253245
253245
253245
253245
253245
253245
400939
869656
253263
253248
325837
253246
277010
253320
353108
253745
630630
253245
253245
253245
253256
253245
253311
253245
253245
253245
253245
253245
253245
253245
253245
253245
253245
253245
253245
253245
253245
253245
253245
253245
253245
1.2854e+06
1.52652e+06
1.24911e+06
1.30268e+06
2.00984e+06
1.99042e+06
1.7762e+06
2.07184e+06
1.28466e+06
441839
940785
929943
1.20463e+06
267179
1.28185e+06
1.23076e+06
255528
521244
264140
1.26583e+06
1.38598e+06
1.11878e+06
1.85642e+06
1.3185e+06
2.05082e+06
2.07192e+06
1.26572e+06
2.07828e+06
1.33363e+06
1.66702e+06
2.11411e+06
1.84029e+06
1.81276e+06
1.16678e+06
2.07564e+06
1.23509e+06
1.18578e+06
2.0825e+06
1.38504e+06
1.48951e+06
1.85488e+06
2.06153e+06
718106
1.66629e+06
800453
1.97759e+06
1.89434e+06
373945
2.15571e+06
1.50478e+06
1.45404e+06
253289
261565
254286
318375
1.44611e+06
822291
1.57243e+06
2.20072e+06
1.97049e+06
1.45052e+06
2.00038e+06
272596
536348
1.60878e+06
1.9166e+06
1.45173e+06
1.75823e+06
2.34583e+06
2.13077e+06
443154
1.25821e+06
1.28734e+06
1.29948e+06
1.41325e+06
1.43289e+06
1.50031e+06
1.47316e+06
2.22055e+06
1.50852e+06
256786
2.22108e+06
1.52438e+06
253457
513031
1.48383e+06
2.26698e+06
268834
2.21048e+06
1.30804e+06
2.18742e+06
2.16714e+06
2.22045e+06
1.4336e+06
253411
467512
397544
308430
253281
1.17872e+06
1.2472e+06
1.2674e+06
1.29953e+06
1.32192e+06
1.43686e+06
1.40591e+06
532744
2.00313e+06
2.02478e+06
2.03234e+06
268413
351850
2.00954e+06
1.27167e+06
1.35644e+06
1.31725e+06
1.53794e+06
1.46567e+06
1.54448e+06
1.63749e+06
1.20582e+06
1.45538e+06
1.19145e+06
1.27544e+06
1.44854e+06
1.35863e+06
1.35806e+06
1.19091e+06
1.28205e+06
1.27444e+06
1.44984e+06
1.44637e+06
1.35661e+06
1.35286e+06
1.20599e+06
1.32927e+06
1.21534e+06
1.42465e+06
1.41267e+06
1.63611e+06
1.65015e+06
1.21896e+06
1.32018e+06
1.20748e+06
1.42887e+06
1.41445e+06
1.63808e+06
1.65542e+06
1.42156e+06
1.33679e+06
1.35266e+06
1.59274e+06
1.67159e+06
1.71944e+06
1.55592e+06
265584
333752
2.01218e+06
274601
1.99776e+06
256388
1.94191e+06
1.27242e+06
1.29668e+06
1.31909e+06
1.45551e+06
1.46345e+06
1.34431e+06
1.32906e+06
1.19665e+06
1.33977e+06
1.29257e+06
1.40336e+06
1.35001e+06
1.47493e+06
1.54989e+06
1.25662e+06
1.35415e+06
1.23448e+06
1.45023e+06
1.48418e+06
1.68559e+06
1.73485e+06
2.05698e+06
2.00803e+06
2.09165e+06
289785
2.20185e+06
257876
2.24294e+06
1.29787e+06
1.41078e+06
1.26074e+06
1.31005e+06
1.42719e+06
1.45923e+06
1.62122e+06
1.83333e+06
282659
2.06545e+06
1.07364e+06
253344
873946
259445
1.45382e+06
1.42765e+06
1.37579e+06
1.65272e+06
1.91121e+06
1.79166e+06
1.76692e+06
1.32546e+06
1.36378e+06
1.34379e+06
1.46258e+06
1.46897e+06
1.29971e+06
1.24482e+06
1.42876e+06
1.28673e+06
1.32718e+06
1.60599e+06
1.53414e+06
1.80474e+06
1.89439e+06
2.13591e+06
1.79749e+06
1.21635e+06
271472
2.14189e+06
255581
2.0316e+06
1.52449e+06
1.34954e+06
1.37856e+06
1.59689e+06
1.78955e+06
1.84595e+06
1.55414e+06
867682
253982
253342
422009
2.12113e+06
276948
2.15763e+06
1.5162e+06
1.60707e+06
1.65156e+06
1.81946e+06
1.86954e+06
2.01102e+06
1.96835e+06
1.46882e+06
264309
1.95119e+06
253343
858373
254823
1.8585e+06
1.69453e+06
2.01926e+06
1.73959e+06
1.83997e+06
2.03423e+06
2.05557e+06
1.79497e+06
1.48424e+06
1.86873e+06
1.51964e+06
1.70853e+06
2.04735e+06
2.08808e+06
1.65895e+06
1.38088e+06
1.45278e+06
1.68338e+06
1.70409e+06
1.82689e+06
1.99358e+06
2.09205e+06
267706
253248
257810
255198
441692
253480
253249
253283
1.0994e+06
257112
253249
255353
701537
260226
573817
253452
263041
254152
257540
253247
253247
270896
253248
258985
649067
270397
259511
253248
1.43878e+06
1.42934e+06
1.51003e+06
1.60017e+06
1.73014e+06
1.7058e+06
2.00384e+06
1.68646e+06
2.10063e+06
1.63523e+06
2.23254e+06
2.08152e+06
2.11668e+06
2.22612e+06
257617
820457
284285
254985
280528
253247
253262
552315
253257
263623
253821
270688
253246
253681
253247
253573
254879
618901
364984
254220
257993
1.32075e+06
1.29083e+06
1.31846e+06
1.22881e+06
973498
1.22029e+06
992683
1.9153e+06
2.04804e+06
1.80632e+06
1.904e+06
2.03169e+06
2.06174e+06
2.00394e+06
1.28948e+06
1.3178e+06
1.31729e+06
1.22702e+06
966953
1.21537e+06
990215
1.58e+06
2.06261e+06
1.59472e+06
2.03815e+06
2.23156e+06
2.04823e+06
2.23594e+06
1.60221e+06
2.05445e+06
1.58278e+06
2.04146e+06
2.2359e+06
2.23768e+06
2.05658e+06
1.57203e+06
1.47306e+06
1.41155e+06
1.65709e+06
2.07562e+06
1.93542e+06
1.77605e+06
1.95122e+06
1.67125e+06
1.56979e+06
1.787e+06
2.19385e+06
2.138e+06
1.92957e+06
1.56464e+06
1.8503e+06
1.72133e+06
2.04353e+06
1.93688e+06
2.06121e+06
2.12999e+06
1.49207e+06
1.36916e+06
1.43009e+06
1.34726e+06
1.35283e+06
1.15287e+06
1.00012e+06
1.85677e+06
256306
316309
408703
1.87643e+06
253264
257346
1.79789e+06
2.07129e+06
1.78471e+06
2.04194e+06
2.07573e+06
2.04808e+06
2.08543e+06
1.5525e+06
1.9919e+06
1.82714e+06
2.08044e+06
1.95863e+06
2.17001e+06
2.20114e+06
1.76539e+06
253260
256539
254073
1.52126e+06
253249
283166
1.9433e+06
2.00059e+06
2.0501e+06
2.00164e+06
2.03478e+06
2.05912e+06
1.90105e+06
1.31895e+06
1.23808e+06
1.31954e+06
918885
1.19013e+06
1.14748e+06
840628
1.80184e+06
2.07404e+06
1.7864e+06
2.04431e+06
2.08222e+06
2.0885e+06
2.05408e+06
1.82792e+06
2.08769e+06
1.87087e+06
2.06543e+06
2.0714e+06
2.09773e+06
2.03441e+06
2.2645e+06
1.0035e+06
2.37297e+06
295880
928339
268324
253248
253620
376744
253818
386292
253280
254216
253247
1.40863e+06
964133
1.41475e+06
1.13386e+06
548579
1.11853e+06
569046
959669
1.40008e+06
1.41139e+06
1.13118e+06
542746
566581
1.11121e+06
2.22774e+06
2.18397e+06
1.75898e+06
2.15824e+06
2.18336e+06
2.19743e+06
2.21273e+06
1.78181e+06
2.02304e+06
1.83598e+06
2.10921e+06
2.11332e+06
2.11697e+06
2.08253e+06
1.40443e+06
2.00546e+06
1.66706e+06
2.05474e+06
1.63621e+06
1.93799e+06
2.36424e+06
260585
2.10538e+06
2.28928e+06
254368
1.48579e+06
253248
266819
738840
1.86106e+06
255138
253818
1.40764e+06
253247
264310
253272
253397
274675
253998
253246
253251
253246
1.37497e+06
777318
1.33184e+06
497242
1.06821e+06
997247
436179
1.99763e+06
2.10892e+06
1.9333e+06
1.94054e+06
2.07018e+06
2.02933e+06
2.07696e+06
2.08569e+06
1.99667e+06
1.92884e+06
2.12702e+06
1.89296e+06
2.14965e+06
1.98014e+06
1.60955e+06
1.93575e+06
1.67379e+06
2.04168e+06
1.6737e+06
1.93564e+06
2.29053e+06
1.48306e+06
2.05637e+06
1.65825e+06
2.10943e+06
1.70011e+06
1.97592e+06
2.31496e+06
1.95118e+06
1.64674e+06
1.60147e+06
1.91809e+06
1.97637e+06
2.22978e+06
2.20657e+06
1.74455e+06
2.01309e+06
2.06493e+06
2.08788e+06
2.1298e+06
2.22892e+06
2.21553e+06
1.595e+06
2.16265e+06
1.84066e+06
2.2325e+06
1.9948e+06
2.25543e+06
2.29929e+06
254926
686408
254572
591798
1.90518e+06
254674
317542
1.19232e+06
1.29181e+06
1.31342e+06
1.07798e+06
595536
971423
730791
1.97596e+06
2.14969e+06
2.09989e+06
2.172e+06
2.17875e+06
2.18769e+06
1.92256e+06
1.50139e+06
1.13154e+06
1.27575e+06
966006
1.20794e+06
778456
528963
2.26045e+06
2.27226e+06
2.09204e+06
2.12981e+06
2.22409e+06
2.22725e+06
2.03778e+06
2.02183e+06
1.99982e+06
2.02048e+06
1.80967e+06
1.82315e+06
1.83447e+06
1.79506e+06
2.02848e+06
2.00313e+06
2.024e+06
1.81524e+06
1.83282e+06
1.80437e+06
1.84022e+06
291533
253475
1.11979e+06
253246
258670
253276
548356
253269
254000
253245
259319
1.74048e+06
253265
444021
2.14136e+06
2.04839e+06
2.15791e+06
2.23087e+06
2.14993e+06
2.15708e+06
2.00758e+06
502477
253654
1.32312e+06
253245
254170
253247
268277
273183
253250
253345
253246
253456
255150
253246
656306
1.15568e+06
1.2624e+06
891747
317476
371993
750875
2.07103e+06
1.8658e+06
2.09308e+06
2.0776e+06
1.67171e+06
1.61306e+06
2.07584e+06
2.03446e+06
2.08013e+06
1.91332e+06
2.12513e+06
1.9779e+06
2.07765e+06
2.12116e+06
2.06464e+06
1.89451e+06
2.1155e+06
1.76137e+06
2.15445e+06
2.12009e+06
1.56028e+06
2.21824e+06
2.03133e+06
2.04141e+06
2.05936e+06
2.07315e+06
1.5465e+06
1.51864e+06
2.22175e+06
2.02754e+06
2.03963e+06
2.05781e+06
2.07269e+06
1.54185e+06
1.50686e+06
1.87311e+06
2.24145e+06
2.17133e+06
2.19754e+06
2.13208e+06
2.29025e+06
2.04179e+06
1.69043e+06
2.35446e+06
1.94307e+06
2.38116e+06
2.13635e+06
2.33e+06
2.33122e+06
2.02919e+06
2.01459e+06
2.02866e+06
1.80243e+06
1.76892e+06
1.70437e+06
1.74616e+06
1.71066e+06
1.83645e+06
2.20166e+06
2.1844e+06
2.06505e+06
2.24334e+06
2.23724e+06
253245
253246
253245
253245
253245
253249
253245
253245
253249
875242
254382
253310
254111
253252
253245
253252
254686
254385
273144
253312
254371
253249
253245
253245
253245
253245
253245
253245
253245
253245
253245
253245
253245
253245
253245
253245
253245
253245
253245
253245
253245
253245
253245
253245
253245
253245
253245
253245
253245
253245
253245
253245
253245
253245
253245
253245
253245
253245
253245
253245
253245
253245
253245
253245
253245
253245
253245
253245
253245
253250
253245
253246
253245
253245
253245
253245
253245
253245
253245
253245
253245
253245
253245
253245
253245
253245
253245
253245
262667
253245
253245
253245
253245
253245
253245
253245
253245
253245
253245
253245
253245
253245
253245
253245
253245
253245
253245
253245
253245
253245
253245
253245
253245
253245
253245
253245
253245
253245
253245
253245
253245
253246
253245
253245
253245
253245
253245
253245
253245
253245
253245
253245
253245
253245
253245
253245
253245
253245
253245
253245
253245
253245
253245
253245
253245
253245
253245
253245
253245
253245
253245
253245
253245
253245
253245
253245
253245
253245
253245
253245
253245
253245
253245
253245
253245
253245
253259
253246
253411
253497
253343
255177
253258
253245
253245
253245
253245
253245
253251
253246
253245
253245
253245
253245
253245
253245
253245
253245
253245
253245
253245
253245
253245
253245
253245
253245
253245
253245
253245
253245
253245
253245
253245
253245
253245
253245
253245
253245
253245
253245
253245
253245
253245
253245
253245
253245
253245
253245
253245
253245
253245
253245
253245
253245
253245
253245
253245
253245
253245
253245
253245
253245
253245
253245
253245
253245
253245
253245
253245
253245
253245
253245
253245
253245
253245
253245
253245
253245
253245
253245
253245
253245
253245
253245
253245
253245
253245
253245
253245
253245
253245
253245
253245
253245
253245
253245
253245
253245
253245
253245
253245
253245
253245
253245
253245
253245
253245
253245
253245
253245
253245
253245
253245
253245
253245
253245
253245
253245
253245
253245
253245
253245
253245
253245
253245
253245
253245
253245
253245
253245
253245
253245
253245
253245
253245
253245
253245
253245
253245
253245
253245
253245
253245
253245
253245
253245
253245
253245
253245
253245
253245
253245
253245
253245
253245
253245
253245
253245
253245
253245
253245
253245
253245
253245
253245
253245
253245
253245
253245
253245
253245
253245
253245
253245
253245
253245
253245
253245
253245
253245
253245
253245
253245
253245
253245
253245
253245
253245
253245
253245
253245
253245
253245
253245
253245
253245
253245
253245
253245
253245
253245
253245
253245
253245
253245
253245
253245
253245
253245
253245
253245
253245
253245
253245
253245
253245
253245
253245
253245
253245
253245
253245
253245
253245
253245
253245
253245
253245
253245
253245
253245
253245
253245
253245
253245
253245
253245
253245
253245
253245
253245
253245
253245
253245
253245
253245
253245
253245
253245
253245
253245
253245
253245
253245
253245
253245
253245
253245
253245
253245
253245
253245
253245
253245
253245
253245
253245
253245
253245
253245
253245
253245
253245
253245
253245
253245
253245
253245
253245
253245
253245
253245
253245
253245
253245
253245
253245
253245
253245
253245
253245
253245
253245
253245
253245
253245
253245
253245
253245
253245
253245
253245
253245
253245
253245
253245
253245
253245
253245
253245
253245
253245
253245
253245
253245
253245
253245
253245
253245
253245
253245
253245
253245
253245
253245
253245
253245
253245
253245
253245
253245
253245
253245
253245
253245
253245
253245
253245
253245
253245
253245
253245
253245
253245
253245
253245
253245
253245
253245
253245
253245
253245
253245
253245
253245
253245
253245
253245
253245
253245
253245
253245
253245
253245
253245
253245
253245
253245
253245
253245
253245
253245
253245
253245
253245
253245
253245
253245
253245
253245
253245
253245
253245
253245
253245
253245
253245
253245
253245
253245
253245
253245
253245
253245
253245
253245
253245
253245
253245
253245
253245
253245
253245
253245
253245
253245
253245
253245
253245
253245
253245
253245
253245
253245
253245
253245
253245
253245
253245
253245
253245
253245
253245
253245
253245
253245
253245
253245
253245
253245
253245
253245
253245
253245
253245
253245
253245
253245
253245
253245
253245
253245
253245
253245
253245
253245
253245
253245
253245
253245
253245
253245
253245
253245
253245
253245
253245
253245
253245
253245
253245
253245
253245
253245
253245
253245
253245
253245
253245
253245
253245
253245
253245
253245
253245
253245
253245
253245
253245
253245
253245
253245
253245
253245
253245
253245
253245
253245
253245
253245
253245
253245
253245
253245
253245
253245
253245
253245
253245
253245
253245
253245
253245
253245
253245
253245
253245
253245
253245
253245
253245
253245
253245
253245
253245
253245
253245
253245
253245
253245
253245
253245
253245
253245
253245
253245
253245
253245
253245
253245
253245
253245
253245
253245
253245
253245
253245
253245
253245
253245
253245
253245
253245
253245
253245
253245
253245
253245
253245
253245
253245
253245
253245
253245
253245
253245
253245
253245
253245
253245
253245
253245
253245
253245
253245
253245
253245
253245
253245
253245
253245
253245
253245
253245
253245
253245
253245
253245
253245
253245
253245
253245
253245
253245
253245
253245
253245
253245
253245
253245
253245
253245
253245
253245
253245
253245
253245
253245
253245
253245
253245
253245
253245
253245
253245
253245
253245
253245
253245
253245
253245
253245
253245
253245
253245
253245
253245
253245
253245
253245
253245
253245
253245
253245
253245
253245
253245
253245
253245
253245
253245
253245
253245
253245
253245
253245
253245
253245
253245
253245
253245
253245
253245
253245
253245
253245
253245
253245
253245
253245
253245
253245
253245
253245
253245
253245
253245
253245
253245
253245
253245
253245
253245
253245
253245
253245
253245
253245
253245
253245
253245
253245
253245
253245
253245
253245
253245
253245
253245
253245
253245
253245
253245
253245
253245
253245
253245
253245
253245
253245
253245
253245
253245
253245
253245
253245
253245
253245
253245
253245
253245
253245
253245
253245
253245
253245
253245
253245
253245
253245
253245
253245
253245
253245
253245
253245
253245
253245
253245
253245
253245
253245
253245
253245
253245
253245
253245
253245
253245
253245
253245
253245
253245
253245
253245
253245
253245
253245
253245
253245
253245
253245
253245
253245
253245
253245
253245
253245
253245
253245
253245
253245
253245
253245
253245
253245
253245
253245
253245
253245
253245
253245
253245
253245
253245
253245
253245
253245
253245
253245
253245
253245
253245
253245
253245
253245
253245
253245
253245
253245
253245
253245
253245
253245
253245
253245
253245
253245
253245
253245
253245
253245
253245
253245
253245
253245
253245
253245
253245
253245
253245
253245
253245
253245
253245
253245
253245
253245
253245
253245
253245
253245
253245
253245
253245
253245
253245
253245
253245
253245
253245
253245
253245
253245
253245
253245
253245
253245
253245
253245
253245
253245
253245
253245
253245
253245
253245
253245
253245
253245
253245
253245
253245
253245
253245
253245
253245
253245
253245
253245
253245
253245
253245
253245
253245
253245
253245
253245
253245
253245
253245
253245
253245
253245
253245
253245
253245
253245
253245
253245
253245
253245
253245
253245
253245
253245
253245
253245
253245
253245
253245
253245
253245
253245
253245
253245
253245
253245
253245
253245
253245
253245
253245
253245
253245
253245
253245
253245
253245
253245
253245
253245
253245
253245
253245
253245
253245
253245
253245
253245
253245
253245
253245
253245
253245
253245
253245
253245
253245
253245
253245
253245
253245
253245
253245
253245
253245
253245
253245
253245
253245
253245
253245
253245
253245
253245
253245
253245
253245
253245
253245
253245
253245
253245
253245
253245
253245
253245
253245
253245
253245
253245
253245
253245
253245
253245
253245
253245
253245
253245
253245
253245
253245
253245
253245
253245
253245
253245
253245
253245
253245
253245
253245
253245
253245
253245
253245
253245
253245
253245
253245
253245
253245
253245
253245
253245
253245
253245
253245
253245
253245
253245
253245
253245
253245
253245
253245
253245
253245
253245
253245
253245
253245
253245
253245
253245
253245
253245
253245
253245
253245
253245
253245
253245
253245
253245
253245
253245
253245
253245
253245
253245
253245
253245
253245
253245
253245
253245
253245
253245
253245
253245
253245
253245
253245
253245
253245
253245
253245
253245
253245
253245
253245
253245
253245
253245
253245
253245
253245
253245
253245
253245
253245
253245
253245
253245
253245
253245
253245
253245
253245
253245
253245
253245
253245
253245
253245
253245
253245
253245
253245
253245
253245
253245
253245
253245
253245
253245
253245
253245
253245
253245
253245
253245
253245
253245
253245
253245
253245
253245
253245
253245
253245
253245
253245
253245
253245
253245
253245
253245
253245
253245
253245
253245
253245
253245
253245
253245
253245
253245
253245
253245
253245
253245
253245
253245
253245
253245
253245
253245
253245
253245
253245
253245
253245
253245
253245
253245
253245
253245
253245
253245
253245
253245
253245
253245
253245
253245
253245
253245
253245
253245
253245
253245
253245
253245
253245
253245
253245
253245
253245
253245
253245
253245
253245
253245
253245
253245
253245
253245
253245
253245
253245
253245
253245
253245
253245
253245
253245
253245
253245
253245
253245
253245
253245
253245
253245
253245
253245
253245
253245
253245
253245
253245
253245
253245
253245
253245
253245
253245
253245
253245
253245
253245
253245
253245
253245
253245
253245
253245
253245
253245
253245
253245
253245
253245
253245
253245
253245
253245
253245
253245
253245
253245
253245
253245
253245
253245
253245
253245
253245
253245
253245
253245
253245
253245
253245
253245
253245
253245
253245
253245
253245
253245
253245
253245
253245
253245
253245
253245
253245
253245
253245
253245
253245
253245
253245
253245
253245
253245
253245
253245
253245
253245
253245
253245
253245
253245
253245
253245
253245
253245
253245
253245
253245
253245
253245
253245
253245
253245
253245
253245
253245
253245
253245
253245
253245
253245
253245
253245
253245
253245
253245
253245
253245
253245
253245
253245
253245
253245
253245
253245
253245
253245
253245
253245
253245
253245
253245
253245
253245
253245
253245
253245
253245
253245
253245
253245
253245
253245
253245
253245
253245
253245
253245
253245
253245
253245
253245
253245
253245
253245
253245
253245
253245
253245
253245
253245
253245
253245
253245
253245
253245
253245
253245
253245
253245
253245
253245
253245
253245
253245
253245
253245
253245
253245
253245
253245
253245
253245
253245
253245
253245
253245
253245
253245
253245
253245
253245
253245
253245
253245
253245
253245
253245
253245
253245
253245
253245
253245
253245
253245
253245
253245
253245
253245
253245
253245
253245
253245
253245
253245
253245
253245
253245
253245
253245
253245
253245
253245
253245
253245
253245
253245
253245
253245
253245
253245
253245
253245
253245
253245
253245
253245
253245
253245
253245
253245
253245
253245
253245
253245
253245
253245
253245
253245
253245
253245
253245
253245
253245
253245
253245
253245
253245
253245
253245
253245
253245
253245
253245
253245
253245
253245
253245
253245
253245
253245
253245
253245
253245
253245
253245
253245
253245
253245
253245
253245
253245
253245
253245
253245
253245
253245
253245
253245
253245
253245
253245
253245
253245
253245
253245
253245
253245
253245
253245
253245
253245
253245
253245
253245
253245
253245
253245
253245
253245
253245
253245
253245
253245
253245
253245
253245
253245
253245
253245
253245
253245
253245
253245
253245
253245
253245
253245
253245
253245
253245
253245
253245
253245
253245
253245
253245
253245
253245
253245
253245
253245
253245
253245
253245
253245
253245
253245
253245
253245
253245
253245
253245
253245
253245
253245
253245
253245
253245
253245
253245
253245
253245
253245
253245
253245
253245
253245
253245
253245
253245
253245
253245
253245
253245
253245
253245
253245
253245
253245
253245
253245
253245
253245
253245
253245
253245
253245
253245
253245
253245
253245
253245
253245
253245
253245
253245
253245
253245
253245
253245
253245
253245