/*--------------------------------*- C++ -*----------------------------------*\
  =========                 |
  \\      /  F ield         | OpenFOAM: The Open Source CFD Toolbox
   \\    /   O peration     | Website:  https://openfoam.org
    \\  /    A nd           | Version:  9
     \\/     M anipulation  |
\*---------------------------------------------------------------------------*/
FoamFile
{
    format      ascii;
    class       volScalarField;
    location    "0.0031";
    object      rhoE;
}
// * * * * * * * * * * * * * * * * * * * * * * * * * * * * * * * * * * * * * //

dimensions      [1 -1 -2 0 0 0 0];

internalField   nonuniform List<scalar> 
26755
(
246271
141163
252944
151147
313060
204129
191545
248034
197428
146061
204422
281914
247125
182781
273499
88356.9
141757
89598.4
105010
158207
117796
187372
230890
217483
187815
227885
142763
191923
228528
144393
186126
189839
193239
233930
152770
229591
147103
195040
142982
96815.9
91888.7
219051
241625
162131
214021
204107
253296
177148
239451
227508
292435
223994
269784
198125
263705
167911
160115
136273
319240
320702
253540
306396
290774
354628
285116
266394
269358
257185
269155
281461
244875
229896
259154
237560
243324
250986
262378
216329
220721
298396
319411
309593
286809
298654
264301
286112
247834
256247
258410
230896
234357
215167
213201
341847
337272
328941
358999
308748
318356
367444
596451
253263
253249
253245
253245
253619
253246
253245
255357
273247
467501
606884
541794
288019
260646
360901
286221
257483
259426
388246
308774
346129
301620
347340
304885
337614
360501
393191
908489
285856
243992
252773
296654
270108
278368
284377
288746
261348
263383
288973
264102
284252
296457
309430
340321
294467
348601
310313
341527
284489
319545
264056
276921
312321
302124
289311
330616
291018
466579
540458
508786
471094
434780
436669
724757
425725
453754
554993
401668
544326
398327
378723
316746
325786
351555
298605
366895
397408
495011
397373
627166
376376
445652
458241
365183
754716
253643
253246
253257
257848
402998
353438
253919
253246
253246
253252
253284
253248
253286
253245
253245
253245
253245
253245
253245
253245
253245
253245
253245
253245
253245
253245
253245
253245
253245
253245
253245
253245
253245
253245
253245
253245
253245
253245
253245
253245
253245
253245
403797
995023
253342
253245
253252
256101
361110
292000
253521
253245
253245
253250
253261
253246
253252
253245
253245
253245
253245
253245
253245
253245
253245
253245
253245
253245
253245
253245
253245
253245
253245
253245
253245
253245
253245
253245
253245
253245
253245
253245
253245
253245
253245
253245
637124
384428
253246
253247
254004
278770
255603
253259
253245
253245
253247
253247
253245
253246
253245
253245
253245
253245
253245
253245
253245
253245
253245
253245
253245
253245
253245
253245
253245
253245
253245
253245
253245
253245
253245
253245
253245
253245
253245
253245
253245
253245
253245
874924
253570
253539
253254
253302
254481
253259
253264
253248
253245
253245
253245
253245
253245
253245
253245
253245
253245
253245
253245
253245
253245
253245
253245
253245
253245
253245
253245
253245
253245
253245
253245
253245
253245
253245
253245
253245
253245
253245
253245
253245
253245
253245
440835
698182
601508
254462
253246
590217
420239
259873
253314
253247
253245
260436
253344
253246
253245
253245
253245
253246
253245
253245
253245
253245
253245
253245
253245
253245
253245
253245
253245
253245
253245
253245
253245
253245
253245
253245
253245
253245
253245
253245
253245
253245
253245
253245
253245
253245
253245
474876
877371
264837
253258
253246
253245
253993
468965
254218
253246
253245
253245
253322
253275
253245
253245
253245
253245
253246
253245
253245
253245
253245
253245
253245
253245
253245
253245
253245
253245
253245
253245
253245
253245
253245
253245
253245
253245
253245
253245
253245
253245
253245
253245
253245
253245
253245
253245
253865
253610
253247
253245
253245
253245
253340
253601
253246
253245
253245
253245
253246
253245
253245
253245
253245
253245
253245
253245
253245
253245
253245
253245
253245
253245
253245
253245
253245
253245
253245
253245
253245
253245
253245
253245
253245
253245
253245
253245
253245
253245
253245
253245
253245
253245
253245
253245
253246
253245
253245
253245
253245
253245
253245
253245
253245
253245
253245
253245
253245
253245
253245
253245
253245
253245
253245
253245
253245
253245
253245
253245
253245
253245
253245
253245
253245
253245
253245
253245
253245
253245
253245
253245
253245
253245
253245
253245
253245
253245
253245
253245
253245
253245
253245
253245
253245
253245
253245
253245
253245
253245
253245
253245
253245
253245
253245
253245
253245
253245
253245
253245
253245
253245
253245
253245
253245
253245
253245
253245
253245
253245
253245
253245
253245
253245
253245
253245
253245
253245
253245
253245
253245
253245
253245
253245
253245
253245
253245
253245
253245
253245
253245
253245
253245
253245
253245
253245
253245
253245
253245
253245
253245
253245
253245
253245
253245
253245
253245
253245
253245
253245
253245
253245
253245
253245
253245
253245
253245
253245
253245
253245
253245
253245
253245
253245
253245
253245
253245
253245
253245
253245
253245
253245
253245
253245
253245
253245
253245
253245
253245
253245
253528
253246
253407
253247
253245
253246
253245
253246
253254
255625
253252
255115
320317
266403
463995
326024
263999
458996
507796
524620
678754
376242
525159
518823
643974
253252
253917
253253
253553
253251
253808
253252
253246
253246
253245
253246
253246
253246
253245
254119
253247
253262
253255
253890
253247
253259
360280
253273
253556
256707
341493
253268
253456
253354
253246
253245
253245
253246
253245
253245
253250
254833
253247
253953
338940
262631
454335
365558
257881
405659
692408
512756
615352
533493
873541
452451
424479
253249
253534
253249
253247
253291
253247
253246
253245
253245
253245
253245
253245
253245
253767
253246
253255
253249
253441
253246
253251
329409
253266
253406
254406
284162
253257
253295
253246
253413
253245
253245
253330
253250
253246
253721
253247
253332
494978
256481
373845
580875
253909
278186
961121
410822
347603
765532
1.03958e+06
283797
257504
253248
253264
253246
253296
253281
253252
253245
253245
253245
253260
253248
253247
253246
253364
253245
253248
253247
253261
253245
253246
272432
253256
253275
253372
256120
253253
253253
254516
380549
253918
253295
368616
285383
253261
253287
266688
253780
647010
253563
264511
512261
253459
253744
876731
265761
254333
695616
264163
253591
253253
255794
253609
253789
372115
261800
266191
253263
253262
253251
320908
259266
253573
253261
253250
253246
253245
255285
253314
253253
253247
254502
253247
253251
253268
253291
253246
253246
537625
489380
374369
572017
735236
670398
379775
748135
307420
255282
907423
794963
287526
253669
309398
253984
253384
379661
254766
253345
253248
741017
1.31618e+06
1.36306e+06
1.02018e+06
443592
581256
977787
265607
253301
456643
957827
313768
253325
253299
253245
777492
1.01563e+06
253291
253248
253245
253245
453811
255061
253245
253245
253245
253245
253249
253245
253245
253245
253245
253245
253245
253245
253245
253245
253245
253245
210169
214002
522575
335549
511008
541686
430628
529360
222283
236042
700743
382404
566783
842562
427119
668819
366359
777734
431635
914009
491891
773793
745931
1.20169e+06
533687
836633
866169
562705
1.12314e+06
757315
1.33284e+06
883066
1.23498e+06
1.23591e+06
1.5082e+06
1.04219e+06
372631
353379
395342
402397
466376
483755
661802
469530
678635
871656
575260
754652
742504
942648
911653
1.04633e+06
1.23745e+06
839007
643129
1.19087e+06
1.07194e+06
786899
269003
487759
383039
511911
570961
480264
362029
390665
570137
448256
512594
498750
747373
576064
629502
652078
621820
583642
688677
475182
507795
430115
281277
318960
282559
331940
253272
253487
253281
253506
253467
253279
253274
253249
253246
253251
253246
253246
253250
253249
253267
253462
253379
253268
253427
253274
253262
253248
253247
253246
253249
253246
253250
253248
253245
253245
253245
253245
253245
253245
253245
253245
253247
253245
253246
253247
253245
253245
253245
253245
253245
253245
253245
253245
253245
253245
253246
253246
253245
253246
253245
253245
253327
253257
253306
253254
253257
253303
253331
253802
256662
253632
255529
256540
253615
253826
253319
253253
253254
253290
253256
253297
253309
253758
255353
256033
253539
256326
253583
253698
322134
348108
351479
439826
449334
455063
436273
313453
270062
310539
265939
269580
309204
313999
357282
331854
367420
447749
478540
464504
459454
312680
265120
267839
303637
268841
306928
311504
253253
253334
253261
253257
253256
253246
253245
253248
253246
253247
253245
253247
253246
253246
253245
253246
253245
253246
253246
253245
253245
253245
253245
253245
253245
253245
253245
253246
253245
253246
253245
253246
253245
253245
253245
253245
253245
253245
253245
253245
253245
253245
253245
253245
253245
253245
253245
253286
253252
253281
253249
253298
253250
253273
253552
255675
253489
254530
253628
255276
253437
253275
253248
253248
253259
253249
253265
253266
253479
254228
254456
253344
254859
253387
253412
380914
349139
399599
491463
496375
474515
517140
307342
266539
299171
261080
309836
264925
293439
425022
457561
387868
506120
559346
538436
517916
303549
259453
261084
279333
263060
286662
298113
253252
253245
253246
253248
253246
253248
253251
253299
253266
253473
253558
253273
253286
253647
253246
253245
253245
253246
253245
253246
253246
253245
253245
253245
253245
253245
253245
253245
253251
253255
253360
253282
253258
253250
253299
253247
253246
253253
253260
253246
253247
253267
253253
253247
253254
253246
253258
253246
253250
253313
254094
253310
253541
253356
253795
253284
253249
253246
253248
253247
253246
253248
253248
253283
253417
253416
253256
253567
253266
253264
537875
415958
448660
526591
579006
525869
590844
281692
259125
272167
255339
290653
257325
265865
619656
482535
511265
517025
572230
590261
493602
272835
254484
254702
257494
255823
260928
265237
267630
254854
255424
261622
255864
262760
266406
302107
298160
333332
383147
293060
313231
324914
256848
254167
253565
258178
253724
259317
255840
255138
253331
253379
253724
253463
254102
254442
274535
283775
336988
345476
283078
271718
335234
267049
257491
310098
314642
260746
262816
327389
253354
253275
253251
253416
253256
253571
253299
253286
253326
253252
253267
253257
253291
253265
254504
254857
286107
257970
256628
253787
267489
253665
253311
254950
254804
253410
253420
258211
644192
527755
530344
400867
529279
453734
459943
256172
253971
255357
253382
259621
253569
254175
596193
441786
493591
342512
303055
373556
294990
254468
253312
253954
253435
253419
253620
253890
618056
434103
499983
637744
614935
574709
680394
699664
639049
592413
563821
395594
499635
434888
376044
226774
250302
452659
342002
584985
667412
355062
637947
400226
724203
520277
934399
1.10155e+06
560245
1.03015e+06
620678
1.15024e+06
816605
211722
288794
292629
177664
261664
265972
175446
295950
217770
302121
179958
276344
269481
184582
309440
228228
318863
196553
284594
190015
294802
331112
346674
246403
204100
321664
307141
212163
392651
260350
279259
229514
338995
220193
359530
268726
691711
731520
458070
647823
411906
297356
489227
306098
346479
243056
416201
384040
263584
643279
459740
398776
339175
460736
294403
525662
716685
594390
531453
401536
756933
623771
506798
376807
265161
278739
313336
227053
213751
336524
415778
314613
565490
279386
504077
463365
431417
293756
311302
397015
243876
265488
364241
511861
334643
366901
433861
319736
291188
474459
654343
764438
504125
929168
448123
822110
731523
664326
410961
475171
581272
353285
393390
522585
819071
549419
612220
651382
493884
439798
736199
806251
649972
658571
934988
560929
642576
828788
372682
824806
510316
957821
331315
926166
573203
414513
1.03734e+06
1.09737e+06
747998
999339
644630
493373
409645
321323
340014
397125
361531
443893
405193
253259
256551
367668
253265
253273
253257
254104
253765
258441
372076
391921
312292
354267
338928
436393
536971
253312
253299
253250
253282
253261
253250
253275
253252
253248
253258
253256
253249
253267
253248
253270
253256
253342
253373
254277
253783
253405
253321
253911
273245
259114
256715
280584
257274
278848
272689
307253
335260
305097
379764
309573
326169
315102
331902
252971
241906
293611
193123
202584
276663
351487
317031
290834
359818
305222
336123
375776
253248
253546
293903
253316
253248
253248
253246
496231
314189
425298
524687
293105
623469
256273
272968
254135
253275
538101
267780
254156
253262
253454
253256
253249
256772
253285
253251
253247
253255
253246
253245
253254
253246
253245
253245
618591
836106
747596
916564
546691
653952
350206
664831
315673
889991
685851
297425
276569
253431
921751
253312
540413
262782
253326
253279
253247
271306
253396
253247
253262
253247
253246
253245
428556
488190
397442
463052
490260
396159
427499
430845
461455
500170
390937
494185
394108
434297
442190
507188
385551
445607
438418
514244
376505
443659
429796
520009
343690
519736
362575
440890
412696
511719
321505
337738
431260
491354
299508
384641
303205
404220
268180
456368
281062
349015
281444
344023
260643
257865
311719
294505
256488
264584
254884
258371
253687
268688
254493
257576
594304
486445
480880
562324
515990
558307
560782
611558
520592
443775
439885
531936
604033
524697
435310
469788
271771
337671
385546
547772
279563
328096
272210
259344
255614
309017
276848
261090
410003
375778
418022
264742
269924
275192
258057
255905
260287
253553
253983
256309
261028
253488
254279
254818
253455
253280
255488
253662
253335
253253
256153
593091
1.54035e+06
1.0218e+06
854383
254103
467850
695775
936373
538464
540107
628896
666154
642721
499122
828997
647970
959324
1.00514e+06
1.07071e+06
1.04312e+06
253659
934327
1.19556e+06
1.22501e+06
834830
334549
414307
254612
253247
1.11005e+06
264416
257381
253284
1.12331e+06
1.17003e+06
1.02441e+06
1.39025e+06
775783
1.26307e+06
1.29061e+06
762410
748357
700171
1.05025e+06
986161
784224
1.09261e+06
457110
460005
408502
479502
449805
542489
510398
476038
410641
435650
370437
408334
374642
339980
422496
253650
253424
377705
372202
253513
253347
342470
253445
253313
295706
271041
253301
253257
261577
253276
253251
256428
253578
253251
253247
253330
253247
253246
253275
253247
253246
253245
253245
253245
253245
253245
253245
253245
253245
253935
253245
253247
253245
253245
253245
253245
253245
253245
253245
253677
253379
253272
253246
253246
258450
253245
253245
253245
253246
253245
253245
253245
253245
253245
253245
253245
253245
253245
253245
253245
253245
253245
253245
253245
253245
253245
253245
796453
564069
753129
1.04872e+06
471658
576524
737865
389979
347310
866828
558587
1.38451e+06
1.66783e+06
492153
632680
1.35655e+06
420823
395706
958015
1.09732e+06
652880
1.57102e+06
2.0611e+06
607088
839557
1.43317e+06
555315
670946
1.52798e+06
878462
676646
992102
2.00298e+06
270653
555014
834556
1.24111e+06
565809
561068
873414
1.05076e+06
1.77534e+06
1.47206e+06
253249
528217
774635
1.36575e+06
2.18544e+06
253346
363414
878367
256820
253254
253245
742420
1.36106e+06
253307
253336
253245
256503
253246
253245
253245
1.0468e+06
529110
253245
253245
253245
256409
253246
253245
253245
253245
395611
411214
543957
408105
421659
475062
573423
427711
447897
382861
398791
374699
408478
397628
448402
421555
494764
409897
483933
412660
506444
502404
446206
550067
536792
521748
578023
520899
726280
782251
571747
691136
766750
1.03036e+06
791010
875370
525795
520446
724963
553278
780462
504225
500669
457740
509854
404860
568872
745364
561820
803551
702434
1.01538e+06
648751
998336
1.14304e+06
881686
1.08933e+06
1.17357e+06
1.69313e+06
1.12017e+06
1.26465e+06
498123
409051
574995
806742
655973
1.00351e+06
1.11353e+06
330640
477926
508607
414613
396251
422404
592999
440370
465436
566774
715069
524556
572058
450363
440691
472490
597750
617665
666324
638844
592585
680512
951388
965262
1.05812e+06
666292
409477
572491
656291
748979
523437
686931
1.17204e+06
650220
856156
1.20315e+06
1.90692e+06
773865
1.01016e+06
2.05283e+06
1.11376e+06
1.35312e+06
2.0164e+06
1.20065e+06
1.29619e+06
1.28131e+06
402483
409050
407119
400779
412141
404130
422583
415458
447242
421535
418564
414690
428021
426334
439563
452933
419341
441690
441369
432746
431937
463035
388302
391653
400581
435811
427449
174188
387527
374733
268619
366173
261455
179133
432810
438676
448850
462084
502463
470643
427606
451840
192398
387421
277576
434509
185102
406654
288951
469100
543652
502563
537423
543366
492706
589354
495174
594111
538040
528779
477735
519078
582727
476542
532080
577458
587532
653576
721672
653138
654138
592251
644496
695944
586000
605702
631570
627610
645447
674051
776245
705310
794020
851343
715574
756343
865728
489779
580448
536942
477341
587289
534317
647466
659047
594128
245517
515570
344165
616287
227042
575292
373929
693590
846793
749889
476339
503578
449331
526699
453463
532491
469507
442139
417055
450014
433092
463360
493025
544461
583018
503977
554156
483789
518034
676054
560645
633659
594662
627940
597962
677051
764684
794416
716637
876323
705576
865763
773231
714298
618438
660987
748054
627272
709261
755180
814914
937736
999582
868076
930371
818196
866926
1.06523e+06
878261
954030
969146
962268
964037
1.05607e+06
1.16794e+06
1.05191e+06
1.13818e+06
1.21272e+06
1.05031e+06
1.14057e+06
1.26164e+06
445476
520550
461673
454423
421489
536328
508848
473101
724946
884942
783173
614276
755282
710651
948024
874069
824364
1.03493e+06
1.22229e+06
1.13693e+06
289384
302771
206796
372205
190009
340645
313402
449519
172104
354128
254133
382304
361232
258305
169405
201178
463578
468396
321109
432872
303126
212489
703009
515871
582072
558110
709611
516895
608669
728164
496612
559170
610293
775776
515079
582694
807171
548999
714368
769814
987520
619661
870017
586889
505583
555755
612745
525248
576672
1.04581e+06
620811
815897
862934
1.4044e+06
768086
1.07396e+06
1.08336e+06
748592
946817
1.11033e+06
1.51208e+06
838326
1.251e+06
843832
558907
749456
966972
1.43987e+06
737067
1.09278e+06
1.87981e+06
842882
1.20639e+06
1.76847e+06
2.07641e+06
1.28132e+06
2.01883e+06
1.74654e+06
1.1109e+06
1.38749e+06
1.93355e+06
1.86656e+06
1.35097e+06
1.66026e+06
454299
455638
460307
477346
474149
477882
500193
487648
538509
551363
500984
509003
573402
531259
721986
539184
627267
613483
840327
557476
750770
1.17699e+06
1.67646e+06
1.25267e+06
581908
253645
1.08316e+06
254773
678417
660538
527913
253246
253245
546189
271261
410479
348937
328938
461120
656031
274736
392709
239992
352344
335623
612494
320748
443024
282744
448865
403064
787205
453006
401317
1.24126e+06
784871
454911
810640
759477
253472
253246
253245
253245
253245
532729
253246
253245
253245
253245
253245
253258
253245
253245
253245
253245
253245
253245
253245
253245
253245
253245
253245
253245
253245
253245
253245
253245
284201
305108
263841
290084
306412
443223
331952
350158
445660
335227
303197
304335
332159
320432
308527
250755
350437
341939
457352
338646
422834
517122
378646
306405
339905
376815
397369
364893
365408
431374
467647
404307
363121
466045
351941
329988
354377
252168
257348
364590
345019
376582
296383
322115
446669
437114
486297
400594
413480
491401
280497
307735
278101
304856
307807
277834
280299
255046
253072
252878
255292
280468
305158
309111
278618
307947
278053
281019
364328
335429
357044
332576
336209
358953
362490
389210
378209
381813
385808
365370
333024
338642
363899
336586
360097
368810
391171
389402
383889
396301
276690
303141
276381
251671
251629
303145
276898
276498
370286
374338
330151
359085
355290
381797
376285
260790
253705
255823
258893
287773
310994
279823
315654
282069
317707
285852
267735
279384
265634
281684
295723
325194
343732
308792
327127
293722
310877
384106
341778
369179
347532
373632
350028
380380
416734
397159
403516
410982
398579
359532
380113
418370
361501
395709
420437
434670
457379
430152
461167
277954
313661
284062
277221
263741
323181
306584
291692
390080
404624
357394
415826
392570
452924
424949
327379
298759
301313
324558
359950
366353
329802
395291
331884
396381
357853
356962
382423
353882
385979
392333
430843
469036
422162
431770
390090
424945
485573
404879
448092
437804
448996
437602
486397
327572
393874
355704
378866
351230
429523
419550
387895
429113
405584
410360
422060
377927
271896
299280
267467
361123
271114
297905
520621
359157
477855
394296
511918
357900
477925
359437
245968
327288
286005
385258
264451
356229
511547
359519
493135
420088
554513
437002
506741
406950
298044
405085
379837
513080
353887
437734
459937
618550
431221
514461
626383
758829
483998
591187
438005
646643
928486
291217
276328
253251
253248
253245
253245
382906
254125
278451
315909
353297
264775
210662
215643
239196
170595
173654
231258
294433
222974
231897
249561
185138
178603
262042
390582
398904
378813
290199
405173
251969
258180
164297
269084
278871
175958
313494
257827
227072
228913
268619
362111
228071
229878
228749
230186
253123
251157
270899
346651
342830
364791
333007
392791
366296
367278
327969
369954
251229
228436
251315
233345
291927
373235
433968
362382
508574
255154
229976
252274
229509
231754
252680
254285
229784
231907
231730
228713
232192
234650
236511
240578
255474
242697
238897
273654
294327
297568
320836
350901
324566
318180
320715
338066
301792
346202
306817
352633
314429
329138
353920
377550
332775
361657
321505
343540
372366
381607
388464
297132
338406
307438
342698
336153
311433
215223
205821
217602
208951
204963
208036
218236
209097
228129
229583
208040
227848
258049
245833
334851
314240
243727
310356
190417
207538
185433
208345
210239
188837
186907
190910
208636
210781
190082
210400
189413
191684
184678
207464
188149
207723
189332
188644
194950
210987
190286
212827
192034
214606
193243
200147
218214
231890
208494
220264
198181
210673
189414
211741
192309
216758
206993
196933
245558
248610
223352
266921
225985
270323
242273
267658
290856
318786
284650
294853
263688
289248
221480
264571
240047
288148
280808
260948
350106
225303
154635
270137
146827
252768
237500
358669
472888
370746
289359
298723
399878
375820
502307
496114
422250
334182
394949
422347
533309
354547
329229
327705
391450
386280
358985
356452
357284
346523
332587
401943
388764
360946
375170
270464
289659
287571
297036
317887
315330
298655
508114
666411
627267
533328
548104
436547
413111
217902
213329
210549
193142
193823
197283
189593
291505
315805
317417
306982
307294
334570
334244
313782
339508
324411
328613
314029
340445
355096
392160
367570
396629
423363
396806
453868
426751
282558
276107
263455
293563
302183
309439
288898
271982
246051
247347
256806
257140
282636
283428
213303
217901
213725
193433
198082
197265
194306
361936
360250
388511
349226
377509
376279
405311
262840
278229
266604
292126
300755
288302
303931
842974
664314
719491
549117
688930
472046
645171
274293
300711
289154
299769
326222
311364
314811
325423
347156
357304
375423
344572
355686
327162
246443
255541
245714
253497
270139
280893
278399
459609
473384
432325
534139
491293
463439
505735
263505
264365
258969
238435
240254
235235
233276
538588
504448
497708
585156
577580
535779
542491
425625
455308
420181
424914
390881
387750
421786
497364
612157
513102
530191
573051
435907
409701
308738
347740
335140
361705
346585
334739
374140
214015
221883
217576
201900
197804
198688
194805
458990
435833
422807
392693
442927
427672
407377
298669
328404
327660
310155
340970
339819
311347
321628
368838
330476
346780
338148
351802
316648
223568
240525
235543
219060
207745
214182
203319
432234
461261
422423
450571
411686
440473
480902
258631
239742
234970
239700
235156
263719
258833
253528
257276
249939
270486
274704
282373
278400
344542
376796
345761
396912
364542
363675
395785
472144
432840
468426
467720
462442
499051
504368
708095
661099
538247
607852
459952
578896
638658
256807
278821
270658
296469
281894
289710
304634
275313
252767
281197
256696
235403
250515
230047
383815
367998
352633
369810
418625
402529
384979
457649
466276
429677
528085
488525
460602
498515
523358
681324
585021
383842
475947
434979
615868
523412
469131
483282
546319
561753
521756
507794
422186
445318
389237
408028
442937
387738
423572
326242
327066
296876
308306
335335
337983
305603
320032
328954
346301
362365
316112
331942
350467
289520
323805
314734
316103
342348
350929
324383
366195
415537
400198
393717
444507
407150
429551
452640
389328
418374
441784
406904
437017
473352
518875
599290
568606
582330
553342
634968
606454
290380
290416
284609
319002
312257
318752
312376
327539
369427
354223
373548
339032
357932
342760
423320
449810
459488
437479
449785
487113
475125
235443
244084
239610
264039
264156
259299
268668
326297
300885
307756
305910
296799
281079
273748
513763
503881
550968
492937
539182
526189
577507
785689
780030
819458
709190
669634
580653
593233
570644
567063
526449
498300
583808
537808
542200
418945
401688
430297
379369
437111
384060
414929
436001
422724
390625
375065
394562
363130
403235
625215
662633
619114
576881
626685
621292
583444
284433
319036
318700
290067
313424
312458
284874
392143
358563
391836
405422
372350
371371
406185
491649
461124
458347
534391
499489
529198
497125
246115
264139
259182
271146
290093
275822
285306
297526
332305
302055
310013
335701
305738
340401
374726
386477
343887
405902
372925
382151
416686
489599
494472
453573
473639
557354
511918
516233
490918
469300
435081
506693
484926
467570
527871
551846
510464
506735
538547
586414
581378
543855
497164
481817
465494
555159
536526
505211
523707
446444
410828
448164
431799
431040
469413
469532
302241
277715
307593
331245
309650
304997
335778
358236
392464
391956
404149
367459
369725
402599
340233
324820
309555
317455
363912
348008
332844
379115
358533
347362
345777
327310
315885
331907
585868
645275
602383
562906
593337
606901
549396
522868
497627
498641
458792
482698
480396
460026
471363
496480
456585
423536
476555
437285
461253
747483
672726
705032
650999
620348
689938
661085
372007
380568
341094
348859
380932
341688
370589
420345
428967
379163
395679
415176
432388
383741
291166
290876
315037
326021
285778
295882
321271
412441
377209
345163
372297
380267
384641
353063
441099
370962
448105
408524
393057
455244
590463
540298
489787
498439
527231
560599
570474
515998
476273
418564
457169
456229
438985
478780
497643
506942
572053
540874
584263
551814
622877
589503
492513
554517
680110
563001
803949
763576
450405
1.2225e+06
1.00845e+06
1.00246e+06
1.15514e+06
868378
704383
892785
461249
465029
493278
415990
441850
438668
468369
620708
636912
592735
722119
675511
648563
696449
357951
330115
336092
391735
397629
361296
365981
449410
404078
418692
438477
469869
487314
452026
658531
607639
640115
559129
603649
589403
632919
373058
349160
383707
343835
381764
342104
375901
515938
495612
494505
456131
469381
475170
453236
584534
540804
594359
610619
565351
621622
671489
502505
491992
537278
481172
514573
524743
561082
864678
746809
789115
731306
696233
578153
633137
299021
334411
318669
346573
303569
330262
314206
477885
460006
458760
425369
425515
440927
441415
394899
365483
402204
410360
368257
404039
373650
459287
446582
428869
403204
407985
440816
391548
474473
438851
483488
445324
403997
412381
448675
572831
582794
539864
607620
567549
537848
581006
708218
672244
669283
753485
754405
721425
720493
960209
779561
635347
690749
561736
798238
709595
574113
530956
542152
504529
548445
575085
593814
613015
631520
582360
724553
669664
635742
690777
398463
407441
423166
405365
420385
448408
431923
683084
772498
609573
552691
611396
903796
679823
561430
594770
542102
547933
520428
502716
569738
415343
377239
396124
378489
360982
357766
343342
534763
486478
489332
554332
510203
511251
556375
596286
642746
643320
632057
628514
681017
680514
484227
469984
473456
516936
500900
458927
429817
415320
391797
381559
418628
441800
427227
454654
440284
427220
422951
400131
410895
412166
397466
399976
371818
362619
339136
368440
334929
366317
461557
479346
464962
427993
426254
440228
439830
531420
580371
632994
604514
555537
606113
660278
690048
639600
654397
712952
735608
705753
688728
389389
386998
346513
358906
380006
395262
353946
517813
504429
496466
460464
468479
454247
472983
875066
773700
799714
786992
733857
707820
762816
536697
533404
497365
508878
472421
504645
549827
565753
538841
538879
582087
609744
611277
579047
622776
601758
577712
547676
623665
594653
570122
585832
632043
636387
608480
617650
670039
660005
137603
135390
135207
126207
136012
122267
139129
140219
125034
122603
122288
138705
124534
166448
143237
143065
142615
147965
144843
162796
158480
144299
157558
174146
169807
168635
127824
140724
144105
129908
141588
127048
130794
140364
129557
126752
136206
146050
132498
146797
133506
148211
135002
140352
151018
160109
145899
152502
139069
147329
132067
146105
134457
150320
145111
138459
170744
171714
156092
183518
157755
186021
168538
155095
181908
167133
163194
194206
313100
149081
149675
154314
256569
295305
360228
407095
198655
179124
153111
149725
202617
178240
162054
157835
294330
279313
491777
340091
615179
150156
158476
157413
156869
158457
166230
153895
170314
172805
174934
172208
151140
166857
154344
155519
170876
168102
173030
155632
158579
173005
156638
171812
174364
155184
172367
171205
177429
159842
173527
175098
175779
207805
184101
271594
244102
339155
177894
173076
171992
185489
254008
233686
230590
247804
301802
277152
280604
159513
201693
198803
218154
269219
253746
279260
307224
429328
406737
160312
161891
182274
164747
174891
189731
180407
191735
163888
188453
179336
223280
187654
203311
200631
205727
203447
220180
242946
217316
238139
257614
220925
239055
262266
214986
254252
236566
291816
252786
273263
259518
278337
265820
285488
300204
266288
287073
303237
274228
292415
313651
258427
306480
283409
244819
165549
222030
179573
243181
165790
223686
181942
250808
169351
223830
192772
262640
241485
211769
259359
297091
273749
286774
354511
326991
321391
369249
423311
395438
451755
528590
440173
231661
212608
209867
247647
225231
221912
184529
198272
216729
194243
201534
181611
198017
196158
191804
179721
221876
230001
205582
236154
210089
242474
215712
202577
230908
210949
269937
254087
257836
239925
290194
244451
332256
353714
230272
242925
263339
233981