/*--------------------------------*- C++ -*----------------------------------*\
  =========                 |
  \\      /  F ield         | OpenFOAM: The Open Source CFD Toolbox
   \\    /   O peration     | Website:  https://openfoam.org
    \\  /    A nd           | Version:  9
     \\/     M anipulation  |
\*---------------------------------------------------------------------------*/
FoamFile
{
    format      ascii;
    class       volScalarField;
    location    "0.0026";
    object      overpressureMax;
}
// * * * * * * * * * * * * * * * * * * * * * * * * * * * * * * * * * * * * * //

dimensions      [1 -1 -2 0 0 0 0];

internalField   nonuniform List<scalar> 
21758
(
218902
0.0830909
0.0274607
0.00331023
0.000126478
0.51379
0.0120523
0.000879242
4.19246
216669
2432.05
126938
96477
2.1173
73.3983
29345
420.314
9.90597
9.03973
17264.4
326.997
426.252
207676
132095
204402
195342
160067
375412
23649.2
212420
152571
151881
169876
136728
136514
172210
1423.5
114.117
132.946
654.857
191.653
947.332
1091.1
7986.91
5085.58
26786
36186.6
6187.33
7682.31
27247.4
202624
150811
149486
167204
135281
135990
164364
69.5953
9928.82
8901.73
2583.03
96274
79801.5
110830
28525.9
232423
197889
210152
238012
216034
109956
79260
98367
133827
83685.9
98513
112197
341076
262442
306776
231392
356543
307298
329359
160597
79498.1
0.897137
0.00771578
0.0467481
9.97402
232.396
1.10506
0.447951
0.00477649
0.0024631
0.0513316
0.0464952
0.00178849
0.0242783
0.00132152
0.000157734
0.00147357
0.000823605
7.0685e-05
0.00308453
0.000149381
1.05324e-05
3.77155e-05
1.74344e-05
2.25162e-06
0.000196291
1.12886e-05
6.70043e-07
8.77146e-07
3.74421e-07
6.0958e-08
1.18267e-05
7.13975e-07
3.9945e-08
1.90485e-08
7.43603e-09
1.38243e-09
5.99583e-07
3.69764e-08
1.94996e-09
3.0559e-10
1.01863e-10
0
161817
6.79808
0.433424
0.00307457
0.0187525
4.71554
89.2818
0.220718
0.165034
0.00228862
0.000719478
0.0182125
0.00782681
0.000933602
0.00836356
0.000533511
5.1252e-05
0.000485555
0.000207985
3.22951e-05
0.000966623
5.62933e-05
3.8242e-06
1.14953e-05
4.82865e-06
8.64122e-07
7.1826e-05
4.3085e-06
2.4974e-07
2.491e-07
1.01369e-07
2.05182e-08
4.44862e-06
2.70782e-07
1.49739e-08
5.23869e-09
1.8772e-09
4.07454e-10
2.2458e-07
1.38825e-08
6.98492e-10
4.36557e-11
0
0
70173
0.346513
0.00147646
0.0013072
0.972202
4.9813
0.00576949
0.0153712
0.000836519
7.86434e-05
0.00210942
0.000859502
0.000147565
0.00320154
0.000163638
9.27187e-06
4.23898e-05
1.81183e-05
3.94722e-06
0.000256909
1.42908e-05
7.72838e-07
8.20743e-07
3.73446e-07
1.00146e-07
1.6378e-05
9.78602e-07
5.28089e-08
1.66619e-08
7.40692e-09
2.37196e-09
9.27859e-07
5.71017e-08
3.07045e-09
3.20142e-10
1.01863e-10
0
4.43542e-08
2.73576e-09
5.82077e-11
0
0
0
306.263
0.00803257
0.520429
0.00432657
0.0105133
0.0430959
0.000371785
0.127043
0.0114099
0.000322474
4.06999e-05
2.25224e-05
1.03978e-05
0.00549844
0.000487677
1.85614e-05
1.43152e-06
5.35394e-07
2.52752e-07
0.000278296
2.01741e-05
8.94885e-07
5.23869e-08
1.26747e-08
5.82077e-09
1.17792e-05
8.00472e-07
3.87372e-08
1.9354e-09
2.18279e-10
8.73115e-11
4.59797e-07
3.06609e-08
1.5134e-09
0
0
0
1.62108e-08
1.00408e-09
0
0
0
0
179360
16703.1
52.0789
0.00795413
0.000298734
21095.1
321.541
0.510841
0.00112442
0.000180533
1.02377e-05
1.0956
0.0745191
0.00115292
2.56378e-05
8.57515e-07
3.11848e-07
0.00639889
0.00130512
4.7094e-05
1.67538e-06
6.26314e-08
9.34233e-09
0.000341366
4.16181e-05
1.91218e-06
7.84639e-08
2.92493e-09
2.18279e-10
1.52997e-05
1.45027e-06
7.37346e-08
3.11411e-09
5.82077e-11
0
5.92554e-07
4.99422e-08
2.56114e-09
4.36557e-11
0
0
1.96742e-08
1.46974e-09
0
0
0
0
254836
163.415
0.316797
0.00314963
0.000107528
8.7487e-06
0.626066
15.1148
0.00829678
0.000219106
7.05761e-06
4.35641e-07
0.0483198
0.00454069
0.000320731
1.2107e-05
4.3273e-07
2.1013e-08
0.001941
0.000232663
1.44538e-05
6.23608e-07
2.31521e-08
9.02219e-10
9.73733e-05
1.01647e-05
6.13218e-07
2.79979e-08
1.00408e-09
0
4.15595e-06
4.01109e-07
2.40252e-08
1.1205e-09
0
0
1.61104e-07
1.45374e-08
8.29459e-10
0
0
0
5.39876e-09
4.36557e-10
0
0
0
0
0.419274
0.0905581
0.00560215
0.000193046
9.10049e-06
4.66607e-07
0.0503903
0.00616585
0.00040138
1.75015e-05
8.44491e-07
3.52447e-08
0.00317542
0.000345493
2.29929e-05
1.14762e-06
5.31873e-08
2.18279e-09
0.000177337
1.81975e-05
1.17745e-06
6.02449e-08
2.72121e-09
4.36557e-11
8.41758e-06
8.34101e-07
5.3551e-08
2.75031e-09
5.82077e-11
0
3.63172e-07
3.45899e-08
2.16824e-09
4.36557e-11
0
0
1.45374e-08
1.25146e-09
0
0
0
0
4.36557e-10
0
0
0
0
0
0.00714054
0.00231905
0.000205499
1.10026e-05
5.83241e-07
2.88128e-08
0.00227733
0.000261785
1.87261e-05
1.00424e-06
5.10772e-08
2.28465e-09
0.000172536
1.78938e-05
1.22844e-06
6.80739e-08
3.31784e-09
8.73115e-11
9.8664e-06
9.98523e-07
6.77828e-08
3.75439e-09
1.16415e-10
0
4.93936e-07
4.84433e-08
3.21597e-09
1.16415e-10
0
0
2.24682e-08
2.06637e-09
8.73115e-11
0
0
0
8.87667e-10
0
0
0
0
0
0
0
0
0
0
0
0.000783939
9.85295e-05
8.35232e-06
5.32207e-07
3.07627e-08
1.5134e-09
9.87068e-05
1.08963e-05
8.05536e-07
4.84288e-08
2.57569e-09
4.36557e-11
7.52721e-06
7.87171e-07
5.65342e-08
3.28873e-09
1.01863e-10
0
4.57891e-07
4.63042e-08
3.27418e-09
1.16415e-10
0
0
2.41998e-08
2.28465e-09
1.01863e-10
0
0
0
1.1205e-09
1.45519e-11
0
0
0
0
0
0
0
0
0
0
0
0
0
0
0
0
2.91954e-05
3.61886e-06
3.14452e-07
2.20607e-08
1.26602e-09
0
3.56195e-06
3.97078e-07
3.09374e-08
1.96451e-09
1.45519e-11
0
2.85232e-07
3.0137e-08
2.25555e-09
5.82077e-11
0
0
1.84082e-08
1.84809e-09
5.82077e-11
0
0
0
9.45874e-10
0
0
0
0
0
0
0
0
0
0
0
0
0
0
0
0
0
0
0
0
0
0
0
0.66539
0.0157822
0.436402
0.0153056
0.00332373
0.00122214
0.00306313
0.000756847
0.0106197
7.15509
0.00651685
4.49921
69034.6
56.8201
2193.58
69694.3
37.2568
1414.18
233155
2478.06
190.337
160524
221295
1477.47
80.9086
0.0912398
0.816915
0.0803113
0.687003
0.068457
0.617153
0.0615965
0.00316933
0.00713282
0.00156254
0.00571355
0.00234173
0.00533708
0.00124771
0.827703
0.00509854
0.0761226
0.037102
0.691174
0.0037687
0.0610931
238.888
0.680474
1.64168
6.72484
147.913
0.610323
1.21753
0.306409
0.00839554
0.0032094
0.00165953
0.000416908
0.000624451
8.21359e-05
0.00387774
3.23886
0.00066657
0.68696
71872.6
27.629
1044.71
66797.1
6.55897
254.301
105380
1023.97
43.0873
158902
8780.05
186.574
2.83728
0.0404181
0.342254
0.0332116
0.0174548
0.182988
0.0156733
0.00110655
0.00274523
0.000575173
0.00131222
0.000368848
0.0012723
0.000272818
0.391936
0.00173257
0.0317314
0.0056641
0.161573
0.00055743
0.0108886
104.84
0.384485
0.692686
3.21779
21.2166
0.195892
0.33877
0.00146819
0.169204
0.00037458
2.8856e-05
0.0477242
0.000813347
0.00022538
0.3316
0.000139308
0.0126038
80722.5
3.37441
127.702
35505
0.156192
6.55551
2429.93
83.0286
1.17147
8026.96
19.1082
2.79855
0.498542
0.0139981
0.0692958
0.00700235
0.162084
0.1258
0.0294829
0.000217881
0.000699243
0.000121201
0.0240134
0.00260326
0.00469945
0.000575789
0.034457
0.000114713
0.0022795
0.000354409
0.00448319
6.77606e-05
0.000322427
9.21731
0.0443802
0.149537
0.144282
0.813059
0.00717155
0.0330755
2.01889
2387.09
0.568004
0.00986813
799.468
14.602
0.00162344
0.00293301
2.87812
0.0218414
4562.5
0.0395977
1.54606
24.9066
0.00365706
0.00944918
2.78295
0.671458
0.112725
4.44943
0.151567
0.074627
0.00881161
2.69813
1.32483
0.324081
882.541
9.76394
10.1537
0.0739893
0.0542608
0.00871426
97.2669
1.56006
0.508811
0.104743
0.00059062
0.00074716
6.18028e-05
0.122971
0.00551765
0.00649835
0.000346646
0.0632175
0.000457082
0.00224372
0.000550327
0.00231571
3.15922e-05
8.79393e-05
133130
3251.97
61.1593
199685
38220.9
938.364
4.95487
961.197
14.0868
0.143068
885.591
19.6935
1.32994
0.387012
0.154334
0.0256858
0.000844818
0.619284
0.0565142
0.0398741
0.00274841
461799
9613.06
103.06
423027
0.204437
606199
530445
0.103304
0.00211143
392546
996.873
0.727631
0.0289802
0.00217328
0.00013412
213774
2418.05
0.0245327
0.00188558
0.000125655
5.94275e-06
16.4969
0.050981
0.00122337
9.56997e-05
6.04775e-06
3.08908e-07
0.0029664
0.00054087
5.81488e-05
4.48494e-06
2.89554e-07
1.56142e-08
0.00011909
2.09939e-05
2.26584e-06
1.8267e-07
1.23255e-08
5.96629e-10
74751.1
75559.7
478573
324004
406038
476810
378707
404484
81542.5
88344.5
485382
327701
403873
473826
327372
393529
168782
610896
145200
461383
322009
284327
556881
85120.6
316853
149848
580358
53336.4
271267
401.509
11485.9
4405.52
32.7057
32143.2
6.6515
61.1834
0.220324
234885
313194
222700
213917
435237
403074
293665
165197
547257
120691
11660.7
395991
293158
9157.89
216.98
33964.9
781.036
2.33683
41511.1
2.7166
5.93774
0.184329
234033
187682
42115.9
106389
170776
141834
135737
80985.5
105142
66580.7
128347
3883.35
21090.4
5859.56
326.269
2033.38
531.574
1475.99
8.65726
144.723
29.7004
0.505301
8.88414
1.56309
3.24958
0.080336
0.425605
0.201481
0.629492
0.397504
0.187646
0.08654
0.0162962
0.00444365
0.0450664
0.0150369
0.0042367
0.0426818
0.01745
0.0683318
0.523301
0.258002
0.128738
0.333429
0.166466
0.0517094
0.0134401
0.0166079
0.0036303
0.0283912
0.00423878
0.0343513
0.0103885
0.00027971
0.0009869
0.00119128
0.00324129
0.000952816
0.00112636
0.000295147
0.00018162
0.00124531
0.000525252
0.00116473
0.00115083
0.00049095
0.000194867
0.000259904
0.00319453
0.000824661
0.000852616
0.000929778
0.0010295
0.000211666
0.000154804
0.000898303
0.000696335
0.000307523
0.000933793
0.000409746
0.00011917
0.134849
0.0136927
0.0832043
0.00999855
0.0126505
0.0767479
0.145817
1.39545
13.9414
0.756854
6.65105
13.0156
0.704357
1.50231
0.11382
0.00803932
0.00792378
0.0487972
0.0104748
0.0642588
0.0873922
1.19506
5.71298
9.08521
0.466753
11.311
0.597367
0.938915
68924.8
116548
116435
43188.9
71828.9
69945.3
44516.6
1002.98
125.735
376.229
53.2157
117.882
353.979
1064.64
117241
71066.8
118630
41105.5
62089.2
66846.9
38230.8
895.528
46.2718
84.9316
255.948
103.718
311.936
748.177
0.0227068
0.176177
0.103966
0.036854
0.068048
0.00471155
0.00211585
0.0203294
0.00491708
0.00720406
0.0012264
0.01519
0.00277488
0.00374698
0.000629541
0.00565428
0.000851961
0.00866207
0.00167097
7.94554e-05
0.00048181
0.000577537
0.00107177
0.000138842
0.000283209
0.000347335
4.33361e-05
0.000438008
0.000215905
0.000301482
7.7204e-05
0.000261254
0.00011926
5.11147e-05
0.000662816
0.000144287
0.000161348
0.000179475
0.000227321
3.44909e-05
2.49202e-05
0.000127505
6.10536e-05
3.95639e-05
0.000128518
7.54751e-05
1.38903e-05
0.0379287
0.00522122
0.0325387
0.00267022
0.0604558
0.00318672
0.0201969
0.440686
6.73172
0.321552
2.14392
0.673226
4.59695
0.209697
0.0213724
0.00117305
0.000811995
0.00527599
0.00166922
0.0108356
0.0107963
0.262634
1.27465
1.66083
0.0610277
2.89689
0.115581
0.140983
119029
70713.6
116237
29478.9
55119.9
34388.4
45974.7
423.744
64.6393
195.065
18.8531
582.309
45.7394
137.462
108777
96756.3
60148.9
23693.5
24513.5
35443.7
17323.3
288.56
11.5205
18.4596
54.648
30.3185
90.2934
184.573
0.00598379
0.000401178
0.00410191
0.00357087
0.0013682
0.00186011
0.00808842
0.0699162
0.0235234
0.290136
0.530457
0.0221097
0.0576039
0.889268
0.000127893
0.000101489
0.000112861
0.000748461
2.66527e-05
0.000483637
0.000311529
2.74443e-05
2.32312e-05
3.42003e-05
4.00071e-05
8.93099e-06
1.55304e-05
6.3202e-05
0.00154009
0.00576217
0.0831904
0.0139607
0.00604154
0.00193633
0.0215894
0.000340555
0.000135478
0.00103478
0.00291953
7.3085e-05
0.000431249
0.00493296
0.00178492
0.000327131
0.00220881
0.00011761
0.00473978
0.000118746
0.000818218
0.0267592
0.842606
0.026519
0.131589
0.0664237
0.368821
0.0105177
0.000561245
4.86481e-05
0.000192576
0.000114834
4.8823e-05
0.00024581
0.000189548
0.00902715
0.0459132
0.0404518
0.000948347
0.134292
0.0032406
0.00251206
59933.4
50554.8
38662.9
6381.3
14954.4
11369.2
7589.72
55.8204
10.1198
29.9617
1.47596
107.731
4.83219
14.3808
14750.2
25207.2
13492
3095.06
1195.58
3353.3
1337.75
24.4505
0.532928
0.625768
1.75276
1.91942
5.38258
8.67947
134.649
3.93071
5.98441
23.3803
11.4133
50.7565
67.1755
1433.46
256.6
7025.7
6024.02
612.148
685.83
13730
4.48239
1.19332
0.167953
7.33476
0.318364
15.9914
1.95535
1.11871
0.0163207
0.0370408
0.0984837
0.0759049
0.251899
0.462341
62.8995
82.1712
2701.94
235.329
211.911
23.136
833.745
16.5625
1.24403
57.4278
61.565
3.90408
5.645
232.746
0.00968361
0.00305329
0.000461683
0.0184659
0.000601117
0.0507641
0.00341858
0.00188346
0.00992689
0.000278942
0.000643123
0.000693883
0.00229692
0.000604771
0.174514
0.243952
13.1018
0.585537
0.845248
0.0473844
2.90522
0.0348151
0.00166334
0.131757
0.116365
0.0068385
0.00866301
0.631605
1126.09
1651.41
5336.2
126.093
344.352
463.295
78.9035
0.563699
0.16404
0.462349
0.00760034
2.46418
0.0345321
0.0970873
205.451
60.1434
387.473
25.7439
1.49199
12.9915
3.45197
0.0910224
0.00131482
0.0242342
0.00185711
0.00635336
0.0140441
0.0134026
64354.6
106145
59038.2
28889.1
7683.17
27314.1
6714
239.413
1781.81
544.918
74.6031
38.46
144.88
16.7274
335504
291501
277498
502681
348080
304059
583224
235972
462944
225921
452147
309107
31120.1
463459
183463
305013
111491
127116
105090
74462.5
155126
154729
109499
229169
228390
110191
155429
78138
157618
109700
229902
228367
111265
160513
85128.2
163433
116787
232571
113653
235715
165860
167627
91126.7
120113
240411
238435
123317
165099
93490.9
95171.7
127986
241480
126019
241189
246590
639354
727182
353813
762959
361803
242440
106161
88404.7
69034.1
129295
236692
239558
130076
15134.5
19232.2
43720.1
110998
214602
130367
134312
3065.17
979.371
5270.33
58290
6123.87
42393
14609.1
228385
165257
162261
286969
199981
206116
277464
325124
248822
476248
263112
489396
316498
217827
159405
156646
262149
193822
187652
269099
189670
153757
145622
256556
173740
180780
251926
282735
565148
214211
413334
220226
440985
206463
43108.7
106028
52530.3
193336
166689
155174
244681
3252.89
19688.1
6913.47
106399
67368.8
116054
40541.5
144.836
2190.38
526.908
2247.82
29517.6
8637.22
10971.9
229637
690333
343554
548208
236939
650304
329420
218641
499133
533351
76625.8
607643
233943
142998
183206
144800
143260
126632
132193
149822
155721
0.113613
11.2504
230441
0.0866938
0.234556
0.0545923
3.57385
0.660961
36.1336
20849
5280.13
249061
282402
197585
99351.1
105906
0.222265
0.110597
0.0140296
0.131014
0.0350304
0.0271745
0.0625388
0.0469557
0.0077829
0.019554
0.0238685
0.0160906
0.0654985
0.00563606
0.0528966
0.0337866
0.203324
0.377094
5.58253
1.46043
0.501941
0.176696
2.38852
299.996
60.7507
15.7915
351.038
28.3413
569.164
164.599
2736.47
3015.33
24940.9
12420.1
4403.96
1556.14
20684
241854
168262
171375
297413
219342
212601
308495
161428
134356
148018
192515
146438
133313
158498
0.000405081
0.00522452
0.0886434
0.00406116
0.000570385
0.000286518
3.46885e-05
3999.04
14.6764
400.959
4796.32
30.5772
1654.96
1.0628
5.28042
0.976298
0.243238
81.6893
1.09208
0.735871
0.133524
0.0275904
0.0262088
0.00153248
0.236417
0.0224726
0.0146956
0.00147991
9.02549e-05
7.25927e-05
6.63887e-06
0.00198195
0.000134964
0.000117413
1.60208e-05
98825.8
1934.54
84629.9
992.723
238117
46820.5
1.8597
122563
0.830123
5211.08
187.809
1.20622
1.22002
0.350128
91.5568
0.0351613
0.807847
0.417669
0.044133
0.0357256
0.00336599
0.058739
0.00395553
0.00028382
0.00431027
0.000325
0.000306502
3.96015e-05
10249.6
18611.8
1381.96
2047.17
17441.7
1298.39
10833.2
9224.49
1770.46
12478.3
934.321
15297.9
1141.91
7795.04
4432.46
9372.72
709.652
712.602
6079.3
6580.13
501.879
3044.56
446.982
2667.42
199.681
4366.67
329.159
1956.99
601.253
1453.25
109.649
55.4589
1151.23
687.469
53.516
277.725
19.8871
89.4755
8.35869
272.862
22.7488
107.217
8.1733
23.8058
2.24304
0.352548
33.179
5.09208
0.566869
1.45218
0.0477208
0.0885144
0.00947606
0.782798
0.0827943
0.176533
11243.5
30159.3
937.564
4192.52
9512.58
40193.1
1062.36
2713.69
698.927
249.863
50.6797
2685.97
596.92
242.402
25.7329
171.609
3.12091
9.72716
41.5821
123.954
1.93885
5.50675
2.36919
0.688933
0.0869253
10.0701
1.12493
0.378282
1.99504
1.06275
8.37243
0.0638261
0.119173
0.450197
0.0151618
0.0299352
0.481142
0.0038287
0.0136334
0.0760761
0.195394
0.0033357
0.00380225
0.00728906
0.00117806
0.000236211
0.0228721
0.00126997
0.000417519
0.00493723
0.0715979
0.456949
129.913
0.469583
0.390424
0.02631
287624
180687
5783.27
298728
366025
281156
294253
283230
2.97695
43790.3
343669
141648
37182.8
907.967
838.058
0.242307
16.6101
5215.4
133.766
16.9226
0.594187
0.529134
0.0481362
0.00270133
11.2978
0.158559
0.0809946
0.0124232
3604.71
237657
6310.74
1532.58
44152.5
18487.6
366.699
31.972
17.5834
150.62
264.72
469.903
2592.22
31.9123
115662
25525.3
85449
9900.62
60913.4
14871.2
84486.5
76141.8
128012
48264
96581.3
68097.7
130231
98099.3
12.9116
0.799073
0.275278
133.286
5.55437
0.763095
0.186349
2.9699
0.388145
0.102383
14.0411
0.674477
0.177635
0.0551463
0.221786
0.0731194
0.0136734
0.260419
0.0526958
0.0132822
0.00296401
0.00663723
0.00185704
0.000347595
0.00340768
0.00054207
0.000143839
3.64592e-05
3.17947e-05
7.5889e-06
2.09115e-06
1.45478e-05
2.38777e-06
1.4598e-06
3.82483e-07
0.0957287
0.003509
0.0174295
0.00105141
0.00452459
0.000251649
0.00160884
8.86937e-05
0.00153945
7.0953e-05
0.6408
0.229016
0.0461736
0.0249951
0.0324453
1.08108
0.00675818
0.000380431
1.9293e-05
0.0211453
0.000914527
4.48669e-05
2.10389e-06
0.0138696
0.00100398
5.55957e-05
2.95015e-06
1.42521e-07
0.000546927
4.23157e-05
2.74081e-06
1.53857e-07
7.53789e-09
1.87783e-05
1.66937e-06
1.14989e-07
6.69388e-09
2.47383e-10
574516
654799
490347
408080
938547
897202
497855
1.3099e+06
450500
473123
633216
349700
248378
955473
905337
18770
1.20187e+06
451013
411241
462265
536105
364146
535.36
1.03518e+06
896987
197.141
1.03595e+06
575944
269407
269308
494475
374781
1236.56
0.322049
1.0792e+06
961621
649631
0.229529
1.05438e+06
845348
81746
2038.63
178.597
0.0170826
457298
656407
353162
77.1617
0.00318312
681287
14071.2
1.34034
0.0354561
0.00244278
317734
131746
0.0212993
0.00620502
0.000512636
0.881597
0.0204957
0.00328432
0.000150202
4364.69
25.3191
0.0115267
0.000683582
3.35079e-05
0.18696
0.00616332
0.000542844
3.62781e-05
1.978e-06
1.44653e+06
1.3822e+06
918468
1.33479e+06
976039
941641
928256
1.27379e+06
937629
1.45351e+06
1.35974e+06
778258
1.23481e+06
750364
478082
1.35484e+06
1.25199e+06
1.3183e+06
1.16294e+06
737633
1.08013e+06
702576
448814
1.0387e+06
1.19324e+06
1.22101e+06
1.18302e+06
1.21792e+06
977791
953378
1.09719e+06
864048
1.00599e+06
856897
913526
781302
1.10531e+06
1.13903e+06
936946
685368
895373
1.0476e+06
1.17851e+06
591651
825398
872246
860124
987933
1.12189e+06
910356
725880
800235
841534
721717
808587
856192
697805
708876
24961.8
687171
553808
1.14954e+06
949685
839966
880970
797611
702700
680624
703311
412539
627946
1.18408e+06
1.28977e+06
1.16773e+06
934431
1.24935e+06
918577
1.01301e+06
957538
1.15249e+06
828859
1.09681e+06
1.16463e+06
1.06685e+06
977157
990716
941689
975585
974090
907043
812223
794481
764328
511155
725158
737865
351327
447029
512336
512517
594204
727739
661290
263813
3240.03
504375
385290
1036.38
584474
229939
343.081
0.895903
53551.9
2.37088
662886
517917
1.42378e+06
1.42761e+06
1.41256e+06
1.4069e+06
1.39273e+06
1.40368e+06
1.25261e+06
1.34826e+06
1.2228e+06
1.31694e+06
1.33546e+06
1.20662e+06
1.26662e+06
1.23862e+06
1.29688e+06
1.31015e+06
1.16829e+06
1.32485e+06
1.18844e+06
1.21967e+06
1.42874e+06
1.39731e+06
1.26459e+06
1.12439e+06
1.14748e+06
234712
761785
908486
356234
923474
356651
234477
1.38361e+06
1.32724e+06
1.36825e+06
1.29606e+06
1.29757e+06
1.3411e+06
1.27378e+06
1.21948e+06
234652
891887
356889
728094
234359
872801
360467
1.12339e+06
1.00855e+06
1.0384e+06
1.27957e+06
1.24276e+06
1.29577e+06
1.12358e+06
1.34739e+06
1.18139e+06
1.22018e+06
1.28937e+06
1.32027e+06
1.2683e+06
1.13786e+06
1.37701e+06
1.22938e+06
1.19663e+06
1.19954e+06
1.04929e+06
1.03271e+06
1.05426e+06
1.10852e+06
1.13695e+06
1.11509e+06
1.00454e+06
1.14581e+06
1.00883e+06
1.03666e+06
1.05565e+06
1.08901e+06
959814
948188
974310
958184
857934
1.02472e+06
908133
889263
1.19645e+06
1.04866e+06
1.12251e+06
1.23318e+06
1.04941e+06
1.12987e+06
992605
985412
1.05219e+06
248252
820023
368939
664313
247000
794657
367147
943801
858287
901688
1.08688e+06
1.20715e+06
1.21674e+06
1.07119e+06
1.2119e+06
1.09282e+06
1.09738e+06
934557
789982
872722
995665
833135
975730
967779
881837
868715
987041
985638
868637
1.01703e+06
1.16275e+06
1.0519e+06
1.03001e+06
1.10518e+06
1.06273e+06
972143
955823
959079
977232
847586
1.03293e+06
889976
906228
932799
939435
871234
808599
967629
894415
845412
882974
788030
758513
763948
825177
838465
807305
776467
892079
808876
801554
831288
829596
760270
724886
747845
711654
655220
771466
711418
658410
1.2451e+06
1.05161e+06
1.12295e+06
913787
1.05686e+06
951047
877662
1.00307e+06
921078
824935
859706
892936
757455
838697
768818
726888
798959
742463
656391
715290
379376
733958
306107
536444
322883
559920
362490
646675
235837
948175
361390
770998
937051
358604
238353
238729
716832
840897
367931
857398
364814
243474
509202
669211
758825
641848
502640
667075
767290
770803
729008
627220
900368
759737
713001
615937
754764
685468
528110
912600
691568
647045
510470
562567
615361
497918
473458
664314
657721
428180
625214
837117
414899
395050
869557
846042
603684
686550
503824
794310
24343.1
662892
151105
398391
772428
846868
279578
267105
628763
639003
251939
865443
749229
267381
13315.8
511891
4914.2
1848.62
519307
22881.2
1779.85
0.694709
52799.8
8.18978
1.29142e+06
1.14715e+06
1.22471e+06
1.19406e+06
1.26598e+06
1.12481e+06
1.16554e+06
1.19566e+06
1.19531e+06
1.05608e+06
1.23456e+06
1.0958e+06
1.10055e+06
1.1364e+06
494940
644690
776713
570528
465607
626071
816648
0.312348
141.003
0.513226
0.321035
0.0256618
0.381945
0.0296633
232447
205027
110.805
0.0201669
0.00199833
1.03892e+06
1.38517e+06
982109
993228
2.03557e+06
985362
621158
1.14553e+06
874899
1.06865e+06
981594
1.79395e+06
403520
576846
617575
1.01493e+06
1.28208e+06
1.44741e+06
321416
473210
823025
257462
263804
431783
4996.82
242820
0.591531
0.0221687
0.00253874
0.000155829
8.19514e-06
32.7145
0.00692597
0.00117009
0.000100831
7.04048e-06
4.11092e-07
0.0170964
0.00223816
0.000281706
2.55421e-05
1.78861e-06
1.0198e-07
0.000296072
4.00614e-05
3.89204e-06
2.92363e-07
1.78406e-08
0.000595805
0.000100683
1.17527e-05
1.05781e-06
7.5961e-08
4.42378e-09
1.23631e+06
1.90496e+06
1.07166e+06
1.02194e+06
1.84812e+06
948437
1.79978e+06
996085
950164
1.72286e+06
2.28007e+06
2.08572e+06
1.8649e+06
994800
1.82911e+06
1.00117e+06
985493
1.71482e+06
955292
1.69918e+06
1.28038e+06
1.01364e+06
1.58691e+06
2.00912e+06
1.73579e+06
1.55399e+06
1.27788e+06
1.62879e+06
860157
1.22099e+06
1.29013e+06
1.51351e+06
1.61282e+06
1.25083e+06
1.81459e+06
1.98894e+06
1.77595e+06
2.52951e+06
2.45293e+06
1.61004e+06
1.71659e+06
1.54409e+06
2.00071e+06
1.81788e+06
1.3085e+06
1.33723e+06
1.21685e+06
1.33463e+06
1.19047e+06
456909
1.62067e+06
1.59728e+06
1.99381e+06
1.88216e+06
1.60162e+06
1.97182e+06
1.61228e+06
1.65263e+06
2.06723e+06
2.04432e+06
1.67553e+06
1.62964e+06
1.8632e+06
1.62746e+06
1.96371e+06
1.60866e+06
1.95945e+06
1.65263e+06
1.53349e+06
1.57349e+06
1.67924e+06
1.77532e+06
1.5738e+06
1.65478e+06
1.53673e+06
1.48254e+06
1.55795e+06
1.53734e+06
1.49039e+06
1.53616e+06
1.75109e+06
1.59245e+06
1.60427e+06
1.57693e+06
1.62964e+06
1.54333e+06
1.47757e+06
1.49387e+06
1.5171e+06
1.47302e+06
2.5406e+06
2.22434e+06
2.47579e+06
2.59823e+06
2.6645e+06
2.15747e+06
2.33305e+06
2.40276e+06
1.62145e+06
1.59043e+06
1.93057e+06
1.67144e+06
1.72696e+06
1.50401e+06
1.54988e+06
1.83211e+06
2.10347e+06
1.74852e+06
2.11017e+06
1.79e+06
1.67585e+06
1.96884e+06
1.80651e+06
1.71625e+06
1.72829e+06
1.94766e+06
1.87067e+06
1.97169e+06
2.06077e+06
1.84925e+06
1.81936e+06
1.77177e+06
1.72558e+06
1.84556e+06
1.74628e+06
1.90961e+06
1.80164e+06
1.56377e+06
1.62429e+06
1.58161e+06
1.67664e+06
1.55352e+06
1.65295e+06
1.55413e+06
1.46797e+06
1.46637e+06
1.47013e+06
1.43724e+06
1.55639e+06
1.64003e+06
1.62973e+06
1.46838e+06
1.65696e+06
1.51669e+06
1.52202e+06
1.45076e+06
1.35691e+06
1.4029e+06
1.4088e+06
2.25472e+06
1.92408e+06
2.1715e+06
2.17832e+06
2.3336e+06
1.83739e+06
1.94427e+06
2.07127e+06
1.45256e+06
1.3987e+06
1.63986e+06
1.39836e+06
1.47503e+06
1.26828e+06
1.33575e+06
1.64082e+06
1.84984e+06
1.77176e+06
1.69966e+06
1.62836e+06
1.66441e+06
1.7443e+06
1.5227e+06
1.73588e+06
1.56788e+06
1.6174e+06
1.47848e+06
1.39223e+06
1.5438e+06
1.3169e+06
1.49316e+06
1.40629e+06
1.32781e+06
1.34546e+06
1.45062e+06
1.48129e+06
1.34921e+06
1.38003e+06
1.56973e+06
1.403e+06
1.42209e+06
1.46098e+06
1.48176e+06
1.32024e+06
1.79824e+06
1.48408e+06
1.64652e+06
1.48642e+06
1.64655e+06
1.36146e+06
1.37101e+06
1.50315e+06
1.04294e+06
1.25003e+06
1.17087e+06
1.11743e+06
1.08336e+06
1.17759e+06
1.0745e+06
1.29265e+06
987516
1.11358e+06
1.01737e+06
716418
890143
685055
908036
698828
844154
676802
942511
1.09648e+06
886841
842404
717498
884901
766333
688573
821579
647777
698698
606135
661500
624920
613606
686104
801835
499253
499354
672328
806555
623887
485921
628974
751728
408066
409509
529145
574029
383988
227921
82227.5
17.1
8.50393
0.0742021
0.0236824
0.00498823
0.00226913
356007
276655
263557
385424
360604
270322
181863
179790
343519
245697
239699
354613
256375
177213
174366
331913
226315
233271
320097
991602
881667
1.10085e+06
614329
446716
419756
820532
363355
398614
773672
342320
586390
1.25379e+06
3.09926e+06
2.83455e+06
2.21202e+06
1.41563e+06
2.14661e+06
2.16258e+06
2.8773e+06
2.2261e+06
2.10985e+06
2.42949e+06
1.95398e+06
1.42244e+06
1.5945e+06
781094
1.22349e+06
628531
870171
1.25933e+06
1.46578e+06
985825
2.81577e+06
3.01502e+06
2.74103e+06
2.75833e+06
1.9922e+06
1.25196e+06
418330
623508
389160
1.64515e+06
1.66475e+06
2.07456e+06
2.12649e+06
1.68149e+06
2.05378e+06
1.63296e+06
2.12178e+06
1.70118e+06
1.68498e+06
2.93781e+06
1.77587e+06
2.25509e+06
1.8632e+06
2.21577e+06
1.85191e+06
1.88825e+06
2.61508e+06
1.74711e+06
1.77838e+06
1.58644e+06
1.5984e+06
1.24768e+06
1.40994e+06
1.78618e+06
851974
1.02838e+06
1.15867e+06
1.07956e+06
957231
914642
1.03384e+06
777116
969284
752127
874227
825648
949972
720751
1.10351e+06
1.11487e+06
982242
1.47609e+06
1.28243e+06
1.30236e+06
1.13211e+06
1.03307e+06
1.16828e+06
1.35178e+06
2.20873e+06
1.27945e+06
2.25343e+06
3.39222e+06
3.17539e+06
1.14294e+06
2.34148e+06
1.01943e+06
2.21479e+06
3.15958e+06
2.67965e+06
1.01593e+06
2.02835e+06
828918
1.40106e+06
2.41538e+06
1.68019e+06
1.76172e+06
1.6991e+06
2.26576e+06
2.19079e+06
1.72266e+06
2.25176e+06
1.72934e+06
1.76014e+06
2.19102e+06
1.73147e+06
2.33957e+06
1.72306e+06
2.25774e+06
1.76277e+06
3.68873e+06
3.29954e+06
3.58969e+06
3.22138e+06
3.49624e+06
3.51619e+06
1.87321e+06
1.8024e+06
2.44783e+06
2.38103e+06
1.82643e+06
1.87534e+06
2.48657e+06
1.84827e+06
2.33773e+06
1.81102e+06
2.26818e+06
1.8781e+06
2.4257e+06
1.75175e+06
3.49968e+06
3.07317e+06
3.39818e+06
2.90899e+06
2.91282e+06
3.19701e+06
1.41546e+06
1.67899e+06
2.03876e+06
1.8148e+06
1.59458e+06
1.50444e+06
1.78809e+06
1.24356e+06
1.60189e+06
1.16622e+06
1.33222e+06
1.32698e+06
1.54724e+06
1.0893e+06
2.59977e+06
2.15597e+06
2.29072e+06
1.90914e+06
1.70982e+06
1.99128e+06
415854
466760
384748
641993
406210
669678
442856
1.16214e+06
702601
659484
1.15265e+06
822714
711884
956609
527508
587951
560814
578008
511249
602597
430081
980524
1.15975e+06
984640
1.11365e+06
983216
1.10855e+06
983640
794946
656359
798527
665942
818137
820095
667228
1.3377e+06
1.42742e+06
1.38103e+06
1.21908e+06
1.30341e+06
1.25638e+06
1.26635e+06
955354
761532
730383
709656
728897
1.00481e+06
924114
1.31219e+06
1.30878e+06
1.29101e+06
1.37168e+06
1.47948e+06
1.44077e+06
1.41099e+06
1.00405e+06
1.09367e+06
986362
1.15698e+06
993340
1.1022e+06
985190
664417
686192
838303
657319
807464
826894
673879
594639
588007
552421
567210
563814
518256
512565
1.32536e+06
1.24028e+06
1.21534e+06
1.18423e+06
1.15232e+06
1.21606e+06
1.12892e+06
1.13695e+06
1.28804e+06
1.24554e+06
1.3385e+06
1.29276e+06
1.17846e+06
1.22284e+06
1.31444e+06
1.21167e+06
1.30634e+06
1.33298e+06
1.30238e+06
1.39087e+06
1.32134e+06
534567
567613
503634
582005
543437
563378
507498
1.13401e+06
1.01458e+06
1.02118e+06
981371
1.08178e+06
1.06675e+06
985192
330912
381608
393916
510226
387674
479326
431459
864243
679473
702248
863583
703727
851460
723794
1.11161e+06
1.19024e+06
1.0526e+06
1.04338e+06
1.14499e+06
1.01372e+06
1.15622e+06
1.2163e+06
1.25567e+06
1.15962e+06
1.1874e+06
1.07742e+06
1.15029e+06
1.10466e+06
543210
518324
534061
473652
491097
484070
466211
1.12792e+06
1.09305e+06
1.2675e+06
1.23567e+06
1.19684e+06
1.29118e+06
1.26692e+06
1.00789e+06
1.03483e+06
1.00116e+06
936565
912618
906815
931957
1.05297e+06
914365
958303
977680
1.04623e+06
953996
908567
914309
718287
701294
698195
610813
699171
887552
581987
526879
581137
578424
577815
593957
502249
1.30137e+06
1.05073e+06
1.30624e+06
1.09852e+06
1.32453e+06
1.21667e+06
1.31897e+06
819125
688720
828283
828549
702673
815779
690196
1.03929e+06
978502
949801
1.07621e+06
1.01619e+06
982780
1.11619e+06
1.08266e+06
1.01268e+06
1.06886e+06
967156
1.11132e+06
986902
1.04794e+06
1.31245e+06
1.02812e+06
1.3031e+06
1.03233e+06
1.03334e+06
1.29986e+06
1.32503e+06
495240
449049
469267
507387
523311
476552
457927
1.27078e+06
1.17209e+06
1.29511e+06
1.12701e+06
1.28824e+06
1.04414e+06
1.26561e+06
1.11795e+06
1.02116e+06
1.01402e+06
1.02468e+06
960242
973369
1.04749e+06
1.02704e+06
895896
945612
968133
1.03762e+06
950439
902606
906948
971373
880835
1.02339e+06
989074
896288
921787
570445
390980
602408
564959
611726
426988
469217
897874
729655
818086
801600
869652
870058
743885
1.17442e+06
1.26019e+06
972224
945007
1.00281e+06
1.13481e+06
1.2328e+06
812620
705904
836354
831959
706131
813998
695885
569346
589297
569603
496019
494935
491903
496151
273014
258875
315213
363816
262194
342103
246394
978824
948022
971331
874528
890118
883295
867750
841928
887465
954458
948813
862515
924050
864123
918832
930575
997559
1.05068e+06
944817
959605
1.02411e+06
931323
1.0134e+06
926361
887395
996524
939638
877011
829090
688079
821443
818220
822474
687792
677731
575953
489083
558188
580584
494592
497295
569046
506179
583433
494131
594111
574024
491149
499379
501426
489046
481027
457579
450265
440527
433692
1.02843e+06
1.02062e+06
1.24257e+06
1.00509e+06
1.21473e+06
1.00942e+06
1.21639e+06
840990
810107
718605
721219
839666
806446
731587
943171
846513
859804
937795
959071
873304
858654