/*--------------------------------*- C++ -*----------------------------------*\
  =========                 |
  \\      /  F ield         | OpenFOAM: The Open Source CFD Toolbox
   \\    /   O peration     | Website:  https://openfoam.org
    \\  /    A nd           | Version:  9
     \\/     M anipulation  |
\*---------------------------------------------------------------------------*/
FoamFile
{
    format      ascii;
    class       volVectorField;
    location    "0.0026";
    object      U;
}
// * * * * * * * * * * * * * * * * * * * * * * * * * * * * * * * * * * * * * //

dimensions      [0 1 -1 0 0 0 0];

internalField   nonuniform List<vector> 
21758
(
(84.0822 74.5607 329.106)
(6.26751e-05 0.000148726 0.000131043)
(1.89495e-05 2.88161e-05 5.92428e-05)
(2.43107e-06 3.18572e-06 7.02473e-06)
(9.15741e-08 1.13712e-07 2.73344e-07)
(0.00037602 0.000413244 0.0011161)
(8.049e-06 9.73276e-06 2.61061e-05)
(5.81897e-07 6.12388e-07 1.96465e-06)
(0.00234848 0.00978878 -0.00246654)
(84.2306 128.869 6.06921)
(1.99706 5.59992 -0.245586)
(88.7133 158.3 122.131)
(66.3323 154.726 66.9492)
(0.00134457 0.00305811 0.00406653)
(0.0622843 0.0827344 -0.164629)
(24.7625 48.9687 -48.6636)
(0.324925 0.711942 -0.772229)
(0.00837929 0.0158624 -0.0143143)
(0.00691466 0.0168664 -0.0134078)
(12.2069 34.1308 -23.0442)
(0.216943 0.650842 -0.43189)
(0.325659 0.909769 -0.475343)
(109.427 150.07 18.1778)
(102.233 235.945 -8.59643)
(84.8548 202.715 32.042)
(112.344 231.502 45.0312)
(110.47 257.013 34.3544)
(143.005 227.431 248.363)
(20.0853 14.7414 47.0228)
(97.0699 138.703 11.9253)
(80.8702 72.9829 39.906)
(92.0221 82.1212 45.2394)
(87.6018 177.032 4.29268)
(65.9248 128.466 14.3127)
(75.968 146.564 17.2996)
(75.4355 161.986 -0.888237)
(1.22219 1.03775 -3.57631)
(0.0970044 0.0460275 -0.271533)
(0.104336 0.145039 -0.302741)
(0.564803 0.842371 -1.42368)
(0.151528 0.07912 -0.463347)
(0.868765 0.66169 -2.32241)
(0.871174 1.32194 -2.42398)
(8.48318 12.4903 -22.9603)
(4.4666 7.462 -10.106)
(34.4246 70.2648 -72.7824)
(27.9958 57.8138 -64.4921)
(6.77195 8.85602 -16.4399)
(6.24379 10.354 -15.7238)
(34.3327 75.3683 -83.1573)
(121.827 164.011 24.8481)
(102.702 92.7261 50.6835)
(113.604 106.992 56.5876)
(100.345 195.962 8.9089)
(96.3929 187.719 18.4953)
(86.1493 167.413 18.827)
(113.279 217.565 12.1007)
(0.0460231 0.161921 -0.0467527)
(7.06409 22.5495 -2.57925)
(6.87815 19.8869 4.98328)
(2.1973 5.88838 0.434781)
(68.3299 169.897 16.4044)
(56.1721 151.17 -14.1935)
(73.4567 201.096 16.9797)
(22.0633 44.5936 35.7966)
(142.786 276.053 149.886)
(131.754 268.369 132.828)
(117.497 225.921 213.867)
(126.561 264.652 138.038)
(138.495 237.487 197.306)
(84.0125 205.084 -13.267)
(57.786 151.546 -59.9753)
(77.575 192.417 -57.4615)
(94.501 234.585 -12.9918)
(57.9696 162.582 -70.2959)
(72.4301 188.794 -61.2161)
(83.0503 217.424 -19.6017)
(149.916 246.206 218.237)
(153.867 219.938 307.719)
(128.313 228.687 213.529)
(163.181 191.192 253.231)
(117.494 211.652 246.78)
(152.728 160.95 338.147)
(175.753 169.017 318.246)
(50.7438 306.415 5.88534)
(101.577 109.287 1.86425)
(0.00220764 -0.000265946 7.03722e-05)
(1.96367e-05 -2.54763e-06 5.79599e-07)
(-0.000110394 4.52318e-05 3.40872e-06)
(-0.0176385 0.0194343 0.000278087)
(0.0660636 0.568963 0.00421537)
(0.00135155 0.00235339 5.29765e-05)
(0.00106687 0.000316802 3.53807e-05)
(1.19077e-05 1.63301e-06 7.97675e-07)
(-2.85866e-06 4.96119e-06 3.43528e-07)
(-1.31834e-05 0.000123377 6.37523e-06)
(1.98743e-05 0.000112969 3.64539e-06)
(1.89396e-06 4.12907e-06 2.09606e-07)
(5.47012e-05 2.58564e-05 4.20132e-06)
(3.07048e-06 1.40318e-06 1.88584e-07)
(-1.1994e-08 2.80235e-07 1.84667e-08)
(-2.11969e-07 3.53778e-06 1.40966e-07)
(3.71046e-07 1.98772e-06 7.94057e-08)
(4.93282e-08 1.67102e-07 6.50731e-09)
(6.67817e-06 4.12501e-06 4.49343e-07)
(3.21008e-07 1.86193e-07 1.83644e-08)
(1.20706e-08 1.65455e-08 1.17994e-09)
(-2.01848e-09 8.9834e-08 2.99981e-09)
(6.9873e-09 4.19155e-08 1.39343e-09)
(1.01456e-09 5.36007e-09 1.7706e-10)
(3.73035e-07 3.41624e-07 2.55713e-08)
(2.23898e-08 1.75579e-08 1.27801e-09)
(1.09445e-09 1.04763e-09 6.79106e-11)
(5.07122e-11 2.0685e-09 6.17924e-11)
(1.34052e-10 8.98419e-10 2.63583e-11)
(1.87056e-11 1.45683e-10 4.2406e-12)
(1.98305e-08 2.25169e-08 1.35444e-09)
(1.29248e-09 1.24263e-09 7.33462e-11)
(6.96556e-11 6.5633e-11 3.69034e-12)
(4.40047e-12 4.4555e-11 1.24824e-12)
(2.1745e-12 1.78878e-11 4.85219e-13)
(3.1755e-13 3.4982e-12 9.07948e-14)
(9.41841e-10 1.1694e-09 6.40312e-11)
(6.38433e-11 6.6629e-11 3.61137e-12)
(3.60961e-12 3.43721e-12 1.81976e-13)
(1.85933e-13 9.08721e-13 2.45935e-14)
(2.71124e-14 3.24665e-13 6.49639e-15)
(2.93884e-15 7.00682e-14 6.96042e-16)
(58.576 291.948 50.1778)
(0.0132665 0.0100389 0.00276527)
(0.00104486 -0.000104911 0.000219997)
(7.70395e-06 -8.71214e-07 1.71893e-06)
(-4.39823e-05 1.73137e-05 9.10618e-06)
(-0.00807337 0.00952833 0.00145859)
(0.0364326 0.216521 0.0292488)
(0.000299134 0.00045324 8.59689e-05)
(0.000382834 0.000112935 7.91388e-05)
(5.58093e-06 6.88935e-07 1.20748e-06)
(-7.64251e-07 1.32819e-06 2.69067e-07)
(-4.13325e-06 4.33684e-05 6.74594e-06)
(4.39518e-06 1.88787e-05 2.94317e-06)
(7.72573e-07 2.19444e-06 3.732e-07)
(1.85805e-05 8.70241e-06 4.55891e-06)
(1.22392e-06 5.57311e-07 3.06815e-07)
(1.15113e-08 8.24113e-08 2.63653e-08)
(-5.64025e-08 1.15817e-06 1.9111e-07)
(9.36343e-08 4.98773e-07 8.41099e-08)
(1.68963e-08 7.65693e-08 1.27158e-08)
(2.01562e-06 1.3672e-06 5.9719e-07)
(1.19109e-07 7.20626e-08 3.33004e-08)
(5.28999e-09 5.74533e-09 2.27002e-09)
(-3.19959e-10 2.71805e-08 4.59008e-09)
(1.86611e-09 1.15411e-08 1.94867e-09)
(3.00661e-10 2.05414e-09 3.43592e-10)
(1.3272e-07 1.2435e-07 4.49e-08)
(8.39254e-09 6.70911e-09 2.53633e-09)
(4.31251e-10 3.77839e-10 1.39687e-10)
(2.35846e-11 5.85943e-10 9.96797e-11)
(3.32114e-11 2.42909e-10 4.05503e-11)
(4.97206e-12 4.89863e-11 8.28909e-12)
(7.31352e-09 8.40301e-09 2.68188e-09)
(4.81942e-10 4.70082e-10 1.54931e-10)
(2.65812e-11 2.44704e-11 8.11415e-12)
(1.61117e-12 1.20599e-11 2.12409e-12)
(5.24831e-13 4.67994e-12 7.40589e-13)
(7.81114e-14 1.09516e-12 1.64653e-13)
(3.46812e-10 4.35173e-10 1.345e-10)
(2.36881e-11 2.5023e-11 7.95638e-12)
(1.34682e-12 1.29448e-12 3.94888e-13)
(6.24434e-14 2.47327e-13 3.48021e-14)
(4.15843e-15 7.95034e-14 7.88847e-15)
(0 1.85611e-14 1.16007e-15)
(67.2616 111.348 42.4063)
(0.000653641 0.000522674 0.000241723)
(2.32065e-06 1.52478e-07 -2.04079e-06)
(-3.06416e-06 1.19362e-06 8.97352e-07)
(-0.00119177 0.00225555 0.000593419)
(0.00307691 0.011727 0.00237909)
(7.77621e-06 1.21374e-05 3.84704e-06)
(2.92973e-05 1.47322e-05 -2.47667e-06)
(1.75626e-06 6.4051e-07 -3.46262e-07)
(1.27471e-09 9.95895e-08 2.23104e-08)
(-3.24594e-07 4.96492e-06 1.08252e-06)
(3.99103e-07 2.04375e-06 4.50978e-07)
(1.11375e-07 3.4521e-07 8.74799e-08)
(6.82575e-06 3.39387e-06 9.00947e-07)
(3.61579e-07 1.78682e-07 2.06472e-08)
(1.42277e-08 1.09045e-08 2.52125e-09)
(-2.75864e-09 9.8728e-08 2.36379e-08)
(6.48568e-09 4.26679e-08 1.0194e-08)
(1.66297e-09 9.25839e-09 2.20058e-09)
(5.01516e-07 3.81074e-07 9.67868e-08)
(2.87061e-08 2.00363e-08 4.27499e-09)
(1.45735e-09 1.03018e-09 2.53123e-10)
(5.28112e-11 1.88495e-09 5.0377e-10)
(1.05181e-10 8.77925e-10 2.16515e-10)
(2.4815e-11 2.35689e-10 5.10128e-11)
(2.82895e-08 2.88075e-08 7.31246e-09)
(1.79124e-09 1.59072e-09 3.86214e-10)
(9.83681e-11 7.98336e-11 2.02102e-11)
(5.14213e-12 3.69846e-11 1.04649e-11)
(1.70341e-12 1.73815e-11 4.25746e-12)
(3.61942e-13 5.61955e-12 1.13316e-12)
(1.4273e-09 1.75792e-09 4.39248e-10)
(9.58896e-11 1.01124e-10 2.48858e-11)
(5.47788e-12 5.13728e-12 1.29789e-12)
(2.67371e-13 7.98231e-13 2.21419e-13)
(2.70973e-14 3.24978e-13 7.19243e-14)
(3.8669e-15 1.20577e-13 1.83291e-14)
(6.4292e-11 8.59151e-11 2.23631e-11)
(4.45901e-12 5.04986e-12 1.30941e-12)
(2.41172e-13 2.56762e-13 5.63021e-14)
(5.38814e-15 1.56223e-14 1.6241e-15)
(0 2.93884e-15 2.32014e-16)
(0 1.54676e-16 0)
(0.38118 0.603709 0.270647)
(1.59042e-05 1.10947e-05 8.12003e-06)
(0.000662833 0.000722734 -0.000932743)
(7.88706e-06 4.4516e-06 -7.75844e-06)
(-1.18031e-05 2.29203e-05 1.04062e-05)
(2.27362e-05 9.92158e-05 3.32332e-05)
(4.22155e-07 8.08138e-07 3.76054e-07)
(0.000111481 0.000266252 -0.000133838)
(1.50772e-05 2.37218e-05 -7.62782e-06)
(7.0879e-07 4.64156e-07 -1.91427e-07)
(1.52686e-08 7.42426e-08 4.85653e-08)
(6.78683e-09 5.00178e-08 2.53051e-08)
(5.93628e-09 2.38583e-08 9.14383e-09)
(4.94967e-06 1.20054e-05 -1.95483e-06)
(6.5836e-07 1.024e-06 -2.19189e-07)
(3.74967e-08 3.09243e-08 -7.23011e-09)
(1.32827e-09 2.50652e-09 1.09293e-09)
(1.56503e-10 1.17222e-09 6.21283e-10)
(7.48254e-11 5.80189e-10 2.14977e-10)
(2.46243e-07 6.13748e-07 -4.69851e-08)
(2.72902e-08 4.21197e-08 -5.01837e-09)
(1.62932e-09 1.60296e-09 -1.89233e-10)
(7.05459e-11 9.17949e-11 1.98665e-11)
(4.3726e-12 2.72364e-11 1.3231e-11)
(1.00632e-12 1.34863e-11 4.97136e-12)
(1.09765e-08 2.58547e-08 -5.41387e-10)
(1.07219e-09 1.67e-09 -8.65871e-11)
(6.49931e-11 7.26573e-11 -3.73705e-12)
(3.00328e-12 3.47045e-12 3.42607e-13)
(1.37759e-13 6.15054e-13 2.58232e-13)
(1.33021e-14 2.96345e-13 1.03633e-13)
(4.47564e-10 1.00814e-09 1.71484e-11)
(4.01091e-11 6.41033e-11 -4.61708e-13)
(2.42309e-12 2.9841e-12 -2.05719e-14)
(1.04123e-13 1.24759e-13 7.26977e-15)
(7.77499e-16 8.64183e-15 2.2428e-15)
(0 2.46711e-15 6.96042e-16)
(1.65595e-11 3.54303e-11 1.75826e-12)
(1.38312e-12 2.23631e-12 6.98362e-14)
(7.39879e-14 1.01777e-13 6.18704e-16)
(5.23183e-18 3.09352e-16 0)
(0 0 0)
(0 0 0)
(172.405 252.471 45.5829)
(20.4238 30.4478 9.71585)
(0.0519908 0.111638 0.0487178)
(1.11043e-05 1.20852e-05 1.32896e-05)
(4.21878e-07 3.93875e-07 5.96905e-07)
(21.2254 40.7438 15.0794)
(0.343133 0.711012 -0.0879101)
(0.000638998 0.00104743 -8.19759e-07)
(1.99942e-06 1.68659e-06 -1.54025e-07)
(4.68442e-08 3.70242e-07 2.5572e-07)
(7.88232e-09 2.01872e-08 1.90302e-08)
(0.000859333 0.0025079 0.000511097)
(6.7088e-05 0.000169263 1.41742e-07)
(2.28187e-06 1.93718e-06 9.84942e-08)
(5.89801e-08 2.40905e-08 1.30534e-09)
(1.43535e-09 7.50037e-10 5.56888e-10)
(1.45284e-10 6.26117e-10 4.71834e-10)
(5.37343e-06 1.45594e-05 9.99335e-07)
(1.23477e-06 2.96071e-06 1.13649e-07)
(8.71945e-08 8.96042e-08 1.95949e-09)
(3.64448e-09 2.50398e-09 4.33868e-11)
(1.3156e-10 7.79216e-11 2.20323e-11)
(4.90122e-12 1.79615e-11 1.11292e-11)
(2.64089e-07 7.85591e-07 3.40969e-08)
(4.27085e-08 9.31055e-08 2.05262e-09)
(3.2278e-09 3.7547e-09 3.79049e-11)
(1.49004e-10 1.32608e-10 1.13339e-12)
(5.75839e-12 4.47557e-12 6.03855e-13)
(1.87003e-13 5.13021e-13 2.47946e-13)
(1.07741e-08 3.53731e-08 1.11506e-09)
(1.56207e-09 3.23168e-09 4.91716e-11)
(1.14596e-10 1.48343e-10 1.13602e-12)
(5.4876e-12 5.68063e-12 3.87463e-14)
(2.07553e-13 1.82932e-13 9.89926e-15)
(3.2482e-15 9.71134e-15 2.70683e-15)
(4.04672e-10 1.37122e-09 3.75068e-11)
(5.36822e-11 1.11416e-10 1.62766e-12)
(3.80993e-12 5.40802e-12 5.28218e-14)
(1.7226e-13 2.05052e-13 3.8669e-16)
(2.7643e-15 2.92812e-15 0)
(0 0 0)
(1.40319e-11 4.55008e-11 1.28412e-12)
(1.68156e-12 3.49274e-12 6.07103e-14)
(1.04928e-13 1.72464e-13 2.32014e-16)
(1.07748e-15 2.78417e-15 0)
(0 0 0)
(0 0 0)
(184.93 274.388 193.193)
(0.203715 0.204821 0.283379)
(0.000468371 0.000411456 0.000488538)
(4.66167e-06 3.85756e-06 4.9122e-06)
(1.5472e-07 1.79849e-07 1.41491e-07)
(9.91388e-09 1.04605e-08 1.545e-08)
(0.000583107 0.00124733 0.000702184)
(0.0167924 0.0300245 0.0132931)
(1.27348e-05 1.50455e-05 7.95917e-06)
(4.70256e-07 2.72757e-07 1.40839e-07)
(1.39976e-08 7.66427e-09 2.66772e-09)
(5.14033e-10 5.90176e-10 5.18451e-10)
(4.11246e-05 0.00010347 4.592e-05)
(5.69693e-06 9.35187e-06 3.58939e-06)
(4.98305e-07 6.25235e-07 2.13676e-07)
(2.52295e-08 1.86707e-08 6.18159e-09)
(8.98543e-10 5.44741e-10 1.41647e-10)
(2.98542e-11 2.95367e-11 1.60678e-11)
(1.60322e-06 4.36662e-06 1.42322e-06)
(2.69192e-07 5.05192e-07 1.73145e-07)
(2.25977e-08 2.86157e-08 8.84267e-09)
(1.19881e-09 1.05365e-09 3.15763e-10)
(4.6866e-11 3.39187e-11 8.57338e-12)
(1.56192e-12 1.43904e-12 5.26053e-13)
(7.38715e-08 2.2198e-07 7.02177e-08)
(1.10991e-08 2.2376e-08 6.89654e-09)
(9.15746e-10 1.24047e-09 3.49221e-10)
(4.94701e-11 5.04044e-11 1.36681e-11)
(2.01883e-12 1.70208e-12 3.82746e-13)
(6.55826e-14 5.69993e-14 1.18327e-14)
(2.99655e-09 9.53192e-09 2.85723e-09)
(4.24658e-10 8.87592e-10 2.48713e-10)
(3.4093e-11 4.94584e-11 1.2827e-11)
(1.84605e-12 2.10601e-12 5.11745e-13)
(7.19224e-14 6.55675e-14 8.66185e-15)
(0 0 0)
(1.15058e-10 3.70736e-10 1.0361e-10)
(1.51799e-11 3.25669e-11 8.37671e-12)
(1.15869e-12 1.81223e-12 4.21337e-13)
(5.47595e-14 7.3698e-14 9.3579e-15)
(0 0 0)
(0 0 0)
(4.06334e-12 1.27166e-11 3.39324e-12)
(4.818e-13 1.06185e-12 2.365e-13)
(2.98106e-14 5.41366e-14 6.26438e-15)
(0 0 0)
(0 0 0)
(0 0 0)
(0.000438164 0.000579739 0.000746495)
(0.000105461 9.10203e-05 0.000177452)
(8.48219e-06 6.31044e-06 9.30976e-06)
(3.8218e-07 2.15807e-07 2.09406e-07)
(1.70597e-08 1.13744e-08 8.50142e-09)
(7.6098e-10 5.68768e-10 5.21426e-10)
(4.71473e-05 7.77748e-05 8.81979e-05)
(7.90754e-06 9.99995e-06 9.48718e-06)
(6.57611e-07 5.96365e-07 5.66986e-07)
(3.50969e-08 2.17122e-08 1.79857e-08)
(1.66297e-09 9.74789e-10 7.94426e-10)
(6.21672e-11 4.36749e-11 3.0537e-11)
(2.99024e-06 6.20972e-06 4.38462e-06)
(4.34606e-07 6.6121e-07 4.45702e-07)
(3.72887e-08 4.03202e-08 2.6499e-08)
(2.2241e-09 1.75962e-09 1.11114e-09)
(1.06369e-10 7.54674e-11 4.34037e-11)
(3.99404e-12 3.02709e-12 1.59007e-12)
(1.46151e-07 3.72917e-07 2.04201e-07)
(2.09026e-08 3.66258e-08 2.01392e-08)
(1.79e-09 2.19488e-09 1.15702e-09)
(1.0598e-10 1.01766e-10 5.0225e-11)
(5.06696e-12 4.34644e-12 1.89625e-12)
(1.9551e-13 1.62853e-13 5.94729e-14)
(6.53884e-09 1.79914e-08 8.59851e-09)
(9.03667e-10 1.7225e-09 8.12977e-10)
(7.65385e-11 1.03745e-10 4.64693e-11)
(4.53404e-12 4.97435e-12 2.07026e-12)
(2.04675e-13 1.97219e-13 6.73614e-14)
(3.8669e-15 2.46921e-15 3.09352e-16)
(2.7568e-10 7.86812e-10 3.39571e-10)
(3.63859e-11 7.27967e-11 3.02838e-11)
(2.99573e-12 4.40277e-12 1.72665e-12)
(1.65111e-13 2.02883e-13 6.94495e-14)
(3.37618e-15 3.23944e-15 4.64028e-16)
(0 0 0)
(1.08398e-11 3.19341e-11 1.24815e-11)
(1.34435e-12 2.81893e-12 1.03826e-12)
(9.44313e-14 1.5782e-13 4.99603e-14)
(1.68965e-15 2.77681e-15 2.32014e-16)
(0 0 0)
(0 0 0)
(3.69212e-13 1.14296e-12 4.02446e-13)
(3.6539e-14 9.11041e-14 2.48255e-14)
(1.54676e-16 1.08273e-15 0)
(0 0 0)
(0 0 0)
(0 0 0)
(5.54443e-06 7.91017e-06 1.51904e-05)
(2.911e-06 2.30884e-06 4.40538e-06)
(2.97884e-07 2.03869e-07 3.7281e-07)
(2.00224e-08 1.21385e-08 1.63507e-08)
(1.09235e-09 6.77884e-10 7.39805e-10)
(5.20492e-11 3.453e-11 3.56533e-11)
(2.21608e-06 3.26131e-06 4.30984e-06)
(3.23378e-07 3.48215e-07 4.86392e-07)
(2.90924e-08 2.39649e-08 3.09163e-08)
(1.8052e-09 1.23285e-09 1.36807e-09)
(9.37126e-11 6.19803e-11 6.0549e-11)
(4.16016e-12 2.96979e-12 2.54349e-12)
(1.51114e-07 2.98268e-07 2.97841e-07)
(2.12298e-08 2.99725e-08 2.93704e-08)
(1.86884e-09 1.92752e-09 1.79517e-09)
(1.17259e-10 9.90006e-11 8.57179e-11)
(6.12203e-12 4.76127e-12 3.78531e-12)
(2.62176e-13 1.97395e-13 1.40755e-13)
(8.15082e-09 1.8751e-08 1.48499e-08)
(1.11553e-09 1.83017e-09 1.4277e-09)
(9.76174e-11 1.17092e-10 8.7279e-11)
(6.14715e-12 6.13701e-12 4.28398e-12)
(3.06171e-13 2.72515e-13 1.73701e-13)
(8.04315e-15 4.93388e-15 2.70683e-15)
(3.95152e-10 9.80941e-10 6.60315e-10)
(5.22223e-11 9.34993e-11 6.1523e-11)
(4.47587e-12 6.00845e-12 3.77131e-12)
(2.62143e-13 3.04545e-13 1.7401e-13)
(8.26212e-15 7.08938e-15 3.17086e-15)
(0 0 0)
(1.74829e-11 4.60717e-11 2.72139e-11)
(2.218e-12 4.23448e-12 2.42942e-12)
(1.72379e-13 2.55554e-13 1.35032e-13)
(5.20964e-15 7.39768e-15 2.70683e-15)
(0 0 0)
(0 0 0)
(6.86916e-13 1.94576e-12 1.02211e-12)
(7.22539e-14 1.6219e-13 7.74927e-14)
(1.9943e-15 4.31833e-15 1.54676e-15)
(0 0 0)
(0 0 0)
(0 0 0)
(1.53129e-14 6.68218e-14 2.72044e-14)
(0 1.08273e-15 4.64028e-16)
(0 0 0)
(0 0 0)
(0 0 0)
(0 0 0)
(6.56258e-07 6.56357e-07 1.69429e-06)
(1.09217e-07 8.65473e-08 2.02887e-07)
(1.13333e-08 7.83984e-09 1.58832e-08)
(8.56444e-10 5.49975e-10 8.97422e-10)
(5.33186e-11 3.33225e-11 4.67327e-11)
(2.73776e-12 1.76408e-12 2.28538e-12)
(8.1548e-08 1.1543e-07 2.05035e-07)
(1.2133e-08 1.25857e-08 2.14696e-08)
(1.14369e-09 9.41774e-10 1.43151e-09)
(7.81158e-11 5.76868e-11 7.56598e-11)
(4.50874e-12 3.19673e-12 3.71392e-12)
(2.1469e-13 1.45095e-13 1.55991e-13)
(6.20218e-09 1.13134e-08 1.42639e-08)
(8.67197e-10 1.16271e-09 1.41155e-09)
(7.92034e-11 8.08825e-11 9.17529e-11)
(5.29609e-12 4.68091e-12 4.88312e-12)
(2.79069e-13 2.25687e-13 2.20568e-13)
(8.66185e-15 3.85639e-15 4.87229e-15)
(3.71912e-10 7.81472e-10 7.7709e-10)
(4.98683e-11 7.72865e-11 7.46255e-11)
(4.44365e-12 5.29359e-12 4.85443e-12)
(2.77871e-13 2.82889e-13 2.46244e-13)
(9.78585e-15 7.85995e-15 6.80574e-15)
(0 0 0)
(1.92466e-11 4.45676e-11 3.73147e-11)
(2.47662e-12 4.23864e-12 3.44634e-12)
(1.98079e-13 2.7096e-13 2.07575e-13)
(7.34464e-15 9.24382e-15 6.49639e-15)
(0 0 0)
(0 0 0)
(8.617e-13 2.19473e-12 1.60017e-12)
(9.60046e-14 1.87144e-13 1.3248e-13)
(3.05828e-15 6.47399e-15 4.25359e-15)
(0 0 0)
(0 0 0)
(0 0 0)
(2.36654e-14 8.72896e-14 5.49814e-14)
(7.71016e-16 1.85226e-15 1.23741e-15)
(0 0 0)
(0 0 0)
(0 0 0)
(0 0 0)
(0 0 1.66893e-16)
(0 0 0)
(0 0 0)
(0 0 0)
(0 0 0)
(0 0 0)
(2.24648e-08 2.26005e-08 6.33528e-08)
(3.72426e-09 3.03985e-09 7.48631e-09)
(4.0727e-10 2.92719e-10 6.01314e-10)
(3.31255e-11 2.22466e-11 3.8446e-11)
(2.21734e-12 1.40152e-12 2.18201e-12)
(1.13687e-13 6.21797e-14 1.05489e-13)
(2.84061e-09 3.79254e-09 7.4237e-09)
(4.22024e-10 4.35054e-10 7.84195e-10)
(4.16021e-11 3.53209e-11 5.56396e-11)
(3.04505e-12 2.37025e-12 3.27666e-12)
(1.72729e-13 1.21266e-13 1.70298e-13)
(4.02158e-15 6.18704e-16 3.8669e-15)
(2.33638e-10 3.96509e-10 5.49116e-10)
(3.24073e-11 4.17972e-11 5.48646e-11)
(3.03023e-12 3.11873e-12 3.78422e-12)
(1.96027e-13 1.77568e-13 2.13298e-13)
(5.8419e-15 2.93884e-15 6.49639e-15)
(0 0 0)
(1.49748e-11 2.95959e-11 3.22665e-11)
(1.96816e-12 2.94132e-12 3.0953e-12)
(1.6105e-13 1.94892e-13 2.10591e-13)
(5.38136e-15 5.25898e-15 7.7338e-15)
(0 0 0)
(0 0 0)
(7.90858e-13 1.76766e-12 1.63191e-12)
(8.76649e-14 1.54985e-13 1.45395e-13)
(2.91919e-15 4.94963e-15 5.41366e-15)
(0 0 0)
(0 0 0)
(0 0 0)
(2.58309e-14 8.12158e-14 6.82121e-14)
(1.0801e-15 1.85611e-15 2.39748e-15)
(0 0 0)
(0 0 0)
(0 0 0)
(0 0 0)
(0 1.77408e-16 3.90129e-16)
(0 0 0)
(0 0 0)
(0 0 0)
(0 0 0)
(0 0 0)
(0 0 0)
(0 0 0)
(0 0 0)
(0 0 0)
(0 0 0)
(0 0 0)
(0.00154174 -0.000602019 2.95636e-05)
(3.45283e-05 -2.63631e-05 7.85518e-07)
(0.00100345 -0.000457357 0.000185823)
(3.4242e-05 -3.12589e-05 5.85615e-06)
(7.6818e-06 -4.9954e-06 1.4948e-07)
(-2.54421e-06 -5.82389e-07 3.83945e-08)
(7.26566e-06 -4.82043e-06 1.12425e-06)
(-1.52696e-06 -4.85412e-07 2.52827e-07)
(-2.90576e-05 -1.65072e-06 4.8489e-07)
(-0.0162274 0.00941032 0.000155322)
(-1.81968e-05 -2.13983e-06 2.3034e-06)
(-0.0102016 0.00587111 0.00144809)
(28.5059 175.211 4.28277)
(-0.118261 0.102306 0.00120723)
(-0.161526 5.41175 0.0470813)
(27.5752 172.423 19.1795)
(-0.0774125 0.0669205 0.0102294)
(-0.0184067 3.46121 0.370146)
(181.124 324.737 5.7306)
(0.574149 6.01524 0.0523335)
(0.197285 0.420495 0.00334112)
(53.3996 304.123 30.2096)
(175.923 311.676 35.1113)
(0.429791 3.58969 0.407306)
(0.0833468 0.177132 0.0244531)
(0.000223484 -2.85354e-05 8.72536e-06)
(0.00205026 0.00027103 6.22646e-05)
(0.000201253 1.75351e-05 5.75013e-06)
(0.00169398 -0.000200851 0.000239286)
(0.000168096 -1.80916e-05 1.88476e-05)
(0.00155034 0.000208825 0.000221522)
(0.000153196 9.93474e-06 2.21835e-05)
(-4.51239e-06 6.34925e-07 1.35086e-07)
(1.81901e-05 2.99745e-07 4.77894e-07)
(1.5725e-06 -8.29303e-07 1.03476e-07)
(1.4552e-05 -1.70422e-06 1.85579e-06)
(-3.33333e-06 4.27521e-07 4.42899e-07)
(1.36582e-05 -1.98442e-07 2.11161e-06)
(1.45846e-06 -9.07203e-07 3.38811e-07)
(-0.001763 0.00132697 4.47067e-05)
(-1.11288e-05 7.53185e-06 2.55876e-07)
(-0.000136557 0.000153356 3.61516e-06)
(-8.75272e-05 3.5163e-05 5.99091e-06)
(-0.00149338 0.00110833 0.000162035)
(-8.15844e-06 5.47841e-06 1.14754e-06)
(-0.000110362 0.000123525 1.79066e-05)
(-0.00397079 0.582893 0.00438108)
(-0.000767994 0.00165604 3.16221e-05)
(-3.92887e-05 0.00403035 8.92151e-05)
(-0.0119931 0.0133123 0.00214548)
(0.00256773 0.359033 0.0382691)
(-0.000633667 0.00148212 0.000157614)
(-1.50407e-05 0.00298978 0.000312954)
(0.000705275 -0.000304326 0.000133312)
(1.80541e-05 -1.47961e-05 4.61611e-06)
(6.79349e-06 -6.50553e-06 1.61357e-06)
(3.80937e-06 -2.34911e-06 1.03618e-06)
(-8.23192e-07 -1.87875e-07 1.34758e-07)
(1.38512e-06 -9.76357e-07 2.51787e-07)
(-1.24157e-07 -8.48515e-08 4.18379e-08)
(-1.04689e-05 -5.09749e-07 1.50331e-06)
(-0.00729589 0.00427414 0.00080686)
(-1.87952e-06 -3.81423e-07 4.60554e-07)
(-0.00152196 0.000889548 0.000433316)
(23.1825 165.929 30.4125)
(-0.056936 0.0498993 0.00895626)
(0.0213065 2.53368 0.337712)
(18.4423 151.803 35.1334)
(-0.0137007 0.0119873 0.00385544)
(0.0325966 0.60679 0.12514)
(118.051 142.912 35.7306)
(0.350923 2.48448 0.349733)
(0.0452851 0.0935455 0.0152358)
(114.807 245.042 67.042)
(12.6257 16.0424 5.66701)
(0.111977 0.44179 0.0965668)
(0.00336116 0.00597744 0.00179298)
(9.70381e-05 -1.04723e-05 2.25801e-05)
(0.000834721 0.000149715 0.000175466)
(8.13523e-05 6.78966e-06 1.77443e-05)
(4.05419e-05 -3.68692e-06 6.57251e-06)
(0.000435876 6.82895e-05 0.000108972)
(3.7851e-05 -7.01788e-07 9.12708e-06)
(-1.47609e-06 1.95797e-07 4.06487e-07)
(6.86436e-06 1.55686e-07 1.21767e-06)
(7.38257e-07 -3.98709e-07 2.21078e-07)
(3.11223e-06 -3.83317e-07 4.28768e-07)
(-3.40255e-07 2.08854e-08 1.0414e-07)
(3.11028e-06 -4.25685e-07 7.62428e-07)
(3.95265e-07 -2.80518e-07 1.3251e-07)
(-0.00084841 0.000622921 0.00016913)
(-3.76245e-06 2.54488e-06 5.60558e-07)
(-5.76026e-05 6.3592e-05 9.75899e-06)
(-1.32955e-05 5.2498e-06 2.48948e-06)
(-0.000352842 0.000262003 8.72074e-05)
(-1.13095e-06 7.03812e-07 3.79761e-07)
(-1.97895e-05 2.09382e-05 7.83371e-06)
(0.00390249 0.253378 0.0327795)
(-0.000384929 0.000927597 0.000111125)
(1.94097e-05 0.00169002 0.000168826)
(-0.00408552 0.00742186 0.00162881)
(0.0024419 0.0507645 0.0106297)
(-0.000191028 0.000464302 0.00011726)
(1.04675e-05 0.000815958 0.000191963)
(2.75031e-06 -2.35481e-06 -2.06068e-07)
(0.00019437 7.49467e-05 -0.000370936)
(6.88304e-07 -5.34913e-07 -1.37271e-07)
(-2.91733e-08 -2.06876e-08 7.28122e-09)
(5.21781e-05 2.55937e-05 -0.000103284)
(1.16349e-06 -2.46835e-07 -1.71964e-06)
(-6.03304e-07 -4.4668e-08 1.48144e-07)
(-0.000731396 0.000440375 0.000162654)
(1.7e-07 -3.67871e-08 -2.49498e-07)
(-2.76817e-05 1.50967e-05 1.03133e-05)
(19.5304 158.28 44.904)
(-0.00687782 0.00626781 0.00188537)
(0.0240901 0.304767 0.065306)
(15.2239 67.6145 27.4366)
(-0.000320509 0.000262246 0.000136382)
(0.00317261 0.0152794 0.0060932)
(3.61441 4.53564 1.70893)
(0.0540647 0.195333 0.042755)
(0.00154814 0.00240491 0.000505323)
(9.83204 15.7222 6.60969)
(0.0315702 0.0327297 0.015323)
(0.00173915 0.00628867 0.00263788)
(0.00060444 0.000913119 0.000364084)
(2.29715e-05 5.5343e-07 -1.31257e-05)
(0.000151557 3.7246e-05 1.36843e-05)
(1.52998e-05 2.17538e-06 -1.17878e-06)
(0.000171639 0.000128858 -0.000344547)
(0.000145618 0.000175891 -0.000186238)
(3.35683e-05 4.14758e-05 -5.10633e-05)
(1.15594e-07 -6.60381e-09 -1.58879e-07)
(1.42041e-06 1.81219e-07 -3.36811e-07)
(2.19344e-07 -9.89934e-08 -3.58415e-08)
(2.90348e-05 1.70317e-05 -5.13275e-05)
(3.61322e-06 1.53167e-06 -5.50571e-06)
(5.88008e-06 6.48695e-06 -8.35318e-06)
(9.37647e-07 5.20961e-07 -9.59663e-07)
(-7.44832e-05 5.56429e-05 2.07919e-05)
(-2.08899e-07 1.43036e-07 6.27935e-08)
(-4.13967e-06 4.35552e-06 1.30103e-06)
(-4.26378e-08 1.2524e-07 -1.40925e-07)
(-9.66338e-06 7.17267e-06 3.44808e-06)
(6.13873e-08 4.23434e-08 -5.42538e-08)
(-5.97228e-07 5.87897e-07 3.20442e-07)
(0.00147714 0.0219663 0.00444605)
(-4.4756e-05 0.000104148 2.27645e-05)
(2.19408e-06 0.000357328 6.63071e-05)
(-0.000170125 0.000329949 0.000105604)
(-5.77464e-06 0.00190389 0.000510242)
(-7.01164e-06 1.60833e-05 6.97621e-06)
(-6.02771e-08 7.66699e-05 2.77485e-05)
(0.00231091 0.00166619 -0.00445663)
(2.87041 5.00761 -3.56466)
(0.000659961 0.000513556 -0.00124316)
(1.7208e-05 -7.22487e-07 -2.38137e-05)
(1.01615 1.71273 -1.22881)
(0.0191035 0.0306928 -0.0216879)
(2.55177e-06 4.08651e-07 -3.33745e-06)
(-6.55657e-06 3.8155e-06 2.36149e-06)
(0.00361895 0.0057731 -0.00379923)
(2.44867e-05 4.382e-05 -2.85411e-05)
(3.19192 10.0003 4.37594)
(-7.81462e-05 6.75766e-05 3.36015e-05)
(0.000788369 0.00363951 0.00112717)
(0.0236579 0.0527097 0.0279688)
(3.73446e-06 7.43378e-06 -4.45257e-06)
(-8.44461e-06 2.28665e-05 1.36414e-05)
(0.00466714 0.00463585 0.0024467)
(0.000434586 0.0015099 0.000524824)
(0.000148408 0.000219467 0.000112294)
(0.00592438 0.00814865 0.00498625)
(0.000231969 0.000251793 0.000191655)
(5.46275e-05 0.000154374 9.32295e-05)
(1.03513e-05 1.76064e-05 1.15227e-05)
(0.002717 0.00454344 -0.00447192)
(0.00134747 0.00247016 -0.00191329)
(0.000356685 0.000600673 -0.000480696)
(0.914022 1.81302 -1.11536)
(0.00706111 0.022315 -0.00644233)
(0.00939083 0.0221219 -0.00916198)
(9.981e-05 9.75926e-05 -0.000144829)
(6.80487e-05 9.67028e-05 -8.52049e-05)
(1.29945e-05 1.39692e-05 -1.54897e-05)
(0.110428 0.201019 -0.119676)
(0.00195353 0.00323219 -0.00157422)
(0.000595933 0.00106478 -0.000424936)
(0.000120266 0.000224408 -7.12841e-05)
(-2.87635e-07 4.42713e-07 1.05235e-07)
(1.37211e-06 1.02684e-06 -1.17762e-06)
(7.25474e-08 3.43366e-08 -2.78908e-08)
(0.000209729 0.000214283 -0.000114036)
(1.01785e-05 7.87746e-06 -4.67901e-06)
(1.07875e-05 1.21211e-05 -3.96298e-06)
(6.92603e-07 5.00955e-07 -2.06704e-07)
(-2.89538e-06 0.000144214 5.42555e-05)
(-4.12916e-07 9.66395e-07 5.14698e-07)
(-1.86394e-07 4.96646e-06 2.22236e-06)
(3.47813e-08 8.49801e-07 3.63034e-07)
(-3.75489e-07 4.85574e-06 3.07703e-06)
(1.70463e-08 4.37754e-08 1.89953e-08)
(-1.45124e-08 1.80751e-07 1.28447e-07)
(129.632 185.75 38.5456)
(3.61917 7.1287 -0.988103)
(0.0665103 0.132657 -0.00895471)
(175.274 232.717 131.718)
(46.376 54.2553 37.5369)
(1.06288 1.89018 0.822953)
(0.00636814 0.00953204 0.00433732)
(1.05339 2.0212 0.829694)
(0.0145868 0.0307786 -0.00261298)
(0.000129038 0.000315335 -1.95537e-05)
(1.19431 1.52539 0.994454)
(0.0235821 0.0343285 0.0251625)
(0.00154638 0.00265113 0.00130367)
(0.000523302 0.000730774 0.00027343)
(0.000133489 0.000290121 0.000193339)
(2.31166e-05 5.6853e-05 -3.00833e-06)
(-6.30744e-07 1.70347e-06 1.42782e-06)
(0.000725446 0.00111364 0.000807172)
(8.86427e-05 9.91581e-05 5.45839e-05)
(5.05053e-05 7.93671e-05 2.26648e-05)
(4.15488e-06 5.32051e-06 1.14961e-06)
(659.847 189.61 16.6551)
(22.0411 6.80699 4.73713)
(0.240826 0.0621148 0.0649856)
(451.489 136.827 290.35)
(0.000459998 6.4681e-05 0.000201047)
(438.272 151.785 453.851)
(448.425 63.2827 485.651)
(0.000177835 0.00011344 0.00016672)
(4.06738e-06 8.17346e-07 3.18432e-06)
(185.335 187.127 283.443)
(1.25198 1.09322 1.81018)
(0.000912546 0.000779745 0.00135986)
(3.6895e-05 2.51532e-05 5.48423e-05)
(3.55272e-06 1.44084e-06 3.54631e-06)
(2.30888e-07 8.12349e-08 2.10826e-07)
(169.482 96.5244 270.987)
(3.09395 1.35623 4.86998)
(3.30288e-05 1.67705e-05 4.71021e-05)
(3.14427e-06 1.58838e-06 2.95246e-06)
(2.12673e-07 1.02064e-07 1.88505e-07)
(1.06503e-08 4.84825e-09 8.17759e-09)
(0.0150661 0.00829521 0.0359479)
(5.71131e-05 3.77182e-05 0.000102252)
(1.75904e-06 1.05056e-06 2.23999e-06)
(1.58422e-07 8.48803e-08 1.63168e-07)
(1.07121e-08 5.30055e-09 9.37951e-09)
(5.63357e-10 2.77258e-10 4.48121e-10)
(2.93799e-06 2.20924e-06 6.20261e-06)
(5.2443e-07 4.45305e-07 1.14081e-06)
(7.27613e-08 4.68688e-08 1.16778e-07)
(6.7472e-09 3.78989e-09 8.28533e-09)
(4.85048e-10 2.46809e-10 4.88613e-10)
(2.7046e-11 1.36154e-11 2.52407e-11)
(1.11187e-07 9.2571e-08 2.53909e-07)
(1.95076e-08 1.63535e-08 4.44078e-08)
(2.66574e-09 1.80356e-09 4.56687e-09)
(2.59985e-10 1.51182e-10 3.42046e-10)
(1.98179e-11 1.023e-11 2.13676e-11)
(1.15002e-12 5.5374e-13 1.15659e-12)
(153.136 216.996 10.6471)
(152.65 223.679 41.7798)
(590.576 312.958 20.7492)
(375.898 337.814 19.6905)
(458.616 343.069 16.9181)
(602.686 309.188 89.0354)
(428.204 348.645 78.3351)
(465.729 347.425 74.9197)
(140.897 240.269 69.661)
(124.531 246.571 92.3918)
(669.968 201.732 158.777)
(358.977 343.232 158.642)
(451.733 350.372 127.311)
(605.081 177.167 232.621)
(336.71 358.917 204.058)
(388.805 345.762 178.069)
(84.4237 293.738 117.513)
(686.286 192.844 404.272)
(79.1424 239.184 107.683)
(548.227 168.176 235.155)
(313.647 361.081 227.081)
(285.749 258.161 154.393)
(673.533 209.372 365.629)
(132.018 47.1476 72.4684)
(289.444 347.922 221.95)
(176.838 149.673 101.893)
(652.728 161.329 428.413)
(39.472 88.2952 52.2499)
(285.213 42.579 243.266)
(0.450545 0.817889 0.481972)
(23.7317 7.01332 12.3675)
(6.17825 7.92112 4.32734)
(0.0595865 0.048401 0.03016)
(55.5023 13.4395 39.6409)
(0.0137739 0.00143357 0.00886182)
(0.0922752 0.103053 0.071527)
(0.000364654 0.000243828 0.00028877)
(182.37 200.556 85.399)
(210.615 262.419 192.271)
(220.833 258.356 98.0974)
(220.977 264.072 100.81)
(260.285 218.5 345.438)
(372.574 178.34 402.921)
(262.178 267.057 216.358)
(160.632 174.533 134.82)
(482.104 85.2566 510.025)
(126.709 157.816 63.7499)
(14.2024 21.8516 11.5867)
(370.951 155.242 411.241)
(266.3 91.2207 321.877)
(12.4696 13.8073 11.4232)
(0.262525 0.350586 0.31939)
(51.3763 6.56315 48.1491)
(0.871872 1.60735 0.873952)
(0.00257078 0.00396883 0.00331111)
(51.7933 10.6588 68.7242)
(0.0037468 0.00033176 0.00553915)
(0.00667639 0.00953727 0.00943266)
(0.000251353 0.000220509 0.000241464)
(195.691 279.636 150.632)
(165.244 241.446 43.4343)
(40.8828 76.2344 1.63755)
(96.4306 154.735 66.5404)
(160.669 236.597 46.1863)
(154.69 218.49 36.1569)
(140.281 202.749 26.8654)
(82.0656 125.556 15.5599)
(96.2717 167.139 6.71606)
(67.0024 111.226 5.47555)
(116.676 194.602 20.2759)
(4.56184 7.90709 2.91226)
(25.6961 38.7659 6.31001)
(7.19544 12.2352 2.00413)
(0.353965 0.695937 0.221613)
(2.40997 4.3229 0.365419)
(0.588858 1.15558 0.104719)
(1.72889 3.10486 0.822148)
(0.0091698 0.0183785 0.00798993)
(0.145827 0.323961 0.0462952)
(0.0275306 0.0667076 0.0090025)
(0.000545245 0.0011022 0.000308479)
(0.00811405 0.0199782 0.00183676)
(0.00138671 0.00350059 0.00032435)
(0.00315007 0.00708517 0.0025427)