/*--------------------------------*- C++ -*----------------------------------*\
  =========                 |
  \\      /  F ield         | OpenFOAM: The Open Source CFD Toolbox
   \\    /   O peration     | Website:  https://openfoam.org
    \\  /    A nd           | Version:  9
     \\/     M anipulation  |
\*---------------------------------------------------------------------------*/
FoamFile
{
    format      ascii;
    class       volScalarField;
    location    "0.0031";
    object      T;
}
// * * * * * * * * * * * * * * * * * * * * * * * * * * * * * * * * * * * * * //

dimensions      [0 0 0 1 0 0 0];

internalField   nonuniform List<scalar> 
25813
(
430.871
427.389
320.242
417.599
287.93
287.997
287.926
287.926
435.427
490.197
434.558
429.501
287.953
287.935
287.928
287.927
497.305
432.069
477.721
431.054
477.334
434.742
494.536
433.08
434.818
497.518
428.974
460.112
431.772
476.064
466.856
430.235
467.045
426.075
425.344
445.263
444.836
449.116
430.438
460.862
424.34
439.627
419.424
435.664
496.414
493.71
493.297
469.119
468.801
464.619
464.676
495.221
491.737
492.414
467.511
468.094
464.086
463.504
496.884
493.288
491.514
468.773
467.363
463.921
461.796
494.614
481.869
487.754
460.08
464.477
458.093
453.234
477.794
485.83
486.424
458.233
450.907
451.344
457.72
486.961
478.074
486.97
458.589
451.24
451.575
458.395
485.907
472.511
483.107
449.855
457.218
454.634
447.125
496.105
475.338
587.859
496.017
585.93
454.726
453.989
543.659
543.997
494.078
573.962
586.038
451.592
454.956
541.758
538.852
584.816
574.353
575.266
555.694
556.503
542.871
542.242
587.228
576.324
576.122
557.531
557.336
543.373
543.215
587.766
575.424
556.658
572.325
553.668
541.635
537.654
581.629
557.267
566.292
539.101
547.835
530.862
521.602
560.245
544.192
560.956
526.902
509.35
509.718
526.425
496.409
526.219
526.764
512.174
482.501
511.787
482.782
561.337
544.463
561.493
527.16
509.122
509.792
526.721
526.987
496.601
527.205
512.358
482.055
511.851
482.783
559.699
536.921
555.578
506.633
524.6
519.995
501.721
525.397
489.859
521.523
479.665
509.71
505.199
475.177
519.539
548.527
529.326
512.799
485.787
494.526
503.598
483.414
506.073
514.973
498.25
461.341
489.469
468.832
496.224
468.424
454.987
479.732
479.999
495.926
468.673
496.241
467.712
454.871
479.069
479.923
495.521
468.577
465.209
476.489
493.055
488.306
447.608
471.825
460.81
467.019
471.457
478.221
450.761
438.833
443.275
445.977
448.434
473.31
458.227
465.467
437.667
442.655
481.477
446.919
435.227
446.862
443.59
434.276
443.544
434.044
434.631
372.973
336.456
427.572
378.405
344.029
428.314
446.444
434.29
445.978
443.222
433.029
442.754
433.516
467.39
455.967
456.262
443.904
444.29
437.333
436.941
455.483
467.467
456.228
443.967
444.42
437.438
436.951
432.721
350.725
364.429
421.274
310.639
331.425
426.415
435.33
445.055
446.417
434.155
442.846
441.188
433.636
449.536
464.777
453.301
442.447
439.739
435.486
433.05
439.328
431.508
434.66
431.978
435.106
438.867
432.459
433.995
439.882
442.816
438.736
431.824
435.718
432.813
439.634
433.183
435.137
431.945
435.36
439.468
432.963
455.402
444.695
439.573
432.386
436.194
430.091
427.439
715.719
609.809
705.273
618.062
614.067
707.238
584.145
584.564
717.139
618.57
722.294
709.266
582.266
558.78
716.79
701.154
706.139
713.864
690.606
714.771
691.629
696.714
695.966
706.633
691.53
716.402
715.534
691.888
696.848
696.364
714.008
691.384
718.01
720.623
692.32
695.522
694.384
719.708
691.463
720.662
722.493
693.297
691.768
685.711
717.342
716.243
718.117
694.085
684.946
685.238
693.567
617.15
654.389
654.013
655.416
611.698
655.155
611.345
651.087
615.502
652.76
654.739
609.081
653.553
610.258
716.831
719.629
718.886
694.127
684.095
685.122
693.452
654.541
618.157
654.567
611.211
654.057
651.786
608.952
720.378
714.949
720.74
681.599
691.825
688.815
676.875
649.524
615.646
653.548
647.389
595.717
639.687
603.98
713.474
710.154
719.141
683.292
657.329
668.966
674.028
648.646
635.807
598.723
584.768
636.265
647.886
599.604
648.922
600.157
585.097
635.067
636.235
648.191
600.278
598.701
632.041
646.046
641.948
577.36
626.485
594.954
519.044
512.38
579.29
554.513
527.324
521.549
564.581
571.16
513.585
532.225
533.46
516.374
518.124
537.431
535.664
514.615
538.294
534.504
526.014
520.514
539.603
544.256
570.18
572.939
551.516
571.182
552.518
556.267
574.746
558.168
573.563
553.879
558.7
584.145
563.808
577.873
523.664
528.696
531.436
546.305
540.164
542.172
548.764
534.293
544.472
536.277
545.275
559.658
552.744
551.029
558.609
583.192
576.858
560.736
585.882
567.089
579.207
590.638
583.21
598.504
578.172
590.296
570.076
564.032
607.311
731.223
719.74
692.334
619.808
696.981
601.385
724.566
615.518
671.077
701.899
619.169
726.614
724.578
635.78
687.05
590.753
594.418
591.868
596.372
620.845
628.353
626.386
595.044
628.823
606.94
600.169
623.668
631.861
637.527
613.467
631.867
639.09
637.678
655.69
647.64
663.493
599.446
610.349
602.066
636.915
644.676
647.682
634.311
658.805
693.381
659.791
670.217
703.576
704.999
668.551
652.92
691.532
677.126
658.921
675.123
682.014
697.324
694.812
665.32
661.825
672.852
709.254
676.747
706.829
606.611
623.424
614.001
641.09
658.78
652.35
647.227
672.886
711.376
686.188
713.584
683.886
695.662
720.854
626.335
653.216
644.548
668.253
657.16
672
681.463
715.657
723.024
702.48
709.526
732.958
719.937
728.775
682.437
672.269
665.256
688.763
705.156
695.44
701.876
680.925
689.97
712.832
721.062
692.229
714.327
678.84
683.991
722.749
718.606
699.345
695.387
688.122
716.27
721.958
704.76
694.632
704.457
728.59
712.071
726.642
715.1
730.778
728.681
721.595
718.929
721.987
730.686
635.058
578.4
569.432
605.974
617.807
624.823
588.216
619.89
474.167
457.901
499.99
492.44
531.27
514.486
532.197
492.786
489.766
634.898
467.64
635.686
550.454
637.992
538.349
459.606
461.451
462.012
476.203
473.987
478.512
472.112
473.804
513.724
521.58
491.194
540.536
496.671
544.228
466.136
473.332
465.528
481.461
492.924
484.117
489.888
473.64
493.325
474.591
484.198
497.363
481.32
499.273
534.037
481.057
528.527
510.158
502.416
546.899
549.873
633.356
576.763
580.752
634.89
590.965
591.456
632.583
581.323
628.28
582.093
590.501
620.84
589.323
627.347
483.268
494.478
476.51
488.544
509.938
497.278
502.552
492.541
493.215
518.954
505.22
509.625
498.224
487.886
515.806
541.262
576.89
560.816
519.821
561.842
577.394
498.033
512.375
523.763
523.339
514.804
503.896
506.714
506.829
514.67
504.533
496.725
517.798
510.514
507.363
530.872
544.502
524.074
562.746
581.612
578.325
565.4
643.798
613.81
602.529
601.656
641.121
612.777
635.285
600.25
626.381
612.699
637.607
611.916
599.863
630.574
502.165
520.623
524.736
523.19
515.874
511.245
512.155
597.559
537.242
540.242
609.936
501.143
646.791
604.712
636.099
560.071
487.046
577.401
514.304
597.208
543.423
611.64
525.856
539.179
513.766
544.499
521.013
554.817
561.788
533.726
486.58
502.569
505.208
505.887
503.796
523.441
522.034
579.609
602.371
577.674
615.659
589.249
590.965
613.184
497.993
535.556
518.692
524.561
512.234
532.833
545.976
581.326
598.099
577.977
594.741
614.493
601.255
612.507
519.465
546.584
526.388
545.213
559.128
565.763
540.584
559.726
526.448
550.984
570.797
562.921
582.083
547.67
624.917
616.374
601.71
606.29
638.27
622.619
625.589
541.064
588.601
571.241
580.03
573.051
598.723
553.777
560.661
557.96
540.756
555.598
589.638
576.05
569.225
524.775
537.049
520.943
540.468
560.008
556.055
541.631
539.025
535.337
547.111
546.3
568.114
559.553
556.648
612.459
631.172
638.474
641.701
630.088
620.655
627.15
590.936
584.554
622.504
588.581
610.558
603.33
568.507
562.187
578.992
578.701
597.636
577.814
582.508
560.55
569.218
600.855
602.224
591.503
582.348
589.603
580.214
650.401
592.138
531.437
591.317
592.362
558.763
611.595
669.575
551.638
549.385
539.05
567.951
559.687
555.588
574.636
573.448
607.426
588.953
602.567
582.668
596.983
616.68
569.326
609.896
587.575
596.441
575.159
593.799
615.489
548.041
579.487
568.889
572.674
563.096
582.8
592.685
627.599
631.324
608.701
615.893
657.174
635.662
637.654
612.508
602.728
622.221
605.888
634.625
615.622
625.731
590.818
602.957
581.946
601.133
630.695
610.26
622.207
623.885
663.6
651.189
652.197
632.703
643.582
644.522
433.029
434.272
438.614
436.84
430.955
432.691
432.413
445.576
436.397
436.058
431.075
426.567
427.019
430.654
435.799
445.548
436.414
431.223
427.169
427.303
430.815
434.359
430.31
429.1
429.988
430.772
431.762
431.474
431.522
442.863
434.115
426.613
429.656
427.99
425.9
424.632
327.723
425.892
412.224
292.479
291.167
409.046
430.576
430.789
431.281
428.996
429.542
428.468
429.757
431.538
430.88
431.617
429.472
429.578
429.619
429.852
431.699
426.186
428.667
426.358
425.414
425.448
425.27
331.254
315.613
423.254
290.491
406.633
347.512
288.783
430.969
429.553
429.95
428.843
429.356
428.714
427.821
434.437
432.788
432.909
428.108
427.915
423.956
424.211
427.894
428.492
428.801
428.09
425.732
427.801
426.796
434.769
432.537
432.915
426.084
427.308
423.255
421.936
428.317
428.159
426.103
428.209
428.638
427.815
428.261
428.803
427.784
425.934
429.203
429.057
429.01
428.204
433.858
431.686
430.372
424.247
421.94
420.034
417.754
431.236
427.02
428.761
416.579
419.354
415.233
412.452
426.997
429.085
428.907
428.573
422.995
428.695
425.892
430.159
428.211
430.65
418.909
412.599
414.112
417.493
428.369
430.653
430.733
419.703
415.469
415.042
420.029
428.268
423.322
421.384
427.706
428.24
428.155
424.666
429.163
424.94
427.732
410.595
415.553
413.272
408.189
424.445
423.223
426.108
410.701
401.939
405.344
407.762
425.846
422.575
422.405
409.987
409.507
402.56
403.113
425.504
420.821
421.877
406.834
408.487
401.374
399.451
421.546
419.304
417.47
404.595
401.846
396.832
393.528
419.652
412.714
415.327
394.385
398.518
389.307
383.773
291.357
287.96
287.933
287.931
294.861
292.28
297.374
409.612
377.519
409.116
403.509
369.327
404.048
368.326
406.21
375.728
408.012
402.35
363.247
400.484
366.322
418.311
411.791
418.04
393.391
381.16
380.184
394.097
522.833
421.905
401.42
287.927
287.926
483.567
427.65
287.93
287.926
550.637
441.027
466.427
442.016
508.465
474.117
424.031
455.532
428.751
432.066
424.326
427.926
439.514
452.59
563.317
545.894
528.093
533.135
515.78
510.693
499.018
536.923
506.388
519.807
490.329
503.013
487.228
475.721
527.394
496.893
515.047
476.356
493.261
482.546
466.881
426.414
427.871
437.028
416.804
428.25
423.767
400.4
495.613
457.362
484.495
453.465
479.716
469.732
445.823
475.084
474.142
465.197
454.507
448.436
447.727
441.921
489.982
485.34
502.457
471.973
449.402
457.799
461.881
448.722
462.809
473.414
460.039
433.481
450.966
439.078
465.431
447.022
455.868
436.134
442.156
436.243
431.166
464.612
450.848
433.109
455.99
429.232
443.863
436.365
463.416
445.254
454.884
434.282
440.785
435.607
430.063
600.701
646.021
588.128
719.46
546.272
687.964
635.47
505.543
711.702
685.031
713.663
702.359
674.494
675.402
661.791
661.19
687.029
700.534
672.402
688.273
646.138
629.243
629.85
600.363
641.417
584.459
628.467
614.662
571.169
703.03
671.846
688.989
642.474
660.982
645.326
625.63
609.03
622.674
680.941
633.347
602.315
556.083
652.358
600.661
665.561
666.07
607.948
555.035
593.453
599.233
616.235
654.121
632.69
632.14
664.651
607.223
626.989
679.527
637.47
669.693
590.012
611.805
602.444
620.814
611.126
622.283
629.745
572.212
573.355
587.271
579.158
595.237
608.878
595.76
564.946
572.998
581.544
576.672
583.507
598.326
593.864
577.991
605.887
592.347
605.703
592.846
605.566
616.92
628.397
622.902
615.753
632.892
645.399
641.996
638.156
637.847
646.386
630.151
639.115
657.225
653.131
644.738
622.329
618.265
617.821
632.878
631.841
627.853
641.215
618.326
591.193
603.03
622.252
628.827
635.167
612.243
615.785
633.701
620.113
627.545
634.908
644.507
616.124
608.663
590.829
596.148
610.425
625.023
609.991
620.277
596.368
613.072
614.181
612.186
628.749
612.298
623.943
613.302
615.611
604.132
614.995
629.015
621.587
624.555
646.759
655.704
661.511
665.163
659.237
653.782
650.44
605.441
625.418
616.566
616.282
632.279
624.989
625.673
642.507
673.924
652.783
671.318
650.747
659.72
679.258
626.569
644.767
640.334
637.031
634.104
646.507
648.223
634.938
646.673
639.868
640.455
635.235
647.306
651.179
639.21
647.708
650.096
666.656
655.412
651.175
631.5
621.893
640.045
641.647
637.15
626.638
631.348
629.487
623.228
632.34
634.244
630.465
629.118
627.216
630.765
662.698
679.259
659.458
664.044
680.919
664.415
682.139
676.346
662.508
657.423
664.089
681.535
665.96
681.779
638.826
640.795
638.867
649.856
645.599
650.291
648.532
665.488
677.218
677.755
657.335
663.718
662.643
681.689
712.197
695.128
733.36
683.886
715.405
694.353
687.899
669.025
691.619
702.345
689.345
707.968
695.411
706.534
709.808
695.245
706.78
709.27
693.343
696.403
708.164
702.684
722.851
730.02
724.544
731.32
724.284
722.918
724.449
692.869
694.078
696.241
707.968
708.46
708.565
704.133
715.494
721.759
722.544
717.024
700.782
707.845
713.869
678.569
694.157
688.325
703.672
683.63
695.57
695.05
725.325
718.292
722.843
718.004
702.197
709.648
715.183
708.963
686.422
686.401
682.431
697.295
696.908
701.837
559.338
574.2
616.002
599.325
541.912
583.126
556.792
655.181
672.735
654.088
628.223
589.715
607.854
610.371
566.179
591.752
611.643
596.566
532.852
576.233
552.538
580.551
523.827
519.166
544.152
560.233
564.132
538.275
447.876
427.766
426.187
432.585
437.648
440.629
431.569
432.985
446.67
438.692
430.896
425.17
426.824
427.148
341.467
307.851
420.862
408.912
291.041
419.127
303.577
436.52
430.901
432.994
430.672
432.576
429.9
429.637
442.847
434.623
428.781
430.284
426.296
425.701
424.85
428.243
429.818
430.052
428.162
427.43
427.396
428.605
429.363
427.909
429.52
428.025
426.864
427.322
428.334
431.913
424.621
426.826
424.795
424.963
424.91
425.63
424.439
423.437
425.593
425.789
424.959
425.21
426.729
427.311
426.065
425.758
427.753
427.364
427.357
427.212
423.321
423.165
424.023
426.058
428.513
427.88
427.441
294.853
376.495
320.653
322.45
288.225
299.406
288.003
427.481
425.266
427.528
424.5
427.815
427.981
423.029
425.725
425.234
423.195
413.542
410.125
409.316
405.526
423.851
428.022
427.847
427.902
417.901
427.427
420.976
421.641
427.063
428.002
427.622
413.137
426.084
419.391
423.539
417.931
420.749
400.814
405.994
400.805
394.735
422.446
416.662
420.167
397.733
404.201
399.801
392.318
426.93
411.219
407.924
422.552
424.661
425.685
416.085
414.171
413.411
417.571
394.158
375.067
385.017
386.521
288.137
287.93
288.046
287.929
288.025
287.927
288.18
287.946
288.081
374.005
361.278
367.926
288.131
288.263
380.654
288.054
287.982
369.571
356.798
336.58
288.008
349.548
354.923
361.74
288.085
287.968
293.209
287.98
294.612
287.957
287.94
350.38
330.101
307.148
287.953
319.33
287.943
300.431
310.131
290.139
287.928
287.93
293.565
369.234
403.796
400.872
359.03
397.985
394.895
353.561
416.034
410.78
417.335
391.883
374.936
378.139
389.459
358.335
386.42
338.381
393.342
397.441
391.127
346.689
409.355
389.008
415.121
411.878
404.874
381.778
367.028
414.181
403.617
411.886
370.523
386.1
381.687
364.729
397.144
342.754
358.078
390.113
389.384
397.754
356.923
296.414
289.355
287.928
287.928
288.216
287.948
287.927
380.434
328.709
388.279
330.723
381.818
372.827
318.168
395.868
351.111
385.493
340.232
387.878
393.836
354.623
368.603
395.067
405.494
399.87
409.067
375.977
357.179
346.344
382.219
391.082
387.567
325.196
377.989
340.297
407.454
390.928
398.936
359.553
372.176
354.684
339.062
365.813
377.461
324.427
383.107
318.094
372.624
332.972
335.686
359.057
379.999
388.674
400.903
394.886
346.812
370.808
377.367
374.132
316.337
316.029
313.345
319.229
377.375
379.583
376.316
322.694
318.465
319.578
321.505
287.929
291.46
292.76
288.322
288.204
287.927
287.928
326.447
380.049
379.149
365.58
311.391
366.681
310.373
366.564
364.631
369.876
312.722
306.271
310.004
308.663
373.12
366.837
372.054
314.674
311.319
310.391
315.709
374.444
323.922
377.308
363.329
305.65
359.827
308.403
366.4
364.061
360.872
312.151
309.74
305.796
307.893
287.927
288.394
287.928
287.929
290.784
288.144
287.927
370.517
310.326
365.403
302.365
354.999
348.686
298.957
318.984
362.922
373.551
363.095
299.653
350.497
308.035
362.137
351.176
356.57
303.417
306.751
303.203
300.384
358.335
347.475
350.951
302.407
304.44
300.371
298.782
354.462
360.602
353.279
306.716
305.924
302.204
301.558
357.092
370.323
315.295
361.21
297.695
346.043
306.54
357.401
346.311
354.185
301.792
299.464
303.533
298.141
344.411
341.971
349.839
299.698
294.919
297.478
296.571
294.942
335.276
336.498
346.029
344.817
298.19
297.713
344.71
342.89
337.225
300.053
297.624
296.977
295.137
293.298
299.712
350.392
304.858
358.804
340.735
295.848
309.639
352.844
368.347
375.343
386.699
332.047
316.495
294.009
329.376
332.897
338.972
342.458
296.841
295.68
337.964
322.678
330.435
293.334
295.334
293.417
291.927
291.4
292.31
324.789
334.367
328.653
294.371
293.048
347.52
299.018
326.997
292.24
325.643
348.865
298.439
344.788
295.867
291.779
318.943
322.917
340.633
297.334
292.495
324.645
325.846
314.852
313.807
290.75
290.614
349.504
294.162
318.515
293.603
332.807
335.17
299.191
291.884
319.026
322.338
309.052
311.826
290.362
290.023
313.296
290.546
289.796
314.813
321.99
291.818
290.744
294.256
313.984
335.09
328.202
289.83
308.439
292.698
287.95
287.926
287.926
288.22
287.927
287.93
287.927
291.374
295.556
339.966
292.587
327.889
310.128
289.995
290.15
290.76
314.874
305.711
302.062
289.638
289.251
490.72
495.898
436.614
486.089
434.135
486.409
434.646
436.882
487.993
496.823
464.202
429.92
443.486
435.902
433.244
483.524
491.584
489.22
492.386
466.572
468.352
466.262
467.501
494.248
494.986
494.245
469.665
469.345
467.902
467.617
496.858
494.883
493.323
469.376
468.047
466.415
463.928
488.99
487.496
491.293
460.443
464.27
464.98
460.734
491.972
487.586
492.169
464.878
458.522
463.907
460.2
495.09
483.477
489.631
460.634
465.223
459.941
454.571
490.492
478.758
487.195
455.572
461.728
458.2
451.601
437.068
448.149
448.757
436.124
447.028
447.383
436.341
474.373
472.185
481.803
453.535
441.511
446.804
448.09
448.451
436.999
448.849
447.218
435.796
446.446
436.246
442.084
435.317
444.97
445.129
434.854
435.58
442.088
447.464
445.842
435.132
435.092
444.99
442.868
434.221
444.746
434.999
440.075
434.711
443.62
435.51
441.511
434.236
433.231
440.304
440.049
432.203
433.284
436.662
434.191
437.903
441.743
439.222
432.176
433.276
435.188
590.144
568.046
568.616
521.695
659.248
512.164
516.519
589.015
617.75
508.19
578.641
589.086
523.473
524.223
494.479
514.744
590.484
580.651
631.645
591.921
553.359
549.792
560.164
556.162
557.272
568.651
575.908
577.213
552.391
558.169
562.482
592.887
516.821
483.772
450.497
480.138
538.958
566.97
646.604
613.46
604.065
572.825
567.411
562.849
567.282
571.469
562.748
579.619
587.223
569.111
567.565
573.253
593.359
584.007
586.698
563.916
567.438
566.646
566.539
598.677
601.481
596.299
579.643
575.584
577.689
577.622
586.849
593.924
593.097
569.457
570.405
574.164
570.161
528.366
513.209
531.454
511.009
532.927
535.781
515.704
542.788
518.153
537.218
540.889
522.524
545.63
519.941
598.349
594.713
598.407
574.834
559.169
566.899
570.449
547.285
525.96
551.199
523.97
549.281
551.978
524.213
600.109
602.713
599.995
578.415
572.012
571.409
561.657
539.237
512.942
537.204
539.548
514.976
516.94
540.489
543.47
521.07
516.498
544.073
546.576
519.812
542.569
554.145
526.243
554.162
552.455
516.503
522.032
548.896
581.949
580.914
592.348
548.018
561.396
548.974
534.705
581.39
591.55
578.877
544.763
559.672
547.975
532.335
521.092
544.414
548.731
549.208
510.503
519.094
542.037
546.351
527.031
506.509
503.646
514.311
536.174
539.498
549.445
507.569
540.859
506.592
539.988
529.126
496.042
554.387
553.369
568.617
534.473
505.279
518.918
520.224
515.45
496.181
529.095
516.232
472.442
502.453
484.335
493.904
511.665
526.892
515.021
470.016
499.817
483.145
665.978
619.121
785.83
655.023
710.993
592.671
661.425
636.85
753.144
769.222
718.206
791.453
773.078
740.153
679.936
692.672
641.619
678.268
628.883
712.131
718.334
648.171
832.864
814.86
785.881
768.001
759.303
689.504
693.206
621.433
583.167
578.044
589.783
635.66
609.621
596.422
719.992
681.811
674.771
703.78
720.27
664.896
676.841
740.878
770.252
778.416
834.359
778.938
731.676
680.922
710.895
760.864
751.205
747.222
769.112
759.546
764.854
779.065
774.19
790.628
780.886
748.703
760.687
783.853
774.232
764.067
795.282
780.267
811.664
786.648
803.621
831.479
816.296
811.654
796.216
811.294
823.416
801.532
839.302
745.717
675.676
742.489
731.167
767.64
766.68
697.125
588.474
627.243
723.717
748.354
600.352
702.008
644.89
824.595
755.206
794.952
794.925
739.473
719.725
823.932
721.128
612.468
620.55
775.404
674.064
662.452
798.63
621.511
602.068
596.127
611.508
620.233
620.992
609.101
648.179
601.596
610.124
625.507
614.422
607.791
637.304
648.306
645.714
622.576
635.541
619.199
617.198
644.128
646.925
713.322
675.166
647.715
629.823
698.94
652.655
719.94
701.949
661.885
688.378
702.965
711.266
677.708
684.039
683.16
682.031
710.089
712.522
714.134
684.348
679.856
714.378
716.69
716.663
689.192
687.034
686.469
682.95
638.908
622.063
624.604
625.155
649.421
651.466
622.099
707.691
714.075
709.315
681.018
660.396
672.991
671.922
649.997
613.319
621.233
648.014
603.336
640.317
614.364
649.725
621.702
613.082
649.004
602.779
641.514
614.4
616.425
575.692
590.531
589.99
603.604
630.065
640.975
723.711
701.06
731.36
707.814
719.933
693.309
731.083
685.351
707.67
731.283
676.428
676.327
712.976
691.194
694.325
606.599
720.824
735.096
709.758
652.023
651.037
722.098
763.16
680.74
651.759
720.089
692.709
707.594
729.324
800.137
736.032
753.684
731.451
669.081
665.656
636.441
687.501
654.938
662.742
686.868
727.646
704.603
724.441
714.297
741.083
720.296
729.436
668.485
719.861
633.079
677.353
614.266
657.245
606.778
833.221
728.775
735.473
786.129
738.969
768.487
733.696
681.968
709.117
708.34
676.238
684.293
711.708
702.722
693.814
738.103
712.858
706.195
679.448
712.946
739.539
639.008
673.439
660.503
689.443
673.092
698.583
712.666
737.454
714.558
714.567
745.407
748.007
728.871
730.193
697.917
693.828
702.023
711.707
714.973
719.34
712.781
748.352
736.106
754.677
739.755
730.039
739.874
751.9
663.059
616.515
587.1
609.694
641.466
590.315
609.527
696.336
711.231
685.229
724.133
761.623
750.878
736.243
704.641
667.476
694.633
719.805
672.083
691.151
725.258
736.522
759.317
733.995
738.292
757.686
730.92
765.345
751.241
757.85
729.676
763.472
776.984
749.968
787.855
694.553
706.038
699.751
717.639
730.308
726.346
714.319
754.457
762.751
770.318
739.846
773.247
747.385
758.768
639.243
625.409
601.396
609.978
575.923
595.291
584.123
585.14
609.757
605.56
603.672
597.454
590.656
592.728
597.509
603.974
604.38
612.567
600.882
589.068
593.44
602.157
622.534
613.511
611.71
599.861
612.344
612.176
601.769
579.096
572.835
576.145
585.222
580.1
582.863
586.488
632.524
616.923
627.648
602.075
615.725
612.796
609.358
589.057
574.018
577.071
587.545
580.182
583.109
592.479
587.452
583.568
594.229
589.938
604.625
600.372
592.558
592.343
603.906
594.336
589.705
604.159
599.022
596.603
624.56
637.221
652.062
836.039
613.776
613.4
527.19
690.199
608.434
593.687
609.339
606.505
607.098
614.024
606.942
551.514
558.336
586.784
558.084
589.751
608.955
592.548
629.746
616.87
617.98
619.644
617.351
632.391
608.797
609.904
588.871
590.06
598.804
610.722
613.554
597.575
649.438
588.896
608.134
629.233
717.801
664.299
638.977
650.199
641.304
629.628
598.011
610.93
628.261
638.679
615.209
623.7
597.61
621.113
612.691
635.607
601.344
744.685
757.059
685.569
654.432
786.739
700.787
698.658
670.963
688.8
603.092
612.844
684.594
606.423
648.122
716.354
618.432
640.782
631.377
655.377
619.251
636.162
640.931
642.967
664.354
663.076
624.639
621.591
639.356
640.843
665.262
706.671
681.367
683.657
660.222
666.413
692.369
607.575
603.837
608.719
624.775
629.829
629.4
624.087
619.331
616.203
608.97
627.206
638.084
634.255
625.823
689.439
716.697
689.217
664.436
692.122
665.175
691.818
676.71
647.843
653.238
653.79
671.507
679.238
647.371
651.617
672.632
660.557
682.995
657.634
676.998
648.941
718.904
548.422
867.837
591.857
622.162
900.606
704.557
644.184
636.242
845.901
681.574
614.988
628.635
629.122
646.205
620.663
643.267
639.247
644.66
645.323
667.492
632.145
653.068
688.319
647.103
636.213
640.76
640.84
626.181
622.688
625.449
632.11
754.664
870.282
749.324
829.833
724.99
800.951
911.921
641.263
649.744
642.367
623.969
620.153
625.381
638.886
556.504
582.126
642.389
587.977
617.799
583.079
531.562
589.364
600.034
562.856
601.843
588.323
532.301
579.737
640.935
632.937
671.189
719.614
662.348
653.536
746.064
650.594
686.184
691.129
712.541
640.751
691.449
655.002
604.862
617.888
609.132
614.118
623.885
625.344
613.252
609.964
637.046
634.522
620.988
609.365
595.411
630.431
813.223
879.851
774.764
833.611
924.709
846.755
924.173
764.89
915.971
798.314
826.305
861.984
778.902
925.072
608.859
619.648
608.517
618.882
658.752
643.029
626.42
616.532
655.471
638.022
625.875
642.155
606.93
651.438
612.543
622.52
586.989
598.898
588.635
624.43
614.062
732.372
691.114
662.959
632.71
692.994
659.173
746.426
602.274
568.485
594.293
509.256
523.078
531.361
516.762
553.826
549.859
546.127
506.37
515.478
527.831
515.837
840.414
787.082
918.36
867.27
785.38
845.276
924.152
622.302
674.993
631.86
560.153
543.085
552.419
570.153
625.075
602.235
675.103
638.783
605.171
660.069
636.485
567.577
589.866
560.934
563.696
537.648
548.028
570.671
651.128
701.255
642.03
566.924
601.325
583.896
584.979
555.974
544.016
546.806
544.433
551.358
531.874
562.596
588.287
558.219
589.165
545.328
549.703
563.062
531.036
565.727
567.551
548.347
559.635
591.658
580.047
573.819
510.417
547.394
526.596
540.541
549.022
562.921
526.804
511.189
544.742
524.929
543.115
550.283
561.788
529.214
571.162
586.419
562.856
561.456
591.972
576.488
580.748
568.273
561.1
545.71
561.316
592.545
576.263
580.232
749.782
729.003
744.306
733.251
756.155
751.804
730.549
693.858
695.421
661.209
636.577
670.659
633.749
657.959
782.439
777.899
800.119
790.407
806.195
815.617
787.05
605.32
605.712
597.061
622.574
626.67
614.321
621.501
743.748
784.935
775.197
767.796
757.899
800.622
810.338
745.657
774.651
698.764
744.228
718.952
772.451
749.529
596.323
587.223
595.945
612.431
605.372
613.423
622.744
783.414
795.274
797.393
797.61
774.308
812.82
815.111
575.532
602.314
611.165
604.216
595.318
593.159
586.871
734.629
759.377
771.548
784.1
750.513
761.847
736.25
558.777
567.348
598.95
568.284
580.829
578.64
546.477
613.286
603.869
591.249
575.53
602.069
590.192
588.724
561.127
568.829
593.942
569.205
578.536
549.157
577.553
645.64
676.367
652.623
637.169
665.479
643.003
660.81
624.185
616.295
605.289
621.45
638.082
631.299
629.285
653.291
633.723
628.768
635.89
666.456
643.897
659.624
799.926
815.665
786.451
827.729
838.843
831.673
837.403
796.185
760.086
796.874
820.091
740.586
764.487
813.921
784.896
786.205
816.726
826.688
730.418
770.494
793.508
703.718
691.249
685.355
679.672
683.757
698.01
701.161
717.454
717.822
720.69
716.211
708.999
714.648
723.538
678.768
677.16
672.603
696.343
691.006
697.326
703.289
673.145
665.545
671.189
642.937
657.441
651.804
649.845
728.983
737.555
753.12
826.52
776.83
789.987
813.948
688.623
690.713
684.251
702.156
707.386
706.927
704.832
727.003
718.871
717.888
718.074
727.423
719.728
727.024
724.579
718.565
712.773
718.576
731.622
722.82
728.995
720.672
725.778
721.001
721.225
727.763
723.078
729.1
502.074
461.175
459.962
475.582
487.573
488.939
472.023
436.173
429.926
430.986
430.948
432.227
432.398
432.91
490.045
586.168
431.655
526.335
478.594
623.477
471.281
636.225
449.518
529.625
546.008
457.773
457.761
445.009
491.623
488.556
427.254
440.942
435.855
429.193
447.979
441.486
432.65
444.888
439.479
432.123
432.374
442.776
443.53
433.995
446.692
480.704
453.73
459.589
452.565
476.449
439.396
575.101
558.161
469.682
513.236
607.842
497.778
622.831
500.728
489.286
467.396
485.058
461.494
463.008
488.194
497.199
522.08
465.651
449.648
451.882
440.394
461.451
561.06
563.547
528.88
467.772
507.269
479.749
493.657
497.717
614.171
600.834
537.217
633.19
556.464
632.641
436.498
451.351
446.014
445.302
447.633
451.713
437.998
437.126
466.48
454.783
483.428
493.954
457.46
441.176
479.304
457.816
515.744
462.455
505.528
494.295
448.324
546.737
630.55
636.823
558.291
567.441
531.59
637.391
445.788
448.148
451.154
458.521
452.646
441.457
450.944
485.336
468.668
464.59
462.476
488.24
467.554
484.308
561.953
630.763
575.216
633.051
573.597
569.147
639.122
461.483
488.799
471.748
487.341
466.93
466.128
483.972
594.044
604.419
551.683
612.623
562.715
580.515
517.21
608.553
482.584
613.449
578.178
574.641
514.978
469.533
565.033
505.187
534.44
588.29
588.131
471.706
496.325
513.232
492.252
567.613
586.809
584.636
470.509
479.14
493.436
489.691
583.963
617.328
593.238
524.411
496.472
511.379
542.243
608.631
593.788
593.33
616.556
562.124
556.735
585.764
597.67
608.478
606.256
520.466
507.603
520.993
504.356
568.408
588.68
581.781
502.595
504.142
500.724
508.331
469.832
523.296
506.927
514.247
494.88
528.068
481.799
459.112
471.332
461.952
475.951
484.18
488.008
471.972
614.636
593.322
605.743
545.955
557.697
540.906
563.955
611.241
573.24
568.249
559.41
593.738
567.209
587.144
621.622
581.143
592.669
523.336
560.325
530.606
554.867
502.291
485.179
477.895
495.44
526.025
505.393
521.528
517.014
499.222
536.836
505.856
531.601
519.174
491.059
491.644
496.56
499.028
526.976
507.714
484.266
507.983
548.772
564.436
561.402
583.877
561.968
544.895
570.087
513.826
555.622
544.865
547.398
526.464
530.429
540.545
702.233
771.782
767.256
688.854
683.59
750.487
898.358
865.2
845.27
788.591
812.014
807.184
771.802
839.394
793.395
761.538
707.964
745.868
736.655
793.666
770.273
738.612
730.642
701.608
748.587
686.761
724.473
744.051
706.822
885.151
845.286
828.301
885.884
866.357
817.477
836.515
798.85
849.046
826.117
794.983
789.292
766.293
814.616
701.856
692.993
717.647
740.551
717.129
729.881
717.412
726.27
793.47
771.614
767.395
753.664
731.089
787.979
763.119
776.688
742.577
762.826
754.335
741.09
782.306
613.173
640.946
630.066