/*--------------------------------*- C++ -*----------------------------------*\
  =========                 |
  \\      /  F ield         | OpenFOAM: The Open Source CFD Toolbox
   \\    /   O peration     | Website:  https://openfoam.org
    \\  /    A nd           | Version:  9
     \\/     M anipulation  |
\*---------------------------------------------------------------------------*/
FoamFile
{
    format      ascii;
    class       volScalarField;
    location    "0.00305";
    object      impulseMax;
}
// * * * * * * * * * * * * * * * * * * * * * * * * * * * * * * * * * * * * * //

dimensions      [1 -1 -1 0 0 0 0];

internalField   nonuniform List<scalar> 
26216
(
1516.65
3314.95
327.86
1473.84
350.729
1086.03
1957.47
524.693
970.623
1786.06
805.818
329.365
652.697
1132.74
650.298
3682.36
2779.25
3119.53
1670.16
1293.96
1467.49
1199.84
1037.8
1137.64
1189.11
1665.39
2111.98
1500.2
1096.24
1650.87
1760.62
882.818
1205.98
623.83
1095.17
797.218
1345.87
699.985
2248.39
2019.78
2531.57
544.623
530.503
916.546
713.621
596.321
485.883
811.165
521.627
667.939
474.862
724.623
469.201
753.153
522.498
1193.99
1262.82
1345.19
559.811
495.297
710.141
650.07
538.085
522.587
698.837
325.432
368.346
384.423
303.641
301.971
404.17
423.19
378.754
410.676
341.729
422.157
315.069
576.286
466.644
338.736
318.073
372.797
364.887
307.499
397.191
402.665
806.845
1521.39
661.361
1546.44
693.062
858.311
1563.04
331.32
389.584
441.725
350.381
417.282
368.269
416.316
177.399
0.000616174
0.000229801
6.35333e-06
5.2835e-07
0.00474743
2.46385e-05
1.78917e-06
0.0509475
121.132
15.7385
90.942
67.7152
0.405742
0.342066
23.1984
1.7277
0.109205
0.183236
19.9678
2.32658
3.97445
120.557
80.5074
117.281
114.008
95.5814
218.408
69.4241
121.189
74.3969
76.5196
103.684
78.0259
79.1162
103.903
2.82499
0.407741
0.501093
2.04017
0.5797
2.16662
2.81817
8.61174
8.80591
16.6865
25.4661
7.44378
10.7104
17.2156
119.128
78.2632
79.4467
102.79
79.7549
79.7342
101.116
1.00503
24.4263
31.3298
19.5605
59.2518
50.2962
64.1172
66.1095
126.592
105.693
113.425
131.126
113.517
63.2747
47.3058
60.0758
82.5923
50.0937
61.0475
66.6601
193.085
150.239
173.932
125.473
213.029
194.91
203.764
86.3058
109.243
0.0078789
3.1243e-05
0.000400059
0.124843
4.62548
1.15552
0.0124119
1.33589e-05
2.43128e-05
0.00032114
0.000586559
4.95e-05
0.000476005
3.25186e-06
1.33702e-06
5.91987e-06
2.53667e-06
5.53179e-07
1.00751e-05
5.9846e-07
8.60737e-08
2.90344e-07
1.2562e-07
2.5357e-08
8.71145e-07
5.62321e-08
5.32962e-09
1.19233e-08
5.35494e-09
9.9522e-10
6.01684e-08
4.1101e-09
3.15597e-10
4.24812e-10
1.95999e-10
3.49459e-11
3.43043e-09
2.44837e-10
1.73682e-11
1.28971e-11
5.92348e-12
1.03222e-12
84.6527
16.8133
0.0021376
1.44898e-05
0.000225682
0.0720547
2.5886
0.393788
0.00434216
5.01393e-06
1.07464e-05
0.000192979
0.000237063
1.81177e-05
0.0001154
1.45973e-06
5.98055e-07
3.2141e-06
1.23101e-06
2.62241e-07
3.90351e-06
2.5114e-07
3.73022e-08
1.46717e-07
6.04568e-08
1.16352e-08
3.49935e-07
2.328e-08
2.23431e-09
5.55929e-09
2.44927e-09
4.45245e-10
2.45892e-08
1.70232e-09
1.31239e-10
1.8445e-10
8.46088e-11
1.52528e-11
1.41399e-09
1.02237e-10
7.24892e-12
5.31654e-12
2.42095e-12
4.34132e-13
81.7425
0.708094
2.01686e-05
5.56903e-05
0.0159135
0.459814
0.0182097
0.000176928
3.99882e-06
2.30696e-06
3.99899e-05
4.12013e-05
2.22363e-06
1.21417e-05
6.49417e-07
1.39139e-07
1.02372e-06
3.86643e-07
7.157e-08
1.16177e-06
7.27218e-08
8.35979e-09
3.61461e-08
1.54797e-08
2.68996e-09
8.63288e-08
5.87602e-09
4.91663e-10
1.1019e-09
5.11395e-10
9.34034e-11
5.68282e-09
4.07502e-10
2.94799e-11
3.10324e-11
1.47496e-11
2.89801e-12
3.20327e-10
2.36574e-11
1.60204e-12
7.99749e-13
3.49852e-13
6.46348e-14
35.4623
0.00151013
0.00639804
0.000217111
0.00101178
0.0153282
4.79845e-05
0.000772837
6.75554e-05
4.99566e-06
3.27779e-06
1.72429e-06
2.47719e-07
1.4399e-05
2.47639e-06
2.41301e-07
1.06483e-07
4.49672e-08
9.02793e-09
9.05933e-07
1.40081e-07
1.18292e-08
3.37311e-09
1.31157e-09
2.9364e-10
5.30399e-08
7.11516e-09
5.64148e-10
1.06599e-10
3.76385e-11
8.92796e-12
2.87126e-09
3.37108e-10
2.5827e-11
3.40297e-12
1.02154e-12
2.37196e-13
1.35367e-10
1.43609e-11
1.04143e-12
8.76753e-14
1.54008e-14
0
98.5605
57.7119
8.79987
0.00585174
1.06108e-05
46.4212
6.56473
0.103781
0.000671826
3.2121e-05
3.8709e-07
0.114312
0.00141789
2.71347e-05
6.80528e-07
5.52651e-08
1.50994e-08
4.11294e-05
3.71547e-06
5.51079e-07
3.03579e-08
2.41801e-09
5.39699e-10
1.33048e-06
1.99709e-07
2.30599e-08
1.37127e-09
1.02088e-10
1.81666e-11
6.46459e-08
9.88479e-09
9.69394e-10
6.08671e-11
4.15166e-12
5.76135e-13
3.02413e-09
4.48106e-10
4.03556e-11
2.54974e-12
1.42124e-13
7.63976e-15
1.28125e-10
1.7814e-11
1.50503e-12
7.23958e-14
0
0
136.674
24.5326
0.0896969
0.000147985
7.76949e-06
3.25666e-07
0.00794243
3.73714
0.00826076
1.21969e-05
2.61775e-07
1.98953e-08
0.000913992
0.000187757
2.37314e-06
2.02329e-07
1.19739e-08
9.25194e-10
8.97548e-06
9.74064e-07
1.30853e-07
9.43659e-09
5.50266e-10
3.95372e-11
3.7724e-07
5.94447e-08
6.68889e-09
4.5086e-10
2.54649e-11
1.6343e-12
1.92879e-08
3.11338e-09
3.1612e-10
2.10007e-11
1.12717e-12
5.06892e-14
9.52194e-10
1.46237e-10
1.3915e-11
9.01491e-13
3.14079e-14
0
4.15183e-11
5.95282e-12
5.18655e-13
1.75836e-14
0
0
0.00604606
0.00347726
4.62121e-05
2.23264e-06
2.07451e-07
1.30136e-08
0.00100613
0.00265443
4.06104e-06
2.69359e-07
1.58342e-08
9.52071e-10
1.43201e-05
2.23819e-06
2.29674e-07
1.63251e-08
9.62226e-10
5.57449e-11
9.10334e-07
1.31895e-07
1.33378e-08
9.29711e-10
5.40372e-11
2.95671e-12
4.95994e-08
7.22261e-09
7.07534e-10
4.90956e-11
2.79276e-12
1.2927e-13
2.52678e-09
3.62823e-10
3.4572e-11
2.38154e-12
1.12656e-13
0
1.22043e-10
1.69415e-11
1.54287e-12
8.47649e-14
0
0
5.23105e-12
6.73026e-13
4.0139e-14
0
0
0
3.28926e-05
1.05203e-05
1.39538e-06
1.2695e-07
8.74706e-09
5.19595e-10
8.30731e-06
1.70596e-06
1.78028e-07
1.30714e-08
8.13426e-10
4.55423e-11
9.76229e-07
1.3754e-07
1.35628e-08
9.72656e-10
5.89863e-11
3.17038e-12
6.36054e-08
8.93625e-09
8.69748e-10
6.20939e-11
3.69995e-12
1.61405e-13
3.70024e-09
5.14827e-10
4.92902e-11
3.49355e-12
1.84567e-13
4.85064e-16
1.98738e-10
2.70148e-11
2.51215e-12
1.55463e-13
4.85064e-16
0
9.90464e-12
1.27123e-12
9.43449e-14
0
0
0
3.93387e-13
3.11654e-14
0
0
0
0
2.96003e-06
5.22808e-07
6.23542e-08
5.36648e-09
3.76679e-10
2.23897e-11
4.93723e-07
7.80702e-08
8.12035e-09
6.125e-10
3.94789e-11
2.16193e-12
4.82594e-08
6.89168e-09
6.82684e-10
5.04618e-11
3.14625e-12
1.44185e-13
3.47104e-09
4.82696e-10
4.69054e-11
3.4391e-12
1.87841e-13
4.85064e-16
2.17627e-10
2.9442e-11
2.79166e-12
1.80929e-13
9.70128e-16
0
1.22561e-11
1.59028e-12
1.23085e-13
1.21266e-16
0
0
5.81228e-13
5.12955e-14
0
0
0
0
7.88229e-15
0
0
0
0
0
1.26648e-07
2.13977e-08
2.53847e-09
2.19671e-10
1.58911e-11
9.28412e-13
2.0452e-08
3.15827e-09
3.31785e-10
2.61118e-11
1.72816e-12
7.54274e-14
2.0769e-09
2.95676e-10
2.96988e-11
2.24924e-12
1.22964e-13
0
1.61083e-10
2.20846e-11
2.13671e-12
1.37031e-13
0
0
1.06497e-11
1.37746e-12
1.07442e-13
0
0
0
5.75892e-13
5.12955e-14
0
0
0
0
1.06714e-14
0
0
0
0
0
0
0
0
0
0
0
0.00556514
5.84363e-05
0.00335642
5.93168e-05
1.42386e-05
3.05556e-05
1.30811e-05
2.12986e-05
0.000222482
0.0740096
0.000157517
0.0547801
41.9463
0.462363
13.742
42.152
0.352662
11.4798
112.954
18.0636
16.7489
85.6175
110.814
15.08
12.262
0.000316725
0.0131289
0.00036053
0.0059984
0.00025686
0.0106478
0.000285949
3.06324e-05
3.19662e-05
1.1019e-05
2.46295e-05
2.50463e-05
2.49935e-05
8.8592e-06
0.0208277
6.12933e-05
0.000601685
0.000333525
0.0146739
5.01248e-05
0.000500519
3.2952
0.00194659
0.00693058
0.0902115
2.37225
0.00169972
0.00482984
0.00229377
3.4871e-05
1.63644e-05
7.92047e-06
1.54343e-05
3.93221e-06
4.98994e-06
0.00011884
0.0446971
3.95848e-05
0.0169381
43.5139
0.293637
10.0965
43.872
0.121142
4.81428
105.716
13.2544
9.63171
92.9615
83.2105
6.23112
2.21352
0.000156733
0.00503908
0.000161171
7.54847e-05
0.00096924
7.73894e-05
1.58775e-05
1.36595e-05
5.00096e-06
7.40575e-06
8.58773e-06
6.52143e-06
2.66199e-06
0.0108749
3.23052e-05
0.000343012
0.000129241
0.00363588
1.70745e-05
0.000194342
1.89044
0.00154501
0.00368616
0.0261248
0.636732
0.000973889
0.0014544
1.47954e-05
0.0043521
5.56994e-06
2.99705e-06
0.001918
7.87414e-05
2.1343e-05
0.0108799
2.55054e-05
0.00154777
61.7885
0.0791722
3.16622
50.7667
0.0127829
0.461608
71.3064
4.02748
0.972923
62.94
24.8888
0.474267
0.0322685
0.000104293
0.000399658
4.69669e-05
0.00127608
0.000756561
0.000218863
7.11492e-06
6.74539e-06
1.9138e-06
0.000314627
7.51102e-05
5.61898e-05
1.36463e-05
0.00151085
6.5704e-06
7.77078e-05
2.71615e-05
0.000292819
4.69873e-06
2.79487e-05
0.384883
0.000556664
0.000883061
0.00270157
0.0488071
0.000235528
0.000427518
0.0380228
10.226
0.0173242
0.000833169
6.77902
0.722712
0.0002353
0.000660533
0.24301
0.0075595
33.5743
0.00557651
0.195035
6.46188
0.00265109
0.00584822
11.1327
0.174974
0.00773862
8.40832
0.0553436
0.00348266
0.000199462
0.0615428
0.00898025
0.0099549
7.00444
0.201923
0.29193
0.000799299
0.000677138
0.000152075
2.13987
0.106572
0.00601061
0.000738333
9.59813e-05
2.35962e-05
9.23565e-06
0.032235
0.000871235
0.000205326
3.91293e-05
0.0189199
6.43066e-05
0.000135035
0.000262608
0.000614345
1.44258e-05
3.1841e-05
82.1811
19.8426
2.84247
104.696
78.9825
26.0966
1.61692
29.5773
0.94941
0.0300033
44.1087
12.6268
0.366248
0.00377618
0.514674
0.0104538
0.00137762
1.03833
0.00970923
0.00101415
0.000171918
232.504
101.818
47.1994
192.866
1.03505
304.064
242.327
0.0580932
0.00028062
233.36
43.8806
0.481223
0.000635226
0.000262622
1.49136e-06
130.682
54.6348
0.000474697
3.48291e-05
1.04757e-06
7.68676e-08
3.02008
0.0178132
4.53777e-06
5.66344e-07
5.29894e-08
3.33228e-09
5.76804e-05
2.18455e-06
2.9045e-07
2.81631e-08
2.35991e-09
1.53531e-10
4.33299e-07
8.46095e-08
1.2332e-08
1.24642e-09
1.03247e-10
6.85286e-12
32.5127
33.0862
232.228
153.621
191.36
230.201
179.473
189.712
36.2366
39.9119
241.271
152.831
185.264
219.495
149.665
169.901
84.6281
284.143
78.7179
208.397
142.392
151.057
256.859
157.318
136.341
137.998
263.289
65.3814
179.97
27.5103
132.207
74.5105
37.7676
142.625
32.8237
33.5978
0.591907
125.452
171.484
117.292
105.238
241.413
208.064
159.399
108.889
261.383
87.5475
62.178
194.162
163.121
76.9228
38.1288
141.279
33.2295
5.66776
126.738
14.0189
8.78413
0.0972884
122.842
109.676
45.5356
75.4378
91.2131
74.4937
70.5075
67.0362
65.3777
57.4838
76.8786
43.4168
47.1263
35.6727
17.2312
24.7359
14.5361
29.0446
3.65955
7.97613
4.11792
0.348007
1.13058
0.469218
1.03179
0.000604127
0.00439436
0.000983494
0.00517341
0.00407368
0.000928489
0.000646122
0.000102728
2.42383e-05
0.000193157
5.65542e-05
2.3293e-05
0.00018374
0.00010929
0.000517689
0.0043447
0.00262029
0.00066071
0.00342808
0.000809829
0.000405832
8.74127e-05
6.38581e-05
1.94634e-05
0.000127906
2.28238e-05
0.000151806
6.99328e-05
2.36424e-06
5.64129e-06
6.26933e-06
1.40355e-05
5.51899e-06
6.01821e-06
2.46464e-06
4.86399e-06
3.61656e-05
7.87863e-06
2.90459e-05
3.41333e-05
7.59356e-06
5.14052e-06
2.2195e-06
1.37965e-05
4.81378e-06
4.71456e-06
5.44314e-06
5.56637e-06
1.83732e-06
4.22206e-06
2.51648e-05
2.45304e-05
5.6372e-06
2.98552e-05
6.49841e-06
3.44113e-06
0.00217399
0.000297082
0.00155176
0.000211755
0.000280694
0.00146662
0.00229463
0.0166774
0.121022
0.0107701
0.0704164
0.115557
0.0102157
0.0175463
0.00194309
0.000186003
0.000205851
0.00109209
0.000248176
0.00130664
0.00163527
0.0150666
0.0637682
0.0924317
0.00775115
0.105707
0.0091674
0.0128917
41.8258
69.1388
68.9698
39.6614
52.8309
52.3687
40.067
3.96613
0.752664
2.45443
0.441492
0.722846
2.3552
4.08703
68.915
42.8219
69.0416
39.141
50.6939
51.6701
38.4192
3.77827
0.40356
0.603388
1.94229
0.672585
2.18033
3.5142
0.000189526
0.00181184
0.0004924
0.000293329
0.000341158
3.43687e-05
1.27126e-05
9.50248e-05
2.21742e-05
5.08344e-05
8.13691e-06
7.22854e-05
2.124e-05
1.81946e-05
4.92857e-06
3.04151e-05
5.94275e-06
4.30894e-05
1.45913e-05
8.17254e-07
3.09706e-06
3.38094e-06
5.63519e-06
1.28172e-06
2.00869e-06
2.29687e-06
1.7279e-06
1.83418e-05
3.93893e-06
1.17295e-05
2.49882e-06
1.30949e-05
2.92109e-06
5.60852e-07
3.89176e-06
1.36072e-06
1.51673e-06
1.43296e-06
1.4982e-06
5.01456e-07
1.0928e-06
7.34159e-06
5.25402e-06
1.38326e-06
8.46135e-06
1.8882e-06
7.16849e-07
0.000958643
0.000158283
0.000852773
9.00356e-05
0.00129114
0.000114796
0.000630376
0.00795303
0.0768016
0.00618644
0.0343627
0.0104315
0.0606289
0.00463487
0.000665963
5.90784e-05
4.87046e-05
0.000276596
7.69294e-05
0.00043152
0.000432718
0.00570745
0.024979
0.0314918
0.0021564
0.0450406
0.00326843
0.00382941
68.9859
43.9588
68.5061
35.7187
49.2666
37.3326
47.2299
2.75286
0.519638
1.65679
0.231852
3.17177
0.426867
1.34377
67.2951
65.1337
43.0842
33.4342
40.661
44.4029
30.4276
2.27136
0.172769
0.243204
0.739711
0.332229
1.02902
1.76336
0.000162024
8.98504e-06
3.60582e-05
6.48563e-05
2.38116e-05
7.1346e-05
0.000138613
0.00147159
0.000529583
0.00637439
0.00923143
0.000686449
0.00108551
0.0127204
9.93122e-06
3.17092e-06
2.30571e-06
2.34722e-05
1.14666e-06
2.72895e-05
1.02801e-05
3.3858e-06
3.04144e-06
1.06586e-06
2.97178e-06
6.81086e-07
2.62448e-06
3.65484e-06
0.000108007
0.000209636
0.00282226
0.000730388
0.000285467
9.1494e-05
0.00112978
3.52461e-05
1.28446e-05
0.000124811
0.000251092
1.21032e-05
2.95113e-05
0.000396116
0.000142684
2.77957e-05
0.000164155
1.26367e-05
0.000260039
1.51178e-05
8.67638e-05
0.001366
0.0203401
0.00132152
0.00626295
0.00239233
0.012167
0.000734051
7.14155e-05
8.54994e-06
4.1312e-05
2.61166e-05
1.02488e-05
4.22234e-05
4.23461e-05
0.000710352
0.00337581
0.00318886
0.00016916
0.00654914
0.000368229
0.000331941
57.0529
41.4401
38.7867
22.3899
35.9656
26.7148
30.3823
0.849352
0.165969
0.495681
0.0477111
1.27572
0.104226
0.306857
42.8758
34.9685
29.9582
17.6487
17.516
24.1075
12.8168
0.511543
0.026029
0.0303719
0.0886996
0.059421
0.173874
0.274973
0.688033
0.0554286
0.0745247
0.302915
0.101514
0.414002
0.546612
3.59472
2.10009
10.7762
13.8284
2.48271
3.3968
12.8134
0.111351
0.0272663
0.00706377
0.150681
0.0118792
0.227648
0.0660673
0.0469875
0.001505
0.00252428
0.00857544
0.00451678
0.0171974
0.0256008
0.910138
1.161
8.48078
3.8725
1.58908
0.560773
6.07467
0.447435
0.0849753
1.88244
1.83795
0.185743
0.23452
3.75722
0.00162068
0.000454585
8.31684e-05
0.00269627
0.000151938
0.00544415
0.000764146
0.000563233
0.00139051
9.15998e-05
0.000303936
0.000172809
0.000689673
0.000254914
0.0204753
0.0272295
0.749238
0.075553
0.065188
0.00818635
0.248797
0.00634147
0.000834419
0.0267042
0.0235037
0.00231743
0.00241695
0.0794395
23.5622
17.0931
23.8475
4.57097
11.1781
8.31228
5.87014
0.0553408
0.0138426
0.0405761
0.00213428
0.130864
0.00560387
0.0162388
14.0431
5.44943
10.5643
1.99962
0.719407
2.35409
0.710086
0.0209197
0.000876932
0.0100925
0.0023575
0.00258078
0.00569088
0.00912666
70.9666
64.909
57.1578
55.1996
36.2239
47.5138
42.169
17.6258
24.2605
14.6654
8.2384
2.92206
7.07906
3.12055
167.947
121.234
118.188
262.758
172.83
140.097
290.726
105.75
233.57
100.916
220.604
148.239
97.7958
218.083
86.4935
174.025
82.2097
152.849
110.177
32.4537
82.5308
82.5942
40.6033
101.38
101.36
40.8057
82.9363
34.4637
83.9358
40.8431
102.847
101.546
41.7073
85.0178
38.129
85.8661
44.0218
104.326
42.8286
105.596
86.2054
85.8562
41.5227
45.2052
106.683
106.427
46.2293
82.375
42.9205
43.8013
47.615
106.318
47.0153
105.176
86.2069
302.223
353.711
144.318
375.273
148.953
84.7112
73.1911
43.934
42.9409
48.1182
99.8733
103.12
48.5887
54.9182
36.0076
40.454
48.6847
94.9371
49.0382
87.5427
41.8157
21.0968
29.1896
46.511
63.4685
77.0125
43.2588
121.801
73.0527
73.7009
141.805
76.6499
76.6072
139.385
162.216
110.396
245.098
114.513
254.7
155.684
111.824
73.6874
72.8565
131.756
76.535
76.1235
136.088
97.2606
70.9101
67.4951
126.405
73.539
75.2524
120.13
131.295
276.743
91.8915
191.548
96.4225
206.626
121.522
75.7573
62.3741
55.4735
104.145
70.8753
67.1835
112.797
47.5518
46.8726
37.1286
94.1101
57.0396
62.5454
82.5489
20.8817
27.4797
19.2752
56.0113
51.1263
45.947
69.6078
81.2641
329.259
138.153
239.648
83.1515
301.525
129.9
78.3306
212.139
232.837
105.67
269.629
118.994
75.5391
104.654
79.026
77.2611
71.0994
75.0005
84.5646
90.4806
0.000521969
0.117972
128.466
0.000512141
0.000792099
0.000361233
0.0308976
0.0141985
0.220577
20.4477
13.6045
130.32
152.68
116.861
58.6307
70.0731
0.00149189
0.00114898
0.000116332
0.000850605
0.000371821
0.000138698
0.000661035
0.000227168
7.03547e-05
0.000358765
0.000268786
0.000112018
0.000642622
7.27792e-05
0.000719089
0.000335879
0.00291647
0.00403506
0.0398493
0.017474
0.00527874
0.00223618
0.0235213
1.07448
0.272157
0.133429
1.39819
0.171754
1.57428
0.904873
4.86943
6.86695
15.7748
17.2922
6.18186
5.02017
14.4869
128.271
71.8141
70.4139
143.565
76.859
76.613
144.805
98.5609
79.0637
80.0139
113.719
79.9
77.5458
95.0561
9.68622e-05
0.00178146
0.280237
0.000635298
8.91551e-05
6.21823e-05
9.20541e-06
21.1759
1.06089
6.9642
25.4589
0.887094
26.6009
0.041013
0.344215
0.0152381
0.000915091
8.01594
0.166965
0.0115272
0.000549977
0.00286373
0.00035794
9.66388e-05
0.0361883
0.00052455
0.000245167
5.10703e-05
9.22473e-05
2.10066e-05
4.55153e-06
0.000125673
2.27255e-05
8.27667e-06
1.34306e-06
83.5092
43.6358
92.7123
41.9354
119.812
69.9329
0.980723
96.7555
0.519943
63.2946
17.5216
0.442695
0.218838
0.00165265
25.3165
0.000553032
2.93565
0.0878567
0.00074751
0.000619777
0.000126834
0.121251
0.000919423
2.75138e-05
0.000199348
3.56288e-05
2.1844e-05
2.74218e-06
19.6286
30.5991
8.09878
13.3094
30.0673
7.82569
19.9889
19.0766
12.5556
28.0078
6.66435
29.2166
7.34649
18.3044
15.8209
26.3579
5.80105
8.44985
17.2414
24.1943
4.79779
14.0053
6.63692
18.2314
2.69878
21.4724
3.72897
11.8345
6.923
14.5906
1.80348
1.85537
9.41742
10.7498
1.1048
4.57361
0.97233
3.92575
0.315435
7.03557
0.618884
2.63118
0.543908
1.81179
0.142759
0.0716364
1.28572
0.708622
0.0570995
0.202728
0.0220322
0.0667065
0.00625125
0.237814
0.0196828
0.0673718
40.0314
38.7633
12.8994
28.1383
30.8734
50.3585
18.808
29.09
13.9548
6.86834
4.20401
22.3273
18.3138
10.3053
3.39036
7.02341
0.294263
1.2857
2.70117
9.16415
0.358632
1.01423
0.304451
0.0915739
0.0282196
0.883417
0.306264
0.0991127
2.15885
1.40862
3.13442
0.122117
0.194311
0.313436
0.0437445
0.0307261
0.111069
0.00384057
0.00836961
0.0437452
0.0954492
0.00253775
0.0102598
0.0167255
0.00234787
0.000297932
0.0283859
0.00359851
0.000868026
0.000195077
0.0169227
3.21266
71.0046
8.59175
6.02385
0.0038488
159.488
113.483
63.4279
166.958
215.649
161.799
164.164
146.425
2.61864
92.3985
192.662
128.19
93.5178
48.5049
52.3727
0.00284345
15.4214
83.1957
37.9665
11.3974
0.651288
1.15776
0.00824088
0.000102008
18.1791
0.0716952
0.0303288
0.000279512
85.0166
178.395
93.0847
97.6119
95.2545
127.366
63.9387
15.5471
12.0872
18.029
43.0556
49.2527
51.112
27.9739
67.0999
33.2044
51.1373
26.7916
45.5814
37.2542
59.4967
52.6945
73.0131
38.8149
55.3241
43.53
77.39
58.2343
2.88242
0.00750109
0.00242207
3.29201
1.68554
0.00507458
0.00144545
1.15133
0.00361658
0.000944549
0.798772
0.186972
0.00125073
0.000311935
0.0782724
0.00060824
0.000209826
0.0446683
0.00255578
0.000253308
9.28082e-05
0.000628483
6.9885e-05
2.06313e-05
0.000330027
5.90483e-05
1.6504e-05
4.0543e-06
6.98559e-06
1.83167e-06
4.54103e-07
3.89659e-06
5.84527e-07
2.3359e-07
5.63507e-08
0.00842487
1.2128e-05
7.69718e-05
4.46784e-06
1.50859e-05
1.22056e-06
6.17963e-06
3.6995e-07
4.25341e-06
2.57128e-07
0.00662051
0.00201387
0.000489436
7.02449e-05
5.21289e-05
0.0759103
1.38827e-05
1.47297e-06
8.3463e-08
2.14858e-05
3.82912e-06
2.18653e-07
1.1604e-08
1.41596e-05
4.63701e-06
2.94952e-07
1.76307e-08
9.64872e-10
2.01711e-06
2.2203e-07
1.66725e-08
1.07427e-09
6.15237e-11
8.87568e-08
9.8662e-09
7.94862e-10
5.38739e-11
3.15655e-12
478.837
576.62
452.49
305.535
638.446
496.364
257.483
732.127
209.767
384.444
531.225
257.044
209.548
610.299
473.631
115.392
691.469
205.013
327.594
310.234
455.321
260.51
71.0599
563.306
426.064
58.2275
607.708
270.762
241.823
179.351
400.929
354.816
67.4336
0.0886506
562.097
463.492
305.84
2.01968
599.047
483.095
88.3628
59.0781
26.4573
0.000118928
365.444
370.958
286.21
113.635
0.000449414
337.116
61.8083
0.0402813
0.000256764
6.53088e-06
245.266
159.24
0.000396335
0.000404533
2.48688e-06
0.0360964
3.9463e-05
9.86187e-06
7.62305e-07
64.3033
3.93931
1.30857e-05
2.59071e-06
2.13726e-07
0.0318896
1.84433e-05
2.29185e-06
1.95792e-07
1.25344e-08
760.935
740.15
536.4
713.802
483.466
630.424
521.49
693.63
469.44
790.068
761.423
385.472
706.557
374.928
228.77
727.572
674.089
745.196
680.297
368.111
631.599
342.204
199.491
586.921
648.814
617.514
596.649
642.222
552.657
468.787
607.19
457.286
496.467
388.027
516.769
405.043
654.522
642.242
558.832
330.933
519.479
568.689
621.381
446.305
492.175
475.227
454.855
489.426
599.92
514.613
414.65
368.842
441.528
373.321
351.381
480.028
340.494
338.047
217.648
343.879
260.365
626.038
502.377
461.081
520.479
442.03
378.612
350.336
343.141
238.545
315.295
671.663
730.366
670.118
512.843
681.91
459.285
576.622
483.846
631.134
418.456
634.966
673.742
618.004
556.646
581.551
533.029
572.954
552.956
528.427
442.772
443.298
405.211
346.094
389.473
371.561
284.278
301.199
307.797
247.576
318.705
359.238
319.832
215.767
124.533
232.995
195.139
160.01
271.891
205.235
88.6295
8.27167
151.989
21.2761
330.719
269.691
743.44
759.697
742.053
750.549
722.756
732.933
657.351
702.061
655.113
712.474
700.464
654.073
659.041
649.198
703.565
682.541
637.418
692.14
646.004
639.997
787.6
775.386
719.333
649.135
660.34
90.6985
380.441
467.954
157.25
475.151
157.344
90.4105
711.363
713.028
699.114
695.67
664.313
683.946
726.211
704.383
89.8296
458.888
157.263
360.589
90.123
448.532
157.255
653.728
578.576
599.116
645.286
639.516
686.418
620.17
675.285
610.139
655.769
642.834
682.745
630.426
614.398
670.399
652.958
604.306
610.756
588.033
539.69
584.466
576.536
621.52
573.08
530.201
600.333
556.687
580.451
557.482
571.919
531.539
499.861
550.369
504.898
471.014
539.849
502.967
466.897
691.452
625.789
659.724
684.473
614.527
654.545
593.985
587.168
624.717
87.5944
410.235
154.753
317.72
88.7068
393.997
152.375
552.378
476.53
506.585
570.355
606.137
634.567
573.058
616.575
560.568
584.263
526.44
478.433
469.095
535.525
474.378
521.098
518.67
458.901
463.16
511.787
528.79
468.193
521.646
588.691
573.81
554.52
563.931
544.714
530.248
492.217
501.068
545.145
473.538
533.436
460.879
502.782
476.38
502.838
445.481
422.796
497.401
481.262
425.742
448.505
428.086
370.306
399.232
418.309
455.708
399.507
393.5
467.952
435.996
440.157
431.459
428.955
398.076
352.538
396.14
339.861
308.52
387.228
356.463
306.586
651.721
577.273
598.9
489.817
555.729
521.258
476.821
538.928
547.194
478.437
503.984
500.5
421.358
477.955
430.782
400.327
454.988
398.733
315.694
362.904
180.259
349.057
123.771
275.853
126.304
281.421
176.881
323.872
91.5947
481.652
159.123
385.321
481.469
158.505
92.4658
89.74
351.912
424.511
156.245
437.234
157
89.445
486.227
601.748
520.741
548.756
474.959
591.601
504.367
372.273
358.987
318.748
481.54
358.154
353.17
313.64
349.54
338.782
270.251
443.393
306.76
319.301
243.752
474.128
535.729
447.018
443.278
503.965
491.758
357.426
498.757
450.513
384.053
297.78
473.632
385.848
284.532
326.973
231.58
342.349
197.582
309.44
177.758
376.244
492.023
464.158
321.437
265.57
392.752
350.531
215.464
446.446
351.713
228.571
108.32
325.965
203.21
160.404
224.829
151.609
170.92
32.9808
168.106
44.8623
671.574
627.096
668.49
629.078
659.588
614.277
616.6
651.928
624.435
578.993
644.182
598.299
580.706
600.33
449.162
549.006
494.327
475.847
400.762
533.062
463.268
6.54319
88.7176
14.2007
1.32163
0.00124821
10.175
0.00648931
149.397
123.038
6.65304
4.38299e-05
4.15774e-06
653.524
726.491
692.685
761.525
957.078
566.042
435.751
644.068
608.246
786.238
715.622
884.013
403.291
544.181
513.972
666.597
667.559
764.681
347.377
477.48
541.075
203.672
245.976
256.139
46.9018
143.15
0.00312896
2.20567e-05
7.54167e-06
6.79233e-07
4.3095e-08
4.92037
3.27015e-05
3.35232e-06
4.12335e-07
3.50703e-08
2.42062e-09
0.000165844
1.10321e-05
1.10736e-06
1.22201e-07
1.03274e-08
6.85698e-10
1.05057e-06
1.58954e-07
1.85244e-08
1.66132e-09
1.18641e-10
1.54236e-06
3.99127e-07
5.18836e-08
5.6433e-09
4.81657e-10
3.3162e-11
852.02
923.405
812.435
792.682
893.614
670.842
881.696
732.771
661.335
854.478
1020.24
963.394
908.626
737.502
876.917
730.315
674.984
817.436
638.043
840.333
685.086
600.234
783.464
935.072
841.325
799.388
677.311
787.287
577.671
643.658
666.481
754.849
803.382
671.588
898.356
950.262
893.288
1047.85
1012.41
836.907
857.74
814.243
886.091
835.051
727.922
725.797
692.75
674.014
617.885
288.174
912.268
880.552
965.725
921.191
880.611
963.281
911.822
931.671
973.937
991.122
918.287
900.546
908.281
858.911
933.936
869.936
949.086
888.714
815.479
848.44
841.013
879.419
848.15
839.122
816.077
780.294
801.502
799.993
781.247
806.008
867.523
828.056
817.155
838.469
828.398
795.414
770.797
780.295
790.368
759.519
1087.17
1011.73
1077.07
1083.67
1116.69
989.289
1021.97
1051.4
843.654
840.071
930.95
857.957
876.795
809.844
825.925
886.592
955.462
902.826
934.344
860.826
846.274
915.869
859.323
875.209
831.908
895.088
867.794
878.298
908.775
841.788
843.069
840.433
793.377
849.214
814.411
873.729
820.557
768.214
815.468
805.094
825.226
782.284
800.88
790.185
734.063
767.829
747.087
752.627
751.596
806.477
763.444
748.713
783.435
771.263
732.486
718.67
712.606
734.534
699.757
989.775
904.637
956.301
933.197
974.982
874.14
885.476
922.446
791.635
771.036
829.865
759.783
788.452
720.191
746.897
761.539
840.32
806.19
794.239
750.567
765.811
816.707
750.617
789.38
731.229
776.324
713.267
692.552
743.835
665.982
707.135
709.677
649.763
683.33
691.72
731.154
661.949
678.319
738.501
721.391
720.884
708.609
707.17
689.091
843.702
761.071
797.806
727.973
781.876
716.521
701.162
749.916
574.84
642.381
620.386
591.517
707.85
794.043
779.911
709.445
645.747
769.311
754.917
605.802
736.83
632.048
634.066
574.343
700.332
620.157
619.811
736.597
698.388
588.887
547.778
641.845
630.527
554.78
680.45
573.247
538.054
495.503
571.552
555.374
523.177
587.11
579.994
513.002
459.931
547.04
554.669
549.655
416.257
496.353
501.13
391.485
360.849
434.244
416.692
307.358
179.501
94.0613
0.669149
0.384146
0.000356904
9.36323e-05
1.3407e-05
6.44318e-06
279.191
131.478
132.213
201.698
195.996
132.145
66.4265
67.1755
146.419
79.849
78.9269
146.623
131.616
68.021
69.0829
146.079
77.3635
78.0742
145.62
541.79
529.354
571.189
291.268
254.303
186.459
362.527
132.492
183.283
355.453
129.194
286.563
880.019
1234.14
1109.79
930.052
693.365
1057.67
1015.57
1148.98
994.39
906.941
983.97
859.841
698.981
750.249
544.163
650.68
463.027
482.069
648.075
709.92
514.803
1158.03
1219.85
1146.12
1071.77
870.812
636.224
379.29
332.595
299.225
944.959
980.729
1010.4
1053.99
980.865
1007.39
944.523
1035.77
948.396
964.802
1186.24
930.024
972.137
910.454
944.193
854.781
886.772
1030.53
811.677
806.982
760.563
752.415
663.237
709.999
809.982
574.278
616.115
652.224
601.62
613.744
574.886
605.531
531.379
547.625
482.034
488.927
530.631
553.566
484.485
619.262
597.498
575.822
724.626
650.932
665.569
585.129
527.523
599.994
867.661
1107.39
848.063
1059.26
1315.88
1219.03
799.573
1034.78
733.789
930.591
1176.53
1035.63
665.809
874.459
580.021
700.988
971.394
769.128
1061.79
1020.37
1159.98
1102.77
1020.16
1154.3
1061.92
1038.52
1082.37
979.231
1104.54
1000.52
1131.39
1010.88
1404.77
1298.63
1383.77
1260.78
1293.99
1341.2
950.222
957.272
1076.8
1008.6
983.899
931.8
1044.81
908.031
975.368
858.716
947.116
899.535
1002.79
857.526
1248.42
1134.57
1201.44
1089.03
1084.94
1149.9
745.338
807.613
880.955
814.091
799.576
753.481
814.728
697.128
755.466
657.932
700.229
703.449
754.113
653.792
1007.08
901.757
926.826
832.455
785.192
852.602
228.519
193.313
136.242
295.55
140.391
299.734
189.844
593.737
489.479
514.873
626.311
571.118
530.244
602.671
453.606
464.436
483.86
530.453
501.298
505.689
443.914
564.576
602.998
575.069
586.267
559.646
595.953
570.432
536.107
525.429
546.752
505.252
530.807
542.291
516.835
737.23
699.827
711.039
735.849
710.495
713.62
732.606
582.078
573.555
527.007
561.206
595.208
682.357
618.093
875.793
939.02
936.033
967.967
880.291
893.148
961.723
600.327
620.281
596.161
613.322
586.498
606.853
582.224
547.707
542.793
568.858
535.753
557.814
554.584
528.959
498.763
509.508
494.974
485.252
496.825
468.64
480.522
685.589
664.1
688.107
704.566
658.929
682.323
682.711
796.764
803.192
810.511
760.934
770.391
763.773
760.354
915.545
823.768
892.374
942.148
837.787
865.224
914.022
515.775
521.542
504.633
519.597
505.261
508.605
492.342
667.649
618.305
641.925
637.3
637.831
660.607
614.223
321.601
383.176
359.616
435.471
370.253
466.856
401.458
612.267
563.664
584.906
609.228
560.279
586.709
582.334
729.281
714.065
722.135
699.925
710.224
716.162
731.576
781.697
741.393
759.738
719.695
749.291
733.742
712.639
469.66
464.683
480.833
436.687
452.997
464.883
448.469
833.546
835.352
880.233
852.025
856.437
909.48
908.258
643.417
663.55
652.584
631.537
621.167
630.614
641.626
576.8
541.648
551.495
576.517
586.886
562.56
552.819
554.149
503.691
479.836
540.531
479.012
520.747
591.506
562.506
528.561
544.939
537.007
537.521
557.626
518.995
868.285
769.721
839.052
775.695
850.849
811.949
887.257
516.05
497.48
524.523
536.147
501.636
527.626
509.487
779.351
760.498
758.109
752.421
739.471
735.299
753.447
698.184
669.984
653.463
666.43
677.61
688.283
676.056
803.041
698.468
765.625
696.485
734.19
765.106
807.93
485.315
472.225
488.726
475.127
491.162
476.685
460.285
862.633
830.573
888.961
809.538
869.998
794.14
846.689
698.065
672.377
710.738
725.746
701.919
665.975
689.359
612.226
580.108
589.376
588.57
598.361
574.964
565.505
660.195
671.186
649.207
672.898
661.475
639.637
650.902
410.732
386.485
454.244
456.76
496.392
429.735
424.318
679.517
612.44
648.374
645.235
674.032
637.493
609.758
685.106
725.565
635.8
635.542
663.921
683.521
722.188
555.234
537.447
563.447
548.914
515.138
540.553
522.658
474.253
476.895
486.371
442.321
454.762
466.963
455.012
233.192
201.305
262.04
310.841
235.652
302.362
210.541
612.92
592.572
622.641
567.575
595.744
605.77
578.235
672.718
670.159
704.817
682.787