/*--------------------------------*- C++ -*----------------------------------*\
  =========                 |
  \\      /  F ield         | OpenFOAM: The Open Source CFD Toolbox
   \\    /   O peration     | Website:  https://openfoam.org
    \\  /    A nd           | Version:  9
     \\/     M anipulation  |
\*---------------------------------------------------------------------------*/
FoamFile
{
    format      ascii;
    class       volScalarField;
    location    "0.00275";
    object      alpha.c4;
}
// * * * * * * * * * * * * * * * * * * * * * * * * * * * * * * * * * * * * * //

dimensions      [0 0 0 0 0 0 0];

internalField   nonuniform List<scalar> 
25497
(
0.1218
0.096575
0.0206577
0.0162906
0.00153071
0.00250471
0.000229321
0.0343519
0.209162
0.0655496
0.0990686
0.0322931
0.0332365
0.0143526
0.0377965
0.235931
0.110551
0.0439445
0.0166369
0.0768159
0.0374051
0.18506
0.167673
0.147901
0.167826
0.14867
0.11543
0.130239
0.0300066
0.00426317
0.00234695
0.00764044
0.00750026
0.00244617
0.00100312
0.00856973
0.0351634
0.0175086
0.00253569
0.00103704
0.00595324
0.00246924
0.210145
0.190101
0.168592
0.19661
0.175241
0.135973
0.152709
0.126844
0.0522828
0.101061
0.0535633
0.102568
0.0801009
0.0423841
0.146283
0.0608249
0.11651
0.064911
0.122606
0.0952565
0.0507386
0.130811
0.0878793
0.1155
0.0872791
0.0714354
0.0640578
0.0980569
0.086646
0.130057
0.115756
0.0868698
0.0692568
0.0625729
0.0972143
0.147775
0.0984309
0.131034
0.101769
0.0815316
0.0733603
0.11392
0.00250789
0.00153779
0.000609362
0.00120498
0.00053992
0.000665146
0.000362159
0.0147741
0.0239981
0.0246038
0.0117159
0.011936
0.019679
0.00950826
0.000500781
0.00433221
0.00159909
0.000506201
0.000321318
0.00218972
0.000586562
0.0621755
0.0433327
0.0811144
0.0617607
0.0262008
0.0458709
0.0338044
0.0417606
0.0615395
0.0795053
0.0615325
0.0260743
0.0462646
0.0334239
0.00124744
0.00193572
0.0020462
0.00528287
0.00221918
0.000742673
0.00128466
0.000266393
0.158373
0.109583
0.141638
0.105489
0.0859774
0.0777915
0.117659
0.0692856
0.0479117
0.0908976
0.07218
0.0299037
0.0531772
0.0392597
0.0169336
0.0277377
0.0297069
0.0131991
0.0140245
0.0233467
0.0109621
0.0076859
0.00529035
0.00705068
0.0101055
0.00706548
0.00480629
0.00353405
0.0791115
0.0541287
0.100316
0.075468
0.0326263
0.0571509
0.0414472
0.0633143
0.0480743
0.0491853
0.0297611
0.0446934
0.0438375
0.0703416
0.00653709
0.00845509
0.00571706
0.00425407
0.00659412
0.00513062
0.00318496
0.00942534
0.0157395
0.0193942
0.0126846
0.0158264
0.00764932
0.00615799
0.0201341
0.00777749
0.00966309
0.0127637
0.0160095
0.0076926
0.00613753
0.0220216
0.00831253
0.0104348
0.0143609
0.0183664
0.00863934
0.00680911
0.0460502
0.0196421
0.0230965
0.019787
0.0334503
0.0330171
0.0261087
0.0755126
0.0581053
0.057086
0.0348376
0.0530219
0.0519871
0.0836855
0.00928818
0.00436524
0.00705585
0.00446922
0.00737657
0.00564236
0.00329884
0.024991
0.00955619
0.0116367
0.0156969
0.0194174
0.00905422
0.00732543
0.00315085
0.00360394
0.00438308
0.00311515
0.00245777
0.00223627
0.00169577
5.53791e-05
9.86603e-05
0.000613889
6.39789e-05
0.000120131
9.95552e-05
2.95731e-05
0.055095
0.0269685
0.0236342
0.0229361
0.0399157
0.0389455
0.0311946
0.00338776
0.00292105
0.00500099
0.00124826
0.00194014
0.00338729
0.00222635
0.00143065
0.00315083
0.0022655
0.00352136
0.00478728
0.00318382
0.00228862
0.00350074
0.00477229
0.00310679
0.0020065
0.00139737
0.00316303
0.00227067
0.00321632
0.00406503
0.00513083
0.00404238
0.00184002
0.00319865
0.00241362
0.00340432
0.00306614
0.00307347
0.00233402
0.00229455
0.00218044
0.00156835
0.00989303
0.00995554
0.0127061
0.00614179
0.00371116
0.00486367
0.00481544
0.00204006
0.00163262
0.00303222
0.00157876
0.00198807
0.00132101
0.00101024
0.00402738
0.00316296
0.00515822
0.0040272
0.00176716
0.00313601
0.0023781
0.00427766
0.00326076
0.00546056
0.00437668
0.00187647
0.00341413
0.00247603
0.0117356
0.0113844
0.0149823
0.00704562
0.00414555
0.00556234
0.00543227
0.00468631
0.00336624
0.00588926
0.00451326
0.00188246
0.00356697
0.00249862
0.00275106
0.001417
0.0018318
0.00134067
0.00176766
0.00116755
0.00085686
0.00165231
0.00173967
0.00227792
0.00117609
0.00161855
0.00117313
0.000811195
0.000771466
0.00140173
0.00222098
0.000863595
0.000464077
0.0007769
0.00141397
0.00122897
0.00136157
0.00219945
0.000839625
0.000449143
0.000767978
0.00140057
0.000982353
0.0010886
0.00168549
0.00108216
0.00060758
0.000679201
0.000368804
0.000779812
0.000868236
0.000505952
0.00126664
0.000854408
0.00204452
0.00142841
0.0031671
0.00133621
0.00187588
0.00137185
0.00248249
0.00244082
0.00180553
0.00219636
0.00109243
0.00165004
0.00110632
0.00157822
0.00113381
0.000749138
0.00220195
0.00112411
0.00161465
0.00114231
0.00157039
0.00108337
0.000753597
0.00217211
0.00100663
0.00152717
0.00109415
0.00154804
0.0010446
0.000689685
0.00348174
0.0020281
0.00140216
0.00141222
0.00270731
0.00267748
0.00187618
0.000903667
0.00136365
0.00104957
0.000875134
0.000402283
0.000576591
0.000640829
1.60479e-16
2.50397e-17
1.67185e-18
1.12191e-19
6.36468e-21
2.92807e-22
1.16822e-23
2.83875e-12
5.15329e-16
5.55786e-17
3.94409e-18
2.33526e-19
1.05556e-20
4.14222e-22
4.27882e-09
1.08276e-13
1.97155e-15
1.38458e-16
8.94108e-18
3.5917e-19
1.33307e-20
1.33668e-05
1.01946e-07
1.65488e-11
9.41683e-15
2.03431e-16
1.26387e-17
3.87803e-19
0.00120738
8.5817e-05
1.89622e-06
5.87748e-10
1.6576e-14
2.00406e-16
1.05289e-17
0.0212603
0.00231572
0.000171358
4.77507e-06
2.16502e-09
1.30743e-14
1.72027e-16
0.0237871
0.00284307
0.000203593
4.8346e-06
7.57627e-10
7.30522e-15
0.0226577
0.00268662
0.000164008
2.07034e-06
2.65435e-11
0.0173653
0.00129196
1.44087e-05
3.6107e-10
3.93192e-17
6.08712e-18
4.37623e-19
3.19644e-20
1.87469e-21
8.89748e-23
3.65826e-24
1.26751e-15
1.70786e-16
1.32516e-17
1.04545e-18
6.43377e-20
3.0805e-21
1.25525e-22
4.67758e-12
2.07199e-14
3.12383e-16
2.84643e-17
1.93609e-18
9.44432e-20
3.8683e-21
2.39417e-06
6.47963e-09
8.05952e-13
1.36329e-15
5.34607e-17
2.47995e-18
1.00605e-19
0.000398589
2.77928e-05
3.74282e-07
3.01835e-11
3.10551e-15
5.94533e-17
2.17106e-18
0.00549922
0.000822474
6.86948e-05
1.35433e-06
1.1688e-10
3.13397e-15
3.48089e-17
0.00607171
0.0010487
8.46451e-05
1.40197e-06
4.02885e-11
1.23805e-15
0.00186654
0.00100748
6.73106e-05
4.5439e-07
1.37521e-12
0.00468882
0.000458213
2.19854e-07
3.80123e-13
4.77699e-18
4.8878e-19
4.47321e-20
3.35946e-21
2.0019e-22
9.71143e-24
4.10544e-25
1.57195e-16
1.47891e-17
1.44977e-18
1.17266e-19
6.97695e-21
3.32697e-22
1.37506e-23
1.70512e-14
4.70452e-16
4.69509e-17
3.94223e-18
2.30399e-19
1.05937e-20
4.23462e-22
3.14166e-09
2.47507e-12
4.26871e-15
6.99074e-17
6.59775e-18
3.01268e-19
1.14699e-20
1.29704e-05
4.57987e-07
4.55578e-10
1.59972e-14
1.03457e-16
6.80892e-18
2.64215e-19
0.000297858
3.76101e-05
2.34323e-06
6.68483e-09
4.86655e-14
9.4067e-17
4.85919e-18
0.000345949
6.77389e-05
3.65154e-06
7.85343e-09
1.91778e-14
5.43147e-17
0.000415128
0.000269343
2.53242e-06
7.86556e-10
2.88496e-15
0.000286216
0.000185892
2.25099e-11
4.28487e-15
3.94333e-19
4.19907e-20
3.89438e-21
2.98116e-22
1.83246e-23
9.20359e-25
4.04275e-26
1.33635e-17
1.2791e-18
1.26503e-19
9.93139e-21
6.12e-22
3.03375e-23
1.30818e-24
2.32456e-16
3.39883e-17
4.09182e-18
3.17908e-19
1.93156e-20
9.30009e-22
3.90103e-23
1.59909e-14
1.49897e-15
7.08478e-17
9.02352e-18
5.58232e-19
2.56698e-20
1.02671e-21
3.26063e-08
4.64312e-11
1.21068e-14
1.40871e-16
1.27326e-17
6.14039e-19
2.32781e-20
0.00015441
1.76398e-05
3.45149e-09
1.30192e-13
2.30384e-16
1.09131e-17
4.29121e-19
0.000327968
0.000139398
2.65376e-05
1.35956e-08
1.60737e-13
1.24865e-16
5.90032e-18
0.00050911
3.88185e-05
2.2994e-05
5.26176e-09
1.6847e-14
5.44602e-17
0.000478424
0.000209259
1.0274e-05
1.12959e-14
1.7163e-16
3.37751e-20
3.76102e-21
3.53659e-22
2.71306e-23
1.67788e-24
8.55044e-26
3.83624e-27
1.10139e-18
1.17371e-19
1.13486e-20
8.85574e-22
5.4756e-23
2.75902e-24
1.21842e-25
3.15216e-17
3.26605e-18
3.4334e-19
2.71474e-20
1.66647e-21
8.2542e-23
3.57392e-24
4.76973e-16
7.53486e-17
9.48926e-18
7.61431e-19
4.57858e-20
2.19634e-21
9.25651e-23
2.47457e-14
2.98952e-15
1.24045e-16
1.76124e-17
1.10134e-18
5.08396e-20
2.06285e-21
2.86406e-08
3.88092e-11
1.27584e-14
2.30375e-16
2.00909e-17
9.66782e-19
3.80832e-20
1.40117e-05
1.38612e-05
9.33582e-10
4.7205e-14
2.10994e-16
1.34868e-17
5.49399e-19
0.000207895
3.24431e-05
1.67541e-05
1.27291e-09
1.89929e-14
1.17349e-16
6.46616e-18
3.45058e-05
9.62712e-06
2.62715e-14
3.33668e-16
5.3725e-17
2.72635e-21
3.11001e-22
2.90206e-23
2.1901e-24
1.34296e-25
6.85302e-27
3.10053e-28
8.87595e-20
9.96001e-21
9.38032e-22
7.11069e-23
4.3353e-24
2.18527e-25
9.74108e-27
2.72831e-18
2.95321e-19
2.83243e-20
2.15623e-21
1.30321e-22
6.47028e-24
2.83405e-25
6.99895e-17
7.57816e-18
7.756e-19
5.88439e-20
3.5022e-21
1.70414e-22
7.31339e-24
5.36358e-16
1.60884e-16
1.99222e-17
1.43094e-18
8.23058e-20
3.89794e-21
1.63497e-22
6.00864e-14
5.62419e-15
2.79628e-16
3.19159e-17
1.63505e-18
7.46519e-20
3.06715e-21
5.41459e-08
4.33835e-11
1.73099e-14
3.76012e-16
2.66291e-17
1.13247e-18
4.63429e-20
4.27609e-05
1.03339e-05
1.29994e-07
1.60257e-14
2.51174e-16
1.30969e-17
5.45991e-19
1.55745e-06
4.70708e-07
3.06922e-08
4.77119e-16
1.07668e-16
5.23818e-18
1.78497e-22
2.04348e-23
1.88644e-24
1.40788e-25
8.59843e-27
4.39823e-28
2.00457e-29
5.72105e-21
6.50747e-22
6.02917e-23
4.50023e-24
2.73081e-25
1.38201e-26
6.21798e-28
1.72622e-19
1.92985e-20
1.7955e-21
1.34013e-22
8.06612e-24
4.03171e-25
1.78794e-26
4.63947e-18
5.05971e-19
4.76758e-20
3.56505e-21
2.1253e-22
1.04698e-23
4.56976e-25
9.8433e-17
1.10629e-17
1.10003e-18
8.25738e-20
4.87927e-21
2.36795e-22
1.01696e-23
4.97804e-16
1.86596e-16
2.19961e-17
1.6092e-18
9.40718e-20
4.5197e-21
1.91766e-22
4.14066e-14
5.36101e-15
2.79256e-16
2.57407e-17
1.44363e-18
6.9699e-20
2.96252e-21
1.24191e-08
1.02994e-11
8.70903e-15
2.47323e-16
1.6225e-17
8.29041e-19
3.64026e-20
2.10176e-06
4.79419e-09
1.87057e-13
1.39323e-16
7.85687e-18
3.57177e-19
9.24806e-24
1.06006e-24
9.73689e-26
7.24079e-27
4.42743e-28
2.27735e-29
1.04707e-30
2.89457e-22
3.30739e-23
3.04589e-24
2.26537e-25
1.37871e-26
7.0322e-28
3.19901e-29
8.43208e-21
9.5698e-22
8.84395e-23
6.58198e-24
3.98543e-25
2.01495e-26
9.06444e-28
2.1818e-19
2.44824e-20
2.27881e-21
1.70168e-22
1.02539e-23
5.13657e-25
2.28468e-26
4.78604e-18
5.32556e-19
5.05427e-20
3.819e-21
2.29786e-22
1.14178e-23
5.02543e-25
7.91142e-17
9.15199e-18
9.17563e-19
7.15339e-20
4.34643e-21
2.15445e-22
9.41597e-24
4.45877e-16
1.11408e-16
1.27327e-17
1.05712e-18
6.6419e-20
3.33449e-21
1.46035e-22
3.20602e-14
1.71136e-15
1.1467e-16
1.14436e-17
7.83984e-19
4.09371e-20
1.82381e-21
1.96337e-14
7.52526e-15
9.66636e-17
7.34599e-18
3.96779e-19
1.80314e-20
3.91384e-25
4.50151e-26
4.1338e-27
3.07737e-28
1.89007e-29
9.79373e-31
4.54791e-32
1.1936e-23
1.3716e-24
1.26343e-25
9.41623e-27
5.76678e-28
2.96961e-29
1.36712e-30
3.36615e-22
3.86136e-23
3.57351e-24
2.67002e-25
1.63165e-26
8.35341e-28
3.81333e-29
8.34839e-21
9.5669e-22
8.93252e-23
6.7133e-24
4.10027e-25
2.08886e-26
9.4622e-28
1.76154e-19
2.02286e-20
1.92186e-21
1.46356e-22
8.96809e-24
4.55589e-25
2.05126e-26
3.0013e-18
3.48012e-19
3.41829e-20
2.67962e-21
1.66222e-22
8.46145e-24
3.79945e-25
3.96352e-17
4.60513e-18
4.75782e-19
3.94908e-20
2.52458e-21
1.30062e-22
5.86085e-24
3.7323e-16
4.53099e-17
5.01813e-18
4.5271e-19
3.04479e-20
1.60854e-21
7.33549e-23
4.05235e-16
4.12974e-17
4.14237e-18
2.902e-19
1.56929e-20
7.26721e-22
1.44462e-26
1.66916e-27
1.53674e-28
1.14827e-29
7.09771e-31
3.71017e-32
1.74145e-33
4.29609e-25
4.97117e-26
4.5942e-27
3.43973e-28
2.12301e-29
1.1047e-30
5.14953e-32
1.17677e-23
1.36353e-24
1.26737e-25
9.52659e-27
5.87935e-28
3.04844e-29
1.4122e-30
2.8243e-22
3.2844e-23
3.08322e-24
2.33512e-25
1.44438e-26
7.47419e-28
3.44448e-29
5.75874e-21
6.75829e-22
6.45726e-23
4.95978e-24
3.08773e-25
1.59907e-26
7.34522e-28
9.59488e-20
1.14583e-20
1.12777e-21
8.88742e-23
5.60924e-24
2.92007e-25
1.34149e-26
1.27148e-18
1.54349e-19
1.58195e-20
1.30134e-21
8.42296e-23
4.43897e-24
2.04907e-25
1.33808e-17
1.64795e-18
1.74866e-19
1.51748e-20
1.01851e-21
5.47489e-23
2.55289e-24
1.44472e-17
1.55767e-18
1.4108e-19
9.74436e-21
5.34255e-22
2.52294e-23
0.00503083
0.079445
0.0231466
0.0113509
0.00296047
0.0287549
0.0109642
0.00481901
0.0648693
0.0209963
0.010751
0.00286249
0.0261514
0.0101526
0.00863218
0.0682351
0.0263422
0.020244
0.00382447
0.00987211
0.00229349
0.00417243
0.0881888
0.0236538
0.0103247
0.00242038
0.0340857
0.0113207
0.0725612
0.0511944
0.0502037
0.0462611
0.045464
0.0311437
0.0339687
0.00173072
0.013831
0.00589985
0.000752532
0.000228382
0.0018817
0.000784352
0.00618781
0.00580069
0.0016894
0.00550511
0.000782155
0.000231171
0.00103209
0.0712916
0.0547956
0.0496844
0.0559996
0.0508872
0.0339836
0.0369779
0.0128592
0.000880007
0.00172952
0.0053587
0.00134535
0.000709416
0.00017487
0.0466072
0.0201364
0.0199303
0.0343175
0.0338469
0.0239705
0.0147805
0.0513856
0.0215805
0.0369027
0.0222502
0.0379452
0.0261497
0.0160476
0.0618708
0.0468949
0.0428999
0.045681
0.0419055
0.027929
0.0301528
0.00138122
0.016455
0.00417006
0.000607576
0.00016197
0.00139091
0.000729201
0.00127345
0.000146753
0.000264835
0.000425521
0.000152755
0.000136879
8.4498e-06
0.00134476
0.00028366
7.5374e-05
0.000430377
0.000236448
0.000146675
6.98072e-06
0.000314517
0.000208464
0.00156889
3.53603e-05
3.96889e-06
0.000273935
9.30069e-05
0.0457243
0.0194707
0.0325198
0.0192723
0.0319657
0.0218753
0.0137184
0.0799628
0.0590081
0.0539236
0.0593711
0.0542979
0.0349055
0.0378212
0.000199747
0.00103134
0.000395583
3.54166e-05
4.45511e-06
0.000330917
0.000112199
0.000418508
0.0142624
0.00277395
0.00176188
0.000284707
0.00735975
0.00172873
0.0347181
0.0210515
0.0317957
0.020591
0.0139636
0.0131572
0.0221501
0.0362997
0.0215129
0.033304
0.0218979
0.0144955
0.0136562
0.0235395
0.0591524
0.024299
0.0407888
0.0247639
0.0412695
0.0271739
0.0168825
0.0127146
0.0101084
0.0100187
0.00495482
0.0049073
0.00770414
0.00382481
0.000356811
0.0127402
0.00220817
0.00167981
0.000243675
0.0099319
0.00138972
0.0331892
0.0195804
0.0304991
0.020124
0.0132363
0.0124974
0.0216184
0.00661371
0.0107428
0.0110524
0.00519994
0.00531153
0.00828262
0.00405366
0.000343929
0.0143446
0.00277406
0.00141593
0.000231589
0.0110788
0.00171727
0.0374717
0.0221636
0.0344911
0.02212
0.0145443
0.0137084
0.0237569
0.0167168
0.0150129
0.0244147
0.0163764
0.00722919
0.010781
0.0105553
0.0156608
0.0145794
0.0235609
0.0160451
0.00692389
0.0102814
0.0103694
0.0312681
0.0189157
0.0288957
0.0181392
0.0121421
0.0114915
0.0193805
0.0162875
0.0289443
0.0268545
0.0172706
0.010715
0.0101571
0.01843
0.000797065
0.00986707
0.00776489
0.0019984
0.000204879
0.00125504
0.000134943
0.0176565
0.0163725
0.0266185
0.0175935
0.00749795
0.0112271
0.0112971
0.0170755
0.0156795
0.0255708
0.0173922
0.00746853
0.0111743
0.0111612
0.00615012
0.0098224
0.00974475
0.00476175
0.00470499
0.00718837
0.00353618
0.0140661
0.0151795
0.0225322
0.0145994
0.00642038
0.00949527
0.00952174
0.037964
0.0220508
0.0350262
0.0217469
0.0140098
0.0132083
0.0233221
0.000178671
0.0114159
0.0020919
0.000720639
0.00010996
0.00593755
0.00126848
0.0369266
0.0198549
0.0340914
0.0210974
0.0126633
0.0119536
0.0226207
0.000830738
0.000435959
0.000117858
0.000369535
0.000153853
1.46281e-05
0.000234965
0.0131733
0.0133083
0.0211208
0.0139348
0.00569421
0.00841342
0.00910949
0.0175912
0.01683
0.0271929
0.0173685
0.00721703
0.0108222
0.011187
0.00762862
0.0120843
0.0123553
0.00569278
0.00579209
0.00870085
0.00416425
0.000173099
0.00410702
0.00103666
0.000137892
2.02662e-05
0.000553061
0.000140117
0.00322788
0.0014195
0.00140004
0.00254607
0.0025171
0.00194791
0.00105302
0.000147751
0.00193022
0.000828119
0.000135726
1.67681e-05
0.000504875
0.000106688
0.000114393
0.000524598
0.000434052
0.000127484
1.30595e-05
0.000373806
0.000236154
0.00336238
0.00142992
0.00262464
0.00142209
0.00265042
0.00202379
0.00106574
0.00781084
0.00292277
0.00387501
0.0040436
0.0057075
0.0028809
0.00207591
0.00760965
0.00277577
0.00377368
0.00388357
0.00561567
0.0028347
0.00199481
0.00086089
0.00200541
0.00140191
0.00123371
0.000832861
0.000767872
0.000498387
0.00102267
0.000968038
0.00090259
0.000571488
0.000614112
0.000534352
0.000329303
0.000137947
0.00205649
0.00101802
9.61564e-05
1.42313e-05
0.000508395
0.000131299
0.00843849
0.00300449
0.00410542
0.00415366
0.00605138
0.00300935
0.00210065
0.000487835
0.000333138
0.000173263
0.000389851
8.6749e-05
0.000133461
8.91915e-06
0.0137584
0.00866336
0.00872084
0.00485305
0.0082629
0.00831753
0.0145999
0.0128545
0.00833704
0.00810526
0.00465171
0.00795647
0.00774242
0.0136308
0.0159397
0.0166414
0.026638
0.0168759
0.00652779
0.00980554
0.0108873
0.00811236
0.00296231
0.00399347
0.0041566
0.00599019
0.00299376
0.00212089
0.0134342
0.00866332
0.0085233
0.00826208
0.00812958
0.0048506
0.00502982
0.00311062
0.00129587
0.00239413
0.00125337
0.00234512
0.00176479
0.000925576
0.00736014
0.00269696
0.00363177
0.0036043
0.0051721
0.00259677
0.00184495
0.00194727
0.00122682
0.00082266
0.00117477
0.000778188
0.000723993
0.000463594
0.0120444
0.00780301
0.00746191
0.00742017
0.00710233
0.00427683
0.00442126
0.006985
0.00233823
0.00342515
0.00318673
0.00494883
0.00247708
0.00161856
4.93699e-05
0.00148073
0.000365297
0.000743692
7.83757e-05
9.30529e-05
6.74601e-06
7.6485e-05
0.000656168
0.000207014
3.57487e-05
5.71563e-06
0.000263422
0.000103046
0.0112616
0.00416937
0.00479294
0.00482922
0.00694174
0.00698714
0.00752197
0.0105516
0.00400677
0.00465225
0.00454251
0.00669866
0.00652964
0.00709004
0.0108597
0.00647164
0.00697119
0.00370517
0.00667721
0.00620258
0.011465
0.0109961
0.00480469
0.00473904
0.00694198
0.00683554
0.00416892
0.00296942
0.0135218
0.00849234
0.00809936
0.00822595
0.00784543
0.00456085
0.00472696
0.000965038
0.000574073
0.00035919
0.000523707
0.000799978
0.00127429
0.000839119
0.00297663
0.00866816
0.00604669
0.00397429
0.00596482
0.00291993
0.0019873
0.000590425
0.000953971
0.00163876
0.00109531
0.000672398
0.000606463
0.00036457
0.00670355
0.00439298
0.00630489
0.00419336
0.00601104
0.00369571
0.00264563
0.000913949
0.00054712
0.000348456
0.000515788
0.000817713
0.00122338
0.000775059
0.00273646
0.00189111
0.00366127
0.00137258
0.00275175
0.00199552
0.000988125
0.00739637
0.00469283
0.00680417
0.00453467
0.00658777
0.00391662
0.00277116
0.000830193
0.000576804
0.000353412
0.000515661
0.000800441
0.00114373
0.000782673
0.000797822
0.000463641
0.000293003
0.000688105
0.000452347
0.00111231
0.000732098
0.00898599
0.0036649
0.00320662
0.00394772
0.00565721
0.00525716
0.00608132
0.0127206
0.00735359
0.00785951
0.00402824
0.00702041
0.00749793
0.0134881
0.00148284
0.0010663
0.0019729
0.0014643
0.000549305
0.00105652
0.000774087
0.000738303
0.00191664
0.00140541
0.0014395
0.000525924
0.00101412
0.000759747
0.00055835
0.000853103
0.00119909
0.000867048
0.000568708
0.000613167
0.00038037
0.000114704
0.00038923
0.000201503
0.000665484
0.000359159
0.000405021
0.00021133
0.000145451
0.000509027
0.000286467
0.00049989
0.000261144
0.000462035
0.00086108
0.000238262
0.000214071
0.000408434
0.000370181
0.000680146
0.000410914
0.000215267
5.99838e-05
0.0032337
0.000728651
3.43238e-05
3.93816e-06
0.000354513
8.10695e-05
0.00859648
0.00266215
0.00409739
0.00356456
0.00579745
0.00282168
0.0017549
0.000397811
0.000648791
0.000351052
0.000224333
0.000378058
0.000196279
0.000112425
1.39992e-05
2.60862e-05
0.00011794
6.55196e-05
2.9114e-06
1.55875e-06
3.43218e-08
5.69231e-06
0.000122638
2.65391e-05
5.45822e-05
9.52415e-07
2.28843e-06
2.00868e-08
0.00273572
0.00276442
0.0041759
0.00212158
0.000902715
0.00140885
0.00143003
0.00105366
0.00148297
0.00202929
0.00149792
0.000529251
0.00104734
0.000769663
0.001496
0.00107226
0.00201166
0.00150185
0.000551446
0.00107125
0.000780315
0.00268244
0.00262177
0.0039724
0.00204121
0.000890682
0.00139925
0.00136776
0.000456131
0.000505358
0.000847462
0.000256559
0.000489121
0.000282781
0.000143905
0.00936214
0.005921
0.00567954
0.00530631
0.00509637
0.00301079
0.00310263
0.00210337
0.00275834
0.00272757
0.00143245
0.00142062
0.00174699
0.00091853
0.000784409
0.000832582
0.00116791
0.000851587
0.000545458
0.000602037
0.000362331
0.000327095
0.000564902
0.000810566
0.000475417
0.000787283
0.00111728
0.000721704
0.000178559
0.000175044
0.00030649
0.000339343
0.000562061
0.000334288
0.000195746
0.000290179
0.000783867
0.000468135
0.000274502
0.000465122
0.000288332
0.000161597
0.000158193
8.54081e-05
4.99784e-05
6.18504e-06
3.58427e-06
1.15192e-07
3.01365e-06
0.000248698
0.000425028
0.000800785
0.000446697
0.000229722
0.000259029
0.00013012
4.62759e-05
9.68227e-06
7.20489e-05
2.84905e-05
3.51089e-07
4.63851e-07
3.58672e-09
0.0104227
0.00344997
0.00402552
0.0043163
0.00588628
0.00629037
0.00694064
0.000967003
0.00135966
0.00182472
0.00130235
0.000477387
0.000931202
0.000673909
0.00376271
0.00253623
0.00242013
0.00132172
0.00125845
0.00156027
0.000819942
1.4067e-05
0.00152326
0.000203106
0.000116039
8.51659e-06
0.00098305
0.000139285
0.00506734
0.00277063
0.00488724
0.00278498
0.00155761
0.0015312
0.00285894
1.52648e-05
0.00149985
0.000180219
0.000139823
9.43455e-06
0.000973965
0.000123765
0.0046488
0.00262029
0.00449219
0.00250146
0.00143749
0.00141484
0.00256187
7.1931e-05
5.24949e-06
8.48528e-05
1.94884e-06
7.93833e-08
3.29332e-05
3.38526e-06
1.31383e-06
0.00016394
5.25927e-05
3.59416e-07
5.37525e-09
1.47433e-05
1.24665e-06
1.40347e-05
1.14026e-06
0.000137056
1.68917e-07
1.81097e-09
6.92201e-06
4.21488e-07
0.000734922
0.000261437
0.000475272
0.000257359
0.00044994
0.000278259
0.000150581
0.000489848
0.000458746
0.000757978
0.000262549
0.000439434
0.000269929
0.00015367
0.000567627
0.000187782
0.000349618
0.000158839
0.000300012
0.000179521
9.20105e-05
0.000509427
0.000162775
0.000312678
0.000148557
0.000288822
0.000172281
8.54889e-05
0.00494271
0.00270297
0.00476769
0.00275804
0.0015399
0.00151323
0.00283155
0.00525559
0.00334967
0.00481446
0.00300137
0.00432252
0.00260321
0.00184992
0.000713457
0.000457955
0.000766507
0.00106759
0.000730449
0.000519721
0.0003107
0.00210507
0.00227494
0.00341079
0.00174028
0.000700169
0.00117876
0.00108495
0.00101599
0.0020189
0.00145632
0.00141555
0.000481117
0.000974674
0.00069898
0.000635774
0.000195702
0.000382603
0.000168607
0.000336665
0.000197609
9.67363e-05
0.00491313
0.00270464
0.00474019
0.0025914
0.00145714
0.00143424
0.00265698
0.0108034
0.00665653
0.00636537
0.00574738
0.00551358
0.00318455
0.0032889
0.00408731
0.00267006
0.00256869
0.00136773
0.00130694
0.00160629
0.000827233
8.23841e-06
0.00112064
0.000103097
0.000112277
4.7812e-06
0.000731481
6.74635e-05
0.000592788
0.00037665
0.000249406
0.000255054
0.000384399
0.000242815
0.000152152
5.69129e-05
4.16774e-05
5.56635e-05
9.13582e-07
3.24022e-06
2.50932e-06
2.83694e-08
0.000587381
0.00169716
0.00115796
0.00123496
0.000406807
0.000807302
0.000633042
0.000413618
0.000682925
0.000383763
0.000228336
0.000229657
0.000250899
0.000131033
0.00064237
0.000362694
0.000220999
0.000240037
0.000405515
0.000215939
0.000125989
0.00242557
0.00298599
0.00419894
0.00243819
0.00100606
0.00136089
0.00177391
0.00236953
0.00292574
0.00410112
0.00241557
0.000997475
0.00134567
0.00176002
0.00414156
0.00216025
0.00400973
0.00234524
0.00124196
0.00122502
0.00239921
0.00230012
0.00277207
0.00387562
0.00219908
0.000936081
0.00126093
0.00160706
0.00190285
0.00248375
0.00346889
0.00206442
0.000811738
0.001094
0.00150885
0.00889634
0.00364635
0.00534207
0.00317283
0.00464407
0.00272536
0.00189593
0.000238502
0.000382757
0.000223055
0.000138222
0.000223896
0.000342924
0.000552433
5.90668e-06
0.00113165
0.000152865
5.19455e-05
3.13923e-06
0.000716085
0.000102192
0.00448255
0.00225925
0.00432565
0.00244143
0.00125728
0.00123784
0.00250284
5.50943e-05
1.46985e-05
1.77342e-06
2.64174e-07
5.48777e-09
1.38585e-05
1.39996e-06
0.000535644
0.000291792
0.000177463
0.000163753
0.000321282
0.000190282
9.58485e-05
0.00224987
0.00242993
0.00380559
0.00188897
0.000696746
0.0011233
0.00122577
0.00236804
0.00288731
0.00407233
0.00226861
0.000939284
0.00127499
0.00164195
0.000448656
0.000762591
0.00107051
0.000733686
0.000419192
0.000515444
0.000283694
8.9518e-06
0.000296884
6.96964e-05
6.4547e-06
3.51154e-07
9.34853e-05
7.1213e-06
8.35062e-05
6.73704e-05
7.22042e-06
5.18145e-05
6.7723e-06
2.49959e-07
4.32743e-06
0.00106513
0.000455627
0.000356748
0.000367187
0.000708248
0.000723134
0.00054365
0.00103934
0.000454766
0.000367233
0.000358315
0.000714384
0.000697907
0.000540479
0.00197251
0.00261596
0.00371045
0.00213546
0.000803266
0.00109811
0.0015407
0.00347829
0.00195623
0.00337208
0.00173791
0.000991304
0.000978607
0.00177428
0.000620728
0.000255817
0.000384956
0.000296132
0.000432558
0.000254478
0.00016557
0.000598296
0.000409283
0.000238761
0.000282461
0.000423668
0.000248705
0.000157243
0.00106749
0.000371968
0.000371752
0.000727843
0.00072428
0.000467882
0.000237244
0.000614385
0.000252791
0.000375109
0.000293621
0.000427049
0.000245774
0.000161915
0.000220589
0.00034245
0.000545368
0.000235768
0.000361289
0.000225142
0.000137898
0.00293264
0.00191436
0.00170495
0.000979446
0.000864329
0.00107047
0.000546851
0.27625
0.107424
0.0417793
0.0168224
0.00606188
0.00163045
0.00270462
0.143379
0.401942
0.260744
0.0905096
0.0456055
0.150842
0.0796075
0.366693
0.356701
0.321183
0.359739
0.325005
0.279305
0.312877
0.0209825
0.0739783
0.0364025
0.00794444
0.0032493
0.0184546
0.00760979
0.2691
0.122263
0.227901
0.126591
0.232799
0.19442
0.10201
0.00223599
0.0154386
0.0060454
0.00346471
0.000969609
0.0112761
0.00380529
0.0355086
0.214507
0.100371
0.0358551
0.0153166
0.0642441
0.0333254
0.308857
0.22997
0.27485
0.234435
0.218611
0.192183
0.265118
0.317592
0.246536
0.28478
0.239968
0.229337
0.203181
0.270286
0.171975
0.106789
0.200548
0.165258
0.072247
0.139599
0.0856828
0.15603
0.0986886
0.189871
0.159942
0.0660142
0.129781
0.0820736
0.0393239
0.0579682
0.0605559
0.030089
0.0314545
0.0474655
0.0240885
0.0247543
0.0136539
0.0185899
0.0140262
0.0193012
0.0144503
0.0102901
0.197211
0.184458
0.179469
0.12668
0.162852
0.157878
0.223602
0.188235
0.175162
0.171756
0.153723
0.150585
0.119698
0.136077
0.0137587
0.0112772
0.0114606
0.00992944
0.00999306
0.00826253
0.0070902
0.00794803
0.0292741
0.00766815
0.00247276
0.00107254
0.00431199
0.00246907
0.0457193
0.0182465
0.0232754
0.0300371
0.0375619
0.0187257
0.0147867
0.0500518
0.0206141
0.0253468
0.0329266
0.0393311
0.0194993
0.0159654
0.134108
0.0871775
0.0575202
0.0549354
0.111376
0.107134
0.0686622
0.126668
0.0530452
0.0518459
0.103817
0.101531
0.0816782
0.0424923
0.000691304
0.0095659
0.00306592
0.00106441
0.00012598
0.00274354
0.000752062
0.0125396
0.00794787
0.00894351
0.00785625
0.00891985
0.00623047
0.00540276
0.139435
0.0953739
0.122856
0.0926382
0.077386
0.0692784
0.10457
0.011788
0.0105835
0.0150584
0.011289
0.00580066
0.00888561
0.00772798
0.0108109
0.0101676
0.0141003
0.010977
0.00570801
0.0084611
0.00762889
0.133523
0.0888443
0.117416
0.0904108
0.0738581
0.0659486
0.102174
0.0261991
0.0250411
0.0312327
0.0152607
0.0100381
0.0125779
0.0121319
0.0144994
0.0242345
0.0237443
0.0118335
0.0116561
0.0196629
0.0095567
0.000620946
0.00256205
0.00122232
0.000623332
0.000151943
0.00168443
0.00108105
0.0082588
0.00512912
0.00715557
0.00435861
0.00599189
0.00503697
0.00356983
0.0667331
0.043793
0.0840729
0.0645725
0.0277562
0.0497233
0.0346288
0.0619489
0.0417346
0.0801254
0.0629446
0.0264283
0.0472489
0.0337775
0.00839036
0.00496916
0.00711749
0.0042979
0.00598679
0.00497496
0.00343282
0.145737
0.0179961
0.00834346
0.396382
0.253541
0.0799347
0.257331
0.131832
0.0781848
0.0415116
0.360808
0.348591
0.350126
0.31455
0.313762
0.267985
0.301297
0.07044
0.0367338
0.010251
0.0357675
0.019279
0.00762309
0.00324468
0.26315
0.119178
0.118109
0.222004
0.222566
0.185036
0.0960931
0.0153688
0.00519416
0.0030844
0.00733465
0.00177138
0.00260838
0.00169788
0.300372
0.224842
0.267934
0.224242
0.209004
0.18416
0.253789
0.303024
0.226721
0.269146
0.224818
0.211517
0.185568
0.255017
0.0372541
0.0562726
0.0555841
0.0289057
0.0292517
0.0444866
0.0227523
0.097505
0.154511
0.186266
0.15284
0.0640525
0.125078
0.0783799
0.095811
0.153527
0.185211
0.152472
0.0633395
0.124851
0.0777806
0.0236796
0.0136264
0.0135388
0.0180913
0.0182583
0.0139326
0.010191
0.184256
0.168156
0.169438
0.116077
0.148634
0.147819
0.209726
0.0139487
0.0114394
0.0113863
0.0101793
0.0102163
0.00839199
0.00735552
0.0452821
0.0184049
0.0231134
0.0292812
0.0359376
0.0180725
0.0144935
0.0442941
0.0179994
0.0226612
0.0289061
0.0356165
0.0179445
0.0143644
0.124357
0.0515215
0.0794444
0.0513486
0.100364
0.100267
0.0632912
0.0117757
0.00836512
0.0092864
0.00931466
0.0129136
0.00658213
0.00580039
0.00766955
0.0140852
0.0108911
0.0107675
0.00570812
0.00836568
0.00763711
0.0101663
0.0107397
0.0138905
0.0107267
0.0057277
0.00834326
0.00763275
0.0236464
0.0235546
0.0289128
0.0143623
0.00940302
0.0115824
0.0116024
0.00735131
0.00840974
0.00610638
0.00440894
0.00611493
0.00522393
0.00364662
0.005209
0.00610202
0.00837135
0.00444424
0.00612532
0.00524066
0.00368769
0.00666041
0.00723076
0.00652499
0.00497292
0.00483181
0.00441859
0.00322477
0.00256594
0.00386385
0.00451578
0.00577227
0.0065641
0.00455879
0.0039161
0.00312717
0.0038998
0.00454203
0.00577842
0.00656013
0.0045785
0.00393723
0.00861823
0.00533687
0.00431021
0.00429545
0.0068319
0.00668912
0.0057252
0.00417922
0.00530358
0.0061861
0.00423932
0.00228058
0.00281776
0.00356382
0.00445014
0.00554262
0.00634114
0.00433645
0.00247653
0.00299529
0.00368249
0.0674368
0.0535093
0.0522787
0.0325314
0.0484178
0.0472341
0.0754691
0.00571863
0.00655802
0.00837952
0.00430293
0.00660529
0.00520478
0.00326151
0.00430759
0.00428731
0.00514606
0.00653205
0.0065223
0.00833628
0.00572066
0.0202009
0.00805993
0.00975096
0.0133904
0.0163019
0.00787142
0.00645357
0.00944406
0.0193606
0.0157711
0.012829
0.0159522
0.00774226
0.00624165
0.0482985
0.0249583
0.0209669
0.0204738
0.0358726
0.0349806
0.0269628
0.00308507
0.00312553
0.00431133
0.00349117
0.00166646
0.00238717
0.00245184
0.00364494
0.00320751
0.00441274
0.00317293
0.00251633
0.00230737
0.00176009
0.00257334
0.00230983
0.00321362
0.00254936
0.00319005
0.00443882
0.003684
0.00220283