/*--------------------------------*- C++ -*----------------------------------*\
  =========                 |
  \\      /  F ield         | OpenFOAM: The Open Source CFD Toolbox
   \\    /   O peration     | Website:  https://openfoam.org
    \\  /    A nd           | Version:  9
     \\/     M anipulation  |
\*---------------------------------------------------------------------------*/
FoamFile
{
    format      ascii;
    class       volScalarField;
    location    "0.00175";
    object      rhoE;
}
// * * * * * * * * * * * * * * * * * * * * * * * * * * * * * * * * * * * * * //

dimensions      [1 -1 -2 0 0 0 0];

internalField   nonuniform List<scalar> 
13386
(
254224
253245
253245
253245
253245
253245
253245
253245
253245
390836
253245
253245
253245
253245
253245
253245
253245
253245
253245
253245
253245
253245
262536
253251
255571
253336
253248
261687
253245
291258
400834
311939
255568
265210
257136
261866
253245
253245
253245
253245
253245
253245
253245
253245
253245
253246
253245
253245
253245
253248
255105
269663
257422
253797
253494
254318
253350
253245
253245
253245
253245
253245
253245
253245
253245
253246
253245
253245
253249
253245
253245
253246
253258
253276
253248
253306
253247
254412
253246
253438
253245
263913
253311
253299
253245
253245
253245
253245
253245
253245
253245
253245
253245
253245
253245
253245
253245
253245
253245
253245
253245
253245
253245
253245
253245
253245
253245
253245
253245
253245
253245
253245
253245
253245
253245
253245
253245
253245
253245
253245
253245
253245
253245
253245
253245
253245
253245
253245
253245
253245
253245
253245
253245
253245
253245
253245
253245
253245
253245
253245
253245
253245
253245
253245
253245
253245
253245
253245
253245
253245
253245
253245
253245
253245
253245
253245
253245
253245
253245
253245
253245
253245
253245
253245
253245
253245
253245
253245
253245
253245
253245
253245
253245
253245
253245
253245
253245
253245
253245
253245
253245
253245
253245
253245
253245
253245
253245
253245
253245
253245
253245
253245
253245
253245
253245
253245
253245
253245
253245
253245
253245
253245
253245
253245
253245
253245
253245
253245
253245
253245
253245
253245
253245
253245
253245
253245
253245
253245
253245
253245
253245
253245
253245
253245
253245
253245
253245
253245
253245
253245
253245
253245
253245
253245
253245
253245
253245
253245
253245
253245
253245
253245
253245
253245
253245
253245
253245
253245
253245
253245
253245
253245
253245
253245
253245
253245
253245
253245
253245
253245
253245
253245
253245
253245
253245
253245
253245
253245
253245
253245
253245
253245
253245
253245
253245
253245
253245
253245
253245
253245
253245
253245
253245
253245
253245
253245
253245
253245
253245
253245
253245
253245
253245
253245
253245
253245
253245
253245
253245
253245
253245
253245
253245
253245
253245
253245
253245
253245
253245
253245
253245
253245
253245
253245
253245
253245
253245
253245
253245
253245
253245
253245
253245
253245
253245
253245
253245
253245
253245
253245
253245
253245
253245
253245
253245
253245
253245
253245
253245
253245
253245
253245
253245
253245
253245
253245
253245
253245
253245
253245
253245
253245
253245
253245
253245
253245
253245
253245
253245
253245
253245
253245
253245
253245
253245
253245
253245
253245
253245
253245
253245
253245
253245
253245
253245
253245
253245
253245
253245
253245
253245
253245
253245
253245
253245
253245
253245
253245
253245
253245
253245
253245
253245
253245
253245
253245
253245
253245
253245
253245
253245
253245
253245
253245
253245
253245
253245
253245
253245
253245
253245
253245
253245
253245
253245
253245
253245
253245
253245
253245
253245
253245
253245
253245
253245
253245
253245
253245
253245
253245
253245
253245
253245
253245
253245
253245
253245
253245
253245
253245
253245
253245
253245
253245
253245
253245
253245
253245
253245
253245
253245
253245
253245
253245
253245
253245
253245
253245
253245
253245
253245
253245
253245
253245
253245
253245
253245
253245
253245
253245
253245
253245
253245
253245
253245
253245
253245
253245
253245
253245
253245
253245
253245
253245
253245
253245
253245
253245
253245
253245
253245
253245
253245
253245
253245
253245
253245
253245
253245
253245
253245
253245
253245
253245
253245
253245
253245
253245
253245
253245
253245
253245
253245
253245
253245
253245
253245
253245
253245
253245
253245
253245
253245
253245
253245
253245
253245
253245
253245
253245
253245
253245
253245
253245
253245
253245
253245
253245
253245
253245
253245
253245
253245
253245
253245
253245
253245
253245
253245
253245
253245
253245
253245
253245
253245
253245
253245
253245
253245
253245
253245
253245
253245
253245
253245
253245
253245
253245
253245
253245
253245
253245
253245
253245
253245
253245
253245
253245
253245
253245
253245
253245
253245
253245
253245
253245
253245
253245
253245
253245
253245
253245
253245
253245
253245
253245
253245
253245
253245
253245
253245
253245
253245
253245
253245
253245
253245
253245
253245
253245
253245
253245
253245
253245
253245
253245
253245
253245
253245
253245
253245
253245
253245
253245
253245
253245
253245
253245
253245
253245
253245
253245
253245
253245
253245
253245
253245
253245
253245
253245
253245
253245
253245
253245
253245
253245
253245
253245
253245
253245
253245
253245
253245
253245
253245
253245
253245
253245
253245
253245
253245
253245
253245
253245
253245
253245
253245
253245
253245
253245
253245
253245
253245
253245
253245
253245
253245
253245
253245
253245
253245
253245
253245
253245
253245
253245
253245
253245
253245
253245
253245
253245
253245
253245
253245
253245
253245
253245
253245
253245
253245
253245
253245
253245
253245
253245
253245
253245
253245
253245
253245
253245
253245
253245
253245
253245
253245
253245
253245
253245
253245
253245
253245
253245
253245
253245
253245
253245
253245
253245
253245
253245
253245
253245
253245
253245
253245
253245
253245
253245
253245
253245
253245
253245
253245
253245
253245
253245
253245
253245
253245
253245
253245
253245
253245
253245
253245
253245
253245
253245
253245
253245
253245
253245
253245
253245
253245
253245
253245
253245
253245
253245
253245
253245
253245
253245
253245
253245
253245
253790
253245
253245
253245
253245
253245
253245
253245
253245
253245
253245
253245
253245
253245
253245
253245
253245
253245
253245
253245
253245
253245
253245
253245
253245
253245
253245
253245
253245
253245
253261
253251
253245
253247
253245
253245
253245
253245
253245
253245
253245
253245
253245
253245
253245
253245
253245
253245
253245
253245
253245
253245
253245
253245
253245
253245
253245
253245
253245
253245
253245
253245
253245
253245
253245
253245
253245
253289
253289
253245
253245
253254
253245
253245
253245
253245
253245
253245
253245
253245
253245
253245
253245
253245
253245
253245
253245
253245
253245
253245
253247
253245
253245
253245
253245
253245
253245
253245
253245
253245
253245
253245
253245
253245
253245
253245
253245
253245
253245
253245
253245
253245
253245
253245
253245
253245
253245
253245
253245
253245
253245
253245
253245
253245
253245
253245
253245
253245
253245
253245
253245
253245
253245
253245
253245
253245
253245
253245
253245
253245
253245
253245
253245
253245
253245
253245
253245
253245
253245
253245
253245
253245
253245
253245
253245
253245
253245
253245
253245
253245
253245
253245
253245
253245
253245
253245
253245
253245
253245
253245
253245
253245
253245
253245
253245
253245
253245
253245
253245
253245
253245
253245
253245
253245
253245
253245
253245
253245
253245
253245
253245
253245
253245
253245
253245
253245
253245
253245
253245
253245
253245
253245
253245
253245
253245
253245
253245
253245
253245
253245
253245
253245
253245
253245
253245
253245
253245
253245
253245
253245
253245
253245
253245
253245
253245
253245
253245
253245
253245
253245
253245
253245
253245
253245
253245
253245
253245
253245
253245
253245
253245
253245
253245
253245
253245
253245
253245
253245
253245
253245
253245
253245
253245
253245
253245
253245
253245
253245
253245
253245
253245
253245
253245
253245
253245
253245
253245
253245
253245
253245
253245
253245
253245
253245
253245
253245
253245
253245
253245
253245
253245
253245
253245
253245
253245
253245
253245
253245
253245
253245
253245
253245
253245
253245
253245
253245
253245
253245
253245
253245
253245
253245
253245
253245
253245
253245
253245
253245
253245
253245
253245
253245
253245
253245
253245
253245
253245
253245
253245
253245
253245
253245
253245
253245
253245
253245
253245
253245
253245
253245
253245
253245
253245
253245
253245
253245
253245
253245
253245
253245
253245
253245
253245
253245
253245
253245
253245
253245
253245
253245
253245
253245
253245
253245
253245
253245
253245
253245
253245
253245
253245
253245
253245
253245
253245
253245
253245
253245
253245
253245
253245
253245
253245
253245
253245
253245
253245
253245
253245
253245
253245
253245
253245
253245
253245
253245
253245
253245
253245
253245
253245
253245
253245
253245
253245
253245
253245
253245
253245
253245
253245
253245
253245
253245
253245
253245
253245
253245
253245
253245
253245
253245
253245
253245
253245
253245
253245
253245
253245
253245
253245
253245
253245
253245
253245
253245
253245
253245
253245
253245
253245
253245
253245
253245
253245
253245
253245
253245
253245
253245
253245
253245
253245
253245
253245
253245
253245
253245
253245
253245
253245
253245
253245
253245
253245
253245
253245
253245
253245
253245
253245
253245
253245
253245
253245
253245
253245
253245
253245
253245
253245
253245
253245
253245
253245
253245
253245
253245
253245
253245
253245
253245
253245
253245
253245
253245
253245
253245
253245
253245
253245
253245
253245
253245
253245
253245
253245
253245
253245
253245
253245
253245
253245
253245
253245
253245
253245
253245
253245
253245
253245
253245
253245
253245
253245
253245
253245
253245
253245
253245
253245
253245
253245
253245
253245
253245
253245
253245
253245
253245
253245
253245
253245
253245
253245
253245
253245
253245
253245
253246
253482
253255
253255
253276
253245
253245
253245
253245
253245
253245
253245
253245
253245
253245
253245
253245
253245
253245
253257
253247
253247
253704
253320
253300
253857
253246
253247
253245
253473
253253
253271
253319
253245
253245
253245
253248
253247
253262
253245
253245
253245
253245
253245
253245
253245
253245
253245
253245
253245
253245
253245
253245
253245
253245
253245
253245
253245
253245
253245
253245
253245
253245
253245
253245
253245
253245
253245
253245
253245
253245
253245
253245
253245
253245
253245
253245
253245
253245
253245
253245
253245
253248
253450
253258
254034
253512
257779
253290
253245
253245
253245
253245
253246
253245
253245
253246
253245
253245
253258
253246
253247
253245
253245
253245
253245
253245
253245
253245
253245
253245
253245
253245
253245
253245
253245
253245
253245
253245
253245
253245
253245
253245
253245
253245
253245
253245
253245
253245
253245
253245
253245
253245
253245
253245
253245
253245
253245
253245
253245
253245
253245
253245
253245
253245
253245
253245
253245
253245
253245
253245
253245
253254
253246
253245
253245
253245
253245
253245
253245
253270
253245
253245
253245
253245
253245
253245
253245
253245
258352
253681
253525
253245
253245
253245
253245
253245
253245
253245
253245
253245
253245
253245
253245
253245
253245
253245
253245
253245
253245
253245
253245
253245
253245
253245
253245
253245
253245
253245
253245
253245
253245
253245
253245
253245
253245
253245
253245
253245
253245
253245
253814
255470
267910
263490
492285
297838
346440
253260
253288
254073
253275
253353
253250
253247
253245
253245
253245
253245
253245
253245
253245
253245
253245
253245
253245
253245
253245
253245
253245
253245
253245
253245
253245
253245
253245
253245
253245
253245
253245
253245
253245
253245
253245
253245
253245
253245
253245
253245
253245
253245
253245
253245
253245
253245
253245
253245
253245
253245
253245
253245
253245
253245
253245
253245
253245
253245
253245
253245
253245
253245
253245
253245
253245
253245
253245
253245
253245
253245
253245
253245
253245
253245
253245
253245
253245
253245
253245
253245
253245
253245
253245
253245
253245
253245
253245
253245
253245
253245
253245
253245
253245
253245
253245
253245
253245
253245
253245
253245
253245
253245
253245
253245
253245
253245
253245
253245
253245
253245
253245
253245
253245
253245
253245
253245
253245
253245
253245
253245
253245
253245
253245
253245
253245
253245
253245
253245
253245
253245
253245
253245
253245
253245
253245
253245
253245
253245
253245
253245
253245
253245
253245
253245
253245
253245
253245
253245
253245
253245
253245
253245
253245
253245
253245
253245
253245
253245
253245
253245
253245
253245
253245
253245
253245
253245
253245
253245
253245
253245
253245
253245
253245
253245
253245
253245
253245
253245
253245
253245
253245
253247
253245
253245
253245
253249
253245
253245
253245
253245
253245
253245
253245
253245
253245
253245
253245
253245
253245
253245
253245
253245
253245
253245
253245
253245
253245
253245
253245
253245
253245
253245
253245
253245
253245
253245
253245
253245
253245
253245
253245
253245
253245
253245
253245
253245
253245
253245
253245
253245
253245
253245
253245
253245
253245
253246
253247
253245
253245
253245
253245
253245
253245
253245
253245
253245
253245
253245
253245
253245
253245
253245
253245
253245
253245
253245
253245
253245
253245
253245
253245
253245
253245
253245
253245
253245
253245
253245
253245
253245
253245
253245
253245
253245
253245
253245
253245
253245
253245
253245
253245
253245
253245
253245
253245
253245
253245
253245
253245
253245
253245
253245
253245
253245
253245
253245
253245
253245
253245
253245
253245
253245
253245
253245
253245
253245
253245
253245
253245
253245
253245
253245
253245
253245
253245
253245
253245
253245
253245
253245
253245
253245
253245
253245
253245
253245
253245
253245
253245
253245
2.3418e+06
2.06719e+06
421003
253245
2.55719e+06
255471
253245
5.25739e+06
253314
253575
2.47423e+06
253245
253245
1.94442e+06
253290
253245
3.57376e+06
253245
309352
253389
366291
253245
253245
254583
253245
253245
255656
253245
253258
253250
793963
253306
253245
253245
262560
253245
253245
253245
255469
253245
253245
253245
253245
253245
342292
253262
253245
253245
253245
256574
253245
253245
253245
253245
253266
253245
253245
253245
253245
253245
253245
253245
253245
253245
253245
253245
253245
253245
253245
253245
253245
253245
253245
5.79429e+06
5.51071e+06
304220
4.84701e+06
260156
2.47845e+06
258480
3.74764e+06
254099
6.01582e+06
5.74359e+06
271157
4.4398e+06
255382
253246
5.10294e+06
746547
5.43328e+06
1.2974e+06
253737
295065
253246
253245
280493
283697
267688
254088
278117
253247
253245
254112
253245
253247
253245
253245
253245
344791
341061
253249
253245
253245
402474
268633
1.34484e+06
334041
312638
253262
253253
254142
253245
253424
253246
253246
253245
253245
253245
253245
253245
253245
253245
253245
296790
308154
253250
253245
253245
253245
253245
323735
253352
253246
3.37044e+06
5.15951e+06
3.15373e+06
254348
2.67192e+06
253445
271987
253247
268320
253246
891239
2.11915e+06
379885
253310
253355
253248
253344
253316
253248
253245
253245
253245
253667
259167
253247
253619
253275
253470
253246
253245
253245
253245
253245
253245
253245
253245
253245
253245
253245
253245
253245
253245
253245
253403
253427
5.50247e+06
5.78061e+06
5.48178e+06
5.69971e+06
5.07081e+06
5.36284e+06
1.45949e+06
4.22613e+06
2.44818e+06
4.7168e+06
4.0639e+06
2.2266e+06
1.66884e+06
1.03988e+06
4.37765e+06
2.84238e+06
1.05554e+06
3.62872e+06
1.73398e+06
591101
5.99713e+06
5.90721e+06
4.90667e+06
1.79756e+06
2.63257e+06
262105
259952
339095
253475
506419
253981
255915
4.46319e+06
4.1969e+06
3.22989e+06
2.46233e+06
390733
1.41371e+06
4.7876e+06
3.39117e+06
253338
272610
253297
253323
253837
256332
253253
746081
254336
267271
262177
260442
1.03321e+06
254547
479870
253562
294970
261647
931729
263475
254409
417675
291218
253851
253622
253293
253247
253293
253261
254654
253278
253246
253471
253269
253285
253252
253256
253246
253245
253247
253245
253245
253246
253245
253245
1.79355e+06
257089
388067
1.76836e+06
256791
383874
253382
253375
257596
253245
253247
253245
253245
253245
253245
253245
253249
253245
253245
330684
279093
481716
254352
569512
258464
270482
433451
547180
257270
286109
278458
266384
253382
253355
253509
254100
255412
254962
253265
254946
253291
253312
253349
253575
253249
253246
253246
253247
253245
253251
253245
253245
253248
253253
253252
253245
253297
253246
253246
253245
253245
253245
253245
253245
253245
253245
253245
253245
253245
253245
253245
253245
253245
253245
253245
253245
253245
253245
253245
253245
853771
254633
278242
255676
284226
253317
253357
254714
253249
253245
253245
253248
253245
253245
253245
253245
253245
253245
253245
253245
266012
1.10115e+06
259057
256626
361397
310496
253907
253253
271608
811658
255380
266685
703053
254800
277899
253255
253254
253273
253245
253594
253246
253246
1.39124e+06
2.2674e+06
453397
2.288e+06
990631
2.3382e+06
273457
253245
253251
253245
253460
253245
253247
253245
253245
253245
253245
253245
253245
253245
253245
1.19414e+06
1.62305e+06
1.45947e+06
562117
782433
300413
253246
269462
253246
253507
253246
253254
253245
253245
253245
253245
253245
253245
253245
253245
254319
421301
253279
254726
253251
253992
253246
253245
253247
253245
253246
253245
253245
253245
253245
253245
253245
253245
253245
253245
253245
1.72522e+06
519159
1.31164e+06
336965
690936
297243
266971
449436
257184
253656
304864
258387
253365
254760
346301
2.14306e+06
257534
1.0677e+06
253393
1.35752e+06
253251
253245
253245
253245
253245
253245
253245
253245
253249
253246
253245
253245
253245
1.1882e+06
2.35313e+06
1.32562e+06
3.53573e+06
3.35862e+06
950411
2.47385e+06
913315
1.2113e+06
2.49467e+06
3.49224e+06
4.46218e+06
1.38336e+06
959912
2.17907e+06
3.33991e+06
1.50843e+06
6.26966e+06
761002
890581
1.52807e+06
253267
253333
254785
253245
253245
253245
253245
253245
253245
253245
253245
253245
253245
253245
253245
253245
253245
253245
253245
253245
253245
253245
253245
253245
253245
253245
253245
253245
253245
253245
253245
253245
253245
2.73577e+06
2.91729e+06
2.59973e+06
2.93279e+06
3.32376e+06
2.88291e+06
3.38575e+06
3.61916e+06
2.78028e+06
3.95722e+06
2.82881e+06
3.26458e+06
3.96359e+06
3.51679e+06
3.65229e+06
3.24464e+06
3.10332e+06
6.54095e+06
2.63235e+06
4.46468e+06
3.25958e+06
607121
6.65507e+06
3.61946e+06
6.27147e+06
6.57436e+06
2.78271e+06
6.826e+06
1.33679e+06
1.36226e+06
661482
5.99829e+06
6.86576e+06
1.33427e+06
4.28624e+06
3.49605e+06
4.47281e+06
2.63951e+06
2.93262e+06
5.69887e+06
5.22271e+06
6.13817e+06
5.47812e+06
6.78074e+06
4.69279e+06
4.69848e+06
1.96573e+06
2.92078e+06
677827
255148
2.70871e+06
3.00858e+06
2.57984e+06
3.01713e+06
3.09183e+06
2.65771e+06
2.64724e+06
2.46665e+06
2.55364e+06
2.44701e+06
2.57824e+06
2.79202e+06
3.13209e+06
3.37388e+06
2.89715e+06
3.19557e+06
2.75094e+06
2.93684e+06
4.36273e+06
3.48049e+06
4.22716e+06
3.51169e+06
3.58788e+06
4.40361e+06
4.22361e+06
5.32309e+06
5.48253e+06
5.59576e+06
5.22758e+06
4.57804e+06
3.6713e+06
3.97547e+06
5.07733e+06
3.72905e+06
4.66231e+06
4.92256e+06
5.45147e+06
5.90837e+06
5.7413e+06
5.61682e+06
2.4856e+06
2.93317e+06
2.56062e+06
2.45807e+06
2.35747e+06
3.05464e+06
2.79788e+06
2.65062e+06
5.67912e+06
5.80734e+06
3.66338e+06
5.16479e+06
4.7381e+06
6.05583e+06
5.94457e+06
3.03433e+06
2.73325e+06
2.75699e+06
3.02544e+06
3.5157e+06
3.65292e+06
3.14465e+06
4.21319e+06
3.15967e+06
4.16984e+06
3.52255e+06
3.50282e+06
4.30972e+06
3.4736e+06
4.41898e+06
4.19797e+06
5.26327e+06
6.50796e+06
5.46116e+06
5.30122e+06
4.19173e+06
5.61477e+06
5.98707e+06
4.40778e+06
5.6551e+06
5.31686e+06
5.42998e+06
5.23639e+06
6.17698e+06
5.43734e+06
5.98086e+06
5.70456e+06
5.86294e+06
6.00701e+06
6.31265e+06
6.31776e+06
5.78801e+06
6.24401e+06
6.31662e+06
5.00047e+06
4.37753e+06
3.35924e+06
5.19218e+06
2.11339e+06
3.06109e+06
4.15945e+06
3.46445e+06
4.13995e+06
3.39557e+06
5.0324e+06
5.13861e+06
4.08668e+06
6.07884e+06
5.98442e+06
6.11791e+06
6.00961e+06
6.27314e+06
4.24796e+06
5.53391e+06
6.12356e+06
5.7405e+06
5.79041e+06
6.59135e+06
5.84993e+06
6.32213e+06
6.73192e+06
5.82637e+06
6.54328e+06
4.6318e+06
6.65659e+06
4.93174e+06
4.40256e+06
6.11954e+06
2.79534e+06
3.71644e+06
3.15541e+06
406143
2.37132e+06
1.66016e+06
5.28878e+06
1.3475e+06
486199
5.10564e+06
3.807e+06
3.7078e+06
2.41601e+06
2.19659e+06
1.10816e+06
6.58305e+06
6.33333e+06
7.01828e+06
5.73336e+06
6.88117e+06
4.41452e+06
3.76461e+06
6.21765e+06
839660
1.79725e+06
1.42624e+06
508406
1.313e+06
2.76131e+06
3.03684e+06
2.20393e+06
1.07385e+06
2.70756e+06
2.94835e+06
1.69312e+06
3.1927e+06
1.88644e+06
1.19367e+06
1.83906e+06
2.77302e+06
1.94692e+06
1.05568e+06
2.557e+06
2.7026e+06
863341
1.49623e+06
1.78448e+06
2.15957e+06
2.11174e+06
2.29525e+06
2.57194e+06
1.96186e+06
2.13289e+06
2.61654e+06
2.33533e+06
1.6384e+06
1.17738e+06
2.19026e+06
924374
1.5879e+06
999921
1.81238e+06
2.33117e+06
1.3395e+06
1.38329e+06
1.06731e+06
1.51755e+06
562695
1.50494e+06
442857
1.28067e+06
253327
253246
253245
253245
253245
253245
253245
253245
834313
1.00286e+06
406653
808253
279127
696810
833948
686624
1.46379e+06
1.0029e+06
1.11765e+06
1.49436e+06
284980
468391
319406
1.17736e+06
840981
1.08601e+06
685082
684976
1.08468e+06
833300
1.93128e+06
265984
988895
3.27797e+06
1.47979e+06
409809
2.58248e+06
867054
830933
2.42531e+06
2.03873e+06
2.30516e+06
4.30316e+06
4.96407e+06
2.09836e+06
2.26782e+06
2.19069e+06
2.38718e+06
3.4783e+06
3.35297e+06
4.46998e+06
5.32491e+06
6.40321e+06
1.49638e+06
4.4192e+06
1.47256e+06
899928
3.58733e+06
5.62913e+06
1.10506e+06
2.23717e+06
2.07329e+06
2.28917e+06
2.5002e+06
5.78504e+06
2.61569e+06
1.3799e+06
334599
263481
2.3996e+06
2.11571e+06
2.31704e+06
2.13839e+06
2.14741e+06
2.37434e+06
2.35588e+06
2.19322e+06
2.28168e+06
2.20009e+06
2.12438e+06
2.41263e+06
2.59581e+06
2.62342e+06
2.92702e+06
3.60171e+06
2.98068e+06
2.82009e+06
4.62517e+06
5.73086e+06
5.45275e+06
6.11019e+06
3.82548e+06
5.19953e+06
6.63987e+06
2.55189e+06
2.98004e+06
4.28549e+06
3.22225e+06
3.32514e+06
2.10107e+06
3.78116e+06
2.10245e+06
2.05431e+06
1.24086e+06
2.28472e+06
1.68389e+06
3.17181e+06
1.77803e+06
2.27487e+06
1.78729e+06
1.56687e+06
5.07031e+06
4.45444e+06
4.90665e+06
2.83974e+06
3.06445e+06
4.27065e+06
2.02529e+06
1.89832e+06
2.0582e+06
2.02426e+06
1.86663e+06
1.96604e+06
2.18906e+06
2.09949e+06
2.84191e+06
2.84874e+06
2.03104e+06
2.71116e+06
3.58788e+06
3.49974e+06
1.32209e+06
5.28256e+06
3.34906e+06
6.0549e+06
1.74572e+06
1.90625e+06
1.71279e+06
1.92919e+06
1.93341e+06
1.74167e+06
1.71815e+06
1.78011e+06
1.97148e+06
2.03427e+06
1.81487e+06
1.97563e+06
1.77578e+06
1.82419e+06
1.70419e+06
1.88702e+06
1.71825e+06
1.92289e+06
1.77093e+06
1.743e+06
1.97937e+06
2.12394e+06
1.86179e+06
2.23222e+06
1.88479e+06
2.26977e+06
1.94014e+06
2.16612e+06
2.46498e+06
2.99714e+06
2.35431e+06
2.53689e+06
2.09049e+06
2.49532e+06
1.8046e+06
2.14675e+06
1.86354e+06
2.35288e+06
2.21837e+06
1.98472e+06
3.69497e+06
3.73762e+06
2.7993e+06
4.46008e+06
3.03008e+06
4.51757e+06
3.45487e+06
4.03938e+06
5.23463e+06
4.1924e+06
4.38334e+06
4.74152e+06
4.06203e+06
3.95497e+06
2.6413e+06
4.40105e+06
3.32133e+06
5.56741e+06
4.77815e+06
4.12395e+06
460072
1.99871e+06
1.75099e+06
2.57305e+06
1.66213e+06
2.60541e+06
1.6925e+06
729171
1.26244e+06
919211
732013
842973
1.40711e+06
1.00962e+06
792453
1.3289e+06
907935
946098
899636
1.51077e+06
1.53839e+06
769340
723683
765635
779617
812941
781451
817632
855330
923625
856021
991177
905854
914916
1.00397e+06
2.38193e+06
1.65294e+06
1.68604e+06
2.38057e+06
1.5558e+06
1.52775e+06
2.41234e+06
1.08911e+06
1.51994e+06
1.59655e+06
1.74704e+06
1.64466e+06
1.24875e+06
1.15111e+06
2.06461e+06
1.96441e+06
1.94294e+06
1.77181e+06
1.81881e+06
1.85696e+06
1.74882e+06
752836
791929
823482
714899
753147
778078
818573
926352
1.03912e+06
930777
925504
850059
923405
1.01948e+06
925470
931725
916308
1.0082e+06
1.023e+06
994031
1.00992e+06
1.49472e+06
1.20938e+06
2.00116e+06
2.13569e+06
1.02259e+06
1.29155e+06
1.79729e+06
2.78229e+06
2.46891e+06
2.50502e+06
2.62239e+06
2.63544e+06
2.7825e+06
2.79929e+06
1.99358e+06
2.09528e+06
2.05021e+06
1.7948e+06
1.87586e+06
1.84612e+06
1.83993e+06
939843
1.06774e+06
1.05888e+06
937737
925828
1.04184e+06
1.03026e+06
1.66211e+06
812204
1.23953e+06
1.03491e+06
864481
1.32561e+06
860021
1.06618e+06
1.44211e+06
1.49493e+06
775300
1.51941e+06
846126
1.41821e+06
1.03487e+06
938336
1.01109e+06
1.02349e+06
1.06474e+06
949416
1.1128e+06
2.21818e+06
1.39835e+06
2.00526e+06
1.28957e+06
1.35196e+06
1.89261e+06
2.30632e+06
2.44148e+06
2.47562e+06
2.43789e+06
2.38383e+06
2.7019e+06
2.60558e+06
2.4855e+06
861521
804471
871040
893066
950471
965557
910665
2.56134e+06
2.59175e+06
2.45382e+06
2.26901e+06
2.30886e+06
2.18701e+06
2.1642e+06
1.20107e+06
1.20873e+06
1.22081e+06
1.29629e+06
1.30642e+06
1.32774e+06
1.31631e+06
849864
993380
883706
966950
859497
896335
1.01353e+06
1.08465e+06
1.75811e+06
1.53887e+06
1.98056e+06
2.28419e+06
1.79749e+06
1.16719e+06
1.00021e+06
959974
988670
1.15497e+06
1.10298e+06
1.15035e+06
1.10008e+06
2.14333e+06
2.41387e+06
2.31679e+06
2.08747e+06
2.01965e+06
1.9388e+06
1.90375e+06
1.11174e+06
1.09976e+06
984965
1.00187e+06
1.29642e+06
1.13814e+06
1.12206e+06
3.03548e+06
3.21174e+06
3.18573e+06
2.84503e+06
2.83928e+06
2.74471e+06
2.89565e+06
1.90083e+06
1.16005e+06
995466
1.30051e+06
1.15547e+06
1.59186e+06
1.49065e+06
2.64892e+06
3.38444e+06
3.22695e+06
2.90304e+06
2.39457e+06
2.66259e+06
2.25177e+06
841571
972224
1.01332e+06
819908
882732
985096
935119
2.50686e+06
2.30953e+06
2.22635e+06
2.35924e+06
2.30363e+06
2.6693e+06
2.61085e+06
2.34696e+06
2.1529e+06
2.73687e+06
2.79758e+06
2.73561e+06
1.77644e+06
2.25072e+06
883215
1.0725e+06
928501
985938
867156
910664
1.03958e+06
1.33535e+06
1.25278e+06
1.34885e+06
1.22318e+06
1.23353e+06
1.34251e+06
1.32991e+06
1.97347e+06
1.58774e+06
1.69605e+06
1.49026e+06
2.01297e+06
1.53993e+06
779243
2.77082e+06
1.40619e+06
2.49992e+06
1.96752e+06
2.43257e+06
1.38229e+06
1.27852e+06
4.17057e+06
3.96295e+06
3.20911e+06
3.413e+06
3.41444e+06
3.78804e+06
3.29156e+06
1.2186e+06
1.18787e+06
1.04832e+06
1.02279e+06
1.34274e+06
1.17306e+06
1.15095e+06
1.13199e+06
1.36814e+06
1.15629e+06
1.34188e+06
1.12321e+06
1.1484e+06
1.38677e+06
409012
259395
960461
1.45277e+06
283489
1.31816e+06
253657
1.13748e+06
1.1092e+06
1.15704e+06
1.23108e+06
1.26194e+06
1.28403e+06
1.25424e+06
1.46817e+06
1.36434e+06
1.65614e+06
1.31944e+06
1.37171e+06
1.58221e+06
1.48128e+06
3.01658e+06
3.10453e+06
2.93819e+06
2.65171e+06
2.1247e+06
2.50495e+06
2.41832e+06
1.0603e+06
935613
1.16517e+06
1.11797e+06
1.14308e+06
965828
1.19724e+06
1.93542e+06
1.06859e+06
1.39443e+06
1.62616e+06
1.44484e+06
1.23798e+06
1.25354e+06
955500
873801
920455
1.12098e+06
1.03102e+06
1.05652e+06
1.12454e+06
1.56109e+06
1.23547e+06
1.23371e+06
1.42501e+06
1.189e+06
1.183e+06
1.4561e+06
792375
817959
839228
904099
928788
988802
1.02549e+06
2.88951e+06
2.91507e+06
2.77958e+06
3.23588e+06
3.10997e+06
3.27099e+06
3.17632e+06
1.14741e+06
1.27758e+06
1.23554e+06
1.61849e+06
1.08207e+06
1.36139e+06
1.30059e+06
1.18884e+06
1.30735e+06
1.31872e+06
1.12954e+06
1.17221e+06
1.3041e+06
1.28034e+06
2.43667e+06
2.79674e+06
2.67784e+06
3.09692e+06
2.85837e+06
2.79079e+06
3.16958e+06
2.49584e+06
3.65587e+06
2.22717e+06
1.87081e+06
3.05058e+06
2.88509e+06
3.71158e+06
910621
1.019e+06
1.16323e+06
814969
868522
964599
1.08075e+06
1.82649e+06
1.49605e+06
1.76944e+06
1.74936e+06
1.96287e+06
2.18235e+06
1.96702e+06
1.05769e+06
1.33948e+06
1.08152e+06
1.10598e+06
1.42596e+06
1.39014e+06
1.09212e+06
1.4211e+06
1.24225e+06
1.33949e+06
1.30032e+06
1.34307e+06
1.41913e+06
1.40408e+06
1.70932e+06
1.88816e+06
1.4246e+06
1.30147e+06
1.81842e+06
1.39093e+06
1.31045e+06
1.3834e+06
1.53767e+06
1.39735e+06
1.41983e+06
1.5458e+06
1.56608e+06
1.40496e+06
2.84716e+06
3.43349e+06
3.31369e+06
3.04104e+06
3.45029e+06
3.26847e+06
2.98513e+06
2.90551e+06
3.14253e+06
2.80428e+06
1.89307e+06
2.52093e+06
2.38197e+06
1.98646e+06
1.1496e+06
1.10691e+06
1.17723e+06
1.25017e+06
1.27664e+06
1.36541e+06
1.40159e+06
3.11998e+06
3.52824e+06
3.86164e+06
3.6524e+06
3.3657e+06
3.4069e+06
4.36791e+06
2.87636e+06
2.17272e+06
2.5152e+06
1.45446e+06
1.62914e+06
1.9597e+06
1.41283e+06
1.08784e+06
982426
1.13312e+06
1.43088e+06
1.37549e+06
1.21469e+06
1.26151e+06
1.5619e+06
1.22618e+06
1.19937e+06
1.14188e+06
1.47938e+06
1.46472e+06
1.14534e+06
973456
1.06966e+06
954984
1.4028e+06
1.10363e+06
1.22837e+06
1.27739e+06
1.61755e+06
1.43787e+06
1.45879e+06
1.44128e+06
1.5783e+06
1.60183e+06
1.42448e+06
1.31222e+06
1.59546e+06
1.35127e+06
2.05445e+06
1.64165e+06
1.70191e+06
2.13556e+06
1.35386e+06
1.26217e+06
1.5189e+06
1.13446e+06
1.21419e+06
1.31112e+06
1.45188e+06
4.19405e+06
4.40273e+06
2.55918e+06
3.93709e+06
2.85359e+06
4.53849e+06
2.16694e+06
3.03134e+06
2.26265e+06
2.59539e+06
1.72849e+06
1.74895e+06
2.10363e+06
1.58993e+06
1.97908e+06
1.85168e+06
2.04436e+06
1.33617e+06
1.80005e+06
1.51677e+06
1.43159e+06
1.20918e+06
1.11493e+06
1.63082e+06
1.00444e+06
1.11807e+06
1.99411e+06
1.43639e+06
1.3888e+06
1.55401e+06
1.38648e+06
1.41015e+06
1.63029e+06
1.58336e+06
1.41456e+06
1.659e+06
1.76051e+06
1.71974e+06
1.53476e+06
1.45373e+06
1.47846e+06
1.51017e+06
1.67159e+06
1.60324e+06
1.77936e+06
1.43356e+06
1.3403e+06
1.29346e+06
1.47009e+06
1.46882e+06
1.19405e+06
1.14058e+06
918509
949565
1.19244e+06
1.24679e+06
4.16148e+06
3.65209e+06
3.56086e+06
3.56029e+06
3.64538e+06
3.64748e+06
4.08563e+06
1.7129e+06
1.40493e+06
1.28973e+06
1.32256e+06
1.47432e+06
1.60386e+06
1.40596e+06
3.5801e+06
3.25719e+06
3.7187e+06
3.427e+06
3.21364e+06
3.39094e+06
4.09724e+06
2.06204e+06
2.32166e+06
1.8259e+06
1.8391e+06
1.59127e+06
2.03951e+06
1.5285e+06
254072
332336
256589
865273
320922
253428
253371
1.67317e+06
1.48687e+06
1.46405e+06
1.43645e+06
1.67842e+06
1.62214e+06
1.44717e+06
2.36579e+06
1.47874e+06
1.91068e+06
1.67789e+06
1.40519e+06
1.78941e+06
2.24259e+06
1.76829e+06
1.76612e+06
1.82822e+06
2.22673e+06
2.27607e+06
2.08959e+06
2.09675e+06
395007
278147
253253
254025
253247
253258
287869
254517
256800
522020
256310
722515
991967
255784
1.39843e+06
1.39958e+06
1.35039e+06
1.35232e+06
1.4433e+06