/*--------------------------------*- C++ -*----------------------------------*\
  =========                 |
  \\      /  F ield         | OpenFOAM: The Open Source CFD Toolbox
   \\    /   O peration     | Website:  https://openfoam.org
    \\  /    A nd           | Version:  9
     \\/     M anipulation  |
\*---------------------------------------------------------------------------*/
FoamFile
{
    format      ascii;
    class       volScalarField;
    location    "0.0016";
    object      rho.air;
}
// * * * * * * * * * * * * * * * * * * * * * * * * * * * * * * * * * * * * * //

dimensions      [1 -3 0 0 0 0 0];

internalField   nonuniform List<scalar> 
13202
(
1.34927
1.22558
1.29118
2.24383
1.22505
1.22618
1.225
1.22502
1.6823
2.16904
2.58438
1.6181
1.34963
1.32736
1.25355
1.25081
1.71689
1.34921
1.23174
1.25624
1.23174
1.22633
1.24158
1.32543
1.58616
1.22854
1.24635
1.2304
1.22584
1.24863
1.22532
1.23159
1.22527
1.23048
1.22646
1.22507
2.2972
0.702294
0.500338
1.97543
1.19226
1.29471
0.0317356
0.881872
1.51464
2.32366
0.144486
0.590453
0.259367
0.255804
0.819219
0.101502
0.408383
0.66545
1.47449
0.811743
1.13034
0.863475
1.04899
1.98051
0.824686
1.79634
0.841261
1.06298
1.14244
2.09714
2.47622
0.0479619
0.038533
0.0593171
0.0527631
0.0791882
0.0964296
0.0636744
0.136179
0.323641
0.905628
0.221016
0.775569
0.672657
1.19862
0.208789
0.120079
0.0959738
0.311508
0.151974
0.185883
0.372924
0.0764868
0.0639853
0.0487616
0.121399
0.103078
0.156104
0.0797941
0.58178
0.466474
0.391819
0.536807
0.747635
0.832414
0.61669
0.781275
0.690877
0.720969
0.92205
0.880729
0.974729
1.01978
0.967205
1.22006
2.23708
1.74624
1.04048
1.52742
3.23087
0.0877368
0.199047
0.127352
0.151985
0.169704
0.232677
0.10452
0.82084
0.737873
0.731146
0.935938
0.945086
1.0326
1.03881
2.6685
0.955892
1.70994
1.59525
0.915221
2.19529
2.74082
0.326347
0.203745
0.155334
0.232313
0.536939
0.291541
0.449571
1.21146
2.431
2.71175
2.05706
1.83325
3.55913
2.75092
0.761673
0.656374
0.5567
0.929387
0.808091
1.03222
0.709846
0.0862893
0.11816
0.181985
0.136155
0.202009
0.260023
0.181617
0.33624
0.441021
0.231532
0.274486
0.657925
0.386438
0.508357
0.186323
0.205766
0.338346
0.16334
0.232121
0.278467
0.128939
0.922616
1.00408
0.887869
1.08681
1.28677
1.21183
1.1421
2.3926
1.83468
2.59934
1.00373
1.82295
1.29382
2.45806
1.18012
0.298152
0.863238
1.472
0.838366
1.90178
1.31904
0.265273
0.59474
0.337441
0.628139
0.361539
0.439335
0.718113
0.702728
1.13636
0.932179
1.01671
0.95771
1.22219
0.782489
1.06091
0.934746
0.932441
1.30593
1.15636
1.16167
1.31199
0.330088
0.735804
0.524012
0.673904
0.397137
0.449506
0.587997
1.363
1.16729
1.10178
1.20096
1.60148
1.46887
1.27572
0.911546
0.832652
0.759381
1.0489
0.966842
1.05656
1.14122
0.162279
0.309112
0.239505
0.331037
0.322623
0.417593
0.242475
0.414433
0.210724
0.290745
0.363912
0.413578
0.509282
0.274496
0.758514
0.8563
1.06996
0.904406
1.13635
0.996163
1.24025
1.128
1.35574
1.25862
1.45528
1.34678
1.48762
1.64851
1.1874
1.54064
1.20092
1.65254
1.29722
1.30915
1.68326
1.1141
1.04264
0.965283
1.42795
1.21798
1.32179
0.872815
0.686541
0.499592
0.416387
0.522742
0.894233
0.612599
0.80614
0.911202
1.07868
1.1664
1.17304
1.0846
1.39916
1.38999
1.32129
1.76983
1.74885
1.58597
1.45601
1.59892
1.41579
1.07216
0.947036
1.01564
1.17641
1.42616
1.32602
1.26639
0.60878
0.761084
0.473275
0.557185
0.995889
0.704147
0.848196
0.928003
1.22934
1.13616
1.19161
1.10145
1.42471
1.47628
0.454412
0.529697
0.469661
0.760497
0.624759
0.56575
0.359103
1.20825
1.3808
1.48526
1.38616
1.49366
1.7035
1.71858
0.393078
0.399629
0.496842
0.427909
0.524463
0.655123
0.564453
2.96984
1.47156
1.13462
2.3392
1.65581
3.44755
3.4749
1.84385
1.62902
1.44326
1.45636
2.17558
1.64647
1.89007
1.07545
1.29217
1.19442
1.28114
1.3866
1.56255
1.69059
1.6013
1.33686
1.22724
1.33557
1.98337
1.76482
1.45881
0.649818
1.0926
1.03188
0.93198
0.811363
0.753929
0.937394
0.948615
1.27719
1.17185
1.18043
1.08692
1.34677
1.46135
0.587678
0.954193
0.685862
0.986359
0.713153
0.829571
1.08943
1.21863
1.48173
1.39416
1.63189
1.51249
1.75293
1.90999
1.05576
1.53975
1.32395
1.31408
1.14582
1.43284
1.6606
1.54055
1.53395
1.3938
1.63464
2.11287
1.79328
1.86672
0.78135
0.533667
0.625974
0.809214
0.920754
0.984276
0.731206
1.91624
1.7875
1.60167
1.75849
2.54145
2.10325
2.02265
1.17197
1.69486
1.55313
1.39916
1.51844
1.86683
2.09725
1.48784
2.21997
1.87386
2.29436
1.69358
1.9973
1.63404
1.60687
1.29412
1.30237
1.72564
2.18158
2.19459
1.71295
1.58612
1.86096
1.59676
2.29812
1.9696
2.00853
2.40033
0.60986
0.913702
0.698991
0.852662
1.022
1.08447
0.775853
1.67258
2.23322
1.61064
1.97718
2.5774
2.53311
2.05474
1.37105
1.64127
1.3252
1.76298
2.32212
2.23884
1.83711
2.2024
1.56898
1.57968
1.93739
2.5117
1.92439
2.5124
1.863
2.54009
1.89373
2.83727
2.15582
2.22775
2.9413
0.938147
1.05724
0.801238
0.965121
1.3542
1.12256
1.20986
1.13618
1.06741
0.872372
1.00757
1.46386
1.22372
1.25564
1.39154
1.23232
1.27807
1.51715
1.58677
1.38564
1.7255
1.41566
1.33874
1.23948
1.54962
1.94615
1.79479
1.678
1.7735
2.50665
1.91926
2.63871
2.17162
2.32328
2.70211
1.44721
1.98946
1.56132
2.43747
1.95745
2.12698
2.5708
1.72304
1.89947
1.61249
2.0793
2.65903
2.5041
2.27678
1.68696
2.24041
2.3975
1.86038
1.9713
2.1787
2.73456
1.02491
1.16806
1.22803
1.52313
1.28252
1.22271
0.961668
1.92847
2.88997
2.6108
2.56415
2.31608
2.11982
2.29541
2.18439
2.61455
1.97333
2.33458
2.86633
2.91182
2.51763
1.26882
2.13946
1.69984
1.97152
0.81104
0.693323
0.492521
0.665201
1.86655
1.21725
2.53072
1.41173
2.07109
0.851936
0.723989
0.716924
1.1002
0.570769
0.492913
0.570154
0.671435
0.671865
0.75966
0.757914
0.508069
0.591641
0.495635
0.575913
0.677238
0.767568
0.787618
0.535471
0.623335
0.580832
0.673609
0.772766
0.823786
0.879549
2.66869
0.803166
1.18457
1.16506
2.36456
1.84059
2.79828
0.663664
0.778291
0.775671
0.868048
0.997798
1.00262
0.864846
0.691607
0.672489
0.78804
0.878842
1.04682
1.01683
0.90334
1.22114
0.897375
0.899176
1.00375
1.37102
1.37705
1.0004
0.642489
0.821929
0.740775
0.924046
0.839994
0.955385
1.05046
0.929037
1.23562
0.907708
1.01554
1.44044
1.39697
1.04223
0.727452
0.913993
0.782821
1.09736
0.945786
1.00997
1.17298
1.3252
0.966103
1.02327
1.51358
1.08776
1.15736
1.62336
0.917198
0.903286
1.0254
1.02976
1.1477
1.16653
1.30961
0.947045
0.997077
0.856667
1.09687
1.41033
1.20705
1.27619
1.53504
1.20933
1.10354
1.25493
1.96274
1.77397
1.38547
1.13963
1.87603
1.31422
1.58345
1.32195
1.59176
1.13435
1.15565
1.67418
1.39078
1.90759
1.34441
1.61832
1.18978
1.76574
1.46769
1.24742
1.33521
2.205
1.89681
1.58228
1.02167
1.33196
1.16512
1.49185
1.29835
1.49191
1.73681
1.05489
1.38002
1.22568
1.5856
1.34505
1.52136
1.81519
1.52675
1.34609
1.90719
2.17584
1.55795
1.78029
2.40432
1.45977
2.25096
2.36569
1.94509
2.06027
1.62533
1.73991
2.45538
2.06269
1.54606
1.57645
1.34357
1.75569
2.11123
2.73535
2.60839
2.05667
2.38758
1.76163
2.05674
2.60842
2.45348
2.1883
1.83869
2.10011
2.75368
2.44777
2.63061
2.7132
2.10698
2.62025
2.49284
2.75513
2.74662
2.64851
2.21012
1.93693
1.72165
2.33342
2.80504
2.54594
2.70137
1.34092
1.82363
1.65699
1.66759
1.51226
1.88856
2.09674
2.3598
2.72444
2.66939
2.71051
2.66673
2.35171
2.70493
3.25428
2.96912
2.52808
2.6582
3.4837
3.2936
3.11575
1.1634
1.57891
1.65303
1.6488
1.41274
1.35044
1.39846
1.44761
2.12344
1.8206
1.81345
1.57322
1.98693
2.34926
2.39387
2.7263
2.717
2.7032
2.68176
2.71089
2.45872
2.66333
2.7671
2.66752
2.7709
2.74094
2.63893
2.38561
2.72354
2.90754
2.94088
3.12808
3.09572
3.04818
2.79088
2.74058
2.76197
2.54822
2.64857
2.45858
2.73611
2.79599
2.56435
2.31889
2.06429
2.43383
3.43409
2.76775
3.12114
1.92827
2.02417
1.72672
2.19754
3.00617
2.6554
2.49117
2.96808
2.84972
2.34245
2.61083
3.57899
3.13057
3.30927
0.732087
0.75203
1.3223
0.697318
1.24752
0.72043
0.432597
0.344238
0.327665
0.428229
0.32714
0.428086
0.432559
0.544664
0.54393
0.329106
0.453766
0.450854
0.432635
0.436822
0.551436
0.571579
0.551075
0.69542
0.550481
0.677853
0.83345
0.836862
0.675995
0.718362
0.561923
0.562691
0.687181
0.85862
0.685348
0.862062
0.579479
0.707146
0.558152
0.687323
0.878172
0.849535
0.711161
0.729514
0.58833
0.569149
0.696264
0.901449
0.874179
0.719183
0.835412
1.25547
1.01086
1.02958
1.01625
0.832093
1.03493
0.847677
1.06705
1.08501
1.27772
1.03263
1.05113
0.875385
1.20921
3.11989
2.79522
2.37614
0.729934
1.37201
1.77765
0.687966
1.16553
0.273997
0.82998
0.368952
0.381637
0.374017
0.471837
0.47932
0.608885
0.515364
1.51186
2.15718
3.51416
2.88822
1.60078
1.08039
1.81202
1.2696
2.89904
2.10446
2.55293
2.80034
2.47699
2.82525
0.563225
0.933362
0.923817
0.661541
0.668812
0.784865
1.03827
3.54415
1.33423
3.19839
3.04022
3.54299
1.94951
2.76067
0.808046
0.532608
0.624963
0.780643
0.919887
0.983467
0.701532
0.767718
0.509958
0.60388
0.767487
0.889148
0.952676
0.687718
1.30637
1.20101
1.18546
1.44405
1.46879
1.31363
1.61494
0.96417
1.05666
0.8004
0.937571
1.35373
1.17974
1.12189
0.925067
1.03238
0.780042
0.924877
1.31994
1.1654
1.09107
1.47147
1.46138
1.54701
1.7051
1.80819
1.8237
2.16982
1.55693
2.13446
2.0812
1.74506
1.78414
1.99546
2.46072
0.960186
1.12994
1.42385
1.11214
1.16633
1.18434
0.896612
2.01467
2.38535
2.32136
2.47506
2.54847
2.86966
3.13325
0.658829
0.636778
0.810881
0.668194
0.817944
1.60337
1.23508
0.85568
0.913885
0.428559
0.270379
0.699263
0.570507
0.709229
0.296725
0.419924
0.665191
0.217217
0.217892
0.305761
0.273229
0.307243
0.372871
0.375136
0.342276
0.432479
0.346603
0.555021
0.457891
0.461094
0.557154
0.240568
0.354029
0.297137
0.393802
0.330407
0.396991
0.457344
0.561202
0.565435
0.422372
0.645445
0.497634
0.499731
0.648124
0.526491
0.657755
0.523804
0.62465
0.626335
0.766918
0.767681
0.621465
0.450938
0.50322
0.535146
0.424636
0.369009
0.479411
0.864257
0.863382
0.698299
0.750276
0.748669
0.593006
0.594896
0.72995
0.5812
0.657968
0.587439
0.51343
0.445193
0.518772
0.895462
0.890683
1.72337
1.60408
1.00845
2.43927
1.68772
0.716146
0.540068
0.588613
0.682861
0.636398
0.774851
0.822418
0.990732
0.990049
0.810427
1.13307
0.933287
0.933806
1.13501
0.73333
0.857285
0.734757
1.02654
0.887743
0.888787
1.02922
0.761272
0.930654
0.873017
0.76254
0.822309
0.665621
0.609333
0.750064
0.752388
0.740736
0.869531
0.864957
0.878377
1.00923
0.868707
1.05586
0.997293
0.939555
1.2028
0.991836
1.14027
0.789643
0.865006
0.743019
0.89527
1.08959
1.03607
0.944885
0.17688
0.11074
0.0519009
0.0285738
0.22016
0.188956
0.347872
0.230315
0.049621
0.0389121
0.0168981
0.0790849
0.0509695
0.0611978
0.0854608
0.104245
0.158535
0.0759276
0.069207
0.112406
0.164674
0.118384
0.0703911
0.102496
0.0811684
0.115184
0.0819945
0.106449
0.144709
0.126679
0.149363
0.0962198
0.15064
0.100289
0.131475
0.192762
0.133806
0.0965192
0.133785
0.189597
0.238676
0.141691
0.185679
0.320372
0.246493
0.170208
0.325153
0.235847
0.175969
0.251587
0.160584
0.17203
0.120578
0.154607
0.268829
0.217263
0.199578
0.40133
0.260832
0.313359
0.201269
0.330528
0.276707
0.251129
0.0237406
0.51822
0.301381
0.239248
0.14951
0.483255
0.425803
0.882874
0.384767
0.663763
0.292036
0.0515602
0.0563686
0.278
0.149278
0.663746
0.0404054
0.347463
0.428406
0.671351
0.978902
1.45417
0.911663
0.560873
0.845664
0.122161
0.182217
0.164947
0.200622
0.215907
0.236321
0.277978
0.563358
0.498129
0.987694
0.537756
0.821836
0.636887
1.02693
0.188171
0.309054
0.321754
0.249175
0.263017
0.333356
0.398581
0.0152372
0.0202307
0.0336291
0.0219963
0.0361105
0.0515658
0.0301587
0.462801
0.268025
0.427918
0.307536
0.334828
0.380481
0.510684
0.220698
0.34439
0.26517
0.389169
0.304843
0.353268
0.442917
0.133353
0.190481
0.0760824
0.195627
0.0801007
0.116439
0.267981
0.281006
0.367636
0.523654
0.376635
0.543697
0.641768
0.472451
0.496227
0.618132
0.596918
0.65095
0.626577
0.734453
0.758595
0.377838
0.389508
0.372307
0.453958
0.464734
0.471454
0.551893
0.0280488
0.0714184
0.0487542
0.0746423
0.0626602
0.107761
0.0428989
0.0173159
0.403453
0.0356173
0.00713784
0.0187119
0.0394984
0.296101
0.0196861
0.0596111
0.339349
0.113406
0.255351
0.515796
0.854494
0.275165
0.52681
0.206105
0.0858839
0.164249
0.130916
0.232191
0.285382
0.16626
0.0140747
0.0448394
0.0324594
0.0544259
0.0227192
0.0294258
0.0718365
0.00813889
0.010275
0.0084161
0.00917631
0.0119865
0.0148248
0.0108472
0.269727
0.205748
0.217735
0.304693
0.286823
0.349372
0.370554
0.0119548
0.00969085
0.0130732
0.0192055
0.016727
0.0259128
0.0132321
0.0915084
0.0254286
0.0632714
0.0395203
0.13921
0.0554381
0.0988594
0.207939
0.152584
0.264037
0.358472
0.28996
0.447071
0.218988
0.424535
0.34005
0.321686
0.429784
0.549088
0.523744
0.453831
0.0129703
0.0290976
0.0181913
0.0226149
0.0238145
0.0362013
0.0155522
0.0368144
0.135125
0.0865777
0.0469139
0.172707
0.0753502
0.112282
0.190319
0.437509
0.320615
0.388087
0.339109
0.516165
0.238977
0.391901
0.41647
0.554794
0.46706
0.639306
0.611514
0.493374
0.0296398
0.0250028
0.0640866
0.0300448
0.0403393
0.0473152
0.0193157
0.0626644
0.206109
0.135679
0.2259
0.0872803
0.0997042
0.151094
0.474565
0.392816
0.709956
0.420929
0.571288
0.609808
0.307612
0.560249
0.691361
0.824496
0.741402
0.66458
0.713641
0.587471
0.409874
0.390062
0.323015
0.415338
0.587
0.486237
0.510534
0.555039
0.486144
0.361498
0.440274
0.647501
0.509555
0.573645
0.0885009
0.0337334
0.053793
0.0800318
0.0750606
0.122781
0.047151
0.55503
0.512126
0.415712
0.465979
0.719964
0.566363
0.606794
0.381051
0.123642
0.185195
0.17349
0.475083
0.363896
0.247879
0.262565
0.162005
0.112302
0.16629
0.447621
0.229314
0.353578
0.812226
0.489309
0.618053
0.771607
0.720918
0.591095
0.91445
0.461914
0.718429
0.620198
0.740195
0.673792
0.572688
0.839847
0.113633
0.105946
0.225594
0.0978504
0.158892
0.168238
0.0675509
0.801776
0.774763
0.939976
0.887636
1.11832
0.922659
1.06011
0.725311
0.815368
0.703809
0.845381
1.01273
0.960737
0.877498
0.464436
0.671795
0.651949
0.546011
0.564461
0.651411
0.767607
0.632905
0.731551
0.720727
0.578316
0.586816
0.673448
0.828071
0.450747
0.641754
0.631978
0.537813
0.548017
0.641809
0.744535
0.00047087
0.0219143
0.0370312
0.00168624
0.188643
0.1247
0.0482833
0.181053
0.00069868
0.00385451
0.00500404
0.00831038
0.0103774
0.0243554
0.0219077
0.00574295
0.014916
0.00782398
0.0290541
0.0163265
0.0300693
0.0421588
0.0576334
0.0194512
0.0556872
0.0542197
0.0894886
0.0889394
0.0527231
0.0470455
0.114807
0.119607
0.0629843
0.114012
0.111744
0.0617678
0.0673301
0.0271681
0.06051
0.0574558
0.0975383
0.089839
0.0659796
0.07285
0.0560708
0.11401
0.0674917
0.124392
0.112671
0.0794213
0.0892837
0.130351
0.178202
0.135123
0.132504
0.127783
0.0901132
0.0903256
0.136211
0.143336
0.177264
0.13227
0.127042
0.099578
0.106597
0.100136
0.359743
0.627443
0.258969
0.349354
0.501972
0.265378
0.100183
0.159311
0.138643
0.13649
0.158274
0.204347
0.206132
0.100761
0.163423
0.143564
0.135715
0.157647
0.203209
0.211732
0.418008
0.350113
0.418147
0.240391
0.297566
0.240011
0.297079
0.340049
0.187041
0.248346
0.246879
0.184467
0.264337
0.339594
0.433525
0.350398
0.420911
0.246051
0.239225
0.297616
0.30776
0.193038
0.246696
0.183171
0.264068
0.355292
0.341395
0.275099
0.501567
0.369662
0.601934
0.600849
0.457395
0.369202
0.457401
0.52235
0.506719
0.608643
0.371496
0.477621
0.461585
0.38462
0.530717
0.71708
0.754861
0.793887
0.605292
0.636014
0.674602
0.23651
0.570817
0.400816
0.554399
0.310183
0.458267
0.321067
1.00401
1.27604
1.31634
1.21277
1.12635
1.05835
1.18553
0.871881
0.818741
1.11641
0.790783
0.693067
0.972087
1.01539
0.809687
0.847657
0.689056
0.784517
1.11213
0.917012
0.956151
0.668521
0.941169
0.772535
0.77259
1.07646
0.888596
0.941226
0.75254
0.740786
0.869624
0.750159
1.00929
0.878497
0.864996
1.07247
1.29907
1.49578
1.07453
1.50641
1.24065
1.30395
1.08506
1.02691
1.24107
1.26207
1.04339
1.19457
1.44744
1.0252
1.21678
1.05947
1.22514
1.03362
1.18517
1.4059
0.862604
1.00134
1.17617
1.166
1.00849
1.16598
1.35766
1.24108
1.44742
1.19459
0.895541
1.26211
1.04347
1.08512
1.0801
1.37992
1.51614
1.30956
1.24684
1.13612
1.30916
0.515891
1.65291
2.76077
0.981494
0.850024
0.793029
1.39671
0.716796
0.868702
1.03897
1.8715
0.552749
1.03855
0.20708
0.753933
0.194689
0.0599166
0.733017
0.441497
0.439531
0.490877
0.381423
0.490902
0.548649
0.61174
0.673373
2.46119
1.3138
1.00506
0.968175
0.662145
1.55226
0.984082
0.814887
1.16012
2.15068
2.88541
1.46155
1.02532
1.72328
0.104416
0.0926807
0.0901114
0.153019
0.150177
0.211423
0.135984
1.45044
1.73215
3.13398
1.62688
0.997781
1.77451
1.06181
0.590686
0.629614
0.511074
0.704437
0.621271
0.752186
0.844651
0.225154
0.54405
0.53887
0.303387
0.299981
0.385281
0.639288
0.68757
0.77866
0.622064
0.928913
0.755437
0.82281
1.00556
0.62628
0.855347
0.684745
0.949016
0.761536
0.82589
1.02042
0.294931
0.140747
0.216688
0.286408
0.282711
0.377779
0.198753
0.134348
0.282118
0.209614
0.282318
0.2717
0.366623
0.194861
0.819684
0.771972
0.762288
0.941527
0.925504
0.868398
1.04765
0.933136
1.16802
1.14454
1.08387
1.06141
1.21809
1.34681
0.678207
0.798427
0.776826
0.906632
0.927624
0.951531
1.07658
1.05589
0.943355
0.771029
0.910633
1.23205
1.01628
1.10699
0.850299
0.937877
0.760433
0.910192
1.23391
1.01221
1.11552
0.484468
0.64831
0.390919
0.475469
0.842378
0.740092
0.572126
0.470968
0.636197
0.38331
0.471195
0.826284
0.560866
0.733223
1.00111
1.19024
1.16693
1.17404
1.19665
1.38702
1.40023
0.369403
0.609394
0.382364
0.37426
0.472085
0.480061
0.274415
1.12588
1.14245
0.924241
0.997609
1.50763
1.21385
1.22806
1.22251
0.884883
1.07434
1.10122
0.980819
1.18394
1.3394
0.862727
1.1636
1.03842
1.07356
0.968314
1.16367
1.29506
0.890869
1.18524
1.03375
1.21693
1.05968
1.22526
1.40596
1.00913
1.24169
1.18319
1.26421
1.20467
1.41084
1.48217
1.454
1.38856
1.25647
1.39699
1.87494
1.58702
1.60741
1.18908
1.34894
1.11326
1.3843
1.14086
1.2894
1.57416
0.563675
0.785286
0.933846
0.92398
0.661762
0.83035
0.669471
1.36683
1.33224
1.20466
1.36687
1.79088
1.5393
1.55237
0.95489
1.30655
1.07783
1.3793
1.133
1.27748
1.56155
1.42894
1.75806
1.441
2.01919
1.66286
1.6895
2.08848
1.37253
1.65417
1.38622
1.92618
1.62703
1.65434
1.99046
1.0946
1.66163
1.48224
1.49077
1.21421
1.33194
1.34329
1.48785
1.80076
2.13249
1.45495
1.22454
1.40359
1.68282
1.95382
1.65644
1.38359
1.18628
1.4088
1.36942
1.63601
1.43449
1.68775
2.02539
1.61616
1.37921
1.18487
1.37922
1.20132
1.18556
1.08064
1.30652
1.61505
1.44412
1.46901
1.67456
1.68051
1.35973
1.54053
2.47683
1.93534
1.93295
1.26982
1.8084
1.54722
1.47155
2.16973
1.70512
1.82367
1.40358
1.48782
1.22458
1.45495
2.13224
1.68276
1.8006
1.5265
1.78421
1.9073
1.71156
2.34334
1.81704
2.15682
1.46789
1.67516
1.39759
1.6753
2.21254
2.045
1.7746
1.55705
2.13503
1.99565
2.08138
1.74514
1.81231
1.78439
1.09859
1.53486
1.54806
1.51406
1.32824
1.29222
1.31089
1.34057
1.88821
1.65673
1.66729
1.47133
1.82345
2.09646
1.79099
1.30465
1.45112
1.62149
1.45105
1.79094
2.01861
2.4754
2.87041
2.32166
2.38627
1.94995
2.01514
2.54952
2.64267
2.27897
1.77634
2.74509
2.28169
2.64686
2.88549
2.79328
1.97035
2.5544
2.79574
2.35587
2.70184
2.87971
2.06369
2.0302
1.70976
2.62221
2.17872
2.58345
2.84116
2.24517
2.60694
2.07207
2.80274
2.6761
3.1469
3.04199
2.834
1.99689
2.54666
2.05078
2.49144
1.94832
1.63219
3.04202
3.14723
2.60721
2.07247
2.803
2.24545
2.67687
1.77622
2.74488
2.64665
2.64243
2.10425
2.27855
2.28131
2.43316
2.56335
2.06386
2.31855
3.4336
2.96905
2.76722
2.42634
1.97249
2.26214
2.26204
3.3367
2.88796
2.62771
1.86893
1.84052
1.63275
2.03797
2.79679
2.3336
2.3847
2.99118
3.5719
3.22972
3.6673
3.44918
3.55856
3.52713
3.09689
3.38969
2.82767
3.64482
3.38939
3.5428
3.57786
2.7418
2.54195
2.19455
2.73592
2.68777
2.80706
2.799
2.9223
2.52432
2.85863
2.85605
2.64556
2.915
2.90134
2.89776
2.89867
2.71423
2.86926
2.29753
2.88213
2.79576
2.75962
2.65357
2.88271
2.88518
2.08187
2.83257
2.76858
2.93401
3.56484
3.39666
3.57255
3.32356
3.22993
3.51558
3.25671
3.03808
3.18454
3.3117
1.95604
2.92736
2.83663
2.66271
3.54597
3.34812
3.53215
3.36439
3.08195
3.13843
2.98099
3.33129
3.12896
3.33126
2.19479
2.98107
3.04803
0.914638
2.92711
1.46299
1.29515
0.871237
1.97047
1.66199
1.55034
2.79515
1.82316
2.80931
1.05026
2.11025
1.77429
2.77548
2.42929
2.16708
2.67611
0.88444
1.08367
1.04798
1.14268
1.10402
1.30622
1.3546
0.867667
1.02549
1.03105
1.08008
1.08594
1.28247
1.27403
0.968482
1.1452
1.20961
1.23786
1.31082
1.43691
1.56234
2.66791
1.69795
2.79703
2.83283
2.35609
2.2344
1.28136
2.49467
2.13372
3.44998
3.40682
3.67819
1.6127
2.15637
1.15927
1.52322
1.36288
1.63393
1.44967
1.74157
1.98245
1.56194
1.23951
1.24772
1.57415
2.03824
1.56202
2.05444
1.4557
1.88093
1.40015
1.69329
2.3596
2.27464
1.77214
1.31617
1.59518
1.27048
1.60912
2.20244
2.10526
1.68044
1.83662
1.36483
1.37368
1.65447
2.22121
2.23207
1.6415
1.67765
1.73205
1.88308
2.01424
2.20922
2.2879
2.59092
1.55265
2.28893
1.70258
2.47862
1.90307
2.0921
2.61266
1.39293
1.94217
1.5081
2.34053
1.79917
1.97606
2.50539
2.0627
2.69088
2.00403
2.77091
2.90772
2.61286
2.07115
2.67572
1.54605
1.84064
1.75565
1.57644
1.3435
2.11132
2.45548
2.16852
1.8877
1.66863
2.21143
2.79918
2.47112
2.66903
2.49194
2.18508
1.91313
2.32338
2.80368
2.55742
2.73201
2.21196
2.51543
2.71169
2.69539
2.89545
3.17841
3.34977
2.10744
2.57869
2.79952
2.61632
2.61606
2.09196
2.58124
2.15772
2.68536
2.66289
2.79686
2.63846
2.60856
2.25277
1.97053
2.70174
2.37592
2.79575
2.55444
2.79313
2.87963
2.3012
2.86452
2.79694
2.91725
2.93402
3.21255
3.00903
2.878
2.79799
2.36914
2.25478
1.90583
2.52608
2.75726
2.6632
2.7671
2.74097
2.63895
2.38561
2.66762
2.79833
2.8646
2.73222
2.19883
2.42983
1.82032
2.19889
2.73226
2.74754
2.73548
2.38752
2.54616
2.70246
2.79577
2.80407
2.17643
2.83047
2.50447
2.87103
2.69698
2.83697
2.85569
2.4731
2.824
2.70978
2.79945
2.74031
2.84173
2.65305
1.23199
1.87229
2.91495
2.65516
1.7099
2.80638
1.60407
2.76148
2.05065
1.36944
1.38362
1.18635
1.4089
1.63601
1.65649
1.95378
2.69906
2.92589
2.49483
1.22504
1.22963
2.1803
1.24668
2.419
2.52031
2.00908
1.93026
1.6395
2.00911
2.41896
2.49135
1.94827
1.63215
2.54644
1.99676
2.43913
2.83393
2.17894
2.58333
2.03015
2.62229
2.06379
2.47689
2.84106
2.69573
2.52658
2.81785
2.74117
2.80601
2.806
2.84212
2.99263
3.55905
3.23099
3.66759
3.54527
3.57254
3.52714
3.38881
3.48484
3.44759
3.64062
3.63627
3.56198
3.15656
2.64586
2.92228
2.90139
2.85595
2.85854
2.5241
2.82514
2.93367
2.91627
2.88365
2.92587
2.86874
2.54837
2.81652
2.92905
2.92903
2.82396
2.92911
2.80489
2.41006
2.80485
2.81659
2.86873
2.54833
2.88366
2.91633
2.93373
2.6552
2.85191
2.84473
2.43664
2.86614
2.82396
2.63475
2.86916
2.82713
2.26226
1.64117
2.67789
2.26206
2.79088
2.82713
2.88509
2.89903
2.75945
2.88272
2.08292
2.76882
2.65438
2.7014
2.85324
2.84419
2.83029
1.58246
2.19461
2.5998
2.79882
2.57356
1.51203
2.17761
2.60562
2.81471
2.82195
3.03812
3.31177
3.18508
3.25671
1.95528
2.8358
2.79469
2.9338
2.86323
3.20575
3.13431
1.481
2.09682
2.54722
2.66322
2.51004
2.85323
2.79652
1.36701
2.01256
2.25082
0.187082
0.182819
0.259644
0.374185
0.611691
0.274272
0.363923
0.512265
0.191054
0.178126
0.173152
0.274121
0.263885
0.253986
0.260505
0.178033
0.183983
0.17158
0.267588
0.257705
0.251321
0.26553
0.246836
0.333838
0.194545
0.244916
0.191018
0.271006
0.332982
0.371377
0.487041
0.490861
0.492
0.495552
0.365938
0.360235
0.203951
0.245276
0.190412
0.271164
0.352795
0.335475
0.28774
0.360064
0.508081
0.487938
0.513634
0.493456
0.358293
0.375262
0.514009
0.380084
0.581388
0.580976
0.445077
0.37758
0.444758
0.538241
0.46982
0.588799
0.516728
0.449768
0.37949
0.398653
1.42544
0.682333
1.67089
0.78178
0.652844
0.74498
1.348
1.55353
0.639993
0.641677
0.654681
0.828732
0.829486
0.846321
0.846021
0.67225
0.65786
0.645505
0.871765
0.839437
0.855179
0.884648
0.67598
0.676361
0.743273
0.870208
0.93882
0.868775
0.942414
0.707492
0.755116
0.68302
0.880614
0.989106
0.95632
0.909653
1.05847
1.35445
1.0619
1.08073
1.37429
1.3801
1.07784
1.11518
1.37598
1.07668
1.09455
1.45034
1.40105
1.13115
1.10546
1.56393
1.18829
1.41199
1.4188
1.10162
1.19444
1.12082
1.49863
1.25853
1.59787
1.44297
1.21438
1.15804
3.58997
3.60492
3.65245
3.56817
1.88845
3.12863
3.00771
1.84581
2.92691
2.73609
1.31116
1.95334
2.75342
1.87218
1.53597
2.49472
2.94278
1.27954
1.74748
2.68917
1.7475
1.53424
2.26979
1.65929
1.26097
1.45973
2.87589
2.4357
2.73659
3.5405
3.67181
3.41591
1.50452
2.31766
2.74478
1.3112
1.95345
2.69913
1.84612
2.7362
2.75343
2.92686
1.42565
2.39061
2.89658
2.53377
1.51848
1.2607
1.65952
1.4186
1.9779
1.30314
1.23627
1.28801
1.60633
2.65344
2.15067
1.8376
1.42813
2.90773
1.32091
1.67852
2.61349
1.23147
1.22514
1.29003
1.2263
1.69025
2.12711
2.49245
1.96987
1.2915
1.34033
2.43269
2.1097
1.77249
2.30345
1.23149
2.69347
2.01006
2.61711
1.86646
1.27007
2.69361
1.2276
2.52589
2.60154
1.2295
2.16953
1.22507
1.77582
1.96958
1.97263
2.32181
2.31919
2.45451
2.45737
2.22604
2.06777
2.48195
1.22688
2.42336
2.67895
1.22943
1.79407
2.0394
1.99214
2.3582
2.32867
2.46326
2.48834
2.13824
3.18684
3.22635
0.897029
1.32847
1.77909
2.28338
1.90852
2.11864
2.22945
2.41145
2.47997
2.52819
2.57283
1.94667
2.35778
2.29171
1.22506
1.22602
2.79651
1.39785
2.43297
2.19718
2.19978
2.55862
2.61311
2.60342
2.56426
2.14372
2.50381
2.36377
2.6027
2.54857
2.6076
2.61635
0.960581
1.1123
1.13047
1.16649
1.18484
1.42414
1.37232
2.27143
2.45134
2.22113
2.56131
2.58798
2.59551
2.57504
3.2241
2.32872
3.28331
3.36469
1.63289
2.7798
3.01244
1.09893
1.51417
1.53519
1.29236
1.31133
1.54832
1.77787
2.08782
2.53589
2.52872
2.51081
1.84169
1.81779
2.52216
2.45181
2.55241
2.35125
2.56986
2.5938
2.60466
2.52056
2.08353
2.61346
2.57554
2.57862
2.6141
2.80506
2.8132
1.86577
1.2881
1.44049
1.225
1.2323
1.23995
1.45524
2.51777
2.0426
2.5217
2.49366
1.69418
1.76889
2.46983
2.62296
2.4683
2.60976
2.62652
2.59186
2.57185
2.40967
2.13284
2.6816
2.65889
2.60565
2.63619
2.80453
2.80692
2.43636
1.65947
2.88205
1.23929
1.56867
1.225
1.23473
1.7324
1.36086
1.41264
1.73254
2.11319
2.17807
1.67867
1.22502
2.87085
1.42142
1.262
1.71575
1.23408
1.225
2.6457
2.66959
2.55794
2.59036
2.18342
2.40849
2.51824
2.51109
1.73481
2.48887
1.59498
2.42893
2.3533
1.47918
1.40827
1.83398
1.46001
1.7647
2.21204
2.27825
1.71102
2.51197
2.74373
2.7308
2.80123
2.80344
2.79536
2.74079
2.03809
1.84059
1.86915
2.33367
2.38493
2.15737
2.79696
1.30568
1.22503
1.23355
1.92328
3.65263
3.0382
1.2756
1.86944
1.76352
1.53599
1.86957
2.68651
2.35725
2.13837
1.82194
1.98395
1.58604
1.90558
2.78423
2.46363
2.18487
2.30823
1.58242
2.43076
2.21291
1.29979
1.37296
1.99052
2.39552
1.33114
2.13167
1.55376
2.10035
1.53357
2.41511
2.70147
2.70146
2.69176
2.06752
2.43199
2.06762
1.64723
2.66835
2.81682
2.83851
2.84754
2.83809
2.59991
2.28855
2.85188
2.86607
2.63463
2.84476
2.86913
2.82412
2.43699
2.35977
1.93866
1.43289
1.31358
2.03774
1.49215
2.30051
2.6927
2.6665
2.6963
1.86138
2.33376
1.99939
1.53585
2.89866
2.86916
2.7143
2.89775
2.79571
2.80013
2.2975
1.80308
1.36997
2.1995
2.04543
1.25236
1.64124
1.31419
2.37889
2.80126
2.79036
2.57997
1.63773
2.61354
1.59785
2.81354
2.64659
2.80565
2.65328
1.87705
1.82211
2.68463
3.18127
2.7653
2.71609
2.20242
2.76222
2.80803
2.13732
2.77142
2.29208
2.78235
2.51447
1.43239
1.52433
2.39454
3.086
3.31522
3.16867
2.13661
2.76649
2.61361
3.16868
2.81281
2.58872
2.80717
2.59801
1.57522
1.71654
2.49733
2.66295
3.53216
3.54599
3.08203
3.13864
3.34809
3.51406
2.2224
3.23494
2.88368
3.14467
2.67101
3.19479
3.31393
2.07932
1.26531
1.77373
1.25932
1.71816
1.46138
1.23853
2.86489
2.67742
2.71276
2.29884
2.34916
1.82106
1.42582
2.74944
2.53004
1.44643
2.67898
1.56958
2.83249
2.75717
2.82199
1.64262
1.92408
1.75634
2.02593
2.21315
2.36765
2.62333
2.25457
2.52586
1.90568
2.6907
2.36877
2.79783
2.87797
2.71502
2.54286
2.76408
2.69487
2.76678
2.82839
2.47487
2.21656
2.83153
2.5255
2.86146
2.72516
2.83992
2.83096
2.88682
2.89775
2.76329
2.87531
2.04945
2.76341
2.61627
2.17821
2.60598
2.81461
2.79897
1.51255
2.57411
2.00504
2.9164
3.13957
3.23103
2.3838
3.16151
2.95278
2.71158
2.73944
1.70097
2.65669
1.34678
2.20039
1.92458
1.28669
2.80494
2.0048
2.75305
1.43288
2.31503
2.0364
1.3258
2.08542
1.30752
1.49359
1.75832
2.21468
2.81776
2.72449
1.83957
1.24959
1.34261
1.23932
1.47095
1.27437
1.6126
1.68261
2.24399
2.5845
1.61831
1.25358
1.32749
1.34968
3.56824
3.60491
3.5899
3.12841
3.00695
3.19795
1.88786
1.225
1.25184
1.22551
1.225
1.225
1.22642
1.225
1.26752
1.22555
1.225
1.225
1.22646
1.225
1.225
2.68204
2.68213
2.91167
2.48001
1.65065
1.6508
1.28215
2.29697
2.44859
2.88946
1.67716
2.61511
1.57602
1.26176
2.55314
1.6597
2.87592
1.46013
2.27027
1.53443
1.26101
2.39029
2.53369
2.89645
1.42546
2.17984
1.51843
1.26069
1.32023
1.46692
2.47454
1.61495
1.23482
1.25208
1.38162
1.23979
1.30831
1.48131
1.30834
1.2263
1.25094
1.2295
1.66206
2.29701
2.6114
1.69292
1.23972
1.41637
1.26713
3.39563
2.28229
3.24843
3.51672
3.33846
3.39558
3.24828
3.161
2.15002
2.99749
3.27921
3.10204
3.31647
3.11126
1.97853
1.60666
2.65365
2.07136
1.30318
1.41877
1.23628
2.60121
1.29271
1.94955
1.28266
1.8808
1.38156
1.23536
1.23532
1.27351
1.40896
1.29456
1.2259
1.24287
1.22874
3.49774
3.37923
3.37066
3.3938
2.0125
3.123
3.18487
2.68655
1.34218
2.1507
1.34994
1.75129
1.27293
1.2346
1.24651
1.30478
1.22967
1.39873
1.26606
1.79927
2.39398
1.87028
1.3219
1.66045
1.49511
1.25834
1.2315
2.50783
1.36179
2.99828
2.13154
1.80345
1.3341
1.2965
1.23567
1.80419
1.29658
1.23568
1.92356
1.36185
2.13198
2.99863
1.2959
1.71263
1.25376
1.2297
1.26342
1.4255
2.53183
1.25723
1.37446
1.23396
1.22803
1.27545
1.23865
1.22579
1.7571
1.22889
1.27377
1.29042
1.28261
1.80811
1.26813
1.23894
1.27837
1.82089
1.22932
1.2848
1.24088
1.22608
1.66114
1.24697
1.25404
1.22793
1.26915
1.25827
1.53584
1.22568
1.30583
1.23336
1.32136
1.23336
1.92712
1.30583
1.23177
1.72693
1.28698
1.26739
1.22546
1.22963
1.22944
1.3075
1.29108
1.81634
1.27621
1.2255
1.23083
1.22969
1.95517
2.10891
3.242
1.33771
1.23178
2.10857
1.30563
1.22546
1.22944
1.26737
1.23176
1.28693
1.72676
1.29001
1.23729
1.24102
1.40887
1.31554
1.22547
1.23088
1.2325
1.36355
1.23425
1.35523
3.20149
1.33404
2.19341
2.21217
1.71564
1.26406
1.73936
1.29447
1.9702
1.28807
1.22922
1.22925
1.27401
1.50371
1.24667
1.22848
1.22691
1.22529
1.49935
1.24685
1.24598
1.22803
1.22809
1.22658
1.22522
1.22691
1.22529
1.22848
1.25185
1.22925
1.50384
1.27401
1.24864
1.22527
1.22532
1.22646
1.23048
1.23159
1.22618
1.2542
1.23759