/*--------------------------------*- C++ -*----------------------------------*\
  =========                 |
  \\      /  F ield         | OpenFOAM: The Open Source CFD Toolbox
   \\    /   O peration     | Website:  https://openfoam.org
    \\  /    A nd           | Version:  9
     \\/     M anipulation  |
\*---------------------------------------------------------------------------*/
FoamFile
{
    format      ascii;
    class       volScalarField;
    location    "0.0034";
    object      T;
}
// * * * * * * * * * * * * * * * * * * * * * * * * * * * * * * * * * * * * * //

dimensions      [0 0 0 1 0 0 0];

internalField   nonuniform List<scalar> 
29374
(
562.492
633.939
614.718
559.079
640.113
578.454
648.016
575.525
608.292
602.764
607.456
604.571
603.621
610.105
610.534
625.901
630.721
616.98
623.324
615.754
617.038
627.739
624.578
627.393
616.521
615.56
608.8
614.46
620.508
641.005
646.556
635.144
622.257
637.153
633.959
627.975
569.456
587.869
597.859
589.537
561.298
597.904
570.649
605.779
611.96
585.801
603.89
583.36
609.848
577.908
562.264
594.239
591.112
598.114
568.321
570.296
599.274
603.163
571.651
579.732
611.197
610.33
575.618
603.762
450.692
478.762
501.873
510.723
526.7
441.066
440.14
536.083
439.477
440.975
514.344
508.332
504.494
446.332
440.386
492.53
485.98
488.687
508.281
484.69
504.786
509.197
487.357
514.114
497.087
521.098
495.703
522.103
515.234
491.232
506.551
528.728
536.541
500.254
529.523
536.766
504.515
548.337
548.646
589.174
587.405
537.215
603.416
622.072
554.1
593.442
607.124
593.943
571.568
578.335
581.936
577.62
592.552
597.514
596.189
601.03
594.623
597.474
589.751
586.685
657.408
628.588
607.673
634.163
595.62
586.019
609.687
603.678
621.411
609.234
601.338
600.162
592.774
524.884
527.416
552.621
530.848
555.662
560.023
533.868
539.145
565.648
576.636
579.708
551.486
569.624
542.285
566.397
531.323
561.224
529.481
556.277
563.055
535.806
553.071
585.683
581.956
545.338
575.553
572.198
544.115
509.429
503.303
504.528
482.719
479.273
485.575
482.154
514.354
543.548
549.589
547.455
542.757
508.059
510.882
520.594
515.512
522.185
489.339
493.501
489.35
485.695
529.192
492.599
497.584
531.303
535.434
501.093
494.966
533.983
543.08
539.893
503.637
497.065
505.454
496.316
448.844
469.818
473.265
471.836
449.593
469.126
447.77
463.21
443.38
466.341
443.277
464.307
466.465
445.532
451.901
476.283
478.743
474.204
450.809
476.167
451.56
459.007
438.589
457.63
442.221
461.945
463.754
443.794
462.449
440.413
460.815
468.298
446.663
466.061
445.423
452.134
481.984
452.762
452.57
480.633
477.676
452.022
464.091
441.117
463.506
470.099
447.365
471.447
447.731
463.832
472.809
447.753
440.793
464.24
472.336
447.91
431.854
289.286
287.927
431.859
413.907
432.084
405.363
408.636
431.712
402.743
589.938
588.539
598.295
586.541
579.855
611.454
642.87
617.33
589.31
600.8
629.81
630.712
605.344
613.468
586.973
581.858
582.454
583.398
577.042
581.85
576.079
575.431
638.659
635.001
618.995
633.92
622.257
594.646
613.677
600.504
583.819
593.168
577.549
585.291
576.279
590.418
600.445
604.374
592.198
594.212
599.507
583.9
590.844
601.248
599.228
589.275
580.979
594.7
592.429
582.095
590.939
601.188
617.64
593.811
605.237
582.994
586.778
581.008
585.23
579.546
576.946
590.163
587.983
578.202
582.188
587.609
567.718
581.212
673.139
678.2
812.335
792.239
658.234
587.181
587.017
674.961
592.697
676.202
657.358
657.696
559.157
604.38
685.211
600.754
674.344
657.286
596.461
630.855
605.544
615.418
593.462
636.14
606.658
803.691
715.239
734.025
760.964
745.169
769.866
708.769
621.041
576.428
595.369
621.704
624.409
587.933
616.867
617.363
564.742
575.924
611.16
615.283
579.626
611.724
619.318
600.909
598.51
622.732
622.343
594.299
618.664
654.313
652.972
688.693
682.573
653.482
685.054
653.601
572.464
628.916
580.02
600.849
584.581
627.686
602.909
672.158
644.413
674.033
715.943
717.266
673.452
638.182
810.851
721.464
752.758
780.861
751.33
778.019
723.705
674.49
635.787
673.972
724.446
721.887
676.097
636.761
596.626
617.313
670.669
712.534
687.704
715.226
778.075
780.838
670.453
612.719
632.497
680.903
646.618
660.316
673.533
644.298
661.743
622.385
629.041
649.922
646.037
645.53
691.779
668.849
723.822
721.38
683.686
688.98
726.113
766.923
707.801
722.434
753.442
704.655
717.738
751.558
633.415
603.645
605.311
625.377
613.245
628.25
629.958
633.459
608.985
620.951
628.108
617.876
627.802
634.528
642.1
619.161
641.053
645.949
626.903
650.845
638.095
656.084
652.152
679.384
681.462
653.44
680.785
654.294
692.926
687.266
717.395
681.732
685.287
714.928
665.262
691.55
655.428
699.437
718.261
678.949
727.073
667.387
785.412
767.944
722.258
750.063
725.478
760.583
749.054
762.691
710.603
688.315
709.109
742.163
733.026
679.405
658.084
615.104
638.114
651.242
664.895
718.56
692.371
682.602
689.603
703.346
689.914
653.022
649.778
659.141
649.589
685.523
678.335
681.316
669.43
656.293
648.768
655.006
738.439
694.411
719.89
702.916
673.685
658.132
673.726
642.758
650.158
643.803
638.489
638.206
632.972
634.237
690.547
668.144
683.952
648.638
641.104
654.734
645.29
656.112
651.85
647.222
633.802
635.079
631.986
640.898
656.053
633.485
642.148
632.193
625.833
625.594
640.267
628.396
621.998
616.942
624.828
620.681
629.674
630.437
714.466
756.709
731.477
732.112
689.374
713.054
810.706
758.713
764.29
758.009
770.524
759.932
768.505
756.344
773.578
728.762
742.519
744.894
697.449
757.664
734.433
710.33
804.676
826.5
813.051
782.966
784.087
776.936
798.129
755.025
756.304
727.7
742.019
756.589
762.284
733.004
717.901
739.728
726.525
702.445
753.566
719.501
713.826
772.171
717.036
776.447
748.027
696.433
747.806
704.362
775.307
791.017
809.243
768.236
755.356
781.857
742.868
725.064
705.254
751.689
738.819
691.614
719.563
704.326
431.627
433.452
433.193
422.716
425.491
422.991
425.751
432.18
433.319
433.518
422.717
423.037
425.728
425.307
431.557
428.221
428.03
426.291
426.558
426.813
426.465
431.805
428.892
428.513
426.799
425.839
426.37
426.346
290.986
365.736
355.662
288.994
353.175
288.382
376.468
421.48
411.363
421.846
411.219
420.401
420.586
409.109
416.807
408.404
418.781
418.953
403.793
416.969
406.578
409.721
421.159
421.659
420.534
407.025
420.135
407.832
419.042
417.128
403.091
405.071
417.198
418.766
405.626
415.041
367.508
287.928
418.945
373.05
287.928
409.126
343.033
287.927
424.9
373.922
287.928
408.13
288.1
287.926
415.172
422.756
417.772
410.687
426.885
407.343
423.944
418.104
416.031
429.113
411.087
428.13
409.879
427.817
413.52
406.933
409.761
405.45
419.21
398.241
414.414
406.752
405.971
406.86
382.774
393.511
404.215
395.324
437.978
436.829
501.479
508.564
483.605
482.157
435.214
430.344
503.123
484.416
503.619
483.507
502.73
502.688
483.437
483.025
508.632
505.461
508.689
504.623
483.941
484.484
670.44
552.66
546.309
629.101
543.545
689.415
529.407
620.11
659.764
645.662
662.423
611.492
590.914
609.684
628.414
607.832
626.9
648.857
577.635
571.201
592.662
581.268
688.606
679.146
675.937
656.961
649.384
630.096
643.556
597.151
676.781
652.599
685.922
667.885
636.97
613.181
547.698
523.298
522.527
525.989
525.037
550.557
552.858
526.893
563.634
534.032
536.482
529.521
559.212
571.825
530.923
562.955
570.296
528.414
527.421
555.295
559.636
535.46
582.309
596.059
539.362
532.138
568.708
582.724
501.065
502.114
502.167
481.192
477.659
480.889
477.38
504.014
508.567
504.289
481.506
480.082
478.191
482.809
437.663
458.457
460.617
441.242
462.782
461.673
439.362
432.834
453.916
456.378
460.468
434.67
458.595
437.282
456.886
437.522
456.667
440.939
460.865
460.295
439.851
456.658
435.551
456.449
459.829
436.463
458.934
438.508
607.442
625.74
652.729
665.234
657.596
659.202
611.849
637.103
655.534
638.323
651.093
642.313
642.611
650.226
639.929
660.468
662.623
663.051
635.632
639.712
652.012
647.826
637.259
625.943
631.321
643.968
641.477
640.485
638.616
620.368
615.184
623.969
641.477
623.6
631.636
634.199
616.725
638.999
622.228
642.075
604.178
618.023
623.57
663.107
632.915
653.242
652.681
653.007
636.008
657.388
642.898
645.621
648.316
610.857
629.564
632.232
653.873
657.806
658.475
655.469
650.509
646.27
656.058
654.203
427.892
427.12
429.819
418.66
420.063
422.752
421.194
408.423
407.389
406.797
363.405
338.431
375.96
382.703
420.791
425.962
424.048
417.26
416.033
418.203
419.646
417.039
422.007
419.712
413.958
414.991
416.815
415.47
430.648
432.57
431.453
422.155
421.257
424.046
424.944
417.097
414.378
413.088
412.897
411.962
414.112
412.8
425.575
425.427
424.745
420.382
422.405
421.542
421.632
426.037
426.733
429.404
424.147
423.32
422.898
424.31
421.838
423.752
422.249
419.007
419.217
420.527
417.475
431.209
427.397
430.505
425.246
425.88
426.047
425.22
411.887
409.799
411.298
410.938
411.303
411.783
411.09
420.18
417.506
416.111
417.649
415.924
414.328
415.911
411.502
410.357
413.008
412.823
412.466
414.1
411.65
408.081
407.676
408.628
410.856
410.737
410.861
410.538
407.548
406.768
408.26
411.176
410.866
410.32
410.111
406.129
406.391
406.879
410.348
410.75
410.28
409.682
406.044
406.772
406.1
409.71
408.242
409.184
408.945
375.103
291.889
292.882
289.687
391.351
289.317
387.399
324.513
291.595
369.328
289.666
391.717
289.22
357.143
418.859
416.402
419.734
419.566
412.99
418.419
414.336
417.223
421.118
420.423
420.535
415.795
415.249
421.391
421.842
418.087
422.413
422.662
416.038
422.158
415.814
417.47
422.291
422.635
422.84
413.328
422.647
414.931
358.337
289.52
291.302
289.101
384.98
374.016
288.468
417.706
411.555
416.429
411.236
417.059
415.523
409.183
406.582
406.153
406.318
409.555
408.808
408.508
407.714
420.249
413.134
420.546
409.946
419.703
412.598
421.124
419.174
410.341
408.853
417.22
418.624
417.852
411.689
422.418
413.371
421.261
411.079
421.879
421.779
413.186
422.655
411.279
410.696
421.795
422.399
422.003
412.463
408.574
415.532
416.311
414.606
403.254
413.649
406.491
408.172
407.304
406.476
407.244
408.048
406.92
406.058
409.35
413.733
415.116
413.93
404.485
406.942
412.357
408.22
407.702
407.365
405.65
407.212
406.386
404.693
412.807
401.647
400.856
409.713
411.691
404.17
411.001
288.021
288.231
364.898
344.624
289.056
368.638
288.307
412.196
401.749
410.737
401.144
410.515
409.069
398.628
544.316
545.306
585.719
591.074
593.237
591.971
570.858
504.389
605.435
590.147
601.015
598.227
593.839
582.569
579.149
587.531
582.42
586.911
568.68
563.657
574.47
569.951
566.628
587.38
582.214
586.386
563.568
570.248
573.889
599.414
593.92
598.159
592.937
593.014
580.024
583.657
568.13
538.941
544.44
525.758
559.26
557.319
534.454
541.305
519.037
514.264
543.882
549.673
549.255
526.141
522.826
527.961
551.028
523.297
542.164
548.316
527.639
535.811
560.78
572.063
568.652
543.645
557.508
534.524
420.049
295.301
287.928
298.954
287.929
400.721
290.482
287.927
423.232
421.996
296.204
287.929
415.76
398.508
287.928
408.181
287.958
287.926
421.566
410.554
412.928
413.445
417.191
417.058
419.342
413.162
411.967
413.129
412.5
415.581
409.058
410.481
414.581
423.289
413.333
420.273
419.518
417.967
425.788
413.972
420.587
416.565
427.467
416.223
426.802
407.984
407.846
410.467
410.084
395.905
407.603
406.345
409.67
471.735
503.391
505.101
473.478
428.511
425.108
455.71
424.798
480.26
420.859
440.271
433.723
491.954
514.021
429.148
486.68
422.473
467.022
423.735
420.045
460.036
476.24
432.3
436.454
445.747
503.033
524.737
422.816
512.711
481.057
486.217
449.009
472.378
454.563
473.291
437.034
434.219
445.714
446.071
496.15
502.746
492.9
463.381
479.5
466.859
477.019
473.084
466.077
475.429
442.024
447.697
448.424
451.805
482.775
486.946
508.43
500.636
506.172
477.493
471.632
475.135
503.455
502.857
490.332
491.104
461.171
459.962
460.633
456.295
475.765
435.59
433.891
447.244
450.617
498.586
503.652
486.625
478.382
460.764
452.134
469.79
494.496
476.334
467.596
439.367
444.987
462.204
455.77
469.612
504.084
504.016
490.026
489.836
459.548
459.586
513.659
497.489
520.417
520.631
512.861
491.691
484.301
511.442
487.135
470.156
479.062
523.801
534.858
495.026
471.887
480.827
478.439
455.3
452.362
454.752
456.507
508.198
528.058
536.12
528.905
498.857
537.203
505.196
464.492
502.798
500.342
488.654
489.274
459.602
459.372
534.36
491.195
542.65
551.012
543.665
501.282
505.866
516.592
543.652
550.452
551.893
544.922
510.351
514.427
422.046
416.849
415.114
427.291
417.984
428.477
416.963
421.016
413.978
413.552
427.57
416.98
429.192
416.597
430.845
449.733
452.606
438.17
423.191
440.946
421.654
426.663
445.359
447.404
436.517
420.704
435.862
420.89
456.19
436.962
460.457
449.414
425.594
444.772
428.562
433.933
419.15
416.983
426.036
447.17
441.55
423.23
425.271
415.172
413.953
436.491
418.319
432.27
420.534
428.544
420.125
418.685
419.301
430.958
433.689
420.377
443.299
465.138
469.802
434.806
460.198
454.674
431.741
422.456
443.459
441.592
420.841
436.082
436.686
420.963
435.057
421.004
420.873
435.656
420.961
420.899
436.571
421.237
439.757
438.083
436.977
420.559
420.868
436.909
443.74
439.064
421.221
428.521
452.705
457.413
430.348
447.431
473.923
477.181
437.425
465.336
469.494
439.283
423.947
423.707
447.155
460.739
431.6
462.615
431.334
474.185
448.331
448.61
440.528
440.261
479.527
472.412
408.149
406.913
406.737
398.935
396.543
368.39
385.762
620.743
632.545
548.216
524.863
542.362
568.56
587.14
495.992
572.019
624.475
581.308
600.488
601.099
565.843
568.658
590.651
583.525
588.442
564.767
563.812
563.567
561.799
605.863
592.186
565.264
584.542
592.522
564.454
562.272
587.133
645.835
596.716
577.572
625.71
609.019
570.813
484.828
542.36
505.816
486.392
526.222
540.329
506.646
489.953
533.921
528.801
539.51
512.946
540.574
508.659
525.384
557.917
531.201
552.905
522.254
545.781
520.696
543.778
521.966
520.984
541.622
520.931
540.106
520.097
411.948
411.802
411.056
412.662
412.001
412.427
412.358
412.425
412.794
411.923
413.019
413.27
413.189
412.911
415.66
412.882
412.06
413.709
413.191
414.014
412.891
411.2
410.612
412.27
412.03
412.59
413.132
412.408
413.192
413.318
413.284
413.259
413.078
412.648
412.842
412.118
412.696
412.905
412.08
411.582
411.667
412.145
416.368
412.406
413.117
413.271
411.921
412.928
412.332
414.799
415.889
413.649
413.206
413.176
413.804
413.045
418.482
413.885
414.457
413.227
415.028
414.334
413.354
422.314
417.238
415.616
416.063
413.888
414.748
417.223
424.258
418.936
420.306
415.512
418.722
418.189
415.888
416.323
413.462
413.375
413.174
413.996
413.701
412.859
412.675
413.161
413.679
412.437
412.672
412.156
411.788
427.319
421.494
421.139
418.9
415.904
415.665
418.95
411.383
411.403
412.068
411.766
411.17
411.367
411.514
427.187
421.008
421.444
415.383
418.882
419.012
415.106
410.063
411.081
411.159
411.229
411.405
411.26
411.032
408.806
409.656
410.593
411.133
411.375
411.314
411.172
407.796
408.932
408.95
411.216
410.97
411.143
410.973
407.044
408.618
407.874
411.272
410.858
411.108
411.112
406.697
407.065
406.935
410.872
410.931
410.38
410.275
296.622
414.114
410.964
378.086
380.197
293.057
294.375
420.571
423.02
420.341
422.321
422.124
420.441
420.49
421.022
421.143
422.858
420.784
421.782
420.938
421.044
298.857
411.318
414.172
379.097
331.009
292.724
374.551
420.713
422.536
420.722
420.627
420.605
421.629
420.709
420.436
419.111
419.441
418.335
420.009
420.133
420.178
420.425
422.353
420.52
420.799
423.22
422.234
420.732
406.913
406.98
406.693
410.221
410.704
409.866
409.236
420.36
419.073
420.129
419.249
418.016
417.05
419.536
291.468
408.573
398.137
372.523
363.593
290.012
292.293
420.457
420.933
418.987
420.632
420.312
420.715
420.448
420.988
421.116
420.639
420.988
419.475
421.614
420.874
291.101
294.841
408.991
289.74
291.936
371.04
361.382
421.211
419.315
419.034
421.717
421.898
420.388
421.065
420.878
419.237
420.466
419.643
418.683
417.262
420.2
417.706
421.006
420.473
419.536
413.885
419.823
415.724
418.091
415.659
417.076
412.275
414.753
416.756
418.403
417.52
418.569
419.475
418.514
413.668
417.469
415.54
418.537
417.927
416.426
412.545
417.215
415.016
419.189
417.336
410.878
411.506
415.004
416.287
413.337
416.045
418.317
410.665
416.768
411.145
418.358
416.851
413.386
407.968
407.884
408.291
407.229
406.975
409.492
409.274
288.64
377.929
393.947
288.331
369.433
350.499
289.411
415.656
409.528
415.309
413.67
407.531
406.549
414.072
408.224
406.559
407.365
407.289
407.307
408.748
408.018
408.132
413.525
414.58
412.902
403.294
411.816
405.115
411.825
410.365
404.32
399.556
403.257
409.873
412.292
411.034
397.932
408.016
399.862
409.972
401.75
409.067
398.848
407.804
409.259
407.549
391.954
405.923
395.61
408.193
408.597
408.631
405.514
402.056
404.499
403.612
397.624
406.764
408.713
407.303
390.677
394.974
405.309
319.181
288.162
349.072
287.986
329.178
288.348
370.14
408.347
395.229
407.825
391.556
406.124
405.481
390.117
391.293
403.253
405.832
393.455
406.971
404.497
388.191
405.735
401.664
387.204
387.892
403.939
391.785
403.647
313.062
288.102
342.892
287.94
296.091
330.498
287.979
388.701
401.779
404.486
385.496
402.954
400.021
378.746
413.651
412.517
412.066
390.114
389.381
386.995
387.71
412.66
409.359
411.073
385.454
387.851
385.477
383.079
412.546
413.829
412.146
390.139
387.694
389.422
386.922
407.24
379.551
406.798
410.212
409.771
383.722
384.411
412.939
409.432
411.166
385.376
387.861
385.292
382.744
406.65
380.046
407.208
410.212
409.747
384.334
383.478
406.941
405.56
403.915
382.252
379.866
378.299
375.883
375.179
377.321
399.918
385.479
403.431
402.644
383.805
375.725
405.781
404.034
407.025
408.765
382.222
379.839
403.262
377.262
405.379
406.757
408.647
381.747
379.111
406.986
406.031
403.931
382.038
379.344
377.891
375.125
402.758
374.914
403.445
399.271
398.609
368.185
369.163
403.549
374.482
403.134
399.335
398.921
368.649
369.317
378.485
395.755
400.061
397.539
372.236
401.5
381.501
402.05
396.514
400.401
368.084
373.593
371.132
365.536
368.501
401.631
398.689
404.594
401.591
376.626
372.624
366.692
400.52
397.369
404.15
400.946
375.634
371.348
370.712
402.137
400.421
396.362
397.972
367.168
364.774
398.781
381.389
401.109
397.802
366.78
394.871
373.532
399.272
372.063
401.38
363.537
395.378
397.29
366.318
402.52
396.351
400.356
367.021
372.908
370.073
364.081
361.224
396.585
393.506
359.812
393.029
390.243
355.02
363.41
398.1
395.311
394.17
391.497
361.463
357.199
357.662
395.352
391.67
394.333
398.125
367.818
362.083
393.772
389.761
355.004
393.418
397.334
366.218
360.081
374.561
393.508
398.311
396.11
356.973
369.484
390.574
395.127
390.536
394.629
362.028
355.527
354.501
362.828
395.219
391.575
394.806
361.884
355.661
362.79
354.817
392.359
389.418
387.755
361.611
358.904
350.983
353.91
392.023
389.251
393.633
360.371
349.644
352.546
357.791
392.289
389.584
349.976
390.91
393.826
360.022
352.947
352.113
392.128
388.472
384.606
388.344
351.855
345.32
390.064
386.156
348.884
382.881
386.925
349.037
341.875
389.816
382.003
387.088
345.769
354.247
349.689
340.895
342
382.599
387.491
390.201
385.484
355.231
347.031
390.211
387.567
345.884
384.813
387.521
348.064
340.575
393.226
381.607
348.725
354.525
389.374
362.925
386.684
379.851
378.396
383.818
344.042
328.123
335.028
337.271
335.899
378.991
384.174
380.073
374.497
337.571
328.72
384.219
375.859
382.395
341.602
334.133
330.928
344.728
379.749
381.185
384.087
341.769
326.118
334.155
333.937
321.548
332.282
376.675
373.043
379.89
337.454
326.698
610.957
645.767
616.271
625.107
595.426
597.272
584.209
603.265
594.567
584.296
582.551
595.398
578.836
590.671
587.43
616.648
589.652
604.364
591.381
581.533
592.647
604.184
631.9
635.928
613.922
619.36
602.318
601.43
620.287
638.121
620.466
631.392
642.1
622.699
608.782
628.251
609.346
591.774
604.517
597.624
583.926
588.633
600.939
603.056
614.495
622.583
598.478
615.546
605.767
613.511
598.055
592.051
587.108
592.899
581.736
589.425
596.375
630.047
616.905
619.011
612.193
609.369
601.839
603.831
636.696
622.191
602.469
577.525
555.919
605.52
589.883
584.004
613.293
602.249
608.391
621.485
615.116
618.225
614.32
627.571
629.138
621.166
640.95
630.258
625.225
634.11
605.252
603.593
602.69
607.208
610.26
612.887
611.621
623.192
612.975
615.171
621.622
624.142
617.967
628.649
580.739
552.986
555.561
566.797
597.839
594.263
567.121
567.081
584.305
596.401
581.168
554.199
594.305
565.538
623.332
579.257
611.271
607.441
588.347
619.076
578.304
606.841
614.943
586.424
606.663
586.475
616.949
576.603
315.709
326.068
372.66
359.192
367.664
319.058
309.52
374.952
361.946
368.906
320.373
329.416
320.656
312.307
367.791
360.409
357.687
322.414
319.326
310.782
308.212
360.455
310.861
364.597
353.951
315.41
305.107
301.699
352.003
353.552
361.406
311.712
298.352
304.695
303.567
355.188
306.027
348.517
335.333
301.303
298.329
295.365
298.56
345.991
345.008
341.58
297.554
297.214
342.537
288.547
287.928
288.42
287.929
288.998
287.929
288.771
297.424
338.851
342.306
338.814
295.136
296.201
335.392
288.386
287.927
288.508
287.928
288.725
287.928
288.986
297.755
339.761
342.919
339.549
295.532
336.463
296.517
345.856
298.348
297.461
342.37
344.661
341.157
297.011
332.62
347.99
344.783
294.579
301.051
299.293
293.652
335.632
294.382
332.377
293.932
330.559
327.35
293.188
288.345
287.928
288.123
287.928
288.641
287.928
287.958
288.096
287.928
287.963
287.928
288.308
287.929
288.591
293.704
329.77
326.835
335.16
294.302
332.138
295.119
294.157
332.536
331.669
337.125
295.974
295.695
338.037
293.983
294.296
332.27
295.888
337.826
336.596
295.505
290.69
315.983
313.086
292.208
322.717
319.522
291.659
325.308
328.665
293.435
334.255
293.937
294.826
330.85
291.492
322.957
318.303
293.345
328.117
323.209
292.348
334.39
293.95
330.955
293.474
328.965
325.593
292.762
334.911
324.646
340.43
297.288
291.588
295.258
292.618
340.255
316.984
326.544
293.932
297.146
292.987
291.205
288.401
287.928
288.305
288.09
287.927
288.056
287.927
288.275
287.927
288.37
288.046
287.927
288.088
287.927
292.382
323.482
320.725
316.636
290.858
314.153
291.221
292.721
326.08
325.272
318.258
291.583
291.468
318.99
292.565
292.812
325.77
317.517
291.526
318.685
291.342
292.629
318.071
324.615
321.53
291.029
292.049
315.227
291.142
321.077
316.17
292.95
326.468
321.264
291.961
319.046
322.234
292.142
290.617
312.529
315.427
291.026
288.054
287.928
288.216
288.025
287.927
287.927
287.967
290.371
315.109
310.633
290.161
309.022
305.188
289.698
288.247
287.927
288.076
288.036
287.932
287.927
287.927
290.679
317.126
312.858
290.421
310.948
307.255
289.954
290.716
313.096
307.69
317.635
290.529
291.391
311.688
290.222
309.509
305.529
290.397
310.844
315.499
291.036
328.243
306.755
320.584
290.641
293.395
291.816
289.825
311.155
290.517
305.21
289.626
304.643
290.434
311.81
310.572
290.478
305.09
289.578
311.573
304.336
290.346
311.31
290.16
308.831
302.907
289.682
289.454
304.905
288.066
287.926
287.963
287.927
287.942
287.927
287.937
309.73
289.995
289.499
301.761
303.462
307.614
290.257
289.821
306.337
301.053
308.776
289.423
302.947
290.118
290.072
308.202
303.55
303.36
289.089
289.498
299.563
301.454
289.792
305.958
301.31
288.901
297.753
289.269
289.68
299.705
304.97
301.985
288.876
297.507
289.345
288.935
302.547
298.053
289.79
305.835
300.539
289.196
289.491
303.455
298.87
300.371
288.768
296.619
289.16
300.868
304.743
312.477
290.55
288.696
289.585
289.171
288.032
287.926
287.953
287.929
287.926
287.93
287.926
298.939
288.738
288.66
293.46
295.371
289.023
296.143
288.693
299.238
295.687
288.749
296.253
293.612
288.483
297.909
289.072
295.148
288.546
288.921
294.214
299.356
297.404
288.6
288.561
292.702
294.809
294.513
288.858
288.581
292.097
294.576
296.26
288.439
288.752
293.161
288.499
291.866
293.779
291.918
288.18
290.597
288.312
288.422
291.102
293.005
291.642
288.144
288.284
290.228
287.928
287.926
287.947
287.928
287.926
287.926
287.931
292.269
288.291
291.704
288.161
290.404
290.069
288.129
290.41
288.227
291.063
289.687
288.055
289.3
288.092
290.516
288.945
288.073
288.086
289.63
288.171
289.501
287.928
287.926
287.941
287.927
287.926
287.928
287.926
289.792
288.05
289.254
288.021
288.945
288.646
287.993
288.57
288.049
289.232
289.048
287.977
288.478
288.031
288.96
288.859
288.826
288.025
288.009
288.012
288.021
288.936
288.848
288.804
288.024
288.019
288.011
288.007
288.881
288.663
288.759
288.003
288.004
287.994
288.014
288.845
288.621
288.725
287.999
288.01
287.999
287.99
288.841
288.272
287.992
287.967
288.636
288.374
288.012
288.502
288.009
288.823
288.409
287.954
288.232
287.97
288.526
288.703
288.677
287.995
287.983
287.981
287.998
288.483
288.542
288.621
287.99
287.972
287.978
287.983
288.455
288.504
288.59
287.987
287.968
287.975
287.979
288.539
288.694
288.656
287.983
287.998
287.994
287.98
288.551
288.508
288.434
287.992
287.984
287.98
287.973
288.505
288.458
288.388
287.987
287.975
287.979
287.969
287.926
287.926
287.926
287.926
287.926
288.053
288.67
287.926
287.926
287.926
287.926
287.926
287.926
287.927
287.926
287.926
287.926
287.926
287.926
287.926
287.926
287.926
287.926
287.926
287.926
287.926
287.926
287.926
287.926
287.926
287.926
287.926
287.926
287.926
287.926
288.336
287.926
287.926
287.926
396.73
430.659
367.109
287.95
287.926
287.926
510.132
405.814
400.034
287.928
287.926
431.352
514.488
920.278
959.093
407.413
494.308
534.746
924.828
884.533
303.857
477.681
537.075
491.229
627.002
288.077
287.955
287.926
287.926
287.959
419.034
461.159
442.499
449.364
287.926
287.926
287.926
287.926
287.926
287.926
287.926
287.926
287.926
287.926
287.926
287.926
287.927
428.215
440.923
414.064
287.926
287.926
287.926
287.926
287.926
288.07
389.029
408.728
287.926
287.926
287.926
287.926
287.926
287.926
288.213
384.303
287.926
287.926
287.926
287.926
287.926
287.926
287.926
287.927
287.926
287.926
287.926
287.926
287.926
287.926
287.926
287.926
287.926
287.926
287.926
287.926
287.926
287.926
287.926
287.926
512.346
428.396
486.681
404.288
404.684
287.985
404.055
287.926
287.928
287.926
287.926
707.395
743.833
600.107
639.665
542.174
710.114
494.032
616.02
781.409
792.955
720.591
699.873
655.775
883.876
794.13
687.944
642.077
543.085
649.053
594.104
472.295
577.472
961.747
857.224
881.888
893.467
889.099
946.906
866.828
742.937
720.405
743.765
740.835
716.508
702.587
711.968
735.835
689.873
725.17
659.437
698.155
673.503
630.542
805.072
790.891
803.44
829.944
831.401
812.229
811.534
808.8
794.311
806.824
834.394
832.813
811.932
808.972
434.354
401.373
449.189
491.239
556.939
417.692
405.784
425.268
661.351
487.096
417.688
477.763
534.737
455.142
433.192
401.473
443.092
477.139
433.516
442.392
401.61
732.772
688.682
724.786
674.276
659.825
693.04
627.17
650.773
657.314
698.594
635.224
569.111
599.826
587.115
757.387
717.358
754.898
765.025
716.478
764.37
716.435
751.569
716.327
758.605
762.853
685.068
706.795
751.146
911.085
757.73
778.782
638.998
908.538
573.045
819.213
856.928
885.117
858.028
830.322
849.509
831.35
846.653
859.736
885.575
859.137
828.181
831.338
841.762
821.941
470.289
590.369
499.262
515.72
457.729
467.36
438.554
683.866
615.49
672.649
646.852
615.084
668.227
579.169
572.932
596.636
640.519
605.624
525.054
539.788
571.92
863.922
858.588
865.387
914.142
904.909
907.692
911.17
873.882
861.73
868.919
919.77
919.017
924.546
913.533
688.667
664.83
657.868
678.283
672.343
630.918
645.257
675.643
598.111
636.083
620.89
653.17
601.043
561.153
489.167
485.707
476.306
479.259
467.498
459.276
461.493
447.797
477.086
461.489
499.656
469.209
471.738
480.56
467.187
652.904
514.238
541.842
641.055
636.849
661.145
639.613
620.787
653.44
630.294
623.406
595.076
597.808
620.096
518.771
541.789
536.544
544.13
541.138
420.716
562.698
556.256
589.529
587.113
621.98
609.564
603.531
572.208
542.507
554.167
520.791
522.954
556.245
287.926
287.926
287.926
287.926
287.926
287.926
476.37
449.594
465.829
464.814
439.291
428.879
476.901
458.435
419.65
422.278
456.635
572.314
521.579
576.107
520.405
548.402
584.789
555.715
497.502
528.739
506.185
549.213
484.881
287.992
287.926
468.515
438.268
450.965
444.912
444.216
412.805
417.08
466.188
433.077
428.848
473.793
434.7
456.038
406.333
424.722
430.837
335.306
454.998
491.901
425.053
534.436
517.045
463.882
498.203
441.655
429.861
459.693
452.319
463.342
485.442
535.608
511.082
492.105
550.62
514.505
453.296
470.84
493.838
490.689
495.994
316.313
289.718
313.43
448.947
288.1
291.337
287.945
424.347
287.927
287.926
287.926
415.336
323.71
287.926
287.926
287.926
287.926
287.926
451.292
468.295
532.254
478.671
528.922
484.612
287.926
287.926
287.926
287.926
287.926
287.926
287.926
287.926
287.926
287.926
288.298
287.946
293.912
287.926
287.927
498.815
287.936
558.097
308.128
615.908
402.133
287.926
287.926
287.926
287.926
287.926
287.926
287.926
287.926
287.926
287.926
287.926
287.926
287.926
287.926
287.926
287.926
287.926
287.926
287.926
287.926
287.926
287.926
287.926
287.926
287.926
287.926
287.926
287.926
287.926
287.926
287.926
287.926
287.926
287.926
287.926
287.926
287.926
287.926
287.926
287.926
287.926
287.926
287.926
287.926
287.926
287.926
287.926
287.926
287.926
287.926
287.926
287.926
287.926
287.926
287.926
287.926
287.926
287.926
287.926
287.926
287.926
287.926
287.926
287.926
287.926
287.926
287.926
287.926
287.926
287.926
287.926
287.926
287.926
287.926
287.926
287.926
287.926
287.926
287.926
287.926
287.926
287.926
287.926
287.926
287.926
287.926
287.926
287.926
287.926
287.926
287.926
287.926
287.926
287.926
287.926
287.926
287.926
287.926
287.926
287.926
287.926
287.926
287.926
299.569
287.989
370.741
396.338
508.276
302.441
520.753
288.841
288.837
302.084
287.926
287.926
287.969
287.93
287.929
287.981
287.98
287.926
287.926
287.926
287.926
287.926
287.926
287.926
287.926
570.563
472.606
584.866
616.616
621.682
614.136
625.451
538.944
573.882
603.791
563.802
293.938
287.926
293.507
291.034
292.813
293.534
291.869
292.367
289.941
289.004
290.282
288.339
294.314
288.342
293.041
293.761
288.308
288.377
288.264
292.143
291.415
288.156
292.701
288.24
288.171
288.013
290.17
288.074
289.057
288.082
289.169
288.01
287.967
293.86
287.942
290.392
287.926
287.933
287.926
287.926
288.023
287.926
287.926
287.929
287.927
287.926
287.926
287.926
287.926
287.932
287.959
287.931
287.926
287.926
287.927
287.926
288.162
287.926
287.926
287.926
287.926
287.929
287.93
288.173
287.927
288.317
287.926
287.926
287.926
288.011
287.926