/*--------------------------------*- C++ -*----------------------------------*\
  =========                 |
  \\      /  F ield         | OpenFOAM: The Open Source CFD Toolbox
   \\    /   O peration     | Website:  https://openfoam.org
    \\  /    A nd           | Version:  9
     \\/     M anipulation  |
\*---------------------------------------------------------------------------*/
FoamFile
{
    format      ascii;
    class       volScalarField;
    location    "0.0012";
    object      T;
}
// * * * * * * * * * * * * * * * * * * * * * * * * * * * * * * * * * * * * * //

dimensions      [0 0 0 1 0 0 0];

internalField   nonuniform List<scalar> 
10087
(
288.246
518.72
535.742
287.926
1342.1
287.926
1182.4
287.926
466.705
287.994
287.926
291.99
287.933
854.478
287.926
288.007
310.21
292.886
287.997
287.939
1186.27
1033.96
502.214
288.075
1180.89
297.639
289.048
287.926
287.926
490.02
353.878
288.469
287.926
568.294
287.939
287.928
287.947
287.926
287.926
287.952
287.926
287.926
287.926
287.926
1521.26
287.926
1133.19
287.926
344.875
287.926
287.926
287.937
287.926
1511.28
1439.93
1422.71
629.812
1013.57
1351.34
1050.4
938.954
584.203
294.589
288.016
343.837
741.16
288.862
1107.67
1391.35
1438.27
794.606
691.939
1336.79
1344.97
378.359
288.385
288.041
381.171
287.93
596.748
288.048
287.962
370.699
287.929
287.927
311.932
589.589
288.034
740.115
1216.91
918.886
370.835
287.981
772.945
312.976
666.451
1470.57
1499.46
610.401
321.632
1343.81
1264.71
404.151
1211.88
1199.14
288.253
288.046
678.009
612.58
695.275
287.944
287.926
293.631
497.56
340.118
287.953
418.152
360.613
287.927
287.945
287.926
287.926
298.924
1436.06
1455.67
1380.04
1493.01
1489.53
1507.14
1525.85
428.814
1553.83
1339.79
864.172
291.767
1354.57
1133.11
288.014
1178.03
1105.01
1338.55
321.358
1013.21
288.714
290.431
1181.01
1034.56
287.982
287.927
558.449
330.445
1410.84
438.972
841.627
302.271
288.228
1219.55
947.728
1399.1
1416.94
1422.76
1487.28
1500.3
1485.75
1503.24
289.351
1446.96
1073.09
295.736
287.953
1190.86
700.156
1414.11
1451.1
1433.58
1488.11
1506.6
1483.68
1506.7
1506.02
1542.26
1518.7
1492.38
1474.86
1443.2
1521.12
1387.17
1326.51
1313.64
1333.19
1430.11
1428.65
1322.29
956.743
903.813
880.685
792.16
760.115
717.18
682.347
1473.71
1501.54
1493.49
1496.47
1468.59
1436.91
1468.77
287.926
467.892
301.267
287.926
287.926
294.95
288.113
1400.76
1338.16
1404.09
1415.1
1304.59
1415.24
1302.31
905.551
783.21
840.987
642.729
710.008
630.648
562.839
431.426
287.937
287.926
601.253
288.045
288.767
287.926
1420.44
1341.74
1410.77
1413.58
1281.6
1405.53
1296.48
287.943
316.329
637.137
289.198
287.955
1079.53
914.014
288.014
287.931
287.926
315.148
287.927
288.007
287.926
1314.25
1500.97
1472.15
1428.48
1264.59
1225.82
1461.31
1071.56
1219.94
1100.23
1185
988.306
1152.85
926.65
1515.65
1470.61
1496
1383.31
1342.12
1304.36
1418.53
1535.36
1533.66
1506.78
1516.51
1489.17
1411.27
1435.82
592.848
596.911
540.725
363.03
366.814
327.822
324.9
287.926
287.926
288.675
288.018
287.926
287.966
287.926
288.188
1249
883.323
288.038
287.926
634.004
289.139
614.901
303.333
287.934
287.949
666.527
288.211
287.926
1436.07
1331.86
1334.32
1407.33
1243.18
1295.33
1361.31
598.165
539.459
541.947
366.063
367.931
328.565
326.814
575.012
530.098
511.955
359.945
348.742
322.011
314.6
785.888
979.4
867.344
647.511
791.566
704.174
550.879
1430.14
1333.66
1433.23
1252.58
1385.97
1350.1
1204.83
317.331
551.926
446.34
484.194
333.58
306.272
298.947
610.307
287.926
289.523
432.043
287.99
293.777
287.926
1492.16
1456.96
1429.53
1392.23
1362.01
1247.98
1277.54
837.465
705.849
808.362
506.552
626.891
589.631
465.968
1210.84
1020.08
1016.62
1093.89
1089.43
812.227
819.048
287.953
817.13
707.479
287.928
287.926
396.121
334.806
1385.01
1177.44
1423.12
1140.87
1131.31
1389.05
1419.65
287.928
935.492
413.686
287.926
287.926
297.828
287.96
1358.22
1294.26
967.64
1153.5
1111.76
1259.99
1392.45
1222.57
1262.88
1386.83
1342.3
942.838
1129.7
1208.57
1373.59
1154.31
1384.35
1057.79
1106.4
1346.57
1409.46
1388.39
1309.57
1421.54
1293.48
1030.77
1210.51
1132.8
1207.85
984.033
1006.13
1049.84
1076.53
792.735
756.179
823.67
670.503
817.871
565.063
431.977
573.758
423.201
783.976
707.619
615.841
560.53
477.904
461.957
385.027
1460.41
1348.21
1433.08
1326.08
1416.64
1346.1
1245.75
287.926
495.425
288.134
287.926
287.926
294.265
287.928
288.263
287.926
287.926
287.926
287.926
287.926
287.932
698.401
653.353
762.036
534.899
354.027
463.639
412.08
766.953
649.698
800.409
541.891
369.431
501.135
401.928
1300.25
1306.33
1266.53
949.861
1052.21
1002.4
1001.34
1413.81
1358.45
1324.01
1237.51
1196.81
1055.67
1100.96
1206.53
968.314
1029.18
1024.81
1103.28
846.06
737.222
288.568
287.926
287.926
287.95
356.444
287.929
287.926
288.537
287.929
287.926
290.213
287.926
287.959
287.926
287.926
617.791
323.836
287.926
287.926
311.148
288.696
1338.54
983.134
1298.78
1228.27
935.577
884.016
1270.27
287.926
1159.63
305.704
288.105
287.926
859.579
288.264
287.95
1032.55
681.237
300.939
287.926
288.176
287.926
287.928
287.926
288.685
287.944
287.926
287.926
287.926
566.454
322.761
528.826
308.121
484.937
446.754
300.009
1459.4
1316.36
1436.79
1284.27
1129.32
1096.49
1309.38
947.784
1150.56
895.99
1005.91
941.95
701.588
627.861
1308.32
1249.76
1356.38
1152.94
1285.48
1169.7
1010.41
287.974
287.926
287.926
287.926
288.023
287.936
287.926
287.926
864.165
292.67
287.929
287.926
455.961
288.014
1393.19
1147.76
1366.58
1229.85
983.423
940.294
1257.57
1273.61
1005.21
848.789
802.93
1005.98
1125.49
1173.92
1292.14
1019.31
781.898
1129.37
1007.91
1297.42
1122.02
291.895
461.348
384.037
467.526
302.544
301.313
292.306
385.08
464.92
468.776
302.817
292.091
301.978
292.386
453.41
353.368
432.758
291.387
299.936
297.028
290.406
839.329
565.746
685.387
598.092
334.51
437.482
469.618
473.87
303.995
400.122
352.313
295.435
293.674
290.358
1134.18
1253.34
1211.72
873.569
826.925
773.898
925.36
290.147
287.928
287.926
287.928
416.57
287.926
288.699
287.926
290.907
287.935
287.926
287.926
287.965
287.926
406.119
304.837
473.676
397.099
290.085
343.186
293.792
1278.39
925.763
749.196
1062.68
978.944
1248.28
1102.12
1044.18
471.371
773.297
658.526
969.177
678.665
372.058
1201.73
968.383
1164.16
816.472
643.756
872.485
586.04
716.339
487.179
648.909
332.406
443.221
377.044
305.988
1356.71
1191.47
1330.84
1093.5
929.934
885.914
1127.9
1329.28
1077.06
1238.5
892.967
1093.56
937.322
716.375
1415.02
863.041
1129.86
1195.43
1338.74
1122.76
1488.1
1219.4
1244.57
1217.76
305.201
1022.4
1201.15
1011.49
1063.27
399.063
1152.31
1167.27
1197.33
1286.82
1327.55
1358.97
1323.81
1258.11
1304.24
1241.95
1401.99
1435.62
1449.68
1374.67
1248.48
1249.61
1230.82
1302.67
1347.38
1367.93
1313.59
1129.11
1190.71
1125.64
1220.96
1100.2
1221.7
1089.85
1289.53
1295.4
1272.67
1392.47
1332.52
1415.99
1324.72
995.749
1067.75
1007.38
870.662
977.41
955.814
842.065
1460.5
1460.56
1462.89
1477.56
1479.83
1449.38
1482
1211.04
1118.69
1127.83
1205.44
1217.14
1068.64
1035.01
1489.73
1379.53
1511.9
1456.88
1490.84
1423.73
1501.81
928.248
1049.39
970.59
918.109
729.495
863.125
794.895
1376.33
1326.76
1414.11
1419.78
1223.25
1362.08
1325.32
1420.91
1288.86
1297.19
1186.17
1411.87
1334.16
1316.66
1172.29
737.587
969.618
980.17
1159.14
944.38
698.853
513.839
646.227
777.272
742.993
367.612
473.206
609.903
1097.93
931.342
1135.12
903.925
566.507
847.676
642.07
690.52
356.477
483.743
331.263
620.987
416.788
555.753
589.993
386.391
506.882
302.804
361.128
314.492
292.741
287.929
292.804
447.622
287.926
287.926
288.255
287.933
331.689
369.831
403.982
293.983
288.714
291.352
289.437
1132.96
814.54
1059.03
608.754
759.89
1010.24
1178.03
847.501
1000.25
1196.5
1120.12
507.496
742.734
912.749
618.176
399.564
521.014
310.129
384.547
319.002
293.649
1055.34
1175.33
1297.34
1153.41
599.22
821.866
991.055
1254.66
1287.16
1374.45
1217.59
808.766
1004.01
1079.52
1166.67
790.778
1129.87
960.334
631.373
574.755
1002.9
561.085
423.122
386.034
365.238
337.13
296.501
292.891
1075.44
1213.33
1162.72
981.93
900.282
1034.79
718.994
534.388
399.986
293.566
431.851
289.343
295.088
328.129
1021.96
901.47
811.002
735.184
416.766
629.055
507.217
1103.85
734.259
826.35
739.547
854.386
532.667
418.912
1235.2
1031.52
1199.28
876.183
713.12
655.013
926.994
401.395
391.788
339.502
303.793
294.189
293.405
289.932
1033.29
957.935
908.797
704.167
648.665
506.682
560.666
879.526
1041.82
906.26
747.903
593.839
737.321
416.969
293.291
313.389
391.448
360.393
288.462
291.026
302.871
313.868
295.383
312.979
288.764
290.81
288.734
288.156
1136.03
1113.49
1262.99
998.918
548.715
767.213
806.115
851.812
446.917
697.146
375.672
602.145
400.429
297.601
287.926
287.926
287.926
287.926
287.926
287.927
287.926
291.294
288.051
291.564
289.41
287.973
289.286
287.977
288.054
291.498
291.643
289.441
287.975
289.364
287.978
1016.39
466.501
398.072
653.554
610.275
883.195
797.751
289.937
288.554
305.818
288.415
301.982
292.621
288.083
333.409
292.233
306.704
288.278
289.494
288.527
288.057
1034.38
725.088
814.483
382.516
670.161
762.646
1071.36
537.172
308.57
655.146
308.417
300.518
595.258
595.362
461.166
403.5
564.349
322.927
289.429
298.103
293.861
840.179
655.132
1033.01
846.583
315.842
443.46
630.416
918.204
914.538
1104.35
741.726
338.402
510.427
509.82
503.727
309.865
342.863
297.089
311.91
290.158
288.73
804.173
758.698
744.052
351.125
398.157
359.213
387.663
1128.92
871.588
895.077
822.351
847.213
477.456
535.798
313.865
288.789
316.816
293.508
288.893
288.101
288.081
913.188
448.389
860.006
676.633
355.234
328.473
736.625
287.926
297.253
291.605
287.926
287.926
287.937
287.93
477.81
843.206
834.281
518.234
306.024
304.082
528.491
325.413
290.596
288.435
288.173
302.417
289.315
295.066
291.083
288.011
290.419
287.968
289.166
288.875
287.958
728.989
515.049
866.145
560.386
292.839
310.944
418.351
448.68
765.001
809.781
491.994
295.421
300.094
447.557
579.427
812.078
758.369
372.406
318.674
306.462
414.674
695.668
556.129
781.283
339.686
506.8
385.645
302.732
317.343
293.14
293.615
288.834
288.911
288.104
288.089
769.648
645.644
707.777
335.335
335.207
317.15
364.11
616.795
798.556
468.159
594.344
328.925
425.731
296.533
400.675
335.053
309.013
301.254
294.004
289.749
288.411
994.524
778.034
726.124
675.999
621.498
358.192
397.634
460.588
290.318
420.171
298.169
378.173
294.18
512.97
303.724
292.102
290.751
288.663
288.442
288.055
288.013
287.926
562.489
287.927
287.926
287.926
287.929
287.926
402.283
287.927
287.926
287.927
287.926
287.926
287.926
288.981
287.985
289.661
288.565
287.938
288.301
287.948
319.451
320.161
409.327
294.673
288.118
289.079
289.049
746.892
409.765
296.53
546.784
492.701
368.332
797.124
337.614
292.325
304.603
288.391
289.828
288.515
288.073
1102.16
536.848
804.859
509.932
813.284
466.13
305.069
426.183
316.825
456.788
295.616
344.224
296.769
288.889
724.791
678.069
392.834
378.169
346.56
294.27
291.749
287.926
289.658
287.983
287.926
287.926
287.928
287.926
698.921
315.691
609.474
291.617
391.303
337.606
289.366
287.926
305.046
287.932
287.926
287.926
287.929
287.926
932.439
318.179
600.947
348.692
707.291
381.067
290.829
338.506
289.596
288.239
288.232
289.55
297.194
298.788
325.253
289.34
288.212
297.27
289.175
329.627
296.169
930.302
316.552
349.223
413.092
530.66
627.321
720.739
323.522
290.535
301.631
288.17
289.246
288.409
288.014
606.601
385.136
591.36
306.952
291.01
309.558
290.616
561.081
512.219
461.416
311.583
302.724
294.03
297.754
1043.54
469.124
498.133
691.995
720.342
363.619
298.782
814.505
606.87
549.415
468.311
417.571
302.17
312.036
287.926
288.601
287.926
287.926
287.926
287.926
287.926
306.663
295.575
290.137
290.188
288.583
288.187
288.003
316.118
288.473
288.133
291.519
288.845
305.271
294.003
406.959
288.39
293.88
320.74
291.386
456.326
307.62
343.936
487.617
719.846
527.094
289.318
299.07
345.952
445.175
408.552
617.665
312.716
288.58
291.424
293.134
292.944
289.513
297.556
288.081
288.235
287.975
287.949
889.661
359.849
563.611
329.785
517.303
308.661
289.984
520.251
348.511
314.434
300.215
317.81
289.758
288.654
308.512
291.406
300.585
288.126
288.59
288.322
288.043
498.219
362.739
555.428
302.049
289.056
296.557
289.864
306.883
294.775
290.71
289.572
288.586
288.164
287.983
889.094
389.678
592.378
331.488
487.06
308.819
290.769
289.676
289.219
294.344
288.124
287.936
287.965
287.978
288.284
287.926
287.926
287.926
287.926
287.926
287.926
287.927
287.926
287.926
287.926
287.926
287.926
287.926
288.052
287.93
287.942
288.429
287.93
287.943
288.065
288.438
287.931
288.058
287.942
288.408
287.943
288.068
288.7
288.079
292.531
289.024
287.932
287.963
288.117
288.482
287.934
288.175
287.932
288.113
288.002
287.928
352.621
288.559
291.867
288.151
315.078
289.539
297.723
612.79
291.237
290.233
301.411
377.543
311.826
405.714
471.157
299.482
346.754
288.733
294.701
322.8
527.715
303.247
288.409
296.905
287.96
288.521
288.265
287.945
553.029
288.731
318.478
290.096
370.603
292.572
288.04
356.495
289.736
303.176
288.253
290.277
288.374
287.985
289.722
294.727
289.331
288.135
287.98
287.969
287.936
680.218
308.912
418.535
293.639
329.983
291.785
288.402
288.012
287.926
287.926
287.926
287.926
287.926
287.926
288.035
287.94
288.335
288.232
287.928
287.936
288.004
288.446
288.031
291.038
288.873
287.931
287.959
288.088
297.27
379.052
495.595
305.613
288.054
288.399
293.008
288.188
289.577
296.599
291.403
287.947
288.028
288.545
291.346
287.993
289.849
287.937
288.237
288.102
287.932
288.693
340.005
320.488
297.536
288.28
288.14
303.441
620.115
295.272
337.337
291.769
316.383
289.295
288.109
324.575
288.399
290.991
288.148
289.296
288.035
287.943
289.242
288.672
288.361
288.006
287.973
287.953
287.941
401.934
310.076
363.548
289.82
288.76
288.428
291.115
425.931
297.383
352.562
288.464
292.112
289.494
288.138
297.298
333.62
290.564
292.142
289.044
288.17
287.993
399.582
317.921
305.841
293.415
291.07
288.337
288.629
495.02
293.517
439.699
296.833
288.33
288.155
303.277
288.123
287.929
287.927
287.951
288.034
287.933
287.974
288.966
288.682
292.283
288.071
287.932
287.961
287.952
289.272
291.511
331.803
292.395
287.936
288.05
288.236
308.609
308.197
476.328
299.07
287.968
288.592
288.619
294.193
290.366
288.521
288.115
287.946
287.999
287.98
544.628
298.242
486.207
298.816
288.514
288.259
306.717
468.546
295.487
416.927
292.171
288.257
288.114
295.321
292.578
288.011
288.443
287.952
288.082
287.944
287.929
288.639
288.224
290.029
287.99
287.948
287.935
287.929
289.429
288.147
292.102
288.079
287.929
287.982
287.935
288.576
333.849
315.504
289.764
288.001
287.969
291.157
356.85
288.135
288.137
289.108
289.59
297.503
297.458
288.243
287.957
288.79
288.005
287.927
287.955
287.929
288.137
289.171
297.459
290.497
287.934
287.982
288.262
292.605
298.792
429.22
296.138
287.939
288.136
288.401
294.226
290.974
310.082
288.428
287.944
288.06
287.993
357.314
290.597
329.924
288.942
288.035
287.988
289.715
288.82
288.43
288.081
288.027
287.957
287.944
287.931
314.583
306.857
312.499
288.745
288.986
288.649
287.959
288.501
287.933
287.933
288.142
288.115
287.995
287.928
287.926
287.926
287.926
287.926
287.926
287.926
287.926
287.926
287.926
287.926
287.926
287.926
287.926
287.926
287.952
287.929
288.016
287.952
287.926
287.927
287.933
288.699
288.602
288.002
287.947
287.928
287.95
287.929
288.64
288.016
288.715
287.951
287.928
287.929
287.949
291.191
291.467
322.393
288.942
287.935
288.023
288.028
291.53
287.979
288.834
287.934
288.054
287.96
287.928
291.95
287.98
288.259
287.948
288.062
287.938
287.928
288.155
287.999
288.128
287.934
287.948
287.933
287.928
289.332
295.387
341.731
290.204
287.933
287.984
288.212
290.609
299.826
369.527
290.758
287.937
288.01
288.28
322.546
288.562
292.984
288.033
288.72
288.035
287.941
296.197
288.431
288.374
288.152
288.126
287.938
287.94
294.309
296.547
291.286
288.315
288.085
288.129
287.936
289.53
287.989
291.054
287.969
287.963
289.763
290.668
310.928
287.955
289.057
288.028
292.425
288.146
287.932
287.926
287.926
287.926
287.926
287.926
287.926
287.926
288.673
287.933
288.136
287.928
287.989
287.943
287.926
287.994
287.993
288.31
287.928
287.938
287.928
287.926
288.155
287.927
287.932
287.927
287.934
287.966
287.964
289.031
287.935
287.932
287.975
287.959
288.223
288.12
290.121
287.936
288.651
288.009
287.975
288.353
291.713
288.294
287.988
288.484
287.928
287.944
287.938
287.927
288.174
287.977
289.717
288.172
287.927
287.933
287.957
288.171
288.921
298.659
288.457
287.927
287.977
287.939
289.091
287.972
289.081
287.942
287.953
288.618
289.909
287.977
288.149
287.954
287.927
287.933
287.927
287.926
288.101
288.949
295.879
288.413
287.927
287.937
287.991
294.045
289.87
331.417
289.017
287.932
287.974
288.069
287.932
287.952
288.129
287.927
287.932
287.926
287.926
299.04
288.049
288.534
287.978
288.185
287.942
287.929
294.077
288.125
288.258
288.013
288.072
287.935
287.931
1354.35
747.707
288.976
287.926
1554.17
1283.59
1050.84
1351.35
521.766
1156.19
297.764
1541.06
1535.21
1542.7
1518.33
1510.17
1441.77
1462.94
1267.05
784.347
307.11
915.679
288.589
289.536
287.926
1468.79
1352.25
1357.75
1443.61
1436.25
1382.07
1301.35
599.332
287.96
287.926
289.479
287.926
287.926
287.926
1444.95
1258.78
1422.97
1301.82
1104.39
1070.79
1325.13
1470.65
1328.86
1449.25
1324.21
1165.33
1135.1
1346.69
1133.91
1233.78
1250.86
1054.05
1023.33
1130.46
846.68
1272.96
1191.87
1361.67
1240.35
781.836
977.091
1116.92
1312.03
1269.56
1389.97
1264.98
871.856
1051.78
1150.98
951.175
501.677
535.684
791.85
752.907
521.608
319.254
1116.5
849.641
888.05
464.508
839.881
799.885
1147.61
494.15
366.212
386.357
319.493
311.627
293.456
289.29
1084.15
444.215
786.444
487.471
866.168
522.262
302.42
1148.1
572.218
870.019
576.531
910.053
567.258
318.057
287.926
287.926
287.934
287.926
287.926
287.926
287.926
1030.4
452.004
356.284
491.933
713.048
670.133
845.934
307.87
288.733
295.112
293.374
387.044
288.22
287.97
288.573
463.273
297.403
306.667
287.966
288.51
289.087
325.321
316.032
544.933
315.111
287.994
289.077
289.512
304.375
311.366
550.729
312.421
287.957
288.944
288.652
288.851
291.546
288.054
287.934
288.135
287.98
287.928
287.993
288.194
294.301
287.938
288.194
287.993
287.929
287.948
287.943
287.931
287.928
287.926
287.926
287.926
288.221
287.944
288.665
287.975
287.926
287.946
287.927
294.692
288.011
291.807
288.25
287.939
287.933
288.488
287.927
287.937
287.975
287.945
287.926
287.926
287.93
287.964
290.572
289.473
287.931
288.096
288.027
287.929
288.265
288.196
290.462
287.997
287.927
287.936
287.935
288.371
287.932
288.033
287.927
287.942
287.93
287.926
288.111
287.945
288.032
287.927
287.932
287.93
287.926
287.99
288.679
288.142
287.928
287.952
287.934
287.926
288.608
289.43
299.77
288.192
287.928
287.942
287.961
288.111
287.972
288.134
287.932
287.949
287.932
287.927
291.535
288.118
289.991
287.972
287.934
287.93
288.006
288.723
289.433
288.322
287.998
287.946
287.961
287.928
288.072
287.932
288.031
289.981
288.008
287.93
287.926
288.478
287.934
288.262
288.058
287.931
287.929
288.144
287.926
287.926
287.926
287.926
287.926
287.926
287.926
287.928
287.942
287.991
287.947
287.926
287.926
287.931
287.927
287.934
287.972
287.943
287.926
287.926
287.929
287.954
287.927
287.926
287.927
287.957
287.931
287.926
287.927
287.955
287.958
287.932
287.926
287.931
287.926
287.95
287.926
287.943
287.926
287.93
287.929
287.926
287.935
287.947
288.129
287.932
287.926
287.929
287.926
288.369
287.938
287.927
287.996
287.936
288.431
287.988
288.019
287.927
287.949
287.926
287.934
287.928
287.926
288.001
287.927
287.949
287.926
287.935
287.928
287.926
288.144
287.932
287.963
287.927
287.933
287.927
287.926
288.597
288.022
287.964
287.968
287.942
287.928
287.927
288.495
287.928
287.941
287.928
287.939
288.003
288.039
288.249
287.93
287.927
287.952
287.934
288.118
287.971
287.942
288.013
288.595
287.961
287.926
287.927
287.931
287.948
288.05
288.888
288.01
287.926
287.928
287.937
287.976
287.979
287.95
287.93
287.928
287.928
287.926
287.935
287.933
287.929
287.927
287.926
287.926
287.926
287.926
287.927
287.933
287.957
288.129
287.938
287.928
287.926
287.928
287.94
287.975
288.258
287.941
287.928
287.926
287.931
287.936
287.927
287.926
287.926
287.926
288.253
287.926
287.926
287.927
287.935
287.946
287.949
287.928
287.937
287.993
287.939
287.926
287.926
287.928
287.927
287.934
287.974
287.93
287.926
287.926
287.926
287.938
287.957
288.126
287.933
287.926
287.926
287.927
287.944
287.935
287.974
287.927
287.926
287.926
287.926
288.236
287.941
287.944
287.926
287.935
287.936
288.475
288.026
287.93
287.934
287.926
287.931
287.928
288.101
287.999
287.928
287.948
287.926
287.928
287.927
287.926
287.999
287.977
288.466
287.938
287.926
287.927
287.928
287.987
287.968
288.945
287.928
287.959
287.927
287.926
288.144
287.929
287.939
287.927
287.931
287.926
287.926
287.947
287.976
287.934
287.929
287.926
287.927
287.926
287.929
287.928
287.927
287.967
287.956
288.88
287.985
288.424
287.926
287.949
287.926
287.946
287.927
287.926
287.932
287.926
287.926
287.926
287.926
287.927
287.927
287.927
287.927
287.948
287.939
287.926
287.926
287.926
287.926
287.933
287.947
287.938
287.926
287.926
287.93
287.932
287.926
287.927
287.926
287.927
287.926
287.926
287.968
287.927
287.945
287.926
287.927
287.937
287.996
287.928
287.939
288.017
287.961
287.926
287.927
287.931
287.927
287.96
287.929
287.926
287.927
287.926
287.926
288.024
287.926
287.953
287.926
287.932
287.928
287.926
287.927
288.046
287.995
287.935
287.926
287.926
287.942
287.97
287.936
287.965
287.927
287.926
287.927
287.926
287.963
288.722
287.95
287.927
287.951
287.927
287.926
287.943
288.196
287.947
287.926
287.933
287.926
287.926
287.946
287.944
288.345
287.926
287.936
287.926
287.926
288.003
287.926
287.93
287.926
287.931
287.926
287.926
287.931
287.926
287.926
287.926
287.926
287.927
287.927
287.954
287.926
287.926
287.926
287.928
287.927
287.929
288.005
287.926
287.926
287.926
287.928
287.928
287.936
287.93
287.934
287.975
287.927
287.926
287.926
287.926
287.935
287.936
287.973
287.927
287.926
287.926
287.926
287.943
287.933
287.954
287.927
287.926
287.926
287.926
288.033
287.926
287.931
287.926
287.928
287.926
287.926
288.01
507.414
287.926
287.949
288.015
287.926
662.296
291.456
288.802
287.926
290.049
287.931
287.926
287.926
287.928
287.933
287.926
626.774
403.936
452.248
416.025
373.85
299.646
295.185
574.938
325.848
369.797
310.226
338.352
291.529
289.335
295.776
345.186
426.252
300.736
291.296
288.379
288.043
287.928
287.926
287.926
287.926
287.926
287.926
287.926
305.807
288.437
298.759
287.961
288.605
288.33
287.946
288.036
293.562
288.103
287.939
288.322
288.167
287.934
290.377
288.394
301.667
288.044
288.628
287.951
287.93
288.66
289.703
287.982
288.044
287.927
287.973
287.93
289.924
288.164
293.214
288.119
287.929
288
287.936
484.091
750.88
979.703
289.971
674.296
977.225
870.313
819.928
307.529
663.042
769.738
287.931
566.754
578.115
925.356
288.536
589.694
982.662
985.027
986.116
987.892
987.13
967.86
958.506
988.714
987.37
987.287
968.667
982.545
938.336
903.942
973.232
960.962
984.617
942.202
897.4
851.791
776.191
971.555
846.464
963.793
697.511
879.895
855.883
661.555
950.818
788.896
937.185
666.215
863.757
837.273
626.381
915.152
807.306
946.276
816.171
537.545
758.477
608.091
869.14
740.541
910.897
794.028
495.481
732.479
569.2
309.628
350.711
287.928
287.926
290.422
287.93
287.926
894.957
864.504
947.067
723.166
827.098
673.449
542.031
675.455
794.961
866.286
451.772
680.909
581.064
360.644
808.37
487.306
724.367
409.27
651.061
549.063
331.049
472.594
462.232
698.295
660.676
299.571
422.643
433.832
467.598
635.546
803.546
583.772
418.958
394.864
303.806
346.589
696.158
461.706
462.588
290.942
305.489
345.75
616.014
306.208
376.614
431.108
289.45
297.292
327.573
605.07
332.687
325.272
293.48
532.24
372.205
382.961
302.661
299.813
444.601
354.258
288.075
290.887
291.7
288.025
321.228
289.273
480.519
321.868
306.323
289.315
417.08
296.912
288.893
288.322
296.567
288.837
287.969
290.447
288.197
295.702
288.127
293.601
288.522
287.948
303.277
288.022
288.05
287.957
288.517
288.685
290.494
287.934
287.994
288.175
287.926
287.941
287.93
287.926
288.078
287.953
288.539
287.927
287.949
287.932
287.926
287.93
287.932
288.011
288.061
287.932
289.843
288.005
287.964
287.942
288.262
287.938
287.927
287.926
287.926
287.926
287.943
287.926
287.939
288.26
287.962
287.927
287.977
287.926
287.928
287.951
288.607
287.978
287.928
287.927
287.927
287.95
287.94
287.926
287.926
287.926
287.926
287.927
287.958
287.927
287.926
287.926
287.926
287.929
287.926
287.941
287.927
287.926
287.926
287.926
287.926
287.926
287.93
287.926
287.926
287.926
287.926
287.929
287.926
287.927
287.926
287.926
287.926
287.926
287.926
287.928
287.944
287.928
287.926
287.926
287.926
287.932
287.926
287.926
287.926
287.928
287.926
287.926
287.927
287.927
287.935
287.926
287.926
287.926
287.926
287.929
287.948
287.927
287.927
287.926
287.926
287.926
287.938
287.926
287.926
287.926
287.926
287.929
287.927
287.952
287.926
287.926
287.926
287.927
287.926
287.929
287.926
287.927
287.931
287.926
287.926
287.926
287.926
287.928
287.926
287.926
287.926
287.926
287.926
287.926
287.95
287.927
287.928
287.926
287.926
287.927
287.967
287.964
287.926
287.929
287.926
287.927
287.926
287.926
287.935
287.927
287.926
287.926
287.926
287.926
287.926
287.926
287.926
287.926
287.926
287.926
287.933
287.928
287.932
287.926
287.926
287.926
287.928
287.926
287.928
287.926
287.926
287.93
287.927
287.926
287.926
287.926
287.926
287.927
287.931
287.926
287.926
287.926
287.926
287.931
287.926
287.927
287.926
287.926
287.926
287.926
287.934
287.926
287.929
287.926
287.926
287.926
287.926
287.929
287.926
287.937
287.926
287.926
287.926
287.926
287.926
287.926
287.926
287.926
287.926
287.937
287.929
287.926
287.926
287.928
287.926
287.926
287.926
287.926
287.927
287.926
287.932
287.926
287.926
287.926
287.926
287.926
287.926
287.926
287.926
287.926
287.926
287.926
287.926
287.931
287.931
287.926
287.926
287.926
287.926
287.935
287.926
287.926
287.926
287.927
287.926
287.926
287.926
287.927
287.93
287.926
287.926
287.926
287.926
287.926
287.926
287.926
287.926
287.926
287.926
287.926
287.926
287.926
287.926
287.926
287.926
287.926
287.926
287.926
287.926
287.926
287.926
287.926
287.926
287.926
287.928
287.926
287.926
287.926
287.926
287.926
287.926
287.928
287.926
287.927
287.926
287.927
287.926
287.926
287.932
287.926
287.926
287.926
287.926
287.926
287.927
287.929
287.926
287.927
287.926
287.926
287.926
287.926
287.926
287.928
287.929
287.926
287.926
287.926
287.926
287.926
287.929
287.926
287.926
287.926
287.926
287.926
287.929
287.926
287.926
287.926
287.926
287.926
287.926
287.931
287.926
287.926
287.926
287.926
287.926
287.926
287.926
287.926
287.934
287.926
287.926
287.926
287.926
287.926
287.926
287.926
287.926
287.931
287.926
287.926
287.926
287.929
287.926
287.926
287.926
287.926
287.926
287.926
287.926
287.926
287.926
287.929
287.926
287.926
287.926
287.926
287.926
287.926
287.926
287.926
287.929
287.926
287.926
287.926
287.926
287.926
287.926
287.926
287.926
287.926
287.926
287.926
287.926
287.926
287.926
287.926
287.926
287.926
287.926
287.926
287.926
287.926
287.926
287.926
287.926
287.926
287.926
287.926
287.926
287.926
287.926
287.927
287.926
287.926
287.926
287.926
287.927
287.926
287.926
287.926
287.926
287.926
287.927
287.927
287.926
287.926
287.926
287.926
287.926
287.926
287.927
287.926
287.926
287.926
287.926
287.926
287.926
287.926
287.926
287.926
287.926
287.926
287.926
287.926
287.926
287.926
287.926
287.926
287.926
287.926
287.926
287.926
287.926
287.926
287.926
287.926
287.926
287.926
287.926
287.926
287.926
287.926
287.926
287.926
287.926
287.926
287.926
287.926
287.926
287.926
287.926
287.926
287.926
287.926
287.927
287.926
287.926
287.926
287.926
287.926
287.926
287.926
287.926
287.926
287.926
287.926
287.926
287.926
287.926
287.926
287.926
287.926
287.926
287.926
287.926
287.926
287.926
287.926
287.926
287.926
287.926
287.926
287.926
287.926
287.926
287.926
287.926
287.926
287.926
287.926
287.926
287.926
287.926
287.926
287.926
287.926
287.926
287.926
287.926
287.926
287.926
287.926
287.926
287.926
287.926
287.926
287.926
287.926
287.926
287.926
287.926
287.926
287.926
287.926
287.926
287.926
287.926
287.926
287.926
287.926
287.926
287.926
287.926
287.926
287.926
287.926
287.926
287.926
287.926
287.926
287.926
287.926
287.926
287.926
287.926
287.926
287.926
287.926
287.926
287.926
287.926
287.926
287.926
287.926
287.926
287.926
287.926
287.926
287.926
287.926
287.926
287.926
287.926
287.926
287.926
287.926
287.926
287.926
287.926
287.926
287.926
287.926
287.926
287.926
287.926
287.926
287.926
287.926
287.926
287.926
287.926
287.926
287.926
287.926
287.926
287.926
287.926
287.926
287.926
287.926
287.926
287.926
287.926
287.926
287.926
296.064
308.412
288.434
287.926
287.93
287.926
287.926
287.926
301.878
288.38
288.602
290.386
291.746
288.044
288.002
291.936
288.049
288.185
288.512
287.944
289.238
287.967
287.982
287.942
287.928
288.246
287.96
287.936
287.927
287.933
287.928
287.997
288.093
287.943
287.931
287.926
287.948
287.926
287.926
287.941
287.926
287.928
287.926
287.926
287.926
287.93
287.934
287.926
287.927
287.926
975.837
354.758
381.999
862.121
882.717
747.216
290.278
298.11
929.591
978.308
917.556
971.986
966.782
863.233
841.145
971.647
978.14
895.953
954.312
931.387
806.008
755.791
928.387
583.027
823.849
911.45
793.825
714.921
544.396
471.641
378.891
501.561
635.686
754.677
728.673
603.857
839.463
748.268
685.626
667.822
424.942
605.108
490.984
306.567
327.45
430.318
637.126
689.807
557.938
497.9
523.675
347.19
325.371
472.287
288.23
287.946
288.302
288.023
583.03
502.872
565.906
355.014
342.479
319.195
311.514
539.896
431.649
503.499
311.883
326.984
303.543
296.958
366.088
290.106
291.104
447.265
424.324
298.994
296.037
941.488
745.304
791.102
610.988
927.101
963.933
928.793
794.267
870.227
909.979
823.846
832.947
880.252
918.712
948.207
882.384
951.312
965.641
851.996
899.817
933.091
957.57
962.21
917.457
955.293
958.306
960.569
954.35
962.669
979.795
943.652
971.849
944.747
926.311
958.18
963.045
926.232
926.456
806.355
919.733
761.644
744.983
914.689
916.414