/*--------------------------------*- C++ -*----------------------------------*\
  =========                 |
  \\      /  F ield         | OpenFOAM: The Open Source CFD Toolbox
   \\    /   O peration     | Website:  https://openfoam.org
    \\  /    A nd           | Version:  9
     \\/     M anipulation  |
\*---------------------------------------------------------------------------*/
FoamFile
{
    format      ascii;
    class       volScalarField;
    location    "0.00235";
    object      rho.c4;
}
// * * * * * * * * * * * * * * * * * * * * * * * * * * * * * * * * * * * * * //

dimensions      [1 -3 0 0 0 0 0];

internalField   nonuniform List<scalar> 
19181
(
15.6855
2.30116e-10
4.00989e-10
2.22045e-16
2.22045e-16
2.65923e-08
5.95573e-14
2.22045e-16
0.000182025
4.73704
24.7577
88.6538
71.842
1.61199e-05
0.0812436
47.1084
6.71621
0.0041464
1.74724e-05
48.3326
3.45199
3.09496
7.82865
35.5634
9.36837
17.4286
32.1279
11.6
68.6501
5.98533
3.57564
4.54994
10.2568
6.74299
8.9791
7.77422
48.0173
2.08353
2.08458
27.0786
9.80012
57.3846
50.7808
38.7364
52.9009
38.4778
37.5657
48.5484
43.0736
29.3461
10.6211
6.01779
8.30349
13.9445
17.1811
12.2506
19.4727
0.00648462
51.6535
63.9673
15.3988
62.2166
53.8703
52.4691
78.6537
45.1673
68.2876
74.1886
30.5001
87.5
52.6586
46.9321
31.7417
25.6155
37.482
23.3422
41.7881
13.6092
52.7049
16.0575
96.1364
10.7685
28.3059
30.1253
49.2669
80.7119
0.00411073
1.51811e-13
2.05299e-14
0.0288293
0.101844
7.72206e-13
1.40569e-05
9.68352e-12
2.22045e-16
1.75264e-11
2.25743e-14
2.22045e-16
3.29689e-10
2.22045e-16
2.22045e-16
2.22045e-16
2.22045e-16
2.22045e-16
3.71563e-16
2.22045e-16
2.22045e-16
2.22045e-16
2.22045e-16
2.22045e-16
2.22045e-16
2.22045e-16
2.22045e-16
2.22045e-16
2.22045e-16
2.22045e-16
2.22045e-16
2.22045e-16
2.22045e-16
2.22045e-16
2.22045e-16
2.22045e-16
2.22045e-16
2.22045e-16
2.22045e-16
2.22045e-16
2.22045e-16
2.22045e-16
60.1474
1.14849e-08
3.80213e-05
2.22045e-16
2.22045e-16
0.000249467
0.000463548
5.67292e-15
2.46876e-08
3.52478e-15
2.22045e-16
1.02048e-14
2.22045e-16
2.22045e-16
7.09788e-11
2.22045e-16
2.22045e-16
2.22045e-16
2.22045e-16
2.22045e-16
2.22045e-16
2.22045e-16
2.22045e-16
2.22045e-16
2.22045e-16
2.22045e-16
2.22045e-16
2.22045e-16
2.22045e-16
2.22045e-16
2.22045e-16
2.22045e-16
2.22045e-16
2.22045e-16
2.22045e-16
2.22045e-16
2.22045e-16
2.22045e-16
2.22045e-16
2.22045e-16
2.22045e-16
2.22045e-16
2.22045e-16
2.22045e-16
158.37
2.39964e-12
2.22045e-16
2.22045e-16
1.47494e-12
1.09003e-09
2.22045e-16
4.957e-11
2.22045e-16
2.22045e-16
2.22045e-16
2.22045e-16
2.22045e-16
2.22045e-16
2.22045e-16
2.22045e-16
2.22045e-16
2.22045e-16
2.22045e-16
2.22045e-16
2.22045e-16
2.22045e-16
2.22045e-16
2.22045e-16
2.22045e-16
2.22045e-16
2.22045e-16
2.22045e-16
2.22045e-16
2.22045e-16
2.22045e-16
2.22045e-16
2.22045e-16
2.22045e-16
2.22045e-16
2.22045e-16
2.22045e-16
2.22045e-16
2.22045e-16
2.22045e-16
2.22045e-16
2.22045e-16
2.22045e-16
7.12595e-06
2.22045e-16
1.2481e-11
2.22045e-16
2.22045e-16
2.22045e-16
2.22045e-16
9.35605e-10
2.22045e-16
2.22045e-16
2.22045e-16
2.22045e-16
2.22045e-16
2.22045e-16
2.22045e-16
2.22045e-16
2.22045e-16
2.22045e-16
2.22045e-16
2.22045e-16
2.22045e-16
2.22045e-16
2.22045e-16
2.22045e-16
2.22045e-16
2.22045e-16
2.22045e-16
2.22045e-16
2.22045e-16
2.22045e-16
2.22045e-16
2.22045e-16
2.22045e-16
2.22045e-16
2.22045e-16
2.22045e-16
2.22045e-16
2.22045e-16
2.22045e-16
2.22045e-16
2.22045e-16
2.22045e-16
2.22045e-16
84.4128
33.3555
3.88206e-15
2.22045e-16
2.22045e-16
94.5345
0.0233536
1.66757e-15
2.22045e-16
2.22045e-16
2.22045e-16
2.42232e-08
1.38079e-15
2.22045e-16
2.22045e-16
2.22045e-16
2.22045e-16
9.88391e-16
2.22045e-16
2.22045e-16
2.22045e-16
2.22045e-16
2.22045e-16
2.22045e-16
2.22045e-16
2.22045e-16
2.22045e-16
2.22045e-16
2.22045e-16
2.22045e-16
2.22045e-16
2.22045e-16
2.22045e-16
2.22045e-16
2.22045e-16
2.22045e-16
2.22045e-16
2.22045e-16
2.22045e-16
2.22045e-16
2.22045e-16
2.22045e-16
2.22045e-16
2.22045e-16
2.22045e-16
2.22045e-16
2.22045e-16
62.5532
1.22951e-05
2.22045e-16
2.22045e-16
2.22045e-16
2.22045e-16
4.74612e-11
2.39599e-10
2.22045e-16
2.22045e-16
2.22045e-16
2.22045e-16
6.36366e-15
2.22045e-16
2.22045e-16
2.22045e-16
2.22045e-16
2.22045e-16
2.22045e-16
2.22045e-16
2.22045e-16
2.22045e-16
2.22045e-16
2.22045e-16
2.22045e-16
2.22045e-16
2.22045e-16
2.22045e-16
2.22045e-16
2.22045e-16
2.22045e-16
2.22045e-16
2.22045e-16
2.22045e-16
2.22045e-16
2.22045e-16
2.22045e-16
2.22045e-16
2.22045e-16
2.22045e-16
2.22045e-16
2.22045e-16
2.22045e-16
2.22045e-16
2.22045e-16
2.22045e-16
2.22045e-16
2.22045e-16
1.66631e-11
7.23937e-13
2.22045e-16
2.22045e-16
2.22045e-16
2.22045e-16
4.1175e-14
2.22045e-16
2.22045e-16
2.22045e-16
2.22045e-16
2.22045e-16
2.22045e-16
2.22045e-16
2.22045e-16
2.22045e-16
2.22045e-16
2.22045e-16
2.22045e-16
2.22045e-16
2.22045e-16
2.22045e-16
2.22045e-16
2.22045e-16
2.22045e-16
2.22045e-16
2.22045e-16
2.22045e-16
2.22045e-16
2.22045e-16
2.22045e-16
2.22045e-16
2.22045e-16
2.22045e-16
2.22045e-16
2.22045e-16
2.22045e-16
2.22045e-16
2.22045e-16
2.22045e-16
2.22045e-16
2.22045e-16
2.22045e-16
2.22045e-16
2.22045e-16
2.22045e-16
2.22045e-16
2.22045e-16
1.43455e-15
2.22045e-16
2.22045e-16
2.22045e-16
2.22045e-16
2.22045e-16
2.22045e-16
2.22045e-16
2.22045e-16
2.22045e-16
2.22045e-16
2.22045e-16
2.22045e-16
2.22045e-16
2.22045e-16
2.22045e-16
2.22045e-16
2.22045e-16
2.22045e-16
2.22045e-16
2.22045e-16
2.22045e-16
2.22045e-16
2.22045e-16
2.22045e-16
2.22045e-16
2.22045e-16
2.22045e-16
2.22045e-16
2.22045e-16
2.22045e-16
2.22045e-16
2.22045e-16
2.22045e-16
2.22045e-16
2.22045e-16
2.22045e-16
2.22045e-16
2.22045e-16
2.22045e-16
2.22045e-16
2.22045e-16
2.22045e-16
2.22045e-16
2.22045e-16
2.22045e-16
2.22045e-16
2.22045e-16
2.22045e-16
2.22045e-16
2.22045e-16
2.22045e-16
2.22045e-16
2.22045e-16
2.22045e-16
2.22045e-16
2.22045e-16
2.22045e-16
2.22045e-16
2.22045e-16
2.22045e-16
2.22045e-16
2.22045e-16
2.22045e-16
2.22045e-16
2.22045e-16
2.22045e-16
2.22045e-16
2.22045e-16
2.22045e-16
2.22045e-16
2.22045e-16
2.22045e-16
2.22045e-16
2.22045e-16
2.22045e-16
2.22045e-16
2.22045e-16
2.22045e-16
2.22045e-16
2.22045e-16
2.22045e-16
2.22045e-16
2.22045e-16
2.22045e-16
2.22045e-16
2.22045e-16
2.22045e-16
2.22045e-16
2.22045e-16
2.22045e-16
2.22045e-16
2.22045e-16
2.22045e-16
2.22045e-16
2.22045e-16
2.22045e-16
2.22045e-16
2.22045e-16
2.22045e-16
2.22045e-16
2.22045e-16
2.22045e-16
2.22045e-16
2.22045e-16
2.22045e-16
2.22045e-16
2.22045e-16
2.22045e-16
2.22045e-16
2.22045e-16
2.22045e-16
2.22045e-16
2.22045e-16
2.22045e-16
2.22045e-16
2.22045e-16
2.22045e-16
2.22045e-16
2.22045e-16
2.22045e-16
2.22045e-16
2.22045e-16
2.22045e-16
2.22045e-16
2.22045e-16
2.22045e-16
2.22045e-16
2.22045e-16
2.22045e-16
2.22045e-16
2.22045e-16
2.22045e-16
2.22045e-16
2.22045e-16
2.22045e-16
2.22045e-16
2.22045e-16
2.22045e-16
2.22045e-16
2.22045e-16
2.22045e-16
2.22045e-16
2.22045e-16
4.49035e-06
6.99547e-13
3.13824e-07
1.06456e-13
2.22045e-16
2.22045e-16
2.22045e-16
2.22045e-16
2.22045e-16
5.57986e-06
2.22045e-16
2.73936e-07
23.3666
0.0869707
82.0804
24.2479
0.011847
47.6938
104.919
45.1032
0.000129681
50.1727
102.883
15.6413
7.98999e-05
1.61185e-07
0.0037219
4.59685e-08
0.000892373
1.77357e-08
0.000320675
2.93483e-09
2.22045e-16
2.14099e-14
2.22045e-16
8.89327e-15
2.22045e-16
9.15734e-16
2.22045e-16
2.38161e-07
2.22045e-16
4.47868e-14
1.83837e-15
4.06089e-08
2.22045e-16
4.02526e-15
1.91673
2.39016e-07
2.71841e-05
0.0092138
0.281341
4.08092e-08
1.48383e-05
3.16639e-08
8.59768e-16
2.22045e-16
2.22045e-16
2.22045e-16
2.22045e-16
2.22045e-16
2.22045e-16
1.12579e-08
2.22045e-16
7.09505e-16
30.7025
0.00123441
23.6224
48.3098
4.63455e-09
0.0484584
127.608
5.84023
0.00165816
120.307
0.111722
0.000884758
0.000175167
4.74624e-10
5.0994e-06
1.6596e-11
1.38584e-12
1.57419e-07
1.30263e-13
2.22045e-16
2.22045e-16
2.22045e-16
2.22045e-16
2.22045e-16
2.22045e-16
2.22045e-16
2.21316e-10
2.22045e-16
2.22045e-16
2.22045e-16
1.26779e-14
2.22045e-16
2.22045e-16
0.0404381
2.22001e-10
3.72361e-07
1.99398e-07
0.000285357
1.2774e-14
2.27069e-10
2.22045e-16
2.22045e-16
2.22045e-16
2.22045e-16
2.22045e-16
2.22045e-16
2.22045e-16
2.22045e-16
2.22045e-16
2.22045e-16
114.228
6.8192e-12
0.00133297
211.343
2.22045e-16
3.92923e-14
0.0004895
0.000130562
2.02166e-09
0.0842364
1.05592e-06
4.5e-08
8.54186e-14
8.92343e-16
2.90389e-11
2.22045e-16
3.54744e-13
1.87447e-13
2.22045e-16
2.22045e-16
2.22045e-16
2.22045e-16
2.22045e-16
2.22045e-16
2.22045e-16
2.22045e-16
2.22045e-16
2.22045e-16
2.22045e-16
2.22045e-16
2.22045e-16
2.22045e-16
2.22045e-16
2.47481e-08
2.22045e-16
5.71601e-16
2.22045e-16
3.07673e-15
2.22045e-16
2.22045e-16
7.30102e-12
30.8137
2.22045e-16
2.22045e-16
0.742812
1.18271e-11
2.22045e-16
2.22045e-16
2.22045e-16
2.22045e-16
0.300717
2.22045e-16
2.22045e-16
2.22045e-16
2.22045e-16
2.22045e-16
9.18307e-12
5.29636e-12
2.22045e-16
5.84785e-12
2.22045e-16
2.22045e-16
2.22045e-16
5.04408e-07
2.21466e-08
2.44689e-12
5.29529
0.00108604
5.28039e-07
2.22045e-16
2.22045e-16
2.22045e-16
2.91021e-05
1.51048e-11
1.56529e-11
2.22045e-16
2.22045e-16
2.22045e-16
2.22045e-16
2.22045e-16
2.22045e-16
2.22045e-16
2.22045e-16
2.22045e-16
2.22045e-16
2.22045e-16
2.22045e-16
2.22045e-16
2.22045e-16
2.22045e-16
143.463
23.4622
6.60708e-07
130.245
28.8052
0.00215601
0.000174141
0.00015392
2.49709e-11
2.22045e-16
2.49245e-05
5.51787e-09
1.66222e-09
1.01332e-15
2.22045e-16
2.22045e-16
2.22045e-16
1.96233e-15
2.22045e-16
2.22045e-16
2.22045e-16
92.8633
1.15211
2.21229e-05
341.091
2.19409e-15
94.8669
368.275
2.22045e-16
2.22045e-16
19.7037
0.000506948
3.92006e-10
2.22045e-16
2.22045e-16
2.22045e-16
100.584
0.0915694
7.25123e-15
2.22045e-16
2.22045e-16
2.22045e-16
1.14279e-08
2.22045e-16
2.22045e-16
2.22045e-16
2.22045e-16
2.22045e-16
2.22045e-16
2.22045e-16
2.22045e-16
2.22045e-16
2.22045e-16
2.22045e-16
2.22045e-16
2.22045e-16
2.22045e-16
2.22045e-16
2.22045e-16
2.22045e-16
12.2921
13.0503
36.1239
17.5894
54.7401
38.5022
31.4253
58.2078
17.365
28.9943
77.0056
30.6432
77.3933
153.583
60.799
145.752
81.4843
163.365
181.973
190.69
142.313
220.397
154.089
4.1131
205.045
64.048
288.892
155.008
31.508
1.18429e-10
0.00202824
0.000155206
2.96937e-05
0.0142785
1.7572e-08
1.6008e-06
5.29077e-12
18.647
19.3695
51.0751
126.057
34.2861
159.258
50.4609
157.677
332.107
201.805
2.72104
209.2
293.665
0.151486
0.000290384
0.00709359
4.72069e-08
2.22045e-16
0.511313
5.13419e-10
2.60084e-08
1.02212e-15
85.3252
34.8097
93.4751
109.611
114.803
68.6055
99.564
128.687
96.0347
121.564
106.634
0.222509
146.561
10.8196
6.58948e-06
0.694759
0.00197075
0.0242864
2.22045e-16
4.68037e-10
2.22045e-16
2.22045e-16
2.22045e-16
2.22045e-16
2.22045e-16
2.28435e-12
7.06691e-10
6.83002e-07
3.37785e-06
4.68974e-10
4.35834e-07
4.06747e-12
2.22045e-16
2.22045e-16
5.97567e-12
4.36379e-13
2.22045e-16
4.16582e-12
2.22045e-16
6.1217e-13
1.91598e-06
1.57695e-11
2.56294e-08
1.77761e-10
1.61633e-07
5.37638e-14
2.22045e-16
1.06456e-13
2.22045e-16
1.62721e-13
2.22045e-16
7.22151e-13
2.22045e-16
2.22045e-16
2.22045e-16
2.22045e-16
2.22045e-16
2.22045e-16
2.22045e-16
2.22045e-16
2.22045e-16
2.22045e-16
2.22045e-16
2.22045e-16
2.22045e-16
2.22045e-16
2.22045e-16
2.22045e-16
2.22045e-16
2.22045e-16
2.22045e-16
2.22045e-16
2.22045e-16
2.22045e-16
2.22045e-16
2.22045e-16
2.22045e-16
2.22045e-16
2.22045e-16
2.22045e-16
2.22045e-16
9.13706e-15
2.22045e-16
2.22045e-16
2.22045e-16
2.22045e-16
2.22045e-16
1.34245e-14
4.67709e-08
0.00543778
9.12631e-12
4.21112e-06
0.0045056
6.31546e-12
6.21266e-08
2.68623e-15
2.22045e-16
2.22045e-16
2.22045e-16
2.22045e-16
2.22045e-16
2.22045e-16
1.91346e-08
1.679e-06
0.000727097
1.74629e-13
0.00251421
1.76703e-12
2.87055e-09
23.4507
32.3502
32.3848
39.4772
49.4995
49.2646
39.5442
67.2855
8.28284
26.4986
0.0719541
7.52351
24.099
67.7416
33.2615
26.4712
35.777
40.1764
52.302
49.7621
42.8635
67.2635
0.0393809
3.09492
9.75117
5.64519
17.8832
69.9075
4.91431e-16
7.30738e-13
3.06577e-09
4.03231e-15
9.58775e-10
2.22045e-16
2.22045e-16
4.92451e-15
2.22045e-16
2.22045e-16
2.22045e-16
1.38206e-15
2.22045e-16
2.22045e-16
2.22045e-16
2.22045e-16
2.22045e-16
2.22045e-16
2.22045e-16
2.22045e-16
2.22045e-16
2.22045e-16
2.22045e-16
2.22045e-16
2.22045e-16
2.22045e-16
2.22045e-16
2.22045e-16
2.22045e-16
2.22045e-16
2.22045e-16
2.22045e-16
2.22045e-16
2.22045e-16
2.22045e-16
2.22045e-16
2.22045e-16
2.22045e-16
2.22045e-16
2.22045e-16
2.22045e-16
2.22045e-16
2.22045e-16
2.22045e-16
2.22045e-16
2.22045e-16
2.22045e-16
2.22045e-16
2.22045e-16
2.22045e-16
2.22045e-16
2.22045e-16
2.22045e-16
2.22045e-16
1.16114e-12
6.64838e-05
2.54925e-15
1.60796e-10
9.67323e-11
2.15426e-06
2.22045e-16
2.22045e-16
2.22045e-16
2.22045e-16
2.22045e-16
2.22045e-16
2.22045e-16
2.22045e-16
4.80033e-15
6.48362e-13
1.83688e-10
2.22045e-16
3.82731e-08
2.22045e-16
2.22045e-16
40.5952
37.5452
48.5346
57.6944
58.0441
48.4362
68.0838
31.8721
0.843394
2.88847
5.38056e-05
71.4853
0.0675404
0.432516
61.3748
82.0591
65.2673
72.1887
108.264
84.216
94.1734
9.73779
9.25686e-07
0.000112867
0.000696414
0.00495328
0.0308429
1.09756
2.22045e-16
2.22045e-16
2.22045e-16
2.22045e-16
2.22045e-16
2.22045e-16
2.22045e-16
2.22045e-16
2.22045e-16
8.61551e-16
3.224e-15
2.22045e-16
2.22045e-16
5.64041e-12
2.22045e-16
2.22045e-16
2.22045e-16
2.22045e-16
2.22045e-16
2.22045e-16
2.22045e-16
2.22045e-16
2.22045e-16
2.22045e-16
2.22045e-16
2.22045e-16
2.22045e-16
2.22045e-16
2.22045e-16
2.22045e-16
2.22045e-16
2.22045e-16
2.22045e-16
2.22045e-16
2.22045e-16
2.22045e-16
2.22045e-16
2.22045e-16
2.22045e-16
2.22045e-16
2.22045e-16
2.22045e-16
2.22045e-16
2.22045e-16
2.22045e-16
2.22045e-16
2.22045e-16
2.22045e-16
2.22045e-16
2.22045e-16
2.85405e-13
2.22045e-16
2.22045e-16
2.22045e-16
2.22045e-16
2.22045e-16
2.22045e-16
2.22045e-16
2.22045e-16
2.22045e-16
2.22045e-16
2.22045e-16
2.22045e-16
2.22045e-16
2.22045e-16
2.22045e-16
2.22045e-16
2.22045e-16
2.22045e-16
2.22045e-16
158.396
92.158
134.129
158.039
139.377
124.697
70.0343
0.000493124
1.01862e-06
6.25571e-06
6.58661e-16
0.0543854
9.19913e-10
5.67886e-09
44.126
192.348
170.305
27.3638
0.0269588
6.58346
0.653733
5.82865e-07
2.22045e-16
2.22045e-16
2.22045e-16
1.2591e-13
7.75768e-13
4.19316e-11
0.163944
9.73403e-09
1.5289e-08
2.14343e-06
6.80995e-06
0.001975
0.00186608
48.5382
0.057978
98.1423
88.0667
6.40905
5.08805
80.0599
4.34222e-10
9.06209e-13
2.22045e-16
2.74676e-10
2.22045e-16
2.0631e-06
4.80777e-15
9.20867e-15
2.22045e-16
2.22045e-16
2.22045e-16
2.22045e-16
2.22045e-16
2.22045e-16
0.000226827
9.18033e-05
45.984
0.00196149
0.0806268
1.8469e-08
1.95328
7.62886e-08
2.22045e-16
3.14336e-06
6.01132e-07
1.50314e-12
7.28779e-13
0.0101363
2.22045e-16
2.22045e-16
2.22045e-16
2.22045e-16
2.22045e-16
2.22045e-16
2.22045e-16
2.22045e-16
2.22045e-16
2.22045e-16
2.22045e-16
2.22045e-16
2.22045e-16
2.22045e-16
2.22045e-16
2.22045e-16
1.21182e-10
2.22045e-16
2.22045e-16
2.22045e-16
1.05404e-15
2.22045e-16
2.22045e-16
2.22045e-16
2.22045e-16
2.22045e-16
2.22045e-16
2.22045e-16
5.03246e-05
0.0143482
10.8065
5.69868e-08
6.28411e-06
0.00135668
4.78905e-11
2.22045e-16
2.22045e-16
2.22045e-16
2.22045e-16
2.22045e-16
2.22045e-16
2.22045e-16
1.02129e-10
1.05488e-13
3.61829e-07
3.37049e-14
2.22045e-16
2.22045e-16
2.22045e-16
2.22045e-16
2.22045e-16
2.22045e-16
2.22045e-16
2.22045e-16
2.22045e-16
2.22045e-16
172.783
133.55
166.969
145.756
37.7739
146.892
8.80929
4.51415e-09
0.045007
1.72341e-05
1.62245e-10
5.90653e-12
4.07531e-07
2.9094e-15
34.9147
14.7778
23.2908
33.3512
21.6518
234.724
156.811
118.583
161.625
193.433
237.774
171.784
0.0254474
393.501
370.814
243.532
23.4552
5.38407
25.5016
12.4303
18.4285
18.6089
7.55583
11.1261
11.2536
7.45588
19.4587
14.5545
21.4944
7.93174
12.9604
11.7585
8.80101
25.1968
21.8916
31.1681
12.9193
15.1738
10.3699
18.8039
40.4803
55.7019
40.191
16.88
34.5059
24.6629
23.3009
123.153
58.7762
90.8664
55.1613
52.2061
34.4673
84.9618
62.8353
88.2529
99.3387
180.842
59.9017
100.702
116.734
249.905
145.634
225.634
95.3471
217.435
140.361
168.044
1.54102
39.9673
308.437
353.183
297.472
273.091
292.609
0.000106921
7.41381e-07
0.0487485
72.8601
7.73336e-05
2.02794
0.067427
29.9629
13.6297
21.8809
12.0209
12.2403
8.27241
17.8444
60.2835
67.9797
96.0018
38.8432
55.7504
106.921
85.5669
37.2461
64.7508
50.5006
19.5726
34.0383
28.8998
164.337
103.783
148.681
90.2674
108.385
62.7147
142.419
292.069
250.906
336.671
336.119
279.209
293.596
336.034
110.726
196.151
248.592
242.417
166.608
234.495
192.467
0.00189299
61.8757
0.771642
296.949
240.017
294.539
12.5559
4.02613e-14
0.000573217
8.50408e-09
2.12018e-07
7.92858
0.0043476
0.00993853
337.836
184.178
282.169
363.848
218.923
322.532
352.714
381.689
386.643
394.888
0.89952
382.658
274.259
74.6283
55.8834
27.9002
44.1208
71.9225
51.7698
83.5162
61.2353
3.02526e-09
0.00364061
20.9568
2.30423e-11
1.31443e-06
1.07536e-13
2.90494e-08
1.54726e-08
0.00260331
58.8563
69.4764
8.90812
12.9451
15.0318
65.1165
88.9624
4.2791e-09
1.81641e-14
2.22045e-16
1.75279e-10
2.22045e-16
1.7136e-12
2.42864e-16
1.67317e-11
2.22045e-16
2.22045e-16
2.22045e-16
1.0641e-14
1.55357e-14
2.22045e-16
2.22045e-16
1.11137e-15
1.84684e-15
3.28737e-14
2.9691e-06
2.35647e-11
2.58157e-12
3.67456e-15
1.43304e-08
5.45856
0.0695679
1.2356e-05
5.12482
0.00210517
27.7856
0.190592
73.7773
64.8129
49.8909
72.2805
60.3384
45.6316
63.8647
12.4947
9.00619
6.34358
8.72893
4.51556
5.96516
6.64611
28.2076
24.7413
11.9989
22.2186
18.0015
36.0063
41.9155
2.22045e-16
2.22045e-16
2.22045e-16
2.22045e-16
2.22045e-16
2.22045e-16
2.22045e-16
35.2031
0.0011526
0.0967153
29.5627
2.15759e-06
0.0933959
4.28264e-08
1.87516e-08
1.39782e-08
5.11874e-15
1.33082e-05
1.52124e-09
3.95571e-12
2.22045e-16
2.22045e-16
2.22045e-16
2.22045e-16
2.22045e-16
2.22045e-16
2.22045e-16
2.22045e-16
2.22045e-16
2.22045e-16
2.22045e-16
2.22045e-16
2.22045e-16
2.22045e-16
2.22045e-16
102.805
0.0316331
108.113
0.000462797
113.73
100.429
6.41765e-06
137.843
4.80115e-10
0.0421773
2.36714e-05
1.78869e-09
3.09755e-10
2.22045e-16
7.45041e-10
2.22045e-16
1.30336e-15
3.56614e-16
2.22045e-16
2.22045e-16
2.22045e-16
2.22045e-16
2.22045e-16
2.22045e-16
2.22045e-16
2.22045e-16
2.22045e-16
2.22045e-16
57.9519
68.0173
74.0462
81.0714
67.4775
73.3283
58.2733
58.1672
75.1234
69.7392
57.7054
67.3846
72.384
60.7328
77.5633
75.9975
32.1559
8.42618
67.0446
86.0752
13.4542
92.5324
1.56551
35.1234
0.228785
101.504
3.78634
61.7126
1.56438
6.55817
0.0089811
2.65505e-06
16.2416
0.119818
8.18022e-05
0.0146444
1.43996e-09
2.15411e-07
6.95772e-12
0.00085239
9.58892e-08
1.76009e-05
2.85342e-15
2.02693e-12
2.22045e-16
2.22045e-16
1.99402e-09
2.22045e-16
2.22045e-16
2.22045e-16
2.22045e-16
2.22045e-16
2.22045e-16
2.22045e-16
2.22045e-16
2.22045e-16
49.0822
111.863
0.607852
12.6994
95.9086
118.148
0.0941312
1.41492
0.0390049
0.00208916
1.46181e-08
7.76993
0.00222618
0.000106193
3.99261e-12
3.01604e-05
2.22045e-16
8.12927e-14
5.22273e-09
3.03907e-07
8.26373e-16
2.22045e-16
2.22045e-16
2.22045e-16
2.22045e-16
5.36773e-14
2.22045e-16
2.22045e-16
2.22045e-16
2.22045e-16
2.22045e-16
2.22045e-16
2.22045e-16
2.22045e-16
2.22045e-16
2.22045e-16
2.22045e-16
2.22045e-16
2.22045e-16
2.22045e-16
2.22045e-16
2.22045e-16
2.22045e-16
2.22045e-16
2.22045e-16
2.22045e-16
2.22045e-16
2.22045e-16
2.22045e-16
2.22045e-16
2.22045e-16
1.54644e-12
1.38929e-08
2.22045e-16
2.22045e-16
2.22045e-16
38.8435
106.107
0.612584
66.0141
44.7146
95.4355
117.257
132.296
2.99596e-05
24.4703
112.974
162.092
57.7611
0.0010784
4.14954e-05
4.68412e-16
4.33813e-09
0.0766568
2.23058e-08
3.29866e-07
7.56461e-14
1.3864e-15
2.22045e-16
2.22045e-16
4.72069e-13
2.22045e-16
2.22045e-16
2.22045e-16
3.9085e-07
17.6692
1.57504e-05
1.41041e-08
0.0458127
0.00185885
3.49559e-12
2.22045e-16
2.22045e-16
1.56263e-13
1.46915e-13
4.29566e-11
7.09773e-07
2.22045e-16
81.7214
87.323
72.9051
104.062
91.9118
109.506
99.9455
78.926
64.4119
72.2207
56.3652
58.5518
48.7992
42.6987
9.20615e-07
5.49179e-07
4.6488e-13
0.0147207
1.93584e-07
1.4243e-07
4.49481e-14
4.48889e-08
2.84521e-10
6.14808e-15
1.33075e-07
5.16886e-11
8.11043e-15
2.22045e-16
2.69171e-16
2.22045e-16
2.22045e-16
1.46671e-15
2.22045e-16
2.22045e-16
2.22045e-16
2.22045e-16
2.22045e-16
2.22045e-16
2.22045e-16
2.22045e-16
2.22045e-16
2.22045e-16
2.22045e-16
2.22045e-16
2.22045e-16
2.22045e-16
2.22045e-16
2.22045e-16
2.22045e-16
9.90034e-10
4.52029e-16
7.99692e-11
2.22045e-16
2.22045e-16
2.22045e-16
2.22045e-16
2.22045e-16
2.22045e-16
2.22045e-16
1.9127e-05
1.24008e-05
2.43329e-10
5.24619e-12
2.83058e-13
5.12313e-07
1.23093e-15
2.22045e-16
2.22045e-16
1.22613e-15
2.22045e-16
2.22045e-16
2.22045e-16
2.48003e-16
2.22045e-16
2.22045e-16
2.22045e-16
2.22045e-16
2.22045e-16
2.22045e-16
2.22045e-16
2.22045e-16
2.22045e-16
2.22045e-16
2.22045e-16
2.22045e-16
2.22045e-16
2.22045e-16
2.83763
3.6454
5.60492
20.4883
5.48981
9.80957
90.0035
7.72496
13.678
12.0473
5.08527
68.1676
67.7841
6.91733
15.7123
3.84579
9.83915
22.0934
5.91303
15.4888
8.03674
80.8927
0.000643804
20.1488
109.868
6.30296e-06
21.5454
86.4394
29.112
36.1513
5.17828
18.954
0.247501
4.37558e-09
19.1181
108.961
247.155
5.18567e-16
24.1987
79.9026
64.396
2.21744
0.000171455
1.36803e-14
14.3513
37.4411
80.5201
9.54694e-10
2.22045e-16
16.0646
46.8279
1.39132e-07
9.62495e-14
2.22045e-16
36.9441
92.6256
2.97696e-11
2.22045e-16
2.22045e-16
8.13955e-07
4.59221e-13
2.22045e-16
2.22045e-16
1.27128
1.77831e-08
2.22045e-16
2.22045e-16
2.22045e-16
2.71356e-10
2.22045e-16
2.22045e-16
2.22045e-16
2.22045e-16
6.24402
7.21276
7.64816
7.33367
10.2109
5.70958
9.08918
8.3467
11.7001
6.47595
7.49074
10.0546
8.77618
11.4501
22.1664
8.17044
14.7156
8.5215
15.3632
13.0592
17.1118
25.8632
41.0553
16.0212
18.6441
17.6799
23.339
20.3028
41.6905
65.7844
21.2834
43.6245
75.6983
267.104
55.9456
111.228
19.3002
21.0273
40.4691
35.652
52.8463
14.2342
18.2574
10.3877
15.8206
13.6889
40.3295
62.3236
23.8088
60.5989
29.3179
88.1351
62.5451
258.671
254.042
85.7911
338.436
94.4089
0.00331659
351.274
388.652
18.6179
14.4061
41.521
57.6225
62.1011
248.185
352.049
11.6016
24.7069
58.4219
9.00892
7.86632
9.16555
10.9752
9.37157
13.4316
13.9005
36.5469
16.6679
28.1823
11.2299
11.4587
12.9615
25.0276
27.5987
33.3504
31.5035
29.6428
41.5697
116.919
130.687
211.327
22.9135
16.4076
60.9262
22.0738
33.6144
30.9748
154.071
82.4202
99.0642
250.186
93.8684
1.36402
187.676
263.706
3.53551e-05
356.877
8.26353
0.000415639
1.00146e-08
0.151908
7.98141e-11
23.4571
21.3704
5.76627
6.37129
5.88126
6.64301
6.67589
6.13934
7.79785
6.67539
8.44219
7.46985
6.79833
8.59827
7.66565
8.07347
7.75063
7.60914
9.54799
7.05937
8.89936
8.66556
6.60427
6.88639
8.15248
10.1142
9.46597
6.7757
10.581
9.95928
10.3644
9.25185
9.53011
7.38458
7.57676
9.64789
8.95743
11.776
13.829
10.9774
10.0937
12.3391
10.2901
11.2399
11.8974
15.7091
8.48854
13.3372
14.3848
13.8163
19.426
15.5761
19.4173
17.7714
16.4141
23.7751
15.481
23.1799
20.5285
19.5225
17.6119
18.1297
25.5262
15.8416
21.2868
23.3828
24.2891
30.7972
43.0261
32.2092
30.8062
25.533
30.9913
36.8715
20.7834
24.7716
27.8593
25.3192
28.3665
34.0276
57.559
38.1513
62.7431
76.5622
40.8018
49.6173
93.8004
16.9791
24.3465
21.2662
18.3842
26.2132
22.222
30.7434
32.2559
26.2408
36.8578
28.5314
35.9739
53.108
23.736
39.7381
57.4097
36.8353
71.1498
47.0504
14.8876
16.3411
14.1892
21.6509
12.8748
19.6086
16.3714
13.8285
12.8581
18.4896
15.0237
17.058
18.2308
28.0563
36.4729
26.5435
25.6644
20.0338
23.9802
40.9967
21.4353
31.5265
29.701
29.3777
27.4624
42.4023
64.0423
64.8591
43.1263
92.3041
42.5913
102.442
62.2391
61.9092
41.3117
59.1748
97.9922
38.9434
62.1221
98.7551
101.529
151.589
267.813
157.929
170.416
95.2411
167.038
278.168
100.313
127.386
141.747
159.863
168.255
230.178
369.114
249.588
336.212
378.517
283.469
356.562
366.312
14.3619
21.9666
16.6498
19.657
15.3957
28.5148
28.1179
20.586
42.0583
86.3869
59.6506
41.0529
94.4651
60.3277
141.093
150.034
90.0286
232.251
384.568
347.113
10.2953
8.70181
10.1028
14.6651
7.2825
10.6804
14.3909
36.4016
6.51954
8.78578
9.09556
10.2071
8.94015
9.18648
6.43845
13.0127
19.7481
21.4247
24.778
16.5742
18.311
17.0056
5.32306
4.43376
6.94831
4.35669
5.56976
4.65606
8.27207
37.3693
18.0686
28.8286
12.3515
48.3295
19.1333
30.4579
60.608
25.3787
76.0465
60.8028
127.039
43.8522
169.501
7.17281
10.9313
5.84161
6.06894
11.135
13.2041
36.8223
15.7891
52.648
14.3542
69.0208
48.9495
143.575
158.489
97.4202
207.83
257.216
0.000205207
174.394
4.77454
11.1384
13.6885
35.0258
12.4696
35.4099
17.5861
66.9588
54.3619
59.37
120.854
50.0939
37.9669
68.2732
0.0566117
1.71812e-05
347.892
0.00167201
3.27756e-05
3.15641e-10
0.00708076
6.6062e-09
8.55643
10.6945
10.9798
9.7223
10.0579
12.5027
11.4604
13.3472
15.7507
19.02
12.3482
15.1708
18.5103
14.2194
6.41135
6.9858
9.90958
7.79961
13.5329
9.15822
29.7875
2.09426e-14
3.30816e-09
2.22045e-16
2.65102e-14
3.03282e-14
2.22045e-16
2.22045e-16
44.1835
55.5344
0.0148891
1.14985e-10
2.22045e-16
1.90829
1.35724
2.12404
3.04074
3.67791
2.2563
3.66024
2.15005
3.26936
2.52058
4.54865
5.3099
2.5077
3.40705
5.71404
5.23268
12.3316
12.9727
5.13126
4.74971
8.47899
31.0626
27.0627
17.772
16.7469
91.9329
2.8715e-08
6.38261e-14
2.22045e-16
2.22045e-16
2.22045e-16
1.66022e-05
2.69578e-14
2.22045e-16
2.22045e-16
2.22045e-16
2.22045e-16
2.97186e-14
2.22045e-16
2.22045e-16
2.22045e-16
2.22045e-16
2.22045e-16
2.22045e-16
2.22045e-16
2.22045e-16
2.22045e-16
2.22045e-16
2.22045e-16
2.22045e-16
2.22045e-16
2.22045e-16
2.22045e-16
2.22045e-16
2.34683
3.02158
2.12903
2.48944
3.75617
4.86512
3.62088
3.84269
5.09339
4.43268
3.05772
3.80494
4.49913
3.98939
4.47326
3.92049
7.02856
8.84793
6.30361
5.23092
10.0571
11.8643
10.1338
4.53214
9.04262
10.3998
10.254
10.8186
6.31372
11.3042
16.1154
12.5582
11.1294
16.5552
4.44039
3.78656
4.54905
3.26738
4.12562
6.20928
6.52109
7.53981
7.86866
8.79043
14.9155
15.6956
18.4295
11.2243
12.8701
20.6603
2.55592
2.91779
2.53093
3.12731
3.0204
2.63466
2.45712
2.30809
2.68546
2.37035
2.61626
2.72566
3.33227
3.63856
3.17763
3.22031
2.80733
3.08883
4.23722
3.47228
4.34979
3.72806
3.57635
4.45989
4.13178
5.00625
5.22283
5.33897
4.89852
4.48028
3.9596
4.26797
5.22275
3.80229
4.70998
4.98189
5.25952
6.14613
5.60106
5.78536
2.55522
3.16814
2.66404
2.717
2.39591
3.37763
3.21628
2.84138
5.3685
5.48334
4.02227
5.32527
4.80498
6.31156
5.7527
3.9544
3.22655
3.14184
4.07023
4.63592
4.33664
3.80762
5.55296
3.70249
5.3774
4.77511
5.04201
6.53022
5.22272
6.24357
5.87305
7.02732
8.40268
7.64427
6.76078
6.09173
7.28289
7.05456
5.04331
6.08858
6.4212
5.81769
6.18656
7.38917
7.97147
7.06517
6.66169
8.46101
8.73914
8.05432
9.61029
11.5178
7.72032
9.18648
10.9074
9.81399
13.0326
10.4182
12.2979
3.85596
5.62862
4.83694
6.64655
5.30342
7.14584
7.79452
6.18681
7.2603
8.71444
8.20227
11.8758
9.40213
13.4977
10.7697
8.15045
7.74412
7.32469
8.70732
9.74851
10.0843
9.20612
12.7159
8.63177
11.6076
10.5696
8.78312
10.1847
9.45886
9.42441
10.6691
14.4195
14.3862
12.7914
12.9623
11.6999
11.603
16.3824
11.7159
14.4149
15.1066
13.5118
13.8105
17.7055
9.40523
13.1134
10.7784
10.2136
9.49905
14.8785
12.9636
11.8986
11.7327
11.1688
10.331
12.7128
1.89443
1.78862
2.08305
1.56191
2.52731
2.02605
2.35437
3.14644
2.804
3.91908
2.79253
3.84484
3.5935
4.14666
2.96897
2.45412
3.7732
2.89994
4.48208
3.46786
6.27493
4.48716
4.24661
6.22513
5.25584
7.35545
7.50479
7.92778
4.92053
4.21998
7.68703
3.90175
5.83269
4.76059
8.38437
8.95729
5.39439
6.86539
10.8671
4.83721
5.72745
9.43836
12.8912
2.93878
26.6234
50.6561
0.0555619
0.00907596
1.64532e-06
2.12194e-08
5.07217e-12
8.74857e-16
7.0268
3.49407
5.27776
5.57811
8.71315
4.25813
2.41034
2.93724
3.44917
1.92781
2.33637
2.85085
6.70964
3.66841
4.72344
4.21949
3.54445
2.85472
5.23733
11.6317
10.8625
11.8289
6.31979
12.1492
5.97217
5.33873
4.19427
7.72067
6.73337
5.44626
8.10327
1.9931
1.81684
2.75574
6.53796
8.92001
1.80381
2.26879
2.29515
2.72124
5.50844
5.6028
6.45052
8.16049
8.15022
7.02392
7.21146
9.07939
10.5175
8.9147
7.21373
10.9459
2.14817
1.90172
2.24681
3.48394
7.17534
10.1522
9.60671
10.8627
16.9804
2.16538
1.76294
2.13082
1.88425
1.83932
2.22413
2.07675
2.00538
2.21408
1.95728
2.02505
2.65159
3.43405
3.33478
4.41651
5.28212
4.26508
4.48899
6.14832
7.13221
6.7615
7.64077
7.69422
7.21616
7.64454
6.25243
6.85707
5.88703
8.08683
5.644
7.64764
6.54288
7.00181
9.17487
10.0125
8.25355
8.67319
7.32845
7.94288
8.38881
10.0739
9.42922
5.90155
8.13657
6.57472
9.27853
8.53171
7.38092
1.38649
1.5375
1.55287
1.91848
1.54742
1.94018
2.12719
2.2871
3.31504
4.59054
2.31616
4.67131
4.48834
5.33449
5.38919
6.6154
5.40215
6.60156
1.34537
1.50544
1.32126
1.60409
1.56929
1.37337
1.29393
1.42109
1.70263
1.87468
1.62613
1.6644
1.45204
1.5912
1.32959
1.61704
1.38325
1.7181
1.64388
1.46478
2.32069
2.23066
1.92185
2.87068
1.87694
2.7878
2.38729
2.94681
3.68681
4.41192
3.79209
3.56105
3.04814
3.65043
1.94584
2.91416
2.42369
3.7511
3.86352
3.10323
4.62189
5.11537
4.39846
5.83787
4.23181
5.59093
4.79928
4.90839
6.21193
6.31325
5.41821
5.94033
5.09661
5.21233
4.45948
5.86822
4.83022
6.21028
5.41903
5.10395
7.76594
3.79357
3.31006
5.03592
2.66407
4.0861
4.71731
1.67278
2.18605
2.17939
2.0103
2.62859
4.05512
2.72846
2.48469
2.08883
2.43884
3.0941
3.59635
4.31773
4.49171
1.8616
1.77704
2.01209
1.83708
2.02778
1.9569
2.20088
2.03377
2.41133
2.21987
2.26669
2.17856
2.41908
2.60388
1.41343
1.28169
1.32734
1.63182
1.47335
1.52298
1.56842
2.25259
2.48996
2.72525
3.63329
2.9524
1.97547
2.58641
1.44878
1.51517
1.45221
1.30062
1.19076
1.24382
1.24789
2.35349
2.2376
2.58764
1.88216
2.16725
2.08389
2.37805
2.8606
3.14426
2.88288
2.61961
2.40428
2.63967
2.87709
2.31325
2.60795
2.80358
2.32196
2.76015
2.34838
2.89601
1.47689
1.77656
1.86791
1.80131
2.02169
1.68992
2.14959
1.86591
1.5333
1.60182
1.4439
1.50757
1.7491
1.67735
1.61256
1.77545
1.82463
1.37816
1.50809
1.32805
1.54943
3.33472
3.40918
3.68901
2.84465
3.07896
3.10852
3.33584
2.27224
2.56223
2.75798
3.10564
2.42056
2.59492
2.84246
4.60441
2.77685
3.09798
2.35538
3.20621
4.31139
3.9302
3.18989
3.16482
3.51903
3.55098
3.47936
3.1929
3.89752
1.8739
1.67872
2.05682
1.95925
1.73485
2.13661
1.80245
1.73718
1.65069
2.0243
1.95053
2.36603
1.91583
2.26474
2.51595
3.08941
2.97707
2.2561
2.3221
2.99166
2.97561
1.89515
1.97738