/*--------------------------------*- C++ -*----------------------------------*\
  =========                 |
  \\      /  F ield         | OpenFOAM: The Open Source CFD Toolbox
   \\    /   O peration     | Website:  https://openfoam.org
    \\  /    A nd           | Version:  9
     \\/     M anipulation  |
\*---------------------------------------------------------------------------*/
FoamFile
{
    format      ascii;
    class       volScalarField;
    location    "0.00295";
    object      rho;
}
// * * * * * * * * * * * * * * * * * * * * * * * * * * * * * * * * * * * * * //

dimensions      [1 -3 0 0 0 0 0];

internalField   nonuniform List<scalar> 
24597
(
0.722694
0.679919
0.816269
0.762726
0.828538
1.15757
1.17564
1.16999
0.998128
2.10021
1.83399
2.36105
0.502825
0.704619
0.560537
0.711914
0.790252
1.12283
0.893657
1.11875
1.29519
2.23345
1.40536
2.08569
2.11734
1.19287
0.523358
0.503729
0.478361
0.557186
0.47397
0.557798
0.53017
0.583342
0.626055
0.706202
0.660067
0.626984
0.592623
0.648451
0.792425
0.791661
0.730843
0.883872
0.717253
0.886002
0.807307
0.878171
0.990906
1.14181
0.990391
0.996579
0.892261
0.982856
1.30482
1.34238
1.10999
1.5459
1.12028
1.63354
1.26615
1.56384
1.91644
2.28165
1.74976
2.04603
1.48968
1.83384
0.866155
1.20597
1.04467
1.59431
1.95665
1.85469
1.67317
1.72286
1.40029
1.83727
0.398502
0.220702
0.484905
0.230895
0.694108
0.309359
0.907813
0.496127
1.85755
1.63561
0.193183
0.399896
0.420981
0.18985
0.434369
0.399166
0.223965
0.410414
0.189574
0.504958
0.585513
0.221742
0.693561
0.459122
0.283214
0.578826
0.242265
0.842588
0.826359
0.334975
0.994204
0.823525
0.429976
1.04657
0.975299
1.30346
0.387244
1.33202
1.30962
0.734983
1.98733
1.41084
0.929799
2.03816
0.318249
0.288546
0.293051
0.221755
0.290103
0.295685
0.315237
0.397264
0.310532
0.321627
0.243812
0.359096
0.332242
0.347518
0.650057
0.441972
0.469207
0.340872
0.574068
0.491725
0.524844
1.1678
0.717888
0.787903
0.587296
0.988795
0.847059
0.93505
1.49629
0.852096
1.81263
1.8898
1.99338
1.93774
2.38259
1.53329
2.03079
0.362712
0.335961
0.286672
0.193796
0.337806
0.287784
0.36074
0.366979
0.191757
0.34674
0.289793
0.340642
0.287838
0.376985
0.322605
0.221617
0.297743
0.305224
0.291723
0.298059
0.33482
0.424147
0.359802
0.295548
0.194338
0.395167
0.383965
0.308485
0.462141
0.205138
0.458902
0.35425
0.418025
0.328197
0.505731
0.44726
0.261447
0.399046
0.422231
0.362171
0.381432
0.506859
0.599743
0.502894
0.385066
0.266763
0.551546
0.550031
0.421694
0.653732
0.296692
0.66565
0.523375
0.60298
0.46637
0.717415
0.740424
0.380171
0.624381
0.679215
0.551208
0.593864
0.851081
0.993031
0.938391
0.894795
1.06701
0.88825
1.03506
0.9947
0.951941
0.839997
0.852408
0.938635
1.10252
1.17362
1.2685
1.25833
1.14047
1.111
1.23557
1.05083
1.21511
1.05295
1.19094
0.900047
0.738971
0.59913
0.456787
0.795627
0.830552
0.703687
1.04595
0.564117
1.12945
1.10846
0.948034
0.861525
1.26671
1.3934
0.723095
1.28855
1.40106
1.03058
1.13965
1.66538
1.21701
0.752896
1.34813
1.14233
1.19586
1.36574
1.47483
2.10472
2.36809
2.06591
1.80162
2.25232
2.02491
2.29021
1.59714
1.13962
1.35802
1.52482
1.63853
1.6822
1.90804
1.22678
1.31796
2.37832
0.407731
0.446211
0.485367
0.671628
0.73309
0.931073
1.03327
1.31402
1.01332
1.3715
1.47163
1.37646
1.39747
1.4336
1.37458
1.27475
0.394242
0.385709
0.401789
0.411369
0.390217
0.406415
0.389026
0.405343
0.422559
0.424629
0.440212
0.400843
0.417561
0.428887
0.516249
0.463006
0.476627
0.541336
0.465226
0.517199
0.528049
0.575222
0.606498
0.638576
0.652937
0.5788
0.589015
0.636377
0.759605
0.694465
0.717587
0.793694
0.696712
0.751517
0.785737
0.830407
0.858531
0.890721
0.943097
0.815771
0.860557
0.914594
1.15903
0.980437
1.03738
1.11195
1.02056
1.08931
1.15599
1.33779
1.23
1.3641
1.48039
1.22017
1.30606
1.53198
1.04933
0.990644
0.991027
1.11862
0.974411
1.07347
1.07547
1.12997
1.21024
1.26758
1.27261
1.16173
1.16881
1.21921
1.50078
1.31498
1.59059
1.56512
1.44446
1.37677
1.69962
1.31509
1.39159
1.52363
1.30631
1.35737
1.36707
1.50383
0.997079
1.74562
1.83364
1.24263
0.908
1.20543
1.09775
0.720444
1.6662
0.807659
1.5912
1.1304
1.29451
1.75602
1.23341
1.30675
1.63984
1.22501
1.22503
0.52285
0.562517
0.561437
0.576071
0.90081
1.55952
0.93361
1.57483
0.604469
0.681681
0.826953
0.998617
0.966495
1.6169
0.928558
1.06871
1.46125
1.40676
1.7076
1.91505
1.99368
2.21291
1.0068
1.89338
2.11152
2.20307
0.75854
1.49854
1.28318
0.763296
0.774405
1.52546
1.32393
0.890358
1.59957
1.45891
1.0213
1.22786
1.50202
1.66494
1.55716
1.66144
1.93246
1.6232
1.98299
1.75757
1.72166
2.1071
1.5546
1.2851
1.70289
1.56189
1.26912
1.22584
2.38546
1.95504
2.06209
2.21917
1.77687
0.387168
0.382818
0.504867
0.529499
0.387187
0.511706
0.382397
0.394425
0.538173
0.406178
0.548158
0.392105
0.521865
0.41366
1.36122
1.21013
1.12399
0.904575
1.21401
1.13048
1.3562
1.37289
0.913706
1.239
1.17422
1.22327
1.14579
1.39255
0.505966
0.43474
0.596055
0.665888
0.450481
0.47829
0.66438
0.576425
0.739888
0.60573
0.841204
0.535453
0.746414
0.660602
1.44877
1.26145
1.21555
1.00969
1.41907
1.28859
1.2671
0.86967
0.688909
0.95253
1.05751
0.757607
0.787491
1.08937
1.00231
1.23053
1.04872
1.49577
0.90716
1.26492
1.16152
1.58969
1.22196
1.75204
1.89176
1.3545
1.43565
1.93543
1.82729
1.992
1.88061
2.04363
1.68717
2.03379
1.99681
1.62144
0.867098
1.40323
1.46755
1.23511
1.31698
1.74256
1.9326
1.82416
1.88655
1.96603
1.71895
1.98731
1.9813
0.679783
0.958149
0.727459
0.687367
0.964418
0.907518
0.900005
0.780811
1.06152
0.868226
0.851212
1.12631
1.09417
1.01815
1.16022
1.42693
1.27706
1.33447
1.55527
1.61594
1.45202
1.88784
1.78421
1.83408
1.96048
1.68475
1.84034
1.91885
1.641
1.68447
1.7254
1.8891
1.9172
2.06856
1.95063
1.26802
1.23626
1.22508
1.33384
1.2304
1.22644
1.22507
2.33663
1.90492
1.98269
1.22781
0.737571
0.729222
1.01207
0.699291
0.979645
0.924313
0.961045
0.938574
1.03272
1.30428
0.933843
1.20479
1.18695
1.30463
1.45447
1.75488
1.76714
1.55342
1.67585
1.76855
1.87804
1.81278
1.79178
1.34633
1.94778
1.48526
1.59291
1.37008
1.98718
1.98576
1.96408
2.06545
2.05508
2.11164
1.93023
1.78246
1.2699
1.30704
1.64902
1.80498
1.25905
1.28499
1.85854
1.24223
1.253
1.45332
1.59085
1.23068
1.23315
1.32964
1.22617
1.22638
1.23584
1.23697
1.22505
1.22504
1.22577
1.22502
1.22502
1.22574
1.2251
1.22501
1.22501
1.22505
1.22503
1.225
1.225
1.38846
2.1091
2.31805
1.74638
2.2344
1.99915
1.5496
2.27902
2.29343
2.17203
2.2831
1.78506
1.21169
0.873642
1.04816
1.04581
1.3007
1.96949
2.04706
1.22502
1.79584
2.31914
1.58733
1.51745
1.41322
2.03212
1.06258
1.55916
1.45623
2.0135
1.71923
1.59574
1.98034
1.42352
1.97876
1.7966
1.74476
2.1484
1.94981
1.33901
2.12484
1.71143
1.57971
1.22687
1.25143
1.25137
1.22537
1.35566
1.22606
1.22528
1.22504
1.22664
2.30164
2.10671
1.28112
1.26563
1.40109
1.23522
1.24347
1.22575
1.22503
1.225
1.225
1.225
1.225
1.225
1.225
1.225
1.225
1.225
1.225
1.225
1.225
1.225
1.225
1.225
1.225
1.53131
1.359
1.24607
1.22506
1.25695
1.22501
1.225
1.225
1.225
1.225
0.864707
1.01399
0.931104
0.937605
0.863093
0.986611
0.998258
0.920737
1.07756
1.225
1.225
1.225
1.225
1.225
1.225
1.225
1.225
1.225
1.225
1.225
1.22535
1.225
1.225
1.225
1.225
0.74583
2.46229
2.40702
2.28138
1.63387
2.46684
1.76086
2.34807
1.9627
1.43131
1.22503
0.412108
0.424476
0.568721
0.678301
0.824086
1.0728
1.62661
2.51337
3.00291
1.76532
1.05155
1.27049
0.975589
1.03476
1.10674
1.41233
1.46861
1.45544
1.56835
0.445518
0.557089
0.395544
0.538519
0.680205
0.598063
0.442483
0.401414
0.393984
0.433177
0.40374
0.440687
0.431607
0.439238
0.391094
0.40257
0.428329
0.492971
0.482133
0.547315
0.537727
0.490626
0.481423
0.548411
0.487388
0.532233
0.477094
0.540888
0.66597
0.606816
0.59626
0.662639
0.60503
0.671816
0.658982
0.649473
0.587559
0.594109
0.64648
0.35277
0.395023
0.594744
0.931592
1.52633
0.416448
0.372247
0.445673
0.475749
0.535559
0.637501
0.697057
0.824681
0.893358
1.25915
0.352954
0.370436
0.345734
0.355535
0.373397
0.348687
0.350218
0.420576
0.409999
0.385953
0.431782
0.386039
0.448039
0.422409
0.642017
0.61198
0.586798
0.658747
0.580065
0.673862
0.650115
1.01813
0.929239
0.928348
1.04059
0.910704
1.0324
1.03893
1.27336
1.99019
0.368017
0.395925
0.389149
0.419823
0.398915
0.391718
0.365762
0.33399
0.338754
0.341479
0.331285
0.33392
0.349819
0.352049
0.331561
0.35671
0.361031
0.388355
0.364094
0.378302
0.353545
0.365461
0.370646
0.427998
0.416431
0.405029
0.404606
0.395454
0.378013
0.338469
0.35842
0.346576
0.34917
0.336351
0.359055
0.354018
0.343183
0.426722
0.439535
0.424133
0.52121
0.395717
0.478548
0.45571
0.402969
0.380134
0.369092
0.416394
0.390108
0.372802
0.359611
0.401324
0.467441
0.480019
0.553706
0.527521
0.497807
0.471257
0.522193
0.470769
0.577493
0.584357
0.550666
0.52876
0.498978
0.52308
0.449463
0.52151
0.465072
0.504115
0.432891
0.491767
0.442518
0.483927
0.638767
0.641569
0.605567
0.756701
0.579108
0.701227
0.663208
0.621293
0.578222
0.560735
0.639117
0.597028
0.544158
0.538239
0.600839
0.714782
0.733337
0.830946
0.818376
0.745128
0.724895
0.804885
0.707092
0.82059
0.847549
0.804803
0.76827
0.727968
0.789955
0.69327
0.804868
0.712412
0.783175
0.666594
0.747468
0.667009
0.75254
0.991692
0.913665
0.888754
1.01893
1.12132
1.14319
1.25926
1.24697
1.13612
1.13967
1.24072
1.08204
1.19625
1.10462
1.19398
1.04271
1.1032
0.667194
0.700458
1.12096
1.10361
1.30946
0.341089
0.368801
0.418621
0.511292
0.622813
0.356079
0.37622
0.469019
0.581348
0.701377
0.865292
0.953674
1.17819
0.375148
0.48223
0.418888
0.40556
0.457045
0.49643
0.688136
0.75032
0.951688
0.413293
0.453446
0.459715
0.407621
0.423347
0.495468
0.471548
0.444669
0.530941
0.533504
0.480005
0.586953
0.588573
0.645637
0.868507
0.409756
0.412788
0.4088
0.42264
0.417685
0.412874
0.404707
0.419957
0.43366
0.452826
0.441733
0.428727
0.422018
0.443166
0.538671
0.494295
0.476491
0.553837
0.482976
0.552576
0.528469
0.601479
0.621371
0.677989
0.651834
0.617319
0.589504
0.662211
0.775886
0.733528
0.71195
0.811124
0.718825
0.789566
0.772191
0.837596
0.876935
0.91677
0.91159
0.85035
0.837662
0.904229
2.30854
1.22523
1.22655
1.22501
1.22502
2.28724
1.68958
2.38707
1.50536
1.4457
1.25234
1.22538
1.22501
1.22503
1.225
1.22509
1.225
1.22502
0.320973
0.364034
0.265052
0.654437
1.3594
1.59349
1.24157
1.22509
1.22501
0.381989
0.425066
0.299179
0.71791
1.39524
1.4287
1.22511
1.22504
1.225
0.67839
0.647138
0.414856
0.993607
1.44302
1.24521
1.22501
1.225
1.225
0.98255
0.9759
0.62556
1.87757
1.32195
1.227
1.2251
1.225
1.225
2.26714
1.56937
1.78466
0.675389
1.25939
1.7661
1.22501
1.22509
2.46836
1.68647
1.25388
2.52546
1.22501
1.22568
0.332139
0.34268
0.346763
0.35669
0.364784
0.221058
0.334426
0.398038
0.227699
0.34901
0.395247
0.37104
0.392888
0.274254
0.404163
1.08689
1.1812
1.63047
0.668694
1.10721
1.20517
1.66622
1.34544
1.63508
1.31192
1.38139
1.31814
1.63142
1.2629
0.397835
0.506267
0.429462
0.246007
0.484953
0.604535
0.279749
0.586183
0.437091
0.347788
0.512423
1.12425
1.3202
1.68716
0.820068
1.2176
1.62029
1.71674
1.30242
1.62503
1.24828
1.43919
1.25584
1.51581
1.23074
0.637383
0.777458
0.830142
0.671208
0.493238
0.813301
0.886066
0.580166
0.870717
0.833069
0.640224
0.513415
0.847369
1.2692
1.85767
1.69502
1.32548
1.4359
2.00506
1.37484
1.24469
1.43838
1.2263
1.37242
1.22773
1.25147
1.22519
1.03466
0.912795
1.245
1.18695
0.979999
0.710647
1.22749
1.29807
0.833561
0.94396
1.29945
1.27322
1.1668
0.985257
2.24758
1.44741
1.63387
1.28076
1.99393
1.33021
1.24586
1.22631
1.22632
1.23406
1.22507
1.29995
1.30023
1.22586
1.22616
0.711342
2.45811
2.05523
2.59993
2.21841
1.54567
2.2276
0.693854
2.01799
1.96211
2.16533
2.11355
2.29935
2.38399
0.517827
1.17389
0.576294
1.32011
0.810987
2.03843
1.38785
1.24366
2.67522
1.23541
0.360378
0.371084
0.363601
0.540647
0.38543
0.532014
0.374548
0.546719
0.398644
0.420331
0.572652
0.405942
0.653354
0.438192
0.67372
0.469008
0.70394
0.524199
0.685201
0.819685
0.598112
1.02027
0.666739
1.02036
0.761709
1.1936
0.895526
1.05132
1.54588
1.08161
1.97545
1.26541
2.09725
1.66901
2.43885
2.2964
0.368794
0.35649
0.372072
0.367951
0.360205
0.375675
0.366377
0.269475
0.238055
0.24198
0.223041
0.176555
0.179632
0.218766
1.48142
1.43517
1.46082
1.36354
1.4346
1.4648
1.48246
0.453518
0.411809
0.423867
0.469008
0.413909
0.452726
0.464812
0.26889
0.320789
0.2865
0.262445
0.198377
0.246718
0.209867
1.46217
1.42582
1.49954
1.41131
1.47194
1.41683
1.51484
0.67208
0.620946
0.628521
0.709577
0.614623
0.684858
0.684599
0.458105
0.350491
0.375366
0.348311
0.246082
0.321826
0.257727
1.32534
1.35797
1.53166
1.43385
1.3747
1.32619
1.5142
1.0528
0.96368
0.940477
1.08403
0.941632
1.07553
1.04848
0.83257
0.52627
0.691253
0.607413
0.342063
0.506529
0.405515
1.23083
1.24247
1.30952
1.2742
1.23811
1.23397
1.26143
2.53322
1.7634
1.6344
1.63014
0.622054
1.94872
2.07448
1.53581
0.613814
1.25915
1.9222
1.83634
2.02999
1.98095
1.40355
0.669935
0.991338
1.08133
0.960251
1.07454
1.43312
1.22503
1.22565
1.76795
1.75847
1.22657
1.57697
1.22516
1.94051
1.22694
1.25485
1.69705
1.74322
1.22552
1.2259
0.372101
0.359364
0.371209
0.369077
0.365308
0.374872
0.367002
0.223529
0.289684
0.293233
0.298591
0.161129
0.162613
0.295589
0.361604
0.368212
0.369998
0.359502
0.381456
0.379299
0.397651
0.397324
0.376945
0.382644
0.397547
0.301657
0.234941
0.316388
0.304566
0.169352
0.164954
0.316732
0.368718
0.385755
0.375052
0.38071
0.360909
0.350814
0.350036
0.351881
0.354128
0.352983
0.358561
0.371048
0.370745
0.372239
0.369149
0.363575
0.349618
0.351981
0.361459
0.375548
0.377619
0.384389
0.397818
0.368437
0.383397
0.38894
0.367217
0.358265
0.37579
0.370852
0.36149
0.358686
0.379865
0.376029
0.387685
0.376804
0.386833
0.36848
0.368929
0.357173
0.380191
0.398876
0.318837
0.323935
0.318075
0.416844
0.42238
0.313692
0.247081
0.283773
0.255847
0.22692
0.189319
0.183153
0.234782
0.328926
0.416175
0.339491
0.321681
0.434073
0.425353
0.329976
0.933701
0.748985
1.24732
1.09061
0.749948
1.25367
0.929319
0.940483
1.09653
0.752834
1.28462
0.749279
1.26522
0.956354
1.38478
1.38081
1.34194
1.34045
1.37615
1.33665
1.39023
1.48016
1.37081
1.43099
1.48448
1.43368
1.47256
1.47725
1.37478
1.3312
1.355
1.31318
1.36764
1.32686
1.35987
0.467072
0.431596
0.423441
0.476969
0.424839
0.481452
0.464954
0.33943
0.261337
0.371502
0.367009
0.176738
0.337283
0.186742
0.437383
0.406925
0.40271
0.441078
0.521785
0.537399
0.616889
0.575762
0.545214
0.51816
0.58187
0.410603
0.452385
0.299048
0.403768
0.210468
0.198347
0.443227
0.48086
0.533781
0.485
0.527998
0.445417
0.409977
0.408706
0.446685
0.504534
0.524223
0.56175
0.573771
0.504185
0.516952
0.559942
0.492712
0.545498
0.493974
0.544328
0.357804
0.469205
0.385602
0.367275
0.450947
0.34486
0.478544
0.307211
0.378978
0.328567
0.280837
0.234518
0.222466
0.3006
0.568588
0.422638
0.46929
0.396549
0.559627
0.514741
0.432545
1.02052
0.763338
1.31234
1.14793
0.982358
0.783804
1.34856
1.07044
1.17813
0.857079
1.44418
0.814398
1.39251
1.13406
1.31661
1.3385
1.29694
1.2857
1.34019
1.31874
1.28005
1.44388
1.42719
1.38375
1.53429
1.40328
1.52704
1.41525
1.29257
1.26971
1.27567
1.25137
1.29682
1.26448
1.27063
0.696809
0.691246
0.631543
0.736287
0.640361
0.765287
0.68873
0.533974
0.318972
0.342335
0.520041
0.223261
0.481683
0.238835
0.623422
0.582234
0.574696
0.633049
0.757762
0.805455
0.917439
0.83678
0.839118
0.754933
0.831577
0.638202
0.373958
0.418665
0.563972
0.290541
0.260325
0.619526
0.680476
0.769235
0.693211
0.752509
0.650478
0.596641
0.596639
0.648968
0.742093
0.781538
0.853927
0.835301
0.760538
0.750347
0.832928
0.739035
0.738856
0.843555
0.827618
0.748744
0.733559
0.83185
0.715658
0.794291
0.712296
0.801665
0.718284
0.810918
0.718267
0.809035
0.730761
0.526697
0.597051
0.526502
0.615965
0.47562
0.689049
0.408342
0.456347
0.588339
0.384355
0.299741
0.273491
0.435132
1.00195
0.685871
0.802179
0.591978
0.918703
0.785327
0.683247
1.32243
0.916714
1.50268
1.33136
1.21615
0.99735
1.56264
1.45304
1.39384
1.22493
1.60169
1.10019
1.60091
1.58465
1.24196
1.25793
1.24113
1.23642
1.25362
1.24496
1.23389
1.28259
1.41121
1.26126
1.39091
1.29139
1.46664
1.25425
1.23412
1.23091
1.23066
1.22687
1.23628
1.22934
1.22931
1.0113
1.00403
0.934463
1.07954
0.918682
1.09537
1.03403
0.793789
0.557761
0.479694
0.762709
0.331353
0.688217
0.381787
0.93213
0.861848
0.840906
0.956347
1.09624
1.17606
1.31599
1.21998
1.19073
1.12462
1.20096
1.02566
0.886711
0.663759
0.834788
0.552187
0.446861
0.939067
1.00553
1.1076
1.0268
1.09341
1.05713
0.954803
0.939551
1.0568
0.943409
1.06819
1.05276
1.01406
0.893037
0.908097
0.992432
1.02826
0.921544
0.919381
1.02943
1.14989
1.18425
1.29283
1.23875
1.17829
1.14169
1.2484
1.15649
1.15991
1.28475
1.25438
1.17162
1.15273
1.25638
1.09321
1.13666
1.06528
1.1674
1.11113
1.19679
1.11348
1.19017
1.53521
1.21692
0.957109
0.997162
1.12108
0.811453
1.44376
0.774105
1.34856
1.04712
0.776088
0.667883
0.508204
1.04834
1.8655
1.46305
1.94797
1.27538
2.2107
1.86973
1.67778
1.70199
1.3515
1.54385
1.40631
1.67924
1.45777
1.42492
1.60062
1.34509
1.52557
1.28031
1.52155
1.31886
1.42576
1.22628
1.22769
1.22582
1.22662
1.22686
1.22711
1.22595
1.23198
1.25335
1.29974
1.26489
1.23708
1.24227
1.26785
1.23139
1.23578
1.30232
1.27044
1.23586
1.23152
1.27054
1.67799
0.790705
1.07438
1.12786
1.21369
1.23788
1.52306
2.18194
1.72725
2.14087
2.19855
1.88355
2.04022
2.25105
1.40314
0.676416
0.985771
1.10154
0.962226
1.08208
1.42314
1.91156
1.6173
1.99808
2.17027
1.56081
1.94666
2.16694
1.8985
1.56205
1.98633
2.1182
1.55155
1.89483
2.15142
1.38078
1.40501
1.22504
1.35645
1.22522
1.22501
1.27664
1.22503
1.225
1.2291
1.22511
1.225
0.726519
1.88004
1.22508
2.44493
1.22565
1.49185
1.36679
1.47742
1.43502
1.30062
1.12106
1.4345
1.55432
1.19193
1.2297
1.62312
1.23344
1.39995
1.2257
1.58691
1.43201
1.22513
1.36844
1.29499
1.35031
1.22616
1.24436
1.92533
2.10472
2.25174
1.43857
1.37078
1.40834
1.37804
1.3722
1.40514
1.43811
1.44941
1.38687
1.37615
1.34178
1.44837
1.38951
1.35462
1.3464
1.36128
1.26973
1.25576
1.39486
1.33668
1.25036
1.233
1.24819
1.22777
1.22786
1.24209
1.23775
1.22676
1.52662
0.783562
1.03129
1.13914
1.10605
1.21173
1.46431
1.61514
1.25241
1.23741
1.60546
1.51837
1.22576
1.228
1.44109
1.37365
1.38136
1.39061
1.37587
1.39968
1.44498
1.44552
1.3228
1.37675
1.29623
1.38632
1.32586
1.42841
1.47843
1.06042
1.35014
1.39613
1.31863
1.3269
1.50193
1.50346
1.37563
1.4691
1.26822
1.51344
1.39423
1.53311
1.2961
1.24181
1.26972
1.23132
1.3044
1.23841
1.26193
1.46351
1.33844
1.36978
1.58834
1.39632
1.58054
1.39121
1.26851
1.32317
1.52888
1.42939
1.3173
1.28467
1.41566
1.23294
1.23566
1.29035
1.26747
1.23824
1.23158
1.26335
1.24699
1.38802
1.29348
1.28558
1.26293
1.32067
1.2627
1.90145
1.58878
1.88989
2.06727
1.63124
1.89595
2.01343
1.04221
0.671978
1.01009
1.06457
1.09745
1.29212
1.24301
1.05901
0.623532
0.985513
1.07375
0.988148
1.23916
1.2361
1.01477
1.09689
0.649904
0.636721
1.0884
0.997959
1.24903
0.66178
0.505272
0.512141
0.74329
0.564906
0.570071
0.737872
1.5452
1.8555
1.87023
1.73784
1.25267
1.73937
1.24171
1.22521
1.22513
1.23815
1.60319
1.23181
1.5578
1.22906
0.762454
0.557368
0.594169
0.823019
0.596309
0.78628
0.624453
1.93442
1.3059
1.90719
1.73552
1.23666
1.6047
1.22724
1.23228
1.22505
1.22647
1.51956
1.22781
1.34328
1.22552
1.13022
0.778337
0.880842
1.14156
0.774391
1.01962
0.857598
1.67092
1.22582
1.71591
1.50509
1.22604
1.25199
1.22505
1.22507
1.22504
1.2253
1.29144
1.22524
1.22978
1.22504
2.0525
1.85575
1.53425
1.92339
1.42488
1.76507
1.72756
1.22501
1.22521
1.27987
1.23333
1.22502
1.22516
1.22501
1.225
1.225
1.22503
1.22643
1.22501
1.22508
1.22501
1.33451
2.16495
1.73308
1.92808
1.02056
1.4923
1.48968
1.7826
1.36573
1.95928
1.38709
1.9907
1.46188
1.42827
1.90811
2.16487
2.56121
1.86763
2.43582
2.40779
2.22863
2.18032
2.41074
2.13797
1.8143
2.39571
2.3588
2.35978
1.22507
2.21866
1.23119
2.55585
1.83104
1.26244
1.22641
2.0725
2.42065
1.23071
2.54011
1.98781
1.42512
1.22752
0.518171
0.687551
0.53268
0.747929
0.580087
0.571855
0.762345
0.894719
0.640763
0.700741
0.871187
0.712213
0.663069
0.934564
1.58471
1.02224
1.22892
1.3194
1.15844
0.976502
1.54462
2.24155
2.11341
2.14033
1.95968
2.08748
1.95281
1.77434
2.36274
2.37458
2.22292
2.35902
2.32178
2.11776
2.33924
1.19817
0.639729
0.656822
0.690531
1.4824
0.701257
1.52986
1.65604
0.717069
0.839873
0.785315
1.69442
0.95892
1.94554
2.17163
1.04256
1.41569
1.23192
2.19697
1.64366
2.25897
2.01527
1.60703
1.9964
2.31377
1.59802
1.85909
1.22609
1.32489
2.55063
2.55023
2.72282
1.64313
1.37611
1.22578
1.22501
1.22517
1.59294
1.32304
1.22512
1.22511
1.22501
1.17281
1.27787
0.856752
1.11955
1.32849
1.43473
1.66461
1.54498
2.17141
2.05272
1.46624
1.82859
1.31383
1.29646
1.8272
1.34451
1.90869
1.36093
1.84302
1.33152
1.37702
1.45395
1.38734
1.75383
1.77966
1.39442
1.9798
1.46816
1.2256
1.22533
1.38037
1.5659
1.24654
1.53784
1.24138
1.3262
1.22506
1.26877
1.4612
1.23314
1.33992
1.22767
1.22516
1.22507
1.22605
1.25504
1.22554
1.22967
1.22504
1.22501
1.22501
1.22505
1.22865
1.22502
1.22538
1.22501
1.42733
1.37151
1.71246
1.66695
1.34989
1.81075
1.39267
2.06705
2.00805
1.48543
1.63463
1.30994
1.66797
1.32724
1.74418
1.35382
1.31377
1.22526
0.338493
0.389292
0.67671
0.953723
1.06122
1.45128
0.354832
0.330309
0.345824
0.37615
0.348942
0.385443
0.348366
0.453413
0.389678
0.422273
0.603254
0.505584
0.616886
0.543481
0.740443
0.672365
0.69439
0.918608
0.888622
0.933007
0.821919
0.796581
1.09447
1.17802
1.02299
1.58738
1.33317
0.850996
1.04383
2.15689
0.33781
0.355329
0.354492
0.370999
0.403716
0.519836
0.474298
0.62276
0.692344
0.937204
0.829551
1.08357
1.29177
1.83572
1.38768
1.90173
0.349535
0.338872
0.343194
0.358999
0.336332
0.342025
0.351967
0.338392
0.313999
0.322615
0.316222
0.329611
0.337296
0.307327
0.360693
0.34917
0.363344
0.366645
0.365445
0.34904
0.384554
0.333555
0.356051
0.370051
0.326305
0.368639
0.347719
0.347769
0.405021
0.434596
0.389918
0.464587
0.394613
0.415234
0.441569
0.439715
0.403882
0.453514
0.431874
0.403936
0.381657
0.455217
0.521345
0.573933
0.497889
0.532688
0.581469
0.505931
0.613988
0.584087
0.518992
0.597226
0.497789
0.600141
0.52189
0.575901
0.787852
0.692751
0.655477
0.796826
0.661776
0.702845
0.744766
0.771834
0.684809
0.779272
0.757432
0.686169
0.662581
0.776952
0.829024
0.988826
0.887545
0.895562
0.920482
0.831276
1.00035
1.02562
0.878998
0.984418
0.864206
0.963729
0.869262
0.982953
1.00575
1.1883
1.08817
1.21971
1.0104
1.1097
1.10425
1.35742
1.102
1.23603
1.24498
1.06432
1.10819
1.17351
1.82876
1.4035
1.61708
1.40284
1.46655
1.29881
1.60173
0.345273
0.331966
0.339229
0.349163
0.371186
0.376318
0.453725
0.409268
0.458494
0.599408
0.523768
0.602725
0.802772
0.694206
0.799028
1.10043
0.917312
1.04801
1.52553
1.19574
1.36899
2.12522
1.58658
1.85252
0.922729
1.42075
1.39762
0.336295
0.333016
0.340074
0.352126
0.340034
0.347572
0.328693
0.34518
0.363439
0.369665
0.380537
0.349459
0.358625
0.365492
0.44999
0.403552
0.417177
0.475878
0.399244
0.454859
0.470587
0.516715
0.542021
0.597642
0.615166
0.521404
0.538282
0.594644
0.771977
0.67869
0.698037
0.771136
0.680124
0.761632
0.785031
0.871572
0.84913
0.931187
0.9664
0.845738
0.874175
0.974572
1.17614
1.01867
1.06142
1.11469
1.07558
1.10927
1.15589
1.28317
1.21032
1.34258
1.38499
1.21291
1.25644
2.72301
1.96484
1.22506
1.225
1.225
1.22515
1.225
1.22501
1.225
1.225
1.22536
1.225
1.22519
1.225
1.22502
1.225
1.225
1.22502
1.22564
1.22515
1.31608
1.22504
1.22501
1.22528
1.4219
1.22505
1.22502
1.36918
1.22511
1.22502
1.225
1.22536
1.22501
1.22516
1.22501
1.22504
1.225
1.22533
1.25443
1.22505
1.22503
1.23794
1.22516
1.22502
1.225
1.225
1.225
1.225
1.225
1.225
1.225
1.225
1.225
1.225
1.225
1.225
1.225
1.225
1.225
1.225
1.225
1.225
1.225
1.225
1.225
1.225
1.225
1.225
1.225
1.225
1.225
1.225
1.225
1.225
1.225
1.225
1.225
1.225
1.225
1.225
1.225
1.225
1.225
1.225
1.225
1.225
1.225
1.225
1.225
1.225
1.225
1.225
1.225
1.225
1.225
1.225
1.225
1.225
1.225
1.225
1.225
1.225
1.225
1.225
1.225
1.225
1.225
2.38678
0.983
2.07907
1.1779
1.06852
1.04357
1.738
1.50802
1.11252
0.952717
1.79314
1.4317
0.850125
1.17619
1.38086
0.756473
0.93539
1.28294
1.0498
1.16365
1.24536
1.24532
1.32328
1.30941
1.20793
1.43221
0.983474
1.06613
1.47706
1.42239
1.48072
2.46974
1.9342
1.31822
1.87208
1.48429
2.28626
1.41615
1.10459
1.03841
1.00355
1.30559
1.3183
1.30184
1.31302
1.82036
1.76008
1.94881
1.65049
1.62599
1.56601
1.78466
1.57575
1.46923
1.55827
1.65424
1.50816
1.53671
1.70092
2.04076
1.61604
2.25048
1.99976
2.01845
2.19288
2.02434
2.40743
0.799037
1.01438
0.672517
0.402161
0.41928
0.474151
0.593831
0.668148
0.764072
0.813954
0.872254
0.408342
0.443772
0.450405
0.463066
0.441235
0.487586
0.524179
0.571844
0.519244
0.617062
0.621101
0.568937
0.700902
0.643941
0.710241
0.714756
0.662931
0.749488
0.75381
0.695889
0.809362
0.807622
0.816314
0.758414
0.805777
0.930293
0.862484
0.369645
0.39746
0.403152
0.367665
0.372581
0.401824
0.396671
0.436982
0.480732
0.512984
0.51882
0.466154
0.433188
0.466706
0.384704
0.413299
0.434281
0.381903
0.401331
0.432308
0.411638
0.346054
0.359065
0.353883
0.348859
0.35364
0.334613
0.339622
0.537377
0.598614
0.539069
0.568729
0.580701
0.640498
0.622331
2.86551
2.17296
2.73645
1.88036
2.3613
2.78922
2.25069
2.57664
1.80898
2.37191
1.22512
1.22505
1.225
1.225
0.361372
0.357498
0.364372
0.35453
0.370767
0.393116
0.373518
0.390961
0.471054
0.424536
0.422067
0.472823
0.537917
0.622365
0.538921
0.622985
0.860764
0.725262
0.728724
0.849875
1.02485
1.16615
0.997483
1.22884
1.78503
1.355
1.47649
1.58327
2.20044
2.24034
1.88899
2.55487
1.225
1.225
1.225
1.225
1.225
1.225
1.225
1.225
1.225
1.225
1.225
1.225
1.225
1.225
1.225
1.225
1.225
2.41647
2.39618
2.38172
1.26446
1.22535
1.22598
1.22508
1.22502
1.225
1.22504
1.225
1.225
1.225
1.225
1.225
1.225
1.225
1.225
1.225
0.388673
0.354251
0.371161
0.363086
0.348159
0.381376
0.365117
0.459993
0.39774
0.453279
0.436482
0.410453
0.392955
0.43517
0.648408
0.704713
0.714544
0.655885
0.696279
0.753183
0.724115
0.567201
0.566498
0.507727
0.545902
0.48778
0.490188
0.550653
0.363277
0.367476
0.359982
0.384028
0.388019
0.394625
0.389804
0.33734
0.341646
0.342519
0.331161
0.335899
0.334635
0.339683
0.348909
0.363283
0.362835
0.343934
0.360576
0.347693
0.364728
0.680608
0.684745
0.624666
0.666548
0.604881
0.611232
0.673681
0.367737
0.394123
0.383141
0.395979
0.412542
0.425025
0.404207
0.343464
0.347906
0.346758
0.332196
0.336933
0.338279
0.342713
0.387558
0.426377
0.431818
0.389217
0.433756
0.394843
0.442067
0.510445
0.424459
0.409084
0.44888
0.440869
0.484507
0.460464
0.480545
0.56144
0.491353
0.492924
0.558344
0.505305
0.576506
0.523014
0.569297
0.629903
0.499912
0.556786
0.538452
0.596919
0.355069
0.345983
0.374037
0.371349
0.36378
0.369516
0.351881
0.33708
0.346122
0.335191
0.341051
0.351892
0.341119
0.346066
0.823601
0.870932
0.838105
0.760957
0.776532
0.812677
0.775034
0.402894
0.398141
0.393404
0.437767
0.440687
0.398476
0.438248
0.49871
0.49338
0.554254
0.552331
0.493298
0.488911
0.546244
0.60855
0.711607
0.63514
0.623972
0.690747
0.649795
0.724354
0.640124
0.688147
0.747751
0.6786
0.615855
0.65582
0.716929
0.365938
0.375933
0.351219
0.363217
0.3715
0.384487
0.356401
0.813634
0.739674
0.748592
0.79627
0.731782
0.740947
0.811268
0.384303
0.509811
0.91162
2.08589
0.431346
0.47548
0.401252
0.514928
0.779797
0.657176
0.936085
1.68065
1.29199
2.06074
0.393116
0.432804
0.38772
0.4388
0.440577
0.394857
0.385625
0.403659
0.450464
0.477871
0.425662
0.452466
0.404735
0.425144
0.511732
0.517721
0.459048
0.576265
0.458711
0.580778
0.510822
0.585846
0.66267
0.792258
0.678131
0.670019
0.583184
0.684147
0.97253
0.958566
0.799523
1.13702
0.810398
1.18205
0.95248
1.18367
1.38462
1.87411
1.35989
1.47949
1.14152
1.45437
2.25419
2.40321
1.61237
2.55527
1.79542
3.03686
1.94291
3.24057
2.64607
2.80323
3.06844
3.30356
2.80682
3.49771
2.39368
3.05514
0.667271
1.57555
2.29804
1.24349
1.225
1.225
1.225
0.470234
0.551534
1.27188
2.16295
2.23308
0.85371
0.485085
0.880197
1.06528
0.710335
1.54391
1.69799
1.60707
2.21954
2.28412
2.4922
1.91825
1.32095
1.55322
2.29153
0.830387
1.16723
0.847976
1.1866
1.08663
1.47952
1.20007
1.72839
1.67654
2.06215
1.62878
2.10373
2.1622
1.36939
2.20137
1.23123
1.22642
1.23705
1.72224
1.35527
1.25961
1.225
1.225
1.225
1.225
1.225
1.36498
1.225
1.225
1.2261
1.225
1.225
1.225
1.225
1.225
1.22517
1.225
1.225
2.21395
1.225
1.225
1.22502
1.225
1.225
1.225
1.225
1.225
1.225
1.225
1.225
1.225
1.225
1.225
1.225
1.225
1.225
1.225
1.225
1.225
1.225
1.225
1.225
1.225
1.225
1.225
1.225
1.225
1.225
1.225
1.225
1.225
1.225
1.225
1.225
1.225
1.225
1.225
1.225
1.225
1.225
1.225
1.225
1.225
1.225
1.225
1.225
1.225
1.225
1.225
1.225
1.225
1.225
1.225
1.225
1.225
1.225
1.225
1.225
1.225
1.225
1.225
1.225
1.225
1.225
1.69035
1.22502
1.22514
1.225
1.225
1.225
1.225
1.225
1.225
1.27142
1.225
1.225
2.40609
1.22502
1.225
2.41016
1.22559
1.225
1.225
1.225
1.225
1.225
1.225
1.225
1.225
1.225
1.225
1.22502
1.225
1.225
2.18215
1.225
1.225
1.22501
1.225
1.225
1.225
1.225
1.225
1.225
1.225
1.225
1.225
1.225
1.225
1.225
1.225
1.225
1.225
1.225
1.225
1.225
1.225
1.225
1.225
1.225
1.225
1.225
1.225
1.225
1.225
1.225
1.225
1.225
1.225
1.225
1.225
1.225
1.225
1.225
1.225
1.225
1.225
1.225
1.225
0.395884
0.420019
0.423925
0.398002
0.401213
0.413067
0.417227
0.617029
0.616389
0.681381
0.671659
0.680331
0.614151
0.6067
0.749388
0.874419
0.792444
0.762036
0.836458
0.802359
0.882657
0.873797
0.922425
0.926067
0.895201
0.952478
0.984482
0.935875
0.445708
0.45359
0.407834
0.405401
0.45654
0.419615
0.470306
0.571865
0.571711
0.509782
0.522321
0.594538
0.533084
0.602095
0.405479
0.433755
0.454449
0.409428
0.427981
0.426474
0.450005
0.884653
0.844975
0.769499
0.813193
0.835269
0.750347
0.785419
0.704318
0.701504
0.634913
0.668024
0.741124
0.67065
0.739341
0.907634
0.875823
0.938381
0.915901
0.857697
0.952108
0.88085
0.750846
0.753886
0.836329
0.746625
0.756308
0.836073
0.84758
0.446943
0.490178
0.541424
0.457127
0.487063
0.539784
0.502034
0.890006
1.03062
0.953124
0.990118
1.04833
0.911405
0.963024
0.53254
0.602116
0.665285
0.602432
0.667567
0.556235
0.613904
2.40944
1.82352
1.225
1.225
1.225
1.225
1.22507
1.22501
1.225
1.225
1.225
1.225
1.225
1.225
1.225
1.225
1.225
1.225
1.225
1.225
1.225
1.225
1.225
1.225
1.225
1.225
1.225
1.225
1.225
1.225
1.225
1.225
1.225
1.225
0.42539
0.465642
0.432925
0.444841