/*--------------------------------*- C++ -*----------------------------------*\
  =========                 |
  \\      /  F ield         | OpenFOAM: The Open Source CFD Toolbox
   \\    /   O peration     | Website:  https://openfoam.org
    \\  /    A nd           | Version:  9
     \\/     M anipulation  |
\*---------------------------------------------------------------------------*/
FoamFile
{
    format      ascii;
    class       volScalarField;
    location    "0.0025";
    object      rhoE;
}
// * * * * * * * * * * * * * * * * * * * * * * * * * * * * * * * * * * * * * //

dimensions      [1 -1 -2 0 0 0 0];

internalField   nonuniform List<scalar> 
20236
(
636420
430135
253275
268809
253245
253245
253245
253245
893795
695886
662109
484094
253246
253245
253245
253245
602028
742441
761638
782663
727406
906807
580122
813253
866326
616895
553266
883364
713072
784967
838382
689735
804645
317019
294605
945993
961610
939230
598899
885127
283806
979428
261226
984619
591515
641835
629231
815606
802086
847350
859055
584450
615889
620881
787400
792705
839203
834592
636763
659501
682966
832904
853237
874113
891535
662539
751914
713532
899850
876062
910496
929225
733597
664137
669728
884194
921082
923666
880475
694407
744683
679467
890707
934733
928204
900129
715346
814191
742776
942570
912197
925744
950600
628907
745478
392838
603370
385356
859161
895444
463629
477967
646972
429283
406804
918373
889571
487405
492445
383519
405370
407471
433260
435735
462938
460124
388227
415914
410701
445256
439450
467198
473834
398968
422912
452938
431935
462749
482674
494118
416773
457814
443446
490916
475228
508841
527488
431691
466519
434138
496386
534861
538806
493085
608288
499177
502620
540043
666493
536138
672380
443876
470975
437885
501447
554455
544994
509259
515736
616360
507826
546122
699046
555413
682729
451953
499709
462411
567306
519753
533510
584376
526291
671351
539941
722229
568041
584797
753087
535356
475773
515514
551370
635839
606793
574082
703704
580283
557589
606964
838180
636048
792365
588427
753576
865517
649541
655184
583860
760350
595908
792488
877531
680844
665100
607500
772898
819071
703199
623684
645708
944059
733537
851842
847549
817761
777248
939154
961482
957934
950996
928791
715090
822727
773361
992094
969634
675614
941573
901887
940262
945867
862792
945793
873347
698803
253799
253315
394170
254020
253347
438215
939188
909314
938485
945667
882984
945474
879777
810739
882552
887576
950532
951793
963328
963644
909212
821821
896372
957228
954019
962584
961085
590887
253394
253573
291299
253262
253299
367591
882222
944460
943168
847395
945152
942953
825677
943581
859786
925495
960341
961682
957746
951235
946502
776224
937609
844169
936016
947063
839751
844275
940841
944240
937770
752566
928328
794982
945219
815754
927256
763136
932740
942654
830674
912239
960991
976222
953066
959967
939857
921240
356490
381960
292130
351968
344217
300406
412185
423799
364553
357020
321255
304459
431630
470776
368780
390939
293846
310406
297005
312187
298427
314618
313040
296817
304541
318690
315097
301084
317353
321150
308942
308748
322783
327554
313716
325843
331537
314282
327659
341264
333515
319831
338678
347717
332060
358375
333900
334504
356413
358303
332773
348127
322240
318749
335389
371223
339341
366855
314977
345664
316304
332777
362458
331239
364136
361033
340225
336695
337301
365639
361208
341403
326690
363404
332162
377045
344444
350848
384520
344325
374159
349297
371385
346597
353030
378669
347918
371569
339080
359013
406205
369343
394114
364329
381393
355803
361217
399807
388024
371534
353250
376243
384847
414469
378237
351502
386799
356077
394876
418042
386311
381355
360499
389878
401628
392965
366327
373750
441795
401542
410362
341799
376043
436696
465324
351011
366640
457869
439890
368914
437293
428025
370023
363441
419686
427807
357676
391516
412574
338025
352653
405710
386807
485139
480629
474334
475040
462750
455774
471488
420602
458124
444016
440343
437868
420504
456733
360933
366534
361720
417251
421169
413951
410647
337922
342343
353617
401102
385196
399862
384226
460238
481416
479732
452096
474335
450645
471474
464198
459095
450711
425221
443028
422154
439114
480462
333554
388519
313484
438680
320932
440469
392843
468175
372487
323301
426647
393588
404135
446880
422644
475403
473930
469156
467749
435799
443170
445988
457158
418721
443575
457516
429009
437744
429848
419666
398146
405166
408837
391070
418753
406674
475609
475347
469687
450688
462855
460839
453045
376006
315587
376284
397597
338043
339916
397627
382188
375806
386666
394932
380893
397501
393010
318276
372191
375062
396147
344011
393059
342138
460808
458701
449232
446417
452602
457410
440246
367393
325568
362217
345368
388028
382764
346929
435330
435357
420803
445985
431540
422226
439502
359378
328608
359020
379522
354670
379784
349720
403364
426864
409618
415278
434221
435150
412288
415500
433179
363259
390104
433341
364990
415436
414402
391760
368198
430944
432717
411850
366896
368966
428004
407636
403438
394996
425332
370148
401158
378081
398275
426918
424599
402105
372916
383260
435498
454748
426261
412538
395188
421551
65547.7
171485
168096
287597
310347
228561
217857
304182
269496
144177
50080.5
140128
278936
215774
191708
193348
208929
168499
207759
219116
180646
181845
219082
141457
120243
120951
150388
136612
152635
138959
170832
207021
208031
220074
188597
185553
219870
254367
304888
251504
258658
310717
260751
306295
123139
143790
122034
162033
157558
143782
149454
50626.1
83121.2
83285.1
114899
115410
118040
119357
89180.9
53894.7
84283.8
124747
147673
136635
129813
243841
297566
248692
256063
290371
251756
299498
231577
197164
220321
245866
246431
199052
231218
167489
197845
187701
157354
170809
161666
194234
232470
207903
224367
246742
247178
203305
232390
279833
319190
313689
267796
316444
278781
310077
186295
206315
178013
169797
216760
204801
179862
259468
208033
158283
164921
267162
216859
200086
176391
225864
241002
274131
228812
190726
212140
265229
295671
272703
311626
276710
261147
304034
189102
177525
164215
89952.2
142970
290507
246239
281236
224285
170092
237896
273611
236925
231228
274210
254225
124503
144278
129600
166023
155178
164111
172469
201912
169186
195813
190030
216079
211076
191066
99991.6
123137
118114
168740
151429
168898
191350
234582
257364
222987
278356
244095
234660
265041
167081
157358
141656
187964
227301
206161
212649
171615
192852
192621
208001
197373
207384
193197
158667
151694
141436
176921
192965
193173
181329
236376
251192
204384
217200
283142
259381
244381
194076
228273
190310
201476
231777
238585
202222
213255
245126
216013
228239
248639
225451
254447
210239
244220
229580
225552
232618
240865
211614
266272
285255
294723
246435
284580
259421
273755
229440
259683
274240
285743
266722
241439
251773
213534
220475
258801
238988
248533
226789
210836
222736
217036
234321
239268
238708
222559
213733
240700
260764
252995
277321
254299
238433
264898
356334
269710
321248
412146
294950
329232
434996
399508
299031
366241
320406
340379
302024
364973
342814
281563
305633
319985
277942
287220
324824
312486
394264
387292
367868
416979
398185
375428
395785
322770
315832
307459
368419
365016
345738
351717
334290
368691
347951
357330
368676
345130
379350
288139
305578
300486
330139
331213
338478
320445
408044
424860
402857
382903
418777
390423
406288
366759
383142
368159
406454
376436
356261
391977
793754
918844
938329
931358
672368
906321
763088
948911
982886
982245
951112
911606
907708
953012
985115
954084
983941
947108
885976
899450
940319
920642
666873
862178
619161
888259
904220
722061
982371
970703
985060
865635
929743
913763
835209
321072
253289
349753
258050
253249
253248
256352
681114
913118
910334
861895
560722
866349
550963
895009
663538
904534
852576
502023
837185
531352
984517
958001
974346
890302
725998
789865
855190
253275
253268
305556
253248
255541
253285
253247
880963
550497
860880
464106
813797
779794
420187
706072
630797
622321
367677
362107
318133
321888
788626
492791
831840
732902
331337
668475
373473
684538
580794
605858
338448
351995
311239
302072
773527
420778
312846
637567
627167
781016
412740
757855
373931
304920
572528
605681
732854
396756
631045
546923
504914
322507
305729
291878
281952
541310
405158
456680
277925
290417
273353
266523
347463
528002
696389
646382
274202
474073
320968
486743
415674
511952
283359
265327
267749
278387
430556
537905
529064
287174
270577
269590
289261
582677
279353
266666
358267
415373
506681
297185
454407
339755
416545
262685
273001
267866
260138
336556
313366
375370
263417
256167
257906
259842
344548
293281
290773
261013
260561
256139
256326
334706
279950
286055
258542
259695
255778
255306
290676
273532
267676
257294
256129
254805
254343
278154
259138
262839
254428
255159
253960
253674
253251
253246
253245
253245
253251
253251
253253
263008
253979
262494
258494
253676
258802
253652
260305
253902
261558
257925
253549
257173
253608
267750
257737
266860
254282
253597
253574
254350
514097
267634
254289
253245
253245
738085
423365
253245
253245
463590
966174
797094
965209
560045
679463
970612
898918
525032
768913
292154
477872
972943
918814
444743
475494
510527
497082
534978
550917
580231
486428
555720
523431
603743
565478
617327
665459
513041
590856
538388
673679
602885
639720
723805
368619
978431
980828
257551
976797
692782
253631
609585
855005
647857
888239
674604
725459
937220
789027
797920
847743
923079
943033
945425
957968
608751
629529
569642
687897
868810
789037
752338
914369
766569
699163
790699
1.00719e+06
866950
978689
844638
940997
897177
962915
957926
962331
954736
765982
879762
1.00759e+06
828309
1.01188e+06
939263
994657
860959
950872
904070
959149
959766
961447
948453
410148
383385
410994
330398
490308
403216
459690
577329
341822
337695
351250
363703
350160
359080
373056
365294
372174
355683
396855
378800
389919
410050
373021
394990
359133
421155
382224
398003
439337
375340
418510
389023
414399
384406
400110
432143
223785
248319
361376
260193
210248
179575
297784
229950
328752
280700
213266
184770
235059
224724
259980
266806
297204
272528
350733
263548
285996
397350
319612
417395
190198
227360
210374
240339
222745
238407
253510
178790
195002
199082
205626
210235
227058
217806
195393
192934
199532
203137
209415
213672
210297
211918
235876
214159
246834
224422
227276
248395
245826
243549
228805
253143
282865
268384
267681
268989
282355
253341
265092
307078
291888
279923
297414
262821
273840
294461
305869
274189
304215
236605
209766
218498
243100
241952
258124
229748
240345
269450
253439
253928
261486
280030
239601
215824
202528
206352
221132
229334
218920
231414
221665
242158
240902
229914
247254
228096
248296
228138
240610
219693
233533
262395
242782
253876
277764
305619
317433
316285
303398
291913
292431
238442
274681
254138
242273
278857
259256
262656
327409
350256
325783
364206
339173
337701
364348
265937
300695
295572
285895
278279
306722
313299
299830
329209
316294
302776
287440
316358
331115
266794
260736
270335
301738
290512
279608
249688
238136
247067
255787
269027
236467
257283
249158
249375
278586
286400
278812
267393
259581
269075
333680
353882
327976
340280
377039
346641
368751
379738
365151
351595
350979
399965
366329
380883
301506
309439
292740
320512
346960
337061
328652
354553
395565
406615
381111
371590
362228
386209
378118
384109
341003
368700
413078
422838
424408
460492
369798
375315
383842
379223
385827
393036
397636
374980
397708
386716
402374
392079
406101
418300
363301
350900
370533
362280
383763
391344
372615
401745
427875
405060
437370
413536
419312
444874
393734
380689
363239
402140
401573
416153
385640
450921
412641
437207
429142
472347
456519
442930
386154
432832
406757
415110
425306
442496
397203
426967
428725
440988
473169
455882
442365
411293
453486
430342
389898
417026
487194
439748
461156
425712
405678
437179
419006
478786
453437
441555
452580
443087
409933
427832
513925
463407
473214
449307
527648
542515
516461
487678
474869
497959
897997
1.01073e+06
1.00233e+06
1.02571e+06
991350
965545
1.0116e+06
987658
942938
975757
953177
886422
926066
931545
253335
253258
284300
256089
253248
275520
253255
932239
708643
916937
695938
913009
888699
619890
962807
984971
938868
984237
913823
892251
846440
850226
626411
891376
850856
428813
788859
527009
595849
823157
879665
842421
401647
763917
511076
986757
940068
971201
803351
872840
772707
662491
930262
885486
956780
638413
800581
720001
530726
783344
345442
336264
567241
679190
695653
422654
857004
810672
920425
608702
331435
419206
478404
253248
253480
253262
253256
253247
253248
253246
727773
318855
643561
297895
586070
489945
276263
363808
354488
313429
268692
262306
261453
257894
285321
427089
538470
395054
258146
321844
264362
267728
312713
426169
353421
255357
282471
260725
316132
268532
284760
255616
258107
255652
254398
304262
265506
281449
254947
257169
255401
254163
301718
254696
254195
258789
266499
273508
256704
260257
259489
267807
254342
253446
253696
253754
253247
253245
253414
253245
253247
253245
253246
253245
253247
253245
253247
253245
253247
253701
253531
253627
253247
253247
253847
253247
253709
253857
253247
253730
253248
253885
253247
253246
253625
253481
253341
253247
253409
253247
253247
253633
253247
253650
253247
253421
253466
253542
253247
253246
253253
253246
253254
253246
253246
253426
253316
253264
253246
253287
253246
253255
253268
253247
253245
253245
253249
253684
258887
257478
253483
256344
255544
253421
262933
257133
265156
254148
253471
253529
253973
253474
254285
253322
255217
256228
254845
253365
256540
253918
262348
258109
254941
253596
253364
260561
254816
258339
253411
253787
253618
253357
255955
253341
253465
254612
254534
256117
253452
253249
253246
253245
253245
253246
253245
253245
253870
253291
254462
253296
253939
253591
253271
255653
253398
254188
253330
254385
255253
253429
253384
253821
255185
254238
256513
253482
253315
253364
253972
254815
254395
253284
253767
253331
255594
253587
254047
253318
253413
253300
253268
253461
253742
253282
254030
253271
253593
253303
253266
253321
253393
253550
254308
253777
253283
253654
253767
253715
253282
253281
253277
253285
253788
253817
253761
253292
253285
253288
253289
253775
253734
253803
253288
253281
253286
253283
253889
253826
253857
253292
253294
253292
253290
253742
253800
253813
253289
253283
253284
253288
253901
253853
253868
253294
253295
253293
253292
253245
253247
253247
253246
253246
253245
253245
253287
253834
253799
253459
253263
253473
253262
253595
253575
253648
253277
253268
253273
253272
253711
253608
253688
253280
253276
253274
253282
253654
253554
253572
253276
253277
253271
253270
253661
253568
253577
253277
253278
253272
253271
253642
253282
253731
253432
253257
253397
253260
253585
253547
253515
253275
253272
253267
253270
253245
253246
253245
253245
253246
253245
253245
253546
253262
253458
253254
253359
253324
253252
253272
253418
253606
253420
253252
253327
253259
253480
253424
253493
253265
253260
253264
253260
253535
253430
253474
253265
253269
253265
253261
253427
253490
253497
253266
253260
253265
253261
253501
253406
253433
253264
253266
253261
253259
253463
253527
253452
253270
253268
253264
253263
253368
253535
253267
253402
253251
253310
253258
253473
253390
253448
253263
253260
253264
253258
253382
253366
253416
253260
253255
253258
253257
253255
253337
253342
253396
253388
253258
253258
253385
253376
253346
253261
253258
253257
253255
253249
253252
253329
253256
253384
253296
253250
253251
253272
253310
253344
253485
253263
253253
253254
253315
253327
253354
253373
253257
253256
253348
253294
253318
253253
253255
253253
253251
253251
253252
253300
253333
253312
253254
253253
253318
253253
253270
253249
253269
253323
253252
253308
253250
253248
253261
253265
253296
253251
253252
253299
253302
253276
253275
253250
253250
253321
253249
253259
253249
253276
253280
253252
253251
253285
253292
253267
253271
253250
253249
253274
253250
253249
253276
253292
253251
253250
253249
253257
253282
253270
253247
253254
253249
253245
253245
253245
253245
253245
253245
253245
253248
253250
253290
253249
253268
253254
253248
253250
253250
253275
253262
253258
253249
253249
688566
580140
642341
872235
740894
927081
639117
874696
946365
545966
914412
646258
819622
695958
868331
941913
550492
597474
851855
615881
945404
900193
788639
724895
548749
778906
572146
544786
567747
735557
773525
543779
569293
566726
736534
734032
772143
774899
557140
574422
582074
742639
752546
781427
791888
566871
608725
593361
786442
767109
806970
826132
865858
822184
602237
636618
597273
817104
861546
635502
599252
596225
815934
863160
818714
860672
620185
629341
656127
810380
837317
847943
872308
605195
657385
614379
868859
825183
835127
877624
646631
673779
628095
848823
903826
865856
889516
649967
735158
690819
895362
866112
897530
922137
670955
761278
702683
919720
885292
906002
935528
946861
945575
938827
948486
937998
946549
930154
948829
936730
937201
946105
928413
945648
930705
934862
937042
937634
923920
945641
945591
916455
791423
804824
742790
926555
959931
949240
944385
940926
925759
939081
945941
893163
946526
906362
955453
903880
952597
952716
876530
907381
956062
952541
877478
955582
905729
952082
908100
956131
954614
900621
951693
951092
857475
892007
952900
942828
944728
881712
875951
947233
946631
852631
950658
863519
946464
841724
949786
879909
950494
856597
821119
942301
942946
773233
820143
933664
841165
939697
947572
942502
746564
810033
929088
393447
321889
311168
429125
334229
415585
450741
337038
507699
302818
448749
474699
339662
512375
541062
353961
306205
452483
335771
344022
538012
486226
638799
556797
361011
300708
299106
310083
337563
337050
349142
349579
300337
313518
311368
338700
337202
349179
350546
310349
316520
320276
341813
346248
353552
357857
359230
315745
331191
325395
352181
363716
370638
393377
564822
685848
899913
712930
480364
435850
378092
322043
334449
321566
362354
362839
377344
335500
324618
322783
362243
378428
363576
377051
327420
343146
331011
381435
366591
370892
385732
328602
367167
337660
344972
375968
378526
387661
348016
341662
335928
376648
398990
383635
391662
353826
364323
353646
398442
386237
398502
411654
386578
447724
384694
398050
467109
400119
463783
446893
385562
384072
397374
465006
398936
462943
348284
369539
356009
407752
391879
401567
418370
388857
457909
393693
468979
402308
407248
474684
408199
465314
400252
413869
492595
421895
482547
377372
380203
365530
413358
447410
431421
427771
433574
510054
486521
413184
505947
482811
430737
412459
505061
431859
484272
414164
481947
429950
417392
500117
428064
504968
431399
442595
520090
377406
365712
380232
413112
427603
430846
446942
435533
488568
417661
422710
519196
494717
440813
429496
514258
528768
457092
437898
503302
448050
455762
517018
440628
456112
562888
538915
472698
409536
409622
391899
466951
445311
466664
490900
412688
397884
419181
478374
452293
470432
499214
527879
468134
447985
460160
577125
545002
481789
475142
520118
595373
603666
566882
498816
493753
474275
594209
493256
600093
497257
518963
636011
452456
456046
430725
492781
557202
525045
520422
546809
633137
517004
546155
747176
580631
684257
647823
562303
526029
551231
767873
592551
693022
264190
351130
275851
297269
292155
281716
280438
299441
253514
249637
260821
254929
258783
265139
268654
271682
274200
264883
268389
258319
264226
273557
270759
261762
266107
278828
270916
275068
283929
277501
305080
299471
306399
282653
286870
312002
282947
300113
289021
280715
272373
280985
290938
243333
307470
796488
553824
335865
268868
304371
279237
274566
239361
254414
266517
307309
292718
273102
279115
237148
245089
241833
241697
245968
248144
252579
791249
554423
775597
640886
640600
356749
351466
424546
273441
408666
243746
262324
265470
248975
245000
251054
245893
257028
251904
257777
261833
510224
538342
798390
595152
625262
339544
325660
361629
269830
387164
268007
260735
254310
271087
248504
256887
248208
262552
254788
259265
266756
335783
293075
285353
271513
266839
273552
281103
271154
252916
252210
260274
284384
261490
281103
262031
258020
253376
263831
274690
267438
270943
257315
283656
262866
288255
265554
270280
292059
293979
288654
268245
274719
301264
278711
296540
324148
330749
300047
279175
301136
290715
284750
268227
301773
278277
294005
269641
291013
276693
281771
297336
273372
277401
310307
300644
285202
284978
309395
319043
281326
314327
304867
288882
292791
286575
311447
319154
327348
292244
318768
289018
314582
324635
293725
331401
320572
302851
319912
308380
337870
300015
340087
328160
310266
331961
303450
289439
308724
364251
350964
324125
312397
281139
282002
273399
284065
292759
292070
300730
311513
299238
291114
316919
303679
311755
325266
297019
322904
306630
319667
304568
314437
330787
300864
328720
338078
340633
311199
320411
351387
332669
318483
335721
326712
360772
344412
341564
319007
364801
349990
332148
381426
346647
364876
339954
355338
373276
334773
387337
352145
367658
385222
425175
401375
404506
382891
367127
348058
297910
345818
331138
278335
374494
369099
322047
356743
332097
323995
337479
337909
329246
334260
338755
239712
340541
338750
1.17538e+06
264104
242189
322944
316788
235470
396465
438362
1.2725e+06
365766
546410
272287
638235
307788
759632
461919
253056
308487
292249
343658
245665
278138
1.22569e+06
1.28439e+06
1.0847e+06
1.21261e+06
968690
1.11188e+06
882104
324658
320188
239695
348251
252396
339590
253473
277184
286800
338437
325672
360503
261292
268078
236244
265921
268724
235632
235505
265430
264653
483550
330692
320290
359564
364934
305470
323003
270826
294239
303040
248793
244832
274953
278221
1.07175e+06
446579
850631
364459
676110
502289
323165
1.33879e+06
882684
1.07812e+06
996000
1.08976e+06
730114
573984
515058
350018
259342
319047
715115
419374
253098
269057
238467
244826
274565
267313
242114
272227
321556
340490
328025
303341
329634
323973
307053
244123
238270
238631
267718
272058
267094
273649
294981
316441
297283
294274
316418
293719
316169
298326
323072
338348
325989
298772
306347
309592
471134
376106
618409
393069
339029
325796
367987
259752
240887
241691
279505
249854
268226
245923
582717
376292
218786
303594
497964
695932
445971
768030
295827
516569
464707
413922
549595
540753
407104
736437
645537
725587
622689
626941
601738
678653
154622
256561
486419
494009
227073
371993
350303
462386
533738
496681
482229
547850
521863
456934
506498
620028
695905
551895
485035
424327
646909
710168
609866
570713
710507
597374
566879
697434
380147
413157
241835
461131
246125
314012
388540
497452
277299
247542
505687
363515
334021
602061
218661
337369
224741
191513
186549
258908
272408
271868
420821
234023
533610
191821
326359
553422
499387
746449
167144
185246
186454
216259
244211
221330
203510
192435
181635
178566
210617
198944
208445
202270
236517
218398
189434
314700
218615
234181
263828
202124
352851
277252
388280
340894
268503
478312
199605
231849
211407
225269
228545
211243
244241
326064
449738
266784
431976
428451
557990
335237
208555
165137
163815
230177
200480
246867
197123
425526
701801
588575
537147
708662
666661
615601
236103
229048
250627
305967
246512
222340
271991
251660
334521
362355
334475
279876
258876
304741
401695
265017
392419
381330
304026
328603
464496
482828
447499
452934
548089
363154
541826
527958
255139
234570
292649
287751
268302
236433
289207
506599
505837
467923
638237
614617
412495
545233
587415
706325
701074
622338
681107
616038
604660
243345
241026
248748
277596
226976
258279
268100
30068.8
13451.6
55701.6
16221.8
130670
239543
71465.7
77480.1
171230
111834
45304.9
259117
159090
88113.5
225969
20420
81654.1
24278.4
105520
116860
38758.9
30728
15253.9
69185.2
18841.9
32761.7
66156.5
18653.2
148989
316120
424712
377133
351974
232672
161426
314217
13506.4
13957.9
14397.7
16261.6
13588.6
14047.5
14791.2
124494
186304
229161
142590
163769
69256
49054.8
140436
130912
281108
74461.7
113500
30115.7
227376
21405.8
22090.1
40021
21860.5
14040.7
16161
16759
1.34814e+06
925311
1.14669e+06
990877
826710
377173
579390
732704
857434
832235
973391
829343
996589
858000
997468
1.07544e+06
967503
877540
725486
966454
1.38712e+06
444030
556023
846853
889647
1.05634e+06
585236
836853
1.02159e+06
652347
1.08531e+06
1.22156e+06
1.1274e+06
1.23579e+06
1.128e+06
1.21566e+06
1.28933e+06
908970
894802
926476
1.19196e+06
1.12204e+06
1.13145e+06
1.02201e+06
322519
418506
752369
842885
352095
446624
620636
935104
1.22908e+06
1.18745e+06
1.08576e+06
587587
657655
1.04401e+06
760748
683108
817835
831947
918681
935001
797634
1.08312e+06
1.19182e+06
1.07591e+06
960771
1.06663e+06
1.08925e+06
1.17252e+06
1.3521e+06
1.30558e+06
1.26207e+06
1.21995e+06
1.04132e+06
1.22342e+06
1.06806e+06
858007
569078
372491
424543
451415
793858
619482
844596
1.09581e+06
1.00893e+06
1.04467e+06
968277
1.14236e+06
880708
819748
873196
918388
991089
912275
895396
884586
1.27468e+06
1.31846e+06
1.16888e+06
1.19429e+06
1.23395e+06
1.22858e+06
1.26007e+06
914747
759509
972813
1.02694e+06
529054
934800
766799
838048
1.34847e+06
1.01684e+06
735193
918275
815133
648035
425810
826377
971482
752972
908254
785499
925429
961645
593704
508894
720968
529764
687907
818413
624705
992286
1.10633e+06
1.07935e+06
1.02452e+06
1.14265e+06
1.0751e+06
1.06351e+06
642284
689417
582258
828920
794387
895524
928583
847134
826502
799547
937699
1.10304e+06
1.01038e+06
969085
755854
707461
602775
750146
726169
854631
876196
887570
818765
774381
946267
1.03896e+06
988896
974514
1.04566e+06
1.18712e+06
1.24179e+06
1.2424e+06
1.13605e+06
1.11304e+06
1.08719e+06
1.05283e+06
1.0159e+06
941918
919199
911487
1.09847e+06
950772
1.0604e+06
735120
894177
492285
933328
760539
1.07657e+06
160043
158265
113844
144222
123484
18467.3
54861.6
76032.5
25851
16923.1
13673.2
120588
222222
210163
196659
98796.8
312490
171164
15933.1
38241.1
19208.5
44047.8
19960.7
28786.3
58084.9
70840.7
71818.4
106143
100503
171188
117474
89382.4
13605.9
13641.1
14833.7
13648
14923.1
17146.3
14730.9
256388
195006
143569
252815
211777
153196
199366
144007
91928.1
26207.6
205522
238026
173337
152817
212922
203617
112550
226218
198551
166819
224951
89186
68074.7
31652.5
48744.7
95281.5
77422.6
72514.4
57994.4
47741.9
28694.1
47179.5
90684.8
68109.8
75451.1
151046
115808
153949
131480
118127
102500
146806
124636
87248.6
110183
124278
110617
137932
98087.5
26874.7
14954.6
17664
24271.6
28700.3
45840.8
17389.7
23653.7
14567.4
17029.3
23441.3
25320.3
41278.3
16921.3
181530
224233
183110
164108
212639
205497
176796
156489
190650
143875
156542
200766
166807
197683
139404
129768
163714
126780
151455
111770
154682
69127.7
114074
107278
104828
89839.6
91561
92751.2
69607.3
104685
89702.6
107297
92520.2
113275
122946
140352
127014
151748
130146
155133
163553
144082
42225.8
108377
62784.5
58224.5
71383.1
74891.5
25983.4
42928.5
58364.3
71312.7
63319.5
74797.8
107517
113474
168943
184588
209780
204940
175754
203833
179538
169447
205090
176073
209892
179725
184431
210007
142833
111110
105989
142269
192379
173783
159675
172495
142664
162225
172195
171529
157953
181798
138199
121725
112139
137626
165585
164264
143534
121192
153562
113161
145666
199741
180320
163932
127509
146988
117758
140351
170937
169844
146257
148756
181623
168585
175136
176513
186825
160614
190137
208121
182909
189863
218356
197051
212718
216789
200550
190051
193028
225090
202856
216331
282729
638188
294922
350620
262554
254319
321409
298028
318672
324864
302763
295886
299978
322769
321232
328220
314873
325554
306232
314969
321550
242650
245929
242516
273725
269144
273710
277801
347184
341506
332555
334406
319394
321311
334039
296913
324623
299924
318634
295712
319617
302055
246688
249764
255575
289521
281567
279044
286495
247193
253113
269567
255339
273714
280579
260690
175146
215997
223536
219617
203065
199798
194085
282427
300838
266683
260025
282751
254611
298782
165307
186311
213915
188837
192602
189871
166596
236247
229225
219851
198188
215612
207909
205301
182756
184782
202486
187074
193663
172504
191293
301202
320092
296989
301143
329775
305812
324526
261345
255690
247723
279925
290767
286868
283326
331037
317036
308865
306474
338676
315211
329493
304012
265080
288024
293248
282657
270396
307798
338114
332346
331282
324539
339351
329564
335230
288410
259772
278477
288273
276351
297593
267539
336421
335526
341690
341432
348109
345535
354930
287080
308509
299872
290720
313093
321263
299856
346145
356000
345608
359805
346160
350185
363606
341497
331719
337651
307998
322617
317157
313204
299558
321540
308580
299934
290083
277593
313499
357129
360990
349949
356865
380539
370430
366370
310973
331564
319016
331404
324433
343736
311054
305291
344845
328110
335802
331679
352176
314704
357752
339951
357936
345723
343562
362029
326239
583175
821842
832410
684802
631956
624820
751412
932816
888142
706932
690523
766134
912912
916959
37896.4
264139
58122.9
13984.2
14146.8
25084.5
131060
22624.8
134745
298975
154872
176884
156777
158191
286089
311218
66845.4
19448.4
21687.7
98135
36886.4
42054.8
93958.5
182301
126143
131524
149954
181117
177430
147567
45878
17395
17687.1
31154.1
74930.7
28604.4
84960.6
13291.4
13169.1
14311
16374.9
13528.3
16956.3
13528.1
315042
217585
230796
317533
238048
227151
305682
170906
98063
114273
174154
131728
143149
164712
284175
190370
207981
218800
278416
206922
293600
13896.7
13458.4
13389.6
15898.8
13769
16029
13549.3
153757
198694
188682
184691
158387
196276
153481
122317
68226
135151
98426.6
97262
71897.9
120881
62331.7
109291
92906.5
134938
94952.5
57957.6
116682
25714
15560.4
22286
52761.8
50670.7
27781.7
15515.6
182641
146012
159182
191997
195439
152779
177357
314651
249240
244342
236997
304787
245013
306386
23837.5
16152.3
49153.3
22651
48460.5
23831.3
15598.5
230477
284098
235190
297221
241146
222409
297250
79148.3
234795
40012.7
17439.9
14516.8
135220
136582
32712.8
124745
204095
101915
132665
157698
151738
228473
269321
18574.2
50969
22874.4
72041.7
31343.6
41622.1
76785.3
87830.4
88005
119752
116591
148958
138693
108880
168571
213502
156579
253194
190523
177800
230441
13505.7
13774
15514.3
14480.3
17057.2
20280.6
15717.4
65252.8
50847.9
33550.5
57337.7
95946.2
74067.4
86036.2
129579
95277.2
120636
139727
117932
109768
146846
102272
93723.9
61051.6