/*--------------------------------*- C++ -*----------------------------------*\
  =========                 |
  \\      /  F ield         | OpenFOAM: The Open Source CFD Toolbox
   \\    /   O peration     | Website:  https://openfoam.org
    \\  /    A nd           | Version:  9
     \\/     M anipulation  |
\*---------------------------------------------------------------------------*/
FoamFile
{
    format      ascii;
    class       volScalarField;
    location    "0.0004";
    object      overpressure;
}
// * * * * * * * * * * * * * * * * * * * * * * * * * * * * * * * * * * * * * //

dimensions      [1 -1 -2 0 0 0 0];

internalField   nonuniform List<scalar> 
5248
(
2.27048e+06
2.09852e+06
75332.8
2.09635e+06
68198.1
74549.7
1.99256e+06
50917.8
2.04821e+06
54068.8
2.28763e+06
58583.7
51573.5
2.31865e+06
76078.8
2.16539e+06
1.98132e+06
42415.5
42321.8
47381.5
26902
28511.1
54356
31250.8
75089.1
55033.1
67324.8
1.94059e+06
36176.8
2.36928e+06
-9218.36
2.10746e+06
26767.2
37959.9
19683.6
19215.6
-10255.1
-24370.4
24997.8
-25625.8
95012.3
93890.5
2.14095e+06
3.34526e+06
47974
245555
2.2411e+06
239653
229445
2.13596e+06
2.0647e+06
228097
238589
2.11848e+06
64308.9
66923.9
62838.9
84451.7
74765.2
69804.6
36961.6
215713
235943
2.04102e+06
2.02782e+06
229487
223470
1.97625e+06
38389.3
60960.9
56139.8
53491.3
49195.9
46824.5
43422.8
58512.7
58468.5
65997.7
82979.8
57615.1
73389.5
42051.4
225265
1.96353e+06
217895
235831
2.03213e+06
230993
2.06403e+06
44773.8
47590.5
53313.9
60045.1
59845
66671.6
53128
234040
2.00168e+06
223711
2.00444e+06
227152
235431
2.06675e+06
47478.3
51962.7
53811
60914.9
48995.3
59364.7
67183.2
97227.3
2.16187e+06
249528
94802
3.37497e+06
47905.2
2.24219e+06
43423.5
73932.7
66931
59210
83131.4
57153.9
73922.6
59667.4
51164.6
64191.5
54124.7
51612.2
69149.6
58744.7
94797
2.22221e+06
95617.7
3.35982e+06
47939.5
250772
2.2781e+06
59171
71059.8
59202.5
83206.8
58026.5
76101
49017.6
247854
2.29593e+06
96607.1
93019.1
3.36296e+06
48075.1
2.2676e+06
215975
2.05027e+06
230287
234820
2.02448e+06
222846
2.09039e+06
58341.5
65992.6
73407.2
58554.9
83013.4
57616.8
74570
51685.1
46586.7
59515.9
59339.2
52216.9
48324
67341.4
54040.6
39068.2
44247.5
57457.8
61161.3
68007.7
49615.9
32057.4
5448.03
9938.89
42968.1
14669.2
20013.7
36492.5
55573.9
54188.7
22755.2
32333.4
57901.7
29146.2
44891.5
43750.8
61520.4
47431.8
38088.3
48550.7
57340.1
68260.8
9219.83
25081
3778.28
35028
13453.1
42330.7
19463.6
67524.5
64097.3
35885.8
64086.9
84686.6
75082.2
70227.6
44111.1
22176.3
28789.4
55018.2
32412.7
58163.5
28782
42333.1
59351.4
59520.6
52234.9
51825.9
48390.1
46582.6
39197.3
35126.4
49553.2
29580
43093.3
38593.6
27779.4
22545.7
31276.8
40824.5
19037.7
36594.5
15446.9
34885.9
30796.5
30457.7
49890.6
27792.3
40074.2
37620.5
22270.4
26098.2
42195.9
14132.5
9082.6
35982
31450.9
4624
16984
26711.3
40629.4
17237.5
33840.9
32584.6
10544.5
69612.3
72250
71561.1
76947.6
68985
74298.5
73085.2
64999.3
65078.6
64903.7
62026.6
64011.6
62552.3
61670.7
67699.5
70084.4
71375.5
76159.3
73333.1
71548.4
66942.2
59150.4
67491.6
59169.3
53099.8
58003.5
57271.7
63102.5
70686.8
75302.2
71528.5
77239
72624.7
76302.3
71072.6
57454.2
56836.4
50729.2
56841.4
54693.7
58594.6
54172.6
57975.6
48893.3
49755.6
54917.9
40037
57303.4
56650.7
70439.2
72964
72097.3
77116.7
69716.3
74949.1
73926.5
45958.4
55539.9
44410.1
55408.9
32132.8
55625.7
49144.3
63153.4
63201.7
64284.6
61054.1
61734.5
62118.2
59699
321095
66057.7
105412
368537
77511.2
387809
301591
322084
368632
65986.1
104455
391158
77432.5
301349
897694
3.53021e+06
684271
3.51945e+06
790206
788985
3.62704e+06
146199
47974.8
48452.5
120578
52603
130323
130171
63856.2
64514.4
63239.1
68445.7
62513.4
62670.7
67910.1
65174.8
66976.9
67296.4
71828.8
65663.8
69179.5
65948.1
63220.3
63372.2
62470.4
67447.6
61617
62061.3
66983.3
75559
82539.8
82404.9
81321
79168.9
78490.8
78435
70043
72098.8
72526.3
76743.2
74558
69563.8
73664.4
68710.5
68013.7
67757.8
75022.4
66257.5
72494.4
72220.2
60447.1
53404.3
55300
52881
58727.8
59012.6
57945.3
57107.3
62137.2
61363.7
53567.2
62500.1
59178.6
41579.4
54158.5
58531.9
56942
47272.8
59064.8
37094.9
55978.1
57629.5
54076.6
48851.4
48120.2
56577.5
39907
55390.5
58970.1
53434.8
58512.9
67151.9
57099.7
57254
62934.4
59264.2
59351.2
54059
67412.5
57304.4
64262.1
56953.7
63046.7
65875.6
66075.6
68851
67827.5
63328.6
62902.9
72763
81309.6
78140.1
80635.3
77724.1
75025.1
75867.3
65223.1
56427.7
57143.1
71513.6
54255.3
68130.2
69110.2
67223.2
69096.9
71196.2
74851.6
72942.3
67018.5
70129.9
57424.7
56971.8
56969.5
50309.4
58811.7
54651.4
54214.3
56975.7
49565.2
48296.9
53771
40775.2
55304.4
56085.4
52448.1
56843.1
57332.2
61701.3
56816.7
44384.5
54981.5
55627.5
52027.9
61401.2
59732
60561.6
58173.7
40785.6
63454.5
61058.2
62934.6
64376.3
62369.8
60223.9
61956.6
57841.3
49616.9
49097.7
54235.7
41811.8
55741.9
56951.5
56115.1
60774
53594.2
62075
41944.4
61222.3
59262.3
52984.4
61164.2
55944
57301.1
55073.6
44398.9
57399.5
64365.3
61897.2
65117.3
63550.1
60804.9
63188.7
63100.9
329067
378842
107815
68158.1
401598
79853.3
310456
321341
105478
66153.7
368202
301725
390831
78313.3
899632
3.57213e+06
693332
3.51923e+06
794414
801564
3.65551e+06
145458
49721.3
47826.6
121807
132048
54982
132007
58119.8
57706.9
52140.2
57315.8
55707
55688.2
59321.8
67284.1
69554
71942.2
75389
67763.4
70298.5
73347.7
62916
69871.1
66683.8
66676.4
63779.2
63784.5
68241.4
59134.3
67868.4
53425.9
59162.3
63104.1
57969.2
57461.9
72675
81152.3
77920.6
81143.8
75196.8
75151.7
78217.9
64882.7
56152
56367.7
71029
68094.3
53923.2
68004.4
67309.7
71926.4
69593.8
75376
70351.1
67796.7
73322.2
54801.5
57518.2
58332.4
64313.1
47087.9
59706.1
55164.8
59903.3
58140.6
65644.4
64812.4
62031.3
64722.8
45538.5
59583.4
51137.9
49117
54198.7
58758.1
55154.3
42389.9
67324.1
64859.4
68122
63028.9
65597.5
66012.4
61359.7
319660
66333.4
106799
367100
387471
78881.5
299698
325557
375285
67420
106335
306415
78694.9
397091
889041
3.57012e+06
684273
3.5329e+06
787826
784348
3.65258e+06
141687
48600.6
49680.8
119689
128479
55636.7
129002
62637.5
54734.9
60867.5
70116.2
60672.5
58984.7
65651.5
67279
71070.2
71073.6
74155.3
67743.3
72422
67745.1
62684.5
60819.9
54617.5
70033.9
65679.6
58940.4
60624.7
74886.7
81991.6
78206.1
81995.8
76411.1
76434.7
79765.4
67696.8
58209.4
58062
71645.5
69859.9
57242.4
69871.6
70682.4
71501
75319.4
77260
71087.4
72638.8
76303.9
62332.8
61987.6
56623.8
61650.3
59284.5
62096.5
59374.5
328784
106836
378600
67432.6
400263
310129
78844.2
320571
104210
65193.9
365623
299251
389174
77725
898976
3.58545e+06
686365
3.52454e+06
798702
786230
3.67919e+06
143599
49879.2
48157.3
120027
130328
129471
54699.1
59000
66897.8
58624
53316.3
57241.8
62887.7
56912.3
62997.8
68849.4
66086.8
65873.8
63282.8
62872.1
67829.7
67161.4
69024.9
71203.3
74882.1
66946.3
70053.4
72967.5
59214.1
67387.1
54173
59269.3
64163.8
57240.1
56908.4
72686.6
80664.9
78084.8
81332.5
74942.7
75835.3
77740.5
65141.9
56264.4
57163.3
71428.5
67972
69031.9
54050.6
67656.5
71384.8
70009.4
76179.5
71501.4
66896.2
73337
55326.3
59378.9
51768.8
60747.2
40430.1
59833.9
57886.2
51676
60784.8
56477.4
57321.6
53843.5
43342.2
56192.2
56000
47108.2
47960
52637.2
53759.7
39397.2
55132.8
63094.7
64299.2
63137.9
61045.7
59624.2
62075.4
61737.4
58248.4
49384.4
48967
54240.6
40199.4
56864.3
56513
55142.2
48524.6
59802.2
57785
60180.5
37734.2
57237.7
57701
53654.5
62708.7
61460.7
63055
59474.7
41699.7
65955.6
62056.6
65363.4
65512.4
64649.8
62937.1
62654.4
46392
55812.4
44944.5
56166.7
56166.3
32750.3
49241
46362.5
43571.2
54995
55489.4
55680.6
48434
32257.3
44717.2
29717.9
41617
30157.7
43847.4
43390.8
22292
56235.5
57033.6
56737.9
51952.1
56415.9
53908
53330.5
56789.5
53866.6
60929.4
62924.4
41119.6
59868.1
62471.4
54430.1
48072.9
57054.6
59597.7
56973.2
37000.4
59477.2
65512.9
62637.8
65891.9
65323.2
63576.2
62601.5
64585.2
65339.4
67556
71252.5
67542.1
65658.7
69428.5
65643.5
63817.6
64349.6
67874
63108
62058.1
62513.1
67974.7
60134.9
54384.2
52337.8
52323.2
58193.4
58189.8
57732.4
63822
67836
64330.9
63105.3
67987.4
62041.3
62490.6
76291.3
82822.8
82820.5
81705.1
78926.1
79942.9
78931.1
70432.8
72954.5
72088.7
77125.6
73932.1
74955
69695.3
69114.2
68332
68333.8
75458.9
72896.9
66582.8
72890.8
45946.1
55505.8
55399.8
44395.5
49115.3
32111.8
55610.2
44500.3
30047.4
41729.1
30056.9
43808.4
43793.1
22137.6
56205.3
57179
57180.2
52313.1
54000.9
56389.6
54016.2
51742.6
57477.4
60832.4
56509
43430.1
56242
53952.5
55355.8
60741.8
59388.1
51776.8
57889.3
59894.5
40419.6
56046.4
52642.7
47978.4
47119.2
55130.1
39407.7
53831.3
209459
207948
1.98469e+06
1.95925e+06
218983
1.94255e+06
203299
-1524
19298.7
7488.99
-14168.3
28214.5
-1924.19
9718.27
24008.1
14928.9
-8658.2
8072.22
4112.84
26554.1
11431.2
19172
12604.2
-16512.8
6342.66
24770.4
19.4233
6942.7
217031
206837
2.00703e+06
2.10782e+06
212795
216754
1.97366e+06
-22539.3
-1206.3
13258.7
-5884.04
18462.4
-7131.57
-10251.5
204955
2.10013e+06
263453
2.19284e+06
228679
1.9937e+06
214629
-28700
5265.4
-32924.3
-32488.2
-18383.5
-18854.7
-10724.8
10930.2
15259.5
495832
3.06947e+06
4.57595e+06
2.64554e+06
-18644.5
28186.4
1.99082e+06
1.32761e+06
9504.21
459390
-18299
2562.11
-30013.2
25838.5
10838.1
-7444.46
15781.1
26508
-7679.75
7801.8
12781.7
7431.71
19761.4
154.194
-16592.6
13060.4
-9802.91
7131.47
262057
2.1852e+06
2.09545e+06
207938
2.36209e+06
230424
215156
5757.63
-18487.3
-18517.8
-32799.4
-33265.1
-25712.5
-10705.2
-6880.66
49657.4
14611.8
32244.3
102371
-8710.09
4622.83
-265.691
4364.4
129.005
-6927.17
-18632.6
52680.2
-9858.89
9290.93
-8664.43
-13504.7
-11800.9
31186.3
36724.1
-8966.47
-21956.5
3908.47
-21948.1
-8855.08
-18256.2
4700.27
-16109.4
87933.3
-7357.62
-21885.9
-14348
230874
69089.6
24237
515678
396170
3.39529e+06
2.53243e+06
702300
2.77193e+06
309217
349861
3.04402e+06
352099
2.31077e+06
546440
2.64445e+06
249923
-27019.9
114656
-26932.9
-31838
1821.14
17609.1
-34662.8
803980
62391.9
132745
105568
287389
10031.3
240656
543060
11382.8
126031
99308.9
154229
9775.38
121131
41409.2
35110.6
-11415.4
-4833.86
7126.74
-1245.51
-17034.9
3337
32518.6
35353
26600.5
16732
19204.6
26040.9
10287.6
41310.9
27624.2
33012.2
17090.7
18717.7
25862.5
10962.4
3.88573e+06
277270
-27949.8
-8338.5
12186.8
-5715.94
18074.2
-1575.02
-23633.3
-9385.06
-26418.2
14197.1
-6895.73
19031.5
-881.757
-22906.2
2926.94
5598.78
2581.03
-800.962
-8313.71
-2792.43
5843.48
-7996.54
8163.97
875.084
8103.32
3165.4
-2662
6545.34
148992
4.38761e+06
1.64972e+06
46302.6
796098
2.40442e+06
1.27026e+06
61944.6
1.84794e+06
1.61223e+06
43509.6
967243
1.59373e+06
1.857e+06
28442.1
1694.92
41112.9
-15644.1
-21209
-18350.7
-16806.9
40137.6
772.566
-22251.2
-1775.63
27501.2
-18777.2
-17639
57053.5
45124.2
48338.3
238164
259954
306730
198719
62625.7
48994.7
120246
408276
275753
510512
207749
54367.1
134825
115279
396540
253947
201029
475001
47893
52137.7
59863.1
237007
246359
194652
300629
1.98246e+06
2.01081e+06
38202.4
40465.2
2.87636e+06
7693.02
12585.1
3.00373e+06
41733.9
43585.6
38819.7
28491.4
24231.3
23707.9
29856
34624.4
37127.2
42795.8
27284.7
22248.9
29292.6
20069
218015
1.96842e+06
211695
223621
2.10081e+06
2.08592e+06
222131
218387
1.99551e+06
220412
225752
2.15722e+06
227842
2.10553e+06
12189.5
2641.25
35021
9912.08
10181.3
33523.6
6369.31
13727.4
6108.28
11683.2
42238.9
10884.2
11447.5
36039.7
264578
2.39202e+06
429894
2.80023e+06
398776
2.3502e+06
273730
267599
2.4781e+06
2.84668e+06
448360
282138
405056
2.38166e+06
3.65563e+06
836713
739212
1.41924e+06
4.90105e+06
1.59178e+06
4.69642e+06
96283.7
72690.6
213810
382285
963682
477227
816461
3.70788e+06
3.58954e+06
725120
1.52501e+06
4.71319e+06
1.39461e+06
4.61884e+06
278854
96831.1
478306
73406.8
215710
383959
819695
1.8356e+06
579090
3.86072e+06
3.64448e+06
1.09514e+06
974690
3.12805e+06
787782
27505.1
599859
502071
264669
139710
210431
1.14324e+06
920125
2.00863e+06
1.53331e+06
1.33333e+06
756041
1.91024e+06
1.97381e+06
1.61692e+06
878308
1.11894e+06
1.5146e+06
739420
1.88611e+06
841690
875643
1.69464e+06
1.50174e+06
991143
723082
1.60491e+06
981668
850858
1.68806e+06
839347
1.49083e+06
713451
1.60117e+06
4.99747e+06
2.78626e+06
4.42888e+06
2.27928e+06
4.51717e+06
2.7571e+06
4.98787e+06
1.15224e+06
1.80181e+06
1.84834e+06
1.92087e+06
1.29448e+06
1.69532e+06
1.81905e+06
1.80341e+06
1.29577e+06
1.85548e+06
1.15438e+06
1.91781e+06
1.69613e+06
1.81935e+06
2.30922e+06
5.11245e+06
2.78956e+06
4.5172e+06
2.4764e+06
2.77067e+06
5.04214e+06
1315.84
745.533
2396.71
7727.65
926078
1.38827e+06
10.0276
81.6516
0.0178027
0.58403
14672.7
48.4349
900.196
0.0118339
0.122497
0.00754958
1.56364
716.346
17235.2
13904.4
0.00703435
0.0117768
2.59412
0.117794
1.32731e+06
788117
704162
249344
209332
25961.2
34678.3
1.18627e+06
269244
521340
49798.7
130859
13193.1
4364.64
2.22886e+06
43401.3
1.74264e+06
364320
2.02663e+06
1.84701e+06
507300
343724
282675
37357.2
49037.2
196932
250038
948969
816208
851603
213244
89979.9
736672
400710
1.23883e+06
1.67492e+06
1.90163e+06
1.19119e+06
1.06788e+06
1.87908e+06
1.9343e+06
1.90071e+06
1.78199e+06
1.62011e+06
717449
852890
1.78356e+06
2.18385e+06
2.20213e+06
1.66464e+06
1.98439e+06
1.44241e+06
1.80426e+06
2.05027e+06
1.58701e+06
1.80312e+06
2.25003e+06
1.95862e+06
1.61905e+06
1.15456e+06
1.9938e+06
2.06158e+06
2.19826e+06
2.26441e+06
2.15895e+06
291388
1.66098e+06
1.33568e+06
1.5593e+06
1.23932e+06
2.15572e+06
2.1274e+06
886741
158442
630806
1.32619e+06
1.01357e+06
1.9746e+06
161141
5499.74
121979
1769.81
115.575
80.745
2470.57
11127.9
9316.31
7095.59
135.747
299.093
185.433
219.882
8988.2
13315.9
8828.89
285.443
248.179
179.613
159.859
4972.69
61.4123
3836.53
387.024
8.35407
6.09983
520.868
60386.4
588.87
17145.3
815.624
8.45865
34.4358
227.148
3530.47
582.883
2653.52
47.9862
13.7658
65.0176
10.5008
678.154
31.096
2016.92
193.332
0.815287
2.89069
58.7255
4816.88
571.249
3003.46
53.5036
15.9561
86.8836
10.0351
711.372
3409.79
3387.23
13.2952
63.1881
57.7335
12.2083
12715.5
12423.1
8776.46
206.214
189.042
129.795
150.954
770.932
5630.02
3565.15
50.2397
14.732
10.8434
64.0005
254.991
220.327
1100.48
19.3632
0.764854
4.31365
3.66189
2.56836
6.00126
0.0752703
0.087704
0.0547043
3.61718
4.26276
5.75408
0.0735299
0.0909158
4.61938
3.51883
2.89714
0.0586967
1.41691e+06
1.60577e+06
1.52742e+06
6797.58
1.30662e+06
2060.52
78.3112
474.634
1.25348e+06
1.09295e+06
1.1439e+06
1.04426e+06
1.02492e+06
974879
1.00731e+06
1.41297e+06
1.40767e+06
1.25006e+06
881151
979196
902330
772258
1.59384e+06
1.51151e+06
1.47736e+06
841817
624217
566503
887394
1.54346e+06
1.58081e+06
1.56335e+06
739961
263927
441946
564967
234061
5758.21
208686
153918
4417.68
177350
3592.61
102058
4040.74
164848
110675
1023.46
2269.3
57311.4
77627.6
27140.4
1833.47
369.75
21276.2
95148.6
1437.6
47579.1
5086.08
351.636
207.674
12267.5
836.889
20925
110268
1.34705e+06
169583
1.8779e+06
2150.18
-9082.95
651740
1.06055e+06
4557.98
29064
29433.4
33386.9
-368.442
-2052.47
31578.7
-4545.64
-880.577
54325.9
39961.5
32010.4
38839.2
-4655.15
91354.1
-2540.59
-976.365
47193.3
-6156.95
-7390.23
42269.9
590494
455474
496628
122884
132653
171858
154645
326524
37437.7
7399.84
-5130.49
116910
62564.8
-8762.94
811333
796458
599727
336919
223923
158469
217619
1.44247e+06
961008
876031
580217
500993
281775
245602
1.62936e+06
1.44462e+06
1.14779e+06
778737
1.13859e+06
610678
381328
54453.5
4.23666e+06
6123.93
463036
788.131
5.39266e+06
1.03439e+06
466873
4.12561e+06
1.77104e+06
1.18103e+06
362022
1.38004e+06
2.22462e+06
111408
1.66572e+06
1.74427e+06
398874
64734.7
231621
252164
106446
456124
765614
1.27891e+06
867815
276212
237191
98941.4
427716
494577
813389
913589
121.655
1.58916e+06
1.45573e+06
64378.9
0.53568
462056
2.24909
4.72534e+06
1.46936e+06
1.04961e+06
5.14553e+06
1.93065e+06
2.46178e+06
5.40989e+06
876423
182750
433466
1.28764e+06
733091
1.20925e+06
1.75134e+06
0.678968
432988
1.38353
5.67171e+06
2.4678e+06
140014
23203.4
0.0703664
60272.2
0.768548
1.97245e+06
2.26548e+06
26677.4
2473.16
1.48303e+06
720953
632930
1.94063e+06
1.43493e+06
1.53111e+06
1.99671e+06
1.92551e+06
1.45707e+06
673920
1.9633e+06
2.00759e+06
2.39402e+06
1.50956e+06
1.17419e+06
1.79445e+06
1.28265e+06
1.66187e+06
1.59832e+06
1.68092e+06
1.68557e+06
1.23339e+06
2.06673e+06
1.67025e+06
2.08411e+06
1.65356e+06
1.85938e+06
1.66742e+06
2.20841e+06
5.95841e+06
3.13087e+06
3.07105e+06
5.29702e+06
3.33397e+06
5.60008e+06
1.75805e+06
1.57238e+06
995076
1.79008e+06
2.13709e+06
2.12903e+06
2.20042e+06
1.99519e+06
1.83579e+06
1.56821e+06
1.89776e+06
1.26379e+06
1.60265e+06
2.11423e+06
5.13136e+06
2.73542e+06
2.73759e+06
3.02156e+06
3.63947e+06
2.4302e+06
5.02379e+06
1.5996e+06
1.5402e+06
741231
1.38285e+06
549131
419928
230810
2.24777e+06
1.53291e+06
1.14284e+06
385399
1.72694e+06
1.24937e+06
1.9338e+06
1.5461e+06
1.18225e+06
1.88777e+06
1.93383e+06
403433
1.57569e+06
1.2038e+06
2.04707e+06
1.81996e+06
1.73905e+06
2.10522e+06
1.99216e+06
826413
741553
2.03303e+06
1.79987e+06
1.72655e+06
1.8297e+06
1.75679e+06
774200
766356
1.98475e+06
1.00949e+06
561669
264033
1.4593e+06
1.03185e+06
1.83881e+06
2.1908e+06
1.4258e+06
1.77665e+06
1.29755e+06
1.68555e+06
593788
227063
3.02458e+06
3.71238e+06
2.70635e+06
586254
2.38886e+06
1.69549e+06
4.61963e+06
1.03566e+06
462039
1.03668e+06
66706.4
283223
66948.4
9193.09
3.50269e+06
4.59215e+06
4.32107e+06
2.95721e+06
2.78263e+06
1.34351e+06
2.50035e+06
1.14394e+06
202301
833776
10500.1
112039
36257.7
2941.56
45600.1
310.309
18854.4
182.493
10967
4109.55
61.6748
58160.6
789008
881765
58538.5
1322.27
1288.51
54636.4
596841
23428
650280
43798.9
804.39
761.665
41731.3
59229.2
809375
819104
59147.7
1474.32
1399.61
60309.8
629031
26144.9
635945
45820.5
912.506
46813.7
863.978
2859.21
435.882
487.151
9.87995
2340.66
61.3051
1.42925e+06
1.59958e+06
1.61583e+06
7418.2
1.25438e+06
478.108
1.31349e+06
1.13353e+06
1.08499e+06
1.06615e+06
1.05677e+06
1.00026e+06
1.02695e+06
831900
4957.66
1.39403e+06
375.226
81.1013
0.0132506
0.573782
1.56078e+06
1.42951e+06
1.25072e+06
926863
1.02135e+06
926470
791193
1.60136e+06
1.48549e+06
1.5278e+06
852598
630367
561157
900646
311.441
0.00878326
0.0269214
15651.4
11928.8
2.32706
0.0878371
1.38203e+06
1.54002e+06
1.58952e+06
740503
229976
419098
548525
6509.87
250831
231060
162950
4653.87
185849
3806.65
0.0347731
191.859
0.0181801
7941.97
2938.14
5.68798
1.56637
115818
4576.59
183494
115629
1018.9
2335.59
58576.2
1.31364e+06
788247
677158
250054
199159
23613.7
34441.9
385674
4213.01
0.00665586
0.198252
0.00113161
2.97707
0.00965614
78543.1
353.524
27486.1
1879.44
20535.4
97922
1432.49
1.14326e+06
201240
461497
35997.9
111607
10467
2919.02
45437
309.407
4086.86
181.602
10921.1
785.04
18800.8
13410.6
2.36663e+06
2.26192e+06
2.02511e+06
47191.7
2.09909e+06
29806.2
2.09237e+06
59708.8
-7393.76
2.10203e+06
29269.3
2.05434e+06
1.96801e+06
53121.9
27684.1
41336.1
51606.6
42459.1
41377.4
33250
42454.9
33775.5
38264.1
24241
28554.7
43558.5
23811.8
41779.1
38833.9
239337
2.05752e+06
235025
224191
2.01126e+06
228807
2.0038e+06
54346
67196.3
60904.3
47538.7
53830.1
52339.4
48997.8
34564.3
22226.5
27257.4
42761.3
20014.1
40429.7
37110.8
233265
2.09417e+06
239417
219328
2.00359e+06
227182
1.97655e+06
59732.2
59839.1
66697.3
44709.8
53312.4
50951.4
47579.3
35046.7
43030.7
29587.6
38586.7
49556.6
36097.3
39212.1
53206.2
61197.9
57839.3
56338
44732.2
55333.4
57667.1
64367
63429.1
65122
61906.7
60797.8
63097.5
63128.3
56099.3
60764.9
62063.9
53600.6
41922.8
59288.7
61208.3
57860.9
54255.7
49617.7
49118.2
41841.6
55774.1
56971.5
52472.7
61518.1
57501
56521.7
54912.5
44386
56961.4
55601
59724.7
61409.1
52025.1
40782.3
58180.6
60525.5
63384.4
62846.6
64380.8
61101.1
60184.3
61969.1
62267.9
56919.3
53804.5
49541.6
48283.7
55297.8
40726.3
56097.6
-527.944
14476.6
-2523.41
31437.7
18769.3
30874.6
18079.9
226417
2.00276e+06
218892
218997
2.02895e+06
213930
2.00354e+06
7754.74
-7594
10850
12726.6
15815.7
26442.9
28208.5
203892
1.95156e+06
208586
2.00004e+06
220264
210501
1.9527e+06
2.15108e+06
225155
227253
218216
1.99537e+06
220558
2.00902e+06
2.08107e+06
222019
223085
212156
1.98415e+06
218290
1.97421e+06
2.18837e+06
262214
230482
2.10248e+06
215548
208451
1.99866e+06
2.4817e+06
236200
268242
216386
2.17238e+06
221396
2.05058e+06
755666
1.69693e+06
1.57374e+06
2.12746e+06
41340.1
4585.28
12531
2.77429e+06
29510.2
-9154.29
2.00891e+06
739090
227104
1.12119e+06
768614
2.65352e+06
5.14736e+06
2.37199e+06
13675.2
4.69411e+06
207373
14763.9
2.38928e+06
6278.88
2.30272e+06
777067
1.52456e+06
253633
1.28771e+06
-5716.96
494550
6584.28
-18831
237795
816149
-851.385
-21214.3
23853.4
852525
300212
1.68775e+06
965823
10950.9
11406.5
6141.98
42398.5
11642
36042.7
12574.8
12095.3
2596.46
10188.7
34962.5
9877.26
33505.6
7593.52
899.434
-2668.76
-8008.12
3326.46
8085.49
8177.4
3113.36
5918.25
-8327.45
-2792.05
2553.88
7124.76
5547.92
2895.39
25656.3
-871.828
746.108
62560.3
48596.4
19904
125342
2.49364e+06
6.13725e+06
1.93412e+06
5.60324e+06
1.97107e+06
3.3996e+06
80725.3
765333
1.37865e+06
2.24371e+06
2.2004e+06
1.43211e+06
22139.9
606506
4631.09
-8544.83
-6872.67
102847
32550.2
49743.6
10971.6
-3778.42
-13062.7
-9779.32
11287.6
43054.7
14784
44881.8
-8767.68
-12117.7
-13631.6
30934.6
36101.6
9080.79
9409.51
1.62171e+06
363720
1.855e+06
27352.1
1.98858e+06
925536
347582
2.46864e+06
266521
281157
447496
2.8371e+06
403958
2.99385e+06
2.34207e+06
273060
263485
428850
2.79118e+06
397481
2.87108e+06
-22300.5
-17073.8
-17714.5
728.2
27398.4
-1852.3
40130.3
-18387.8
-16821.5
-15642.9
1628.55
28402.8
-1298.24
40963.1
1.99609e+06
841326
1.28354e+06
24524.9
2326.34
426484
55306.7
306713
198279
259849
61926.1
45005.1
57019.5
48220.4
5.04147e+06
5.13266e+06
1.67437e+06
50186.3
20308.1
701677
402749
878365
2.93276e+06
2.4048e+06
119802
40992.8
740753
421767
1.80286e+06
1.62677e+06
981432
42800.5
436343
3173.46
54096.9
408372
511406
275692
149390
48868.7
120319
62569.5
200589
474888
396439
134782
46163.9
115303
54206
236612
246183
194165
59764.2
43394.2
52062.9
47795.2
2.53178e+06
396225
308795
3.39682e+06
702840
515222
3.06731e+06
-23273.1
-13329.1
-7818.83
15577
253887
91740
79478.8
2.95746e+06
320019
413124
547142
3.6817e+06
754567
3.26337e+06
-14722
-22036.4
-7519.85
67966.8
229055
14906.2
87232.7
287970
26367.4
148225
174406
338872
942443
609849
140611
20455.2
161872
164023
189609
653487
572299
1.28508e+06
869881
456919
232960
252945
106635
470132
1.41983e+06
4.89986e+06
1.59389e+06
836896
3.64941e+06
738695
3.87945e+06
410190
1.159e+06
696320
412389
210466
203944
88374.2
4.70988e+06
4.6147e+06
1.39445e+06
795189
3.58233e+06
724227
3.70282e+06
812993
912784
427728
111199
236458
98761
275277
963440
381942
477185
96241.6
213494
72555.1
277114
471441
735713
393347
199933
243785
102546
85840.4
819131
477403
383557
96516.9
215392
73299.7
278086
281357
48097.2
36107.5
195627
251825
961572
817302
285738
12.2957
37868.8
2.50339e+06
194954
2.22295e+06
1.40864e+06
1.9357e+06
5.41515e+06
2.47012e+06
1.05173e+06
4.72775e+06
1.47464e+06
4.23379e+06
1.82215e+06
5.05114e+06
4.86179e+06
4.32474e+06
1.36355e+06
982318
3.95014e+06
1.75164e+06
733002
1.20853e+06
182572
876153
462889
432651
1.26842e+06
1.15646e+06
717499
399297
822071
175233
450748
4.08006e+06
615757
1.0628e+06
4.30461e+06
1.19583e+06
2.06633e+06
5.26367e+06
169646
39363.8
264683
681425
309835
917731
1.50164e+06
532018
239348
94836.2
800593
419005
1.2842e+06
1.76669e+06
991632
722371
875857
1.69535e+06
1.50073e+06
1.612e+06
1.60525e+06
738927
1.27062e+06
1.11891e+06
1.51386e+06
1.97423e+06
1.88572e+06
1.61755e+06
838877
851082
712562
1.4899e+06
1.60174e+06
1.68861e+06
1.59472e+06
1.14347e+06
1.33506e+06
920573
1.53223e+06
1.64934e+06
2.00874e+06
1.90944e+06
3933.7
4.61431e+06
2.24762e+06
5507.79
134.541
0.245935
0.223152
46677.4
1.83834e+06
1.88404e+06
184.721
80.6879
1.24705
16.358
1.45756e+06
917516
597412
1.93715e+06
2.06314e+06
1.45816e+06
2.4952e+06
1.51141e+06
675589
1.041e+06
1.93262e+06
2.00702e+06
2.39684e+06
1.45853e+06
1.48427e+06
563471
644392
1.48231e+06
1.98475e+06
1.37659e+06
2.04592e+06
1.52824e+06
630875
718458
1.47899e+06
1.93576e+06
1.99324e+06
1.37589e+06
1.74765e+06
716397
857007
1.79725e+06
2.18942e+06
2.20018e+06
1.66955e+06
1.91592e+06
1.20828e+06
1.07068e+06
1.89669e+06
1.93893e+06
1.88591e+06
1.78928e+06
1.80287e+06
1.15265e+06
1.29523e+06
1.84934e+06
1.92349e+06
1.84986e+06
1.82053e+06
1.16414e+06
1.97316e+06
1.5742e+06
2.08092e+06
1.77987e+06
2.03419e+06
1.77238e+06
1.59802e+06
1.6806e+06
1.17499e+06
1.79429e+06
1.65733e+06
1.743e+06
1.68305e+06
4.99552e+06
4.98573e+06
2.27971e+06
2.78529e+06
4.51249e+06
2.75614e+06
4.42378e+06
1.69714e+06
1.29524e+06
1.15463e+06
1.91888e+06
1.8207e+06
1.85558e+06
1.85661e+06
1.25232e+06
1.52278e+06
1.12556e+06
1.79882e+06
1.75859e+06
1.74677e+06
1.75361e+06
2.31037e+06
5.11306e+06
2.4795e+06
2.78941e+06
4.51316e+06
2.76969e+06
4.38368e+06
2.08908e+06
1.66905e+06
1.235e+06
1.6491e+06
1.76956e+06
2.06571e+06
1.85507e+06
1.58204e+06
624586
1.49121e+06
2.28089e+06
2.24292e+06
2.2891e+06
2.46711e+06
2.00489e+06
1.89183e+06
1.49029e+06
2.09047e+06
1.4759e+06
1.75864e+06
2.27232e+06
3.18607e+06
5.19344e+06
2.01191e+06
3.18976e+06
5.78706e+06
3.55793e+06
6.13965e+06
3.08018e+06
5.39943e+06
2.21758e+06
3.13941e+06
5.29338e+06
3.33616e+06
5.96306e+06
1.76353e+06
1.4904e+06
905461
1.76228e+06
2.30553e+06
2.24346e+06
2.21181e+06
1.78826e+06
1.57207e+06
993075
1.75546e+06
2.1367e+06
2.12749e+06
2.22427e+06
2.2593e+06
1.69948e+06
1.18661e+06
2.03577e+06
1.97215e+06
2.18339e+06
2.30732e+06
1.98234e+06
1.86905e+06
1.54996e+06
1.85632e+06
1.35531e+06
1.67829e+06
1.69539e+06
2.11445e+06
1.56898e+06
1.89748e+06
1.8359e+06
1.26386e+06
1.6668e+06
1.60153e+06
2.63223e+06
4.96868e+06
4.99025e+06
2.79759e+06
3.90119e+06
2.66356e+06
4.23137e+06
-25853.7
-9937.05
1.49725e+06
9530.91
146926
1.17221e+06
8129.72
50133.1
-4300.95
26046.7
-1589.14
68269.3
42371
25902.8
-6899.66
-25741.6
61149.8
27776.2
36514.6
9749.08
355849
34511.5
798087
108988
1.35177e+06
-92.43
585020
2.82586e+06
2.05241e+06
14444.9
124047
3.27055e+06
4.30254e+06
336219
-12128.3
-984.568
-21937.8
-7795.06
11423.1
574212
1.50215e+06
38768.4
29594.9
39019.1
29580.9
28463.1
38748
20416.2
26595.8
19205
16731.4
41396.5
10267.3
35339.3
32534.2
61532.9
57354
48555.9
38091.2
54354.6
47431.3
43778
35052.9
13479.5
19502.1
25107.8
9271.1
31293.8
3801.31
27604.3
18670.6
17092.3
41319.2
10918.6
35078.7
33022.2
68028.6
49614.3
57439.1
39074
54055.3
47374.4
44265.5
37608.3
49883.9
22271.8
30466.4
40067.4
30779.2
37944.2
42983.5
14729.8
20053.3
26922.2
9985.52
32079.9
5512.46
65537
65907.9
65325.5
62624.5
63564.1
62604.7
64593.9
57748.1
62708.6
61481.9
53646.2
59481.6
41726.6
63092
56781.3
62932.3
60927
53903
59881.2
41112.9
62479.6
54434.7
59613.6
57084.8
48116.8
37015.6
57008.9
59500.2
57973.3
54916.6
49775.9
48877.3
57309.3
40007.9
56639.5
65993.9
65515.1
65376.3
62082.6
62950.5
62670.3
64686.9
55152.2
59801.2
57772.7
48541.7
57256.7
37741.2
60181.1
58279.2
54267.7
49354.9
48996.2
56870.7
56534.9
40211.1
7344
-16766.6
83.4016
13011.3
7090.84
19720.4
25794.6
-8351.13
-1069.62
-17779.9
17915.5
12737.4
25960.2
4239.35
17050.5
26309.8
5780.46
17054.6
-18309
-4309.45
5903.17
19311.9
28223.1
-14081.4
-1889.78
7540.74
19695.5
-1451.88
30869.4
31328.3
-782.769
18768.7
17991.6
13268.2
-2570.85
17952.9
8200.46
26010.4
-17587.2
12804.1
4304.19
-8180.62
-8388.29
-28010.7
-23671.6
12189.6
-5687.24
18102
-11437.9
-897.067
-22909.4
-26380.3
14207.7
-4798.49
19046.5
-9317.54
25996.3
3288.22
27136.5
29952.4
-1739.4
-4721.13
29700.3
-21124.5
-34692.5
-31952.6
2415.71
-36428.6
-21988.4
-15471.1
1.88891e+06
235488
60572.1
94669
1.7585e+06
2.24209e+06
572718
-32947.6
-18497.7
-30019.7
-10677.2
-33171.6
5772.73
-18409.4
-8302.14
-3845.59
27656.6
34550
-13138.7
-8293.7
50799.8
216572
268427
2.17376e+06
2.26725e+06
221460
236652
2.48543e+06
-31907.6
-21032.1
2445.95
-34555
-36399.4
-15417.8
-25820.7
69233.5
-8454.88
20922.2
9345.64
-2355.21
-3335.13
-8487.18
62011.9
48379.4
19842.5
-907.994
25095.3
12266.4
659.777
17060
-18872.7
14837.9
-18742.3
-8209.76
-18118.8
-11985.4
89569.6
-2883.01
-3707.22
44363.2
-7436.42
-9876.84
40631.6
45359.3
-12951.6
43470.4
14892.2
-5631.4
-9498.38
-3533.6
645730
482508
447207
125872
119198
166155
151271
3.31191e+06
359246
574901
359163
2.43054e+06
254333
2.82746e+06
3.68448e+06
752825
547083
412973
2.66131e+06
320587
2.9624e+06
91737.7
254055
15689.7
79883.2
-23177.1
-13130.9
29582.3
-11815.8
6346.72
-6704.97
122173
42163.2
175315
355193
7910.76
-24957.5
29860.2
-24880.4
-31315.2
-36940.3
7954.03
175744
42219.3
6379.45
60695.8
-6692.2
-11803.5
122335
1.07713e+06
212518
798517
584009
149509
212711
337838
937997
608905
173826
286999
148041
80005
26228.1
655709
190857
165043
141036
162331
20833.3
22477.9
1.46173e+06
874491
967195
585792
499459
279400
242735
1.9356e+06
1.67334e+06
1.17329e+06
1.20638e+06
807843
387990
639320
1.49623e+06
387353
638667
1.67142e+06
806322
1.20453e+06
1.93402e+06
1.1917e+06
5.25823e+06
2.06002e+06
4.07916e+06
1.06129e+06
614782
3.40108e+06
919591
681868
310940
606762
265166
39715.6
169861
418686
799798
239024
1.28278e+06
531024
923774
1.76415e+06
774026
174537
29148.1
309782
174439
773300
1.52011e+06
2.08922e+06
1.76284e+06
1.11264e+06
1.76157e+06
1.85712e+06
2.29416e+06
2.08895e+06
2.00355e+06
2.08818e+06
1.48807e+06
1.88897e+06
1.47741e+06
2.27067e+06
2.00875e+06
1.48977e+06
1.4081e+06
624030
1.58e+06
2.46684e+06
2.28004e+06
2.28699e+06
2.74322e+06
5.02305e+06
3.02683e+06
2.73417e+06
3.63201e+06
2.4254e+06
4.12086e+06
1.44773e+06
272038
1.30997e+06
1.44429e+06
420389
277464
1.60524e+06
1.47234e+06
375729
1.44529e+06
1.34111e+06
331046
279863
1.38335e+06
2.47071e+06
821762
1.81902e+06
1.73616e+06
1.98776e+06
2.04701e+06
2.10387e+06
2.03015e+06
774833
1.79866e+06
1.7232e+06
1.75572e+06
1.96854e+06
1.82928e+06
1.31999e+06
1.46501e+06
297916
375458
1.33728e+06
266284
1.44541e+06
1.46266e+06
1.53442e+06
322547
446189
347239
1.62755e+06
1.37735e+06
1.93145e+06
1.54127e+06
1.57374e+06
1.17646e+06
1.20088e+06
402521
395924
2.15144e+06
1.66474e+06
1.33676e+06
271397
1.53118e+06
1.20489e+06
2.16084e+06
1.93171e+06
1.52811e+06
1.7209e+06
1.13688e+06
1.2413e+06
379293
358079
2.18952e+06
594332