/*--------------------------------*- C++ -*----------------------------------*\
  =========                 |
  \\      /  F ield         | OpenFOAM: The Open Source CFD Toolbox
   \\    /   O peration     | Website:  https://openfoam.org
    \\  /    A nd           | Version:  9
     \\/     M anipulation  |
\*---------------------------------------------------------------------------*/
FoamFile
{
    format      ascii;
    class       volScalarField;
    location    "0.0004";
    object      rho;
}
// * * * * * * * * * * * * * * * * * * * * * * * * * * * * * * * * * * * * * //

dimensions      [1 -3 0 0 0 0 0];

internalField   nonuniform List<scalar> 
5248
(
6.61361
6.73063
1.83328
6.333
1.78224
1.83334
5.80126
1.57603
6.10038
1.61074
6.46077
1.66495
1.73431
6.93895
1.85517
6.35131
5.81591
1.53027
1.55763
1.55853
1.39649
1.43783
1.62059
1.43132
1.80535
1.64354
1.78292
5.46551
1.46556
4.93601
0.990268
5.62176
1.42329
1.48261
1.3315
1.35583
0.985466
0.756855
1.39571
0.83014
1.80967
1.86409
6.30983
8.08427
1.60206
2.13574
6.40618
2.24786
2.21498
6.98002
6.453
2.14621
2.29617
6.64879
1.72039
1.74964
1.72634
1.88805
1.80471
1.76976
1.48534
1.93883
2.14239
6.10591
6.09861
2.04914
2.03553
5.80163
1.51793
1.70332
1.67326
1.6698
1.60272
1.5832
1.56286
1.67225
1.72403
1.74818
1.87812
1.67893
1.79491
1.52436
1.96275
5.67958
1.91315
2.06891
6.00458
2.0281
6.06159
1.53859
1.56848
1.61481
1.67519
1.69186
1.73786
1.61806
2.04483
5.87526
1.96248
5.86663
1.97911
2.06247
6.08132
1.55574
1.58055
1.61982
1.68695
1.58253
1.66338
1.74008
1.81565
6.29965
2.1249
1.80084
8.08665
1.59086
6.3873
1.50191
1.79625
1.73735
1.66987
1.87499
1.66677
1.79621
1.76637
1.76147
1.8233
1.70124
1.70887
1.80872
1.81927
1.89594
7.06597
1.90013
8.17887
1.61394
2.34982
6.85833
1.7486
1.86427
1.7484
1.88515
1.6919
1.85532
1.69015
2.14426
6.48841
1.81807
1.8584
8.097
1.60339
6.59777
1.94025
6.12832
2.05285
2.13781
6.09819
2.03421
6.32261
1.67108
1.74812
1.79502
1.72497
1.87836
1.67902
1.83348
1.63747
1.59294
1.69765
1.74265
1.6694
1.62891
1.78306
1.61688
1.4955
1.53028
1.65992
1.69695
1.7477
1.59272
1.43349
1.19317
1.2356
1.53512
1.30468
1.34893
1.49129
1.64857
1.65329
1.38818
1.47246
1.67193
1.4371
1.56668
1.52921
1.69197
1.56699
1.49742
1.58341
1.65816
1.74877
1.2344
1.39324
1.18894
1.48184
1.29994
1.53087
1.34709
1.74225
1.71748
1.46968
1.71742
1.88636
1.80529
1.77032
1.55478
1.38327
1.43438
1.64342
1.4722
1.67165
1.43428
1.55758
1.74277
1.69771
1.66948
1.63701
1.62904
1.59288
1.50075
1.47009
1.60226
1.40932
1.5523
1.51051
1.36852
1.37365
1.44927
1.55735
1.33571
1.53474
1.26428
1.49208
1.42702
1.43794
1.59471
1.39017
1.52017
1.49392
1.34264
1.4141
1.54931
1.30796
1.24923
1.49885
1.46056
1.20042
1.32186
1.4144
1.53934
1.31619
1.47468
1.47237
1.24951
1.77429
1.80162
1.79891
1.83887
1.77356
1.81385
1.80647
1.7476
1.7479
1.74919
1.73663
1.73818
1.73263
1.72885
1.768
1.80325
1.79981
1.83724
1.80995
1.80596
1.77112
1.67086
1.72396
1.67154
1.62689
1.66191
1.6538
1.70624
1.81883
1.86058
1.82556
1.85375
1.82376
1.85638
1.83788
1.68581
1.65757
1.63318
1.67002
1.66264
1.6871
1.67267
1.65357
1.56824
1.579
1.63704
1.49661
1.65521
1.64759
1.76811
1.78688
1.77986
1.82339
1.76019
1.80557
1.79811
1.56908
1.64124
1.54771
1.64559
1.44194
1.64881
1.60037
1.75633
1.75563
1.74797
1.7381
1.73472
1.74097
1.73804
2.41845
1.69361
1.82237
2.49855
1.72645
2.51003
2.36132
2.45716
2.58363
1.73295
1.8475
2.57636
1.74262
2.42017
3.80814
8.54492
3.4615
8.41008
3.56644
3.62449
8.79972
1.98282
1.58925
1.61571
1.9618
1.62766
1.93998
1.97002
1.72027
1.71961
1.71393
1.75126
1.70767
1.71145
1.75175
1.73503
1.75251
1.74742
1.78131
1.74072
1.76883
1.73719
1.72116
1.72934
1.71827
1.75572
1.71333
1.71367
1.75596
1.81799
1.87697
1.86967
1.86246
1.84789
1.83817
1.84371
1.77116
1.78156
1.78761
1.82291
1.80875
1.76352
1.79821
1.76234
1.7534
1.75614
1.81241
1.74257
1.79057
1.79386
1.69468
1.62535
1.64225
1.62798
1.68554
1.68215
1.6771
1.66975
1.71293
1.69674
1.6277
1.71651
1.6941
1.52495
1.64848
1.68895
1.6703
1.58683
1.69355
1.4967
1.67361
1.68281
1.67801
1.61031
1.61288
1.68781
1.52935
1.6832
1.68587
1.63748
1.67216
1.74306
1.67331
1.6728
1.7112
1.70362
1.72337
1.67829
1.77974
1.69334
1.7525
1.69969
1.72541
1.74827
1.74148
1.77475
1.76125
1.7266
1.7315
1.80086
1.87033
1.84078
1.85634
1.83866
1.81203
1.83062
1.74206
1.66435
1.68692
1.78922
1.65725
1.75756
1.77979
1.75186
1.7585
1.77923
1.80804
1.79765
1.74842
1.76986
1.68547
1.65787
1.67028
1.62961
1.68846
1.66213
1.67239
1.6551
1.58376
1.56607
1.63085
1.50871
1.64683
1.64908
1.62308
1.62426
1.65922
1.68778
1.66581
1.5246
1.64162
1.64639
1.60426
1.69555
1.69236
1.69913
1.66418
1.51519
1.71483
1.69044
1.7055
1.71956
1.70805
1.68521
1.69858
1.65761
1.58352
1.57519
1.6345
1.51788
1.64828
1.65428
1.63909
1.68061
1.61203
1.69186
1.51464
1.68692
1.6686
1.61732
1.66709
1.6107
1.65351
1.63825
1.51291
1.65557
1.71452
1.69619
1.72009
1.70704
1.68704
1.70411
1.70436
2.41678
2.52526
1.81467
1.69972
2.54404
1.71572
2.38214
2.39536
1.80056
1.68579
2.49151
2.35318
2.51046
1.70588
3.74964
8.42621
3.46201
8.38533
3.56261
3.56419
8.71331
1.9425
1.59435
1.57883
1.95395
1.93773
1.61795
1.93674
1.66209
1.63125
1.61195
1.62961
1.64339
1.64375
1.65563
1.73976
1.75791
1.77851
1.80881
1.74236
1.76626
1.79163
1.70321
1.75675
1.73423
1.73418
1.70955
1.70962
1.74929
1.67079
1.72717
1.62982
1.67164
1.70642
1.66174
1.65541
1.78537
1.85704
1.83313
1.85695
1.80792
1.8075
1.83202
1.72067
1.65373
1.65576
1.77818
1.75057
1.63192
1.74961
1.73999
1.7784
1.75837
1.8087
1.76674
1.74266
1.79143
1.75207
1.72817
1.73811
1.81293
1.66158
1.77736
1.72689
1.79132
1.76965
1.80939
1.84462
1.79014
1.82336
1.68152
1.78354
1.69218
1.67337
1.70924
1.7639
1.733
1.63631
1.83929
1.78128
1.81372
1.76843
1.80741
1.81086
1.76767
2.5483
1.75406
1.95294
2.62832
2.68968
1.81973
2.46025
2.56546
2.65702
1.7614
1.94907
2.4841
1.81957
2.72856
3.93598
8.73308
3.48604
8.69083
3.66741
3.66915
9.18737
2.02293
1.63143
1.63934
1.97101
1.9817
1.69874
1.9859
1.76236
1.69639
1.74794
1.85658
1.76686
1.74954
1.77472
1.80652
1.84211
1.84213
1.90913
1.83123
1.83796
1.83115
1.76267
1.74735
1.69506
1.85576
1.77473
1.74918
1.76632
1.83978
1.88181
1.84802
1.88181
1.84254
1.84277
1.87246
1.78828
1.70687
1.70521
1.7984
1.79485
1.71387
1.79515
1.81881
1.8254
1.86071
1.85387
1.83808
1.8239
1.85638
1.77937
1.79504
1.7809
1.79199
1.78116
1.79346
1.78173
2.43638
1.82967
2.52646
1.70288
2.55093
2.38624
1.73534
2.44901
1.846
1.72742
2.57106
2.41083
2.56667
1.74478
3.79746
8.46182
3.46343
8.53513
3.56734
3.61761
8.84146
1.96567
1.60525
1.61403
1.95823
1.93882
1.9664
1.64513
1.68615
1.74118
1.67299
1.63636
1.67269
1.71071
1.67214
1.72502
1.77467
1.74156
1.74823
1.72627
1.73132
1.76124
1.75134
1.75784
1.77927
1.80827
1.74786
1.76918
1.79782
1.70333
1.7798
1.67948
1.72288
1.75186
1.69294
1.69948
1.80024
1.85658
1.84035
1.87045
1.81131
1.83042
1.83876
1.74135
1.66273
1.68731
1.78858
1.75605
1.77932
1.65545
1.76767
1.79985
1.80271
1.83735
1.80563
1.77078
1.80994
1.6762
1.69878
1.61884
1.70778
1.52983
1.71241
1.68998
1.66567
1.72619
1.6975
1.71586
1.70222
1.56524
1.7026
1.69696
1.60291
1.6444
1.67871
1.701
1.54952
1.68694
1.75593
1.74806
1.75523
1.73804
1.73754
1.74065
1.73473
1.65324
1.57206
1.56763
1.63121
1.49211
1.65095
1.64598
1.628
1.56494
1.6733
1.65925
1.68102
1.47852
1.64877
1.65184
1.61292
1.70169
1.69096
1.70701
1.67114
1.51277
1.72345
1.69663
1.72267
1.72608
1.71908
1.70289
1.69854
1.57543
1.65048
1.55255
1.64879
1.65688
1.44775
1.60186
1.57896
1.55616
1.65285
1.6538
1.65978
1.60214
1.45259
1.56983
1.448
1.54649
1.44907
1.56517
1.56395
1.37549
1.66268
1.66362
1.665
1.62787
1.66272
1.64299
1.64143
1.6435
1.61428
1.68213
1.69853
1.50929
1.67276
1.69726
1.62215
1.56132
1.65178
1.67087
1.64645
1.47345
1.6731
1.72041
1.70093
1.72609
1.72148
1.70705
1.69803
1.71594
1.72569
1.7417
1.76771
1.7416
1.72684
1.76036
1.72674
1.71412
1.71706
1.74351
1.71118
1.70026
1.7055
1.75031
1.68192
1.62513
1.61138
1.61127
1.66827
1.66826
1.6662
1.71416
1.74324
1.71698
1.71118
1.75044
1.70016
1.70533
1.81643
1.87021
1.87018
1.86215
1.83896
1.8463
1.83899
1.76806
1.78681
1.77982
1.82345
1.79817
1.80561
1.76005
1.75869
1.75367
1.75369
1.81277
1.79128
1.73888
1.79121
1.56895
1.64098
1.64553
1.5476
1.60015
1.44179
1.6487
1.56602
1.44777
1.54653
1.44788
1.56412
1.56399
1.37302
1.65827
1.66281
1.66282
1.62909
1.64225
1.65707
1.64238
1.66594
1.71704
1.72638
1.69762
1.56557
1.70291
1.70296
1.67631
1.70777
1.6987
1.6189
1.69004
1.71252
1.52965
1.69723
1.67874
1.64444
1.60299
1.68693
1.54947
1.70136
1.82671
1.83105
5.81353
5.20445
1.94643
5.49853
1.70352
1.11493
1.34014
1.23056
0.968556
1.4266
1.11796
1.22638
1.3454
1.25736
0.937117
1.20081
1.11124
1.39589
1.18355
1.32736
1.23972
0.919953
1.18681
1.37817
1.12152
1.18534
1.80853
1.80927
5.82928
5.31339
1.91613
1.70822
5.50221
0.8733
1.13457
1.28849
1.08094
1.34205
1.06446
1.02839
1.70115
5.0316
1.60173
5.0959
1.63145
5.23382
1.60796
0.771681
1.19338
0.749241
0.748558
0.927009
0.921766
1.01117
1.00907
0.942005
1.81493
5.15128
5.3188
4.83237
0.839572
1.38708
5.20129
2.72025
0.997804
1.76916
0.850083
0.849724
0.74778
1.36233
1.20318
0.943334
1.25578
1.34557
0.995452
1.12742
1.18875
1.17102
1.30814
1.0975
0.90885
1.23347
0.978354
1.17706
1.60143
5.07274
5.02187
1.70237
4.94099
1.63312
1.60888
1.1778
0.908296
0.913238
0.738927
0.742512
0.740993
1.00451
0.978592
1.15298
0.995279
1.03562
1.27676
0.906266
1.01262
0.915147
0.906584
0.917026
1.01288
0.838574
1.08612
0.932285
0.969793
0.961351
0.906468
0.869477
1.03587
1.03253
0.90798
0.806754
0.917065
0.8084
0.999571
0.848516
0.898791
0.926611
1.15461
0.836261
0.80393
0.803812
1.46903
1.09654
0.937727
2.05964
1.80959
5.10978
5.064
2.28731
4.95683
1.71552
1.69726
4.8253
1.69791
4.89616
1.9865
4.84963
1.57126
0.731168
1.18021
0.733955
0.70376
0.843262
0.904202
0.733398
2.32167
1.12417
1.26571
1.18175
1.66499
0.935919
1.53977
1.88444
0.929568
1.26188
1.18353
1.31201
0.945065
1.22043
1.50039
1.44548
1.0135
1.06517
1.05191
0.915634
0.821888
1.00306
1.43029
1.46979
1.39645
1.28122
1.32642
1.36465
1.23678
1.49259
1.38309
1.4266
1.27218
1.28795
1.34997
1.21329
5.89538
1.58553
0.804738
1.04539
1.26655
1.06414
1.30635
1.10306
0.846951
1.01717
0.80497
1.26337
1.03709
1.3061
1.09957
0.84708
0.998041
1.01974
0.973293
1.05965
0.980718
1.04104
1.12887
1.00921
1.06872
1.1063
1.07216
1.01057
1.0536
1.14885
1.55369
4.96076
2.97323
1.1615
2.52409
3.65917
2.67464
1.17923
3.22241
2.89943
1.13715
2.3181
2.83091
3.21827
0.99295
0.911915
1.02476
0.819925
0.838521
0.876243
0.82807
1.03466
0.923335
0.846806
0.919871
0.994451
0.880584
0.827444
1.20224
1.15907
1.13367
1.51582
1.60142
1.64804
1.47282
1.23826
1.18851
1.45753
1.99619
1.64759
2.18041
1.5042
1.16251
1.44596
1.41767
1.94717
1.55261
1.47167
2.04427
1.11982
1.14509
1.14147
1.49823
1.52707
1.44587
1.59611
5.55874
5.64614
1.48094
1.493
5.24399
1.04164
1.1095
5.65773
1.50761
1.5267
1.50401
1.37092
1.37726
1.33103
1.40607
1.4363
1.47071
1.51424
1.34887
1.32564
1.38859
1.26893
1.8622
5.39995
1.79629
1.7687
5.22532
5.38052
1.70321
1.87123
5.64225
1.88958
1.8001
5.53163
1.78782
5.48946
1.14545
1.09648
1.14272
1.08242
1.17733
1.17265
1.07393
1.17084
1.16045
1.1083
1.2243
1.14264
1.20205
1.20249
1.75489
5.18674
1.97571
5.34949
1.96843
5.32788
1.71594
1.79225
5.55799
5.4966
2.11685
1.81898
2.01779
5.46121
5.67037
2.71627
2.53834
3.20992
6.05213
3.42273
5.85366
1.22659
1.15628
1.45407
1.69684
2.35262
1.8441
2.17844
5.46961
5.51931
2.47046
3.2185
5.68778
3.13568
5.71882
1.56252
1.20454
1.80894
1.14964
1.44893
1.68606
2.16797
3.30263
2.05899
5.11959
4.95611
2.70511
2.52909
4.915
2.17435
0.943145
1.99507
1.86833
1.51255
1.25112
1.39246
2.60407
2.24617
3.38536
2.76471
2.81303
2.0513
3.20565
3.2652
2.87106
2.14804
2.55344
2.72654
2.0143
3.15679
2.09362
2.17348
2.96731
2.7078
2.26349
1.99351
2.8126
2.21265
2.09832
2.93058
2.07582
2.6832
1.96415
2.80113
5.48968
3.87722
4.89453
3.59243
4.98898
3.86333
5.52737
2.36251
3.06162
3.15457
3.27604
2.52341
2.91927
3.08196
3.03466
2.49039
3.14341
2.352
3.26898
2.91047
3.07749
3.6546
5.72813
3.96876
5.0165
3.82926
3.90085
5.61737
1.23048
1.22908
1.23516
1.25244
2.46831
2.89599
1.22507
1.22553
1.225
1.225
1.27402
1.22532
1.22967
1.225
1.225
1.225
1.22501
1.22895
1.26832
1.2719
1.225
1.225
1.22502
1.225
2.83043
2.33996
2.2349
1.67446
1.6112
1.29742
1.31767
2.70626
1.70024
2.02309
1.3459
1.49088
1.26687
1.24157
3.55892
1.33487
3.03677
1.84212
3.4765
3.26104
1.94569
1.70815
1.60226
1.0331
1.06094
1.41832
1.52455
2.4274
2.27602
2.3359
1.43916
1.16554
2.18935
1.77495
2.70258
3.07058
3.32678
2.62311
2.49408
3.2588
3.40372
3.36433
3.15517
2.91915
2.1425
2.299
3.13655
3.55949
3.58604
3.02078
3.42766
2.8559
3.18374
3.43975
3.09742
3.27431
3.65563
3.2549
2.97268
2.58333
3.34159
3.51241
3.6066
3.62781
3.58226
1.73448
3.16894
2.89359
3.0708
2.79631
3.57842
3.56186
2.46826
1.53402
2.16988
2.87966
2.58088
3.43937
1.543
1.24544
1.47449
1.23292
1.22571
1.2255
1.23558
1.26353
1.2588
1.25159
1.22588
1.22685
1.22618
1.22638
1.25779
1.26841
1.25601
1.22677
1.22653
1.22615
1.22601
1.24429
1.22541
1.24038
1.22716
1.22506
1.22504
1.22784
1.36688
1.22799
1.27646
1.22906
1.22506
1.22523
1.22629
1.24042
1.22825
1.23698
1.22533
1.2251
1.22545
1.22508
1.2285
1.22521
1.23397
1.22615
1.22501
1.22502
1.22538
1.24417
1.22814
1.23799
1.22537
1.22512
1.22558
1.22507
1.22882
1.23998
1.23937
1.2251
1.22543
1.22539
1.22509
1.25892
1.26311
1.25357
1.22617
1.22615
1.22581
1.22587
1.22885
1.24284
1.23888
1.22533
1.2251
1.22508
1.2254
1.22653
1.22634
1.23064
1.22514
1.22501
1.22503
1.22503
1.22502
1.22505
1.225
1.225
1.225
1.22503
1.22503
1.22504
1.225
1.225
1.22504
1.22503
1.22502
1.225
2.90406
3.08382
2.97046
1.25204
2.64341
1.23484
1.22551
1.2277
2.57173
2.38579
2.44815
2.54082
2.51404
2.44629
2.48175
2.80999
2.78861
2.5812
2.3622
2.45819
2.37579
2.26081
3.06964
2.92846
2.87925
2.32353
2.12279
2.04916
2.37288
3.0214
3.05337
3.01161
2.22753
1.6869
1.90572
2.04556
1.64082
1.24853
1.60711
1.52466
1.24366
1.56007
1.24067
1.44899
1.24241
1.54319
1.462
1.23036
1.23565
1.36687
1.40491
1.30301
1.23388
1.22715
1.28838
1.43802
1.23218
1.34651
1.24439
1.22706
1.22626
1.26552
1.22948
1.28755
1.27185
2.67212
1.39794
3.28506
1.1177
0.919141
1.98261
2.38153
1.14167
1.1946
1.18678
1.15455
1.06681
1.04534
1.15869
1.00616
1.0742
1.14722
1.15364
1.17145
1.14503
1.00078
1.2286
0.916047
0.907964
1.13765
0.966652
0.944732
1.13341
1.91968
1.80153
1.84308
1.43203
1.44699
1.4836
1.45666
1.68042
1.00076
0.91792
0.871932
1.28483
1.15888
0.903291
2.13968
2.12165
1.94207
1.7188
1.56188
1.47688
1.54645
2.78252
2.27326
2.18342
2.02
1.91553
1.63304
1.5748
2.99616
2.78577
2.46643
2.24133
2.58064
2.06636
1.77762
1.37483
6.11843
1.24803
1.88065
1.22924
6.55954
2.83291
2.18277
4.80578
3.24081
2.49291
1.89768
2.86488
3.69094
1.31543
3.09789
3.17307
1.94875
1.37713
1.76093
1.65117
1.36131
1.90865
2.49823
2.95947
2.33776
1.63729
1.60286
1.32392
1.8433
1.90326
2.24151
2.32188
1.22574
3.07179
2.98469
1.37352
1.225
1.95761
1.22502
6.31311
3.46388
3.01289
6.20453
3.72123
4.07829
6.2999
2.35307
1.43051
1.84468
2.66782
2.14299
2.57852
3.10329
1.22501
1.76412
1.22501
6.26231
4.14019
1.42963
1.29901
1.225
1.38809
1.22501
3.58225
3.82142
1.30821
1.23566
2.93406
2.19329
2.1161
3.51858
2.84501
2.90772
3.52366
3.60101
2.99164
2.20505
3.53617
3.62879
4.02007
2.96715
2.47199
3.18483
2.55365
3.21588
2.97701
3.02663
3.1853
2.56664
3.54691
3.13298
3.59056
3.23869
3.4081
3.09487
4.04761
6.73745
4.6667
4.48797
5.89613
4.65894
6.30363
3.18352
3.00524
2.45057
3.15731
3.65961
3.63457
3.62978
3.32879
3.22384
2.82933
3.25615
2.79392
3.0749
3.53574
5.77303
3.97045
4.06983
4.33318
4.46298
3.74176
5.66492
3.11697
3.04945
2.2439
2.91442
2.04183
1.88644
1.64696
3.82668
3.22911
2.81411
1.90621
3.39105
2.90082
3.53137
3.21345
2.8332
3.44602
3.43613
1.93238
3.19298
2.81059
3.7005
3.5576
3.45828
3.7971
3.66943
2.52048
2.4423
3.59402
3.51377
3.41873
3.48902
3.39675
2.44166
2.46527
3.46052
2.6265
2.08585
1.71034
3.05502
2.60936
3.34559
3.73178
3.07063
3.39211
2.94307
3.2912
2.18662
1.65617
4.31452
4.56772
3.77056
2.04946
3.78659
3.16909
5.29292
2.61147
1.96681
2.61201
1.37829
1.71869
1.37873
1.25548
4.86507
5.28793
5.05432
4.30684
4.13949
2.89176
3.66044
2.6917
1.60514
2.39771
1.25987
1.46122
1.31938
1.2369
1.34242
1.22683
1.28259
1.22612
1.26193
1.24122
1.2254
1.37599
2.5049
2.58993
1.3768
1.23177
1.23144
1.37525
2.24346
1.29648
2.28365
1.34469
1.22935
1.22903
1.34529
1.38101
2.52129
2.49943
1.38083
1.23248
1.23201
1.38815
2.27959
1.30449
2.25856
1.35128
1.22987
1.35739
1.22956
1.2353
1.22755
1.22762
1.22507
1.2359
1.2254
2.83213
3.11765
3.09669
1.25407
2.57189
1.22772
2.65635
2.42795
2.37039
2.56186
2.54093
2.47536
2.50431
2.39635
1.24369
2.90263
1.227
1.22553
1.225
1.225
3.03856
2.83283
2.57932
2.41276
2.49991
2.41266
2.29715
3.09131
2.89
2.96012
2.34072
2.12997
2.04488
2.38953
1.22684
1.225
1.225
1.26477
1.26435
1.22502
1.225
2.91483
3.05054
3.07315
2.24357
1.64585
1.8856
2.04139
1.25082
1.66413
1.63218
1.53764
1.24453
1.5748
1.24138
1.225
1.22618
1.225
1.25474
1.2377
1.22504
1.22501
1.47102
1.24418
1.56855
1.4708
1.23032
1.23588
1.36985
2.82736
2.33794
2.20567
1.67375
1.59528
1.29191
1.3166
1.86688
1.24085
1.225
1.225
1.225
1.22502
1.225
1.40628
1.22705
1.30359
1.23407
1.2863
1.44341
1.23213
2.69203
1.60359
1.95702
1.31883
1.46041
1.25978
1.23683
1.3421
1.22683
1.24114
1.22611
1.2618
1.22923
1.28246
1.22253
4.95532
5.55007
5.99947
1.56776
5.47339
1.40592
6.11894
1.66713
0.943847
5.23019
1.38856
6.04566
5.22682
1.61863
1.36809
1.51908
1.60834
1.54175
1.51947
1.47272
1.54172
1.45487
1.48147
1.37769
1.37078
1.52642
1.33131
1.50817
1.50414
2.077
6.11411
2.04718
1.96301
5.86535
1.98307
5.87236
1.61134
1.74012
1.68687
1.55636
1.6199
1.58165
1.58251
1.43548
1.32576
1.34798
1.5139
1.26807
1.49235
1.47056
2.03571
6.10593
2.08043
1.91745
5.80691
1.96793
5.70045
1.67279
1.69181
1.73803
1.53825
1.61474
1.5755
1.56837
1.46987
1.55285
1.40936
1.51049
1.60234
1.46527
1.50089
1.61893
1.66761
1.65777
1.61449
1.51577
1.64003
1.65774
1.71449
1.70587
1.7201
1.69622
1.68685
1.7043
1.70362
1.63894
1.68038
1.69176
1.61209
1.51438
1.66881
1.68681
1.65767
1.63459
1.58325
1.57532
1.51784
1.64836
1.65438
1.62343
1.68655
1.66053
1.6208
1.64105
1.52439
1.66696
1.64626
1.69232
1.69561
1.60421
1.51521
1.66421
1.69893
1.71433
1.70472
1.71959
1.69076
1.68487
1.69866
1.70726
1.65464
1.63108
1.58336
1.56586
1.64655
1.50826
1.64911
1.05616
1.28972
1.09624
1.42698
1.34372
1.45138
1.29375
1.99635
5.79768
1.91872
1.91853
5.64116
1.83513
5.79579
1.12695
0.996121
1.20345
1.18844
1.25599
1.34495
1.38728
1.70615
5.52085
1.83369
5.84561
1.95143
1.83036
5.49111
5.51666
1.79713
1.78476
1.86907
5.63167
1.88803
5.63683
5.37041
1.70281
1.76632
1.7971
5.55391
1.86144
5.40948
5.08348
1.60312
1.63389
5.04138
1.61105
1.70419
5.21997
5.62099
1.75959
1.77074
1.82064
5.56017
1.75342
5.59406
2.05184
2.92364
2.8254
3.46542
1.34437
1.24301
1.12121
4.96537
0.977899
0.906628
3.52895
2.43917
1.65626
2.75619
2.50541
5.64093
6.21096
5.4445
1.17009
5.85475
1.5038
0.996417
5.1862
1.07308
3.64193
2.10171
3.22015
1.55308
2.67083
1.02695
1.90447
1.14953
0.879899
1.51646
2.18143
1.05966
0.83842
0.935585
2.15715
1.59725
2.94308
2.31735
1.1429
1.20225
1.16131
1.22481
1.10859
1.20179
1.10997
1.14438
1.09659
1.17782
1.142
1.08263
1.17181
1.04136
1.10691
1.05372
1.0093
1.00332
1.07246
1.06931
1.01047
1.12978
0.980841
1.04119
0.973532
1.05227
1.01986
0.998069
1.13387
1.07484
1.03307
1.28718
1.18763
1.11741
1.47891
3.65439
6.97478
3.67766
6.31051
3.55009
5.91503
1.31359
2.46399
2.91143
3.74541
3.63135
2.84173
1.06724
2.07074
1.01277
0.907644
0.978927
1.27942
1.03779
1.15358
1.00976
0.992387
0.941492
0.916988
1.01543
1.15105
1.0751
1.11182
0.960819
0.867136
0.905611
1.03478
1.02932
0.968794
0.997646
2.93384
1.83827
3.27494
1.30092
3.35351
2.47636
1.72986
5.54051
1.78852
1.81532
2.11427
5.48328
2.01468
5.64307
5.31623
1.71422
1.75142
1.97334
5.33856
1.96499
5.23935
0.846231
0.821223
0.8264
0.92312
0.993769
0.919325
1.0346
0.875719
0.82755
0.819709
0.911673
0.992633
0.915292
1.02397
3.33181
2.09572
2.55688
1.29903
1.23508
1.88148
1.35461
1.64972
1.4726
1.60224
1.17988
1.15907
1.20276
1.13372
5.62208
5.77953
3.14209
1.31661
1.28846
2.01633
1.84996
2.1507
4.00027
3.66384
1.40805
1.33522
2.06591
1.87922
3.03531
2.85992
2.21537
1.33915
1.89786
1.23802
1.35223
1.99649
2.183
1.64811
1.55493
1.1885
1.4571
1.23856
1.47111
2.04545
1.9474
1.44572
1.16133
1.41722
1.16235
1.49901
1.52852
1.44559
1.14192
1.13716
1.14559
1.12002
5.06751
1.81115
1.71509
5.11454
2.29007
2.05946
5.15099
0.813076
0.831063
0.84744
0.968036
1.55778
1.19153
1.16852
5.76157
1.87779
2.04842
2.30307
6.00446
2.64971
5.81107
0.801139
0.802703
0.835089
1.0914
1.46312
0.940073
1.15157
1.8464
1.09897
1.4238
1.49755
1.96879
2.78636
2.16136
1.3894
1.01311
1.39055
1.45501
1.46734
2.14268
2.07155
2.97103
2.34199
1.91121
1.76585
1.65369
1.36261
2.19185
3.21189
6.05502
3.42733
2.71676
5.66395
2.5372
5.88905
1.75048
2.64338
2.27476
1.91447
1.44972
1.57855
1.22825
5.68815
5.71833
3.13698
2.52296
5.5124
2.46883
5.4655
2.2411
2.32123
1.84407
1.31518
1.60056
1.32365
1.63464
2.3558
1.69868
1.84668
1.22732
1.45451
1.15642
1.58672
1.80287
2.03725
1.71249
1.42861
1.49635
1.23953
1.21878
2.16981
1.80917
1.68773
1.20411
1.44903
1.14997
1.56099
1.60413
1.06723
1.03173
1.42185
1.54764
2.47108
2.28792
1.7411
1.22508
1.32698
4.05102
1.60178
3.72129
2.9624
3.73047
6.30982
4.09167
3.01764
6.31768
3.47371
6.1165
3.39337
5.5818
5.63087
5.40347
3.01894
2.69246
5.42163
3.10572
2.14509
2.57887
1.43078
2.35372
1.88186
1.84322
2.58172
2.43795
2.06076
1.72412
2.21817
1.36775
1.81221
6.15325
2.41698
3.05186
6.23268
3.21556
4.01215
6.63459
1.35802
1.01771
1.55836
2.16226
1.65586
2.41156
2.99717
2.01351
1.5281
1.19788
2.32994
1.84388
2.80505
3.24818
2.26662
1.9942
2.17549
2.97049
2.70915
2.90224
2.81496
2.01494
2.67846
2.55551
2.72879
3.26992
3.1603
2.87539
2.07809
2.10168
1.96484
2.68457
2.80385
2.93353
2.83517
2.60598
2.81761
2.24823
2.76677
2.97661
3.38998
3.2088
1.23767
5.29144
3.83121
1.24175
1.22584
1.225
1.225
1.35712
3.34623
3.44321
1.22615
1.22552
1.22501
1.22512
3.04522
2.77179
2.15216
3.68227
3.73355
3.04592
4.18921
2.97137
2.20799
2.84516
3.61241
3.63016
4.02746
2.9939
2.98415
2.06781
2.14074
2.98112
3.61028
2.90816
3.62244
2.90425
2.11152
2.18828
2.92803
3.51287
3.51919
2.85856
3.07753
2.15411
2.33922
3.18496
3.57106
3.60926
3.03765
3.36709
2.66656
2.50557
3.30834
3.41123
3.36648
3.17181
3.06515
2.36631
2.52747
3.15749
3.2798
3.22515
3.08527
2.39702
3.26489
2.90314
3.42331
3.23767
3.42682
3.12685
2.9789
3.0281
2.47481
3.18721
3.21305
3.17492
3.18435
5.49316
5.53088
3.59656
3.8808
4.98967
3.86676
4.89478
2.91401
2.49208
2.35556
3.27132
3.08088
3.14516
3.21907
2.45385
2.75667
2.33891
3.13021
3.2072
3.08736
3.17667
3.65916
5.73409
3.83653
3.97283
5.01745
3.90415
4.96149
3.60197
3.10039
2.57112
3.23643
3.24307
3.55057
3.40756
3.11036
2.12197
3.01086
3.78965
3.73884
3.77342
4.00607
3.50398
3.35954
2.95688
3.5475
3.052
3.2723
3.7721
4.79881
6.63498
3.98385
4.80366
6.38558
4.93917
6.97781
4.50224
6.56899
4.06128
4.67871
5.89538
4.66458
6.74436
3.23354
3.00903
2.4139
3.23178
3.87444
3.74536
3.76829
3.15583
3.00583
2.44745
3.18013
3.66008
3.63302
3.69142
3.69243
3.1467
2.68044
3.45348
3.49717
3.64658
3.77417
3.25903
3.1335
2.75133
3.20306
2.83858
3.09413
3.09731
3.53769
2.83274
3.2577
3.22579
2.79453
3.09974
3.07508
3.78958
5.31624
5.41595
3.88061
4.46085
3.77214
4.71969
0.752686
0.977284
2.8984
1.05318
1.29046
2.528
1.22718
1.59604
1.10322
1.36483
1.10251
1.7488
1.53111
1.35041
1.03679
0.74072
1.69687
1.39004
1.49146
1.22668
1.75872
1.12548
2.14737
1.27342
2.68329
1.10288
1.91786
5.73078
5.60123
1.28902
1.47277
5.82188
6.23008
1.96035
0.940113
1.12681
0.899502
0.847883
1.01605
2.07608
2.99761
1.50918
1.43712
1.51303
1.43697
1.43133
1.50894
1.35817
1.39637
1.32668
1.28124
1.50028
1.23669
1.46974
1.43033
1.69205
1.65825
1.58342
1.49738
1.62055
1.56697
1.52935
1.48193
1.29989
1.34716
1.39311
1.23424
1.43138
1.18857
1.3829
1.28786
1.27221
1.49265
1.21303
1.44527
1.42661
1.74785
1.59267
1.65978
1.4955
1.61696
1.55845
1.53038
1.49381
1.59464
1.34267
1.43803
1.52009
1.42685
1.48247
1.53523
1.30505
1.3491
1.3965
1.23555
1.43351
1.19338
1.72053
1.72618
1.72146
1.7008
1.70692
1.69802
1.71597
1.6522
1.70169
1.69106
1.61286
1.67119
1.51294
1.70724
1.64336
1.69856
1.68209
1.61458
1.67284
1.50922
1.69728
1.62212
1.67093
1.65199
1.56165
1.47351
1.64668
1.67323
1.65353
1.63701
1.57917
1.56803
1.65525
1.49634
1.64747
1.72372
1.72608
1.72274
1.69682
1.70297
1.69864
1.71933
1.62806
1.67325
1.65914
1.56505
1.64888
1.47855
1.681
1.65344
1.63139
1.57174
1.56784
1.65094
1.64613
1.49215
1.17055
0.907426
1.09703
1.23309
1.17675
1.3078
1.36204
1.0382
1.12626
0.932869
1.33082
1.28763
1.40658
1.19767
1.32904
1.41545
1.22203
1.32888
0.945661
1.10289
1.21825
1.34032
1.42669
0.969319
1.11829
1.23095
1.33153
1.11541
1.45119
1.42639
1.05401
1.34359
1.29319
1.22163
1.09565
1.3311
1.22737
1.40684
0.934575
1.28804
1.19815
1.03951
1.0446
0.803747
0.84607
1.26609
1.06364
1.30609
1.01263
1.09904
0.846547
0.804995
1.26315
1.06481
1.30585
1.01726
1.16731
1.13344
1.18327
1.13795
1.05889
1.03009
1.14908
0.908691
0.741479
0.745856
1.17858
0.727729
0.898689
0.989923
3.36122
1.66372
1.15666
1.19765
3.27058
3.73687
2.04882
0.737605
0.908158
0.747571
1.00479
0.74335
1.17777
0.913979
0.979157
1.05297
1.14723
1.12539
0.895941
0.978961
1.13461
1.82228
1.77143
5.5644
5.56266
1.75389
1.7618
5.62939
0.746474
0.909694
1.17911
0.742844
0.728098
0.990472
0.753127
1.27231
0.974716
1.07282
1.05177
1.10856
1.0445
0.974438
1.28441
1.18628
1.11661
1.07412
1.13017
1.11948
1.03225
1.04233
0.860367
0.985913
0.86158
1.04954
0.939621
0.941459
1.22441
0.904912
0.912747
1.12864
0.961083
0.934689
1.12734
1.11445
0.942248
1.15337
1.0754
1.02726
0.91918
0.994142
1.98839
1.83603
1.79561
1.42758
1.42051
1.47055
1.44777
5.87725
1.92758
2.3383
1.92718
5.61553
1.74181
5.73415
6.00857
2.64516
2.30279
2.04776
5.65566
1.87984
5.77079
1.1915
1.55841
0.968598
1.17042
0.81396
0.832617
0.978625
0.891699
0.923103
0.870831
1.30943
1.03187
1.42521
1.7579
0.885282
0.762191
0.978887
0.762849
0.718114
0.72858
0.885672
1.42584
1.03171
0.922866
1.15666
0.870726
0.891379
1.30965
2.43507
1.54002
2.14769
1.93974
1.45468
1.54014
1.73257
2.77821
2.16012
1.49574
1.84307
1.42338
1.30966
1.09816
2.14742
1.47221
1.45929
1.39112
1.39223
1.01566
1.0696
2.82676
2.18706
2.29688
2.04057
1.91705
1.63305
1.57009
3.42242
3.0942
2.52968
2.70452
2.30616
1.80185
2.13119
2.8966
1.80117
2.13037
3.09026
2.3039
2.70173
3.41869
3.20734
6.62825
4.00306
6.15224
3.0487
2.4139
5.9178
2.41493
2.16328
1.65934
2.07148
1.55998
1.01977
1.35918
1.84263
2.3282
1.52777
2.80132
2.01158
2.47358
3.24303
2.31027
1.37659
0.982967
1.68124
1.37665
2.30934
3.06149
3.61125
3.23391
2.61557
3.23169
3.39867
3.79712
3.60996
3.50014
3.54222
2.95237
3.35393
3.05178
3.76739
3.52654
3.00818
2.96158
2.12136
3.10712
4.00457
3.78792
3.76882
4.08088
5.66875
4.34393
3.97338
4.45969
3.74109
4.80544
2.8773
1.6969
2.78169
2.90256
1.8547
1.68786
3.0152
2.88872
1.8128
2.84184
2.75534
1.76983
1.69341
2.8154
4.14592
2.51473
3.55664
3.45588
3.66698
3.70132
3.79658
3.5899
2.44237
3.51223
3.41469
3.39499
3.57707
3.4884
2.74613
2.88526
1.73114
1.80966
2.79377
1.67506
2.84354
2.88626
2.94382
1.75759
1.89247
1.7699
3.02837
2.8142
3.43438
3.20853
3.19088
2.8278
2.80826
1.93126
1.94462
3.59796
3.17287
2.89349
1.7038
3.05344
2.76819
3.58857
3.53197
3.22533
3.38846
2.80891
2.89453
1.89733
1.89175
3.73013
2.18734
3.07075
2.94322
3.2911
3.82164
3.39214
3.85411
3.79958
3.31288
2.51054
3.72061
3.24966
1.66188
2.59882
2.37544
1.31332
1.61536
1.51257
2.2137
2.71915
2.7707
2.31659
1.3369
1.55416
1.55944
2.38415
2.66573
3.21106
3.88659
1.93595
1.91445
1.79574
3.30457
3.75757
2.59139
2.32394
1.5627
1.3178
1.50449
2.66385
2.23474
2.36741
1.61218
2.71483
2.60749
1.31422
1.51839
2.21931
3.55369
3.75503
4.0361
3.49351
4.03656
3.55344
2.36565
3.70116
3.20399
3.94053
3.01355
3.84462
3.39123
1.97671
4.86985
2.8855
5.28648
5.05038
4.13743
4.30623
6.26244
2.56337
2.16632
1.29401
1.49942
2.60861
1.46969
2.13199
2.11112
1.46641
2.58528
2.66027
1.28257
1.44661
2.12167
3.15133
3.86586
1.81033
1.87268
1.69342
3.28848
3.67669
4.31769
4.56154
3.78266
3.7613
3.16126
2.03862
2.48119
3.46016
2.62619
3.0544
2.08537
2.60831
1.70998
1.37696
2.75734
3.85363
3.25072
3.79601
2.5129
3.71934
3.31266
3.58482
2.02409
1.48433
2.32088
2.82687
2.508
3.40924
2.36247
1.51206
1.26341
1.26426
1.36095
1.9167
1.90819
2.84241
2.57757
1.28559
1.52425
1.44934
2.23008
3.287
2.99954
2.94908
1.35002
1.67855
1.5756
2.55353
3.47469
2.39555
1.57545
1.27329
1.26794
1.37543
1.98884
1.94761
1.34295
2.23826
2.27452
1.29507
1.22931
1.29819
1.22896
1.35154
2.27657
2.25871
1.30453
1.22986
1.3078
1.22957
1.45593
1.25214
1.53967
1.23219
1.2257
1.22545
1.23543
1.26842
1.22735
1.31406
2.14144
1.26831
3.34726
2.14025
1.70315
1.313
2.2447
1.31292
1.22576
1.22859
1.24803
1.23788
1.86881
1.31895
1.22526
1.22871
1.24943
1.22734
1.46418
3.80264
2.99321
1.46537
1.24975
1.23451
1.7659
3.21393
1.32207
2.56701
1.40501
1.23784
1.23038
1.62475
1.53119
1.26863
2.00452
1.29531
1.22547
1.22729
1.24301
1.22537
1.24418
1.23941
1.22698
1.22506
1.22504
1.2278
1.24859
1.25173
1.26846
1.22572
1.22662
1.22636
1.22589
1.27196
1.24997
1.26313
1.22676
1.22601
1.22637
1.22581
1.37307
1.23781
1.31832
1.2287
1.2493
1.22732
1.22526
1.22841
1.28524
2.16235
1.29821
2.00625
3.42673
2.26787
1.26731
1.22612
1.23768
1.25421
1.46637
2.93469
1.9367
1.23428
1.22598
1.23551
1.50591
1.49077
1.25586
1.25823
1.22608
1.23743
1.2368
1.54947
1.53812
1.26182
1.26334
1.22501
1.22935
1.22509
1.24541
1.22552
1.22936
1.22509
1.22547
1.2273
1.29544
1.53112
1.23566
2.005
1.26868
1.23029
1.62079
1.40253
3.20348
2.55638
1.32014
1.42657
1.2251
1.22959
1.2311
1.22637
1.27329
1.40663
1.245
1.22518
1.22592
1.23263
1.22764
1.225
1.22526
1.22505
1.22734
1.23645
1.23501
1.22506
1.22532
1.22527
1.22505
1.22505
1.22517
1.23259
1.22592
1.225
1.22502
1.22526
1.26099
1.23305
1.34052
1.22822
1.22504
1.22517
1.22587
1.2334
1.22717
1.23486
1.22521
1.22505
1.22527
1.22504
1.25049