/*--------------------------------*- C++ -*----------------------------------*\
  =========                 |
  \\      /  F ield         | OpenFOAM: The Open Source CFD Toolbox
   \\    /   O peration     | Website:  https://openfoam.org
    \\  /    A nd           | Version:  9
     \\/     M anipulation  |
\*---------------------------------------------------------------------------*/
FoamFile
{
    format      ascii;
    class       volVectorField;
    location    "0.0004";
    object      U;
}
// * * * * * * * * * * * * * * * * * * * * * * * * * * * * * * * * * * * * * //

dimensions      [0 1 -1 0 0 0 0];

internalField   nonuniform List<vector> 
5248
(
(-136.031 339.355 -1114.04)
(836.884 360.493 -1309.66)
(-55.1053 429.961 59.579)
(-120.834 617.466 -1245.07)
(-59.6693 554.436 71.75)
(-50.7218 424.994 -79.8343)
(-848.934 121.102 -1287.73)
(-857.966 117.611 -433.648)
(-603.468 -363.601 -1287.11)
(-610.114 -366.841 -444.081)
(-142.687 -334.946 -1100.54)
(-64.3835 -431.57 -531.182)
(856.793 369.513 -153.395)
(152.96 350.338 -1107.74)
(66.7424 434.153 -73.8658)
(369.783 -358.87 -1240.27)
(835.283 -349.469 -1312.7)
(449.002 -442.862 -528.899)
(854.542 -358.817 -433.691)
(-850.099 359.909 142.026)
(-846.057 363.679 747.734)
(-114.956 368.481 1043.57)
(-933.516 -45.0053 41.2149)
(-849.296 -121.556 742.162)
(-58.0918 -430.52 60.1518)
(-62.9486 -430.244 649.322)
(-57.9932 549.397 -88.9429)
(-818.837 586.087 -1323.49)
(-845.85 609.105 -426.357)
(-760.32 1249.83 -1279.04)
(-833.762 1286.68 -149.614)
(-104.43 1321.52 -1342.6)
(-106.722 1323.91 -153.039)
(-838.597 602.621 141.123)
(-845.337 605.679 744.197)
(-112.955 607.172 1026.57)
(-836.638 1291.41 140.665)
(-898.028 1435.4 1138.37)
(-109.834 1327.59 136.805)
(-368.372 1337.17 1049.2)
(-392.117 42.116 -633.3)
(-32.9662 396.69 -638.028)
(-360.198 365.76 -1239.13)
(-69.6437 76.8361 -831.159)
(-52.7511 59.9939 -690.675)
(-337.08 346.338 -738.568)
(-331.906 143.781 -1109.12)
(599.966 130.817 -730.436)
(836.693 365.636 -736.524)
(607.706 368.381 -1287.94)
(859.15 126.376 -1295.05)
(849.778 129.148 -731.649)
(599.135 367.753 -736.708)
(622.192 133.507 -1242.3)
(-410.826 52.0262 513.22)
(-410.732 417.788 60.2043)
(-46.8423 417.924 508.362)
(-60.4412 60.9478 65.4055)
(-426.06 57.645 65.0994)
(-53.4847 60.2584 523.012)
(-435.501 441.401 544.876)
(-352.532 835.056 -729.525)
(-113.588 595.592 -728.411)
(-359.779 604.822 -1287.97)
(-116.84 855.273 -1297.49)
(-352.792 595.132 -728.098)
(-113.219 844.895 -728.906)
(-350.138 834.287 -1311.21)
(-358.764 853.704 449.589)
(-416.825 537.936 69.6622)
(-53.5972 537.915 517.902)
(-38.9208 934.647 43.2948)
(-356.271 609.584 444.902)
(-354.985 857.437 141.01)
(-113.065 860.949 442.683)
(-434.292 66.4079 -529.499)
(-56.4329 438.392 -533.858)
(-409.658 414.163 -70.6419)
(-52.8683 59.0248 -84.3359)
(-60.5297 65.4888 -542.029)
(-424.466 57.5944 -76.4988)
(-445.238 451.397 -539.846)
(-840.004 119.83 -722.481)
(-828.72 357.217 -1304.77)
(-828.649 360.119 -725.899)
(-588.693 121.815 -723.664)
(-598.096 365.65 -1285.64)
(-586.601 361.029 -726.726)
(-609.165 124.636 -1239.89)
(-850.105 364.106 -432.561)
(-851.297 357.856 -153.275)
(-932.229 41.7602 -56.7269)
(-544.79 64.1923 -501.182)
(-530.417 421.728 -79.5106)
(-550.231 63.4662 -88.5039)
(-604.98 363.553 -438.42)
(-594.64 -359.442 -731.804)
(-836.437 -358.721 -1305.7)
(-835.946 -360.393 -731.246)
(-848.976 -121.606 -1287.84)
(-840.073 -120.567 -725.39)
(-589.58 -120.819 -726.621)
(-609.303 -125.483 -1241.03)
(-855.813 -368.309 -438.193)
(-857.069 -121.064 -437.766)
(-933.969 -45.3923 -61.9576)
(-539.851 -426.651 -86.2518)
(-858.548 -364.103 -157.57)
(-541.876 -60.2092 -508.18)
(-555.324 -64.0851 -90.2879)
(-36.7778 -393.721 -635.53)
(-365.725 -362.305 -1235.42)
(-344.245 -342.318 -739.937)
(-390.564 -39.0777 -634.761)
(-72.3019 -77.1328 -820.399)
(-54.6828 -53.8966 -688.667)
(-334.727 -140.715 -1108.85)
(-449.41 -450.072 -543.877)
(-58.24 -431.102 -80.1035)
(-418.981 -419.073 -78.0789)
(-433.754 -63.3866 -530.181)
(-62.0769 -62.1091 -77.7314)
(-63.9035 -63.6069 -539.226)
(-430.808 -58.3327 -79.9783)
(551.081 69.7652 -508.046)
(856.325 371.215 -437)
(541.653 431.45 -78.3314)
(937.906 49.9727 -55.7966)
(861.194 128.476 -436.728)
(558.107 70.7429 -85.4136)
(615.516 371.062 -442.967)
(400.435 47.2488 -636.748)
(372.94 371.603 -1240.53)
(47.8416 400.61 -637.047)
(84.4034 84.9554 -824.866)
(62.656 62.4002 -687.013)
(353.59 354.225 -745.673)
(348.269 151.502 -1115.88)
(443.232 75.3028 -531.562)
(423.675 423.67 -71.4035)
(74.4732 442.885 -533.117)
(68.9284 68.7992 -77.3656)
(69.4223 69.838 -537.924)
(434.455 66.7622 -73.9903)
(458.256 457.665 -543.639)
(347.402 -336.579 -738.905)
(145.758 -332.685 -1106.9)
(42.0388 -395.217 -632.861)
(395.988 -33.7388 -637.554)
(81.9094 -72.3264 -834.624)
(59.5371 -51.499 -690.77)
(340.768 -133.079 -1119.83)
(835.242 -352.316 -730.084)
(607.52 -358.367 -1289.59)
(595.69 -352.321 -728.472)
(595.314 -113.282 -729.004)
(854.726 -116.303 -1298.03)
(844.574 -113.16 -729.265)
(617.13 -118.911 -1247.1)
(66.1212 -431.07 -528.333)
(414.272 -409.632 -70.5575)
(57.662 -424.539 -76.4566)
(438.778 -55.9078 -533.614)
(58.9109 -52.9266 -84.2593)
(65.3477 -60.0653 -541.925)
(424.738 -50.6151 -79.7655)
(610.372 -356.453 -438.405)
(852.955 -351.914 -154.61)
(534.389 -416.229 -79.3193)
(547.055 -53.2809 -504.936)
(928.723 -38.3518 -59.5736)
(857.446 -110.935 -435.84)
(549.097 -57.9035 -88.8097)
(-925.656 41.4604 46.419)
(-848.764 363.436 450.248)
(-855.06 116.94 444.904)
(-531.289 57.1558 522.333)
(-529.722 424.925 68.6327)
(-549.316 63.8263 74.0695)
(-603.718 361.508 445.67)
(-847.58 116.699 745.491)
(-845.053 361.526 1021.09)
(-846.581 116.271 1021.67)
(-605.461 118.158 744.405)
(-601.697 364.155 1032.46)
(-603.021 117.974 1030.21)
(-603.874 367.38 748.008)
(-426.787 61.6807 655.039)
(-56.4916 433.371 650.276)
(-360.27 366.877 1041.57)
(-39.9701 46.7847 1126.25)
(-61.2606 67.4275 671.859)
(-362.731 120.524 1045.44)
(-362.759 369.039 751.773)
(-859.895 -123.2 440.704)
(-534.769 -425.039 61.9847)
(-855.409 -363.976 136.71)
(-853.654 -367.446 445.818)
(-610.103 -365.574 441.258)
(-535.767 -62.1293 517.585)
(-554.711 -63.2365 71.3635)
(-848.066 -121.76 1018.95)
(-848.54 -367.354 744.549)
(-847.145 -366.034 1018.19)
(-607.581 -368.938 744.916)
(-605.145 -365.065 1030.61)
(-607.808 -121.384 740.243)
(-604.866 -119.687 1026.92)
(-415.589 -415.662 52.9003)
(-55.1361 -415.485 507.74)
(-442.602 -442.511 541.403)
(-415.205 -54.7973 507.812)
(-61.0907 -60.9607 71.847)
(-430.619 -58.0501 60.2796)
(-56.6339 -56.8183 526.013)
(-367.57 -367.527 749.213)
(-364.212 -364.163 1041.11)
(-118.484 -364.347 1041.62)
(-430.138 -62.7318 649.296)
(-40.5704 -40.2894 1123.18)
(-62.8374 -62.9999 673.111)
(-364.438 -118.58 1041.59)
(-358.803 854.185 -433.812)
(-53.4127 546.893 -504.577)
(-416.354 534.299 -79.2727)
(-38.2536 929.125 -59.5063)
(-356.784 610.181 -438.871)
(-110.969 857.456 -435.705)
(-351.903 852.991 -154.565)
(-835.445 598.803 -152.217)
(-604.523 851.607 -427.196)
(-592.629 598.38 -152.768)
(-835.671 841.464 -150.252)
(-599.283 606.017 -434.986)
(-592.666 840.299 -152.866)
(-842.461 847.054 -417.357)
(-111.004 1317.02 -412.776)
(-357.132 1093.09 -422.97)
(-108.626 1090.23 -153.027)
(-350.215 1325.26 -152.079)
(-110.112 1093.04 -428.888)
(-356.747 1314.11 -404.832)
(-352.158 1092.26 -152.696)
(-845.748 607.436 449.556)
(-602.799 849.611 449.427)
(-594.725 601.792 140.775)
(-839.709 845.085 140.161)
(-598.408 603.45 451.838)
(-596.721 845.082 140.903)
(-844.859 848.417 441.753)
(-358.844 850.025 746.614)
(-113.665 610.959 740.66)
(-358.557 607.62 1031.29)
(-112.174 848.787 1018.03)
(-362.103 609.651 747.368)
(-112.583 850.997 742.862)
(-357.059 848.818 1018.94)
(-109.304 1330.27 438.139)
(-356.537 1096.64 443.472)
(-111.272 1094.78 139.008)
(-353.414 1328.83 136.289)
(-356.438 1096.8 139.14)
(-111.538 1099.75 445.148)
(-351.689 1324.47 436.534)
(-189.072 308.02 224.702)
(-176.989 422.99 63.8427)
(-51.0546 423.437 213.733)
(-60.1868 308.862 68.4499)
(-169.2 428.366 212.514)
(-185.11 302.82 67.3449)
(-59.184 304.13 223.586)
(-178.349 647.149 222.576)
(-184.363 541.164 72.115)
(-59.1464 541.886 224.583)
(-53.6253 680.065 58.162)
(-186.7 541.667 229.755)
(-181.683 659.08 60.9911)
(-50.8124 659.428 221.693)
(-191.381 309.545 -237.143)
(-50.6498 423.084 -230.616)
(-174.427 419.106 -78.3026)
(-56.4548 304.704 -86.6215)
(-182.538 299.796 -81.2484)
(-60.479 304.519 -239.898)
(-171.448 429.062 -224.233)
(-175.944 -303.801 -392.686)
(-182.169 -413.663 -508.396)
(-55.4504 -430.426 -374.76)
(-62.084 -310.875 -543.895)
(-181.879 -432.503 -365.324)
(-197.326 -307.823 -550.411)
(-58.8414 -305.949 -394.396)
(195.599 312.774 -234.146)
(187.83 426.154 -77.0075)
(67.1091 427.501 -227.145)
(68.8028 314.277 -83.1705)
(65.7442 309.208 -236.963)
(194.118 307.813 -77.5004)
(184.506 432.548 -222.251)
(299.377 -294.849 -388.118)
(278.033 -447.65 -529.586)
(429.196 -423.901 -338.044)
(454.718 -270.495 -531.719)
(297.203 -417.202 -377.48)
(322.212 -314.907 -515.461)
(421.41 -292.327 -378.413)
(-765.517 -180.665 208.275)
(-922.418 -36.2704 241.145)
(-920.31 -200.185 28.5552)
(-805.087 -69.2997 78.674)
(-909.166 -205.623 245.894)
(-779.702 -176.842 75.8531)
(-782.368 -71.1636 208.676)
(-191.558 -307.611 224.346)
(-180.097 -421.973 59.0847)
(-58.774 -424.514 213.925)
(-60.1867 -308.93 70.8499)
(-177.216 -428.561 208.285)
(-186.297 -301.807 66.4029)
(-61.4521 -304.425 225.125)
(-201.857 -277.027 847.53)
(-191.531 -440.8 628.314)
(-28.7476 -443.854 832.551)
(-68.5888 -321.457 688.251)
(-218.155 -444.396 823.133)
(-182.049 -321.005 683.956)
(-48.4881 -288.616 834.881)
(-177.594 646.088 -233.434)
(-57.9596 540.997 -241.332)
(-182.761 536.903 -86.9087)
(-50.6513 674.744 -75.013)
(-180.078 654.36 -74.6735)
(-186.47 541.788 -244.557)
(-49.5953 657.851 -237.512)
(-260.095 174.04 -752.398)
(-292.744 54.7713 -681.167)
(-391.345 156.267 -605.11)
(-380.023 84.3837 -721.166)
(-280.642 165.954 -666.205)
(-387.209 194.824 -724.444)
(-266.512 90.6532 -748.047)
(-164.458 268.774 -755.024)
(-74.3746 388.165 -726.884)
(-47.0148 296.046 -684.125)
(-156.634 399.465 -606.811)
(-185.359 391.672 -728.652)
(-161.75 287.174 -665.921)
(-80.7768 274.263 -753.774)
(-112.137 118.896 -815.761)
(-70.1875 241.436 -867.414)
(-55.1769 64.1426 -641.883)
(-235.727 76.5576 -862.825)
(-95.4778 72.1759 -736.963)
(-61.6556 103.674 -743.458)
(-254.81 260.151 -879.953)
(-152.902 164.009 -796.997)
(-173.847 61.5238 -677.764)
(-52.2009 178.531 -680.538)
(-52.8092 61.4713 -798.338)
(-167.058 175.683 -681.302)
(-147.274 62.1672 -791.609)
(-50.5634 155.735 -797.392)
(-308.97 183.27 379.257)
(-436.647 57.8643 364.755)
(-292.61 60.4518 538.125)
(-394.6 167.957 501.045)
(-437.557 187.062 357.601)
(-283.585 188.575 534.561)
(-309.522 61.2416 383.525)
(-313.299 317.953 224.937)
(-293.112 441.592 64.1829)
(-434.405 298.722 65.0372)
(-393.604 400.066 211.273)
(-284.088 442.479 222.991)
(-309.669 315.697 73.2485)
(-437.339 290.674 223.489)
(-178.4 314.833 378.02)
(-53.1627 442.673 359.486)
(-56.2988 299.865 533.046)
(-163.311 401.247 499.485)
(-181.554 443.5 355.826)
(-183.417 290.838 533.798)
(-57.1643 315.6 378.808)
(-182.526 188.199 225.974)
(-58.5674 186.562 62.1457)
(-184.459 60.1704 65.7966)
(-56.5245 60.6352 218.844)
(-179.812 183.164 70.4768)
(-179.793 62.7106 217.557)
(-58.8122 184.712 213.74)
(-301.355 193.008 225.735)
(-417.984 55.4386 218.816)
(-416.902 180.374 65.5043)
(-305.965 64.0068 71.4672)
(-297.937 189.708 67.7216)
(-421.371 174.616 213.918)
(-298.851 62.8135 227.519)
(-183.365 188.933 375.43)
(-175.582 59.5022 517.321)
(-54.0844 182.612 513.454)
(-56.5074 62.1886 371.182)
(-169.615 176.522 526.713)
(-182.404 61.4208 367.043)
(-56.7846 188.498 363.122)
(-301.51 306.93 379.929)
(-436.582 269.517 537.071)
(-434.158 440.387 329.776)
(-263.724 443.129 536.622)
(-298.477 427.323 367.741)
(-421.365 304.99 368.532)
(-301.597 307.642 525.047)
(-278.112 701.8 245.195)
(-309.096 567.211 82.4352)
(-424.138 514.214 220.727)
(-434.869 687.312 29.5048)
(-310.351 566.62 217.6)
(-286.175 686.719 52.9938)
(-434.342 675.429 262.223)
(-197.838 705.674 342.715)
(-63.6401 569.073 382.43)
(-177.356 515.69 527.252)
(-21.3796 687.173 535.472)
(-173.206 570.984 384.304)
(-207.797 676.117 542.295)
(-44.8597 691.407 350.027)
(-170.723 767.129 211.918)
(-64.666 805.654 80.312)
(-193.71 921.993 33.0575)
(-25.4514 923.476 242.613)
(-170.834 782.535 80.6888)
(-196.573 910.652 249.96)
(-62.7151 782.938 210.527)
(-303.361 177.697 -390.107)
(-312.484 71.6438 -543.146)
(-430.753 55.6846 -371.718)
(-417.306 182.702 -506.388)
(-312.315 205.162 -547.863)
(-431.793 180.956 -361.862)
(-305.847 60.5625 -394.126)
(-171.827 305.849 -390.42)
(-50.1691 430.081 -375.374)
(-64.0981 316.416 -545.679)
(-171.442 422.991 -510.867)
(-197.918 320.17 -547.831)
(-53.2768 306.039 -396.042)
(-176.231 434.032 -364.554)
(-315.755 320.567 -236.532)
(-291.311 438.136 -77.0243)
(-434.481 295.864 -77.0048)
(-398.019 401.447 -217.741)
(-308.212 312.715 -85.4768)
(-438.778 292.985 -235.6)
(-288.884 443.308 -236.104)
(-183.563 190.089 -238.524)
(-50.8732 183.255 -83.0448)
(-55.4465 62.2598 -235.423)
(-179.657 60.1532 -80.6866)
(-175.061 181.515 -86.4583)
(-181.483 65.7225 -229.051)
(-56.7594 185.384 -231.435)
(-180.121 183.262 -388.485)
(-191.552 69.1817 -530.772)
(-59.504 195.097 -533.215)
(-54.842 60.7032 -387.378)
(-187.843 196.524 -535.393)
(-179.55 61.1464 -377.871)
(-54.9083 181.95 -380.501)
(-303.698 196.078 -237.391)
(-421.968 57.7541 -227.493)
(-416.451 178.871 -77.527)
(-302.65 63.1284 -86.2407)
(-295.385 187.712 -82.1183)
(-424.147 176.506 -222.733)
(-301.927 66.8844 -238.806)
(-294.386 299.086 -388.064)
(-448.123 278.604 -529.358)
(-270.942 454.781 -531.045)
(-423.518 428.548 -338.142)
(-315.808 322.674 -515.858)
(-417.079 296.987 -377.426)
(-292.323 421.261 -378.428)
(-762.719 174.994 -221.725)
(-923.145 29.7812 -254.457)
(-919.398 196.28 -44.1204)
(-802.897 66.9192 -94.0524)
(-906.74 200.413 -258.765)
(-781.433 66.5422 -222.606)
(-778.613 172.674 -91.8108)
(-694.197 201.701 -352.182)
(-687.397 30.872 -522.631)
(-559.319 67.9346 -393.297)
(-517.713 188.139 -518)
(-560.199 177.966 -392.601)
(-673.071 216.847 -534.366)
(-682.79 48.7622 -360.955)
(-697.093 281.761 -258.162)
(-680.962 440.635 -41.6526)
(-560.781 313.247 -95.7081)
(-508.29 430.538 -231.617)
(-561.734 315.507 -232.515)
(-680.838 289.692 -66.9091)
(-668.418 439.022 -273.337)
(-643.923 181.921 -232.468)
(-676.484 54.9437 -72.9566)
(-540.888 62.8293 -240.159)
(-535.644 187.789 -86.7178)
(-538.177 190.79 -243.704)
(-658.615 55.6253 -235.152)
(-653.953 182.601 -73.7553)
(-765.601 -181.034 -225.98)
(-919.612 -34.1235 -256.935)
(-921.89 -201.025 -49.3987)
(-805.373 -70.3812 -97.1382)
(-911.087 -207.155 -264.233)
(-779.095 -70.2025 -226.31)
(-781.39 -178.701 -96.4273)
(-700.244 -285.768 -261.561)
(-514.906 -434.713 -237.725)
(-690.132 -445.332 -47.4547)
(-567.43 -317.117 -99.1196)
(-677.433 -445.505 -279.24)
(-565.116 -317.902 -236.606)
(-687.293 -294.413 -69.9819)
(-694.551 -203.628 -355.721)
(-517.25 -187.101 -520.822)
(-684.419 -29.1104 -528.415)
(-557.793 -68.9451 -394.704)
(-680.595 -50.5836 -364.674)
(-674.482 -216.788 -539.295)
(-560.837 -180.073 -396.277)
(-646.44 -186.956 -235.554)
(-680.381 -58.8317 -77.0617)
(-539.99 -190.873 -90.0038)
(-539.775 -64.4054 -241.627)
(-657.452 -58.922 -237.623)
(-540.286 -193.106 -247.427)
(-657.593 -187.791 -78.2605)
(-170.583 -261.637 -748.125)
(-81.771 -381.71 -716.082)
(-151.894 -396.969 -608.133)
(-43.7294 -295.154 -684.318)
(-193.502 -386.886 -721.248)
(-155.15 -286.75 -670.576)
(-86.2975 -268.279 -743.619)
(-263.791 -168.181 -752.009)
(-396.373 -162.598 -607.184)
(-293.015 -44.4079 -683.859)
(-381.207 -80.903 -722.133)
(-266.799 -84.8912 -749.314)
(-388.02 -191.789 -725.509)
(-283.444 -158.813 -669.532)
(-114.398 -116.358 -817.037)
(-77.4858 -233.865 -864.507)
(-57.2103 -61.1491 -636.249)
(-238.365 -80.4387 -852.159)
(-98.7486 -70.3924 -733.741)
(-68.6994 -99.4927 -740.855)
(-261.034 -255.994 -884.043)
(-158.036 -154.332 -784.706)
(-58.1852 -174.342 -676.623)
(-175.772 -57.1131 -677.608)
(-54.7011 -57.1832 -795.051)
(-149.194 -53.921 -794.322)
(-169.55 -170.217 -676.643)
(-52.1336 -151.261 -786.197)
(-297.616 -297.919 -390.571)
(-275.233 -447.441 -532.095)
(-430.899 -430.476 -342.966)
(-447.222 -274.749 -532.012)
(-299.61 -419.596 -381.673)
(-419.767 -299.5 -381.655)
(-314.213 -313.966 -519.214)
(-190.466 -305.005 -239.717)
(-58.5321 -420.547 -230.668)
(-181.26 -422.06 -83.1637)
(-61.9404 -309.895 -85.3732)
(-178.268 -425.274 -227.212)
(-58.6913 -301.549 -238.479)
(-188.852 -301.954 -83.2126)
(-315.641 -315.309 -239.538)
(-404.124 -403.769 -223.106)
(-299.154 -441.542 -82.1638)
(-441.325 -299.224 -82.2504)
(-293.661 -440.792 -240.033)
(-441.136 -293.301 -240.123)
(-315.126 -315.303 -89.3316)
(-302.888 -176.391 -392.673)
(-415.787 -178.617 -508.489)
(-312.801 -61.7979 -544.398)
(-430.026 -55.6905 -374.482)
(-305.251 -59.2016 -394.135)
(-431.977 -182.372 -365.383)
(-310.578 -196.522 -550.378)
(-186.458 -185.943 -237.803)
(-59.0514 -187.639 -80.0638)
(-58.8033 -58.4967 -229.882)
(-187.503 -59.1706 -79.9607)
(-183.458 -59.7571 -228.37)
(-60.0272 -182.853 -228.511)
(-182.287 -182.474 -85.782)
(-179.453 -180.297 -387.442)
(-57.3403 -192.954 -529.524)
(-193.343 -57.2352 -530.311)
(-56.9302 -57.4968 -383.153)
(-180.293 -56.3376 -377.293)
(-187.415 -186.084 -531.889)
(-55.8619 -180.854 -377.547)
(-305.672 -190.173 -240.029)
(-421.781 -181.354 -83.1528)
(-421.431 -58.2843 -230.58)
(-309.648 -62.0165 -85.4108)
(-302.385 -58.434 -238.383)
(-425.88 -177.907 -227.254)
(-301.708 -188.992 -83.4474)
(700.928 207.111 -351.274)
(692.63 37.5493 -525.437)
(563.083 73.8374 -393.604)
(523.972 196.734 -523.391)
(678.977 224.245 -538.411)
(567.339 183.78 -394.192)
(686.591 54.3834 -360.215)
(703.849 292.032 -257.426)
(690.854 449.918 -40.7099)
(568.739 321.466 -93.8378)
(518.942 440.8 -232.706)
(687.798 299.213 -64.3861)
(569.942 324.464 -232.647)
(678.607 450.533 -276.996)
(767.483 187.448 -222.666)
(925.113 205.993 -43.7048)
(923.341 40.2759 -254.059)
(808.236 75.0042 -93.1054)
(784.925 183.692 -90.801)
(783.421 76.0166 -223.161)
(909.257 213.412 -261.806)
(650.168 194.146 -231.455)
(544.964 70.4496 -237.384)
(544.311 194.665 -84.1683)
(683.284 64.4908 -70.8392)
(661.873 193.168 -71.9979)
(545.419 198.745 -243.711)
(662.24 65.6432 -234.838)
(278.283 178.712 -759.291)
(300.125 52.4978 -684.427)
(401.949 163.689 -610.087)
(393.652 90.1707 -730.293)
(403.148 200.134 -733.098)
(289.497 164.632 -669.057)
(281.259 95.5848 -756.169)
(180.688 277.598 -755.355)
(90.8035 395.068 -725.724)
(52.2787 299.711 -684.969)
(173.478 404.344 -608.92)
(95.9992 282.962 -750.682)
(167.275 290.667 -668.767)
(203.266 401.122 -727.681)
(127.48 132.471 -827.44)
(88.6114 244.59 -870.181)
(71.0216 70.9389 -640.664)
(248.766 87.316 -859.846)
(82.4183 114.358 -748.758)
(112.568 80.5399 -742.059)
(271.638 269.037 -891.624)
(170.675 168.259 -791.705)
(182.921 66.4851 -676.057)
(66.7631 180.72 -675.562)
(66.0178 66.5846 -796.238)
(64.1078 163.589 -791.237)
(177.119 177.78 -680.059)
(161.288 65.7157 -797.003)
(308.259 183.845 -389.031)
(321.09 69.6419 -543.654)
(435.091 62.3088 -373.923)
(424.35 192.431 -507.753)
(438.27 187.451 -362.1)
(318.161 204.752 -547.451)
(310.995 68.4644 -393.493)
(321.167 321.467 -235.505)
(304.937 443.378 -74.516)
(443.521 304.898 -74.4516)
(409.986 410.418 -219.047)
(447.141 300.354 -233.887)
(318.995 318.87 -85.9)
(299.867 447.451 -233.974)
(183.829 308.598 -388.736)
(62.5795 435.283 -373.779)
(69.6535 320.821 -543.654)
(189.08 423.13 -508.775)
(68.5428 311.352 -393.578)
(204.501 317.392 -546.767)
(187.859 438.546 -362.267)
(194.045 194.115 -237.632)
(68.833 192.966 -76.4216)
(66.4959 66.505 -229.994)
(193.158 68.6248 -76.562)
(69.5074 190.017 -226.116)
(189.901 69.5915 -226.26)
(190.177 189.96 -83.8207)
(184.434 184.623 -388.049)
(199.225 68.2283 -528.649)
(67.8954 199.872 -528.409)
(64.6912 64.8088 -382.638)
(62.9376 186.92 -375.573)
(195.82 195.46 -534.639)
(186.733 62.8074 -375.568)
(312.707 195.864 -234.396)
(427.209 67.439 -227.37)
(426.294 187.779 -76.967)
(314.547 68.7636 -83.3304)
(432.367 184.946 -222.273)
(309.024 65.9124 -237.052)
(307.987 194.038 -77.5823)
(304.057 304.168 -388.626)
(454.889 283.224 -530.676)
(436.967 437.107 -337.623)
(282.403 454.487 -530.86)
(424.484 304.606 -376.914)
(322.136 321.99 -516.734)
(304.692 424.639 -377.059)
(176.592 -258.433 -748.906)
(158.944 -393.807 -604.059)
(85.9077 -380.508 -717.038)
(54.8509 -295.779 -681.467)
(197.626 -383.874 -721.384)
(92.4026 -267.807 -744.004)
(170.06 -283.478 -666.264)
(269.984 -162.751 -755.627)
(399.488 -159.28 -606.358)
(295.578 -47.4788 -683.812)
(388.272 -72.841 -729.956)
(274.658 -79.4087 -756.609)
(392.115 -183.599 -730.238)
(286.564 -165.647 -665.673)
(118.825 -111.766 -826.749)
(82.4811 -230.754 -878.133)
(67.5064 -58.1123 -644.353)
(244.497 -72.3939 -869.548)
(76.192 -96.2559 -747.437)
(106.238 -64.3478 -746.152)
(266.426 -252.303 -897.247)
(166.048 -151.248 -788.642)
(61.7618 -172.421 -676.107)
(178.338 -52.4042 -680.753)
(62.406 -55.4911 -799.852)
(61.3953 -150.564 -783.933)
(156.311 -50.6283 -799.568)
(173.867 -167.098 -678.867)
(178.004 -304.109 -390.039)
(181.859 -415.152 -506.176)
(55.7778 -431.666 -371.832)
(71.29 -309.513 -542.672)
(181.27 -432.4 -362.044)
(60.9434 -306.614 -394.241)
(204.105 -309.933 -546.819)
(320.507 -315.622 -236.505)
(401.415 -397.964 -217.646)
(296.004 -434.523 -76.8558)
(438.082 -291.244 -77.1119)
(292.861 -438.698 -235.479)
(443.351 -288.829 -236.127)
(312.683 -308.257 -85.4992)
(195.971 -303.403 -237.248)
(57.6685 -421.775 -227.588)
(178.99 -416.564 -77.4951)
(63.0875 -302.735 -86.2494)
(176.363 -423.935 -222.805)
(66.7441 -301.722 -238.928)
(187.673 -295.51 -82.0188)
(305.729 -172.277 -390.341)
(423.445 -170.374 -510.639)
(316.667 -63.8297 -545.663)
(430.361 -50.5458 -375.251)
(306.326 -53.6521 -395.927)
(320.904 -196.588 -547.395)
(434.015 -176.519 -364.46)
(190.169 -183.346 -238.58)
(60.1545 -179.728 -80.6449)
(62.231 -55.45 -235.488)
(183.099 -50.9953 -83.0209)
(65.6914 -181.353 -229.113)
(185.532 -56.6809 -231.457)
(181.504 -175.185 -86.3734)
(183.25 -180.743 -388.842)
(68.9958 -190.373 -529.692)
(195.097 -59.0528 -533.28)
(61.1466 -55.0486 -387.287)
(61.5724 -180.045 -377.961)
(182.309 -55.3784 -380.396)
(197.303 -186.575 -534.51)
(309.756 -191.262 -237.251)
(419.036 -174.34 -78.1856)
(423.531 -50.5339 -230.652)
(304.497 -56.4352 -86.6512)
(304.845 -60.4148 -239.956)
(429.359 -171.342 -224.177)
(299.771 -182.571 -81.3596)
(700.024 -276.501 -259.115)
(512.121 -426.099 -231.817)
(684.633 -435.176 -42.1751)
(563.004 -307.377 -95.692)
(671.738 -432.555 -273.917)
(565.35 -310.718 -233.074)
(682.291 -286.053 -67.2855)
(697.509 -197.739 -353.236)
(522.699 -178.007 -518.594)
(688.787 -21.2703 -526.585)
(558.725 -64.5656 -396.674)
(681.553 -46.0033 -364.12)
(675.599 -207.582 -534.034)
(562.756 -174.819 -394.201)
(764.238 -168.933 -222.756)
(918.396 -192.644 -45.8656)
(920.696 -22.5332 -256.398)
(799.709 -61.6211 -95.4805)
(779.598 -59.9215 -225.701)
(906.172 -194.084 -260.234)
(777.936 -169.11 -92.4295)
(646.421 -177.698 -233.519)
(536.768 -182.663 -86.7723)
(541.491 -57.9708 -241.273)
(674.45 -50.5675 -74.9454)
(658.367 -49.7588 -237.651)
(542.102 -186.489 -244.474)
(654.177 -180.008 -74.6624)
(-758.321 175.225 214.075)
(-914.349 196.119 34.3685)
(-916.011 29.2583 244.003)
(-797.861 66.8881 82.1913)
(-901.877 200.542 250.866)
(-773.79 174.074 81.2067)
(-775.07 65.5825 213.527)
(-698.033 200.421 344.916)
(-681.987 25.4489 540.023)
(-563.216 66.3914 386.724)
(-508.851 182.92 530.226)
(-564.506 177.682 386.571)
(-669.452 212.002 545.308)
(-684.525 47.4504 354.762)
(-695.115 283.027 245.648)
(-679.774 441.447 29.8274)
(-559.682 315.767 82.3705)
(-507.695 430.997 221.611)
(-561.138 316.161 218.628)
(-678.622 290.877 54.9441)
(-668.931 440.324 262.718)
(-638.839 182.004 224.226)
(-673.466 55.6207 62.2717)
(-535.7 61.8501 228.099)
(-534.187 189.48 73.4137)
(-534.171 190.846 231.807)
(-650.887 184.019 62.8381)
(-652.265 54.5478 225.615)
(-274.491 203.905 851.716)
(-318.663 70.016 693.045)
(-440.857 27.4861 837.407)
(-436.509 189.247 632.255)
(-317.343 183.025 687.472)
(-442.291 217.807 826.793)
(-285.032 48.9567 840.429)
(-198.211 281.643 851.115)
(-22.6247 446.294 833.391)
(-65.4438 324.112 688.462)
(-183.817 443.315 631.079)
(-176.986 324.925 687.42)
(-45.401 290.995 836.48)
(-213.008 449.457 826.041)
(-181.464 187.664 934.038)
(-28.1835 205.373 1110.42)
(-66.1052 73.3099 972.328)
(-199.674 34.7044 1111.3)
(-178.662 72.0809 948.328)
(-66.5962 185.533 946.363)
(-204.639 210.519 1102.48)
(-170.288 176.529 801.582)
(-190.866 65.6005 661.371)
(-60.3341 196.311 658.252)
(-51.2531 56.6746 819.327)
(-190.946 197.769 668.861)
(-177.568 56.6366 803.591)
(-49.8238 182.444 801.253)
(-700.627 -286.76 241.629)
(-685.188 -442.698 23.6264)
(-514.889 -433.188 215.592)
(-564.419 -315.479 77.7843)
(-675.608 -443.772 258.13)
(-683.647 -291.789 50.5544)
(-566.168 -318.409 214.279)
(-704.76 -206.809 340.142)
(-685.558 -31.5748 536.065)
(-512.678 -187.175 525.573)
(-569.171 -70.5949 382.685)
(-690.486 -53.7703 349.434)
(-672.852 -216.257 540.949)
(-569.839 -181.896 382.192)
(-646.177 -185.375 218.954)
(-680.015 -58.135 56.4134)
(-539.552 -189.289 69.1013)
(-542.667 -64.3248 224.36)
(-656.582 -185.187 57.7479)
(-659.628 -58.4904 219.955)
(-541.705 -193.386 227.45)
(-316.166 -316.079 220.943)
(-297.283 -439.205 58.6752)
(-401.183 -401.277 205.203)
(-439.069 -297.303 58.6241)
(-291.447 -441.416 218.787)
(-312.572 -312.71 69.3006)
(-441.518 -291.591 218.784)
(-183.836 -314.266 377.36)
(-59.7525 -443.213 359.858)
(-170.649 -398.672 496.75)
(-59.9781 -296.81 533.912)
(-189.505 -442.802 352.991)
(-188.764 -287.947 531.643)
(-61.151 -315.565 380.139)
(-307.645 -307.367 376.239)
(-444.056 -444.025 325.125)
(-271.856 -441.672 532.379)
(-441.885 -271.685 532.451)
(-308.13 -427.516 363.971)
(-427.729 -308.018 363.988)
(-307.748 -307.509 521.881)
(-314.418 -183.593 377.363)
(-398.688 -170.417 496.861)
(-442.973 -59.668 359.926)
(-296.533 -59.7202 533.906)
(-315.309 -60.971 380.069)
(-442.915 -189.401 353.142)
(-287.928 -188.53 531.684)
(-187.678 -187.412 223.829)
(-59.2219 -185.99 65.0227)
(-186.116 -59.3512 65.1135)
(-60.1395 -60.1469 224.219)
(-184.069 -62.1443 215.935)
(-182.126 -182.275 69.9999)
(-62.358 -184.049 215.846)
(-307.893 -191.477 224.272)
(-421.819 -180.109 59.1869)
(-424.619 -58.8504 214.028)
(-309.046 -60.438 70.7913)
(-304.494 -61.3971 225.039)
(-301.659 -186.506 66.2539)
(-428.873 -177.315 208.374)
(-187.396 -187.243 371.891)
(-56.7641 -179.249 514.212)
(-179.003 -56.7656 514.324)
(-61.3198 -61.4725 375.47)
(-187.645 -59.3635 364.626)
(-173.949 -174.008 522.303)
(-59.5544 -187.882 364.521)
(-276.871 -201.968 847.635)
(-440.671 -191.317 628.415)
(-321.289 -68.3534 688.207)
(-444.031 -28.7577 832.507)
(-288.708 -48.5905 834.776)
(-444.294 -218.146 823.191)
(-320.961 -181.856 684.047)
(-182.307 -182.566 930.755)
(-28.279 -200.676 1107.69)
(-67.4937 -67.191 969.58)
(-200.925 -28.5085 1107.53)
(-180.618 -67.5621 943.735)
(-67.3078 -180.327 943.814)
(-205.886 -206.062 1098.66)
(-172.502 -172.745 797.424)
(-61.8567 -193.229 657.748)
(-193.033 -61.8332 657.826)
(-54.6878 -54.7217 818.399)
(-180.843 -52.0067 799.599)
(-193.902 -193.875 664.451)
(-51.7816 -180.881 799.531)
(-197.695 697.395 -353.081)
(-64.4442 558.394 -396.793)
(-178.239 522.638 -518.6)
(-21.3535 688.856 -526.458)
(-207.824 675.688 -533.985)
(-174.507 562.753 -394.218)
(-46.1185 681.117 -364.066)
(-276.352 699.835 -258.964)
(-307.51 563.073 -95.6049)
(-426.029 512.106 -231.768)
(-435.285 684.652 -42.0964)
(-286.153 682.376 -67.2252)
(-310.633 565.233 -233.052)
(-432.381 671.6 -273.741)
(-168.935 763.907 -222.722)
(-61.7281 800.044 -95.4854)
(-22.61 920.133 -256.297)
(-192.653 918.716 -45.7652)
(-169.125 778.18 -92.3883)
(-194.107 905.835 -260.163)
(-59.9114 779.044 -225.73)
(-824.14 594.14 -726.154)
(-586 830.68 -728.102)
(-590.914 598.281 -1306.18)
(-804.879 812.183 -1347.9)
(-591.36 599.726 -729.449)
(-577.742 825.038 -1327.36)
(-814.904 821.308 -722.846)
(-847.88 605.172 1011.28)
(-600.702 848.762 743.599)
(-603.006 607.965 1030.17)
(-844.214 845.703 996.122)
(-604.824 609.953 752.507)
(-601.794 850.859 1010.48)
(-837.479 840.732 727.807)
(-597.491 1085.11 -414.013)
(-826.945 1071.8 -151.74)
(-864.21 1306.8 -401.044)
(-590.203 1307.31 -151.366)
(-604.992 1298.7 -398.798)
(-592.146 1083.57 -151.405)
(-830.439 1063.09 -398.017)
(-597.02 1090.26 439.14)
(-830.355 1074.14 136.748)
(-838.403 1287.67 446.116)
(-593.288 1311.15 137.037)
(-596.233 1087.76 138.453)
(-593.522 1306.34 438.272)
(-830.837 1072.28 435.247)
(-107.452 1317.2 -725.441)
(-344.638 1068.31 -726.345)
(-111.134 1087.05 -1329.91)
(-323.991 1302.7 -1339.37)
(-111.375 1080.33 -730.995)
(-337.68 1304.98 -718.525)
(-337.237 1066.72 -1336.43)
(-111.689 1335.34 1038.9)
(-108.665 1309.79 726.581)
(-352.418 1085.1 732.861)
(-110.897 1088.04 1005.93)
(-110.177 1087.76 735.255)
(-352.261 1303.79 727.002)
(-356.79 1086.84 1006.3)
(-575.367 1060.27 -721.735)
(-787.447 1044.36 -1353.51)
(-792.575 1290 -687.155)
(-539.784 1282.23 -1327.83)
(-566.053 1297.28 -712.652)
(-560.896 1054.1 -1349.15)
(-807.842 1053.73 -717.76)
(-633.477 1353.79 1077.93)
(-592.024 1077.9 725.46)
(-858.945 1085.4 1036.93)
(-857.331 1308.95 748.479)
(-601.133 1290.18 731.888)
(-607.058 1082.67 1005.83)
(-826.865 1056.63 721.634)
(-1907.88 603.911 -151.529)
(-1940.65 552.795 707.945)
(-1436.62 958.727 -154.426)
(-1613.06 485.013 -984.626)
(-1458.69 1033.43 -468.467)
(-955.795 1193.79 -1144.12)
(-1103.63 1339.93 -150.809)
(-1080.49 597.748 -148.442)
(-1049.78 571.169 -1343.83)
(-1223.12 854.857 683.801)
(-1913.62 600.628 140.994)
(-1461.94 979.614 119.492)
(-1107.21 1342.61 143.566)
(-1143.9 1455.11 1141.69)
(-1348.88 637.101 1075.94)
(-1082.75 600.527 139.179)
(-1307.19 596.755 -147.159)
(-1302.9 867.347 -396.261)
(-1067.29 833.284 -149.958)
(-1081.54 602.458 -412.379)