/*--------------------------------*- C++ -*----------------------------------*\
  =========                 |
  \\      /  F ield         | OpenFOAM: The Open Source CFD Toolbox
   \\    /   O peration     | Website:  https://openfoam.org
    \\  /    A nd           | Version:  9
     \\/     M anipulation  |
\*---------------------------------------------------------------------------*/
FoamFile
{
    format      ascii;
    class       volVectorField;
    location    "0.0001";
    object      U;
}
// * * * * * * * * * * * * * * * * * * * * * * * * * * * * * * * * * * * * * //

dimensions      [0 1 -1 0 0 0 0];

internalField   nonuniform List<vector> 
1959
(
(0 0 -1.49429e-17)
(0 0 -5.83102e-15)
(0 0 6.31097e-15)
(0 0 0)
(0 0 1.05485e-15)
(0 0 -1.11288e-15)
(0 0 3.45576e-16)
(0 0 0)
(0 1.36709e-16 0)
(0 1.37649e-16 2.61127e-16)
(0 2.51306e-16 6.80539e-19)
(0 0 0)
(0 0 0)
(0 1.37649e-16 -2.81819e-16)
(0 0 -6.84647e-15)
(0 1.50652e-16 -2.92043e-16)
(0 0 0)
(0 0 0)
(0 0 0)
(0 0 6.84667e-15)
(0 0 1.12657e-15)
(0 0 5.97215e-16)
(0 0 0)
(0 0 -1.19085e-15)
(0 0 0)
(0 0 0)
(0 0 0)
(0 0 0)
(0 0 0)
(0 0 1.19085e-15)
(0 0 1.19085e-15)
(0 0 -1.13776e-15)
(0 0 0)
(0 0 2.68175e-16)
(0 0 -1.01276e-15)
(0 0 1.09124e-16)
(0 0 0)
(0 0 -1.19085e-15)
(0 0 -1.18483e-24)
(0 0 1.40662e-18)
(0 0 0)
(0 0 0)
(0 0 -1.28264e-18)
(0 0 -1.95476e-19)
(0 0 1.37931e-18)
(0 -3.60886e-15 3.60533e-15)
(0 -3.60886e-15 3.49677e-15)
(0 -3.44359e-15 1.88125e-15)
(0 0 0)
(0 0 0)
(0 0 0)
(0 0 0)
(0 0 3.71222e-15)
(0 0 0)
(0 -2.82767e-41 3.44772e-15)
(0 -3.71222e-15 -3.15272e-15)
(0 -3.09481e-38 -5.26385e-17)
(0 0 0)
(0 0 0)
(0 0 0)
(0 0 0)
(0 0 0)
(0 6.31872e-18 0)
(0 -3.96584e-35 -5.72322e-23)
(0 -3.71222e-15 -3.15184e-15)
(0 -4.4556e-32 -5.72643e-23)
(0 0 0)
(0 -9.8008e-27 0)
(0 0 0)
(0 0 0)
(0 0 -6.28141e-15)
(0 0 0)
(0 0 0)
(0 0 7.42445e-15)
(0 0 1.48489e-14)
(0 0 -1.42774e-14)
(0 0 0)
(0 0 0)
(0 0 0)
(0 0 0)
(0 0 0)
(0 0 1.42774e-14)
(0 0 0)
(0 0 0)
(0 0 0)
(0 0 0)
(0 0 0)
(0 0 0)
(0 0 0)
(0 0 0)
(0 0 0)
(0 0 0)
(0 0 0)
(0 0 0)
(0 0 0)
(0 0 0)
(0 0 1.42774e-14)
(0 0 0)
(0 0 0)
(0 0 0)
(0 0 -1.25863e-14)
(0 0 0)
(0 0 0)
(0 0 -1.42774e-14)
(0 0 0)
(0 0 0)
(0 0 0)
(0 0 0)
(0 0 0)
(0 0 0)
(0 0 0)
(0 0 0)
(0 0 0)
(0 0 0)
(0 0 0)
(0 0 0)
(0 0 0)
(0 0 0)
(0 0 0)
(0 0 0)
(0 0 0)
(0 0 0)
(0 0 0)
(0 0 0)
(0 0 0)
(0 0 0)
(0 0 0)
(0 0 0)
(0 0 0)
(0 0 0)
(0 0 0)
(0 0 0)
(0 0 0)
(0 -1.85154e-15 -2.6954e-17)
(0 0 0)
(0 -1.84642e-15 2.19554e-21)
(0 0 0)
(0 -1.49549e-37 0)
(0 -5.23867e-35 0)
(0 -8.67129e-36 -3.42964e-18)
(0 -1.76147e-32 0)
(0 -3.83921e-32 2.96375e-18)
(0 -1.59638e-29 0)
(0 -5.9779e-30 0)
(0 -5.45649e-27 0)
(0 2.77192e-16 0)
(0 0 1.48434e-14)
(0 0 0)
(0 0 0)
(0 0 0)
(0 0 0)
(0 0 0)
(0 -1.85418e-15 4.69247e-20)
(0 0 0)
(0 3.4886e-15 -1.00884e-16)
(0 -1.49378e-15 4.63134e-17)
(0 0 2.68168e-19)
(0 6.97858e-17 -3.44909e-17)
(0 0 -4.33519e-19)
(0 -1.03302e-26 1.13179e-20)
(0 -3.1896e-24 0)
(0 -7.50596e-22 3.15971e-17)
(2.18837e-16 0 1.95542e-16)
(0 0 0)
(0 3.48117e-15 -7.55509e-17)
(0 0 1.42975e-19)
(0 0 -1.03897e-14)
(0 0 0)
(0 0 0)
(0 0 -1.18775e-19)
(0 0 1.37559e-14)
(0 0 -3.2932e-18)
(0 0 -4.77559e-20)
(0 -1.39258e-19 -3.74728e-18)
(0 -1.3757e-17 1.03311e-16)
(0 -1.41093e-17 5.2875e-19)
(0 0 1.4115e-20)
(0 0 -2.48794e-17)
(0 0 -7.15024e-15)
(0 0 5.3532e-16)
(0 0 6.37388e-15)
(0 0 -1.15878e-14)
(0 0 -9.18713e-16)
(0 0 0)
(-3.25081e-21 1.7181e-37 7.42367e-15)
(0 0 0)
(0 0 0)
(0 0 0)
(0 0 0)
(0 0 0)
(0 0 0)
(0 0 0)
(0 0 0)
(0 4.3695e-20 -1.82662e-15)
(0 7.48381e-17 -1.7207e-19)
(0 0 0)
(0 0 0)
(0 0 0)
(0 0 -2.24197e-21)
(0 1.2277e-23 7.37864e-17)
(0 0 2.08263e-18)
(-4.5511e-17 0 3.96184e-21)
(-6.47569e-17 -1.08385e-22 0)
(0 -9.30731e-16 -1.69383e-15)
(0 3.62752e-15 -4.9768e-20)
(0 0 -3.65297e-25)
(0 -4.65889e-27 4.35244e-18)
(0 -4.01588e-24 -1.36182e-16)
(0 1.19562e-16 3.65924e-15)
(0 -3.21336e-24 1.15964e-16)
(0 0 -1.59169e-15)
(0 0 -1.47207e-16)
(0 0 -1.49256e-16)
(0 0 0)
(0 0 -1.80108e-24)
(5.43474e-18 1.4047e-22 0)
(0 1.22665e-18 0)
(0 2.40481e-31 0)
(0 1.86695e-18 0)
(0 2.11827e-20 0)
(0 0 1.82914e-15)
(0 0 1.82906e-15)
(0 0 0)
(0 0 0)
(0 0 0)
(-1.26977e-21 0 4.3542e-17)
(0 0 -1.23484e-23)
(0 0 0)
(-1.16802e-24 6.13896e-29 6.45218e-15)
(0 0 0)
(0 0 0)
(0 0 0)
(0 0 0)
(0 0 0)
(0 0 0)
(0 0 0)
(0 0 0)
(0 0 0)
(0 0 0)
(0 0 0)
(0 0 0)
(0 0 0)
(0 0 0)
(0 0 0)
(0 0 0)
(0 0 0)
(0 0 0)
(0 0 0)
(0 0 0)
(0 3.65002e-15 -3.71205e-15)
(0 0 0)
(0 3.71222e-15 0)
(0 1.82753e-15 0)
(0 3.86177e-17 0)
(0 4.16473e-23 5.45359e-20)
(0 1.82807e-15 -9.82747e-19)
(0 3.86177e-17 0)
(-3.71222e-15 0 2.74399e-20)
(0 8.75522e-19 8.9008e-19)
(0 1.78892e-15 -3.83769e-17)
(0 3.86177e-17 -5.33825e-19)
(0 0 0)
(0 1.53504e-16 0)
(0 3.70527e-15 0)
(0 1.85611e-15 -3.71222e-15)
(0 -3.3165e-18 0)
(0 0 0)
(0 0 0)
(0 0 -7.05233e-18)
(0 0 0)
(0 3.69637e-15 2.59175e-16)
(0 1.85611e-15 0)
(0 -3.2797e-18 5.68735e-19)
(0 0 0)
(0 0 0)
(0 0 5.07965e-19)
(0 0 0)
(0 0 0)
(0 3.71222e-15 -5.19843e-18)
(0 1.85611e-15 0)
(0 -3.35233e-18 7.95904e-25)
(0 0 0)
(0 0 0)
(0 0 5.26768e-15)
(0 0 0)
(0 0 1.29057e-14)
(0 0 6.40655e-15)
(0 0 0)
(0 0 -9.67672e-15)
(0 0 0)
(0 3.71222e-15 7.29862e-17)
(0 1.85602e-15 3.54408e-15)
(0 -2.65583e-18 1.79654e-15)
(0 0 7.51763e-17)
(0 0 3.82381e-17)
(0 0 -1.17797e-20)
(0 0 3.71222e-15)
(0 1.15853e-20 0)
(0 1.067e-18 0)
(0 -1.81948e-15 -1.79084e-15)
(0 -3.62413e-15 -1.85603e-15)
(-3.71222e-15 3.57224e-15 7.42445e-15)
(0 0 0)
(0 0 -2.93333e-17)
(-3.71222e-15 3.55872e-15 -6.29353e-15)
(0 0 0)
(0 0 0)
(0 0 0)
(0 -3.07393e-43 0)
(0 1.19939e-47 0)
(0 3.69637e-15 -2.76567e-16)
(0 -9.51831e-41 0)
(0 -4.79323e-42 -2.95255e-16)
(0 0 5.03237e-19)
(-3.71222e-15 0 6.58913e-15)
(0 0 7.42445e-15)
(0 0 2.90665e-17)
(-3.71222e-15 3.56257e-15 -6.37463e-15)
(0 0 0)
(0 0 0)
(0 0 0)
(0 0 -2.65359e-20)
(0 -2.33737e-38 0)
(0 1.16262e-38 2.68508e-16)
(0 3.71222e-15 -2.82072e-16)
(0 3.65569e-15 -7.10486e-15)
(0 -4.35516e-36 0)
(0 6.15051e-35 0)
(0 0 2.72448e-17)
(0 0 2.66844e-17)
(0 0 2.55705e-17)
(-3.71222e-15 0 6.65675e-15)
(0 0 7.42445e-15)
(0 0 2.9069e-17)
(-3.71222e-15 3.56255e-15 -6.29977e-15)
(0 0 0)
(0 0 0)
(0 0 -1.66169e-16)
(0 0 0)
(0 0 0)
(0 0 0)
(0 3.66644e-15 7.13451e-15)
(0 -5.99316e-34 0)
(0 -1.44886e-32 1.57387e-22)
(0 3.71222e-15 -2.87319e-16)
(0 3.71222e-15 -7.42445e-15)
(0 0 0)
(0 0 0)
(0 3.67695e-15 1.72329e-16)
(0 0 1.2285e-14)
(0 0 0)
(0 0 0)
(0 0 -1.79892e-15)
(6.38011e-15 -7.42445e-15 3.70643e-15)
(0 -9.69544e-21 1.14304e-16)
(-6.38011e-15 6.94137e-15 3.71222e-15)
(0 0 0)
(-3.18806e-15 0 3.4831e-15)
(7.10516e-15 0 3.60532e-15)
(0 0 9.20235e-15)
(0 0 0)
(0 0 -5.6032e-16)
(0 5.49367e-23 0)
(6.94137e-15 -6.66075e-15 3.71222e-15)
(0 1.71532e-20 0)
(0 6.94396e-15 5.56833e-15)
(0 0 1.57562e-21)
(0 -9.01737e-23 -9.66965e-16)
(0 0 2.78224e-15)
(0 1.44687e-16 0)
(0 3.45054e-25 2.50572e-21)
(0 3.71219e-15 1.42121e-19)
(0 2.7354e-25 0)
(0 2.45148e-23 0)
(0 0 2.30276e-16)
(0 0 -6.01164e-17)
(0 5.77444e-21 -2.74548e-16)
(0 3.43248e-20 -2.33887e-18)
(0 -2.12418e-21 2.56991e-18)
(0 6.7778e-19 4.32755e-31)
(-3.59212e-15 0 4.36887e-22)
(-3.58873e-15 0 0)
(-3.58873e-15 0 0)
(0 2.83559e-18 0)
(0 -1.13347e-36 5.49981e-21)
(0 -7.90394e-38 1.32991e-21)
(0 -8.1932e-28 5.46605e-21)
(-3.71222e-15 2.04755e-18 2.09997e-18)
(0 -1.3244e-19 0)
(-3.58873e-15 2.07794e-18 0)
(0 7.59239e-17 7.63085e-17)
(0 7.65983e-17 7.63085e-17)
(0 7.68756e-17 7.63085e-17)
(0 7.69095e-17 7.63085e-17)
(0 0 0)
(0 1.61768e-19 0)
(0 4.79729e-18 0)
(0 0 0)
(0 0 0)
(0 0 0)
(0 0 0)
(0 0 0)
(0 0 0)
(0 1.53504e-16 0)
(0 3.71222e-15 0)
(0 0 0)
(0 3.71222e-15 0)
(0 0 0)
(0 0 0)
(0 0 0)
(0 0 0)
(0 0 0)
(0 0 -1.04524e-15)
(0 0 9.47093e-16)
(0 0 0)
(0 1.53504e-16 -2.06666e-18)
(0 0 0)
(0 1.53504e-16 0)
(0 3.71222e-15 -7.30685e-17)
(0 0 0)
(0 3.71222e-15 0)
(0 0 0)
(0 0 0)
(0 0 0)
(0 0 0)
(0 0 0)
(0 0 6.38557e-17)
(0 0 0)
(0 0 0)
(0 8.21228e-20 0)
(0 0 8.46734e-20)
(0 1.00409e-21 0)
(0 0 0)
(0 0 -1.03704e-15)
(0 0 9.47146e-16)
(0 0 0)
(0 1.53504e-16 -2.06666e-18)
(0 0 0)
(0 1.53498e-16 0)
(0 3.71222e-15 -7.30685e-17)
(0 0 0)
(0 3.71222e-15 0)
(0 0 0)
(0 0 5.28444e-15)
(0 0 0)
(0 0 0)
(-7.11744e-15 0 -1.45141e-16)
(0 0 2.03836e-16)
(0 0 1.39647e-16)
(0 0 3.71222e-15)
(0 0 4.489e-16)
(0 0 -1.31343e-14)
(0 0 0)
(0 0 8.40508e-16)
(0 0 0)
(0 0 1.11294e-14)
(0 0 6.97085e-17)
(0 0 5.35212e-16)
(0 0 6.7607e-16)
(0 0 0)
(0 0 -1.16963e-14)
(0 0 -8.147e-16)
(0 0 -1.68579e-15)
(0 0 -1.41073e-18)
(0 2.12085e-22 5.1359e-15)
(0 0 0)
(0 0 7.42445e-15)
(-7.42445e-15 1.68501e-20 -3.73507e-20)
(0 6.83452e-21 0)
(0 0 7.36264e-17)
(0 1.73601e-20 1.85611e-15)
(0 0 -9.12978e-16)
(0 0 1.29057e-14)
(0 0 0)
(0 0 -8.40446e-16)
(0 0 0)
(0 0 -1.17235e-14)
(0 0 9.08502e-16)
(0 1.36159e-40 1.17735e-16)
(0 0 -8.26108e-16)
(0 0 0)
(0 0 1.02721e-14)
(0 0 -4.23614e-17)
(0 0 1.51452e-15)
(0 0 1.67195e-15)
(0 0 0)
(0 0 0)
(0 0 0)
(0 0 0)
(0 0 -1.48489e-14)
(0 0 9.33305e-16)
(0 0 2.18129e-17)
(0 0 3.89051e-21)
(0 0 0)
(0 0 8.39074e-16)
(0 0 -1.27809e-14)
(0 0 1.15054e-14)
(0 0 -1.12455e-14)
(0 0 0)
(0 0 1.02054e-14)
(0 0 0)
(0 0 0)
(0 0 0)
(0 0 0)
(0 0 -6.82723e-15)
(0 0 0)
(0 0 0)
(0 0 1.47346e-14)
(0 2.74566e-16 2.76086e-17)
(0 0 2.45037e-17)
(0 0 -2.76746e-17)
(0 0 1.04498e-15)
(0 0 9.73294e-16)
(0 0 -1.14353e-15)
(0 0 -1.1242e-15)
(0 0 1.19825e-14)
(0 0 9.79711e-15)
(0 0 -1.1877e-14)
(0 0 -1.34772e-14)
(0 0 0)
(0 0 0)
(0 0 0)
(0 0 0)
(0 0 0)
(0 0 0)
(0 0 0)
(0 0 0)
(0 0 0)
(0 0 0)
(0 0 0)
(0 0 0)
(0 0 -6.82744e-15)
(0 0 -2.76584e-18)
(0 0 0)
(0 0 0)
(0 0 0)
(0 0 0)
(0 0 0)
(0 0 0)
(0 0 0)
(0 2.94964e-16 -1.32423e-16)
(0 0 -1.32724e-16)
(0 0 9.49849e-16)
(0 0 0)
(0 0 1.1488e-14)
(0 0 -1.17457e-14)
(0 0 2.55896e-17)
(0 0 1.80313e-19)
(0 0 4.33018e-19)
(0 0 6.5192e-17)
(0 0 0)
(0 0 9.43209e-16)
(0 0 2.0662e-18)
(0 0 1.15194e-15)
(0 0 -1.34772e-14)
(0 0 1.2518e-14)
(0 0 -1.31015e-17)
(0 0 -1.27914e-14)
(0 0 -1.24485e-14)
(0 0 1.04768e-14)
(0 0 9.61041e-15)
(0 0 1.1738e-14)
(0 0 0)
(0 0 0)
(0 0 -6.82723e-15)
(0 0 -1.21007e-14)
(0 0 0)
(0 0 0)
(0 0 -2.92862e-17)
(0 0 -5.06242e-16)
(0 0 4.00405e-18)
(0 0 1.04429e-15)
(0 0 9.66916e-16)
(0 0 -1.13645e-15)
(0 0 -1.12431e-15)
(0 0 1.19733e-14)
(0 0 9.71704e-15)
(0 0 -1.16484e-14)
(0 0 -1.34772e-14)
(0 0 0)
(0 0 0)
(0 0 0)
(0 0 0)
(0 0 0)
(0 0 0)
(0 0 0)
(0 0 -8.30109e-17)
(0 0 0)
(0 0 6.82744e-15)
(0 0 0)
(0 0 1.45273e-15)
(0 0 0)
(0 0 -6.85573e-15)
(0 0 -9.55909e-16)
(0 0 0)
(0 0 0)
(0 0 0)
(0 0 0)
(0 0 0)
(0 0 0)
(0 0 -1.02054e-14)
(0 0 1.71277e-16)
(0 0 0)
(0 0 0)
(0 0 1.11326e-14)
(0 0 0)
(0 0 0)
(0 0 -1.40488e-14)
(0 0 -1.14929e-14)
(0 0 0)
(0 0 9.30349e-15)
(0 0 2.02691e-18)
(0 0 0)
(0 0 0)
(0 0 0)
(0 0 1.06318e-15)
(0 0 1.15671e-16)
(0 0 0)
(0 0 0)
(0 0 1.24968e-14)
(0 0 1.06318e-15)
(0 0 -1.1634e-14)
(0 0 2.15163e-17)
(0 0 -2.54497e-17)
(0 0 -1.67054e-17)
(0 0 1.05066e-15)
(0 0 8.22745e-16)
(0 0 -9.249e-16)
(0 0 -9.65981e-16)
(0 0 1.24149e-14)
(0 0 1.10335e-14)
(0 0 -1.12454e-14)
(0 0 -1.32486e-14)
(0 0 0)
(0 0 -1.57645e-17)
(0 0 -1.35639e-18)
(0 0 0)
(0 0 -9.6539e-16)
(0 0 9.43209e-16)
(0 0 -5.42192e-17)
(0 0 0)
(0 0 -1.34772e-14)
(0 0 1.2518e-14)
(0 0 0)
(0 0 -1.27914e-14)
(0 0 -1.23342e-14)
(0 0 1.04803e-14)
(0 0 9.61041e-15)
(0 0 1.1738e-14)
(0 0 0)
(0 0 0)
(0 0 -6.82723e-15)
(0 0 -1.21005e-14)
(0 0 0)
(0 0 0)
(0 8.34009e-20 -2.92856e-17)
(0 0 -2.06682e-19)
(0 0 2.62808e-17)
(0 0 1.04445e-15)
(0 0 9.66545e-16)
(0 0 -1.13645e-15)
(0 0 -1.10813e-15)
(0 0 1.19732e-14)
(0 0 9.71704e-15)
(0 0 -1.16484e-14)
(0 0 -1.34772e-14)
(0 0 0)
(0 0 0)
(0 0 0)
(0 0 0)
(0 0 0)
(0 0 0)
(0 0 0)
(0 0 0)
(0 0 0)
(0 0 6.82723e-15)
(0 0 0)
(0 0 1.45331e-15)
(0 0 0)
(0 0 -7.42445e-15)
(0 0 -1.34772e-14)
(0 0 -1.32357e-14)
(0 0 0)
(0 0 2.94519e-17)
(0 0 1.15073e-14)
(0 0 1.11192e-14)
(0 0 0)
(0 0 0)
(0 0 0)
(0 0 0)
(0 0 0)
(0 0 0)
(0 0 0)
(0 0 0)
(0 0 0)
(0 0 9.40112e-17)
(0 0 0)
(0 0 0)
(0 0 0)
(0 0 0)
(0 0 0)
(0 0 -1.39304e-16)
(0 0 2.92406e-15)
(0 0 0)
(0 0 0)
(0 0 0)
(0 0 -7.54015e-24)
(0 0 3.60023e-16)
(0 0 8.84458e-16)
(0 0 0)
(0 0 -1.01409e-14)
(0 0 -1.11916e-14)
(0 0 0)
(0 0 -4.7581e-16)
(0 0 1.16549e-14)
(0 0 -5.81853e-15)
(0 0 0)
(0 0 0)
(0 0 -2.73488e-17)
(0 0 7.42445e-15)
(0 0 -1.23145e-18)
(0 0 -2.81505e-18)
(0 0 3.99044e-19)
(0 0 0)
(0 0 0)
(0 0 -7.13658e-16)
(0 0 0)
(0 0 6.33378e-18)
(0 0 -8.30871e-17)
(0 0 3.50437e-16)
(0 0 0)
(0 0 0)
(0 0 7.69771e-16)
(0 0 -4.13152e-16)
(0 0 2.12528e-17)
(0 0 8.97111e-17)
(0 0 7.53841e-16)
(0 0 1.14304e-16)
(0 0 -1.02717e-14)
(0 0 -9.2869e-15)
(0 0 0)
(0 0 -8.69111e-16)
(0 0 1.07434e-14)
(0 0 4.79986e-19)
(0 7.39899e-23 -1.42342e-18)
(0 1.73371e-15 -1.59848e-18)
(0 -8.4433e-19 1.85117e-15)
(0 1.23848e-18 1.09393e-15)
(0 0 0)
(0 0 0)
(0 0 -7.23066e-16)
(0 0 0)
(0 0 8.25921e-16)
(0 0 1.09167e-14)
(0 0 -9.8748e-15)
(0 0 0)
(0 0 0)
(0 0 8.47442e-16)
(0 0 0)
(0 0 7.1528e-17)
(0 0 9.42567e-16)
(0 0 1.08219e-14)
(0 0 0)
(0 0 -1.12455e-14)
(0 0 7.49685e-17)
(0 0 -1.19443e-15)
(0 0 1.25403e-14)
(0 0 1.16796e-14)
(0 0 -1.13968e-14)
(0 0 0)
(0 0 0)
(0 0 0)
(0 0 0)
(0 0 0)
(0 0 -4.51227e-22)
(0 0 0)
(0 0 0)
(0 0 -2.17456e-18)
(0 6.8996e-17 0)
(0 1.52637e-16 -1.50313e-16)
(0 3.71222e-15 -3.5983e-15)
(0 0 0)
(0 0 0)
(0 0 0)
(0 3.71222e-15 6.79082e-15)
(0 0 0)
(0 0 0)
(0 0 0)
(0 0 0)
(0 0 0)
(0 0 0)
(0 3.71164e-15 -3.17194e-15)
(0 -1.20414e-16 0)
(0 0 -1.16698e-18)
(0 0 0)
(0 0 -1.4283e-16)
(0 0 0)
(0 0 1.48392e-16)
(0 -1.20414e-16 0)
(0 0 8.01949e-18)
(0 -1.15059e-18 0)
(0 0 4.19039e-20)
(0 0 -1.49094e-16)
(0 0 0)
(0 -1.22108e-16 0)
(0 -1.22108e-16 0)
(0 0 1.5134e-16)
(0 0 1.99506e-18)
(0 0 -3.56288e-15)
(0 1.10991e-16 0)
(0 1.0419e-18 0)
(0 1.09962e-16 0)
(0 1.06303e-18 0)
(0 1.14442e-18 0)
(0 1.10995e-16 0)
(0 1.11008e-16 0)
(0 -3.68736e-19 3.5216e-22)
(0 1.06843e-18 0)
(0 1.08151e-18 0)
(0 1.11562e-16 0)
(0 1.11285e-16 0)
(0 1.04693e-16 0)
(0 1.04306e-16 0)
(0 -7.21542e-21 2.07301e-20)
(0 0 -2.49426e-17)
(0 0 0)
(0 0 6.82723e-15)
(0 0 -1.45163e-17)
(0 0 1.50649e-15)
(0 0 -2.80103e-19)
(0 0 -6.52895e-19)
(0 0 -1.06207e-15)
(0 0 0)
(0 0 0)
(0 0 -3.26016e-16)
(0 0 1.25863e-14)
(0 0 -1.2173e-14)
(0 0 -1.95739e-17)
(0 0 -7.57897e-16)
(0 0 1.63555e-16)
(0 0 -3.19157e-16)
(0 0 -7.42445e-15)
(0 0 0)
(0 0 0)
(0 0 0)
(0 0 0)
(0 0 0)
(0 0 -2.73045e-16)
(0 0 -1.48489e-14)
(0 0 2.01929e-18)
(0 0 8.23497e-20)
(0 0 -7.17484e-18)
(0 0 -9.53417e-20)
(0 0 3.56175e-19)
(0 -1.78556e-25 1.49442e-17)
(0 -3.18619e-25 2.80749e-17)
(0 0 4.75928e-19)
(0 -3.18619e-25 2.81011e-17)
(0 -2.22086e-25 2.25559e-17)
(0 0 6.08894e-19)
(0 5.24883e-21 -1.19997e-16)
(0 1.83615e-20 -1.69773e-18)
(0 1.85823e-22 6.5977e-19)
(0 5.28533e-21 -1.19997e-16)
(0 5.24272e-21 -1.19997e-16)
(0 5.24272e-21 -1.19997e-16)
(0 -3.57541e-15 -3.65296e-15)
(0 3.50568e-15 -2.52952e-15)
(0 -3.65047e-15 -2.96258e-15)
(0 3.52244e-15 0)
(0 -3.87004e-34 2.26021e-16)
(0 0 2.13825e-16)
(0 0 -2.33466e-32)
(0 0 0)
(-6.58569e-29 1.31813e-56 5.14331e-22)
(0 0 0)
(0 0 0)
(0 0 0)
(0 0 0)
(0 0 5.2776e-15)
(0 0 0)
(0 0 -7.42445e-15)
(0 0 0)
(0 0 0)
(0 0 0)
(0 0 0)
(0 0 0)
(0 0 0)
(0 0 -7.11744e-15)
(3.71222e-15 -3.30323e-15 0)
(0 0 6.6594e-18)
(0 0 0)
(0 0 0)
(0 0 -1.63898e-17)
(0 0 1.11488e-18)
(0 0 -4.80925e-20)
(0 0 0)
(0 0 -7.59972e-21)
(0 -3.41362e-15 -6.38631e-15)
(0 0 9.76236e-18)
(0 0 0)
(0 0 0)
(0 0 -1.71343e-17)
(0 0 -1.28536e-19)
(0 0 -5.8256e-19)
(0 0 -3.64365e-17)
(3.66424e-15 0 5.33921e-15)
(0 0 0)
(0 0 0)
(0 5.14081e-17 0)
(0 5.23633e-23 0)
(0 -7.46953e-30 1.37896e-20)
(0 -6.73843e-19 0)
(0 -5.00062e-50 0)
(0 -1.91882e-47 0)
(0 0 -2.37599e-18)
(0 0 -1.32895e-16)
(0 -4.23607e-42 2.57937e-17)
(0 -1.72183e-40 -8.83928e-15)
(0 -2.00511e-45 -9.64323e-18)
(0 -2.31794e-38 8.65998e-15)
(0 0 0)
(0 0 0)
(0 0 0)
(0 0 1.01093e-15)
(0 0 0)
(0 0 1.10887e-14)
(0 0 3.61517e-18)
(0 0 -1.07021e-15)
(0 0 -4.37448e-18)
(0 0 0)
(0 0 -2.92659e-17)
(0 0 0)
(0 0 1.09916e-16)
(0 -9.33053e-40 0)
(0 -2.17296e-37 1.23342e-14)
(0 0 -2.40999e-18)
(0 -1.10816e-18 -1.328e-16)
(0 -3.47365e-33 2.61341e-17)
(0 -3.78902e-31 -8.83928e-15)
(0 -1.59539e-35 -1.05749e-14)
(0 -1.49506e-29 8.97446e-15)
(0 0 0)
(0 0 -2.37971e-17)
(0 0 -1.12219e-16)
(0 0 1.01486e-15)
(0 0 0)
(0 0 0)
(0 0 3.64729e-18)
(0 0 -1.07021e-15)
(0 0 -3.39059e-18)
(0 0 0)
(0 0 1.10457e-17)
(0 0 -2.48784e-17)
(0 -6.0436e-31 0)
(0 -4.32313e-25 1.23342e-14)
(0 0 -1.30722e-16)
(0 -3.71222e-15 9.41543e-18)
(0 0 9.3836e-16)
(0 0 -1.06914e-14)
(0 -1.79472e-23 -1.07063e-14)
(0 0 3.21408e-18)
(0 -5.55634e-18 9.64093e-15)
(0 0 0)
(0 0 0)
(0 0 0)
(0 0 1.09489e-15)
(0 0 1.19253e-18)
(0 0 0)
(0 0 5.95497e-17)
(0 0 -1.1239e-15)
(0 0 -4.14318e-18)
(0 0 0)
(0 0 0)
(0 0 0)
(6.66074e-15 0 0)
(0 0 3.71222e-15)
(0 2.64818e-16 0)
(-6.94137e-15 6.40256e-15 3.19786e-15)
(0 0 0)
(0 0 5.9523e-17)
(7.42445e-15 6.07261e-37 -1.83759e-17)
(0 3.64402e-15 -1.55753e-15)
(0 1.41982e-18 5.56916e-15)
(-5.52009e-19 0 0)
(-3.20178e-15 0 7.11744e-15)
(-3.67545e-15 0 -7.11744e-15)
(-3.71222e-15 7.49104e-27 3.04696e-20)
(-3.58873e-15 1.67136e-24 0)
(0 1.87657e-28 0)
(0 2.73975e-26 3.2478e-20)
(0 0 0)
(0 0 0)
(0 0 0)
(0 0 0)
(0 0 0)
(0 0 5.14503e-19)
(0 0 4.24832e-19)
(0 0 1.24907e-22)
(0 0 0)
(0 0 0)
(0 0 0)
(0 0 -1.01409e-14)
(0 0 -9.07584e-18)
(0 0 3.56756e-17)
(0 0 0)
(0 0 0)
(0 0 0)
(0 0 1.05549e-15)
(0 0 0)
(0 0 0)
(0 0 0)
(0 0 0)
(0 0 0)
(0 0 0)
(0 0 0)
(0 -3.42785e-15 6.55157e-15)
(3.32339e-18 0 -2.12366e-20)
(0 0 0)
(0 0 0)
(0 0 7.14316e-18)
(0 0 -9.69664e-18)
(0 0 1.09966e-16)
(0 0 9.48617e-16)
(0 0 0)
(0 0 0)
(0 0 1.05549e-15)
(0 2.21034e-23 1.73057e-21)
(0 0 0)
(0 9.1569e-22 0)
(0 0 0)
(0 0 -1.02781e-15)
(0 0 9.50031e-16)
(0 0 0)
(0 -3.41362e-15 -2.31792e-17)
(0 0 0)
(0 0 9.43565e-20)
(0 0 0)
(0 0 -1.12229e-17)
(0 0 -2.96839e-16)
(0 0 -4.96889e-17)
(0 0 9.48617e-16)
(0 0 0)
(0 0 0)
(0 0 1.08618e-15)
(0 2.24823e-22 8.52776e-15)
(0 0 0)
(0 0 0)
(0 0 0)
(-6.3953e-15 0 1.55255e-15)
(0 1.53074e-20 -3.56021e-15)
(0 2.85321e-20 4.38862e-15)
(0 0 0)
(0 0 1.29057e-14)
(0 0 0)
(0 0 0)
(0 0 0)
(0 0 0)
(0 5.58017e-47 0)
(0 1.84214e-44 0)
(1.11282e-19 0 0)
(0 0 0)
(0 0 0)
(1.09906e-19 0 0)
(0 0 0)
(0 0 -1.29057e-14)
(0 0 9.25932e-16)
(0 0 1.09626e-14)
(0 0 0)
(0 0 -9.59789e-16)
(0 0 1.16438e-14)
(0 0 -1.15824e-14)
(0 0 0)
(0 2.29492e-42 2.47047e-17)
(0 0 0)
(0 2.64905e-40 0)
(1.09937e-19 0 0)
(0 0 0)
(0 0 9.43209e-16)
(1.0858e-19 0 0)
(0 0 0)
(0 0 -1.34772e-14)
(0 0 1.2518e-14)
(0 0 0)
(0 0 0)
(0 0 -1.05414e-15)
(0 0 -1.36545e-14)
(0 0 -1.04754e-18)
(0 0 -1.01251e-15)
(0 0 9.42429e-16)
(0 0 1.79141e-15)
(0 0 -1.21868e-14)
(0 0 1.24903e-14)
(0 0 -9.2694e-16)
(0 0 -1.12455e-14)
(0 0 0)
(0 0 1.02054e-14)
(0 0 0)
(0 0 0)
(0 0 0)
(0 0 0)
(0 0 0)
(0 0 0)
(0 0 2.72717e-17)
(0 0 2.20956e-17)
(0 0 -2.32535e-17)
(0 0 1.03586e-15)
(0 0 9.01401e-16)
(0 0 -1.13645e-15)
(0 0 -1.00066e-15)
(0 0 1.1973e-14)
(0 0 9.71704e-15)
(0 0 -1.16484e-14)
(0 0 -1.34772e-14)
(0 0 -9.49621e-19)
(0 0 0)
(0 0 0)
(0 0 0)
(0 0 -1.37165e-15)
(0 0 0)
(0 0 9.31105e-16)
(0 0 0)
(0 0 -1.0324e-15)
(0 0 -1.09859e-15)
(0 2.81417e-38 2.66992e-17)
(0 0 0)
(0 2.77768e-36 0)
(6.09647e-23 0 0)
(0 0 1.05151e-15)
(9.75691e-21 0 -9.01584e-16)
(0 0 0)
(0 0 1.26771e-14)
(0 0 1.14894e-14)
(0 0 -1.2603e-14)
(0 0 -9.30349e-15)
(0 0 0)
(0 0 -9.58205e-16)
(0 0 1.1718e-14)
(0 0 -1.15942e-14)
(0 0 0)
(0 6.26452e-34 2.51857e-17)
(0 0 4.72041e-19)
(0 5.06857e-32 0)
(1.1299e-24 0 0)
(0 0 0)
(0 0 9.43592e-16)
(7.49316e-27 0 0)
(0 0 0)
(0 0 -1.31343e-14)
(0 0 1.25274e-14)
(0 0 0)
(0 0 1.17936e-14)
(0 0 -1.06594e-15)
(0 0 -1.27622e-14)
(0 0 -1.00982e-18)
(0 0 -1.01251e-15)
(0 0 9.42429e-16)
(0 0 1.79141e-15)
(0 0 -1.21868e-14)
(0 0 1.24903e-14)
(0 0 -9.2694e-16)
(0 0 -1.40488e-14)
(0 0 -1.19913e-14)
(0 0 1.15008e-14)
(0 0 9.61041e-15)
(0 0 -1.26286e-16)
(0 0 0)
(0 0 0)
(0 0 0)
(0 0 0)
(0 7.16553e-20 2.94327e-17)
(0 0 4.23846e-16)
(0 0 2.54379e-17)
(0 0 1.15194e-15)
(0 0 1.04331e-15)
(0 0 -1.12707e-15)
(0 0 1.18011e-16)
(0 0 1.29057e-14)
(0 0 1.20357e-14)
(0 0 -1.14198e-14)
(0 0 1.09859e-15)
(0 0 0)
(0 0 9.15213e-16)
(0 0 0)
(0 0 -1.02737e-15)
(0 0 -1.13128e-15)
(0 0 -2.21048e-17)
(0 8.29593e-30 2.91111e-17)
(0 5.23271e-28 0)
(2.39448e-31 0 0)
(0 0 1.14468e-15)
(4.51402e-29 0 -8.92199e-16)
(0 0 0)
(0 0 1.25628e-14)
(0 0 1.1877e-14)
(0 0 -1.25098e-14)
(0 0 -9.61041e-15)
(0 0 0)
(0 0 -9.61552e-16)
(0 0 1.30425e-14)
(0 0 -1.16438e-14)
(0 0 0)
(0 0 -1.48826e-18)
(0 8.37233e-28 -1.95807e-17)
(0 4.51906e-26 2.93597e-17)
(0 0 0)
(0 0 -9.48607e-16)
(0 0 1.16956e-15)
(0 0 -5.52598e-17)
(0 0 0)
(0 0 -1.12455e-14)
(0 0 1.33629e-14)
(0 0 0)
(0 0 1.17936e-14)
(0 0 -1.06595e-15)
(0 0 -1.27622e-14)
(0 0 -1.29043e-18)
(0 0 1.04683e-15)
(0 0 9.43756e-16)
(0 0 1.79374e-15)
(0 0 -1.24635e-14)
(0 0 1.24903e-14)
(0 0 -9.4556e-16)
(0 0 -4.85016e-16)
(0 0 0)
(0 0 1.04006e-14)
(0 0 -1.03059e-15)
(0 0 0)
(0 0 -6.06946e-17)
(0 0 -1.18574e-14)
(0 0 2.56865e-17)
(0 0 0)
(0 0 0)
(0 0 -2.05734e-19)
(0 0 0)
(0 0 -1.66851e-17)
(0 0 -2.13488e-21)
(0 0 -1.03362e-16)
(0 0 0)
(0 0 0)
(0 0 -2.52435e-17)
(0 0 0)
(0 0 -1.83531e-18)
(0 0 -1.10617e-15)
(-2.33459e-16 0 -2.97718e-21)
(0 1.64042e-19 1.7174e-15)
(0 7.33712e-20 1.33439e-15)
(0 6.93281e-23 9.13939e-20)
(0 0 0)
(0 4.09043e-21 0)
(0 1.37696e-21 0)
(0 1.617e-21 7.23281e-18)
(0 1.12642e-19 0)
(0 1.12743e-19 0)
(0 -2.48605e-16 7.27094e-15)
(0 2.62617e-17 0)
(0 1.70685e-17 0)
(0 0 -1.86258e-18)
(0 -3.63124e-15 3.71222e-15)
(0 2.67124e-17 0)
(0 2.06042e-17 -3.71222e-15)
(0 0 -3.96544e-18)
(0 -3.62035e-15 3.71222e-15)
(0 -3.63264e-15 7.42445e-15)
(0 -2.66048e-17 0)
(0 -2.66048e-17 0)
(0 -3.04233e-16 -3.71222e-15)
(0 -6.63889e-15 -3.71222e-15)
(0 -3.6205e-15 1.84691e-15)
(0 0 -4.67728e-17)
(0 2.43453e-17 -3.55872e-15)
(0 0 5.95969e-15)
(0 0 0)
(0 0 0)
(0 0 2.8699e-16)
(0 0 -7.42445e-15)
(0 0 1.08377e-15)
(0 0 7.83258e-18)
(0 0 -2.28022e-18)
(0 0 -3.66499e-16)
(0 0 0)
(0 0 -6.45851e-16)
(0 0 0)
(0 0 -2.06393e-17)
(0 0 -7.33726e-17)
(0 0 1.03225e-15)
(0 0 0)
(0 0 0)
(0 0 -9.44712e-15)
(0 0 0)
(0 0 1.2772e-14)
(0 0 -8.68997e-16)
(0 0 0)
(0 0 0)
(0 0 -6.99925e-16)
(0 0 -1.14448e-15)
(0 0 -9.5785e-17)
(0 0 -1.01921e-15)
(0 0 -1.26939e-14)
(0 0 0)
(0 0 0)
(0 0 1.01108e-15)
(0 0 -1.42774e-14)
(0 0 8.27478e-17)
(0 0 9.66602e-16)
(0 0 1.10986e-14)
(0 0 0)
(0 0 0)
(0 0 0)
(0 0 0)
(0 0 0)
(0 0 0)
(0 0 0)
(0 0 0)
(0 0 0)
(0 0 4.85704e-16)
(0 3.32626e-18 -1.22477e-16)
(0 4.61903e-16 -4.54213e-16)
(0 -4.59953e-16 1.80564e-15)
(0 4.70257e-16 1.81772e-15)
(0 0 0)
(0 0 0)
(0 0 0)
(0 0 -3.2339e-20)
(0 0 0)
(0 0 0)
(0 0 0)
(2.90382e-16 0 0)
(2.90382e-16 0 0)
(6.50709e-18 0 0)
(2.8414e-16 0 0)
(2.84142e-16 0 0)
(6.4068e-18 0 0)
(0 0 0)
(0 0 0)
(0 0 0)
(5.3654e-21 0 0)
(5.09532e-18 0 0)
(2.88198e-19 0 0)
(1.6597e-19 0 0)
(0 0 0)
(0 0 0)
(0 0 0)
(1.43132e-29 0 0)
(1.3442e-28 0 0)
(2.40848e-27 0 0)
(9.54855e-31 0 0)
(0 0 -1.42594e-16)
(0 5.1202e-17 0)
(0 0 -2.96535e-18)
(0 7.54603e-19 -1.04642e-16)
(0 5.04124e-17 0)
(0 1.42235e-18 -3.40522e-15)
(0 4.79834e-17 3.71222e-15)
(0 0 7.93041e-17)
(0 5.29774e-23 0)
(0 0 1.53504e-16)
(0 4.89394e-25 3.71222e-15)
(0 1.98884e-25 1.53504e-16)
(0 5.24894e-23 -3.71222e-15)
(0 5.25342e-23 0)
(0 2.33336e-27 0)
(0 2.07319e-32 0)
(0 0 1.53504e-16)
(0 1.09053e-34 3.71222e-15)
(0 1.40646e-34 3.56588e-15)
(0 2.06232e-32 0)
(0 2.05198e-32 8.08659e-24)
(0 0 0)
(0 -3.03474e-37 0)
(0 0 -1.09626e-14)
(0 -4.83089e-47 0)
(0 -7.77236e-35 0)
(0 -1.6659e-44 0)
(0 0 1.1877e-14)
(0 0 0)
(0 -2.127e-37 0)
(0 0 1.01409e-14)
(0 -6.71728e-45 -1.15492e-14)
(0 -2.11032e-35 1.09091e-14)
(0 -2.72357e-43 0)
(0 0 -1.10887e-14)
(0 0 0)
(0 -8.58808e-45 -5.52904e-17)
(0 -6.29449e-31 1.03704e-15)
(0 -1.24045e-39 0)
(0 -7.34769e-33 -1.10923e-15)
(0 -4.94613e-42 -1.16419e-15)
(0 0 0)
(0 0 0)
(0 -9.97279e-43 9.73659e-15)
(0 7.91943e-31 0)
(0 -3.52249e-38 9.67672e-15)
(0 -1.90057e-33 1.04654e-15)
(0 -1.37268e-40 -1.26771e-14)
(0 0 0)
(0 0 -7.6095e-18)
(0 -6.32705e-43 1.10074e-14)
(0 0 -1.08059e-14)
(0 -9.04424e-41 -1.16211e-14)
(0 0 -9.69266e-15)
(0 0 1.15548e-14)
(0 0 0)
(2.90381e-16 0 0)
(2.90381e-16 0 0)
(6.40948e-18 0 0)
(2.84141e-16 0 0)
(2.84139e-16 0 0)
(6.5098e-18 0 0)
(0 0 0)
(0 -5.00714e-29 0)
(0 -2.73829e-37 -9.55909e-16)
(0 -2.18509e-37 0)
(0 0 8.80328e-16)
(0 -9.00092e-27 0)
(0 -5.28128e-35 0)
(0 0 -1.25628e-14)
(0 5.95803e-29 -9.10805e-15)
(0 -8.06193e-36 -1.02054e-14)
(0 -3.98519e-35 -1.24518e-14)
(0 0 1.08139e-14)
(0 4.09417e-27 9.13489e-15)
(0 -1.64561e-33 9.49611e-15)
(0 0 0)
(0 -2.37412e-35 -5.53263e-17)
(0 -3.10044e-23 1.03704e-15)
(0 -1.23905e-30 0)
(0 -5.64983e-25 -1.11326e-15)
(0 -8.84711e-33 -1.16419e-15)
(0 0 0)
(0 0 0)
(0 -3.43479e-33 9.73659e-15)
(0 -6.23554e-23 0)
(0 -4.84615e-29 9.67672e-15)
(0 2.41516e-25 1.04654e-15)
(0 -3.01481e-31 -1.26771e-14)
(0 0 0)
(0 0 1.19243e-14)
(0 -2.18505e-33 1.10074e-14)
(0 0 -1.14943e-14)
(0 -2.00083e-31 -1.16211e-14)
(0 0 -9.69271e-15)
(0 0 1.15549e-14)
(0 0 -1.15755e-16)
(0 0 -1.11827e-16)
(0 0 -1.12291e-16)
(4.66228e-23 0 0)
(1.51196e-26 0 0)
(1.12239e-24 0 0)
(3.59665e-25 0 0)
(0 0 0)
(0 -1.50015e-21 0)
(0 -1.38301e-28 -9.55909e-16)
(0 -5.04113e-29 0)
(0 0 8.80315e-16)
(0 -1.49357e-19 0)
(0 -1.09345e-26 0)
(0 0 -1.25628e-14)
(0 -2.78772e-21 -9.12735e-15)
(0 -6.74317e-27 -1.02054e-14)
(0 -4.42705e-23 -1.24539e-14)
(0 0 1.08131e-14)
(0 -1.0781e-19 9.12317e-15)
(0 -8.06985e-25 9.49611e-15)
(0 0 0)
(0 -1.56048e-27 -5.71328e-17)
(0 -2.18544e-16 -9.10887e-16)
(0 0 1.20302e-14)
(0 -4.52864e-18 -1.11617e-15)
(0 -3.24834e-25 -1.13147e-15)
(0 0 -9.80855e-15)
(0 0 0)
(0 -1.90148e-21 9.74606e-15)
(0 -2.18817e-16 -1.16597e-14)
(0 0 5.15671e-16)
(0 -6.97923e-18 1.12648e-15)
(0 -2.80497e-23 -1.26771e-14)
(0 0 1.2039e-14)
(0 0 1.1628e-14)
(0 -1.52566e-21 1.09337e-14)
(0 0 -1.16513e-14)
(0 -1.03856e-19 -1.15455e-14)
(0 -2.19155e-16 5.70616e-22)
(0 -6.17469e-18 1.15462e-14)
(0 0 0)
(0 0 0)
(0 0 0)
(0 0 0)
(0 0 0)
(0 0 0)
(0 0 0)
(0 -4.52034e-37 1.01409e-14)
(0 0 -1.17741e-14)
(0 0 0)
(0 -9.32973e-35 0)
(0 0 0)
(0 0 0)
(0 0 1.10149e-14)
(0 0 -4.50437e-17)
(0 -1.16147e-30 1.10887e-14)
(0 0 -1.03435e-14)
(0 -1.42491e-32 -1.23353e-14)
(0 0 1.18141e-14)
(0 0 0)
(0 0 0)
(0 -8.74006e-29 0)
(0 0 1.01958e-14)
(0 0 0)
(0 -1.43997e-26 0)
(0 0 -1.31343e-14)
(0 0 0)
(0 0 0)
(0 0 -5.38162e-17)
(0 -4.24658e-23 1.10887e-14)
(0 0 -9.87565e-15)
(0 -8.40462e-25 -1.23633e-14)
(0 0 1.11978e-14)
(0 0 0)
(0 0 0)
(0 -1.88733e-21 0)
(0 0 9.83675e-15)
(0 0 0)
(0 -1.67284e-19 0)
(0 0 -1.47346e-14)
(0 0 0)
(0 0 0)
(0 0 -1.13244e-16)
(0 -1.39146e-16 -1.15194e-15)
(0 0 -6.31136e-16)
(0 -4.73271e-18 -1.25172e-14)
(0 0 1.03435e-14)
(0 0 0)
(0 0 -1.29057e-14)
(0 9.97861e-26 3.39698e-17)
(0 1.84451e-25 5.85017e-17)
(-7.11744e-15 0 4.48137e-17)
(0 5.54061e-21 -1.58354e-19)
(0 8.10292e-25 5.88019e-17)
(0 1.17326e-22 5.84661e-19)
(0 -1.51493e-23 5.88019e-17)
(0 0 0)
(0 8.56782e-16 1.48946e-18)
(0 -9.66024e-19 0)
(0 0 0)
(0 0 0)
(0 0 0)
(0 0 0)
(0 0 0)
(0 0 0)
(0 0 0)
(0 0 0)
(0 0 0)
(0 0 0)
(0 0 0)
(0 0 0)
(0 0 -1.22725e-27)
(7.78439e-18 0 0)
(0 0 0)
(0 0 0)
(4.68327e-16 0 0)
(4.83081e-16 0 0)
(0 0 0)
(0 0 0)
(0 0 0)
(0 0 0)
(0 0 0)
(0 0 0)
(0 0 0)
(0 0 0)
(0 0 0)
(0 0 0)
(0 0 0)
(0 0 0)
(0 0 0)
(0 0 0)
(0 0 0)
(0 0 0)
(0 0 0)
(0 0 0)
(7.42445e-15 0 -1.25324e-15)
(3.56292e-15 0 0)
(3.56288e-15 0 0)
(0 2.45332e-33 4.92784e-15)
(0 0 2.31948e-16)
(1.4929e-16 0 0)
(1.47651e-16 0 0)
(0 0 0)
(0 0 0)
(0 0 0)
(0 0 0)
(0 0 0)
(0 0 0)
(0 0 0)
(0 0 0)
(0 0 0)
(0 0 0)
(0 0 0)
(0 0 0)
(-8.98942e-29 0 -2.19995e-15)
(0 0 7.83941e-16)
(0 4.33429e-21 1.84463e-15)
(0 2.33641e-30 4.14252e-18)
(0 0 0)
(0 0 0)
(0 0 -7.42445e-15)
(0 0 0)
(0 0 -7.36019e-17)
(0 0 7.04176e-15)
(0 0 0)
(0 0 -1.81735e-27)
(0 0 0)
(0 0 0)
(0 0 6.68908e-15)
(0 0 -1.54319e-16)
(0 0 0)
(0 0 -3.64117e-18)
(0 0 0)
(0 0 -7.84387e-18)
(0 0 -2.87991e-16)
(0 0 -7.11744e-15)
(0 0 0)
(0 0 7.11744e-15)
(0 0 0)
(0 0 -7.22962e-26)
(0 0 0)
(0 0 5.58149e-23)
(0 0 3.68668e-28)
(0 0 1.76521e-25)
(0 0 0)
(0 0 -1.33626e-22)
(0 0 1.03937e-17)
(0 0 1.03383e-17)
(0 0 -9.01258e-17)
(0 0 1.56238e-17)
(0 0 0)
(0 0 2.87017e-16)
(0 0 1.1025e-17)
(0 0 4.35258e-23)
(0 0 4.35891e-23)
(0 0 0)
(0 0 6.5753e-15)
(0 0 5.41611e-16)
(0 0 2.75558e-16)
(0 0 3.03812e-17)
(0 0 -9.03911e-17)
(-3.94721e-28 0 -1.95876e-19)
(-9.68447e-25 -5.15064e-18 -1.36886e-18)
(0 5.74778e-31 0)
(-2.21941e-25 5.50132e-27 1.91917e-24)
(0 2.67847e-29 4.68795e-26)
(-7.23074e-22 6.77327e-29 0)
(0 0 0)
(-6.62127e-15 0 5.56837e-15)
(0 0 0)
(-4.08647e-32 -6.41462e-17 0)
(0 0 0)
(0 0 0)
(0 0 0)
(-3.20809e-22 0 0)
(0 0 0)
(-5.68403e-23 0 0)
(-6.41712e-21 0 0)
(0 0 0)
(0 0 0)
(0 0 0)
(0 0 0)
(0 0 0)
(-2.64315e-16 0 5.56833e-15)
(-5.90494e-20 0 -9.31332e-26)
(-9.02217e-22 -2.08628e-16 5.00819e-20)
(0 0 0)
(0 0 0)
(0 0 0)
(0 0 0)
(0 0 0)
(0 0 0)
(0 0 0)
(0 0 0)
(0 0 0)
(0 0 0)
(0 0 0)
(0 0 0)
(0 0 0)
(0 0 0)
(0 0 0)
(-7.97413e-36 0 0)
(0 0 0)
(0 0 0)
(-2.59145e-39 0 0)
(0 0 0)
(0 0 -2.7498e-23)
(0 0 0)
(0 0 0)
(-1.10125e-17 0 0)
(0 0 0)
(-4.71025e-19 0 0)
(0 0 0)
(0 0 0)
(0 0 -6.94886e-22)
(0 0 -7.06596e-23)
(0 0 0)
(0 0 -1.99296e-22)
(0 0 -9.43404e-26)
(0 0 0)
(0 0 -1.1396e-23)
(0 0 0)
(0 0 -1.81774e-15)
(0 3.2013e-18 1.45687e-19)
(0 0 0)
(0 3.26119e-18 3.16893e-26)
(0 0 8.32795e-16)
(0 3.26076e-18 3.38413e-21)
(0 0 0)
(0 0 -1.77683e-21)
(0 -2.26521e-17 3.52669e-15)
(0 0 3.37066e-15)
(0 0 5.30543e-18)
(0 0 -3.35498e-15)
(0 -2.21445e-17 -3.35055e-15)
(0 0 9.91817e-16)
(0 0 -8.86012e-16)
(0 0 -1.05051e-15)
(0 0 1.21538e-14)
(0 0 0)
(0 0 -1.36964e-14)
(0 2.02514e-19 -2.78699e-17)
(0 -8.26369e-17 1.97436e-20)
(0 0 -3.04589e-18)
(0 0 -1.18644e-14)
(0 0 0)
(0 0 -8.05246e-17)
(0 0 1.46705e-20)
(0 0 -2.08327e-16)
(0 0 5.91093e-21)
(0 0 -1.41929e-20)
(0 0 2.88627e-16)
(0 0 0)
(-2.68139e-16 0 5.56933e-15)
(0 0 0)
(0 0 0)
(0 0 0)
(0 0 0)
(0 5.58947e-18 0)
(0 0 0)
(0 0 0)
(0 0 0)
(0 0 0)
(0 0 0)
(0 0 0)
(0 0 0)
(0 0 0)
(0 0 0)
(0 0 0)
(0 0 0)
(0 0 4.15547e-16)
(0 2.9362e-19 0)
(0 1.30205e-17 0)
(0 9.04336e-20 0)
(0 0 4.31412e-16)
(0 5.69878e-18 0)
(0 5.69878e-18 0)
(0 0 0)
(0 0 0)
(0 3.71222e-15 -3.70258e-15)
(0 3.70878e-15 0)
(0 3.4438e-15 5.27229e-15)
(0 9.8007e-17 5.63406e-15)
(0 0 0)
(0 5.31208e-22 0)
(0 0 0)
(0 0 0)
(0 5.02394e-20 0)
(0 0 0)
(0 0 0)
(0 0 0)
(0 0 0)
(0 2.02919e-16 0)
(0 0 0)
(0 3.68902e-18 0)
(0 0 0)
(0 0 0)
(0 0 0)
(0 0 0)
(0 3.50068e-15 0)
(0 3.49966e-15 -7.0478e-15)
(0 0 -1.76618e-16)
(0 3.49966e-15 6.75782e-15)
(0 0 0)
(0 0 0)
(0 0 0)
(0 0 1.77896e-16)
(0 0 1.28928e-14)
(0 0 -1.38292e-18)
(0 0 -1.48461e-14)
(0 0 0)
(0 0 0)
(0 0 0)
(0 0 0)
(0 0 0)