/*--------------------------------*- C++ -*----------------------------------*\
  =========                 |
  \\      /  F ield         | OpenFOAM: The Open Source CFD Toolbox
   \\    /   O peration     | Website:  https://openfoam.org
    \\  /    A nd           | Version:  9
     \\/     M anipulation  |
\*---------------------------------------------------------------------------*/
FoamFile
{
    format      ascii;
    class       volScalarField;
    location    "0.00195";
    object      impulse;
}
// * * * * * * * * * * * * * * * * * * * * * * * * * * * * * * * * * * * * * //

dimensions      [1 -1 -1 0 0 0 0];

internalField   nonuniform List<scalar> 
15733
(
92.6195
102.385
102.114
59.7349
67.0843
73.0885
45.6444
56.688
60.4791
0.0891679
0.000759965
5.64719e-05
77.5302
52.7787
89.0249
62.7729
41.8197
18.452
35.6207
18.7003
13.7752
3.70052
4.07759
0.469986
5.7465
36.5381
54.365
51.2037
107.59
71.0097
56.8269
48.5168
100.429
52.3508
62.9086
37.836
81.9603
44.3099
91.8087
49.317
38.6431
30.1973
71.0115
31.8849
44.4535
23.1664
60.2126
33.1269
24.1899
13.8564
42.3061
17.8034
50.5043
28.4074
20.3672
10.5978
35.2216
9.56608
24.3308
7.62883
28.3854
16.5173
5.87472
4.71186
15.8654
5.22743
21.458
14.5503
36.0302
0.711686
9.58986
40.3382
20.0926
16.44
7.69693
33.299
28.3012
15.2383
382.204
102.779
317.038
98.5479
181.662
63.3041
94.9626
7.30968
11.9849
0.0589147
189.503
198.665
357.456
182.34
146.96
137.493
100.434
129.596
178.385
132.19
258.245
149.135
78.5134
108.088
79.3355
67.2899
127.983
29.152
116.594
49.8552
1.78363
5.25844
14.6558
0.261554
136.066
91.6568
33.0374
0.17916
46.2364
3.04296
0.0115625
0.0219562
0.226446
0.00154251
119.991
152.36
78.9467
102.89
151.444
78.5934
121.413
91.4763
137.874
74.0777
95.6469
102.893
129.196
68.8006
12.3349
70.4196
28.8311
44.2096
29.8071
43.551
14.0953
0.10699
3.93948
0.760832
3.05334
0.358358
1.27339
0.260161
30.805
2.05473
9.70335
1.20466
0.102981
0.217235
0.00100118
0.821091
0.0356476
279.699
444.371
204.57
189.373
441.292
203.79
280.557
273.594
185.633
412.486
194.804
428.17
199.556
265.535
116.241
101.689
143.898
76.5063
148.107
77.5857
110.765
239.523
394.638
188.151
172.476
254.502
373.087
178.992
220.582
163.197
313.934
146.899
346.9
166.035
196.18
74.7275
89.8495
96.3364
45.6993
116.142
59.6376
52.6973
127.918
271.279
119.143
100.751
164.361
220.998
86.5608
92.9391
72.7709
125.211
34.7541
169.771
56.7937
64.7169
3.73401
26.8201
9.97875
2.02861
22.447
5.47956
1.10623
132.498
167.576
130.089
120.668
160.282
148.915
106.905
175.075
184.085
236.962
133.783
107.615
106.706
114.392
64.5982
132.282
85.8416
82.6686
121.359
50.0466
89.6522
72.4672
27.6107
90.7728
19.9106
20.0224
43.8784
63.3692
9.74614
14.5247
9.68645
19.9764
0.806275
39.7274
3.44456
5.45456
0.027368
0.956138
0.073354
0.0163585
0.331908
0.0722217
0.0060621
17.4284
4.20684
0.446566
27.439
0.932863
7.98485
4.30674
0.000520262
2.64708e-05
0.000257445
0.0970181
0.000131724
0.000297887
2.88694e-05
1.22943
0.647459
6.55632
0.128351
0.108478
1.22073
0.0209467
1.58911e-06
0.874472
6.90904e-05
224.352
213.197
203.773
156.53
140.367
103.146
157.693
118.681
94.0879
72.7597
70.6287
51.6086
142.508
102.323
67.341
55.5399
68.5513
109.798
149.425
226.492
112.473
151.296
68.6291
65.9259
221.061
109.457
145.13
112.63
148.921
62.5943
54.9216
105.362
139.126
190.728
58.9381
98.3677
130.431
51.3448
173.812
83.3482
108.12
90.2455
119.556
48.5481
42.4322
77.4141
96.7967
126.028
45.6834
71.9022
86.2641
39.258
113.724
62.9075
68.4492
67.2819
76.8149
36.268
31.5656
58.8598
61.1491
86.4041
33.6985
55.7063
54.3601
29.9001
79.2579
54.5628
41.1053
53.5293
47.3756
30.3803
215.551
195.957
195.191
144.54
233.553
181.711
178.565
198.942
132.132
154.792
146.15
168.464
163.132
180.172
62.2004
83.5776
40.3261
57.5039
56.67
86.3612
33.3442
131.226
124.481
80.9196
154.807
110.888
129.87
98.1034
43.7971
0.00241305
0.00195602
1.13965
46.515
29.2561
24.1518
13.5902
0.000291901
4.23595
7.36134e-05
0.0426642
2.21661e-06
0.000296954
2.59435e-08
0.0496039
4.07972e-07
6.4454e-10
1.49674e-08
42.4394
29.6384
29.9868
24.4479
1.56005
0.00658603
0.724421
0.00374414
22.2993
9.79464
2.46325
0.168119
0.385573
0.000921416
0.609796
0.0520556
0.0138165
0.00270321
0.00461743
0.000386049
7.81035e-05
0.000106992
0.131261
2.7788e-05
0.000658721
1.67177e-05
6.59055
0.0166552
0.051895
7.25679
4.61317
0.00972468
0.0266539
0.94544
0.00221777
0.00437724
0.177978
0.0115408
0.00306918
0.000290738
0.000387371
0.000145448
2.49891e-05
0.000923776
9.61839e-05
5.93137e-06
6.14433e-06
3.07019e-05
6.6588e-07
1.4692e-06
4.88099e-06
6.9175e-06
6.64277e-08
2.95322e-07
0.000287729
1.62706e-05
2.09128e-05
7.10206e-05
6.9807e-06
87.5585
67.6265
50.8348
40.5444
66.4259
48.4211
89.7434
82.3467
36.2849
59.1265
35.213
63.5814
43.0577
74.4389
0.0598149
0.164427
0.555002
1.39331
0.143463
0.48502
0.0693712
0.0423538
1.09452
0.0657441
0.209973
0.107264
0.35401
0.0238058
49.7146
52.2099
25.7831
14.2824
63.7008
42.2539
15.8899
33.0029
7.14575
16.5812
2.08152
29.6027
7.19852
16.911
0.0036873
0.031942
0.0998227
0.159802
0.0105385
0.0121748
0.0380353
1.2902
6.63001
0.452829
0.148326
5.72624
1.85396
0.095844
0.308022
0.0418752
0.177167
0.00699735
0.523179
0.0233083
0.0908194
0.0083596
0.0619659
0.00219855
0.00137161
0.0289626
0.0194598
0.000635776
0.00215253
0.000350182
0.00113702
4.15961e-05
0.00508977
0.000161311
0.000479275
0.0043204
0.266745
0.00812539
0.0336814
0.015504
0.0667038
0.00232146
0.000266242
0.000480786
4.62056e-05
9.52891e-06
0.000852959
0.00015231
1.5415e-05
18.2477
2.06895
12.4881
16.6281
1.80089
2.49077
2.92731
5.03819
0.38
1.90191
2.0312
0.149322
0.148664
0.420567
0.0313342
0.00286489
0.0102024
0.0066509
0.000686118
0.000444939
0.00204719
0.000164144
1.95208e-05
8.56534e-05
4.68179e-05
6.03185e-06
5.26621e-06
1.30864e-05
0.0115281
0.00359971
0.00877273
0.000949941
0.000666197
0.000162911
0.00184016
9.12022e-07
1.45124e-08
4.15749e-08
3.1386e-07
1.41654e-07
1.29241e-08
9.53104e-09
3.04042e-05
1.55881e-06
1.95526e-06
1.13025e-07
10.2399
9.17606
0.778812
13.402
1.30869
1.72049
0.94543
0.643628
0.146402
0.0122527
0.599612
0.0469842
0.0415487
0.00985202
0.00284453
0.000498334
6.3836e-05
0.00167955
0.000189651
0.000113667
4.02468e-05
2.15778e-05
3.46653e-06
3.52725e-07
1.23078e-05
1.43281e-06
1.40367e-06
4.87047e-07
0.000246862
7.2707e-06
3.65486e-06
7.63123e-05
4.75738e-05
1.40442e-05
2.63187e-06
0.000290938
2.36595e-05
1.11426e-05
0.000187973
0.000143628
1.35905e-05
5.97374e-06
3.21264e-05
3.30159e-06
1.43473e-06
1.41928e-05
7.09324e-06
6.97808e-07
3.73459e-07
1.24109e-06
8.72197e-08
5.76469e-08
2.23879e-07
2.73698e-07
8.68034e-09
1.38981e-08
6.6745e-08
1.03808e-09
2.92731e-09
2.85667e-09
1.27075e-08
1.57896e-10
7.03939e-10
4.61015e-07
4.50285e-08
1.49235e-09
4.92969e-11
2.13468e-06
0.000176046
0.000264908
0.0178472
1.92413e-05
0.000552165
0.0132468
0.000125588
9.54992e-05
0.000111084
1.04859e-05
0.00122618
0.987256
41.8893
12.8465
0.194225
0.00412653
4.97091e-05
4.75034e-06
7.64526e-08
1.22437e-06
4.86922e-05
2.77427e-06
0.00203344
0.0100878
7.00122e-05
0.116062
0.000953259
0.00479641
3.57796e-05
0.000160563
0.000571289
1.05769e-05
0.000848291
3.38885e-05
2.0457e-05
2.10251e-06
6.43849e-06
4.17062e-06
3.90432e-07
1.75678e-05
1.61426e-06
1.17188e-06
1.1681e-07
4.45392e-07
3.08239e-07
3.03213e-08
1.16672e-06
1.24263e-07
7.27202e-08
1.15192e-08
7.27787e-08
1.61115e-05
7.27487e-06
9.21785e-07
4.02725e-07
6.49124e-07
8.94226e-08
1.72558e-06
7.57195e-07
7.17752e-08
4.71415e-09
1.30282e-11
9.1058e-09
1.66422e-10
1.01597e-09
2.07326e-11
3.44626e-11
7.31598e-13
1.19714e-12
2.00089e-14
2.49565e-13
4.85064e-16
3.21779e-10
6.99984e-12
1.36909e-13
0
4.37997e-06
1.47478e-06
2.9023e-07
5.4968e-08
1.0773e-07
2.93568e-09
7.32958e-11
1.75799e-12
2.8255e-14
0
317.884
263.398
285.533
280.825
306.553
256.286
267.075
276.016
249.396
1.79746e-09
3.84307e-09
8.78397e-11
7.4435e-10
1.52669e-11
4.12695e-11
8.69234e-13
2.51566e-12
4.17155e-14
7.29293e-13
6.18456e-15
1.32294e-07
3.24578e-08
1.76647e-09
1.1217e-10
3.73086e-11
177.149
4.24015e-05
1.86724e-06
7.73157e-05
0.00835187
1.88839e-05
0.00097482
5.4603e-05
3.02201e-06
1.39537e-06
9.52675e-08
169.461
163.579
69.2969
27.9583
2.00664
0.10481
0.000670391
8.79154e-05
2.35125e-05
2.7848e-06
36.985
1.43437
34.1267
17.2117
17.1281
15.4316
13.6773
2.96532
3.98134
552.339
454.671
753.918
542.8
375.885
462.301
910.831
812.151
905.268
693.992
976.188
749.652
840.999
1435.89
1420.67
1522.27
1334.07
828.849
621.821
588.646
671.367
673.204
761.793
734.216
1336.81
1118.89
1236.92
1214
497.079
500.169
567.628
382.535
621.942
411.409
456.184
848.577
968.093
1052.57
784.188
799.716
677.141
414.842
202.314
69.4411
447.603
722.491
408.006
383.494
485.232
281.119
244.678
237.698
155.273
131.105
806.203
691.618
939.097
797.24
690.817
930.84
812.068
650.897
589.414
811.732
621.699
703.583
541.047
751.795
359.927
363.111
504.835
346.519
438.985
306.689
409.639
151.195
189.474
196.429
176.15
184.071
167.297
158.6
8.73716
0.0944084
660.5
570.949
525.562
446.708
569.475
522.491
664.714
1328.68
1538.13
1516.67
1345.62
1089.96
847.23
839.771
1102.5
777.271
762.563
628.069
858.266
661.761
897.087
743.748
637.64
429.312
518.419
487.372
546.05
507.164
610.171
1272.53
1375
1451.02
1207.8
1045.1
772.829
809.34
993.621
534.235
486.817
462.572
353.291
577.295
447.294
429.473
1070.07
1296.8
1141.31
1215.53
885.332
735.427
941.987
693.936
587.073
556.107
422.411
596.472
483.597
678.726
516.276
482.972
318.138
351.894
346.382
400.78
390.24
426.707
989.663
1015.06
1124.32
893.823
820.435
585.173
645.334
742.008
302.14
304.854
297.173
210.276
365.286
260.468
246.051
636.564
878.834
775.186
717.448
530.433
508.843
644.299
419.04
287.463
285.743
218.645
248.678
257.387
321.343
227.745
244.214
179.829
191.226
159.527
221.809
198.789
196.114
497.485
409.767
553.542
375.735
416.019
247.382
327.734
315.859
206.585
298.396
280.249
215.222
122.308
153.996
127.694
94.6116
148.015
126.09
93.6967
143.318
84.7486
145.757
85.9526
1.00613
31.2609
4.86637
5.53876
32.9889
1.22206
9.95499
748.199
692.502
620.809
532.038
463.721
689.375
614.967
512.155
421.796
351.631
241.233
217.27
195.027
659.034
539.768
399.781
628.136
363.556
341.99
257.174
231.586
172.95
542.141
437.122
451.341
531.604
543.045
470.824
467.417
526.996
458.501
455.331
496.865
425.014
422.827
394.182
306.72
519.446
393.474
519.598
401.284
401.297
521.676
511.074
507.209
385.646
378.508
472.864
394.994
500.195
483.715
419.783
357.617
445.385
316.608
456.01
332.556
409.222
381.464
286.273
282.001
326.633
305.144
366.871
349.51
297.975
262.8
291.636
209.344
322.691
244.873
261.893
275.811
190.026
211.93
214.732
228.417
236.62
254.071
1.53543e-05
4.14628e-07
7.90717e-07
1.09871e-08
4.92527e-08
3.75251e-06
5.96094e-06
7.09578e-07
1.02276e-06
2.91048e-07
1.05563e-07
3.26909e-08
1.98015e-09
8.62948e-10
3.46494e-11
8.26765e-08
1.78957e-09
3.25725e-09
422.765
949.195
156.155
4.16527
0.0125089
1.18761e-05
3.13449e-06
2.12091e-07
1.09065e-08
371.426
818.692
140.182
0.631493
0.00215281
2.166e-06
2.01323e-08
2.47515e-08
1.0814e-09
170.987
511.818
51.0312
0.00222931
9.09117e-06
4.35586e-08
7.63393e-12
4.95963e-10
1.9631e-11
31.1335
219.284
0.100741
1.60676e-06
2.35038e-09
1.37881e-10
4.31937e-12
6.59808e-12
3.33724e-13
0.00061362
41.5684
2.88659e-05
0.0136016
1.12015e-08
7.01042e-08
1.39646e-11
4.86433e-10
9.13085e-06
0.0336069
4.18418e-08
1.67688e-05
1.41293e-10
3.20654e-09
801.562
757.086
766.267
662.351
838.581
295.229
407.881
772.429
285.896
891.978
864.821
804.309
71.8458
151.674
62.3805
0.156488
0.0156717
0.000750357
2.53113
0.0663363
0.0102737
0.00027389
0.000103369
0.000134915
2.90306e-05
0.00461489
2.95339e-05
9.06343e-05
1.42628e-05
685.464
577.103
734.117
270.276
312.989
544.243
241.639
605.088
40.3716
110.379
14.0471
0.0341588
0.00208655
0.000198503
0.063478
0.00100813
8.63887e-05
4.08583e-05
1.15213e-05
2.96969e-05
3.36773e-06
5.13725e-05
2.23464e-07
3.84809e-06
4.03502e-07
472.25
377.625
303.092
461.037
242.164
83.9173
248.05
116.406
268.996
251.931
0.85702
4.01218
0.0123428
0.000186288
2.56726e-05
9.0464e-06
3.02423e-05
3.78789e-07
1.45465e-06
2.3507e-07
4.81273e-08
2.25494e-07
2.34626e-08
1.7385e-08
9.90502e-10
6.76662e-09
1.3398e-09
257.542
270.059
195.152
194.173
204.977
27.3011
4.23181
98.9787
0.0365232
209.698
109.324
128.297
0.000398981
0.00254088
1.09315e-06
5.07475e-08
3.95048e-08
5.23732e-09
2.91935e-08
1.3597e-09
1.8543e-09
1.47689e-10
3.04049e-10
1.72945e-10
9.59683e-11
2.96757e-09
4.43603e-08
3.0519e-11
1.17218e-10
0.00663402
2.41624e-07
6.5132e-07
8.06002e-06
2.87528e-05
3.10716e-07
1.27164e-06
0.180578
1.52724e-06
2.35222e-05
5.38922e-05
0.000347717
3.68276e-06
1.16067e-05
95.3589
0.00969326
50.6802
0.00108812
0.438977
1.13037e-05
8.3873e-05
1.29957e-08
1.57501e-06
3.12898e-09
227.385
222.249
196.903
28.0748
69.415
82.3265
187.295
21.8227
58.6765
200.955
124.202
161.926
0.474362
34.2887
14.3364
111.095
0.298218
8.82263
44.4813
3.02727
10.0898
0.000343027
0.305932
0.00338245
0.0667853
5.59098e-05
0.00262205
0.103802
0.00361033
0.0011483
7.18763e-06
8.37821e-05
1.49984e-05
0.000102066
8.11884e-07
9.26459e-06
1138.3
984.962
1107.63
934.107
972.389
1090.79
1155.47
154.492
206.365
204.433
96.6916
140.482
139.719
97.1383
0.000310917
0.000902209
0.00492717
0.010904
0.000779955
0.00423598
0.000364311
944.212
838.237
979.539
761.72
1007.41
776.191
923.742
191.578
128.354
182.024
91.2887
138.207
95.4452
135.426
1.428e-05
0.000128281
0.000712695
0.000789491
4.39656e-05
4.35469e-05
0.000239379
519.426
520.078
642.108
419.622
651.477
426.554
511.641
20.5971
109.57
66.7656
22.1143
96.4865
46.2536
66.3722
2.11598e-08
4.33672e-07
2.27504e-06
1.27204e-06
1.25478e-07
5.84429e-08
3.03309e-07
144.827
218.859
189.035
182.156
197.261
181.754
136.232
0.006482
0.686903
0.0437423
0.0202019
2.08705
0.124724
0.353481
1.41442e-11
1.06544e-10
5.65243e-10
3.87036e-10
4.09316e-11
2.92617e-11
9.7358e-11
4.85438e-05
5.56023
0.000414837
23.9274
0.139422
0.288374
0.00017599
62.8885
0.271538
6.14954
0.619223
6.68567
0.000342621
0.0551055
0.000426025
0.0340292
0.000664922
0.00277472
0.00172396
0.00727225
0.000159288
3.83232e-10
1.27829e-10
6.55569e-09
2.89496e-08
1.3091e-10
4.09706e-08
1.36305e-09
4.33336e-07
5.04902e-10
1.90959e-09
1.41022e-07
4.30789e-07
4.85344e-09
1.47415e-08
794.152
698.046
969.015
826.024
688.51
955.622
804.827
291.948
422.126
417.607
677.563
287.146
283.705
688.604
1265.02
1600.49
1570.9
1286.87
774.197
801.562
644.707
902.608
670.169
931.106
747.599
407.848
278.901
394.822
656.263
269.734
276.941
629.931
1220.46
1452.95
1513.96
1167.85
1109.88
957.826
1047.1
887.022
948.947
1035.8
1124.51
1824.66
1814.58
1777.71
1862.21
1772.6
1690.34
1663.95
1804.89
1100.54
902.508
891.285
1022.31
935.498
1058.75
1057.87
1071.21
848.431
865.223
956.179
910.388
998.37
1028.1
1745.4
1629.98
1706.61
1657.19
1695.35
1505.79
1590.75
1606.63
68.8436
119.91
117.439
82.2306
56.4433
54.2509
83.3838
201.3
147.464
197.401
96.5351
138.961
139.03
96.6351
112.292
52.6415
104.229
80.3654
42.5907
49.6987
77.0857
0.503935
1.82243
0.0580835
0.137824
1.63281
0.0504239
0.576163
0.37242
0.10477
0.883492
0.0209081
1.30012
0.0361844
0.22716
2.67679e-05
6.8383e-05
5.12295e-05
8.73784e-05
5.85988e-05
4.28408e-05
3.14107e-05
0.000209684
0.00788435
0.000297038
0.00162676
0.000545191
0.0029712
0.000108088
1.72309e-05
5.82481e-05
2.00732e-05
1.40237e-05
3.92999e-05
2.78315e-05
8.81845e-06
670.398
609.967
867.818
684.085
713.685
565.821
819.866
378.306
258.501
356.952
569.793
262.503
601.909
254.046
1060.6
1397.03
1116.69
1331.84
616.373
620.879
450.35
673.046
513.198
755.477
549.049
328.891
291.539
216.978
530.399
224.212
242.25
479.066
993.62
1143.96
1250.87
906.95
1491.75
1560.47
1576.41
1483.73
863.327
689.878
613.72
755.715
700.442
848.842
767.409
1393.77
1271.15
1391.49
1269.79
92.3489
26.9059
75.976
61.0164
33.3043
71.0334
22.8375
167.185
84.0335
144.239
82.7444
117.526
129.33
68.1032
4.6937
55.056
31.74
46.4943
4.82948
12.658
28.739
0.0451643
0.495554
0.00969832
0.0137807
0.113543
0.218187
0.00354648
0.0137101
0.00422297
0.0180881
0.000228084
0.0718711
0.00100558
0.00325686
1.06266e-06
7.96243e-06
5.26945e-06
3.63561e-06
3.31689e-06
2.53056e-06
1.75168e-06
3.61751e-06
0.000224651
2.56716e-06
1.40194e-05
1.1659e-05
6.48264e-05
8.46516e-07
2.55658e-07
9.57169e-07
1.3987e-07
1.16647e-07
6.53433e-07
4.10157e-07
6.27334e-08
370.241
381.454
571.797
378.941
465.594
314.143
455.905
180.951
179.493
127.71
321.029
195.276
410.275
151.353
628.52
995.428
787.363
798.307
276.122
306.011
207.436
242.377
254.781
340.998
195.655
62.1683
72.5756
29.5493
221.908
50.8115
98.1637
132.009
448.617
370.71
576.341
281.717
888.44
1106.48
1103.57
888.455
389.408
336.546
270.35
270.025
340.373
381.713
277.762
376.438
309.986
263.113
263.068
329.695
350.745
274.207
651.656
420.91
644.714
435.1
630.963
425.594
594.002
435.569
0.114381
11.8864
2.12218
2.86448
1.07625
12.3898
0.172196
27.728
5.88705
0.400852
5.96821
11.0588
34.1476
0.892015
0.00123796
0.233149
0.0227411
0.406349
0.00277353
0.0229599
0.0515031
8.04133e-05
0.00347059
3.81743e-05
2.70031e-05
0.000559029
0.000522789
5.22138e-06
8.86422e-06
3.26074e-06
7.55663e-06
7.12686e-08
6.48039e-05
6.09246e-07
1.01611e-06
2.06683e-09
2.37764e-08
2.03912e-08
1.10697e-08
9.52566e-09
3.67636e-09
5.92544e-09
2.13763e-09
1.49872e-07
7.88175e-10
4.21099e-09
6.70236e-09
3.50205e-08
4.31545e-10
3.16963e-10
3.10376e-09
1.28822e-10
4.7115e-10
6.39876e-10
1.35209e-09
8.81265e-11
98.3763
171.882
170.817
170.607
137.764
142.625
122.559
9.8304
1.3995
7.56989
32.6725
19.6423
68.6002
5.51946
79.1181
212.429
155.859
112.463
66.7681
136.716
81.1045
50.534
113.437
84.4894
38.2836
0.412523
2.48521
0.237164
12.7371
0.168195
1.0734
2.9789
35.094
18.1255
52.8955
10.6494
153.226
215
200.896
179.177
201.362
180.631
158.081
162.476
248.157
269.413
138.045
188.772
297.425
287.814
206.79
104.729
147.373
114.895
59.7945
149.171
95.7404
69.1676
115.056
153.955
122.591
89.2876
152.003
122.61
80.2612
90.6629
26.7296
69.7306
40.3267
115.185
74.2683
134.706
57.9443
2.56858e-05
0.000146958
0.00261319
0.00109702
0.000366428
0.00686419
5.84874e-05
0.0166754
0.000164207
0.00106503
0.00342813
0.00956313
0.0613691
0.00052493
1.03596e-05
6.56138e-05
4.23264e-06
0.000183406
1.50844e-06
9.72746e-06
2.7867e-05
2.2855e-08
9.93295e-07
9.65699e-09
8.2562e-09
1.36237e-07
1.62474e-07
1.63019e-09
3.74993e-09
1.40048e-09
4.40694e-09
1.94654e-10
2.66409e-08
2.68679e-10
6.37105e-10
1.14912e-11
2.93592e-11
1.2672e-10
1.48546e-10
1.65328e-11
3.40175e-11
5.50283e-11
5.92536e-11
1.77159e-10
7.84632e-09
4.02438e-10
3.1306e-10
3.64659e-11
1.08893e-09
1.42028e-10
1.7964e-09
2.00475e-08
5.99016e-09
7.88618e-10
3.31335e-10
2.73187e-09
3.44782e-05
0.00336064
0.000309224
0.00128985
0.000156499
0.000625452
7.16159e-05
1.85813e-06
1.41682e-05
3.25656e-07
2.65532e-07
7.1399e-06
3.9231e-06
1.37169e-07
0.00108513
0.0852231
0.00938047
0.0402188
0.00434452
0.0184585
0.00238836
2.43052e-05
3.18316e-05
4.13302e-06
6.35377e-07
8.46744e-05
8.88216e-06
1.46495e-06
6.1514e-05
0.000470889
1.0622e-05
7.60047e-06
0.000215486
0.000136342
3.70261e-06
0.00132775
3.06885e-05
2.14343e-07
0.000172414
2.68531e-07
2.12547e-08
8.2773e-07
1.12262e-10
3.30312e-10
5.18328e-09
2.33937e-11
4.50066e-12
0.288172
7.45595e-07
8.60551e-10
3.12126e-05
5.93251e-09
0.000314871
0.000414592
0.000170917
5.43263e-05
3.6832e-06
0.0135767
8.25747e-06
0.000206816
0.00320258
4.85977e-07
1.58889e-05
1.69435e-08
6.56077e-05
3.3742e-08
1.08295e-06
2.0726e-05
2.83442e-09
9.65903e-08
7.7988e-08
3.77014e-07
5.18834e-10
6.92869e-09
4.05915e-05
0.000560581
1.8457e-05
0.00588668
0.0155503
0.000596977
0.00113001
0.0133881
0.000503232
0.0069159
0.00029877
0.00240067
6.75902e-05
5.69292e-05
0.000927208
0.00084641
2.20431e-05
9.70974e-07
1.35192e-05
2.91186e-07
1.89472e-07
4.24372e-06
3.14027e-06
7.74193e-08
7.18905e-09
8.52547e-08
1.79854e-09
1.59257e-09
2.66946e-08
2.38841e-08
5.88294e-10
0.00513721
0.346466
0.0155129
0.06702
0.0192017
0.0833565
0.00405474
1.46771e-06
4.5126e-09
5.21134e-09
6.62837e-07
6.35655e-07
2.41673e-08
2.39348e-08
0.00406357
0.000778508
0.00541567
0.000172356
0.00953063
0.000336068
0.00217963
8.24498e-05
1.54849e-05
5.94156e-05
1.49181e-06
0.000241763
5.61886e-06
1.94307e-05
0.00103574
0.0516336
0.000936507
0.00290745
0.00369676
0.0114812
0.000248682
1.26664e-05
0.000217476
0.00065457
0.000756335
5.581e-05
5.09186e-05
0.000152935
2.77251e-07
5.38875e-08
2.77351e-07
6.51345e-09
8.75204e-07
1.92398e-08
8.30134e-08
3.53381e-06
0.000205511
4.47531e-06
1.22434e-05
1.40899e-05
3.96422e-05
1.0627e-06
9.17864e-08
1.39763e-06
3.92277e-06
5.93995e-06
3.43066e-07
3.91647e-07
1.09433e-06
2.5459e-09
3.48019e-09
1.03912e-07
1.07859e-08
1.02099e-08
6.99948e-10
1.46924e-08
2.50008e-08
1.50755e-06
1.12792e-07
6.40414e-08
1.05297e-07
2.75672e-07
1.78352e-08
0.000302709
0.0007969
5.21095e-05
1.30326e-05
0.00100676
0.000234952
1.67839e-05
3.0366
0.0704671
0.0214411
1.54836
0.0106113
0.148649
0.297444
5.37296
0.660227
0.0444375
10.3207
0.113223
1.43043
0.587061
0.619391
25.6411
3.3145
1.65588
17.8081
0.287961
3.32971
3.59551
26.0848
24.0736
2.2652
18.1258
16.7891
2.59124
6.98795e-06
0.000154822
0.000106106
0.000123515
5.93831e-06
6.89096e-05
2.72999e-06
1.92755e-07
8.41373e-08
1.41199e-06
1.09257e-05
4.99832e-07
5.62654e-06
2.41575e-07
0.229202
8.48175
3.80517
0.207243
6.50883
0.507295
3.19475
4.45738e-05
4.22375e-07
9.60227e-06
2.31513e-05
9.5291e-07
4.12403e-06
1.73328e-07
3.81086e-07
2.47653e-09
3.97531e-08
1.6567e-06
7.53337e-08
2.20399e-07
1.09076e-08
0.000283323
0.0448033
0.00582164
0.000456579
0.0582247
0.00304632
0.00897068
1.40275e-06
5.27087e-09
5.03953e-08
2.87774e-07
1.0107e-08
9.17359e-09
4.41354e-10
1.41234e-10
1.35726e-10
2.32395e-09
1.17129e-08
5.31787e-10
4.67087e-10
2.3312e-11
2.74076e-07
6.36489e-07
8.30745e-06
1.5005e-07
1.76726e-05
8.7447e-07
2.86304e-06
7.71422e-11
1.96849e-10
1.57871e-09
2.38524e-10
1.53228e-11
9.34112e-12
2.75128e-12
1.71713e-13
5.49456e-13
1.05054e-11
1.57562e-11
8.71538e-13
1.46174e-12
1.29148e-13
0.000270824
2.88278e-06
1.77488e-05
9.54977e-06
0.00136095
7.51033e-05
0.000157001
1.88777e-07
3.51121e-09
4.26218e-08
9.24621e-09
8.96463e-08
1.31973e-08
5.82296e-09
6.7646e-07
7.93513e-05
1.16533e-05
0.0011186
3.56399e-05
2.68126e-05
2.29661e-06
0.000296442
1.31493e-05
0.000150064
0.00264844
9.94462e-05
6.54474e-05
7.82957e-06
5.6285e-09
6.67167e-07
3.94331e-08
2.38075e-06
1.24614e-07
1.3248e-07
7.95185e-09
9.5669e-07
9.34411e-07
5.72333e-08
7.94864e-06
4.00802e-07
4.47148e-07
2.52851e-08
19.9394
1.4066
14.3362
1.66293
10.42
14.1047
1.00697
0.0138895
1.16246
0.265448
0.0651385
0.293858
1.11894
0.0161177
4.27085e-06
0.00062453
6.52917e-05
5.58881e-05
0.000134269
0.00114173
6.49422e-06
8.45966e-08
2.68347e-07
4.4186e-08
2.47726e-08
7.6599e-08
4.71511e-07
5.26775e-09
6.51376e-08
1.26625e-07
1.15167e-06
5.69915e-07
2.15546e-07
3.98008e-06
5.22252e-08
0.00612519
3.12441
1.75081
0.389638
0.000155773
0.223783
7.98143e-05
4.52391e-05
0.37452
0.0298154
0.0271
3.18909e-05
0.00112874
1.49787e-05
1.02023e-06
0.000735947
1.92094e-05
3.45082e-05
1.75539e-06
3.32395e-06
1.5812e-07
3.79846e-07
1.12161e-07
3.36832e-06
3.30101e-07
1.67526e-08
3.7331e-08
2.48339e-09
7.25065e-08
1.61698e-05
6.86586e-07
1.42255e-06
7.06912e-08
1.52683e-07
9.57977e-09
1.63266e-10
1.08794e-09
3.10726e-08
3.89612e-09
2.0885e-10
4.93626e-10
9.1132e-11
0.00398053
0.0523667
0.0235517
0.382631
0.00253491
0.0378912
0.00552624
3.58426e-09
1.10459e-08
1.15441e-08
8.24919e-10
3.9978e-09
9.59708e-10
1.38738e-09
1.46163e-08
1.44561e-09
1.72009e-08
7.42463e-10
9.37351e-09
1.45059e-09
3.39675e-09
4.57894e-08
5.1892e-08
1.08742e-06
4.86946e-07
2.34067e-08
2.23621e-07
2.74359e-08
2.21597e-06
9.72837e-07
1.40738e-05
0.000259733
1.57161e-05
0.000136931
6.80499e-06
4.10475e-06
3.71385e-08
5.65166e-07
4.58247e-05
2.10834e-06
9.68898e-06
3.64508e-07
2.12318e-09
2.1865e-09
3.11469e-08
6.40745e-07
2.37148e-08
4.61682e-08
1.71231e-09
1.14463e-12
8.90662e-12
1.74318e-10
3.83065e-09
1.50078e-10
3.13476e-10
1.48299e-11
7.14583e-08
9.17005e-08
1.91032e-06
2.4827e-06
1.20948e-07
9.58672e-07
8.60929e-08
1.77978e-06
1.57188e-06
1.041e-07
2.27183e-06
1.04425e-07
6.2902e-07
1.16998e-07
9.07336e-07
8.57642e-08
8.64977e-08
1.21811e-07
919.307
760.249
476.038
313.347
195.258
0.355733
1155.79
231.037
775.268
1019.24
229.316
705.592
809.027
871.497
97.1245
668.584
701.953
83.6424
497.976
563.015
495.912
71.8781
434.996
410.842
58.6484
284.235
390.884
359.534
339.284
45.3037
248.94
32.7848
150.108
326.006
247.268
0.000183066
172.126
172.015
182.259
177.36
75.7827
66.2874
143.235
101.876
58.508
42.6331
55.6058
17.2368
25.6451
11.8185
2.65896
0.195369
1185.56
957.59
948.806
1041.43
900.815
889.518
1066.37
230.779
95.472
96.7534
222.761
366.188
363.49
223.729
1092.55
905.711
851.743
992.694
812.495
854.787
937.355
99.1587
100.037
224.404
220.39
347.412
357.424
216.321
951.103
728.998
795.267
820.209
767.996
882.54
713.243
90.5514
213.577
196.914
194.277
329.611
207.697
303.827
785.532
596.455
659.116
747.341
585.746
650.166
671.798
77.6605
176.901
156.989
178.338
242.75
273.904
161.858
572.717
630.84
543.377
538.569
527.347
599.637
475.918
65.4361
138.567
120.874
129.146
212.745
145.124
185.234
451.837
475.661
521.415
486.665
387.262
429.71
439.897
51.7225
103.708
87.3277
115.197
140.274
161.072
103.082
372.882
395.677
433.612
360.102
349.071
397.65
315.475
39.3043
72.3123
58.249
83.4103
122.36
92.7088
105.688
25.4739
43.7092
28.6543
73.8694
68.896
88.1112
64.1324
172.569
74.453
75.8685
77.8708
78.7401
168.623
70.6862
160.491
147.318
62.8744
131.84
117.201
51.5943
102.71
86.323
33.6118
68.4023
51.0582
18.4907
36.252
23.9423
6.41094
13.6372
5.96646
122.693
138.396
56.4432
719.353
807.545
641.172
763.758
796.175
633.222
731.615
694.493
737.389
732.536
593.874
767.381
615.906
666.723
591.107
694.971
562.848
620.804
633.018
647.723
521.558
540.137
562.292
532.77
416.672
592.349
471.965
483.208
380.99
475.05
362.766
376.876
428.709
422.778
314.904
341.505
326.839
335.428
240.444
376.274
274.437
307.149
248.932
299.36
211.749
218.125
276.404
267.074
185.999
221.344
186.728
198.844
128.85
235.128
159.596
2.84728e-05
0.000511542
7.2853e-12
2.99575e-12
1.83475e-12
5.32188e-12
3.38817e-13
4.68544e-11
1.73313e-12
1.60264e-11
6.28173e-11
2.37863e-12
1.85929e-11
8.10663e-13
1.64555e-10
6.09107e-12
9.05945e-11
3.2007e-10
1.84054e-09
4.30249e-10
5.88643e-09
2.48974e-10
3.79935e-11
1.36698e-09
5.2275e-08
2.26724e-09
2.32266e-10
1.98745e-08
8.48627e-10
1.26158e-10
3.0963e-11
1.43465e-10
6.12005e-12
1.91062e-10
3.44042e-11
8.78487e-10
4.00509e-11
6.71558e-09
8.83037e-08
4.05669e-09
4.74071e-10
8.68017e-08
4.57327e-09
1.13224e-09
1.14718e-13
1.64194e-13
8.87909e-13
8.15455e-11
3.28239e-09
4.48563e-12
2.61259e-11
2.62882e-10
1.27125e-09
3.28705e-11
8.64969e-11
3.88732e-09
3.09892e-10
6.59909e-11
6.51902e-12
4.7398e-10
2.96723e-11
8.52888e-12
6.16516e-13
1.10504e-11
6.04996e-13
2.12094e-13
9.21621e-15
1.89175e-13
6.79089e-15
7.27596e-16
0
3.63798e-16
0
0
0
4.45472e-09
8.21118e-11
4.47306e-10
8.39136e-12
8.59861e-12
1.83597e-13
1.42609e-13
4.85064e-16
9.58001e-15
0
1.54566e-12
1.98876e-14
0
7.97644e-11
1.78394e-12
2.37681e-14
0
8.27034e-14
4.66389e-13
0
2.18279e-15
0
0
6.40017e-12
3.12344e-11
1.32907e-13
7.23109e-13
0
6.18456e-15
0
0
2.25882e-12
4.6213e-05
64.3432
0.000660046
271.637
251.171
168.026
28.1404
104.402
18.9281
71.3347
0.0549201
16.4349
54.122
37.9212
38.326
90.7024
98.2606
73.0967
75.8174
307.779
313.438
358.256
322.515
245.173
283.092
277.989
144.554
183.752
120.249
34.9706
0.18191
5.92325e-05
0.000344788
2.29387
0.00738613
0.105091
9.70692e-05
188.893
217.345
202.953
143.683
116.478
190.575
177.768
137.988
18.0231
16.1302
5.14312
48.1989
48.9414
69.008
23.037
83.1598
150.748
89.2141
59.0061
134.737
99.5193
46.8201
6.09774
0.0106374
0.0359972
3.0447
2.05943
0.487545
0.357271
0.000104494
140.692
56.972
415.778
572.931
576.326
525.443
469.204
374.201
337.156
347.372
300.002
572.143
452.899
455.553
472.019
561.294
475.965
455.14
423.303
484.751
424.57
396.449
451.938
368.955
394.308
376.463
354.453
399.508
343.717
346.258
368.293
325.771
329.943
319.16
353.694
321.297
286.731
298.28
657.101
621.955
620.154
613.179
622.673
579.988
570.773
585.9
516.831
509.216
483.189
552.904
559.98
524.1
654.026
617.049
593.342
615.168
593.682
556.357
575.896
761.37
703.303
695.638
662.695
674.342
725.626
737.579
501.601
441.464
475.19
473.677
444.622
413.937
443.683
0.00213526
9.84356e-05
0.000147521
0.0572999
0.0211582
0.0167748
0.000912462
0.10286
0.0119734
0.00552315
1.15498e-07
2.80837e-08
2.10308e-09
4.75524e-11
75.528
136.561
136.517
74.9543
75.6102
129.62
134.521
74.1006
66.9591
121.328
70.8099
110.3
62.6928
84.6715
98.1232
56.2917
34.3006
68.3014
46.5608
49.6031
22.2912
18.4949
31.8662
13.3964
4.2983
9.97534
7.83757
4.7697
1.99841
0.562178
1.83067
0.76944
9.17013e-13
3.08456e-09
7.57535e-11
8.20396e-10
1.92647e-11
4.30551e-11
8.53227e-13
1.08169e-12
1.66134e-14
1.67347e-14
0
5.36481e-13
3.15291e-15
0
3.61373e-14
0
0
0.175639
0.716395
0.0462985
4.85856e-07
1.88866e-08
1.09286e-07
3.7693e-09
1.26358e-08
3.27008e-10
7.12392e-10
1.60073e-11
5.17011e-10
1.34337e-11
1.21412e-10
3.12612e-12
8.10457e-12
1.68438e-13
3.54218e-13
2.54659e-15
664.4
739.517
704.219
659.651
711.436
634.36
677.196
572.467
657.21
553.76
604.713
598.975
638.247
589.636
438.375
407.777
378.408
410.025
385.62
358.063
389.194
497.485
472.283
509.103
523.813
560.841
541.538
501.407
624.134
633.696
693.003
610.844
614.918
579.722
570.058
831.192
845.654
921.61
806.065
814.153
879.72
876.118
875.453
818.512
762.859
777.349
734.09
835.613
787.116
429.245
401.575
437.489
448.839
486.793
462.986
423.284
661.846
588.684
626.711
589.615
559.137
541.45
565.293
676.517
686.699
759.682
735.95
743.72
811.779
811.054
711.047
654.664
696.734
691.756
640.517
740.919
685.621
470.114
556.284
589.737
541.112
526.647
483.324
511.169
606.097
585.876
637.363
589.046
542.025
626.287
569.338
463.982
425.655
388.039
484.453
427.611
432.211
382.479
723.75
711.835
632.745
685.81
675.847
733.111
773.15
802.971
856.081
845.13
836.282
843.841
852.668
846.652
336.744
306.961
318.84
377.788
348.582