/*--------------------------------*- C++ -*----------------------------------*\
  =========                 |
  \\      /  F ield         | OpenFOAM: The Open Source CFD Toolbox
   \\    /   O peration     | Website:  https://openfoam.org
    \\  /    A nd           | Version:  9
     \\/     M anipulation  |
\*---------------------------------------------------------------------------*/
FoamFile
{
    format      ascii;
    class       volScalarField;
    location    "0.00195";
    object      overpressure;
}
// * * * * * * * * * * * * * * * * * * * * * * * * * * * * * * * * * * * * * //

dimensions      [1 -1 -2 0 0 0 0];

internalField   nonuniform List<scalar> 
15733
(
123224
170782
128452
60181.6
60923.1
206987
142733
154594
185559
1433.44
15.2436
0.586481
154048
136187
191040
180166
133025
82839.6
144059
98975.6
70350.2
39230.1
47556.4
7249.51
65500
228924
70305.5
92613.7
174889
138391
117754
83287.8
155072
48990.5
134165
99607.2
121635
89372.8
132759
51839.8
70142.4
101057
119756
119024
64364.9
90342.9
117177
69382.4
99497
61332.9
103280
74314.6
111363
64534.8
61108.3
51920.1
97932.2
59226
61110.3
43546.5
96102.5
65850.2
47222
41005.4
101259
36890.1
95553
81650.9
279456
14636.9
133961
214415
123600
138019
86640.5
171965
165145
152807
212425
-21391.6
270484
13684.2
394002
196608
225983
80612
141791
1343.73
-16269.4
117420
232343
3269.24
169152
159510
-729.285
183161
19315.8
212284
348794
136999
321294
256492
139447
351243
221215
248499
277620
245052
30459.2
98907.6
131213
5015.33
152654
146472
198114
3128.84
145978
49873.9
210.585
403.947
4095.25
25.3327
87667.3
40197.5
9082.51
-18272.5
45464.3
13805.5
80675
202009
94074.6
68819.1
36896.8
157783
130367
104902
160516
315081
201319
220014
254938
296915
146452
1909.79
57928.9
11198.7
41986.3
6020.64
21750.5
4195.02
232732
38286
152403
24913.3
2205.79
4159.88
14.2094
16579.1
719.944
110991
139659
34850.4
-12614.2
144762
40053.8
104760
119693
-7648.69
165406
65185.6
151282
48329.1
135849
100549
-12383.7
70630.4
41590.3
53906.7
23194
124336
189530
186681
88014.7
41600.2
159418
215808
117971
231360
77412.1
330275
242162
259893
163844
296074
259858
77918.2
269534
197082
190814
152479
289863
402613
425578
332925
286668
365875
502259
361715
378152
289932
462807
243904
518280
319703
313796
61824.5
188196
122389
28727.1
216102
72523.6
18523.7
292118
180584
292726
127094
343641
147959
249969
685333
665727
798101
574259
268849
124095
164539
224902
142194
231095
259842
599266
391878
499801
488667
199021
386401
174512
158752
250639
326566
113638
142471
110284
191576
14723.1
269593
54192.6
75978.7
505.985
15651.2
1374.19
306.575
5940.77
1272.32
116.074
186151
70984.6
8822.9
250387
18874.8
117653
71123
11.2882
0.426368
4.97185
2092.16
1.40817
5.40466
0.428518
22042.7
12102.4
93497.1
2426.71
2125.7
22977.5
414.557
0.00672705
17575
0.641357
254492
239062
232180
167044
135714
74201.3
86296
102843
63324.5
104408
174355
272034
233197
149332
321144
293876
263320
273620
234179
252884
256706
228912
283666
231470
244595
195545
208573
229262
217252
191418
89720.5
151290
199459
219593
142165
99163.2
185096
45832.1
195547
26928.6
131732
55074
160651
22827.5
21455.9
15763.6
107887
109138
18088.8
13465.3
94313.9
25661.4
88757.4
14889.6
82162.8
13427.8
87265.7
27066.1
28612
12549
78492
60768.3
26073.9
10068.4
82313.3
39801.8
73155.4
38982.5
129576
16205.9
96902
69231.2
87811.3
75744.2
111411
78658.8
102495
66503.5
98609.7
88990.1
84436.1
81151
118694
69061.4
102744
99404
245028
127259
192944
234586
177828
212730
223013
114452
160879
223148
125068
177595
180063
235260
303926
51.9379
43.9039
22956.8
309560
264216
234824
98228.2
2.41484
50933.9
0.925292
782.9
0.0318311
5.44704
0.000479215
949.032
0.00812612
1.05553e-05
0.000222658
162941
221862
163699
206883
14912.3
93.5095
8572.85
56.8159
150724
134137
39664
3924.99
5257.03
13.9617
10640.9
1215.7
234.499
52.1498
80.7011
4.61006
1.53652
0.897736
2581.93
0.600215
14.2333
0.276445
92739.9
244.494
968.157
71516.6
72158.2
147.137
516.683
18785.5
37.469
92.836
3145.88
274.472
58.5127
6.33941
7.32468
3.39298
0.370272
16.6483
0.906667
0.109176
0.0884359
0.362257
0.0121959
0.0193311
0.0977583
0.0955652
0.00119924
0.00443438
2.61293
0.338488
0.298728
0.504013
0.0863973
164961
93402.9
199422
164216
98500.1
201445
159200
177103
166067
130050
200605
110208
203506
196997
801.292
1860.34
6670.28
13689
1657.69
5929.59
914.247
593.547
11546.4
882.933
2894.87
1311.49
4534.25
359.252
245244
156847
186401
125242
223034
181990
155398
237374
85689.5
153317
38126.1
186547
100094
182857
66.282
480.382
1509.09
2502.12
173.568
203.888
631.611
24207.4
89955.7
8631.53
2622.6
92031.8
31049.6
1859.33
5565.94
715.979
2799.51
127.474
8326.65
438.391
1590.76
154.27
1009.9
40.4517
25.2612
512.183
339.991
11.9235
40.3869
6.67318
22.0301
0.766735
94.2729
3.09476
9.27515
94.1134
5286.52
164.69
685.69
325.362
1409.27
48.6362
5.94687
10.0407
1.03349
0.204762
18.5212
3.29237
0.346809
142316
25366.8
94383.8
136597
22326.7
35977.8
41249.5
68928.8
5534.59
27918.4
34258
2395.84
2669.83
6949.14
626.029
55.012
188.786
133.672
13.1196
9.14818
42.6178
3.09625
0.371101
1.63112
0.885797
0.116765
0.0897784
0.233457
224.893
70.9382
176.731
18.9788
13.7814
3.22293
37.6312
0.0142733
0.000276351
0.000651946
0.00457371
0.00206406
0.000206715
0.000144732
0.480415
0.0229671
0.0283265
0.00168483
85955.4
101600
10542.7
123943
16839.4
26120.7
14869.1
10378.1
2809.11
227.218
10792
817.478
788.788
196.181
51.5839
9.37599
1.19667
31.9737
3.57434
2.18873
0.716718
0.421183
0.0630648
0.00722535
0.239132
0.028416
0.0246373
0.00873747
5.01351
0.139402
0.0761741
1.54465
1.00876
0.271541
0.0437948
4.98015
0.256812
0.132316
1.59344
2.51757
0.160322
0.0814288
0.510624
0.0643626
0.0210735
0.194602
0.0877406
0.0104228
0.0053251
0.0179183
0.00155963
0.000877584
0.0042095
0.00404787
0.000167098
0.000205759
0.000952759
1.89451e-05
4.4072e-05
5.11978e-05
0.000196197
2.74745e-06
1.10296e-05
0.00656404
0.000736553
2.61275e-05
8.23595e-07
0.0142602
2.41389
2.26557
331.49
0.235618
10.3837
287.353
0.832741
0.77292
1.47172
0.138935
24.9986
20335.8
301142
168854
4082.12
97.3578
0.428982
0.055883
0.00108348
0.017127
0.624211
0.0376254
43.9151
210.665
0.779934
2505.52
20.78
105.304
0.566025
2.93255
15.1719
0.144724
20.5062
0.493482
0.321389
0.0341551
0.103637
0.0585249
0.00583518
0.21939
0.0219676
0.0156469
0.00159839
0.00585217
0.0040873
0.000423564
0.0165991
0.00173785
0.0010667
0.000168343
0.0010812
0.195569
0.109152
0.0125785
0.00598134
0.0093399
0.00113294
0.00704735
0.00494733
0.00101601
6.91515e-05
2.17726e-07
0.000143478
2.7463e-06
1.67283e-05
3.54354e-07
6.10904e-07
1.3315e-08
2.1013e-08
4.65661e-10
4.42378e-09
4.36557e-11
4.82821e-06
1.05152e-07
2.2701e-09
0
0.0445334
0.0143384
0.00297465
0.000730601
0.00111815
3.66387e-05
9.79198e-07
2.41707e-08
5.23869e-10
0
171683
72100.4
83863.2
91620.5
103770
88258.3
99077.7
104583
83505.7
2.67338e-05
4.34378e-05
1.1884e-06
1.12857e-05
2.50395e-07
6.52173e-07
1.44792e-08
4.07745e-08
8.44011e-10
1.19617e-08
1.74623e-10
0.00116678
0.000404234
2.63829e-05
1.72674e-06
5.78962e-07
198008
0.697148
0.0281485
0.92608
198.43
0.275227
23.1595
0.877535
0.0554821
0.00822915
0.000997221
344037
364448
473510
349938
53385
2557.68
14.1553
0.84637
0.363446
0.0460944
251915
31902.3
182290
143818
178281
142630
163611
51725.4
58110.1
382578
301098
726459
861188
298024
881212
903727
769721
752982
768956
806069
815862
842166
906976
723205
776361
839116
1.02159e+06
810839
929163
1.0739e+06
865046
950019
1.16657e+06
1.10604e+06
1.273e+06
1.01225e+06
1.40895e+06
1.36386e+06
966366
1.18508e+06
833232
1.32448e+06
924576
1.18539e+06
2.18477e+06
1.61016e+06
1.82611e+06
1.86162e+06
591002
656124
745048
291196
324991
306874
625042
338819
358497
745617
358150
349136
414617
199162
235368
491159
499633
566753
603538
511608
582904
476967
624033
566576
670295
689546
566463
590745
744792
769413
595655
989060
689922
792332
540159
967368
345282
227826
496429
225324
413768
181436
402239
139017
2170.02
385101
397388
276740
315253
407636
287028
373092
448407
513926
529903
435084
350000
254747
263897
338984
501755
607793
537593
620576
518130
594668
525225
395307
322102
433402
315234
414759
296581
416354
461943
583305
546634
492525
360371
290908
272550
383528
487363
458417
341459
366091
447826
472369
372603
616322
646099
542919
741501
478077
320237
421601
363071
688141
718570
609391
923345
603950
833118
748817
529265
361261
465216
455075
469976
408854
575440
723817
1.08786e+06
880330
888572
566585
546583
431788
704431
604030
451246
497250
317819
616509
406159
496769
1.25418e+06
1.34639e+06
1.0984e+06
1.53231e+06
1.02568e+06
703145
885276
833099
685840
567189
317435
678696
434997
862730
546537
543312
260744
241350
371037
325404
452149
440689
1.26227e+06
1.36077e+06
1.53116e+06
1.1373e+06
1.04268e+06
786319
862822
945875
807758
1.10136e+06
947870
911628
316802
209109
197281
339725
172124
361979
304636
707745
616726
779112
577126
22211.1
304934
87863.1
92769.7
296581
25880.4
145872
114955
103737
120585
146109
204331
545231
404242
353502
269563
243791
187960
151937
156048
62016.4
108527
305688
84108.5
308817
304979
228748
188261
102273
143395
115955
115360
143744
124053
85992.3
101993
107038
83934.6
75651.7
93300.4
69867.1
81353.8
68794.8
99669.2
297097
240002
380971
308168
236256
385562
299951
282382
307090
210994
388339
224203
383522
272835
226812
191166
391281
289385
258869
158113
381074
180705
262694
91357.1
317852
119361
357380
144143
124582
80171.7
259869
151795
127813
80451.4
205327
122218
123163
82163.2
134226
82362
163547
115277
0.19473
0.00409163
0.00380456
0.000165264
0.000527957
0.0527868
0.0745656
0.00710761
0.0169899
0.00210414
0.00175476
0.000486202
3.96724e-05
1.54268e-05
6.65983e-07
0.000932162
2.51517e-05
4.32726e-05
338047
655451
99328.8
67741.4
193.861
0.139807
0.0451288
0.00329732
0.000188483
421944
735932
215597
12724.2
41.6961
0.0412142
0.00037681
0.000461788
2.15633e-05
564707
934426
458846
59.5167
0.238568
0.00099124
1.83951e-07
1.07275e-05
4.08196e-07
266828
442831
2450.34
0.0391447
6.64028e-05
2.92959e-06
9.96661e-08
1.38389e-07
7.49424e-09
12.4396
338953
0.734175
332.214
0.000194653
0.00180094
2.67581e-07
9.02437e-06
0.126551
786.07
0.000672416
0.249967
2.48229e-06
5.37263e-05
410127
596785
413652
423887
601926
81185.6
362685
641618
101466
654684
695975
689422
312733
128553
324270
2114.69
312.483
12.3414
45883.4
1047.27
209.98
4.11607
1.66989
1.64338
0.379419
81.7989
0.527298
1.07604
0.234296
422166
334360
673511
164475
516675
809120
290324
905300
317374
367720
206151
601.197
46.5197
2.13703
1483.27
23.7439
1.1597
0.263643
0.21993
0.538939
0.0551723
1.25612
0.00493828
0.0694125
0.00856251
306418
344272
283471
804690
677468
401965
473900
721473
580239
523496
21432.7
97946.4
344.868
4.71394
0.257687
0.222555
0.867663
0.0107896
0.0364245
0.00624295
0.00108809
0.00555798
0.000540901
0.000506015
2.08683e-05
0.000182827
3.09703e-05
322134
254473
315356
196937
382337
325675
78566.3
449956
868.254
367802
453613
278357
10.0157
62.1842
0.0236163
0.00140624
0.000999369
0.000144378
0.000560454
3.59464e-05
4.20401e-05
3.90453e-06
6.50692e-06
4.83473e-06
2.13757e-06
7.61982e-05
0.00112348
7.33722e-07
2.85907e-06
167.83
0.00509816
0.0172059
0.133427
0.404047
0.00515613
0.0245992
4099.93
0.0392363
0.574856
0.672733
7.40504
0.0518844
0.174525
485848
209.965
458361
26.3584
12998
0.216294
1.29949
0.000249565
0.0251976
5.83915e-05
268574
286932
254757
353755
364428
497428
291265
314809
371681
362976
526414
395767
13837.1
332324
257842
567982
9148.64
165941
453523
66406.6
228034
8.80148
8557.29
103.267
2008.09
1.05627
81.4587
2298.25
83.5951
26.5171
0.126139
1.60046
0.220091
1.08095
0.0141882
0.14693
687779
690744
628977
662493
700844
647364
668861
108706
59474.9
67290.8
11712.4
-24399.5
-19970.5
6270.08
5.83912
15.5259
83.765
170.828
13.5287
72.8572
6.77319
923931
774146
784188
783059
818811
824208
886731
149795
282985
205025
131873
30669.1
81307.2
67334.2
0.331968
2.6838
14.81
16.7989
0.968355
0.982851
5.39641
1.4615e+06
995256
1.34366e+06
874965
1.38882e+06
950604
1.42785e+06
315936
525690
540939
273153
328360
333830
398445
0.000605179
0.0118078
0.0624023
0.0353645
0.00349129
0.00167942
0.00879476
568218
464974
789642
403596
787909
388622
574777
161.362
17801.7
1147.54
484.493
47525.7
3050.29
8092.67
3.98664e-07
3.05811e-06
1.62395e-05
1.06938e-05
1.18827e-06
8.05056e-07
2.74062e-06
0.267087
103942
10.5077
295447
3427.05
6988.47
3.3006
339127
6446.08
111209
14678.2
121131
7.19949
1300.84
10.5224
801.643
16.6036
69.9259
41.5465
176.607
4.05197
7.04969e-06
2.659e-06
0.000129013
0.000761251
2.58148e-06
0.000784709
2.50276e-05
0.0104188
1.03027e-05
4.17807e-05
0.00233738
0.00697223
8.75065e-05
0.00026095
508863
537717
566348
609661
545525
582772
495641
88288.7
219200
228845
264417
16555.8
21353.7
253890
437590
492045
510295
423832
528958
619701
575990
643694
556240
605641
564614
244554
126249
272174
280656
45272.4
29653.1
310204
458327
583697
536147
496716
687047
692616
629293
667599
704544
646594
668913
629778
566982
586287
609969
629073
569929
588457
609878
711643
671715
732114
712557
709089
671716
749290
708878
670742
730268
694791
709496
664177
742431
655305
663384
613831
701667
651559
649318
608364
694291
316319
216197
226297
114043
237316
240826
106387
82912.3
163870
109988
23911.1
5261.52
-10923.5
46099.2
249031
329102
285168
133077
257290
249868
165548
7462.51
21328.2
909.629
1894.15
19669.2
799.941
8395.28
5751.45
1516.98
12591.2
372.379
16742.4
599.483
3753.53
0.517969
1.25518
0.878768
1.4257
1.08325
0.742374
0.605634
4.08866
129.419
5.71594
30.937
9.81182
53.1011
2.24041
0.348058
0.984149
0.408231
0.260601
0.753176
0.498492
0.185779
686791
603106
706410
712133
617554
636834
791390
314449
217803
373049
435618
70361.2
360570
109362
675121
671175
566030
810014
767353
761784
695485
1.01829e+06
675214
888360
873315
450743
551363
399817
544709
258672
166855
692768
837844
1.31989e+06
1.01625e+06
1.08626e+06
932446
757960
791347
907571
1.04942e+06
839639
950957
1.15616e+06
879893
1.00521e+06
1.2044e+06
1.14805e+06
1.46799e+06
1.13246e+06
1.47664e+06
331888
277730
380905
258792
249821
208947
218558
285879
454900
409523
196821
213783
123170
278958
98626
401991
350178
295092
88348.4
165508
279204
901.307
8023.01
188.306
272.865
2043.39
4056.64
75.4362
302.057
92.2623
411.645
5.63903
1499.38
23.2393
77.3943
0.0246162
0.173862
0.104731
0.0734607
0.0742526
0.0587681
0.0353696
0.0899085
5.16403
0.0655208
0.358867
0.280105
1.56754
0.0216241
0.00635467
0.0202684
0.00362755
0.00263213
0.0159775
0.00897832
0.00159346
1.03355e+06
666795
1.17199e+06
726366
990453
590585
1.23751e+06
760862
566732
674867
1.09123e+06
408947
901863
577955
1.85259e+06
1.7676e+06
1.46093e+06
2.23605e+06
949480
602620
379380
957515
483905
1.15672e+06
767528
549059
609041
401832
1.12015e+06
482017
605090
930320
1.97745e+06
2.14423e+06
2.39064e+06
1.73915e+06
2.41174e+06
1.96012e+06
1.94794e+06
2.47394e+06
1.36998e+06
744062
632081
1.11144e+06
820058
1.34397e+06
1.12289e+06
1.2603e+06
703473
610038
845202
798365
1.07191e+06
1.01428e+06
2.53114e+06
2.3509e+06
2.63183e+06
2.25016e+06
2.23527e+06
1.64252e+06
1.87027e+06
1.96423e+06
3041.13
212826
54008.7
63843.4
24700.1
189120
4148.08
386880
136223
10901.4
117232
188301
349422
21157.2
34.8962
6320.73
632.448
9674
73.1645
581.834
1299.37
2.24209
84.8344
1.02215
0.724894
14.6986
13.5693
0.14799
0.252461
0.0918236
0.211853
0.00206076
1.78109
0.0177246
0.0290389
5.45744e-05
0.000644979
0.000474104
0.000247812
0.000256326
9.96953e-05
0.000136647
6.36752e-05
0.00434392
2.34053e-05
0.000124252
0.000200135
0.00104304
1.21996e-05
8.25165e-06
6.66639e-05
3.31122e-06
1.03163e-05
1.68286e-05
2.97461e-05
2.20467e-06
432803
314933
702176
377841
558319
316084
535544
156568
32511.9
152534
355308
279758
610335
106572
763231
1.60599e+06
1.25142e+06
1.02203e+06
375885
420902
375404
387176
349231
459340
319609
9415.73
51851.4
5558.69
190927
3865.66
24591.4
62950.6
433819
297051
607710
192084
522342
436097
595041
278074
705296
336287
459057
1.12531e+06
1.76088e+06
1.66968e+06
1.13159e+06
1.07233e+06
1.26661e+06
1.46685e+06
988962
466906
426291
403679
407900
381643
480812
396293
437233
253826
337752
363083
313058
399355
384147
776829
384456
718888
472610
818785
607037
807291
560135
0.631549
3.97333
69.2812
27.2072
9.52858
174.338
1.47487
400.732
4.07933
26.272
82.2782
228.144
1431.61
12.8976
0.260156
1.64829
0.102473
4.52641
0.0385995
0.246864
0.70189
0.000608625
0.0270272
0.00027214
0.000222538
0.00376878
0.00425554
4.47627e-05
0.000100168
3.78178e-05
0.000125293
5.09551e-06
0.000699205
7.42555e-06
1.75309e-05
2.88812e-07
7.35483e-07
2.76252e-06
3.4938e-06
4.0447e-07
8.86503e-07
1.27364e-06
1.54797e-06
4.72952e-06
0.000200966
1.03396e-05
8.15248e-06
9.84262e-07
2.80133e-05
3.73552e-06
4.63263e-05
0.000513019
0.000154235
2.05364e-05
8.64144e-06
7.07989e-05
0.89837
83.8127
7.97273
33.427
4.00686
16.1756
1.86968
0.0483989
0.370925
0.00864965
0.00640288
0.186922
0.102542
0.00341782
26.5403
2007.98
220.206
953.676
103.681
445.166
57.491
0.608849
0.807533
0.104215
0.0146727
2.08763
0.225899
0.0347304
1.52615
11.2705
0.264316
0.183079
5.23632
3.33315
0.0874031
19.4667
0.393502
0.00305337
3.06722
0.00426904
0.000355315
0.0178882
2.5835e-06
6.70228e-06
0.000107935
5.17655e-07
9.29431e-08
6202.4
0.0176349
1.46589e-05
0.542091
9.492e-05
3.09978
6.83016
1.86611
0.793044
0.0772029
251.57
0.168672
2.91744
61.5099
0.0105839
0.334093
0.000348867
1.23478
0.000715485
0.0220362
0.393425
6.07834e-05
0.00201401
0.00193186
0.0080856
1.23949e-05
0.000142858
0.967166
12.6182
0.333711
86.1869
205.073
9.507
16.7745
179.314
8.1196
99.7079
5.66667
39.6136
1.26578
1.08594
16.3231
15.169
0.428096
0.0211328
0.281008
0.0065168
0.00409424
0.0923622
0.0655857
0.0017237
0.000151258
0.00172454
3.82608e-05
3.41207e-05
0.00055345
0.000492908
1.28383e-05
117.277
7155.76
351.334
1535.76
420.994
1848.71
95.0274
0.0326585
9.68151e-05
0.000107485
0.0108062
0.00974006
0.000394105
0.000375128
61.8527
12.0076
82.1891
3.03744
133.914
5.6238
35.158
1.66462
0.31215
1.19357
0.0324136
4.64919
0.117543
0.408415
20.0694
891.285
18.0154
56.1634
67.3121
208.923
5.05665
0.268093
4.34637
13.3567
14.6375
1.17541
1.02451
3.13472
0.00577211
0.00112405
0.00554527
0.00013807
0.0176978
0.000411969
0.00170216
0.0714167
3.90875
0.0865783
0.238035
0.275321
0.778477
0.0211752
0.0018831
0.0274289
0.0771175
0.115637
0.00692341
0.00784364
0.0219265
5.7902e-05
8.71924e-05
0.00252317
0.000272764
0.0002303
1.76723e-05
0.000364439
0.000527858
0.0300127
0.00262887
0.00140692
0.00217109
0.0056467
0.000421436
7.06998
18.5586
1.21504
0.309362
22.8568
5.61286
0.393924
69549
1708.68
547.234
36400.7
267.162
3651.27
7375.6
111504
15556.9
1098.38
174243
2724.22
33117.2
14142.2
14372
285580
67749.7
38203.6
240232
6871.46
69338.8
60432.7
226089
218698
34246
151511
146784
38423.9
0.0894734
1.57046
1.10684
1.59748
0.106605
1.094
0.0524037
0.00303177
0.00137729
0.0223387
0.176154
0.00893861
0.109675
0.00449068
4991.69
129553
73454.9
4027.57
89486.7
8952.22
54520.9
0.47666
0.00706591
0.157947
0.336246
0.0148208
0.0615964
0.00318388
0.00638341
5.60601e-05
0.00088916
0.0275695
0.00137545
0.00434417
0.000241692
7.96958
1152.24
159.034
11.7642
1373.05
74.6934
224.883
0.0276894
0.000109848
0.00126672
0.00697567
0.000246611
0.000244873
1.08715e-05
3.32533e-06
3.31274e-06
5.45804e-05
0.000296394
1.38358e-05
1.24979e-05
6.17016e-07
0.00566727
0.0153898
0.225286
0.00388221
0.470333
0.0236108
0.0736459
1.48501e-06
4.04794e-06
3.98829e-05
6.60776e-06
3.75454e-07
2.36148e-07
5.73491e-08
3.88536e-09
1.2893e-08
2.36018e-07
4.44474e-07
2.3414e-08
3.37459e-08
2.99769e-09
6.84741
0.0628628
0.45256
0.245979
33.8229
1.91502
4.04161
0.00481655
8.89644e-05
0.000951395
0.000235651
0.0020826
0.000257539
0.00011513
0.0103207
0.858739
0.171056
26.9809
0.46575
0.337825
0.0411886
6.43898
0.189059
2.83303
62.6986
1.04786
0.596956
0.118294
8.51973e-05
0.0101656
0.000646332
0.0440256
0.00215662
0.00229598
0.000133149
0.0141839
0.0140255
0.000902003
0.120028
0.00640462
0.00751968
0.000420053
203617
27247.3
176100
26229.6
118386
137054
16744.9
345.204
26112.1
6334.11
1377.48
6355.56
22643
367.053
0.104932
17.7733
1.84255
1.5334
3.66729
30.3135
0.180632
0.00178378
0.00645272
0.000905884
0.000642373
0.00198038
0.0121875
0.000128379
0.00124782
0.00280295
0.0295131
0.0145559
0.00565805
0.103747
0.00116336
136.094
59908.6
36088
10458.8
2.5417
6134.4
1.19877
0.561402
8288.8
762.224
796.387
0.288241
34.8177
0.253529
0.0193034
21.5239
0.298035
0.656345
0.0337361
0.0615827
0.00311046
0.00689343
0.00224646
0.0661605
0.00637763
0.000324803
0.000708909
4.65256e-05
0.00125184
0.278771
0.0121197
0.0242066
0.0013208
0.00267485
0.000169028
3.04049e-06
2.13757e-05
0.000558442
7.67717e-05
4.13833e-06
9.22673e-06
1.59592e-06
98.0565
1246.9
567.399
8879.55
63.5882
920.984
136.487
7.08796e-05
0.00023427
0.000303902
2.02024e-05
8.51969e-05
1.81013e-05
2.71461e-05
0.000388308
3.67295e-05
0.000388687
1.91183e-05
0.00021321
2.82894e-05
6.45813e-05
0.00094123
0.00130799
0.0271216
0.0123297
0.000600117
0.00519725
0.000582916
0.0312364
0.0141785
0.204247
2.2334
0.220874
1.65115
0.0998491
0.0556332
0.000783662
0.0128396
0.53279
0.0288191
0.187937
0.00713484
4.68842e-05
4.97765e-05
0.000694462
0.0133822
0.000503927
0.000979993
3.7023e-05
2.42435e-08
1.92638e-07
3.74406e-06
8.06482e-05
3.1274e-06
6.39285e-06
2.92916e-07
0.00147004
0.00226455
0.0464954
0.0592446
0.00292791
0.022546
0.00174501
0.0272941
0.0242239
0.00158031
0.0521789
0.00228003
0.0135836
0.0027325
0.0205231
0.00169452
0.00175114
0.00121129
150440
164596
261684
281964
185091
7267.87
196962
313905
532317
198524
325416
554910
131728
202306
152487
566950
222426
55909.4
460961
185629
267357
16538.9
398075
289721
41585.9
302156
307369
244330
254262
62474.3
290847
92052.3
416085
226182
152528
2.44022
290904
298904
306965
322353
162312
54272.6
355496
291372
50566.3
96173.1
263032
169827
103359
85618.8
41849.7
3672.26
196227
171209
171679
244091
205403
206247
242275
318649
169845
172051
168194
356797
362337
164456
196280
171687
176320
244832
214920
207941
249571
173974
171795
330772
172043
385443
370388
176509
202051
186481
182238
242855
220368
251488
219553
107577
328664
309880
139734
395389
169026
385060
207654
212077
194454
231053
225091
218753
226726
23553.3
263583
198849
94499.1
270034
342405
59202.2
257226
241307
239214
253209
241658
237092
265221
26407.4
146350
132012
47482.6
200604
45959.9
163333
284292
259922
263521
263878
292215
283822
267352
55266.2
141669
155350
54052.6
146564
149718
59429.3
277419
229267
242900
257180
284493
259011
272950
73418.6
163618
176105
72395.6
151315
62369.5
171114
119694
189885
190471
93090.6
238244
201408
131967
294789
209221
208841
204867
193677
303656
107930
302925
280464
35744
223253
164813
77202.5
152854
171533
103646
191787
195290
98492
180277
157210
65068.1
122521
76720.9
333106
278057
340825
294725
341663
467746
533385
345572
470064
292041
297473
539687
354757
489231
348825
476001
299550
251863
344829
499555
557488
286619
312235
488749
212324
522670
248717
374101
274084
444162
189207
197013
251112
313113
356725
188842
265039
274129
202904
325728
277056
235592
273382
250865
205379
208642
278116
228707
302025
202981
280707
241109
233587
344391
337817
330403
300134
276277
0.46397
11.8006
1.5134e-07
5.94446e-08
3.57395e-08
1.03377e-07
6.91216e-09
8.53339e-07
3.20142e-08
2.99624e-07
1.32389e-06
4.77739e-08
3.63725e-07
1.56579e-08
3.02574e-06
1.10565e-07
1.48073e-06
5.35835e-06
3.26043e-05
7.28617e-06
0.000103422
4.41469e-06
6.16928e-07
2.28634e-05
0.000865048
3.99944e-05
3.62736e-06
0.000341658
1.498e-05
1.94105e-06
5.49611e-07
3.01075e-06
1.20286e-07
3.75943e-06
5.64978e-07
1.4573e-05
6.8736e-07
0.000105773
0.00138184
6.6651e-05
7.32724e-06
0.00132932
7.34431e-05
1.74516e-05
2.48838e-09
3.21597e-09
1.61817e-08
1.36679e-06
3.78762e-05
8.06758e-08
4.59622e-07
3.56857e-06
1.5635e-05
5.45566e-07
1.31137e-06
6.53795e-05
5.66013e-06
1.16634e-06
1.30036e-07
8.83781e-06
6.42875e-07
1.63898e-07
1.38098e-08
2.30182e-07
1.35478e-08
4.67116e-09
2.91038e-10
4.1473e-09
2.32831e-10
4.36557e-11
0
2.91038e-11
0
0
0
6.79547e-05
1.36788e-06
8.125e-06
1.62239e-07
1.76136e-07
3.94357e-09
3.08501e-09
4.36557e-11
2.61934e-10
0
2.66446e-08
4.51109e-10
0
1.03092e-06
2.48692e-08
4.94765e-10
0
1.67347e-09
8.3237e-09
0
1.01863e-10
0
0
8.67003e-08
4.12314e-07
2.09548e-09
9.95351e-09
0
1.74623e-10
0
0
3.76604e-08
0.837832
258000
14.3988
252211
254296
295829
199920
449423
225937
362049
1302
225932
143665
170397
248270
121844
241799
271402
161760
248187
255148
239248
278019
294471
280395
305759
323592
271638
393320
308559
4139.74
0.372853
6.66939
48019.3
165.954
2437.97
1.13056
276180
258810
212293
263482
321315
316168
264739
375452
196895
177299
91812.5
294012
288555
243434
241769
367694
403759
375046
404167
332954
429751
344291
84171.1
247.974
757.544
54884.3
36236.6
10000.4
6902.42
0.723565
294024
291301
122255
-14127.7
1451.91
24699.6
144442
45597.7
78534.6
190524
96889.3
-7726.64
-30497
-30399
-26380.1
13146.6
-12917.1
4068.92
19645.7
37541.1
65397.3
32110.7
50307.6
72937.9
87949.1
97048.9
61913
82409.1
107421
82080.2
98728.3
91802.7
110512
90548.2
106562
112037
104080
111921
50017.2
7564.48
19422.9
203662
204919
185140
183800
96347.8
165559
71109.1
127643
58835.4
176300
141913
70817.2
32707
46304.8
191244
182917
155661
169159
119471
102556
94285.3
198507
200907
190921
193506
123697
169951
160063
84820.7
118812
125518
102723
42.4578
0.846462
1.95891
1115.16
388.596
322.479
19.3836
1804.6
240.359
116.028
0.00140319
0.000276658
4.19954e-05
8.85237e-07
240733
303147
305274
246058
224043
297803
303237
192537
103016
280410
147878
241123
90112.8
187384
196941
106938
147107
204422
134049
212934
131034
141123
188875
95923.6
42102.7
95430
64786.7
57152.7
23781.9
8944.46
26732.9
10928.9
1.80589e-08
3.62587e-05
9.26084e-07
9.40532e-06
2.63113e-07
7.44505e-07
1.53086e-08
2.06492e-08
4.07454e-10
4.07454e-10
0
1.00408e-08
1.16415e-10
0
7.567e-10
0
0
3246.5
12061.8
966.001
0.00366983
0.000254209
0.00142897
4.60162e-05
0.000186593
5.24709e-06
1.20794e-05
2.79499e-07
6.79941e-06
1.81564e-07
1.60841e-06
4.67116e-08
1.33252e-07
3.09956e-09
6.38829e-09
1.01863e-10
111852
120022
126951
193682
191786
194218
197313
130216
134023
183293
141017
192881
198200
189724
167665
184233
203701
189011
140779
152030
136614
171818
196819
180462
179542
155210
188590
205770
419961
419202
550416
469289
474260
361317
361171
130259
131970
151223
192464
194059
198801
199917
151117
157449
139023
193824
201573
200994
208730
230737
252456
226268
249718
214502
237401
269933
542940
394733
544465
469001
473685
342782
348786
436169
435081
603174
421691
422153
613841
617945
146294
151221
167852
203190
194973
211145
206531
305186
382971
553273
556556
481291
479859
333788
162577
196993
176179
194983
212016
207502
220441
308332
255147
210981
549176
520540
466525
431299
598296
420859
421012
598685
428481
626192
617558
411259
581756
386644
390143
582430
607107
609429
141944
148760
200459
192938
206836
154501
143811
414108
609480
426135
391177
647806
640930
615966
336182
342900
309203
612108
641880
611703
585220
221737
268137
230673
243428
277365
243997
273873
251557
189676
181967
387517
464471
366971
293922
425543
627090
394005
587581
403609
601773
613065
257662
244589
262091
287966
274704
291173
302885
328879
304842
120148
320.136
235693
212674
337009
194824
138573
207588
95798.2
4407.55
13522.4
1634.67
194738
163113
299336
233863
163265
297273
197877
183201
226543
154008
268560
160463
287278
165431
142210
146512
239935
178683
147928
139788
212610
150972
163324
103909
204569
128247
203656
158575
106066
65773.6
189656
44076.1
144410
29170.8
149246
61564.4
13474.5
3710.1
42400.8
9857.26
90724.4
30516.2
6497.51
1582.93
17176
614.152
14397.6
682.214
6719.27
66.9929
4.47786
2748.27
209.384
108.906
786.632
266.389
2463.12
1089.86
123130
0.324863
0.0367142
0.00561388
1.65551e-06
8.13889e-08
3.01225e-09
1013.78
241744
312352
777.631
5.09717
0.233278
40796.4
264486
29093
7018.15
270608
120.403
22.1855
46.7259
1.30504
0.709107
1.18443
0.341923
0.122147
0.280119
0.782505
44756.5
3297.45
29382.6
1687.91
1222.59
30.1001
259.125
2.09556
1.42739
0.865753
5.95559
0.288324
0.757159
0.0720389
0.212144
0.0230344
0.00851108
0.0180104
0.0566949
0.0157587
0.0193279
0.000436915
9.46586e-06
2.22673e-07
5.54428e-09
5.82077e-11
0.0103732
0.000479502
1.57617e-05
0.000355631
1.21024e-05
3.32453e-07
3.28755e-05
9.18633e-07
2.3123e-08
0.00108096
3.76092e-05
1.06824e-06
0.0429043
0.000486627
1.20693e-05
5.40145e-05
1.9459e-06
7.37782e-08
2.18279e-09
0
0
1.90883e-06
7.46804e-08
2.75031e-09
0
0
0
5.72472e-08
2.2992e-09
0
0
0
0
5.66369e-06
2.33982e-05
1.83296e-07
8.21892e-07
6.85395e-09
3.1534e-08
1.60071e-10
9.31323e-10
0
0
0
0
1.97819e-07
8.36764e-07
7.53789e-09
3.27709e-08
2.03727e-10
1.16415e-09
0
0
0
0
0
0
6.18456e-09
2.58151e-08
1.89175e-10
1.04774e-09
0
0
0
0
0
0
0
0
1.39575e-06
4.50236e-08
1.32422e-09
4.02651e-08
1.35333e-09
0
1.01863e-09
0
0
0.00725114
0.000174298
0.000490185
0.000203857
4.47361e-06
1.68657e-05
5.42268e-06
1.25452e-07
4.87795e-07
0.00167152
5.56605e-05
1.69921e-06
0.720166
0.000957555
3.65425e-05
2.21038
0.00170737
6.26645e-05
0
0
0
0
0
0
0
0
0
0.00110769
3.49268e-05
9.47373e-07
0.0376778
0.000444721
1.09334e-05
4.90438e-05
1.72011e-06
5.37402e-08
1.49885e-09
0
0
1.66082e-06
6.5018e-08
2.22644e-09
0
0
0
4.99858e-08
2.08092e-09
0
0
0
0
0.000753931
2.34137e-05
6.87636e-07
2.12167e-08
6.1118e-10
0
2.51068e-05
9.24658e-07
3.28582e-08
1.10595e-09
0
0
7.8656e-07
3.38041e-08
1.28057e-09
0
0
0
2.38069e-08
1.09139e-09
0
0
0
0
205110
231139
236919
150780
157281
183359
187176
292923
306353
321641
463488
496580
558457
533528
290876
309702
295136
304263
322248
301167
319524
127603
136661
134141
182368
150403
110938
101223
381679
649304
643767
393891
353789
616717
616701
304035
603103
638660
311006
285781
596634
547125
219382
241132
251922
165034
190323
178809
200225
160843
219670
235481
174714
258466
314931
233257
328663
491940
544865
289035
309343
485380
440488
188599
239817
205344
242037
277312
262192
294695
298027
332608
335169
394594
438332
329834
392279
250389
266532
279844