/*--------------------------------*- C++ -*----------------------------------*\
  =========                 |
  \\      /  F ield         | OpenFOAM: The Open Source CFD Toolbox
   \\    /   O peration     | Website:  https://openfoam.org
    \\  /    A nd           | Version:  9
     \\/     M anipulation  |
\*---------------------------------------------------------------------------*/
FoamFile
{
    format      ascii;
    class       volScalarField;
    location    "0.00195";
    object      rho;
}
// * * * * * * * * * * * * * * * * * * * * * * * * * * * * * * * * * * * * * //

dimensions      [1 -3 0 0 0 0 0];

internalField   nonuniform List<scalar> 
15733
(
1.31681
1.55556
1.323
1.05833
1.04127
1.99606
1.79281
1.78766
1.94411
1.23704
1.22513
1.22501
1.35725
1.73698
1.49576
1.86372
1.83754
1.74669
1.98245
1.8588
1.69789
1.52696
1.58559
1.28375
1.72115
2.43273
0.852531
1.2742
0.983736
1.46421
0.881728
1.33017
1.07257
0.874022
1.59451
1.60499
1.21649
1.45466
1.13687
0.966678
1.20806
1.70353
1.31861
1.85383
1.10011
1.71258
1.41315
1.28894
1.80558
1.61251
1.55205
1.66307
1.49228
1.34399
1.46818
1.57431
1.61232
1.64822
1.39828
1.53678
1.68205
1.56165
1.58083
1.51751
1.84402
1.50278
1.75221
1.69403
2.50769
1.33086
2.05704
2.35641
1.97381
2.1152
1.84783
2.15566
2.16209
2.23
0.802179
0.315176
1.18522
0.523292
2.06323
1.79217
1.872
1.72129
2.15109
1.23579
0.292037
0.636979
0.901518
0.37759
0.960643
1.01176
0.423955
1.13515
0.467195
1.28699
1.67383
1.14625
2.48153
1.66601
1.36456
2.50582
1.59232
2.62193
1.9331
2.25047
1.45661
1.86735
1.95926
1.2653
1.16527
1.52934
2.19508
1.25077
1.7903
1.57637
1.22679
1.22842
1.25747
1.22522
0.761341
0.485076
0.499973
0.327427
0.502835
0.519074
0.735763
1.56211
0.791143
0.884038
0.688779
1.22376
1.03801
1.15955
2.16907
2.3622
2.18081
2.10581
2.47047
2.54858
2.0562
1.24057
1.62376
1.30858
1.50606
1.27225
1.38686
1.25784
2.449
1.49494
2.15836
1.40704
1.2427
1.25886
1.22512
1.35306
1.23102
0.596877
0.654116
0.423686
0.303945
0.667951
0.439698
0.579519
0.632358
0.326239
0.76296
0.551434
0.696354
0.474002
0.709548
0.83234
0.357814
0.63736
0.690628
0.544587
0.573195
0.983094
1.04517
0.879556
0.681453
0.606672
0.844116
1.05754
0.878951
1.32184
0.820947
1.65774
1.61744
1.30888
1.17187
1.70416
2.01381
0.962391
1.93268
1.953
1.42449
1.53681
2.38929
2.50327
2.10825
2.15687
2.01047
2.14419
2.54101
2.50084
2.65292
2.23049
2.88491
2.46323
2.8246
2.58695
2.61335
1.6428
2.13952
1.988
1.42587
2.38873
1.6934
1.36233
2.09017
1.22317
2.01795
1.18807
2.14313
1.23081
1.98916
3.90368
3.6892
4.0339
3.60345
2.14109
1.29681
1.56103
2.18031
1.33283
2.05225
2.26385
3.81585
3.25595
3.53169
3.57347
2.34481
2.82288
2.24124
2.10872
2.48749
2.75736
1.96477
2.11891
1.9122
2.36776
1.33866
2.64956
1.61381
1.75942
1.22922
1.33983
1.23629
1.22756
1.27208
1.23539
1.22598
2.33763
1.67763
1.29271
2.60001
1.36092
1.9763
1.71648
1.2251
1.225
1.22504
1.2418
1.22501
1.22505
1.225
1.39526
1.31957
1.86674
1.24493
1.24233
1.40043
1.22849
1.225
1.35262
1.22501
0.750181
0.795328
0.84801
0.868608
0.815784
0.760562
0.789133
1.15172
0.79866
1.28929
1.76573
2.52054
1.83757
1.49424
2.60588
2.55174
0.753791
0.717821
0.74226
0.752946
0.699743
0.740323
0.77848
0.729563
0.76057
0.659926
0.78466
0.677719
0.745767
0.711343
0.637008
0.62717
0.851018
0.894326
0.68533
0.566539
0.915663
0.579485
0.899772
0.456764
0.918866
0.501282
0.937339
0.557892
0.63806
0.446854
0.90187
0.773928
0.582285
0.459114
0.918127
0.707072
0.75272
0.519801
1.03277
0.481809
0.964862
0.777545
0.939545
0.56215
1.11614
0.879247
0.847987
0.617679
1.23511
1.0804
1.03165
0.90598
1.70603
0.717596
1.41661
1.32274
0.783222
0.680331
0.852975
0.850936
0.752801
0.721407
0.904439
0.870664
0.969227
0.94367
1.19461
0.809059
1.02156
1.00001
2.31204
1.39448
2.15975
2.2334
1.92655
1.91081
2.43136
1.19286
1.50286
2.01488
1.208
1.60669
1.57253
2.00081
2.68385
1.22544
1.22537
1.38902
2.65884
2.6045
2.50923
1.82984
1.22502
1.59002
1.22501
1.23142
1.225
1.22505
1.225
1.23286
1.225
1.225
1.225
1.86044
2.29141
2.0019
2.26375
1.32019
1.2258
1.2852
1.22548
2.02405
2.02994
1.51216
1.2554
1.26412
1.22512
1.30664
1.23484
1.22697
1.22544
1.22568
1.22504
1.22501
1.22501
1.24555
1.22501
1.22512
1.225
1.83854
1.22707
1.23302
1.70904
1.7181
1.22625
1.22931
1.36568
1.22532
1.22579
1.25019
1.22728
1.2255
1.22505
1.22506
1.22503
1.225
1.22514
1.22501
1.225
1.225
1.225
1.225
1.225
1.225
1.225
1.225
1.225
1.22502
1.225
1.225
1.225
1.225
1.35907
1.07556
2.00464
1.87688
1.10184
2.02507
1.33078
1.45367
1.93212
1.36576
2.1578
1.18999
2.08403
1.64091
1.23161
1.23937
1.27703
1.3127
1.23782
1.2713
1.23254
1.22992
1.30159
1.23208
1.24814
1.23529
1.26071
1.228
2.18931
1.62597
2.18703
1.96431
1.91047
1.91004
2.11909
2.33655
1.78796
2.07286
1.4967
2.10029
1.86862
2.23777
1.22556
1.22893
1.23723
1.24447
1.22646
1.22669
1.23018
1.40062
1.80336
1.29068
1.24591
1.82066
1.44928
1.23992
1.26812
1.2309
1.2473
1.22608
1.28855
1.22863
1.23796
1.2263
1.23328
1.22534
1.22522
1.22927
1.22784
1.2251
1.22534
1.22506
1.22519
1.22501
1.2258
1.22503
1.22508
1.22579
1.26495
1.22638
1.23065
1.22768
1.23626
1.22541
1.22505
1.22509
1.22501
1.225
1.22516
1.22503
1.225
2.06966
1.42039
1.81178
2.04471
1.39743
1.49821
1.53611
1.70615
1.26929
1.43668
1.47831
1.24457
1.24659
1.28008
1.23013
1.22547
1.22658
1.22612
1.22511
1.22508
1.22536
1.22503
1.225
1.22501
1.22501
1.225
1.225
1.225
1.2269
1.2256
1.22649
1.22516
1.22512
1.22503
1.22532
1.225
1.225
1.225
1.225
1.225
1.225
1.225
1.225
1.225
1.225
1.225
1.77701
1.89232
1.3083
1.99524
1.35666
1.42686
1.34155
1.306
1.24734
1.22691
1.30778
1.23177
1.2315
1.22664
1.22544
1.22508
1.22501
1.22527
1.22503
1.22502
1.22501
1.225
1.225
1.225
1.225
1.225
1.225
1.225
1.22504
1.225
1.225
1.22501
1.22501
1.225
1.225
1.22504
1.225
1.225
1.22501
1.22502
1.225
1.225
1.225
1.225
1.225
1.225
1.225
1.225
1.225
1.225
1.225
1.225
1.225
1.225
1.225
1.225
1.225
1.225
1.225
1.225
1.225
1.225
1.225
1.225
1.225
1.225
1.225
1.225
1.22502
1.22502
1.22778
1.225
1.22509
1.2274
1.22501
1.22501
1.22501
1.225
1.22521
1.37069
2.60388
2.24754
1.25746
1.22582
1.225
1.225
1.225
1.225
1.22501
1.225
1.22537
1.22677
1.22501
1.24517
1.22518
1.22589
1.225
1.22503
1.22513
1.225
1.22517
1.225
1.225
1.225
1.225
1.225
1.225
1.225
1.225
1.225
1.225
1.225
1.225
1.225
1.225
1.225
1.225
1.225
1.225
1.225
1.225
1.225
1.225
1.225
1.225
1.225
1.225
1.225
1.225
1.225
1.225
1.225
1.225
1.225
1.225
1.225
1.225
1.225
1.225
1.225
1.225
1.225
1.225
1.225
1.225
1.225
1.225
1.225
1.225
1.225
1.225
1.225
1.225
1.225
0.870022
0.640427
0.671274
0.649634
0.680313
0.725009
0.700057
0.71239
0.714481
1.225
1.225
1.225
1.225
1.225
1.225
1.225
1.225
1.225
1.225
1.225
1.225
1.225
1.225
1.225
1.225
1.53309
1.22501
1.225
1.22501
1.22665
1.225
1.2252
1.22501
1.225
1.225
1.225
1.38643
1.48047
2.78045
2.77735
1.55749
1.24485
1.22512
1.22501
1.225
1.225
2.46871
1.44772
2.10929
2.06271
2.26573
2.05918
2.2053
1.60023
1.65144
1.2283
1.18258
1.89717
2.67423
1.21985
2.79419
2.58478
1.99091
2.06249
2.15913
2.18021
2.27227
2.43981
2.65523
2.06175
2.18673
2.49048
3.09544
2.43145
2.86857
3.43402
2.57739
2.91281
3.68516
3.34725
3.97793
3.11396
4.32316
4.59813
3.04339
3.90563
2.73431
4.29268
3.01239
4.08809
6.76495
5.04379
5.59331
5.9382
1.42176
1.75007
2.4409
1.59383
2.63358
0.928228
1.57405
1.05429
1.17512
2.38008
1.46365
1.48283
1.80155
1.21121
1.88685
1.34199
1.26372
1.47786
1.44618
1.28662
1.50968
1.31344
1.97336
1.57338
1.88692
1.97989
1.68176
1.76716
2.22372
3.01781
2.07082
3.41163
2.3533
2.93776
1.97207
3.51998
2.28178
1.37714
2.66544
1.53676
2.37492
1.35696
2.5118
2.0819
1.24224
1.15181
1.08873
0.942237
0.945773
1.10889
0.965035
1.12646
1.311
1.43881
1.47245
1.28181
1.12356
0.921113
0.943222
1.09798
1.38502
1.4791
1.41361
1.66968
1.32104
1.55748
1.48796
1.19226
0.976943
1.22763
1.08612
1.14224
1.00217
1.28638
1.35898
1.65368
1.52705
1.47274
1.16498
1.06286
0.979356
1.26291
1.69281
1.36773
1.23083
1.30026
1.4531
1.52052
1.43465
2.01126
1.89057
1.68263
2.27055
1.72462
1.2142
1.44317
1.44848
2.32015
2.20492
2.04972
3.06459
1.93785
2.6384
2.66131
1.96968
1.39545
1.70802
1.95094
1.63532
1.67872
2.25486
2.47132
3.54034
2.80953
3.09438
2.12643
2.26493
1.78523
2.67535
2.58982
1.71919
2.2021
1.43293
2.50617
1.6369
2.31592
4.47926
4.41378
3.84552
5.13683
3.93685
2.8792
3.35099
3.44709
2.92434
2.10406
1.51776
3.05729
1.74974
3.40814
2.65413
2.52909
1.31921
1.30189
2.15728
1.46363
2.29374
2.33533
4.76334
5.3459
5.43853
4.72486
4.21876
3.81077
3.76911
4.21408
4.2914
4.95326
4.46956
4.66054
2.32394
1.62516
1.70102
2.61213
1.45566
2.52703
2.44298
4.18849
4.06597
4.4661
3.89918
1.37911
2.83302
1.7566
1.78904
2.79554
1.40529
2.1235
0.575521
0.54704
0.626032
0.752162
0.930775
1.28356
1.0429
1.13071
1.07004
1.04873
0.996497
0.976244
1.24437
0.42054
0.587927
0.841249
0.487453
0.914825
0.970681
0.964828
0.895411
0.772053
0.490689
0.42353
0.432415
0.481189
0.478783
0.431775
0.431073
0.476732
0.500296
0.444601
0.483401
0.46678
0.528912
0.496484
0.644373
0.785296
0.669854
0.977885
0.849723
0.66981
0.99027
0.783451
0.782187
0.868726
0.681069
1.06278
0.669664
1.00904
0.803685
0.819995
0.68862
1.13677
1.00761
0.827
0.672021
1.19583
0.773944
1.00539
0.60049
1.16772
0.633317
1.21204
0.730015
0.719844
0.592356
1.06361
0.832013
0.714584
0.606754
0.962205
0.729648
0.788141
0.651715
0.851633
0.627109
0.888779
0.738098
1.225
1.225
1.225
1.225
1.225
1.225
1.225
1.225
1.225
1.225
1.225
1.225
1.225
1.225
1.225
1.225
1.225
1.225
1.08526
1.57445
0.726968
1.67228
1.22656
1.225
1.225
1.225
1.225
1.40033
1.94431
1.19459
1.31733
1.22534
1.225
1.225
1.225
1.225
2.73278
3.08284
2.78585
1.22549
1.225
1.225
1.225
1.225
1.225
2.45977
2.39768
1.24389
1.225
1.225
1.225
1.225
1.225
1.225
1.22511
2.93407
1.22501
1.22772
1.225
1.225
1.225
1.225
1.225
1.2314
1.225
1.225
1.225
1.225
1.09882
1.38494
1.12842
1.10783
1.48088
0.57963
1.15649
1.649
0.639102
1.53826
1.7422
1.70145
2.12921
0.829234
2.23932
1.24001
1.22759
1.2251
1.5377
1.23282
1.22675
1.22504
1.22501
1.22501
1.225
1.22567
1.225
1.22501
1.225
1.25703
1.28738
1.83362
0.851938
1.91041
2.69764
1.34921
2.88399
2.44362
1.94723
2.22991
1.22962
1.22539
1.22502
1.23655
1.22519
1.22501
1.225
1.225
1.225
1.225
1.22501
1.225
1.225
1.225
1.33771
1.47816
1.21661
2.83691
2.77149
2.71313
2.38406
3.69443
2.60571
2.13702
1.36248
1.73722
1.22773
1.22504
1.225
1.225
1.22501
1.225
1.225
1.225
1.225
1.225
1.225
1.225
1.225
1.225
1.225
1.67305
1.2063
2.00449
1.43399
2.2524
2.81529
1.70751
3.03092
1.23195
1.86898
3.06461
2.11045
1.22508
1.22552
1.225
1.225
1.225
1.225
1.225
1.225
1.225
1.225
1.225
1.225
1.225
1.225
1.225
1.225
1.225
1.22638
1.225
1.225
1.225
1.225
1.225
1.225
1.25578
1.225
1.225
1.22501
1.22506
1.225
1.225
2.51838
1.22674
2.83427
1.22522
1.31263
1.225
1.22501
1.225
1.225
1.225
1.04653
1.10952
1.16365
2.67157
2.36081
2.63634
1.29035
2.58656
2.45298
1.44008
2.62259
1.75192
1.31943
2.53951
2.4598
2.66362
1.28789
2.06945
3.13904
1.64618
2.33331
1.22507
1.28302
1.22584
1.24022
1.22501
1.22566
1.24317
1.2257
1.22522
1.225
1.22501
1.225
1.22501
1.225
1.225
1.73094
1.62581
1.63899
1.5924
1.64876
1.67872
1.69141
0.75618
0.549123
0.571628
0.480318
0.321254
0.336253
0.460824
1.22505
1.22513
1.2257
1.22638
1.22511
1.22561
1.22506
2.63955
2.0079
2.16669
2.23016
2.21779
2.30198
2.5766
0.868257
1.51328
1.09596
1.04264
0.542586
0.792043
0.706753
1.225
1.22502
1.22512
1.22514
1.22501
1.22501
1.22505
4.90849
3.1601
4.42719
3.06174
4.49478
3.14755
4.8815
2.55871
2.62305
3.02811
2.33569
1.9599
2.31506
2.46322
1.225
1.225
1.225
1.225
1.225
1.225
1.225
3.3487
2.35985
3.91653
2.458
3.81372
2.32749
3.46018
1.22633
1.34439
1.23393
1.22889
1.49783
1.24738
1.28248
1.225
1.225
1.225
1.225
1.225
1.225
1.225
1.225
1.84779
1.22509
2.80709
1.251
1.27787
1.22503
2.74109
1.27283
1.93013
1.33285
1.99186
1.22506
1.23548
1.22509
1.23145
1.22514
1.22559
1.22535
1.22647
1.22503
1.225
1.225
1.225
1.225
1.225
1.225
1.225
1.225
1.225
1.225
1.225
1.225
1.225
1.225
1.45262
1.35971
1.54519
1.501
1.38084
1.58225
1.42087
0.598462
0.884698
0.908029
0.992898
0.421248
0.43531
0.966773
1.37354
1.47978
1.52016
1.34078
1.51711
1.54484
1.52516
1.79099
1.42637
1.65322
1.64493
0.955206
0.719163
1.04683
1.04325
0.519957
0.463955
1.14194
1.43736
1.74498
1.59445
1.56625
1.71607
1.61492
1.5995
1.56495
1.64091
1.63421
1.67872
1.70321
1.60182
1.64318
1.66154
1.68781
1.56081
1.59931
1.64761
1.8051
1.63413
1.79949
1.89879
1.69039
1.75277
1.94849
1.78679
1.59822
1.78674
1.82189
1.6785
1.69573
1.92269
1.77748
1.8776
1.7206
1.93075
1.756
1.79875
1.66111
1.90114
2.15492
1.30243
1.33972
0.992848
1.89197
1.91718
0.961852
0.622867
0.970077
0.717456
0.530348
0.435463
0.370523
0.62774
1.44654
2.36053
1.64233
1.08544
2.12361
2.00192
1.26111
1.27878
1.33468
1.23223
1.23848
1.32667
1.23136
1.28542
1.26683
1.236
1.29813
1.22801
1.31554
1.22979
1.25274
1.225
1.22501
1.22501
1.22501
1.22501
1.22501
1.22501
1.22503
1.22605
1.22505
1.22526
1.22508
1.22544
1.22502
1.225
1.22501
1.225
1.225
1.22501
1.225
1.225
2.16913
1.69451
2.03468
2.09591
1.85837
1.93502
2.39712
1.20081
1.05321
1.43123
1.59139
0.614333
1.31768
0.765203
2.19093
2.0313
1.80572
2.4986
2.56539
2.40708
2.43124
3.42192
2.20947
2.85413
3.05515
1.75037
2.18427
1.81117
1.98346
1.37967
1.00109
2.51757
2.75643
4.16032
3.18835
3.57372
2.72601
2.18444
2.23315
2.68615
3.17322
2.56123
2.95189
3.71582
2.63075
3.0923
3.80109
3.45808
4.48473
3.43037
4.50065
1.92792
2.41814
2.27281
1.85417
2.20662
1.52162
2.18696
1.44795
2.47199
1.99915
1.38694
1.38966
0.966716
1.86319
1.77625
2.55164
2.58775
2.1728
1.72654
2.04582
2.31126
1.23203
1.27522
1.22654
1.22715
1.24047
1.25231
1.22562
1.22742
1.22574
1.22805
1.22505
1.23569
1.22519
1.22563
1.225
1.225
1.225
1.225
1.225
1.225
1.225
1.225
1.22504
1.225
1.225
1.225
1.22501
1.225
1.225
1.225
1.225
1.225
1.225
1.225
1.225
3.92466
2.51099
4.05498
2.78241
3.58391
2.45866
4.46356
3.36578
2.53319
3.20567
4.06607
1.99551
3.2674
2.76336
6.0251
5.51612
4.74031
6.98891
3.94429
2.60081
2.11915
4.22452
2.30221
4.50396
3.67362
3.50092
3.41227
3.02836
4.59151
3.13549
3.19594
4.53474
6.81931
7.91205
7.86362
6.8336
7.35978
5.94604
5.91295
7.52477
4.91496
2.87337
2.62192
4.58984
2.94719
4.92317
4.528
4.54547
2.487
2.44863
3.56669
2.79501
3.98542
4.11962
8.11177
8.3918
8.40993
8.01904
7.28797
6.14683
6.30721
7.11098
1.247
2.22748
1.53005
1.58137
1.38622
2.10912
1.25474
2.83267
1.94112
1.29789
1.80564
2.11198
2.574
1.35456
1.22529
1.26845
1.22993
1.28928
1.2256
1.22955
1.23484
1.22502
1.22566
1.22501
1.22501
1.22512
1.22511
1.225
1.225
1.225
1.225
1.225
1.22501
1.225
1.225
1.225
1.225
1.225
1.225
1.225
1.225
1.225
1.225
1.225
1.225
1.225
1.225
1.225
1.225
1.225
1.225
1.225
1.225
1.225
1.225
1.225
2.92359
2.0372
3.6769
2.39064
3.2029
2.16975
3.31954
2.11699
1.44304
2.08509
2.93187
2.56063
3.78662
1.83539
4.5484
7.03164
5.94589
5.50129
2.83335
2.73171
2.71861
3.05591
2.44758
3.19476
2.7432
1.29459
1.56434
1.26657
2.2788
1.2541
1.39093
1.6267
3.37061
2.84917
4.12498
2.30956
3.06437
2.15622
3.01963
1.76453
3.4424
2.04283
2.75985
5.70483
7.43132
7.00467
5.85656
5.36684
5.50588
6.22016
4.97941
3.18781
2.74756
2.80416
3.16793
2.50706
3.30666
3.06569
2.95475
1.84135
2.43065
2.75412
2.14197
2.72284
2.91797
4.72824
3.28764
4.58069
3.65701
4.7564
4.0618
4.61814
3.94562
1.22501
1.22503
1.22557
1.22523
1.22508
1.22642
1.22501
1.22827
1.22503
1.22522
1.22569
1.22687
1.23621
1.22511
1.225
1.22501
1.225
1.22504
1.225
1.225
1.22501
1.225
1.225
1.225
1.225
1.225
1.225
1.225
1.225
1.225
1.225
1.225
1.225
1.225
1.225
1.225
1.225
1.225
1.225
1.225
1.225
1.225
1.225
1.225
1.225
1.225
1.225
1.225
1.225
1.225
1.225
1.225
1.225
1.225
1.225
1.225
1.22501
1.2257
1.22507
1.22528
1.22503
1.22514
1.22502
1.225
1.225
1.225
1.225
1.225
1.225
1.225
1.22522
1.24061
1.22681
1.23261
1.22586
1.22864
1.22548
1.22501
1.22501
1.225
1.225
1.22502
1.225
1.225
1.22501
1.2251
1.225
1.225
1.22504
1.22503
1.225
1.22517
1.225
1.225
1.22503
1.225
1.225
1.225
1.225
1.225
1.225
1.225
1.225
1.27048
1.225
1.225
1.225
1.225
1.22503
1.22506
1.22502
1.22501
1.225
1.22704
1.225
1.22502
1.22551
1.225
1.225
1.225
1.22501
1.225
1.225
1.225
1.225
1.225
1.225
1.225
1.225
1.225
1.22501
1.22511
1.225
1.22573
1.2267
1.22508
1.22514
1.22649
1.22507
1.22584
1.22505
1.22533
1.22501
1.22501
1.22514
1.22513
1.225
1.225
1.225
1.225
1.225
1.225
1.225
1.225
1.225
1.225
1.225
1.225
1.225
1.225
1.225
1.22598
1.27742
1.22787
1.23707
1.22843
1.23953
1.22579
1.225
1.225
1.225
1.225
1.225
1.225
1.225
1.22552
1.2251
1.22569
1.22503
1.22612
1.22505
1.2253
1.22501
1.225
1.22501
1.225
1.22504
1.225
1.225
1.22517
1.23204
1.22515
1.22547
1.22556
1.22673
1.22504
1.225
1.22504
1.22511
1.22512
1.22501
1.22501
1.22503
1.225
1.225
1.225
1.225
1.225
1.225
1.225
1.225
1.22503
1.225
1.225
1.225
1.22501
1.225
1.225
1.225
1.225
1.225
1.225
1.225
1.225
1.225
1.225
1.225
1.225
1.225
1.225
1.225
1.225
1.225
1.225
1.225
1.225
1.225
1.225
1.22506
1.22516
1.22501
1.225
1.22519
1.22505
1.225
1.67548
1.23823
1.22944
1.46828
1.22719
1.25288
1.28026
1.93358
1.33504
1.23383
2.28724
1.24637
1.45776
1.3287
1.32756
2.76597
1.6473
1.47682
2.59439
1.27661
1.68715
1.62719
2.28903
2.26547
1.46235
1.96555
1.95014
1.49001
1.225
1.22501
1.22501
1.22501
1.225
1.22501
1.225
1.225
1.225
1.225
1.225
1.225
1.225
1.225
1.26232
1.96283
1.67864
1.25561
1.75209
1.29104
1.57125
1.225
1.225
1.225
1.225
1.225
1.225
1.225
1.225
1.225
1.225
1.225
1.225
1.225
1.225
1.22507
1.23383
1.22628
1.2251
1.23554
1.22562
1.22681
1.225
1.225
1.225
1.225
1.225
1.225
1.225
1.225
1.225
1.225
1.225
1.225
1.225
1.225
1.225
1.225
1.225
1.225
1.225
1.225
1.225
1.225
1.225
1.225
1.225
1.225
1.225
1.225
1.225
1.225
1.225
1.225
1.225
1.225
1.225
1.22506
1.225
1.225
1.225
1.22528
1.22502
1.22503
1.225
1.225
1.225
1.225
1.225
1.225
1.225
1.225
1.22501
1.225
1.22523
1.225
1.225
1.225
1.22505
1.225
1.22502
1.22553
1.22501
1.22501
1.225
1.225
1.225
1.225
1.225
1.225
1.225
1.225
1.225
1.225
1.225
1.225
1.225
1.225
1.225
2.23276
1.41756
2.15497
1.41044
1.87359
1.92892
1.34613
1.22776
1.39947
1.26999
1.23584
1.27085
1.38151
1.22796
1.225
1.22515
1.22502
1.22501
1.22503
1.22525
1.225
1.225
1.225
1.225
1.225
1.225
1.225
1.225
1.225
1.225
1.225
1.225
1.225
1.225
1.225
1.22613
1.61229
1.46762
1.29884
1.22502
1.26952
1.22501
1.225
1.285
1.231
1.23125
1.225
1.22529
1.225
1.225
1.22518
1.225
1.22501
1.225
1.225
1.225
1.225
1.225
1.225
1.225
1.225
1.225
1.225
1.225
1.225
1.225
1.225
1.225
1.225
1.225
1.225
1.225
1.225
1.225
1.225
1.225
1.225
1.22582
1.23493
1.22958
1.28991
1.22553
1.23233
1.22613
1.225
1.225
1.225
1.225
1.225
1.225
1.225
1.225
1.225
1.225
1.225
1.225
1.225
1.225
1.225
1.225
1.225
1.225
1.225
1.225
1.225
1.225
1.225
1.225
1.22502
1.225
1.22501
1.225
1.225
1.225
1.225
1.225
1.225
1.225
1.225
1.225
1.225
1.225
1.225
1.225
1.225
1.225
1.225
1.225
1.225
1.225
1.225
1.225
1.225
1.225
1.225
1.225
1.225
1.225
1.225
1.225
1.225
1.225
1.225
1.225
1.225
1.225
1.225
1.225
1.225
1.225
1.225
0.652822
0.766228
1.15983
1.33659
1.4246
1.28045
0.717562
0.856856
1.27875
0.764294
0.905849
1.3845
0.63785
0.962771
0.664309
1.51773
1.18251
0.641071
1.78573
0.947294
1.3291
0.662469
1.7403
1.44183
0.868623
1.71914
1.29017
1.0559
1.4919
1.08218
1.77628
1.39232
2.67593
1.03153
1.06796
1.22502
0.846439
0.895769
1.02758
1.09723
0.756429
0.741115
1.5582
1.8902
0.925021
1.33187
2.26924
2.17975
1.59341
1.66995
1.51533
1.25343
0.713779
0.676223
0.679271
0.791062
0.729435
0.735008
0.784843
0.871586
0.563829
0.572923
0.582374
0.92493
0.94033
0.572295
0.726489
0.687688
0.7246
0.804988
0.79519
0.748744
0.853216
0.593581
0.629427
0.965339
0.601122
1.04991
0.974216
0.642038
0.849119
0.911622
0.80323
1.05695
0.883892
0.946517
0.997442
0.666631
1.05528
1.15121
0.737618
1.16746
0.697386
1.29289
1.07718
1.12461
1.02092
1.14797
1.195
1.10362
1.22051
0.62706
1.19638
1.17361
0.730966
1.3025
1.35015
0.708965
1.34812
1.27501
1.2307
1.38648
1.2865
1.3021
1.38423
0.752649
1.13454
1.1749
0.756316
1.21386
0.715268
1.17592
1.39517
1.42141
1.39276
1.45185
1.52722
1.46447
1.50644
0.987212
1.28994
1.4283
0.812419
1.23544
1.18981
0.866492
1.46816
1.48293
1.43614
1.64136
1.5737
1.55086
1.63813
1.20719
1.55808
1.72224
1.02175
1.3233
0.923197
1.48762
1.65239
1.90922
2.05308
1.1815
1.99764
1.71393
1.44422
0.861055
0.664776
0.671695
0.689868
0.722934
0.965763
0.761823
1.07341
1.18267
0.775556
1.22633
1.22762
1.13924
1.32898
1.53546
1.48385
1.76273
1.9285
1.6619
1.99484
1.98968
1.6023
1.89294
1.69246
2.39087
2.07474
2.77837
0.834779
0.953708
1.12539
1.28601
0.962375
1.13555
0.826966
0.851556
1.3119
1.02677
1.23824
0.979162
1.16347
0.894811
1.02604
1.10046
1.36749
1.67614
0.962083
1.17733
1.51534
1.06873
1.78197
1.27025
1.57162
1.23387
1.59531
1.10815
1.24007
1.34147
1.52209
1.72165
1.17074
1.42607
1.49651
1.29647
1.71334
1.55044
1.51944
1.48999
1.49721
1.34811
1.50659
1.62999
1.57506
1.93239
1.40237
1.74568
1.71631
1.6997
2.23472
2.22031
2.31474
1.94011
1.96808
1.225
1.2251
1.225
1.225
1.225
1.225
1.225
1.225
1.225
1.225
1.225
1.225
1.225
1.225
1.225
1.225
1.225
1.225
1.225
1.225
1.225
1.225
1.225
1.225
1.225
1.225
1.225
1.225
1.225
1.225
1.225
1.225
1.225
1.225
1.225
1.225
1.225
1.225
1.225
1.225
1.225
1.225
1.225
1.225
1.225
1.225
1.225
1.225
1.225
1.225
1.225
1.225
1.225
1.225
1.225
1.225
1.225
1.225
1.225
1.225
1.225
1.225
1.225
1.225
1.225
1.225
1.225
1.225
1.225
1.225
1.225
1.225
1.225
1.225
1.225
1.225
1.225
1.225
1.225
1.225
1.225
1.225
1.225
1.225
1.225
1.225
1.225
1.225
1.225
1.225
1.225
1.225
1.225
1.225
1.225
1.225
1.225
1.225
1.225
1.225
1.225
1.225
1.225
1.225
1.225
1.225
1.225
1.22501
2.24644
1.22512
1.69046
1.49639
2.09381
2.15613
2.99122
2.46443
2.8319
1.23544
2.53642
1.66258
1.92443
2.3694
1.37363
1.98699
2.23506
1.63046
1.57624
1.76627
1.62083
1.82907
1.94504
1.77754
2.03201
2.27809
1.87479
2.71671
2.82929
1.2572
1.225
1.22506
1.55704
1.22639
1.24431
1.22501
1.97007
1.81014
1.66524
1.99514
2.35753
2.15193
1.95971
2.56123
2.26221
2.13735
1.78656
2.48315
2.40723
2.06588
2.41954
2.70193
2.63502
2.67354
3.05339
2.34171
2.94821
2.78696
1.76399
1.22707
1.23115
1.59943
1.47034
1.29945
1.27924
1.22501
2.15167
2.60889
0.656491
0.204846
0.256694
0.33194
0.726663
0.43822
0.552748
0.893315
0.634485
0.226298
0.161212
0.171208
0.194793
0.292132
0.235258
0.285543
0.337055
0.379706
0.486844
0.385877
0.431071
0.531065
0.568745
0.598031
0.495589
0.545456
0.64729
0.571272
0.611868
0.609845
0.669387
0.599316
0.639513
0.674547
0.67617
0.695405
0.391511
0.27206
0.301103
0.659822
0.671194
0.589744
0.577542
0.533301
0.728826
0.471954
0.613687
0.421899
0.704015
0.601295
0.447129
0.336666
0.376774
0.666449
0.679447
0.590066
0.583439
0.590101
0.533077
0.511637
0.69561
0.707552
0.712313
0.723948
0.653186
0.815463
0.762762
0.52863
0.634071
0.67574
0.59251
1.22536
1.22501
1.22502
1.23418
1.22823
1.2277
1.22517
1.23981
1.22701
1.22598
1.225
1.225
1.225
1.225
0.942947
1.01607
1.03188
0.940644
0.953343
1.14567
1.06867
0.976141
1.02172
1.25457
0.999907
1.35778
1.11217
1.59367
1.4398
1.3115
1.80941
1.84711
1.58419
2.07289
1.87115
2.01445
2.13121
1.77133
1.51088
1.8231
1.63094
1.6141
1.39728
1.29211
1.41953
1.30748
1.225
1.225
1.225
1.225
1.225
1.225
1.225
1.225
1.225
1.225
1.225
1.225
1.225
1.225
1.225
1.225
1.225
1.25059
1.31809
1.2329
1.225
1.225
1.225
1.225
1.225
1.225
1.225
1.225
1.225
1.225
1.225
1.225
1.225
1.225
1.225
1.225
0.581332
0.604567
0.642518
0.71185
0.738007
0.740966
0.778229
0.681221
0.690749
0.809829
0.745044
0.778575
0.823446
0.86099
0.798816
0.851912
0.921116
0.876866
0.728128
0.766697
0.707022
0.83811
0.921623
0.852843
0.898168
0.814477
0.910453
0.983217
1.03626
1.04352
1.2987
1.14053
1.15414
0.920179
0.912187
0.617379
0.625792
0.657357
0.730488
0.739163
0.7361
0.742683
0.66629
0.702319
0.676837
0.752831
0.795312
0.755079
0.797541
1.00375
1.07761
1.00741
1.09052
0.99798
1.07702
1.16412
1.30957
1.07067
1.36447
1.16797
1.22456
0.952449
0.922114
1.09319
1.10103
1.40313
1.10029
1.10931
1.43506
1.44917
0.729806
0.789216
0.845213
0.847083
0.897152
0.864157
0.945822
0.999032
1.11212
1.47061
1.59158
1.31716
1.41222
0.990177
0.861145
1.02482
0.930878
0.959735
1.04033
1.03263
1.12066
1.10719
0.956812
0.902554
1.6755
1.6765
1.46769
1.44338
1.41909
1.13027
1.14885
1.47751
1.18871
1.54324
1.47309
1.10656
1.3919
1.05522
1.06424
1.39826
1.44088
1.45068
0.755049
0.790444
0.93565
0.885548
0.936849
0.785391
0.740967
1.2051
1.59552
1.25543
1.27964
1.82363
1.66955
1.7364
1.20869
1.26448
1.24655
1.97265
1.94617
1.84287
1.86101
1.05396
1.24325
1.13428
1.14066
1.23797
1.21485
1.31448
1.05584
0.877141
0.869797
1.43841
1.58977
1.32996
1.18498
1.18903
1.54853
1.0833
1.42205
1.13564
1.49039
1.47628
1.10982
1.0461
1.10681
1.19711
1.15736
1.22135
1.26379
1.34043
1.8708
1.98488
1.22767
2.07125
2.0986
1.42778
2.1013
2.04359
2.24253
1.8612
1.26057
1.32821
1.23845
1.46284
1.97633
1.49312
2.07485
1.98009
1.50464
1.46084
1.47067
2.08579
1.97908
1.60012
1.98223
1.53643
1.49099
1.60158
1.97736
1.67786
2.10126
1.52364
1.98204
1.76329
1.75294
2.09693
1.88917
2.05907
1.96769
1.89561
1.91783
1.87866
1.69405
2.14646
1.55049
1.98014
1.45217
2.08218
1.65788
1.33099
1.25535
1.53763
1.30462
1.83009
1.45664
1.2767
1.23812
1.35796
1.2301
1.33925
1.23068
1.27773
1.22557
1.22504
1.24709
1.22676
1.22591
1.23142
1.22723
1.24477
1.23385
1.94926
1.225
1.225
1.225
1.225
1.225
1.225
1.23333
1.6218
2.30759
1.23141
1.22504
1.225
1.5271
1.77838
1.44377
1.27997
2.54283
1.22601
1.22519
1.2254
1.22501
1.22501
1.22501
1.225
1.225
1.225
1.22501
1.54335
1.25145
1.43932
1.23873
1.23487
1.22526
1.22715
1.22502
1.22501
1.22501
1.22505
1.225
1.22501
1.225
1.225
1.225
1.225
1.225
1.225
1.225
1.225
1.225
1.225
1.225
1.225
1.225
1.225
1.225
1.225
1.225
1.225
1.225
1.225
1.225
1.225
1.225
1.225
1.225
1.225
1.225
1.225
1.225
1.225
1.225
1.225
1.225
1.225
1.225
1.225
1.225
1.225
1.225
1.225
1.225
1.225
1.225
1.225
1.225
1.225
1.225
1.225
1.225
1.225
1.225
1.225
1.225
1.225
1.225
1.225
1.225
1.225
1.225
1.225
1.225
1.225
1.225
1.225
1.225
1.225
1.225
1.225
1.225
1.225
1.225
1.225
1.225
1.225
1.225
1.225
1.225
1.225
1.225
1.225
1.225
1.225
1.225
1.225
1.225
1.225
1.225
1.225
1.225
1.225
1.225
1.225
1.225
1.225
1.225
1.225
1.225
1.225
1.225
1.225
1.225
1.225
1.225
1.22501
1.225
1.225
1.22502
1.225
1.225
1.225
1.225
1.225
1.225
1.225
1.225
1.225
1.225
1.225
1.225
1.225
1.225
1.225
1.225
1.225
1.225
1.225
1.225
1.225
1.225
1.225
1.225
1.225
1.225
1.225
1.225
1.225
1.225
1.225
1.225
1.225
1.225
1.225
1.225
1.225
1.225
1.225
1.225
1.225
1.225
1.225
1.225
1.225
1.225
1.225
1.225
1.225
1.225
1.225
1.225
1.225
1.225
1.225
1.225
1.225
1.225
1.225
0.784535
0.783834
0.797734
0.666777
0.684088
0.699764
0.7118
1.19398
1.27443
1.32915
1.66432
1.80675
1.90997
1.79326
1.23765
1.38085
1.32281
1.31394
1.37929
1.40346
1.48173
0.747154
0.829743
0.790714
0.9257
0.913191
0.792224
0.724712
1.28581
1.84216
1.67808
1.20091
1.25007
1.62108
1.78844
1.28795
2.00542
1.97436
1.28072
1.30912
1.91907
1.93814
0.832842
0.823643
0.887934
0.718233
0.738758
0.792538
0.808217
0.855502
1.02037
1.03742
0.864638
1.19856
1.29247
1.06684
1.41792
1.87765
1.94629
1.37161
1.4614
1.88761
1.85367
0.989455
1.10216
1.09279
1.16983
1.19562
1.29847
1.28821
1.22871
1.36808
1.43844
1.53265
1.7111
1.38869
1.65768
1.02018
0.995079
1.12998
0.923179
0.926897
1.08581
1.10842
1.32381
1.45623
1.42868
1.48887
1.6156
1.44309
1.55932
1.39423
1.26788
1.36588
1.24933
1.35871
1.35131
1.65735
1.225
1.22507
1.225
1.225
1.225
1.225
1.225
1.225
1.225
1.225
1.225
1.225
1.225
1.225
1.225
1.225
1.225
1.225
1.225
1.225
1.225
1.225
1.225
1.225
1.225
1.225
1.225
1.225
1.225
1.225
1.225
1.225
1.225
1.225
1.15651
1.25463
0.853491
0.908753
0.941396
1.35393
0.82615
1.15851
1.32122
0.824941
0.968408
0.916826
1.18083
1.26131
0.894601
1.2795
0.83846
0.901681
1.31667
1.95137
1.87999
1.27738
1.69202
1.46521
1.73566
1.38779
1.5509
1.31617
1.68038
1.41991
1.58103
1.52631
1.59315
1.79552
1.33896
1.97537
1.2387
1.39191
1.90295
1.34789
2.09959
1.26323
2.606
1.2286
1.91057
1.23112
1.53769
1.22602
1.23111
1.84522
1.22578
1.55222
1.22638
1.22741
1.22524
1.44957
1.22528
1.22504
1.22503
1.86408
1.73741
1.98077
1.68747
1.71981
1.97218
1.86917
1.75285
1.42069
1.86853
1.45392
1.41112
1.8579
1.75919
1.84932
1.69498
1.68693
1.94656
1.69406
1.95637
1.84075
1.73129
1.42731
1.35482
1.78766
1.38883
1.82965
1.6957
1.8314
1.70877
1.94089
1.87635
1.83941
1.7796
1.93409
1.54085
1.31274
1.72486
1.29048
1.63744
1.27439
1.62286
1.78067
1.95093
1.86338
1.75851
1.8502
1.89157
1.64787
1.4136
1.25666
1.23604
1.34213
1.24923
1.477
1.31197
1.36948
1.78298
1.56036
1.78042
1.48294
1.65793
1.40463
1.24667
1.23036
1.27495
1.22814
1.26525
1.22796
1.24982
1.31169
1.64294
1.47411
1.28539
1.55187
1.32601
1.27913
1.238
1.22678
1.22607
1.23328
1.22678
1.23903
1.233
1.24519
1.40805
1.26054
1.36677
1.25785
1.34779
1.24501
1.22501
1.22504
1.2251
1.22509
1.31114
1.2323
1.22503
1.50031
2.15677
1.2434
1.30491
1.34176
1.27188
1.30431
1.23924
1.3021
1.22512
1.23137
1.22702
1.24206
1.97247
1.79035
1.43418
1.66895
1.74404
2.01478
1.59004
1.22558
1.25044
1.22536
1.22554
1.3489
1.41921
1.22831
1.22567
1.2297
1.22552
1.22981
1.22582
1.22778
1.23329
1.22789
1.27857
1.25934
1.23079
1.22978
1.28883
1.23896
1.95177
1.70309
1.39047
1.44987
1.72559
1.92898
1.52432
1.22502
1.22509
1.82385
1.2427
1.225
1.225
1.225
1.225
1.22501
1.225
1.225
1.225
1.225
1.225
0.833487
0.934852
0.91815
0.687469
0.70575
0.737306
0.749872
1.82197
1.52043
1.53207
1.59339
1.83575
1.84455
1.80437
1.94533
1.37876
1.33149
1.3874
1.36582
1.906
2.00634
0.853178
1.00579
1.01222
0.874809
1.01477
1.17193
1.15696
1.1089
1.05859
1.07842
1.19656
1.21733
1.26188
1.23655
1.21565
1.45834
1.39289
1.39447
1.4205
1.65041
1.66524
0.986651
1.23081
1.12187
1.27436
1.18274
1.46094
1.34549
1.10875
0.856206
0.781432
0.746244
1.04359
0.828536
0.985337
2.33765
1.47236
2.52711
2.7506
1.98239
1.26522
2.7286
1.12068
1.2486
1.20188
1.26284
1.3559
1.31517
1.42153
0.817961
0.862383
0.889426
0.842615
0.656605
0.606701
0.626697
2.04059
1.24042
1.17258
1.33661
1.34407
1.9826
1.91487
1.37843
1.64413
1.52074
1.72194
1.56864
1.89367
1.72069
1.28928
0.992206
1.26121
0.978969
1.55443
1.17451
1.19688
1.45995
1.80839
1.69694
1.41955
1.51451
1.31988
1.24822
1.78109
1.59109
1.685