/*--------------------------------*- C++ -*----------------------------------*\
  =========                 |
  \\      /  F ield         | OpenFOAM: The Open Source CFD Toolbox
   \\    /   O peration     | Website:  https://openfoam.org
    \\  /    A nd           | Version:  9
     \\/     M anipulation  |
\*---------------------------------------------------------------------------*/
FoamFile
{
    format      ascii;
    class       volVectorField;
    location    "0.00195";
    object      U;
}
// * * * * * * * * * * * * * * * * * * * * * * * * * * * * * * * * * * * * * //

dimensions      [0 1 -1 0 0 0 0];

internalField   nonuniform List<vector> 
15733
(
(66.8871 245.139 85.4862)
(63.3076 315.267 137.126)
(76.9751 221.379 86.7296)
(66.0829 181.401 127.388)
(74.7503 161.179 130.446)
(102.737 286.092 57.4409)
(70.5211 241.896 41.9261)
(99.9241 233.629 60.3761)
(72.2302 294.219 41.8287)
(1.16312 3.07829 0.53065)
(0.00307918 0.0285861 0.0246892)
(0.000117547 0.000586587 0.00131807)
(271.127 -129.092 72.7115)
(241.412 -31.2293 88.3509)
(387.461 -66.7513 116.116)
(322.199 2.75174 119.863)
(231.735 -20.5243 84.0994)
(169.69 2.6204 43.1921)
(257.583 30.2692 87.4495)
(192.023 41.1966 52.76)
(147.972 8.13993 38.8031)
(62.2605 28.7991 3.97407)
(81.6954 49.5122 31.9197)
(13.3462 9.40009 5.96752)
(52.7597 98.7745 -12.0244)
(89.4885 306.219 100.519)
(178.082 -29.5635 88.2299)
(171.77 -29.6204 52.7673)
(340.118 -222.706 100.719)
(252.559 -85.4502 77.6224)
(224.438 -86.2573 99.6438)
(166.718 -5.82046 58.1436)
(288.264 -171.655 112.646)
(147.754 19.2723 84.8118)
(244.643 -50.9013 85.2217)
(190.281 5.53398 74.9022)
(237.304 -44.2155 122.048)
(178.02 5.61575 67.9514)
(249.851 -105.719 115.751)
(150.626 44.2119 95.5098)
(192.624 51.6169 103.615)
(186.231 3.89955 71.1276)
(241.523 -7.25463 124.412)
(213.885 -11.8084 70.2176)
(175.988 52.5114 107.6)
(169.173 4.01501 58.6903)
(242.768 11.7162 115.466)
(190.737 48.4037 91.1198)
(192.377 -3.94206 53.3005)
(131.575 5.1835 34.7317)
(217.659 25.6672 85.666)
(149.238 4.76279 43.5204)
(232.133 21.0502 101.23)
(178.309 46.3108 77.8477)
(155.119 42.0203 67.2927)
(116.034 5.40768 31.0721)
(204.097 29.0481 77.0793)
(123.624 12.0369 36.2692)
(166.122 44.6125 69.9878)
(99.1677 5.43325 29.1037)
(192.113 34.1779 74.7926)
(142.45 39.9542 56.49)
(92.8123 13.861 29.3525)
(60.9626 44.386 -20.2187)
(163.806 59.9739 37.9598)
(77.5843 7.41715 16.8757)
(177.638 41.7563 69.7171)
(137.551 67.822 8.46933)
(38.1088 307.285 280.168)
(2.89293 21.2663 26.6044)
(26.0704 190.523 121.289)
(122.104 274.312 48.1835)
(70.7889 194.524 -30.295)
(148.483 145.811 22.9873)
(40.1346 151.22 9.61677)
(134.625 197.786 -2.90548)
(64.1645 266.056 21.4682)
(108.94 202.453 39.0084)
(801.431 -94.8978 53.1857)
(445.38 452.463 20.1253)
(591.217 -109.184 192.701)
(381.408 443.881 90.6775)
(403.034 -1.74713 327.44)
(256.387 454.978 229.203)
(259.166 180.384 184.292)
(70.059 164.799 67.9536)
(131.83 170.311 87.9308)
(-0.438308 2.19398 2.47449)
(726.528 387.637 18.3918)
(738.724 212.608 19.3874)
(735.781 -111.626 131.084)
(653.168 378.635 81.7005)
(492.683 260.787 64.1257)
(355.225 319.078 20.6191)
(408.246 453.066 65.1563)
(370.066 328.92 66.9872)
(598.322 366.109 99.0003)
(540.749 130.462 123.543)
(476.462 -81.9097 291.984)
(465.085 372.198 222.342)
(430.028 149.895 200.913)
(384.351 328.942 134.089)
(295.111 461.048 210.587)
(362.97 313.863 200.719)
(424.561 389.618 269.975)
(300.468 135.394 145.036)
(303.746 132.174 232.112)
(252.182 351.932 184.044)
(48.2723 39.157 21.083)
(122.966 107.906 73.77)
(113.867 248.169 107.028)
(8.65002 7.5044 3.83491)
(195.824 254.208 208.583)
(145.88 329.225 187.388)
(198.119 311.118 142.045)
(5.68289 4.49487 2.46504)
(234.511 152.084 124.193)
(43.6761 89.6166 47.5303)
(0.362927 0.323127 0.181986)
(0.681781 0.668919 0.319794)
(2.39826 9.36661 3.91655)
(0.0405279 0.0431351 0.0215764)
(152.425 361.594 36.7091)
(332.79 441.945 19.888)
(233.888 324.492 20.9582)
(446.338 464.778 28.9712)
(336.109 452.532 28.9965)
(239.574 340.563 35.3958)
(144.281 344.915 20.6012)
(154.324 413.531 155.221)
(287.921 419.983 91.4226)
(206.032 374.447 109.764)
(355.563 441.518 123.206)
(149.732 398.398 118.094)
(273.316 415.08 129.465)
(192.104 403.327 144.575)
(100.255 219.205 117.166)
(259.393 416.938 229.392)
(124.62 346.318 174.287)
(217.05 411.68 207.337)
(144.845 329.313 176.909)
(221.375 364.084 201.105)
(82.9437 249.845 126.073)
(2.28583 4.16114 1.54422)
(66.3917 98.6907 42.554)
(6.38877 25.7787 9.33239)
(35.6596 89.7961 39.0128)
(7.0638 12.9058 4.72465)
(28.3457 40.7866 18.2208)
(2.10674 9.82711 3.52965)
(50.7394 312.98 220.733)
(29.8262 74.4963 32.5267)
(-32.5884 188.33 164.593)
(5.95193 42.7635 35.1545)
(0.496715 4.32664 3.28678)
(5.23356 7.43807 4.27482)
(0.0128633 0.0288842 0.00968942)
(11.6143 30.8563 16.5822)
(0.725515 1.39083 0.733003)
(798.544 217.405 39.548)
(841.64 100.234 18.2067)
(619.55 392.881 18.468)
(716.707 396.044 34.4573)
(829.981 104.847 43.4992)
(611.874 398.931 31.4743)
(809.681 214.414 19.2919)
(780.936 209.382 74.4173)
(698.369 390.363 67.42)
(767.149 91.2357 111.239)
(554.087 379.535 73.1994)
(813.012 99.3121 85.4189)
(595.651 391.712 60.3787)
(736.618 194.529 96.9454)
(150.505 367.914 59.9594)
(435.133 460.675 50.5493)
(308.959 433.06 63.9834)
(216.113 354.812 77.5189)
(329.397 446.417 49.5272)
(231.774 344.928 56.4655)
(146.973 380.559 84.2966)
(610.663 170.992 148.655)
(703.545 83.4699 128.658)
(507.075 364.109 93.5906)
(545.352 356.331 127.258)
(674.356 180.595 119.052)
(637.609 79.2214 154.757)
(463.835 351.444 124.875)
(558.099 170.109 187.352)
(501.089 357.301 168.843)
(541.548 101.405 252.768)
(411.326 359.113 219.627)
(582.195 83.8841 195.835)
(429.349 347.107 167.992)
(523.19 179.043 235.213)
(167.69 411.809 189.672)
(328.268 448.462 167.223)
(267.177 435.287 222.286)
(151.706 399.136 191.275)
(268.239 425.36 177.361)
(171.784 418.92 175.672)
(172.256 388.903 198.88)
(445.289 221.354 260.52)
(505.557 135.067 307.301)
(394.554 370.503 258.557)
(375.098 398.492 272.574)
(488.006 201.016 270.351)
(463.326 176.863 320.964)
(356.62 366.688 246.191)
(388.796 235.075 225.603)
(312.867 385.857 235.308)
(352.744 237.175 240.422)
(240.528 286.401 148.115)
(411.43 213.88 290.049)
(298.154 334.309 204.53)
(331.66 233.117 178.48)
(52.2341 103.018 49.5941)
(166.189 333.911 161.563)
(115.15 182.878 82.0223)
(18.1888 62.3552 24.8208)
(169.253 281.132 143.056)
(43.9532 138.032 63.1541)
(20.0228 36.8125 14.9243)
(110.908 200.699 222.473)
(129.403 272.445 230.793)
(216.433 130.979 230.834)
(168.686 287.509 180.132)
(135.13 130.453 255.086)
(109.234 312.487 198.38)
(182.202 191.588 202.333)
(123.56 236.661 254.937)
(253.309 198.609 253.41)
(147.429 207.605 277.3)
(221.713 220.573 233.177)
(91.3455 268.933 212.466)
(153.992 314.125 175.31)
(80.4267 364.356 209.396)
(147.345 298.623 200.277)
(94.2003 346.079 194.242)
(157.283 252.349 193.636)
(76.5113 322.875 225.997)
(104.316 249.042 253.177)
(164.555 219.409 219.408)
(196.22 226.631 228.369)
(83.5242 250.637 254.07)
(233.613 201.431 125.827)
(305.072 245.439 194.235)
(186.345 230.016 107.788)
(149.652 258.297 117.049)
(282.417 222.419 146.209)
(269.853 245.049 173.75)
(131.153 161.988 77.9017)
(172.089 166.897 101.902)
(99.1875 183.631 90.6085)
(175.267 199.062 136.278)
(21.3685 25.2988 14.3322)
(232.116 232.009 160.197)
(69.1072 83.954 44.6017)
(94.2084 103.324 63.9785)
(0.600327 1.10024 0.436691)
(11.6019 35.0209 15.5187)
(1.85424 2.84965 1.28436)
(0.107836 0.709256 0.258176)
(8.00559 11.9759 5.47659)
(0.524157 2.95646 1.09897)
(0.135362 0.252741 0.101221)
(107.432 220.129 163.297)
(23.795 132.843 64.1321)
(7.31494 17.8084 11.3903)
(57.7247 273.157 216.249)
(6.41421 37.2363 25.1534)
(30.7122 176.013 121.87)
(49.6121 112.562 74.9682)
(-0.00378943 0.0200491 0.0192219)
(-6.45389e-05 0.000742969 0.00074731)
(-0.00178766 0.00723261 0.0097822)
(0.372084 3.82981 3.42774)
(6.53423e-05 0.00263809 0.00225573)
(0.00152791 0.00874221 0.0100177)
(4.45312e-05 0.000773682 0.000722059)
(28.6678 34.1635 21.3534)
(12.848 23.003 11.7728)
(91.5698 128.43 82.2067)
(3.06068 4.52234 2.53066)
(2.29546 4.27353 2.31541)
(25.2134 38.6483 24.336)
(0.480036 0.788472 0.428204)
(-1.05749e-06 1.13973e-05 1.269e-05)
(-4.30752 22.2064 33.0481)
(-1.21685e-05 0.000609094 0.00144534)
(582.55 -330.747 6.84676)
(544.76 -307.043 85.9446)
(498.806 -284.893 137.234)
(353.899 -77.6799 242.001)
(318.347 31.337 256.657)
(252.624 209.916 206.919)
(205.231 323.731 197.718)
(149.496 318.566 182.427)
(233.501 213.312 175.097)
(210.23 227.422 146.125)
(198.358 270.208 152.795)
(125.821 313.186 148.768)
(-42.1028 333.114 275.972)
(135.119 323.254 209.061)
(-22.3259 344.39 330.659)
(75.4716 332.888 278.392)
(367.675 -229.263 37.5762)
(397.401 -317.472 -1.87444)
(534.268 -290.85 6.33524)
(580.114 -324.752 19.2802)
(414.043 -291.817 14.4758)
(529.029 -292.202 20.9067)
(362.294 -236.433 6.58568)
(375.012 -208.151 71.5012)
(570.321 -319.444 48.9051)
(435.455 -194.856 86.5049)
(493.235 -289.369 77.9907)
(430.4 -246.427 48.4617)
(521.968 -296.885 47.4897)
(371.264 -178.025 100.921)
(302.539 -66.9936 148.886)
(414.889 -136.532 139.567)
(445.025 -269.982 119.978)
(442.013 -236.517 184.788)
(346.848 -135.52 134.401)
(380.381 -54.6238 177.174)
(386.53 -227.02 154.054)
(250.955 26.4368 147.298)
(391.863 -170.866 218.087)
(304.664 157.832 201.709)
(282.113 -83.1373 190.288)
(339.972 54.9935 191.535)
(330.278 -166.053 176.663)
(217.496 105.531 152.551)
(205.062 155.748 168.859)
(287.503 228.364 219.736)
(252.346 -2.88489 192.265)
(289.104 123.752 254.051)
(205.752 144.847 166.058)
(281.04 265.829 230.024)
(241.851 50.8208 183.828)
(206.918 154.903 161.916)
(268.687 183.471 234.917)
(266.897 278.187 210.395)
(231.41 92.1082 146.826)
(273.765 282.054 227.796)
(239.797 81.1291 167.574)
(206.071 149.269 144.792)
(190.576 137.25 118.33)
(251.468 264.319 181.143)
(222.788 93.1644 130.046)
(217.756 211.354 157.801)
(196.576 142.839 128.279)
(232.773 255.597 158.822)
(221.425 94.0904 121.567)
(191.829 134.011 105.327)
(211.133 213.349 151.161)
(203.768 260.754 133.449)
(215.625 126.642 89.6968)
(217.187 254.477 148.361)
(220.704 100.76 115.933)
(196.534 147.235 64.6313)
(69.0338 326.359 191.035)
(167.232 341.323 222.139)
(127.276 350.668 217.355)
(182.471 321.666 173.189)
(88.7188 336.137 232.388)
(147.174 328.54 182.835)
(104.587 350.438 185.503)
(54.704 320.091 181.282)
(163.918 319.803 168.628)
(121.145 317.934 189.702)
(77.8771 343.751 197.83)
(131.533 320.987 173.564)
(88.5122 348.921 179.153)
(44.7431 314.043 199.755)
(158.084 284.961 104.165)
(165.611 258.601 134.676)
(203.567 201.233 84.4111)
(179.887 297.308 187.369)
(173.335 221.356 56.0335)
(151.67 303.118 167.718)
(171.566 252.933 105.04)
(112.636 301.877 208.878)
(67.873 343.064 234.741)
(125.457 340.288 247.483)
(52.6333 307.704 231.189)
(105.669 320.5 228.406)
(48.7731 328.81 260.595)
(57.3295 360.482 277.109)
(-46.0575 277.136 344.445)
(0.0117765 0.0808539 0.0990319)
(-0.0146101 0.0600181 0.0888181)
(-0.000703324 30.0936 41.0076)
(5.7426 298.756 334.127)
(-22.2418 277.178 283.346)
(51.0699 266.527 238.202)
(-32.5946 208.579 4.68851)
(-0.000227946 0.00611407 0.000147046)
(-8.69201 104.393 28.9749)
(2.69253e-05 0.00220318 0.000483057)
(-0.0255828 1.79689 0.650228)
(-7.26735e-07 7.39037e-05 2.36514e-05)
(0.000127687 0.0128538 0.0033751)
(-1.94933e-07 1.09604e-06 3.39987e-07)
(0.834891 2.05983 0.838779)
(7.76229e-07 1.88157e-05 4.92879e-06)
(-1.93134e-09 2.49421e-08 4.7639e-09)
(2.82373e-08 5.18209e-07 1.90117e-07)
(39.9853 318.786 9.76425)
(185.361 330.441 33.8228)
(33.0983 293.831 68.7275)
(175.016 307.231 57.2361)
(-34.8387 43.5009 1.18608)
(-0.10993 0.219904 0.0034349)
(-19.9571 22.8547 6.66643)
(-0.0622288 0.133032 0.0168167)
(28.2764 267.897 77.7977)
(124.479 193.27 68.838)
(8.9536 75.4579 33.6762)
(4.63399 7.75409 3.5027)
(-12.2612 13.0403 4.95787)
(-0.0132659 0.032455 0.00649865)
(2.6172 22.9125 9.97038)
(1.65843 2.23522 1.15241)
(0.0537032 0.549404 0.159803)
(0.0741965 0.0989474 0.0387031)
(0.0177446 0.189672 0.0538776)
(0.00654636 0.00881938 0.00383818)
(0.000296048 0.00354415 0.0011766)
(0.00110751 0.00181186 0.000771382)
(1.86392 6.22758 1.40809)
(0.000253307 0.0014457 0.000101315)
(0.00168172 0.0289398 0.0195815)
(5.92222e-05 0.000630593 0.000276403)
(88.0009 156.087 16.0636)
(-0.0846973 0.605301 0.0079462)
(0.993152 2.19553 0.031801)
(-17.1716 148.38 31.2934)
(71.8487 123.173 24.4429)
(-0.0456852 0.362426 0.0506292)
(0.523861 1.16426 0.192087)
(21.4613 35.8617 12.1782)
(-0.00884145 0.0900177 0.0180145)
(0.0905408 0.204143 0.0527559)
(-0.0995541 7.2005 2.67405)
(0.28748 0.571119 0.22375)
(-0.0115012 0.136555 0.0396041)
(0.00553914 0.0138732 0.00421733)
(0.00834892 0.0148221 0.00592244)
(-0.000466259 0.00791344 0.00234906)
(0.000270397 0.000835232 0.000281103)
(-0.000143941 0.0389986 0.0103198)
(0.00100087 0.00191768 0.000627397)
(-7.3371e-06 0.000250908 7.85525e-05)
(4.55155e-05 0.000206321 5.15033e-05)
(0.000281639 0.00081547 0.000246226)
(-3.07068e-06 2.81999e-05 8.48344e-06)
(6.71737e-06 4.54392e-05 1.16256e-05)
(-3.85399e-06 0.000225956 6.91582e-05)
(5.12302e-05 0.000222247 6.70593e-05)
(-7.89389e-07 2.76356e-06 9.34519e-07)
(1.03872e-06 1.04223e-05 2.69114e-06)
(0.00311498 0.00479638 0.00259433)
(0.000114141 0.00077137 0.00023846)
(0.000213602 0.000661159 0.000266198)
(0.000216474 0.00109243 0.000605913)
(5.28207e-05 0.000198532 6.62037e-05)
(82.4707 393.53 39.8257)
(106.179 350.067 15.999)
(61.8755 365.425 11.4696)
(41.2936 320.417 31.4179)
(109.194 362.889 39.5244)
(64.7357 368.423 36.2927)
(77.3937 381.952 14.9752)
(83.6295 397.26 67.3972)
(38.1903 311.606 52.6954)
(91.5535 369.852 84.592)
(63.4502 340.53 82.1146)
(102.348 368.743 62.4218)
(64.9392 359.997 62.1852)
(86.987 396.364 95.0648)
(-1.6318 1.45869 0.16916)
(-4.94872 2.99686 0.109793)
(-11.1309 15.0776 0.314951)
(-32.4209 40.4933 4.28731)
(-4.43197 2.67176 0.433)
(-10.0126 13.5993 1.31103)
(-1.84948 1.65069 0.0373487)
(-1.2005 1.07825 0.238872)
(-27.1925 32.9671 6.54475)
(-2.25519 1.25569 0.568419)
(-4.97539 6.75644 1.73538)
(-3.44534 2.00991 0.618245)
(-7.71282 10.4714 1.91716)
(-0.717622 0.646466 0.201647)
(108.794 373.404 145.035)
(82.5971 362.592 110.011)
(59.2455 309.349 92.919)
(22.7674 224.237 75.6019)
(97.3667 388.697 123.389)
(75.6333 346.055 131.084)
(50.3314 253.55 90.8996)
(102.273 339.427 149.424)
(16.7368 155.875 61.2561)
(51.45 257.533 118.235)
(18.1447 69.883 33.3876)
(68.2627 315.592 135.142)
(36.6241 166.247 71.6698)
(80.055 262.75 127.052)
(-0.130808 0.116008 0.0504463)
(-1.19564 0.640337 0.366638)
(-2.62084 3.55143 1.10777)
(-5.92471 5.95794 2.64774)
(-0.343264 0.309082 0.115492)
(-0.497138 0.263344 0.172107)
(-1.08132 1.46541 0.530337)
(17.6367 46.3064 21.9823)
(31.5224 158.679 76.3011)
(5.02994 18.47 7.96497)
(0.631829 5.96621 2.32045)
(48.916 142.916 75.0454)
(12.2157 60.957 28.7291)
(1.29081 4.18507 1.58021)
(4.93116 12.0629 4.73603)
(0.168524 1.65747 0.553797)
(1.02174 6.54069 2.14643)
(0.114736 0.289732 0.0886638)
(3.26942 18.6674 7.32291)
(0.356299 0.992434 0.338792)
(1.58469 3.54439 1.20324)
(0.162335 0.346043 0.116807)
(0.333374 2.37788 0.734523)
(0.0375691 0.09238 0.0274941)
(0.00530418 0.0590973 0.0177285)
(0.534937 1.15147 0.369848)
(0.101088 0.797216 0.253228)
(0.0103913 0.0272372 0.00874676)
(0.041654 0.0898048 0.0325804)
(0.00132375 0.0154813 0.00508424)
(0.00546552 0.0509266 0.0172853)
(0.00032488 0.00180244 0.000684669)
(0.0250495 0.218913 0.0747085)
(0.00244859 0.00709529 0.00240072)
(0.00896083 0.0206756 0.00772555)
(0.0210025 0.221791 0.100149)
(1.82757 13.0418 3.39839)
(0.095798 0.398274 0.0536057)
(0.512981 1.54902 0.816604)
(0.0857734 0.800029 0.116858)
(0.41342 3.25752 1.73885)
(0.0317878 0.112714 0.0512214)
(0.00090766 0.0141112 0.0050224)
(0.00480206 0.024293 0.002479)
(0.000160181 0.00251672 0.000166872)
(0.000105688 0.000498115 0.000138197)
(0.00372177 0.0452616 0.00466114)
(0.00202093 0.00776301 0.00278241)
(4.4331e-05 0.000848336 0.000249332)
(31.9131 267.872 6.77107)
(-12.4263 57.2261 1.12318)
(-29.9091 201.573 16.3085)
(31.4462 258.847 23.2204)
(-10.5462 51.3624 4.44329)
(6.52879 75.0997 7.09561)
(7.15397 85.0063 1.81904)
(17.9704 128.511 39.3898)
(-1.4374 13.2267 3.46783)
(-2.50495 57.2135 19.5413)
(10.2336 66.784 24.59)
(-0.434011 5.68733 1.68087)
(0.656677 6.24559 1.92076)
(1.53852 16.0569 4.43669)
(0.319815 1.44428 0.523788)
(-0.00725325 0.127043 0.0416251)
(-0.00573314 0.435206 0.145844)
(0.082388 0.309704 0.102676)
(-0.00165827 0.0302034 0.00966955)
(0.00508518 0.021312 0.00667717)
(0.0207286 0.0992042 0.0326997)
(0.00213283 0.0071926 0.00186417)
(-7.19332e-05 0.000873497 0.00018991)
(2.47805e-05 0.00382336 0.00108308)
(0.000415906 0.00206814 0.000672072)
(-2.77556e-05 0.000265988 0.000102527)
(-3.16086e-05 0.000226617 9.0018e-05)
(6.00687e-05 0.000575802 0.000128383)
(0.255087 0.45243 0.224815)
(0.0502552 0.157656 0.0573749)
(0.175407 0.372963 0.176247)
(0.0187572 0.0396878 0.0182227)
(0.0122012 0.0295802 0.012361)
(0.00236819 0.00692894 0.00312209)
(0.038909 0.0747911 0.0378709)
(4.65429e-06 3.28924e-05 1.11122e-05)
(-1.03159e-07 6.4936e-07 1.20951e-07)
(2.02579e-08 1.53122e-06 4.59415e-07)
(2.1397e-06 1.0824e-05 1.96718e-06)
(7.10358e-07 4.69311e-06 1.52696e-06)
(5.641e-08 4.97466e-07 4.52314e-08)
(-6.26546e-08 3.57478e-07 7.19459e-08)
(8.34075e-05 0.000958483 0.000699916)
(3.1133e-06 5.07591e-05 2.75835e-05)
(3.46923e-06 5.48816e-05 4.38491e-05)
(2.01558e-07 3.62421e-06 2.14982e-06)
(-24.8749 181.297 26.6645)
(24.2167 187.372 43.8675)
(-3.66254 24.8768 5.44683)
(28.6535 231.438 37.7553)
(-7.14236 39.2359 6.29491)
(5.00608 55.7268 9.74755)
(3.02428 33.0355 7.76691)
(-0.46653 22.8154 8.36933)
(1.20681 6.43794 2.48485)
(-0.0305037 0.525007 0.176793)
(3.79643 23.6331 9.14803)
(-0.116295 1.90593 0.609168)
(0.236779 1.84852 0.615537)
(0.0728964 0.457288 0.157058)
(-0.000774697 0.11996 0.0353133)
(0.00704076 0.0217514 0.00635168)
(-0.000225131 0.00276254 0.000991734)
(0.0234801 0.0738722 0.0227818)
(-0.000661114 0.00843378 0.00191961)
(0.0012724 0.0052933 0.0012891)
(0.000237054 0.00172263 0.000624413)
(1.99549e-06 0.000979221 0.000304887)
(4.41639e-06 0.000149311 5.13626e-05)
(-2.24183e-06 1.60028e-05 4.7876e-06)
(0.000107499 0.00055522 0.000171359)
(-7.03441e-06 6.47153e-05 1.86353e-05)
(-1.10339e-05 6.105e-05 1.91045e-05)
(-8.79591e-06 2.20988e-05 7.36307e-06)
(0.00301418 0.011266 0.00383763)
(5.4835e-05 0.000318898 0.000129142)
(3.7582e-05 0.000173017 4.32934e-05)
(0.00118401 0.00332438 0.00143831)
(0.000737836 0.00221343 0.000809312)
(0.000136406 0.000605753 0.000227488)
(-2.43828e-05 0.000113792 3.15426e-05)
(0.00438309 0.0115055 0.000182833)
(-2.38798e-06 0.000629793 2.04423e-05)
(9.85396e-05 0.000322148 1.05706e-05)
(-0.00010927 0.00394762 0.00051105)
(0.00205231 0.00585381 0.000762594)
(-7.48395e-06 0.000389386 7.47794e-05)
(5.80257e-05 0.00019767 3.78543e-05)
(0.000354463 0.00119599 0.000284967)
(-2.21698e-07 0.000154132 2.68973e-05)
(1.31537e-05 5.07377e-05 1.00144e-05)
(9.40307e-06 0.000457755 0.000141967)
(6.00185e-05 0.000201863 5.97769e-05)
(-5.57505e-07 2.42458e-05 8.50162e-06)
(2.15896e-06 1.27766e-05 4.26898e-06)
(9.79654e-06 4.13915e-05 1.23178e-05)
(-1.96171e-07 3.59272e-06 1.09905e-06)
(2.83779e-07 2.08174e-06 6.07387e-07)
(-6.37979e-07 9.6413e-06 3.23893e-06)
(1.18285e-06 9.52922e-06 2.23159e-06)
(-5.08025e-08 3.75109e-07 1.40025e-07)
(-3.66835e-08 5.12601e-07 1.41131e-07)
(1.54435e-07 2.24584e-06 5.08983e-07)
(-1.14895e-08 4.32593e-08 1.33208e-08)
(-8.10732e-10 1.06455e-07 2.22919e-08)
(-3.27743e-08 1.16252e-07 3.77274e-08)
(5.54914e-10 4.59933e-07 1.11407e-07)
(-2.29272e-09 6.34564e-09 1.06175e-09)
(-5.05043e-09 2.74678e-08 7.95873e-09)
(9.55793e-07 1.5805e-05 1.14566e-06)
(4.76202e-08 1.75963e-06 3.53459e-07)
(-1.3767e-09 6.00252e-08 2.36556e-08)
(-2.40053e-10 1.80297e-09 7.86031e-10)
(4.04104e-06 2.36851e-05 2.76433e-05)
(0.000750424 0.00441267 0.00392958)
(0.000834322 0.00512964 0.0020053)
(0.0831272 0.759821 0.260413)
(8.74534e-05 0.000450091 0.000358874)
(0.00240329 0.0226832 0.0110518)
(0.0969328 0.587409 0.36008)
(0.000223253 0.00168404 0.00118595)
(0.000275196 0.00167384 0.000777363)
(0.000259316 0.00283457 0.00228536)
(4.16605e-05 0.000280803 0.000194302)
(0.00474062 0.0449425 0.0418672)
(1.75662 28.5148 35.7992)
(24.9059 307.819 299.096)
(42.691 216.374 150.404)
(6.27925 7.87029 0.875604)
(0.146804 0.181719 0.0698562)
(0.000659325 0.00077692 0.000320986)
(7.31176e-05 0.00011711 3.85911e-05)
(5.39772e-07 2.51734e-06 4.62314e-07)
(4.84001e-06 3.50003e-05 2.36447e-05)
(0.000423595 0.00126771 0.000605843)
(2.1387e-05 8.21991e-05 3.34629e-05)
(0.0822082 0.0722462 0.00139235)
(0.226676 0.46307 0.00646987)
(0.00121201 0.00152025 0.000102757)
(3.82774 4.82703 1.01763)
(0.0384738 0.034191 0.00643548)
(0.112938 0.229684 0.0393104)
(0.000866064 0.00110579 0.000242527)
(0.0053213 0.00479119 0.00141344)
(0.0162357 0.03233 0.00842357)
(0.000220922 0.000274581 8.73425e-05)
(0.0308535 0.0378959 0.0149329)
(0.000809678 0.000865181 0.000358229)
(0.000384582 0.000660058 0.00024529)
(4.62285e-05 6.85788e-05 2.44789e-05)
(0.000159077 0.0001927 7.30259e-05)
(6.6007e-05 0.000125718 3.86856e-05)
(7.67546e-06 1.19547e-05 3.61204e-06)
(0.00029085 0.000446993 0.000142222)
(3.30597e-05 4.19121e-05 1.37811e-05)
(1.86691e-05 3.37862e-05 1.04888e-05)
(1.96605e-06 3.33614e-06 1.27663e-06)
(8.75964e-06 1.12026e-05 3.07547e-06)
(4.89904e-06 9.12743e-06 2.31923e-06)
(4.85738e-07 8.98724e-07 2.0034e-07)
(2.24158e-05 3.55449e-05 1.08848e-05)
(2.12524e-06 3.49925e-06 1.08938e-06)
(1.13972e-06 2.38831e-06 7.40821e-07)
(1.04131e-07 4.11423e-07 1.81211e-08)
(1.56699e-07 2.33211e-06 1.21952e-06)
(0.000101704 0.000410199 0.000235326)
(4.61504e-05 0.00024005 9.34484e-05)
(4.7528e-06 2.82941e-05 1.3222e-05)
(1.86634e-06 1.34083e-05 5.07897e-06)
(2.60865e-06 2.01639e-05 1.10315e-05)
(-1.15883e-06 2.72741e-06 1.03026e-06)
(8.6668e-06 1.58717e-05 2.05537e-06)
(5.27219e-06 1.1182e-05 2.68852e-06)
(9.02855e-07 2.24141e-06 8.36247e-07)
(5.55396e-08 1.55172e-07 4.80895e-08)
(-6.75572e-11 5.19179e-10 6.88227e-11)
(8.6936e-09 3.45354e-07 1.72238e-08)
(5.40064e-11 6.60813e-09 2.68892e-10)
(2.15945e-10 3.98285e-08 1.05648e-08)
(-5.21908e-12 8.45209e-10 2.29617e-10)
(-5.25434e-11 1.38374e-09 6.11095e-10)
(-1.37229e-12 3.01315e-11 1.36674e-11)
(-5.87088e-12 4.58062e-11 2.19178e-11)
(-1.20493e-13 1.05164e-12 5.10142e-13)
(-1.58249e-12 1.0435e-11 1.1598e-12)
(-2.13453e-14 1.97521e-13 1.88237e-14)
(-6.03209e-10 1.15339e-08 2.40108e-09)
(-2.97795e-11 2.5158e-10 3.25513e-11)
(-8.62319e-13 5.51135e-12 5.01903e-13)
(-9.89926e-15 1.13842e-13 4.45163e-15)
(7.64847e-05 8.27963e-05 2.08029e-05)
(2.52498e-05 2.57541e-05 7.47101e-06)
(4.76416e-06 5.62185e-06 1.96842e-06)
(6.77966e-07 1.64163e-06 1.4035e-07)
(1.86786e-07 2.52152e-06 1.34577e-06)
(3.98595e-09 8.58299e-08 2.77547e-08)
(5.51802e-11 2.32362e-09 5.22031e-10)
(1.79424e-13 5.76892e-11 1.06924e-11)
(-2.41295e-14 1.38365e-12 2.09203e-13)
(0 2.56762e-14 1.79325e-15)
(54.8194 250.112 307.81)
(10.0381 153.301 205.071)
(31.296 187.557 206.675)
(15.6246 156.116 253.049)
(42.4313 190.698 256.589)
(25.8349 264.719 200.123)
(37.4706 283.875 237.661)
(37.9484 272.436 244.405)
(30.9789 274.8 195.75)
(5.1593e-09 6.40135e-08 7.9199e-09)
(2.53168e-08 1.04384e-07 5.63478e-09)
(4.99894e-10 2.86078e-09 1.28042e-10)
(4.56087e-09 2.69739e-08 6.0005e-09)
(7.56703e-11 5.9874e-10 1.36328e-10)
(1.90505e-10 1.50367e-09 5.10931e-10)
(2.85795e-12 3.34957e-11 1.09164e-11)
(8.50316e-12 9.31792e-11 2.83495e-11)
(1.15388e-13 2.02615e-12 6.19566e-13)
(1.98913e-13 2.86974e-11 2.2512e-12)
(-2.16546e-15 5.54181e-13 3.7797e-14)
(8.9014e-07 2.7795e-06 2.00489e-07)
(2.48541e-07 9.59892e-07 2.13875e-07)
(1.29959e-08 6.06811e-08 2.179e-08)
(6.90739e-10 3.92965e-09 1.20617e-09)
(4.18149e-11 1.38315e-09 1.31484e-10)
(-109.788 183.914 291.055)
(-0.00092894 0.00120785 0.000615208)
(-2.38907e-05 3.46605e-05 5.66637e-05)
(-0.000866577 0.00116622 0.00177886)
(-0.188229 0.302543 0.34036)
(-0.000283251 0.000401236 0.000476568)
(-0.0250911 0.0399196 0.0313929)
(-0.000928539 0.00155041 0.00119323)
(-5.39956e-05 8.66739e-05 9.47573e-05)
(-1.05034e-05 1.24581e-05 1.36655e-05)
(-8.69055e-07 1.46962e-06 1.88344e-06)
(-779.145 195.987 76.7538)
(-763.749 186.103 122.234)
(-548.086 214.868 171.856)
(-399.213 169.813 179.829)
(-84.5795 43.6774 48.0312)
(-5.18319 2.39645 2.56343)
(-0.0284938 0.0168367 0.0103603)
(-0.00168099 0.00107878 0.000742068)
(-0.00062094 0.000559767 0.000353041)
(-6.32159e-05 8.35395e-05 4.24399e-05)
(-214.087 272.415 127.98)
(-32.2443 47.8329 36.541)
(-205.454 250.083 113.747)
(-143.609 203.843 53.4135)
(-148.864 221.952 76.9927)
(-175.519 174.061 63.5943)
(-166.655 182.053 79.727)
(-57.9934 75.3434 26.0844)
(-68.8775 83.0787 14.8245)
(214.133 3.97262 230.309)
(201.66 176.332 288.105)
(198.709 -204.241 213.444)
(151.026 -153.763 374.965)
(174.811 292.226 354.257)
(133.475 -90.7429 421.427)
(52.6995 -160.532 245.054)
(70.6318 -190.288 214.467)
(186.497 -160.853 203.079)
(180.851 -205.924 262.279)
(60.7577 -151.535 206.048)
(64.8395 -192.354 261.075)
(165.38 -168.435 242.945)
(58.4208 -59.4889 211.283)
(190.044 -63.996 178.071)
(66.1468 -59.579 182.572)
(169.64 -64.0169 207.326)
(44.9839 -163.128 294.357)
(165.926 -186.457 313.589)
(54.564 -143.062 369.623)
(126.498 -163.26 361.629)
(59.9064 -173.711 308.839)
(145.784 -170.836 294.198)
(36.5092 -156.417 360.899)
(50.3055 -52.5428 258.201)
(126.112 -41.5867 323.544)
(148.915 -57.7282 255.455)
(40.6795 -33.415 325.901)
(4.25883 -85.1671 473.831)
(47.436 -81.1942 418.337)
(100.423 -141.371 430.939)
(113.054 8.02431 445.092)
(23.8601 -136.402 437.583)
(38.5263 20.4429 442.38)
(67.0971 -93.2981 462.565)
(4.78459 60.6667 469.475)
(98.4852 -5.42038 402.57)
(27.7042 4.45595 409.974)
(59.7332 50.2316 451.255)
(356.607 -152.478 26.2769)
(312.736 -218.324 209.247)
(199.692 -98.8645 411.006)
(27.8803 275.634 272.846)
(-56.6662 375.287 286.259)
(682.881 -232.066 20.8304)
(335.578 -197.261 162.102)
(616.301 -235.411 127.777)
(561.272 -232.303 176.394)
(230.594 -161.457 368.047)
(380.104 -153.495 309.871)
(342.592 -87.8858 342.594)
(71.7269 210.202 347.811)
(230.111 201.069 260.715)
(-36.6682 373.652 230.2)
(468.876 -126.676 67.9531)
(482.421 -198.183 26.1642)
(351.751 -116.333 25.8904)
(350.409 -138.594 69.678)
(475.625 -183.046 65.8729)
(342.885 -107.73 70.0141)
(478.745 -135.816 25.0642)
(357.166 -179.306 232.73)
(413.363 -233.991 208.109)
(299.102 -166.318 197.428)
(284.462 -217.548 258.676)
(402.382 -175.475 196.533)
(374.502 -228.554 256.72)
(265.74 -172.504 236.483)
(176.591 -104.693 418.964)
(252.981 -104.868 396.218)
(160.721 -144.391 413.157)
(165.63 -2.6412 430.098)
(219.569 -148.116 395.204)
(211.128 -8.48488 409.276)
(118.554 -99.4682 441.29)
(41.2069 191.321 241.28)
(73.5544 266.37 252.861)
(-1.67034 125.712 297.537)
(-2.21155 315.814 226.092)
(63.4165 118.116 279.229)
(48.5125 310.085 213.482)
(-22.0052 199.791 253.404)
(-28.3465 194.929 139.57)
(-0.639599 4.19186 3.28539)
(585.688 -119.694 60.2642)
(596.219 -212.979 22.1872)
(713.125 -136.734 20.2256)
(670.902 -221.379 46.2014)
(587.277 -198.759 52.5485)
(702.316 -130.999 50.9466)
(596.4 -128.24 23.0801)
(468.571 -51.1124 61.6757)
(358.337 -52.689 23.1501)
(347.992 -46.9697 64.2001)
(479.413 -55.9502 22.11)
(586.324 -45.1244 50.3164)
(761.137 -56.8954 17.646)
(748.515 -53.845 44.0872)
(598.399 -49.7401 18.9182)
(461.275 -140.989 120.513)
(346.48 -161.682 118.924)
(445.289 -221.654 158.133)
(326.877 -150.518 162.801)
(466.156 -198.888 113.832)
(340.322 -125.118 122.225)
(439.265 -162.218 161.839)
(573.245 -132.968 107.393)
(653.684 -229.687 85.5873)
(540.736 -219.605 139.387)
(650.885 -155.802 128.364)
(572.14 -209.262 95.7525)
(687.864 -141.825 94.7371)
(541.333 -150.381 142.969)
(461.649 -55.3543 113.597)
(327.155 -59.1742 151.486)
(343.853 -51.3141 116.517)
(437.394 -62.5384 148.773)
(576.034 -49.5969 96.7568)
(695.741 -60.4922 114.148)
(735.232 -56.9862 87.6129)
(543.408 -56.724 125.873)
(437.624 -166.041 209.294)
(496.206 -221.56 190.671)
(597.356 -166.979 160.268)
(493.449 -217.122 219.088)
(494.433 -162.818 175.396)
(442.75 -211.232 238.404)
(535.127 -168.531 194.052)
(348.975 -67.7921 191.584)
(296.761 -64.4851 170.683)
(396.567 -67.4267 166.272)
(263.284 -64.9013 199.272)
(435.402 -60.3687 167.717)
(638.332 -61.9646 130.902)
(493.473 -61.0444 141.688)
(573.641 -59.0765 157.018)
(310.47 -178.611 277.96)
(258.214 -196.411 310.765)
(293.922 -167.081 356.429)
(199.871 -166.384 351.66)
(334.911 -204.152 305.639)
(233.013 -174.02 286.834)
(265.023 -170.068 338.266)
(379.191 -163.991 250.97)
(429.4 -191.475 262.94)
(334.337 -151.654 328.733)
(426.278 -151.334 293.369)
(387.267 -187.089 283.398)
(475.213 -161.675 235.374)
(327.794 -156.984 309.927)
(300.182 -61.926 234.678)
(192.459 -43.7281 310.919)
(228.952 -59.6337 246.384)
(253.65 -44.6886 295.859)
(377.567 -52.4676 210.661)
(463.073 -26.5729 256.837)
(512.418 -49.4052 198.473)
(327.188 -30.0441 270.491)
(240.337 -92.2095 383.782)
(287.563 -88.8029 364.099)
(379.917 -131.416 347.353)
(304.692 8.71325 346.531)
(281.256 -136.312 364.854)
(243.18 8.16513 372.708)
(341.756 -84.312 359.578)
(167.693 46.785 404.037)
(152.698 -7.86617 384.37)
(210.153 -7.71286 365.572)
(107.609 46.6348 426.422)
(245.677 61.9288 371.78)
(422.33 13.9193 319.412)
(284.954 9.343 336.649)
(379.996 66.0955 350.449)
(135.739 -40.1806 403.672)
(121.791 109.373 409.335)
(112.99 201.343 320.865)
(33.0157 45.309 374.768)
(162.828 103.801 382.736)
(75.5935 -33.5156 429.988)
(96.0438 38.3751 348.902)
(203.062 -26.2453 367.287)
(267.125 112.578 316.27)
(160.264 211.299 288.011)
(259.379 61.5294 286.23)
(199.908 117.219 344.238)
(302.983 -15.4919 339.127)
(166.843 52.7282 315.862)
(128.167 103.42 395.96)
(19.8626 158.34 382.463)
(62.253 104.058 421.819)
(92.166 156.744 357.509)
(209.911 115.827 361.603)
(293.381 163.925 298.916)
(336.662 118.207 335.959)
(177.053 165.728 325.623)
(38.123 240.131 275.784)
(-14.818 208.416 321.855)
(61.6041 204.628 302.677)
(-37.4902 245.964 289.997)
(24.96 263.905 229.065)