/*--------------------------------*- C++ -*----------------------------------*\
  =========                 |
  \\      /  F ield         | OpenFOAM: The Open Source CFD Toolbox
   \\    /   O peration     | Website:  https://openfoam.org
    \\  /    A nd           | Version:  9
     \\/     M anipulation  |
\*---------------------------------------------------------------------------*/
FoamFile
{
    format      ascii;
    class       volScalarField;
    location    "0.00015";
    object      lambda.c4;
}
// * * * * * * * * * * * * * * * * * * * * * * * * * * * * * * * * * * * * * //

dimensions      [0 0 0 0 0 0 0];

internalField   nonuniform List<scalar> 
4065
(
8.64304e-300
1.71166e-256
8.6426e-300
8.64313e-300
8.64242e-300
7.6425e-298
5.49823e-299
7.12093e-143
2.01751e-99
1.08166e-45
8.75703e-23
4.24953e-31
1.11433e-70
1.14381e-30
5.48488e-07
2.66592e-23
1
1
0
0.000739351
1.83819e-19
0.114857
2.18329e-23
0
5.85353e-30
2.55785e-05
9.99041e-31
0
1.05729e-31
1.36974e-31
1.7659e-35
4.63864e-77
3.56464e-119
5.98798e-82
5.11047e-50
1.00647e-125
3.73302e-82
1.32748e-55
2.33484e-148
7.90233e-104
9.635e-79
1.13199e-177
7.15128e-144
5.94723e-100
1.48704e-156
7.93037e-115
1
1.52945e-27
0.5
1.03523e-22
0
5.62993e-39
2.75469e-15
6.23878e-74
1.03996e-23
6.21706e-54
3.69089e-54
4.9763e-28
9.34814e-75
3.7062e-85
1.17852e-49
2.81581e-102
7.40684e-81
4.85603e-48
3.09683e-30
4.65647e-21
3.59345e-158
1.9298e-133
1.2726e-79
0
1.96374e-285
2.21071e-256
9.3252e-194
7.28879e-198
3.50224e-81
1.4319e-53
3.07697e-30
4.7335e-23
5.78743e-157
7.46475e-140
3.7353e-80
0
8.66831e-287
4.45786e-255
1.00709e-193
4.18713e-158
1.07158e-102
7.7719e-77
6.66539e-34
0
3.77514e-179
9.45248e-146
1.12255e-100
0
0
2.39119e-263
1.50739e-222
1.25346e-174
9.68045e-143
6.21448e-99
5.44019e-77
9.3289e-30
9.0507e-221
3.99935e-175
2.14054e-141
1.93175e-97
0
4.94066e-314
1.07539e-258
6.36619e-215
5.7829e-82
3.53033e-45
1.98879e-195
2.96265e-156
1.57968e-114
2.68823e-113
9.45772e-256
1.43485e-194
1.38643e-154
4.08673e-155
2.52814e-241
1.1631e-236
6.2936e-158
2.5368e-155
5.00952e-241
2.21316e-237
1.24884e-114
2.75353e-213
1.31103e-190
1.32643e-133
4.388e-114
3.55537e-212
9.7577e-191
8.01045e-78
4.4819e-154
8.35061e-149
3.74342e-79
4.64959e-78
2.15868e-153
5.71707e-150
1.01449e-41
9.11971e-130
9.40502e-106
1.32543e-54
1.47427e-37
8.65321e-124
3.61858e-86
3.32843e-280
3.16648e-285
1.23704e-280
3.92632e-232
6.20171e-255
2.31051e-232
4.64235e-187
9.60433e-193
4.61282e-188
1.37835e-157
7.5216e-155
6.12348e-242
1.49521e-237
2.31012e-157
7.39977e-155
7.72013e-241
2.32406e-237
7.87946e-121
1.23236e-212
1.95324e-191
2.7815e-140
1.22576e-120
2.14747e-212
1.09068e-190
9.02335e-63
4.96375e-154
9.88553e-150
1.62133e-79
2.63097e-62
4.15508e-153
1.38689e-149
2.25649e-38
7.01687e-124
1.03165e-87
1.00773e-52
3.04018e-42
2.10781e-119
5.70691e-107
1.70697e-281
3.10556e-285
7.09213e-281
1.83645e-232
1.35678e-254
8.72333e-232
3.32415e-188
1.20027e-192
4.28822e-188
1.08018e-164
1.35464e-176
2.50473e-266
3.8481e-262
8.90267e-181
1.23804e-177
1.16726e-268
8.59815e-264
7.16809e-143
1.5661e-226
2.67623e-221
2.09594e-147
1.54569e-143
4.5591e-229
3.05276e-223
2.98938e-83
5.99547e-175
3.94448e-157
4.05129e-101
1.62242e-83
1.85524e-176
3.38051e-173
2.8559e-54
2.8918e-143
5.80922e-119
7.42328e-82
5.99995e-64
4.18812e-144
4.73247e-122
0
0
0
2.09431e-257
1.77876e-266
1.56404e-259
9.40818e-204
2.28417e-225
1.78668e-220
1.5067e-175
4.0233e-218
0
7.41098e-313
7.99475e-223
8.47773e-220
6.93212e-300
5.97742e-298
3.84254e-173
2.47988e-260
6.47843e-257
3.05623e-177
1.64657e-174
7.58467e-256
1.87413e-254
1.32777e-125
1.10359e-217
1.20826e-213
1.06309e-142
6.92423e-140
1.15066e-194
1.69044e-192
2.3911e-78
2.52916e-172
2.88484e-148
6.54258e-99
2.19899e-81
1.11208e-154
9.80806e-153
0
0
0
1.19648e-309
1.54678e-298
9.28149e-297
1.62259e-253
4.6473e-255
1.14607e-251
2.62215e-192
7.63796e-298
2.38723e-254
2.30165e-192
2.48748e-106
5.22902e-107
4.42281e-74
3.22798e-74
6.43022e-89
2.17058e-88
5.56959e-70
4.24119e-70
1.87438e-119
2.97995e-119
4.60931e-85
3.12346e-85
2.56738e-74
1.95285e-41
6.50097e-42
2.03224e-41
1.54858e-41
1.57099e-41
3.26034e-41
3.69023e-37
3.31885e-54
8.01662e-38
9.43478e-37
4.78299e-37
4.81035e-37
6.62457e-37
2.24733e-87
1.12349e-87
2.60544e-54
3.75967e-70
8.02456e-54
4.11618e-38
1.39098e-38
4.84715e-38
3.49297e-38
7.45826e-38
3.58388e-38
1.5825e-74
6.23643e-42
4.20596e-43
9.60019e-42
4.7156e-42
4.78855e-42
5.15394e-42
3.26316e-107
1.08149e-107
1.27306e-74
8.70561e-75
3.78126e-85
5.01962e-54
1.671e-54
1.63829e-53
4.2947e-54
8.11714e-54
4.37607e-54
1.90582e-102
4.74789e-63
1.58061e-63
1.43478e-62
6.1442e-63
6.22598e-63
1.0575e-62
4.86913e-136
3.23228e-136
1.93602e-155
0
9.78856e-286
1.21342e-285
1.16103e-285
9.41558e-254
2.31666e-254
1.85243e-253
3.26639e-191
4.83356e-192
3.2487e-191
3.96867e-179
1.74634e-193
2.73304e-179
1.06292e-284
1.41166e-286
4.89797e-284
5.42441e-253
3.15483e-253
3.87341e-253
8.77333e-192
1.70878e-191
1.2109e-191
1.14401e-155
1.62747e-155
1.77447e-155
0
0
0
1.34346e-261
2.51209e-261
2.87506e-261
1.68798e-220
1.71713e-220
1.87994e-220
2.78388e-172
2.08023e-172
1.87957e-172
0
0
0
2.81617e-312
4.05134e-312
4.59481e-312
1.54928e-256
9.15581e-257
1.05582e-256
2.6851e-212
4.2796e-213
1.18468e-212
4.93569e-195
8.43303e-256
1.9888e-195
3.45404e-195
4.99918e-156
2.9687e-195
1.91786e-194
2.96268e-156
4.99613e-156
9.93126e-114
2.06265e-156
4.48873e-155
1.57971e-114
9.91704e-114
4.84514e-81
2.72081e-113
4.84397e-81
4.87874e-81
8.39356e-114
4.87884e-81
1.67658e-113
1.38595e-154
1.38645e-154
1.3858e-154
1.26246e-241
2.58999e-198
2.59216e-198
2.65636e-241
2.5922e-198
1.32734e-241
2.58997e-198
7.45535e-194
2.00556e-194
5.82626e-236
1.19061e-236
2.47371e-194
2.92463e-236
7.45588e-194
1.4015e-242
1.21503e-197
8.00992e-199
6.2789e-242
1.21681e-197
5.47339e-241
2.53403e-198
6.38714e-194
5.52561e-236
4.81191e-195
1.25633e-236
6.33644e-194
7.60281e-236
2.12718e-194
1.9624e-171
1.31217e-172
2.13559e-211
6.61672e-212
6.1343e-172
2.15832e-211
1.96276e-171
8.06991e-152
2.70991e-152
4.01257e-190
1.03613e-190
3.02123e-152
2.01354e-190
8.07046e-152
1.94663e-171
8.01587e-211
1.59726e-172
5.69512e-211
1.94914e-171
8.56152e-211
6.48243e-172
6.02804e-151
5.97477e-189
4.70917e-152
5.16382e-190
6.8836e-151
3.12453e-189
2.00757e-151
5.33463e-115
5.16703e-116
2.6123e-152
7.04913e-153
1.78311e-115
2.6377e-152
5.33558e-115
5.6914e-112
1.90501e-112
4.55447e-148
1.83255e-148
1.88925e-112
4.58398e-148
5.69198e-112
2.60388e-114
1.82838e-151
2.2319e-115
3.2278e-152
2.6067e-114
1.93962e-151
8.67086e-115
2.9409e-112
1.45862e-148
2.05929e-113
3.55248e-149
2.92202e-112
2.13753e-148
9.79342e-113
5.68147e-108
8.53145e-127
9.64109e-129
3.26493e-129
6.91418e-123
4.89206e-129
4.62721e-108
3.6304e-106
8.87769e-58
8.86632e-58
6.55477e-59
7.22663e-108
1.67804e-107
6.75407e-75
1.02532e-83
8.62705e-122
7.37439e-85
2.97738e-122
1.02678e-83
5.23401e-122
3.41658e-84
1.44386e-53
1.434e-86
1.04011e-53
3.43237e-54
2.01405e-104
2.95499e-87
8.26971e-71
3.62509e-279
6.2525e-280
1.84411e-279
2.06269e-287
3.76949e-286
4.15254e-285
6.91876e-279
6.05088e-280
3.73855e-279
2.63077e-231
1.13706e-231
1.34062e-231
2.37969e-253
2.03776e-253
5.78674e-253
1.24691e-229
4.28413e-231
1.32226e-230
1.12777e-185
3.22813e-186
1.15218e-185
5.49211e-190
1.15071e-190
6.55906e-190
4.60327e-186
5.13611e-187
1.54342e-186
2.41336e-141
3.35712e-142
2.3052e-144
6.23216e-144
8.91895e-155
3.55676e-155
1.21974e-154
2.2396e-122
2.42574e-122
2.29365e-141
7.23865e-124
3.73834e-240
6.50524e-198
4.54581e-199
1.35129e-241
5.09094e-199
6.50958e-198
7.80595e-240
2.34483e-194
1.88865e-195
3.19746e-236
6.66499e-236
7.80954e-195
2.33076e-194
9.70019e-236
1.10827e-242
3.73231e-198
2.4794e-199
6.95157e-242
3.73677e-198
8.32461e-241
5.59134e-199
2.85344e-194
2.32686e-235
2.12581e-195
5.25783e-236
2.83172e-194
1.59676e-235
9.50372e-195
8.51711e-171
7.27623e-172
3.65613e-211
5.16235e-211
2.83643e-171
8.52696e-171
5.5148e-211
5.29181e-151
4.03686e-152
2.15609e-190
1.06295e-189
1.76248e-151
5.49555e-151
3.27062e-190
4.76787e-171
4.91117e-211
3.85039e-172
3.46638e-211
4.77364e-171
5.23142e-211
1.58786e-171
1.76287e-150
6.4369e-189
1.24208e-151
1.3323e-189
1.85686e-150
2.02339e-189
5.87164e-151
2.55708e-121
1.9296e-122
9.14482e-153
4.90572e-152
8.5162e-122
2.56287e-121
2.76679e-152
1.25713e-118
8.38118e-120
1.36765e-148
2.77767e-148
4.18712e-119
1.24923e-118
2.07502e-148
5.82802e-121
1.09908e-151
4.22363e-122
3.80718e-152
5.83544e-121
2.33208e-151
1.94156e-121
4.86804e-117
6.4653e-148
3.825e-118
1.52658e-148
5.17388e-117
5.0575e-148
1.62356e-117
7.75428e-85
5.23278e-86
2.69492e-122
7.9824e-122
2.58288e-85
7.75802e-85
4.07936e-122
1.15244e-87
1.80483e-53
1.30283e-53
8.68434e-55
9.88529e-90
8.80376e-55
5.1172e-90
8.35472e-108
3.50008e-118
1.55785e-116
1.81724e-118
2.77334e-115
1.90137e-118
9.55524e-110
7.90021e-107
6.1902e-74
5.09491e-74
1.707e-74
3.96798e-109
1.0959e-107
4.10128e-75
1.33643e-279
3.2719e-279
4.16727e-279
5.06601e-288
1.18859e-286
3.89016e-285
3.18097e-278
2.74037e-279
8.62185e-279
3.67658e-231
2.24698e-230
5.74341e-231
1.06398e-252
8.80496e-253
1.27452e-252
4.72704e-229
3.64043e-230
5.73499e-230
8.53797e-187
3.99211e-186
1.33282e-186
2.19711e-190
4.0656e-191
2.55833e-190
4.16554e-186
7.23907e-187
3.35339e-186
5.08716e-123
7.82228e-123
9.75913e-126
1.25821e-125
3.75173e-162
3.33654e-163
4.75099e-162
1.20816e-141
1.08972e-141
1.33327e-144
8.31086e-143
8.04006e-228
5.83197e-229
4.77499e-266
1.40051e-264
5.41566e-229
8.04409e-228
1.45238e-264
2.13662e-224
1.85592e-225
6.53141e-261
2.02469e-260
7.10916e-225
2.69332e-224
9.24417e-261
5.78617e-230
6.58318e-267
4.29179e-231
1.04967e-268
5.79002e-230
6.89127e-267
3.81141e-231
7.69124e-226
1.85392e-262
6.51075e-227
3.26961e-263
7.73876e-226
2.64061e-262
2.43394e-226
2.72533e-176
2.43e-177
4.2492e-225
5.75449e-225
9.06695e-177
2.72701e-176
6.0058e-225
6.98911e-173
6.30714e-174
9.53349e-221
1.05881e-219
2.32515e-173
9.32326e-173
2.68951e-220
6.80281e-179
8.93921e-228
6.10196e-180
6.13325e-228
6.80853e-179
9.43931e-228
2.26623e-179
4.36996e-174
7.97996e-222
3.60018e-175
2.91884e-222
4.73395e-174
9.64261e-222
1.45722e-174
1.9504e-142
1.59387e-143
1.74434e-173
4.81694e-173
6.48827e-143
1.95129e-142
4.94938e-173
1.15926e-124
8.19982e-126
9.65931e-156
3.72909e-155
3.855e-125
1.15168e-124
1.33655e-155
7.14185e-144
7.88951e-175
6.05608e-145
2.71498e-175
7.14825e-144
8.30935e-175
2.37902e-144
4.94411e-125
1.87137e-171
3.68716e-126
1.90931e-172
4.91089e-125
1.17009e-171
1.64692e-125
1.22497e-98
1.15082e-99
1.25813e-141
2.93026e-141
1.22403e-98
1.23099e-98
1.83113e-141
4.89182e-119
3.44654e-81
3.44171e-81
1.16807e-81
4.22044e-120
8.35943e-82
7.05772e-120
2.94871e-99
2.22526e-142
6.35251e-100
9.09965e-143
2.16243e-99
1.47047e-142
2.9539e-99
4.77538e-122
8.17197e-81
8.16961e-81
5.07084e-81
2.61937e-123
5.73052e-123
2.62386e-81
0
4.94066e-314
0
0
0
0
0
0
0
1.72937e-256
3.00647e-255
7.87938e-256
1.20027e-264
8.89159e-265
7.04923e-265
1.92253e-257
2.25923e-258
2.488e-258
4.12929e-202
2.90369e-201
4.92055e-202
6.84175e-223
2.59195e-223
7.98144e-223
7.50955e-218
1.8805e-219
2.45793e-218
4.96123e-150
7.04491e-150
1.94315e-151
3.9892e-151
2.86164e-173
3.61638e-173
6.58943e-173
2.8277e-150
2.4377e-150
3.6093e-152
1.02879e-151
1.68813e-262
1.15884e-263
0
0
1.49416e-263
1.68899e-262
0
9.7001e-259
9.7831e-260
5.73116e-312
4.41201e-311
3.22495e-259
1.81881e-258
3.06815e-311
1.26988e-264
0
8.50325e-266
6.93152e-300
1.27052e-264
0
1.51916e-265
2.97699e-261
4.94066e-314
2.47646e-262
4.20944e-299
3.02654e-261
0
9.91403e-262
4.96207e-218
4.32362e-219
1.73404e-259
4.31803e-259
1.64836e-218
4.96519e-218
4.50282e-259
2.43353e-215
1.85136e-216
6.59721e-256
3.06245e-255
8.08412e-216
2.81241e-215
1.67161e-255
9.20015e-221
1.32812e-262
8.05329e-222
7.5782e-256
9.20633e-221
6.93174e-263
3.06382e-221
3.5503e-217
1.65667e-258
2.88187e-218
1.66972e-254
3.60764e-217
1.0897e-258
1.18252e-217
2.11533e-173
1.7589e-174
3.34585e-216
7.96187e-216
7.23321e-174
2.11688e-173
4.1652e-216
4.23318e-170
3.07418e-171
2.74752e-212
1.35611e-211
1.43502e-170
5.51477e-170
3.39412e-212
3.73091e-175
7.73843e-219
3.18313e-176
1.14879e-194
3.73378e-175
1.62121e-218
1.24269e-175
3.65012e-172
6.50536e-214
2.77005e-173
8.76651e-193
3.75332e-172
4.51688e-214
1.21592e-172
8.54336e-139
5.67658e-140
1.46863e-170
1.32588e-170
2.83519e-139
8.60797e-139
1.9032e-170
3.24224e-148
2.48511e-108
2.0145e-108
4.21867e-109
9.13862e-150
2.83595e-109
2.7598e-149
1.28483e-140
2.57325e-173
9.15263e-142
1.10885e-154
1.29165e-140
3.29927e-173
4.28622e-141
4.72409e-110
9.23885e-153
4.89076e-110
2.81146e-111
2.05185e-153
1.81051e-153
1.74283e-111
0
0
0
0
0
0
0
0
0
4.35985e-308
3.69408e-307
7.95968e-308
0
1.61371e-298
0
1.26876e-310
5.10286e-297
8.89318e-312
1.39109e-251
4.20922e-251
9.51268e-252
3.03817e-260
4.96845e-255
3.42506e-260
5.1633e-254
2.23532e-252
8.25784e-255
2.54896e-182
1.47069e-181
7.14895e-184
8.65267e-184
6.98713e-216
3.97651e-192
6.77493e-216
3.64131e-186
3.41651e-186
1.16001e-188
4.55319e-188
9.45544e-256
9.45713e-256
9.45484e-256
1.43443e-194
1.43483e-194
1.43431e-194
4.92579e-299
2.08545e-254
2.38728e-254
2.08532e-254
1.09663e-192
3.51664e-192
1.09655e-192
1.50797e-153
1.5079e-153
1.51828e-153
1.51816e-153
0.5
0
0.00436259
0
0.000548243
1.78417e-12
5.46339e-07
1
0.00280505
0.824809
0.350925
0.000293849
1.17275e-07
4.74963e-13
1.10605e-09
1.6061e-19
2.29787e-10
2.23841e-10
1.89489e-17
1.19724e-25
2.43492e-32
8.69245e-16
0
7.96529e-29
7.4132e-81
1.45198e-81
6.57126e-119
5.09315e-117
1.19377e-81
1.25994e-118
5.36685e-117
3.6656e-48
1.68543e-65
1.6451e-65
2.74688e-96
7.98789e-79
1.2474e-96
1.64631e-78
1.32509e-30
2.90075e-30
1.26303e-30
2.73737e-48
6.6672e-48
2.70941e-48
5.91189e-48
9.89777e-25
1.04341e-07
5.4159e-13
7.26117e-28
9.03236e-26
7.06449e-40
2.75788e-36
3.67512e-81
3.64768e-82
2.86921e-125
6.5409e-124
2.82137e-82
1.61551e-125
1.17911e-123
9.79599e-54
6.47266e-71
6.24902e-71
6.55666e-97
3.65497e-79
3.79972e-97
9.92928e-79
4.99098e-30
1.02702e-30
1.10316e-30
3.85515e-54
5.2356e-54
6.50192e-54
1.59031e-52
9.14126e-22
2.02584e-08
1.34251e-13
4.71816e-23
3.46019e-28
4.95347e-37
0
2.53313e-102
2.31405e-103
5.74015e-147
2.94423e-145
6.65262e-104
2.33488e-148
4.52885e-146
5.72015e-77
7.77841e-79
2.34364e-78
3.53532e-102
2.67701e-100
2.93953e-103
1.09881e-100
5.3951e-34
8.28114e-34
1.1837e-34
9.60593e-77
4.90498e-60
6.89599e-77
7.06686e-60
0
5.8126e-26
0
2.21802e-33
5.51223e-34
1.24186e-33
2.2368e-34
7.16764e-176
4.76851e-142
6.2966e-144
4.29416e-178
2.37741e-143
6.57614e-177
5.98491e-175
9.542e-99
1.129e-141
5.12469e-100
2.57905e-143
1.891e-99
4.07847e-142
1.16521e-140
2.90547e-76
8.0841e-76
1.63801e-76
6.3753e-100
7.33316e-99
4.58597e-83
7.6999e-98
6.74102e-30
1.23206e-28
4.82429e-29
1.68364e-44
6.0302e-45
3.0256e-76
1.46694e-76
0
0
0
1.52196e-283
8.24399e-284
9.56112e-284
0
0
0
0
0
0
0
0
0
7.72544e-284
7.74085e-284
1.52036e-283
4.19035e-239
1.39767e-239
1.41018e-239
4.19028e-239
5.74543e-284
2.14085e-284
5.76588e-284
1.48089e-239
4.9293e-240
5.88447e-240
1.48081e-239
8.58112e-284
4.64396e-283
2.57663e-283
3.52445e-239
1.1776e-239
3.52444e-239
1.53544e-239
0
0
0
0
0
0
0
0
0
0
0
0
0
0
0
0
0
0
0
0
0
4.1032e-158
2.81689e-119
3.34189e-199
1.96679e-157
5.00772e-126
7.0046e-200
9.85084e-181
9.79026e-148
6.27086e-230
1.13737e-263
7.59173e-222
3.55411e-264
7.94444e-242
0
1.14008e-242
0
2.04235e-196
1.71414e-289
1.1435e-199
9.29293e-197
2.10314e-288
1.38601e-241
0
4.24823e-242
0
4.04435e-197
5.17775e-289
2.50887e-199
2.14398e-197
2.28796e-287
4.7882e-284
4.59249e-267
0
5.52049e-269
0
5.51431e-228
0
0
3.78512e-231
2.67163e-229
0
0
0
0
0
0
3.92304e-262
0
0
2.90763e-264
3.50402e-264
0
0
0
0
0
0
0
0
0
0
0
0
0
0
0
0
0
0
0
0
0
0
0
0
0
0
0
0
0
0
0
0
0
0
0
0
0
0
0
0
0
0
0
0
0
0
0
0
0
0
0
0
0
0
0
0
0
0
0
0
0
0
0
0
0
0
0
0
9.94286e-286
3.31962e-286
3.3123e-286
9.94354e-286
0
0
0
1.35742e-286
1.08222e-287
1.37164e-286
1.16904e-287
7.97127e-289
1.30995e-287
1.31548e-287
8.26449e-243
5.47323e-244
1.37214e-243
8.26508e-243
4.49174e-288
5.56539e-290
7.48777e-289
2.04116e-243
1.88058e-244
2.04332e-243
6.79682e-244
0
0
0
1.28244e-285
1.10691e-286
1.15738e-286
1.29519e-285
0
0
0
1.42978e-286
1.22339e-287
1.64868e-286
1.27155e-287
1.35857e-287
1.94935e-287
2.04222e-287
1.17778e-242
1.08072e-243
3.92209e-243
1.1786e-242
1.20505e-287
3.02777e-289
7.95698e-288
2.43165e-242
2.2481e-243
2.43356e-242
8.09849e-243
3.14357e-284
8.3018e-284
1.57525e-285
1.29825e-239
1.10359e-240
1.44162e-239
4.32413e-240
0
0
0
0
0
0
0
0
0
0
0
0
0
0
0
0
0
7.58676e-267
7.04097e-268
2.52517e-267
7.59098e-267
0
0
0
6.91976e-264
6.27369e-265
2.30314e-264
9.64932e-264
0
0
0
1.2244e-269
1.14478e-270
1.22525e-269
4.07919e-270
0
0
0
5.98255e-266
5.34925e-267
6.59969e-266
1.58078e-266
0
0
0
0
0
0
0
0
0
0
0
0
0
0
0
0
0
0
0
0
0
0
0
0
0
0
0
0
0
0
0
0
0
0
0
0
0
0
0
0
0
0
4.83748e-158
1.27953e-198
3.52971e-198
3.89271e-159
1.0305e-158
4.94851e-200
5.76019e-199
4.20979e-118
7.69998e-159
6.94432e-157
2.71311e-119
4.81247e-118
1.31606e-158
7.31217e-157
2.50036e-157
1.30665e-198
3.80323e-198
1.81497e-158
5.78402e-158
4.65507e-200
7.44578e-199
3.0387e-125
5.52652e-158
2.88911e-156
1.10758e-125
5.67515e-125
8.15077e-158
2.0796e-156
4.0299e-180
6.79908e-231
1.75793e-229
9.55506e-182
1.88889e-181
4.0179e-232
7.52083e-231
3.2428e-147
6.12922e-180
1.13635e-178
2.91547e-148
6.15062e-148
1.92563e-181
1.05459e-179
1.90107e-221
2.61153e-264
1.10447e-221
3.67694e-222
1.23404e-221
1.79964e-264
1.47344e-263
8.05407e-222
2.25571e-177
1.16786e-177
2.25428e-177
1.38763e-176
1.74504e-221
3.62803e-220
1
1
1
0.00528216
0
2.71263e-15
3.12136e-15
0
2.62552e-29
7.66004e-30
2.13212e-43
3.33037e-108
6.88118e-149
8.11585e-149
4.35727e-108
2.83677e-108
4.14299e-108
4.80609e-78
4.77577e-78
4.67799e-78
1.99517e-105
4.61663e-78
1.62447e-105
1
1
1
1
1
1
1
1
1
1
1
1
1
1
1
1
1
1
1
1
1
1
1
1
1
1
1
1
1
1
1
1
1
1
1
1
1
1
1
1
1
1
1.63523e-238
6.1156e-194
1.67179e-151
2.40124e-111
6.75723e-108
4.0697e-235
1.29394e-190
2.45097e-149
8.81198e-111
5.9763e-75
6.96488e-265
5.21854e-203
2.5379e-160
3.0736e-120
4.49366e-83
1.49676e-41
6.30995e-26
1.9153e-41
4.80363e-25
1.49326e-47
1.10803e-32
1
1.34889e-08
1
1.55935e-08
1
1.50289e-14
2.41241e-05
1
1
1
1
1
1
1
0
1
1
0
1
0
1
1
1
1
1
1
1
1
1
1.69104e-10
0.0118451
1
0.00608296
1
0.909795
1
1
1
1
1
1
1
1
1
1
1
1
1
1
1
0
4.42586e-06
1
5.1483e-07
0.219051
1
0.00170059
0
1
0.0164354
1
6.15549e-10
0.00107904
0
9.07819e-12
0.000799315
6.39867e-05
0
0.0198355
1
0
1
6.21654e-06
0
1
0
2.76709e-05
1
1
1
1
1
1
1
1
1
1
1
1
1
1
1
1
1
1
1
1
1
1
1
1
1
1
1
1
1
1
1
1
1
1
1
1
1
1
1
1
1
1
1
1
1
1
1
1
1
1
1
1
1
1
1
1
0
4.80488e-05
1.75454e-09
0.000204417
1.81905e-15
0.0990218
1.2087e-11
3.56655e-05
0
8.04434e-06
0.0729394
5.46274e-12
0.000283594
5.05743e-16
1
1
1
1
1
1
1
1
1
1
1
1
1
1
0
1
1
0
0
0
1
1
0
0
0
0
0
1
0
0
0
0
0
0
0
1
1
1
1
1
1
1
1
1
1
1
1
1
1
1
1
1
1
1
1
1
1
1
1
1
1
1
1
1
1
1
1
1
1
1
1
1
1
1
1
1
1
1
1
1
1
1
1
1
1
1
1
1
1
1
1
1
1
1
1
1
1
1
0
0
0
0
0
0
0
0
0
0
0
0
0
0
0
0
0
0
0
0
0
0
0
0
0
0
0
0
0
0
0
0
0
0
0
0
0
0
0
0
0
0
0
0
0
0
0
0
0
2.06041e-270
0
0
0
0
0
0
0
0
1.1705e-269
3.87902e-226
0
0
0
0
0
0
0
5.26486e-270
7.15408e-226
4.54856e-183
0
0
0
0
0
0
2.46642e-270
2.11609e-226
4.18696e-183
5.01459e-144
0
0
0
0
0
0
0
0
0
0
0
0
0
0
0
0
0
0
0
0
0
0
0
0
0
0
0
0
0
0
0
0
0
0
0
0
0
0
0
0
0
0
0
0
0
0
0
0
0
1.47674e-271
0
0
0
0
0
0
0
0
6.16031e-271
1.41693e-226
0
0
0
0
0
0
0
3.63325e-271
3.63331e-226
1.71261e-183
0
0
0
0
0
0
1.6355e-271
1.6471e-226
1.74807e-183
6.05797e-144
0
0
0
0
0
0
0
0
0
0
0
0
0
0
0
0
0
0
0
0
0
0
0
0
0
0
0
0
0
0
0
0
0
0
0
0
0
0
0
0
0
0
0
0
0
0
0
0
0
3.19923e-308
0
0
0
0
0
0
0
0
1.0674e-307
2.54842e-255
0
0
0
0
0
0
0
1.05115e-307
2.71563e-255
5.47422e-203
0
0
0
0
0
0
1.34102e-308
1.62256e-255
7.16553e-203
8.30456e-152
0
0
0
0
0
0
0
0
0
0
0
0
0
0
0
0
0
0
0
0
0
0
0
0
0
0
0
0
0
0
0
0
0
0
0
0
0
0
0
0
0
0
0
0
0
0
0
0
0
0
0
0
0
0
0
0
0
0
0
6.85608e-306
0
0
0
0
0
0
0
0
5.97705e-306
1.7112e-253
0
0
0
0
0
0
0
3.84483e-306
9.00246e-254
3.39257e-202
0
0
0
0
0
0
0
0
0
0
0
0
0
0
0
0
0
0
0
0
0
0
0
0
0
0
0
0
0
0
0
0
0
0
0
0
0
0
0
0
0
0
0
0
0
0
0
0
0
0
0
0
0
0
0
0
0
0
0
0
0
0
0
0
0
0
0
0
0
4.00606e-305
0
0
0
0
0
0
0
0
4.72053e-305
3.40076e-238
0
0
0
0
0
0
0
0
0
0
0
0
0
0
0
0
0
0
0
0
0
0
0
0
0
0
0
0
0
0
0
0
0
0
0
0
0
0
0
0
0
0
0
0
0
0
0
0
0
0
0
0
0
0
0
0
0
0
0
0
0
0
0
0
0
0
0
0
0
0
0
0
0
0
0
0
0
0
0
6.869e-305
0
0
0
0
0
0
0
0
0
0
0
0
0
0
0
0
0
0
0
0
0
0
0
0
0
0
0
0
0
0
0
0
0
0
0
0
0
0
0
0
0
0
0
0
0
0
0
0
0
0
0
0
0
0
0
0
0
0
0
0
0
0
0
0
0
0
0
0
0
0
0
0
0
0
0
0
0
0
0
0
0
0
0
0
0
0
0
0
0
0
0
0
0
0
0
0
0
0
0
0
0
0
0
0
0
0
0
0
0
0
0
0
0
0
0
0
0
0
0
0
0
0
0
0
0
0
0
0
0
0
0
0
0
0
0
0
0
0
0
0
0
0
0
0
0
0
0
0
0
0
0
0
0
0
0
0
0
0
0
0
0
0
0
0
0
0
0
0
0
0
0
0
0
0
0
0
0
0
0
0
0
0
0
0
0
0
0
0
0
0
0
0
0
0
0
0
0
0
0
0
0
0
0
0
0
0
0
0
0
0
0
0
0
0
0
0
0
0
0
0
0
0
0
0
0
0
0
0
0
0
0
0
0
0
0
0
0
0
0
0
0
0
0
0
0
0
0
0
0
0
0
0
0
0
0
0
0
0
0
0
0
0
0
0
0
0
0
0
0
0
0
0
0
0
0
0
0
0
0
0
0
0
0
0
0
0
0
0
0
0
0
0
0
0
0
0
0
0
0
0
0
0
0
0
0
0
0
0
0
0
0
0
0
0
0
0
0
0
0
0
1.8468e-72
1.20867e-39
5.52691e-25
7.46483e-40
8.10788e-25
4.87973e-09
2.83202e-72
2.51942e-39
9.29406e-25
1.01347e-39
1.30583e-24
1.08244e-08
7.84094e-77
3.69302e-53
4.10395e-28
7.39524e-53
6.46944e-28
0
3.09771e-123
1.06336e-76
0
7.86526e-77
3.77775e-53
6.86853e-28
4.30146e-151
2.41306e-123
1.59657e-76
2.67031e-123
1.09406e-76
0
1.86082e-199
3.41361e-151
1.20011e-123
2.20717e-151
1.77325e-123
1.89654e-76
3.14057e-238
8.25658e-200
4.86988e-152
2.29776e-200
1.31298e-151
4.93841e-124
4.9566e-306
3.18983e-239
5.86037e-201
1.58089e-239
1.47055e-200
9.59817e-153
0
1.87714e-307
1.44311e-240
1.30476e-307
8.89877e-241
2.01693e-202
0
0
1.09347e-309
0
2.13792e-309
7.92547e-243
0
0
0
0
0
2.35888e-277
0
6.75285e-273
1.1976e-231
3.09044e-271
2.52757e-228
1.11605e-187
1.27282e-226
8.34924e-185
2.87763e-147
1.32085e-183
3.62038e-145
2.94249e-108
4.32394e-144
6.27194e-107
9.30633e-74
1.8229e-106
9.07725e-73
7.15841e-40
0
0
0
0
0
4.19352e-278
0
6.42264e-274
7.34877e-232
1.98146e-272
1.02175e-228
1.5126e-187
2.23645e-227
5.63318e-185
3.16947e-147
5.2636e-184
1.1606e-144
1.9112e-108
4.61051e-144
8.24402e-107
1.40364e-73
2.16735e-106
1.50442e-72
1.76142e-39
0
0
0
0
0
0
0
4.86161e-311
3.29971e-260
1.84198e-309
5.6017e-257
1.44468e-221
1.09185e-255
1.15625e-219
2.25122e-154
1.61324e-203
7.53098e-153
8.42795e-125
5.0322e-152
1.01355e-123
1.70092e-77
2.38102e-123
4.25502e-77
1.35403e-54
0
0
0
0
0
0
0
0
6.76623e-310
0
2.03146e-307
9.93605e-257
2.64935e-306
7.63906e-255
2.41244e-217
5.80147e-254
2.10532e-215
4.8588e-153
1.4521e-202
1.83376e-152
5.75316e-124
1.37678e-151
2.42905e-123
1.93682e-76
0
0
0
0
0
0
0
0
0
0
0
1.60376e-308
0
2.53775e-306
2.34591e-240
3.7451e-305
1.3427e-238
8.96248e-201
3.77648e-238
5.49015e-200
1.0355e-151
2.48201e-199
2.35004e-151
1.1616e-123
0
0
0
0
0
0
0
0
0
0
0
0
0
0
7.84197e-308
0
8.36168e-306
1.84821e-239
6.13577e-305
3.60829e-238
3.2462e-200
6.4366e-238
1.42325e-199
1.68575e-151
0
0
0
0
0
0
0
0
0
0
0
0
0
0
0
0
0
1.6371e-307
0
9.10057e-306
2.89125e-239
5.09435e-305
2.83663e-238
3.60273e-200
0
0
0
0
0
0
0
0
0
0
0
0
0
0
0
0
0
0
0
0
1.72198e-307
0
6.59492e-306
1.55025e-239
0
0
0
0
0
0
0
0
0
0
0
0
0
0
0
0
0
0
0
0
0
0
0
6.94441e-308
0
0
0
0
0
0
0
0
0
0
0
0
0
0
0
0
0
0
0
0
0
0
0
0
5.49789e-286
3.26468e-282
1.97626e-313
0
5.33423e-305
3.90759e-261
4.92884e-196
1.18476e-157
2.49121e-114
0
0
0
0
0
1.20318e-271
4.57843e-227
8.21637e-184
2.92632e-144
1.40163e-106
0
0
0
0
1.22716e-273
2.04321e-229
2.97188e-185
2.30184e-145
1.82699e-107
4.60329e-73
0
0
0
7.27698e-278
2.19052e-237
6.62493e-188
4.24318e-153
8.14156e-109
0
0
6.49846e-288
2.06966e-272
5.24018e-195
2.04066e-185
5.40068e-115
1.96407e-86
0
0
0
0
0
0
0
1.98485e-272
8.49144e-227
9.47275e-184
5.42525e-144
1.54915e-106
0
0
0
0
6.35193e-274
5.81958e-229
4.7487e-185
4.21382e-145
3.35815e-107
6.92798e-73
0
0
0
4.78796e-279
7.50805e-234
1.73615e-188
4.91906e-148
3.15762e-109
0
0
1.71235e-293
2.26922e-246
3.59592e-201
2.62587e-159
1.58173e-120
8.95063e-84
0
0
0
0
0
0
0
5.35814e-310
5.06266e-256
5.53108e-203
4.46542e-152
1.48546e-123
0
0
0
0
1.40809e-311
3.22784e-258
6.93288e-204
4.81936e-153
1.08237e-123
5.38258e-77
0
0
0
0
1.23685e-261
6.84198e-226
4.06393e-171
4.28876e-126
0
0
0
2.7802e-273
9.6445e-232
2.37386e-182
1.07384e-146
1.37516e-104
0
0
0
0
0
0
0
0
3.64404e-307
2.95601e-254
3.99398e-202
1.37069e-151
0
0
0
0
0
2.52211e-309
4.95595e-256
2.64437e-203
2.11497e-152
1.20248e-123
0
0
0
0
1.97626e-313
4.79947e-259
5.21143e-219
3.24529e-169
0
0
0
0
2.96473e-269
2.01225e-224
1.66538e-179
2.92125e-144
0
0
0
0
0
0
0
0
0
4.79541e-306
1.02736e-238
8.93913e-200
0
0
0
0
0
0
1.14774e-307
1.07941e-239
1.12459e-200
1.96776e-151
0
0
0
0
0
1.02025e-310
4.66821e-257
3.24518e-217
0
0
0
0
0
1.7989e-267
1.03186e-222
2.29624e-178
0
0
0
0
6.01894e-303
2.3913e-259
1.42766e-194
4.74651e-157
0
0
0
0
0
0
0
0
4.02298e-305
4.60478e-238
0
0
0
0
0
0
0
8.79547e-307
7.15668e-239
4.38873e-200
0
0
0
0
0
0
1.4237e-309
1.67498e-256
0
0
0
0
0
0
6.22658e-267
3.12051e-222
0
0
0
0
0
4.63991e-302
1.03302e-258
2.48243e-194
0
0
0
0
0
0
0
0
0
2.50017e-305
0
0
0
0
0
0
0
0
1.82701e-306
6.8731e-239
0
0
0
0
0
0
0
2.21826e-309
0
0
0
0
0
0
0
1.57684e-266
0
0
0
0
0
0
2.00316e-301
2.79177e-258
0
0
0
0
0
0
0
0
0
0
0
0
0
0
0
0
0
0
0
1.06004e-306
0
0
0
0
0
0
0
0
0
0
0
0
0
0
0
0
0
0
0
0
0
0
0
1.94375e-301
0
0
0
0
0
0
0
0
0
0
0
0
0
0
0
0
0
0
0
0
0
0
0
0
0
0
0
0
0
0
0
0
0
0
0
0
0
0
0
0
0
0
0
0
0
0
0
0
0
0
0
0
0
0
0
0
0
0
0
0
0
0
0
0
0
0
0
0
0
0
0
0
0
0
0
0
0
0
0
0
0
0
0
0
0
0
0
0
2.99102e-74
6.83059e-41
1.03907e-45
1.37215e-32
5.70137e-75
6.99125e-41
4.67257e-49
3.01636e-36
9.11039e-79
1.77259e-53
1.57525e-71
1.1801e-36
8.36939e-125
3.73799e-77
2.7909e-102
1.91807e-70
5.78858e-153
4.77971e-124
2.78932e-143
4.87261e-102
1.49393e-113
3.25939e-81
7.12934e-217
1.20599e-152
3.92179e-178
3.35575e-143
9.53667e-157
1.52693e-113
1.5057e-256
9.77825e-217
5.14843e-222
3.25931e-178
2.85849e-194
7.42818e-157
7.31711e-310
8.20031e-257
1.61272e-266
3.02749e-222
1.67313e-258
1.02033e-194
0
4.27317e-310
0
4.21704e-267
7.66007e-302
2.36268e-259
0
0
0
0
0
9.37917e-303
1.08104e-12
2.91361e-32
5.8818e-44
4.03184e-82
9.57184e-117
8.44747e-177
3.62722e-26
1.34235e-09
0
1.23985e-14
0.485429
1
2.20634e-26
2.4078e-09
0.00169998
6.18979e-17
0.0637305
1
1.24963e-28
5.02875e-23
0.00318634
1.08543e-23
1.59973e-06
0.00816276
5.153e-53
7.27216e-28
0
2.34071e-35
2.15816e-23
5.03784e-06
4.8057e-77
1.31983e-52
4.03188e-28
3.63379e-70
3.71406e-35
2.70319e-25
4.35684e-43
7.4451e-32
9.77552e-124
2.27355e-77
1.02711e-54
8.82593e-102
1.75667e-70
7.37143e-36
1.17186e-80
1.24747e-43
1.32643e-152
1.8448e-124
6.1898e-78
2.56989e-143
1.19475e-102
7.21025e-73
9.16913e-114
6.08016e-81
2.29739e-217
2.18104e-153
2.76152e-125
1.34556e-178
1.39677e-144
5.85268e-104
2.44992e-157
1.05212e-114
1.36922e-257
2.57501e-218
7.12844e-171
6.22787e-223
6.92613e-180
4.25553e-146
7.24172e-196
2.66436e-158
4.8369e-311
3.29673e-259
7.49071e-221
2.92402e-268
1.0779e-224
6.10336e-183
1.30617e-260
3.75007e-197
0
1
6.33601e-07
2.77447e-05
6.70902e-30
1.72569e-17
9.45897e-39
2.33941e-33
7.22191e-78
8.56336e-66
1.13088e-109
2.11677e-101
5.80165e-151
2.96466e-139
6.69192e-82
1.88329e-43
0
5.47533e-32
1.58701e-12
1
1
1
1
1
1
1
1
1
1
1
1
1
1
0
1
1
0
0
0.000651282
1
1
1
1
1
1
1
1
1
1
1
1
1
1
1
1
0
0
3.18175e-05
0
0.00345977
4.43582e-11
0.000148556
1
0
0.00252869
1.78073e-12
0
2.1782e-05
1
1
1
1
1
1
1
1
1
1
1
1
1
1
1.54283e-08
0.000253465
0
1
1
2.34151e-05
0
0
0
4.80816e-08
1
0
0
0.000762761
1
1
1
1
1
1
1
0
1
1.35364e-09
1.57413e-12
0.0244715
2.77839e-16
5.71418e-05
1
1
1
1
1
1
1
1
1
1
1
1
1
1
4.44842e-08
8.45753e-08
1
0
1.12551e-05
1.39602e-11
0.0140635
1
1
1
1
1
1
1
1
0
1
1
0
0
1
0
0
0
0
1
0
0
1
1
1
1
1
1
1
1
1
1
1
1
1
1
1
1
1
1
1
1
1
1
1
1
1
1
1
1
1
1
1
1
1
1
1
0
0
0
0
0
8.88864e-265
0
0
0
0
0
0
8.38926e-265
0
0
0
0
0
0
1.66701e-288
0
0
0
0
0
0
0
0
0
0
0
0
0
0
0
0
0
0
0
0
0
0
0
0
0
0
0
0
0
0
0
0
0
0
0
0
0
0
0
0
0
0
0
0
0
0
0
0
0
0
0
0
0
0
0
0
9.51236e-259
8.3213e-302
8.27783e-302
8.34542e-222
1.88338e-264
0
0
0
0
0
0
0
0
0
0
0
0
0
0
0
0
0
0
0
0
0
0
0
1.32527e-300
5.79154e-299
8.54359e-257
0
0
0
0
0
0
0
0
0
0
7.99468e-302
2.1543e-299
0
0
0
0
0
0
1.59776e-301
1.08241e-299
0
1.61132e-284
0
4.14346e-241
0
0
0
0
4.61793e-194
1.68504e-155
4.38208e-284
8.26075e-241
0
0
0
0
0
0
0
0
0
0
0
0
0
0
0
0
0
0
0
0
0
0
0
0
0
0
0
0
0
0
0
0
6.02742e-284
2.74149e-284
2.74152e-284
0
0
0
0
8.26089e-241
8.21588e-284
3.83214e-284
1.65379e-284
1.6577e-284
6.4423e-241
9.7717e-241
0
0
0
0
0
0
0
0
0
0
0
0
0
0
0
0
0
0
0
0
5.50941e-285
0
0
0
0
0
0
0
0
2.78216e-285
0
0
0
2.09256e-241
4.33171e-194
1.05877e-285
1.14673e-241
0
0
0
2.1324e-286
0
0
0
0
0
0
6.4289e-195
4.74319e-243
4.71873e-288
3.23299e-177
3.53403e-221
9.90849e-177
1.70194e-142
1.74204e-244
1.95738e-196
3.92014e-157
6.47855e-221
1.19873e-176
2.77554e-288
5.03847e-244
5.07412e-197
1.44171e-264
3.02481e-221
1.32857e-288
4.53204e-244
0
4.59342e-265
0
2.98494e-289
0
0
0
0
1.74137e-82
6.90273e-117
3.82519e-176
2.34662e-201
2.8371e-115
6.06152e-82
2.90389e-157
1.5513e-115
1.9392e-197
3.52006e-158
8.39161e-245
7.06421e-199
2.7524e-290
7.72289e-246
2.57189e-71
4.18057e-102
5.88789e-146
8.84458e-183
1.95089e-99
1.36803e-54
6.81988e-143
2.63814e-100
1.4235e-177
6.44208e-144
1.67159e-222
2.61601e-179
8.26403e-267
6.00574e-224
1.92717e-256
1.1524e-255
2.94853e-195
7.95305e-193
1.32326e-190
5.64325e-155
1.4342e-154
7.3547e-256
2.96471e-195
1.84377e-194
4.12082e-156
1.98215e-154
2.7136e-192
2.4528e-192
1.25064e-192
1.2386e-192
2.34743e-298
2.13001e-298
2.1668e-298
1.24254e-298
7.02243e-255
6.34524e-255
3.2321e-255
6.38613e-255
6.79383e-297
1.325e-296
6.5962e-297
1.40276e-296
2.12184e-252
8.6723e-252
1.36298e-252
1.28771e-251
1.28456e-190
9.74527e-191
4.61945e-191
1.99937e-196
9.47736e-258
1.80291e-256
9.47744e-258
1.80092e-256
0
0
2.26406e-300
2.42205e-299
0
0
0
0
0
0
0
0
0
0
0
0
0
0
2.14834e-155
7.0842e-114
1.22948e-38
2.21641e-73
1.13455e-109
1.17649e-149
)
;

boundaryField
{
    ground
    {
        type            zeroGradient;
    }
    outlet
    {
        type            zeroGradient;
    }
    wall
    {
        type            zeroGradient;
    }
    wall2
    {
        type            zeroGradient;
    }