/*--------------------------------*- C++ -*----------------------------------*\
  =========                 |
  \\      /  F ield         | OpenFOAM: The Open Source CFD Toolbox
   \\    /   O peration     | Website:  https://openfoam.org
    \\  /    A nd           | Version:  9
     \\/     M anipulation  |
\*---------------------------------------------------------------------------*/
FoamFile
{
    format      ascii;
    class       volScalarField;
    location    "0.0009";
    object      rho.c4;
}
// * * * * * * * * * * * * * * * * * * * * * * * * * * * * * * * * * * * * * //

dimensions      [1 -3 0 0 0 0 0];

internalField   nonuniform List<scalar> 
8257
(
1.36692
7.68131
0.352796
5.92107
11.6676
9.45301
0.234868
4.7503
0.235073
3.43646
8.14925
6.35207
0.313319
3.77215
6.78104
3.93412
5.47721
7.05661
6.95684
4.39106
6.22384
5.0851
3.31475
6.66788
3.11046
4.9791
3.98077
5.76451
2.48102
10.692
10.9241
9.84219
10.3061
8.08358
9.05706
1.38314
2.23068
3.96587
3.79879
1.77717
1.73245
3.18354
1.28183
3.39483
1.76966
2.89778
1.61738
2.85476
1.39254
6.88047
6.89862
5.84595
6.30993
5.45714
5.38977
2.39833
2.21661
3.24264
4.36298
1.77234
2.75369
3.84478
5.90562
7.88269
6.90743
0.610438
0.564654
0.326317
0.941212
1.38976
1.17766
0.754082
0.250633
0.23912
0.226843
0.515814
0.6438
0.414779
0.509837
0.223537
0.248573
0.222447
0.5711
0.507503
0.399918
0.449995
2.86194
2.73124
1.27738
2.06532
3.38294
1.84238
3.20474
0.251795
0.561124
0.768239
1.23897
0.935601
0.584468
0.384481
1.04124
1.15997
0.293951
0.296134
0.227088
0.225873
0.221147
0.215127
0.288364
0.461737
0.444081
0.450355
0.284103
0.434872
0.287209
0.22697
0.230866
0.22988
0.225345
0.228412
0.227885
0.226328
2.42936
2.34386
1.00069
1.01118
2.27886
0.976319
2.34883
0.222127
0.224106
0.223761
0.221264
0.222819
0.220898
0.223361
0.231184
0.207509
0.214032
0.217045
0.211381
0.226648
0.231402
0.28613
0.491418
0.467766
0.475318
0.284848
0.460487
0.296354
1.08266
2.63024
2.52195
2.51402
1.10588
1.04534
2.42142
0.221456
0.204372
0.208047
0.199501
0.200859
0.219397
0.223258
0.205637
0.29835
0.204851
0.268874
0.220996
0.185924
0.215908
0.219048
0.192004
0.22141
0.210808
0.19147
0.21095
0.194275
0.202786
0.190947
0.281158
0.232283
0.194751
0.218315
0.204567
0.377288
0.311258
0.243305
0.190543
0.248385
0.682159
0.504672
1.18043
0.571485
0.924556
0.396975
22.38
63.6077
143.726
24.9605
34.5102
38.4545
76.5669
41.3078
44.6643
21.8294
89.6114
162.144
104.946
8.46707
1.01356
57.1555
82.8266
96.6902
11.3269
94.4889
90.7629
0.0184348
2.905e-07
59.414
67.4727
158.252
25.5609
27.6058
0.0419714
17.4131
27.0371
30.4159
15.8873
23.7052
68.8587
42.6511
38.2699
149.787
96.9284
94.4298
51.9817
51.7581
97.6449
91.4866
97.2323
97.653
94.4814
94.8343
31.7978
25.9833
25.924
16.4366
6.11344e-07
97.3024
0.0395075
0.0213803
0.0301751
3.77787e-13
7.54411e-07
5.81138
8.8083
10.1999
8.61805
4.72769
12.8225
8.78124
19.236
28.1322
81.082
53.5105
83.992
1.50802
3.85375
12.6322
18.6958
42.6821
0.273684
2.50631
16.5137
9.72159
25.5968
122.549
0.482301
2.52667
39.1642
7.79094
19.0769
72.8845
4.42732
7.1743
22.8084
68.8548
3.33394
8.24801
10.2281
0.429232
1.62168
6.9876
11.2243
7.02397
11.2066
16.7639
2.98513
6.50411
13.6321
30.5852
20.6203
44.6145
16.5795
11.0719
19.4917
32.3367
25.3247
68.5447
100.116
0.907707
5.67293
10.0084
0.281516
0.848817
4.02735
6.60284
6.78143
12.4743
33.6834
2.2327
5.58459
8.22533
25.4152
55.0805
14.1307
45.4528
18.9677
7.3552
13.2598
82.0136
17.7359
54.7308
71.2692
1.92123
4.31651
7.01065
2.1608
4.00105
7.41619
14.2854
7.47787
8.77818
28.9032
5.06008
29.7898
20.6667
82.6177
51.8542
82.5685
89.7525
14.1631
15.4262
33.2898
59.0057
47.059
88.2938
92.3318
5.49285
10.2248
23.1623
25.7641
49.2433
48.4735
73.732
83.1229
36.2118
90.628
76.6145
85.2631
81.7913
13.7232
51.1444
59.3981
78.8484
93.039
85.8383
0.0100699
13.6878
12.0389
13.2903
21.6227
19.4119
22.9612
47.3999
11.8028
8.16911
9.8471
36.4413
21.6556
30.8984
92.748
98.0764
9.13134
9.06428
10.7108
26.9554
23.4074
33.6006
77.8739
78.7563
83.3652
28.6259
35.969
45.0618
81.748
79.2409
86.1542
5.49737
5.81631
8.82405
7.6895
4.9139
8.46376
6.14812
6.11599
6.93021
9.47119
10.3988
6.83949
9.34364
6.5216
5.68665
7.63063
3.95373
8.16782
4.79133
8.64071
4.99795
6.48666
11.1571
6.89542
9.50548
7.33186
9.75864
5.9246
8.76817
7.53588
12.5077
11.6929
7.71472
13.3309
8.35525
10.0109
10.773
14.2653
18.3778
11.554
15.4582
9.40883
9.61801
13.0029
8.06498
17.0952
8.355
15.422
9.58259
11.2195
23.1825
15.8493
22.2313
13.3968
18.6604
11.8747
12.7279
22.7903
13.735
30.3734
23.608
16.8709
14.9704
16.8211
14.8523
11.6904
13.051
13.2953
18.0992
15.6604
15.3077
25.8621
35.5448
28.0166
22.0737
34.2259
27.6418
47.7306
47.8535
35.5986
66.5698
2.95092
2.86375
6.81182
4.50334
3.74834
2.22651
5.3864
3.64998
5.56592
8.19826
7.84418
4.62712
4.40315
6.45158
2.74852
4.01465
2.29713
4.67523
2.11539
4.73476
2.83317
3.32463
6.7462
4.00101
5.48418
3.98963
5.59244
3.36278
6.76179
6.7307
16.1189
9.79346
8.34376
5.35599
12.8166
9.4262
16.7294
22.1743
28.7895
11.0164
15.1994
18.3679
6.15134
8.41584
4.83553
10.8425
4.85476
11.0821
6.10389
8.63573
25.6019
13.806
15.7142
13.8986
16.0313
8.5859
49.0864
28.8161
49.5967
26.68
81.6479
44.8374
44.9696
24.3495
68.5427
24.3285
70.3758
45.2904
14.7026
15.915
12.2579
7.36463
8.6269
8.70335
13.5313
10.4518
10.6126
54.248
68.0888
45.5862
18.1814
24.9016
25.7182
56.304
36.5213
37.7675
74.5449
76.0178
78.2201
3.58947
2.68026
4.95059
4.93051
3.11829
3.12946
5.66663
4.17541
4.30827
5.80424
8.15689
3.6443
4.93799
6.69347
4.24918
5.89586
4.51403
8.76829
3.7109
6.8502
5.20919
4.95945
10.2188
7.86145
10.8349
5.93229
8.20363
6.20681
7.97513
5.19949
11.7328
10.396
6.62743
6.02354
14.4186
12.0946
15.5033
17.3178
39.2596
9.50323
20.6498
22.4352
10.8893
13.681
11.0515
33.2412
7.5576
20.3768
17.521
17.8863
59.9823
56.0541
58.024
32.2322
33.9161
30.5015
65.8229
28.0016
71.8428
65.7993
38.4425
78.8196
81.1812
81.2137
83.0792
93.0045
59.2604
86.775
89.7318
11.1062
17.0899
13.1946
11.3534
19.0502
13.654
22.9951
24.6476
17.2355
39.9227
69.4614
49.8677
31.9535
66.9484
46.3579
80.8235
82.2022
66.9192
86.1662
95.4855
89.9446
11.5597
5.87552
12.5371
16.0416
7.06929
9.12
20.6781
15.7142
12.5182
16.3104
43.0405
9.02885
23.1572
28.6967
21.765
29.1344
32.4773
56.6995
16.5574
38.6586
41.6572
30.6752
66.881
65.4904
65.1515
45.427
52.0586
53.5686
60.7215
19.1157
59.9614
64.2013
32.1323
37.0231
81.1937
82.8681
83.3414
82.7815
94.0711
56.7998
90.8174
89.1144
79.7186
77.6744
75.5237
88.7806
65.103
85.7816
84.0365
88.0115
96.7227
95.8489
94.4559
93.4889
92.0063
90.7796
37.6166
70.297
57.2987
53.338
65.0512
60.9991
75.5587
71.7088
68.2298
88.3199
96.456
91.9179
82.7375
92.1948
89.3052
18.9286
7.99599
94.8661
0.298328
0.459263
0.404682
0.687413
0.854388
1.02238
1.24326
0.719621
1.00293
0.643761
1.22352
1.70431
2.26401
1.73773
2.20464
6.66062
2.28818
2.68396
9.59227
3.59354
8.94745
0.327432
0.427796
0.796838
0.686294
1.04516
0.56081
1.25538
3.00534
3.15737
1.74209
2.33189
3.55725
2.67326
3.7395
1.22143
2.06827
3.04741
2.41701
3.46829
3.79088
2.60973
0.79825
1.64338
1.66059
2.78944
1.43214
1.97558
2.38648
0.916966
1.13963
1.66001
2.11329
0.896093
1.63737
1.36657
1.61461
1.64895
1.45003
1.05028
2.40562
2.28817
1.82053
1.55018
1.87823
1.33031
1.78141
2.14026
2.35375
2.69827
2.11268
3.55899
3.12628
4.31581
2.59133
3.66937
3.96038
4.32394
3.51818
3.76162
2.19757
5.02712
3.0962
3.23014
2.61133
1.40131
2.71578
2.36452
2.1454
1.84997
3.24574
1.49731
2.24518
2.9696
2.69477
2.6125
1.92822
3.51746
5.59644
3.22461
3.9805
4.43106
4.0607
4.60324
5.64748
4.03822
2.12326
3.00855
3.12053
2.93516
3.04461
4.07755
1.77161
2.26539
2.78781
3.14335
3.82038
2.57568
3.16512
5.11841
4.24432
4.71327
3.14773
3.8085
4.31824
5.23324
76.9219
39.1701
168.276
193.995
94.5162
152.543
66.6155
78.299
167.749
81.5001
65.9701
81.0363
84.6343
37.2016
117.43
115.23
115.409
64.8932
66.5863
65.2855
193.231
193.866
147.782
80.9899
132.959
137.155
92.5939
93.1662
89.871
92.8391
69.8661
78.8581
73.9677
75.3892
75.4763
77.1442
68.126
168.06
93.9935
95.721
81.3525
78.8969
79.6545
78.1069
76.3303
77.6037
86.457
71.1896
82.1653
83.3444
81.5285
59.5322
86.9785
26.9774
19.3188
85.7765
5.21508
13.3643
7.41856
17.5808
7.58602
31.726
6.31524
63.8356
11.2055
16.8122
81.9825
65.6955
71.1891
25.7835
4.19346
48.7762
22.9939
32.5436
19.6367
31.9618
3.01624
2.52654
3.37536
4.09297
3.07455
3.45543
4.5843
3.06351
3.82964
4.34435
4.72469
3.32249
3.74546
5.38127
6.04782
3.91865
4.98714
2.85014
3.4503
4.34745
3.62519
5.33771
3.34988
3.4593
3.05836
4.48304
4.00475
4.09162
3.27512
3.02443
3.20871
5.28394
2.39913
4.03922
4.25064
7.12864
9.25415
6.26718
6.8946
5.06898
6.08343
4.42831
3.05177
6.00436
4.01573
7.409
3.63232
4.77713
5.2956
8.67962
7.15175
9.93492
6.90536
5.29783
5.10526
7.35553
9.83835
6.02204
5.96506
4.86924
6.8084
4.29816
8.9387
4.8445
2.95433
3.91672
4.69177
3.54748
4.02257
5.38581
6.92026
7.42413
6.06795
5.63378
5.82346
4.87197
4.80748
6.98118
10.2705
7.62864
6.70351
5.356
7.33147
5.58148
5.86913
5.9408
8.69155
5.6547
4.16624
4.23002
5.67871
5.5587
5.691
7.44662
6.12455
4.78376
4.62715
5.96717
8.21882
5.34524
4.3588
6.42916
5.15396
4.38244
6.46595
5.58684
5.5391
4.06857
8.27853
4.02819
8.27996
5.54681
6.06455
6.41487
5.36834
7.79466
8.44437
6.51365
6.9637
6.04454
8.1317
6.34291
10.0914
8.10201
11.9928
8.97493
5.72373
6.67867
4.95983
12.0591
8.46813
10.8792
7.50705
4.84643
6.44912
7.3548
4.71422
10.2335
7.14795
10.4727
2.22045e-16
2.22045e-16
2.22045e-16
1.15446
5.35759e-09
5.31443e-13
2.22045e-16
2.22045e-16
2.22045e-16
2.22045e-16
2.22045e-16
2.22045e-16
0.0090381
0.450103
0.000163204
5.18966e-09
1.79916e-10
2.22045e-16
2.22045e-16
2.22045e-16
2.22045e-16
2.22045e-16
3.05363
8.27625e-11
2.22045e-16
3.89175e-15
2.22045e-16
2.22045e-16
6.24521e-05
6.72116e-08
4.69618e-11
1.35442e-11
2.22045e-16
2.22045e-16
2.22045e-16
2.22045e-16
2.22045e-16
2.22045e-16
2.22045e-16
2.22045e-16
2.22045e-16
5.44161e-12
7.93771e-08
2.22045e-16
2.43711e-11
1.54043e-14
6.24616e-07
4.9739e-10
1.63574e-05
0.000628844
0.0890017
1.39035e-08
2.22045e-16
1.36701e-14
2.22045e-16
4.4039e-16
2.92048e-07
1.62125e-11
4.51674e-13
39.8677
78.0517
62.31
44.5762
81.9134
0.355252
0.0317151
5.74169e-05
7.9047e-05
6.28269e-10
60.791
54.9779
70.1765
57.7724
66.6601
8.17283
0.787031
81.7491
84.9811
4.38043
81.7994
0.256214
0.69466
0.000129581
1.46794e-09
1.56942
0.0493151
0.0506071
6.03122e-05
0.000160554
1.90108e-06
4.18909e-10
0.00150975
1.86287e-10
0.000105821
2.79831e-09
7.98502e-05
4.41064e-10
10.2568
68.236
65.4573
71.9187
71.201
0.513299
74.992
5.03832
6.18667
50.5933
61.4964
0.0040904
2.22045e-16
2.22045e-16
2.22045e-16
2.22045e-16
2.22045e-16
2.22045e-16
2.22045e-16
2.22045e-16
2.22045e-16
2.22045e-16
2.22045e-16
2.22045e-16
2.22045e-16
2.22045e-16
2.22045e-16
2.22045e-16
2.22045e-16
2.22045e-16
2.22045e-16
2.22045e-16
2.22045e-16
2.22045e-16
2.22045e-16
2.22045e-16
2.22045e-16
2.22045e-16
2.22045e-16
2.22045e-16
2.22045e-16
2.22045e-16
2.22045e-16
2.22045e-16
2.22045e-16
2.22045e-16
2.22045e-16
2.22045e-16
2.22045e-16
2.22045e-16
2.22045e-16
2.22045e-16
2.22045e-16
2.22045e-16
2.22045e-16
2.22045e-16
2.22045e-16
2.22045e-16
2.22045e-16
2.22045e-16
2.22045e-16
2.22045e-16
2.22045e-16
2.22045e-16
2.22045e-16
2.22045e-16
2.22045e-16
2.22045e-16
2.22045e-16
2.22045e-16
2.22045e-16
2.22045e-16
2.22045e-16
2.22045e-16
2.22045e-16
2.22045e-16
2.22045e-16
2.22045e-16
2.22045e-16
2.22045e-16
2.22045e-16
2.22045e-16
2.22045e-16
2.22045e-16
2.22045e-16
2.22045e-16
2.22045e-16
2.22045e-16
2.22045e-16
2.22045e-16
2.22045e-16
2.22045e-16
2.22045e-16
2.22045e-16
2.22045e-16
2.22045e-16
2.22045e-16
2.22045e-16
2.22045e-16
2.22045e-16
2.22045e-16
2.22045e-16
2.22045e-16
2.22045e-16
2.22045e-16
2.22045e-16
2.22045e-16
2.22045e-16
2.22045e-16
2.22045e-16
2.22045e-16
2.22045e-16
2.22045e-16
2.22045e-16
2.22045e-16
2.22045e-16
2.22045e-16
2.22045e-16
2.22045e-16
2.22045e-16
2.22045e-16
2.22045e-16
2.22045e-16
2.22045e-16
2.22045e-16
2.22045e-16
2.22045e-16
2.22045e-16
2.22045e-16
2.22045e-16
2.22045e-16
2.22045e-16
2.22045e-16
2.22045e-16
2.22045e-16
2.22045e-16
2.22045e-16
2.22045e-16
2.22045e-16
2.22045e-16
2.22045e-16
2.22045e-16
2.22045e-16
2.22045e-16
2.22045e-16
2.22045e-16
2.22045e-16
2.22045e-16
2.22045e-16
2.22045e-16
2.22045e-16
2.22045e-16
2.22045e-16
2.22045e-16
2.22045e-16
2.22045e-16
2.22045e-16
2.22045e-16
2.22045e-16
2.22045e-16
2.22045e-16
2.22045e-16
2.22045e-16
2.22045e-16
2.22045e-16
2.22045e-16
2.22045e-16
2.22045e-16
2.22045e-16
2.22045e-16
2.22045e-16
2.22045e-16
2.22045e-16
2.22045e-16
2.22045e-16
2.22045e-16
2.22045e-16
2.22045e-16
2.22045e-16
2.22045e-16
2.22045e-16
2.22045e-16
2.22045e-16
2.22045e-16
2.22045e-16
2.22045e-16
2.22045e-16
2.22045e-16
2.22045e-16
2.22045e-16
2.22045e-16
2.22045e-16
2.22045e-16
2.22045e-16
2.22045e-16
2.22045e-16
2.22045e-16
2.22045e-16
2.22045e-16
2.22045e-16
2.22045e-16
2.22045e-16
2.22045e-16
2.22045e-16
2.22045e-16
2.22045e-16
2.22045e-16
2.22045e-16
2.22045e-16
2.22045e-16
2.22045e-16
2.22045e-16
2.22045e-16
2.22045e-16
2.22045e-16
2.22045e-16
2.22045e-16
2.22045e-16
2.22045e-16
2.22045e-16
2.22045e-16
2.22045e-16
2.22045e-16
2.22045e-16
2.22045e-16
2.22045e-16
2.22045e-16
2.22045e-16
2.22045e-16
2.22045e-16
2.22045e-16
2.22045e-16
2.22045e-16
2.22045e-16
2.22045e-16
2.22045e-16
2.22045e-16
2.22045e-16
2.22045e-16
2.22045e-16
2.22045e-16
2.22045e-16
2.22045e-16
2.22045e-16
2.22045e-16
2.22045e-16
2.22045e-16
2.22045e-16
2.22045e-16
2.22045e-16
2.22045e-16
2.22045e-16
2.22045e-16
2.22045e-16
2.22045e-16
2.22045e-16
2.22045e-16
2.22045e-16
2.22045e-16
2.22045e-16
2.22045e-16
2.22045e-16
2.22045e-16
2.22045e-16
2.22045e-16
2.22045e-16
2.22045e-16
2.22045e-16
2.22045e-16
2.22045e-16
2.22045e-16
2.22045e-16
2.22045e-16
2.22045e-16
2.22045e-16
2.22045e-16
2.22045e-16
2.22045e-16
2.22045e-16
2.22045e-16
2.22045e-16
2.22045e-16
2.22045e-16
2.22045e-16
2.22045e-16
2.22045e-16
2.22045e-16
2.22045e-16
2.22045e-16
2.22045e-16
2.22045e-16
2.22045e-16
2.22045e-16
2.22045e-16
2.22045e-16
2.22045e-16
2.22045e-16
2.22045e-16
2.22045e-16
2.22045e-16
2.22045e-16
2.22045e-16
2.22045e-16
2.22045e-16
2.22045e-16
2.22045e-16
2.22045e-16
2.22045e-16
2.22045e-16
2.22045e-16
2.22045e-16
2.22045e-16
2.22045e-16
2.22045e-16
2.22045e-16
2.22045e-16
2.22045e-16
2.22045e-16
2.22045e-16
2.22045e-16
2.22045e-16
2.22045e-16
2.22045e-16
2.22045e-16
2.22045e-16
2.22045e-16
2.22045e-16
2.22045e-16
2.22045e-16
2.22045e-16
2.22045e-16
2.22045e-16
2.22045e-16
2.22045e-16
2.22045e-16
2.22045e-16
2.22045e-16
2.22045e-16
2.22045e-16
2.22045e-16
2.22045e-16
2.22045e-16
2.22045e-16
2.22045e-16
2.22045e-16
2.22045e-16
2.22045e-16
2.22045e-16
2.22045e-16
2.22045e-16
2.22045e-16
2.22045e-16
2.22045e-16
2.22045e-16
2.22045e-16
2.22045e-16
2.22045e-16
2.22045e-16
2.22045e-16
2.22045e-16
2.22045e-16
2.22045e-16
2.22045e-16
2.22045e-16
2.22045e-16
2.22045e-16
2.22045e-16
2.22045e-16
2.22045e-16
2.22045e-16
2.22045e-16
2.22045e-16
2.22045e-16
2.22045e-16
2.22045e-16
2.22045e-16
2.22045e-16
2.22045e-16
2.22045e-16
2.22045e-16
2.22045e-16
2.22045e-16
2.22045e-16
2.22045e-16
2.22045e-16
2.22045e-16
2.22045e-16
2.22045e-16
2.22045e-16
2.22045e-16
2.22045e-16
2.22045e-16
2.22045e-16
2.22045e-16
2.22045e-16
2.22045e-16
2.22045e-16
2.22045e-16
2.22045e-16
2.22045e-16
2.22045e-16
2.22045e-16
2.22045e-16
2.22045e-16
2.22045e-16
2.22045e-16
2.22045e-16
2.22045e-16
2.22045e-16
2.22045e-16
2.22045e-16
2.22045e-16
2.22045e-16
2.22045e-16
2.22045e-16
2.22045e-16
2.22045e-16
2.22045e-16
2.22045e-16
2.22045e-16
2.22045e-16
2.22045e-16
2.22045e-16
2.22045e-16
2.22045e-16
2.22045e-16
2.22045e-16
2.22045e-16
2.22045e-16
2.22045e-16
2.22045e-16
2.22045e-16
2.22045e-16
2.22045e-16
2.22045e-16
2.22045e-16
2.22045e-16
2.22045e-16
2.22045e-16
2.22045e-16
2.22045e-16
2.22045e-16
2.22045e-16
2.22045e-16
2.22045e-16
2.22045e-16
2.22045e-16
2.22045e-16
2.22045e-16
2.22045e-16
2.22045e-16
2.22045e-16
2.22045e-16
2.22045e-16
2.22045e-16
2.22045e-16
2.22045e-16
2.22045e-16
2.22045e-16
2.22045e-16
2.22045e-16
2.22045e-16
2.22045e-16
2.22045e-16
2.22045e-16
2.22045e-16
2.22045e-16
2.22045e-16
2.22045e-16
2.22045e-16
2.22045e-16
2.22045e-16
2.22045e-16
2.22045e-16
2.22045e-16
2.22045e-16
2.22045e-16
2.22045e-16
2.22045e-16
2.22045e-16
2.22045e-16
2.22045e-16
2.22045e-16
2.22045e-16
2.22045e-16
2.22045e-16
2.22045e-16
2.22045e-16
2.22045e-16
2.22045e-16
2.22045e-16
2.22045e-16
2.22045e-16
2.22045e-16
2.22045e-16
2.22045e-16
2.22045e-16
2.22045e-16
2.22045e-16
2.22045e-16
2.22045e-16
2.22045e-16
2.22045e-16
2.22045e-16
2.22045e-16
2.22045e-16
2.22045e-16
2.22045e-16
2.22045e-16
2.22045e-16
2.22045e-16
2.22045e-16
2.22045e-16
2.22045e-16
2.22045e-16
2.22045e-16
2.22045e-16
2.22045e-16
2.22045e-16
2.22045e-16
2.22045e-16
2.22045e-16
2.22045e-16
2.22045e-16
2.22045e-16
2.22045e-16
2.22045e-16
2.22045e-16
2.22045e-16
2.22045e-16
2.22045e-16
2.22045e-16
2.22045e-16
2.22045e-16
2.22045e-16
2.22045e-16
2.22045e-16
2.22045e-16
2.22045e-16
2.22045e-16
2.22045e-16
2.22045e-16
2.22045e-16
2.22045e-16
2.22045e-16
2.22045e-16
2.22045e-16
2.22045e-16
2.22045e-16
2.22045e-16
2.22045e-16
2.22045e-16
2.22045e-16
2.22045e-16
2.22045e-16
2.22045e-16
2.22045e-16
2.22045e-16
2.22045e-16
2.22045e-16
2.22045e-16
2.22045e-16
2.22045e-16
2.22045e-16
2.22045e-16
2.22045e-16
2.22045e-16
2.22045e-16
2.22045e-16
2.22045e-16
2.22045e-16
2.22045e-16
2.22045e-16
2.22045e-16
2.22045e-16
2.22045e-16
2.22045e-16
2.22045e-16
2.22045e-16
2.22045e-16
2.22045e-16
2.22045e-16
2.22045e-16
2.22045e-16
2.22045e-16
2.22045e-16
2.22045e-16
2.22045e-16
2.22045e-16
2.22045e-16
2.22045e-16
2.22045e-16
2.22045e-16
2.22045e-16
2.22045e-16
2.22045e-16
2.22045e-16
2.22045e-16
2.22045e-16
2.22045e-16
2.22045e-16
2.22045e-16
2.22045e-16
2.22045e-16
2.22045e-16
2.22045e-16
2.22045e-16
2.22045e-16
2.22045e-16
2.22045e-16
2.22045e-16
2.22045e-16
2.22045e-16
2.22045e-16
2.22045e-16
2.22045e-16
2.22045e-16
2.22045e-16
2.22045e-16
2.22045e-16
2.22045e-16
2.22045e-16
2.22045e-16
2.22045e-16
2.22045e-16
2.22045e-16
2.22045e-16
2.22045e-16
2.22045e-16
2.22045e-16
2.22045e-16
2.22045e-16
2.22045e-16
2.22045e-16
2.22045e-16
2.22045e-16
2.22045e-16
2.22045e-16
2.22045e-16
2.22045e-16
2.22045e-16
2.22045e-16
2.22045e-16
2.22045e-16
2.22045e-16
2.22045e-16
2.22045e-16
2.22045e-16
2.22045e-16
2.22045e-16
2.22045e-16
2.22045e-16
2.22045e-16
2.22045e-16
2.22045e-16
2.22045e-16
2.22045e-16
2.22045e-16
2.22045e-16
2.22045e-16
2.22045e-16
2.22045e-16
2.22045e-16
2.22045e-16
2.22045e-16
2.22045e-16
2.22045e-16
2.22045e-16
2.22045e-16
2.22045e-16
2.22045e-16
2.22045e-16
2.22045e-16
2.22045e-16
2.22045e-16
2.22045e-16
2.22045e-16
2.22045e-16
2.22045e-16
2.22045e-16
2.22045e-16
2.22045e-16
2.22045e-16
2.22045e-16
2.22045e-16
2.22045e-16
2.22045e-16
2.22045e-16
2.22045e-16
2.22045e-16
2.22045e-16
2.22045e-16
2.22045e-16
2.22045e-16
2.22045e-16
2.22045e-16
2.22045e-16
2.22045e-16
2.22045e-16
2.22045e-16
2.22045e-16
2.22045e-16
2.22045e-16
2.22045e-16
2.22045e-16
2.22045e-16
2.22045e-16
2.22045e-16
2.22045e-16
2.22045e-16
2.22045e-16
2.22045e-16
2.22045e-16
2.22045e-16
2.22045e-16
2.22045e-16
2.22045e-16
2.22045e-16
2.22045e-16
2.22045e-16
2.22045e-16
2.22045e-16
2.22045e-16
2.22045e-16
2.22045e-16
2.22045e-16
2.22045e-16
2.22045e-16
2.22045e-16
2.22045e-16
2.22045e-16
2.22045e-16
2.22045e-16
2.22045e-16
2.22045e-16
2.22045e-16
2.22045e-16
2.22045e-16
2.22045e-16
2.22045e-16
2.22045e-16
2.22045e-16
2.22045e-16
2.22045e-16
2.22045e-16
2.22045e-16
2.22045e-16
2.22045e-16
2.22045e-16
2.22045e-16
2.22045e-16
2.22045e-16
2.22045e-16
2.22045e-16
2.22045e-16
2.22045e-16
2.22045e-16
2.22045e-16
2.22045e-16
2.22045e-16
2.22045e-16
2.22045e-16
2.22045e-16
2.22045e-16
2.22045e-16
2.22045e-16
2.22045e-16
2.22045e-16
2.22045e-16
2.22045e-16
2.22045e-16
2.22045e-16
2.22045e-16
2.22045e-16
2.22045e-16
2.22045e-16
2.22045e-16
2.22045e-16
2.22045e-16
2.22045e-16
2.22045e-16
2.22045e-16
2.22045e-16
2.22045e-16
2.22045e-16
2.22045e-16
2.22045e-16
2.22045e-16
2.22045e-16
2.22045e-16
2.22045e-16
2.22045e-16
2.22045e-16
2.22045e-16
2.22045e-16
2.22045e-16
2.22045e-16
2.22045e-16
2.22045e-16
2.22045e-16
2.22045e-16
2.22045e-16
2.22045e-16
2.22045e-16
2.22045e-16
2.22045e-16
2.22045e-16
2.22045e-16
2.22045e-16
2.22045e-16
2.22045e-16
2.22045e-16
2.22045e-16
2.22045e-16
2.22045e-16
2.22045e-16
2.22045e-16
2.22045e-16
2.22045e-16
2.22045e-16
2.22045e-16
2.22045e-16
2.22045e-16
2.22045e-16
2.22045e-16
2.22045e-16
2.22045e-16
2.22045e-16
2.22045e-16
2.22045e-16
2.22045e-16
2.22045e-16
2.22045e-16
2.22045e-16
2.22045e-16
2.22045e-16
2.22045e-16
2.22045e-16
2.22045e-16
2.22045e-16
2.22045e-16
2.22045e-16
2.22045e-16
2.22045e-16
2.22045e-16
2.22045e-16
2.22045e-16
2.22045e-16
2.22045e-16
2.22045e-16
2.22045e-16
2.22045e-16
2.22045e-16
2.22045e-16
2.22045e-16
2.22045e-16
2.22045e-16
2.22045e-16
2.22045e-16
2.22045e-16
2.22045e-16
2.22045e-16
2.22045e-16
2.22045e-16
2.22045e-16
2.22045e-16
2.22045e-16
2.22045e-16
2.22045e-16
2.22045e-16
2.22045e-16
2.22045e-16
2.22045e-16
2.22045e-16
2.22045e-16
2.22045e-16
2.22045e-16
2.22045e-16
2.22045e-16
2.22045e-16
2.22045e-16
2.22045e-16
2.22045e-16
2.22045e-16
2.22045e-16
2.22045e-16
2.22045e-16
2.22045e-16
2.22045e-16
2.22045e-16
2.22045e-16
2.22045e-16
2.22045e-16
2.22045e-16
2.22045e-16
2.22045e-16
2.22045e-16
2.22045e-16
2.22045e-16
2.22045e-16
2.22045e-16
2.22045e-16
2.22045e-16
2.22045e-16
2.22045e-16
2.22045e-16
2.22045e-16
2.22045e-16
2.22045e-16
2.22045e-16
2.22045e-16
2.22045e-16
2.22045e-16
2.22045e-16
2.22045e-16
2.22045e-16
2.22045e-16
2.22045e-16
2.22045e-16
2.22045e-16
2.22045e-16
2.22045e-16
2.22045e-16
2.22045e-16
2.22045e-16
2.22045e-16
2.22045e-16
2.22045e-16
2.22045e-16
2.22045e-16
2.22045e-16
2.22045e-16
2.22045e-16
2.22045e-16
2.22045e-16
2.22045e-16
2.22045e-16
2.22045e-16
2.22045e-16
2.22045e-16
2.22045e-16
2.22045e-16
2.22045e-16
2.22045e-16
2.22045e-16
2.22045e-16
2.22045e-16
2.22045e-16
2.22045e-16
2.22045e-16
2.22045e-16
2.22045e-16
2.22045e-16
2.22045e-16
2.22045e-16
2.22045e-16
2.22045e-16
2.22045e-16
2.22045e-16
2.22045e-16
2.22045e-16
2.22045e-16
2.22045e-16
2.22045e-16
2.22045e-16
2.22045e-16
2.22045e-16
2.22045e-16
2.22045e-16
2.22045e-16
2.22045e-16
2.22045e-16
2.22045e-16
2.22045e-16
2.22045e-16
2.22045e-16
2.22045e-16
2.22045e-16
2.22045e-16
2.22045e-16
2.22045e-16
2.22045e-16
2.22045e-16
2.22045e-16
2.22045e-16
2.22045e-16
2.22045e-16
2.22045e-16
2.22045e-16
2.22045e-16
2.22045e-16
2.22045e-16
2.22045e-16
2.22045e-16
2.22045e-16
2.22045e-16
2.22045e-16
2.22045e-16
2.22045e-16
2.22045e-16
2.22045e-16
2.22045e-16
2.22045e-16
2.22045e-16
2.22045e-16
2.22045e-16
2.22045e-16
2.22045e-16
2.22045e-16
2.22045e-16
2.22045e-16
2.22045e-16
2.22045e-16
2.22045e-16
2.22045e-16
2.22045e-16
2.22045e-16
2.22045e-16
2.22045e-16
2.22045e-16
2.22045e-16
2.22045e-16
2.22045e-16
2.22045e-16
2.22045e-16
2.22045e-16
2.22045e-16
2.22045e-16
2.22045e-16
2.22045e-16
2.22045e-16
2.22045e-16
2.22045e-16
2.22045e-16
2.22045e-16
2.22045e-16
2.22045e-16
2.22045e-16
2.22045e-16
2.22045e-16
2.22045e-16
2.22045e-16
2.22045e-16
2.22045e-16
2.22045e-16
2.22045e-16
2.22045e-16
2.22045e-16
2.22045e-16
2.22045e-16
2.22045e-16
2.22045e-16
2.22045e-16
2.22045e-16
2.22045e-16
2.22045e-16
2.22045e-16
2.22045e-16
2.22045e-16
2.22045e-16
2.22045e-16
2.22045e-16
2.22045e-16
2.22045e-16
2.22045e-16
2.22045e-16
2.22045e-16
2.22045e-16
2.22045e-16
2.22045e-16
2.22045e-16
2.22045e-16
2.22045e-16
2.22045e-16
2.22045e-16
2.22045e-16
2.22045e-16
2.22045e-16
2.22045e-16
2.22045e-16
2.22045e-16
2.22045e-16
2.22045e-16
2.22045e-16
2.22045e-16
2.22045e-16
2.22045e-16
2.22045e-16
2.22045e-16
2.22045e-16
2.22045e-16
2.22045e-16
2.22045e-16
2.22045e-16
2.22045e-16
2.22045e-16
2.22045e-16
2.22045e-16
2.22045e-16
2.22045e-16
2.22045e-16
2.22045e-16
2.22045e-16
2.22045e-16
2.22045e-16
2.22045e-16
2.22045e-16
2.22045e-16
2.22045e-16
2.22045e-16
2.22045e-16
2.22045e-16
2.22045e-16
2.22045e-16
2.22045e-16
2.22045e-16
2.22045e-16
2.22045e-16
2.22045e-16
2.22045e-16
2.22045e-16
2.22045e-16
2.22045e-16
2.22045e-16
2.22045e-16
2.22045e-16
2.22045e-16
2.22045e-16
2.22045e-16
2.22045e-16
2.22045e-16
2.22045e-16
2.22045e-16
2.22045e-16
2.22045e-16
2.22045e-16
2.22045e-16
2.22045e-16
2.22045e-16
2.22045e-16
2.22045e-16
2.22045e-16
2.22045e-16
2.22045e-16
2.22045e-16
2.22045e-16
2.22045e-16
2.22045e-16
2.22045e-16
2.22045e-16
2.22045e-16
2.22045e-16
2.22045e-16
2.22045e-16
2.22045e-16
2.22045e-16
2.22045e-16
2.22045e-16
2.22045e-16
2.22045e-16
2.22045e-16
2.22045e-16
2.22045e-16
2.22045e-16
2.22045e-16
2.22045e-16
2.22045e-16
2.22045e-16
2.22045e-16
2.22045e-16
2.22045e-16
2.22045e-16
2.22045e-16
2.22045e-16
2.22045e-16
2.22045e-16
2.22045e-16
2.22045e-16
2.22045e-16
2.22045e-16
2.22045e-16
2.22045e-16
2.22045e-16
2.22045e-16
2.22045e-16
2.22045e-16
2.22045e-16
2.22045e-16
2.22045e-16
2.22045e-16
2.22045e-16
2.22045e-16
2.22045e-16
2.22045e-16
2.22045e-16
2.22045e-16
2.22045e-16
2.22045e-16
2.22045e-16
2.22045e-16
2.22045e-16
2.22045e-16
2.22045e-16
2.22045e-16
2.22045e-16
2.22045e-16
2.22045e-16
2.22045e-16
2.22045e-16
2.22045e-16
2.22045e-16
2.22045e-16
2.22045e-16
2.22045e-16
2.22045e-16
2.22045e-16
2.22045e-16
2.22045e-16
2.22045e-16
2.22045e-16
2.22045e-16
2.22045e-16
2.22045e-16
2.22045e-16
2.22045e-16
2.22045e-16
2.22045e-16
2.22045e-16
2.22045e-16
2.22045e-16
2.22045e-16
2.22045e-16
2.22045e-16
2.22045e-16
2.22045e-16
2.22045e-16
2.22045e-16
2.22045e-16
2.22045e-16
2.22045e-16
2.22045e-16
2.22045e-16
2.22045e-16
2.22045e-16
2.22045e-16
2.22045e-16
2.22045e-16
2.22045e-16
2.22045e-16
2.22045e-16
2.22045e-16
2.22045e-16
2.22045e-16
2.22045e-16
2.22045e-16
2.22045e-16
2.22045e-16
2.22045e-16
2.22045e-16
2.22045e-16
2.22045e-16
2.22045e-16
2.22045e-16
2.22045e-16
2.22045e-16
2.22045e-16
2.22045e-16
2.22045e-16
2.22045e-16
2.22045e-16
2.22045e-16
2.22045e-16
2.22045e-16
2.22045e-16
2.22045e-16
2.22045e-16
2.22045e-16
2.22045e-16
2.22045e-16
2.22045e-16
2.22045e-16
2.22045e-16
2.22045e-16
2.22045e-16
2.22045e-16
2.22045e-16
2.22045e-16
2.22045e-16
2.22045e-16
2.22045e-16
2.22045e-16
2.22045e-16
2.22045e-16
2.22045e-16
2.22045e-16
2.22045e-16
2.22045e-16
2.22045e-16
2.22045e-16
2.22045e-16
2.22045e-16
2.22045e-16
2.22045e-16
2.22045e-16
2.22045e-16
2.22045e-16
2.22045e-16
2.22045e-16
2.22045e-16
2.22045e-16
2.22045e-16
2.22045e-16
2.22045e-16
2.22045e-16
2.22045e-16
2.22045e-16
2.22045e-16
2.22045e-16
2.22045e-16
2.22045e-16
2.22045e-16
2.22045e-16
2.22045e-16
2.22045e-16
2.22045e-16
2.22045e-16
2.22045e-16
2.22045e-16
2.22045e-16
2.22045e-16
2.22045e-16
2.22045e-16
2.22045e-16
2.22045e-16
2.22045e-16
2.22045e-16
2.22045e-16
2.22045e-16
2.22045e-16
2.22045e-16
2.22045e-16
2.22045e-16
2.22045e-16
2.22045e-16
2.22045e-16
2.22045e-16
2.22045e-16
2.22045e-16
2.22045e-16
2.22045e-16
2.22045e-16
2.22045e-16
2.22045e-16
2.22045e-16
2.22045e-16
2.22045e-16
2.22045e-16
2.22045e-16
2.22045e-16
2.22045e-16
2.22045e-16
2.22045e-16
2.22045e-16
2.22045e-16
2.22045e-16
2.22045e-16
2.22045e-16
2.22045e-16
2.22045e-16
2.22045e-16
2.22045e-16
2.22045e-16
2.22045e-16
2.22045e-16
2.22045e-16
2.22045e-16
2.22045e-16
2.22045e-16
2.22045e-16
2.22045e-16
2.22045e-16
2.22045e-16
2.22045e-16
2.22045e-16
2.22045e-16
2.22045e-16
2.22045e-16
2.22045e-16
2.22045e-16
2.22045e-16
2.22045e-16
2.22045e-16
2.22045e-16
2.22045e-16
2.22045e-16
2.22045e-16
2.22045e-16
2.22045e-16
2.22045e-16
2.22045e-16
2.22045e-16
2.22045e-16
2.22045e-16
2.22045e-16
2.22045e-16
2.22045e-16
2.22045e-16
2.22045e-16
2.22045e-16
2.22045e-16
2.22045e-16
2.22045e-16
2.22045e-16
2.22045e-16
2.22045e-16
2.22045e-16
2.22045e-16
2.22045e-16
2.22045e-16
2.22045e-16
2.22045e-16
2.22045e-16
2.22045e-16
2.22045e-16
2.22045e-16
2.22045e-16
2.22045e-16
2.22045e-16
2.22045e-16
2.22045e-16
2.22045e-16
2.22045e-16
2.22045e-16
2.22045e-16
2.22045e-16
2.22045e-16
2.22045e-16
2.22045e-16
2.22045e-16
2.22045e-16
2.22045e-16
2.22045e-16
2.22045e-16
2.22045e-16
2.22045e-16
2.22045e-16
2.22045e-16
2.22045e-16
2.22045e-16
2.22045e-16
2.22045e-16
2.22045e-16
2.22045e-16
2.22045e-16
2.22045e-16
2.22045e-16
2.22045e-16
2.22045e-16
2.22045e-16
2.22045e-16
2.22045e-16
2.22045e-16
2.22045e-16
2.22045e-16
2.22045e-16
2.22045e-16
2.22045e-16
2.22045e-16
2.22045e-16
2.22045e-16
2.22045e-16
2.22045e-16
2.22045e-16
2.22045e-16
2.22045e-16
2.22045e-16
2.22045e-16
2.22045e-16
2.22045e-16
2.22045e-16
2.22045e-16
2.22045e-16
2.22045e-16
2.22045e-16
2.22045e-16
2.22045e-16
2.22045e-16
2.22045e-16
2.22045e-16
2.22045e-16
2.22045e-16
2.22045e-16
2.22045e-16
2.22045e-16
2.22045e-16
2.22045e-16
2.22045e-16
2.22045e-16
2.22045e-16
2.22045e-16
2.22045e-16
2.22045e-16
2.22045e-16
2.22045e-16
2.22045e-16
2.22045e-16
2.22045e-16
2.22045e-16
2.22045e-16
2.22045e-16
2.22045e-16
2.22045e-16
2.22045e-16
2.22045e-16
2.22045e-16
2.22045e-16
2.22045e-16
2.22045e-16
2.22045e-16
2.22045e-16
2.22045e-16
2.22045e-16
2.22045e-16
2.22045e-16
2.22045e-16
2.22045e-16
2.22045e-16
2.22045e-16
2.22045e-16
2.22045e-16
2.22045e-16
2.22045e-16
2.22045e-16
2.22045e-16
2.22045e-16
2.22045e-16
2.22045e-16
2.22045e-16
2.22045e-16
2.22045e-16
2.22045e-16
2.22045e-16
2.22045e-16
2.22045e-16
2.22045e-16
2.22045e-16
2.22045e-16
2.22045e-16
2.22045e-16
2.22045e-16
2.22045e-16
2.22045e-16
2.22045e-16
2.22045e-16
2.22045e-16
2.22045e-16
2.22045e-16
2.22045e-16
2.22045e-16
2.22045e-16
2.22045e-16
2.22045e-16
2.22045e-16
2.22045e-16
2.22045e-16
2.22045e-16
2.22045e-16
2.22045e-16
2.22045e-16
2.22045e-16
2.22045e-16
2.22045e-16
2.22045e-16
2.22045e-16
2.22045e-16
2.22045e-16
2.22045e-16
2.22045e-16
2.22045e-16
2.22045e-16
2.22045e-16
2.22045e-16
2.22045e-16
2.22045e-16
2.22045e-16
2.22045e-16
2.22045e-16
2.22045e-16
2.22045e-16
2.22045e-16
2.22045e-16
2.22045e-16
2.22045e-16
2.22045e-16
2.22045e-16
2.22045e-16
2.22045e-16
2.22045e-16
2.22045e-16
2.22045e-16
2.22045e-16
2.22045e-16
2.22045e-16
2.22045e-16
2.22045e-16
2.22045e-16
2.22045e-16
2.22045e-16
2.22045e-16
2.22045e-16
2.22045e-16
2.22045e-16
2.22045e-16
2.22045e-16
2.22045e-16
2.22045e-16
2.22045e-16
2.22045e-16
2.22045e-16
2.22045e-16
2.22045e-16
2.22045e-16
2.22045e-16
2.22045e-16
2.22045e-16
2.22045e-16
2.22045e-16
2.22045e-16
2.22045e-16
2.22045e-16
2.22045e-16
2.22045e-16
2.22045e-16