/*--------------------------------*- C++ -*----------------------------------*\
  =========                 |
  \\      /  F ield         | OpenFOAM: The Open Source CFD Toolbox
   \\    /   O peration     | Website:  https://openfoam.org
    \\  /    A nd           | Version:  9
     \\/     M anipulation  |
\*---------------------------------------------------------------------------*/
FoamFile
{
    format      ascii;
    class       volVectorField;
    location    "0.0009";
    object      rhoU;
}
// * * * * * * * * * * * * * * * * * * * * * * * * * * * * * * * * * * * * * //

dimensions      [1 -2 -1 0 0 0 0];

internalField   nonuniform List<vector> 
8257
(
(246.225 858.577 164.651)
(938.972 530.148 381.732)
(83.1016 254.261 0.834486)
(622.757 -1209.16 1779.7)
(1307.73 1508.23 616.997)
(904.225 241.801 2619.77)
(57.3089 173.075 30.1782)
(557.305 -1076.07 1516.38)
(56.6694 172.983 50.3015)
(408.985 -250.715 619.189)
(878.339 298.927 2413.44)
(786.625 707.39 1085.55)
(60.6591 212.132 112.507)
(442.03 -121.871 729.559)
(834.753 816.132 1284.78)
(242.623 1108.81 670.395)
(725.268 1927.66 48.4965)
(289.93 632.293 349.359)
(789.746 -197.845 1128.65)
(536.784 1115.89 721.362)
(179.726 -95.6194 1072.41)
(368.211 1924.39 12.5738)
(134.7 387.27 779.386)
(686.812 -965.566 1587.99)
(266.571 67.7393 766.229)
(60.4546 -1095.65 1599.4)
(388.014 404.191 896.476)
(82.8491 -869.023 1466.98)
(84.4941 80.8929 643.407)
(296.303 1541.04 588.088)
(1119.32 906.96 1712.08)
(170.27 922.427 1641.19)
(959.242 384.275 2308.8)
(58.6843 222.221 2395.86)
(65.6794 380.744 2165.15)
(72.2218 202.083 289.638)
(201.782 70.9725 543.297)
(72.9833 -975.084 1344.63)
(476.015 -755.56 990.654)
(71.1903 82.9919 452.588)
(161.494 210.997 344.179)
(90.0194 -695.715 871.486)
(68.7805 302.762 251.25)
(412.899 -428.333 640.249)
(91.3905 391.856 309.671)
(129.275 -257.472 563.642)
(125.665 330.666 294.56)
(109.204 -411.952 568.009)
(50.7829 355.251 280.788)
(90.9319 262.569 2173.67)
(818.945 438.344 1709.43)
(136.311 383.736 1516.05)
(766.673 586.312 1132.87)
(240.801 630.146 986.85)
(186.936 517.937 1012.79)
(73.9489 470.33 401.04)
(95.6217 437.258 347.683)
(171.425 -142.953 666.887)
(488.847 30.1986 912.384)
(39.7722 416.319 311.652)
(152.123 468.63 433.416)
(228.194 -0.468497 848.657)
(311.162 737.674 1175.94)
(933.301 1028.44 1668.16)
(409.874 930.682 1531.06)
(130.303 415.245 47.0666)
(87.4477 391.675 39.6194)
(55.8499 238.308 -0.599554)
(151.275 493.06 93.9141)
(216.074 733.744 212.416)
(132.957 646.5 171.471)
(92.4717 411.292 68.7252)
(60.6572 182.914 12.0953)
(41.7828 176.38 11.1232)
(39.933 168.687 29.1291)
(93.3542 307.975 72.143)
(109.856 350.723 67.5251)
(58.0336 256.968 58.8672)
(67.0872 290.01 51.3645)
(38.8486 165.773 48.0595)
(57.8394 179.283 73.3045)
(38.4675 161.984 66.7302)
(74.3786 349.979 143.965)
(87.7678 315.795 103.478)
(55.3725 256.749 83.3515)
(55.0232 285.149 121.789)
(494.467 1775.13 -323.474)
(337.485 1732.82 -327.687)
(165.977 823.711 142.023)
(303.442 1108.12 332.398)
(512.968 1908.31 -179.905)
(188.633 1030.48 289.102)
(330.367 1872.05 -202.046)
(38.802 177.921 94.4337)
(57.7231 305.914 187.137)
(38.026 419.449 183.412)
(3.71901 471.654 207.764)
(22.0161 455.854 209.091)
(43.7807 352.299 169.039)
(44.9487 242.231 152.407)
(242.216 536.854 42.4834)
(234.687 711.674 78.8154)
(76.709 161.585 -8.51103)
(70.4259 181.775 -4.30063)
(59.67 124.44 30.9042)
(53.9023 138.59 28.4205)
(60.0921 105.75 72.2733)
(49.0755 130.255 64.579)
(77.5982 139.709 -7.77484)
(113.922 251.434 -0.960648)
(115.951 212.898 -3.86996)
(80.2015 247.215 -2.33379)
(54.6052 139.089 -7.82424)
(82.0307 210.421 -3.53234)
(54.9385 159.533 -8.86154)
(60.5862 109.615 32.4692)
(60.6789 126.804 9.95877)
(61.4315 111.213 11.0863)
(43.3066 124.851 31.4485)
(43.5957 111.63 10.6841)
(43.7724 126.373 10.0451)
(43.3879 110.479 31.9961)
(543.18 1216.87 -405.009)
(542.133 1043.78 -394.765)
(240.262 457.764 36.519)
(167.089 527.387 41.3239)
(366.165 1024.47 -385.091)
(164.957 451.182 35.6984)
(370.356 1191.52 -391.149)
(56.033 120.605 69.0829)
(59.4121 122.358 50.6188)
(59.9968 107.674 52.9908)
(41.6028 120.916 70.4651)
(43.2267 123.072 51.6414)
(43.2912 106.73 72.2556)
(42.9023 108.579 52.6203)
(54.9027 142.22 9.88432)
(52.3354 137.878 26.9584)
(54.1834 142.614 8.88346)
(38.7543 145.631 9.04747)
(37.7386 141.618 27.1385)
(39.1314 139.803 28.815)
(39.5955 142.927 9.8253)
(72.6999 192.227 -6.74882)
(118.418 326.196 12.763)
(112.386 281.26 9.62116)
(82.4094 317.933 9.69941)
(51.1852 191.668 -6.05762)
(79.538 279.027 7.68554)
(50.5243 183.067 -5.11432)
(235.602 611.849 54.8383)
(500.999 1560.7 -393.577)
(522.191 1383.55 -406.827)
(342.005 1522.58 -381.938)
(160.66 691.365 69.0003)
(162.74 599.027 53.3319)
(357.877 1349.42 -387.738)
(52.7127 135.582 46.9198)
(51.1511 135.535 45.0025)
(36.774 139.011 45.1949)
(50.7719 131.213 61.6374)
(35.4628 131.454 61.227)
(35.4966 133.877 65.615)
(38.6396 137.366 47.5794)
(50.7579 124.739 98.5193)
(61.2664 160.783 156.934)
(48.8932 93.1765 98.5546)
(60.7825 115.196 172.855)
(54.9708 101.916 91.1884)
(47.0749 97.7188 85.7636)
(49.1587 113.59 84.7164)
(35.8449 115.223 87.6592)
(33.7285 100.269 88.9287)
(40.7158 102.724 91.6745)
(36.0068 95.566 103.091)
(47.3667 110.936 73.3959)
(52.5148 141.167 83.0038)
(37.0187 127.592 76.7044)
(34.2669 117.91 77.0058)
(35.8814 114.644 90.6775)
(58.5084 175.455 125.907)
(37.0933 151.785 108.03)
(50.1919 92.1949 111.469)
(51.8064 115.332 123.83)
(36.316 109.116 117.651)
(70.8497 163.913 215.237)
(47.3574 146.399 188.562)
(40.7756 106.28 161.059)
(35.4863 90.3906 107.82)
(39.3292 141.195 135.787)
(73.1208 248.888 283.924)
(56.2773 219.037 246.131)
(48.9092 312.185 305.201)
(65.0975 266.28 226.557)
(50.4416 306.299 281.722)
(47.6052 214.518 185.114)
(2832.82 2283.14 264.289)
(3132.54 2726.42 319.782)
(3729.82 2170.89 360.617)
(2734.26 2420.71 756.943)
(3072.58 2678.07 309.646)
(3570.79 2714.55 357.906)
(2892.32 2563.79 957.679)
(3093.54 2687.69 944.865)
(3453.87 2741.22 1066.03)
(2640.83 2332.85 256.879)
(6587.67 3495.56 651.759)
(2676.41 1605.61 957.601)
(6023.11 3253.12 1998.54)
(1959.69 1554.89 156.538)
(456.046 -2.32817 152.697)
(50.2581 18.3094 53.1251)
(286.734 254.41 252.574)
(0.0423887 0.0483772 0.030074)
(1766.26 1409.65 417.852)
(1.12793 1.25938 0.821672)
(0.285548 0.225106 0.3947)
(5.37843e-05 6.34998e-05 6.53086e-05)
(2.44046e-06 3.00286e-06 2.79393e-06)
(7596.72 3793.3 747.061)
(7317.66 3725.53 2345.12)
(791.523 562.293 502.964)
(0.00206167 0.00207581 0.00127916)
(0.00187845 0.0021273 0.00166337)
(9.47859e-05 9.49462e-05 7.34307e-05)
(2383.78 2062.58 559.467)
(3802.96 2214.22 360.271)
(3729.89 2326.52 1045.46)
(2430.36 2034.57 221.947)
(2600.76 2383.37 1088.62)
(2848.31 2584.95 1785.16)
(3558.31 2671.14 1737.68)
(2736.12 2601.16 1458.3)
(3768.31 2198.43 2590.18)
(6559.81 3462.7 3598.59)
(1911.6 1892.28 974.04)
(2487.63 2380.51 1110.54)
(1180.79 1127.87 376.743)
(0.0533694 0.0473643 0.0427422)
(26.8225 26.8229 20.4622)
(0.0530392 0.0529984 0.0333777)
(0.0473786 0.0533664 0.0427727)
(1.25886 1.12559 0.819978)
(1.10533 1.10557 1.01189)
(0.00232762 0.00232974 0.00183014)
(0.00188707 0.00168778 0.00181821)
(0.00166721 0.00187968 0.00181255)
(0.00109831 0.00111469 0.00142028)
(4.42481e-06 6.82522e-06 3.7907e-06)
(0.0366683 0.0366902 0.0409892)
(8.72591e-05 8.95846e-05 8.16459e-05)
(6.9826e-05 7.58971e-05 7.71372e-05)
(7.03008e-05 7.87878e-05 7.42806e-05)
(2.51838e-07 4.85684e-07 1.66003e-07)
(3.78773e-06 3.98395e-06 3.45156e-06)
(2067.25 1215.74 151.898)
(1559.35 1098.13 345.823)
(1480.85 1070.43 484.692)
(1318.61 975.289 308.282)
(818.494 405.609 385.67)
(1604.96 1247.3 715.761)
(1388.73 737.002 956.897)
(1767.71 1385.22 1019.55)
(1675.79 937.491 1468.35)
(193.024 149.004 161.888)
(525.293 314.47 565.42)
(3.30282 2.41654 4.47958)
(336.574 906.889 204.421)
(1313.41 1757.69 -2.54031)
(2256.14 1503.92 641.96)
(5355.41 1806.54 624.832)
(7759.26 3567.28 756.476)
(80.0444 195.61 34.7832)
(238.124 432.516 247.129)
(2098.6 1718.52 685.835)
(1663.24 425.144 2611.69)
(5226.75 2253.83 3381.77)
(3449.71 2167.22 2055.48)
(77.574 284.444 146.815)
(273.01 399.396 246.153)
(1563.93 1411.22 694.663)
(1313.11 942.657 1355.69)
(3095.15 2098.69 1423.68)
(227.27 212.73 80.3786)
(311.221 698.944 822.819)
(729.27 884.216 883.03)
(1694.22 2287.49 3488.92)
(725.711 770.018 749.414)
(994.079 1810.53 -193.417)
(1555.56 475.302 406.647)
(3016.9 485.221 406.391)
(120.774 296.947 6.38911)
(342.702 773.297 174.738)
(1164.95 -1200.22 1896.38)
(2475.34 -603.191 1930.45)
(1794.26 1728.95 165.846)
(3347.65 529.271 390.121)
(3906.78 1131.77 364.208)
(334.595 562.454 277.063)
(1116.73 1017.63 301.641)
(2820.02 -186.052 1947.03)
(3433.77 1993.43 1961.26)
(3919.19 1603.54 361.017)
(3355.33 2635.92 1985.51)
(4678.13 1672.59 631.113)
(1735.67 339.682 2793.42)
(4281.36 1204.24 3266.5)
(7331.61 2999.76 715.447)
(5253 1816.62 3549.74)
(6994.07 3704.52 4662.09)
(6032 3320.51 4134.45)
(134.239 409.238 70.4944)
(1022.49 -1059.75 1636.36)
(2207.77 -351.802 1663.41)
(80.0846 200.072 58.5947)
(121.207 378.82 151.184)
(665.809 -174.057 645.001)
(1253.61 336.426 578.351)
(870.246 781.772 376.221)
(2495.97 155.135 1617.11)
(2904.37 2406.62 1380.73)
(241.699 387.31 231.43)
(761.905 690.342 261.055)
(1381.01 668.224 534.808)
(1607.94 1714.16 385.845)
(2632.61 2539.54 1263.79)
(1734.67 1468.96 336.047)
(1333.19 1419.83 290.517)
(4233.61 1509.25 3135.29)
(1293.28 826.074 1148.44)
(2747.87 1599.81 1152.15)
(5788.19 3392.67 3385.95)
(3193.27 2013.47 1097.03)
(1863.5 1423.7 433.293)
(451.4 399.1 100.769)
(161.483 375.259 224.221)
(677.846 -45.0388 756.72)
(1223.6 458.881 706.503)
(115.214 456 379.005)
(375.604 543.948 471.239)
(785.619 684 1459.43)
(1250.9 1519.04 1353.48)
(968.823 898.725 488.032)
(1338.13 804.189 668.993)
(1515.36 1667.85 542.837)
(517.261 636.617 543.205)
(1609.9 1610.37 1220.79)
(1351.57 1737.66 1297.1)
(306.419 340.645 227.601)
(1118.07 1189.74 378.263)
(338.737 304.756 226.338)
(19.9489 21.6775 12.4069)
(2710.33 1731.25 1446.02)
(1719.35 2007.87 3111.42)
(2466.05 2235.92 2604.36)
(1324.11 1081.41 486.108)
(1983.85 1807.22 1868.42)
(13.6902 16.1465 9.2322)
(0.73746 0.834121 0.414435)
(516.861 708.21 714.635)
(785.377 1233.67 1666.18)
(1176.3 1747.18 1450.49)
(656.69 1278.72 1549.16)
(538.271 756.576 867.219)
(202.136 508.423 518.489)
(7.04817 12.6737 15.091)
(311.47 311.544 289.799)
(1148.19 1628.62 1247.81)
(20.883 24.7454 17.3697)
(39.6406 46.6493 58.3239)
(4.28443 3.87066 6.36007)
(1.03954 1.79211 2.23008)
(0.000839981 0.00107663 0.00122876)
(1520.66 1558.94 1788.67)
(23.4367 47.2119 65.7132)
(0.325225 0.636849 0.831886)
(0.762905 0.969441 0.624982)
(0.0471596 0.0862782 0.108541)
(3.75277e-05 4.76185e-05 5.22659e-05)
(3137.58 1528.96 637.982)
(2018.97 936.931 1737.76)
(2869.78 1004.19 1727.61)
(6015.1 2044.92 631.451)
(5159.3 1465.71 1712.15)
(5872.61 1835.8 1793.26)
(7577.26 3598.11 2354.32)
(2466.62 639.979 2787.66)
(1494.96 573.024 1862)
(2180.67 788.866 1972.41)
(6128.97 3090.67 3649.15)
(4395.38 2285.43 2010.83)
(4962.52 2880.58 1889.04)
(1105.58 876.029 318.177)
(102.056 89.03 30.9924)
(1770.08 1117.84 1404.03)
(1406.78 1162.41 1767.06)
(1868.32 1354.2 1846.91)
(3158.99 2243.69 1292.19)
(3053.98 2251.69 1886.29)
(2874.39 2185.16 1649.2)
(12.1838 11.7403 3.29891)
(60.0608 59.6965 26.6382)
(2.88576 2.85569 0.936877)
(1960.96 2260.6 3213.36)
(1284.91 1926.31 2831.59)
(1228.93 1593.17 2150.65)
(146.727 172.455 141.886)
(59.868 79.6211 73.9673)
(5.9207 8.75985 7.4836)
(1143.91 1241.84 777.035)
(1073.79 1921.45 102.174)
(2111.83 459.176 413.259)
(1377.94 -231.087 1156.41)
(838.753 1168.79 756.283)
(1924.81 -206.924 1155.96)
(1394.61 1914.38 158.597)
(1432.2 1288.13 765.97)
(1945.62 1848.33 234.76)
(2602.35 470.13 413.828)
(2852.63 -58.5375 1096.32)
(1703.31 1318.39 737.997)
(2422.65 -147.936 1132.04)
(1692.4 1896.19 210.88)
(907.017 557.127 1015.03)
(1273.29 -964.079 1651.55)
(421.11 124.033 873.358)
(1662.79 -1090.02 1945.21)
(641.894 481.148 976.545)
(1811.92 -888.384 1664.25)
(617.784 173.72 955.546)
(1162.91 619.008 996.664)
(2705.38 -581.144 1630.03)
(1017.54 423.917 914.156)
(2086.95 -889.868 1938.86)
(1394.82 705.92 929.249)
(2284.47 -763.416 1648.62)
(830.511 265.609 967.426)
(2091.65 1373.96 617.826)
(2154.62 1795.21 239.615)
(3609.88 627.527 376.494)
(3218.69 79.7255 1060.65)
(1928.59 1338.42 688.811)
(3510.12 303.492 1033.65)
(2310.12 1748.6 237.772)
(2183.42 1449.84 543.824)
(2406.29 1748.93 221.234)
(3800.81 819.095 368.998)
(3836.08 1083.22 1028.49)
(2220.52 1577.37 494.133)
(3721.86 631.986 1025.97)
(2396 1731.57 233.854)
(1721.17 995.797 767.544)
(3074.76 -298.189 1626.89)
(1173.55 622.375 847.781)
(3101.29 403.47 1955.98)
(1580.71 816.219 848.519)
(3379.86 122.013 1642.1)
(1317.92 909.87 781.718)
(1848.35 1251.26 704.234)
(3746.47 1337.17 1670.12)
(1864.96 1813.21 830.866)
(3296.94 1142 1934.96)
(1990.29 1579.04 686.676)
(3615.19 677.718 1658.31)
(1516.04 1306.51 743.873)
(2392.74 1835.01 214.163)
(3830.92 1662.8 1027.13)
(2261.86 1774 487.276)
(3764.85 2074.87 1712.13)
(2398.95 2342.84 1121.06)
(2213.64 1974.59 794.906)
(3947.35 1585.31 633.556)
(4437.24 1237.9 1692.21)
(3680.76 1098.14 1708.31)
(1822.92 446.381 2399.49)
(2558.7 512.755 2942.95)
(2654.1 559.025 2452.35)
(4273.42 986.744 2580.71)
(3387.46 789.985 3082.49)
(3459.48 727.807 2497.43)
(6685.43 2440.25 664.009)
(7234.44 3035.16 2169.39)
(6586.67 2373.02 1952.05)
(5112.32 1393.8 2748.91)
(6166.14 2596.33 3944.99)
(5953.11 1973.21 3020.05)
(7482.92 3433.58 3757.83)
(6898.41 3348.04 4417.77)
(6769.54 2700.09 3371)
(7589.62 3811.43 3959.84)
(283.773 306.969 422.807)
(285.888 116.471 613.841)
(1468.49 -937.793 1691.91)
(833.706 -704.693 1055.49)
(407.122 166.971 677.702)
(203.466 261.686 382.98)
(1177.26 -558.676 1078.81)
(414.228 360.169 424.539)
(748.273 418.376 666.437)
(1857.3 -699.255 1688.54)
(1710.63 15.7196 975.123)
(578.835 255.431 695.618)
(553.844 472.916 408.054)
(1466.5 -318.073 1045.4)
(233.385 410.934 348.65)
(694.222 -354.782 675.876)
(144.857 425.533 336.765)
(894.365 -56.5493 643.576)
(158.797 385.838 330.7)
(955.508 -222.947 675.805)
(250.328 432.823 347.189)
(357.722 435.63 332.238)
(1354.02 225.67 590.318)
(490.597 530.064 322.588)
(1087.96 106.736 617.707)
(484.823 508.646 311.201)
(1169.11 -30.4864 643.441)
(377.904 459.738 337.575)
(836.164 916.28 367.796)
(902.525 635.364 622.613)
(2693.96 838.65 1527.71)
(1897.51 477.04 879.058)
(1050.33 943.818 579.14)
(686.421 645.158 384.874)
(2007.17 1071.27 752.168)
(1133.82 1305.77 387.873)
(1833.15 1922.76 714.599)
(2828.86 1664.81 1421.55)
(2111.99 2100.59 532.655)
(1294.92 1363.22 576.289)
(1696.89 1812.14 456.425)
(2137.83 1744.25 637.181)
(746.837 864.639 281.094)
(1500 588.956 529.99)
(598.011 652.557 302.556)
(1481.75 1111.84 492.54)
(603.74 637.942 288.415)
(1604.37 1075.17 468.608)
(735.627 864.58 301.376)
(1040.87 1208 305.979)
(1750.32 1823.82 324.685)
(1472.87 1563.59 381.268)
(1627.23 1560.63 450.532)
(1536.41 1633.39 335.669)
(1757.74 1607.11 407.771)
(1027.47 1185.61 336.872)
(1943.5 1861.71 419.641)
(2412.55 2415.45 986.699)
(1830.56 1923.89 415.492)
(2052.02 2063.05 494.38)
(946.225 955.026 215.491)
(1597.32 1531.72 234.61)
(1500.64 1591 232.644)
(1667.76 1674.56 384.875)
(465.928 467.464 95.7861)
(1770.8 1780.32 320.999)
(642.437 646.434 90.2055)
(1413.31 1352.87 290.576)
(3302.05 989.719 2946.72)
(3643.76 1636.83 2046.12)
(2881.46 1137.59 2029.26)
(1321.24 711.525 1211.54)
(1771.69 995.918 1178.94)
(1858.07 895.576 1251.25)
(2960.22 1576.61 1208.8)
(2251.66 1247.39 1178.55)
(2395.59 1181.01 1252.09)
(6524.88 3622.42 3786)
(3317 2252.21 982.11)
(4765.93 2974.11 1556.44)
(3497.06 2063.73 1116.56)
(3388.34 2282.84 969.147)
(3807.45 2438.73 950.498)
(2287.58 1678.16 385.104)
(3039.83 2154.02 773.048)
(3520.13 2380.39 714.379)
(660.936 562.577 101.748)
(29.288 27.1429 5.11159)
(49.8705 45.1945 6.30589)
(353.028 499.391 465.189)
(182.314 435.688 369.365)
(884.328 64.9085 756.842)
(709.696 102.967 938.972)
(297.109 446.613 380.046)
(248.786 470.667 455.499)
(907.007 215.733 941.266)
(453.497 554.134 456.124)
(515.738 567.447 366.784)
(1067.82 220.859 737.049)
(1218.11 672.927 892.569)
(413.244 486.963 381.119)
(547.674 658.72 442.331)
(1079.03 396.516 922.526)
(406.487 604.615 574.474)
(752.992 314.653 1192.38)
(364.841 717.247 716.855)
(955.422 888.73 1422.3)
(310.51 563.16 578.374)
(940.901 463.994 1184.69)
(457.398 792.39 714.356)
(497.857 688.477 562.975)
(1219.47 1031.7 1116.58)
(731.601 1129.42 828.201)
(1098.14 1177.23 1375.5)
(598.329 834.399 570.288)
(1098.07 699.799 1157.78)
(561.143 923.48 734.563)
(878.442 1100.02 519.97)
(619.842 707.985 354.582)
(1451.32 1248.84 639.314)
(1324.95 1054.03 858.794)
(776.199 934.668 373.871)
(660.867 833.986 449.592)
(1468.6 1488.5 850.7)
(1282.24 1469.57 676.493)
(1507.55 1599.67 547.628)
(1576.79 1618.67 611.938)
(1371.63 1550.8 682.03)
(1102.49 1268.66 450.756)
(1581.28 1674.75 789.213)
(1528.89 1716.24 809.734)
(1113.28 1399.21 822.447)
(1361.74 1442.1 1098.95)
(1037.5 1434.56 1030.9)
(1309.97 1691.89 1142.91)
(773.419 1061.64 641.103)
(1467.56 1719.57 1071.13)
(1377.84 1689.07 1215.77)
(1485.49 1683.68 1009.42)
(996.169 1119.09 634.701)
(1212.08 1282.49 904.418)
(1028.36 1235.78 822.859)
(1564.13 1656.44 993.133)
(1392.93 1670.5 946.188)
(1493.45 1687.07 1205.58)
(738.742 705.077 337.966)
(1627.16 1631.62 552.873)
(253.857 253.834 84.2122)
(707.977 747.759 341.145)
(1522.65 1524.64 709.597)
(71.6722 71.5162 30.1912)
(220.389 208.596 123.513)
(210.594 222.251 124.695)
(366.652 366.591 257.907)
(0.92452 0.922898 0.464591)
(1119.87 1120.16 668.424)
(10.8567 10.8205 4.69415)
(21.6304 19.8582 12.3471)
(2238.1 1375.84 1433.06)
(2773.24 1987.71 1944.59)
(2335.3 1640.98 1914.11)
(1561.77 1516.4 2409.32)
(2167.21 2199.99 3115.25)
(2031.3 1746.52 2487.31)
(2833.99 2282.16 2494.43)
(2465.66 2321.62 2992.5)
(2488.15 2034.68 2527.94)
(2646.56 1982.56 1012.27)
(649.832 596.07 340.436)
(1975.92 1595.71 1064.65)
(2781.89 2255.04 2215.65)
(982.858 948.389 839.755)
(2162.64 1820.7 1586.84)
(153.823 159.092 95.0039)
(198.271 215.698 155.604)
(965.895 887.601 664.042)
(8.76277 9.55097 4.15076)
(0.0349422 0.0353394 0.0167055)
(0.411079 0.414246 0.152648)
(737.035 1530.13 1463.19)
(419.85 984.29 923.708)
(953.37 1456.68 1633.3)
(742.176 1659.34 1765.46)
(550.475 1109.53 985.475)
(550.153 1399.9 1379.6)
(865.071 1699.09 1639.98)
(944.269 1635.87 1532.1)
(1011.04 1548.02 1297.33)
(1096.15 1654.36 1576.54)
(888.261 1408.87 1191.52)
(737.588 1303.24 1116.63)
(1109.16 1653.47 1523.46)
(929.309 1645.54 1460.88)
(769.36 1570.37 1615.4)
(572.273 1484.2 1458.79)
(454.442 1154.27 1299)
(116.642 235.787 242.904)
(629.478 1592.73 1661.83)
(603.973 1283.96 1214.38)
(444.374 901.697 991.097)
(843.81 1458.95 1482.77)
(234.677 358.098 330.442)
(121.828 177.462 195.29)
(37.4809 66.9618 72.5725)
(775.54 1159.76 1155.93)
(496.275 875.769 809.173)
(313.371 524.132 563.749)
(849.268 1030.51 917.258)
(1264.29 1694.26 1399.38)
(884.39 1137.77 857.878)
(591.317 818.983 684.316)
(1360.2 1655.59 1346.34)
(1134.85 1520.61 1380.97)
(150.225 194.562 163.251)
(254.122 286.432 252.372)
(377.136 398.538 316.433)
(273.403 323.959 244.442)
(0.839558 1.05456 0.865239)
(1108.84 1254.09 1006.62)
(19.7785 21.6197 19.5846)
(12.741 16.8474 14.0974)
(99.5311 123.224 123.284)
(43.5726 64.6127 61.9487)
(20.2188 28.7973 34.8377)
(0.11958 0.19301 0.238971)
(453.755 595.077 580.08)
(4.6228 6.95121 7.08793)
(2.41287 3.29899 4.47517)
(8.75843 10.6715 11.7462)
(0.0278065 0.0355166 0.0352727)
(0.0172406 0.0195597 0.0263251)
(0.0110797 0.0160933 0.0192667)
(0.615907 0.692623 0.785623)
(0.39174 0.557375 0.567463)
(0.22482 0.285349 0.394352)
(1962.79 2080.81 2672.1)
(341.672 416.102 426.546)
(846.56 1023.97 1221.9)
(455.97 754.243 1016.86)
(7.5952 14.614 19.9501)
(248.517 369.993 448.4)
(13.0204 21.3032 23.1127)
(1.80821 3.47428 4.66679)
(76.6945 113.558 127.664)
(11.8656 15.4649 10.935)
(0.0323474 0.0417686 0.0331516)
(0.475255 0.682054 0.556562)
(1.74385 2.93257 3.0917)
(0.00541337 0.00892328 0.0107699)
(0.184923 0.299389 0.306214)
(0.00115932 0.00148261 0.00143018)
(0.000497935 0.000720151 0.00083544)
(0.0160911 0.0234969 0.0232792)
(85.7887 209.824 15.7219)
(124.136 293.661 28.4566)
(114.933 264.894 51.7625)
(113.231 392.951 93.8842)
(130.111 446.991 90.0521)
(78.2057 483.915 131.233)
(83.2076 536.847 133.914)
(187.879 469.945 62.9237)
(268.168 594.444 103.102)
(172.402 403.267 22.4731)
(181.811 609.346 126.914)
(278.144 843.423 265.575)
(309.208 968.978 349.727)
(139.475 709.882 186.349)
(619.629 69.43 312.093)
(1160.52 518.596 798.122)
(590.243 87.9032 268.5)
(832.326 81.9158 265.44)
(1839.07 348.317 1187.47)
(876.491 236.572 317.235)
(1707.88 587.053 904.581)
(83.5688 222.813 91.6758)
(113.151 273.253 85.7036)
(61.7981 433.419 165.078)
(99.7559 405.478 133.065)
(60.2047 483.014 169.809)
(104.95 314.441 133.621)
(26.687 471.21 182.411)
(657.755 1800.72 -304.469)
(828.967 1808.4 -266.023)
(442.122 979.435 257.541)
(425.778 1187.75 384.799)
(697.036 1926.7 -132.888)
(564.696 1272.86 425.785)
(883.307 1934.22 -69.5179)
(194.679 552.08 67.696)
(180.632 550.735 198.192)
(396.322 1011.51 438.629)
(405.92 833.764 291.323)
(307.728 666.199 370.144)
(586.562 1018.96 460.041)
(138.814 673.905 304.985)
(132.162 376.841 101.537)
(108.971 408.36 169.243)
(55.3436 463.258 182.577)
(196.052 512.985 287.036)
(107.008 378.774 158.911)
(64.1113 498.834 223.514)
(169.677 471.403 227.384)
(42.6091 371.863 216.411)
(8.07162 463.392 189.419)
(24.9745 460.672 224.869)
(102.502 472.173 264.953)
(65.6444 368.532 190.383)
(35.2998 445.646 199.175)
(44.0132 377.167 214.324)
(130.949 376.401 193.996)
(61.5549 455.751 199.395)
(113.182 378.041 188.993)
(86.6927 382.446 180.455)
(203.374 475.225 234.781)
(175.088 471.842 221.623)
(85.6683 450.813 200.471)
(519.491 24.1383 194.566)
(565.661 46.7425 228.92)
(485.797 -3.31911 159.072)
(615.477 24.5518 183.047)
(666.415 48.0765 216.433)
(708.344 65.9912 273.602)
(732.318 110.442 304.36)
(562.685 1073.13 313.216)
(1153.43 1792.09 -100.25)
(725.96 1370.95 440.383)
(1260.11 1934.5 84.041)
(719.279 1169.49 345.002)
(920.068 1441.27 444.431)
(1059.75 1928.01 10.3467)
(475.176 635.205 281.43)
(397.362 487.15 290.658)
(357.726 578.878 317.823)
(219.33 397.747 216.979)
(534.231 698.975 338.594)
(362.048 441.841 256.73)
(311.334 526.477 261.758)
(197.625 492.754 293.144)
(73.8383 369.475 191.388)
(245.994 487.292 255.574)
(211.461 400.328 273.69)
(135.236 459.405 233.854)
(116.121 384.801 248.246)
(300.802 530.794 301.526)
(46.6458 397.16 260.619)
(104.138 511.856 327.346)
(196.156 596.059 458.134)
(182.547 528.747 356.766)
(184.772 474.663 408.652)
(101.172 408.643 298.813)
(272.235 619.173 478.009)
(944.106 1065.92 403.032)
(582.329 869.292 345.382)
(499.104 605.295 314.377)
(488.096 708.782 387.938)
(757.784 901.152 349.885)
(777.281 1030.4 442.098)
(663.862 804.041 381.565)
(452.465 598.129 233.764)
(221.992 390.126 221.593)
(366.595 434.514 242.637)
(324.302 517.453 246.244)
(352.511 427.007 230.656)
(303.476 511.612 232.91)
(465.37 600.662 247.786)
(535.707 34.2741 191.71)
(566.888 97.8992 232.631)
(598.867 168.016 300.323)
(703.984 202.755 279.478)
(756.362 284.006 356.752)
(692.606 105.438 250.813)
(741.226 185.536 332.779)
(1291.21 1469.3 406.421)
(1467.64 1698.61 72.8304)
(1439.27 1896.26 129.687)
(907.827 1246.22 356.243)
(1103.65 1287.84 362.309)
(1117.21 1470.91 435.947)
(1588.55 1839.65 152.717)
(1.54703 1.10693 0.123499)
(3057.89 2486.08 1389.82)
(571.938 528.848 378.184)
(48.3317 33.7013 30.834)
(1716.77 1417.79 809.241)
(32.3066 28.3606 21.4519)
(336.164 282.188 65.2864)
(1.20729 1.00849 0.147813)
(1.5924 1.17163 1.11709)
(0.0534224 0.0431853 0.00592443)
(651.534 565.326 287.865)
(0.492086 0.403976 0.0952633)
(0.0209818 0.0169689 0.00381754)
(2918.26 2636.34 1370.95)
(2050.34 1872.32 1121.52)
(1888.38 1639.72 1185.45)
(1987.07 1875.94 1294.84)
(2816.8 2445.74 1425.28)
(3010.03 2648.87 1589.15)
(2621.24 2381.62 1544.57)
(778.156 520.942 434.372)
(925.082 609.404 626.37)
(3844.32 2220 2186.31)
(924.694 853.522 203.335)
(481.734 419.927 268.14)
(563.824 543.003 323.517)
(3.88092 3.27697 0.927531)
(1885.54 1718.09 925.799)
(77.8991 66.1973 18.7901)
(98.0277 93.3951 25.1069)
(611.262 564.754 82.4612)
(2.03431 1.71745 0.17717)
(24.0868 19.6344 3.65847)
(29.3409 27.4074 4.78671)
(39.988 33.4954 4.41044)
(49.259 46.4787 5.87042)
(437.703 402.092 86.6838)
(45.1463 33.9256 32.648)
(0.168135 0.134649 0.0402246)
(4.34128 3.77347 1.22865)
(0.0907598 0.0734681 0.0069137)
(1.31006 1.15807 0.173977)
(2.22118 1.95661 0.210746)
(64.6171 56.921 25.3284)
(10.3601 8.07358 2.3675)
(12.6142 11.5731 3.13081)
(0.116519 0.0947582 0.0269557)
(231.707 210.212 73.2966)
(2.53402 1.89613 0.682375)
(3.06239 2.7703 0.905297)
(0.528341 0.471411 0.112159)
(0.00485962 0.00393768 0.00104935)
(0.123754 0.111002 0.0314091)
(1875.93 1391.32 277.118)
(1806.53 1221.84 568.237)
(0.135419 0.058288 0.111829)
(2256.14 890.58 151.686)
(2354.17 1557.91 406.019)
(1637.92 817.63 389.002)
(2615.98 1750.03 821.864)
(1304.14 688.03 425.491)
(2654.52 1918.41 931.449)
(1140.96 618.805 283.088)
(657.014 444.659 411.679)
(1741.31 893.307 740.343)
(1874.59 986.864 1018.8)
(3.73193 1.7726 2.59585)
(156.801 81.2013 121.002)
(3.79242 1.67221 4.33097)
(1789.1 647.335 1312.64)
(863.297 185.244 730.519)
(213.022 44.1706 217.435)
(1364.51 282.042 1584.64)
(1153.34 455.491 1301.71)
(1747.43 829.225 1555.84)
(1464.67 279.332 1196.35)
(705.338 126.787 477.054)
(639.976 108.958 346.535)
(729.142 190.866 509.541)
(918.047 180.198 615.314)
(791.274 123.054 408.666)
(809.521 189.609 437.792)
(963.386 266.101 655.038)
(858.969 144.798 293.069)
(1096.81 173.927 363.579)
(1139.77 268.78 385.253)
(1218.66 215.988 506.314)
(908.58 135.856 372.579)
(931.751 212.613 398.391)
(1286.81 324.664 538.485)
(964.457 575.781 443.946)
(733.262 324.027 296.134)
(831.746 476.157 319.942)
(580.544 200.137 261.362)
(617.793 273.079 318.299)
(681.805 399.832 342.171)
(616.464 324.834 272.837)
(595.508 725.396 370.856)
(400.082 461.446 254.705)
(362.327 541.394 260.063)
(321.942 441.084 284.754)
(511.84 639.183 279.682)
(458.854 517.118 309.138)
(420.176 596.662 316.133)
(272.967 558.327 371.067)
(281.36 455.599 343.844)
(272.473 497.185 434.837)
(492.246 750.875 576.353)
(182.421 425.833 325.346)
(375.311 607.923 391.242)
(364.056 660.503 508.545)
(1104.81 676.697 399.434)
(1410.71 1028.33 379.368)
(1023.05 633.002 321.277)
(974.707 710.496 385.463)
(784.198 453.626 343.058)
(904.798 665.892 319.823)
(710.262 415.589 287.128)
(210.855 549.803 545.724)
(402.317 973.801 1041.62)
(281.608 716.933 651.286)
(553.076 1093.6 1165.32)
(288.883 571.75 579.706)
(373.835 764.503 696.626)
(415.107 756.759 891.4)
(1333.08 1302.5 350.517)
(943.415 849.933 352.883)
(1223.65 1246.54 460.273)
(1115.22 1149.45 367.021)
(682.028 692.106 319.282)
(922.514 940.864 325.491)
(887.434 976.762 385.247)
(1199.76 1225.69 455.202)
(814.16 732.662 320.487)
(723.162 821.106 312.915)
(591.412 595.161 326.507)
(780.064 886.821 374.378)
(544.573 546.25 286.184)
(1156.53 1169.07 375.462)
(885.939 379.481 503.663)
(648.199 173.914 375.465)
(754.557 269.889 540.098)
(803.321 366.733 582.613)
(664.297 261.44 399.601)
(831.959 274.871 465.627)
(1032.2 373.369 707.657)
(2007.54 1383.54 151.724)
(1774.01 1227.11 289.287)
(1774.02 1042.67 327.669)
(1898.37 1379.38 145.435)
(1598.36 1157.6 316.309)
(1966.07 1214.05 132.921)
(1620.12 981.184 363.142)
(1436.47 853.607 357.534)
(1508.74 1073.25 502.677)
(1219.84 735.614 407.14)
(1271.58 920.851 329)
(1221.22 723.11 363.92)
(1070.88 773.087 374.835)
(919.119 534.221 369.722)
(959.415 606.533 265.436)
(959.335 624.626 298.758)
(1304.75 980.713 350.389)
(844.909 633.391 260.416)
(671.7 402.729 243.244)
(672.742 424.677 259.902)
(841.481 645.255 284.766)
(1726.69 1570.81 144.271)
(1427.62 1299.63 306.551)
(1568.13 1498.22 312.307)
(1433.16 1470.17 350.977)
(1607.97 1629.49 116.795)
(1273.9 1292.22 345.75)
(1702.69 1778.3 167.364)
(1564.1 653.607 654.127)
(1036.63 429.252 461.037)
(914.099 350.404 337.661)
(1347.82 546.586 448.881)
(1210.6 387.581 411.005)
(962.492 308.889 423.944)
(1398.16 465.08 584.755)
(759.474 694.358 280.304)
(681 767.128 255.712)
(523.948 524.7 251.037)
(1076.89 1084.22 335.775)
(516.777 517.629 239.097)
(1087.11 1096.45 305.722)
(685.197 763.8 276.037)
(2217.32 1075.45 153.355)
(1951.08 949.365 334.831)
(1964.64 766.825 368.89)
(2351.1 1153.98 168.819)
(2166.72 1074.58 324.86)
(2382.08 961.887 163.167)
(2152.74 875.877 340.585)
(1592.37 615.378 407.441)
(1433.32 740.806 455.215)
(1280.71 508.623 439.571)
(2043.09 1051.88 466.158)
(1905.62 807.84 429.243)
(2086.52 1110.13 655.724)
(1757.63 785.551 530.755)
(1097.35 444.733 383.751)
(1209.98 643.351 333.132)
(993.393 408.976 302.302)
(2050.08 1129.14 576.069)
(1636.56 750.649 471.467)
(1879.88 1064.43 387.108)
(1532.85 708.277 356.977)
(948.293 431.133 297.965)
(1147.7 640.322 327.683)
(1452.08 699.049 371.017)
(942.069 400.73 265.164)
(1731.06 996.762 322.623)
(1449.68 681.59 312.304)
(1693.77 989.021 392.801)
(1.93226e-11 6.2822e-11 9.7881e-11)
(4.05081e-13 1.07571e-12 2.10861e-12)
(2.92023e-15 1.09983e-14 3.58766e-14)
(6.76823e-05 6.77419e-05 0.00022202)
(6.43153e-08 4.67677e-08 2.41546e-07)
(6.2676e-09 6.72862e-09 2.37592e-08)
(8.37864e-10 6.85306e-10 3.56913e-09)
(9.62201e-11 1.08841e-10 4.63401e-10)
(1.24965e-11 1.15009e-11 5.89812e-11)
(1.37691e-12 1.65276e-12 7.14594e-12)
(1.76325e-13 1.76377e-13 9.85086e-13)
(1.33176e-14 1.69577e-14 9.48473e-14)
(1.12001e-05 1.37343e-05 3.25648e-05)
(1.14633e-05 2.30603e-05 9.74755e-05)
(2.62693e-07 3.17556e-07 1.93664e-06)
(2.3968e-08 5.54807e-08 1.69188e-07)
(6.44306e-09 6.56619e-09 4.65901e-08)
(4.37405e-10 7.85677e-10 2.63553e-09)
(8.57914e-11 7.99986e-11 5.27643e-10)
(7.84489e-12 1.15648e-11 4.47944e-11)
(1.23116e-12 1.13384e-12 7.09447e-12)
(1.11841e-13 1.58588e-13 7.42228e-13)
(8.77112e-05 0.000123822 0.000424465)
(1.99382e-08 1.22836e-07 1.03599e-07)
(5.7432e-10 2.82792e-09 3.18365e-09)
(6.24267e-09 2.72046e-08 1.92823e-08)