/*--------------------------------*- C++ -*----------------------------------*\
  =========                 |
  \\      /  F ield         | OpenFOAM: The Open Source CFD Toolbox
   \\    /   O peration     | Website:  https://openfoam.org
    \\  /    A nd           | Version:  9
     \\/     M anipulation  |
\*---------------------------------------------------------------------------*/
FoamFile
{
    format      ascii;
    class       volScalarField;
    location    "0.00285";
    object      rho;
}
// * * * * * * * * * * * * * * * * * * * * * * * * * * * * * * * * * * * * * //

dimensions      [1 -3 0 0 0 0 0];

internalField   nonuniform List<scalar> 
26065
(
1.225
1.225
1.225
1.225
1.225
1.225
1.22501
1.225
1.225
1.225
1.225
1.225
1.225
1.225
1.225
1.225
1.225
1.225
1.225
1.225
1.225
1.225
1.225
1.225
1.225
1.225
1.225
1.225
1.225
1.225
1.225
1.225
1.225
1.225
1.225
1.22501
1.225
1.225
1.225
1.22904
1.89794
1.22574
1.225
1.225
1.225
1.32109
2.16417
1.25198
1.225
1.225
1.22719
2.72387
1.4728
1.01331
1.2253
2.56927
2.74529
1.16826
0.922219
1.225
1.31805
2.6332
2.31969
1.39219
1.225
1.225
1.225
1.225
1.225
1.225
1.225
1.225
1.225
1.225
1.225
1.225
1.225
1.225
1.225
1.225
1.225
1.225
1.225
1.225
1.225
1.225
1.225
1.225
1.225
1.225
1.225
1.225
1.225
1.225
1.225
1.225
1.225
1.225
1.225
1.225
1.225
1.225
1.225
1.225
1.225
1.225
1.225
1.22501
1.22594
1.225
1.225
1.225
1.225
1.225
1.225
1.225
1.22651
2.77118
1.225
1.225
1.225
1.225
1.225
1.225
1.22537
2.67126
0.882765
1.225
1.225
1.225
1.225
1.22513
2.4774
2.10449
1.00176
0.578105
1.225
1.225
1.225
1.225
1.225
1.225
1.225
1.225
1.225
1.225
1.225
1.225
1.225
1.225
1.225
1.225
1.225
1.225
1.225
1.225
1.225
1.225
1.225
1.225
1.225
1.225
1.225
1.225
1.225
1.225
1.225
1.225
1.225
1.225
1.225
1.225
1.225
1.225
1.225
1.225
1.225
1.225
1.225
1.225
1.22511
1.225
1.225
1.225
1.225
1.225
1.225
1.225
1.22518
2.24054
1.225
1.225
1.225
1.225
1.225
1.225
1.22505
2.00278
1.0669
1.225
1.225
1.225
1.225
1.22501
1.79048
2.41656
1.20698
0.852827
1.225
1.225
1.225
1.225
1.225
1.225
1.225
1.225
1.225
1.225
1.225
1.225
1.225
1.225
1.225
1.225
1.225
1.225
1.225
1.225
1.225
1.225
1.225
1.225
1.225
1.225
1.225
1.225
1.225
1.225
1.225
1.225
1.225
1.225
1.225
1.225
1.225
1.225
1.225
1.225
1.225
1.225
1.225
1.225
1.22501
1.225
1.225
1.225
1.225
1.225
1.225
1.225
1.22501
1.23797
1.225
1.225
1.225
1.225
1.225
1.225
1.22501
1.23259
2.92567
1.225
1.225
1.225
1.225
1.225
1.22502
1.22528
2.62907
1.83929
1.225
1.225
1.225
1.225
1.225
1.225
1.225
1.225
1.225
1.225
1.225
1.225
1.225
1.225
1.225
1.225
1.225
1.225
1.225
1.225
1.225
1.225
1.225
1.225
1.225
1.225
1.225
1.225
1.225
1.225
1.225
1.225
1.225
1.225
1.225
1.225
1.225
1.225
1.225
1.225
1.225
1.225
1.225
1.225
1.225
1.225
1.225
1.225
1.225
1.225
1.225
1.225
1.225
1.22501
1.225
1.225
1.225
1.225
1.225
1.225
1.225
1.22501
1.26313
1.225
1.225
1.225
1.225
1.225
1.225
1.22504
1.22548
2.9417
1.225
1.225
1.225
1.225
1.225
1.225
1.225
1.225
1.225
1.225
1.225
1.225
1.225
1.225
1.225
1.225
1.225
1.225
1.225
1.225
1.225
1.225
1.225
1.225
1.225
1.225
1.225
1.225
1.225
1.225
1.225
1.225
1.225
1.225
1.225
1.225
1.225
1.225
1.225
1.225
1.225
1.225
1.225
1.225
1.225
1.225
1.225
1.225
1.225
1.225
1.225
1.225
1.225
1.225
1.225
1.225
1.225
1.225
1.225
1.225
1.225
1.225
1.22501
1.225
1.225
1.225
1.225
1.225
1.225
1.225
1.22502
2.89103
1.225
1.225
1.225
1.225
1.225
1.225
1.225
1.225
1.225
1.225
1.225
1.225
1.225
1.225
1.225
1.225
1.225
1.225
1.225
1.225
1.225
1.225
1.225
1.225
1.225
1.225
1.225
1.225
1.225
1.225
1.225
1.225
1.225
1.225
1.225
1.225
1.225
1.225
1.225
1.225
1.225
1.225
1.225
1.225
1.225
1.225
1.225
1.225
1.225
1.225
1.225
1.225
1.225
1.225
1.225
1.225
1.225
1.225
1.225
1.225
1.225
1.225
1.225
1.225
1.225
1.225
1.225
1.225
1.225
1.24572
1.225
1.225
1.225
1.225
1.225
1.225
1.225
1.225
1.23643
2.48991
1.225
1.225
1.225
1.225
1.225
1.225
1.225
1.225
1.225
1.225
1.225
1.225
1.225
1.225
1.225
1.225
1.225
1.225
1.225
1.225
1.225
1.225
1.225
1.225
1.225
1.225
1.225
1.225
1.225
1.225
1.225
1.225
1.225
1.225
1.225
1.225
1.225
1.225
1.225
1.225
1.225
1.225
1.225
1.225
1.225
1.225
1.225
1.225
1.225
1.225
1.225
1.225
1.225
1.225
1.225
1.225
1.225
1.225
1.225
1.225
1.225
1.225
1.225
1.225
1.225
1.225
1.225
1.225
1.225
1.225
1.225
1.225
1.225
1.225
1.225
1.225
1.225
1.225
1.225
1.225
1.225
1.225
1.225
1.225
1.225
1.225
1.225
1.225
1.225
1.225
1.225
1.225
1.225
1.225
1.225
1.225
1.225
1.225
1.225
1.225
1.225
1.225
1.225
1.225
1.225
1.225
1.225
1.225
1.225
1.225
1.225
1.225
1.225
1.225
1.225
1.225
1.225
1.225
1.225
1.225
1.225
1.225
1.225
1.225
1.225
1.225
1.225
1.225
1.225
1.225
1.225
1.225
1.225
1.225
1.225
1.225
1.225
1.225
1.225
1.225
1.225
1.225
1.225
1.225
1.225
1.225
1.225
1.225
1.225
1.225
1.225
1.225
1.225
1.225
1.225
1.225
1.225
1.225
1.225
1.225
1.225
1.225
1.225
1.225
1.225
1.225
1.225
1.225
1.225
1.225
1.225
1.225
1.225
1.225
1.225
1.225
1.225
1.225
1.225
1.225
1.225
1.225
1.225
1.225
1.225
1.225
1.225
1.225
1.225
1.225
1.225
1.225
1.225
1.225
1.225
1.225
1.225
1.225
1.225
1.225
1.225
1.225
1.225
1.225
1.225
1.225
1.225
1.225
1.225
1.225
1.225
1.225
1.225
1.225
1.225
1.225
1.225
1.225
1.225
1.225
1.225
1.225
1.225
1.225
1.225
1.225
1.225
1.225
1.225
1.225
1.225
1.225
1.225
1.225
1.225
1.225
1.225
1.225
1.225
1.225
1.225
1.225
1.225
1.225
1.225
1.225
1.225
1.225
1.225
1.225
1.225
1.225
1.225
1.225
1.225
1.225
1.225
1.225
1.225
1.225
1.225
1.225
1.225
1.225
1.225
1.225
1.225
1.225
1.225
1.225
1.225
1.225
1.225
1.225
1.225
1.225
1.225
1.225
1.225
1.225
1.225
1.225
1.225
1.225
1.225
1.225
1.225
1.225
1.225
1.225
1.225
1.225
1.225
1.225
1.225
1.225
1.225
1.225
1.225
1.225
1.225
1.225
1.225
1.225
1.225
1.225
1.225
1.225
1.225
1.225
1.225
1.225
1.225
1.225
1.225
1.225
1.225
1.225
1.225
1.225
1.225
1.225
1.225
1.225
1.225
1.22506
1.22665
2.92564
2.69776
1.225
1.225
1.225
1.225
1.22556
2.74101
1.87879
0.88193
0.545369
1.225
1.225
1.225
1.225
1.22503
1.87831
2.2721
0.550731
1.225
1.225
1.225
1.225
1.22599
2.72356
1.62379
0.540114
1.225
1.225
1.225
1.22561
2.6454
1.60536
0.681632
1.225
1.225
1.225
1.225
1.225
1.225
1.22507
2.3261
2.15618
1.08355
0.707888
1.225
1.225
1.225
1.225
1.22501
1.36653
2.57521
0.720241
1.225
1.225
1.225
1.225
1.22513
2.43731
1.91377
0.699786
1.225
1.225
1.225
1.22526
1.52905
2.42497
1.3357
0.917464
1.225
1.225
1.225
1.225
1.225
1.225
1.225
1.22509
1.2262
2.15924
2.274
1.225
1.225
1.225
1.225
1.225
1.22609
2.80365
1.91399
1.225
1.225
1.225
1.225
1.225
1.26634
2.74744
1.28046
1.225
1.225
1.225
1.225
1.22544
2.65703
2.35031
1.19482
1.225
1.225
1.225
1.225
1.225
1.225
1.225
1.225
1.22518
2.54615
2.83603
1.225
1.225
1.225
1.225
1.225
1.22501
1.24385
2.22223
1.87135
1.225
1.225
1.225
1.225
1.225
1.22503
1.70789
2.04667
1.225
1.225
1.225
1.225
1.22505
1.99445
2.75908
1.6137
1.225
1.225
1.225
1.225
1.225
1.225
1.225
1.225
1.225
1.22509
2.88411
1.225
1.225
1.225
1.225
1.225
1.225
1.22501
1.5355
2.51595
1.225
1.225
1.225
1.225
1.225
1.225
1.22505
1.78853
1.225
1.225
1.225
1.225
1.225
1.225
1.22647
2.45985
1.225
1.225
1.225
1.225
1.225
1.22516
2.03667
2.46436
1.225
1.225
1.225
1.225
1.225
1.225
1.225
1.225
1.27846
2.49899
1.225
1.225
1.225
1.225
1.225
1.225
1.225
1.22509
2.42139
2.48571
1.225
1.225
1.225
1.225
1.225
1.225
1.225
1.22523
1.225
1.225
1.225
1.225
1.225
1.225
1.225
1.23595
1.225
1.225
1.225
1.225
1.225
1.225
1.22587
2.30977
1.225
1.225
1.225
1.225
1.225
1.225
1.225
1.225
1.225
1.66131
1.225
1.225
1.225
1.225
1.225
1.225
1.225
1.225
1.22503
2.00064
1.225
1.225
1.225
1.225
1.225
1.225
1.225
1.225
1.225
1.225
1.225
1.225
1.225
1.225
1.225
1.22616
1.225
1.225
1.225
1.225
1.225
1.225
1.225
1.22644
1.225
1.225
1.225
1.225
1.225
1.225
1.225
1.225
1.225
1.225
1.225
1.225
1.225
1.225
1.225
1.225
1.225
1.225
1.225
1.22508
1.225
1.225
1.225
1.225
1.225
1.225
1.225
1.225
1.225
1.225
1.225
1.225
1.225
1.225
1.225
1.225
1.225
1.225
1.225
1.225
1.225
1.225
1.225
1.225
1.225
1.225
1.225
1.225
1.225
1.225
1.225
1.225
1.225
1.225
1.225
1.225
1.225
1.225
1.225
1.225
1.225
1.225
1.225
1.225
1.225
1.225
1.225
1.225
1.225
1.225
1.225
1.225
1.225
1.225
1.225
1.225
1.225
1.225
1.225
1.225
1.225
1.225
1.225
1.225
1.225
1.225
1.225
1.225
1.225
1.225
1.225
1.225
1.225
1.225
1.225
1.225
1.225
1.225
1.225
1.225
1.225
1.225
1.225
1.225
1.225
1.225
1.225
1.225
1.225
1.225
1.225
1.225
1.225
1.225
1.225
1.225
1.225
1.225
1.225
1.225
1.225
1.225
1.225
1.225
1.225
1.225
1.225
1.225
1.225
1.225
1.225
1.225
1.65179
1.37953
2.18481
2.42608
1.52185
2.40209
1.52037
2.06869
1.41805
1.87728
1.31081
1.22506
2.4312
1.23404
2.36622
2.13305
2.26335
1.225
1.22786
1.225
1.25065
1.225
1.29393
1.225
1.225
1.225
1.225
1.225
1.225
1.225
1.225
1.225
1.225
1.225
1.225
1.21495
0.614919
0.51641
0.576179
0.702243
0.620629
0.81097
0.712688
0.959147
1.62231
1.35968
1.36806
0.841465
1.8721
1.21806
0.848927
2.0432
1.50074
1.89027
1.22551
0.921695
1.3245
1.08264
0.850883
0.925221
0.901801
1.19758
0.7536
0.714734
0.628008
0.749624
0.848138
0.589428
0.490951
0.683784
0.559075
1.2047
0.75224
0.713997
0.738391
0.843969
0.788095
1.25909
0.632092
0.976636
0.613252
0.747934
1.10049
0.712406
0.861891
1.22024
2.4784
1.8292
2.12885
1.6596
0.975204
1.46754
0.754756
1.07682
0.865245
0.916202
0.810332
1.41811
1.28924
0.525627
0.523984
0.533835
0.542581
0.552083
0.561573
0.551894
1.00997
1.24516
1.79681
1.00323
1.24378
2.03406
1.3675
0.938931
1.06524
1.37725
0.773375
0.634101
1.09279
0.948572
1.01071
1.25844
2.05273
1.37582
1.52141
1.44123
2.18139
0.500308
0.504807
0.515712
0.51569
0.52729
0.545027
0.532854
1.07485
0.808001
0.840182
0.681263
1.26606
1.13458
0.647968
0.537819
0.587713
0.546963
0.610199
0.567096
0.578296
0.623942
0.868344
0.988705
0.845656
0.947737
0.977087
1.10818
1.11185
0.839055
0.949521
0.946409
0.980067
0.976304
1.11002
1.1135
0.791162
0.936736
0.820196
0.853669
0.804938
0.858496
0.966301
0.637934
0.748209
0.710617
0.664725
0.714161
0.779232
0.761585
0.551147
0.53159
0.54206
0.571656
0.5731
0.584025
0.561571
1.27592
1.14241
0.641238
1.25186
0.675281
1.38812
0.71597
0.861789
0.957204
0.971339
0.988527
1.00386
1.12222
1.14001
0.515826
0.577836
0.53278
0.592449
0.545395
0.56569
0.614696
0.620668
0.710234
0.621396
0.656639
0.657659
0.759416
0.764831
1.15055
1.21479
0.931386
0.96946
1.72141
1.23808
1.47611
0.567963
0.600405
0.556745
0.590832
0.658374
0.606158
0.639643
0.884523
1.04045
0.997541
1.07708
1.0318
1.17284
1.22515
0.724272
0.627399
0.638516
0.678044
0.665831
0.775632
0.789886
0.661117
0.840772
0.939721
1.26474
0.772016
1.37308
0.809333
0.557082
0.522028
0.533851
0.568613
0.590038
0.602006
0.556485
0.985986
1.5609
1.68294
1.09202
0.654332
1.21608
0.697548
0.562079
0.564707
0.576596
0.588935
0.60077
0.624439
0.611859
0.833209
1.32299
0.70171
1.76804
0.95197
1.46053
0.7439
0.574408
0.630997
0.583484
0.5964
0.641022
0.652092
0.586575
0.546519
0.602276
0.55883
0.583452
0.627036
0.639807
0.570934
0.651628
0.665938
0.77266
0.692638
0.709245
0.807066
0.827029
1.5889
2.41274
1.66618
1.73193
1.36385
2.07038
2.40092
2.20921
1.32997
1.82647
2.41682
1.98051
1.41074
1.65995
1.32285
2.08425
1.62064
1.79849
1.67026
2.43436
2.41475
1.57406
2.40909
1.65017
1.30626
1.57601
1.64394
2.40996
0.729376
0.653856
0.671827
0.751261
0.774016
0.695917
0.800944
0.81331
0.906749
0.805333
0.99718
0.874351
0.883284
1.00832
1.7734
1.37465
1.64251
1.6174
1.47615
2.49832
2.24654
1.60236
2.61952
1.79769
1.96967
1.8286
2.94796
2.13748
2.47295
2.16385
2.00151
1.42554
1.52446
1.81243
1.68573
1.08368
1.21531
1.08044
1.26381
1.405
1.26305
1.40392
0.652464
0.65687
0.603539
0.618664
0.738299
0.679884
0.670287
1.21609
1.08374
1.08154
1.26512
1.40763
1.26766
1.40434
0.873186
1.01028
1.00858
0.910617
1.0525
1.02217
1.00411
0.805293
0.906265
0.81715
0.87926
0.991328
0.992015
0.871601
0.579455
0.600332
0.553293
0.592085
0.678571
0.627413
0.642358
0.628941
0.632252
0.581122
0.608397
0.723963
0.66813
0.66078
0.581798
0.652917
0.599652
0.681525
0.626054
0.652623
0.710895
1.04455
1.10158
1.14101
1.17966
1.2217
1.29749
1.38718
0.957383
1.491
1.29869
1.32781
0.838795
1.98947
1.39695
0.887885
0.825845
0.813965
0.873203
1.00145
0.98671
0.910689
0.681812
0.813778
0.792177
0.750217
0.728239
0.849611
0.874972
0.843303
2.00729
1.40793
1.52393
0.881947
2.15828
1.39887
0.612089
0.62133
0.667401
0.714831
0.632999
0.679235
0.601347
1.09079
1.24327
1.10694
1.41757
1.27652
1.29706
1.43964
0.701735
0.766514
0.728904
0.824056
0.880056
0.886167
0.814581
0.697678
0.758746
0.701337
0.883391
0.814916
0.822089
0.892229
2.33958
1.59151
2.0832
1.59401
2.40181
2.16967
2.88819
1.1538
1.36088
1.15024
1.31322
1.55364
1.31176
1.55418
1.36355
1.15675
1.15251
1.3155
1.56097
1.55588
1.31928
0.954275
0.933052
0.82652
0.896546
1.04499
0.913704
1.02404
0.584384
0.626309
0.597142
0.657838
0.690396
0.703787
0.64471
1.03269
1.11889
1.47782
1.47757
0.948221
1.93813
1.36531
2.42854
2.37969
1.74027
2.19423
2.88752
2.59752
2.86219
1.16633
1.40256
1.18521
1.57455
1.32997
1.35251
1.60184
0.637006
0.718781
0.746717
0.770446
0.660667
0.709107
0.691842
0.770944
0.725308
0.711305
0.833839
0.923678
0.849256
0.905532
0.589624
0.624236
0.635442
0.637298
0.648893
0.712819
0.701599
0.678321
0.812154
0.778659
0.761818
0.724963
0.83341
0.873301
1.74863
1.36603
1.55826
1.40129
1.24859
1.79644
1.58239
1.27539
1.18566
1.13727
1.33406
1.53256
1.39077
1.47735
0.618479
0.6554
0.761707
0.679388
0.667458
0.691897
0.606069
1.12733
1.37486
1.27177
1.41415
1.31471
1.49029
1.60136
0.98108
1.01155
0.889037
1.07144
0.935059
0.959872
1.10198
0.815714
0.760036
0.76142
0.819989
0.894721
0.817983
0.89895
0.656885
0.684701
0.687645
0.768231
0.743544
0.75369
0.759585
1.20588
1.75255
0.901022
2.44046
1.33488
1.90567
1.02403
1.80002
1.54247
2.35933
1.33171
0.97698
1.83665
1.29212
0.837793
0.74372
0.776135
0.864514
0.807521
0.903849
0.937601
1.06542
1.59729
0.913189
2.56844
1.59415
2.24425
1.43485
1.53527
2.3764
2.16088
2.2638
1.90132
1.72055
2.42845
1.44203
1.27295
1.21932
1.3925
1.71402
1.64751
1.45384
0.649217
0.761172
0.661719
0.700816
0.807013
0.820682
0.687625
0.678905
0.654843
0.623211
0.68831
0.79803
0.735788
0.748807
0.742473
0.838345
0.762971
0.947571
0.86858
0.891992
0.977822
1.04151
1.1268
1.113
1.13517
1.11686
1.24783
1.25562
1.00136
1.11712
1.1127
1.11678
1.11326
1.25005
1.25493
0.717098
0.892532
0.827773
0.813753
0.746671
0.860162
0.934532
0.835447
0.982646
0.862344
1.01579
0.890234
0.921785
1.05337
0.650744
0.643765
0.654059
0.74047
0.751657
0.760318
0.74858
2.24582
2.68486
2.07046
2.3865
2.23938
1.88456
2.07219
2.92179
3.7476
1.70714
2.84445
2.24708
3.13878
2.96943
1.88844
3.05114
2.15598
3.24957
2.99844
3.19388
3.22165
3.08324
3.19637
3.217
3.13413
3.24895
3.22979
3.26687
2.87502
2.33143
1.40805
1.2612
2.38619
2.30374
1.22598
2.31533
1.22515
1.2908
1.63226
1.99572
2.6843
2.8093
1.22858
1.23421
1.24315
1.59855
1.3249
1.34164
1.225
1.225
1.225
1.225
1.225
1.225
2.62465
2.52489
2.92783
1.96167
1.50355
1.3831
2.08983
1.78946
1.13847
1.25863
1.60204
2.27838
2.60667
3.0494
2.93723
2.60152
2.84168
2.73842
2.50697
2.56254
2.40946
1.23409
2.88711
1.225
1.225
2.81553
2.55367
1.75666
1.87506
2.05275
1.86023
1.68389
2.13516
1.75188
1.64674
2.15373
1.2454
2.12435
1.22511
1.22731
1.71918
1.22502
1.22924
1.22634
1.49074
1.47718
1.87967
1.29468
1.72694
1.77128
1.34852
1.45217
1.6874
1.30266
2.01741
2.02421
1.82866
1.87098
1.63941
2.21596
1.63352
1.78041
2.20767
1.28852
1.23172
1.22501
1.225
1.22501
1.22581
1.225
1.22501
1.225
1.23924
1.225
1.225
1.225
2.09935
1.22512
1.225
1.225
1.225
1.225
1.225
2.49911
2.36898
3.14568
4.18103
1.2367
1.72552
1.225
1.225
1.225
1.225
1.225
1.225
1.225
1.225
1.225
1.225
1.225
1.225
1.225
1.225
1.225
1.225
1.225
1.225
1.225
1.24708
1.225
1.225
1.225
1.225
1.225
1.225
1.225
1.225
1.225
1.225
1.225
1.225
1.225
1.225
1.225
1.225
1.225
1.225
1.225
1.225
1.225
1.225
1.225
1.225
1.225
1.225
1.225
1.225
1.225
1.225
1.225
1.225
1.225
1.225
1.225
1.225
1.225
1.225
1.225
1.225
1.225
1.225
1.225
1.225
1.225
1.225
1.225
1.225
1.225
1.225
1.225
1.225
1.225
1.225
1.225
1.225
1.225
1.225
1.225
1.225
1.225
1.225
1.225
1.225
1.225
1.225
1.225
1.225
1.225
1.225
1.225
1.225
1.225
1.225
1.225
1.225
1.225
1.225
1.225
1.225
1.225
1.225
1.225
1.225
1.225
1.225
1.225
1.225
1.225
1.225
1.225
1.225
1.225
1.225
1.225
1.225
1.225
1.225
1.225
1.225
1.225
1.225
1.225
1.225
1.225
1.225
1.225
1.225
1.225
1.225
1.225
1.225
1.225
1.225
1.225
1.225
1.225
1.225
1.225
1.225
1.225
1.225
1.225
1.225
1.225
1.225
1.225
1.225
1.225
1.22554
1.225
1.23186
1.23491
1.34201
1.22555
1.32251
1.22504
1.22504
1.22568
1.22531
1.225
1.225
1.225
1.225
1.22501
1.22501
1.22501
1.22501
1.225
1.225
1.225
1.225
1.225
1.225
1.225
1.225
1.225
1.225
1.225
1.225
1.225
1.225
1.225
1.225
1.225
1.225
1.225
1.225
1.225
1.225
1.225
1.225
1.225
1.22501
1.225
1.225
1.225
1.225
1.225
1.225
1.225
1.225
1.225
1.225
1.225
1.225
1.225
1.225
1.225
1.225
1.225
1.225
1.225
1.225
1.225
1.225
1.225
1.225
1.225
1.225
1.225
1.225
1.225
1.225
1.225
1.225
1.225
1.225
1.225
1.225
1.225
1.225
1.225
1.225
1.225
1.225
1.225
1.225
1.225
1.225
1.225
1.225
1.225
1.225
1.225
1.225
1.225
1.225
1.225
1.225
1.225
1.225
1.225
1.225
1.22824
1.22606
1.22522
1.225
1.225
1.225
1.225
1.225
1.225
1.225
1.225
1.225
1.225
1.225
1.225
1.225
1.225
1.225
1.225
1.225
1.225
1.225
1.225
1.225
1.225
1.225
1.225
1.225
1.225
1.225
1.225
1.225
1.225
1.225
1.225
1.225
1.225
1.225
1.225
1.225
1.225
1.225
1.225
1.225
1.225
1.225
1.225
1.225
1.225
1.225
1.225
1.225
1.225
1.225
1.225
1.225
1.225
1.225
1.225
1.225
1.225
1.225
1.225
1.225
1.225
1.225
1.225
1.225
1.225
1.225
1.225
1.225
1.225
1.225
1.225
1.225
1.225
1.225
1.225
1.225
1.225
1.225
1.225
1.225
1.225
1.225
1.225
1.225
1.225
1.225
1.225
1.225
1.225
1.225
1.225
1.225
1.225
1.225
1.225
1.225
1.225
1.225
1.225
1.225
1.225
1.225
1.225
1.225
1.225
1.225
1.225
1.225
1.225
1.225
1.225
1.225
1.225
1.225
1.225
1.225
1.225
1.225
1.225
1.225
1.225
1.225
1.225
1.225
1.225
1.225
1.225
1.225
1.225
1.225
1.22663
1.26533
1.22546
1.22598
1.23217
1.2371
1.22512
1.225
1.22503
1.22501
1.22507
1.225
1.22501
1.225
1.225
1.225
1.225
1.225
1.225
1.225
1.225
1.225
1.225
1.225
1.225
1.225
1.225
1.22501
1.225
1.225
1.225
1.22502
1.225
1.225
1.225
1.225
1.225
1.225
1.225
1.225
1.225
1.225
1.225
1.225
1.225
1.225
1.225
1.225
1.225
1.225
1.225
1.225
1.225
1.225
1.225
1.225
1.225
1.225
1.225
1.225
1.225
1.225
1.225
1.225
1.225
1.225
1.225
1.225
1.225
1.225
1.225
1.225
1.225
1.225
1.225
1.225
1.225
1.225
1.225
1.225
1.225
1.225
1.225
1.225
1.225
1.225
1.225
1.225
1.225
1.225
1.225
1.225
1.225
1.225
1.225
1.225
1.225
1.225
1.225
1.225
1.225
1.225
1.225
1.225
1.225
1.225
1.225
1.225
1.225
1.225
1.225
1.225
1.225
1.225
1.225
1.225
1.225
1.225
1.225
1.225
1.225
1.225
1.225
1.225
1.225
1.225
1.225
1.225
1.225
1.225
1.225
1.225
1.225
1.225
1.225
1.225
1.225
1.225
1.225
1.225
1.225
1.225
1.225
1.225
1.225
1.225
1.225
1.225
1.225
1.225
1.225
1.225
1.225
1.225
1.225
1.225
1.225
1.225
1.225
1.225
1.225
1.225
1.225
1.225
1.225
1.225
1.225
1.225
1.225
1.225
1.225
1.225
1.225
1.225
1.225
1.225
1.225
1.225
1.225
1.225
1.225
1.225
1.225
1.225
1.225
1.225
1.225
1.225
1.225
1.225
1.225
1.225
1.225
1.225
1.225
1.225
1.225
1.225
1.225
1.225
1.225
1.225
1.225
1.225
1.225
1.225
1.225
1.225
1.225
1.225
1.225
1.225
1.225
1.225
1.225
1.225
1.225
1.225
1.225
1.225
1.225
1.225
1.225
1.225
1.225
1.225
1.225
1.225
1.225
1.225
1.225
1.225
1.225
1.225
1.225
1.225
1.22606
1.22501
1.225
1.225
1.225
1.22525
1.225
1.225
1.225
1.225
1.225
1.225
1.225
1.225
1.225
1.225
1.225
1.225
1.225
1.225
1.225
1.225
1.225
1.225
1.225
1.225
1.225
1.225
1.225
1.225
1.225
1.225
1.225
1.225
1.225
1.225
1.225
1.225
1.225
1.225
1.225
1.225
1.225
1.225
1.225
1.225
1.225
1.225
1.225
1.225
1.225
1.225
1.225
1.225
1.225
1.225
1.225
1.225
1.225
1.225
1.225
1.225
1.225
1.225
1.225
1.225
1.225
1.225
1.225
1.225
1.225
1.225
1.225
1.225
1.225
1.225
1.225
1.225
1.225
1.225
1.225
1.225
1.225
1.225
1.225
1.225
1.225
1.225
1.225
1.225
1.225
1.225
1.225
1.225
1.225
1.225
1.225
1.225
1.225
1.225
1.225
1.225
1.225
1.225
1.225
1.225
1.225
1.225
1.225
1.225
1.225
1.225
1.225
1.225
1.225
1.225
1.225
1.225
1.225
1.225
1.225
1.225
1.225
1.225
1.225
1.225
1.225
1.225
1.225
1.225
1.225
1.225
1.225
1.225
1.225
1.225
1.225
1.225
1.225
1.225
1.225
1.225
1.225
1.225
1.225
1.225
1.225
1.225
1.225
1.225
1.225
1.225
1.225
1.225
1.225
1.225
1.225
1.225
1.225
1.225
1.225
1.225
1.225
1.225
1.225
1.225
1.225
1.225
1.225
1.225
1.225
1.225
1.225
1.225
1.225
1.225
1.225
1.225
1.225
1.225
1.225
1.225
1.225
1.225
1.225
1.225
1.225
1.225
1.225
1.225
1.225
1.225
1.225
1.225
1.225
1.225
1.225
1.225
1.225
1.225
1.225
1.225
1.225
1.225
1.225
1.225
1.225
1.225
1.225
1.225
1.225
1.225
1.225
1.225
1.225
1.225
1.225
1.225
1.225
1.225
1.225
1.225
1.225
1.225
1.225
1.225
1.225
1.225
1.225
1.225
1.225
1.225
1.225
1.225
1.225
1.225
1.225
1.225
1.225
1.225
1.225
1.225
1.225
1.225
1.225
1.225
1.225
1.225
1.225
1.225
1.225
1.225
1.225
1.225
1.225
1.225
1.225
1.225
1.225
1.225
1.225
1.225
1.225
1.225
1.225
1.225
1.225
1.225
1.225
1.225
1.225
1.225
1.225
1.225
1.225
1.225
1.225
1.225
1.225
1.225
1.225
1.225
1.225
1.225
1.225
1.225
1.225
1.225
1.225
1.225
1.225
1.225
1.225
1.225
1.225
1.225
1.225
1.225
1.225
1.225
1.225
1.225
1.225
1.225
1.225
1.225
1.225
1.225
1.225
1.225
1.225
1.225
1.225
1.225
1.225
1.225
1.225
1.225
1.225
1.225
1.225
1.225
1.225
1.225
1.225
1.225
1.225
1.225
1.225
1.225
1.225
1.225
1.225
1.225
1.225
1.225
1.225
1.225
1.225
1.225
1.225
1.225
1.225
1.225
1.225
1.225
1.225
1.225
1.225
1.225
1.225
1.225
1.225
1.225
1.225
1.225
1.225
1.225
1.225
1.225
1.225
1.225
1.225
1.225
1.225
1.225
1.225
1.225
1.225
1.225
1.225
1.225
1.225
1.225
1.225
1.225
1.225
1.225
1.225
1.225
1.225
1.225
1.225
1.225
1.225
1.225
1.225
1.225
1.225
1.225
1.225
1.225
1.225
1.225
1.225
1.225
1.225
1.225
1.225
1.225
1.225
1.225
1.225
1.225
1.225
1.225
1.225
1.225
1.225
1.225
1.225
1.225
1.225
1.225
1.225
1.225
1.225
1.225
1.225
1.225
1.225
1.225
1.225
1.225
1.225
1.225
1.225
1.225
1.225
1.225
1.225
1.225
1.225
1.225
1.225
1.225
1.225
1.225
1.225
1.225
1.225
1.225
1.225
1.225
1.225
1.225
1.225
1.225
1.225
1.225
1.225
1.225
1.225
1.225
1.225
1.225
1.225
1.225
1.225
1.225
1.225
1.225
1.225
1.225
1.225
1.225
1.225
1.225
1.225
1.225
1.225
1.225
1.225
1.225
1.225
1.225
1.225
1.225
1.225
1.225
1.225
1.225
1.225
1.225
1.225
1.225
1.225
1.225
1.225
1.225
1.225
1.225
1.225
1.225
1.225
1.225
1.225
1.225
1.225
1.225
1.225
1.225
1.225
1.225
1.225
1.225
1.225
1.225
1.225
1.225
1.225
1.225
1.225
1.225
1.225
1.225
1.225
1.225
1.225
1.225
1.225
1.225
1.225
1.225
1.225
1.225
1.225
1.225
1.225
1.225
1.225
1.225
1.225
1.225
1.225
1.225
1.225
1.225
1.225
1.225
1.225
1.225
1.225
1.225
1.225
1.225
1.225
1.225
1.225
1.225
1.225
1.225
1.225
1.225
1.225
1.225
1.225
1.225
1.225
1.225
1.225
1.225
1.225
1.225
1.225
1.225
1.225
1.225
1.225
1.225
1.225
1.225
1.225
1.225
1.225
1.225
1.225
1.225
1.225
1.225
1.225
1.225
1.225
1.225
1.225
1.225
1.225
1.225
1.225
1.225
1.225
1.225
1.225
1.225
1.225
1.225
1.225
1.225
1.225
1.225
1.225
1.225
1.225
1.225
1.225
1.225
1.225
1.225
1.225
1.225
1.225
1.225
1.225
1.225
1.225
1.225
1.225
1.225
1.225
1.225
1.225
1.225
1.225
1.225
1.225
1.225
1.225
1.225
1.225
1.225
1.225
1.225
1.225
1.225
1.225
1.225
1.225
1.225
1.225
1.225
1.225
1.225
1.225
1.225
1.225
1.225
1.225
1.225
1.225
1.225
1.225
1.225
1.225
1.225
1.225
1.225
1.225
1.225
1.225
1.225
1.225
1.225
1.225
1.225
1.225
1.225
1.225
1.225
1.225
1.225
1.225
1.225
1.225
1.225
1.225
1.225
1.225
1.225
1.225
1.225
1.225
1.225
1.225
1.225
1.225
1.225
1.225
1.225
1.225
1.225
1.225
1.225
1.225
1.225
1.225
1.225
1.225
1.225
1.225
1.225
1.225
1.225
1.225
1.225
1.225
1.225
1.225
1.225
1.225
1.225
1.225
1.225
1.225
1.225
1.225
1.225
1.225
1.225
1.225
1.225
1.225
1.225
1.225
1.225
1.225
1.225
1.225
1.225
1.225
1.225
1.225
1.225
1.225
1.225
1.225
1.225
1.225
1.225
1.225
1.225
1.225
1.225
1.225
1.225
1.225
1.225
1.225
1.225
1.225
1.225
1.225
1.225
1.225
1.225
1.225
1.225
1.225
1.225
1.225
1.225
1.225
1.225
1.225
1.225
1.225
1.225
1.225
1.225
1.225
1.225
1.225
1.225
1.225
1.225
1.225
1.225
1.225
1.225
1.225
1.225
1.225
1.225
1.225
1.225
1.225
1.225
1.225
1.225
1.225
1.225
1.225
1.225
1.225
1.225
1.225
1.225
1.225
1.225
1.225
1.225
1.225
1.225
1.225
1.225
1.225
1.225
1.225
1.225
1.225
1.225
1.225
1.225
1.225
1.225
1.225
1.225
1.225
1.225
1.225
1.225
1.225
1.225
1.225
1.225
1.225
1.225
1.225
1.225
1.225
1.225
1.225
1.225
1.225
1.225
1.225
1.225
1.225
1.225
1.225
1.225
1.225
1.225
1.225
1.225
1.225
1.225
1.225
1.225
1.225
1.225
1.225
1.225
1.225
1.225
1.225
1.225
1.225
1.225
1.225
1.225
1.225
1.225
1.225
1.225
1.225
1.225
1.225
1.225
1.225
1.225
1.225
1.225
1.225
1.225
1.225
1.225
1.225
1.225
1.225
1.225
1.225
1.225
1.225
1.225
1.225
1.225
1.225
1.225
1.225
1.225
1.225
1.225
1.225
1.225
1.225
1.225
1.225
1.225
1.225
1.225
1.225
1.225
1.225
1.225
1.225
1.225
1.225
1.225
1.225
1.225
1.225
1.225
1.225
1.225
1.225
1.225
1.225
1.225
1.225
1.225
1.225
1.225
1.225
1.225
1.225
1.225
1.225
1.225
1.225
1.225
1.225
1.225
1.225
1.225
1.225
1.225
1.225
1.225
1.225
1.225
1.225
1.225
1.225
1.225
1.225
1.225
1.225
1.225
1.225
1.225
1.225
1.225
1.225
1.225
1.225
1.225
1.225
1.225
1.225
1.225
1.225
1.225
1.225
1.225
1.225
1.225
1.225
1.225
1.225
1.225
1.225
1.225
1.225
1.225
1.225
1.225
1.225
1.225
1.225
1.225
1.225
1.225
1.225
1.225
1.225
1.225
1.225
1.225
1.225
1.225
1.225
1.225
1.225
1.225
1.225
1.225
1.225
1.225
1.225
1.225
1.225
1.225
1.225
1.225
1.225
1.225
1.225
1.225
1.225
1.225
1.225
1.225
1.225
1.225
1.225
1.225
1.225
1.225
1.225
1.225
1.225
1.225
1.225
1.225
1.225
1.225
1.225
1.225
1.225
1.225
1.225
1.225
1.225
1.225
1.225
1.225
1.225
1.225
1.225
1.225
1.225
1.225
1.225
1.225
1.225
1.225
1.225
1.225
1.225
1.225
1.225
1.225
1.225
1.225
1.225
1.225
1.225
1.225
1.225
1.225
1.225
1.225
1.225
1.225
1.225
1.225
1.225
1.225
1.225
1.225
1.225
1.225
1.225
1.225
1.225
1.225
1.225
1.225
1.225
1.225
1.225
1.225
1.225
1.225
1.225
1.225
1.225
1.225
1.225
1.225
1.225
1.225
1.225
1.225
1.225
1.225
1.225
1.225
1.225
1.225
1.225
1.225
1.225
1.225
1.225
1.225
1.225
1.225
1.225
1.225
1.225
1.225
1.225
1.225
1.225
1.225
1.225
1.225
1.225
1.225
1.225
1.225
1.225
1.225
1.225
1.225
1.225
1.225
1.225
1.225
1.225
1.225
1.225
1.225
1.225
1.225
1.225
1.225
1.225
1.225
1.225
1.225
1.225
1.225
1.225
1.225
1.225
1.225
1.225
1.225
1.225
1.225
1.225
1.225
1.225
1.225
1.225
1.225
1.225
1.225
1.225
1.225
1.225
1.225
1.225
1.225
1.225
1.225
1.225
1.225
1.225
1.225
1.225
1.225
1.225
1.225
1.225
1.225
1.225
1.225
1.225
1.225
1.225
1.225
1.225
1.225
1.225
1.225
1.225
1.225
1.225
1.225
1.225
1.225
1.225
1.225
1.225
1.225
1.225
1.225
1.225
1.225
1.225
1.225
1.225
1.225
1.225
1.225
1.225
1.225
1.225
1.225
1.225
1.225
1.225
1.225
1.225
1.225
1.225
1.225
1.225
1.225
1.225
1.225
1.225
1.225
1.225
1.225
1.225
1.225
1.225
1.225
1.225
1.225
1.225
1.225
1.225
1.225
1.225
1.225
1.225
1.225
1.225
1.225
1.225
1.225
1.225
1.225
1.225
1.225
1.225
1.225
1.225
1.225
1.225
1.225
1.225
1.225
1.225
1.225
1.225
1.225
1.225
1.225
1.225
1.225
1.225
1.225
1.225
1.225
1.225
1.225
1.225
1.225
1.225
1.225
1.225
1.225
1.225
1.225
1.225
1.225
1.225
1.225
1.225
1.225
1.225
1.225
1.225
1.225
1.225
1.225
1.225
1.225
1.225
1.225
1.225
1.225
1.225
1.225
1.225
1.225
1.225
1.225
1.225
1.225
1.225
1.225
1.225
1.225
1.225
1.225
1.225
1.225
1.225
1.225
1.225
1.225
1.225
1.225
1.225
1.225
1.225
1.225
1.225
1.225
1.225
1.225
1.225
1.225
1.225
1.225
1.225
1.225
1.225
1.225
1.225
1.225
1.225
1.225
1.225
1.225
1.225
1.225
1.225
1.225
1.225
1.225
1.225
1.225
1.225
1.225
1.225
1.225
1.225
1.225
1.225
1.225
1.225
1.225
1.225
1.225
1.225
1.225
1.225
1.225
1.225
1.225
1.225
1.225
1.225
1.225
1.225
1.225
1.225
1.225
1.225
1.225
1.225
1.225
1.225
1.225
1.225
1.225
1.225
1.225
1.225
1.225
1.225
1.225
1.225
1.225
1.225
1.225
1.225
1.225
1.225
1.225
1.225
1.225
1.225
1.225
1.225
1.225
1.225
1.225
1.225
1.225
1.225
1.225
1.225
1.225
1.225
1.225
1.225
1.225
1.225
1.225
1.225
1.225
1.225
1.225
1.225
1.225
1.225
1.225
1.225
1.225
1.225
1.225
1.225
1.225
1.225
1.225
1.225
1.225
1.225
1.225
1.225
1.225
1.225
1.225
1.225
1.225
1.225
1.225
1.225
1.225
1.225
1.225
1.225
1.225
1.225
1.225
1.225
1.225
1.225
1.225
1.225
1.225
1.225
1.225
1.225
1.225
1.225
1.225
1.225
1.225
1.225
1.225
1.225
1.225
1.225
1.225
1.225
1.225
1.225
1.225
1.225
1.225
1.225
1.225
1.225
1.225
1.225
1.225
1.225
1.225
1.225
1.225
1.225
1.225
1.225
1.225
1.225
1.225
1.225
1.225
1.225
1.225
1.225
1.225
1.225
1.225
1.225
1.225
1.225
1.225
1.225
1.225
1.225
1.225
1.225
1.225
1.225
1.225
1.225
1.225
1.225
1.225
1.225
1.225
1.225
1.225
1.225
1.225
1.225
1.225
1.225
1.225
1.225
1.225
1.225
1.225
1.225
1.225
1.225
1.225
1.225
1.225
1.225
1.225
1.225
1.225
1.225
1.225
1.225
1.225
1.225
1.225
1.225
1.225
1.225
1.225
1.225
1.225
1.225
1.225
1.225
1.225
1.225
1.225
1.225
1.225
1.225
1.225
1.225
1.225
1.225
1.225
1.225
1.225
1.225
1.225
1.225
1.225
1.225
1.225
1.225
1.225
1.225
1.225
1.225
1.225
1.225
1.225
1.225
1.225
1.225
1.225
1.225
1.225
1.225
1.225
1.225
1.225
1.225
1.225
1.225
1.225
1.225
1.225
1.225
1.225
1.225
1.225
1.225
1.225
1.225
1.225
1.225
1.225
1.225
1.225
1.225
1.225
1.225
1.225
1.225
1.225
1.225
1.225
1.225
1.225
1.225
1.225
1.225
1.225
1.225
1.225
1.225
1.225
1.225
1.225
1.225
1.225
1.225
1.225
1.225
1.225
1.225
1.225
1.225
1.225
1.225
1.225
1.225
1.225
1.225
1.225
1.225
1.225
1.225
1.225
1.225
1.225
1.225
1.225
1.225
1.225
1.225
1.225
1.225
1.225
1.225
1.225
1.225
1.225
1.225
1.225
1.225
1.225
1.225
1.225
1.22503
1.225
1.225
1.22511
1.225
1.22681
1.22597
1.23654
1.22515
1.22516
1.22506
1.22505
1.225
1.22576
1.22501
1.22501
1.225
1.22507
1.225
1.22501
1.225
1.225
1.225
1.225
1.225
1.225
1.225
1.225
1.225
1.225
1.225
1.225
1.225
1.225
1.225
1.225
1.225
1.22616
1.225
1.225
1.225
1.225
1.22501
1.225
1.225
1.22503
1.22532
1.22503
1.22517
1.22951
1.22508
1.22545
1.22536
1.22708
1.22503
1.225
1.225
1.225
1.225
1.225
1.225
1.225
1.225
1.225
1.225
1.225
1.225
1.225
1.225
1.225
1.225
1.22503
1.225
1.225
1.225
1.22501
1.225
1.225
1.225
1.22501
1.225
1.225
1.225
1.225
1.225
1.225
1.22505
1.22535
1.22501
1.22502
1.2251
1.22521
1.225
1.225
1.225
1.225
1.225
1.22502
1.22635
1.22501
1.22506
1.22501
1.22502
1.225