/*--------------------------------*- C++ -*----------------------------------*\
  =========                 |
  \\      /  F ield         | OpenFOAM: The Open Source CFD Toolbox
   \\    /   O peration     | Website:  https://openfoam.org
    \\  /    A nd           | Version:  9
     \\/     M anipulation  |
\*---------------------------------------------------------------------------*/
FoamFile
{
    format      ascii;
    class       volScalarField;
    location    "0.0005";
    object      impulseMax;
}
// * * * * * * * * * * * * * * * * * * * * * * * * * * * * * * * * * * * * * //

dimensions      [1 -1 -1 0 0 0 0];

internalField   nonuniform List<scalar> 
5811
(
1783.8
1488.11
10231.2
8055.19
1508.94
823.812
1539.55
1085.85
1756.94
1899.5
745.696
1751.63
9883.44
1675.7
1488.93
980.214
679.788
819.037
556.186
499.459
803.325
592.314
10661.5
1228.83
1175.02
1149.5
1673.65
2679.99
1986.73
1056.81
1777.54
905.328
631.858
1554.62
1484.09
676.199
755.857
1580.67
2161.86
2590.2
1932.2
132594
8384.66
5231.38
1046.49
2029.92
1977.12
2607.57
130775
4342.89
9370.61
980.749
708.806
1500.04
669.958
950.282
1579.49
811.005
1610.81
692.281
822.084
797.656
1367.42
1528.34
3697.06
1121.16
782.693
1470.62
652.421
1479.76
686.494
918.067
1573.64
669.504
794.86
762.544
1405.03
762.646
1321.03
3887.85
1160.17
1637.92
1013.58
1158.41
2672.88
1752.5
1738.78
975.434
8251.69
2468.42
1901.5
128977
5457.32
8251.09
1307.96
639.012
1434.41
794.353
772.427
3539.34
995.225
1127.29
1645.69
1118.6
2658.26
1653.75
959.157
1742.15
1747.6
2146.46
1749.02
151208
4967.05
9883.26
892.654
1050.61
1792.65
1175.65
1148.34
2677.92
1971.43
1777.06
655.857
1572.73
797.944
921.876
1492.3
685.994
1597.89
2030.74
2607.18
9371.2
1986.09
130776
4329.33
8059.27
1109.92
814.584
1520.69
1321.22
784.193
797.022
4144.93
816.439
699.195
844.19
1490.88
1522.63
4360.18
1160.51
602.52
435.618
444.125
856.089
477.046
486.348
711.096
1226.01
1191.77
498.599
382.892
1757.04
505.482
963.081
828.927
1459.82
767.534
672.073
1056.56
1430.28
3621.63
436.323
527.947
419.369
660.658
454.509
829.85
477.682
2197.94
2001.89
944.275
1998.46
128730
10660.1
5413.25
896.012
486.905
503.856
1238.5
384.898
1780.62
502.595
11512.4
7538.48
5538.95
23932
4537.43
17509.3
16849.4
12997.7
6731.35
8141.12
36608.3
14410.2
11519.9
4327.21
4377.98
1712.25
3243.2
2741.26
2782.07
2190.68
5679.04
7340.1
5533.16
5069.45
25870.1
15925.1
24699.6
4568.85
3304.44
1384.3
1467.29
1367.16
1982.58
1747.14
1971.05
1049.34
813.071
736.658
1186.03
721.089
1129.2
1191.23
8365.92
5791.9
5986.5
23087.6
5271.37
27734.9
18327.4
795.234
1114.11
744.887
1416.55
678.011
1390.88
829.943
970.481
1441.11
1175.49
882.019
1330.91
862.529
932.708
963.632
860.429
1405.67
1149.13
856.289
1316.42
911.577
1066.14
2674.89
947.401
2659.87
996.662
990.263
2590.01
939.381
1628.2
1585.34
965.847
1655.17
978.253
942.182
4659.92
3545.06
2736.48
1847.61
3195.9
2600.88
6625.39
5264.51
3957.74
3934.69
2053.77
3303.15
10912.5
3368.36
4727.17
3598.36
2890.66
1832.25
3017.41
2526.04
5622.01
18709.7
104685
77160.3
80268.7
79113.7
43469.1
29497.2
12486
6638.02
8084.03
34410.1
15668.5
4469.56
13139.3
8644.86
3694.49
3576.59
14689.2
3212.04
12026.5
12634.1
3390.77
1470.02
1516.85
1448.62
2074.85
2079.31
1850.26
4403.56
2661.66
3306.97
1748.83
2560.61
3044.85
6671.37
4351.74
3152.32
2543.55
1707.6
2535.1
6625.49
3024.97
5049.95
3896.55
3916.34
2041.59
11312.7
3351.38
3366.43
16542.6
72350.9
49045.7
93195
81675.4
49349.4
49938.1
9754.03
4289.84
4176.86
24006.4
3070.82
9335.25
8919.37
12618
6203.21
8034.99
27404
15231.6
4329.24
13592
3305.02
1384.72
1368.76
1467.59
1748.12
1982.82
1972.2
1108.21
777.884
779.148
1183.41
724.915
1110.91
1131.74
1229.52
1004.41
2125.67
1324.04
1786.16
917.06
1315.15
1256.64
1063.8
2362
1406.77
1838.36
1342.5
918.332
1521.13
2034.63
2992.36
3071.81
2672.17
1712.94
1847.98
1030.07
750.871
722.585
1176.32
683.527
1113.61
1030.31
1178.65
1350.37
994.556
2170.96
868.115
1704.79
1211.52
1174.4
1265.75
978.642
2036.58
1254.12
879.876
1686.73
1405.18
1844.75
2720.12
2727.89
1734.34
2448.74
1701.36
896.263
852.919
1094.89
1309.11
831.356
1295.54
919.102
894.417
1094.78
1309.57
856.885
917.279
825.38
1294.88
1022.97
2652.17
937.972
2636.78
987.453
985.273
2568.3
911.655
1698.15
1696
1000.16
913.564
1406.84
906.254
3042.7
1329.33
1441.38
1328.4
1922.62
1922.85
1771.43
10385.3
5844.38
7195.78
30013.1
4021.28
13390.9
15463
4666.22
1906.27
3538.5
3537.88
3070.4
3070.17
10102.8
4377.71
1711.96
2742.52
3243.49
5678.02
2782.83
2190.91
20535.6
100522
97219.3
100521
28568.6
28568.9
68541.8
6957.79
3523.15
3526.27
13142.5
12930.6
3194.81
12932.2
10385.2
7195.22
5844.41
30013.3
13390.6
4020.99
15463.1
1070.48
934.793
1841.47
1167.66
852.086
1713.09
1259.89
1067.17
933.135
1885.87
1209.54
1256.7
1753.26
834.697
957.406
708.925
735.239
1101.42
1095.13
1123.41
677.556
1470.09
3020.26
3112.57
2039.05
1539.06
2087.36
1550.39
871.59
1262.63
1038.93
857.597
805.852
1243.35
905.396
871.154
853.053
1247.81
1034.22
899.326
1238.78
806.593
1006.9
2652.55
917.532
2646.74
966.395
973.409
2574.82
884.226
1636.81
1604.27
953.378
891.667
1317.28
891.074
4485.97
2715.85
3434.54
1660.68
2369.34
1987.69
4984.99
5434.43
4123.49
4122.67
1883.7
2509.29
7042.1
2509.67
4484.82
3427.74
2703.55
1655.99
4979.92
1984.65
2366.51
26802.4
88685.7
80112.3
88685.3
32624.8
32625.8
45798.1
5874.93
3242.35
3223.6
15999.4
11788.7
2996.18
11794.7
7340
5070.23
5532.38
25869.9
4568.55
15924.8
24699.6
2522.36
1189.92
1250
1189
1837.07
1634.23
1836.09
969.456
1174.77
888.847
1442.06
862.63
935.037
1329.38
960.64
1146.34
1406.56
857.219
917.524
853.785
1312.56
1060.62
2670.56
947.442
2664.06
992.608
987.237
2596.69
934.711
1619.23
1575
955.72
983.552
956.673
1652.69
4402.94
1749.32
3305.87
2662.36
3044.4
6670.95
2561.77
5049.91
2041.32
3916.08
3896.58
3351.16
3366.42
11312.5
12618
6202.18
8035.03
27404.2
4328.84
13592.2
15231.8
4350.3
1704.63
2541.46
3151
6623.8
2534.52
3022.84
16542.1
93195.5
49046.2
72351.3
49349.5
49936.3
81675.6
9751.59
4287.53
4170.05
24003.7
9333.2
8912.6
3070.27
12997.4
8142.18
6732.31
36606.1
11519.4
4328.1
14409.6
1263.47
1408.19
1049.04
2353.19
916.805
1846.72
1322.79
1216.44
1289.54
963.36
2051.06
1250.61
892.984
1757.09
1119.87
777.142
767.842
1237.57
1079.53
717.775
1116.32
1518
3040.84
2811.91
1924.05
1808.84
2734.97
1867.92
1138.87
784.46
791.236
1259.49
738.998
1146.7
1197.54
1286.23
1068.48
2292.74
1404.06
1890.1
959.673
1368.55
1271.02
1051.01
2348.87
1418.25
1871.1
1330.42
920.79
1582.43
2024.47
3025.35
3081.98
2780.51
1886.84
1883.28
828.385
1452.72
753.633
1209.56
1355.76
709.646
812.127
820.634
718.904
1389.63
1171.41
1360.27
811.281
698.487
607.966
399.239
566.112
400.485
575.493
592.189
403.286
894.298
1704.46
1698.39
930.455
1577.45
901.991
893.603
1149.68
947.366
1279.33
1985.38
873.451
1310.63
1895.85
1174.24
1015.33
1268.76
2068.91
1412.9
913.022
1892.79
1603.73
2147.1
3348.39
3384.36
1635.15
1782.2
2368.65
6354.86
4385.58
2028.17
4386.13
2816.53
7215.25
2816.44
5258.27
3782.64
1826.37
3068.04
2713.19
2314.8
5668.97
2865.14
1347.83
1295.32
1295.22
2029.98
2030.52
1838.71
5257.55
1825.75
3781
3061.42
5669.27
2713.39
2312.72
33534.6
103320
103320
96501.4
26291.8
36747.8
26291.4
8365.31
5791.8
5985.29
23087.5
18325.7
27734.8
5270.79
6862.06
3629.22
3629.35
13462
13594.2
3617.85
13593.8
797.177
1109.87
1411.45
734.849
844.816
679.61
1390.6
603.13
404.367
577.745
402.954
604.429
591.118
404.969
925.901
1789.49
1791.32
962.697
912.727
1524.61
913.709
29.8964
43.5394
175.806
213.918
0.143976
0.535274
0.000140041
0.0115257
208.679
166.863
160.289
98.0359
92.7817
51.9258
56.1908
196.318
122.395
145.299
64.4784
81.1324
42.6181
29.8791
314.021
91.6669
321.068
141.935
277.228
293.036
339.536
330.944
327.605
335.403
337.809
329.731
332.519
333.305
330.16
348.99
354.6
346.929
349.343
341.015
340.361
345.737
292.19
322.746
319.886
321.264
269.766
265.476
320.437
320.746
326.376
328.911
328.944
305.171
301.508
327.911
288.266
328.444
332.177
320.816
234.258
254.41
313.628
321.161
341.29
335.883
329.75
272.17
291.958
324.117
295.482
134.124
243.76
217.677
236.234
210.601
298.9
285.804
192.075
116.969
168.792
219.372
194.526
266.282
103.888
39.1885
97.5751
17.9064
3.03799
2.44442
20.3567
17.3159
0.44503
15.3991
4.26247
0.0995141
0.0811591
5.02409
83.6465
17.9912
63.4192
12.894
0.535579
1.39746
7.01007
6.98627
0.289131
11.5503
2.78383
0.0215943
0.049256
1.31114
213.277
238.511
240.656
9.81054
240.638
4.82994
0.58113
1.98213
239.463
231.566
233.58
173.035
170.889
165.734
168.865
240.41
241.88
237.249
156.082
166.131
158.438
145.189
235.619
243.946
244.549
152.817
133.868
128.542
157.214
228.026
233.582
241.291
142.867
98.948
116.778
126.503
72.0252
8.81023
68.7685
61.3678
7.76834
65.005
6.8332
52.3572
7.15372
62.6176
54.2079
3.20296
5.18883
43.4609
48.7239
35.1265
4.74647
1.6598
32.1606
52.2994
4.07321
41.5238
18.2103
1.61899
1.10372
26.0843
2.88647
31.5478
327.236
292.604
336.332
296.396
347.075
361.115
264.497
285.037
341.26
275.803
283.674
304.587
353.822
355.204
299.734
357.128
355.034
328.243
313.967
297.738
316.111
360.196
323.983
342.996
344.888
319.44
351.462
352.487
316.171
260.21
243.111
247.933
249.846
256.468
277.005
272.049
345.923
358.704
353.185
361.555
339.243
329.296
358.572
272.209
273.187
257.828
303.758
287.024
269
288.456
294.274
282.131
278.887
313.026
309.579
297.255
293.224
296.932
295.87
288.712
321.515
331.222
319.862
307.235
6.06901
5.63523
0.524781
243.4
233.353
239.421
10.5541
240.993
2.03073
241.727
234.698
233.252
175.776
174.409
168.34
171.03
170.044
37.8038
214.492
14.541
0.541512
9.76305e-05
0.0114637
242.492
243.374
239.131
161.312
170.564
161.266
147.996
235.423
245.74
244.579
154.224
134.814
128.691
158.717
210.242
226.739
241.669
143.734
96.3844
115.647
126.483
9.93708
74.6792
72.6605
63.8032
8.18877
66.7848
7.39449
56.4668
8.21721
66.8089
56.4261
3.4655
5.62634
45.3167
207.481
167.115
158.195
98.5061
91.9252
50.8022
56.3428
49.8292
1.67366
35.6222
4.9206
32.3622
53.3099
4.25225
193.151
114.725
140.639
60.4576
78.6997
39.982
26.1969
42.1101
1.60581
17.2496
1.0608
25.6352
2.95438
31.6035
358.022
1363.69
1370.21
1498.36
725.947
1363.55
388.745
1582.48
1323.54
361.776
1381.97
404.944
1581.99
1443.7
1121.1
460.142
539.324
903.357
559.058
536.509
435.149
553.734
443.912
477.543
357.18
395.514
544.966
376.633
521.822
480.308
923.173
1545.37
790.909
654.176
1482.06
687.119
1473.74
1088.3
3887.39
1404.46
664.027
764.217
792.606
761.234
502.252
382.856
414.946
564.867
396.382
546.146
516.901
809.55
1615.81
951.042
670
1510.19
710.522
1501.9
1367.22
1528.31
3696.06
692.613
797.884
821.022
820.942
550.691
738.686
465.915
598.305
944.428
552.396
594.592
1172.07
1265.18
2035.72
979.06
881.044
1254.61
1686.52
1403.64
2727.87
2719.38
1844.2
1735.79
1700.79
2448.42
1174.73
1348.44
2169.59
992.441
863.342
1211
1703.51
1033.71
1177.52
761.184
723.952
679.595
1101.61
1028.75
1229.62
1324.27
2125.26
1004.42
1314.02
917.673
1785.95
1256.49
1406.74
2361.57
1062.47
916.538
1342.14
1838.2
1521.27
2992.4
3071.33
2034.37
1711.51
1847.71
2671.67
1102.82
1180.61
770.933
778.323
1125.64
724.43
1132.04
342.594
331.827
314.151
422.56
357.519
407.117
379.863
673.53
1455.53
597.443
597.998
1429.65
551.801
1456.93
377.787
339.575
359.425
397.951
386.867
443.203
442.576
559.657
1474.17
601.341
1528.97
679.924
606.637
1480.24
1369.95
511.477
507.512
561.688
1415.77
573.986
1418.4
1376.05
523.27
527.959
577.713
1436.85
594.268
1439.03
1382.46
521.256
522.33
1408.44
534.246
554.106
1433.6
1357.48
505.872
504.375
540.784
1398.28
520.722
1415.43
270.54
303.373
289.376
284.718
323.956
1303.15
342.778
313.51
271.646
318.729
1316.87
1009.95
1312.87
334.6
1059.17
266.046
342.706
1323.16
341.506
514.303
292.394
493.551
269.75
315.571
304.827
285.725
325.649
344.902
282.562
313.436
316.06
342.583
354.803
299.695
282.05
322.759
314.559
325.921
313.156
299.055
304.33
281.572
308.624
273.31
349.245
316.197
325.816
316.186
291.397
319.268
286.048
312.704
337.641
327.529
299.057
291.515
284.249
304.163
328.404
330.565
337.091
300.904
293.813
287.481
303.806
324.47
293.339
291.29
309.487
279.866
274.827
318.919
341.456
312.752
314.527
335.646
297.51
324.324
290.981
299.929
321.757
315.542
300.943
287.614
284.575
303.333
314.177
328.543
330.351
299.429
313.331
307.006
292.296
321.279
142.077
293.502
83.2398
316.593
341.843
327.459
1319.01
482.185
482.637
478.043
1253.14
475.59
1255.66
1318.06
495.638
494.478
487.944
1253.41
483.931
1254.65
339.384
338.555
341.123
316.045
327.159
319.236
325.616
344.474
341.824
343.181
318.209
326.85
318.424
328.516
293.993
281.028
281.687
53.8623
27.532
122.911
73.5629
280.477
271.37
268.303
285.465
276.671
271.77
288.831
901.078
835.037
325.81
178.182
53.7832
289.054
125.824
274.53
472.628
482.564
203.127
66.6695
292.064
127.558
301.721
286.526
281.118
63.9971
123.782
30.4254
73.0325
308.29
308.694
263.165
300.068
268.976
301.731
263.421
270.924
315.297
312.827
308.965
276.142
309.063
272.912
282.263
271.331
272.662
287.021
278.407
275.123
288.579
1322.64
518.931
506.422
1219.71
521.374
503.209
1246.6
337.665
334.23
341.686
319.188
334.6
330.114
321.77
1300.14
490.23
500.495
488.637
1218.42
502.849
1245.88
346.98
346.207
350.87
331.543
343.968
325.203
336.815
333.01
279.335
268.79
308.615
276.262
267.377
323.452
486.121
1045.14
487.363
482.351
1173.31
480.185
1169.06
278.188
347.53
328.903
338.818
290.868
320.907
279.591
1043.36
1056.06
488.9
489.84
1171.04
485.256
1165.91
279.472
292.513
272.501
289.986
281.393
275.029
296.201
312.38
298.065
296.507
302.781
318.251
305.106
317.193
289.385
289.433
278.526
292.231
304.506
294.502
281.684
312.85
298.425
297.447
304.532
317.611
304.232
319.326
327.303
333.438
334.647
329.898
329.409
330.412
330.316
492.886
949.179
496.048
492.273
1102.73
505.365
1147.25
504.96
955.398
1011.23
1104.48
523.728
505.224
1146.25
315.241
301.222
305.892
307.523
327.797
322.027
312.98
320.049
313.414
305.447
321.507
335.66
312.262
327.126
333.839
344.572
338.914
341.282
335.065
335.299
338.78
279.452
271.246
269.116
263.603
262.81
257.82
268.414
273.425
326.113
323.083
269.593
315.331
316.203
268.738
280.79
272.263
272.056
263.428
268.278
265.452
261.388
320.436
320.759
269.407
267.745
263.446
308.979
314.312
318.671
326.877
326.489
326.388
305.705
299.28
328.347
290.565
320.319
319.991
318.622
270.105
263.198
320.715
299.75
293.772
291.656
264.755
261.581
252.529
271.284
282.431
341.692
335.692
310.365
252.207
292.36
266.182
269.895
279.032
271.163
254.465
229.093
249.473
232.298
882.684
899.848
481.067
429.084
705.622
434.292
687.226
302.917
293.799
293.459
261.069
271.039
266.523
253.804
285.611
280.567
277.499
258.854
241.592
256.94
240.882
479.258
879.891
476.01
421.121
704.885
432.086
679.501
326.367
276.23
273.743
236.981
256.347
298.245
273.526
285.038
326.76
324.532
316.251
226.355
249.758
306.435
306.309
333.618
330.936
325.147
263.918
287.554
316.46
298.017
291.122
295.55
255.728
210.686
233.101
237.991
277.336
291.188
283.333
251.767
203.843
234.637
225.331
482.77
778.314
842.037
414.145
581.687
384.228
645.078
352.243
338.965
294.796
343.851
873.94
396.05
406.213
389.316
3620.18
828.713
408.292
383.581
368.142
1522.55
461.095
707.61
436.915
337.979
309.945
272.8
322.62
293.128
339.039
261.097
550.219
518.947
696.963
520.688
432.039
557.989
428.892
484.904
372.076
405.872
567.405
384.695
495.889
542.809
1459.99
1468.99
1055.57
671.109
806.727
768.262
828.4
660.672
453.768
476.742
527.628
435.288
591.525
418.815
502.185
380.202
406.66
572.9
389.559
511.742
546
4360.58
1160.7
1446.13
707.028
815.257
820.191
847.03
583.736
945.608
459.167
555.217
757.3
562.488
594.285
857.824
476.614
487.162
557.223
444.823
604.519
435.504
1605.35
3348.49
3388.77
2147.29
1635.46
1786.93
2370.13
1274.1
2349.08
1420.02
1052.68
1330.37
925.401
1871.57
1150.11
1986.56
1279.33
949.224
1310.85
875.378
1896.84
1172.09
2067.62
1269.06
1020.8
912.611
1410.34
1890.89
1049.22
1184.42
735.83
780.975
1128.36
722.297
1191.65
1581.58
3081.66
3021.75
2024.14
1886.54
1880.11
2779.22
1290.04
2295.16
1406.95
1059.88
1367.33
965.685
1895.09
1136.63
1260.08
783.488
821.533
1146.43
1196.31
737.202
357.288
353.722
371.804
384.229
394.649
442.897
440.822
322.29
358.018
336.043
420.566
362.605
415.502
370.887
456.808
524.434
423.66
456.604
376.479
395.77
406.503
488.358
573.731
398.7
416.075
449.051
491.428
419.713
377.552
357.842
362.53
440.547
394.942
463.232
384.277
390.047
365.007
364.847
451.825
400.182
470.115
395.904
280.165
337.587
275.569
299.833
349.479
345.346
298.378
364.41
350.649
356.223
402.642
363.249
374.117
373.269
368.311
378.398
369.387
397.506
383.09
425.972
392.594
346.886
343.813
293.421
309.803
347.476
346.627
321.486
322.873
338.625
340.797
314.488
347.624
344.094
314.49
263.954
247.443
244.235
254.782
250.771
274.959
272.225
329.449
346.711
343.017
322.114
347.863
346.125
331.312
285.042
285.982
272.786
257.678
267.522
285.922
301.376
293.274
279.524
281.414
310.553
309.504
294.912
293.066
293.261
295.083
287.761
326.757
317.671
303.97
316.342
470.087
764.79
453.546
399.348
559.348
362.028
630.574
222.254
110.807
210.167
240.529
145.743
129.266
254.228
216.587
118.533
214.577
205.759
113.251
107.883
208.702
203.532
215.876
108.818
118.528
204.177
105.919
214.626
223.846
249.078
117.279
148.188
138.314
256.562
216.587
292.894
244.12
217.86
131.644
233.748
207.937
299.243
192.424
176.13
64.7895
102.665
91.7511
164.368
203.821
230.25
168.283
84.7151
95.9788
116.307
197.139
199.337
322.779
494.732
278.538
198.228
188.495
332.284
477.735
187.238
160.977
92.37
60.3942
87.5437
191.305
156.372
175.539
102.285
203.517
193.717
64.8269
92.4288
164.947
182.134
146.879
53.9481
84.4782
182.489
83.2093
146.979
150.385
85.3388
187.533
214.862
66.7429
101.565
174.511
312.595
492.136
266.336
195.518
177.966
329.682
465.833
280.854
159.311
111.661
182.713
214.115
188.857
257.658
169.918
107.02
45.0664
48.1229
71.31
141.226
134.873
281.848
355.444
108.827
228.2
148.083
236.703
419.302
299.402
383.007
130.68
247.556
165.229
261.692
439.344
173.585
112.905
49.4233
49.489
73.7168
141.994
143.88
95.4175
43.556
103.958
17.1475
3.02854
2.26658
20.355
0.433346
17.4785
15.1773
4.0709
0.0996241
0.0766713
5.04132
0.11902
0.261783
10.8225
2.42641
0.0164169
0.0421182
1.00908
56.6444
27.1299
78.9867
11.3998
0.37572
1.14557
5.46808
0.652931
0.0526465
0.000920083
0.525742
0.000713676
0.0411165
0.00919019
0.651031
0.0523377
0.000912988
0.489797
0.000657048
0.0378918
0.00854118
0.312025
0.00842879
0.00213764
0.000385609
0.0225931
0.00533421
0.131824
0.259874
0.00153425
0.00591078
0.000312706
0.0184139
0.00440705
0.0958273
253.81
131.821
287.873
159.756
10.1365
35.6543
0.00109314
0.0111058
292.739
245.535
237.239
223.665
214.216
154.24
144.524
276.357
190.846
219.504
164.37
194.801
124.628
95.7641
62.9367
150.774
56.9189
12.1325
69.5497
62.5925
9.89168
123.876
30.2649
113.983
7.67097
59.6635
52.7198
5.89375
44.4945
103.648
28.0253
48.5417
2.26965
30.3175
5.9504
68.1541
20.646
94.7039
39.4733
1.01306
3.15767
22.9316
0.484848
0.39301
12.2623
9.83019
0.00797268
0.281618
0.353564
5.73428
0.0527213
0.0395422
0.0037414
0.13377
2.07501
0.172336
293.32
148.769
95.4677
272.424
0.000783141
8.68754
113.628
0.0112008
286.115
246.095
235.376
224.321
213.149
143.353
154.838
246.199
182.331
215.055
157.222
191.489
121.053
88.8388
55.4782
160.139
63.0924
61.5694
12.1922
9.49165
69.8894
124.552
30.2755
36.0141
52.3202
7.77423
5.83601
60.0994
23.4966
126.99
41.2184
45.758
1.62973
5.17519
25.9855
63.138
92.3937
19.7743
37.6233
0.775823
2.8664
19.8469
9.59374
0.488838
0.00759816
0.398252
0.272795
0.336043
12.3777
5.11329
0.0372439
0.0288869
0.00315784
0.116
0.145431
1.53339
7.82992
0.318029
5.30859e-09
3.79809
7.30622e-06
5.22842e-05
4.06839e-07
9.19904e-07
2.72651e-05
0.000210799
0.00016754
2.59576e-07
2.00477e-06
1.10691e-08
4.2387e-07
8.2429e-08
5.75447e-06
6.3936
0.168043
0.357202
0.129158
0.267555
0.00488633
0.00655376
1.43579
0.0232284
0.0681353
0.0435072
0.135696
0.00243499
0.000771111
1.00245
6.03105
5.19066e-06
3.29767e-07
1.96812e-05
3.66589e-05
8.75748e-07
0.000210863
7.83289
0.167584
0.357975
0.25029
0.119581
0.00454438
0.00654726
3.19568
0.0160551
0.0301309
0.112075
0.0554621
0.00199052
0.000535479
0.0414925
0.00510849
0.00872687
0.00105211
0.000670185
0.000157727
2.0819e-05
3.90855e-06
0.00290717
0.000121338
3.97982e-05
0.00221151
9.00902e-05
3.29133e-06
9.24141e-06
0.0103212
0.000267505
0.000192419
0.00754049
0.000154066
7.497e-06
3.07578e-06
5.18997e-05
3.81777e-06
0.00289237
0.000120878
0.00204108
8.34309e-05
9.1236e-06
0.0103632
0.000268602
0.00018151
0.00709026
0.000143926
7.0864e-06
3.5003e-08
4.7959e-06
1.87784e-08
4.93824e-09
5.49782e-09
5.23174e-09
2.4835e-08
0.000385005
2.01923e-05
0.00114402
4.40944e-05
1.16423e-06
1.44535e-05
1.73328e-06
0.00109471
8.89995e-05
0.00362855
7.31474e-05
2.31309e-06
3.74852e-06
2.32393e-05
9.24969e-07
1.62686e-05
1.42851e-06
0.000266052
0.000927324
3.57276e-05
1.01969e-05
0.000767063
7.37783e-05
0.00300431
5.98947e-05
1.87605e-06
3.1526e-06
1.65906e-05
0.00320634
4.32773e-06
5.45624e-06
7.90772e-05
5.45692e-05
2.86987e-06
1.47238e-06
8.14317e-05
9.26426e-07
1.11762e-05
7.89994e-07
3.28749e-06
1.07343e-06
7.36711e-07
0.000206443
1.88866e-06
2.46906e-05
1.4737e-06
5.23937e-06
1.80094e-06
1.35556e-06
2.95023e-06
8.90379e-07
9.43332e-07
2.38916e-06
8.86543e-07
9.29407e-07
9.11124e-07
8.87414e-07
2.9149e-06
8.53027e-07
8.57574e-07
9.11205e-07
2.25127e-06
8.93186e-07
7.05689e-07
6.49176e-07
6.72934e-07
5.8282e-07
5.80285e-07
5.83298e-07
5.80785e-07
6.31427e-07
4.07644e-07
4.07911e-07
4.08528e-07
4.12603e-07
4.75342e-07
4.10371e-07
2.69327e-07
2.61831e-07
4.36875e-07
2.63954e-07
2.59114e-07
2.59477e-07
2.59517e-07
4.41875e-07
4.30035e-07
7.92842e-07
4.29952e-07
4.23665e-07
4.2437e-07
4.23839e-07
3.30308e-07
3.32873e-07
3.30899e-07
5.13907e-07
3.30972e-07
3.34681e-07
3.7795e-07
217.982
0.00501716
0.00345739
7.14486
0.00276758
0.303229
74.0346
0.0545743
0.329258
0.000981911
293.252
1.08584e-06
1.06781e-06
0.00280557
6.62306e-07
212.187
143.108
0.127456
2.81799e-06
153.02
0.374656
120.664
331.47
99.3527
254.662
355.882
85.365
355.712
186.675
0.134034
0.00514802
8.09088
0.656778
67.8177
190.136
101.293
0.00562477
0.000747777
0.704768
0.100523
360.261
363.636
355.926
353.088
353.435
343.513
325.421
0.00794977
0.147988
0.158377
1.13941e-05
5.03649e-06
1.04556e-05
4.94146e-06
0.120485
2.21934e-06
1.16666e-06
0.0113779
0.0420282
8.01799e-06
3.6424e-06
68.2852
0.00900963
41.64
1.41676e-06
0.00130229
2.86651
0.000205382
27.1592
0.00426155
3.9289e-06
0.0132297
48.9179
276.404
38.5276
0.00608652
21.2121
92.0522
0.00937748
0.0503745
1.27959e-06
3.38431e-05
338.439
255.064
318.917
238.997
305.849
270.388
190.003
357.689
284.911
331.706
284.07
331.565
285.675
220.323
327.582
218.307
307.054
202.805
294.288
258.905
157.895
219.371
194.044
163.097
91.3079
106.206
76.2312
62.9209
159.755
187.124
156.41
91.2566
87.7025
60.5947
63.051
0.0954492
0.000856084
3.0917e-05
5.30456e-07
14.2891
0.0275424
0.213425
1.15743e-06
1.1401e-05
0.0246166
0.0763823
2.15627e-06
0.0063424
1.05214e-06
92.2607
0.000937938
36.8931
7.5046e-07
9.19824e-05
0.0134578
2.30935e-06
1.06586e-06
1.24983e-07
0.000168105
0.00423703
1.40286e-06
0.00205826
5.9295e-07
1.16071e-06
0.452581
0.00489151
129.913
34.8472
0.0112334
0.000417401
0.00507333
24.5854
8.54768
6.92357e-07
0.000706618
0.000454852
5.82372e-05
173.747
142.314
112.339
49.1069
74.0143
49.7477
30.1701
245.811
408.883
282.508
221.597
148.985
116.332
180.49
149.974
166.924
122.78
98.3864
73.5918
60.5301
25.9928
60.0043
132.528
234.341
186.959
27.5912
102.729
87.0666
196.068
209.9
277.051
213.536
58.7447
125.547
138.586
202.129
165.032
266.321
203.597
44.3979
131.043
100.975
67.9817
140.395
119.032
43.0098
10.185
15.2432
33.0828
116.903
114.192
65.9792
32.1264
10.6257
10.0636
33.5635
211.816
209.387
194.656
137.801
123.178
119.704
57.6594
146.222
106.703
44.2266
56.0589
22.6281
16.1277
5.27954
56.2373
24.3815
9.79782
14.5134
5.34609
0.933893
0.377047
135.333
289.266
195.911
76.811
75.214
37.1875
130.04
17.7789
0.911448
22.7047
11.2924
0.204883
0.292003
8.08476
74.5581
35.837
56.2041
24.9608
2.53336
7.01002
12.6174
18.3313
0.613305
16.9256
7.70687
0.218537
0.193227
8.37978
66.2429
36.5675
19.6864
21.0295
9.59293
2.70974
0.866094
0.262444
0.219556
0.185866
0.00780631
0.00667318
0.00450678
0.0054019
0.3262
0.294965
0.300647
0.00868496
0.00864335
0.00791314
0.00770161
76.3529
2.84319
42.5887
25.9398
3.59385
1.03278
52.507
0.00728824
0.279534
0.302676
0.326607
0.302796
0.00860366
0.00795502
0.00357562
0.00575994
0.227206
0.170929
0.254281
0.00652286
0.00418895
0.241805
0.175557
0.258219
0.00662531
0.0038266
0.00613398
0.00430188
1.80396e-06
0.000327453
6.53469
3.49437e-08
5.19003e-07
1.07575e-06
2.72895e-06
2.24882e-07
2.00721e-08
1.17378e-06
0.000238445
2.61587
0.000549357
4.12254e-07
4.76376
0.341802
11.7395
5.02243
0.0304154
0.109192
1.67845
0.198815
0.0731479
0.130999
0.0028198
0.00489576
0.00307183
0.00163594
102.773
9.63003
45.4243
4.05158
28.1016
4.87214
0.259884
126.201
12.7498
62.881
7.49414
48.6007
12.5527
0.564699
122.148
8.37348
58.4309
5.37905
47.4218
11.1947
0.346246
39.2254
1.32682
16.0511
0.133515
2.40294
0.417129
0.0194211
1.45721
2.3815e-07
0.00265503
1.10229e-06
2.33926e-08
2.45797e-07
7.16522e-06
124.563
5.99247
11.73
8.66627
49.5893
59.2138
40.3417
11.95
2.4061
31.8341
0.471118
12.7334
2.46322
0.0563119
38.2471
0.350504
12.8615
0.195796
8.51238
1.34995
0.0221803
101.135
4.44738
43.5733
3.85322
40.7955
9.1338
0.238504
61.0135
3.55348
22.0062
0.668404
6.39911
0.715493
0.0526621
34.8247
1.0745
5.72095
0.34504
1.84578
0.100957
0.0157942
24.1946
3.26076
6.18014
1.16561
2.18712
0.124187
0.066326
23.6501
3.35657
3.13162
1.24289
1.1499
0.0638917
0.0699687
3.27503
0.268074
0.00742155
0.0407965
0.442838
0.0597085
2.06948
2.00392
0.28933
0.00505794
0.0440646
0.264791
0.0392492
2.20279
0.115767
0.0347435
0.0963307
0.0021827
0.000905395
0.000741328
0.00265368
0.0715047
0.00162248
0.0847595
0.0296015
0.00194684
0.000641563
0.000527001
0.0871502
0.0260485
0.0302808
0.00172999
0.00199931
0.000655578
0.000556527
12.2236
1.17834
7.62954
0.321993
2.64786
0.168805
0.0192959
72.3408
55.2171
22.969
28.0555
9.80032
0.8587
4.28125
18.2887
0.588655
2.00535
0.196405
0.690237
0.0372921
0.0101379
0.0311231
0.0178944
0.00968941
0.00120237
0.000655255
0.000370764
0.000190096
4.65466
0.0398672
1.65356
0.00281749
0.105343
0.0315699
0.000843764
2.01657e-05
3.32795e-07
6.21954e-08
4.63719e-09
7.84274e-08
4.15844e-07
1.19956e-08
10.729
8.24352
0.0308838
0.927572
2.19373
0.230744
27.2119
1.18171
0.0436071
0.00283851
0.00615066
0.156064
0.0219721
0.346142
0.03388
0.0225465
0.0643429
0.00141722
0.000223053
0.000467017
0.000713483
3.0255
0.0113305
0.743227
0.00657435
0.416805
0.0860475
0.00129023
187.405
104.494
188.745
237.691
2.47182
0.00111934
0.23382
0.0345079
221.862
231.502
137.974
208.609
123.938
109.715
94.2713
216.462
152.347
186.212
75.864
103.198
73.7308
48.709
134.518
113.712
168.624
36.1378
73.2989
58.937
25.4766
38.5118
1.48587
30.2033
0.871704
22.8277
16.3833
0.492648
141.333
53.0769
86.1747
41.1448
4.65741
21.5979
13.9367
10.1375
0.693662
20.1674
9.5388
0.0638142
3.75715
0.215887
1.96588
0.216174
9.26994
5.74631
0.0161239
0.965486
0.113881
2.58054
0.0742966
0.0104604
0.0053064
0.682934
0.332822
0.0426893
2.69806
0.0316634
1.02532
0.00170684
0.0462929
0.0166004
0.000564547
0.0950371
0.00367646
0.00154825
0.000262493
0.0152959
0.00603306
9.94254e-05
0.737623
0.00408177
0.229797
0.000941858
0.0508734
0.0150384
0.000272664
0.470583
0.219763
0.156107
0.00878362
0.0121605
0.00437009
0.000250094
0.155815
0.161453
6.40359
0.394227
0.000181232
0.00820474
0.00750686
0.187107
0.432238
7.09103
0.179194
0.000200961
0.00828001
0.00401385
0.076985
0.0256489
1.5703
0.0950696
7.98652e-05
0.00159031
0.00448251
0.149548
0.216481
6.3729
0.449709
0.000245229
0.0119307
0.00830591
0.659516
0.459451
13.4193
0.639304
0.000386692
0.0169094
0.012815
0.113875
0.181543
2.90594
0.0423926
0.000100504
0.00171403
0.002653
0.0136769
0.00105513
0.00391691
7.83268e-05
0.000266797
7.30321e-05
2.01951e-05
0.148175
0.00459505
0.135759
0.00272177
0.000110911
9.89496e-05
0.00301285
0.0379039
0.173088
0.0992624
0.00564109
0.0025352
0.00150058
9.3166e-05
0.0846366
0.0720528
0.0236321
0.00409691
0.00141291
0.00121349
7.28127e-05
0.0060454
0.00123612
0.00739062
0.00015117
2.30345e-05
2.82978e-05
0.000122386
0.0099791
0.00737546
0.406561
0.0463945
2.46523e-05
0.000829486
0.00113973
0.108194
0.00161269
0.000141175
0.00998814
1.25168e-05
0.000149871
0.000754604
0.00671787
0.0334475
0.241104
0.00388269
1.69908e-05
0.000544604
0.000121156
0.00506345
0.000430403
7.80103e-05
0.00155052
4.35718e-06
0.000244133
2.47564e-05
0.00102404
0.00125185
0.00752095
0.000153635
2.382e-05
0.000128182
2.8572e-05
0.00787915
0.0387774
0.330476
0.0060501
2.03825e-05
0.000698354
0.000163768
0.00532689
0.000774731
0.0454324
0.00289337
6.42241e-06
0.000329042
5.21052e-05
0.0754672
10.5102
2.44312
0.0346348
0.00544322
0.00103969
0.194028
0.0091916
0.144283
0.298721
0.00500451
0.000107003
0.000169676
0.00286058
0.977009
0.00261946
0.197194
0.0111413
0.00065774
0.000151111
0.056825
0.0217511
0.000600685
0.0361248
0.00202778
2.56048e-05
3.52774e-05
0.00126624
0.0234845
0.000406959
0.0213593
0.00122404
2.77744e-05
2.46642e-05
0.00136038
0.00204223
0.00055532
0.0359791
0.00605865
6.70867e-06
0.00029875
9.50499e-05
0.00415535
0.000628135
0.000281845
1.44657e-05
8.07547e-05
3.94379e-05
7.70461e-06
0.00266483
0.0222957
0.0815273
0.00155669
1.59831e-05
5.62084e-05
0.0004115
0.00333732
0.000223491
0.0122723
0.000687233
3.75684e-06
1.31115e-05
0.000179625
0.000217571
1.15201e-05
0.000217335
0.00019831
1.07082e-05
0.000191966
1.09844e-05
0.000161089
8.96323e-05
6.56449e-06
5.32814e-06
0.00014798
0.000101586
6.90161e-06
1.10424e-05
0.000198389
0.000181196
1.13688e-05
0.000215047
0.000198779
1.0821e-05
6.39575e-06
8.37951e-05
0.000138703
0.000158495
5.17425e-06
9.88964e-05
6.74252e-06
0.000190152
7.30196e-06
0.000161332
0.0001056
6.3526e-06
0.000127441
5.78857e-06
336.29
321.526
160.695
292.037
256.578
319.964