/*--------------------------------*- C++ -*----------------------------------*\
  =========                 |
  \\      /  F ield         | OpenFOAM: The Open Source CFD Toolbox
   \\    /   O peration     | Website:  https://openfoam.org
    \\  /    A nd           | Version:  9
     \\/     M anipulation  |
\*---------------------------------------------------------------------------*/
FoamFile
{
    format      ascii;
    class       volScalarField;
    location    "0.0005";
    object      overpressureMax;
}
// * * * * * * * * * * * * * * * * * * * * * * * * * * * * * * * * * * * * * //

dimensions      [1 -1 -2 0 0 0 0];

internalField   nonuniform List<scalar> 
5811
(
6.78435e+06
6.66823e+06
2.72543e+08
2.91029e+08
6.37377e+06
1.06726e+07
6.63996e+06
1.21694e+07
6.32207e+06
3.30032e+07
9.09555e+06
6.14808e+06
2.63912e+08
6.73089e+06
7.03437e+06
1.41161e+07
7.59167e+06
1.02876e+07
5.42703e+06
5.21304e+06
9.16846e+06
6.11152e+06
2.84555e+08
1.71794e+07
1.71186e+07
1.6805e+07
6.8003e+06
9.44652e+06
3.12213e+07
1.20932e+07
6.78012e+06
9.4639e+06
4.59015e+06
6.41178e+06
6.03465e+06
5.43023e+06
5.63448e+06
5.89221e+06
4.26069e+07
5.07105e+07
4.07794e+07
9.96726e+09
3.00244e+08
1.13185e+08
1.44607e+07
3.93253e+07
3.81465e+07
5.42188e+07
9.29214e+09
1.04906e+08
2.6614e+08
1.41303e+07
5.96049e+06
7.14343e+06
5.27188e+06
1.05309e+07
7.11837e+06
7.08574e+06
6.33771e+06
7.5328e+06
1.06789e+07
8.93002e+06
2.1443e+07
2.51626e+07
8.72547e+07
1.47646e+07
6.18994e+06
6.87256e+06
4.97966e+06
6.2068e+06
5.29994e+06
9.10672e+06
6.074e+06
6.44318e+06
9.3003e+06
8.34227e+06
2.11738e+07
8.69243e+06
1.85097e+07
7.58983e+07
1.50014e+07
6.31979e+06
1.01007e+07
1.48749e+07
9.5065e+06
2.85935e+07
6.31123e+06
1.18335e+07
2.26517e+08
4.38543e+07
3.30918e+07
1.00121e+10
1.19619e+08
2.26508e+08
1.94758e+07
6.20922e+06
2.2766e+07
8.58297e+06
9.72954e+06
8.18567e+07
1.1842e+07
1.51113e+07
6.09352e+06
1.48696e+07
9.35581e+06
3.2652e+07
9.38074e+06
6.15647e+06
3.39119e+07
4.64417e+07
3.36596e+07
1.14025e+10
1.17207e+08
2.63912e+08
1.05734e+07
1.2018e+07
6.71167e+06
1.7179e+07
1.66642e+07
9.46643e+06
2.81815e+07
6.72718e+06
5.23933e+06
7.04725e+06
6.998e+06
1.0328e+07
6.18572e+06
5.86369e+06
6.17615e+06
3.93726e+07
5.41957e+07
2.6615e+08
3.78354e+07
9.29214e+09
1.04312e+08
2.90976e+08
1.49461e+07
1.09609e+07
2.53228e+07
2.12644e+07
9.32194e+06
1.09207e+07
9.53119e+07
9.59586e+06
7.56328e+06
1.15275e+07
2.38279e+07
2.39661e+07
1.0043e+08
1.47989e+07
6.20671e+06
4.31835e+06
4.06261e+06
1.09781e+07
4.65288e+06
4.54072e+06
7.14051e+06
1.85707e+07
1.81e+07
5.03973e+06
4.01019e+06
2.73414e+07
5.38194e+06
1.20006e+07
1.1215e+07
2.18791e+07
9.78539e+06
7.17034e+06
1.41394e+07
2.31025e+07
9.20262e+07
3.99698e+06
5.0436e+06
4.09735e+06
6.56331e+06
4.33618e+06
1.07625e+07
4.49423e+06
4.73622e+07
3.94869e+07
1.28522e+07
3.97996e+07
9.75628e+09
2.84552e+08
1.18133e+08
1.13795e+07
4.918e+06
5.41408e+06
1.75102e+07
3.76684e+06
2.80567e+07
5.41943e+06
3.43328e+08
1.82814e+08
1.68306e+08
1.09854e+09
1.28149e+08
9.20628e+08
5.51524e+08
3.78758e+08
1.72564e+08
2.13257e+08
1.68566e+09
7.40517e+08
5.32542e+08
1.42251e+08
1.12398e+08
2.68184e+07
7.28724e+07
5.28255e+07
5.602e+07
4.25568e+07
1.52533e+08
2.52807e+08
1.64483e+08
1.42047e+08
1.01237e+09
5.5893e+08
1.38324e+09
9.87112e+07
8.2891e+07
2.29143e+07
2.44909e+07
2.26631e+07
4.38077e+07
3.6204e+07
4.44982e+07
1.54352e+07
1.08073e+07
9.22202e+06
1.67257e+07
9.67679e+06
1.50011e+07
1.75279e+07
3.57568e+08
1.92726e+08
1.7512e+08
1.1401e+09
1.28428e+08
1.36494e+09
5.71204e+08
1.0616e+07
1.64399e+07
9.07888e+06
2.25735e+07
8.46466e+06
2.13704e+07
1.00037e+07
1.19501e+07
2.38063e+07
1.80086e+07
9.19361e+06
2.39231e+07
9.13412e+06
1.06155e+07
1.20262e+07
9.08533e+06
2.31006e+07
1.76921e+07
9.18557e+06
2.37857e+07
1.04661e+07
7.54626e+06
9.01937e+06
5.82308e+06
9.05104e+06
6.444e+06
6.43916e+06
8.43671e+06
1.25935e+07
2.94236e+07
2.92478e+07
1.14124e+07
2.72662e+07
1.15099e+07
1.17388e+07
1.45641e+08
9.87738e+07
6.4635e+07
3.59467e+07
7.5897e+07
5.5256e+07
1.86013e+08
1.61735e+08
9.86953e+07
1.02856e+08
3.79682e+07
7.23859e+07
3.44503e+08
7.39522e+07
1.45708e+08
9.00742e+07
6.31785e+07
3.47888e+07
7.31923e+07
5.42866e+07
1.84502e+08
8.3466e+08
9.88716e+09
6.45441e+09
5.58567e+09
9.87998e+09
2.02814e+09
1.33109e+09
3.47744e+08
1.97359e+08
2.00533e+08
1.57308e+09
7.05293e+08
1.4082e+08
5.46012e+08
2.40325e+08
8.03155e+07
8.24269e+07
5.00482e+08
7.26011e+07
3.26685e+08
4.04486e+08
8.45163e+07
2.33594e+07
2.37583e+07
2.29644e+07
4.38488e+07
4.4445e+07
3.62984e+07
1.45298e+08
6.36553e+07
8.78034e+07
3.4583e+07
5.63569e+07
7.14827e+07
1.8148e+08
1.46165e+08
8.69578e+07
6.10367e+07
3.39636e+07
5.57012e+07
1.77213e+08
7.30223e+07
1.71171e+08
1.09479e+08
1.06259e+08
4.18273e+07
3.47479e+08
7.70754e+07
7.94963e+07
8.9616e+08
4.32283e+09
3.19226e+09
9.9548e+09
9.87953e+09
2.59294e+09
2.65306e+09
2.64638e+08
8.90674e+07
8.69342e+07
1.03731e+09
8.17712e+07
3.67468e+08
3.47157e+08
3.66554e+08
1.61117e+08
1.99756e+08
1.07986e+09
7.21317e+08
1.32261e+08
4.96441e+08
8.28738e+07
2.29024e+07
2.27166e+07
2.45036e+07
3.61792e+07
4.38027e+07
4.45589e+07
1.5675e+07
1.01568e+07
9.89958e+06
1.58907e+07
9.81388e+06
1.59335e+07
1.62204e+07
2.05553e+07
1.35386e+07
4.10517e+07
2.10543e+07
3.78713e+07
1.37225e+07
2.00709e+07
1.98501e+07
1.43636e+07
4.65477e+07
2.18267e+07
3.92759e+07
2.13706e+07
1.34111e+07
2.54555e+07
3.47082e+07
6.6026e+07
7.17054e+07
5.33014e+07
2.88642e+07
3.08122e+07
1.27967e+07
9.36947e+06
8.33423e+06
1.44356e+07
8.28093e+06
1.44864e+07
1.32022e+07
1.53953e+07
1.72963e+07
1.21856e+07
3.56074e+07
1.07643e+07
3.00059e+07
1.6563e+07
1.65627e+07
1.68064e+07
1.20226e+07
3.54934e+07
1.79178e+07
1.13465e+07
2.97435e+07
2.02127e+07
3.10333e+07
5.48315e+07
5.70911e+07
2.57348e+07
4.05541e+07
2.41398e+07
9.9081e+06
8.43605e+06
1.42171e+07
2.04804e+07
7.82879e+06
1.85509e+07
9.89472e+06
9.75897e+06
1.41834e+07
2.04385e+07
8.19491e+06
9.61942e+06
7.70374e+06
1.85311e+07
6.75605e+06
9.08041e+06
5.62904e+06
9.04163e+06
6.14478e+06
6.24003e+06
8.50169e+06
1.0429e+07
2.62695e+07
2.6283e+07
1.0912e+07
1.06632e+07
2.15173e+07
1.08772e+07
6.70087e+07
1.85662e+07
1.9657e+07
1.85646e+07
3.51276e+07
3.51257e+07
2.89359e+07
3.39815e+08
1.37163e+08
1.80506e+08
1.51698e+09
9.93021e+07
4.14949e+08
5.3426e+08
1.2147e+08
3.23766e+07
8.19898e+07
8.19864e+07
5.75196e+07
5.75088e+07
3.6777e+08
1.12411e+08
2.68424e+07
5.28449e+07
7.29961e+07
1.52529e+08
5.60671e+07
4.25305e+07
7.5871e+08
9.91076e+09
9.83739e+09
9.91076e+09
1.21028e+09
1.21028e+09
9.94448e+09
2.03169e+08
7.75754e+07
7.76914e+07
5.2426e+08
3.96895e+08
6.22189e+07
3.96895e+08
3.39815e+08
1.80506e+08
1.37162e+08
1.51698e+09
4.14944e+08
9.9303e+07
5.34261e+08
1.64753e+07
1.26925e+07
3.75068e+07
1.68286e+07
1.15007e+07
2.94815e+07
1.82836e+07
1.57627e+07
1.27484e+07
3.88373e+07
1.75503e+07
1.76475e+07
2.97417e+07
1.1008e+07
1.3413e+07
8.73848e+06
1.00001e+07
1.54855e+07
1.38756e+07
1.55047e+07
8.70888e+06
2.08866e+07
6.00388e+07
5.74127e+07
3.31483e+07
2.52787e+07
4.17806e+07
2.7463e+07
9.10325e+06
1.9932e+07
1.3726e+07
8.4077e+06
7.46903e+06
1.6978e+07
9.3243e+06
8.88761e+06
8.2635e+06
1.8709e+07
1.35654e+07
8.77646e+06
1.66013e+07
7.37477e+06
6.07277e+06
8.94468e+06
5.78433e+06
8.92921e+06
5.71614e+06
5.93906e+06
8.3942e+06
9.26738e+06
2.68044e+07
2.2902e+07
1.12424e+07
9.44981e+06
1.92818e+07
1.04072e+07
1.02255e+08
4.91073e+07
7.3846e+07
2.61119e+07
5.36425e+07
3.86305e+07
1.44862e+08
1.23511e+08
8.71002e+07
8.70094e+07
3.18562e+07
5.58969e+07
2.45195e+08
5.59379e+07
1.02265e+08
7.33516e+07
4.85815e+07
2.59337e+07
1.44809e+08
3.84661e+07
5.34779e+07
1.4016e+09
9.94141e+09
9.91197e+09
9.94141e+09
1.57229e+09
1.57229e+09
2.89996e+09
1.71035e+08
6.40326e+07
6.30058e+07
6.37706e+08
4.11046e+08
5.292e+07
4.11046e+08
2.52809e+08
1.42077e+08
1.64448e+08
1.01237e+09
9.86885e+07
5.5893e+08
1.38324e+09
5.90958e+07
1.68444e+07
1.82617e+07
1.68169e+07
3.16582e+07
2.49426e+07
3.16333e+07
1.17997e+07
1.80294e+07
9.1715e+06
2.39401e+07
9.05198e+06
1.05089e+07
2.39945e+07
1.17852e+07
1.75004e+07
2.28222e+07
9.01739e+06
1.02804e+07
9.08824e+06
2.35337e+07
7.34832e+06
9.07956e+06
5.69599e+06
9.00066e+06
6.29456e+06
6.33952e+06
8.45552e+06
1.21939e+07
2.95955e+07
2.90739e+07
1.10954e+07
1.12996e+07
1.12778e+07
2.70057e+07
1.45297e+08
3.46405e+07
8.77222e+07
6.37775e+07
7.14613e+07
1.81477e+08
5.64865e+07
1.7117e+08
4.18157e+07
1.06187e+08
1.09494e+08
7.70487e+07
7.94946e+07
3.47479e+08
3.66554e+08
1.61053e+08
1.99758e+08
1.07986e+09
1.32223e+08
4.96445e+08
7.21317e+08
1.46237e+08
3.37322e+07
6.0835e+07
8.67757e+07
1.77216e+08
5.56732e+07
7.28156e+07
8.9616e+08
9.9548e+09
3.19226e+09
4.32283e+09
2.59294e+09
2.65306e+09
9.87953e+09
2.64638e+08
8.91118e+07
8.45686e+07
1.03731e+09
3.67449e+08
3.47042e+08
8.19274e+07
3.78758e+08
2.1326e+08
1.72578e+08
1.68566e+09
5.32541e+08
1.4232e+08
7.40516e+08
2.12765e+07
2.22912e+07
1.43217e+07
4.82215e+07
1.3744e+07
4.16119e+07
2.18712e+07
2.17466e+07
2.07627e+07
1.37954e+07
4.28029e+07
2.0952e+07
1.38932e+07
3.93487e+07
1.71756e+07
1.03583e+07
1.06468e+07
1.73076e+07
1.72686e+07
1.03496e+07
1.74751e+07
2.84321e+07
7.74564e+07
7.35342e+07
3.83321e+07
3.17623e+07
5.92346e+07
3.3444e+07
1.74502e+07
1.03581e+07
1.14957e+07
1.78713e+07
1.04856e+07
1.74133e+07
1.90346e+07
2.28281e+07
1.51396e+07
4.9288e+07
2.22191e+07
4.16889e+07
1.44788e+07
2.4032e+07
1.98492e+07
1.36234e+07
4.43195e+07
2.02109e+07
3.76625e+07
2.0856e+07
1.25599e+07
2.86249e+07
4.02318e+07
8.41126e+07
7.43016e+07
5.91758e+07
3.23532e+07
3.6248e+07
1.14428e+07
2.38313e+07
9.73126e+06
1.82699e+07
2.29626e+07
9.26986e+06
1.05598e+07
1.15061e+07
9.58295e+06
2.40691e+07
1.80321e+07
2.29004e+07
1.07337e+07
9.21683e+06
6.66724e+06
4.01085e+06
5.31406e+06
4.28066e+06
6.04784e+06
5.35275e+06
4.29932e+06
1.12676e+07
2.63481e+07
2.737e+07
1.03258e+07
2.44282e+07
1.06113e+07
1.06532e+07
1.80793e+07
1.22734e+07
1.96319e+07
4.07535e+07
1.19866e+07
1.81317e+07
3.57248e+07
1.98944e+07
1.49516e+07
2.03295e+07
4.51235e+07
2.21209e+07
1.36501e+07
3.63776e+07
2.47824e+07
3.65228e+07
6.62315e+07
7.2647e+07
2.79186e+07
3.20279e+07
5.26272e+07
1.6047e+08
9.50571e+07
3.74163e+07
9.50617e+07
7.18084e+07
2.79491e+08
7.17961e+07
1.389e+08
9.04118e+07
3.21547e+07
6.10799e+07
6.84963e+07
5.2632e+07
1.84072e+08
7.77844e+07
2.1949e+07
2.09167e+07
2.09456e+07
3.99769e+07
4.00208e+07
3.32957e+07
1.38869e+08
3.23284e+07
9.03456e+07
6.04921e+07
1.83933e+08
6.85787e+07
5.23853e+07
1.5213e+09
9.95405e+09
9.95405e+09
9.84289e+09
1.49206e+09
2.23301e+09
1.49206e+09
3.57568e+08
1.92724e+08
1.749e+08
1.1401e+09
5.71204e+08
1.36494e+09
1.284e+08
2.53307e+08
8.32909e+07
8.33919e+07
4.95755e+08
4.11416e+08
7.4763e+07
4.11416e+08
1.05846e+07
1.66359e+07
2.25412e+07
9.27774e+06
9.92312e+06
8.57486e+06
2.13216e+07
6.94891e+06
4.53283e+06
5.61939e+06
4.42772e+06
6.09835e+06
6.39714e+06
4.70173e+06
1.0997e+07
2.70304e+07
2.71288e+07
1.04696e+07
1.05749e+07
2.42887e+07
1.09141e+07
954318
1.15579e+06
1.66965e+06
1.66858e+06
7014.94
23658.3
8.41472
600.81
1.67094e+06
1.67311e+06
1.6702e+06
1.36758e+06
1.35405e+06
1.12794e+06
1.16333e+06
1.66963e+06
1.6465e+06
1.6609e+06
1.2224e+06
1.31124e+06
1.0359e+06
873903
2.36602e+06
1.68332e+06
2.36319e+06
1.79854e+06
2.03229e+06
1.98966e+06
2.81535e+06
2.71162e+06
2.6715e+06
2.98794e+06
3.06415e+06
2.8075e+06
2.83919e+06
2.57485e+06
2.56078e+06
2.88679e+06
3.2771e+06
3.22489e+06
2.97103e+06
2.93866e+06
2.62678e+06
2.66643e+06
1.99432e+06
2.34621e+06
2.33121e+06
2.27161e+06
1.96783e+06
1.96576e+06
2.26933e+06
2.37575e+06
2.5979e+06
2.59996e+06
2.4062e+06
2.23037e+06
2.21642e+06
2.40982e+06
2.0074e+06
2.39251e+06
2.44669e+06
2.29077e+06
1.96369e+06
1.96511e+06
2.31343e+06
2.36842e+06
2.66574e+06
2.64389e+06
2.4194e+06
2.18792e+06
2.20107e+06
2.42817e+06
2.15895e+06
1.78821e+06
2.02659e+06
1.90077e+06
2.01389e+06
1.89438e+06
2.16424e+06
2.15046e+06
1.96609e+06
1.76316e+06
1.8612e+06
1.99288e+06
1.87971e+06
2.14758e+06
1.60513e+06
1.09912e+06
1.58463e+06
628248
160112
133317
680586
523624
19841.8
485801
190237
4888.78
4065.67
215399
1.52158e+06
704744
1.39299e+06
503840
31974.1
80270
325412
280212
13207.8
399654
135319
1157.15
2545.25
69437.4
1.65642e+06
1.61652e+06
1.53415e+06
274335
1.42572e+06
164620
25930.7
82118.6
1.40641e+06
1.31775e+06
1.33566e+06
1.17616e+06
1.18773e+06
1.23398e+06
1.22138e+06
1.46439e+06
1.46841e+06
1.3837e+06
1.25596e+06
1.21475e+06
1.25895e+06
1.29221e+06
1.62377e+06
1.53429e+06
1.52065e+06
1.29641e+06
1.35026e+06
1.3536e+06
1.28701e+06
1.63734e+06
1.60589e+06
1.56335e+06
1.31195e+06
1.34196e+06
1.35884e+06
1.3293e+06
975036
253356
963941
939117
233857
956515
213060
885475
218881
940059
900917
120695
174437
827329
874091
770971
164844
69896.2
738656
898751
146763
818415
538393
67899.8
47625.7
662487
111831
721887
2.81237e+06
1.94991e+06
2.96383e+06
2.05115e+06
3.38018e+06
3.8026e+06
1.71108e+06
1.90523e+06
3.07385e+06
2.33747e+06
2.52074e+06
2.76015e+06
3.27136e+06
3.50048e+06
2.61396e+06
3.71498e+06
3.67163e+06
3.12139e+06
2.95183e+06
2.78091e+06
2.99027e+06
3.75165e+06
2.73782e+06
3.13852e+06
3.26046e+06
2.84346e+06
3.25404e+06
3.43207e+06
2.74217e+06
1.67679e+06
1.52193e+06
1.55376e+06
1.84283e+06
1.92114e+06
2.15771e+06
2.08761e+06
3.04991e+06
3.52888e+06
3.47558e+06
3.71379e+06
3.14548e+06
3.03922e+06
3.67314e+06
1.78372e+06
1.7939e+06
1.64972e+06
2.45737e+06
2.28282e+06
2.1041e+06
2.30339e+06
1.96136e+06
1.8641e+06
1.84104e+06
2.36511e+06
2.33577e+06
2.30902e+06
2.25727e+06
2.00039e+06
2.00744e+06
1.92471e+06
2.44732e+06
2.5331e+06
2.54535e+06
2.42805e+06
255641
188861
23899.2
1.4963e+06
1.63518e+06
1.62611e+06
291290
1.4196e+06
84218.5
1.44422e+06
1.35005e+06
1.33007e+06
1.18403e+06
1.19924e+06
1.24877e+06
1.22999e+06
1.68238e+06
1.07855e+06
1.67516e+06
612275
24007.6
5.91846
598.291
1.56796e+06
1.49642e+06
1.40858e+06
1.27982e+06
1.23222e+06
1.27981e+06
1.31828e+06
1.63554e+06
1.53285e+06
1.55156e+06
1.30994e+06
1.35632e+06
1.36376e+06
1.2951e+06
1.67609e+06
1.65674e+06
1.58952e+06
1.33177e+06
1.35506e+06
1.37411e+06
1.35293e+06
280979
991448
991935
964804
244600
971530
228875
931062
246794
978264
930721
131160
188619
858783
1.67632e+06
1.67695e+06
1.6715e+06
1.37273e+06
1.35724e+06
1.12052e+06
1.16726e+06
891961
71107.9
779656
170335
747456
910659
153507
1.68164e+06
1.64744e+06
1.66359e+06
1.20787e+06
1.30972e+06
1.01062e+06
818068
835714
68675.5
528758
46518.7
664232
115888
735635
3.67483e+06
7.91304e+06
7.52262e+06
7.45668e+06
7.25131e+06
6.39366e+06
3.78469e+06
6.11309e+06
1.84407e+07
3.75873e+06
6.82908e+06
4.06582e+06
7.09047e+06
8.23742e+06
1.47709e+07
4.84223e+06
5.16353e+06
1.0244e+07
5.29159e+06
5.10803e+06
3.95164e+06
5.25131e+06
4.40368e+06
4.48743e+06
3.38114e+06
3.73021e+06
6.08728e+06
3.72038e+06
5.05211e+06
4.65154e+06
9.13693e+06
6.6847e+06
6.29784e+06
4.98376e+06
6.24057e+06
5.26813e+06
6.90427e+06
1.21634e+07
7.58396e+07
2.11183e+07
6.37806e+06
8.28058e+06
9.26975e+06
8.7406e+06
5.0538e+06
3.79554e+06
4.0269e+06
6.7259e+06
4.06207e+06
5.67083e+06
5.58522e+06
7.00814e+06
6.32386e+06
1.05279e+07
5.27289e+06
6.38921e+06
5.94422e+06
7.13935e+06
2.15006e+07
2.51613e+07
8.72351e+07
7.57051e+06
8.76474e+06
1.06451e+07
1.06903e+07
5.76293e+06
7.82776e+06
4.61146e+06
6.38912e+06
1.2112e+07
5.69763e+06
6.20968e+06
1.63907e+07
1.67529e+07
3.54374e+07
1.19692e+07
1.12943e+07
1.77002e+07
2.97034e+07
2.0177e+07
5.71263e+07
5.48045e+07
3.10012e+07
2.57257e+07
2.40565e+07
4.05403e+07
1.53139e+07
1.72833e+07
3.54433e+07
1.21287e+07
1.07321e+07
1.64353e+07
2.99724e+07
1.28986e+07
1.44906e+07
9.39458e+06
8.40349e+06
8.36833e+06
1.45143e+07
1.32975e+07
2.04141e+07
2.11124e+07
4.10951e+07
1.35536e+07
1.98646e+07
1.37414e+07
3.79206e+07
1.98759e+07
2.18501e+07
4.65229e+07
1.43828e+07
1.34212e+07
2.13824e+07
3.92752e+07
2.5472e+07
6.59356e+07
7.16851e+07
3.46964e+07
2.88193e+07
3.08176e+07
5.3305e+07
1.56943e+07
1.58315e+07
1.00268e+07
9.8411e+06
1.58241e+07
9.8024e+06
1.63705e+07
3.48852e+06
3.25992e+06
3.08788e+06
4.21452e+06
3.43116e+06
3.76432e+06
3.88805e+06
5.72747e+06
7.77682e+06
5.02037e+06
5.02047e+06
8.17907e+06
4.68894e+06
7.79315e+06
4.00051e+06
3.44973e+06
3.68037e+06
4.23208e+06
3.91985e+06
4.65654e+06
4.39408e+06
4.82291e+06
7.91751e+06
5.17453e+06
7.82174e+06
5.91966e+06
5.20494e+06
7.97894e+06
6.84135e+06
3.74828e+06
3.92438e+06
4.32821e+06
6.35982e+06
4.106e+06
6.93258e+06
6.40289e+06
4.10472e+06
3.91735e+06
4.5956e+06
6.4346e+06
4.40591e+06
7.0216e+06
7.5031e+06
4.22597e+06
4.27486e+06
8.19812e+06
4.52572e+06
4.68966e+06
7.83099e+06
7.97562e+06
4.09188e+06
4.08099e+06
4.48415e+06
8.20937e+06
4.37236e+06
7.76406e+06
1.90678e+06
2.19079e+06
1.98343e+06
2.14097e+06
3.25863e+06
7.44202e+06
3.39665e+06
3.08134e+06
2.03411e+06
2.32978e+06
7.16572e+06
5.67033e+06
6.33792e+06
3.21602e+06
5.56047e+06
2.1137e+06
3.35834e+06
6.58728e+06
3.42786e+06
3.22465e+06
2.20303e+06
2.91679e+06
2.1233e+06
2.44517e+06
3.01305e+06
2.27468e+06
3.18799e+06
3.4644e+06
2.26412e+06
2.45392e+06
3.15566e+06
3.55588e+06
3.54064e+06
2.31411e+06
2.2439e+06
2.45517e+06
2.43349e+06
3.2217e+06
3.02487e+06
2.90789e+06
2.82973e+06
2.65859e+06
2.85802e+06
2.57562e+06
3.39916e+06
3.15357e+06
3.21047e+06
2.95782e+06
2.78519e+06
2.96115e+06
2.73406e+06
3.06302e+06
3.43238e+06
3.41385e+06
2.93986e+06
2.75248e+06
2.65797e+06
2.97041e+06
3.24029e+06
3.4813e+06
3.43388e+06
2.977e+06
2.7928e+06
2.73511e+06
2.96971e+06
3.14672e+06
2.89899e+06
2.8108e+06
2.88785e+06
2.56225e+06
2.59734e+06
2.83498e+06
3.47728e+06
3.07799e+06
3.18425e+06
2.99764e+06
2.75896e+06
3.03683e+06
2.7825e+06
2.87167e+06
3.39805e+06
3.21364e+06
2.96782e+06
2.60534e+06
2.66995e+06
2.86666e+06
3.18163e+06
3.4027e+06
3.53478e+06
2.77481e+06
2.99977e+06
3.0534e+06
2.78888e+06
2.38394e+06
1.80013e+06
1.99778e+06
1.64212e+06
2.3574e+06
2.83121e+06
2.70175e+06
6.66183e+06
3.47209e+06
3.58349e+06
3.29805e+06
6.19654e+06
3.22761e+06
6.40799e+06
6.30819e+06
3.69383e+06
3.57001e+06
3.34877e+06
6.14881e+06
3.26699e+06
6.29569e+06
3.50987e+06
3.33343e+06
3.27007e+06
3.08876e+06
2.99846e+06
3.07637e+06
3.0312e+06
3.45211e+06
3.25888e+06
3.36091e+06
3.09735e+06
2.98387e+06
3.05973e+06
3.03938e+06
2.14955e+06
2.01283e+06
2.01539e+06
1.17664e+06
877509
1.46726e+06
1.38589e+06
2.23901e+06
2.14603e+06
2.11053e+06
2.55594e+06
2.40413e+06
2.35687e+06
2.58765e+06
5.12824e+06
5.13266e+06
2.17811e+06
3.32428e+06
1.23791e+06
3.7131e+06
1.60044e+06
1.91353e+06
3.05197e+06
2.83858e+06
3.37607e+06
1.36419e+06
3.7098e+06
1.598e+06
2.16945e+06
2.03815e+06
2.00334e+06
1.27209e+06
1.46546e+06
925414
1.38181e+06
2.29207e+06
2.27599e+06
2.07772e+06
2.52049e+06
2.36244e+06
2.54149e+06
2.31036e+06
2.15232e+06
2.30593e+06
2.31555e+06
2.57928e+06
2.43108e+06
2.58953e+06
2.39148e+06
2.25971e+06
2.13765e+06
2.15933e+06
2.56148e+06
2.43221e+06
2.39691e+06
2.57902e+06
7.06493e+06
3.93203e+06
3.88678e+06
6.84308e+06
3.66221e+06
3.54392e+06
6.57848e+06
3.55671e+06
3.43436e+06
3.44102e+06
3.14739e+06
3.07321e+06
3.11046e+06
3.07034e+06
7.53518e+06
3.75043e+06
3.80424e+06
3.46046e+06
6.95316e+06
3.55674e+06
6.70793e+06
3.61036e+06
3.6747e+06
3.54362e+06
3.19183e+06
3.16749e+06
3.21307e+06
3.16376e+06
2.37137e+06
2.11342e+06
2.11375e+06
2.5742e+06
2.33298e+06
2.3424e+06
2.56334e+06
2.8743e+06
5.61783e+06
2.92843e+06
3.07139e+06
5.92382e+06
3.01655e+06
6.04999e+06
2.17511e+06
2.43558e+06
2.37692e+06
2.67778e+06
2.47e+06
2.65846e+06
2.45053e+06
5.51134e+06
5.51165e+06
2.86263e+06
3.08425e+06
5.87035e+06
3.02763e+06
5.92917e+06
2.14775e+06
2.25496e+06
2.1451e+06
2.59077e+06
2.36338e+06
2.38144e+06
2.54547e+06
2.43021e+06
2.40253e+06
2.38538e+06
2.71352e+06
2.7262e+06
2.72269e+06
2.72281e+06
2.29143e+06
2.23606e+06
2.1966e+06
2.49453e+06
2.6354e+06
2.63474e+06
2.46594e+06
2.44391e+06
2.38974e+06
2.39433e+06
2.71376e+06
2.71235e+06
2.70892e+06
2.72028e+06
2.68107e+06
3.04309e+06
3.00022e+06
2.82005e+06
2.83193e+06
2.56928e+06
2.56967e+06
3.05224e+06
5.69112e+06
3.19292e+06
3.21788e+06
6.33053e+06
3.35851e+06
6.20547e+06
3.0542e+06
5.56941e+06
5.53294e+06
6.2068e+06
3.42422e+06
3.25712e+06
6.05466e+06
2.41393e+06
2.40178e+06
2.36789e+06
2.75671e+06
2.74048e+06
2.76894e+06
2.70903e+06
2.45187e+06
2.42556e+06
2.42315e+06
2.79674e+06
2.80527e+06
2.79402e+06
2.79197e+06
2.78939e+06
3.17524e+06
3.1613e+06
2.90337e+06
2.90548e+06
2.61086e+06
2.62662e+06
1.99483e+06
1.93707e+06
1.91722e+06
1.79921e+06
1.76655e+06
1.75153e+06
1.81537e+06
1.91917e+06
2.12812e+06
2.11497e+06
1.74605e+06
2.02814e+06
2.00113e+06
1.75296e+06
2.00944e+06
1.93908e+06
1.94082e+06
1.76756e+06
1.8135e+06
1.80782e+06
1.76692e+06
2.11331e+06
2.12102e+06
1.89034e+06
1.74244e+06
1.73904e+06
2.03109e+06
2.0071e+06
2.35836e+06
2.60896e+06
2.59526e+06
2.3989e+06
2.23646e+06
2.21055e+06
2.41707e+06
1.99828e+06
2.3463e+06
2.34012e+06
2.26801e+06
1.97314e+06
1.96474e+06
2.27623e+06
2.16444e+06
2.12739e+06
2.10492e+06
1.86564e+06
1.94307e+06
1.9162e+06
1.88824e+06
1.95206e+06
2.26325e+06
2.18766e+06
2.08092e+06
1.83075e+06
2.13901e+06
1.79006e+06
1.93818e+06
2e+06
1.94106e+06
1.8005e+06
1.73924e+06
1.75584e+06
1.77139e+06
5.06384e+06
5.0917e+06
2.7908e+06
2.78529e+06
4.64392e+06
2.75673e+06
4.59804e+06
2.18507e+06
2.11298e+06
2.1238e+06
1.93984e+06
1.88672e+06
1.87388e+06
1.92231e+06
2.0307e+06
1.99748e+06
1.9785e+06
1.81375e+06
1.78108e+06
1.78477e+06
1.79966e+06
2.80368e+06
5.1427e+06
2.85664e+06
2.80283e+06
4.66501e+06
2.76969e+06
4.64839e+06
2.2335e+06
1.92793e+06
1.91632e+06
1.80017e+06
1.76956e+06
2.07809e+06
2.12237e+06
2.01594e+06
2.42959e+06
2.38941e+06
2.28385e+06
1.96144e+06
1.96324e+06
2.29386e+06
2.33696e+06
2.62181e+06
2.62961e+06
2.40859e+06
2.17221e+06
2.19672e+06
2.40197e+06
2.16046e+06
2.10157e+06
2.11794e+06
1.86208e+06
1.85872e+06
1.8299e+06
1.898e+06
2.11445e+06
2.09805e+06
2.06781e+06
1.84742e+06
1.84245e+06
1.88874e+06
1.8038e+06
2.93328e+06
4.96868e+06
5.02015e+06
2.83467e+06
4.41037e+06
2.89185e+06
4.51897e+06
3.67702e+06
3.44332e+06
2.03343e+06
3.43102e+06
1.07645e+07
4.16109e+06
4.1221e+06
3.86993e+06
9.19991e+07
1.05728e+07
4.15938e+06
4.0559e+06
3.88716e+06
2.39703e+07
4.46945e+06
7.06754e+06
4.78484e+06
2.9855e+06
2.9499e+06
1.82355e+06
2.79918e+06
1.96166e+06
3.27418e+06
1.6944e+06
5.46909e+06
5.20093e+06
6.91506e+06
5.22242e+06
4.07976e+06
5.57095e+06
4.46038e+06
4.96983e+06
3.6439e+06
4.09261e+06
6.9545e+06
4.01661e+06
5.17401e+06
5.80286e+06
2.19322e+07
2.20765e+07
1.40693e+07
7.12038e+06
9.10673e+06
9.77699e+06
1.10568e+07
6.50148e+06
4.32331e+06
4.45585e+06
5.02526e+06
3.98241e+06
6.07089e+06
4.09254e+06
5.2433e+06
3.79319e+06
4.11982e+06
7.00809e+06
4.16348e+06
5.45731e+06
5.93276e+06
1.00402e+08
1.48628e+07
2.48186e+07
7.7057e+06
9.57145e+06
1.02495e+07
1.16051e+07
5.92858e+06
1.13126e+07
4.89867e+06
5.73444e+06
8.05527e+06
5.87533e+06
6.14335e+06
1.1145e+07
4.65208e+06
4.56142e+06
5.44814e+06
4.06188e+06
6.23393e+06
4.31891e+06
2.49607e+07
6.62144e+07
7.3142e+07
3.66669e+07
2.80126e+07
3.2412e+07
5.27894e+07
1.98103e+07
4.431e+07
2.02014e+07
1.36217e+07
2.08531e+07
1.2559e+07
3.76504e+07
1.81853e+07
4.0942e+07
1.96464e+07
1.23088e+07
1.82629e+07
1.20079e+07
3.5781e+07
1.95546e+07
4.42688e+07
1.96886e+07
1.43074e+07
1.3094e+07
2.16756e+07
3.60037e+07
1.54519e+07
1.64387e+07
9.14963e+06
1.1072e+07
1.48253e+07
9.73639e+06
1.75572e+07
2.84464e+07
7.4275e+07
8.37238e+07
4.00599e+07
3.23273e+07
3.58664e+07
5.90793e+07
2.32098e+07
5.02396e+07
2.30743e+07
1.58242e+07
2.44728e+07
1.50772e+07
4.21915e+07
1.72899e+07
1.80127e+07
1.02011e+07
1.12281e+07
1.73173e+07
1.89784e+07
1.03483e+07
3.66861e+06
3.83276e+06
4.09732e+06
3.8825e+06
4.32478e+06
4.80855e+06
4.37003e+06
3.18254e+06
3.85549e+06
3.57463e+06
4.40957e+06
3.5597e+06
4.02818e+06
3.96866e+06
4.64573e+06
5.13602e+06
4.30506e+06
4.64305e+06
4.06259e+06
4.16011e+06
4.34616e+06
5.16966e+06
5.94681e+06
4.36523e+06
4.4542e+06
4.70567e+06
5.21252e+06
4.49405e+06
3.95323e+06
3.62044e+06
3.50964e+06
4.44326e+06
3.7296e+06
4.46414e+06
3.8615e+06
3.88171e+06
3.51121e+06
3.68368e+06
4.66255e+06
3.77603e+06
4.51075e+06
4.00464e+06
2.50099e+06
3.05254e+06
2.35438e+06
2.7324e+06
3.24399e+06
3.40448e+06
2.62507e+06
3.94328e+06
3.76985e+06
3.74604e+06
4.32116e+06
3.90703e+06
3.98532e+06
4.08418e+06
4.03199e+06
4.16979e+06
3.90481e+06
4.43712e+06
4.1743e+06
4.68197e+06
4.22629e+06
3.60161e+06
3.52581e+06
2.75745e+06
2.94998e+06
3.63247e+06
3.60054e+06
3.07334e+06
2.74804e+06
3.22505e+06
3.14341e+06
2.82256e+06
3.24239e+06
3.36161e+06
2.74872e+06
1.73174e+06
1.57137e+06
1.53681e+06
1.93613e+06
1.86196e+06
2.16728e+06
2.10739e+06
2.92145e+06
3.39838e+06
3.38601e+06
2.98654e+06
3.56164e+06
3.54332e+06
3.07166e+06
1.94348e+06
2.31979e+06
1.82394e+06
1.67882e+06
2.12923e+06
2.32026e+06
2.47118e+06
1.9736e+06
1.8562e+06
1.88243e+06
2.37233e+06
2.34782e+06
2.3196e+06
2.27258e+06
2.06183e+06
2.01486e+06
1.9501e+06
2.51728e+06
2.44641e+06
2.43346e+06
2.53437e+06
2.94651e+06
5.07776e+06
3.04811e+06
2.85373e+06
4.50129e+06
2.89984e+06
4.59884e+06
1.65258e+06
1.58121e+06
1.66587e+06
1.98093e+06
1.95304e+06
1.93749e+06
1.95443e+06
1.60632e+06
1.46862e+06
1.63441e+06
1.63076e+06
1.47088e+06
1.46096e+06
1.60814e+06
1.62231e+06
1.60701e+06
1.45686e+06
1.4684e+06
1.59683e+06
1.45103e+06
1.63554e+06
1.64883e+06
1.97813e+06
1.59889e+06
1.95166e+06
1.96173e+06
1.94625e+06
1.66954e+06
2.15144e+06
2.03026e+06
1.90391e+06
1.78166e+06
2.00724e+06
1.88969e+06
2.16898e+06
1.65729e+06
1.71247e+06
1.31877e+06
1.47088e+06
1.43269e+06
1.69008e+06
1.67512e+06
2.02538e+06
1.725e+06
1.75988e+06
1.54059e+06
1.91995e+06
2.07857e+06
1.70444e+06
2.70882e+06
4.17405e+06
3.65775e+06
2.60307e+06
2.59813e+06
2.69792e+06
4.1226e+06
1.62226e+06
1.59719e+06
1.429e+06
1.23457e+06
1.40225e+06
1.61286e+06
1.59232e+06
1.71147e+06
1.47055e+06
1.6751e+06
1.66549e+06
1.32094e+06
1.4404e+06
1.69548e+06
1.60932e+06
1.56979e+06
1.17207e+06
1.38763e+06
1.59172e+06
1.37544e+06
1.5687e+06
1.70489e+06
1.4811e+06
1.69193e+06
2.02578e+06
1.59028e+06
1.84302e+06
2.07081e+06
2.71905e+06
4.18809e+06
3.6581e+06
2.60385e+06
2.58767e+06
2.70505e+06
4.15207e+06
2.14617e+06
1.85634e+06
1.7511e+06
1.95611e+06
1.98448e+06
1.87525e+06
2.13236e+06
1.6312e+06
1.60273e+06
1.09709e+06
1.16209e+06
1.32785e+06
1.65669e+06
1.58439e+06
2.73927e+06
3.97073e+06
2.33232e+06
3.54043e+06
2.52125e+06
2.74465e+06
4.08204e+06
2.72544e+06
3.90437e+06
2.44563e+06
3.55175e+06
2.55994e+06
2.73421e+06
4.03124e+06
1.64367e+06
1.61629e+06
1.14627e+06
1.17712e+06
1.34822e+06
1.60129e+06
1.66429e+06
1.57503e+06
1.1572e+06
1.60706e+06
611189
159772
124550
681625
19481.7
528581
484227
184099
4903.06
3867.1
216410
5966.09
12145.3
385769
121026
892.15
2200.56
54490.9
1.33738e+06
902681
1.49784e+06
463679
22558
66351.9
270216
33876.6
2959.46
51.5393
27515.7
40.4024
2337.85
485.407
33823.1
2943.89
51.192
25707.2
37.3064
2158.34
453.14
16597.5
504.388
123.438
22.3945
1307.33
290.653
7413.02
13962.6
90.0364
357.758
18.3065
1070.51
243.183
5528.72
2.08767e+06
1.82089e+06
2.12886e+06
1.86408e+06
457860
1.02875e+06
72.2227
686.747
2.14712e+06
2.03011e+06
2.01477e+06
1.92179e+06
1.90392e+06
1.83016e+06
1.81668e+06
2.10957e+06
1.95601e+06
1.98985e+06
1.83371e+06
1.87324e+06
1.78671e+06
1.71473e+06
1.44009e+06
1.85061e+06
1.38109e+06
533416
1.52382e+06
1.46241e+06
460898
1.70143e+06
940064
1.68242e+06
366768
1.39649e+06
1.32312e+06
299913
1.23481e+06
1.76878e+06
975635
1.30754e+06
140876
1.03219e+06
314444
1.46876e+06
746329
1.61807e+06
1.15493e+06
63898.6
181087
856036
29514.9
23777.2
539671
460543
498.281
17196.8
21699.4
305908
3488.72
2593.59
240.298
8420.99
130500
10853.8
2.1526e+06
1.8436e+06
1.74183e+06
2.10394e+06
51.88
410161
1.67883e+06
692.926
2.12503e+06
2.03429e+06
2.00776e+06
1.92516e+06
1.89903e+06
1.81088e+06
1.83334e+06
2.07045e+06
1.94587e+06
1.98188e+06
1.82267e+06
1.86791e+06
1.7807e+06
1.68641e+06
1.36468e+06
1.86666e+06
1.44336e+06
1.45145e+06
535852
447292
1.52824e+06
1.70323e+06
940777
1.03496e+06
1.31876e+06
370734
298111
1.40239e+06
880877
1.81381e+06
1.18987e+06
1.27427e+06
103981
281862
948448
1.42984e+06
1.60842e+06
728542
1.12945e+06
49507.9
167228
784674
452923
29765.4
476.282
24104.1
16711.7
20673
543870
280162
2474.7
1902.6
204.282
7376.31
9251.7
98600.3
369651
20614.3
6.37002e-05
209680
0.415278
3.01837
0.0153097
0.0248105
1.72052
12.9688
12.3711
0.00944544
0.0965491
0.000416435
0.0170784
0.00280217
0.333056
317082
9703.14
21281.9
7594.51
16123.5
298.45
394.846
89285.2
1461.79
4161.42
2838.78
8462.53
152.908
49.9507
63321.2
302922
0.291138
0.012215
1.23069
2.12334
0.022974
12.9839
369955
9680.78
21333.2
15120.9
7058.51
278.304
394.63
181747
1013.78
1971.32
7063.12
3413.99
125.69
34.7718
2892.54
334.438
584.319
74.0352
46.2561
10.5634
1.34088
0.145243
170.468
7.33923
2.30206
131.469
5.49028
0.110404
0.392717
635.026
16.6699
12.0748
469.375
9.53884
0.288964
0.102226
3.00162
0.144186
169.68
7.31706
121.677
5.09539
0.392493
637.887
16.7556
11.4177
442.521
8.92928
0.27145
0.00200122
0.436144
0.000808664
4.37013e-05
7.23402e-05
5.76344e-05
0.00124504
24.3164
1.19799
69.8457
2.75209
0.0234639
0.894278
0.0568878
72.1847
5.71389
232.409
4.63436
0.0523379
0.140008
1.44297
0.017188
0.969617
0.0461697
16.9265
56.9286
2.24109
0.624695
50.7727
4.76157
193.76
3.81141
0.0388992
0.115839
1.01829
231.11
0.22996
0.315444
5.71856
3.87252
0.118264
0.0190368
5.49631
0.022219
0.752389
0.0126744
0.18816
0.0336481
0.0100195
14.3648
0.0572215
1.71795
0.0253053
0.294098
0.0509302
0.0191632
0.217138
0.0222133
0.0270256
0.164227
0.0222133
0.0256501
0.0239772
0.0240644
0.216128
0.0214251
0.0214251
0.0263053
0.153611
0.0245718
0.0288414
0.0231067
0.0255411
0.0166646
0.0166646
0.0166646
0.0166646
0.0510408
0.0153097
0.0153097
0.0153771
0.016029
0.0260673
0.015672
0.0109572
0.00975789
0.0377649
0.0100975
0.00944544
0.00944544
0.00944544
0.0197825
0.0178882
0.0759373
0.017875
0.0170784
0.0170784
0.0170784
0.012215
0.0125467
0.0122309
0.0415122
0.0122426
0.0128361
0.0197591
2.03843e+06
365.748
251.112
367472
199.256
10668
1.44478e+06
2274.78
11378.9
49.714
2.32053e+06
0.0750436
0.0165255
203.605
0.0648709
3.49266e+06
1.67484e+06
8078.6
0.102432
1.9298e+06
27116.4
1.94472e+06
2.59577e+06