/*--------------------------------*- C++ -*----------------------------------*\
  =========                 |
  \\      /  F ield         | OpenFOAM: The Open Source CFD Toolbox
   \\    /   O peration     | Website:  https://openfoam.org
    \\  /    A nd           | Version:  9
     \\/     M anipulation  |
\*---------------------------------------------------------------------------*/
FoamFile
{
    format      ascii;
    class       volVectorField;
    location    "0.00325";
    object      rhoU;
}
// * * * * * * * * * * * * * * * * * * * * * * * * * * * * * * * * * * * * * //

dimensions      [1 -2 -1 0 0 0 0];

internalField   nonuniform List<vector> 
27869
(
(-9.04645 29.0414 83.5126)
(-32.7871 8.85477 73.9492)
(-32.8605 -10.7114 74.0747)
(-9.19471 -16.2521 94.8409)
(-27.9373 -15.4446 86.0962)
(1.94012 -18.5549 115.279)
(-29.2303 7.4422 84.4752)
(2.36137 29.0247 109.509)
(-32.696 -20.911 75.6268)
(-35.2573 -19.2886 67.5717)
(-34.7937 -9.2994 67.4769)
(-26.5836 -5.0357 68.9859)
(-26.7281 -15.9399 68.8853)
(-23.8722 -17.5245 78.9268)
(-24.4105 -6.22659 77.9505)
(-30.6662 -12.9128 80.1474)
(-26.3825 -25.9898 89.2517)
(-29.6944 -23.2483 82.854)
(-16.1123 -21.9988 99.137)
(-20.1786 -19.6574 89.0305)
(-21.2765 -7.86409 86.8159)
(-17.6539 -9.71228 95.491)
(-33.0697 -1.04332 73.2642)
(-33.84 8.8985 68.8008)
(-34.4624 0.161512 67.5055)
(-26.2989 16.1394 68.7707)
(-26.5103 5.61802 68.7603)
(-24.8708 4.90599 76.5732)
(-25.1394 16.0091 75.8744)
(-31.5263 8.09067 79.1452)
(-29.1543 -4.54049 84.8361)
(-31.5264 -2.77537 78.9732)
(-22.3354 3.86956 84.417)
(-20.4284 15.1474 90.1086)
(-19.3241 2.50997 92.2696)
(-23.1151 15.6225 82.9101)
(-4.02952 -17.1647 104.297)
(-17.1314 -14.6675 75.0631)
(-13.5631 -15.8121 85.0933)
(-17.1443 -1.81975 73.4578)
(-9.0084 -0.214156 90.2136)
(-14.4454 -2.9043 83.0832)
(-4.79728 -1.10481 99.3023)
(-9.18163 -17.5384 95.9536)
(-4.19496 -19.7839 107.758)
(8.87482 -20.5214 127.774)
(-10.6151 -4.29985 93.2614)
(6.58641 -3.8391 121.056)
(-6.10295 -6.00253 103.937)
(0.519795 -2.24595 109.53)
(-9.23304 14.3086 86.7981)
(-17.4929 22.653 71.1748)
(-17.4573 10.2507 72.4635)
(-15.3163 9.69064 81.1912)
(-6.19126 29.2145 91.3204)
(-5.85393 13.8752 95.293)
(-15.8718 22.7029 79.1535)
(-11.8973 8.95165 90.2704)
(-2.07388 29.2771 99.8569)
(4.02291 12.2994 115.124)
(-9.79286 22.2646 95.9749)
(-8.05862 7.87741 99.7669)
(-1.11647 13.3072 104.618)
(-13.0575 22.6331 87.358)
(34.0374 13.2582 299.86)
(57.8476 3.927 291.991)
(8.34862 -23.9643 192.75)
(28.4501 -26.7543 216.577)
(-0.526876 36.2058 112.06)
(47.4962 61.1354 363.505)
(80.464 63.3924 407.181)
(15.9885 36.3147 139.832)
(-1.09185 57.7039 319.921)
(21.5968 59.546 335.916)
(-9.43572 34.9456 102.66)
(-13.5435 33.7917 100.387)
(-26.359 -25.621 118.872)
(12.0223 17.0265 273.821)
(-5.70908 23.914 251.572)
(-8.67199 -21.8123 176.968)
(-22.3679 -19.4973 164.097)
(-15.9654 -20.7913 170.413)
(-20.7072 -23.4532 120.514)
(-22.0492 -2.96808 165.739)
(-23.1797 -2.72916 110.22)
(-18.0687 -0.594787 111.2)
(-14.9974 -1.48223 167.58)
(-14.7173 -21.7043 123.43)
(-0.557758 -22.9322 184.254)
(-8.55836 -21.0166 128.327)
(-0.0253472 0.425882 175.312)
(-7.55162 0.634932 118.689)
(-12.6831 0.410993 113.88)
(-7.67356 -0.203012 170.603)
(17.8661 -25.2401 203.475)
(-1.53641 -20.8389 134.693)
(5.43787 -21.5657 143.794)
(8.10212 0.497109 181.77)
(-1.36208 0.49425 124.763)
(4.46023 -0.327202 133.629)
(16.5433 -0.170428 191.177)
(-27.6195 -15.561 48.8964)
(-14.6527 -16.0745 87.604)
(-38.0987 -15.8782 42.6634)
(-30.158 -13.9112 50.9902)
(-17.8305 27.2024 68.6946)
(-25.988 13.6711 45.6993)
(-34.7505 8.83431 63.5593)
(-12.5068 28.5799 77.4897)
(-34.911 -15.8469 35.9879)
(-33.668 -8.05433 39.8575)
(-37.6946 -7.36388 45.5822)
(-29.9672 -14.5894 37.4636)
(-30.9199 -13.829 43.4415)
(-30.2768 -3.2955 44.5714)
(-28.4066 -3.75741 38.7496)
(-37.8999 -16.5685 50.8713)
(-37.2092 -17.8221 59.2989)
(-29.1002 -14.7763 59.5605)
(-36.6104 -8.39169 60.5071)
(-37.4 -7.69824 53.0772)
(-28.795 -4.26358 60.4997)
(-29.5751 -3.51804 52.1715)
(-27.2264 5.25699 41.8277)
(-26.9428 1.39277 59.4497)
(-31.728 -1.71989 46.6269)
(-36.5476 0.39492 48.9736)
(-34.4017 7.18211 54.3725)
(-29.1793 14.9158 49.2355)
(-29.9155 5.98812 46.8201)
(-35.7595 0.636429 61.5046)
(-36.9809 0.404534 55.1547)
(-35.7719 8.5617 58.0887)
(-27.6615 15.717 62.1048)
(-28.2811 5.86318 61.3994)
(-28.5868 15.2401 55.4902)
(-29.1489 5.93623 53.9172)
(-26.2837 -19.2696 74.595)
(-23.7364 -1.64265 69.7309)
(-25.4548 -2.16 47.6409)
(-22.4682 -17.0376 77.2374)
(-25.6678 -14.1643 53.5486)
(-24.3383 -1.06318 52.4656)
(-20.4307 -0.194288 72.8774)
(-18.4468 -16.0921 81.4502)
(-23.4824 -13.813 59.4949)
(-20.9878 -14.1465 66.7552)
(-20.4014 -1.27843 65.3639)
(-13.8802 0.0932115 83.2632)
(-22.4428 -0.963241 58.2545)
(-17.2287 0.189839 77.2289)
(-22.5478 21.0284 52.659)
(-20.2652 25.548 65.58)
(-22.1964 19.6534 49.005)
(-21.869 12.4045 67.2265)
(-23.7289 8.96079 48.1012)
(-23.414 10.147 52.6205)
(-19.0638 13.7192 70.5367)
(-13.3214 14.315 80.2544)
(-19.5944 22.2279 64.1934)
(-20.0242 10.381 64.9136)
(-15.3069 27.9851 72.4593)
(-21.1675 21.6693 57.8569)
(-21.7355 10.3771 58.1482)
(-16.3295 14.1328 74.6647)
(-15.8084 17.3776 104.808)
(-17.798 31.8477 99.279)
(-20.427 15.58 103.743)
(-19.3389 18.4039 158.98)
(-16.1773 37.8177 152.722)
(-12.5283 20.5558 158.967)
(-9.86314 40.1513 152.313)
(40.3474 -28.627 231.805)
(13.2766 -22.9663 155.45)
(22.4308 -25.1148 169.453)
(19.5495 -3.27115 157.272)
(11.4386 -1.50563 144.476)
(26.1406 -1.36394 203.195)
(36.9905 -3.21278 217.744)
(-5.29079 35.7074 106.684)
(-11.2389 18.2495 107.325)
(-6.72411 18.6244 111.794)
(2.74477 43.0433 157.423)
(1.13769 22.8145 164.657)
(-5.76414 22.0313 160.829)
(-3.49288 41.9011 153.858)
(-1.34986 18.6545 117.536)
(9.33596 43.7901 162.78)
(8.47427 23.115 170.25)
(3.83175 36.416 119.933)
(3.59231 18.238 125.935)
(15.9647 22.892 178.91)
(15.9648 44.1479 171.1)
(9.59509 36.4882 129.007)
(17.022 16.5584 147.443)
(9.93942 17.637 135.812)
(24.6675 22.2863 189.896)
(32.9492 44.199 194.294)
(34.4397 21.2326 203.355)
(23.8718 44.2478 181.426)
(22.5183 14.7061 286.364)
(1.079 -7.73587 222.676)
(10.3726 -9.59947 233.318)
(9.93954 6.70055 240.871)
(21.7515 23.3667 312.001)
(0.270845 7.22935 233.029)
(10.3416 24.4027 300.152)
(-14.4583 -2.27457 202.935)
(2.61244 20.0684 262.185)
(-7.21717 -5.47248 212.576)
(-9.51748 27.6202 279.573)
(-17.0051 7.88439 220.077)
(-8.75227 7.52658 226.264)
(-0.0941454 25.6621 289.44)
(46.6062 12.5686 314.393)
(20.7027 -11.1173 244.842)
(31.9977 -12.5181 257.715)
(20.3583 6.14333 250.24)
(34.1931 22.6404 325.358)
(31.6302 5.47792 261.857)
(47.7987 22.2572 340.528)
(-5.95701 46.7626 225.269)
(-11.857 56.7274 314.678)
(-14.66 44.5668 224.367)
(-11.5425 39.5869 300.644)
(-16.5589 24.7372 225.055)
(-7.94573 25.8286 227.874)
(-1.25958 39.1939 308.375)
(11.4062 49.8449 232.704)
(9.9976 58.7021 326.847)
(2.60538 48.5642 228.006)
(10.3732 27.721 237.668)
(21.4599 39.3749 327.658)
(1.02608 26.997 231.913)
(9.72477 39.2611 317.229)
(79.3167 22.9722 376.912)
(58.0019 -14.7453 287.326)
(75.4195 14.1872 346.511)
(60.3603 12.8265 329.99)
(44.3617 -13.7168 271.944)
(44.0102 4.69625 275.815)
(62.7473 22.2879 357.738)
(30.1954 51.1909 250.151)
(33.9506 60.3134 347.928)
(20.4767 50.6944 239.877)
(20.2743 28.0898 245.533)
(34.1187 39.3089 340.396)
(30.915 28.058 256.288)
(47.9621 39.2291 355.998)
(54.1065 51.5524 279.883)
(56.0085 26.9201 286.397)
(80.637 39.366 397.093)
(62.7855 62.0918 383.076)
(41.2796 51.4382 263.315)
(42.7079 27.6249 269.822)
(63.299 39.2009 374.804)
(95.8824 49.6808 442.771)
(0.140588 0.120107 0.821539)
(0.000291943 0.0002971 0.00186802)
(111.018 69.7405 548.829)
(74.4925 104.064 633.288)
(63.0013 45.0192 403.716)
(112.686 97.659 591.603)
(69.5919 120.551 621.124)
(69.1749 63.9189 494.989)
(107.461 109.83 553.916)
(-51.2509 -62.9376 43.0103)
(-44.3248 -31.3762 56.153)
(-52.6492 -66.5766 49.6234)
(-45.1691 -28.3796 41.2883)
(-66.7336 -87.1059 5.32381)
(-45.4175 -59.7005 12.8861)
(-0.0914009 -103.901 53.4047)
(-46.4982 -67.039 24.7856)
(-52.3231 -60.1581 12.0044)
(-53.7781 -78.6842 -5.60224)
(-39.1708 -82.1942 -0.925648)
(-30.6973 -90.6248 14.1372)
(-49.7303 -79.5174 3.15193)
(-42.9468 -59.6096 18.2649)
(-51.0443 -56.8602 16.0238)
(-56.2362 -69.0448 23.1844)
(-54.8392 -64.0806 16.366)
(-61.3367 -82.5831 -1.87854)
(-62.2069 -81.1781 9.47881)
(-57.7858 -78.9056 4.51109)
(-53.1901 -59.6531 19.3909)
(-55.4877 -63.5574 25.0293)
(-30.3342 -79.7145 34.7483)
(-16.789 -99.3674 33.586)
(-42.2615 -79.6807 16.4544)
(-26.3061 -68.0382 51.8487)
(-37.4937 -62.1345 31.487)
(-48.4189 -54.7956 24.067)
(-43.3763 -52.5006 35.1158)
(-51.8943 -65.1548 25.2362)
(-56.2976 -74.278 16.7518)
(-53.0001 -72.993 13.2099)
(-51.9798 -54.8609 25.1097)
(-50.1523 -50.1666 34.1884)
(-53.0489 -57.5165 29.1684)
(-48.9184 -48.569 32.0119)
(-52.627 -69.7479 46.241)
(-49.7349 -57.6528 29.2586)
(-52.3553 -57.7478 31.6006)
(-46.8713 -50.3305 36.2209)
(-47.3391 -48.1491 27.4165)
(-50.9427 -48.4551 29.768)
(-48.1484 -49.5405 41.5833)
(-49.2771 -66.3967 61.6493)
(-51.2026 -65.6993 55.0591)
(-52.6252 -59.8982 36.7937)
(-51.2731 -50.8229 35.5291)
(-47.2857 -51.8464 56.3373)
(-48.2974 -50.3063 48.7438)
(-51.0339 -54.1312 41.8966)
(-48.2682 -36.5182 39.6843)
(-41.4263 -28.879 35.7818)
(-41.7052 -41.0668 42.2105)
(-43.5165 -37.4721 33.9299)
(-45.365 -43.4247 31.4523)
(-50.1297 -41.7828 33.1334)
(-46.1594 -37.6101 39.5903)
(-48.0288 -38.5723 46.2821)
(-45.2363 -29.4305 48.9975)
(-49.1487 -36.6496 42.6291)
(-50.9002 -43.7882 38.344)
(-45.4068 -40.6509 55.0656)
(-46.5757 -38.6678 47.4072)
(-49.9042 -46.6061 43.9095)
(-14.8724 -23.0928 1.3004)
(-14.2394 -25.7196 6.40209)
(12.5113 -74.5708 2.1262)
(13.3191 -83.9249 -4.59913)
(-7.32269 -122.505 4.44352)
(-9.85864 -121.294 7.14373)
(13.3533 -142.4 4.55074)
(21.5592 -146.449 19.7589)
(-0.908318 -77.508 3.9094)
(-14.8302 -24.2739 3.34975)
(-12.2771 -35.0263 1.53654)
(-10.9926 -44.1575 1.95887)
(-11.3552 -38.1929 2.67118)
(-10.1641 -46.834 4.58515)
(-3.14989 -73.3274 2.55132)
(3.99505 -84.7789 2.15021)
(-14.7406 -21.6874 5.07484)
(4.11076 -64.5737 -9.02899)
(0.555345 -79.2102 8.92687)
(-7.79208 -46.9149 2.56227)
(-7.70639 -53.7903 7.26196)
(8.7142 -92.9512 -2.66218)
(11.9926 -87.4673 -11.6735)
(11.1792 -95.2063 -1.58903)
(9.8067 -79.5137 -10.4214)
(9.90265 -86.3476 -7.7731)
(6.99156 -72.4492 -2.68647)
(11.9908 -93.6607 -6.59339)
(11.8055 -87.3702 -2.86762)
(18.1368 -145.059 16.6584)
(10.6722 -131.399 6.87109)
(14.0488 -119.807 12.1933)
(11.0663 -147.424 16.0756)
(7.93464 -112.298 11.4677)
(11.2048 -148.244 12.756)
(12.1202 -131.542 6.46083)
(-9.73617 -37.5705 4.66184)
(-14.6618 -22.7652 6.20709)
(-11.0537 -35.107 3.62507)
(-12.7284 -31.0562 6.44925)
(-5.50172 -46.3094 2.3002)
(-13.6046 -27.9645 5.31139)
(-13.8222 -26.2545 6.98262)
(-12.5845 -31.7677 5.67879)
(-14.7571 -21.8791 5.6444)
(-14.5951 -24.7011 4.6924)
(-14.1348 -24.3972 5.26468)
(-13.4821 -29.4283 4.29816)
(-14.2645 -25.7998 5.60918)
(-14.1236 -25.4583 6.51716)
(-2.3782 -59.2698 -0.0242853)
(-3.56388 -52.9294 -2.04117)
(0.691667 -58.012 -5.06566)
(6.70208 -69.9192 -8.2622)
(1.27161 -64.709 -2.97716)
(-7.49898 -43.9388 3.57928)
(3.09427 -67.1774 -7.88002)
(-1.53357 -57.782 3.80245)
(-8.27618 -48.475 6.99908)
(-2.05981 -72.4478 7.78319)
(5.98371 -89.8393 4.11168)
(2.14344 -64.5364 1.44625)
(2.95825 -85.4664 2.08527)
(-10.3111 -41.7086 8.62063)
(13.3815 -78.7312 0.452886)
(8.89246 -93.7709 1.51462)
(1.55198 -60.6968 1.97047)
(12.8705 -82.7141 2.20656)
(3.33008 -65.1998 1.41656)
(7.12348 -90.7862 2.66735)
(13.2345 -85.663 0.112204)
(8.51395 -125.993 4.58457)
(2.77017 -99.0403 -1.78165)
(-9.31626 -121.906 7.2166)
(2.83242 -136.249 12.4068)
(1.90446 -138.904 11.7293)
(9.61865 -120.425 2.22509)
(3.83586 -101.674 0.810171)
(15.1311 -143.273 11.1864)
(7.55695 -128.19 6.61761)
(1.79503 -105.083 3.63938)
(7.6013 -146.451 4.67032)
(3.63017 -107.449 8.53797)
(9.33032 -147.101 8.86751)
(5.27252 -125.549 3.98852)
(5.75489 -127.881 4.40315)
(5.45014 -104.15 3.05487)
(-7.59116 -122.182 6.17188)
(-2.4224 -141.669 4.88943)
(-0.283722 -140.522 7.73775)
(3.88004 -127.408 4.04826)
(5.34995 -104.158 2.17487)
(-12.5289 -34.0503 5.17301)
(10.4981 -92.788 -16.9665)
(16.3056 -116.717 -20.8888)
(3.54267 -112.48 -5.55419)
(-7.80289 -123.332 5.5186)
(13.6216 -119.028 -9.39357)
(22.2015 -146.571 20.9327)
(10.3859 -134.63 10.0514)
(10.7868 -98.2396 -7.50688)
(7.29964 -71.6012 -12.6075)
(2.39717 -73.2341 -3.66814)
(5.2307 -89.3424 6.2378)
(9.20072 -86.197 -12.9322)
(11.5166 -95.0937 -6.85083)
(9.27751 -92.0832 -3.06723)
(11.4002 -102.259 -16.6417)
(10.1119 -97.8358 -9.43343)
(11.3448 -84.7247 -15.7575)
(9.0656 -90.0261 -10.7768)
(10.6215 -94.0754 -15.2686)
(11.528 -93.6777 -10.1689)
(9.63144 -98.8759 -10.1813)
(9.52414 -105.269 -7.11629)
(4.1613 -94.9789 -7.23271)
(7.85136 -117.491 -11.9079)
(5.52872 -111.831 -2.88384)
(8.75051 -100.941 -11.6033)
(7.25903 -102.966 -3.24624)
(8.43277 -112.859 -8.22246)
(19.6098 -145.048 21.7331)
(11.9116 -124.102 3.28757)
(17.0844 -124.259 10.3341)
(10.8031 -145.445 17.0537)
(12.5842 -127.71 4.80917)
(15.1929 -123.937 7.71626)
(10.0071 -144.017 16.8018)
(4.92905 -67.1151 -4.64201)
(-4.49782 -48.6741 -0.629506)
(-7.62276 -48.4053 0.695332)
(-9.09876 -43.4451 4.15915)
(0.759117 -61.0703 -5.7284)
(1.38106 -58.3709 -2.02198)
(-3.11548 -56.3177 -0.219097)
(7.66161 -75.6714 -9.06233)
(2.56196 -65.1807 -7.22288)
(8.46635 -76.939 -13.7709)
(8.56973 -75.8209 -12.0183)
(5.00285 -70.3997 -11.2364)
(5.42873 -73.1389 -7.47949)
(8.56741 -79.8156 -12.2204)
(6.45229 -76.4907 -6.67647)
(-1.09307 -65.4207 -1.57567)
(5.98251 -80.4653 -8.5133)
(4.99606 -76.8158 -2.51394)
(5.09067 -72.4916 -7.25998)
(5.83986 -82.8883 -7.75821)
(1.52454 -71.533 -2.13115)
(9.24788 -78.7816 -3.42731)
(-2.54618 -63.3076 3.93571)
(9.27132 -96.328 1.89751)
(8.03387 -91.2622 6.01408)
(7.63668 -73.4568 -1.84958)
(10.3569 -97.6686 1.49862)
(2.27392 -69.1954 -0.341368)
(23.09 -134.811 -26.1256)
(9.70477 -105.375 -11.1167)
(10.7159 -123.352 -17.79)
(17.6816 -122.212 -19.0158)
(10.4941 -108.124 -15.8829)
(9.88406 -114.587 -13.4811)
(13.3463 -109.351 -14.4563)
(7.31961 -116.226 -1.792)
(3.49108 -100.927 -4.41972)
(-1.72895 -124.92 0.912147)
(1.05204 -135.924 12.0942)
(7.74874 -115.739 -0.179369)
(0.407915 -137.099 9.78294)
(7.06664 -106.803 -5.98159)
(12.409 -135.377 17.7478)
(15.2383 -142.501 20.4184)
(11.2345 -121.493 0.790605)
(8.95426 -119.011 4.17324)
(11.5202 -121.395 6.26156)
(9.88763 -141.612 13.5749)
(10.5296 -120.551 -2.06179)
(6.58486 -128.348 -0.0740984)
(8.7842 -116.651 -5.22748)
(16.3939 -115.505 -15.3707)
(6.37896 -122.874 -4.79108)
(2.77275 -134.93 5.42355)
(10.6142 -117.918 -8.8982)
(12.2524 -110.787 -11.0781)
(44.3674 -208.114 19.4353)
(26.9987 -133.997 53.2892)
(26.2347 -137.189 47.6609)
(34.6969 -161.574 21.1433)
(20.6751 -150.541 7.38425)
(10.6093 -142.126 -2.64593)
(30.3241 -238.059 -15.7338)
(4.74242 -222.498 -41.3269)
(0.46246 -219.371 -40.2361)
(2.98976 -190.909 -25.1891)
(5.26755 -192.714 -27.8023)
(10.6196 -223.736 -39.2377)
(18.4396 -222.134 -41.2602)
(13.3226 -195.78 -24.2315)
(18.0872 -196.727 -26.4115)
(11.3439 -228.385 -36.1413)
(23.8648 -206.649 -6.1519)
(9.40495 -198.1 -23.5508)
(35.9168 -235.842 -3.61845)
(24.8093 -226.224 -30.8748)
(22.1215 -201.066 -18.9765)
(31.3201 -208.662 3.50283)
(10.2236 -140.786 -0.202681)
(17.1506 -142.015 4.29555)
(7.76049 -164.035 -11.9513)
(7.91958 -166.206 -13.9245)
(14.6453 -166.84 -10.2624)
(17.415 -170.034 -11.7592)
(18.0173 -144.609 2.37092)
(30.5138 -202.505 -12.9664)
(9.90477 -153.763 5.1226)
(15.7904 -202.288 -16.924)
(19.3702 -158.34 20.142)
(19.3763 -188.949 -4.06106)
(28.5847 -185.714 -6.54268)
(35.3476 -161.277 29.2227)
(13.0997 -145.852 -1.16217)
(20.155 -176.607 -0.66168)
(10.1759 -170.458 -11.7997)
(20.1502 -174.694 -6.05466)
(25.8905 -154.133 18.4829)
(19.7955 -148.987 6.17956)
(27.8479 -181.015 11.3742)
(44.6837 -165 49.6574)
(42.5999 -163.715 36.6046)
(37.9718 -201.777 -1.31812)
(32.872 -186.346 1.92452)
(38.0419 -160.088 48.7377)
(39.4802 -160.599 37.8062)
(36.6407 -191.157 20.7961)
(22.0769 -140.126 18.5153)
(24.7319 -152.325 36.2023)
(21.3141 -165.1 6.66523)
(25.6493 -164.581 4.65794)
(30.5301 -135.769 44.5281)
(33.732 -152.348 36.8781)
(23.6538 -141.45 16.6784)
(28.4907 -165.82 10.0829)
(32.12 -149.105 50.1115)
(28.9404 -133.51 45.7575)
(28.3279 -148.349 33.3111)
(34.8291 -150.175 41.0323)
(24.8475 -143.874 20.8011)
(32.4063 -170.421 26.1104)
(28.9023 -157.736 -29.0286)
(2.42377 -130.537 -8.65508)
(24.6867 -204.068 -27.5337)
(-6.41224 -202.962 -29.4792)
(15.5109 -142.044 -0.031551)
(15.6496 -123.733 -10.18)
(6.02327 -125.011 -0.712187)
(4.01732 -135.871 -4.51363)
(2.86842 -140.384 -15.258)
(5.32671 -135.391 -13.9015)
(-0.30392 -153.665 -15.4719)
(4.49464 -121.232 -5.17918)
(0.852976 -157.132 -20.5652)
(6.42674 -123.968 -10.6188)
(2.93453 -138.154 -10.1614)
(28.8703 -181.284 -29.5354)
(4.91782 -144.562 -18.9509)
(8.99016 -141.802 -19.9346)
(20.5649 -138.58 -22.1272)
(4.77447 -163.628 -24.2666)
(8.41523 -127.812 -16.0169)
(19.1292 -155.933 -22.1856)
(9.24727 -127.481 4.64399)
(7.84968 -123.968 5.2699)
(10.1574 -127.364 12.2349)
(4.64496 -130.043 -8.87718)
(7.29503 -120.488 1.25973)
(8.22862 -122.843 -4.55196)
(5.54338 -128.084 -3.58281)
(-2.00037 -160.492 -18.0832)
(-5.44811 -180.051 -21.3891)
(-4.9997 -204.445 -33.5252)
(-2.24597 -178.474 -18.5716)
(-5.20161 -182.028 -26.2606)
(-0.453932 -159.237 -13.7382)
(-2.57027 -178.941 -22.1891)
(25.9158 -223.762 -21.6308)
(0.450667 -163.771 -20.0916)
(1.50522 -209.787 -32.3869)
(16.4263 -192.272 -14.0756)
(-0.532648 -187.226 -28.2423)
(0.58729 -182.161 -21.4695)
(15.5477 -174.743 -19.1865)
(7.25462 -124.366 -6.79075)
(17.1265 -118.882 -10.886)
(8.18091 -123.475 -4.48061)
(6.21173 -132.001 -13.1852)
(18.3814 -124.843 -16.4808)
(9.85492 -122.946 -10.836)
(15.9405 -137.627 -15.6381)
(5.25529 -135.495 -1.75058)
(3.07665 -129.073 -4.26629)
(5.27314 -128.246 -0.276598)
(1.07287 -142.225 -11.9347)
(2.51693 -154.904 -9.70023)
(2.95261 -141.179 -7.77207)
(1.4743 -155.345 -12.8035)
(6.18902 -137.673 -4.7467)
(14.1006 -132.459 -6.45418)
(5.2813 -129.776 -7.00788)
(2.73959 -144.634 -14.0693)
(14.3777 -165.255 -6.92221)
(3.53539 -158.188 -12.8018)
(12.9363 -151.402 -12.6496)
(48.481 44.4093 386.578)
(66.1511 50.2436 449.549)
(49.8788 49.6107 429.554)
(67.1806 81.3797 542.732)
(70.0067 91.1161 587.75)
(84.5428 83.3357 559.174)
(88.6063 93.0886 603.3)
(78.7372 46.6859 422.494)
(103.745 55.4622 496.633)
(84.0581 52.1133 472.312)
(120.812 90.1624 589.738)
(102.481 86.4001 575.346)
(107.708 95.8695 616.374)
(127.229 98.8471 626.666)
(51.3748 62.6235 471.753)
(71.6392 86.8586 532.426)
(52.7786 84.6126 508.275)
(72.8837 118.97 664.533)
(72.2056 103.782 630.971)
(91.8724 104.404 643.677)
(93.5759 118.826 675.691)
(89.006 66.2392 521.081)
(116.288 93.3068 588.658)
(92.7454 89.7628 559.715)
(112.294 105.387 654.444)
(137.65 119.903 692.67)
(133.296 106.985 662.302)
(115.188 119.1 685.264)
(0.187889 0.268616 1.86671)
(19.8794 28.5244 169.774)
(18.7059 19.3641 112.084)
(0.0647054 0.130495 0.626117)
(11.6305 20.2991 95.3717)
(0.0483026 0.0588666 0.256912)
(45.5071 49.5111 225.126)
(78.4898 106.638 646.797)
(73.1494 110.88 628.917)
(78.9474 114.689 659.449)
(88.4683 102.167 623.227)
(95.2021 106.536 646.493)
(96.1488 113.626 658.724)
(87.1648 108.656 618.186)
(127.359 106.172 638.971)
(101.252 100.003 609.487)
(111.524 106.314 643.926)
(113.126 112.847 655.875)
(111.276 104.167 582.447)
(129.728 112.903 650.547)
(100.009 106.483 603.101)
(71.5371 116.082 626.257)
(77.6425 130.227 692.252)
(78.505 120.973 675.569)
(96.7506 119.329 675.625)
(84.2396 117.477 607.104)
(97.0107 128.721 692.903)
(85.9358 113.569 614.45)
(114.913 118.369 673.235)
(135.466 127.354 685.182)
(109.813 108.2 571.347)
(97.1092 114.004 585.167)
(132.741 118.115 668.017)
(116.456 127.778 690.956)
(98.9531 111.035 596.843)
(-45.0265 66.3707 328.286)
(-19.3523 29.8808 183.538)
(-0.00025647 0.000383737 0.00247944)
(-26.4289 61.3549 321.496)
(-12.1554 36.3294 224.111)
(-2.16374e-05 0.000463866 0.00311017)
(-114.301 128.192 464.788)
(-19.0565 16.2795 60.6082)
(-0.000295725 0.000259685 0.00151743)
(1.76674 51.8368 335.3)
(9.79097 37.843 230.357)
(0.000168683 0.000395668 0.00280521)
(-261.504 115.718 570.735)
(-0.0323878 0.0172992 0.0840684)
(-0.000100345 5.47233e-05 0.000263151)
(-51.857 105.945 637.287)
(-7.86089 54.8023 327.595)
(-3.64979 107.546 646.805)
(-7.96574 133.78 624.212)
(-16.7733 66.7949 398.142)
(-51.0761 136.979 596.964)
(-36.9389 74.7154 385.822)
(11.9228 107.681 647.268)
(59.6471 105.552 640.15)
(22.9179 46.5302 357.422)
(6.81655 131.279 629.697)
(-5.19324 64.3196 408.07)
(53.9417 123.486 629.294)
(35.8499 82.9496 487.584)
(-67.2963 104.792 630.769)
(-108.224 98.771 594.28)
(-84.3219 88.03 388.347)
(-64.197 136.345 583.133)
(-56.2817 84.9183 383.329)
(-96.8996 127.037 521.364)
(-85.9973 111.818 432.107)
(-177.68 152.309 539.89)
(-163.908 111.616 500.864)
(-118.632 98.3028 438.438)
(-98.1871 83.6701 321.427)
(-135.301 80.4088 465.117)
(-119.357 95.9049 574.318)
(-103.956 120.35 488.219)
(-22.3842 56.3764 311.297)
(-41.4671 58.8949 307.06)
(-27.9021 28.2913 101.663)
(-37.8814 22.3195 111.973)
(-32.5797 -14.1622 151.838)
(-38.1262 -2.23599 137.859)
(-19.686 33.4473 234.902)
(-31.88 42.4968 226.087)
(-31.7197 -26.7688 117.539)
(-27.9771 -17.6825 157.916)
(-36.428 -25.6025 115.974)
(-28.8725 -3.67145 164.381)
(-28.8113 -5.16043 110.671)
(-34.8422 -7.09021 112.061)
(-35.1922 -2.80553 162.961)
(-36.013 -8.91406 145.226)
(-42.6169 -19.6653 109.157)
(-40.1634 -22.9545 113.331)
(-45.153 -9.11913 114.752)
(-40.4839 -8.50939 113.567)
(-40.6799 -1.07885 160.463)
(-44.9112 1.36756 156.271)
(5.12393 -44.5875 102.842)
(-34.024 -22.0486 49.4096)
(-30.1384 -17.2741 46.2762)
(-28.4842 -11.715 40.5614)
(-29.164 15.9411 80.2748)
(13.9674 -33.4726 130.55)
(-23.0676 23.8791 64.4226)
(-22.529 9.95025 47.9855)
(-4.93572 -45.65 80.8597)
(-16.5902 -32.5115 55.5257)
(-5.23661 -32.6703 76.7497)
(-25.8663 -29.4441 52.2417)
(-29.0505 -22.1849 41.8598)
(-23.1 -12.9258 47.1031)
(-17.4099 -20.762 60.5249)
(-31.8991 -18.1761 34.0306)
(-25.4164 -23.0388 39.4834)
(-17.1764 -19.5428 52.6458)
(-30.1653 -18.0779 36.4778)
(-30.5258 -15.6454 34.898)
(-26.328 -8.01572 39.5634)
(-28.2111 -5.02628 36.9465)
(13.9067 -37.1283 142.724)
(11.1949 -42.1643 125.065)
(5.73664 -34.4788 104.226)
(-0.748045 -12.8586 96.2155)
(-7.20186 -4.32704 76.2334)
(-15.9529 -7.1404 58.0689)
(-8.62968 -16.3266 75.9421)
(-25.9536 3.05272 41.2211)
(-11.7515 -10.8987 78.5649)
(-22.1143 -9.55391 54.7142)
(5.53932 -23.7515 106.565)
(-6.23858 -21.5503 76.4065)
(-14.8744 4.42235 57.9142)
(-21.5596 -0.339969 46.2347)
(-32.2601 -19.3043 46.377)
(-35.042 -24.0603 74.3747)
(-30.4461 -21.8035 73.6906)
(-31.5378 -4.80907 68.5989)
(-27.4432 -3.28871 68.2381)
(-27.7098 -3.54775 44.9983)
(-28.9507 -5.37058 45.7553)
(-39.0289 -25.9473 75.6698)
(-35.6037 -26.1141 55.8528)
(-41.9794 -27.2938 77.6444)
(-38.4293 -10.9157 75.69)
(-35.3202 -7.15086 70.7732)
(-30.0122 -7.93346 50.1297)
(-30.172 -12.5887 58.2251)
(-25.4857 22.0292 66.1839)
(-23.1392 17.9174 48.7113)
(-22.5368 15.9448 52.8435)
(-28.5242 9.44907 66.3599)
(-25.2257 10.9309 65.7082)
(-25.439 7.61948 46.2544)
(-25.8533 5.78675 48.4433)
(-27.5177 19.6336 71.6572)
(-21.0244 12.5394 60.5701)
(-18.0028 6.99273 71.7013)
(-33.9312 3.29884 76.7999)
(-31.454 6.98567 69.6704)
(-25.8265 2.91404 54.4703)
(-24.3881 -1.92937 63.6375)
(-22.5651 29.9757 99.6881)
(-25.5315 13.6473 104.135)
(-31.3386 12.0279 105.855)
(-26.3255 16.041 160.269)
(-22.9733 35.4293 154.588)
(-33.6416 14.43 162.301)
(-30.3737 33.5882 157.756)
(-33.0809 25.8733 105.253)
(-42.4572 6.76711 113.236)
(-37.1156 9.92934 108.711)
(-40.7662 13.4384 164.145)
(-45.1852 29.1794 166.052)
(-37.8715 31.5987 161.555)
(-47.2152 13.2969 165.129)
(-13.1276 28.2654 242.33)
(-25.6745 7.93275 185.852)
(-20.6756 2.02398 193.939)
(-18.1202 30.3459 270.847)
(-24.5019 8.82058 214.238)
(-31.0062 11.554 208.584)
(-25.528 34.5973 263.409)
(-25.8759 38.3361 229.441)
(-33.024 21.1447 171.924)
(-29.7181 14.5566 178.482)
(-36.4381 15.677 202.642)
(-38.0372 44.505 251.877)
(-40.7299 20.8985 196.278)
(-32.018 39.4994 257.034)
(-23.3138 42.5852 225.097)
(-32.1987 57.2743 309.083)
(-32.0226 41.7041 226.832)
(-21.2126 40.7061 294.271)
(-24.9556 24.1531 223.246)
(-32.9151 24.5466 221.896)
(-29.9233 43.0902 288.995)
(-40.5183 41.285 228.435)
(-50.108 61.5691 304.595)
(-48.5932 41.2188 229.26)
(-40.2105 25.5927 219.919)
(-44.6981 50.3987 279.119)
(-46.4411 27.785 216.509)
(-37.6221 46.3399 283.967)
(-51.3951 -74.8745 46.7288)
(-34.4383 -33.3418 37.1706)
(-29.4662 -104.504 96.2023)
(9.49979 -72.064 109.978)
(41.3469 -136.371 90.0815)
(20.1792 -117.945 43.1721)
(27.3899 -121.709 88.3991)
(23.3475 -121.389 72.6422)
(-10.0741 -84.5233 47.7596)
(-31.0497 -68.1677 21.9196)
(-11.1368 -98.5124 18.3041)
(1.3625 -112.98 36.0399)
(30.0289 -127.351 56.3467)
(3.44775 -90.8882 64.3688)
(-23.0497 -71.3078 33.8474)
(38.9159 -130.027 67.0704)
(25.0038 -122.432 116.894)
(12.8937 -105.294 83.2153)
(40.2119 -135.903 90.1977)
(40.4669 -134.965 76.965)
(24.5074 -107.477 94.424)
(32.2167 -118.546 118.278)
(13.9845 -122.066 54.2813)
(35.1843 -125.927 81.9472)
(34.6569 -131.043 69.9884)
(15.5869 -100.695 83.345)
(1.28773 -90.9773 79.1475)
(-12.0504 -81.3379 55.3835)
(25.3862 -105.567 100.054)
(34.7836 -131.896 90.342)
(35.1426 -126.985 88.2705)
(38.9128 -135.036 84.6537)
(30.6728 -112.054 107)
(31.444 -111.739 127.835)
(32.4726 -112.725 118.732)
(33.9093 -116.26 123.207)
(-47.6463 -81.3675 52.7164)
(-35.61 -72.6979 48.3315)
(-44.3045 -62.0826 34.2959)
(-24.0063 -66.9372 50.1127)
(-43.3061 -53.4238 36.2198)
(-38.5333 -59.7841 42.1671)
(-38.0983 -53.9683 32.5547)
(-4.13324 -115.386 120.164)
(-41.677 -90.5666 68.1128)
(-20.3312 -91.7837 78.9899)
(-16.4951 -90.0042 93.2238)
(-4.61291 -85.6155 83.4403)
(-30.5557 -71.5688 59.8513)
(10.3384 -103.255 118.634)
(-23.0292 -54.0317 60.2983)
(-20.5748 -42.7913 51.6961)
(-11.5377 -66.6608 65.4887)
(-38.4634 -40.4335 33.166)
(-30.1313 -48.2464 41.0097)
(-32.1031 -50.6992 41.0364)
(1.75286 -73.1705 89.2136)
(-1.91754 -78.3183 96.9482)
(-4.7973 -58.7503 79.8726)
(8.47441 -84.3494 98.4998)
(25.9299 -92.485 132.325)
(-17.8508 -61.6268 63.0829)
(18.217 -87.3204 116.638)
(21.0477 -96.2784 123.889)
(-1.95791 54.9704 370.754)
(11.9057 48.9131 345.406)
(9.33674 52.423 382.528)
(7.76829 83.2484 493.876)
(21.3519 81.6809 502.018)
(19.9907 90.3612 543.321)
(5.26987 92.1874 532.135)
(-266.186 151.996 567.834)
(-221.148 144.733 562.709)
(-215.47 125.242 553.907)
(-59.9422 26.7023 135.967)
(-19.0903 12.3159 42.6045)
(-82.7409 64.875 240.46)
(-115.119 58.3558 321.109)
(-17.1589 58.2253 322.964)
(-12.4384 58.1765 361.331)
(-21.9475 62.4596 354.623)
(-5.51937 84.8421 489.419)
(-18.8432 86.8816 488.92)
(-21.9894 98.1486 520.629)
(-8.65485 94.7745 524.342)
(-35.6105 64.0167 323.071)
(-31.0495 66.8806 350.643)
(-40.327 71.1304 349.531)
(-45.6196 91.0649 499.28)
(-32.2331 88.972 492.217)
(-35.3935 101.661 520.436)
(-49.2262 105.114 523.879)
(35.1298 44.9448 371.125)
(35.115 49.8529 411.845)
(21.6559 50.8423 396.219)
(50.6462 80.496 527.031)
(35.4295 80.7193 513.148)
(35.5744 89.6521 556.708)
(52.2369 89.978 571.746)
(-49.4462 75.3749 352.081)
(-59.35 79.4592 359.128)
(-55.5233 68.5575 337.606)
(-60.076 93.2162 509.843)
(-75.617 95.3737 523.5)
(-63.1409 108.577 531.369)
(-78.3127 111.802 542.28)
(-27.251 70.451 390.858)
(-20.3496 81.7156 435.217)
(-32.0716 84.2154 428.873)
(-26.3995 110.851 559.147)
(-15.7987 124.019 605.779)
(-30.906 127.017 598.146)
(-12.2262 107.345 565.64)
(-7.45536 80.6875 444.047)
(6.05211 80.8583 455.932)
(7.24309 62.8484 420.557)
(18.7303 103.741 588.167)
(0.255097 121.85 616)
(2.90244 105.043 575.518)
(17.0576 120.84 627.96)
(-46.4812 79.4305 383.009)
(-43.1628 87.6198 424.525)
(-53.685 92.0118 421.514)
(-40.0854 114.896 555.724)
(-59.5223 134.928 588.824)
(-45.3306 130.755 592.581)
(-53.8344 119.044 555.201)
(35.3455 62.0873 451.873)
(20.4035 81.7096 470.308)
(20.6761 62.1471 435.115)
(35.4876 103.291 602.147)
(53.2113 119.452 652.501)
(53.3431 103.292 616.818)
(34.6236 120.117 640.255)
(-70.8265 83.6134 371.17)
(-80.5874 73.5373 369.043)
(-67.2373 70.8492 351.295)
(-109.569 99.8684 556.118)
(-92.1471 97.5918 539.348)
(-94.5909 114.856 555.802)
(-111.973 117.705 569.834)
(-64.4663 97.5876 420.862)
(-74.8192 104.426 424.104)
(-65.9612 90.76 387.963)
(-73.6649 139.61 587.045)
(-68.0381 123.564 558.061)
(-82.4761 127.969 564.558)
(-87.9646 144.563 587.561)
(-98.9173 119.791 445.536)
(-90.2941 103.237 413.326)
(-77.1438 96.8519 397.673)
(-98.1072 132.035 573.235)
(-119.146 153.614 592.723)
(-103.126 149.317 589.773)
(-115.019 135.699 582.099)
(-100.112 92.8231 410.843)
(-113.543 81.0098 417.228)
(-95.9062 76.8376 390.908)
(-127.783 102.267 571.924)
(-130.315 120.465 582.045)
(-146.786 104.846 584.349)
(-149.404 123.166 590.987)
(-132.668 136.624 488.461)
(-124.911 117.036 462.078)
(-106.024 109.947 435.23)
(-136.246 157.251 595.078)
(-133.038 138.919 589.653)
(-151.85 141.726 594.758)
(-154.354 160.168 595.937)
(-140.051 104.663 469.408)
(-157.092 92.5212 480.835)
(-133.893 86.2498 447.813)
(-186.089 109.96 596.752)
(-166.303 107.481 592.789)
(-168.854 125.717 596.066)
(-188.372 128.028 597.033)
(-170.796 131.759 520.637)
(-154.052 144.755 514.536)
(-146.745 124.401 491.436)
(-171.066 144.16 596.603)
(-190.479 163.01 589.03)
(-172.785 162.221 594.382)
(-189.942 145.91 594.553)
(-0.996145 39.0674 240.341)
(-0.172452 0.34447 2.44381)
(-0.00729211 0.435075 3.05706)
(-0.00218182 0.218634 1.04861)
(-3.34424 92.824 426.458)
(-0.0603691 0.178097 0.836645)
(-31.485 88.3382 386.667)
(1.20004 4.7045 29.6536)
(0.184781 0.324085 2.24866)
(18.0593 32.5142 195.12)
(0.0141293 0.214531 1.03477)
(5.55939 91.216 427.595)
(0.0653197 0.156696 0.763173)
(10.822 23.8479 113.452)
(-53.444 108.844 635.699)
(-35.8911 106.753 641.943)
(-36.9818 108.439 635.741)
(-37.9255 123.729 639.493)
(-51.0157 119.07 625.894)
(-54.299 124.717 637.336)
(-35.4506 119.694 632.07)
(-19.9254 107.273 645)
(-4.53469 107.52 636.882)