/*--------------------------------*- C++ -*----------------------------------*\
  =========                 |
  \\      /  F ield         | OpenFOAM: The Open Source CFD Toolbox
   \\    /   O peration     | Website:  https://openfoam.org
    \\  /    A nd           | Version:  9
     \\/     M anipulation  |
\*---------------------------------------------------------------------------*/
FoamFile
{
    format      ascii;
    class       volScalarField;
    location    "0.00255";
    object      overpressure;
}
// * * * * * * * * * * * * * * * * * * * * * * * * * * * * * * * * * * * * * //

dimensions      [1 -1 -2 0 0 0 0];

internalField   nonuniform List<scalar> 
20059
(
149665
233028
126835
206496
131.427
4266.92
108521
186258
98845.6
78071.5
71047
170465
121322
93124.6
188543
5.48776
56269.9
118294
175049
175595
93531.3
67197.2
118650
124287
105147
88983.5
216873
233463
220856
182044
56936.6
74866.2
75714.1
66929.6
66163
86791.3
87789.2
57139.8
88115.9
75973.6
56360.8
74976
66279.6
86924.4
68665.3
58396.5
60491.1
90015.7
77560.4
80093.6
92985.4
74133.8
66705.2
63216.6
87590.9
83369.2
96854.8
101880
82979.1
76335.5
71053.9
92933.4
99576
108275
116267
79097
123219
103366
92221.5
78008.9
101953
121519
83561.2
95617.2
80827.5
130596
126105
105661
109209
122738
78761.1
102968
92055.7
77866.2
101795
121340
221054
202936
4139.48
4077.27
220983
202073
187017
144004
172644
101237
142399
100118
116967
170993
101527
173018
144303
142502
100233
117103
171119
1321.84
3493.49
219283
205529
179229
213550
161357
103674
176862
147753
153204
107024
125531
182700
96278.4
90280.5
82677.7
117783
107745
126282
139085
91656.4
103065
87109.3
145198
136807
113920
120105
117409
160745
111494
131327
199685
139283
190510
26881.7
56715.1
61704.9
40223
26205.2
56267.7
74367.6
42122.9
36451.9
25660.7
26513.9
25104
36086.5
33924.3
34528
26220.1
35852.6
25353.8
24987.4
35821.8
33826.5
34255.4
55196.1
46344.5
44328.8
56159.9
45910.6
43665.4
54460.4
31461.8
42019.5
51106.5
41432.2
30888.1
39589
50443.1
55988.8
45813.2
45682.9
43598.3
55069.3
54435.3
44114.7
41486.6
31379.6
30869.2
39593.3
51260.9
40182.3
50521.5
79964.3
26613.8
47162.2
86278.7
61584.7
78620.9
30234.7
38441.9
44961.3
48137.2
81395.3
56909.8
98170.3
67232.7
38169
69948.8
27328.3
36281.6
26108.4
37031.6
27390.3
35060.1
36454.5
28485
39930.4
31458.8
38186.2
29134.1
38328.5
40819.2
34448.3
35869.8
45691.6
32676
42397.4
44025.6
48035.7
57914
46286.1
56842.3
56103.6
45009
46570
57898
33794.7
43175.4
32276.6
52467.3
41177.9
42866.1
54485.5
50320.7
48435.3
59415.9
48642.2
63316.8
60244.8
51377.4
50342.5
47307.8
35805.9
45092.6
60535.4
48002.2
57132.4
42702.8
44800.6
39884.7
49908
55135.4
52943.7
58843.2
72091
68557.3
64583.3
56522.3
52970.1
54889.8
59280.1
64785
58814.8
54156.6
45929.8
41795
51692.7
56238.5
74074.9
50252.7
61717.4
49552.5
73212.5
60927.1
60968.1
61937.6
61807.4
50274.2
49585.2
73344.1
60991.4
61073.2
65628.5
76008.6
63339
63120.6
51406.4
65289.4
53307.9
73639.8
66779.4
61086.9
85098.2
71102.8
78004.1
64648.7
50939.7
64405.8
71032.7
68287.9
83458.6
76135.2
61742.9
72427.7
81988.7
68614.2
68104
71736.8
55801.6
59042.3
82902.2
91619.1
77163.8
76285.6
81836.2
63130.5
68149.4
96490.6
88511.8
98065
115985
106155
89798.1
74203
104436
97369
115479
156314
128119
138477
170404
197241
112.071
810.308
227857
98385.5
222873
125400
125155
195169
135233
209637
149783
163034
219281
124011
135413
113163
151961
207019
169206
187437
224955
142146
202810
140499
224464
173289
201469
142599
225232
203218
140663
224558
173483
201605
179804
146185
226854
229119
206441
151823
211145
165132
208541
148511
179034
234067
197011
227839
205189
194879
231408
159635
222892
169870
216811
2014.01
4453.05
2410.78
167450
216441
6340.15
151128
1468.61
45489.9
92246
1394.76
29898.4
4969.45
3109.53
206716
210246
3887.1
6142.85
223973
5182
227454
224150
223960
5334.77
6572.35
226688
194738
182947
1153.57
208544
4263.09
2632.7
195230
2129.42
197757
209138
2185.87
197784
208827
4579.66
201064
197801
3050.46
781.996
174332
1033.52
181552
152322
238.388
857.995
2021.31
182940
637.92
161884
178072
161908
778.369
307.751
148045
145506
152.797
82319.3
71973.4
80048.9
94096.7
70293.3
69809.6
86183.2
223461
100148
184621
87142.3
181479
225456
76730.7
219691
223453
73636.1
66731.2
228692
179319
69241.9
226451
65562.7
178134
65153.9
229897
81490.1
183798
191653
81154.3
217499
71440.4
224663
89952.8
216559
212508
72492.9
223497
78929.4
218109
217549
220920
76757.3
210274
95306
213153
90839
210538
114839
208442
82400.4
216139
203797
98447.3
203694
108270
212608
85878.3
213107
108107
204597
95523.1
214238
206508
110031
202616
123544
201610
199716
124075
212836
208639
169263
131441
192605
71153.8
74636.8
73826.1
111863
110867
113580
114612
68944
67904.6
66930.5
107368
109859
108864
108413
68598.1
71973.5
70296.9
109613
109603
111003
108169
216572
202493
203467
184820
196138
120360
186323
67427.3
68712
69248.5
108724
106963
108450
107304
68700.6
67424.4
66728.6
106941
108706
108416
107295
66342.4
64383
65291.4
106211
107013
107318
105786
66049
64210.9
65154.8
105811
105825
106283
105351
198121
122776
182697
202380
139368
188382
183177
74087.5
75148.2
72498.9
111669
116794
113346
114795
74147.6
70933.2
71449.7
110771
113287
113683
110493
70918.4
74132.5
73618.7
110735
110447
113225
113635
74084.3
75138
76723.3
111643
113334
114759
116772
77723.3
80651.8
76918.1
117612
124532
118739
123336
80506.7
77290.4
76736.5
117299
123733
117878
123041
76197.6
81817.9
78925.5
119964
116062
119952
124286
77308.9
80532.9
81178.3
117374
117938
123807
123130
78353.9
84149
80038.7
125321
119264
121651
127968
78366.6
84162.1
82334.5
121684
119309
125375
128010
86683
85468.5
82393.6
125185
137108
129889
131877
85470.6
86690.8
89956.5
125207
129900
131907
137126
85278.2
91894.9
90917.1
131984
130713
140113
141452
89135.7
93029.4
95282.2
133007
136004
146199
142791
89154.1
93058.2
87165
133071
146251
142858
136053
85182.3
91657.5
85913.6
131303
139954
140843
130528
85145.6
91611.9
90791.7
131215
130422
139836
140746
89301.1
99366.9
94098
143936
136041
143944
152562
147488
186638
188417
209796
148681
166518
164266
91928.7
102546
95528.6
151173
140457
146299
157611
91917.2
102540
98433.5
146276
140421
151137
157589
106112
107885
114839
153805
163062
165648
175157
106112
107887
100150
153818
175161
165661
163067
99037.9
107091
97971.6
151886
167290
153252
165974
107011
98817.8
97869.3
151643
166854
152658
165787
100449
113143
103061
158723
169271
154945
173213
111570
117545
106741
164058
184644
170870
178490
177843
177821
223875
226857
179451
225471
176867
177371
227820
227316
176551
177531
226477
176435
178485
227501
229022
177302
227696
178194
229169
176507
227278
177329
227806
177470
176414
228664
178543
230322
231593
176931
231733
177301
230474
176088
228854
231092
176112
175954
176407
229883
180286
221868
185399
221182
182211
183759
223535
179212
222415
182397
225626
182662
179152
224711
180783
223424
225689
225945
179700
182736
223742
225571
179153
179068
182302
222348
182587
223371
180247
221849
182192
221133
183700
185361
219662
113840
136093
124076
185139
173891
185139
195292
187769
218193
220791
186869
218615
221166
190897
186455
218355
190535
219878
186556
220831
190499
191224
218818
187319
188710
215368
217515
192625
220025
187560
184757
187542
216386
218096
190256
188759
218869
187391
191299
215397
216604
192678
219947
186568
186650
190636
218437
190622
217561
117925
141545
126471
191636
178873
187354
199073
136909
120468
182277
119115
135417
181205
195381
119058
136877
135388
182055
181099
195335
196094
126671
139739
144363
184204
187641
197893
200793
190842
197365
214062
214526
216121
193575
194736
190873
214533
193589
214079
194772
197386
212515
195762
213132
201906
211538
200616
214271
197084
195128
215905
212437
199992
199998
195125
215138
195693
213113
197035
201870
211522
200561
210269
132145
159176
150807
197530
192192
204591
208896
200540
212755
196800
200548
207999
210540
204080
151175
154165
137432
196254
213507
205071
206644
153376
181577
180034
337.488
1485.12
1520.95
342.058
206036
206501
208649
209956
211741
199115
201664
213187
216007
215528
200616
195961
195349
200159
212406
215837
215088
195032
195004
199882
199915
209953
208652
211732
201644
199081
203773
206022
160249
169555
181347
203473
209554
213208
217221
98964.9
139282
116973
148.852
571.068
22.7451
105.682
179953
157699
156082
207817
216705
208297
216605
210724
203631
199711
204559
207639
204591
207633
204536
208825
209528
209638
205424
205156
209601
209527
203825
208819
204962
209421
204967
209495
207825
206352
200728
206640
209790
205523
210541
204561
203638
207640
204581
207629
208435
210722
208224
181312
157636
179904
156077
207813
216567
160959
189348
166163
217371
209616
211696
218341
194346
204360
198060
208174
212742
209848
211588
181661
195394
173193
214204
219461
216913
219153
205939
220690
219447
173903
193772
215026
220083
213800
186085
194181
194184
200299
210417
212836
96199
2614.87
99219
13.9373
174.526
14.7862
176.207
181727
197850
189167
213540
211583
213159
213531
196220
186201
197274
213584
212703
212875
214008
197374
185062
196432
212663
212836
214034
213678
11906
21856.8
91127.9
12.1729
157.305
5.36244
74.9043
194810
192231
178829
212825
213192
213395
212934
191199
217057
201214
218824
219154
220105
216576
-79415.6
-77700.8
-77228.4
-97941.7
-96735.1
-98043.2
-98077.3
-97957.9
-98038.1
-81217.5
-74139.3
-72733.5
-95738.1
-78922.2
-95430.2
-77373
-97337
-74129.3
-86281.8
-95498.9
-93687.9
-83635.3
-96085.7
-78491.2
-78873.1
-77493.1
-77565.1
-80477.6
-77508.5
-78399
-97035
-74415
-78257.8
-78443.3
-89504.8
-84087.2
-79239.2
-97780
-96285.5
-94685.3
-96947.1
-92361.1
-89738.6
-97517.2
-90216.3
-84681.2
-94992.4
-97209.9
-78979.6
-87450.3
-85053.4
-98077
-98073.7
-98106.4
-98085.3
-98093.7
-97975.4
-97998.9
-98150
-98015
-97608.9
-98221.6
-98225.5
-97971.9
-94924.2
-98006.5
-98007.5
-98014.9
-97943.6
-97660.6
-97564.7
-97850.4
-98033.6
-97750.6
-98188.7
-97970
-81325
-96622.8
-91562
-90546.4
-78712.5
-80783.4
-78716.8
-79372.8
-82290.9
-79065.5
-76653.8
-62097.6
-69492.1
-77756.6
-70486.6
-73880.7
-76573.8
-78040.1
-76323.3
-72649.3
-73125.9
-76799.3
-74497.3
-76778.1
-85572.9
-98123.1
-97718.8
-93322.5
-89325.4
-78829.8
-88058.2
-70026.9
-84151.8
-66645.9
-81763.6
-77113.6
-78337
-75437.6
-98072.6
-78529.3
-84823.3
-78085.8
-78786.7
-84595.4
-77389.9
-78790.1
-76918.6
-75708.6
-77911
-73798.2
-76774.5
-75780.5
-78337.8
-78128
-77896.9
-77704.3
-78300.4
-77988.5
-77934.3
-77188
-76229.7
-77636
-77154.1
-77515.6
-76448
-76716.3
-98073.5
-98030.1
-98073.5
-98057.9
-98064.6
-98051.5
-98025.3
-93982.6
-90877
-97635.2
-94262.3
-95154.5
-97382
-88593.3
-84625.8
-97157.2
-88186.5
-88019.6
-92312.8
-92163.1
-81771
-76667.4
-78378.4
-76457.3
-76646.3
-76968.3
-76949.4
-76488.3
-92635
-96882.7
-93170.1
-97387.3
-91414.7
-94102.9
-97106.2
-82898.1
-73963.7
-78181.9
-75625.3
-75775.4
-81259.3
-79310.2
-90583.3
-87848.1
-95381.5
-96686
-96638.9
-87635.4
-90742.9
-90874.1
-96218.7
-84632
-95129.1
-88955.9
-96818.1
-86780.3
-78572.7
-78516.1
-78211
-78766.3
-78897.2
-78383.6
-78236.9
-78750.8
-78574.1
-78681.7
-79285
-78847.7
-78360.8
-79072.9
-78295.5
-77792.6
-77527.5
-77884.4
-78230.5
-77903.9
-77823.5
-78175.8
-77545.4
-78213.8
-77658.6
-77810.6
-77867.2
-77907.9
-78436.5
-78762.9
-78759.1
-79150.4
-78195.2
-78697.3
-78221.4
-78196.6
-77873.9
-77510.2
-77687
-77895.5
-77939.8
-77791.9
-78697.4
-78644.3
-78987.1
-78209.6
-78610
-79081.9
-78324.7
-84439.3
-96018.2
-95360.4
-92017.7
-88826.7
-88175.2
-92489.6
-77632.7
-75020.2
-76828.7
-75700.7
-78823
-76366.3
-75830.3
-78177.2
-77999.2
-78532.8
-77990.6
-78012
-79527.4
-77328.8
-78979.3
-77227.4
-80384.2
-79809.2
-77887.4
-82851.3
-77630
-81131.1
-93576.9
-81295.5
-84211.4
-84808.3
-88243.7
-78985.5
-80723.8
-90080.9
-80159.5
-81593.2
-78861
-83124.4
-86237.4
-79720.9
-85248.1
-77567.3
-78335.5
-81943.6
-82274.7
-77161.4
-91160.7
-96853.4
-89438.9
-93695.9
-92498.6
-96321.7
-87850.3
-92432.9
-97393
-96442.9
-93057.3
-90743.1
-94220.2
-97035
-84460.7
-79631.7
-79786
-79183.3
-81705.1
-81731.3
-80643.4
-89597.2
-91128.4
-93489.7
-82025.5
-86240.2
-95745.5
-84892
-98183.2
-97971.5
-98142.7
-97376.4
-98196.4
-97926.9
-98105.3
-98172.9
-98130.9
-98234.4
-98160.8
-98149.1
-98154.2
-98223.7
-98113.3
-98073.6
-97970.4
-97915
-97973.8
-98086.4
-98092.2
-98170.8
-96705.4
-97730.5
-97501.5
-97840.6
-98106.3
-98000.6
-97987.2
-97978.8
-98010.7
-98008.5
-97980.9
-98012.1
-97986
-98007.6
-98049.4
-97895.9
-97924
-97898.8
-98024.5
-98029.7
-97960
-97930.4
-97658.2
-97798.1
-97800.1
-97932.9
-97933.4
-97994.3
-97974.6
-97841.9
-97702.3
-97868.5
-98012.5
-97975.4
-98078
-98025.7
-98081.1
-98045.7
-98068
-98091.5
-98039.9
-97954.7
-98093
-98011.1
-95158.7
-98125.2
-97653
-97018.7
-98097.8
-98132.8
-98140.5
-98024.7
-98132.5
-98149.8
-97749.1
-98022.1
-98070.8
-97873.3
-97775
-97327.2
-98079.6
-98061.4
-96693.2
-87529.6
-86233.5
-83997
-90421.1
-94422.9
-91664.1
-97847.8
-97924.4
-97572.8
-92761.4
-95895.1
-98020.5
-97396.6
-97632.1
-96983.8
-96541.5
-87568
-94269.7
-97957.1
-95086.9
-81783.3
-85436
-86262.9
-87955.2
-82958.4
-83922.7
-84106.2
-79659.2
-79016.2
-79075.8
-78907.7
-79248.2
-78815.5
-80347.3
-79770.6
-79838.9
-79327.5
-79473.3
-79375.6
-80466.8
-79492.1
-80164.7
-84850.5
-79897.5
-79841.2
-79241.5
-81620.3
-81622.1
-76742.8
-77568.4
-77253.9
-77788
-77376.3
-76947.2
-76914.6
-76202.6
-75431.1
-76590.2
-76704.5
-77003.5
-75734.5
-75730.8
-74502.1
-72679.6
-74396.8
-73681.4
-75041.7
-73917.6
-72968.4
-76355.3
-77254.8
-76736.9
-75984.2
-77155.3
-76436.6
-75878.6
-96291.1
-98157.3
-97286.5
-97730.2
-97586
-97940.1
-94870.9
-86348
-79553.7
-79712.4
-79840.4
-81833.4
-81782.4
-82786.1
-92190.2
-91689
-95276.1
-82475.3
-96913
-85237.6
-88329.5
-88370.9
-97827.9
-97086.8
-97129.4
-95494.3
-95401.3
-92273.2
-80009.2
-81494.3
-79672.3
-77055.9
-84331.2
-77826.7
-78642.2
-81899.4
-92365.8
-81977.2
-80316
-88365.7
-84759.6
-79066
-79081.7
-78264.5
-78615
-77831.7
-78019.5
-80487.1
-77738.8
-80218
-81642.6
-80126.8
-77574.8
-78253.9
-84428.8
-78848.4
-82131.4
-92128.1
-80607.8
-81945.6
-79265.4
-88146.7
-84842.5
-78096.7
-77017.8
-77635.7
-77429.8
-77686.5
-77275.9
-77379.6
-76887.4
-77953.6
-77551.1
-77352.3
-77056.9
-77246.6
-77336.5
-76497.1
-74167.4
-74996.5
-74395.6
-75532.1
-75622.3
-74945.3
-76664
-76659.5
-77194.6
-76123.9
-76556.6
-77039.3
-76253.5
-98191.4
-98159.7
-98058.1
-98104.4
-98134.8
-98265.3
-97989.7
-98024.1
-98144.1
-98184.6
-98208
-98133.8
-98198.5
-98187.6
-98156.2
-98146.3
-98270.1
-98175.8
-98185.9
-98184.5
-98124.6
-98201.2
-98009.2
-98024.7
-98045.1
-98087.3
-98043.3
-98067.1
-98061.5
-98054.7
-98140
-98190.8
-98107
-98178.2
-98067.3
-98167.8
-98072.1
-98026.8
-98049.4
-98030.4
-98032.9
-98057.8
-98052.8
-98116.5
-98124.7
-98171.1
-98179.2
-98114.3
-98169.1
-98113.7
-98108.8
-98108.9
-98183.6
-98194.5
-98113.3
-98179
-98105.3
-98117.5
-98168.9
-98121
-98187.6
-98122.8
-98111.6
-98171.8
-98197.6
-98262
-98254.3
-98162.6
-98211.1
-98206.6
-98178.4
-98079.1
-98092.3
-98111.1
-98109
-98121.3
-98137
-98092
-98143.8
-98148.2
-98157.4
-98125.7
-98093
-98112.3
-98105.2
-98173.3
-98170
-98181.6
-98142.2
-98149.1
-98162.7
-98127
-98234.7
-43954.8
-97618.7
-98185.7
-98282.8
-98168
-98244.9
-98302.3
-87050.2
-30796.6
-97566.8
-58031.9
-96391.5
-60143.5
-57946.9
-25945.2
-98242.5
-98146
-98196.7
-98282.9
-97556.4
-98270.4
-97713.3
-96882.6
-81625.9
-84042.2
-71656.5
-89363.1
-91034
-70205.9
-98231.1
-98279.8
-98319.8
-98297.1
-98115.2
-97951
-98296.9
-97928
-88906.2
-93408.6
-75186.6
-96089.5
-93932.6
-81142.1
-98174.7
-98183.1
-98187.2
-98227.6
-98195.6
-98228.7
-98200.1
-61692.4
-36192.8
-34791.6
-52222.6
-33680.3
-51473
-34483.9
-58167.6
-71857.3
-72294.1
-63033.8
-79055.5
-80507.9
-62552.7
-97017.9
-97255.4
-88332.9
-98057
-94624.4
-98001.2
-95382.5
-65267.6
-71996.9
-37982.6
-53615.7
-38809.4
-35934.5
-57312.9
-98193.3
-98192.9
-98197.4
-98224.9
-98210.7
-98221.6
-98207.2
-97819.2
-93405.1
-90956.5
-98166.3
-97312.3
-96562.5
-98263.1
-98224.6
-98292.9
-98255.2
-98295.8
-98234.3
-98297.5
-98232.1
-76748.9
-58430.8
-73581
-64210.3
-88591.2
-83937.2
-67534.7
-28091.4
-46740.6
-47447.6
-48919.2
-30662.9
-48383.9
-32182
-98302.2
-98275.1
-98318.8
-98289.4
-98225
-98273.8
-98229.8
-31837.2
-48217.6
-47989.7
-49245.5
-36441.4
-34934.3
-49707
-59614.6
-98204.2
-98132.3
-67430.3
-97988.8
-72243.1
-97839.8
-81039.9
-98256.1
-97400
-96280.4
-98036.1
-98310.3
-98307.1
-98242.4
-97866.4
-98063.3
-93754.7
-98301.1
-94946.5
-98319.9
-97555.1
-98228.3
-81589.9
-93771.8
-97622.5
-98285.1
-98283.9
-96652.2
-84840.6
-78720.2
-76076.6
-92569.5
-64713.8
-88166
-71838
-98061.2
-98091.7
-95440.6
-98218.4
-98256.6
-97831.6
-97166.7
-98013.4
-98169.8
-97790.3
-98275.3
-98254.5
-98069.6
-97554.4
-96630.8
-87867.8
-84100.3
-87370.1
-90930.9
-95090.6
-92062.5
-98182.4
-98269.6
-98285.3
-98215.4
-98261.6
-98268.2
-98100.5
-98321
-96679.5
-97561.2
-98145
-98318.1
-98324.3
-98302.2
-92283.7
-89134.8
-80625.3
-95570.5
-72252.1
-80028.9
-96668.2
-75639.1
-44191.3
-38973.3
-89801.3
-35205.6
-85696
-48542.1
-81654.3
-88339.8
-50217.1
-94206.2
-71483.5
-62583.5
-96221.5
59376.8
78051.2
19341.6
29900.9
11781.2
48408.2
11191.2
76139.5
24005.5
10648.6
23982
59203.5
76109.7
24771.8
60321.2
14671.9
67234.7
77517.1
29870.8
86431.8
70749.5
86643.7
25874
44596.4
113425
32580.1
91078.3
15121.8
10735.8
14705.9
24129.2
23601.2
27754
28260.8
34715
120441
84091.3
29104.5
84121
48556.8
88250.5
10928.2
14952.7
14652
23926.2
23526.5
27695.9
28123.3
85701.9
57012.6
35326.8
49643.2
143421
95700
90061.5
13030
15771.1
16976.9
24861.3
26269.1
29042
30433.9
16787
20691.4
18598.8
30436.9
28108.7
32305.7
34674.4
19350.2
23613.6
18958.8
32317.1
37934.9
32825.4
37402.7
19273.2
23596.5
18927.3
32279.4
37911.5
32757.7
37387.8
22360.8
23256.7
33255.4
26312.5
36569.1
37535.8
40935.5
20082
25982.8
21275.4
38833.2
33685.2
35094.7
40308.2
198605
58835.3
127979
65645.8
38222.4
153940
101039
27679.8
25039.8
22914.7
37007.9
44861.4
39449.2
42314.6
29907.8
34089.7
29908
44949.8
40446.1
44950.3
49654.9
39931.5
58631.4
39311.9
43631
64085.6
44256.4
63300
58552.1
39764.1
39236.4
43576.4
63946.7
63233.4
44144.8
40773
62040.8
42323.2
65131.3
45179.2
46767.8
66966.6
27636.6
35892.1
30779.8
47976.5
42399.5
45950.2
51747.6
29083
28658.8
34246.9
43644.2
43075.4
49457.4
50065.4
28664.5
34772.5
34271.7
43668.2
43086.1
49491
50139.6
31211.9
35628.8
37081.8
44620.6
46215.1
51181.9
52936.7
64336.9
46933.1
44363.5
48885.7
72508.8
51539.4
69422.1
48497.3
69572.5
54718.2
75227.3
49154.8
68726.3
54024.4
48469.9
75208.4
54713.6
69485.7
68682.7
49099.2
54020.7
33010.4
41542.6
39025
51059.6
48354.6
55244
58175.6
55820.5
70768
50158.5
51820.9
79750.5
57607.7
72779.7
50021.3
75030.6
53667.9
76286.3
54720.2
58514.7
80933
38942.2
39874.5
34528.9
50173.5
61592.8
55155.3
56254
54035.8
78810.5
82716
62907.8
56807.6
59967
75457.5
41780.2
44704
54402.1
48585.8
58462.6
61818.6
66255.8
41079.7
47823.5
40562
56708.8
65790.4
57368
65054.1
47889.7
41180.9
40605.8
56767.1
65986.4
57502.4
65138.5
42135
51487.2
43765
67334.9
58673.6
60628.2
69540.3
80256.8
63030.1
57965.3
63031.8
93650.7
68416.7
86646.1
82965.8
66507.5
60152.2
64184
96867.8
70890
88108.7
61115.5
83112.2
60371.4
67742.4
93776.4
68545.5
92724.6
83118
61159.3
60390.5
67785.4
93871.2
68649.3
92756
53901.3
48700.3
45915.3
63168.2
76032.1
66400.4
72388.1
62358.1
88205.1
64312
95668.7
69994.3
72167.6
98516.4
51181.7
46073.9
53270.3
69135.1
63334.6
71604
78033.3
91508.3
70060.3
66862.6
74985.2
107282
78558.2
102322
60905.2
52199.1
56479.4
80606.8
70434.8
75376.7
86261.7
69035.1
102340
82713.7
104140
74881.4
76219.2
94450
87031.2
88023.2
121797
76464.5
105880
77352.2
104704
122018
120519
87123
76531.9
106035
77516.9
104758
74029.4
107846
78910.5
113758
83043.7
88612.9
122169
124718
108181
79062
81526.4
129110
92909.4
111590
71323.8
67715.5
61623.5
81391.5
101648
88684.4
93196.9
84725.7
101421
122451
135266
88823.2
96626.7
116245
92266.2
116599
84905.4
95497.5
147647
103964
133288
-4696.1
-20570.4
-7324.5
-28642.5
5870.1
-14537.9
-18494
3933.98
-28184.4
-24840.6
-24670.9
-22587.8
-22013.7
-18615.2
-18974.9
-17646.1
-26725
-23939.2
-27500.1
-24391.1
-21428.9
-18277.8
-18600.4
-21688
-21627.8
-15396.4
-12405.9
-12167.5
-15668.7
-20969.9
-11247.4
-17650.4
-18218.1
-21429.7
-15136.7
-11864.2
-6859.92
-15793
-15208.8
-11789.8
-3636.1
-12182.9
-3326.47
-13463.6
-1397.83
-10324.4
-6009.43
-14554.7
-11276.5
-2586.26
-8340.37
89.9387
4161.74
-4956.52
-4746.11
-8615.02
330.766
2122.22
-6979.57
-3425.16
-7848.53
4853.8
-4237.44
1044.64
21463.8
47931.1
7790.57
28542.2
-9580.15
7335.98
49131.2
72839.7
37165.7
34476.4
-3905.42
27098.6
10567
-16754.6
4578.36
-19315.4
-811.597
5458.59
-13549.1
30068.6
-3854.86
26645
40864.9
22787.3
27144.8
-32.3307
52527.9
89973.3
55663.4
80163.6
53726.9
43580.4
55309.5
32831.2
44188.1
42177.9
45050.7
46780.3
41156.7
39591.7
39661.9
35266.2
42778.1
39285.4
25906.5
37207.1
33776.2
14852.7
41127.1
38616.3
39026.9
19765.9
28747
2764.94
-16573.1
-25641.9
-23034.3
-24055.3
-17556
-21556.4
-14974
13791.7
-6031.16
-13429.3
3489.76
19550.2
-3443.02
9463.61
29240.6
29608.6
17622.5
34829.3
21190.3
29969.7
26598.5
-19502.7
-12954.3
-22042.8
-15452.8
-19504.8
-12957.2
-10434.5
-2480.93
28218.1
16062.4
-3175.6
13667.9
25838.4
6671.23
50032.4
47011.2
48468.4
45798.5
49068.1
44664.5
49788.3
57991.3
57465.7
76519.1
53573.8
53706.5
47605.8
50758.2
-3603.76
13014.1
11676.3
24944.9
5642.3
23513.1
6104.16
-20073
-10250.1
-16621.2
-14943.2
-18563.2
-12060.1
-8707.01
45336.5
45910
42711.9
48169.6
43026.5
40526.3
46514.8
9986.02
-3358.21
8190.98
5441.11
21798.2
19849.4
5606.56
18960.8
26565
17158.9
25360.1
18514.8
25659.5
26365.6
2163.66
-2971.15
-11940.1
167.082
-8977.1
-9945.03
-7156.32
-13427.3
-12568.3
-16324.5
-10011.8
-3972.97
-7417.14
-6609.03
43677.3
35506.8
39512.3
37766.7
42797.9
35059.2
44697.6
-2100.57
7759.2
7258.25
18239.3
8152.81
17765
6451.87
-16324.1
-10008.4
-12572.7
-9587.01
-7416.21
-6608.71
-3975.02
19566.2
24002.8
27263.6
25651
20803.6
28020.1
30728.6
7357.83
1699.07
4573.3
-4933.01
-7628.42
-4937.47
-2332.52
44852.7
17990.5
37657.6
35592.2
28210.5
17523.6
43464.3
34795.3
27736.2
42044
16300
33573.1
16900.9
42876.2
9096.01
7245.94
3556.65
-5741.69
-2263.56
-4052.57
-607.942
32891.7
38531
31816.9
41906.3
33962.9
34249.4
42225.6
9682.53
6231.56
12515
10641.5
18854
21022.7
13820.5
40977.1
15901.5
32072.3
30287.5
26293.9
39630.2
15731.4
-9996.71
-1969.8
-6034.6
-818.108
-4352.37
-819.96
2832.72
-8326.85
-249.574
-5218.55
1476.64
-2822.89
-97.4955
4338.97
10568.4
-1903.51
717.07
11407.6
1524.43
4140.34
14188.2
14186.8
7786.28
11404
-1908.93
4139.73
715.3
1521.67
28654.2
26376.2
37562.1
17320.9
27827.4
38328.5
16119.2
20347.3
10256.7
16067.6
24009.7
22053.3
27858.7
17616.6
33767.9
39316.1
32179.9
35571.2
46131.7
38040.4
43593.8
5711.74
-31314
-27742.5
-26579.9
-12664
31659
-23867.3
-24863.6
19385.7
-25782.1
-22158
-11557.7
749.239
-29725.5
-30232.6
-23000.6
-27094.8
-15656.2
-32795.8
-32987.6
-34176.2
-32198.4
-21006.7
4601.81
-4910.76
-32577.7
-34349.9
-34643.6
-31352.4
-15727.6
-6078.92
44102.7
22313
11834.3
-27673.5
-24468.6
-32240.5
-22124.3
-32521.3
-25787.6
-30960.1
-33532.7
-24044.1
-18388.8
-16952.6
-26249.2
-30358.1
-19795.7
-28957.7
-21512.1
-28092.6
-18965.1
-18716.7
-21628.1
-27686
-30232.9
-22101.3
-23838.4
-27857.4
-26939.4
-31419.1
-26259.9
-31961.2
-24631.3
-12089.4
4024.79
6506.05
40825.2
40472.8
-34623.8
-51529
-61908.6
-28193.5
-97534.2
-35094.8
15276
2549.82
-33000.3
-51602.3
-61509.5
-29044.1
-48559.2
-65381.5
-14797.4
-26583.1
-76573.9
-68582.9
-80499.9
-56269
-95609.3
-56749.9
-73130.8
-2937.65
-46602
-33376.7
-10647.2
-40375.1
-26242.5
-927.452
44502.5
84312.1
111412
3596.02
37699.7
74979.8
58755.7
-59249.2
-48289.4
-52041.1
-59675.2
-48005.8
-56544.4
-43223.6
16063.5
17878.8
-9804.65
-6788.56
35101.2
14911.2
15388.5
-17375
-19203.4
-37699.2
-7189.89
-29927.5
-26622.5
-6988.71
42960.3
1987.62
34494.8
603.421
-6446.75
35479.5
22323
-59066.5
-48415.4
-52367
-60510.2
-51210
-47156.1
-57895
-73880.9
-68605
-65998.1
-68261.4
-81080.9
-65423.9
-73761.7
-92527.1
-84724.1
-93883.5
-97481.6
-93025.2
-84977.6
-93766.7
-18770.5
-20551.4
-38592.2
-20478.6
-38092.7
-34392.1
-18606.9
-12423.4
-24110
-5806.03
-21542
179.051
-18240.6
-5941.21
-3159.49
-19953.7
-30678.6
-17315.2
14575.4
6081.61
-9376.3
-40495.3
-55729.7
-44519.8
-45406.7
-51470.8
-38065.3
-33460.6
3701.05
25640.7
18189.9
39161.1
14671.1
33439.7
24014.8
49664.7
108370
76771
61895.1
40635
61687.7
89078.7
-61949.4
-55156.4
-52332.8
-47671.1
-60244.9
-58338.9
-49608.6
-69913.7
-81347
-81576.4
-68765.4
-66446
-74204.5
-74941.7
-2298.91
25875.8
36609.1
16206.9
18980.2
2307.77
15832
-13494.5
-31466.4
-15409.7
-23556.3
-6390.26
-20887.5
-6565.85
-22524
-42688.7
-39602.9
-35190
-22115.8
-37370.9
-19616.3
2331.09
23204.4
2134.69
21223
1938.08
21880.8
20805.2
-40830.7
-55723.2
-44612.3
-43307.1
-50084.4
-54344
-39700.3
-63775.6
-60212.4
-63813.8
-58655.9
-62764.2
-67946.3
-62611.4
-97039.2
-89871.6
-92421
-84044.6
-87246.7
-82104.7
-92022.7
-15179.7
-439.747
33444.3
-1014.97
-12365.2
32937.4
17173
-14835.3
-32179.7
-16984.7
-31416.9
-14575.7
-28271
-16781.9
-81059.4
-66068.9
-59789
-76162.2
-60752.3
-65451.7
-80671.7
3672.22
10509.2
12470
29921.5
22168.2
27145.2
22778.5
71941.5
117621
80644.4
66664
94541.2
98048.2
62217.5
42238.7
47058
47243.9
43510.5
43023.7
37190.6
46412.5
58606
33025.5
36692.9
54353.5
78535.6
82129.7
47830
-969.447
8280.46
15648.6
-3335.03
179.022
17237.3
12025.5
-33987.8
-31843.4
-30088.3
-28812.3
-26395
-25263.9
-23448
-43134
-48819.4
-54564.5
-39219.8
-53892.6
-44425.6
-38929.9
39841.7
36384.7
31233.2
40583.7
34138.7
31388
37589.9
-23252.2
-12588.8
-24184.6
-18434.1
-32679.9
-24381.7
-18890
-7249.45
-8762.19
-26409.8
-20131
-25468.6
-29348.3
-27500.4
-25494.3
-28030.5
-31868.2
-29530.7
-30503.5
-30657.5
-27777.2
-26861.9
-31342.3
-14433.9
-27939.1
-18418.7
-32569.2
-27684.6
-17075.4
-74944.4
-59007.7
-72420.7
-61765.2
-73067.4
-63800.4
-77279.4
-57375.6
-63314.9
-62543.7
-67930
-61016.5
-68376
-61622.3
2000.53
2363.77
1969.92
20881.9
21008.2
20436.9
20197.3
-21793.6
-30555.3
-28057.5
-26208.8
-19855.3
-28121.3
-21776
-22741.4
-25539
-26528.8
-24437.2
-20424
-23506.7
-20568.6
-25797.1
-22790.8
-29499.6
-26357.2
-28672.5
-23908.3
-19779.2
1284.52
-15193.7
-7798.18
-2511.35
6566.18
-10236.2
3282.88
41260.1
35945.5
46720.3
43491.2
39278.8
36312.3
46531.3
60202.4
55096.1
88669
87048.5
91295.3
54142.6
58424.8
1834.23
-1324.21
910.187
18320.7
16622.8
14814.6
18958.3
30081.9
17204.7
24901.8
26778.1
26982.7
20940.5
32921.1
-24739.3
-21642.7
-28424
-23920.3
-26940.1
-20539.3
-17586.9
-44204.7
-28893.2
2758.01
11294.3
-96986.1
-72644.5
-68129.2
-79667
-19794.8
-52252.9
-53848
-39057.9
-15900.1
-17470.5
-44504
-73251.4
-68806.5
-66035.6
-66407.4
-75574.5
-66647.8
-62941.5
-52486
-70234.6
-61622.3
-38062
-34390
-25111.4
-48337.5
-91262.9
-82512.5
-90371.4
-89895
-83950.9
-65416
-70582.2
-27403
-8382.61
5059.8
-23800.8
-7396.8
-14023.1
-35361.2
-63094.5
-60225.4
-63874.2
-58561.4
-53022.1
-48933.2
-59184.9
-16888.2
-12042.8
8743.98
10751.9
-8240.06
2306.75
-19201.2
-70312.7
-59779.5
-42313.5
-45566.5
-4826.36
-25976.8
-40428.1
34674.2
41393.7
34120
31991.3
40945.1
33260.3
38887.4
-14966.1
-24036.2
-17545
-22989.1
-25624.4
-19276.8
-16545.5
10761.7
14554.8
7173.06
22571.3
15674.6
12592.1
20088
-15300.3
-11317.2
-20725.4
-24970.9
-15411.8
-11393.1
-20982.1
-14945.1
-11116.3
-13819
-10316.3
-22935.1
-19107
-20359.1
-9249.09
-21130.3
-17803.5
-7739.49
-10635.1
-19109.2
-16323.3
-16103.2
-2534.31
-3582.95
-10657.7
-11407.1
1891.75
2317.7
-4220.3
13777.4
10752.1
-1928.16
-5998.01
8056.22
11810.5
28809.7
38586
28435.8
31133.8
24583.9
31268.1
35488.2
-8458.09
-17071.1
-3460
-5817.26
-14634
-12469.1
-14611.9
-7189
-16709.2
-3224.46
-7334.44
-3486.54
-16732.8
-12507.6
-6761.11
-3521.15
-3254.91
-11711.2
-15272.1
-16192.7
-12237.8
-2550.44
-11197.9
-14474.8
-1385.2
-4670.25
-13410.1
-10292.4
7110.55
14132.2
6188.26
11526.4
20597.3
12385.8
19524.3
25497.4
27660
20523.7
18141.6
31851.9
23789.4
25780.8
-96171
-82919
-7870.45
-47858.1
-66474.9
51991.8
70462.3
-58092.6
-88904.9
-97952.4
-95084.3
-79549.1
-97779.3
-96800
-87934.1
-89707.1
-76448.6
-81889.3
-75075.1
-84061.4
-93229
-68363.6
-98249
17558.2
43190.1
-35627.9
-70740.9
-28872.5
-68746.7
-22281.5
44053.5
-45643.8
-18382.5
-65429.6
-44283.7
-70443.4
-35419.5
8715.97
-7561.89
-54023.8
-10548.2
-76559.2
-43465.9
-42087.2
-87435.8
-70366.5
-88805.1
-95783.8
-79686.8
-30838.6
-53142.8
-92301
-98082.9
-98174.5
-74094.7
-84460.6
-88199.9
-72440.5
-59020.8
-55697.6
-21536.8
-63455
-44138.1
95734.3
-4306.11
58503.3
94026
25265.2
55066.7
19855.4
-6965
18155.2
58207.6
57282
-8578.13
-11935.9
36520.7
97009.9
16139.4
87497.1
-78966.2
-68381.3
-26256.8
-37887.5
-71787.4
-55609.4
-64212.4
-95395.2
-93292.1
-97942.5
-96829.8
-88530.1
-97314.3
-85306.5
-65641.4
-83923.1
-96504.2
-92442.9
-45777.2
-72462.7
-72850.9
12483.2
-27576.2
20141.4
9912.26
-2536.32
-33984.6
37073
-98112
-98107.6
-98178.9
-97728.8
-95326.6
-84178.7
-97666.1
-98208.7
-98158.5
-97944.6
-98261.6
-98232.1
-98302.5
-98204.6
-98154.3
-94833.2
-89249.3
-95807.8
-98124.5
-93597.2
-97395.8
-97182
-98090.2
-97709.1
-97220.4
-98195.2
-98043.1
-98170.2
-97945.5
-98133.2
-98116.7
-98151.1
-98171.4
-98144.2
-98160
-98144.6
-98226.7
-93533.3
-94031.8
-94640.3
-97407.8
-97949.6
-97335.3
-98286
-98171
-97025.5
-98292.3
-98258.7
-97998.5
-98260.9
-98218.8
-97825.1
-95284
-98106.8
-98145.6
-98185.3
-97840.6
-98205.6
-98177.5
-98221.1
-98236.8
-98191.8
-98262.4
-98179.9
-98252.6
-98314.6
-98302.9
-98173
-98317.9
-98284.6
-98291.3
-26100
24829.3
78448.8
-5736.81
-13365.2
-41256.3
42662.4
-89454
-97826.6
-97698.8
-80998.5
-84089.4
-96353.8
-97125.8
81857.4
51715.9
62219.4
58723.2
102254
44166.7
88910
-92498.3
-80586.9
-86895
-71565.4
-93911.5
-77557.7
-84371
-41879.6
-20295.9
-25761.5
-84695.8
-59456.4
-63773.8
-70682.1
-48664
-66522
-55187.2
-60740.7
-55926.5
-62342.5
-51524.1
31956.5
7970.17
9173.28
-14685.2
-47058.7
-39710.4
-32566.6
-76849.4
-60219.6
-66158.1
-92925.5
-86236.4
-82153.4
-94926.5