/*--------------------------------*- C++ -*----------------------------------*\
  =========                 |
  \\      /  F ield         | OpenFOAM: The Open Source CFD Toolbox
   \\    /   O peration     | Website:  https://openfoam.org
    \\  /    A nd           | Version:  9
     \\/     M anipulation  |
\*---------------------------------------------------------------------------*/
FoamFile
{
    format      ascii;
    class       volScalarField;
    location    "0.00215";
    object      p;
}
// * * * * * * * * * * * * * * * * * * * * * * * * * * * * * * * * * * * * * //

dimensions      [1 -1 -2 0 0 0 0];

internalField   nonuniform List<scalar> 
17622
(
169223
192957
173657
127279
129900
218094
190024
183234
219475
140813
102680
101312
346822
281271
278732
304657
262344
203413
293559
226147
189769
205500
214900
173538
254202
305918
437839
419282
357958
323150
483163
349605
349815
373257
299817
230403
313563
277699
332298
295233
184365
209280
294269
242064
224520
200153
265900
167398
221671
181122
204661
191169
232256
160088
154540
171541
188326
182538
155052
166240
184123
166313
183092
183429
225427
168942
195204
187546
368838
305585
362597
278738
242159
276652
278695
245531
272209
307026
234551
57365.2
273605
73908.4
409160
142547
402059
253613
308003
190570
59325.7
166042
246769
68961.5
197462
190437
68384.1
199124
75439.3
227544
317424
107154
301962
217667
108547
273554
135598
382818
445396
287816
316422
404824
262831
239637
376281
218290
301402
168498
204982
257849
108788
118239
162472
102448
130220
103131
79516.2
59312.8
105985
81889.4
126522
173414
127864
99381.7
80133.4
155175
138959
112544
346997
237304
219786
193038
310855
303709
262803
142134
298793
192421
229510
194091
245169
151407
311705
261300
378013
302055
194578
203164
101889
293628
138926
158841
182238
94841.6
60831.2
183869
97401.7
156456
162820
63389.3
194695
110504
187939
101724
169946
134422
62280.5
118471
91064.6
110074
84751.3
143326
194172
205153
120884
82111.6
180259
216882
132483
213001
90924.6
255350
173497
232179
148481
240186
204350
89971
185512
172093
155517
135141
253928
335628
294679
212957
180514
279954
354771
273217
386680
238384
463104
371064
419826
337861
406529
333047
238823
341817
242735
345286
275400
268865
481086
462764
490768
293564
587729
346079
415054
793484
715119
863509
673881
400074
241549
234461
328742
268277
358820
358954
716617
573564
623639
651298
355066
467938
350028
288302
387813
444010
314119
330803
273688
395822
237755
420313
279902
304479
115884
198923
142437
109539
191295
123732
105684
392988
279289
237560
428434
275014
345075
320152
102725
101306
101879
198350
101428
101835
101299
261810
244406
331742
176335
177487
276130
121486
101298
311142
101317
336837
338732
346877
375782
370468
255412
248143
163392
203969
158713
198561
294496
231929
185004
313040
311753
529228
492541
359340
336604
484706
355113
539380
517377
335310
462133
349178
473328
350851
500801
450789
449258
350966
361575
480146
434158
355510
405539
373468
363798
347080
408425
353928
344204
205003
296025
335109
350095
270579
226113
308296
159620
309572
140120
216663
174535
264736
133941
117568
119650
181389
168227
121584
108250
164972
124627
151986
113142
193215
103906
169139
142357
202219
186696
305076
195159
231584
166300
230748
172374
166661
147983
175307
149200
187060
161262
250805
170187
245655
246736
208161
216180
294728
165798
187674
222022
171348
200088
199224
219084
385670
105855
105495
325371
375936
379070
375203
208047
101334
214776
101305
123854
101298
101458
101298
136407
101299
101298
101298
197212
276668
224940
286774
132169
102632
130032
102184
241663
318702
253644
243126
127028
101599
216102
198957
106809
105164
103153
101525
101366
101313
157738
101338
102586
101307
290188
105118
133338
215444
288405
103793
120674
264621
102131
106360
157753
125192
102951
101860
102208
101458
101301
101780
101330
101308
101299
101301
101299
101298
101303
101299
101298
101298
101364
101318
101300
101318
101299
171275
129611
221100
201011
132016
225319
167079
179018
210272
150622
249051
138294
234247
193506
107489
109229
135416
131750
108680
133464
108081
106422
131274
106828
124097
107904
129744
105063
242716
167869
266627
258562
213990
190970
284090
278864
266726
260544
283731
223618
294382
315108
102593
105410
117294
121532
103699
103926
110753
292978
279597
239371
160854
327973
258282
166268
217272
120383
149233
105547
205179
118060
144902
105700
119134
102570
101967
114454
107884
101716
102727
101527
102088
101333
103738
101427
101702
106963
181666
107819
132429
113629
158365
104087
101746
101845
101375
101314
102346
101520
101330
240628
188812
209725
242605
186261
220054
221801
253009
156851
208563
247158
137146
159343
187783
127871
103251
107453
107536
101823
101809
103488
101409
101311
101354
101334
101303
101301
101307
111701
104525
110633
102275
102115
101500
103420
101298
101298
101298
101298
101298
101298
101298
101310
101298
101298
101298
212602
251209
171885
246465
181088
215343
205983
190509
177523
107651
225394
118491
128333
109621
102948
101667
101338
102741
101435
101415
101328
101316
101301
101298
101309
101299
101299
101298
101564
101306
101304
101385
101366
101316
101300
101530
101300
101299
101320
101431
101299
101299
101328
101298
101298
101299
101299
101298
101298
101298
101298
101298
101298
101298
101298
101298
101298
101298
101298
101298
101298
101298
101298
101298
101298
101298
101298
101298
101534
101386
114189
101299
102041
124440
101333
101303
101424
101299
103755
322229
376146
380126
218291
112470
101316
101299
101298
101298
101305
101298
104943
111449
101301
198463
103265
107081
101299
101675
102620
101299
104238
101327
101421
101299
101299
101299
101298
101303
101298
101298
101298
101298
101298
101298
101298
101298
101298
101298
101298
101301
101299
101298
101298
101298
101298
101298
101298
101298
101298
101298
101298
101298
101298
101298
101298
101298
101298
101298
101298
101298
101298
101298
101298
101298
101299
101298
101298
101298
101298
101298
101298
101298
101298
101298
277849
172424
189623
182104
204395
194824
199236
215110
181832
101298
101298
101298
101298
101298
101298
101298
101298
101298
101298
101298
101298
101298
101298
101298
101298
265443
101299
101299
101416
126156
101300
104621
101310
101299
101298
101298
261812
274184
427757
514316
543911
293883
102559
101358
101301
101299
303805
348314
216049
254908
321751
266459
331857
308439
268375
483693
508940
474521
645047
479245
741199
510774
491584
455237
512413
469915
530663
493985
494715
441382
454431
479150
571569
568915
667834
634572
589322
551614
659090
553901
620886
534864
645606
965318
766365
754018
836168
785410
868645
924135
1.01497e+06
754689
789629
959327
396129
447846
695197
698000
303907
282091
425415
304543
322915
607121
428766
469338
787502
447398
310737
356325
358881
384403
403371
365979
391353
350002
426418
411350
430986
483872
395470
445184
466128
747648
634083
700355
774654
626395
694507
850006
586928
580902
895565
532546
731308
432885
720135
404036
216838
313652
316905
264496
287007
323236
269739
307605
340307
365924
373008
334155
296181
250669
255641
290908
362461
411385
388806
409229
373882
397034
375085
319990
292469
344484
286653
330177
275557
332427
347757
396562
381355
362073
302711
271600
261227
315011
376158
365405
302101
349760
350754
395726
322494
411223
418557
382158
452456
354732
286146
332078
303927
471849
536446
557200
593267
493379
518298
536283
411785
386368
492874
388401
438381
350126
461399
453978
579726
502780
517681
387252
362840
327728
435318
620963
552584
442697
490085
531199
589481
511596
757309
697623
614492
873230
626772
421010
511098
512154
828106
804401
678553
981051
707928
972410
816197
671435
482099
552641
540794
589096
550003
656353
937113
1.27015e+06
1.10554e+06
1.05578e+06
770034
702379
624192
863478
951753
1.28084e+06
1.05166e+06
1.14977e+06
467418
385586
265675
464502
319220
552327
406099
835319
844164
974173
745405
319422
525552
324947
302906
476887
303398
375597
242666
251186
254877
228738
222360
410390
422025
459506
491232
463193
495005
386213
224585
270728
243081
318140
259202
338039
356848
436869
440275
320154
341398
402077
402360
337088
344582
415609
404832
352344
358492
422574
356771
419227
348078
390311
229505
351533
362936
329684
321764
362112
335538
346399
357003
326013
370186
356356
362051
341397
371010
411431
382989
379241
385633
389305
398327
413133
427677
417046
392352
491432
404117
455051
430259
373137
360848
510815
426392
415764
308973
510281
314774
385822
214332
399844
255260
476256
266182
101299
101298
101298
101298
101298
101299
101299
101298
101298
101298
101298
101298
101298
101298
101298
101298
101298
101298
242203
432319
108053
296229
103190
101299
101298
101298
101298
289728
483249
149709
270074
102134
101299
101298
101298
101298
584875
739565
345001
110984
101329
101298
101298
101298
101298
439127
813626
304772
101307
101298
101298
101298
101298
101298
103278
458702
101443
146632
101298
101298
101298
101298
101299
170443
101298
101306
101298
101298
471459
445411
477329
453741
412038
101624
254707
437871
107998
422608
458936
451696
245864
120164
270379
113308
114147
101649
292819
110161
110894
101450
101323
101345
101302
102487
101309
101318
101300
489157
517914
462566
126045
367016
620239
165375
655398
328338
205846
400990
108322
104576
101382
191235
102682
101451
101303
101304
101308
101299
101403
101298
101299
101298
503748
411443
386165
692799
402234
653754
816891
632318
901596
878615
401199
518071
174918
101773
101305
101300
101588
101301
101298
101298
101298
101298
101298
101298
101298
101298
101298
351531
356362
331527
272978
705909
720097
352952
382944
183769
799734
421726
364361
103403
109916
101301
101298
101298
101298
101298
101298
101298
101298
101298
101298
101298
101298
101298
101298
101298
127088
101299
101302
101300
101355
101298
101298
199978
101307
101369
101416
102414
101298
101305
352812
115385
442665
104166
514678
101299
101807
101298
101299
101298
214497
224789
195883
465703
282950
378931
215010
482791
307237
265601
401062
259416
460562
361502
539715
334066
483555
434972
562515
556044
611354
111231
404805
170861
435725
102512
141407
220249
108732
109207
101299
101813
101305
101425
101298
101299
422448
443004
398231
436515
448345
403626
416084
112394
79039.5
82397
59184.3
36884
38439.2
57092.5
101425
101531
102569
103044
101510
102456
101439
508442
494558
446552
523119
466426
534439
486817
116794
172441
137093
96222.8
55748.3
82114.5
66593.8
101319
101381
101741
101809
101340
101343
101539
976779
767778
764493
832504
792096
870087
941245
454167
265110
372277
300167
144970
211898
216960
101298
101300
101309
101305
101299
101298
101300
1.08085e+06
872650
1.21955e+06
629320
1.25302e+06
691762
1.05599e+06
131031
492003
263286
145123
414858
259975
315388
101298
101298
101298
101298
101298
101298
101298
101316
378671
103027
467613
295562
341039
102046
349220
331734
421356
382353
391373
102817
198381
103064
167778
104209
114749
106667
127187
102158
101298
101298
101298
101298
101298
101298
101298
101300
101298
101298
101298
101298
101298
101298
343178
389034
371019
416102
393430
376053
338160
104041
179444
183580
225322
73963
75259.4
222645
311054
327032
333332
306061
350375
424090
414085
393826
401360
382877
361687
190561
115039
202258
228236
79918.4
76968.5
235344
320918
356416
342530
334030
426917
439686
406655
429522
445926
414209
419957
392340
360614
367791
384598
401060
383726
391382
393277
428796
445100
470864
422859
457176
410423
441447
432941
437955
468418
431862
454760
419673
445428
403372
393902
378129
420439
411753
417374
401103
428564
253847
162590
168489
108076
197406
203767
104014
89165
132923
100776
63751.1
47491.1
41683.8
71609
179394
296454
197363
116405
243971
219220
130584
153828
150297
111294
112583
149958
110526
156207
149417
111590
149355
107357
150042
109159
142449
101312
101324
101314
101320
101322
101312
101314
101400
102805
101427
101994
101474
102251
101369
101309
101315
101311
101305
101317
101309
101305
415823
436392
415026
502018
381943
471968
451415
220336
141583
246861
264283
84100.2
246110
90868.1
379950
377815
352291
411845
467137
555726
574591
588185
518893
507179
539846
281309
329739
203528
294549
124078
102356
342986
422518
552206
465748
490148
489545
419449
447547
459575
571217
580882
672280
636023
593763
547864
661323
551788
618423
521346
648077
222781
365024
260065
179972
274822
150822
310636
163873
258806
202548
116715
104909
81570.5
151055
422026
311651
376394
219856
366646
346309
275390
122463
146544
105445
106223
132956
140700
103752
112944
104238
118611
101766
131044
102502
106213
101300
101305
101302
101301
101302
101302
101300
101307
101558
101305
101336
101318
101407
101301
101299
101299
101298
101298
101299
101299
101298
769741
639355
703354
769692
640499
705346
856878
507030
263955
358040
552996
164451
423193
235823
788071
691799
601642
918594
914333
825407
715423
1.12244e+06
742125
1.03328e+06
977677
721786
503426
635599
734843
499058
352940
905644
1.0677e+06
1.6155e+06
1.25357e+06
1.37805e+06
1.037e+06
771712
799090
1.01473e+06
1.18848e+06
896980
945625
1.25528e+06
937840
1.1459e+06
1.29168e+06
1.16088e+06
884018
932966
1.13394e+06
929929
1.09193e+06
1.23963e+06
1.38939e+06
1.76853e+06
1.37584e+06
1.75728e+06
1.34149e+06
1.48449e+06
1.24728e+06
1.65463e+06
312737
448359
476436
388092
346125
344591
273601
507050
569499
452911
382087
415677
327124
380548
111025
397124
221435
341543
112603
169062
217284
101675
108289
101436
101415
102868
103096
101330
101367
101320
101350
101299
101644
101303
101308
101298
101298
101298
101298
101298
101298
101298
101298
101299
101298
101298
101298
101298
101298
101298
101298
101298
101298
101298
101298
101298
779094
598100
1.08218e+06
527900
931010
443883
925409
607119
505836
637070
894865
579217
981321
519228
1.48475e+06
1.81427e+06
1.55336e+06
1.75363e+06
596195
412613
337849
590384
355896
716590
495772
316324
451849
327519
693995
271761
400581
499506
1.21583e+06
1.11458e+06
1.4702e+06
891758
1.01327e+06
861548
1.06449e+06
627297
1.19154e+06
687122
877414
1.85163e+06
1.97734e+06
1.93906e+06
1.91606e+06
1.65933e+06
1.54495e+06
1.78149e+06
1.40101e+06
827034
476346
432761
649692
513513
812852
656534
764380
457414
412174
533092
508555
658407
606569
1.53541e+06
1.2212e+06
1.6077e+06
1.19006e+06
1.35264e+06
950413
1.14845e+06
1.07589e+06
101439
102440
118277
104852
102917
123403
101548
154515
101956
105529
110024
124716
192484
102994
101345
101597
101318
101934
101305
101340
101411
101298
101305
101298
101298
101299
101299
101298
101298
101298
101298
101298
101298
101298
101298
101298
101298
101298
101298
101298
101298
101298
101298
101298
101298
101298
101298
101298
101298
101298
101298
101298
101298
101298
101298
101298
101492
113322
102839
108269
102007
104353
101737
101310
101382
101300
101299
101337
101324
101299
104874
187482
115343
167760
110703
147672
107274
101409
101461
101317
101301
101629
101350
101305
101537
102371
101338
101326
101949
101724
101313
101497
101301
101298
101358
101298
101298
101299
101298
101298
101298
101298
101298
205095
101301
101298
101310
101298
101345
101398
101328
101307
101302
107480
101306
101382
103397
101298
101347
101298
101342
101298
101299
101312
101298
101298
101298
101298
101298
101298
101395
102911
101309
102188
102716
101423
101477
102592
101410
102285
101444
101837
101330
101327
101592
101596
101313
101299
101312
101298
101298
101304
101302
101298
101298
101298
101298
101298
101298
101298
101298
109287
198406
118590
179791
118395
176887
109140
101301
101298
101298
101298
101298
101298
101298
102010
101442
102120
101355
102387
101385
101793
101358
101310
101346
101300
101433
101304
101318
101873
114157
101861
103037
102676
105824
101503
101313
101475
101830
101878
101358
101345
101441
101298
101298
101298
101298
101299
101298
101298
101302
101450
101302
101309
101311
101335
101299
101298
101299
101301
101303
101298
101298
101299
101298
101298
101298
101298
101298
101298
101298
101298
101299
101298
101298
101298
101298
101298
101915
102695
101401
101337
102744
101880
101341
572655
233386
185411
467606
143010
286971
363372
625443
347602
228253
634921
269540
427902
408129
317785
568024
338896
349168
612615
302483
432365
295502
308734
313074
239917
257348
260787
242318
101299
101370
101349
101336
101299
101313
101299
101298
101298
101298
101302
101298
101300
101298
239955
347872
351967
185757
285941
210342
285557
101304
101298
101307
101306
101298
101299
101298
101298
101298
101298
101299
101298
101298
101298
103240
214962
132647
102949
182890
108271
126883
101299
101298
101298
101298
101298
101298
101298
101298
101298
101298
101298
101298
101298
101298
101299
101302
101369
101299
101400
101304
101313
101298
101298
101298
101298
101298
101298
101298
101298
101298
101298
101298
101298
101298
101298
102411
101309
101382
101349
106097
101620
102028
101299
101298
101298
101298
101298
101298
101298
101298
101416
101300
105680
101354
101316
101299
102256
101303
101671
110635
101416
101337
101299
101298
101298
101298
101302
101298
101298
101298
101298
101298
101298
101307
101298
101298
101298
322656
285481
336072
234913
278624
268568
225622
139812
339881
299176
153869
241484
273691
124004
101334
106158
101907
101600
102022
106102
101342
101298
101299
101298
101298
101298
101300
101298
101298
101298
101304
101301
101299
101318
101298
111313
336815
330708
400812
101937
378262
101639
101397
293281
184785
267641
101360
124887
101303
101298
107586
101437
101936
101298
101304
101298
101298
101298
101300
101298
101298
101298
101298
101298
101301
101298
101299
101298
101298
101298
101298
101298
101298
101298
101298
101298
101298
114466
196024
164660
329480
110938
189006
119506
101298
101298
101298
101298
101298
101298
101298
101298
101298
101298
101298
101298
101298
101298
101298
101298
101302
101300
101298
101299
101298
101298
101298
101300
101314
101299
101308
101299
101299
101298
101298
101302
101298
101300
101298
101298
101298
101298
101298
101298
101298
101298
101298
101298
101298
101298
101298
101298
101298
101298
101298
101304
101304
101298
101301
101298
101299
101299
101298
101303
101298
101299
101298
101300
101298
101298
101298
242741
263864
242628
319864
229898
271176
261001
362620
442950
269428
377291
468190
246892
278152
419052
489044
269220
404733
588208
223180
268116
270368
615873
307389
149706
482639
286335
287878
313038
129199
394804
142989
308153
301920
247399
101611
359277
372655
292299
305869
454050
429333
364061
437263
263175
158040
442473
331972
171520
189696
259084
173372
261408
240166
240489
373884
355185
358971
369206
368600
366294
375086
350616
376182
381790
341698
262568
242885
251031
381577
379980
366349
395311
387941
404962
390701
363125
401478
389981
382186
277188
255157
257153
395512
389083
404705
379175
423772
406189
424195
403230
419090
397048
444590
273208
249601
250215
369912
316217
349593
341544
348841
442156
451735
387093
495724
474096
349124
283776
272233
255083
318104
297393
323590
296541
194775
440700
399941
232831
497908
296923
470562
287529
318770
301036
317549
311622
304405
316248
131593
331179
257920
178674
312856
403627
151728
319031
303780
322423
298625
315297
313787
309987
132653
219203
210779
134581
244643
140306
211409
165109
220874
246845
135307
226089
206270
148529
365078
420584
426637
434971
445352
385821
455413
402496
420836
359481
434798
436763
182720
414678
354427
164471
287647
254530
176901
245613
246154
206395
250958
258696
277283
268956
366410
420463
441036
424579
447283
444529
428312
415968
428099
455190
460963
448244
450846
435992
439838
468430
475782
468598
519502
454811
492638
497665
464418
554387
476721
555042
495533
529744
437645
337212
438211
567877
618239
392074
389281
554513
296139
572321
324515
413346
350738
502062
274471
249588
311732
336244
331043
263645
298446
281254
240465
304972
287723
270525
288490
264141
101328
102689
101298
101298
101298
101298
101298
101298
101298
101298
101298
101298
101298
101298
101298
101298
101298
101298
101298
101298
101298
101298
101298
101298
101298
101298
101298
101298
101298
101298
101298
101298
101298
101298
101298
101298
101298
101298
101298
101298
101298
101298
101298
101298
101298
101298
101298
101298
101298
101298
101298
101298
101298
101298
101298
101298
101298
101298
101298
101298
101298
101298
101298
101298
101298
101298
101298
101298
101298
101298
101298
101298
101298
101298
101298
101298
101298
101298
101298
101298
101298
101298
101298
101298
101298
101298
101298
101298
101298
101298
101298
101298
101298
101298
101298
101298
101298
101298
101298
101298
101298
101298
101298
101298
101298
101298
101298
101402
258765
102959
275786
297883
276884
251941
339127
398843
379617
203543
444096
166850
200902
294572
154363
236690
260622
169934
292963
263090
279308
283549
284740
295804
272633
308843
295168
351920
446607
265375
101303
102285
363799
114994
242054
101440
239926
264689
226941
254470
276028
281411
240843
301042
330978
308210
345114
307673
289332
219924
359913
315295
298480
304218
414746
257935
341815
378732
280379
127722
133390
323777
277434
269242
237126
101324
304210
367013
209562
285330
277569
252870
214972
209748
195589
274760
187743
286646
341442
338315
327385
265486
316498
296893
268265
237554
197504
234013
214676
335977
316812
201140
200375
194949
249277
281534
276279
248315
209052
192340
207204
237149
215169
228837
271485
277539
278813
370010
372660
349238
346220
253125
376971
243190
369421
252870
375246
363283
264255
271018
262105
371728
372961
355469
349300
244246
253605
253728
385750
387701
388713
390219
225896
343642
368156
224734
365712
340251
209279
102838
101382
101426
142860
111076
111570
102344
141991
110815
107365
101298
101298
101298
101298
498736
385069
389525
496344
502640
407685
396485
506903
493345
423381
507728
438501
437324
423745
441775
336565
210288
374548
238999
317000
218703
277781
289351
224241
195321
258447
213253
232119
178198
183883
205917
168427
101298
101298
101298
101298
101298
101298
101298
101298
101298
101298
101298
101298
101298
101298
101298
101298
101298
173384
220025
147769
101298
101298
101298
101298
101298
101298
101298
101298
101298
101298
101298
101298
101298
101298
101298
101298
254860
246568
254367
388759
394465
391832
402721
245900
257839
395274
250040
394959
408051
407429
219579
238629
292688
310785
302791
277313
221556
218481
349926
379946
219450
231156
386870
350925
412647
418442
417968
366168
373835
375859
369255
240243
242973
244626
386803
389860
381235
384104
248041
257890
256893
396376
407181
390730
403989
241367
295779
314762
239580
222321
312304
291983
426196
428734
439889
382042
398121
395267
382029
445557
450326
452472
464849
468144
470653
475580
263206
254516
255205
415223
413101
414431
408056
432755
440415
461380
494928
421936
456863
411247
234469
235035
240658
386917
343958
375561
331486
478496
453909
468260
538452
583280
500572
543764
460648
471965
458188
472714
476054
493628
483255
473382
465023
461484
464464
469274
478026
482505
242696
261772
295419
260724
291049
266396
235178
466786
492062
482830
499146
543054
510998
524443
499834
513000
517760
627513
584527
566990
611862
227230
252950
239612
304876
287770
299112
289054
492085
467691
435827
643601
622699
577695
591288
481834
498586
469759
476371
476672
487525
489050
309244
266352
297136
287415
264304
295267
310047
325766
402153
359712
109288
486787
474496
338714
457437
326571
446956
289915
159738
237977
125536
577632
539453
441298
485882
531993
443873
581257
571531
482013
480122
456387
513946
448435
561028
470630
425935
462836
423622
534511
358563
458855
372678
374524
268278
382928
300999
433062
287954
252945
248607
333291
255092
256431
222751
304240
239981
210663
143681
241088
183457
278351
207624
146329
119964
198666
110889
172451
109384
161839
103013
101585
127808
105221
103584
116703
104958
134447
117662
471765
101387
101298
101298
101298
101298
101298
225173
270269
165108
101493
101302
278731
236559
270155
227974
352412
111690
103574
103778
101319
101305
101315
101300
101299
101301
101307
312495
202772
302138
176201
191175
104674
134214
101570
101488
101309
101790
101299
101328
101299
101300
101298
101298
101298
101299
101298
101298
101298
101298
101298
101298
101298
101298
101298
101298
101298
101298
101298
101298
101298
101298
101298
101298
101298
101299
101298
101298
101298
101298
101298
101298
101298
101298
101298
101298
101298
101298
101298
101298
101298
101298
101298
101298
101298
101298
101298
101298
101298
101298
101298
101298
101298
101298
101298
101298
101298
101298
101298
101298
101298
101298
101298
101298
101298
101298
101298
101298
101298
101298
101298
101298
101298
101298
101298
101298
101298
101298
101298
101298
101298
101298
101298
101298
101298
101298
101298
101298
101298
101298
101298
101298
101298
101298
101298
101298
101298
101298
101298
101298
101298
101298
101298
101359
101298
101298
101425
101298
101298
101298
101298
101298
101298
101298
101298
101298
101298
101298
101298
101298
101298
101299
101298
101298
101298
101298
101298
101298
101298
101298
101298
101298
101298
101298
101298
101298
101298
101298
101298
101298
101298
101298
101298
101298
101298
101298
101298
101298
101298
101298
101298
101298
101298
101298
101298
101298
101298
101298
101298
101298
101298
101298
101298
101298
101298
101298
231162
268295
271632
198548
201009
263098
264089
508098
512176
479116
681357
700213
668682
653546
264383
292819
271967
294011
308856
297906
309370
241914
266487
253512
292394
275316
233819
226635
506189
547309
515711
487960
506599
506608
537448
518226
625287
585818
516692
509797
573610
609767
238600
274382
281820
203557
263591
209649
266364
322392
365589
412538
377438
564177
629740
568982
463320
696079
664903
483723
433537
646514
670246
302040
316779
311664
316033
306066
325133
320845
429037
427683
611680
675061
695293
387798
628811
258767
293578
310383
219559
272431
282071
233600
305950
320380
311355
327481
323291
318532
316189
291947
330659
356534
294916
316022
251292
276193
101304
102582
101298
101298
101298
101298
101298
101298
101298
101298
101298
101298
101298
101298
101298
101298
101298
101298
101298
101298
101298
101298
101298
101298
101298
101298
101298
101298
101298
101298
101298
101298
101298
101298
381488
362595
224925
226741
536389
524035
375614
375973
511140
368892
543987
526007
370449
466457
360740
495010
363197
509416
258001
298082
256715
151909
359638
198888
329330
179007
232664
240465
284762
262567
251235
241594
277693
309188
166587
258167
118110
221111
272925
245242
301959
144280
350745
124129
242578
108546
178273
102267
109734
353250
106999
191856
102943
110465
102016
164283
102264
101403
101408
303806
424791
314581
354323
411520
310162
313390
232635
174816
265010
195822
173153
260964
236963
286521
344635
352666
289413
389527
301797
263892
224199
188978
161983
241193
168541
252756
213406
224240
303314
272435
287650
241283
259349
255251
192326
153604
227393
151396
202487
142396
213532
212947
271220
221968
225264
234001
240461
202222
180249
133906
115061
174011
128195
197034
161871
165756
212777
205224
221518
186798
198894
179184
120598
107318
146389
104594
138781
104171
124403
145695
197695
164560
137061
180668
154562
131683
111537
103003
102224
107891
102859
113061
107254
115339
152727
125125
153437
121965
144343
116659
101354
101384
101686
102004
160183
116008
101329
207117
268190
113496
146388
152099
130131
140411
113412
128459
101544
115298
109376
145660
231444
216043
179460
236232
195874
247506
215410
101904
119756
101771
102122
166318
228439
103994
101918
105242
101901
104999
102067
103928
106377
104057
121921
123187
104970
105569
123502
120187
229287
193135
171450
203363
192602
231006
208505
101521
102317
324021
181408
101298
101298
101298
101298
101300
101299
101298
101298
101299
101298
223321
284190
284408
199323
201571
270784
271172
684803
376834
385496
355687
643757
556343
608540
357205
390416
416405
348378
367258
316674
363938
283116
328632
297012
249372
289800
354275
457925
246907
303546
308298
341971
346822
290684
286299
336666
351786
407251
505717
363757
520835
429637
280327
261214
290275
282597
306488
299599
317688
278810
269592
269247
203791
232332
209712
281430
385265
337778
327413
390371
275942
245545
365432
316840
267894
331544
354429
366212
297358
308474
198877
189514
192894
202237
169263
141812
145293
442917
410539
372194
353987
311119
392036
382225
315109
298508
310588
316247
326642
315100
319865
276875
272137
239697
218884
250513
275692
231754
255048
284055
271452
260075
275775
265996
249325
333616
359036
341471
386318
458161
503587
421955
297657
240824
235018
227868
233168
286460
291447
241539
200901
258384
186079
209707
226598
280563
259557
296227
297105
302421
311886
310387
301329
206667
173783
216074
182714
206554
160203
150473
354692
323374
385691
387815
421490
357202
327028
288757
305369
270070
282558
300402
247824
273364
249444
318187
263832
241413
299688
255276
313306
292441
306265
314767
338553
333471
336005
370505
230212
248358
247135
267161
269310
289019
289556
294464
268864
294911
304976
307562
309232
309420
310350
353262
342155
323436
326466
315802
353422
101443
101298
101298
101300
292254
272877
101298
101298
101298
163951
221427
161107
120462
123436
210461
185046
180328
213950
307937
252485
212216
332370
281438
245034
339440
423216
421088
469563
465817
519634
404562
468598
292721
299060
293437
319257
313990
313479
323081
301429
254234
263669
264618
281175
305427
338611
194524
217774
242762
234073
209196
171368
185668
356859
338456
326231
323997
347499
349861
372399
208389
186260
192476
185545
190518
138185
142536
337886
288465
322200
277311
333354
308985
359733
288861
271320
285737
329676
311360
286745
299297
194738
199571
194588
163778
168403
150316
154181
330869
276547
270114
357155
349648
401918
397004
231731
235934
244069
282937
287078
294531
291359
565784
490975
525576
585277
646010
662940
551014
241547
203725
221985
198823
212620
150315
163532
295649
278708
293354
321543
301941
315659
293553
259719
278591
326888
300586
256301
360329
326240
255773
217969
234626
231107
204396
188085
209818
316924
270056
305682
294977
357879
308802
347217
240528
280681
224192
228271
197384
285117
241519
287355
371614
352647
306044
396444
411190
427419
249252
293504