/*--------------------------------*- C++ -*----------------------------------*\
  =========                 |
  \\      /  F ield         | OpenFOAM: The Open Source CFD Toolbox
   \\    /   O peration     | Website:  https://openfoam.org
    \\  /    A nd           | Version:  9
     \\/     M anipulation  |
\*---------------------------------------------------------------------------*/
FoamFile
{
    format      ascii;
    class       volScalarField;
    location    "0.00215";
    object      rhoE;
}
// * * * * * * * * * * * * * * * * * * * * * * * * * * * * * * * * * * * * * //

dimensions      [1 -1 -2 0 0 0 0];

internalField   nonuniform List<scalar> 
17622
(
434990
512068
446102
325040
332702
573579
495421
475009
581875
356541
256707
253280
1.01677e+06
796846
843176
916596
735217
546203
862065
627628
504472
535386
585286
450808
684807
871922
1.2878e+06
1.19319e+06
1.08939e+06
938608
1.43014e+06
980391
1.05898e+06
1.08515e+06
859356
620766
930452
760980
998356
837858
497228
560035
856888
669161
618801
533618
756093
446142
603398
476211
556943
506660
643950
424130
406610
447688
506671
481766
408949
430972
492435
435524
479113
475236
596824
434864
518964
491216
1.13804e+06
889717
1.08099e+06
768975
649659
752119
778815
652751
757225
866830
855869
184216
928225
230469
1.31971e+06
472116
1.21265e+06
780431
888370
501324
234005
612838
880144
259833
608824
551171
214440
577465
275455
723788
1.03368e+06
371718
955918
629975
354151
824786
469390
1.22197e+06
1.38949e+06
973290
929110
1.28467e+06
853299
658699
1.09443e+06
611751
989559
436326
563031
762630
272174
296614
424071
256125
347847
305713
214929
190175
314192
222284
337041
476332
373692
272472
252183
418984
409258
312849
1.07856e+06
737253
681874
648618
956722
974260
821534
361482
891104
516315
668590
513922
690706
389130
946191
773466
1.18023e+06
889266
514644
540310
254723
841098
351894
605127
690978
340331
238279
691892
347128
600742
615566
245845
715489
378960
703790
358533
629205
359473
198353
346958
248007
325385
230519
384126
675752
732023
402784
292643
647354
751437
432405
722531
318631
846134
557435
783713
478637
801777
578655
288410
561350
512884
463859
385984
752664
1.11456e+06
968813
686798
625228
929688
1.16607e+06
891333
1.27657e+06
821816
1.49487e+06
1.21506e+06
1.37508e+06
1.11546e+06
1.31688e+06
1.00597e+06
799432
1.07418e+06
693041
1.11618e+06
832740
761949
1.34555e+06
1.33738e+06
1.4577e+06
824257
1.70698e+06
963805
1.18626e+06
2.22443e+06
2.12368e+06
2.46692e+06
1.95577e+06
1.09407e+06
670211
656833
919674
738922
1.00145e+06
994642
1.99801e+06
1.67538e+06
1.79158e+06
1.8686e+06
1.08575e+06
1.47158e+06
1.11125e+06
912890
1.22006e+06
1.35929e+06
959171
992221
839716
1.19115e+06
665635
1.26459e+06
823427
893366
290571
547814
362806
274124
509501
311461
264291
1.1924e+06
851576
661454
1.30287e+06
798181
1.05319e+06
957336
256819
253264
254700
525571
253570
254588
253248
736758
685622
987638
459969
463235
789463
305107
253245
911492
253293
1.11929e+06
1.1165e+06
1.12984e+06
1.20165e+06
1.18059e+06
758926
726737
462549
584453
433929
542408
831629
658047
523088
944452
925933
1.65928e+06
1.57608e+06
1.15728e+06
1.12004e+06
1.55425e+06
1.14522e+06
1.6883e+06
1.62123e+06
1.11503e+06
1.47772e+06
1.11715e+06
1.51855e+06
1.13109e+06
1.56102e+06
1.3922e+06
1.43074e+06
1.11306e+06
1.16673e+06
1.48813e+06
1.38179e+06
1.12055e+06
1.24807e+06
1.19846e+06
1.15468e+06
1.0853e+06
1.29856e+06
1.11197e+06
1.05141e+06
600544
935894
1.03852e+06
1.10409e+06
812960
707757
936767
456104
954276
423845
610587
538376
777634
374970
317469
353619
495632
469660
333845
312572
442766
331389
419104
315986
511354
294888
449498
375375
584412
560784
893253
560601
691985
486038
659635
486911
473313
419341
498472
426943
529871
452576
680055
458171
665594
694155
546588
589017
835009
461154
535025
637537
479321
558433
560792
632460
1.20948e+06
264715
263806
962888
1.16685e+06
1.18636e+06
1.15384e+06
580755
253335
596517
253262
311381
253246
253646
253245
345596
253246
253245
253245
540559
820205
629251
854075
342775
256588
333810
255464
682233
957836
711440
671890
323535
253997
583833
527799
267137
262965
257895
253814
253414
253283
409686
253346
256472
253267
861271
262855
337019
602047
852964
259508
303113
758591
255329
266000
405590
315056
257387
254651
255522
253644
253251
254450
253325
253269
253247
253252
253246
253246
253257
253248
253245
253245
253409
253295
253249
253294
253247
456177
337480
617469
554748
345395
634039
442739
479036
583522
400355
712720
363596
663734
523402
268887
273573
343963
341376
272132
338563
270396
266170
338983
267269
312721
270081
328189
262720
690076
456355
771124
734933
590577
536063
828833
818343
758052
766895
821005
647326
862749
943699
256490
263627
294466
307126
259273
259855
277319
848277
819439
658609
413843
984891
733649
428843
584683
302226
381261
263938
551020
296145
368411
264330
298995
256432
254920
286794
269880
254290
256826
253817
255223
253332
259368
253567
254255
267546
489400
269726
334879
284749
408592
260251
254365
254614
253436
253286
255869
253801
253326
692009
507546
587235
700350
499604
611820
617444
726468
404812
569865
700109
347884
409834
496752
322076
258143
268772
268986
254559
254523
258739
253524
253278
253385
253334
253257
253253
253267
279658
261351
276912
255692
255290
253749
258566
253245
253245
253245
253245
253245
253245
253245
253275
253246
253246
253245
595140
724070
451471
711415
482052
593672
558653
506450
462595
269286
617115
297382
323303
274306
257379
254169
253345
256861
253587
253538
253320
253289
253252
253246
253273
253248
253247
253246
253909
253264
253259
253463
253415
253289
253249
253826
253250
253248
253301
253577
253249
253247
253320
253246
253246
253248
253247
253245
253245
253246
253245
253245
253245
253245
253245
253245
253245
253245
253245
253245
253245
253245
253245
253245
253245
253245
253245
253245
253834
253464
286069
253247
255105
312895
253331
253258
253559
253249
259410
950512
1.15373e+06
1.13825e+06
590683
281633
253289
253247
253245
253246
253264
253246
262407
279006
253253
527060
258178
267832
253248
254188
256556
253247
260628
253317
253553
253247
253248
253247
253245
253257
253246
253246
253245
253245
253245
253245
253245
253245
253245
253245
253245
253253
253248
253245
253245
253245
253245
253245
253245
253245
253245
253245
253245
253245
253245
253245
253245
253245
253245
253245
253245
253245
253245
253245
253245
253245
253247
253246
253245
253245
253245
253245
253245
253245
253245
253245
865230
483190
540009
530865
610200
557424
586666
642672
517590
253245
253245
253245
253245
253245
253245
253245
253245
253245
253245
253245
253245
253245
253245
253245
253245
729734
253248
253246
253540
317504
253250
261592
253276
253248
253245
253245
929550
967157
1.4157e+06
1.74764e+06
1.84445e+06
831312
256402
253395
253251
253247
880358
1.03729e+06
616705
724734
938409
759270
972955
884300
742814
1.44819e+06
1.51577e+06
1.30663e+06
1.80177e+06
1.43677e+06
2.1177e+06
1.33416e+06
1.32479e+06
1.21841e+06
1.40394e+06
1.23279e+06
1.42338e+06
1.31507e+06
1.27305e+06
1.16566e+06
1.1772e+06
1.25582e+06
1.49975e+06
1.56666e+06
1.82852e+06
1.71727e+06
1.58973e+06
1.47402e+06
1.75317e+06
1.42615e+06
1.63872e+06
1.40172e+06
1.6755e+06
2.70859e+06
2.14738e+06
2.08444e+06
2.45161e+06
2.1367e+06
2.50048e+06
2.6322e+06
2.75059e+06
2.02277e+06
2.0835e+06
2.63628e+06
1.16555e+06
1.27267e+06
2.03583e+06
2.03203e+06
909216
967542
1.22567e+06
1.01525e+06
1.05545e+06
1.74287e+06
1.35728e+06
1.48303e+06
2.34534e+06
1.35236e+06
869737
1.05518e+06
1.106e+06
1.08743e+06
1.18292e+06
1.12332e+06
1.10464e+06
1.03997e+06
1.22113e+06
1.22217e+06
1.19037e+06
1.3666e+06
1.14303e+06
1.31194e+06
1.27834e+06
2.2244e+06
1.91423e+06
1.97999e+06
2.31783e+06
1.82731e+06
2.12624e+06
2.46637e+06
1.64394e+06
1.692e+06
2.60586e+06
1.49917e+06
2.12987e+06
1.21227e+06
2.02411e+06
1.25703e+06
583322
985187
1.0314e+06
899076
978376
1.04646e+06
911458
970766
996423
1.02267e+06
1.03935e+06
982215
926705
876499
887841
915128
1.07099e+06
1.20005e+06
1.1726e+06
1.14372e+06
1.14205e+06
1.11831e+06
1.09874e+06
1.00169e+06
991746
1.09117e+06
949132
1.06284e+06
926605
1.02817e+06
1.01666e+06
1.09481e+06
1.06096e+06
1.04901e+06
944767
925562
903851
971198
1.12945e+06
1.13609e+06
981658
1.12498e+06
1.06709e+06
1.21479e+06
1.03102e+06
1.15918e+06
1.1401e+06
1.0902e+06
1.22113e+06
1.05716e+06
954194
1.0052e+06
993090
1.34933e+06
1.52108e+06
1.65733e+06
1.64663e+06
1.45552e+06
1.42407e+06
1.5427e+06
1.22771e+06
1.22998e+06
1.50964e+06
1.21898e+06
1.33978e+06
1.10617e+06
1.37412e+06
1.27286e+06
1.56888e+06
1.35453e+06
1.45122e+06
1.14113e+06
1.14827e+06
1.05195e+06
1.27319e+06
1.87958e+06
1.70462e+06
1.38966e+06
1.54142e+06
1.59145e+06
1.82476e+06
1.61268e+06
2.16679e+06
1.911e+06
1.73362e+06
2.44213e+06
1.83734e+06
1.32068e+06
1.49158e+06
1.60043e+06
2.48859e+06
2.41636e+06
2.03927e+06
2.90019e+06
2.1598e+06
2.8791e+06
2.43237e+06
2.03358e+06
1.49538e+06
1.65587e+06
1.65864e+06
1.80402e+06
1.72162e+06
1.95954e+06
2.71973e+06
3.65521e+06
3.16304e+06
3.05546e+06
2.26534e+06
2.1418e+06
1.93726e+06
2.51535e+06
2.65311e+06
3.64354e+06
2.9933e+06
3.2136e+06
1.27306e+06
1.0654e+06
741276
1.28784e+06
878061
1.5081e+06
1.12136e+06
2.30989e+06
2.42404e+06
2.6992e+06
2.12948e+06
955104
1.61431e+06
1.01532e+06
937494
1.45482e+06
898889
1.1583e+06
808105
827059
816381
719945
708003
1.2809e+06
1.36658e+06
1.42131e+06
1.51419e+06
1.43581e+06
1.50258e+06
1.13844e+06
630597
894551
782476
1.09224e+06
845802
1.134e+06
1.1755e+06
1.39641e+06
1.40097e+06
963484
1.18575e+06
1.37156e+06
1.36412e+06
1.17815e+06
1.18574e+06
1.36635e+06
1.35627e+06
1.19684e+06
1.17781e+06
1.36343e+06
1.19219e+06
1.33175e+06
1.12605e+06
1.223e+06
706641
1.21738e+06
1.21737e+06
1.1183e+06
1.10231e+06
1.21664e+06
1.1323e+06
1.204e+06
1.22725e+06
1.11115e+06
1.23054e+06
1.16956e+06
1.21477e+06
1.14257e+06
1.25436e+06
1.34289e+06
1.25555e+06
1.21755e+06
1.25157e+06
1.2901e+06
1.2901e+06
1.30658e+06
1.38737e+06
1.34056e+06
1.25459e+06
1.5483e+06
1.29947e+06
1.43203e+06
1.38826e+06
1.18314e+06
1.14592e+06
1.61246e+06
1.34552e+06
1.33102e+06
973353
1.60411e+06
987793
1.19422e+06
661492
1.20741e+06
798989
1.47668e+06
820955
253248
253245
253245
253245
253245
253248
253247
253246
253246
253245
253245
253245
253245
253245
253245
253245
253245
253245
860118
1.21011e+06
313255
885439
257992
253248
253246
253245
253245
1.0114e+06
1.30509e+06
438370
777580
255339
253246
253245
253245
253245
2.06104e+06
2.08149e+06
1.14158e+06
277799
253323
253245
253245
253245
253245
1.38427e+06
2.33537e+06
882973
253267
253245
253245
253245
253245
253245
258209
1.43639e+06
253608
375387
253245
253246
253245
253245
253247
441241
253245
253265
253245
253245
1.46138e+06
1.3507e+06
1.45225e+06
1.43277e+06
1.17656e+06
390093
901161
1.22382e+06
411691
1.20415e+06
1.255e+06
1.26035e+06
692751
350029
776972
284385
285972
254122
872083
275925
277576
253626
253307
253363
253254
256224
253273
253294
253250
1.40277e+06
1.44762e+06
1.27868e+06
464799
1.28678e+06
1.75032e+06
601557
1.80492e+06
981284
623832
1.24662e+06
271104
261480
253454
503683
256715
253627
253258
253261
253271
253247
253506
253246
253249
253246
1.40508e+06
1.16197e+06
1.17211e+06
1.99338e+06
1.47448e+06
2.22664e+06
2.40518e+06
2.31596e+06
2.61788e+06
2.58923e+06
1.24191e+06
1.79065e+06
452883
254433
253262
253249
253970
253253
253246
253246
253245
253246
253245
253245
253245
253245
253245
1.00747e+06
1.06894e+06
940140
770991
2.05281e+06
2.52931e+06
1.08479e+06
1.17741e+06
482537
2.32055e+06
1.26198e+06
1.03039e+06
258524
275093
253253
253246
253245
253245
253245
253245
253245
253245
253245
253245
253245
253245
253245
253245
253245
320493
253247
253256
253249
253388
253245
253246
549518
253267
253422
253541
256040
253246
253261
1.12005e+06
289181
1.45653e+06
260446
1.70733e+06
253248
254520
253245
253247
253245
804943
837691
654043
1.53314e+06
830350
1.22028e+06
715458
1.59818e+06
919863
966117
1.4204e+06
847814
1.475e+06
1.12111e+06
1.83897e+06
1.09856e+06
1.5616e+06
1.39569e+06
2.00851e+06
1.86992e+06
2.19712e+06
278442
1.26301e+06
441844
1.36434e+06
256286
358941
593069
272033
273243
253248
254532
253262
253562
253246
253248
1.12776e+06
1.23234e+06
1.07806e+06
1.22117e+06
1.24538e+06
1.09354e+06
1.11062e+06
327672
274219
286064
184954
145076
151498
176823
253563
253828
256428
257625
253776
256147
253598
1.32312e+06
1.32294e+06
1.18522e+06
1.40911e+06
1.21834e+06
1.42419e+06
1.28815e+06
393257
511568
461366
303823
211002
256576
251191
253298
253452
254354
254525
253350
253358
253847
2.72856e+06
2.13777e+06
2.1027e+06
2.39892e+06
2.14625e+06
2.48655e+06
2.66211e+06
1.56715e+06
933681
1.34221e+06
1.06261e+06
566181
724227
852374
253245
253250
253272
253263
253247
253246
253251
3.10591e+06
2.49447e+06
3.60789e+06
1.79024e+06
3.66812e+06
1.95427e+06
3.06097e+06
330758
1.63903e+06
732892
370055
1.45238e+06
740132
964557
253245
253245
253245
253245
253245
253245
253245
253290
1.20406e+06
257580
1.50901e+06
856818
1.00961e+06
255117
1.05646e+06
989000
1.31472e+06
1.16386e+06
1.22331e+06
257051
525529
257673
439061
260555
287579
266783
320523
255398
253245
253245
253245
253246
253245
253245
253245
253249
253245
253245
253245
253245
253245
253245
1.02305e+06
1.15346e+06
1.03818e+06
1.18804e+06
1.16728e+06
1.05357e+06
1.00685e+06
399301
664095
680418
753772
286322
291900
744224
957838
917062
936241
941182
1.04186e+06
1.20151e+06
1.209e+06
1.09008e+06
1.18365e+06
1.06867e+06
1.06919e+06
705316
431627
743409
762179
307887
298257
779980
988016
992975
960443
1.02462e+06
1.14325e+06
1.2307e+06
1.11118e+06
1.22089e+06
1.24583e+06
1.1303e+06
1.12524e+06
1.03327e+06
968011
988209
1.01265e+06
1.05874e+06
1.03511e+06
1.05409e+06
1.03857e+06
1.14081e+06
1.23507e+06
1.27704e+06
1.13251e+06
1.25929e+06
1.10818e+06
1.16451e+06
1.15628e+06
1.23775e+06
1.2802e+06
1.16787e+06
1.26126e+06
1.14302e+06
1.18036e+06
1.0598e+06
1.04718e+06
1.01341e+06
1.09628e+06
1.08528e+06
1.11527e+06
1.079e+06
1.12197e+06
721645
435218
453954
290250
549811
572032
277471
307586
386605
343058
198981
182313
162881
222757
486379
866385
541249
313970
701994
621407
355359
396678
400220
278650
282436
398954
276676
403592
383660
279742
393653
268555
397814
273162
363522
253281
253310
253285
253301
253304
253280
253285
253499
257023
253568
254986
253684
255631
253421
253273
253288
253277
253262
253292
253272
253263
1.22324e+06
1.26452e+06
1.13939e+06
1.38607e+06
1.12279e+06
1.36907e+06
1.23752e+06
804103
516814
900659
870423
323206
809353
351111
1.15931e+06
1.04246e+06
1.07472e+06
1.1315e+06
1.38518e+06
1.54666e+06
1.70395e+06
1.64535e+06
1.51861e+06
1.3995e+06
1.625e+06
1.03048e+06
1.20971e+06
740788
979114
485442
398709
1.15327e+06
1.29467e+06
1.52466e+06
1.27996e+06
1.51017e+06
1.25475e+06
1.10228e+06
1.15446e+06
1.19997e+06
1.49362e+06
1.57589e+06
1.82962e+06
1.71409e+06
1.59212e+06
1.45715e+06
1.75299e+06
1.41491e+06
1.62407e+06
1.36088e+06
1.67438e+06
623683
1.11499e+06
754082
518053
806071
418893
926279
557501
813140
701282
374398
404216
309963
496600
1.32485e+06
946912
1.1947e+06
663323
1.10641e+06
1.04392e+06
868002
308147
382627
263689
265695
336815
362749
259407
282976
260641
298464
254416
333415
256262
265651
253250
253264
253254
253252
253255
253254
253249
253267
253896
253263
253341
253296
253517
253252
253247
253248
253246
253245
253249
253246
253246
2.41746e+06
1.92843e+06
2.00668e+06
2.26037e+06
1.96559e+06
2.1662e+06
2.50921e+06
1.85802e+06
963048
1.31474e+06
1.91874e+06
643665
1.44496e+06
923407
2.46972e+06
1.93095e+06
1.86647e+06
2.61322e+06
2.9384e+06
2.44778e+06
2.19151e+06
3.42573e+06
2.29319e+06
3.11687e+06
3.15098e+06
2.61158e+06
1.87837e+06
2.36882e+06
2.5944e+06
1.93788e+06
1.38802e+06
3.21745e+06
3.38972e+06
4.81791e+06
3.65649e+06
4.41676e+06
2.79542e+06
2.05506e+06
2.09795e+06
2.76796e+06
3.43681e+06
2.61818e+06
2.73366e+06
3.73138e+06
2.72097e+06
3.35085e+06
3.79455e+06
3.36736e+06
2.61856e+06
2.71534e+06
3.34221e+06
2.71487e+06
3.20032e+06
3.64036e+06
3.87311e+06
5.12265e+06
3.87323e+06
5.03806e+06
3.75805e+06
4.26931e+06
3.53099e+06
4.74852e+06
900116
1.46327e+06
1.55695e+06
1.23824e+06
1.02711e+06
1.10891e+06
767347
1.86996e+06
2.05629e+06
1.46331e+06
1.34433e+06
1.58146e+06
1.28313e+06
1.24771e+06
277914
1.21996e+06
593923
1.03051e+06
281975
436454
585132
254188
271050
253589
253537
257182
257764
253324
253416
253299
253375
253247
254110
253259
253270
253245
253245
253245
253245
253245
253245
253245
253245
253248
253245
253245
253245
253246
253245
253245
253245
253245
253245
253245
253245
253245
2.39079e+06
1.80665e+06
3.27109e+06
1.52725e+06
2.95074e+06
1.33388e+06
2.72628e+06
2.04981e+06
1.68377e+06
2.28269e+06
3.02664e+06
2.162e+06
3.41644e+06
1.82348e+06
4.68549e+06
5.43567e+06
4.94674e+06
5.24743e+06
1.79312e+06
1.22132e+06
1.06563e+06
1.76576e+06
1.09097e+06
2.07674e+06
1.52812e+06
932418
1.44283e+06
972299
2.28401e+06
776713
1.28574e+06
1.58541e+06
3.81279e+06
3.39853e+06
4.40916e+06
2.78812e+06
2.89756e+06
2.47712e+06
3.10576e+06
1.77523e+06
3.48011e+06
1.94239e+06
2.489e+06
5.34485e+06
5.78379e+06
5.59914e+06
5.61377e+06
4.74597e+06
4.41668e+06
5.12314e+06
3.95692e+06
2.325e+06
1.37447e+06
1.26964e+06
1.89642e+06
1.45965e+06
2.31135e+06
1.88273e+06
2.12822e+06
1.27646e+06
1.18505e+06
1.49019e+06
1.43285e+06
1.81368e+06
1.71325e+06
4.43096e+06
3.67985e+06
4.72394e+06
3.5451e+06
3.84262e+06
2.7576e+06
3.21394e+06
3.16449e+06
253597
256105
296746
262179
257302
310264
253869
396148
254891
263895
275363
314023
513585
257495
253362
253994
253295
254837
253263
253351
253528
253245
253263
253245
253245
253248
253248
253245
253245
253245
253245
253245
253245
253245
253245
253245
253245
253245
253245
253245
253245
253245
253245
253245
253245
253245
253245
253245
253245
253245
253245
253245
253245
253245
253245
253245
253730
283897
257106
270869
255019
260922
254344
253274
253454
253250
253249
253342
253310
253247
262238
504024
289217
435666
277126
377005
268332
253523
253654
253292
253252
254073
253374
253262
253842
255933
253345
253315
254875
254310
253282
253741
253254
253245
253394
253245
253245
253248
253245
253245
253245
253245
253245
569212
253251
253245
253276
253245
253362
253496
253319
253268
253255
268979
253265
253455
258525
253246
253368
253245
253355
253245
253248
253281
253245
253245
253246
253246
253245
253245
253486
257287
253273
255472
256799
253558
253692
256489
253525
255716
253609
254593
253325
253318
253980
253991
253282
253249
253280
253246
253246
253259
253254
253245
253245
253245
253245
253245
253245
253245
253245
273476
547148
297784
471799
297262
463174
273103
253251
253245
253245
253246
253245
253245
253245
255026
253604
255303
253388
255972
253462
254483
253395
253275
253366
253249
253582
253259
253294
254684
286648
254655
257608
256701
264665
253758
253283
253686
254578
254698
253394
253363
253601
253246
253245
253246
253245
253247
253245
253245
253255
253625
253254
253272
253276
253338
253248
253245
253248
253253
253257
253246
253246
253248
253245
253245
253246
253245
253245
253245
253245
253245
253249
253246
253245
253245
253246
253245
254789
256746
253503
253344
256867
254701
253353
1.81587e+06
642971
486428
1.47004e+06
363651
824168
1.0967e+06
1.97848e+06
1.0565e+06
619685
1.99556e+06
758207
1.33035e+06
1.2583e+06
944371
1.75954e+06
1.05789e+06
1.07934e+06
1.91451e+06
880535
1.34942e+06
884494
927445
945246
679356
744829
757595
687001
253247
253424
253373
253339
253247
253283
253246
253245
253245
253246
253254
253245
253249
253245
664496
1.06224e+06
1.07708e+06
491064
836533
572503
832731
253260
253245
253268
253265
253246
253247
253245
253245
253245
253245
253246
253245
253245
253245
258114
574632
334823
257384
477946
270865
319359
253246
253245
253245
253246
253245
253245
253245
253245
253245
253245
253245
253245
253245
253245
253246
253255
253423
253247
253500
253260
253283
253245
253245
253245
253245
253245
253245
253245
253245
253245
253245
253245
253245
253245
253245
256032
253273
253456
253371
265331
254052
255072
253247
253245
253245
253245
253246
253245
253245
253246
253539
253249
264270
253385
253289
253247
255643
253257
254177
276904
253541
253344
253247
253245
253246
253245
253255
253245
253245
253245
253246
253246
253245
253268
253245
253245
253245
976945
840026
1.02153e+06
661037
813529
781999
627084
354318
1.02706e+06
862695
394572
665291
783400
311923
253336
265484
254770
254000
255057
265342
253356
253246
253248
253245
253245
253246
253251
253245
253245
253246
253260
253253
253248
253296
253246
278655
1.03391e+06
1.01037e+06
1.24811e+06
254843
1.15856e+06
254097
253492
856293
484688
747280
253400
314137
253256
253246
269120
253594
254841
253246
253261
253245
253245
253245
253251
253246
253245
253245
253245
253245
253252
253246
253247
253245
253245
253245
253245
253245
253245
253245
253245
253245
253245
286800
519264
424931
976374
277698
497841
299958
253245
253245
253245
253245
253245
253245
253245
253245
253245
253245
253245
253245
253245
253245
253245
253246
253255
253250
253245
253247
253245
253246
253245
253249
253285
253248
253270
253247
253247
253245
253246
253254
253246
253249
253245
253245
253245
253245
253246
253245
253245
253245
253245
253245
253245
253245
253245
253245
253245
253245
253246
253259
253261
253246
253252
253245
253246
253246
253245
253257
253245
253248
253246
253250
253245
253245
253245
777396
755645
707031
907907
634500
765033
781128
1.16184e+06
1.30208e+06
762224
1.20194e+06
1.32786e+06
797218
745673
1.24619e+06
1.36077e+06
721997
1.22433e+06
1.64596e+06
640876
732158
823901
1.73878e+06
847533
456006
1.37868e+06
839083
917521
860138
396616
1.14909e+06
429842
931451
934675
683045
254028
1.13841e+06
1.17668e+06
991731
1.03301e+06
1.33586e+06
1.29069e+06
1.20354e+06
1.43464e+06
774920
445881
1.40988e+06
992838
485502
527480
730790
450748
789031
740924
735018
1.09224e+06
1.05923e+06
1.06308e+06
1.08686e+06
1.18079e+06
1.11749e+06
1.14404e+06
1.0648e+06
1.16699e+06
1.18354e+06
1.04013e+06
770031
726420
722146
1.09384e+06
1.06884e+06
1.06426e+06
1.09871e+06
1.17464e+06
1.21298e+06
1.23459e+06
1.08954e+06
1.21913e+06
1.19826e+06
1.12614e+06
757184
690272
711551
1.05631e+06
1.06047e+06
1.09413e+06
1.01518e+06
1.26549e+06
1.27616e+06
1.3344e+06
1.17147e+06
1.26156e+06
1.15379e+06
1.33973e+06
730149
672583
672633
990211
847304
931704
923379
1.06515e+06
1.39713e+06
1.42909e+06
1.13665e+06
1.51886e+06
1.43952e+06
1.03719e+06
770475
734426
691579
888555
808088
888317
818082
589577
1.38694e+06
1.23721e+06
709150
1.53498e+06
893120
1.44777e+06
790113
874448
822754
899222
878466
851143
903086
405497
998841
761412
556844
945965
1.22749e+06
483070
878918
832345
884306
852728
889948
896683
873306
403214
643759
619352
427715
739768
448529
641252
491990
649715
727346
429968
695364
631492
472071
1.15653e+06
1.24042e+06
1.26003e+06
1.28252e+06
1.3094e+06
1.21119e+06
1.35251e+06
1.25918e+06
1.32076e+06
1.08098e+06
1.37031e+06
1.37207e+06
521618
1.28352e+06
1.05971e+06
463782
829037
727185
498992
702975
702007
568906
710095
724083
798542
766978
1.12305e+06
1.24812e+06
1.31406e+06
1.2705e+06
1.31269e+06
1.32001e+06
1.27942e+06
1.24005e+06
1.25094e+06
1.31887e+06
1.31106e+06
1.29953e+06
1.3173e+06
1.28712e+06
1.25422e+06
1.296e+06
1.31774e+06
1.33841e+06
1.43536e+06
1.26908e+06
1.34574e+06
1.41612e+06
1.28732e+06
1.53756e+06
1.29562e+06
1.60388e+06
1.3482e+06
1.5162e+06
1.21975e+06
969686
1.19393e+06
1.65453e+06
1.75264e+06
1.10461e+06
1.07504e+06
1.62098e+06
873203
1.62336e+06
934450
1.22594e+06
990959
1.46983e+06
824701
753594
905730
1.01842e+06
977443
797132
867849
862583
729265
911512
848602
848450
841037
817896
253320
256731
253245
253245
253245
253245
253245
253245
253245
253245
253245
253245
253245
253245
253245
253245
253245
253245
253245
253245
253245
253245
253245
253245
253245
253245
253245
253245
253245
253245
253245
253245
253245
253245
253245
253245
253245
253245
253245
253245
253245
253245
253245
253245
253245
253245
253245
253245
253245
253245
253245
253245
253245
253245
253245
253245
253245
253245
253245
253245
253245
253245
253245
253245
253245
253245
253245
253245
253245
253245
253245
253245
253245
253245
253245
253245
253245
253245
253245
253245
253245
253245
253245
253245
253245
253245
253245
253245
253245
253245
253245
253245
253245
253245
253245
253245
253245
253245
253245
253245
253245
253245
253245
253245
253245
253245
253245
253506
746685
257407
767857
819104
796040
738606
1.03958e+06
1.23345e+06
1.15225e+06
541468
1.40399e+06
492841
591294
867075
469193
694295
784303
527491
805737
740542
765438
813137
815702
835398
802817
879532
824619
1.02614e+06
1.39684e+06
742798
253257
255715
1.11013e+06
288146
663835
253600
742309
750942
667496
749182
834747
818650
732948
884999
998520
922568
1.04663e+06
953939
901171
671152
1.14917e+06
981720
890129
960641
1.30889e+06
799968
1.03627e+06
1.21944e+06
788287
321613
336844
937993
782555
752406
641891
253310
864511
1.11325e+06
685578
1.00773e+06
946220
831222
695038
638686
599866
887496
565914
997428
1.25281e+06
1.22653e+06
1.16154e+06
888745
1.08747e+06
980016
849682
765292
626682
719353
682350
1.03885e+06
1.01097e+06
643223
612147
621518
792407
865307
875928
764925
650223
588612
659570
751934
652839
710390
899639
930937
928834
1.23649e+06
1.23991e+06
1.19285e+06
1.18934e+06
819358
1.20675e+06
792753
1.21269e+06
829461
1.21514e+06
1.21085e+06
868521
895348
862726
1.22951e+06
1.22266e+06
1.19873e+06
1.18558e+06
809211
840733
843590
1.26583e+06
1.2677e+06
1.26032e+06
1.26089e+06
726287
1.08282e+06
1.16722e+06
728230
1.18647e+06
1.09368e+06
679883
257103
253456
253566
362201
277999
279267
255864
359388
277350
268534
253245
253245
253245
253245
1.42102e+06
1.17309e+06
1.18837e+06
1.409e+06
1.43896e+06
1.24585e+06
1.21111e+06
1.46021e+06
1.44742e+06
1.29726e+06
1.47684e+06
1.35371e+06
1.28704e+06
1.29264e+06
1.36543e+06
971985
577812
1.11519e+06
663194
919590
607487
789244
830038
620255
521793
723712
580291
638208
467697
481320
553386
436840
253245
253245
253245
253245
253245
253245
253245
253245
253245
253245
253245
253245
253245
253245
253245
253245
253245
448587
587076
375822
253245
253245
253245
253245
253245
253245
253245
253245
253245
253245
253245
253245
253245
253245
253245
253245
827845
808972
818122
1.26243e+06
1.26276e+06
1.25647e+06
1.26535e+06
778843
809789
1.22823e+06
767862
1.24607e+06
1.25037e+06
1.21966e+06
715776
782720
937281
982631
971770
896239
727230
689869
1.06598e+06
1.16569e+06
663667
699763
1.13886e+06
1.02311e+06
1.3531e+06
1.3657e+06
1.29884e+06
1.19218e+06
1.21084e+06
1.27186e+06
1.25615e+06
792922
796452
776265
1.23404e+06
1.23824e+06
1.17857e+06
1.18069e+06
770993
770474
804283
1.24105e+06
1.24002e+06
1.17918e+06
1.18019e+06
774755
920320
963688
735625
676875
913880
868470
1.31308e+06
1.36716e+06
1.33108e+06
1.22712e+06
1.25579e+06
1.30604e+06
1.2825e+06
1.42439e+06
1.43406e+06
1.36706e+06
1.46409e+06
1.46921e+06
1.40401e+06
1.41415e+06
793840
744306
709772
1.22205e+06
1.18313e+06
1.1687e+06
1.12296e+06
1.38297e+06
1.37908e+06
1.36916e+06
1.4539e+06
1.30432e+06
1.39562e+06
1.33276e+06
674282
645169
660871
1.08913e+06
959579
1.0191e+06
894789
1.47352e+06
1.44358e+06
1.48773e+06
1.58376e+06
1.73353e+06
1.52759e+06
1.67096e+06
1.37912e+06
1.46473e+06
1.42227e+06
1.38844e+06
1.44469e+06
1.41911e+06
1.42077e+06
1.46175e+06
1.36422e+06
1.40083e+06
1.40483e+06
1.37366e+06
1.41106e+06
1.41977e+06
777683
829789
940479
854705
938079
861329
769017
1.41865e+06
1.41591e+06
1.4261e+06
1.44665e+06
1.50724e+06
1.43522e+06
1.49295e+06
1.48808e+06
1.4762e+06
1.4881e+06
1.76516e+06
1.62627e+06
1.61761e+06
1.76512e+06
656470
703456
661294
855220
820732
814023
798882
1.52048e+06
1.48244e+06
1.37815e+06
1.95508e+06
1.87602e+06
1.79149e+06
1.83862e+06
1.42561e+06
1.41221e+06
1.3975e+06
1.37544e+06
1.37753e+06
1.37483e+06
1.41972e+06
968117
857439
934556
882487
815996
889512
934743
1.05233e+06
1.29167e+06
1.09669e+06
273463
1.459e+06
1.43769e+06
1.09246e+06
1.3927e+06
957382
1.42519e+06
831805
410368
652553
315752
1.63392e+06
1.56062e+06
1.29747e+06
1.45991e+06
1.54432e+06
1.30933e+06
1.6383e+06
1.62612e+06
1.45387e+06
1.40746e+06
1.36702e+06
1.49891e+06
1.33155e+06
1.61007e+06
1.37366e+06
1.24759e+06
1.39999e+06
1.28948e+06
1.54884e+06
1.03537e+06
1.39638e+06
1.07454e+06
1.12333e+06
744942
1.14436e+06
849505
1.31342e+06
807389
698545
683837
974681
713355
710482
602317
875342
655667
565396
364840
665570
479889
789050
554947
373080
301025
528617
277546
448754
273688
416829
257542
253962
321841
263108
258978
292528
262441
339643
294966
1.55916e+06
253468
253246
253245
253245
253245
253245
648636
800503
425913
253734
253256
818400
688079
784932
626803
1.10446e+06
279633
258955
259469
253297
253262
253288
253250
253247
253252
253266
926668
541057
887992
459371
503515
261729
339150
253924
253720
253272
254475
253248
253319
253247
253251
253246
253245
253246
253246
253246
253246
253245
253245
253245
253245
253245
253245
253245
253245
253245
253245
253245
253245
253245
253245
253245
253245
253245
253247
253245
253245
253245
253245
253245
253245
253245
253245
253245
253245
253245
253245
253245
253245
253245
253245
253245
253245
253245
253245
253245
253245
253245
253245
253245
253245
253245
253245
253245
253245
253245
253245
253245
253245
253245
253245
253245
253245
253245
253245
253245
253245
253245
253245
253245
253245
253245
253245
253245
253245
253245
253245
253245
253245
253245
253245
253245
253245
253245
253245
253245
253245
253245
253245
253245
253245
253245
253245
253245
253245
253245
253245
253245
253245
253245
253245
253245
253398
253245
253245
253562
253245
253245
253245
253245
253245
253245
253245
253245
253245
253245
253245
253245
253245
253245
253246
253245
253245
253245
253245
253245
253245
253245
253245
253245
253245
253245
253245
253245
253245
253245
253245
253245
253245
253245
253245
253245
253245
253245
253245
253245
253245
253245
253245
253245
253245
253245
253245
253245
253245
253245
253245
253245
253245
253245
253245
253245
253245
253245
253245
849655
950298
956597
740116
744792
921689
921202
1.51726e+06
1.47386e+06
1.3817e+06
2.01667e+06
2.01968e+06
1.90729e+06
1.91313e+06
775764
821062
761543
849420
896665
833717
872434
743810
789944
773794
900895
813222
681016