/*--------------------------------*- C++ -*----------------------------------*\
  =========                 |
  \\      /  F ield         | OpenFOAM: The Open Source CFD Toolbox
   \\    /   O peration     | Website:  https://openfoam.org
    \\  /    A nd           | Version:  9
     \\/     M anipulation  |
\*---------------------------------------------------------------------------*/
FoamFile
{
    format      ascii;
    class       volVectorField;
    location    "0.00215";
    object      rhoU;
}
// * * * * * * * * * * * * * * * * * * * * * * * * * * * * * * * * * * * * * //

dimensions      [1 -2 -1 0 0 0 0];

internalField   nonuniform List<vector> 
17622
(
(77.5462 123.155 33.174)
(81.2904 221.886 91.0155)
(82.637 118.049 38.7139)
(61.9006 53.3834 61.4493)
(65.6255 55.8038 67.7483)
(129.342 246.436 47.888)
(110.875 199.294 55.4875)
(109.135 161.33 68.4559)
(121.33 283.645 39.0965)
(58.9041 100.687 16.1132)
(0.362523 3.24702 2.66457)
(0.00357077 0.0176465 0.0377855)
(500.704 -168.253 143.035)
(452.008 -185.532 202.616)
(512.805 -106.155 139.505)
(617.689 -130.221 253.645)
(440.398 -140.451 200.437)
(338.232 -28.8185 116.36)
(626.583 -63.0515 279.906)
(451.264 29.8272 157.843)
(305.32 -13.1735 96.1917)
(268.032 102.997 -29.3719)
(384.43 148.627 138.587)
(199.976 120.996 72.7027)
(282.006 362.662 -79.1883)
(232.604 602.065 184.987)
(494.371 -173.246 267.48)
(537.991 -158.145 216.02)
(492.112 -114.001 133.762)
(487.542 -204.957 173.753)
(509.534 -177.569 219.803)
(469.946 -137.444 218.793)
(498.51 -170.682 183.381)
(439.805 -150.218 276.389)
(465.469 -208.351 191.397)
(304.891 -54.1664 156.623)
(441.691 -225.116 250.922)
(369.308 -97.8452 185.889)
(477.684 -211.77 222.441)
(337.55 -105.206 244.524)
(185.854 7.28431 157.779)
(286.674 -22.7568 141.981)
(401.135 -201.006 264.984)
(415.166 -91.987 180.498)
(237.248 -44.9754 195.055)
(284.617 -8.66076 131.744)
(360.186 -137.016 250.633)
(172.176 34.0025 136.627)
(377.625 -54.3604 147.967)
(255.28 1.95069 94.8665)
(291.074 -13.5418 167.605)
(275.072 -2.22839 114.841)
(320.267 -63.9751 209.465)
(178.026 43.3373 123.247)
(195.468 48.4848 102.173)
(232.045 4.70007 80.0101)
(275.833 11.2408 137.529)
(283.104 -0.950486 85.9707)
(185.697 46.0549 109.778)
(212.667 7.19506 67.283)
(274.847 24.2322 125.85)
(215.858 61.9541 73.9951)
(267.772 17.8968 58.8333)
(202.002 110.03 -70.441)
(327.798 120.394 24.0522)
(201.168 19.6219 30.1994)
(293.193 44.1295 103.398)
(236.586 121.634 -17.0128)
(101.803 699.297 672.405)
(64.3533 503.052 580.83)
(151.395 786.86 476.629)
(244.667 468.972 63.6656)
(209.587 348.421 -74.1034)
(360.24 364.802 -5.47352)
(251.444 559.356 24.3182)
(232.151 297.823 -24.1932)
(208.955 514.382 23.9745)
(351.953 574.985 101.774)
(553.29 -19.3838 29.2059)
(98.744 79.9067 3.64904)
(632.501 -64.5923 138.785)
(119.221 119.111 18.9012)
(797.588 -146.508 544.058)
(266.11 335.354 153.224)
(680.62 30.1582 575.286)
(312.906 624.189 298.543)
(408.362 564.001 251.665)
(-31.5698 214.123 209.77)
(169.277 76.8494 3.14001)
(398.148 124.868 7.56809)
(578.793 -37.5389 76.0904)
(186.788 90.7568 18.0553)
(308.011 183.391 22.9501)
(199.654 213.124 12.4497)
(110.021 102.077 10.4604)
(216.615 230.354 24.5923)
(199.934 102.959 24.9348)
(460.036 141.948 67.121)
(693.458 -101.998 269.477)
(282.095 173.443 88.4457)
(715.357 197.009 265.971)
(269.517 276.224 64.9547)
(206.183 240.524 86.7616)
(449.232 416.494 191.34)
(347.09 228.579 147.705)
(968.485 286.159 473.32)
(781.886 -55.0545 662.958)
(589.182 556.061 434.994)
(649.017 404.758 324.551)
(813.001 713.321 515.454)
(373.284 685.577 352.535)
(349.364 306.462 193.686)
(402.562 39.5345 484.855)
(189.626 273.85 232.395)
(565.099 624.991 419.237)
(168.835 132.529 76.8138)
(302.817 140.953 169.557)
(333.039 545.716 292.176)
(16.5694 13.1042 8.64218)
(36.4501 33.0939 18.3287)
(81.653 204.642 98.8859)
(2.37094 2.23788 1.29528)
(51.3375 121.562 8.84696)
(110.038 126.128 5.63211)
(65.8564 67.672 6.43912)
(100.668 84.0134 4.22102)
(112.016 131.362 6.18986)
(69.5875 72.7787 6.15772)
(47.3597 114.978 9.01302)
(98.2995 238.584 77.2133)
(131.154 181.914 26.4627)
(94.7128 113.901 28.2017)
(136.027 145.169 31.3658)
(75.8969 182.578 42.7966)
(152.556 219.152 46.2629)
(113.69 150.721 52.2346)
(336.897 815.336 436.747)
(312.918 479.303 236.166)
(229.177 522.548 253.648)
(336.439 484.637 252.828)
(267.874 701.598 353.989)
(413.189 673.057 374.905)
(246.464 662.425 337.769)
(55.948 114.432 50.0747)
(367.228 648.53 323.493)
(93.5792 318.169 138.11)
(240.203 506.845 230.46)
(120.942 276.525 124.923)
(262.248 460.432 215.573)
(46.5874 163.293 68.5241)
(149.661 662.153 496.402)
(239.988 585.876 328.796)
(-99.5174 826.615 717.511)
(108.977 624.431 489.033)
(50.7705 254.917 193.799)
(201.708 254.545 144.496)
(0.88466 1.34761 0.501553)
(238.239 593.901 328.087)
(57.7255 89.301 50.4936)
(406.442 117.177 16.8426)
(474.41 57.8179 7.98852)
(212.332 112.121 4.40298)
(171.092 80.1689 6.97692)
(473.129 59.711 21.4445)
(214.244 116.631 8.92253)
(405.308 114.342 7.03288)
(416.576 117.602 32.5642)
(176.95 83.0215 13.8637)
(497.889 60.5575 55.4378)
(230.823 134.203 22.6194)
(484.131 60.3823 40.9517)
(220.938 121.475 18.0856)
(432.719 117.618 44.2473)
(55.5758 130.007 15.0872)
(104.186 89.7274 7.77553)
(120.648 155.476 14.3282)
(80.6832 93.0356 14.4253)
(115.658 139.266 11.3038)
(73.9318 79.0273 10.2455)
(61.9213 150.168 22.5697)
(487.555 133.215 81.9322)
(518.603 62.4047 68.1509)
(244.828 153.357 32.069)
(216.938 119.218 36.7424)
(455.722 122.21 57.4956)
(544.696 66.286 91.8015)
(266.895 177.755 49.5351)
(531.034 147.326 122.165)
(241.179 140.739 55.3636)
(621.134 75.7604 192.123)
(352.616 258.251 127.505)
(576.779 70.2636 129.881)
(300.64 210.73 78.178)
(591.485 167.004 186.643)
(137.741 337.194 132.981)
(163.442 183.745 50.9672)
(235.381 344.879 134.126)
(189.87 345.887 160.268)
(186.357 269.531 77.5239)
(145.775 218.952 92.3385)
(196.991 507.735 227.896)
(792.243 246.247 418.735)
(694.538 87.8857 292.66)
(428.831 330.054 209.181)
(436.888 317.469 241.706)
(677.668 197.554 284.284)
(800.469 114.559 442.812)
(540.832 447.268 332.978)
(885.982 316.101 537.518)
(533.379 438.654 358.329)
(945.666 270.604 680.436)
(715.59 692.264 509.319)
(897.849 174.258 600.244)
(660.421 594.668 467.327)
(909.063 388.752 562.12)
(316.281 759.292 405.875)
(374.894 625.592 336.976)
(463.491 790.419 428.931)
(160.986 517.259 249.972)
(482.149 804.297 455.201)
(228.894 663.622 339.405)
(218.236 533.566 265.412)
(393.482 -19.06 690.589)
(378.614 47.2375 615.994)
(662.788 -124.17 730.476)
(294.412 134.684 339.214)
(541.374 -154.649 904.344)
(246.776 163.093 413.489)
(528.68 -3.22113 572.764)
(644.149 350.984 1081.56)
(1036.66 178.404 986.67)
(782.87 183.84 1229.52)
(916.733 324.523 891.114)
(292.683 114.111 541.179)
(229.386 202.026 256.691)
(137.105 298.635 268.625)
(351.009 254.669 450.047)
(171.519 229.659 296.779)
(427.977 115.529 466.836)
(229.289 265.246 527.592)
(527.498 505.523 962.161)
(693.828 570.063 883.286)
(804.535 454.395 815.704)
(428.495 645.869 1040.65)
(736.177 462.242 417.466)
(918.555 369.215 653.887)
(632.461 690.361 445.162)
(487.345 627.004 360.402)
(837.899 437.309 504.433)
(834.33 450.25 575.04)
(529.11 622.254 354.596)
(655.555 467.738 376.322)
(417.931 600.023 321.954)
(683.856 567.375 530.735)
(312.002 389.915 222.331)
(753.105 515.639 519.112)
(431.902 530.915 291.494)
(560.116 446.474 343.155)
(21.0414 39.4992 17.433)
(157.5 361.839 168.208)
(73.0707 108.274 58.2042)
(5.49523 24.1558 10.0795)
(162.442 266.682 129.256)
(18.2615 68.5326 29.9355)
(6.38305 11.6328 5.32435)
(434.785 664.659 700.431)
(154.591 677.228 414.937)
(181.11 424.752 263.131)
(262.974 739.102 809.788)
(130.538 585.336 370.645)
(183.406 738.887 609.125)
(304.209 648.28 505.161)
(-0.387477 3.16702 2.98107)
(-0.00273172 0.0151332 0.0171877)
(-0.198159 1.06441 1.40329)
(41.7484 253.241 214.979)
(0.0377582 0.299077 0.253114)
(0.184482 1.09954 1.1887)
(2.67992e-05 0.00297864 0.00287324)
(390.746 392.826 252.045)
(262.202 439.264 238.714)
(499.276 575.143 460.456)
(151.865 181.816 108.374)
(124.362 195.897 124.165)
(327.662 495.178 325.485)
(33.5042 44.9884 26.6249)
(1.82763e-07 5.30851e-05 6.5022e-05)
(-82.1209 468.591 652.891)
(-0.000561996 0.0230505 0.0516295)
(474.236 -113.726 8.87766)
(507.573 -155.141 73.1941)
(530.088 -183.69 119.063)
(536.884 -245.364 315.819)
(500.379 -232.788 363.805)
(294.315 14.7427 281.957)
(233.506 159.239 264.075)
(131.907 235.21 147.05)
(224.574 84.2617 213.212)
(164.612 173.701 112.012)
(159.422 275.074 117.949)
(217.569 523.117 222.25)
(13.0055 347.785 278.699)
(129.421 293.192 167.461)
(-4.66765 580.829 529.978)
(111.142 592.016 456.773)
(477.96 -194.544 48.3626)
(410.468 -244.877 10.7844)
(467.11 -33.2621 9.38123)
(479.2 -117.795 23.9821)
(418.711 -241.009 33.9548)
(468.754 -43.8822 27.9098)
(476.121 -191.861 14.2451)
(488.577 -196.873 85.1753)
(489.957 -132.073 45.4507)
(460.041 -250.289 98.3425)
(492.931 -90.9294 80.0459)
(434.036 -244.846 62.6802)
(478.932 -62.1008 50.7207)
(501.509 -199.557 130.732)
(499.247 -200.27 255.351)
(483.67 -251.352 154.704)
(511.335 -130.154 125.092)
(552.899 -211.774 184.948)
(509.495 -206.089 192.239)
(495.462 -233.06 225.161)
(524.971 -174.203 183.863)
(461.666 -175.425 294.134)
(557.522 -234.584 255.791)
(419.025 -136.8 306.579)
(495.035 -235.379 288.594)
(473.322 -192.108 283.153)
(520.284 -212.484 240.57)
(396.427 -133.369 297.037)
(222.573 -8.35296 210.375)
(340.302 -68.5539 284.352)
(454.464 -227.949 325.558)
(447.236 -176.864 378.883)
(307.595 -74.4334 261.367)
(259.236 4.00532 235.376)
(394.787 -176.989 328.56)
(166.579 46.0465 165.092)
(376.489 -84.8472 347.648)
(157.928 98.36 148.737)
(247.407 -11.9655 226.19)
(198.134 64.1734 187.409)
(319.961 -94.144 289.055)
(138.831 74.2571 135.522)
(118.36 92.8973 106.198)
(135.28 113.61 123.453)
(203.364 37.059 171.601)
(182.231 115.35 157.889)
(126.111 85.6514 117.131)
(124.511 119.83 104.507)
(183.985 59.8488 141.059)
(121.362 108.379 86.8257)
(164.161 135.521 130.455)
(124.912 155.975 73.9912)
(224.875 138.605 76.9462)
(120.483 128.755 91.4105)
(191.554 84.6171 121.223)
(136.656 142.232 38.4798)
(105.844 211.449 197.714)
(146.852 187.384 182.682)
(228.02 182.081 344.991)
(181.861 192.889 188.821)
(145.361 203.03 237.959)
(122.2 194.33 157.472)
(154.594 223.026 238.936)
(75.6714 208.897 155.869)
(150.007 208.348 146.325)
(94.896 208.529 133.644)
(94.2737 263.238 172.098)
(103.96 195.885 130.772)
(113.329 239.905 176.292)
(59.4013 215.431 151.114)
(181.877 364.674 99.415)
(118.598 210.308 84.9517)
(271.79 314.041 70.062)
(187.564 418.877 200.022)
(137.476 230.687 35.3043)
(111.254 311.366 133.655)
(325.972 519.39 176.218)
(91.3021 230.222 144.603)
(84.5586 305.794 196.84)
(140.311 390.182 235.8)
(60.5512 238.314 169.9)
(95.8872 300.642 180.881)
(58.6715 300.913 210.514)
(81.9289 386.511 260.78)
(-97.2476 673.292 831.03)
(1.18529 9.2775 10.437)
(-1.61545 7.64622 10.3613)
(-9.32262 521.438 684.765)
(-3.61351 664.616 765.071)
(-39.5425 755.054 759.983)
(112.463 765.313 670.015)
(-98.702 439.749 12.2063)
(-0.0224232 0.10923 0.0014889)
(-90.3978 448.877 106.583)
(-0.0027472 0.0203894 0.00332354)
(-3.66685 64.1336 27.6057)
(2.52636e-05 0.00130783 0.000408436)
(-0.0101977 0.457783 0.138918)
(-2.67668e-06 6.69852e-05 1.95193e-05)
(49.6612 94.7392 46.0653)
(0.000258416 0.00142025 0.00037728)
(-8.32226e-09 8.65216e-07 1.59586e-07)
(1.40219e-06 1.03568e-05 4.26945e-06)
(36.3281 342.487 13.5172)
(273.396 604.592 56.0976)
(42.702 436.601 89.2068)
(294.413 632.079 102.527)
(-118.799 140.164 4.15862)
(-2.14895 3.70307 0.0544492)
(-97.4338 117.645 27.6676)
(-1.4101 2.46566 0.365515)
(50.2329 493.603 132.074)
(374.812 711.907 218.949)
(48.93 523.49 217.56)
(252.484 404.914 203.859)
(-80.654 95.2552 29.5179)
(-0.459259 0.828175 0.20458)
(32.8535 378.198 166.225)
(188.275 237.62 147.458)
(1.5932 15.7719 6.09643)
(6.51133 8.85415 4.40558)
(0.536648 5.32925 1.82361)
(0.392946 0.521912 0.228319)
(0.0176108 0.191132 0.0673836)
(0.0256275 0.0352144 0.0160364)
(74.4502 194.527 73.6759)
(0.0280479 0.11809 0.0103102)
(0.578341 3.21661 2.24368)
(0.00215785 0.0228329 0.0129524)
(314.135 697.505 64.6618)
(-3.54388 11.8408 0.17978)
(42.1321 95.0067 1.90907)
(-96.5475 459.585 86.9983)
(312.027 683.972 113.133)
(-2.13819 7.69275 1.08873)
(25.2905 56.5532 9.66443)
(271.759 566.467 167.247)
(-0.550886 2.48346 0.580428)
(6.24824 14.1566 3.86523)
(-18.6417 177.11 69.9004)
(36.066 60.5501 29.2899)
(-0.826625 4.85897 1.51402)
(0.665667 1.49965 0.512054)
(1.2407 2.27891 1.03238)
(-0.0433389 0.454113 0.156672)
(0.00332853 0.00701535 0.00224644)
(-0.0375146 1.36423 0.45838)
(0.0436954 0.0789761 0.0309793)
(-0.0022177 0.0277752 0.00832606)
(0.000823001 0.00226981 0.000693682)
(0.00397278 0.00660306 0.00267263)
(-5.44665e-05 0.00161708 0.000465446)
(0.000194264 0.000699891 0.000222467)
(5.99761e-05 0.0141222 0.00439482)
(0.00105904 0.00274208 0.000980449)
(-9.38961e-06 0.000140371 4.96154e-05)
(2.7014e-05 0.000150395 4.76891e-05)
(0.0996919 0.151053 0.0650229)
(0.0109541 0.0563339 0.0152808)
(0.00198897 0.00366976 0.00191202)
(0.0194641 0.0485072 0.027151)
(0.000523478 0.00250976 0.00116556)
(32.8302 201.068 21.1201)
(44.214 116.694 9.91314)
(42.9093 413.494 15.952)
(40.2211 360.954 32.6645)
(51.4835 124.738 18.1722)
(48.239 434.398 38.7391)
(26.7046 188.483 11.6147)
(38.4898 219.914 37.0956)
(41.0296 389.101 57.1766)
(68.0051 175.458 46.3876)
(62.4968 519.708 107.579)
(57.0619 139.816 29.9606)
(53.236 465.726 69.1006)
(49.3162 263.571 57.9241)
(-16.307 12.2682 1.47601)
(-29.7803 19.6833 0.770419)
(-85.766 92.3817 2.45261)
(-115.588 138.78 13.219)
(-27.6063 18.1169 2.5099)
(-80.2631 87.8906 8.67686)
(-17.805 13.2429 0.372991)
(-13.3178 10.3666 2.20649)
(-108.808 131.643 21.6198)
(-18.9143 11.4105 4.15728)
(-52.6146 62.4861 15.0946)
(-23.8351 15.1216 3.70597)
(-68.7031 77.7363 13.5376)
(-9.59049 7.806 2.27773)
(99.7833 450.871 149.931)
(87.0436 239.807 77.2102)
(78.9992 584.442 157.854)
(58.7239 546.893 180.914)
(70.8496 337.727 94.5727)
(107.573 336.996 120.494)
(99.6598 645.615 215.523)
(131.888 592.328 230.68)
(60.1719 569.566 216.202)
(126.042 582.373 261.13)
(117.175 641.082 274.505)
(120.853 462.786 182.616)
(120.186 682.679 265.24)
(179.754 716.322 326.302)
(-3.15667 2.75316 1.12841)
(-13.4341 7.73323 3.75499)
(-34.8848 43.8805 13.1191)
(-59.1634 68.8546 26.4476)
(-5.97706 5.06317 1.79903)
(-8.25946 4.57403 2.73831)
(-19.5489 25.9134 9.01271)
(174.649 635.807 320.746)
(124.83 631.346 302.77)
(82.6368 449.068 210.978)
(16.2627 178.481 82.0884)
(216.561 763.624 374.652)
(96.0273 542.894 266.419)
(39.418 185.067 93.5346)
(102.634 352.241 176.769)
(5.36644 53.6789 24.0018)
(24.9065 145.881 63.0334)
(3.47383 11.8979 4.78029)
(56.1403 342.988 159.232)
(11.479 46.0041 21.1454)
(41.2703 119.297 56.0733)
(5.10808 12.2977 4.63008)
(8.93353 51.6211 20.4477)
(1.20832 3.56456 1.26567)
(0.189587 1.92158 0.634083)
(14.0187 36.4855 14.8587)
(3.09311 19.2843 7.1455)
(0.434282 1.16758 0.399044)
(1.75706 3.92463 1.50026)
(0.0621422 0.651927 0.222024)
(0.301065 2.25235 0.821977)
(0.0390262 0.0953734 0.0372356)
(1.03266 7.05185 2.62405)
(0.144032 0.356309 0.126441)
(0.510148 1.08943 0.448518)
(3.27519 16.5663 8.04479)
(69.1472 312.552 132.771)
(6.44403 19.8406 4.25921)
(36.8573 85.1429 49.3015)
(8.41524 39.914 10.5629)
(39.5466 172.021 98.071)
(2.80316 7.8055 3.73588)
(0.213072 1.30828 0.540951)
(0.42723 1.61456 0.20129)
(0.0330324 0.230087 0.0207932)
(0.013271 0.0469886 0.0173659)
(0.549612 3.19988 0.462334)
(0.195415 0.628856 0.262219)
(0.0129623 0.0946564 0.0345043)
(24.7806 573.525 16.4405)
(-110.878 339.701 7.64513)
(-98.5343 449.141 36.1469)
(29.3479 584.769 49.5073)
(-106.894 330.417 25.6402)
(8.74152 491.455 39.8478)
(5.87924 498.777 11.9737)
(50.1002 599.268 156.492)
(-55.7818 189.792 47.9265)
(-76.2588 404.136 114.221)
(57.2273 556.943 174.113)
(-29.8787 113.647 35.0192)
(11.9839 184.83 60.5241)
(15.7303 305.606 80.6037)
(10.069 74.3676 34.787)
(-0.494857 5.62417 2.09528)
(-0.643953 17.4311 7.16204)
(2.63347 17.5592 7.49199)
(-0.103687 1.4774 0.547995)
(0.176237 1.44549 0.544855)
(0.572301 6.1763 2.44845)
(0.0946293 0.318068 0.102369)
(-0.00326528 0.0384322 0.00921725)
(-0.00288554 0.159634 0.0481573)
(0.0323405 0.101397 0.0329428)
(-0.00119536 0.013126 0.00513418)
(0.00188714 0.0087627 0.00355776)
(0.00693032 0.0264477 0.00668238)
(17.043 24.553 13.0419)
(3.42027 8.7163 3.40924)
(13.0224 23.1212 12.3724)
(1.35919 2.44408 1.1153)
(0.994283 2.10847 0.934719)
(0.267266 0.496299 0.230563)
(3.08339 5.05364 2.59597)
(0.000154634 0.000544773 0.000192105)
(1.60115e-06 4.92512e-05 8.64026e-06)
(3.80775e-06 3.36596e-05 9.39094e-06)
(6.64104e-05 0.000331843 9.78442e-05)
(2.54604e-05 9.4068e-05 3.52342e-05)
(1.88813e-06 1.50514e-05 3.44944e-06)
(-2.58384e-07 7.9603e-06 2.19975e-06)
(0.00234823 0.0278012 0.0222504)
(0.000144536 0.00107544 0.00067039)
(0.000126057 0.00116349 0.000948664)
(8.79195e-06 8.81701e-05 5.69325e-05)
(-98.258 454.943 62.1674)
(39.2371 601.862 124.39)
(-80.0803 256.916 49.8915)
(32.88 592.885 86.9644)
(-97.0962 303.923 41.4713)
(12.0947 460.577 66.1306)
(15.3139 401.854 81.6744)
(-48.2637 310.779 104.271)
(29.2171 234.289 102.396)
(-2.47659 18.7197 6.80398)
(49.7888 434.887 160.757)
(-10.5456 51.9314 18.1224)
(6.01843 78.4824 29.7813)
(1.93736 23.7473 9.3478)
(-0.148724 4.649 1.77116)
(0.262438 1.04948 0.375342)
(-0.00763653 0.113458 0.0376787)
(0.796666 4.09028 1.58309)
(-0.0278996 0.387274 0.132079)
(0.06008 0.333836 0.116422)
(0.0199007 0.0858748 0.0295947)
(0.00020154 0.0502357 0.0161088)
(0.00200663 0.00823101 0.00288399)
(-9.61324e-05 0.00115131 0.000390108)
(0.00958831 0.0309857 0.00993972)
(-0.000336126 0.00389993 0.00105169)
(0.000453478 0.00264611 0.000765405)
(-1.91472e-05 0.000893957 0.000288769)
(0.22843 0.72259 0.25392)
(0.00965055 0.0199539 0.00790067)
(0.0048641 0.0154293 0.00682783)
(0.108142 0.223356 0.0943707)
(0.073122 0.178243 0.0720879)
(0.0213144 0.0450305 0.0193819)
(0.00131209 0.00434176 0.00149533)
(0.245734 0.664555 0.0084156)
(-0.000224878 0.00569946 0.000182894)
(0.000885102 0.00309488 9.96703e-05)
(-0.0130956 0.0678198 0.00658287)
(0.140815 0.376674 0.0553044)
(-8.09343e-05 0.00439001 0.000751455)
(0.000641777 0.00241259 0.000415044)
(0.0319487 0.0826161 0.0193286)
(-6.03971e-06 0.00137095 0.000305282)
(0.00021777 0.000740289 0.000152176)
(-0.00013087 0.00373234 0.000986831)
(0.000654547 0.00210004 0.000515085)
(-2.38236e-06 0.00032062 0.000112837)
(6.33403e-05 0.000258698 7.82194e-05)
(0.000204883 0.000753856 0.000268202)
(-7.86715e-07 8.07152e-05 2.39353e-05)
(8.15685e-06 4.71006e-05 1.47732e-05)
(-1.75328e-06 0.00036837 0.000104072)
(5.34066e-05 0.000215524 5.86065e-05)
(-8.49884e-07 1.89636e-05 5.46409e-06)
(4.89387e-07 1.16513e-05 3.51363e-06)
(7.12988e-06 4.40638e-05 1.14467e-05)
(-2.45612e-07 2.44949e-06 7.57886e-07)
(1.17229e-07 2.41475e-06 5.78362e-07)
(-8.96587e-07 5.95604e-06 2.0679e-06)
(5.75649e-07 8.61501e-06 2.46289e-06)
(-6.95351e-08 2.8555e-07 6.10376e-08)
(-7.86483e-08 6.22486e-07 1.73647e-07)
(1.08036e-05 0.000140366 1.07154e-05)
(2.56171e-06 3.30813e-05 6.88778e-06)
(3.51568e-08 1.69821e-06 6.58873e-07)
(-4.73619e-09 6.0744e-08 2.79086e-08)
(4.61278e-05 0.000338304 0.000333629)
(0.0782517 0.541054 0.44835)
(0.0446178 0.241072 0.0752534)
(7.52057 36.8704 12.973)
(0.000324005 0.00188683 0.00150567)
(0.231688 2.01003 0.921801)
(14.0557 57.5888 38.9622)
(0.0261366 0.0822067 0.0562766)
(0.002235 0.0139951 0.00644774)
(0.0326791 0.305362 0.224776)
(0.000485366 0.0036225 0.00246107)
(0.731666 5.48857 4.99011)
(31.3551 537.927 647.566)
(60.1267 677.613 703.68)
(170.24 793.011 545.422)
(270.963 324.881 33.1836)
(20.7198 25.7352 10.5662)
(0.0317172 0.0388939 0.01949)
(0.00107912 0.00152828 0.000607351)
(1.13034e-05 3.83822e-05 8.26623e-06)
(0.000114819 0.000569595 0.000403798)
(0.00490852 0.0198794 0.00671075)
(0.000481002 0.00120994 0.000563253)
(8.37277 7.44501 0.152713)
(15.7939 27.4101 0.472985)
(0.00571154 0.0074957 0.000842834)
(218.102 258.204 51.011)
(4.48703 3.99125 0.909811)
(8.69713 15.6419 2.64874)
(0.00241288 0.00302423 0.000772332)
(0.837304 0.746436 0.273403)
(1.81332 3.49348 0.95095)
(0.00165657 0.00202034 0.000421941)
(5.23921 6.74898 2.97279)
(0.0620596 0.055787 0.0252539)
(0.152886 0.318196 0.111021)
(0.00130782 0.0017093 0.00065266)
(0.00284267 0.00268867 0.00131129)
(0.00127531 0.00242064 0.000927456)
(0.000231442 0.000305796 0.00012233)
(0.00768557 0.01126 0.00453373)
(0.000684611 0.000777088 0.000325947)
(0.000318679 0.000598836 0.000214062)
(4.00653e-05 6.12755e-05 2.23853e-05)
(0.000141167 0.00017284 6.04376e-05)
(7.46637e-05 0.000134949 4.00585e-05)
(8.84407e-06 1.54719e-05 3.72918e-06)
(0.00026044 0.000459837 0.000153019)
(3.24017e-05 5.43799e-05 1.558e-05)
(1.86308e-05 3.62028e-05 1.17213e-05)
(2.18596e-06 7.08873e-06 4.11404e-07)
(6.43024e-06 4.77459e-05 2.79439e-05)
(0.00213803 0.00783928 0.00529459)
(0.000673334 0.00326103 0.00140009)
(0.000111456 0.000492074 0.000302955)
(6.13756e-05 0.000231463 9.27605e-05)
(6.25842e-05 0.000422597 0.00021694)
(1.97205e-06 2.942e-05 1.27028e-05)
(4.17173e-05 9.03245e-05 1.86357e-05)
(2.01894e-05 4.07208e-05 7.64895e-06)
(1.28384e-05 2.9676e-05 9.57795e-06)
(1.19984e-06 3.01555e-06 1.11332e-06)
(-1.51814e-09 1.83005e-08 2.66203e-09)
(3.28076e-07 6.24482e-06 3.60395e-07)
(4.64632e-09 1.36912e-07 6.71077e-09)
(3.84371e-08 1.00297e-06 2.35997e-07)
(4.6171e-10 2.59528e-08 6.31683e-09)
(3.12942e-12 4.81671e-08 1.99643e-08)
(-1.29658e-11 1.22829e-09 5.18876e-10)
(-1.36018e-10 1.73242e-09 8.9554e-10)
(-3.49132e-12 4.52311e-11 2.3926e-11)
(-4.74824e-11 3.9263e-10 5.18328e-11)
(-1.14843e-12 8.19966e-12 1.12057e-12)
(5.61154e-09 2.59778e-07 6.26523e-08)
(-3.06143e-10 6.2282e-09 1.03063e-09)
(-1.33421e-11 1.45858e-10 1.84779e-11)
(-3.64556e-13 3.22435e-12 3.41769e-13)
(0.00155685 0.00156429 0.000378298)
(0.000492846 0.000474224 0.000153564)
(3.64467e-05 3.94954e-05 1.46191e-05)
(8.38546e-06 1.79388e-05 2.09369e-06)
(2.57309e-06 1.97765e-05 1.42222e-05)
(5.7081e-08 8.04114e-07 3.69926e-07)
(8.46135e-10 2.8489e-08 8.75357e-09)
(8.0045e-12 9.03173e-10 2.01612e-10)
(-5.6275e-14 2.59412e-11 4.60186e-12)
(-3.78956e-15 6.61468e-13 8.6017e-14)
(145.089 192.013 304.789)
(17.6695 79.7631 161.133)
(57.0922 105.771 180.938)
(26.1895 80.7416 170.496)
(81.9013 111.139 198.47)
(63.5016 163.4 188.522)
(48.8112 171.745 183.524)
(94.536 166.435 215.149)
(34.5818 169.388 166.574)
(1.47787e-07 1.15441e-06 1.80723e-07)
(3.12424e-07 8.998e-07 5.34732e-08)
(9.17e-09 3.09853e-08 1.52802e-09)
(7.13585e-08 2.39729e-07 6.24302e-08)
(2.0262e-09 8.50366e-09 2.16512e-09)
(5.61428e-09 3.25486e-08 8.66357e-09)
(1.11335e-10 8.34675e-10 2.50061e-10)
(2.5931e-10 2.3855e-09 7.25971e-10)
(4.23389e-12 6.04159e-11 1.91873e-11)
(1.30463e-11 7.41633e-10 8.1729e-11)
(3.4864e-14 1.69019e-11 1.68637e-12)
(8.19403e-06 2.15785e-05 1.76906e-06)
(1.67861e-06 5.24212e-06 1.21526e-06)
(3.38688e-07 1.40898e-06 3.44638e-07)
(1.72597e-08 8.75757e-08 2.73797e-08)
(1.59666e-09 2.99889e-08 3.75475e-09)
(-130.622 158.973 351.005)
(-0.00198032 0.00272267 0.00137876)
(-0.000607903 0.000845947 0.0012662)
(-0.136729 0.18548 0.270975)
(-34.9446 48.1413 49.0292)
(-0.00233531 0.00353922 0.00449784)
(-4.8513 7.02431 5.23345)
(-0.0151958 0.0270072 0.0214458)
(-0.00136973 0.00223766 0.00223835)
(-0.00012748 0.000222923 0.000202614)
(-8.79689e-06 1.49252e-05 1.83221e-05)
(-618.003 209.056 46.0152)
(-642.214 212.526 77.4872)
(-958.14 371.814 248.291)
(-1285.48 472.303 515.68)
(-1415.5 555.06 763.481)
(-559.023 158.569 346.415)
(-3.11922 1.64781 1.38065)
(-0.147509 0.083924 0.0603411)
(-0.00556011 0.00445262 0.002705)
(-0.00158285 0.00173289 0.0010784)
(-406.554 517.526 222.98)
(-449.249 653.827 467.931)
(-270.398 349.579 204.194)
(-338.605 445.241 149.598)
(-444.029 607.103 196.125)
(-401.56 418.933 182.76)
(-513.081 585.649 245.153)
(-456.416 559.919 151.673)
(-369.217 418.28 73.6788)
(254.571 -318.971 269.119)
(261.124 -306.538 436.606)
(252.038 -221.172 201.38)
(337.15 -447.354 572.099)
(245.605 -55.4777 523.791)
(373.932 -533.072 813.557)
(88.8039 -184.489 255.987)
(92.9396 -218.474 207.813)
(245.059 -137.6 189.725)
(273.214 -291.618 279.439)
(81.6308 -131.736 196.067)
(100.606 -291.648 287.448)
(265.014 -187.774 248.223)
(93.9418 -74.6025 208.01)
(243.234 -59.2338 157.606)
(84.5893 -56.4996 163.604)
(265.611 -76.6508 200.439)
(100.886 -248.315 360.169)
(303.019 -365.421 399.285)
(122.485 -456.013 584.052)
(334.158 -332.888 517.139)
(111.127 -368.465 409.147)
(296.146 -248.548 350.999)
(116.008 -338.009 529.444)
(108.519 -97.1579 293.168)
(342.233 -127.525 434.054)
(299.286 -98.2891 285.138)
(127.951 -127.797 444.263)
(153.614 -567.909 1230.86)
(135.438 -549.676 828.296)
(379.628 -435.283 781.965)
(405.324 -572.303 1098.74)
(132.959 -449.194 802.165)
(150.429 -601.152 1128.92)
(435.771 -543.261 1195.79)
(185.416 -202.664 1170.07)
(399.033 -162.488 690.072)
(153.203 -164.345 710.707)
(471.828 -199.048 1119.65)
(337.017 -89.4872 20.2309)
(384.565 -218.149 186.452)
(560.579 -490.749 767.247)
(365.394 22.7106 1017.45)
(-25.3655 600.897 445.869)
(525.36 -105.229 13.4833)
(363.602 -159.262 138.575)
(555.175 -133.52 89.2929)
(585.188 -160.027 128.835)
(509.56 -420.692 540.609)
(710.906 -272.463 383.199)
(723.646 -295.882 512.549)
(482.675 -217.707 1161.54)
(524.016 -91.5036 604.312)
(39.491 381.629 384.975)
(436.634 -57.4292 53.3437)
(430.244 -117.909 19.1482)
(340.475 -43.9893 20.6051)
(336.232 -85.0585 56.1075)
(432.187 -112.105 52.3241)
(340.556 -38.7952 58.8667)
(435.486 -63.3695 18.6091)
(518.899 -176.062 221.581)
(486.164 -222.108 177.316)
(379.351 -134.804 174.417)
(416.231 -280.785 260.664)
(482.581 -137.056 168.843)
(525.719 -275.549 247.478)
(408.402 -180.561 229.804)
(772.161 -436.429 992.098)
(687.739 -439.972 711.358)
(569.601 -401.859 730.453)
(590.073 -511.554 1016.36)
(701.115 -364.648 672.324)
(701.278 -442.544 911.933)
(642.052 -492.418 1105.25)
(313.48 -52.9194 892.71)
(401.505 22.3177 820.385)
(401.67 -246.778 1468.99)
(218.872 218.362 719.889)
(489.92 -215.075 1181.64)
(244.902 174.992 557.764)
(215.174 -45.6149 1129.24)
(-84.0572 870.854 767.725)
(-32.8643 317.567 248.055)
(500.194 -48.2979 46.571)
(493.105 -114.308 15.9659)
(534.295 -54.0668 12.4437)
(527.639 -100.062 34.0181)
(495.908 -108.001 42.0106)
(537.913 -49.063 33.2376)
(497.805 -54.898 17.0177)
(427.341 -27.58 48.6537)
(334.019 -28.3413 18.2871)
(332.152 -22.976 51.147)
(427.463 -31.2543 17.0001)
(492.271 -17.0649 36.4849)
(556.33 -31.3251 10.4219)
(559.911 -29.0158 28.4698)
(491.207 -19.9597 12.8831)
(445.808 -70.8525 97.155)
(346.773 -109.271 99.9126)
(460.239 -173.77 129.861)
(362.178 -92.7576 141.022)
(442.732 -131.849 93.3874)
(348.868 -55.8885 104.995)
(460.785 -101.692 133.689)
(510.23 -58.4605 84.0787)
(537.96 -111.735 62.756)
(522.172 -153.574 107.605)
(565.235 -74.4834 87.1288)
(505.74 -123.443 76.3487)
(548.715 -57.378 62.7541)
(525.987 -80.9581 115.348)
(438.844 -31.677 88.4043)
(357.038 -40.7012 122.544)
(342.638 -27.433 92.2983)
(454.896 -42.9436 119.676)
(504.76 -20.8135 68.6654)
(591.783 -40.5041 74.9674)
(572.953 -33.3313 55.1404)
(521.367 -30.9449 93.3227)
(590.676 -134.184 193.574)
(549.668 -187.624 151.025)
(593.627 -94.9274 114.796)
(627.563 -191.783 188.313)
(551.483 -105.973 147.707)
(591.149 -225.78 215.634)
(634.303 -118.842 155.973)
(511.279 -72.0358 177.568)
(373.152 -56.4017 142.222)
(475.776 -56.7425 140.038)
(403.402 -73.0637 183.682)
(583.681 -56.5006 142.729)
(621.32 -47.6646 90.7278)
(546.09 -43.7442 110.072)
(661.853 -54.4709 121.084)
(570.2 -223.833 311.002)
(459.756 -348.934 375.495)
(634.656 -389.979 506.947)
(505.277 -312.4 484.13)
(577.676 -333.448 354.369)
(452.01 -236.794 327.506)
(630.884 -287.689 452.553)
(640.992 -170.665 266.705)
(674.618 -231.67 272.894)
(694.592 -312.858 445.224)
(737.518 -192.235 316.233)
(642.866 -269.344 311.801)
(683.237 -149.731 219.896)
(696.877 -221.293 380.607)
(561.335 -90.3718 251.201)
(504.534 -119.856 406.553)
(448.402 -93.4501 265.929)
(620.839 -113.549 375.448)
(631.924 -70.8191 203.171)
(767.73 -75.5693 254.955)
(710.21 -63.1756 172.152)
(686.909 -88.4144 304.515)
(812.947 -339.973 804.092)
(730.719 -344.66 612.319)
(801.21 -245.698 461.378)
(689.9 -281.942 612.264)
(758.504 -285.486 556.702)
(713.882 -333.156 750.763)
(867.166 -285.62 659.666)
(779.283 -167.388 901.925)
(576.826 -151.236 641.257)
(693.563 -140.885 579.092)
(664.434 -183.157 1022.37)
(842.502 -126.087 730.38)
(849.676 -90.4591 388.887)
(755.899 -108.977 469.817)
(962.298 -101.008 596.805)
(760.387 -444.397 1252.32)
(556.521 -407.963 1145.29)
(546.813 -175.454 983.101)
(558.663 -416.714 1572.47)
(644.53 -341.821 996.968)
(654.381 -519.873 1466.56)
(650.137 -351.786 1305.12)
(786.307 -338.302 985.578)
(620.204 -207.207 642.28)
(523.745 -111.113 764.552)
(779.331 -224.423 817.202)
(637.298 -247.948 797.886)
(857.626 -282.621 797.632)
(681.993 -267.08 1012.77)
(841.097 -150.121 1322.75)
(683.386 -37.6689 1921.66)
(733.563 -171.324 1549.8)
(795.106 -33.8496 1585.01)
(910.731 -96.7228 1054.77)
(1100.35 33.7735 994.112)
(1069.47 -70.1034 844.239)
(889.663 17.0252 1246.25)
(458.809 356.168 1363.27)
(510.686 184.894 1945.01)
(646.99 158.735 1572.83)
(271.501 415.84 1695.06)
(188.538 101.189 662.506)
(102.386 311.139 476.433)
(89.6476 324.446 319.025)
(1.46649 322.904 723.848)
(140.082 253.61 377.04)
(72.3838 132.842 804.192)
(120.212 271.057 622.116)
(302.955 537.044 1163.57)
(-46.4894 800.35 1407.24)
(69.9847 612.126 1390.09)
(195.388 706.158 1221.87)
(-62.3585 725.198 484.339)
(-72.7288 897.624 1034.11)
(-59.375 813.222 525.817)
(47.8053 751.258 481.63)
(100.706 811.839 928.821)
(30.8795 682.358 444.679)
(49.5274 810.727 696.088)
(91.9461 90.5131 8.34282)
(124.483 45.4111 34.1404)
(142.714 24.83 92.757)
(138.865 71.4527 157.174)
(133.295 140.154 200.467)
(328.431 -144.544 18.2661)
(311.112 -189.578 71.0926)
(361.731 -318.763 250.071)
(373.499 -292.605 418.352)
(339.878 -46.0382 504.126)
(392.213 57.6594 621.548)
(267.101 193.512 466.671)
(67.4887 281.156 222.343)