/*--------------------------------*- C++ -*----------------------------------*\
  =========                 |
  \\      /  F ield         | OpenFOAM: The Open Source CFD Toolbox
   \\    /   O peration     | Website:  https://openfoam.org
    \\  /    A nd           | Version:  9
     \\/     M anipulation  |
\*---------------------------------------------------------------------------*/
FoamFile
{
    format      ascii;
    class       volVectorField;
    location    "0.00155";
    object      U;
}
// * * * * * * * * * * * * * * * * * * * * * * * * * * * * * * * * * * * * * //

dimensions      [0 1 -1 0 0 0 0];

internalField   nonuniform List<vector> 
12603
(
(0 0 5.04686e-17)
(6.49929e-17 0 3.02659e-15)
(-2.38e-15 0 2.82446e-15)
(-2.13687e-13 1.12913e-14 9.32562e-14)
(-7.95544e-12 7.15904e-13 4.08563e-12)
(-2.47149e-10 2.81227e-11 1.41608e-10)
(-6.88875e-09 9.78785e-10 4.26229e-09)
(0 0 -3.12629e-20)
(-6.3776e-19 0 -4.29747e-19)
(0 0 -1.3675e-18)
(-3.26039e-15 0 1.78494e-15)
(-2.77592e-13 2.21187e-14 1.76419e-13)
(-9.04131e-12 1.1214e-12 6.51715e-12)
(-2.45545e-10 3.70068e-11 1.98804e-10)
(0 0 0)
(0 0 0)
(0 0 0)
(0 0 0)
(-4.48696e-15 0 3.11024e-15)
(-2.62388e-13 2.79964e-14 2.2263e-13)
(-7.41887e-12 1.13501e-12 7.14251e-12)
(0 0 0)
(0 0 0)
(0 0 0)
(0 0 0)
(0 0 0)
(-2.66641e-15 0 3.51662e-15)
(-1.83618e-13 2.32014e-14 2.05819e-13)
(0 0 0)
(0 0 0)
(0 0 0)
(0 0 0)
(0 0 0)
(0 0 0)
(-7.828e-16 0 2.39748e-15)
(-5.98447e-09 1.03479e-09 5.44755e-09)
(-1.71074e-10 3.06329e-11 1.89615e-10)
(-4.43199e-12 7.91786e-13 5.69098e-12)
(-9.32488e-14 1.06726e-14 1.38739e-13)
(-1.93557e-07 3.05403e-08 1.27948e-07)
(-5.58303e-06 9.36246e-07 4.59668e-06)
(-1.2367e-07 2.44867e-08 1.46304e-07)
(-3.09713e-09 6.635e-10 4.42207e-09)
(-7.78302e-11 1.70208e-11 1.26793e-10)
(-1.79207e-12 4.01539e-13 3.17972e-12)
(-0.00762472 0.00070128 0.0083251)
(-1.90869e-06 4.10035e-07 2.85959e-06)
(-3.90961e-08 1.00958e-08 7.58577e-08)
(-9.53139e-10 2.58703e-10 2.08979e-09)
(-2.21998e-11 6.14476e-12 5.24692e-11)
(-6.24814e-09 -7.55499e-11 2.41078e-10)
(-2.47508e-07 -4.72891e-09 1.35412e-08)
(-3.27452e-05 1.41616e-07 1.43359e-06)
(-0.00629043 0.000208272 0.000603511)
(-1.1564e-09 -2.29678e-11 2.43275e-10)
(-4.14038e-08 -8.30271e-10 9.38985e-09)
(-1.61108e-06 -2.06405e-08 3.69775e-07)
(-8.68174e-05 6.32734e-07 2.21006e-05)
(-2.15286 0.0828833 0.637993)
(-2.98013e-10 -5.25622e-12 4.3592e-11)
(-1.17456e-08 -1.68392e-10 1.66282e-09)
(-4.41077e-07 -4.03395e-09 6.86231e-08)
(-1.28074e-05 6.7066e-08 2.70619e-06)
(-0.00111792 3.35252e-05 0.000267578)
(0 0 0)
(6.80867e-32 0 0)
(-4.18334e-30 0 0)
(-5.77019e-26 0 0)
(-3.1143e-23 0 0)
(-1.03864e-21 0 0)
(-1.20302e-19 0 0)
(-8.64209e-18 0 0)
(-5.2223e-16 -4.64028e-16 0)
(-2.08098e-14 -6.62729e-14 9.56782e-16)
(0 0 0)
(3.86045e-30 0 0)
(-9.55212e-28 0 0)
(-1.25436e-23 0 0)
(-4.9062e-21 0 0)
(-1.95617e-19 0 0)
(-1.65987e-17 0 0)
(-1.2074e-15 -2.30965e-15 0)
(-6.9728e-14 -1.49025e-13 3.01618e-15)
(-1.29755e-12 -3.38539e-12 1.17097e-13)
(0 0 0)
(2.31098e-28 0 0)
(-2.10455e-25 0 0)
(-2.48126e-21 0 0)
(-7.23782e-19 0 0)
(-4.3175e-17 0 0)
(-3.07556e-15 -3.69212e-15 7.7338e-17)
(-1.55668e-13 -2.26498e-13 9.25846e-15)
(-3.70367e-12 -6.97578e-12 2.64076e-13)
(-6.48846e-11 -1.54142e-10 6.20132e-12)
(0 0 0)
(5.77814e-27 0 0)
(-4.38379e-23 0 0)
(-4.40077e-19 0 0)
(-4.43749e-17 0 1.31162e-14)
(-4.20434e-15 -2.61551e-15 -1.88614e-14)
(-2.30498e-13 -2.51577e-13 3.29771e-14)
(-7.33333e-12 -9.66498e-12 4.3665e-13)
(-1.71191e-10 -2.94381e-10 1.31823e-11)
(-3.17306e-09 -6.29332e-09 3.20874e-10)
(0 0 0)
(-8.49159e-25 0 0)
(-8.44937e-21 0 0)
(-2.9799e-17 0 -1.31162e-14)
(-3.11643e-15 -1.07748e-15 0)
(-2.49561e-13 -1.93987e-13 -2.06191e-14)
(-9.78513e-12 -9.0088e-12 4.50339e-13)
(-3.10752e-10 -3.52321e-10 1.84597e-11)
(-7.12406e-09 -1.05784e-08 6.25751e-10)
(-1.3024e-07 -1.96097e-07 1.48675e-08)
(0 0 0)
(-3.30506e-22 0 0)
(-1.47769e-18 0 0)
(-2.1056e-15 0 1.55358e-14)
(-1.88357e-13 -1.05524e-13 3.14906e-14)
(-8.73553e-12 -5.46295e-12 3.38199e-13)
(-3.48138e-10 -2.54226e-10 1.67901e-11)
(-1.10754e-08 -1.01145e-08 7.42947e-10)
(-2.35369e-07 -2.93619e-07 2.4873e-08)
(-1.83879e-06 -2.96148e-06 4.9028e-07)
(0 0 0)
(-9.40492e-20 0 0)
(-2.33063e-16 0 -9.28056e-16)
(-9.96559e-14 -3.54362e-14 -2.19178e-14)
(-5.05385e-12 -2.03736e-12 1.7053e-13)
(-2.32427e-10 -1.01817e-10 9.40457e-12)
(-9.26244e-09 -4.77717e-09 4.94465e-10)
(-2.83741e-07 -1.8589e-07 2.23129e-08)
(-0.000459662 -0.000396618 1.328e-05)
(-0.000499114 -0.000745373 0.000202899)
(0 0 0)
(-2.35828e-17 0 0)
(-3.23929e-14 -5.25898e-15 -2.98304e-15)
(-1.77542e-12 -4.8228e-13 2.37814e-14)
(-8.53339e-11 -2.42571e-11 3.06271e-12)
(-3.7907e-09 -1.26808e-09 1.7057e-10)
(-1.36303e-07 -6.50494e-08 8.96216e-09)
(-7.44742e-05 -4.41271e-05 3.15671e-06)
(-54.6099 -41.4909 1.90386)
(0 0 0)
(5.09618e-32 0 0)
(-1.38318e-31 0 0)
(-4.47774e-28 0 0)
(-2.37313e-25 0 0)
(-7.01515e-23 0 0)
(-1.27173e-20 0 0)
(-1.3648e-18 0 0)
(-7.52664e-17 0 0)
(-1.7135e-15 -1.11046e-14 1.11395e-15)
(0 0 0)
(2.95654e-30 0 0)
(-3.14447e-29 0 0)
(-8.78375e-26 0 0)
(-4.72025e-23 0 0)
(-1.26787e-20 0 0)
(-2.15415e-18 0 0)
(-2.22167e-16 0 0)
(-1.19235e-14 -2.98564e-14 2.93884e-15)
(-2.66727e-13 -6.99138e-13 1.34693e-13)
(0 0 0)
(1.5394e-28 0 0)
(-7.32766e-27 0 0)
(-1.77903e-23 0 0)
(-9.14504e-21 0 0)
(-2.18797e-18 0 0)
(-3.36939e-16 0 0)
(-3.2279e-14 -4.53831e-14 6.26438e-15)
(-7.64631e-13 -1.39531e-12 3.03242e-13)
(-1.1992e-11 -2.90121e-11 6.54679e-12)
(0 0 0)
(7.74898e-27 0 0)
(-1.74726e-24 0 0)
(-3.68201e-21 0 0)
(-1.65806e-18 0 0)
(-3.48482e-16 0 0)
(-4.6763e-14 -5.0471e-14 8.97121e-15)
(-1.45883e-12 -1.89454e-12 4.62481e-13)
(-3.2045e-11 -5.38354e-11 1.33708e-11)
(-5.01907e-10 -1.16693e-09 2.76961e-10)
(0 0 0)
(3.34266e-25 0 0)
(-4.30289e-22 0 0)
(-7.37001e-19 0 0)
(-2.7038e-16 0 0)
(-4.95166e-14 -3.96969e-14 6.34171e-15)
(-1.91033e-12 -1.7587e-12 5.01073e-13)
(-5.64093e-11 -6.31472e-11 1.82813e-11)
(-1.3434e-09 -2.02283e-09 5.32692e-10)
(-2.43957e-08 -5.44126e-08 1.11222e-08)
(0 0 0)
(-1.02879e-25 0 0)
(-1.05333e-19 0 0)
(-1.32388e-16 0 0)
(-3.86727e-14 -2.07812e-14 4.09891e-15)
(-1.71351e-12 -1.1103e-12 3.86071e-13)
(-6.23723e-11 -4.61953e-11 1.66929e-11)
(-2.09742e-09 -1.86787e-09 6.24017e-10)
(-6.51477e-08 -7.62355e-08 2.05364e-08)
(-8.52741e-07 -1.36291e-06 3.62832e-07)
(0 0 0)
(-2.58858e-21 0 0)
(-2.39467e-17 0 0)
(-2.02226e-14 -4.93162e-15 1.46942e-15)
(-1.03669e-12 -4.51203e-13 2.05719e-13)
(-4.28037e-11 -2.01436e-11 9.8476e-12)
(-1.71104e-09 -8.72471e-10 4.27408e-10)
(-7.10345e-08 -4.42935e-08 1.75823e-08)
(-1.2178e-05 -1.18734e-05 3.68201e-06)
(-0.000153846 -0.000216388 6.18325e-05)
(0 0 0)
(-6.07917e-19 0 0)
(-4.99128e-15 -1.54676e-16 1.44055e-16)
(-3.97078e-13 -1.14924e-13 6.29831e-14)
(-1.7374e-11 -5.5374e-12 3.56745e-12)
(-7.00609e-10 -2.35085e-10 1.58582e-10)
(-3.18884e-08 -1.11637e-08 6.69725e-09)
(-3.58236e-06 -1.40599e-06 7.55796e-07)
(-0.0623318 -0.0374158 0.0240343)
(-505.082 -463.457 292.229)
(0 0 0)
(3.78521e-32 0 0)
(-5.79565e-33 0 0)
(-1.68062e-29 0 0)
(-1.46965e-26 0 0)
(-4.76722e-24 0 0)
(-9.08875e-22 0 0)
(-9.70832e-20 0 0)
(-7.3361e-18 0 0)
(-1.7473e-18 -2.55176e-16 1.21757e-17)
(0 0 0)
(2.1594e-30 0 0)
(-1.07812e-30 0 0)
(-3.52624e-27 0 0)
(-2.64414e-24 0 0)
(-7.82569e-22 0 0)
(-1.35347e-19 0 0)
(-1.3399e-17 0 0)
(-9.55884e-16 -1.08062e-15 0)
(-3.8779e-14 -1.07681e-13 1.18351e-14)
(0 0 0)
(1.16991e-28 0 0)
(-2.25097e-28 0 0)
(-7.10877e-25 0 0)
(-4.55627e-22 0 0)
(-1.29831e-19 0 0)
(-2.03744e-17 0 0)
(-1.86613e-15 -2.93147e-15 0)
(-1.13708e-13 -1.94577e-13 2.90017e-14)
(-2.01099e-12 -4.49159e-12 7.61528e-13)
(0 0 0)
(5.71598e-27 0 0)
(-5.24457e-26 0 0)
(-1.34886e-22 0 0)
(-7.77845e-20 0 0)
(-2.33532e-17 0 0)
(-3.44699e-15 -4.16553e-15 0)
(-2.00619e-13 -2.53431e-13 4.60161e-14)
(-4.81706e-12 -7.40033e-12 1.46231e-12)
(-8.13417e-11 -1.68244e-10 3.1539e-11)
(0 0 0)
(2.47095e-25 0 0)
(-1.25513e-23 0 0)
(-2.36987e-20 0 0)
(-1.41777e-17 0 0)
(-4.58287e-15 -2.31469e-15 0)
(-2.55531e-13 -2.35921e-13 5.04244e-14)
(-7.62239e-12 -8.2518e-12 1.93097e-12)
(-1.81538e-10 -2.45438e-10 5.64181e-11)
(-3.25566e-09 -6.13707e-09 1.36053e-09)
(0 0 0)
(1.00154e-23 0 0)
(-2.88471e-21 0 0)
(-4.14037e-18 0 0)
(-2.64831e-15 -7.72323e-16 0)
(-2.28549e-13 -1.54618e-13 3.85917e-14)
(-8.14941e-12 -6.22068e-12 1.76153e-12)
(-2.48651e-10 -2.22407e-10 6.3621e-11)
(-6.6951e-09 -7.57865e-09 2.2273e-09)
(-1.41559e-07 -2.15915e-07 7.0282e-08)
(0 0 0)
(3.48525e-22 0 0)
(-6.04595e-19 0 0)
(-9.80093e-16 0 0)
(-1.47417e-13 -6.81066e-14 2.05719e-14)
(-5.90568e-12 -3.14536e-12 1.0934e-12)
(-2.11207e-10 -1.23902e-10 4.48592e-11)
(-7.31555e-09 -4.89748e-09 1.91379e-09)
(-2.29924e-07 -2.00648e-07 8.94044e-08)
(-4.68531e-06 -5.41436e-06 2.22054e-06)
(0 0 0)
(-4.24066e-21 0 0)
(-1.09611e-16 0 2.18984e-18)
(-6.36232e-14 -1.74784e-14 5.17826e-15)
(-2.83915e-12 -1.04035e-12 4.44321e-13)
(-1.10297e-10 -4.35467e-11 1.91583e-11)
(-4.17214e-09 -1.75545e-09 8.35953e-10)
(-1.66635e-07 -7.75157e-08 4.65271e-08)
(-4.38872e-06 -2.67694e-06 1.76892e-06)
(-0.000468159 -0.000327263 0.000171669)
(0 0 0)
(2.48151e-32 0 0)
(-6.83705e-35 0 0)
(-3.08401e-31 0 0)
(-4.93947e-28 0 0)
(-2.20911e-25 0 0)
(-5.33836e-23 0 0)
(-6.53584e-21 0 0)
(-4.8663e-19 0 0)
(-1.10235e-19 -6.54764e-18 0)
(0 0 0)
(1.32637e-30 0 0)
(-1.52456e-32 0 0)
(-7.08433e-29 0 0)
(-9.62699e-26 0 0)
(-3.91586e-23 0 0)
(-8.99371e-21 0 0)
(-9.98053e-19 0 0)
(-7.09853e-17 0 0)
(-2.02679e-15 -9.65013e-15 9.8227e-16)
(0 0 0)
(6.64265e-29 0 0)
(-3.28687e-30 0 0)
(-1.57127e-26 0 0)
(-1.86557e-23 0 0)
(-6.84459e-21 0 0)
(-1.47164e-18 0 0)
(-1.50377e-16 0 0)
(-1.06358e-14 -2.00058e-14 2.2428e-15)
(-2.63515e-13 -5.7951e-13 1.07596e-13)
(0 0 0)
(3.14555e-27 0 0)
(-6.91253e-28 0 0)
(-3.44742e-24 0 0)
(-3.61461e-21 0 0)
(-1.15282e-18 0 0)
(-2.22488e-16 0 0)
(-2.08606e-14 -2.98425e-14 3.63489e-15)
(-6.16807e-13 -9.40499e-13 1.99764e-13)
(-1.09785e-11 -2.18686e-11 4.74759e-12)
(0 0 0)
(1.40439e-25 0 0)
(-1.50504e-25 0 0)
(-7.65519e-22 0 0)
(-6.82421e-19 0 0)
(-1.80203e-16 0 0)
(-2.99392e-14 -2.58488e-14 4.71762e-15)
(-9.69525e-13 -1.06005e-12 2.64573e-13)
(-2.32757e-11 -3.12131e-11 7.75018e-12)
(-4.40417e-10 -7.93361e-10 1.85588e-10)
(0 0 0)
(5.61088e-24 0 0)
(-3.39306e-23 0 0)
(-1.69901e-19 0 0)
(-1.1813e-16 0 0)
(-2.53817e-14 -1.70847e-14 2.86151e-15)
(-1.04918e-12 -8.26543e-13 2.37273e-13)
(-3.16552e-11 -2.92606e-11 8.52704e-12)
(-8.42665e-10 -9.53139e-10 2.67071e-10)
(-1.81274e-08 -2.73836e-08 7.44633e-09)
(0 0 0)
(1.93961e-22 0 0)
(-7.29928e-21 0 0)
(-3.58497e-17 0 0)
(-1.72488e-14 -6.62866e-15 1.23741e-15)
(-7.97274e-13 -4.54101e-13 1.55836e-13)
(-2.828e-11 -1.7896e-11 6.32315e-12)
(-9.364e-10 -6.75611e-10 2.3537e-10)
(-2.8213e-08 -2.45431e-08 8.68503e-09)
(-6.30836e-07 -7.09615e-07 2.63115e-07)
(0 0 0)
(6.20548e-21 0 0)
(-1.75125e-18 0 0)
(-6.79756e-15 -7.7338e-16 3.3969e-16)
(-4.17519e-13 -1.59007e-13 6.68024e-14)
(-1.64686e-11 -6.93459e-12 3.13349e-12)
(-6.14006e-10 -2.77722e-10 1.26314e-10)
(-2.18648e-08 -1.1106e-08 5.20901e-09)
(-6.30172e-07 -4.05103e-07 2.04967e-07)
(-2.40136e-05 -2.19129e-05 1.05695e-05)
(0 0 0)
(7.17204e-34 0 0)
(-1.04265e-38 0 0)
(-6.12285e-34 0 0)
(-2.94846e-30 0 0)
(-2.7926e-27 0 0)
(-9.65652e-25 0 0)
(-1.55957e-22 0 0)
(-1.49607e-20 0 0)
(-2.53844e-21 0 0)
(0 0 0)
(3.96213e-32 0 0)
(-3.72039e-36 0 0)
(-1.68624e-31 0 0)
(-6.71053e-28 0 0)
(-5.56815e-25 0 0)
(-1.73563e-22 0 0)
(-2.57764e-20 0 0)
(-2.32015e-18 0 0)
(-4.37361e-19 -7.11732e-17 1.0224e-17)
(0 0 0)
(2.03017e-30 0 0)
(-1.26245e-33 0 0)
(-4.48903e-29 0 0)
(-1.50115e-25 0 0)
(-1.06951e-22 0 0)
(-2.94831e-20 0 0)
(-3.98727e-18 0 0)
(-3.35893e-16 0 0)
(-1.58548e-14 -4.15475e-14 9.18915e-15)
(0 0 0)
(9.60643e-29 0 0)
(-3.98667e-31 0 0)
(-1.17803e-26 0 0)
(-3.26798e-23 0 0)
(-1.92872e-20 0 0)
(-4.57946e-18 0 0)
(-5.56479e-16 0 0)
(-4.3196e-14 -6.77782e-14 1.86385e-14)
(-8.7663e-13 -1.67778e-12 5.47e-13)
(0 0 0)
(4.18985e-27 0 0)
(-1.14574e-28 0 0)
(-3.09154e-24 0 0)
(-6.75155e-21 0 0)
(-3.16323e-18 0 0)
(-6.31432e-16 0 0)
(-6.89244e-14 -7.6683e-14 2.66043e-14)
(-1.77293e-12 -2.34077e-12 8.77477e-13)
(-3.34965e-11 -5.744e-11 2.08191e-11)
(0 0 0)
(1.6961e-25 0 0)
(-2.99936e-26 0 0)
(-8.01552e-22 0 0)
(-1.2753e-18 0 0)
(-4.5768e-16 0 0)
(-7.60939e-14 -5.93307e-14 2.37428e-14)
(-2.36942e-12 -2.21263e-12 9.71056e-13)
(-6.01924e-11 -6.79775e-11 2.92417e-11)
(-1.25411e-09 -1.83787e-09 7.79047e-10)
(0 0 0)
(6.33132e-24 0 0)
(-7.66327e-24 0 0)
(-1.97243e-19 0 0)
(-2.10709e-16 0 0)
(-5.74638e-14 -3.09166e-14 1.48489e-14)
(-2.15277e-12 -1.4083e-12 7.46312e-13)
(-6.72815e-11 -5.07069e-11 2.67514e-11)
(-1.8856e-09 -1.69859e-09 9.03407e-10)
(-4.26279e-08 -4.87766e-08 2.71686e-08)
(0 0 0)
(2.05109e-22 0 0)
(-1.8959e-21 0 0)
(-4.38178e-17 0 3.28268e-18)
(-2.93362e-14 -8.3525e-15 6.01538e-15)
(-1.31247e-12 -5.83128e-13 3.93106e-13)
(-4.73377e-11 -2.32001e-11 1.58091e-11)
(-1.58756e-09 -8.78549e-10 6.10236e-10)
(-4.63215e-08 -3.11493e-08 2.25397e-08)
(-9.75572e-07 -8.66835e-07 6.6321e-07)
(0 0 0)
(-4.33431e-37 0 0)
(-1.63618e-50 0 0)
(-3.75115e-38 0 0)
(-2.68163e-33 0 0)
(-8.78067e-30 0 0)
(-5.80183e-27 0 0)
(-1.49654e-24 0 0)
(-1.81356e-22 0 0)
(-2.51774e-23 0 0)
(0 0 0)
(-2.1832e-35 0 0)
(-6.44855e-47 0 0)
(-1.54633e-35 0 0)
(-7.34275e-31 0 0)
(-2.00019e-27 0 0)
(-1.15399e-24 0 0)
(-2.64422e-22 0 0)
(-2.94956e-20 0 0)
(-4.78398e-21 0 0)
(0 0 0)
(-1.068e-33 0 0)
(-1.80114e-43 0 0)
(-5.89243e-33 0 0)
(-1.99173e-28 0 0)
(-4.43558e-25 0 0)
(-2.17279e-22 0 0)
(-4.37904e-20 0 0)
(-4.5136e-18 0 0)
(-8.98482e-19 -2.32109e-16 7.6258e-17)
(0 0 0)
(-4.95816e-32 0 0)
(-3.79059e-40 0 0)
(-2.08115e-30 0 0)
(-5.35507e-26 0 0)
(-9.34505e-23 0 0)
(-3.76224e-20 0 0)
(-6.60369e-18 0 0)
(-6.27865e-16 0 7.7338e-17)
(-3.72812e-14 -7.50362e-14 3.63947e-14)
(0 0 0)
(-2.17043e-30 0 0)
(-6.22217e-37 0 0)
(-6.99501e-28 0 0)
(-1.40365e-23 0 0)
(-1.80863e-20 0 0)
(-5.83293e-18 0 0)
(-8.87607e-16 0 1.54676e-16)
(-7.77547e-14 -1.04784e-13 5.74621e-14)
(-1.53493e-12 -2.55317e-12 1.44111e-12)
(0 0 0)
(-8.87959e-29 0 0)
(-8.12245e-34 0 0)
(-2.37436e-25 0 0)
(-3.4631e-21 0 0)
(-3.10393e-18 0 0)
(-7.95589e-16 0 7.7338e-17)
(-1.05869e-13 -9.83399e-14 6.25664e-14)
(-2.65806e-12 -2.98153e-12 1.97761e-12)
(-5.12728e-11 -7.3841e-11 4.91508e-11)
(0 0 0)
(-3.35909e-27 0 0)
(-8.50968e-31 0 0)
(-8.53845e-23 0 0)
(-7.6573e-19 0 0)
(-4.59003e-16 0 0)
(-9.55848e-14 -6.21029e-14 5.00377e-14)
(-2.95804e-12 -2.2678e-12 1.83415e-12)
(-7.54784e-11 -6.90741e-11 5.66836e-11)
(-1.58433e-09 -1.84351e-09 1.54967e-09)
(0 0 0)
(-1.16161e-25 0 0)
(-8.72086e-28 0 0)
(-3.07719e-20 0 0)
(-1.42816e-16 0 3.908e-17)
(-5.78476e-14 -2.30467e-14 2.45244e-14)
(-2.13852e-12 -1.08954e-12 1.13132e-12)
(-6.57989e-11 -3.80579e-11 4.07191e-11)
(-1.79497e-09 -1.22728e-09 1.35857e-09)
(-3.84824e-08 -3.38972e-08 3.83334e-08)
(0 0 0)
(-1.50106e-39 0 0)
(0 0 0)
(-3.27625e-48 0 0)
(-1.22074e-37 0 0)
(-5.30132e-33 0 0)
(-1.17799e-29 0 0)
(-5.45972e-27 0 0)
(-1.153e-24 0 0)
(-1.1744e-25 0 0)
(0 0 0)
(-1.01626e-37 0 0)
(0 0 0)
(-5.77306e-45 0 0)
(-4.82209e-35 0 0)
(-1.44293e-30 0 0)
(-2.67853e-27 0 0)
(-1.06855e-24 0 0)
(-2.05139e-22 0 0)
(-2.3687e-23 0 0)
(0 0 0)
(-6.55119e-36 0 0)
(0 0 0)
(-9.35241e-42 0 0)
(-1.79446e-32 0 0)
(-3.89198e-28 0 0)
(-5.89941e-25 0 0)
(-2.00143e-22 0 0)
(-3.44023e-20 0 0)
(-4.70303e-21 0 0)
(0 0 0)
(-3.99346e-34 0 0)
(0 0 0)
(-1.50959e-38 0 0)
(-6.42455e-30 0 0)
(-1.03413e-25 0 0)
(-1.22433e-22 0 0)
(-3.48971e-20 0 0)
(-5.25795e-18 0 0)
(-9.11301e-19 -2.97226e-16 3.01812e-16)
(0 0 0)
(-2.27996e-32 0 0)
(0 0 0)
(-2.40508e-35 0 0)
(-2.27992e-27 0 0)
(-2.63436e-23 0 0)
(-2.31542e-20 0 0)
(-5.50591e-18 0 0)
(-7.13205e-16 0 4.64028e-16)
(-4.73401e-14 -8.31949e-14 6.23593e-14)
(0 0 0)
(-1.20446e-30 0 0)
(0 0 0)
(-3.46708e-32 0 0)
(-8.13965e-25 0 0)
(-6.16133e-21 0 0)
(-3.86674e-18 0 0)
(-7.70209e-16 0 7.7338e-16)
(-8.5289e-14 -9.52836e-14 8.25196e-14)
(-1.65756e-12 -2.34908e-12 2.07201e-12)
(0 0 0)
(-5.80355e-29 0 0)
(0 0 0)
(-4.17819e-29 0 0)
(-2.85068e-22 0 0)
(-1.26004e-18 0 0)
(-5.57473e-16 0 3.8669e-16)
(-9.50394e-14 -7.22348e-14 7.78794e-14)
(-2.38987e-12 -2.19864e-12 2.36399e-12)
(-4.55979e-11 -5.30112e-11 5.86052e-11)
(0 0 0)
(-2.50795e-27 0 0)
(0 0 0)
(-4.01882e-26 0 0)
(-9.25366e-20 0 0)
(-2.15285e-16 0 1.13451e-16)
(-6.89533e-14 -3.32553e-14 4.84358e-14)
(-2.11161e-12 -1.25148e-12 1.74326e-12)
(-5.20926e-11 -3.63072e-11 5.26541e-11)
(-1.03538e-09 -8.99682e-10 1.38136e-09)
(0 0 0)
(0 0 0)
(0 0 0)
(0 0 0)
(-3.40903e-48 0 0)
(-1.10066e-37 0 0)
(-4.33107e-33 0 0)
(-7.44399e-30 0 0)
(-2.98752e-27 0 0)
(-2.56746e-28 0 0)
(0 0 0)
(0 0 0)
(0 0 0)
(0 0 0)
(-6.13082e-45 0 0)
(-4.3968e-35 0 0)
(-1.19396e-30 0 0)
(-1.72155e-27 0 0)
(-5.96483e-25 0 0)
(-5.62978e-26 0 0)
(0 0 0)
(0 0 0)
(0 0 0)
(0 0 0)
(-1.00957e-41 0 0)
(-1.63937e-32 0 0)
(-3.26415e-28 0 0)
(-3.88639e-25 0 0)
(-1.15233e-22 0 0)
(-1.19951e-23 0 0)
(0 0 0)
(0 0 0)
(0 0 0)
(0 0 0)
(-1.63269e-38 0 0)
(-5.77987e-30 0 0)
(-8.79415e-26 0 0)
(-8.3306e-23 0 0)
(-2.0881e-20 0 0)
(-2.54453e-21 0 0)
(0 0 0)
(0 0 0)
(0 0 0)
(0 0 0)
(-2.5707e-35 0 0)
(-2.00159e-27 0 0)
(-2.26951e-23 0 0)
(-1.63463e-20 0 0)
(-3.41988e-18 0 0)
(-5.36191e-19 -2.50611e-16 5.16993e-16)
(0 0 0)
(0 0 0)
(0 0 0)
(0 0 0)
(-3.66539e-32 0 0)
(-7.14711e-25 0 0)
(-5.37155e-21 0 0)
(-2.83049e-18 0 0)
(-4.90192e-16 0 6.96042e-16)
(-3.97034e-14 -6.00796e-14 6.6956e-14)
(0 0 0)
(0 0 0)
(0 0 0)
(0 0 0)
(-4.43192e-29 0 0)
(-2.63297e-22 0 0)
(-1.11275e-18 0 0)
(-4.20203e-16 0 3.8669e-16)
(-6.04563e-14 -5.45749e-14 7.40125e-14)
(-1.17127e-12 -1.35173e-12 1.8142e-12)
(0 0 0)
(0 0 0)
(0 0 0)
(0 0 0)
(-4.37472e-26 0 0)
(-9.24106e-20 0 0)
(-1.93219e-16 0 2.5357e-16)
(-5.29393e-14 -2.92338e-14 5.55986e-14)
(-1.33145e-12 -9.48628e-13 1.64348e-12)
(-2.41939e-11 -2.12382e-11 3.90662e-11)
(0 0 0)
(0 0 0)
(0 0 0)
(0 0 0)
(0 0 0)
(-4.11769e-49 0 0)
(-4.73155e-38 0 0)
(-1.55808e-33 0 0)
(-2.49549e-30 0 0)
(-1.75002e-31 0 0)
(0 0 0)
(0 0 0)
(0 0 0)
(0 0 0)
(0 0 0)
(-9.78391e-46 0 0)
(-2.01232e-35 0 0)
(-4.28355e-31 0 0)
(-5.62253e-28 0 0)
(-4.42817e-29 0 0)
(0 0 0)
(0 0 0)
(0 0 0)
(0 0 0)
(0 0 0)
(-1.86357e-42 0 0)
(-7.86017e-33 0 0)
(-1.14912e-28 0 0)
(-1.25128e-25 0 0)
(-1.0675e-26 0 0)
(0 0 0)
(0 0 0)
(0 0 0)
(0 0 0)
(0 0 0)
(-2.89993e-39 0 0)
(-2.80265e-30 0 0)
(-3.05842e-26 0 0)
(-2.75263e-23 0 0)
(-2.50717e-24 0 0)
(0 0 0)
(0 0 0)
(0 0 0)
(0 0 0)
(0 0 0)
(-3.72666e-36 0 0)
(-9.21325e-28 0 0)
(-8.11411e-24 0 0)
(-5.84641e-21 0 0)
(-5.90566e-22 0 0)
(0 0 0)
(0 0 0)
(0 0 0)
(0 0 0)
(0 0 0)
(-4.29262e-33 0 0)
(-2.93895e-25 0 0)
(-2.09373e-21 0 0)
(-1.14286e-18 0 0)
(-1.40285e-19 -1.08174e-16 2.32264e-16)
(0 0 0)
(0 0 0)
(0 0 0)
(0 0 0)
(0 0 0)
(-5.2975e-30 0 0)
(-1.00209e-22 0 0)
(-4.97347e-19 0 0)
(-1.93738e-16 0 7.7338e-17)
(-2.06045e-14 -2.72738e-14 4.7542e-14)
(0 0 0)
(0 0 0)
(0 0 0)
(0 0 0)
(0 0 0)
(-7.2511e-27 0 0)
(-3.76083e-20 0 0)
(-1.01403e-16 0 1.50942e-16)
(-2.70075e-14 -1.74784e-14 4.18955e-14)
(-5.35808e-13 -4.74493e-13 9.87791e-13)
(0 0 0)
(0 0 0)
(0 0 0)
(0 0 0)
(0 0 0)
(0 0 0)
(0 0 0)
(-3.72907e-39 0 0)
(-2.52568e-34 0 0)
(-9.91048e-36 0 0)
(0 0 0)
(0 0 0)
(0 0 0)
(0 0 0)
(0 0 0)
(0 0 0)
(0 0 0)
(-2.02015e-36 0 0)
(-7.20829e-32 0 0)
(-3.38274e-33 0 0)
(0 0 0)
(0 0 0)
(0 0 0)
(0 0 0)
(0 0 0)
(0 0 0)
(-3.11093e-46 0 0)
(-9.77858e-34 0 0)
(-1.97486e-29 0 0)
(-1.10195e-30 0 0)
(0 0 0)
(0 0 0)
(0 0 0)
(0 0 0)
(0 0 0)
(0 0 0)
(-2.56619e-42 0 0)
(-4.20987e-31 0 0)
(-5.27971e-27 0 0)
(-3.36534e-28 0 0)
(0 0 0)
(0 0 0)
(0 0 0)
(0 0 0)
(0 0 0)
(0 0 0)
(-1.04428e-38 0 0)
(-1.60286e-28 0 0)
(-1.41407e-24 0 0)
(-9.45991e-26 0 0)
(0 0 0)
(0 0 0)
(0 0 0)
(0 0 0)
(0 0 0)
(0 0 0)
(-2.72388e-35 0 0)
(-5.37362e-26 0 0)
(-3.81508e-22 0 0)
(-2.40903e-23 0 0)
(0 0 0)
(0 0 0)
(0 0 0)
(0 0 0)
(0 0 0)
(0 0 0)
(-5.02701e-32 0 0)
(-1.62334e-23 0 0)
(-9.88706e-20 0 0)
(-5.64042e-21 -2.58302e-17 1.10412e-16)
(0 0 0)
(0 0 0)
(0 0 0)
(0 0 0)
(0 0 0)
(0 0 0)
(-6.86835e-29 0 0)
(-5.12501e-21 0 0)
(-2.28945e-17 0 0)
(-5.65783e-15 -5.16283e-15 1.90986e-14)
(-1.34355e-10 -1.52526e-12 4.02002e-12)
(-3.17156e-11 -5.33477e-13 5.88439e-12)
(-7.89088e-12 -1.4323e-13 1.15204e-12)
(-1.44635e-12 -2.95431e-14 2.26216e-13)
(-5.58369e-11 -1.41668e-12 9.38076e-12)
(-1.91181e-09 -4.55628e-11 3.59607e-10)
(-5.91641e-08 -1.01986e-09 1.34346e-08)
(-1.76865e-06 -1.59869e-08 4.54773e-07)
(-1.18469e-05 2.40295e-07 4.73489e-06)
(0 0 0)
(-5.22504e-15 0 0)
(-3.92827e-13 -9.061e-14 6.15389e-15)
(-1.91045e-11 -4.71198e-12 5.72348e-13)
(-9.90037e-10 -2.20992e-10 3.50135e-11)
(-6.38975e-08 -1.34265e-08 2.70091e-09)
(-2.3557e-06 -7.18452e-07 1.17988e-07)
(-0.00191609 -0.000869337 3.04846e-05)
(-262.714 -205.084 11.3847)
(0 0 0)
(-7.54092e-14 -6.72705e-15 8.50718e-16)
(-3.69301e-12 -6.16851e-13 1.18714e-13)
(-1.5306e-10 -2.86035e-11 5.65874e-12)
(-5.69639e-09 -1.22638e-09 2.55434e-10)
(-2.15237e-07 -5.03653e-08 1.20732e-08)
(-2.63262e-06 -9.10124e-07 8.40858e-08)
(-368.031 -172.469 15.7586)
(-4.4856e-15 0 0)
(-3.91723e-13 -4.54363e-14 8.27516e-15)
(-1.79121e-11 -2.84329e-12 5.34251e-13)
(-8.1616e-10 -1.26519e-10 2.79436e-11)
(-4.06753e-08 -6.03654e-09 1.75568e-09)
(-2.3113e-06 -3.76173e-07 1.37955e-07)
(-4.94354e-05 -1.12727e-05 1.75048e-06)
(-514.66 -213.879 22.7361)
(-2.7223e-14 -1.07754e-15 0)
(-1.53399e-12 -1.76898e-13 4.07571e-14)
(-7.30302e-11 -8.15172e-12 2.15719e-12)
(-3.41899e-09 -3.85085e-10 1.29924e-10)
(-1.3492e-07 -1.65638e-08 7.30562e-09)
(-1.44123e-05 -1.01016e-06 1.72038e-06)
(-0.896819 -0.0947994 0.171019)
(-5.5838e-14 -1.41316e-35 3.8669e-16)
(-2.86345e-12 -3.88237e-14 7.81126e-14)
(0 0 0)
(-1.09578e-16 0 0)
(-9.88027e-14 -1.87776e-14 1.075e-14)
(-4.4679e-12 -1.17352e-12 8.43912e-13)
(-1.79601e-10 -5.11527e-11 3.71444e-11)
(-6.89192e-09 -2.11931e-09 1.62217e-09)
(-2.77197e-07 -9.14313e-08 6.28295e-08)
(-6.43838e-05 -3.3004e-05 1.93162e-05)
(-7.86883 -4.84694 2.91063)
(0 0 0)
(-1.59082e-14 -7.72318e-16 1.00539e-15)
(-9.31671e-13 -1.6246e-13 1.58466e-13)
(-4.04228e-11 -7.51232e-12 7.57079e-12)
(-1.60485e-09 -3.15845e-10 3.03235e-10)
(-5.25185e-08 -1.17478e-08 9.95824e-09)
(-6.66117e-07 -1.8174e-07 1.27367e-07)
(-16.1735 -5.88804 5.94459)
(-1.54676e-16 0 0)
(-1.13367e-13 -9.84717e-15 1.11367e-14)
(-4.92638e-12 -8.45174e-13 8.51569e-13)
(-1.81054e-10 -3.25165e-11 3.46654e-11)
(-6.09148e-09 -1.11676e-09 1.30997e-09)
(-2.04414e-07 -3.45743e-08 3.99398e-08)
(-4.07079e-06 -1.10161e-06 8.84531e-07)
(-57.9635 -22.7007 25.3141)
(-5.72301e-15 0 7.7338e-17)
(-4.29987e-13 -4.58723e-14 5.80035e-14)
(-1.71211e-11 -2.31566e-12 3.17287e-12)
(-6.24359e-10 -8.35481e-11 1.32696e-10)
(-2.27867e-08 -2.86608e-09 5.16756e-09)
(-9.41342e-07 -1.0075e-07 2.06007e-07)
(-0.000249177 -1.75567e-05 9.58025e-05)
(-10.7026 -1.53673 5.95592)
(-1.28381e-14 -7.44887e-33 1.00283e-15)
(-8.14317e-13 -1.25288e-14 1.28181e-13)
(0 0 0)
(-4.6169e-18 0 0)
(-1.60285e-14 -1.69617e-15 6.96042e-16)
(-8.85135e-13 -2.33373e-13 1.12836e-13)
(-3.64787e-11 -1.06511e-11 5.31956e-12)
(-1.37585e-09 -4.45131e-10 2.26078e-10)
(-4.84336e-08 -1.77997e-08 9.99677e-09)
(-1.56271e-06 -7.11973e-07 5.46355e-07)
(-3.70662e-06 -1.90554e-06 9.85377e-07)
(0 0 0)
(-1.42336e-15 0 0)
(-1.8924e-13 -3.19741e-14 1.83291e-14)
(-8.48032e-12 -1.79222e-12 1.15381e-12)
(-3.47413e-10 -7.40755e-11 5.05934e-11)
(-1.28688e-08 -3.02053e-09 2.18237e-09)
(-3.84785e-07 -1.09001e-07 8.48149e-08)
(-5.62353e-05 -1.60905e-05 1.17923e-05)
(0 0 0)
(-2.415e-14 -1.38856e-15 1.16007e-15)
(-1.27051e-12 -2.01626e-13 1.57769e-13)
(-4.91379e-11 -8.53503e-12 7.04539e-12)
(-1.71861e-09 -3.17273e-10 2.58429e-10)
(-5.76849e-08 -1.13187e-08 9.14093e-09)
(-2.03801e-06 -4.42704e-07 4.20866e-07)
(-0.00514487 -0.00129728 0.00143965)
(0 0 0)
(-1.00197e-13 -6.29936e-15 6.96042e-15)
(-4.21691e-12 -5.64505e-13 6.0865e-13)
(-1.59294e-10 -2.08102e-11 2.33739e-11)
(-6.39632e-09 -7.89138e-10 8.81783e-10)
(-2.63886e-07 -3.32959e-08 3.79428e-08)
(-8.33346e-06 -8.08371e-07 1.66085e-06)
(-0.0414808 -0.00838753 0.0113342)
(-1.39208e-15 -4.12228e-30 0)
(-1.86558e-13 -1.70144e-15 1.805e-14)
(0 0 0)
(1.50493e-19 0 0)
(-6.66819e-16 0 0)
(-1.4031e-13 -3.10581e-14 1.57769e-14)
(-5.9875e-12 -1.71683e-12 1.00795e-12)
(-2.32229e-10 -7.03759e-11 4.20935e-11)
(-8.58619e-09 -2.80104e-09 1.7119e-09)
(-2.75452e-07 -1.08077e-07 6.60959e-08)
(-3.00155e-06 -1.85046e-06 1.12809e-06)
(0 0 0)
(-1.96967e-18 0 0)
(-2.62264e-14 -2.00344e-15 1.70144e-15)
(-1.36579e-12 -2.70276e-13 2.14381e-13)
(-5.46234e-11 -1.21492e-11 9.60745e-12)
(-1.99587e-09 -4.95853e-10 3.99644e-10)
(-6.78123e-08 -1.88615e-08 1.57662e-08)
(-2.35058e-06 -7.73847e-07 6.68555e-07)
(-0.000358244 -0.000153292 0.000160623)
(0 0 0)
(-1.50387e-15 0 0)
(-1.91472e-13 -2.30713e-14 2.46708e-14)
(-8.75492e-12 -1.47429e-12 1.45233e-12)
(-3.5183e-10 -6.16203e-11 5.99772e-11)
(-1.23617e-08 -2.32541e-09 2.4e-09)
(-3.37332e-07 -7.40592e-08 8.21309e-08)
(-3.68975e-05 -9.33467e-06 1.0182e-05)
(0 0 0)
(-1.22935e-14 0 8.50718e-16)
(-7.74369e-13 -9.20189e-14 1.13532e-13)
(-3.08986e-11 -3.97405e-12 5.03076e-12)
(-1.08578e-09 -1.45387e-10 1.9705e-10)
(-3.35061e-08 -4.67004e-09 7.49695e-09)
(-9.34753e-07 -1.25291e-07 2.58929e-07)
(-0.00304109 -0.000262825 0.000724279)
(0 -8.10781e-28 -3.48059e-18)
(-1.91538e-14 -6.3406e-26 2.07491e-15)
(0 0 0)
(5.6392e-21 0 0)
(-4.08496e-19 0 0)
(-8.11488e-15 -4.63677e-16 8.50718e-16)
(-5.1382e-13 -1.42537e-13 1.30779e-13)
(-2.02738e-11 -6.41174e-12 5.82646e-12)
(-7.45806e-10 -2.55363e-10 2.35387e-10)
(-2.54279e-08 -1.0335e-08 9.43648e-09)
(-6.88356e-07 -3.96662e-07 3.43961e-07)
(0 0 0)
(1.29575e-19 0 0)
(-2.28203e-16 0 0)
(-1.18655e-13 -1.61557e-14 2.51348e-14)
(-5.13047e-12 -1.13339e-12 1.33416e-12)
(-1.96817e-10 -4.77502e-11 5.5065e-11)
(-7.56618e-09 -1.94427e-09 2.23751e-09)
(-3.20269e-07 -9.03242e-08 1.05755e-07)
(-5.07716e-06 -2.20933e-06 2.69131e-06)
(0 0 0)
(2.39345e-18 0 0)
(-1.14006e-14 -1.54676e-16 1.39208e-15)
(-8.134e-13 -1.23063e-13 1.86694e-13)
(-3.45269e-11 -6.07923e-12 8.7366e-12)
(-1.30138e-09 -2.43984e-10 3.67061e-10)
(-4.20558e-08 -8.87454e-09 1.39938e-08)
(-1.14255e-06 -2.78926e-07 4.76461e-07)
(0 0 0)
(3.2377e-17 0 0)
(-6.80209e-14 -3.38678e-15 1.18327e-14)
(-3.05165e-12 -3.9196e-13 7.66187e-13)
(-1.15241e-10 -1.4975e-11 3.11641e-11)
(-3.92469e-09 -5.2364e-10 1.16363e-09)
(-1.24687e-07 -1.65347e-08 4.17965e-08)
(-4.02809e-06 -5.20622e-07 1.75699e-06)
(0 -8.78908e-26 5.0851e-20)
(1.48864e-17 -1.25242e-23 1.98768e-18)
(-1.249e-13 -1.51209e-21 2.54521e-14)
(-5.45755e-12 -6.94499e-14 1.41182e-12)
(-2.00223e-10 -2.42122e-12 5.55799e-11)
(-6.6721e-09 -6.08653e-11 2.01957e-09)
(-2.10761e-07 -8.42464e-10 7.24711e-08)
(-7.0321e-06 -9.26523e-09 3.23936e-06)
(0 0 0)
(-3.62929e-24 0 0)
(-1.13926e-24 0 0)
(-9.54537e-18 0 0)
(-2.11843e-14 -2.46502e-15 7.19243e-15)
(-9.65037e-13 -3.13906e-13 4.44925e-13)
(-3.35606e-11 -1.21069e-11 1.76532e-11)
(-1.0653e-09 -4.29563e-10 6.55121e-10)
(-2.94772e-08 -1.47337e-08 2.24629e-08)
(-5.75184e-07 -4.00546e-07 5.78231e-07)
(0 0 0)
(-1.00917e-22 0 0)
(-1.48946e-21 0 0)
(-2.11924e-15 0 6.96042e-16)
(-2.57382e-13 -5.04221e-14 1.02318e-13)
(-9.72794e-12 -2.45054e-12 4.50935e-12)
(-3.31055e-10 -9.2197e-11 1.74251e-10)
(-1.10467e-08 -3.33616e-09 6.8521e-09)
(-3.47893e-07 -1.26303e-07 2.8489e-07)
(-3.12786e-06 -1.61051e-06 3.06087e-06)
(0 0 0)
(-2.40969e-21 0 0)
(-1.40311e-18 0 0)
(-3.74221e-14 -2.00344e-15 1.13687e-14)
(-1.78299e-12 -3.14243e-13 7.23342e-13)
(-6.65949e-11 -1.28882e-11 3.05671e-11)
(-2.17734e-09 -4.62245e-10 1.16478e-09)
(-5.96505e-08 -1.476e-08 3.86333e-08)
(0 0 0)
(-4.95816e-20 0 0)
(-7.97194e-16 0 7.7338e-17)
(-1.55772e-13 -1.24629e-14 5.81582e-14)
(-6.30565e-12 -8.38714e-13 2.6933e-12)
(-2.1482e-10 -3.0075e-11 1.02716e-10)
(-6.66489e-09 -9.67054e-10 3.60457e-09)
(-2.00344e-07 -2.87788e-08 1.26233e-07)
(0 -1.09733e-21 0)
(-2.99289e-19 -9.19075e-20 0)
(-2.77402e-15 -1.27812e-17 8.50718e-16)
(-2.85789e-13 -1.67627e-15 1.11599e-13)
(-1.11738e-11 -1.01227e-13 4.81383e-12)
(-3.76025e-10 -2.63807e-12 1.78393e-10)
(-1.16174e-08 -4.72419e-11 6.16648e-09)
(-3.48208e-07 -5.38794e-10 2.16258e-07)
(0 0 0)
(-9.52056e-26 0 0)
(0 0 0)
(-2.99526e-23 0 0)
(-2.61948e-17 0 0)
(-2.99798e-14 -6.62728e-15 1.68597e-14)
(-1.12154e-12 -4.19785e-13 7.96659e-13)
(-3.25804e-11 -1.37381e-11 2.73984e-11)
(-8.09203e-10 -3.96937e-10 8.49023e-10)
(-1.52333e-08 -9.72146e-09 2.18516e-08)
(0 0 0)
(-3.08324e-24 0 0)
(0 0 0)
(-1.67546e-20 0 0)
(-6.15575e-15 0 2.08813e-15)
(-3.4323e-13 -8.11411e-14 2.13917e-13)
(-1.11068e-11 -3.22592e-12 8.04387e-12)
(-3.10477e-10 -1.03125e-10 2.70184e-10)
(-7.59523e-09 -2.94144e-09 8.64053e-09)
(-1.30922e-07 -7.01311e-08 2.24896e-07)
(0 0 0)
(-8.10248e-23 0 0)
(0 0 0)
(-6.68934e-18 0 0)
(-5.91282e-14 -5.5463e-15 3.32553e-14)
(-2.36816e-12 -4.74922e-13 1.49139e-12)
(-7.50298e-11 -1.66351e-11 5.51194e-11)
(-1.96628e-09 -5.01495e-10 1.76653e-09)
(0 0 0)
(-1.5591e-21 0 0)
(0 0 0)
(-2.0514e-15 0 1.00539e-15)
(-2.32628e-13 -2.30732e-14 1.30547e-13)
(-8.08672e-12 -1.19108e-12 5.26958e-12)
(-2.34776e-10 -3.7447e-11 1.78066e-10)
(-5.88779e-09 -1.02176e-09 5.43853e-09)
(0 -1.37303e-23 0)
(-1.68586e-20 -6.46529e-22 0)
(0 -8.15153e-20 0)
(-6.1636e-15 -1.17181e-17 3.09352e-15)
(-4.17456e-13 -1.33272e-15 2.42919e-13)
(-1.42638e-11 -8.52844e-14 9.31879e-12)
(-4.12364e-10 -1.80111e-12 3.11833e-10)
(-1.0352e-08 -2.48162e-11 9.5193e-09)
(0 0 0)
(0 0 0)
(0 0 0)
(0 0 0)
(-3.44435e-23 0 0)
(-2.76539e-17 0 0)
(-2.71913e-14 -6.7809e-15 2.45161e-14)
(-8.63487e-13 -3.72492e-13 8.88381e-13)
(-1.96436e-11 -1.00248e-11 2.51715e-11)
(-3.36034e-10 -2.12621e-10 5.89175e-10)
(0 0 0)
(0 0 0)
(0 0 0)
(0 0 0)
(-2.12162e-20 0 0)
(-6.32548e-15 0 4.87229e-15)
(-3.07982e-13 -8.34404e-14 2.76793e-13)
(-8.23129e-12 -2.82576e-12 8.76132e-12)
(-1.72259e-10 -7.17655e-11 2.35772e-10)
(-2.52252e-09 -1.40591e-09 5.1584e-09)
(0 0 0)
(0 0 0)
(0 0 0)
(0 0 0)
(-1.00738e-17 0 0)
(-6.08131e-14 -6.93069e-15 5.10431e-14)
(-2.09783e-12 -4.79806e-13 1.9019e-12)
(-5.34364e-11 -1.42509e-11 5.88631e-11)
(0 0 0)
(0 0 0)
(0 0 0)
(0 0 0)
(-3.3048e-15 0 2.16546e-15)
(-2.3312e-13 -2.86119e-14 1.88395e-13)
(-6.9564e-12 -1.16296e-12 6.46904e-12)
(-1.62025e-10 -3.0952e-11 1.83326e-10)
(0 -2.07247e-26 0)
(0 -3.50036e-24 0)
(0 -5.48866e-22 0)
(0 -8.1553e-20 0)
(-7.54659e-15 -1.2189e-17 6.18704e-15)