/*--------------------------------*- C++ -*----------------------------------*\
  =========                 |
  \\      /  F ield         | OpenFOAM: The Open Source CFD Toolbox
   \\    /   O peration     | Website:  https://openfoam.org
    \\  /    A nd           | Version:  9
     \\/     M anipulation  |
\*---------------------------------------------------------------------------*/
FoamFile
{
    format      ascii;
    class       volScalarField;
    location    "0.00045";
    object      alpha.c4;
}
// * * * * * * * * * * * * * * * * * * * * * * * * * * * * * * * * * * * * * //

dimensions      [0 0 0 0 0 0 0];

internalField   nonuniform List<scalar> 
5326
(
3.48759e-29
9.33534e-28
3.6373e-29
3.48047e-29
3.65275e-29
1.65318e-28
1.19022e-28
7.39713e-25
1.11487e-25
1.33637e-23
3.67228e-27
1.65451e-28
2.15542e-25
3.50711e-27
1.11207e-25
1.29521e-25
1.0578e-25
1.00677e-23
3.88073e-27
3.71624e-27
3.93059e-27
1.18378e-28
9.39735e-35
1.94138e-28
1.58112e-30
2.51554e-33
2.0897e-34
8.17457e-36
2.77496e-35
3.94321e-33
5.555e-34
1.39693e-33
4.38081e-32
5.31709e-32
6.42992e-32
4.4651e-32
2.17673e-26
8.33338e-29
1.26524e-26
1.31652e-26
8.34484e-29
6.40886e-28
1.71249e-29
1.69578e-29
6.24832e-33
8.80428e-33
6.23152e-33
4.94934e-33
2.13021e-31
1.47627e-31
1.23589e-33
1.0468e-34
1.33399e-34
7.72159e-35
2.35856e-34
4.2202e-34
2.03172e-36
9.2806e-39
8.02709e-36
3.92703e-38
1.8394e-40
7.92543e-30
2.4773e-29
9.57572e-28
7.55318e-31
5.01624e-31
5.47689e-31
6.94966e-31
2.24369e-30
3.4906e-30
1.5744e-30
4.80521e-30
2.22619e-31
1.06664e-30
7.43994e-30
3.1588e-29
2.36694e-31
2.20187e-31
2.34075e-31
1.54969e-30
1.06877e-30
1.56104e-30
7.43133e-30
3.12092e-29
1.72778e-31
1.55951e-29
1.30003e-33
2.27681e-27
2.09302e-25
5.8736e-29
3.50191e-27
1.72779e-33
6.61287e-33
6.03416e-32
2.29103e-31
1.82573e-33
1.21473e-34
1.05419e-34
1.2041e-32
6.82832e-33
7.71212e-33
1.08561e-32
7.84198e-33
8.47663e-34
3.07286e-34
3.45233e-32
5.62465e-32
1.99091e-32
7.86188e-32
5.82417e-29
3.71217e-29
3.69845e-29
6.637e-31
5.06111e-31
2.3664e-31
2.34277e-31
3.48391e-27
3.50733e-29
4.70313e-29
2.13877e-29
2.15429e-29
5.41004e-27
4.81531e-27
1.98976e-31
1.23076e-35
4.54852e-32
2.72028e-31
2.76791e-33
3.28245e-34
6.80876e-34
3.21114e-36
1.02052e-34
1.95199e-34
7.17478e-35
8.64185e-34
4.12631e-33
2.65152e-33
3.06304e-33
3.62096e-33
2.07506e-32
3.69691e-32
1.46079e-32
4.91505e-32
1.23258e-29
4.33989e-31
2.91427e-31
6.13638e-32
1.28762e-33
4.51929e-33
4.4559e-34
5.39928e-33
8.33199e-32
1.08587e-29
5.08359e-32
2.33495e-34
1.03667e-36
1.12663e-27
5.35549e-30
8.36394e-34
7.95646e-32
2.42937e-32
4.09915e-36
3.98997e-34
1.04922e-34
1.94429e-38
1.89116e-36
7.97553e-28
2.06967e-27
9.63277e-26
7.6329e-29
4.86452e-29
5.47788e-29
6.86939e-29
6.36126e-26
1.116e-27
2.05077e-27
1.11306e-27
2.0207e-27
6.01086e-31
1.01248e-30
3.61608e-37
1.10483e-34
5.01572e-39
1.08092e-38
7.09561e-39
1.1753e-36
3.30534e-36
3.72263e-37
1.6865e-36
3.7266e-32
5.24708e-30
3.62428e-34
8.54901e-34
1.196e-34
5.49253e-34
7.19257e-32
2.89003e-32
1.30119e-31
7.95844e-32
9.91474e-30
9.64154e-30
3.23709e-42
1.08983e-39
8.28321e-43
1.494e-40
2.38714e-46
6.31227e-48
1.86812e-47
5.26617e-49
4.85655e-42
1.70346e-43
4.11647e-43
1.04709e-39
2.61499e-44
6.46412e-43
5.35218e-41
2.25677e-39
1.60721e-40
1.61256e-40
1.49872e-40
1.20395e-47
6.40285e-48
2.60417e-47
1.71073e-49
2.9308e-47
1.90468e-49
1.0635e-47
1.41954e-48
2.90427e-48
2.6471e-50
4.72615e-49
1.81033e-48
2.50371e-48
1.95096e-50
1.32004e-40
2.87054e-41
2.86327e-41
5.01252e-39
1.25181e-38
4.03189e-38
6.17346e-39
3.36573e-42
4.86992e-42
3.37593e-42
4.49267e-44
8.6339e-44
3.67068e-44
9.87294e-44
1.51746e-39
1.05081e-39
1.52192e-39
5.1697e-49
5.17885e-49
1.39095e-49
1.30471e-47
1.30069e-47
5.13805e-49
1.24615e-47
1.15648e-47
5.22162e-49
1.81329e-48
9.89827e-52
2.55457e-50
3.2694e-49
3.77532e-49
2.36434e-50
7.34263e-50
3.43122e-51
9.84329e-52
2.47635e-50
3.15737e-49
3.95939e-49
3.37731e-51
2.30754e-50
7.14812e-50
4.89021e-52
6.52508e-51
4.75601e-50
7.74228e-50
5.84758e-52
4.37182e-51
4.54073e-50
9.72325e-52
3.76222e-49
2.36487e-50
3.26113e-49
2.19019e-50
7.32455e-50
3.41051e-51
9.41508e-52
5.3943e-49
2.01964e-50
2.91963e-49
2.21547e-50
6.82861e-50
3.06212e-51
5.71488e-45
8.27112e-43
7.8493e-43
7.86573e-43
1.33846e-44
8.85512e-45
9.60482e-45
1.25497e-44
9.6092e-36
2.31489e-37
1.01161e-35
9.6405e-36
1.01468e-35
9.10957e-36
3.85443e-34
3.29482e-37
2.3219e-37
3.30299e-37
4.60134e-38
6.32468e-37
1.69431e-34
4.84747e-38
4.61776e-38
4.86488e-38
1.87399e-36
3.96056e-36
3.07856e-44
4.2838e-41
4.62394e-42
1.39764e-41
4.38071e-41
4.15608e-43
6.76916e-44
1.69785e-33
4.3528e-35
1.77123e-33
1.70279e-33
1.77627e-33
1.55351e-33
5.98119e-32
6.31929e-35
4.36928e-35
6.34496e-35
5.26064e-32
9.6089e-34
2.39284e-43
2.06244e-47
1.73927e-46
7.48351e-46
5.61792e-45
4.51394e-45
4.14729e-45
7.33947e-47
1.94401e-45
6.91364e-45
1.47858e-49
2.1714e-49
1.56209e-47
2.45907e-47
3.03783e-49
1.60687e-47
1.35537e-49
7.09816e-49
1.61724e-46
2.22852e-48
8.89693e-47
2.00056e-48
8.89065e-47
7.1422e-49
3.08294e-49
9.8656e-49
3.91884e-47
6.17154e-47
3.23942e-49
7.82839e-49
3.8673e-47
1.17183e-47
2.15081e-43
1.72494e-47
2.26715e-43
4.08031e-49
5.02085e-45
3.44448e-47
1.67425e-45
1.64959e-42
4.10297e-51
7.33354e-51
2.33771e-49
4.01029e-49
1.41357e-49
1.28655e-47
2.18029e-49
3.81707e-48
2.13936e-45
2.05351e-47
6.34166e-46
3.75299e-51
1.95555e-51
1.6646e-49
9.9059e-50
1.03666e-47
1.28303e-49
1.40197e-47
6.6223e-50
4.07478e-48
2.31051e-45
5.24906e-48
5.7782e-46
6.72499e-46
3.53637e-45
1.06161e-52
1.17702e-51
4.84741e-51
2.42404e-48
1.57032e-50
3.10133e-51
3.15289e-49
1.88009e-50
8.64704e-50
4.53853e-47
5.15917e-47
1.63595e-46
3.94844e-49
1.42861e-47
4.72687e-47
8.16888e-50
2.4183e-45
8.4664e-49
1.02219e-44
3.0243e-48
3.695e-49
7.19253e-46
2.79004e-47
2.69363e-47
6.03751e-47
7.72918e-45
9.09159e-46
3.98164e-45
4.06355e-38
9.59667e-36
6.22668e-40
2.59027e-43
7.46984e-38
1.19862e-39
1.00918e-42
1.39209e-38
1.59817e-53
4.49339e-53
2.24612e-51
3.00836e-51
2.88674e-53
2.26486e-51
1.57147e-53
3.24378e-53
7.32568e-51
8.1338e-53
4.21128e-51
8.09293e-53
4.20901e-51
3.25009e-53
4.72741e-51
1.87909e-51
3.69128e-49
9.19534e-50
8.20792e-52
3.19334e-49
5.0112e-51
1.41787e-50
4.00639e-49
3.22214e-51
1.10472e-48
3.20575e-51
1.1028e-48
1.42203e-50
1.84631e-53
3.94057e-53
2.46906e-51
3.10088e-51
1.90087e-53
2.8975e-53
2.45074e-51
9.32631e-54
1.97733e-51
2.39965e-53
1.22495e-51
2.23412e-53
1.2397e-51
8.98943e-54
6.78066e-51
1.36423e-51
6.48407e-49
8.41767e-50
7.68738e-51
7.07759e-52
5.64663e-49
1.28073e-51
9.95039e-50
7.29717e-52
1.1769e-49
7.44075e-52
1.25862e-49
1.02173e-51
2.97174e-50
1.3067e-47
1.33242e-49
2.46846e-48
1.92381e-49
2.90215e-48
1.98476e-50
4.656e-55
1.50743e-54
6.32247e-53
7.39932e-53
5.83452e-55
7.05416e-55
5.94028e-53
4.16135e-54
4.97677e-52
5.13839e-53
9.69886e-52
5.5618e-54
4.36943e-52
2.95888e-53
1.39729e-52
4.94933e-53
1.43866e-50
1.9259e-51
1.63426e-52
1.58674e-53
1.25375e-50
6.15689e-51
3.18349e-50
8.5303e-49
1.3102e-48
6.62122e-51
1.45976e-50
8.39864e-49
8.15792e-53
8.14395e-51
4.26718e-52
1.78517e-50
6.43946e-53
7.3136e-51
8.84466e-52
3.12795e-49
5.1421e-51
7.28885e-50
4.06545e-49
2.95587e-51
5.47825e-49
3.27145e-49
4.06831e-47
4.01112e-47
7.71715e-45
2.04807e-45
6.65344e-47
3.38137e-47
5.08681e-45
1.04913e-47
3.83175e-50
9.15137e-49
3.09641e-48
9.20545e-50
3.94329e-48
5.31298e-48
1.27635e-45
2.84348e-46
5.87272e-44
3.21365e-44
4.90674e-46
5.07464e-46
1.48355e-43
1.48388e-36
2.45514e-36
1.41472e-38
3.03252e-37
9.68351e-37
3.74441e-36
2.45873e-37
1.75304e-39
2.09026e-40
2.71218e-41
6.26468e-39
1.83192e-41
4.67468e-39
1.93656e-39
1.59254e-43
4.74561e-45
1.95804e-43
6.72913e-43
1.31807e-40
4.2756e-41
4.73235e-41
8.54923e-43
2.36418e-43
2.82237e-41
6.1399e-43
5.48236e-41
2.70505e-41
9.94723e-40
6.79303e-42
3.25194e-42
9.75616e-41
1.65882e-41
4.92135e-40
3.33129e-40
1.74233e-50
4.34412e-46
1.89206e-50
4.69235e-46
4.39007e-52
1.06618e-47
1.46503e-49
7.62972e-48
3.00338e-54
3.34455e-52
1.14554e-52
1.11539e-52
4.32254e-48
5.87581e-51
1.25254e-48
8.00554e-54
2.85473e-54
3.59156e-52
1.06535e-52
2.89313e-52
1.11382e-52
4.70968e-48
5.60917e-51
1.35059e-48
2.11788e-55
2.48785e-54
8.68952e-54
5.82697e-53
7.3137e-54
5.38686e-53
1.07186e-49
1.56683e-51
3.00027e-50
1.247e-52
3.3824e-51
4.04333e-51
1.14734e-49
1.63086e-56
3.00092e-54
3.45122e-56
2.12671e-54
3.44457e-56
2.12567e-54
1.63174e-56
2.79856e-54
2.5463e-54
3.50043e-52
3.33078e-52
2.51331e-54
3.48887e-52
2.80141e-54
1.40292e-54
1.1443e-52
9.00808e-55
1.4671e-52
8.98383e-55
1.46549e-52
1.40578e-54
9.69366e-57
1.02653e-55
5.30444e-54
3.9988e-54
3.85481e-56
7.31446e-56
1.1859e-54
3.81966e-57
2.80167e-54
3.35065e-56
2.04383e-54
3.34185e-56
4.67652e-55
1.47956e-56
3.02546e-54
2.66978e-54
3.77954e-52
3.59092e-52
2.99377e-54
2.6684e-54
3.77656e-52
9.92348e-55
1.08656e-52
7.91643e-55
1.15478e-52
8.43422e-55
1.17817e-52
9.2791e-55
3.37962e-58
3.16784e-57
1.43608e-55
1.05451e-55
1.24053e-57
1.77919e-57
3.51463e-56
9.16565e-57
1.21496e-54
1.02826e-55
1.74872e-54
1.16555e-56
1.11303e-54
3.51977e-56
7.22457e-56
7.37013e-56
9.1982e-54
8.13818e-54
8.40276e-56
6.03017e-56
8.68915e-54
3.4494e-55
1.16967e-53
1.33861e-54
7.31085e-53
1.15058e-55
2.27048e-53
3.73504e-54
2.90457e-52
1.04421e-53
9.07689e-53
6.21077e-52
2.91716e-54
1.19806e-51
2.75649e-52
4.58949e-50
1.1884e-52
4.20583e-51
1.10951e-50
3.99788e-52
1.2141e-50
2.65902e-50
1.16647e-47
2.96596e-45
7.1969e-43
1.19291e-40
2.57469e-38
3.53096e-36
6.40527e-34
8.01753e-50
1.86368e-47
3.98048e-45
7.39349e-43
1.37654e-40
2.15228e-38
3.3634e-36
4.45706e-52
9.95602e-50
2.06552e-47
3.93126e-45
7.04428e-43
1.12517e-40
1.64793e-38
2.16276e-54
4.75277e-52
9.78843e-50
1.87258e-47
3.31682e-45
5.29518e-43
7.5535e-41
1.31857e-51
2.98082e-49
6.23953e-47
1.19601e-44
2.20952e-42
3.70525e-40
5.70813e-38
1.48818e-53
3.61572e-51
8.8343e-49
1.69172e-46
3.03411e-44
4.8642e-42
6.65055e-40
8.13952e-54
1.80342e-51
3.72998e-49
7.19144e-47
1.29951e-44
2.12701e-42
3.10629e-40
1.04587e-55
2.41771e-53
5.22921e-51
9.97573e-49
1.75546e-46
2.75325e-44
3.71721e-42
4.20224e-56
9.22425e-54
1.90156e-51
3.66247e-49
6.53328e-47
1.05247e-44
1.49784e-42
5.80626e-58
1.29994e-55
2.70954e-53
5.15168e-51
8.98365e-49
1.40016e-46
1.90278e-44
1.08756e-45
3.07131e-43
5.96288e-41
1.14278e-38
9.65365e-43
3.8841e-45
1.38487e-47
4.39537e-50
1.27374e-52
1.01378e-42
4.16374e-45
1.49304e-47
4.7048e-50
1.3403e-52
2.52218e-44
1.17744e-46
4.68875e-49
1.61593e-51
4.97312e-54
2.26995e-45
1.49316e-47
7.88492e-50
3.62125e-52
1.49966e-54
1.91209e-43
1.10285e-45
5.45549e-48
2.3902e-50
9.526e-53
9.37206e-42
4.55576e-44
2.0598e-46
8.58446e-49
3.31934e-51
1.51739e-38
6.86517e-41
2.96918e-43
1.20906e-45
4.62149e-48
1.66755e-50
6.20401e-38
4.06394e-40
2.29497e-42
1.15463e-44
5.25992e-47
2.19739e-49
8.53925e-52
4.06375e-40
3.04594e-42
1.93124e-44
1.06684e-46
5.25082e-49
2.34394e-51
9.65823e-54
2.32344e-42
1.87153e-44
1.27032e-46
7.46267e-49
3.88362e-51
1.82449e-53
7.88126e-56
2.99629e-51
3.27396e-53
7.52512e-54
1.24015e-55
6.93466e-58
8.63089e-56
3.69834e-53
1.49103e-50
5.49484e-48
2.35614e-45
1.81478e-56
3.93056e-58
3.49518e-60
6.12472e-58
2.44294e-55
9.34549e-53
3.43836e-50
1.23183e-47
4.22146e-59
1.12118e-60
1.59485e-62
3.55629e-60
1.33713e-57
4.79651e-55
1.62912e-52
5.1106e-50
9.51504e-62
2.97448e-63
6.82857e-65
1.76487e-62
6.27092e-60
2.09951e-57
6.53721e-55
1.83631e-52
2.09169e-64
7.49474e-66
2.74554e-67
7.67429e-65
2.58483e-62
8.10459e-60
2.32766e-57
5.93713e-55
1.73293e-51
2.00723e-53
4.44362e-54
7.70073e-56
5.14011e-58
9.02947e-56
3.94348e-53
1.61035e-50
5.95386e-48
2.53136e-45
1.10143e-56
2.50622e-58
2.80501e-60
6.25339e-58
2.55164e-55
9.94662e-53
3.70438e-50
1.33154e-47
2.64963e-59
7.40025e-61
1.35367e-62
3.5351e-60
1.3618e-57
4.9963e-55
1.72863e-52
5.48951e-50
6.20831e-62
2.04267e-63
5.98332e-65
1.70857e-62
6.21687e-60
2.13156e-57
6.78445e-55
1.94084e-52
1.42407e-64
5.36892e-66
2.43763e-67
7.25141e-65
2.49638e-62
8.0105e-60
2.3541e-57
6.13382e-55
3.61184e-47
2.81835e-48
9.88024e-50
3.89279e-51
2.61534e-52
3.33787e-54
8.46188e-57
6.76272e-55
1.25938e-56
6.25948e-59
3.05764e-57
1.19516e-54
5.0208e-52
1.7578e-49
6.96254e-47
1.69993e-57
4.10662e-59
2.92508e-61
2.45983e-59
9.3834e-57
3.50124e-54
1.22467e-51
4.10343e-49
4.15937e-60
1.22302e-61
1.23802e-63
1.56238e-61
5.62533e-59
1.9387e-56
6.27204e-54
1.8596e-51
9.91831e-63
3.40994e-64
4.96854e-66
8.28193e-64
2.80902e-61
9.00205e-59
2.6756e-56
7.15176e-54
2.31202e-65
9.04017e-67
1.91296e-68
3.80529e-66
1.217e-63
3.64244e-61
9.99895e-59
2.43582e-56
1.77404e-48
1.53874e-49
8.51767e-51
4.52255e-51
1.80112e-52
9.23238e-56
8.51467e-57
1.20001e-53
1.60653e-55
9.07732e-57
1.01965e-54
3.23358e-56
6.47128e-58
9.82241e-59
1.27334e-56
2.78563e-54
4.14025e-52
7.54977e-50
1.40671e-47
8.63748e-59
2.27217e-60
4.91651e-61
8.39138e-59
1.66374e-56
2.86735e-54
5.26277e-52
9.32674e-50
2.26945e-61
7.32025e-63
2.48142e-63
4.71167e-61
9.22298e-59
1.67843e-56
3.03831e-54
5.16864e-52
5.84401e-64
2.2111e-65
1.19792e-65
2.38626e-63
4.68408e-61
8.66192e-59
1.53502e-56
2.50704e-54
1.47397e-66
6.34041e-68
5.46512e-68
1.11519e-65
2.19278e-63
4.04884e-61
6.99968e-59
1.0976e-56
6.5297e-47
4.66685e-45
1.67773e-49
1.77834e-50
2.63974e-50
2.03956e-48
4.45827e-52
2.00203e-53
2.84666e-54
5.03913e-52
1.1953e-54
5.25899e-55
1.43407e-54
2.64333e-52
5.65617e-50
8.22953e-48
1.35862e-45
3.17703e-57
1.95426e-57
8.53077e-57
1.65551e-54
3.16733e-52
5.08028e-50
8.44137e-48
1.37351e-45
8.24168e-60
6.22898e-60
4.53153e-59
8.92802e-57
1.66593e-54
2.81453e-52
4.71871e-50
7.57151e-48
2.08092e-62
1.81095e-62
2.20282e-61
4.38164e-59
8.19369e-57
1.42632e-54
2.40124e-52
3.80579e-50
5.11582e-65
4.9612e-65
9.9472e-64
1.99513e-61
3.75964e-59
6.64305e-57
1.11392e-54
1.7298e-52
1.22846e-67
1.26343e-67
4.22463e-66
8.53159e-64
1.61687e-61
2.86863e-59
4.75694e-57
7.19493e-55
9.54043e-48
2.25527e-45
1.78784e-42
2.53319e-40
5.05627e-50
6.32527e-48
2.38492e-47
5.3629e-45
2.22366e-52
1.76892e-50
2.96364e-50
3.97424e-48
1.17345e-45
1.51437e-43
1.67232e-41
7.275e-55
4.81429e-53
1.44602e-52
2.5274e-50
5.20714e-48
7.40149e-46
1.01116e-43
2.16428e-57
1.2631e-55
6.7307e-55
1.25009e-52
2.3073e-50
3.45188e-48
5.07834e-46
7.73446e-44
5.96443e-60
3.17917e-58
2.99195e-57
5.65294e-55
1.00698e-52
1.57387e-50
2.39184e-48
3.52819e-46
1.5472e-62
7.74978e-61
1.26629e-59
2.41249e-57
4.27848e-55
6.90927e-53
1.06859e-50
1.56204e-48
3.82638e-65
1.85561e-63
5.10892e-62
9.80449e-60
1.74974e-57
2.88758e-55
4.50448e-53
6.54219e-51
9.12514e-68
4.45269e-66
1.97409e-64
3.81459e-62
6.86118e-60
1.14647e-57
1.79133e-55
2.57625e-53
1.56503e-49
3.68494e-47
8.12621e-45
1.50445e-42
2.90036e-40
5.04689e-38
1.27187e-51
2.76226e-49
5.04494e-47
9.67663e-45
1.80209e-42
3.06375e-40
4.67357e-38
7.73633e-54
1.5387e-51
2.77133e-49
5.35223e-47
9.77662e-45
1.62009e-42
2.37062e-40
3.85756e-56
7.39726e-54
1.36362e-51
2.63749e-49
4.76121e-47
7.77053e-45
1.11735e-42
1.40844e-40
1.69527e-58
3.23938e-56
6.15455e-54
1.19002e-51
2.13199e-49
3.45267e-47
4.95026e-45
6.24621e-43
6.87127e-61
1.333e-58
2.59562e-56
5.00785e-54
8.91896e-52
1.43863e-49
2.06906e-47
2.6383e-45
2.63557e-63
5.22336e-61
1.03437e-58
1.98768e-56
3.52015e-54
5.6622e-52
8.17728e-50
1.05457e-47
9.66639e-66
1.95962e-63
3.91934e-61
7.49208e-59
1.31917e-56
2.11579e-54
3.06438e-52
3.9854e-50
3.42714e-68
7.07785e-66
1.42168e-63
2.70218e-61
4.73015e-59
7.56068e-57
1.0959e-54
1.43152e-52
1.19041e-55
2.89999e-53
7.00169e-51
1.33794e-48
2.36504e-46
3.73207e-44
5.0781e-42
5.79813e-40
7.60828e-58
1.83881e-55
4.35291e-53
8.30407e-51
1.45749e-48
2.29087e-46
3.14905e-44
3.76626e-42
4.18951e-60
1.00425e-57
2.33658e-55
4.44745e-53
7.77259e-51
1.22221e-48
1.7014e-46
2.09189e-44
2.07305e-62
4.93946e-60
1.13006e-57
2.14363e-55
3.73248e-53
5.87554e-51
8.26634e-49
1.03588e-46
9.51757e-65
2.28128e-62
5.03411e-60
9.5076e-58
1.6489e-55
2.59606e-53
3.67843e-51
4.66695e-49
4.11084e-67
9.91918e-65
2.09165e-62
3.93155e-60
6.78941e-58
1.06771e-55
1.51822e-53
1.93917e-51
1.66313e-69
3.97757e-67
8.19703e-65
1.53369e-62
2.63719e-60
4.13787e-58
5.88689e-56
7.53406e-54
9.63468e-58
2.23806e-55
4.82817e-53
9.14841e-51
1.58814e-48
2.45582e-46
3.29583e-44
3.80999e-42
7.03402e-60
1.62282e-57
3.46466e-55
6.53425e-53
1.12692e-50
1.73975e-48
2.36318e-46
2.82373e-44
4.35562e-62
9.95657e-60
2.10285e-57
3.9491e-55
6.7842e-53
1.0494e-50
1.4447e-48
1.76787e-46
2.38115e-64
5.39531e-62
1.12823e-59
2.10949e-57
3.61203e-55
5.59735e-53
7.78291e-51
9.67168e-49
1.17962e-66
2.65364e-64
5.48638e-62
1.02131e-59
1.74291e-57
2.70209e-55
3.77863e-53
4.73589e-51
5.38056e-69
1.20251e-66
2.45527e-64
4.55206e-62
7.74209e-60
1.19913e-57
1.68032e-55
2.11276e-53
2.28269e-71
5.06704e-69
1.025e-66
1.8939e-64
3.21093e-62
4.96363e-60
6.95103e-58
8.73342e-56
5.87794e-60
1.31814e-57
2.73572e-55
5.14881e-53
8.85077e-51
1.36016e-48
1.83524e-46
2.17103e-44
4.71903e-62
1.05202e-59
2.16576e-57
4.0461e-55
6.90112e-53
1.05727e-50
1.43735e-48
1.73328e-46
3.18602e-64
7.04897e-62
1.43935e-59
2.67317e-57
4.53756e-55
6.95432e-53
9.54012e-51
1.16794e-48
1.87803e-66
4.12594e-64
8.36498e-62
1.54583e-59
2.61427e-57
4.00855e-55
5.53313e-53
6.8351e-51
9.90674e-69
2.16378e-66
4.3595e-64
8.02276e-62
1.35242e-59
2.07267e-57
2.86884e-55
3.55693e-53
4.75431e-71
1.03346e-68
2.07082e-66
3.79858e-64
6.38532e-62
9.77226e-60
1.3526e-57
1.67646e-55
2.10567e-73
4.56e-71
9.10046e-69
1.66552e-66
2.79327e-64
4.26679e-62
5.89482e-60
7.28385e-58
4.95619e-49
2.30593e-48
1.26891e-48
1.61571e-49
7.3595e-51
9.48048e-50
1.81272e-52
2.488e-58
1.16332e-47
3.49392e-49
1.05372e-49
2.26863e-50
6.66833e-52
9.81093e-50
5.74674e-50
7.18185e-51
3.26876e-52
1.75457e-53
4.51073e-59
5.05393e-51
8.38197e-54
2.83577e-55
1.91252e-58
2.20882e-54
1.14453e-52
1.41354e-56
3.08188e-56
2.11549e-54
2.11561e-53
6.25891e-55
1.61023e-54
1.95561e-48
1.70753e-47
1.01825e-45
3.11921e-45
1.74725e-46
6.16066e-45
1.46619e-41
9.55584e-41
9.79057e-44
7.00235e-43
8.19853e-47
2.33658e-52
1.19668e-50
7.18922e-46
5.03662e-45
4.40697e-48
3.46505e-47
9.0894e-55
4.36345e-57
1.58087e-56
2.01732e-58
1.11263e-53
3.89926e-52
2.63834e-51
7.19023e-51
3.09802e-53
2.70253e-52
8.36146e-52
7.86345e-58
2.28414e-57
2.3234e-58
5.54766e-56
7.34304e-56
2.82416e-57
1.45212e-56
2.13525e-42
1.51917e-42
1.80651e-42
1.57829e-42
2.23466e-49
3.28572e-53
3.10246e-53
5.85106e-48
2.23392e-47
3.37954e-50
1.4861e-49
1.58105e-47
3.24437e-48
6.24638e-50
2.32786e-47
1.72498e-49
3.81548e-47
4.77271e-48
1.5339e-52
9.62064e-50
2.61518e-51
8.74566e-51
2.86772e-51
1.21045e-50
1.11834e-52
4.33143e-56
2.62606e-58
3.11624e-58
1.67364e-56
4.04968e-58
1.76523e-56
3.39787e-56
1.87376e-48
1.01082e-49
6.04292e-48
7.66271e-50
2.30943e-48
2.10445e-50
5.91415e-48
3.50994e-57
7.75858e-59
2.23131e-57
7.00794e-59
7.80094e-57
1.22199e-58
1.64957e-57
6.56514e-54
2.44517e-51
9.68077e-52
5.94822e-52
2.46405e-52
3.8077e-52
2.55685e-53
5.22481e-57
4.34896e-57
1.4014e-54
7.2834e-56
1.13716e-56
2.90989e-57
4.29022e-55
1.96159e-57
8.09643e-60
2.0384e-58
5.68059e-58
1.61224e-59
7.79922e-58
1.06097e-57
2.5982e-55
5.00833e-56
1.34067e-53
6.43236e-54
1.03921e-55
1.08172e-55
3.32172e-53
8.68376e-55
1.64319e-54
3.81426e-52
1.97807e-53
3.19051e-54
6.46237e-55
1.10556e-52
5.44509e-46
1.25272e-45
4.63316e-48
8.89412e-47
4.05435e-46
1.304e-45
2.48197e-47
2.65333e-44
1.5935e-44
2.56799e-46
7.17534e-46
2.08368e-44
1.7655e-44
1.897e-45
1.60875e-43
4.34815e-43
1.56477e-45
2.2065e-44
1.33494e-43
4.26471e-43
6.15361e-45
3.19706e-47
1.89838e-47
2.05359e-48
4.09218e-46
4.86387e-49
1.7452e-46
1.20793e-46
1.35369e-41
2.83922e-41
1.17055e-41
3.18046e-41
5.58111e-50
7.23973e-51
1.67081e-48
1.78912e-51
7.31238e-49
5.23748e-49
1.39996e-49
4.12911e-46
2.93628e-47
1.14075e-48
6.67265e-51
1.01556e-53
8.56163e-56
2.33715e-46
2.13875e-47
6.50537e-49
1.43902e-50
9.75056e-54
5.67092e-56
1.57542e-54
3.13631e-48
8.37681e-50
2.93239e-47
2.69114e-48
8.13606e-50
2.01796e-51
1.96324e-51
2.565e-55
2.45607e-57
9.87556e-54
2.30065e-55
2.36362e-57
2.53355e-48
7.84915e-50
1.20917e-47
1.11439e-48
6.65354e-50
1.92479e-51
1.63041e-51
2.43184e-57
2.25699e-55
2.05832e-57
8.20848e-54
3.94992e-56
1.23211e-55
1.53654e-57
1.20949e-50
3.03921e-52
5.29707e-58
7.6273e-57
4.19752e-56
3.47675e-58
3.19381e-55
2.37489e-57
6.05308e-57
1.66315e-55
3.03666e-57
1.59748e-55
6.65157e-55
1.08871e-55
1.39452e-57
3.46672e-56
4.43714e-58
1.43046e-55
9.93129e-58
2.91721e-56
2.14009e-46
3.15303e-46
2.50726e-48
3.26919e-47
2.57453e-47
5.75719e-47
1.78223e-49
2.39394e-51
1.26842e-51
2.04932e-49
4.1697e-49
3.31245e-50
7.19623e-50
1.77604e-50
3.37523e-51
2.14336e-49
1.24728e-51
3.25852e-49
1.23908e-49
4.06951e-50
1.62973e-53
4.54325e-55
2.99736e-54
4.74234e-52
1.40654e-51
9.39421e-53
2.74738e-52
4.42582e-51
1.58035e-52
2.73045e-52
6.7317e-50
3.17397e-49
3.86596e-50
3.76929e-50
1.2124e-42
5.00519e-43
8.16999e-43
4.40642e-45
1.55067e-44
2.84491e-45
1.06146e-44
1.62787e-40
5.13246e-41
2.10565e-40
9.38892e-43
2.35646e-42
3.96834e-43
2.22643e-42
1.13988e-46
2.14726e-49
7.72365e-49
1.77716e-47
9.03658e-47
4.37165e-49
1.55331e-48
1.95426e-44
3.02685e-47
1.42585e-46
3.16361e-45
2.08394e-44
7.93692e-47
3.10242e-46
3.0417e-52
1.78468e-54
4.53953e-54
1.79277e-52
2.66723e-52
1.7262e-54
3.64075e-54
3.55395e-55
4.44464e-53
2.06838e-55
1.63147e-53
7.81151e-55
2.46023e-53
1.62192e-55
1.96146e-55
8.27119e-54
1.48127e-53
1.10568e-55
1.22521e-53
8.58925e-56
6.20721e-55
1.74038e-46
9.87094e-47
1.38314e-48
8.15666e-48
1.09378e-46
1.58045e-46
1.80348e-47
2.72771e-49
1.67783e-51
6.97627e-52
2.46966e-50
4.10805e-51
1.24163e-49
7.74458e-50
1.05608e-48
4.4262e-50
2.08214e-51
9.41591e-49
1.38052e-50
2.31764e-48
2.14718e-49
7.33368e-53
2.46953e-54
2.93017e-53
1.98244e-51
1.96022e-52
1.0097e-51
2.29319e-52
1.66241e-52
8.04057e-54
3.31179e-51
5.41174e-53
9.72365e-51
4.44805e-51
8.83506e-52
3.65225e-53
5.2244e-51
1.97208e-53
2.02732e-51
2.77357e-51
1.93882e-53
8.1052e-53
3.58759e-53
1.97309e-51
5.16447e-51
1.92711e-53
2.71787e-51
1.89169e-53
8.04833e-53
3.63585e-53
5.07673e-51
1.934e-53
1.93173e-51
8.11323e-53
2.67083e-51
1.89293e-53
3.30216e-53
1.65014e-51
4.53381e-51
1.6299e-53
2.35724e-51
1.63052e-53
7.21e-53
2.9277e-52
7.40678e-52
2.89363e-54
1.17382e-53
7.94694e-52
3.30478e-54
1.43436e-53
3.08198e-58
5.11503e-56
2.71892e-53
3.42647e-54
1.74255e-51
8.73338e-49
3.39344e-58
6.66836e-56
3.49911e-53
3.65561e-54
1.88466e-51
9.49576e-49
4.03264e-59
2.46347e-57
1.09845e-54
5.47902e-53
2.46366e-50
5.09181e-52
3.75057e-50
1.41566e-43
3.7356e-41
3.00764e-45
6.89194e-45
9.17823e-36
1.02712e-40
3.55277e-38
2.76309e-57
2.72392e-57
3.03608e-59
1.607e-59
3.01188e-59
2.1176e-59
9.45456e-58
9.04397e-57
9.63927e-58
1.14756e-56
5.14056e-55
7.5868e-54
5.05853e-55
4.76643e-56
4.59682e-56
5.1689e-58
2.52455e-56
8.29741e-56
3.04813e-58
7.95848e-58
2.57015e-56
8.39966e-56
2.88182e-55
1.30182e-53
4.31474e-53
5.23796e-56
4.20352e-55
1.33444e-53
4.36793e-53
2.67811e-52
6.6522e-51
2.57699e-50
2.68156e-53
6.80246e-51
1.37493e-50
2.88066e-57
3.31839e-59
1.95203e-59
2.76903e-59
1.69693e-59
1.20865e-57
1.42467e-56
7.66211e-58
9.39726e-57
6.50925e-55
4.11534e-55
4.72499e-56
6.24665e-58
3.2458e-56
9.92878e-56
2.62476e-58
6.64448e-58
2.09898e-56
7.62533e-56
5.2467e-55
1.71073e-53
5.25016e-53
4.27672e-56
3.58492e-55
1.11321e-53
4.03617e-53
8.82422e-51
2.80265e-50
2.23422e-53
5.73677e-51
1.48091e-50
5.85464e-60
9.58943e-61
4.83046e-59
5.27866e-58
1.05785e-57
1.41312e-56
2.21877e-56
1.13677e-55
2.99257e-59
1.15736e-57
3.33485e-57
1.77562e-56
5.46546e-55
1.58091e-54
2.37158e-56
2.48843e-55
5.23462e-55
8.46308e-55
2.52291e-52
6.89487e-52
2.57129e-54
7.90136e-53
3.53915e-52
1.02493e-54
3.24082e-50
8.7732e-54
1.47775e-49
3.43685e-48
3.3262e-47
3.7943e-53
8.81636e-54
7.32002e-51
8.64261e-52
5.82982e-52
1.3546e-51
1.21053e-49
8.86716e-49
2.83914e-50
7.26817e-50
3.24141e-47
3.40339e-48
1.27831e-42
2.92577e-38
3.38525e-40
1.20142e-41
3.35186e-40
1.01874e-36
6.13132e-39
3.32095e-38
4.61292e-42
1.4585e-47
3.54385e-46
3.92095e-41
2.19671e-40
2.35995e-43
1.53313e-42
3.36013e-45
8.22355e-39
5.40097e-41
1.33207e-37
9.98185e-38
1.13639e-37
1.06847e-37
1.75559e-44
3.18136e-48
2.10782e-42
1.3432e-44
8.64108e-43
2.09538e-43
3.84882e-45
1.36377e-42
9.96628e-45
2.40435e-42
2.62084e-43
1.97152e-40
5.12434e-41
8.89386e-43
2.87245e-40
2.61478e-42
5.68706e-40
5.27274e-41
3.40699e-55
6.44823e-57
1.91029e-55
2.62992e-57
3.10124e-57
1.79937e-55
7.30891e-55
3.34949e-55
2.5819e-57
6.47094e-57
1.89836e-55
3.05165e-57
1.7807e-55
7.28763e-55
2.8304e-61
5.52766e-59
6.52572e-60
2.60073e-59
2.74627e-59
6.30125e-60
5.16547e-61
6.97926e-62
2.28186e-61
9.26122e-60
1.61027e-59
2.28698e-61
9.2861e-60
7.11584e-62
2.82509e-61
2.83328e-59
5.5866e-59
4.40405e-60
2.70352e-59
6.42144e-60
5.05419e-61
1.03432e-61
2.11425e-59
2.65428e-61
6.67708e-60
2.61157e-61
1.42227e-59
5.60383e-62
7.48575e-60
6.87462e-60
9.83302e-58
9.45527e-58
6.87503e-60
9.83609e-58
7.47797e-60
3.84921e-59
1.28477e-58
5.22595e-57
9.00919e-57
1.2825e-58
5.24229e-57
3.8141e-59
7.79978e-60
9.62057e-58
6.98027e-60
9.90895e-58
6.94933e-60
1.01757e-57
7.46989e-60
5.56949e-59
1.14378e-56
1.47638e-58
3.53231e-57
1.47127e-58
7.68831e-57
2.86157e-59
4.41875e-57
3.8352e-57
5.5179e-55
4.98809e-55
3.78302e-57
5.5143e-55
4.42986e-57
3.76542e-56
1.01085e-55
5.05268e-54
7.54833e-54
9.89938e-56
5.03447e-54
3.8096e-56
4.02909e-57
5.04947e-55
3.76341e-57
5.21764e-55
3.74576e-57
5.20912e-55
4.04628e-57
3.49836e-55
6.91092e-57
1.93929e-55
2.72849e-57
7.54623e-55
3.30943e-57
1.81436e-55
3.28371e-61
6.17028e-59
7.26501e-60
2.87271e-59
6.00465e-61
3.0566e-59
7.04871e-60
8.04618e-62
2.72895e-61
1.09445e-59
1.94813e-59
8.23977e-62
2.71212e-61
1.09664e-59
2.99853e-61
2.68438e-59
5.37087e-59
3.48436e-60
2.81899e-59
5.69996e-60
4.92578e-61
8.41771e-62
1.7104e-59
2.0146e-61
5.84458e-60
2.05598e-61
1.16532e-59
4.77602e-62
9.59376e-60
8.59458e-60
1.27637e-57
1.20739e-57
9.61961e-60
8.56493e-60
1.27531e-57
6.84266e-59
1.79828e-58
9.48615e-57
1.42292e-56
6.79581e-59
1.82901e-58
9.50094e-57
6.20451e-60
7.72793e-58
5.3461e-60
7.89254e-58
5.50192e-60
8.18719e-58
5.73236e-60
4.64859e-59
9.4985e-57
1.14314e-58
3.11152e-57
1.20797e-58
6.46642e-57
2.38156e-59
4.92199e-57
4.75457e-57
6.8949e-55
6.50405e-55
5.3472e-57
4.73725e-57
6.59432e-55
3.12188e-57
4.15349e-55
2.95321e-57
4.26514e-55
3.04091e-57
4.18757e-55
3.19171e-57
7.96944e-62
1.31212e-59
9.24327e-61
4.84279e-60
1.28491e-61
8.83233e-60
3.87885e-61
4.83872e-63
1.57504e-62
5.67434e-61
8.97874e-61
5.56536e-63
1.17779e-62
5.48122e-61
4.22412e-61
4.09328e-61
5.08486e-59
3.92574e-59
4.53124e-61
3.02546e-61
4.98034e-59
2.54379e-60
8.37143e-60
3.36016e-58
5.01952e-58
2.6083e-60
6.49773e-60
3.2975e-58
5.00976e-60
1.96077e-58
2.65465e-59
1.24745e-57
2.15065e-60
3.43694e-58
8.53748e-59
1.94611e-59
5.87317e-57
8.9299e-58
1.1958e-56
6.04419e-59
1.60456e-57
5.80874e-58
1.54612e-58
1.97241e-58
2.33102e-56
2.00361e-56
2.19646e-58
1.45239e-58
2.03738e-56
5.75838e-58
4.08669e-56
4.62942e-57
1.69057e-55
2.96669e-58
4.14565e-56
9.65925e-57
7.36715e-54
1.00499e-55
9.26074e-55
5.36326e-54
6.48664e-56
1.14113e-53
3.38042e-54
9.21451e-52
5.01962e-52
1.5649e-49
1.20637e-50
1.37459e-51
3.00908e-52
1.10031e-49
1.28361e-52
5.11261e-55
1.33802e-53
4.1944e-53
1.10079e-54
5.79882e-53
6.93235e-53
1.6376e-50
3.78275e-51
9.05529e-49
4.38872e-49
7.36526e-51
6.96233e-51
2.01383e-48
3.83923e-50
5.81487e-50
1.84524e-47
8.40538e-49
1.51961e-49
2.54274e-50
4.92551e-48
5.68764e-48
1.03973e-48
2.00468e-46
1.82468e-46
1.59026e-48
2.69922e-48
6.59125e-46
4.07e-41
8.91999e-41
3.84057e-43
8.75529e-42
2.8484e-41
9.39746e-41
7.66034e-42
1.64591e-39
1.07048e-39
1.65344e-41
4.72433e-41
1.32066e-39
1.20197e-39
1.37092e-40
7.39249e-39
2.22008e-38
7.83167e-41
1.00452e-39
6.37266e-39
2.16836e-38
2.68567e-40
1.3223e-42
9.69478e-43
1.02056e-43
1.83939e-41
2.22559e-44
7.38662e-42
5.21989e-42
3.1025e-39
5.95656e-39
2.53597e-39
6.7628e-39
5.41768e-45
6.78632e-46
1.58263e-43
4.78905e-46
1.3146e-43
4.94862e-44
4.64034e-44
2.23055e-36
4.24684e-34
1.18781e-55
3.03413e-54
2.09263e-52
6.79216e-46
1.03882e-46
4.56646e-38
2.66804e-42
4.72666e-60
4.09927e-59
5.52835e-59
5.76794e-58
4.1882e-58
3.13619e-57
2.87848e-57
7.11073e-56
1.42186e-51
9.47331e-56
2.62841e-54
7.26908e-52
9.01262e-53
5.79877e-44
3.65116e-39
2.29262e-41
6.16304e-40
4.79024e-40
5.40705e-40
5.36607e-40
2.10924e-47
1.53437e-43
9.09017e-46
3.66044e-62
3.5467e-60
2.88134e-60
2.31628e-60
3.68106e-60
3.68997e-61
1.59448e-61
2.94451e-62
1.32218e-59
2.16842e-60
1.3061e-59
1.51263e-61
2.98294e-60
5.1408e-61
6.64753e-57
2.29656e-58
7.38908e-58
1.68111e-56
5.57564e-59
2.56179e-56
6.8311e-57
1.0546e-54
2.37479e-57
8.14294e-56
2.72481e-55
9.39736e-57
2.30671e-55
4.08007e-55
1.24609e-52
2.68922e-53
3.61618e-51
2.12694e-51
2.92502e-53
3.89867e-53
1.38546e-50
7.52527e-42
5.16301e-42
7.75269e-44
1.9317e-43
6.20861e-42
5.94579e-42
6.35199e-43
9.98426e-46
1.63408e-47
5.44862e-45
5.44486e-47
1.16368e-44
1.00371e-45
3.9246e-45
1.43111e-45
6.60724e-48
2.75405e-47
1.81205e-46
1.08424e-47
1.26723e-44
1.32227e-45
6.58869e-46
5.31695e-43
1.11009e-43
1.06084e-35
2.75578e-36
6.17438e-36
1.62184e-38
3.65363e-38
1.05884e-37
1.08047e-37
3.54814e-42
1.29229e-42
2.17575e-40
9.2968e-40
7.18913e-42
1.05578e-39
1.37687e-41
2.49262e-40
2.80881e-38
5.02308e-40
1.45763e-45
1.512e-44
1.08511e-46
4.70084e-47
2.39719e-46
7.81021e-45
5.08767e-45
4.58452e-44
2.13701e-45
9.05003e-47
3.62365e-44
6.14736e-46
1.05724e-43
9.45001e-45
3.85814e-42
2.44416e-44
1.88806e-44
3.34135e-43
7.1856e-44
1.73934e-42
1.4851e-42
3.17555e-46
9.65067e-47
1.06016e-48
1.26676e-47
8.18764e-46
1.70973e-47
9.42075e-46
2.05494e-47
1.75455e-49
1.5244e-48
1.68339e-49
1.98618e-50
1.80371e-47
4.29573e-48
6.72092e-38
3.54663e-40
6.03101e-40
9.91525e-39
8.34656e-39
9.2171e-41
7.69282e-41
5.61604e-44
3.34713e-44
4.69457e-42
7.30301e-43
4.96562e-45
6.27228e-43
1.2341e-44
2.07256e-49
1.44683e-48
7.25142e-47
1.67747e-49
4.39317e-49
1.97894e-47
3.07234e-47
1.27863e-51
6.93748e-54
8.32285e-53
2.10961e-51
4.76189e-53
4.06639e-52
2.31236e-54
4.53159e-54
5.81807e-53
3.42448e-55
9.27958e-53
2.21016e-54
1.81833e-53
1.09995e-55
8.96994e-54
6.18382e-54
8.14552e-55
3.63486e-52
5.78686e-52
8.29931e-53
1.8158e-52
7.78431e-51
4.16455e-53
3.61664e-53
3.09998e-50
5.71945e-52
2.87006e-50