/*--------------------------------*- C++ -*----------------------------------*\
  =========                 |
  \\      /  F ield         | OpenFOAM: The Open Source CFD Toolbox
   \\    /   O peration     | Website:  https://openfoam.org
    \\  /    A nd           | Version:  9
     \\/     M anipulation  |
\*---------------------------------------------------------------------------*/
FoamFile
{
    format      ascii;
    class       volVectorField;
    location    "0.001";
    object      rhoU;
}
// * * * * * * * * * * * * * * * * * * * * * * * * * * * * * * * * * * * * * //

dimensions      [1 -2 -1 0 0 0 0];

internalField   nonuniform List<vector> 
51032
(
(0 0 0)
(-9.20103e-51 0 0)
(3.79753e-52 0 0)
(1.51068e-58 0 0)
(2.80142e-58 0 0)
(1.07095e-58 0 0)
(1.79298e-58 0 0)
(-8.13463e-53 0 0)
(-7.23393e-46 0 0)
(-1.12113e-41 0 0)
(-5.14185e-37 0 0)
(-4.54794e-35 0 0)
(-7.88481e-33 0 0)
(-1.62469e-30 0 0)
(-1.60478e-28 0 0)
(-8.91135e-27 0 0)
(-1.54021e-24 0 0)
(-1.05294e-23 0 0)
(-4.47173e-23 0 0)
(-2.32812e-22 0 0)
(3.64994e-23 0 0)
(9.77597e-23 0 0)
(9.9659e-24 0 0)
(1.0609e-24 0 0)
(0 0 0)
(0 0 0)
(-1.02785e-48 0 0)
(3.57891e-50 0 0)
(2.48807e-56 0 0)
(4.71681e-56 0 0)
(1.71752e-56 0 0)
(2.63865e-56 0 0)
(-8.66088e-50 0 0)
(-3.56843e-43 0 0)
(-6.34605e-39 0 0)
(-1.45299e-34 0 0)
(-1.20477e-32 0 0)
(-2.22316e-30 0 0)
(-4.21266e-28 0 0)
(-3.81334e-26 0 0)
(-2.01233e-24 0 0)
(-3.26041e-22 0 0)
(-1.604e-21 0 0)
(-6.17072e-21 0 0)
(-3.04055e-20 0 0)
(4.82145e-21 0 0)
(1.3023e-20 0 0)
(1.76993e-21 0 0)
(2.02333e-22 0 0)
(0 0 0)
(0 0 0)
(-1.08728e-46 0 0)
(3.2663e-48 0 0)
(3.96874e-54 0 0)
(7.78833e-54 0 0)
(2.68701e-54 0 0)
(3.62075e-54 0 0)
(-8.68487e-47 0 8.52651e-16)
(-1.71782e-40 0 4.26326e-16)
(-4.04988e-36 0 0)
(-3.969e-32 0 0)
(-3.08704e-30 0 0)
(-6.2066e-28 0 0)
(-1.08354e-25 0 0)
(-8.98115e-24 0 0)
(-4.41976e-22 0 0)
(-6.71764e-20 0 0)
(-2.2949e-19 0 0)
(-8.30085e-19 0 0)
(-4.18661e-18 0 0)
(6.61369e-19 0 0)
(1.83066e-18 0 0)
(3.07611e-19 0 0)
(3.7285e-20 0 0)
(0 0 0)
(0 0 0)
(-1.08554e-44 0 0)
(2.91462e-46 0 0)
(6.12278e-52 0 0)
(5.16115e-52 0 1.60849e-14)
(2.37962e-52 0 -1.70086e-14)
(2.31952e-52 0 2.19964e-14)
(-3.34515e-44 0 2.89901e-14)
(-3.22271e-38 0 2.7236e-14)
(-9.27075e-34 0 2.13163e-16)
(-1.0495e-29 0 0)
(-7.74043e-28 0 0)
(-1.69778e-25 0 0)
(-2.7508e-23 0 0)
(-2.11895e-21 0 0)
(-9.38257e-20 0 0)
(-5.37292e-18 0 2.00724e-14)
(-2.87169e-17 0 0)
(-1.22055e-16 -1.97988e-15 0)
(-2.65159e-16 -9.16112e-15 1.78613e-14)
(4.58519e-17 -1.56182e-14 -2.39859e-14)
(2.92201e-16 -6.48772e-15 -5.52644e-15)
(5.50262e-17 -1.42109e-16 0)
(6.61508e-18 0 0)
(0 0 0)
(0 0 0)
(-1.01908e-42 0 0)
(2.65836e-44 0 0)
(3.68373e-50 0 -1.60849e-14)
(3.31173e-50 0 0)
(3.27455e-50 0 -2.58104e-14)
(1.39213e-50 0 0)
(-1.25628e-41 0 9.9476e-16)
(-5.85099e-36 0 4.9738e-16)
(-1.64198e-31 0 0)
(-2.69995e-27 0 0)
(-1.91634e-25 0 0)
(-4.45974e-23 0 0)
(-6.75697e-21 0 0)
(-5.00448e-19 0 0)
(-1.99254e-17 0 0)
(-4.1158e-16 -3.67376e-15 0)
(-3.61043e-15 -6.10702e-14 -2.52649e-14)
(-2.12642e-14 -3.28059e-13 -2.10672e-14)
(-4.32245e-14 -8.95716e-13 1.64135e-14)
(7.00973e-15 -1.26046e-12 -1.01055e-15)
(4.9763e-14 -6.43255e-13 -1.44071e-14)
(1.05293e-14 -1.41348e-13 1.13687e-15)
(1.12875e-15 -1.3235e-14 0)
(0 0 0)
(0 0 0)
(-8.95464e-41 0 0)
(2.60208e-42 0 0)
(2.01468e-48 0 1.70086e-14)
(2.15293e-48 0 2.58104e-14)
(1.78334e-48 0 0)
(8.2464e-49 0 2.00724e-14)
(-1.15363e-38 0 0)
(-2.5733e-33 0 0)
(-5.78578e-29 0 0)
(-6.79488e-25 0 0)
(-4.66955e-23 0 0)
(-1.09746e-20 0 0)
(-1.55878e-18 0 0)
(-1.14595e-16 0 0)
(-4.60732e-15 -2.18411e-14 0)
(-7.49958e-14 -4.49315e-13 8.88178e-15)
(-5.35555e-13 -5.28436e-12 1.42348e-13)
(-2.22739e-12 -2.3131e-11 6.40446e-13)
(-2.85577e-12 -5.65647e-11 1.59632e-12)
(5.06232e-13 -7.78975e-11 2.27367e-12)
(3.83082e-12 -4.17454e-11 1.21101e-12)
(1.15981e-12 -1.02554e-11 2.53451e-13)
(1.84512e-13 -1.24663e-12 2.76401e-14)
(1.46372e-14 -1.09302e-13 1.13687e-15)
(0 0 0)
(-7.32057e-39 0 0)
(2.69211e-40 0 0)
(9.68531e-47 0 -2.19964e-14)
(1.19717e-46 0 0)
(9.39534e-47 0 -2.00724e-14)
(3.91792e-47 0 0)
(-1.02292e-35 0 0)
(-1.12316e-30 0 0)
(-2.00619e-26 0 0)
(-1.67255e-22 0 0)
(-1.09942e-20 0 0)
(-2.47984e-18 0 0)
(-3.29825e-16 0 0)
(-2.42764e-14 -5.85842e-14 6.39488e-16)
(-5.31936e-13 -1.94811e-12 4.60432e-14)
(-6.54051e-12 -3.14941e-11 8.79581e-13)
(-4.65076e-11 -4.25626e-10 1.15121e-11)
(-1.34539e-10 -1.34853e-09 4.74626e-11)
(-1.5898e-10 -3.04173e-09 1.08753e-10)
(2.88535e-11 -4.14586e-09 1.54842e-10)
(2.18453e-10 -2.28124e-09 8.42741e-11)
(8.18795e-11 -6.32404e-10 2.02735e-11)
(1.42113e-11 -8.58944e-11 2.44924e-12)
(1.36552e-12 -8.0371e-12 2.11955e-13)
(0 0 0)
(-5.54138e-37 0 0)
(1.23961e-38 0 -8.52651e-16)
(8.69007e-45 0 -2.89901e-14)
(1.27094e-44 0 -9.9476e-16)
(3.459e-45 0 0)
(3.65607e-45 0 0)
(-8.50726e-33 0 0)
(-5.02151e-28 0 0)
(-6.66408e-24 0 0)
(-1.60548e-20 0 -2.00724e-14)
(-2.44167e-18 0 0)
(-5.12626e-16 0 0)
(-6.43521e-14 -9.65791e-14 1.63425e-15)
(-2.19248e-12 -4.68243e-12 1.28111e-13)
(-4.33535e-11 -1.61134e-10 4.37197e-12)
(-5.07451e-10 -2.09088e-09 7.05303e-11)
(-3.69709e-09 -2.84271e-08 1.10038e-09)
(-6.3162e-09 -6.1655e-08 3.12255e-09)
(-7.45431e-09 -1.50494e-07 6.85864e-09)
(1.83442e-09 -2.04518e-07 9.68658e-09)
(9.84207e-09 -1.04037e-07 5.1854e-09)
(4.625e-09 -3.00639e-08 1.43023e-09)
(1.17513e-09 -7.37144e-09 2.33306e-10)
(1.04111e-10 -5.18821e-10 1.72646e-11)
(0 0 0)
(-3.85684e-35 0 0)
(5.11528e-37 0 -4.26326e-16)
(7.30468e-43 0 -2.7236e-14)
(6.83198e-43 0 -4.9738e-16)
(2.88581e-43 0 0)
(3.15573e-43 0 0)
(-6.41876e-30 0 0)
(-2.31823e-25 0 0)
(-2.04304e-21 0 0)
(-1.46953e-18 0 0)
(-5.05414e-16 0 0)
(-9.95557e-14 -9.85907e-14 2.13163e-15)
(-4.97368e-12 -6.49138e-12 2.07052e-13)
(-1.90223e-10 -3.46548e-10 1.13964e-11)
(-4.17818e-09 -1.39996e-08 4.79751e-10)
(-3.97724e-08 -1.43354e-07 6.50179e-09)
(-1.19974e-07 -6.42118e-07 2.3765e-08)
(-1.75737e-07 -1.45831e-06 4.26348e-08)
(-4.63457e-07 -7.33729e-06 1.96289e-07)
(-1.02609e-07 -1.36918e-05 3.81798e-07)
(3.16302e-07 -6.87196e-06 1.85529e-07)
(1.1817e-07 -9.43291e-07 2.81582e-08)
(8.79319e-08 -4.51839e-07 1.91819e-08)
(8.01357e-09 -2.64584e-08 1.28795e-09)
(0 0 0)
(-2.44509e-33 0 0)
(2.46939e-35 0 0)
(2.60544e-41 0 -2.13163e-16)
(4.2698e-41 0 0)
(2.20579e-41 0 0)
(2.49051e-41 0 0)
(-4.26377e-27 0 0)
(-1.05606e-22 0 0)
(-5.57305e-19 0 0)
(-3.14757e-16 0 0)
(-9.9365e-14 -6.70459e-14 2.13163e-15)
(-6.49927e-12 -5.40274e-12 2.143e-13)
(-3.67113e-10 -3.88741e-10 1.60676e-11)
(-1.56864e-08 -2.0866e-08 1.05563e-09)
(-1.80303e-07 -4.01535e-07 1.6834e-08)
(-7.9651e-07 -3.11567e-06 6.81434e-08)
(-2.16872e-05 -0.000101508 3.16485e-06)
(-0.000180605 -0.00121824 1.41781e-05)
(-0.0016214 -0.0240462 0.000275636)
(-0.000348158 -0.0636451 0.000786752)
(0.00172136 -0.0353458 0.000437717)
(0.000177422 -0.0020626 2.2055e-05)
(1.98095e-05 -0.0001037 2.97049e-06)
(4.19882e-07 -1.2085e-06 3.20724e-08)
(0 0 0)
(-1.3957e-31 0 0)
(1.24725e-33 0 0)
(1.47371e-39 0 0)
(3.16079e-39 0 0)
(1.52713e-39 0 0)
(1.77218e-39 0 0)
(-9.75532e-25 0 2.00724e-14)
(-4.40566e-20 0 0)
(-1.32309e-16 0 0)
(-6.39019e-14 -2.77543e-14 7.81597e-16)
(-5.08617e-12 -2.6039e-12 1.65108e-13)
(-3.70085e-10 -2.26124e-10 1.2607e-11)
(-2.07588e-08 -1.73071e-08 1.12611e-09)
(-2.47588e-07 -2.61379e-07 1.40691e-08)
(-7.54682e-06 -9.59235e-06 3.66227e-07)
(-0.00066201 -0.00191006 2.11625e-05)
(-5.69585 -18.4064 0.42723)
(-434.127 -1426.08 65.8267)
(-454.023 -3151.36 165.159)
(-67.3664 -3533.92 195.377)
(386.36 -3293.09 182.468)
(489.625 -1733.3 85.3079)
(12.1632 -37.0946 1.00435)
(0.00229859 -0.00707316 7.65817e-05)
(0 0 0)
(-7.06425e-30 0 0)
(5.70923e-32 0 0)
(8.74568e-38 0 0)
(2.09995e-37 0 0)
(9.42776e-38 0 0)
(1.11621e-37 0 0)
(-1.8786e-22 0 0)
(-1.584e-17 0 0)
(-2.75816e-14 -5.36466e-15 0)
(-2.30293e-12 -7.12804e-13 3.02206e-14)
(-1.89653e-10 -6.08953e-11 5.29248e-12)
(-1.4595e-08 -5.81521e-09 5.66289e-10)
(-3.14855e-07 -1.86346e-07 1.35508e-08)
(-1.11234e-05 -9.69227e-06 4.64392e-07)
(-0.017716 -0.0206121 0.000346942)
(-1405.33 -1831.12 99.0388)
(-2056.48 -3700.58 271.567)
(-1342.04 -3262.92 221.318)
(-763.284 -3336.5 185.705)
(-117.414 -3302.25 165.335)
(520.636 -3363.83 167.239)
(1107.28 -3267.44 212.225)
(1757.87 -3419.19 264.909)
(1798.27 -2461.51 136.914)
(0 0 0)
(-3.10294e-28 0 0)
(2.35022e-30 0 0)
(4.46866e-36 0 0)
(1.22033e-35 0 0)
(5.07307e-36 0 0)
(5.89713e-36 0 0)
(-7.44044e-20 0 0)
(-4.61655e-15 0 0)
(-5.94061e-13 -1.21778e-13 1.13687e-14)
(-4.3722e-11 -1.02497e-11 1.19625e-12)
(-3.35342e-09 -7.98606e-10 1.09374e-10)
(-3.0727e-07 -8.39253e-08 1.32996e-08)
(-4.66808e-06 -1.54531e-06 1.32045e-07)
(-0.00639198 -0.00291227 8.01486e-05)
(-2348.27 -2038.31 140.145)
(-2452.76 -2503.86 273.874)
(-2146.83 -2903.48 10.646)
(-1172.07 -2352.98 -32.0924)
(-498.285 -1866.28 30.5002)
(-72.3161 -1745.47 36.2582)
(322.989 -1753.1 27.3909)
(862.067 -2133.65 -28.1709)
(1676.08 -2717.61 -30.308)
(2046.85 -2308.09 259.516)
(0 0 0)
(-1.14501e-26 0 0)
(8.62265e-29 0 0)
(1.92179e-34 0 0)
(5.9167e-34 0 0)
(2.29299e-34 0 0)
(1.99876e-34 0 0)
(-2.37217e-17 0 0)
(-1.02245e-13 -8.17923e-15 9.9476e-16)
(-8.12571e-12 -9.85145e-13 1.99094e-13)
(-5.11162e-10 -7.29893e-11 1.66706e-11)
(-2.46393e-08 -4.31271e-09 1.17478e-09)
(-4.58578e-07 -1.01418e-07 1.34928e-08)
(-0.000113089 -3.11537e-05 2.72996e-06)
(-169.253 -83.2181 6.42911)
(-3259.4 -2016.91 273.017)
(-2850.62 -2181.52 -41.1344)
(-1479.61 -1529.64 -1.70135)
(-858.869 -1296.04 40.3574)
(-503.036 -1429.28 51.7525)
(-75.713 -1415.21 55.4114)
(341.39 -1351.65 51.9728)
(667.422 -1203.82 43.669)
(1119.93 -1315.45 28.0098)
(2306.57 -1960.7 -60.8359)
(0 0 0)
(-3.36081e-25 0 0)
(2.86997e-27 0 0)
(2.9966e-33 0 0)
(2.16322e-32 0 0)
(8.09339e-33 0 0)
(5.16618e-33 0 0)
(-5.72422e-15 0 0)
(-6.23306e-13 -6.17553e-14 1.20792e-14)
(-3.9694e-11 -4.85038e-12 1.15733e-12)
(-2.27515e-09 -2.77914e-10 7.8822e-11)
(-1.3703e-07 -1.46386e-08 5.95002e-09)
(-5.7751e-06 -8.75085e-07 1.67986e-07)
(-0.0274532 -0.00396323 0.000314638)
(-3372.01 -1160.81 186.272)
(-3345.25 -1442.36 190.66)
(-2172.04 -1173.3 -35.7308)
(-1274.63 -913.264 40.6094)
(-1058.05 -1111.23 7.58631)
(-585.748 -1160.99 33.8682)
(-80.3978 -1099.16 58.2797)
(386.426 -1058.92 48.7858)
(803.062 -1003.46 26.9048)
(1067.65 -861.097 50.2341)
(1636.09 -964.4 10.8601)
(0 0 0)
(-7.0349e-24 0 0)
(4.26397e-26 0 0)
(-4.82362e-32 0 8.52651e-16)
(4.57882e-31 0 8.52651e-16)
(7.68263e-32 0 0)
(9.48748e-32 0 0)
(-2.69731e-14 0 0)
(-1.95154e-12 -9.17108e-14 4.95248e-14)
(-1.20158e-10 -5.67962e-12 3.62363e-12)
(-7.14696e-09 -3.24677e-10 2.57933e-10)
(-4.52775e-07 -1.9058e-08 2.20405e-08)
(-2.59589e-05 -1.75096e-06 7.4394e-07)
(-0.940557 -0.0764095 0.0154603)
(-4208.46 -719.008 265.551)
(-3233.34 -833.574 106.169)
(-1780.64 -535.687 23.2816)
(-1450.46 -576.47 36.4279)
(-1118.59 -646.983 28.1081)
(-571.896 -618.395 59.7825)
(-67.9639 -500.633 97.9063)
(347.512 -489.453 86.8113)
(801.932 -533.729 59.4653)
(1149.76 -497.712 46.0887)
(1403.96 -460.627 37.638)
(0 0 0)
(-3.50857e-23 -2.27374e-14 0)
(6.71289e-26 -2.27374e-14 7.81597e-16)
(-2.59065e-30 -2.27374e-14 2.87375e-14)
(-1.08586e-31 -2.27374e-14 2.87375e-14)
(1.4925e-33 -2.27374e-14 9.9476e-16)
(-1.61177e-34 -2.27374e-14 0)
(-3.63363e-14 0 -1.01213e-14)
(-2.57508e-12 7.10543e-17 6.75726e-14)
(-1.51589e-10 2.00081e-12 4.68567e-12)
(-8.61125e-09 9.91573e-11 3.23175e-10)
(-5.04761e-07 9.51845e-09 2.56608e-08)
(-3.58311e-05 1.10281e-07 1.06251e-06)
(-2.24336 0.000392757 0.0396657)
(-4160.66 -68.8846 261.928)
(-3056.6 -220.949 101.973)
(-1771.35 -116.27 30.1825)
(-1483.58 -116.696 46.9111)
(-1115.8 -122.175 74.3856)
(-571.842 -192.194 122.469)
(-59.7891 -172.341 51.9882)
(463.183 -1193.8 231.388)
(1751.88 -1531.68 247.114)
(2878.8 -1621.63 230.642)
(3455.45 -1551.34 202.627)
(0 0 0)
(0 0 0)
(0 0 0)
(0 0 1.13687e-15)
(0 0 9.9476e-16)
(0 0 0)
(0 0 0)
(0 0 0)
(-2.82864e-13 8.81073e-14 -1.47516e-14)
(-8.46168e-11 7.21922e-12 2.86795e-12)
(-5.29075e-09 4.96391e-10 1.71395e-10)
(-2.64383e-07 2.06985e-08 1.05233e-08)
(-2.15857e-05 7.29442e-07 6.19075e-07)
(-1.15507 0.0619452 0.0188791)
(-4129.26 438.559 257.25)
(-3127.69 395.609 141.85)
(-2046.13 260.438 58.5188)
(-2350.99 180.537 114.07)
(-2222.17 4.42489 173.252)
(-1216.59 -223.415 199.415)
(-473.44 -432.228 94.4558)
(446.808 -458.259 191.994)
(1328.64 -382.807 205.424)
(1921.75 -284.662 186.41)
(1991.31 -120.059 143.185)
(0 0 2.27374e-14)
(0 0 1.68779e-14)
(0 0 0)
(0 0 0)
(0 0 0)
(0 0 0)
(0 0 0)
(0 0 0)
(1.42705e-14 -2.89901e-14 -2.43164e-14)
(-3.59308e-12 3.50993e-12 1.07292e-13)
(-1.21155e-10 8.87984e-11 4.8832e-12)
(-5.63234e-09 3.58962e-09 1.68092e-10)
(-8.00116e-06 7.69378e-07 2.38373e-07)
(-0.115406 0.0110808 0.00151621)
(-3827.97 881.872 225.466)
(-3425.8 1055.27 174.974)
(-2660.18 819.3 78.7142)
(-1880.69 781.337 130.223)
(-869.333 617.957 94.3889)
(-307.303 404.843 51.6233)
(371.802 179.224 22.8781)
(0 0 2.27374e-14)
(0 0 0)
(0 0 0)
(0 0 0)
(-2.84217e-16 0 0)
(-2.41812e-12 2.90234e-12 9.19442e-14)
(-2.10448e-10 2.73704e-11 5.33561e-12)
(-8.23493e-07 9.82378e-08 2.11708e-08)
(-0.00160298 0.000190169 1.72478e-05)
(-1772.3 698.181 88.7544)
(-3942.06 1605.98 294.108)
(-2577.72 1533.16 72.8449)
(-915.512 800.246 72.5878)
(-403.119 575.254 43.3144)
(-79.5779 310.804 21.4737)
(17.4138 92.0921 12.3231)
(0 0 2.27374e-14)
(0 0 0)
(0 0 1.62203e-14)
(0 0 0)
(0 0 6.74931e-15)
(-2.84217e-16 6.83821e-17 0)
(0 1.33563e-17 0)
(-268.39 585.293 33.1342)
(-67.1972 382.865 20.2024)
(19.1277 31.6659 6.08028)
(293.075 34.5837 14.9428)
(0.00675538 0.000902519 0.00020246)
(-1.18063 1.91074 0.0245191)
(-110.391 564.363 13.2189)
(0 0 2.17426e-14)
(0 0 0)
(0 4.59373e-14 2.39112e-14)
(0 4.54747e-14 0)
(0 4.54747e-14 0)
(0 4.54747e-14 0)
(0 4.54747e-14 -8.31297e-15)
(0 4.54747e-14 -9.70248e-15)
(0 0 0)
(0 0 0)
(0 0 0)
(0 0 0)
(-548.204 1708.74 27.0927)
(-123.377 935.252 43.6561)
(635.99 686.756 76.9453)
(12.8953 6.47679 0.4851)
(3.8297e-05 2.02915e-05 2.43714e-06)
(-5.32135e-05 0.000189722 5.98587e-06)
(-0.000411532 0.00421497 3.98094e-05)
(0 0 0)
(0 2.27374e-14 0)
(0 2.27374e-14 -8.96863e-15)
(0 2.27374e-14 0)
(0 2.27374e-14 0)
(0 2.27374e-14 0)
(0 2.27374e-14 0)
(0 0 0)
(0 0 0)
(-2.27374e-14 -1.94676e-14 0)
(0 0 -6.54197e-15)
(0 -3.06288e-14 1.20003e-14)
(-1.93003e-17 -1.5784e-14 0)
(-1.15465e-12 -2.11888e-14 2.16005e-14)
(-6.54592e-09 3.64121e-10 1.81252e-10)
(-1.73977e-05 3.75252e-06 7.60773e-07)
(-0.566131 0.201255 0.00999095)
(-1584.11 3003.97 193.7)
(-143.241 3753.99 235.994)
(681.564 2471.95 154.785)
(52.3281 71.5349 3.70447)
(0.000161077 0.000146293 9.97959e-06)
(1.73834e-07 2.88849e-07 2.53166e-08)
(-3.57217e-08 8.04356e-07 4.17e-08)
(3.18253e-08 8.19853e-07 3.49705e-08)
(0 0 0)
(0 0 0)
(0 0 0)
(0 0 0)
(0 0 0)
(0 0 0)
(0 0 0)
(0 0 0)
(0 0 0)
(0 0 0)
(0 -3.33955e-14 -1.07608e-14)
(-7.06571e-16 0 0)
(-2.29869e-13 4.50484e-14 3.19744e-15)
(-2.54156e-11 5.29496e-12 6.38707e-13)
(-2.76637e-09 1.23488e-09 1.00487e-10)
(-2.50437e-07 2.49298e-07 1.62814e-08)
(-2.67272e-05 3.31045e-05 1.31154e-06)
(-0.342711 1.17286 0.0219019)
(0.0169436 1.81888 0.0346249)
(0.0290191 0.171681 0.00268276)
(2.65748e-05 5.65789e-05 2.78322e-06)
(1.23715e-07 2.12375e-07 1.61264e-08)
(5.38897e-09 1.13593e-08 6.33338e-10)
(-2.61807e-10 2.49994e-08 9.76134e-10)
(9.15965e-10 1.40763e-08 4.53416e-10)
(0 0 0)
(0 0 0)
(0 0 0)
(0 0 0)
(0 0 0)
(0 0 0)
(0 0 0)
(0 0 0)
(0 0 0)
(0 0 0)
(0 0 0)
(0 0 0)
(-9.60293e-15 2.27374e-15 0)
(-8.05315e-13 5.33475e-13 2.15294e-14)
(-4.44184e-11 3.67889e-11 1.62068e-12)
(-2.25009e-09 3.40756e-09 1.33064e-10)
(-4.49045e-08 1.25346e-07 4.99101e-09)
(-2.67853e-07 4.4375e-06 1.14285e-07)
(-3.99671e-08 4.55058e-06 1.47898e-07)
(9.5679e-08 6.08519e-07 3.28176e-08)
(1.82427e-08 6.17098e-08 3.72337e-09)
(2.47255e-09 5.90102e-09 2.89532e-10)
(1.15536e-10 2.93053e-10 1.20767e-11)
(-9.35392e-13 6.15423e-10 2.05171e-11)
(1.92199e-11 2.75484e-10 8.18659e-12)
(0 0 0)
(-3.3903e-49 0 0)
(1.31401e-50 0 0)
(9.52882e-58 0 0)
(1.12949e-57 0 0)
(9.20453e-58 0 0)
(5.36877e-58 0 0)
(5.4746e-57 0 0)
(-2.02773e-48 0 0)
(-2.12014e-43 0 0)
(-1.19037e-39 0 0)
(-1.28728e-36 0 0)
(-5.47667e-34 0 0)
(-1.29435e-31 0 0)
(-1.59249e-29 0 0)
(-1.00027e-27 0 0)
(-3.12934e-26 0 0)
(-4.78241e-25 0 0)
(-5.04094e-24 0 0)
(-1.39364e-23 0 0)
(6.25109e-24 0 0)
(1.21707e-23 0 0)
(1.6981e-24 0 0)
(1.56105e-25 0 0)
(0 0 0)
(0 0 0)
(-3.78873e-47 0 0)
(1.23992e-48 0 0)
(1.25666e-55 0 0)
(1.52219e-55 0 0)
(1.21096e-55 0 0)
(7.22042e-56 0 0)
(7.10093e-55 0 0)
(-9.7258e-46 0 0)
(-8.19586e-41 0 0)
(-4.01236e-37 0 0)
(-3.8019e-34 0 0)
(-1.48141e-31 0 0)
(-3.28524e-29 0 0)
(-3.78984e-27 0 0)
(-2.18665e-25 0 0)
(-6.25372e-24 0 0)
(-8.83842e-23 0 0)
(-8.74017e-22 0 0)
(-2.0208e-21 0 0)
(7.85627e-22 0 0)
(1.95423e-21 0 0)
(2.99941e-22 0 0)
(2.96734e-23 0 0)
(0 0 0)
(0 0 0)
(-4.01043e-45 0 0)
(1.12043e-46 0 0)
(1.57468e-53 0 0)
(1.95456e-53 0 0)
(1.51383e-53 0 0)
(9.25021e-54 0 0)
(8.72898e-53 0 0)
(-4.61954e-43 0 0)
(-3.14308e-38 0 0)
(-1.3208e-34 0 0)
(-1.09326e-31 0 0)
(-3.91596e-29 0 0)
(-8.13936e-27 0 0)
(-8.85948e-25 0 0)
(-4.76326e-23 0 0)
(-1.2251e-21 0 0)
(-1.61723e-20 0 0)
(-1.46757e-19 0 0)
(-2.79726e-19 0 0)
(9.01079e-20 0 0)
(3.00119e-19 0 0)
(5.19332e-20 0 0)
(5.59189e-21 0 0)
(0 0 0)
(0 0 0)
(-4.00811e-43 0 0)
(9.56871e-45 0 0)
(1.8699e-51 0 0)
(2.38651e-51 0 0)
(1.79371e-51 0 0)
(1.12993e-51 0 0)
(1.07803e-50 0 0)
(-2.18542e-40 0 0)
(-1.18834e-35 0 0)
(-4.20382e-32 0 0)
(-3.04554e-29 0 0)
(-1.00862e-26 0 0)
(-1.9553e-24 0 0)
(-2.01042e-22 0 0)
(-1.03196e-20 0 0)
(-2.39123e-19 0 0)
(-2.92326e-18 0 0)
(-2.34358e-17 0 0)
(-3.73872e-17 -7.09818e-16 0)
(1.11849e-17 -1.27656e-15 0)
(4.32985e-17 0 0)
(8.72346e-18 0 0)
(1.04378e-18 0 0)
(0 0 0)
(0 0 0)
(-3.76859e-41 0 0)
(7.69655e-43 0 0)
(2.09675e-49 0 0)
(2.76336e-49 0 0)
(2.00772e-49 0 0)
(1.35825e-49 0 0)
(-8.02954e-49 0 0)
(-1.01516e-37 0 0)
(-4.37538e-33 0 0)
(-1.28359e-29 0 0)
(-8.23696e-27 0 0)
(-2.55244e-24 0 0)
(-4.58554e-22 0 0)
(-4.36133e-20 0 0)
(-2.18812e-18 0 0)
(-4.77534e-17 0 0)
(-5.01534e-16 -7.64909e-15 4.9738e-16)
(-3.48217e-15 -5.51599e-14 4.68958e-15)
(-5.07181e-15 -1.90079e-13 1.98241e-14)
(1.74833e-15 -2.42495e-13 3.09797e-14)
(5.77857e-15 -1.14509e-13 1.25766e-14)
(1.40402e-15 -2.63165e-14 1.56319e-15)
(1.89537e-16 -9.9331e-16 0)
(0 0 0)
(0 0 0)
(-3.31992e-39 0 0)
(5.80797e-41 0 0)
(2.21093e-47 0 0)
(3.02528e-47 0 0)
(2.11479e-47 0 0)
(1.51274e-47 0 0)
(-5.34294e-45 0 0)
(-4.67557e-35 0 0)
(-1.54527e-30 0 0)
(-3.76928e-27 0 0)
(-2.19738e-24 0 0)
(-6.51957e-22 0 0)
(-1.09646e-19 0 0)
(-8.9164e-18 0 0)
(-4.42057e-16 -1.41867e-15 0)
(-9.55128e-15 -7.43016e-14 8.02913e-15)
(-8.17773e-14 -7.18504e-13 1.22355e-13)
(-4.82927e-13 -3.7192e-12 6.62936e-13)
(-5.50228e-13 -1.16962e-11 1.83007e-12)
(1.56471e-13 -1.45424e-11 2.48882e-12)
(7.22228e-13 -7.12886e-12 1.27912e-12)
(2.13421e-13 -1.81094e-12 2.84857e-13)
(3.24818e-14 -2.32773e-13 2.89191e-14)
(9.9476e-16 -1.54384e-14 9.9476e-16)
(0 0 0)
(-2.72731e-37 0 0)
(4.09348e-39 0 0)
(2.18153e-45 0 0)
(3.12069e-45 0 0)
(2.08683e-45 0 0)
(1.5731e-45 0 0)
(-1.43695e-41 0 0)
(-2.16035e-32 0 0)
(-5.18365e-28 0 0)
(-1.08907e-24 0 0)
(-5.9415e-22 0 0)
(-1.73175e-19 0 0)
(-2.84075e-17 0 0)
(-1.84356e-15 -5.95311e-15 4.9738e-16)
(-8.2916e-14 -2.77593e-13 4.59721e-14)
(-9.7056e-13 -5.59008e-12 9.21361e-13)
(-5.81674e-12 -4.42583e-11 9.72868e-12)
(-2.89129e-11 -2.34579e-10 4.321e-11)
(-3.06486e-11 -7.01023e-10 1.11719e-10)
(9.44374e-12 -8.69146e-10 1.46626e-10)
(4.0734e-11 -4.39465e-10 7.80076e-11)
(1.34482e-11 -1.02906e-10 1.89451e-11)
(2.50952e-12 -1.44958e-11 2.49592e-12)
(2.42295e-13 -1.22697e-12 2.18137e-13)
(0 0 0)
(-2.07775e-35 0 0)
(2.68036e-37 0 0)
(2.00217e-43 0 0)
(3.02084e-43 0 0)
(1.91888e-43 0 0)
(1.52762e-43 0 0)
(-3.08399e-38 0 0)
(-9.97671e-30 0 0)
(-1.6725e-25 0 0)
(-3.21778e-22 0 0)
(-1.64968e-19 0 0)
(-4.71091e-17 0 0)
(-7.41961e-15 -1.13382e-14 1.27898e-15)
(-3.02504e-13 -6.05182e-13 1.22782e-13)
(-6.53198e-12 -1.83829e-11 3.838e-12)
(-6.60246e-11 -3.66006e-10 6.27281e-11)
(-3.62428e-10 -2.56043e-09 6.18353e-10)
(-1.71706e-09 -1.55134e-08 2.57536e-09)
(-1.81422e-09 -4.198e-08 6.69164e-09)
(5.97274e-10 -5.25095e-08 8.40217e-09)
(2.45445e-09 -2.97881e-08 4.75937e-09)
(7.53252e-10 -5.76906e-09 9.91474e-10)
(1.4625e-10 -7.59922e-10 1.50576e-10)
(1.62174e-11 -7.65457e-11 1.51702e-11)
(0 0 0)
(-1.45823e-33 0 0)
(1.62138e-35 0 0)
(1.69646e-41 0 0)
(2.7303e-41 0 0)
(1.63356e-41 0 0)
(1.3675e-41 0 0)
(-5.35532e-35 0 0)
(-4.48708e-27 0 0)
(-5.49006e-23 0 0)
(-9.79541e-20 0 0)
(-4.56417e-17 0 0)
(-1.19772e-14 -1.06288e-14 1.56319e-15)
(-6.36672e-13 -8.19434e-13 1.93623e-13)
(-2.04997e-11 -3.54852e-11 8.79311e-12)
(-4.44521e-10 -1.07043e-09 2.66193e-10)
(-4.02787e-09 -1.89974e-08 3.45625e-09)
(-2.5202e-08 -1.5943e-07 4.13771e-08)
(-5.11654e-08 -4.46782e-07 9.94033e-08)
(-6.38995e-08 -1.06027e-06 2.16625e-07)
(1.39825e-09 -1.4053e-06 2.81174e-07)
(6.7678e-08 -9.48794e-07 1.95847e-07)
(5.44577e-08 -3.97498e-07 8.02395e-08)
(7.6604e-09 -3.60329e-08 7.35057e-09)
(1.26929e-09 -5.58692e-09 9.90049e-10)
(0 0 0)
(-9.35196e-32 0 0)
(9.00128e-34 0 0)
(1.31431e-39 0 0)
(2.28911e-39 0 0)
(1.27721e-39 0 0)
(1.12289e-39 0 0)
(-7.57744e-32 0 0)
(-1.88914e-24 0 0)
(-1.95337e-20 0 0)
(-2.85448e-17 0 0)
(-1.17757e-14 -8.36207e-15 1.27898e-15)
(-8.22441e-13 -7.06625e-13 1.99591e-13)
(-3.71184e-11 -3.95627e-11 1.17338e-11)
(-1.25664e-09 -1.84153e-09 4.97673e-10)
(-2.99927e-08 -5.8868e-08 1.62065e-08)
(-9.40056e-08 -3.03698e-07 6.30841e-08)
(-9.90634e-07 -4.71791e-06 9.7126e-07)
(-1.00337e-05 -7.94945e-05 2.00406e-05)
(-9.67419e-06 -0.000146869 3.68093e-05)
(-2.63654e-06 -0.000309559 7.60966e-05)
(7.45425e-06 -0.00021953 5.5406e-05)
(8.37281e-06 -7.26928e-05 1.79347e-05)
(6.57895e-07 -3.74626e-06 7.1144e-07)
(1.03874e-07 -3.09977e-07 7.47553e-08)
(0 0 0)
(-5.42465e-30 0 0)
(4.55061e-32 0 0)
(9.18903e-38 0 0)
(1.76458e-37 0 0)
(9.07884e-38 0 0)
(8.41245e-38 0 0)
(-8.73244e-29 0 0)
(-7.14193e-22 0 0)
(-7.06709e-18 0 0)
(-7.08277e-15 -1.70168e-15 4.9738e-16)
(-6.8326e-13 -3.79336e-13 1.355e-13)
(-3.84212e-11 -2.51252e-11 9.57719e-12)
(-1.87159e-09 -1.49056e-09 5.21876e-10)
(-9.753e-08 -1.0407e-07 3.8618e-08)
(-2.86685e-07 -4.8234e-07 1.29479e-07)
(-3.67001e-05 -9.85337e-05 2.60398e-05)
(-0.00926532 -0.0435618 0.0117807)
(-2.85568 -14.1928 5.23739)
(-26.7591 -202.767 100.386)
(-3.05185 -396.632 205.694)
(26.1388 -225.151 114.61)
(3.65997 -18.8786 7.47998)
(0.0196959 -0.0976934 0.027309)
(3.23387e-05 -8.73297e-05 2.34536e-05)
(0 0 0)
(-2.80781e-28 0 0)
(2.07685e-30 0 0)
(5.68792e-36 0 0)
(1.23502e-35 0 0)
(5.7909e-36 0 0)
(5.65693e-36 0 0)
(-8.11687e-26 0 0)
(-2.32935e-19 0 0)
(-2.22773e-15 0 0)
(-3.48723e-13 -1.12226e-13 5.64881e-14)
(-2.25556e-11 -8.56688e-12 4.56012e-12)
(-1.27551e-09 -5.6225e-10 2.98606e-10)
(-7.37398e-08 -4.40582e-08 2.23586e-08)
(-5.25897e-07 -3.82688e-07 1.54759e-07)
(-0.00010884 -0.000123146 4.17116e-05)
(-7.07055 -11.9764 5.34381)
(-1570.13 -2831.73 1606.92)
(-1104.87 -3159.97 1515.11)
(-529.164 -2878.95 1164.57)
(-62.3122 -2760.59 1051.13)
(409.3 -2860.62 1135.87)
(969.314 -3111.43 1461.55)
(1484.19 -2915.09 1588.3)
(29.8781 -48.449 23.4776)
(0 0 0)
(-1.27275e-26 0 0)
(8.47627e-29 0 0)
(3.0215e-34 0 0)
(7.70311e-34 0 0)
(3.25594e-34 0 0)
(3.33768e-34 0 0)
(-5.95405e-23 0 0)
(-6.3117e-17 0 0)
(-9.80828e-14 -1.64254e-14 1.11555e-14)
(-7.08834e-12 -1.586e-12 1.21823e-12)
(-4.18553e-10 -1.11114e-10 8.12036e-11)
(-2.05933e-08 -7.21791e-09 4.32245e-09)
(-2.76355e-07 -1.14399e-07 5.63061e-08)
(-0.000103594 -4.89625e-05 2.89537e-05)
(-23.5902 -18.0941 12.4467)
(-2536.65 -2696.07 1737.43)
(-965.384 -1340.09 448.02)
(-543.601 -1005.58 224.346)
(-291.067 -984.729 232.582)
(-45.8814 -889.315 219.012)
(158.912 -963.154 232.732)
(407.138 -965.036 227.561)
(802.46 -1239.41 361.8)
(2255.29 -2598.85 1453.2)
(0 0 0)
(-4.91204e-25 0 0)
(3.06482e-27 0 0)
(1.29707e-32 0 0)
(4.15301e-32 0 0)
(1.57275e-32 0 0)
(1.65779e-32 0 0)
(-3.3216e-20 0 0)
(-1.39026e-14 -1.42109e-16 9.9476e-16)
(-1.22609e-12 -1.58038e-13 2.0755e-13)
(-8.41442e-11 -1.18469e-11 1.54684e-11)
(-6.49517e-09 -9.5952e-10 1.05366e-09)
(-2.34416e-07 -4.77916e-08 5.16677e-08)
(-1.30009e-05 -3.21059e-06 3.72873e-06)
(-0.342049 -0.09521 0.108878)
(-2988.86 -1918.9 1776.11)
(-1185.28 -918.017 373.766)
(-622.236 -600.045 129.814)
(-373.136 -588.835 139.801)
(-111.577 -322.625 87.6248)
(-17.3212 -305.462 87.4972)
(73.8096 -312.156 85.7745)
(242.79 -497.127 129.61)
(468.027 -548.852 181.056)
(929.795 -805.112 265.419)
(0 0 0)
(-1.53946e-23 0 0)
(9.73152e-26 0 0)
(3.8542e-31 0 0)
(1.82303e-30 0 0)
(6.24462e-31 0 0)
(6.65639e-31 0 0)
(-1.33749e-17 0 0)
(-1.08992e-13 -6.51343e-15 1.24345e-14)
(-7.85412e-12 -9.52412e-13 1.27478e-12)
(-5.0605e-10 -5.97073e-11 8.17857e-11)
(-2.71515e-08 -3.14924e-09 4.58715e-09)
(-6.17753e-07 -8.36969e-08 1.19797e-07)
(-0.000157473 -2.66606e-05 3.68354e-05)
(-221.192 -74.2456 115.722)
(-2574.09 -1039.77 1139.04)
(-871.063 -463.647 175.293)
(-521.351 -357.822 123.757)
(-181.761 -192.823 79.4277)
(-115.684 -218.458 89.739)
(-19.0841 -234.074 95.569)
(81.9912 -229.28 93.1696)
(163.544 -215.478 86.5573)
(324.722 -260.527 106.72)
(704.324 -364.779 225.491)
(0 0 0)
(-3.55964e-22 0 0)
(2.8344e-24 0 0)
(1.38147e-30 0 0)
(2.29011e-29 0 0)
(7.673e-30 0 0)
(8.35756e-30 0 0)
(-2.55695e-15 0 0)
(-3.75532e-13 -1.30187e-14 5.29354e-14)
(-2.37152e-11 -1.16096e-12 3.9384e-12)
(-1.32001e-09 -6.29268e-11 2.32808e-10)
(-5.83791e-08 -2.9433e-09 1.10265e-08)
(-1.40429e-06 -1.03581e-07 3.50202e-07)
(-0.00199885 -0.000144652 0.000531911)
(-1596.03 -250.659 892.216)
(-2005.9 -466.029 696.297)
(-778.085 -254.116 167.31)
(-264.568 -105.17 77.0647)
(-194.361 -117.876 83.5286)
(-127.397 -135.369 102.06)
(-22.8186 -162.183 130.2)
(97.3208 -154.994 122.49)
(182.779 -128.395 99.1643)
(235.039 -103.784 81.2964)
(720.617 -179.856 196.77)
(0 0 0)
(-2.06069e-21 -2.27374e-14 0)
(3.38169e-23 -2.27374e-14 -8.26899e-17)
(-1.00823e-28 -2.27374e-14 7.04939e-17)
(-4.72219e-30 -2.27374e-14 1.02334e-15)
(1.17693e-31 -2.27374e-14 4.65413e-16)
(4.37694e-32 -2.27374e-14 2.59387e-16)
(-4.51152e-15 0 7.04102e-16)
(-5.00945e-13 -1.91847e-15 7.76785e-14)
(-3.00005e-11 3.70819e-13 5.07661e-12)
(-1.63567e-09 1.42406e-11 2.90839e-10)
(-7.0833e-08 9.47624e-10 1.31991e-08)
(-2.06341e-06 -5.28746e-09 4.7816e-07)
(-0.00510124 -9.50594e-06 0.00140852)
(-2077.19 -15.689 1163.08)
(-1911.21 -96.6177 643.007)
(-657.084 -93.6387 163.996)
(-257.382 -25.1772 81.9924)
(-202.92 -28.6152 89.3076)
(-256.798 -130.586 243.744)
(-132.219 -338.95 513.736)
(397.987 -1110.95 1068.09)
(916.004 -1156.1 1026.81)
(1449.31 -1288.05 1055.56)
(2221.05 -1815.2 1191.11)
(0 0 0)
(0 0 0)
(0 0 0)
(0 0 4.27657e-15)
(0 0 0)
(0 0 0)
(0 0 0)
(0 0 0)
(-5.16526e-14 6.25278e-15 -1.16397e-14)
(-1.6666e-11 1.32552e-12 2.37825e-12)
(-1.01858e-09 9.27537e-11 1.77234e-10)
(-4.75219e-08 4.21335e-09 9.46739e-09)
(-1.35605e-06 6.97746e-08 3.13603e-07)
(-0.00256677 8.38362e-05 0.000704615)
(-1700.25 184.637 966.759)
(-2056.88 285.374 736.234)
(-722.112 85.1775 187.036)
(-309.9 60.7826 95.6438)
(-1377.92 -236.71 747.517)
(-917.663 -337.839 974.289)
(-429.999 -600.015 1252.08)
(414.349 -740.112 1241.09)
(1148.27 -727.588 1188.19)
(1622.86 -614.705 1042.06)
(1603.94 -304.7 739.826)
(0 0 -9.89992e-16)
(0 0 2.20563e-14)
(0 0 0)
(0 0 0)
(0 0 0)
(0 0 0)
(0 0 0)
(0 0 0)
(2.11896e-14 -3.18323e-14 -1.67569e-14)
(-7.05438e-13 6.7023e-13 1.24203e-13)
(-3.34885e-11 2.36573e-11 6.09797e-12)
(-2.40439e-09 2.36846e-09 4.35702e-10)
(-2.28906e-07 5.285e-08 4.81858e-08)
(-0.000304106 2.26248e-05 8.02201e-05)
(-589.532 136.317 336.044)
(-2405.27 715.05 1021.75)
(-970.639 355.052 216.665)
(-1143.62 340.889 440.864)
(-745.318 346.279 468.476)
(-279.357 282.006 293.195)
(472.915 201.347 187.85)
(0 0 5.85684e-17)
(0 0 0)
(0 0 0)
(0 0 0)
(0 0 0)
(-8.0945e-13 1.23246e-12 1.63043e-13)
(-9.6612e-12 3.46972e-12 2.38116e-12)
(-2.1171e-08 2.40976e-09 5.12489e-09)
(-4.83399e-05 7.64453e-06 1.30922e-05)
(-14.9029 4.00315 6.15184)
(-3103.59 1220.67 1817.1)
(-1462.17 539.583 422.428)
(-1617.21 1173.95 541.138)
(-374.063 422.373 259.762)
(-99.4192 287.877 151.787)
(11.8901 372.373 70.2567)
(0 0 -1.24584e-15)
(0 0 0)
(0 0 1.75293e-14)
(0 0 0)
(0 0 2.18254e-14)
(0 0 3.85346e-15)
(0 0 0)
(-882.601 1116.08 313.364)
(-230.482 602.203 199.902)
(419.371 151.945 138.013)
(18.0153 4.35969 5.71633)
(-1.60171e-05 6.24018e-05 3.3142e-05)
(-0.145813 0.258487 0.0539367)
(-22.5336 132.691 39.6648)
(0 0 -6.17524e-16)
(0 0 0)
(0 4.59373e-14 2.37478e-14)
(0 4.54747e-14 1.75176e-17)
(0 4.54747e-14 0)
(0 4.54747e-14 0)
(0 4.54747e-14 -2.41333e-14)
(0 4.54747e-14 -2.35976e-14)
(0 0 0)
(0 0 0)
(0 0 0)
(0 0 0)
(-127.091 1779.84 588.123)
(260.92 1195.35 435.671)
(1089.21 1034.37 723.605)
(0.0497366 0.0232855 0.0180948)
(2.2665e-07 1.9713e-06 4.82857e-07)
(-9.26473e-06 5.07432e-05 6.88339e-06)
(-1.4167e-06 0.000200604 3.41141e-05)
(0 0 0)
(0 2.27374e-14 -2.26934e-16)
(0 2.27374e-14 1.77717e-16)
(0 2.27374e-14 0)
(0 2.27374e-14 0)
(0 2.27374e-14 0)
(0 2.27374e-14 0)
(0 0 0)
(0 0 0)
(-2.27374e-14 -1.94676e-14 1.05507e-15)
(0 0 -1.28213e-14)
(0 -3.06302e-14 2.01877e-14)
(0 -1.94807e-14 0)
(-3.36428e-14 -2.84048e-14 5.78466e-15)
(-1.98579e-10 8.93763e-12 4.62826e-11)
(-7.75297e-07 1.32774e-07 2.3022e-07)
(-0.00290266 0.00115717 0.000692455)
(-761.541 1255.34 772.517)
(-40.1122 1906.03 1109.17)
(166.258 456.656 269.035)
(0.0696973 0.111999 0.0513373)
(1.62641e-06 1.79757e-06 6.95602e-07)
(3.38598e-08 7.62646e-08 1.89592e-08)
(-8.66092e-09 2.80255e-07 4.67758e-08)
(1.15813e-08 1.29413e-07 2.17382e-08)
(0 0 0)
(0 0 0)
(0 0 0)
(0 0 0)
(0 0 0)
(0 0 0)
(0 0 0)
(0 0 0)
(0 0 0)
(0 0 0)
(0 -3.29692e-14 0)
(0 0 -3.86392e-16)
(-2.25155e-14 2.45848e-14 1.77823e-15)
(-2.86404e-12 5.21254e-13 5.0851e-13)
(-2.94458e-10 1.11433e-10 5.63097e-11)
(-2.2702e-08 1.85899e-08 6.02505e-09)
(-1.15916e-06 1.82186e-06 4.68579e-07)
(-0.000553569 0.00235139 0.000586652)
(-7.47817e-06 0.00473398 0.00126299)
(2.33493e-05 0.000141822 4.39866e-05)
(2.28784e-07 6.66225e-07 1.9281e-07)
(2.38834e-08 4.58849e-08 1.03778e-08)
(9.78007e-10 2.524e-09 5.81427e-10)
(-1.11894e-10 8.25908e-09 1.37081e-09)
(2.46888e-10 3.64052e-09 6.25798e-10)
(0 0 0)
(0 0 0)
(0 0 0)
(0 0 0)