/*--------------------------------*- C++ -*----------------------------------*\
  =========                 |
  \\      /  F ield         | OpenFOAM: The Open Source CFD Toolbox
   \\    /   O peration     | Website:  https://openfoam.org
    \\  /    A nd           | Version:  9
     \\/     M anipulation  |
\*---------------------------------------------------------------------------*/
FoamFile
{
    format      ascii;
    class       volScalarField;
    location    "0.0035";
    object      impulseMax;
}
// * * * * * * * * * * * * * * * * * * * * * * * * * * * * * * * * * * * * * //

dimensions      [1 -1 -1 0 0 0 0];

internalField   nonuniform List<scalar> 
30836
(
1516.65
3314.95
327.86
1473.84
350.729
1086.03
1957.47
524.693
970.623
1786.06
805.818
329.365
652.697
1132.74
650.298
3682.36
2779.25
3119.53
1670.16
1293.96
1467.49
1199.84
1037.8
1137.64
1189.11
1665.39
2111.98
1500.2
1096.24
1650.87
1760.62
882.818
1205.98
623.83
1095.17
797.218
1345.87
699.985
2248.39
2019.78
2531.57
544.623
530.503
916.546
713.621
596.321
485.883
811.165
521.627
667.939
474.862
724.623
469.201
753.153
522.498
1193.99
1262.82
1345.19
559.811
495.297
710.141
650.07
538.085
522.587
698.837
325.432
368.346
384.423
303.641
301.971
404.17
423.19
378.754
410.676
341.729
422.157
315.069
576.286
466.644
338.736
318.073
372.797
364.887
307.499
397.191
402.665
806.845
1521.39
661.361
1546.44
693.062
858.311
1563.04
331.32
389.584
441.725
350.381
417.282
368.269
416.316
218.104
0.24339
0.0288326
0.000103891
9.51055e-06
2.94686
0.000578337
6.6478e-05
3.2496
121.874
46.6918
128.764
98.3086
39.7525
3.93201
36.1066
11.4189
8.59878
4.83045
36.8105
18.2537
24.6622
123.505
89.3876
121.217
121.621
106.125
229.623
145.022
122.761
74.3969
76.5355
106.409
78.827
80.6094
105.546
10.7515
3.9367
4.93259
11.2884
4.8193
9.67274
12.6834
16.9353
23.1191
19.7938
36.6339
16.2642
24.4464
19.2003
124.076
78.5845
80.5151
107.216
84.1046
82.3974
107.905
17.8906
52.1155
67.4907
55.1362
81.4595
68.2022
82.7022
114.102
145.81
127.905
146.456
147.376
146.073
77.268
59.363
65.4445
89.0738
59.3822
64.4997
77.5002
205.621
176.492
188.922
165.341
224.395
215.276
225.612
96.828
160.228
2.00705
0.000749275
0.00866325
4.11974
39.032
48.5417
1.72493
0.000548757
0.000420877
0.00908264
0.158314
0.0842222
0.245103
0.000111497
3.03721e-05
8.09944e-05
0.0001116
2.58504e-05
0.000173333
9.81453e-06
2.27781e-06
4.67019e-06
3.5596e-06
8.67985e-07
1.63074e-05
1.21988e-06
1.65295e-07
2.41324e-07
1.65884e-07
4.08691e-08
1.35939e-06
1.0893e-07
1.14313e-08
1.24642e-08
7.48765e-09
1.88263e-09
9.1008e-08
7.68972e-09
7.27094e-10
5.64518e-10
3.08992e-10
7.88463e-11
99.0345
118.438
0.444192
0.00043447
0.00581783
3.18707
35.0797
40.2699
0.828083
0.000251441
0.000259312
0.00561155
0.0877047
0.0360111
0.0937106
4.43087e-05
1.80241e-05
4.52082e-05
5.62214e-05
1.02011e-05
6.68184e-05
4.5593e-06
1.2311e-06
2.48338e-06
1.84015e-06
3.94724e-07
7.24242e-06
5.55146e-07
8.35944e-08
1.3301e-07
8.31727e-08
1.92243e-08
6.13585e-07
4.93945e-08
5.57617e-09
6.81822e-09
3.81144e-09
9.27619e-10
4.10562e-08
3.5257e-09
3.47804e-10
3.03964e-10
1.59808e-10
3.97178e-11
117.116
84.7944
0.000791516
0.00223165
1.37213
23.1729
19.0119
0.0824363
0.000114473
0.000105424
0.00167686
0.016796
0.00309149
0.00423862
1.18818e-05
7.20569e-06
1.51299e-05
1.02579e-05
1.93906e-06
2.96666e-05
1.6841e-06
4.19987e-07
8.23744e-07
4.80046e-07
1.09866e-07
2.12582e-06
1.6621e-07
2.57859e-08
4.30844e-08
2.29324e-08
5.70684e-09
1.60525e-07
1.38537e-08
1.61863e-09
2.08529e-09
1.06332e-09
2.69587e-10
1.06242e-08
9.58002e-10
9.68651e-11
8.70947e-11
4.34309e-11
1.09655e-11
100.151
22.6643
0.38348
0.0211179
0.197484
5.49317
0.93725
0.0365947
0.00264686
0.000260301
0.000311417
0.000626771
4.35891e-05
0.0003613
4.46653e-05
7.49773e-06
4.55838e-06
1.86669e-06
4.9321e-07
1.55176e-05
3.0506e-06
4.82252e-07
2.5516e-07
9.86091e-08
2.55725e-08
1.16287e-06
1.86332e-07
2.8114e-08
1.23064e-08
4.64318e-09
1.16668e-09
7.63834e-08
1.1307e-08
1.53854e-09
5.30633e-10
1.96224e-10
4.84569e-11
4.37149e-09
6.13051e-10
7.53117e-11
2.04936e-11
7.15615e-12
1.75011e-12
119.976
103.254
73.7195
30.1411
0.0432523
84.3284
37.0431
12.3885
0.464915
0.115656
0.00196719
13.3046
0.382875
0.00650249
0.00012399
2.17958e-05
1.43118e-06
0.00536943
0.000189186
1.18888e-05
2.13158e-06
4.1702e-07
7.2928e-08
1.52477e-05
4.59425e-06
6.90396e-07
1.11865e-07
1.82685e-08
3.29873e-09
9.81437e-07
2.56023e-07
3.83017e-08
5.34969e-09
7.72337e-10
1.37856e-10
6.05959e-08
1.35846e-08
2.00217e-09
2.46638e-10
3.21914e-11
5.43417e-12
3.28844e-09
6.60546e-10
9.3328e-11
1.04958e-11
1.21266e-12
1.68802e-13
161.114
106.873
42.7606
1.00282
0.021801
4.93387e-05
7.01354
55.6095
10.8549
0.0738646
0.000197026
2.2554e-06
1.02115
0.399822
0.00193187
1.5965e-05
1.19186e-06
1.3282e-07
0.0031479
6.88279e-05
3.33555e-06
5.05964e-07
6.20888e-08
6.93708e-09
5.92369e-06
1.44877e-06
2.26211e-07
2.75859e-08
3.04067e-09
3.31357e-10
3.89248e-07
8.81781e-08
1.36115e-08
1.46999e-09
1.46299e-10
1.49845e-11
2.36346e-08
4.99067e-09
7.47757e-10
7.54744e-11
6.85686e-12
6.22822e-13
1.23896e-09
2.51659e-10
3.60495e-11
3.43971e-12
2.53931e-13
8.73115e-15
7.795
6.37302
0.0244954
0.000178349
1.73489e-05
1.13052e-06
1.79515
6.63487
0.0233613
4.13392e-05
1.36671e-06
1.21402e-07
0.00113156
0.00149365
1.00905e-05
1.00344e-06
9.53056e-08
8.44852e-09
4.69614e-05
3.78585e-06
5.75661e-07
6.20402e-08
5.7821e-09
5.03094e-10
1.33245e-06
2.46572e-07
3.55742e-08
3.71096e-09
3.29343e-10
2.74452e-11
7.52619e-08
1.46491e-08
2.06849e-09
2.09801e-10
1.78101e-11
1.38304e-12
4.2465e-09
8.20393e-10
1.1291e-10
1.1152e-11
8.68992e-13
4.46259e-14
2.1655e-10
4.10054e-11
5.42156e-12
4.80577e-13
1.75836e-14
0
0.00123417
0.000635913
4.00534e-05
4.4328e-06
5.37805e-07
5.0644e-08
0.000443815
0.00114014
7.67635e-06
7.67781e-07
7.11778e-08
5.92299e-09
9.12235e-05
4.49445e-06
6.33065e-07
6.51959e-08
5.87226e-09
4.71929e-10
2.00942e-06
3.41229e-07
4.67641e-08
4.77319e-09
4.13703e-10
3.19497e-11
1.26604e-07
2.29907e-08
3.11679e-09
3.13787e-10
2.63242e-11
1.91624e-12
7.71845e-09
1.42026e-09
1.89806e-10
1.88584e-11
1.50297e-12
8.1612e-14
4.49789e-10
8.20025e-11
1.07142e-11
1.00724e-12
5.67525e-14
0
2.32859e-11
4.13638e-12
4.99131e-13
2.41319e-14
0
0
2.16365e-05
3.89746e-05
1.83618e-06
2.38425e-07
2.48218e-08
2.17862e-09
1.03027e-05
2.22264e-06
3.4956e-07
3.79323e-08
3.49481e-09
2.77123e-10
1.51752e-06
2.63428e-07
3.65259e-08
3.75989e-09
3.28006e-10
2.47618e-11
1.22803e-07
2.21621e-08
2.99331e-09
3.02833e-10
2.55307e-11
1.8333e-12
8.83326e-09
1.6039e-09
2.12607e-10
2.12396e-11
1.70876e-12
9.1192e-14
5.83802e-10
1.04612e-10
1.35687e-11
1.27984e-12
7.37297e-14
0
3.55343e-11
6.19608e-12
7.41299e-13
4.60811e-14
0
0
1.83306e-12
2.85339e-13
1.47944e-14
0
0
0
2.235e-06
5.87864e-07
8.77679e-08
1.05858e-08
1.08225e-09
9.10732e-11
5.63578e-07
1.08628e-07
1.6168e-08
1.75175e-09
1.59374e-10
1.22175e-11
7.07702e-08
1.31698e-08
1.81741e-09
1.88168e-10
1.62616e-11
1.14123e-12
6.49883e-09
1.19013e-09
1.59287e-10
1.61309e-11
1.31452e-12
6.48773e-14
5.1124e-10
9.15575e-11
1.19258e-11
1.13493e-12
6.46348e-14
0
3.56357e-11
6.20251e-12
7.45301e-13
4.60811e-14
0
0
2.18934e-12
3.3045e-13
2.0979e-14
0
0
0
8.24609e-14
1.69772e-15
0
0
0
0
2.28776
0.00295439
1.21445
0.00187146
0.000485851
0.00230099
0.000354757
0.00175742
0.0132215
2.02137
0.010387
1.70811
48.8546
7.45846
45.8221
50.0338
6.69449
44.6022
138.543
56.5302
75.9617
97.3108
138.018
54.9303
72.2416
0.00406504
1.84125
0.00569744
1.49934
0.00279345
1.55734
0.00388082
0.00104902
0.000729012
0.000393093
0.00060157
0.000812995
0.00058569
0.000311886
1.02432
0.00221231
0.015853
0.00646435
0.84132
0.00181424
0.0120317
30.7854
0.0536489
0.789338
3.53794
28.9166
0.0406314
0.581337
0.783431
0.00133602
0.000575517
0.000263248
0.00146943
0.000165336
0.000645046
0.00877764
1.5284
0.00407226
0.877291
53.3076
6.21911
43.7152
56.4503
4.14935
38.3382
149.804
53.7798
69.7387
119.83
141.603
46.9996
56.8304
0.00759784
0.856209
0.00931611
0.00270499
0.178319
0.00310485
0.000665056
0.000369664
0.000224697
0.00030091
0.000406725
0.00024941
0.000139427
0.736483
0.00145411
0.0100063
0.00295367
0.382274
0.000862896
0.00496173
27.6629
0.0336418
0.4737
1.83351
21.2731
0.0142585
0.180605
0.000899941
0.174826
0.000409158
0.000467716
0.102838
0.0138064
0.00277888
0.666844
0.0070777
0.201962
85.0309
3.33219
35.3143
83.4972
1.20157
22.0035
137.018
43.2626
50.3601
111.091
115.039
26.8616
24.4278
0.00268924
0.0865782
0.00153668
0.087189
0.0923531
0.0261488
0.000468445
0.00032031
0.000138215
0.0586248
0.00638262
0.0023541
0.000746601
0.274863
0.000505987
0.00335186
0.0025728
0.0661192
0.000406851
0.00167073
18.1965
0.00955786
0.114501
0.369356
7.46177
0.00301022
0.0190282
1.00794
29.6403
0.629843
0.105041
26.746
15.2624
0.0493176
0.119796
11.0521
2.02591
78.3791
0.728813
16.4971
62.1259
1.01209
2.88312
103.925
20.0487
14.9597
81.4823
51.8013
3.12114
0.524507
2.53703
0.495363
0.884614
28.3826
8.74242
10.9573
0.0496206
0.011694
0.00197513
20.8146
8.21699
0.919135
0.0626448
0.0349584
0.00174807
0.00104566
4.79875
0.380479
0.0226662
0.0018077
4.34584
0.0019449
0.00866169
0.164098
0.347357
0.00150844
0.00115343
113.199
50.3984
34.5317
140.155
128.392
79.5422
50.2458
89.9739
27.554
7.3719
113.214
94.0209
38.3175
7.12605
51.5052
3.5617
1.35387
68.4446
25.4115
2.50592
0.0657844
271.858
197.278
165.013
246.96
100.293
325.068
291.559
60.2524
10.1963
251.7
125.221
63.7848
4.89031
7.65368
0.00129917
183.227
144.582
1.35751
0.170021
0.000275649
4.57897e-06
69.5222
15.5377
0.000244223
1.4184e-05
2.0183e-06
2.1578e-07
0.0985669
0.000903516
6.40479e-06
8.69661e-07
9.74934e-08
9.20057e-09
8.56586e-06
1.54857e-06
3.27986e-07
4.23007e-08
4.47088e-09
3.99164e-10
32.5127
33.0862
249.34
156.652
210.246
248.867
190.48
210.218
36.2366
39.9119
274.847
160.209
209.807
265.836
161.362
205.625
95.514
314.306
95.5726
261.201
160.572
198.205
285.221
237.94
158.811
192.309
300.229
92.996
236.873
86.7257
225.582
130.926
136.238
218.242
166.683
113.099
85.245
134.705
182.889
132.731
127.864
257.162
240.015
178.307
153.153
304.352
120.038
109.287
232.707
216.948
139.022
121.732
209.073
98.3727
86.3778
199.145
133.705
100.495
55.1504
148.463
123.67
72.9581
110.078
116.979
86.3352
85.6569
99.4835
85.1156
83.3426
102.666
97.0407
78.224
73.9959
76.3877
72.1469
65.5361
84.2434
65.3432
59.182
55.6932
35.361
38.6745
31.4349
45.1327
0.225146
2.55541
0.232877
2.07402
2.31361
0.211759
0.248482
0.0219142
0.00257348
0.0239068
0.00275506
0.00237552
0.0218721
0.0240647
0.181402
1.68078
1.3377
0.124759
1.86775
0.172056
0.129711
0.0177801
0.00236888
0.00150319
0.0131649
0.00199329
0.0178932
0.0128568
0.000159907
0.000335962
0.000253569
0.000466272
0.000317451
0.000243948
0.000167282
0.000444567
0.00281438
0.00046045
0.00220857
0.00270433
0.000446039
0.000462699
0.000144936
0.000410493
0.000225263
0.000189392
0.000278526
0.000219605
0.00012137
0.000401022
0.00200393
0.00217912
0.000347836
0.00247865
0.000387641
0.000351428
0.097761
0.0176025
0.0763629
0.012744
0.0169568
0.0736628
0.101227
0.522512
2.48038
0.41251
1.96188
2.41452
0.398903
0.539837
0.0914884
0.0117126
0.0139852
0.0613124
0.0157222
0.068476
0.0824565
0.491478
1.85512
2.13603
0.339478
2.29896
0.373993
0.448648
49.0807
78.2661
78.5861
59.2566
70.4242
70.6224
59.1299
14.7852
7.49373
17.5008
7.31404
7.38025
17.3279
14.8656
79.2071
51.6018
80.4603
59.8037
71.6503
70.9877
60.5877
14.6781
7.05939
6.89668
16.6044
7.18738
17.0395
14.4774
0.0468591
0.85083
0.0809197
0.0825264
0.047181
0.00484738
0.00100651
0.00867963
0.000919226
0.00830658
0.00062527
0.00528837
0.00259673
0.000655402
0.000322988
0.00178602
0.000398018
0.00291285
0.00150752
6.60579e-05
0.000157363
0.000153233
0.000205468
9.22779e-05
0.000107574
0.000116981
0.000229922
0.00181978
0.000286765
0.00118882
0.000287869
0.00146089
0.000241951
5.00912e-05
0.000151454
9.63875e-05
0.000102877
7.89435e-05
8.56245e-05
5.84615e-05
0.00016849
0.000884848
0.000799486
0.000145418
0.00110416
0.000171488
0.000133199
0.0595322
0.0118706
0.0528515
0.00719298
0.0712208
0.00970301
0.0436981
0.338889
1.93173
0.297798
1.32235
0.396737
1.69253
0.251831
0.0476704
0.00550099
0.00559621
0.025921
0.00755943
0.0345223
0.0364015
0.278236
1.10075
1.15581
0.157899
1.42809
0.204185
0.218763
81.7628
55.0095
83.0602
62.0868
72.2954
61.3792
72.8854
13.7707
6.50807
16.0014
5.62944
14.1776
6.01637
15.196
84.1135
84.8155
57.5482
62.484
73.1222
73.2117
62.4214
13.2231
4.93059
4.71344
12.8324
5.41539
14.1474
12.4962
0.0087661
0.000826297
0.0018633
0.0041454
0.00184067
0.00495706
0.00748616
0.0560938
0.0274372
0.209746
0.280168
0.0339535
0.0462425
0.328322
0.00133821
0.000386626
0.000235688
0.00221979
0.000203728
0.00262614
0.00112181
0.000697174
0.00058282
0.000177853
0.000534737
0.000163446
0.000646124
0.00058526
0.0103119
0.0152077
0.126526
0.0567551
0.0192835
0.00803238
0.0721698
0.00508631
0.00207038
0.0189805
0.0290751
0.00268765
0.00387439
0.0381187
0.0176922
0.00387493
0.0185146
0.00197477
0.0260239
0.00269038
0.0122841
0.116449
0.896706
0.115536
0.479832
0.163913
0.667815
0.0798346
0.0117099
0.00195843
0.00995923
0.00708197
0.00265338
0.00811667
0.0107506
0.0774774
0.323827
0.310687
0.0317416
0.471206
0.051241
0.0499046
84.6325
58.267
58.5735
60.3454
72.4489
61.7585
70.9921
10.3998
3.94281
11.2546
2.5347
11.5581
3.15086
9.45374
81.4794
58.411
57.7458
57.9685
64.6348
68.4949
54.3592
9.03177
1.81024
1.71746
5.54039
2.39325
7.50777
7.48389
5.91603
1.14834
1.53139
4.81808
1.69349
4.6332
6.45887
13.0264
14.6061
19.8254
31.9902
11.5403
17.1674
20.3029
2.36371
0.738881
0.37227
3.34703
0.452399
3.42408
2.15297
1.51252
0.140381
0.205458
0.722621
0.260399
0.898485
1.29244
8.02524
11.8635
18.9803
23.3121
9.85382
9.07537
17.7482
6.14753
4.17249
14.0037
19.4294
4.3689
6.43416
16.0911
0.261649
0.0706974
0.0249064
0.37234
0.0385146
0.501574
0.175789
0.146751
0.196403
0.0256432
0.0898959
0.0430643
0.163662
0.0880152
1.75134
2.45243
11.5499
7.17955
2.87405
1.29648
8.89676
0.97865
0.306873
3.93037
4.07883
0.570218
0.617454
6.25994
73.9577
54.3793
56.453
42.9066
59.1274
49.3393
51.9024
4.15572
1.1517
3.71771
0.413392
5.82098
0.735238
2.21661
68.3015
50.4868
51.8977
35.7834
35.0226
43.4166
29.9315
2.80555
0.301171
2.43875
0.949747
0.601674
1.22694
2.5252
108.639
84.1001
81.617
95.4777
77.1152
80.7399
90.4948
82.0566
69.0376
63.7109
66.851
47.8389
57.2613
56.0906
172.066
121.234
118.188
272.633
174.882
160.728
318.944
106.333
259.764
102.73
253.623
163.749
146.562
273.73
95.1928
229.164
95.6118
215.654
148.976
32.4537
85.3731
85.9441
40.6033
101.38
101.36
40.8057
86.6742
34.4637
88.3713
40.8431
102.9
101.546
41.7073
90.2159
38.129
92.0156
44.0218
104.568
42.8286
106.216
93.566
94.7697
41.5227
45.2052
108.761
107.649
46.2293
95.8157
42.9881
44.3985
47.615
109.567
47.0153
110.045
86.2069
325.808
383.729
148.724
398.712
151.178
84.7112
94.678
45.8174
47.279
48.1182
110.076
110.287
48.5887
90.5715
50.4786
48.7719
49.3643
109.033
49.0382
107.161
87.9964
58.6703
52.9589
50.0188
104.964
104.978
55.0647
134.059
73.1437
74.2819
144.622
76.6499
76.6072
144.27
169.226
110.424
265.135
114.513
269.287
166.565
130.663
75.1784
75.7068
142.308
76.535
76.1235
143.591
124.336
75.7821
75.2397
140.486
74.0781
75.2846
138.17
157.28
312.705
97.8909
239.413
99.9852
246.972
153.431
114.99
73.8617
71.8896
131.627
72.5551
70.7785
135.248
103.449
69.4378
67.1002
127.31
67.4636
68.8844
122.919
94.7015
66.9243
69.6858
117.457
67.4081
72.0907
118.774
81.3095
366.055
145.804
283.337
83.1515
344.701
142.134
79.0706
261.976
286.659
135.339
317.436
137.624
79.5198
122.201
85.3366
86.205
86.1768
86.5682
105.096
106.803
0.0581781
2.20789
139.154
0.109578
0.121368
0.0512258
0.623777
0.43861
3.02347
35.1911
33.7839
134.347
160.66
124.473
76.507
100.308
0.452491
0.481937
0.0239154
0.233551
0.110168
0.0125827
0.242783
0.0249501
0.0116022
0.0161658
0.0503409
0.00755865
0.0380078
0.00715472
0.0400298
0.0140856
0.0888592
0.11944
0.706649
0.426521
0.138282
0.0751024
0.491228
7.22425
3.11652
2.20892
9.77153
2.3594
8.49623
8.14436
14.3278
21.4635
20.2205
33.8301
15.4151
19.4706
20.4113
134.693
71.8141
70.4139
144.91
76.859
76.613
145.247
108.152
85.4868
82.3053
124.408
83.9213
86.3267
107.805
0.231872
13.5305
53.7138
1.11689
0.102418
0.0201654
0.000529671
53.2732
30.1179
38.8273
59.3808
20.2371
73.9878
10.089
18.7392
2.50937
0.164072
58.558
27.4532
4.96369
0.189764
1.2134
0.057329
0.00270122
16.9482
0.914796
0.0542358
0.0014934
0.146973
0.0012119
0.000684295
0.264161
0.00634308
0.000657532
0.000260384
122.934
108.769
143.481
118.241
153.388
113.024
54.7707
142.022
60.4862
127.071
78.1854
43.5982
40.5985
5.13695
108.535
4.0958
83.8687
30.3987
2.73589
1.30346
0.0129726
51.5628
9.355
0.0115053
0.731949
0.0131159
0.00310207
0.000281007
42.86
57.9001
33.4574
45.5797
57.8682
33.2579
42.8836
42.9076
45.1912
57.9312
32.4497
57.8916
32.9395
42.9442
42.5843
57.8059
31.7288
42.4512
42.8652
57.437
30.7147
41.9467
40.6923
55.227
27.4428
56.6327
29.3125
40.8262
36.7703
53.0616
25.0564
31.568
39.1241
50.0145
22.138
33.6961
27.0958
40.9373
14.8905
45.9901
18.7166
29.8839
20.2569
34.8919
10.8594
10.9714
25.3617
28.0115
6.98081
14.9761
6.13881
14.0949
2.01059
20.7434
3.84975
10.771
78.7104
63.1673
46.0934
65.998
60.6822
82.448
60.7491
73.7691
52.3088
40.7733
46.3299
57.1424
67.3183
54.1529
50.0375
46.1411
20.2304
37.5212
38.8829
59.2926
28.2121
40.0509
22.8012
13.2114
11.0828
30.9033
29.9565
19.0855
57.6416
58.004
56.3333
28.2991
28.8313
28.7798
23.0391
13.181
15.632
1.79667
5.33283
10.678
20.6119
2.31021
8.49083
9.30817
1.43647
0.63503
9.41869
5.64694
1.12484
1.7518
37.7004
88.0609
178.432
139.082
125.071
33.1141
181.492
159.787
135.921
195.57
243.273
201.491
207.911
186.29
81.7118
150.367
231.833
196.745
170.402
146.188
132.886
13.8404
111.29
176.181
151.056
113.771
75.5393
82.2302
29.3637
0.0665402
137.649
55.4311
36.3794
2.41103
151.756
237.834
149.152
183.975
125.442
200.301
150.037
89.4431
91.2194
80.4061
120.112
116.686
95.4455
118.745
87.2259
56.129
65.7751
53.6939
64.8156
69.9848
85.2284
75.1003
88.5444
57.8329
66.1546
58.8851
89.2437
66.0245
50.8618
1.203
1.29179
36.6705
46.646
0.86641
0.842128
43.8492
0.696372
0.633417
27.0313
30.6078
0.24922
0.163832
24.6574
0.152878
0.0860487
9.54775
6.29225
0.0220792
0.00669622
2.5401
0.009293
0.00235029
0.355129
0.0492119
0.000866396
0.000301363
0.00945488
0.000313623
0.000130522
0.00200079
0.000210929
8.04866e-05
2.19527e-05
3.86908
0.0021562
0.0058866
0.000454589
0.000579217
3.89912e-05
0.000266974
7.34861e-06
7.06734e-05
4.15375e-06
1.86409
0.753904
0.321465
0.00268425
0.00102236
12.0019
0.000223106
2.35442e-05
1.39424e-06
0.000656254
2.8663e-05
4.20846e-06
2.7531e-07
0.000588692
3.0552e-05
6.95849e-06
4.87875e-07
3.13759e-08
1.90683e-05
5.32748e-06
4.86973e-07
3.682e-08
2.45879e-09
1.97478e-06
2.78003e-07
2.7149e-08
2.16767e-09
1.51757e-10
526.395
605.344
502.719
390.94
657.109
525.74
296.604
739.872
210.997
453.652
562.85
372.137
345.566
632.854
509.902
212.807
702.843
208.911
400.191
401.597
500.288
393.085
281.747
600.982
483.37
180.108
634.364
293.309
361.81
296.899
447.893
432.393
295.505
128.681
594.471
527.658
397.972
112.74
630.503
540.193
238.536
283.468
252.601
0.494352
391.624
424.16
389.654
274.9
15.3202
339.921
190.001
22.6695
0.124707
0.000221295
296.813
268.315
4.17349
12.2933
0.00233884
16.1197
0.00083467
0.000245802
1.10001e-05
155.79
100.633
0.000370919
2.70612e-05
5.87681e-06
20.7297
0.00082808
3.17143e-05
4.78992e-06
4.82739e-07
770.75
752.142
562.247
723.992
489.688
649.773
551.519
706.334
478.037
798.397
771.826
387.325
716.441
378.049
237.822
741.077
696.896
757.02
701.263
372.198
652.863
351.954
206.557
618.751
676.561
646.792
632.505
670.007
601.304
521.565
636.709
490.3
553.412
464.882
568.891
453.704
680.448
669.964
606.282
344.165
568.858
594.317
645.592
464.242
516.763
484.147
482.125
545.27
631.672
570.374
461.781
447.407
477.012
438.646
437.632
540.205
405.015
429.132
344.13
416.285
334.424
649.808
511.108
487.553
575.027
476.458
440.919
417.396
344.223
256.582
329.964
679.484
738.738
678.64
545.357
696.275
469.542
609.272
529.849
655.41
437.687
646.736
687.598
632.156
583.234
614.916
566.205
613.158
586.555
571.441
500.23
506.416
469.371
387.279
397.375
396.129
325.48
350.628
330.92
283.74
407.576
391.153
369.084
305.738
275.044
276.337
255.651
307.04
338.159
282.01
255.801
176.44
233.461
151.833
336.21
275.879
754.626
770.033
753.765
761.387
736.246
745.201
671.354
714.199
664.531
723.352
713.317
664.274
672.174
663.946
715.028
697.449
649.51
705.661
656.828
656.249
796.476
784.711
728.174
659.293
669.378
90.6985
382.909
470.676
157.25
477.304
157.344
90.4105
726.407
728.943
716.475
714.477
688.386
704.077
740.444
721.491
89.8296
462.479
157.263
366.051
90.123
453.416
157.255
670.773
599.884
616.322
675.201
668.504
710.408
654.065
699.818
645.243
685.347
672.415
705.772
658.323
649.651
693.44
682.615
639.432
646.753
629.087
589.347
626.987
618.676
657.47
615.512
572.06
632.65
586.521
616.473
592.361
610.875
568.193
549.898
594.095
559.967
524.367
586.541
547.584
525.921
714.854
658.036
688.875
707.509
650.001
684.293
633.612
629.822
660.501
87.5944
422.992
155.077
335.581
88.7068
411.604
153.341
593.494
525.836
547.464
590.996
631.037
652.139
599.536
634.87
588.291
603.721
542.019
490.062
483.101
549.422
491.656
543.044
545.851
490.019
483.347
541.046
548.906
491.943
566.118
620.868
613.903
589.006
604.139
580.323
573.69
545.991
558.027
593.599
534.621
581.996
524.111
555.482
523.277
538.13
484.94
467.796
534.956
525.798
474.629
505.369
491.774
440.421
454.662
485.456
510.125
458.701
469.821
531.268
497.967
506.547
499.51
499.49
467.21
435.486
466.064
419.869
385.021
463.097
430.073
394.527
668.752
602.691
617.257
503.477
567.96
546.71
496.419
557.249
595.738
538.147
556.347
534.251
464.971
521.305
492.287
453.798
508.129
464.09
386.16
430.238
180.348
349.243
123.771
279.323
126.304
283.007
177.614
333.225
91.5947
483.213
159.123
387.516
483.355
158.505
92.4658
89.74
359.185
433.697
156.297
443.891
157
89.445
530.498
625.87
551.84
578.902
520.947
616.307
539.686
418.544
372.671
339.374
515.246
409.079
368.23
335.822
403.313
356.872
305.107
493.759
375.432
342.258
291.266
511.384
563.245
480.264
483.735
534.33
528.573
441.69
539.907
509.696
450.261
412.086
531.464
470.081
360.968
357.667
285.82
424.19
306.695
346.984
260.338
441.078
526.051
520.768
398.234
378.729
444.298
436.781
375.446
511.994
446.815
368.152
321.864
427.163
353.759
285.775
286.358
247.179
310.255
207.848
251.836
185.211
688.262
640.937
685.4
647.278
678.937
630.733
637.673
671.999
651.389
603.266
666.764
618.121
609.915
624.929
499.858
579.018
532.378
516.329
466.732
565.9
515.585
173.836
204.112
156.109
145.563
45.6496
142.461
43.1881
221.672
189.296
68.7395
0.00076201
0.00010263
671.754
726.491
701.862
766.621
961.03
580.566
479.614
644.07
618.311
786.238
722.105
889.312
439.689
546.768
532.654
667.421
687.291
778.608
405.939
495.149
551.963
305.431
301.917
275.384
123.842
194.961
1.93071
0.000563741
0.000198126
1.28645e-05
1.0685e-06
77.9317
0.0019814
7.50856e-05
7.2526e-06
8.18733e-07
7.03454e-08
0.16388
0.0018923
1.7905e-05
2.93057e-06
3.15012e-07
2.62338e-08
1.41929e-05
2.81692e-06
4.02877e-07
4.54442e-08
3.96121e-09
2.44131e-05
5.41789e-06
1.19462e-06
1.50485e-07
1.5691e-08
1.33671e-09
852.37
925.219
812.435
793.239
895.905
686.619
885.81
738.577
677.675
859.334
1022.02
965.631
913.311
740.677
879.62
730.315
681.824
823.669
656.928
845.83
701.304
627.715
794.136
937.704
847.463
809.921
690.219
796.119
584.888
660.867
687.366
768.847
812.126
692.256
904.457
954.303
899.609
1047.87
1012.53
845.091
864.275
824.116
888.08
838.981
746.961
744.048
716.806
685.262
630.2
309.854
912.616
882.407
966.039
923.016
882.491
963.611
912.14
931.671
973.937
991.122
918.287
900.971
910.26
861.265
934.512
871.969
949.5
889.307
822.622
852.729
847.557
883.594
852.505
845.825
823.072
789.922
810.022
808.856
790.543
813.457
871.906
833.101
824.876
843.039
835.403
803.564
780.839
790.523
799.628
770.528
1087.48
1013.53
1077.39
1083.67
1116.69
991.224
1022.52
1051.81
851.348
848.162
935.17
865.252
883.382
819.232
834.368
886.729
955.481
902.848
934.473
862.071
849.04
916.654
862.813
876.016
835.448
896.311
868.156
879.223
909.114
842.762
844.878
844.884
799.676
852.144
818.909
875.503
823.55
778.916
821.157
813.724
831.933
791.351
807.742
800.481
748.368
779.293
759.364
766.145
764.3
814.661
774.232
764.147
791.735
783.617
748.22
735.375
732.165
750.551
719.966
990.527
908.053
957.48
934.063
975.291
878.513
888.316
924.158
802.226
783.694
837.902
774.864
800.406
739.027
762.14
765.754
842.401
808.359
798.299
758.33
774.715
821.487
763.181
794.25
743.898
783.931
720.204
701.999
750.508
675.846
718.52
726.454
671.006
698.015
708.679
742.247
677.108
702.552
752.543
740.67
739.149
728.084
725.447
713.241
848.369
773.549
805.271
737.089
788.353
733.183
715.506
760.794
589.286
654.155
632.81
604.867
712.88
794.043
780.516
709.445
650.789
769.314
755.638
629.409
742.573
651.92
643.335
598.935
706.688
640.47
625.477
736.597
701.921
589.251
558.253
641.892
637.922
580.617
687.507
597.799
553.532
528.818
589.93
582.247
536.74
588.493
593.995
521.576
487.422
553.061
573.038
571.184
456.028
511.198
528.911
430.488
415.798
455.633
451.367
326.595
222.196
169.292
37.6541
33.2033
0.0145773
0.00299741
7.80991e-05
0.000268998
292.492
131.512
133.248
204.457
202.443
132.472
66.4265
67.1755
146.419
79.849
78.9269
146.623
133.865
68.021
69.0829
146.079
77.3635
78.0742
145.659
550.614
539.498
578.702
291.285
264.641
186.459
362.527
132.492
183.283
355.453
129.194
287.026
880.019
1234.14
1109.79
930.549
700.254
1057.67
1015.57
1148.98
994.39
907.004
984.018
860.384
704.507
755.529
550.784
654.663
472.368
487.205
655.359
713.62
519.809
1158.03
1219.85
1146.12
1071.77
872.441
643.906
394.317
336.119
323.789
944.959
980.729
1010.4
1053.99
980.865
1007.39
944.523
1035.77
948.396
964.802
1186.24
930.024
972.137
910.454
944.193
854.857
886.772
1030.53
812.269
808.69
762.382
755.907
669.088
713.698
813.347
576.96
620.444
653.944
606.455
615.68
580.313
607.815
534.497
552.704
489.194
491.403
536.677
556.011
488.399
627.032
605.96
585.11
726.173
655.205
667.492
589.221
529.906
601.778
867.661
1107.39
848.063
1059.26
1315.88
1219.03
799.573
1034.78
733.789
930.591
1176.53
1035.63
665.862
874.463
584.023
703.733
971.394
771.705
1061.79
1020.37
1159.98
1102.77
1020.16
1154.3
1061.92
1038.52
1082.37
979.231
1104.54
1000.52
1131.39
1010.88
1404.77
1298.63
1383.77
1260.78
1293.99
1341.2
950.222
957.272
1076.8
1008.6
983.899
931.8
1044.81
908.031
975.368
858.716
947.116
899.535
1002.79
857.526
1248.42
1134.57
1201.44
1089.03
1084.94
1149.9
745.338
807.62
880.955
814.482
799.576
753.925
814.728
697.45
756.864
660.904
701.193
704.977
754.385
654.884
1007.08
902.115
926.826
833.781
786.063
852.845
233.505
193.313
136.242
295.55
140.391
299.734
189.844
596.136
508.694
520.02
626.403
571.819
542.341
609.702
474.761
486.634
495.202
533.88
511.425
520.952
473.487
567.294
604.045
576.446
591.928
565.754
599.321
574.258
539.604
528.985
548.844
514.53
538.027
547.185
523.71
737.23
699.827
711.039
735.953
710.868
713.975
732.71
600.418
605.123
559.621
587.638
620.643
693.301
629.007
875.793
939.02
936.033
967.967
880.291
893.148
961.723
600.608
621.448
597.773
613.706
587.152
608.844
584.665
549.445
546.838
571.282
538.258
559.059
557.998
534.184
506.38
515.277
504.205
497.314
506.524
484.478
494.098
685.589
664.1
688.107
704.707
659.366
682.703
682.916
796.764
803.192
810.511
760.934
770.391
763.787
760.364
915.545
823.768
892.374
942.148
837.787
865.224
914.022
521.999
527.912
514.548
524.047
512.83
516.41
503.964
667.649
618.395
641.935
638
638.501
660.979
615.3
386.256
425.902
409.093
462.324
416.568
486.788
444.061
612.419
564.82
585.635
610.461
563.412
588.454
584.759
730.609
716.135
726.047
704.894
712.249
720.057
732.921
781.697
741.393
759.738
719.695
749.323
733.778
712.727
485.583
483.635
494.611
462.374
473.429
483.103
471.977
833.546
835.352
880.233
852.025
856.437
909.48
908.258
661.334
679.035
667.801
653.997
643.351
650.278
661.528
586.773
557.087
562.151
587.996
593.841
570.163
565.174
573.305
537.796
504.499
568.201
514.396
537.972
603.194
564.407
533.622
549.005
544.218
542.729
561.878
527.444
868.285
769.721
839.052
775.695
850.849
811.949
887.257
533.044
511.592
536.524
545.25
518.112
541.677
520.928
779.963
763.07
760.67
753.299
742.591
738.407
754.333
699.587
674.925
655.57
670.553
679.64
692.248
677.587
803.041
698.468
765.625
696.485
734.19
765.106
807.93
500.216
491.561
503.086
492.004
503.037
492.871
481.632
862.633
830.573
888.961
809.538
869.998
794.149
846.69
698.065
672.377
710.738
725.856
702.227
666.432
689.563
615.696
587.996
593.489
597.541
603.219
580.444
575.325
675.753
682.009
664.678
685.941
674.329
657.062
668.486
459.884
429.466
482.189
496.302
516.93
465.304
467.403
679.525
612.877
648.641
646.737
674.681
638.367
611.635
685.654
725.587
636.489
635.569
663.921
683.526
722.188
564.743
544.939
568.763
555.774
529.21
552.077
531.857
491.193
496.502
500.824
468.444
475.506
485.364
478.685
263.806
252.789
299.671
323.017
261.048
321.166
251.641
630.786
608.057
637.75
590.448
617.943
625.433
598.462
685.047
683.973
712.535
691.897
673.82
704.509
693.489
723.007
739.806
737.332
725.012
694.464
713.744
704.728
631.824
632.164
645.71
604.166
653.492
610.427
624.394
621.357
569.688
598.093
620.534
597.091
566.639
586.804
535.045
509.523
521.048
530.067
502.688
515.04
516.053
502.884
524.179
508.069
507.784
511.639
496.043
489.99
470.834
448.222
456.196
449.767
459.14
435.909
445
812.972
813.007
852.046
790.461
825.056
789.547
824.587
606.166
580.654
561.341
578.075
585.23
600.78
582.062
654.894
618.928
642.531
617.417
645.579
633.441
607.805
848.15
760.979
823.787
806.281
772.355
827.176
749.757
617.478
650.616
610.128
582.975
615.407
608.923
648.485
470.601
478.096
462.274
478.974
463.525
468.519
453.629
517.264
505.597
487.601
578.628
540.254
568.237
596.634
450.737
453.281
462.702
472.814
450.287
463.81
460.807
666.09
666.529
632.181
660.715
653.256
681.083
647.701
518.111
537.011
540.567
539.731