/*--------------------------------*- C++ -*----------------------------------*\
  =========                 |
  \\      /  F ield         | OpenFOAM: The Open Source CFD Toolbox
   \\    /   O peration     | Website:  https://openfoam.org
    \\  /    A nd           | Version:  9
     \\/     M anipulation  |
\*---------------------------------------------------------------------------*/
FoamFile
{
    format      ascii;
    class       volScalarField;
    location    "0.0035";
    object      rhoE;
}
// * * * * * * * * * * * * * * * * * * * * * * * * * * * * * * * * * * * * * //

dimensions      [1 -1 -2 0 0 0 0];

internalField   nonuniform List<scalar> 
30836
(
163176
90063.1
171183
92964.9
216964
112154
123247
166660
126529
91725.3
128717
189437
147536
104250
159761
54260.2
90334.9
55199.1
64671.8
95283.6
72374.7
105151
123224
118941
122221
149649
90266.3
123865
150425
91494.8
121002
124546
125000
153551
97732.4
151386
93814.5
128480
90874.7
59698.9
56896.2
142414
157754
104086
132872
134542
164423
113076
151870
138863
184385
137052
172990
124226
163577
99137.9
92754.9
81942.1
195031
199072
151682
175528
177926
216574
167918
179356
182839
175118
187431
195218
162533
154575
178426
161814
165285
169920
181967
144680
148688
202051
218790
205607
192783
205454
172445
184979
164574
174190
175877
157625
159337
141920
140232
234802
221388
217907
253952
200098
234945
239634
419135
261664
254217
253247
253245
343066
253253
253246
313921
226517
404516
415703
375287
707081
293216
304769
326711
444707
315853
318429
386717
388837
235847
282515
258996
271802
290378
295116
590008
229434
214777
215092
246658
242378
243446
243795
307016
289896
299284
319263
295096
306645
319561
294436
326829
261272
296255
297394
321149
257427
245746
218994
225728
253018
256721
248497
262905
407973
374850
413524
425294
335132
315139
322966
441891
337521
350167
401927
323693
404595
302796
292893
268275
273216
283526
261189
291876
303734
376498
323551
438642
303946
345988
354925
275810
478468
318180
253257
253387
310386
487133
658609
294732
253256
253252
253441
257320
256038
260019
253247
253245
253246
253247
253246
253248
253245
253245
253245
253245
253245
253245
253245
253245
253245
253245
253245
253245
253245
253245
253245
253245
253245
253245
253245
253245
253245
253245
253245
289550
776733
266817
253252
253342
302325
504271
677936
273302
253250
253249
253365
255590
254508
255997
253246
253245
253246
253246
253245
253246
253245
253245
253245
253245
253245
253245
253245
253245
253245
253245
253245
253245
253245
253245
253245
253245
253245
253245
253245
253245
253245
253245
253245
378668
1.00541e+06
253259
253280
279519
513285
630040
255506
253247
253247
253278
253748
253375
253400
253245
253245
253245
253245
253245
253246
253245
253245
253245
253245
253245
253245
253245
253245
253245
253245
253245
253245
253245
253245
253245
253245
253245
253245
253245
253245
253245
253245
253245
495555
881642
259752
253765
258122
384541
291446
254054
253295
253251
253251
253269
253246
253252
253246
253245
253245
253245
253245
253245
253245
253245
253245
253245
253245
253245
253245
253245
253245
253245
253245
253245
253245
253245
253245
253245
253245
253245
253245
253245
253245
253245
253245
328919
417760
631126
894227
255529
407488
430447
439293
266779
257215
253346
452808
262879
253449
253248
253246
253245
253413
253249
253245
253245
253245
253245
253245
253245
253245
253245
253245
253245
253245
253245
253245
253245
253245
253245
253245
253245
253245
253245
253245
253245
253245
253245
253245
253245
253245
253245
362363
662202
874768
297903
254338
253246
440046
601772
526337
256247
253256
253245
287824
265899
253329
253245
253245
253245
253357
253247
253245
253245
253245
253245
253245
253245
253245
253245
253245
253245
253245
253245
253245
253245
253245
253245
253245
253245
253245
253245
253245
253245
253245
253245
253245
253245
253245
253245
476519
457953
254235
253249
253245
253245
317457
460974
254244
253246
253245
253245
253278
253314
253245
253245
253245
253245
253246
253245
253245
253245
253245
253245
253245
253245
253245
253245
253245
253245
253245
253245
253245
253245
253245
253245
253245
253245
253245
253245
253245
253245
253245
253245
253245
253245
253245
253245
253277
253262
253246
253245
253245
253245
253254
253299
253245
253245
253245
253245
253247
253245
253245
253245
253245
253245
253245
253245
253245
253245
253245
253245
253245
253245
253245
253245
253245
253245
253245
253245
253245
253245
253245
253245
253245
253245
253245
253245
253245
253245
253245
253245
253245
253245
253245
253245
253245
253246
253245
253245
253245
253245
253245
253245
253245
253245
253245
253245
253245
253245
253245
253245
253245
253245
253245
253245
253245
253245
253245
253245
253245
253245
253245
253245
253245
253245
253245
253245
253245
253245
253245
253245
253245
253245
253245
253245
253245
253245
253245
253245
253245
253245
253245
253245
253245
253245
253245
253245
253245
253245
253245
253245
253245
253245
253245
253245
253245
253245
253245
253245
253245
253245
253245
253245
253245
253245
253245
253245
253245
253245
253245
253245
253245
253245
253245
253245
253245
253245
253245
253245
253245
253245
253245
253245
253245
253245
253245
253245
253245
253245
253245
253245
332335
253327
295059
253291
253256
253291
253252
253281
253499
283348
253450
279592
256759
331335
416289
261316
328602
430860
356528
439902
551561
280321
363768
458593
576654
253329
300999
253365
301142
253295
293283
253320
253261
253258
253252
253255
253258
253255
253250
270498
253273
253568
253357
267920
253271
253491
449604
254432
271729
305584
457589
254152
267075
279921
253277
253255
253250
253276
253248
253260
253422
277306
253333
268241
269858
326309
439101
283197
311536
471394
442785
469374
592992
349774
494747
512151
659467
253450
274830
253488
253311
257866
253321
253256
253251
253249
253250
253252
253249
253247
266423
253270
253447
253292
260870
253260
253332
461622
253998
264669
286360
467960
253562
257882
253262
256060
253253
253256
255015
253547
253307
265069
253412
257479
312236
303421
483025
342800
275826
495543
519850
526910
682149
421916
632806
549123
676893
253296
255551
253277
254899
255127
253846
253253
253250
253248
254401
253402
253287
253259
259010
253255
253304
253314
254873
253254
253270
463728
253456
256247
261877
398522
253290
253765
267704
350596
262868
255319
364018
385659
254328
255963
378614
299335
395075
268229
480182
605079
279510
334390
701667
531328
604432
640752
967159
345425
274671
291431
262102
270037
376473
366751
380288
254367
253488
253266
392688
367624
274828
254940
254176
253266
253268
339588
263950
253884
253277
354935
253271
253486
257978
263489
253267
253264
369999
385801
468996
414191
472118
505018
640431
489689
485471
409355
538141
654731
660093
465018
766843
346032
296143
820456
801129
344179
255928
448378
745329
905149
565456
1.17718e+06
343671
524194
1.06003e+06
662697
322280
637406
922113
452374
576555
253310
481620
697328
306307
260570
253256
253245
822243
624658
253250
253245
253245
253245
256568
253284
253245
253245
253245
253245
253245
253245
253245
253245
253245
253245
215795
218825
346005
254477
345812
354523
304146
354368
221418
223750
424934
276082
371022
491905
294657
423208
281282
425758
302439
527000
327653
480058
418102
678952
350220
515818
470280
333500
595741
463599
746413
471952
674801
670981
975883
567130
971495
269556
289146
301019
338156
312784
393151
324028
454722
476058
380806
433057
431243
526514
523013
602707
647123
507885
717151
636884
988210
745541
987944
362122
290901
353602
400078
349049
286323
302282
367708
319560
336784
345820
447903
356507
378609
536640
432814
487797
474962
701910
533330
618751
675544
621054
634846
674171
261110
343005
261090
325120
334978
260364
261930
253991
253326
254022
253320
253319
253953
254067
259579
311510
300879
257395
319767
259006
257763
253848
253307
253289
253662
253306
253820
253677
253249
253254
253250
253255
253253
253250
253249
253254
253302
253254
253290
253300
253254
253255
253248
253253
253250
253249
253252
253249
253248
253253
253286
253290
253252
253295
253253
253253
254961
253578
254622
253490
253567
254579
255015
261581
286236
260081
282651
285675
259882
261825
254861
253473
253516
254384
253546
254498
254720
261144
281388
283108
259024
284657
259520
260540
258656
262650
264947
295178
284636
286788
292922
315419
315840
362014
330904
315797
362795
314542
267342
265214
271528
298942
294991
289821
304208
316877
330074
315078
365713
315611
364139
318611
254869
283375
255918
256110
254788
253403
253274
253516
253266
253521
253263
253404
253327
253258
253253
253291
253255
253329
253289
253247
253249
253248
253249
253247
253248
253247
253250
253283
253251
253271
253251
253277
253250
253246
253248
253247
253247
253247
253247
253246
253249
253265
253263
253248
253269
253249
253248
254356
253480
254243
253392
254546
253441
254090
258951
281024
258421
274567
259801
278403
257729
254157
253361
253365
253778
253402
253932
253962
258034
271481
271562
256232
275225
256985
257111
276403
275847
282922
318728
301078
310422
309350
323007
314224
367356
322926
320584
312859
368920
290943
300615
291663
329659
334799
320237
344362
325865
318082
307191
369803
310701
369963
329084
253406
253262
253285
253323
253286
253339
253381
254159
253735
256478
257488
253830
254028
258032
253274
253253
253250
253290
253250
253298
253269
253261
253259
253249
253258
253249
253261
253259
253447
253533
255327
254298
253599
253406
254516
253353
253292
253639
253827
253307
253329
253973
253623
253331
253635
253291
253778
253307
253515
255456
267639
255520
262153
256235
264273
254887
253510
253292
253475
253419
253310
253432
253504
254793
259603
259043
253979
261445
254355
254320
326072
300768
310382
389513
354187
364040
380392
333426
302183
367484
294260
331881
295419
361920
364314
320252
333704
421694
460033
415596
456987
333155
284711
279582
337643
287575
352190
330368
300901
268878
273841
305818
274487
296291
313095
309075
345989
291180
337793
312624
343513
282008
282671
263897
259365
295623
260242
290300
283926
274701
255788
256938
265773
257593
267196
273502
314619
345327
300750
376004
314774
339825
311264
311244
311537
332599
383691
303063
328166
322371
258289
254662
253851
260479
254114
261761
257106
256495
257285
253889
255511
254257
257017
255410
279820
293670
338974
359227
291126
278307
338881
271034
260903
319491
329960
265530
266979
332175
443858
388011
352671
524806
508106
494274
551539
314438
272557
318966
262631
323988
267579
298386
516212
540787
452368
547785
611971
586281
573628
305607
260985
305570
278918
266957
281983
312104
392554
319798
337563
393869
389263
358651
427706
551878
406894
456003
598257
588991
544526
645544
257750
163133
172254
288607
243527
349422
383907
217166
375970
239420
417029
319986
498789
575349
306586
557282
336615
603880
452574
217493
247148
250358
174762
226510
229752
173029
252088
220323
254964
175721
234062
231505
176949
258188
222626
262362
178173
236785
177635
240241
267413
273585
224843
178511
249822
244366
179326
290817
226339
229045
185130
257198
181223
267318
172024
384233
401104
277212
362306
258048
184137
316513
233820
241494
191427
296443
280341
200173
357916
272158
252675
222787
314424
210167
335873
396964
361411
304073
238721
398445
359284
271535
284671
223198
231608
248397
190337
184951
259519
274705
198663
341090
183782
312254
295100
318814
240703
250624
285570
196487
203930
271678
358864
261862
274190
302076
225274
213209
322257
381759
432682
284762
509805
262352
464477
414929
405419
287205
302789
375127
240729
259494
346650
465966
322482
346993
405108
299575
278373
437705
568480
381484
436171
505330
321938
347755
471370
210194
441397
298440
513622
196724
478916
322762
226141
552510
564035
401283
514704
351997
261658
309438
258415
271839
304943
291679
326166
307917
254939
281865
278310
256914
256857
254877
261909
259792
287427
314891
345337
242731
264863
258518
316765
374748
268604
270309
254067
261203
257161
253629
261935
254044
253628
253547
254940
253450
254194
253448
254237
253516
254634
255153
262754
259367
255388
254457
260081
304384
285183
280728
318706
280027
306167
317081
305513
333227
266774
325900
301406
339040
273543
255529
215397
208259
237911
175324
180000
228035
275802
267263
234933
273756
246013
279148
291014
264614
665045
812232
290467
257690
254096
253260
396862
506644
439706
398253
431068
472827
445386
458801
310333
257772
552224
607634
377686
259432
288065
254908
253309
568351
286469
255086
253284
257997
253271
253256
263129
253498
253258
253250
425673
522326
480333
599935
413259
440543
734777
472756
873522
535810
558811
693364
738284
433376
626822
421386
811403
691724
357843
305836
253806
919605
584608
253773
282685
253808
253366
253248
340297
336471
397237
419254
339841
399097
337357
345244
424123
353567
406267
345234
402174
352000
370647
364138
411155
448923
360256
378065
416958
382970
459918
417427
430815
395744
423742
397051
427786
441675
437278
493601
412058
466355
441261
442342
498841
509863
433369
490124
440833
454064
461980
523633
415650
446627
460797
528718
383624
455323
393535
501821
307330
521819
341077
446812
398427
334356
416256
412243
359760
367045
452999
440500
434350
444690
527728
393678
492164
492909
576269
472331
486138
552356
502129
540430
559273
596193
521790
462891
484878
520860
597864
539622
694287
741148
662344
662082
635147
625931
653540
529466
501618
305762
398409
471932
577727
326073
470645
471163
297031
275161
464859
422581
290568
340078
953683
780469
817667
1.06595e+06
1.04865e+06
1.08425e+06
349085
467234
582738
384545
366260
434391
459639
442860
878733
525780
423856
568700
605120
753068
604269
677658
727203
683461
853646
953999
1.0574e+06
936672
908145
256271
984507
1.15477e+06
982179
357628
580020
602699
521754
723677
404233
658547
667828
580330
639738
503812
561947
502524
405266
631056
324412
337234
300026
358760
315004
378732
343183
333532
308606
319730
288014
305080
294586
277473
605251
282805
291255
498269
620285
274836
278364
628262
270814
272383
516635
640105
259932
258646
627096
257457
256168
440048
442102
253894
253488
344463
253530
253327
264447
255298
253261
253249
253661
253252
253248
253325
253249
253247
253246
354589
253322
253429
253261
253256
253246
253251
253245
253246
253245
302362
274251
263775
253325
253262
452550
253249
253245
253245
253253
253245
253245
253245
253253
253245
253245
253245
253245
253245
253245
253245
253245
253245
253245
253245
253245
253245
253245
554514
377674
470740
607073
297072
350912
441939
247126
250234
532597
371685
716274
795703
307459
372719
749112
259993
270854
535611
632567
417258
764283
1.22002e+06
369726
466816
916327
323642
380789
686116
899882
421157
537399
1.33393e+06
2.02131e+06
347717
509097
680813
1.2042e+06
337588
472229
1.23796e+06
1.40049e+06
1.63151e+06
284866
330265
432997
651283
982253
797528
241057
1.34665e+06
932749
257649
253249
452031
668592
429247
724314
253366
578636
253258
253250
253245
689265
1.08809e+06
253251
253246
253245
691412
253262
253246
253245
253245
253172
259365
333419
257370
268624
299246
346705
265350
281470
245634
252422
249457
254765
260726
305598
264083
301766
257335
293786
265886
300101
299658
289960
346399
322677
337979
366748
323337
417954
439394
333123
382510
471602
580945
439743
471142
314752
321357
410463
320526
432247
316027
305882
291595
315456
257051
341391
467083
340407
452023
410995
555079
380573
533759
635584
480042
566233
614133
824697
579986
643972
301980
260840
344236
443540
384013
534282
578595
224892
319205
309456
263230
249093
265906
353034
270431
287542
346991
407298
310486
329430
277847
269724
286984
342882
354540
376217
374610
350177
390955
508815
507069
549988
388154
261916
340368
399663
423280
328190
402183
585465
377389
472734
573238
797824
440870
539078
898607
578510
672793
905807
1.31857e+06
666814
1.02953e+06
259616
268666
260766
254109
261876
255723
266832
263514
276548
265767
264016
259198
267589
266496
274111
278978
261001
273861
273678
269535
268722
284196
247039
248398
250500
273070
268039
138004
255958
245672
205585
241659
202943
140038
271264
273274
279962
284615
307304
290751
266371
277451
144259
249636
208202
274096
141998
257211
211689
281960
317753
299242
334431
328122
306309
350420
310089
355837
330910
335409
304464
325879
356287
306408
332817
359286
362178
382816
424464
387934
388494
358885
391520
392238
343820
345395
363056
359349
374058
377999
433125
399350
452482
463960
410768
418274
480867
302732
342433
327597
302972
353840
330593
375346
385359
355881
162121
301642
230548
348737
154750
328647
242459
391469
462367
416702
294192
310402
275262
319312
280213
325853
287431
276472
265070
281093
269128
289755
304271
328931
350186
308844
336316
296988
317724
401995
343941
377788
356143
381209
361346
396570
445226
459462
415282
481973
419068
492409
439298
415427
366269
388139
426740
373104
408737
432551
462895
504927
540553
481068
515086
456679
484133
578427
494938
511205
515979
531200
534504
554199
616598
546683
595617
629810
564556
591830
653177
270646
312438
280119
284495
260529
320495
311774
287967
412570
471469
434692
359736
430698
404382
496544
485758
453977
535502
631535
584360
220853
210291
155870
251286
149905
235860
231406
281909
136748
236522
198472
252859
239311
201204
134916
146503
284507
281608
222061
267056
215977
149806
446480
333664
358246
371706
447478
334087
371406
434461
318117
353247
366054
455563
326994
362306
467639
339603
423414
431471
548624
364675
495548
383616
336686
365277
396505
350177
379803
579260
393673
466218
499805
678693
473730
599148
592047
412077
533809
621009
774964
454666
701455
492899
360920
466538
535517
651054
427693
567269
840222
507573
649688
729340
1.14476e+06
625416
858751
856027
613038
772655
899948
1.16849e+06
733419
1.01458e+06
279255
279044
280193
290290
289522
288745
301046
292546
320755
320679
302133
301500
334306
314493
454078
346232
378347
399257
509787
356600
434109
1.32755e+06
874993
1.10571e+06
1.47041e+06
1.3822e+06
1.09002e+06
1.20101e+06
703034
735247
723640
253254
253247
376706
202941
291430
245265
225306
319001
429000
199404
276592
174779
243560
227688
405853
222851
301348
194980
295199
266681
475473
296203
252042
654377
469297
321431
790908
475421
314287
253251
253249
253245
253245
834895
253302
253246
253245
253245
253245
258729
253315
253245
253245
253245
253245
253245
253245
253245
253245
253245
253245
253245
253245
253245
253245
253245
207773
215911
194184
211034
214622
285357
228065
242860
286781
228577
213995
212841
225957
225918
215311
179407
242641
234991
292811
230196
280142
326553
254491
213511
233746
252706
265246
246182
232812
281714
291464
268162
244984
288652
234288
225144
234384
182270
184656
239935
233484
246626
202816
212385
286031
284369
307361
243474
252592
322733
203820
218969
201949
215693
218667
201605
204236
187421
183957
185681
185653
203081
215437
217180
199468
218247
200899
201489
243102
231817
238397
227950
231673
238406
243124
252418
246496
246920
251931
243930
228319
231806
240821
231853
239393
245011
253767
250872
248305
256007
200655
213765
200321
183009
184743
213546
198203
199595
241257
241914
225541
236950
235327
245869
243004
186715
183237
184815
185383
203860
217683
199378
219524
201241
221440
202381
190410
196241
189261
197529
208307
225256
236517
215189
226941
207050
216460
254005
233220
243608
235728
247547
238336
250265
267289
254640
259676
262401
262234
242818
256542
272414
245158
258843
275445
276795
287366
272122
291688
198080
218191
201467
195357
188556
223995
214199
206177
249988
257859
240816
269404
255563
283565
268030
216506
204095
205717
214223
238402
247662
224428
260624
225868
262459
236389
228165
236671
225035
240742
251898
275865
294776
262408
278292
249067
266192
312277
269872
288701
285758
291343
287448
309724
223253
259209
234761
233015
222382
273923
259025
246682
266557
248224
253410
259707
270821
202133
219418
198226
257736
199558
216906
355493
254207
317013
278763
347638
249949
316371
255199
179103
231376
204159
267322
189252
247124
346758
250167
324147
289135
368072
297406
332894
278951
206931
273892
255550
340083
235544
291921
310517
391799
274742
331847
391003
453328
307576
361198
326938
423783
562340
723437
717414
253649
253324
253246
253251
298156
214229
222766
251439
268401
216983
196700
195108
206130
168141
165515
204021
231588
197460
202067
211313
170604
166787
218941
244832
251770
237331
210188
284873
203280
185582
140629
211515
197183
144758
222202
191665
171028
166943
184342
220026
171762
168787
168062
167720
178829
177993
185687
214017
210482
230027
203853
253908
235781
224541
199600
239920
186055
170510
185624
168735
192487
228995
284768
245998
332567
188177
173227
186964
171180
172537
186501
188725
170510
170252
171916
169815
169149
169369
170660
172679
180192
173856
172022
187478
194393
196851
203756
218183
207049
201130
201225
208668
185602
214289
190120
220488
195342
210434
223203
243138
216823
229852
203974
223645
229647
235563
242170
181655
208320
189992
216798
221103
198485
163875
156924
162490
154530
156277
153949
160077
153367
164368
163161
152695
162338
178855
169312
212848
194261
168000
190905
143615
158147
142590
156303
157517
142432
143589
143272
155904
155830
141432
157064
142227
142584
141990
155728
141864
155359
140972
141773
142832
154716
140409
154779
141657
156038
141590
145453
157682
164592
149134
158902
144232
150584
139867
154202
140984
157040
148334
143651
163864
171190
154756
176900
156623
179395
161451
171838
185134
198259
176945
188357
168807
180697
153561
175020
159726
182610
173806
166451
262823
191194
138078
199958
137061
191623
196408
258858
327161
262630
209771
213981
277250
266993
333690
339559
289342
232208
266519
289236
352773
255459
239519
237418
278076
275210
258219
255903
257243
245724
239778
282822
277070
258172
264291
201445
215178
213249
218711
232644
230738
220133
349984
456948
431173
365680
377159
308255
292085
163370
159769
160302
145698
148766
149012
145482
209737
227386
226977
222857
222124
241191
239901
221398
238320
231140
232164
225549
243135
249819
273262
256514
272736
293809
275419
310328
292079
208872
202881
193790
215166
219810
226019
210441
201171
185418
184365
193092
191861
208927
210061
159149
161181
158003
145211
147546
148324
144571
247866
249483
265748
243133
259199
261031
277614
191135
199808
191768
208352
216470
207827
216622
520036
436107
454794
360229
432767
310368
408612
195972
212300
204107
212639
229084
221035
220955
236928
251133
257468
268895
249218
256125
238299
182936
189662
180493
186363
196708
206458
202795
309747
316324
292887
355920
331288
312917
337300
196061
195234
190981
179720
178782
174938
175767
371718
350694
346596
401192
396222
370728
374969
298188
316943
295653
298139
277569
275252
296005
341339
419453
350754
362431
380313
299512
288655
214464
237993
228793
246786
239929
231650
255754
156920
161287
158183
147906
144915
146729
143733
319835
304517
297981
277954
306361
299145
284516
218668
237103
236493
226850
246329
245433
227844
233149
263802
238047
247472
244228
252262
228289
161117
170939
167218
156797
150755
153157
147592
287687
307698
285338
301294
278728
297949
321558
190191
177842
174255
175995
172619
191965
188308
184476
185273
180163
195360
196494
201735
200910
246548
265842
245692
281129
260630
259055
279511
331115
305696
328597
327925
324682
348358
351634
446390
433566
364133
396183
312119
378244
408984
183770
197110
191274
208284
200381
205877
214019
183620
174459
189046
173407
164237
168011
159857
269764
256907
249704
262250
289999
282724
269079
316115
318802
296262
357267
333141
313464
336681
382923
481896
411925
284073
359241
312789
429958
361714
327253
337535
374615
386700
361933
351706
296029
313054
277065
289532
311242
275790
297151
231972
234748
213935
224173
239046
242733
220349
226402
235064
245639
254884
225989
234893
246109
200446
220400
212960
217990
231606
238638
224266
245229
275324
263656
264271
295295
274296
283970
306716
268430
285289
302255
280748
297855
320000
341809
388624
368666
383278
363918
413136
392187
212773
212165
207277
229568
223549
229096
223162
230823
259379
247357
259230
239414
250679
239246
299358
315338
322487
307976
316984
340820
332111
171468
176078
172888
189056
190850
187331
192327
204873
193675
200282
194870
186983
183494
176945
333937
331663
356659
325549
350830
347056
373751
517934
512821
578642
487936
462952
392318
402105
379952
379433
354567
334962
385161
358954
360199
292660
284534
301140
267564
306540
272045
288689
296061
287242
266161
258539
270619
250256
275007
427905
451706
422929
396924
429095
424960
401162
206452
226010
228049
208758
221072
222525
204621
270821
253764
270577
282529
264704
263930
283114
339320
320181
318279
365392
343976
362936
342150
176100
186476
182791
192678
203601
195983
200063
212834
233366
214235
219669
237883
218733
239146
242251
252491
226849
263676
246824
255023
273321
328063
329328
305787
318982
367614
341932
343600
317853
302626
282798
325507
317510
304430
340533
379220
354914
352576
373648
403306
400229
376893
342617
329878
321782
375423
366536
346127
355104
311730
287624
311049
302947
301230
326557
324890
201008
190681
206318
220394
212770
208730
225373
252265
268053
269580
280428
258128
261417
277761
238218
226858
218515
224006
252505
243779
232411
240671
225994
216641
220809
206935
197670
210226
401624
443186
413765
388450
406471
416965
377948
356704
335376
335885
315861
334903
333322
316712
316563
329153
306878
284752
316813
294551
305751
477474
427505
450405
418952
397128
445002
422626
250678
260032
237729
244978
259912
237526
250725
289636
299217
266285
276430
288116
299561
267134
206441
208016
221342
228490
204155
209890
224556
279809
258077
237114
251814
258347
263678
243078
342913
293005
345289
294715
287861
352480
418933
371959
339984
346793
366383
385213
393524
357972
323935
291559
315207
312903
304877
329023
337869
343119
382714
361690
389558
369274
408999
388612
353818
388528
544064
380934
544002
462152
333969
685476
561354
581026
629977
534018
438689
511053
352903
342511
369683
309755
324394
336907
352960
408502
414768
388131
469232
440158
418419
447507
224944
212376
218863
247273
254811
233208
239342
288136
258046
270024
280767
298381
311446
292196
411532
384833
405646
358675
383183
377328
402170
251231
244309
259348
236814
259813
237425
251666
351945
333404
330937
313098
324169
329101
309788
379727
354667
381378
396066
370459
398984
427118
337329
330210
356091
325826
344181
351641
370687
564272
480782
553595
482706
482248
389696
412810
210723
233517
222330
239183
214089
229834
218926
316994
300263
299943
285559
285583
300044
300346
269316
253021
273301
281011
257636
278196
259519
313090
304576
295141
280967
280911
304370
272096
311844
286743
319705
298678
268416
276000
295653
391379
398013
369892
415665
388327
368065
396296
482642
458882
454469
520593
515547
485516
490164
535592
466351
394452
419367
349960
449627
411776
364464
340528
344655
323177
347591
364955
370971
405956
412542
384940
462440
433393
412906
442030
295615
297244
309462
313023
323872
339333
327973
438530
513060
409159
374599
401413
604729
462920
365267
376699
352517
350101
340433
327582
365076
268799
241273
254445
248079
234128
233800
221234
363146
336403
336184
379336
351983
350732
378780
403897
429089
427225
430751
427816
456060
459318
326074
317450
319117
344635
335693
310256
292888
262528
247091
237837
261403
276336
270313
286504
284879
272770
271999
261626
272496
272630
261352
269049
253570
241796
232244
250180
228571
246273
300789
315471
301589
284868
285282
298556
296685
352372
379120
406251
393922
366987
394455
422785
474598
437318
447220
496334
507271
478889
470185
259694
261146
237926
247256
253831
266135
242381
349672
336852
332354
312914
322645
310137
324044
542111
485314
508041
503894
473337
451141
482439
381112
389327
360566
361157
341516
371842
393657
378502
354819
354956
374311
400619
399874
374247
418411
400974
391608
372411
411146
400695
382064
397871
419996
424162
414115
421923
451170
444798
107143
104891
104453
97549.7
105666
94558
106896
107702
96844.7
95233.3
94169.6
106509
96518.3
122511
109523
108455
108187
111306
109002
118681
115170
108694
114591
119876
119638
118790
98242.4
107491
109153
99130.9
108185
97659.3
99714.9
107174
98887.6
97400.6
102290
109818
100363
109839
101024
110827
101427
104212
111718
116468
106290
112803
103198
107479
100104
109395
101045
111281
105786
102803
116755
121271
110384
124547
111861
126586
114897
109659
123347
113864
121058
139025
211440
114934
115049
116775
170409
196490
251667
296869
162139
140241
118824
115925
152721
131213
121121
118040
202594
184073
324738
227021
400436
116385
120518
118529
118215
118415
128418
117383
129151
128360
129202
130726
117221
128951
117837
118757
129676
129873
130620
118133
119380
129481
118962
129673
130481
117756
129098
129252
130955
119406
128820
129953
129764
141374
129104
174248
152042
228148
128972
125254
124604
130075
164162
147934
145498
155078
198581
184808
188922
118730
140682
134088
146188
165885
159573
173830
219482
293135
284792
119226
120332
133373
121364
126625
136571
132178
137987
120884
135850
131652
150036
131820
141764
135458
143582
137647
147724
157176
141419
151318
161529
144111
154310
165122
139565
158777
152223
184094
159134
169332
163702
173661
168917
178475
193065
171715
190457
199882
177635
186824
206122
167569
204063
182153
186530
127055
169304
139030
182213
126810
167351
137249
183782
127168
164251
142134
188672
174039
150333
179671
207232
190926
193920
238126
217426
211642
244196
276436
252955
298880
340434
284357
151042
135935
133816
160306
142506
139905
122173
129999
139062
125344
132497
119902
128185
128368
123506
118483
143381
146236
131415
150600
134809
155380
139001
129199
146980
135814
183432
171290
175391
175463
199581
173194
234393
257758
151620
158205
176430
159391
163838
146232
164048
154592
163457
143091
166884
303443
177875
154630
247018
157021
222215
214418
187782
159819
139899
182033
137280
185507
187276
197678
158090
188012
213026
279123
249501
205112
174934
177496
180479
240324
193591
227861
198204
228770
219261
254568
216499
313928
249288
269079
208474
179917
196571
214144
227936
205619
195436
189714
175652
189812
205387
204129
188814
188887
194445
223222
218328
242504
237752