/*--------------------------------*- C++ -*----------------------------------*\
  =========                 |
  \\      /  F ield         | OpenFOAM: The Open Source CFD Toolbox
   \\    /   O peration     | Website:  https://openfoam.org
    \\  /    A nd           | Version:  9
     \\/     M anipulation  |
\*---------------------------------------------------------------------------*/
FoamFile
{
    format      ascii;
    class       volScalarField;
    location    "0.00165";
    object      overpressure;
}
// * * * * * * * * * * * * * * * * * * * * * * * * * * * * * * * * * * * * * //

dimensions      [1 -1 -2 0 0 0 0];

internalField   nonuniform List<scalar> 
13803
(
147482
626282
240384
573776
352700
617034
109513
516133
657805
266720
69709.1
413635
563344
496557
682723
662832
16311.4
519052
48.5435
230637
572623
262584
482437
394974
463919
35167.9
186257
201342
184561
370194
338072
288380
310476
248791
231026
509764
400847
434020
204316
400564
301627
205996
267609
396821
676869
328597
443614
297917
639572
228602
354949
246983
416410
387341
165950
184359
168879
192027
209365
224963
209768
593675
323288
327846
296672
475185
318469
540539
241508
395832
359517
448330
512909
305950
331597
201395
207880
220360
242381
249782
261533
229135
169930
192951
179258
217268
209080
224430
232376
243069
235517
241481
284051
291523
274462
281965
256494
259122
249205
315246
301582
291828
305093
245743
352856
32939.2
213831
384758
390868
121475
618758
427827
388038
540528
617338
335420
352784
301312
239223
254514
269764
303322
315296
256146
227617
193352
216233
231302
254808
246168
269748
327413
428134
701864
589171
350308
558191
592823
220296
228183
209241
242016
270534
250129
261954
295710
255810
279439
330766
298517
314041
352098
357437
313006
598180
385053
619223
555887
463175
241243
254369
264010
271700
282034
304374
294666
217645
210970
223662
250288
255326
262865
259768
286283
293579
348526
319630
330927
304429
274427
302462
260848
253154
269250
327736
318626
277328
280161
272084
289435
333981
323868
359447
351607
240638
219614
231126
272998
294797
287648
273979
312035
303762
318127
364665
346901
359015
353245
221636
261585
242497
285392
264155
288751
312315
387965
305798
444.724
411907
267113
324258
14065.7
592822
303511
429.743
566062
199036
367355
2239.43
586302
334488
365166
440682
648309
496856
591550
623295
118549
409444
602012
388458
329102
1153.41
340663
450645
350723
432218
329856
340688
447300
249762
274032
265103
293754
284270
308976
319782
605980
355344
460978
648320
484206
391173
529235
287712
318309
356885
347583
336503
296492
308420
282268
342137
316395
334807
418595
380485
362529
335654
312677
326139
372478
372939
382692
361851
473173
679357
20341.9
665448
389771
228218
585209
385743
475512
365011
357047
491737
381848
467298
276229
367830
303890
347503
293226
322953
392313
311183
326007
318421
370488
374557
363647
382348
279433
314218
288249
328670
346798
355697
319412
274754
312960
295676
116072
157452
91069.5
243428
131304
265938
183355
481681
246431
170718
283082
233993
418932
102679
119846
129661
140238
164441
173139
150568
131077
154567
141418
183635
176265
195694
162594
138137
151892
146975
180690
168991
175994
186431
198014
167425
195904
198377
225372
202976
229056
146884
167958
158827
184850
204645
195841
194415
249699
230764
244659
286241
266285
271034
292937
190521
261556
210696
218795
251813
268879
199628
175869
207752
201825
219252
209860
234887
243321
228816
288864
223912
262467
240763
278106
210805
266725
239217
256939
277925
314446
286952
302153
258475
219690
210382
217763
273261
266051
226285
227375
288135
246908
283257
239189
275922
235426
236273
315014
263527
290215
242328
269240
322658
373133
339861
310302
316711
431946
382529
348622
262209
300219
250972
277584
348593
288948
333746
325993
416234
377973
451854
338702
396501
360858
321547
346903
313212
445878
394928
394111
453603
622944
459110
412295
392846
157597
537567
630119
253346
270204
271243
324444
310402
345283
363080
314021
369334
324618
346840
384421
393827
336996
221313
240548
250414
273916
286189
326993
340785
355884
402013
523428
379126
575690
480935
435581
339202
336187
348801
379690
406409
391405
392945
346784
349844
360431
386965
395846
412169
404020
285207
288214
310073
313563
340764
338294
374446
414488
335189
319143
332236
402940
423649
348760
301265
319833
291274
335806
380489
365408
348627
543586
36038.4
1578.02
5.86329
34013.3
254020
182.547
550932
517749
417380
594091
461924
463159
536701
418193
483925
403835
483504
493111
411579
410931
342737
379867
330832
355755
425182
406048
369917
231481
287433
265537
329496
304275
358604
378461
351552
385217
446023
404096
378144
435251
366103
337078
370120
313456
346786
460634
422767
376037
397243
367291
377171
431855
448331
457794
424076
363949
381888
368670
423166
405809
423355
444529
342575
365771
374609
377085
386382
421291
411085
427651
528165
433774
497284
440453
507894
420899
387328
716321
452389
676944
499222
655831
5716.93
338434
305584
297617
392240
427739
400568
442468
372468
413523
458689
392689
402118
422776
363126
375174
419197
360854
470430
399026
445411
540426
338289
346249
394954
404470
413718
485974
500422
336161
420721
607324
177919
1130.58
712731
576088
410470
545818
592124
631342
531067
482276
452379
364571
385131
394467
403961
413226
448331
438619
396943
454331
516565
469773
521087
595174
574566
427656
553767
501231
439421
512591
420256
448914
408821
402951
387208
445632
514214
473573
476652
317349
385934
346824
405891
369996
414054
461614
371826
409462
429123
444522
426906
522223
551904
474001
573566
489222
663883
626031
640177
666874
298738
318367
359178
357271
387317
395148
402234
351107
402023
385470
415798
398023
434897
457001
520230
648864
5806.93
45675.1
685056
1449.92
300730
404308
451251
409265
440346
359143
443048
416377
438377
551286
482806
571820
453491
529403
462880
383536
461117
477329
434665
414777
436855
400174
302806
399154
317541
401723
391226
397021
395501
364328
508841
411086
466057
395334
452730
570512
374893
425931
406759
448341
426391
464425
495565
416745
85847.6
375.104
131303
2683.69
674.26
90.2103
585904
627646
521209
511626
514715
537986
552281
363332
380120
372201
349270
389613
391066
335900
552831
450314
458231
482317
568429
580394
472245
577607
513646
516276
599593
592961
468301
451825
455240
411772
489869
468500
501167
589865
633319
421020
441159
450662
482005
494592
544887
529294
512368
544272
627403
659024
670308
679041
670467
400310
452478
410523
463213
509264
523943
451574
396742
444323
462319
430434
482286
490007
399705
365170
408072
338813
402252
364440
402967
384183
510215
426855
436903
481141
568759
583999
468965
392577
370505
383063
390740
282157
384655
314903
576846
510208
474648
503437
638255
602850
546097
419666
472370
429468
495815
551379
567148
483218
264790
135879
374.349
111971
432.922
1090.92
31.9903
478711
455347
402845
503414
692368
579462
622324
342202
412181
393478
404864
405863
393361
361428
607899
515116
518573
561745
581706
425752
386121
434557
503860
468823
566969
519851
574155
620458
432430
429510
447845
489439
522365
501627
607651
100.241
653991
282652
63.6026
9.10533
96115.6
376.003
465080
359988
387875
311180
414823
413472
468856
514977
624352
541295
596147
606182
555848
501725
617078
656133
505917
573540
699487
704708
679628
517821
474845
431226
504822
701846
574514
643338
537155
477964
451721
502683
654410
612893
543203
443608
468917
423429
480971
603571
552548
513958
438713
590769
535128
596348
543975
673347
699933
103122
269375
213789
433863
193768
5327.14
36757.5
69.1154
500263
611177
468035
529019
324566
477361
238981
557612
644348
529974
659932
664655
677331
678316
464718
578378
475944
531592
620522
629048
516775
630184
495966
509673
688848
629795
643080
685172
391312
397616
410202
332000
396003
375090
279257
436314
354819
430927
218486
329426
305702
190113
624088
536237
550706
672560
655620
586933
549626
491823
467889
443690
519902
645574
598745
566261
656577
678423
632830
661951
697292
707373
642991
480483
553426
493190
598568
630257
635653
585749
488173
463241
497785
554360
617013
565820
689505
394724
431088
417206
330007
423745
438857
387888
8974.75
106.901
5.97098
8.08309
3438.24
63.822
1.01605
396261
277295
387158
231961
367877
336811
160673
638315
459481
565382
578136
659482
542639
353360
541000
631613
625617
646052
624857
586997
582547
606101
539434
497469
561543
661067
646139
612282
413968
404675
376702
363497
299321
313791
190345
399198
334599
419846
268506
100512
215731
149614
548719
637621
619497
644175
630283
644281
533236
565279
583685
518361
622344
647925
645512
656500
651387
581533
646350
697558
704342
679120
677827
268941
312152
382481
373096
94180.7
244514
290515
631815
634986
698981
696943
430358
614586
622022
591222
660306
626220
639258
691447
696255
597614
620222
583930
596083
626603
591741
579967
619602
617779
524084
650987
721455
667180
726375
700619
569398
557253
481093
676995
583844
699484
718902
536626
713878
659159
691016
623237
715980
665400
649495
667146
709963
707855
709584
725505
712369
501644
440615
507439
455122
184110
362542
325461
708039
688173
676892
703891
546189
607327
684167
521283
712745
641621
693480
648690
717751
681304
423359
218215
3780.3
377228
418494
33574.1
189761
373076
395470
111395
365304
414951
10520.3
199590
326290
405699
6125.34
196469
252546
232255
241113
262714
327598
341196
205858
273641
254381
299516
278041
360366
383010
329049
258594
235062
301308
339163
404538
419664
409184
103326
559.836
1187.58
228255
3461.92
15.2914
303554
403320
317552
410323
404614
410139
404257
395216
362918
398745
363207
410307
411291
351165
340393
401073
292639
419400
383769
421629
404912
400062
386374
389065
411123
305890
407394
332940
364976
412282
338214
415865
375881
418322
393786
229380
173548
120884
358631
199424
90004.5
150881
175210
295467
201585
174738
410787
202398
201430
142761
388390
212645
94647.8
101889
115457
106597
120382
127680
132873
108165
100708
112967
134815
126822
139803
148411
128812
130714
117440
144808
157135
159158
172467
122189
156439
127159
182071
149347
154959
188631
143575
181322
148988
192123
157198
162941
198951
142528
164027
133993
162555
209655
172133
197733
164827
189300
156067
170574
220652
180187
208248
264512
260280
408923
380437
312856
421985
40619.4
158903
157292
142512
190250
172102
188886
209578
185748
166281
153168
225592
184349
200117
247337
175776
230297
189496
237912
192586
208801
262910
224506
226513
182134
188746
309708
235285
233019
222355
195865
178384
212657
241584
236826
274961
249310
182352
221847
220696
325415
278736
248227
206839
292165
254999
230316
350592
299943
260111
197865
263661
267663
330846
209917
248347
245534
290722
296066
226119
248472
413022
335279
328748
407749
268975
346102
230143
258242
282139
333973
228528
289283
349850
384416
288220
348940
428185
345581
403597
306665
401159
304750
367357
421493
281154
414960
415233
422910
380701
375368
328759
357479
412513
410047
265346
396928
374820
205584
416399
418134
393513
346335
414284
399490
298594
427454
435614
416311
397755
431074
320199
414480
430977
430749
396178
421974
391922
362718
282712
293339
429433
371754
420798
387176
425787
394027
430920
334179
409514
429823
373863
420606
402182
269559
315967
396874
388323
87702.2
295777
246958
321226
376307
426282
367782
125951
224187
310811
375034
276934
402742
336106
56703.4
128243
271082
311048
204081
360560
284158
26602.3
82281.3
198354
607712
651566
619110
638481
481844
548159
643898
357556
209377
154935
62021.4
332898
207152
257822
393669
412438
365105
335274
101167
198875
266334
580121
665888
630079
674926
651109
656619
630370
261830
333965
443655
379669
35024.8
130850
231597
602818
644892
644704
592673
643405
648291
589359
629261
714448
699394
681891
723835
718354
615373
220524
166010
59800.9
265433
212899
374620
353023
693481
551229
573655
380776
685955
588892
602651
364815
183210
309756
54265.7
147988
79150.9
21583.4
674796
631263
658560
685420
431544
532316
652798
356492
115952
414251
179782
8462.7
121602
16278.6
623674
640964
711896
638471
679803
697967
532811
670863
592436
677584
640438
450593
551959
261544
0.584232
2.09774
6606.09
0.663734
5.24374
2.32123
0.148671
479435
162160
453712
39598.7
264767
229113
27464.8
628295
557510
608356
653488
636704
655536
663827
588604
318366
412713
281136
397831
138802
57435.3
645984
682784
711646
609768
671967
610626
489615
390256
396383
435209
94079.2
288099
400309
278374
68293.8
379543
259842
393260
441543
379635
260278
369550
429502
331027
166932
44690.3
364177
238337
38443.8
194385
374127
348667
424634
322751
152391
226997
193067
367084
161218
325119
348487
419409
144950
95262.1
293890
233389
5236.13
42935.8
76849.7
487819
584924
641484
475613
62991
340607
197824
629581
519742
361069
596680
584138
498873
631600
718836
586488
704404
446219
639309
560145
298110
496566
529682
669301
639194
136352
417274
463462
718819
734008
709549
723035
441762
651001
620118
276517
275573
372429
62122.7
195831
67231.7
11312.4
493914
601805
515962
362749
223037
363646
75692.9
16035.8
32163.2
103990
322111
229162
170446
65979.9
8939.72
42299.1
226860
302626
377843
215617
95502.4
661376
288974
589791
343501
606348
485030
134938
619704
339800
282065
484592
551761
445883
588730
641386
675405
689900
702442
302605
603479
538889
257158
206276
346258
29919.5
158365
53693
6201.04
278704
88867.8
435869
48124.9
191195
44823.5
6339.23
91391.6
57354.7
15393.9
159716
110510
319514
267543
290968
479025
239667
2694.47
386284
238094
397092
198882
427627
424925
199748
398917
313970
471988
531973
291644
469676
313374
532191
237875
231706
229437
279518
277061
266767
269649
240521
231250
229208
280626
277388
266621
269385
135348
385154
208764
208850
387090
385652
139858
382205
613300
551069
376397
612634
542778
483102
211792
196524
209969
246549
243889
240856
249035
196833
213426
210580
247028
244364
250225
241094
308504
288428
305664
354915
345373
342284
358448
214642
370515
561720
558341
222992
374216
2857.38
336196
422043
332148
320103
424413
420388
323646
421189
334647
331666
320123
423661
323413
420281
288694
307792
305393
353766
343059
355365
341424
306213
310994
303409
357301
370476
367013
360627
310721
306169
303351
356627
369298
358989
366545
74416.1
279735
234228
261138
124379
76239.5
237273
124162
261102
169333
415405
234269
166092
278544
229496
411463
73645
106315
105661
151097
124606
151863
123882
81961.6
107836
112357
153236
131995
157532
126651
123433
145188
143598
159977
177078
161262
175372
126488
143143
143990
160828
176924
163765
175216
167267
200883
198208
225058
198091
227940
195921
165936
195507
196372
223452
195795
195060
223554
231398
241536
244231
264949
284892
268564
281349
241940
229739
240813
263305
282371
263857
280522
199494
178398
254237
232236
200859
252225
177172
200971
233491
183596
256261
204672
253003
179214
201484
252012
215216
258629
203338
249681
213149
202097
258546
253204
215370
205160
250085
213112
260484
234054
313495
276937
263738
231662
309675
259167
276434
232621
310329
231103
260241
308437
307150
372815
337568
409744
311620
367368
333068
305327
408336
367502
334562
306592
365377
332025
205890
234993
231549
266786
262974
315323
319415
205924
234530
231405
266555
262959
315116
318620
307556
326993
408042
397836
406774
323393
311113
307818
398530
409263
327085
311551
407280
323523
406967
401580
480125
468398
476319
398213
410478
405771
467353
399268
477740
407477
475313
397274
334489
377598
331172
399948
396150
475114
480765
330620
378942
333124
398543
395641
473919
477367
413968
434668
495364
528020
491266
430771
417647
413109
528184
494148
433372
415438
490774
430301
471714
544416
464835
617119
665413
665242
623160
462613
546004
465504
615103
662968
617620
664405
403842
295564
384325
291174
386604
407260
387613
357538
387787
355590
388697
354496
359837
387864
388529
357896
355791
389055
357043
388685
360850
384206
294312
290788
386640
405402
387534
407924
558887
510601
511870
602908
607063
480077
472613
559895
512407
512600
604203
607650
482014
477772
488356
610662
483985
619798
693251
695010
624526
610668
487690
483819
618767
691314
621627
694386
435423
375759
438916
345962
230262
240690
336858
377122
439013
440291
348134
235324
342752
242639
321403
389968
279736
146539
288722
329278
385892
390731
148454
283476
324815
387778
290213
330610
703570
492545
642851
643453
700759
649724
648937
704323
643327
643062
491143
649741
648640
702938
233679
494746
501866
294938
48954
286071
53338.4
247680
354960
123124
401537
185420
356857
390585
127470
186493
228060
183488
224721
243965
317092
321146
183086
246442
226908
224325
243539
316641
319708
402375
399826
357857
368099
409215
410065
373122
297129
412460
391195
389292
292802
400793
415797
401086
354700
402880
410306
370449
409758
374061
389124
295534
292306
400812
414015
401377
416458
148346
288782
170951
99175.7
86770.3
147267
171108
287233
86592.6
111963
85100.2
110313
97326.2
122565
124576
85104.8
98714
112158
110308
97081.8
122374
124251
178885
119875
145740
117677
144022
146510
175907
139813
168597
137859
151283
187850
153617
185036
145307
118950
117277
143669
177830
145683
175503
168605
139996
137861
151134
187577
153372
184898
220356
175692
221838
284355
178566
218445
217009
175386
283876
219258
221025
177805
218161
216620
279143
399987
324425
404005
133156
332010
287601
404782
135006
283015
327906
401921
333379
289104
45444.8
277632
489701
230395
499977
291670
51858.4
9759.35
43554.3
121009
131985
3097.32
11178.4
49308
134265
3168.62
10415.8
45947.1
126496
11470.1
50346.4
223252
6414.07
7550.87
92994.2
104109
23519.7
1368.74
8308.16
109278
36870.7
83812.9
1502.73
5735.26
25300.2
254562
6824.67
19888.6
6679.81
99895.6
36210.3
97358.3
121672
99751.7
225141
30184.1
2041.28
7075.99
8945.01
277638
3860.09
67003.2
13809.2
183576
28252.4
1494.67
651129
662511
729456
699036
234107
526459
556694
708361
675010
730909
668511
267422
553292
484294
189425
332448
73440
148183
16213.2
50053
4084.71
528958
608401
682199
625375
122933
346658
476489
55005.8
1700.13
7450.08
864.437
29256
3397.3
14704.1
590758
176930
238391
61961.7
306572
365374
513850
478309
513271
678093
597445
49181.6
291387
345927
475693
566908
658378
428427
33334.4
237739
133767
264166
19668.6
105892
6724.07
39003.8
7260.01
1146.41
147176
3881.21
7555.03
1650.7
13887.1
27658.9
62381.1
436124
348171
602550
116503
363062
69483.4
7891.26
10573.1
92415.7
287272
9150.65
904.934
10590.5
92642.6
70108.5
50183.1
248011
5844.55
588.26
8416.92
76551.9
595.58
6440.3
2082.41
36671
21278.5
189581
97967.2
53930.7
87496.1
260042
71764.2
5231.89
8776.11
595.349
169531
346536
507015
322503
6824.86
136269
36219.8
2657.56
5728.72
401.31
28954.4
4592.15
202023
61749.1
22284.3
103389
6727.8
2266.15
123.155
747.904
13731.7
46738.3
3267.74
242.589
22708.3
1608.91
173408
20916.7
604569
52870.2
72553.2
106149
404713
300742
353461
464285
11190.5
153629
26066.8
256945
31528.7
1671.06
487736
36992.3
172188
33003.4
162340
13610.7
2000.7
41815.8
2017.94
9791.59
503.027
2357.08
539.66
110.908
33213.4
5048.75
92249.1
9888.13
152.372
510.832
3101.59
737.765
3321.57
12988
5081.78
66.181
278.497
1224.45
69375
111170
395470
235157
1439.74
17626.6
33260.4
25246.5
17567.1
120865
9950.91
164.614
1543.68
1097.35
205133
1135.49
21841.2
3227.98
63938.8
4324.67
215.219
445679
14697.3
8076.53
25600.9
97443.4
213531
141021
9203.59
81595.6
11239.8
5530.28
67.6729
566.855
704.153
144.538
43735.5
10374.4
11464.5
0.654944
1.80629
51989.1
9.50298
539125
31612.9
0.0914523
15033.3
0.218424
0.00252029
2.39351
0.00986387
0.000611537
12795.1
0.518681
0.00296999
8.2351e-05
165622
0.867407
0.00374773
0.000349855
1.01671e-05
314261
0.362762
0.00827205
0.000645424
2.06435e-05
5.81858e-07
0.0658437
0.00447728
0.000541023
2.141e-05
7.36283e-07
2.35887e-08
0.00157669
0.00022261
1.35225e-05
5.96483e-07
2.37196e-08
8.00355e-10
4.01905e-05
4.89033e-06
3.26792e-07
1.64873e-08
6.69388e-10
0
1.04173e-06
1.12108e-07
7.79983e-09
3.7835e-10
0
0
165354
563551
629519
561579
270785
628444
158958
46.023
131.8
37182.7
310779
139.479
13568.2
48.8149
344320
124.115
26757.7
414197
1964.7
18714.4
131.755
317486
495.247
10.6529
70115.2
466.521
544.478
11.2241
241.377
108794
526207
659253
14454.5
110503
22.7624
575040
560512
572296
621078
618091
617136
621514
559816
573652
571755
619242
613790
616874
615555
595103
628338
592881
623150
601849
604751
622874
628092
594051
592542
620818
595185
617129
601900
412767
342625
415947
350011
351627
193836
182077
416589
345845
347575
351295
352931
195878
187064
0.468415
658.636
988.466
1059.22
2.53063
161.695
0.494265
318586
211146
218031
118839
124914
31914.2
29320.1
311464
115238
206953
216330
123364
31247
27860.7
80262.4
43668.9
70581.1
5801.27
3227.84
4833.8
2620.55
214544
124940
307159
314342
224963
135330
42535.8
315689
218867
226647
129198
137104
43470.2
39217.7
22981.2
33316.8
58142.6
2629.53
1315.41
3731.95
1945.19
353593
662139
608407
663876
615191
533404
366297
662986
606265
614401
520935
531029
364964
351422
26776.9
9007.28
21431
645.592
1540.8
1222.18
504.28
280471
243852
522661
526317
289379
253108
541680
2.30981
0.358053
10341.6
29410.5
53.7116
418.824
16.7144
522250
285102
530308
235076
513725
249190
537824
0.00631746
0.000546781
2.10346e-05
5382.74
0.147916
0.000293555
1.10534e-05
50671.4
13404.7
0.0135304
0.000589586
2.17825e-05
0.00829366
0.000775408
2.83971e-05
0.0222718
0.00036367
1.10464e-05
2.89103e-07
0.912206
0.00163431
0.000108739
2.64194e-06
211.311
0.0595064
0.00285931
43.245
0.00244589
0.000513509
0.0323958
0.00266371
0.000141611
8078.48
0.121302
0.000488682
1.66075e-05
12780.5
0.0379429
0.00186764
5.2886e-05
1.5707e-06
3059.53
2.60052
0.00330068
9.4895e-05
2.98209e-06
9.24774e-08
0.00155327
8.17089e-05
3.21319e-06
1.20213e-07
3.94357e-09
3.76544e-05
2.2551e-06
1.03988e-07
4.1473e-09
8.73115e-11
1.01667e-06
6.33736e-08
3.07045e-09
8.73115e-11
0
2.56114e-08
1.61526e-09
0
0
0
101875
0.156667
0.0573881
2395.66
0.222404
0.00199166
0.229794
0.00635183
0.000361486
203957
0.381402
0.00175644
4.97119e-05
245235
0.714736
0.00511585
0.000236392
5.91668e-06
96908.5
0.338253
0.00636578
0.000430306
1.224e-05
3.2899e-07
0.0536471
0.00359673
0.000358644
1.28205e-05
4.19575e-07
1.32859e-08
0.00104575
0.000148575
8.22212e-06
3.45346e-07
1.34169e-08
4.07454e-10
2.68497e-05
3.04088e-06
1.94093e-07
9.58971e-09
3.34694e-10
0
6.97677e-07
6.95582e-08
4.67116e-09
1.89175e-10
0
0
4737.55
6.11986
0.0140983
0.000217514
6.66933e-06
0.0181808
0.000262901
8.55212e-06
2.76195e-08
3.12866e-09
1.74623e-10
0
0
0
0
1.40234e-06
1.39233e-07
9.8953e-09
4.80213e-10
0
0
0
7.56931e-05
5.39438e-06
3.88638e-07
2.06201e-08
8.00355e-10
0
0
0.00182506
0.000177434
1.38195e-05
7.49307e-07
3.02243e-08
9.31323e-10
0
0.261695
0.00801056
0.000498623
2.57696e-05
9.81105e-07
3.23926e-08
8.73115e-10
37848.6
16.9812
0.0288274
0.000988644
2.90401e-05
8.96558e-07
2.46364e-08
487837
319.482
0.0596243
0.000722745
2.00241e-05
5.44955e-07
617118
387.497
0.0302481
0.000303018
8.71863e-06
200254
0.984619
0.00142936
9.65681e-05
6.8394e-09
6.98492e-10
0
0
0
0
0
2.68265e-07
3.19997e-08
2.25555e-09
8.73115e-11
0
0
0
9.79957e-06
1.30155e-06
9.27685e-08
4.64206e-09
1.45519e-10
0
0
0.000349962
4.81002e-05
3.419e-06
1.71596e-07
6.73754e-09
1.74623e-10
0
0.0255281
0.000981317
0.000104353
5.47931e-06
2.18133e-07
7.17409e-09
1.45519e-10
713.89
0.345077
0.0030088
0.000136109
5.9579e-06
1.94952e-07
5.31145e-09
105470
5.40807
0.00511118
0.000122993
4.30852e-06
1.16837e-07
492338
6.8134
0.00293752
7.55068e-05
1.9812e-06
7561.77
0.0965083
0.000758668
2.10326e-05
1.01863e-09
5.82077e-11
0
0
0
0
0
4.32628e-08
4.81668e-09
2.61934e-10
0
0
0
0
1.59709e-06
1.78537e-07
1.32859e-08
6.54836e-10
0
0
0
6.78336e-05
6.10389e-06
4.71133e-07
2.39525e-08
9.31323e-10
0
0
0.00165207
0.000178695
1.49297e-05
7.56991e-07
3.01225e-08
1.03319e-09
0
0.187676
0.0115931
0.000407073
2.04142e-05
8.1223e-07
2.71248e-08
7.71252e-10
11.9673
0.0194619
0.00046348
1.77671e-05
5.89163e-07
1.67929e-08
91.7119
0.719471
0.000265052
9.35848e-06
2.66213e-07
1.34935
0.0296433
0.00012397
3.18101e-06
1.01863e-10
0
0
0
0
0
0
6.12636e-09
6.1118e-10
0
0
0
0
0
2.20345e-07
2.42726e-08
1.61526e-09
1.45519e-11
0
0
0
7.0907e-06
8.24512e-07
5.85715e-08
2.96859e-09
8.73115e-11
0
0
0.000189893
2.4599e-05
1.82122e-06
9.24774e-08
3.75439e-09
8.73115e-11
0
0.0898421
0.000656119
5.00543e-05
2.50721e-06
1.01412e-07
3.4488e-09
4.36557e-11
12.1387
1.08996
0.00140373
5.79301e-05
2.28731e-06
7.79692e-08
2.24099e-09
443.535
0.111645
0.00106986
3.97083e-05
1.35922e-06
3.92756e-08
374.828
1.17448
0.000502455
1.75909e-05
4.94387e-07
0
0
0
0
0
0
0
5.23869e-10
0
0
0
0
0
0
2.13768e-08
2.06637e-09
1.01863e-10
0
0
0
0
7.20538e-07
7.49424e-08
4.88944e-09
2.03727e-10
0
0
0
2.18053e-05
2.373e-06
1.55051e-07
7.53789e-09
2.32831e-10
0
0
0.000599542
6.84649e-05
4.34587e-06
2.08209e-07
8.28004e-09
2.61934e-10
0
0.0327631
0.00207346
0.000110552
4.90049e-06
1.89873e-07
6.4465e-09
1.45519e-10
47.5289
0.162699
0.00274541
9.56044e-05
3.49691e-06
1.16372e-07
3.33239e-09
0.133156
0.0013201
4.56384e-05
1.51586e-06
4.33065e-08
0
0
0
0
0
0
0
0
0
0
0
0
0
0
1.17871e-09
5.82077e-11
0
0
0
0
0
4.04543e-08
3.89991e-09
2.03727e-10
0
0
0
0
1.2315e-06
1.23153e-07
7.94535e-09
3.34694e-10
0
0
0
3.31868e-05
3.39067e-06
2.16154e-07
1.04628e-08
3.7835e-10
0
0
0.000824692
8.29985e-05
5.05091e-06
2.41242e-07
9.58971e-09
3.0559e-10
0
0.0665492
0.00186924
9.88494e-05
4.45645e-06
1.74725e-07
6.02449e-09
1.16415e-10
66471.3
9.98916
0.00833501
0.00142815
5.8531e-05
2.28197e-06
7.80128e-08
2.2992e-09
0
0
0
0
0
0
0
0
0
0
0
0
0
0
0
0
0
0
0
0
0
1.58616e-09
8.73115e-11
0
0
0
0
0
4.82396e-08
4.71482e-09
2.61934e-10
0
0
0
0
1.23914e-06
1.25641e-07
8.13452e-09
3.34694e-10
0
0
0
2.62558e-05
2.80979e-06
1.83747e-07
9.0804e-09
3.34694e-10
0
0
0.000364176
4.89692e-05
3.27501e-06
1.62428e-07
6.54836e-09
1.45519e-10
0
0.0141461
0.00209385
0.000471754
3.9421e-05
2.04568e-06
8.50268e-08
3.0268e-09
1.45519e-11
0
0
0
0
0
0
0
0
0
0
0
0
0
0
0
0
0
0
0
0
0
0
0
0
0
0
0
0
1.5134e-09
1.01863e-10
0
0
0
0
0
3.90428e-08
3.92902e-09
2.03727e-10
0
0
0
0
7.98493e-07
8.46776e-08
5.57338e-09
2.61934e-10
0
0
0
1.12753e-05
1.40088e-06
9.80654e-08
4.99131e-09
1.74623e-10
0
0
0.000588722
7.73851e-05
1.39236e-05
1.15074e-06
6.23259e-08
2.64845e-09
4.36557e-11
0
0
0
0
0
0
0
0
0
0
0
0
0
0
0
0
0
0
0
0
0
0
0
0
0
0
0
0
0
0
0
0
0
0
0
0
1.01863e-09
2.91038e-11
0
0
0
0
0
2.16241e-08
2.2701e-09
1.01863e-10
0
0
0
0
3.14249e-07
3.68163e-08
2.57569e-09
5.82077e-11
0
0
0
1.51989e-05
2.58717e-06
3.80038e-07
3.04717e-08
1.60071e-09
0
0
0
0
0
0
0
0
0
0
0
0
0
0
0
0
0
0
0
0
0
0
0
0
0
0
0
0
0
0
0
0
0
0
0
0
0
0
0
0
0
0
0
0
0
4.80213e-10
0
0
0
0
0
0
7.61065e-09
8.29459e-10
0
0
0
0
0
3.84432e-07
6.80593e-08
9.03674e-09
6.8394e-10
0
0
0
0
55.4788
11.2276
0.241056
23.5786
0.00589434
228.845
0.0426036
0.000384136
0.191569
0.0339687
0.000469135
2.0105e-05
0.00822786
0.000291863
1.75062e-05
7.31903e-07
0.000109761
9.14824e-06
5.16389e-07
2.23663e-08
2.83877e-06
2.35406e-07
1.35042e-08
5.67525e-10
6.28061e-08
5.39876e-09
2.61934e-10
0
2245.11
0.241322
0.0180164
0.000755814
0.000125755
1.82845e-05
3.4894e-06
4.37649e-07
0.0182304
0.000605698
0.00107554
9.67781e-05
0.000599002
1.70449e-05
0.000176959
4.04328e-06
1.32646e-05
3.6617e-07
6.80171e-07
1.97033e-08
2.58442e-08
6.98492e-10
8.00355e-10
0
0
0
0
0
2.12898
6518.57
10.89
14007.9
2.23068
21.4849
89536.9
11118.4
599016
635673
566605
244411
630890
136459
9.15144
12337.4
0.770246
4987.98
1.95753
19.553
84593.3
35168.7
299.327
0.133546
32.8479
5.84229
0.465345
3017.04
3218.07
3378.68
1.65833
410938
1524.85
14849.6
102.963
2265.61
436927
568865
51787.7
5161.57
611267
618785
2020.69
0.621778
100.357
299396
108.36
10572.2
37.712
171132
103.35
1850.83
0.454771
386.681
437.57
9.10161
4447.66
521241
609604
265980
403.945
619146
477816
7971.68
510162
573274
495108
741.346
584227
410969
239642
8.06634
293.932
9.10954
10255.3
200.639
0.0856679
36142.8
605648
664925
524147
717.646
328587
69.1291
821.699
41.7237
0.342783
109851
534.936
1412.68
0.884962
25674.1
31.4711
0.23857
2.68196
51.0857
330.311
0.329515
605056
3.62749
41744.5
654659
11277.1
91842.3
17.855
144.458
635607
396240
3612.32
12.9262
621130
152405
575117
578260
585347
609384
612227
614046
609593
1.4402
0.326988
24.8902
142957
2572.41
0.376105
15.1645
0.310529
1726.01
0.752328
27.8259
0.130625
4.90267
0.138154
87.374
0.320665
0.160004
5413.18
0.849198
5.85773
0.174662
606930
586134
595405
599534
588920
580093
603778
634953
598133
605063
600670
583725
611306
564363
495910
589282
601181
604665
615104
658084
656932
283124
0.161613
890.801
1063.27
563320
1.65426
19353.7
81.4194
686473
320162
133.943
0.132183
378595
911.562
724907
344976
150.955
239883
1116.73
0.221859
10829.6
608.347
309294
501287
5.71181
0.582667
79505.4
8687.77
105.118
0.120963
0.36306
0.0505993
0.130131
8.23673
61.9963
405516
334333
336318
314821
317398
138192
167983
536261
610971
623243
630286
639093
651175
653524
668797
244.108
110614
157207
14.4844
252.893
0.09893
622960
638366
614276
582604
489233
553214
534262
616684
617109
617383
561278
547426
496047
516179
536364
670710
674199
633760
641051
659308
646409
84.7655
0.120539
0.0356292
0.209222
979.18
14.2162
0.0878188
378738
288204
395951
240249
284662
99556.4
58394.4
86827.4
3677.02
57748.4
90400.5
60853.6
6921.83
3926.91
91509.1
59882.3
61742.5
6825.68
7050.43
3997.95
3847.18
289526
195889
304993
105835
86438.7
24124.8
17461.2
566657
676076
646874
672173
655730
641994
609697
616769
645867
647136
636660
631832
564643
580133
76233.1
55351.7
47947.8
6268.67
5381.43
3484.86
2921.55
625083
583100
611810
425765
508351
443177
339285
64700.1
27165.3
38093.7
3128
4283.62
2240.11
1563.23
755.201
1785.28
30830.4
14507.6
33114
1922.12
816.034
0.553069
3696.05
92.7418
11629.4
1.97285
327.487
0.332585
136981
232161
266151
38914.4
63060.6
11059.1
6255.69
2.58965
553194
43826
0.969503
0.133707
2197.17
48.1816
36584.8
5.32494
69.0256
116.022
1.11793
3.71612
0.120546
25193.2
26.1977
0.489835
90.036
11.0745
0.754571
0.0865981
96.6937
28.5058
173182
0.27901
0.0827103
71.2733
1.56995
554484
606136
598893
418047
341954
306961
446017
279456
201420
172688
112366
87528.9
31028.1
21026
296812
195182
93605.1
115028