/*--------------------------------*- C++ -*----------------------------------*\
  =========                 |
  \\      /  F ield         | OpenFOAM: The Open Source CFD Toolbox
   \\    /   O peration     | Website:  https://openfoam.org
    \\  /    A nd           | Version:  9
     \\/     M anipulation  |
\*---------------------------------------------------------------------------*/
FoamFile
{
    format      ascii;
    class       volScalarField;
    location    "0.00165";
    object      rho;
}
// * * * * * * * * * * * * * * * * * * * * * * * * * * * * * * * * * * * * * //

dimensions      [1 -3 0 0 0 0 0];

internalField   nonuniform List<scalar> 
13803
(
0.664201
3.06121
1.11728
3.1352
1.85445
3.41583
1.90425
1.82748
2.83553
1.28615
1.63947
2.69029
2.22717
1.89024
3.09137
2.80421
1.32817
3.44396
1.22541
0.799111
3.10457
1.19298
3.03169
2.10943
3.286
1.46413
0.731366
0.782416
0.754517
1.34887
1.03062
0.928045
1.14095
1.19357
1.36071
2.60246
2.76964
2.18583
1.19302
2.5369
1.55476
0.979594
1.32644
1.65145
3.33547
1.38583
2.13253
1.49336
3.53941
2.49074
2.16334
1.47859
2.13703
2.83679
0.696923
0.738862
0.714477
0.753724
0.793029
0.814226
0.781208
2.37083
1.00036
1.06842
0.966812
1.58488
1.17101
2.06775
0.861077
1.45286
1.10863
1.5933
2.01398
0.946081
1.21923
0.76469
0.765409
0.793119
0.838371
0.837781
0.86744
0.808856
0.732609
0.833096
0.799828
0.894923
0.809557
0.833411
0.93405
1.17388
1.17186
1.19477
1.37397
1.40535
1.38612
1.42083
1.22849
1.29621
1.23382
1.54796
1.46042
1.48085
1.57502
1.53324
2.76406
1.4517
1.32853
2.67604
2.434
1.96798
2.72041
1.59085
1.21617
1.99465
2.54426
1.024
1.13422
0.959741
0.841975
0.87514
0.894632
0.948863
0.982502
0.863746
1.14699
0.925855
1.07841
1.05648
1.24685
1.11688
1.3285
1.69303
1.77405
3.48596
2.4461
1.4656
2.77437
3.41031
0.817636
0.929636
0.876953
0.86509
1.04205
0.983499
0.906129
1.45016
1.24188
1.34198
1.61094
1.45653
1.56243
1.75358
1.47815
2.71163
2.88213
1.75783
2.56255
2.67177
3.2043
0.826
0.836214
0.865851
0.872099
0.904039
0.95326
0.917622
1.15972
1.22498
1.18625
1.48199
1.39568
1.43481
1.5321
0.919186
0.919298
1.07056
0.98023
1.01706
0.953583
0.888211
1.0017
1.00628
0.8969
0.925592
1.19607
1.03937
1.05228
1.37285
1.38856
1.51622
1.6744
1.71165
1.8447
1.90154
1.29904
1.2785
1.23033
1.50231
1.75483
1.60886
1.61958
1.00242
0.973792
1.00869
1.11665
1.0682
1.10491
1.07973
1.0452
1.32656
1.23168
1.26383
1.1871
1.42338
1.52649
2.44398
2.73799
1.22863
2.78267
1.67848
2.74812
1.32687
3.115
2.73203
1.22852
2.91233
2.29833
2.79234
1.24263
2.37436
1.03421
1.32667
1.57272
3.14
1.93318
3.20601
3.59381
1.95171
2.50875
3.41335
3.0067
2.7749
1.23417
1.68364
2.26578
1.7315
2.30575
1.72236
1.77786
2.39213
0.989353
1.05592
0.913998
1.10918
0.95803
1.02283
1.18604
3.20877
1.098
1.67626
2.75778
3.06638
1.4148
2.08871
0.964578
1.17724
1.16003
1.26471
1.09076
1.10937
1.016
1.43111
1.75644
1.58878
1.6907
2.15031
1.93256
1.83782
1.03504
0.984733
1.01921
1.13774
1.13401
1.17252
1.10041
1.95959
3.54968
1.35075
2.96045
1.60703
2.36234
2.70718
1.94697
2.40235
1.81534
1.87664
2.71764
2.03324
2.52889
1.2078
1.70999
1.45324
1.46071
1.27425
1.54648
1.81948
1.03795
1.18876
1.04993
1.19304
1.35106
1.1756
1.37429
0.882945
0.981014
0.91572
1.02058
1.076
1.11459
0.982681
0.911766
1.32478
1.0984
0.609163
0.71542
0.566832
0.87408
0.688234
1.0304
0.887482
2.35349
1.1793
0.853013
1.22559
1.11486
2.03104
0.586599
0.64103
0.654612
0.668994
0.729765
0.741262
0.685374
0.635039
0.691587
0.671412
0.756141
0.727566
0.773747
0.704665
0.69349
0.75758
0.755615
0.828377
0.761264
0.767909
0.834935
0.981566
0.849622
0.97596
0.943789
1.09553
0.95474
1.10956
0.702374
0.77735
0.764017
0.777792
0.866184
0.791484
0.846842
1.17924
1.10447
1.16285
1.34984
1.25978
1.27936
1.37687
0.771949
0.914429
0.82089
0.830714
0.883905
0.92151
0.78518
0.864209
1.02856
0.997417
1.00894
0.975479
1.13722
1.1825
0.843467
0.94374
0.821232
0.89699
0.858379
0.931543
0.802014
1.26298
1.13813
1.2104
1.31637
1.50198
1.37489
1.42532
0.931107
0.91794
0.840413
0.848255
1.04494
0.940486
0.928787
0.859933
0.974399
0.971206
1.06706
0.875794
0.954671
0.946015
1.06913
1.47699
1.26118
1.246
1.08569
1.2825
1.50486
1.77883
1.6243
1.47696
1.5052
2.09038
1.81888
1.66379
1.15367
1.27839
1.11322
1.32005
1.62002
1.37688
1.55156
1.55607
1.99258
1.84007
2.19411
1.63389
1.88837
1.73297
1.65237
1.90911
1.68575
2.36027
2.06831
2.1644
2.51058
2.96253
1.74604
1.34599
2.896
2.02522
2.10894
2.62624
1.39868
1.64091
1.53605
1.94643
1.76687
1.99069
2.19625
0.965064
1.15064
1.00335
1.07494
1.22184
1.26474
1.03467
1.36751
1.54924
1.60197
1.69703
1.7632
2.0501
2.13101
1.73953
1.98982
2.56986
1.87247
2.83143
2.30749
2.1853
1.0953
1.21604
1.25531
1.22181
1.46735
1.26597
1.41172
1.06033
1.06253
1.10149
1.18694
1.22699
1.30724
1.26554
1.42608
1.27388
1.34659
1.53151
1.63685
1.4377
1.75942
2.40376
1.98338
1.79032
1.85973
2.59424
2.47938
2.06358
1.13131
1.05668
0.978255
1.10339
1.38755
1.20675
1.27636
3.48747
1.46999
1.23681
1.22505
1.43649
2.58294
1.22651
2.85171
2.94341
2.25599
3.12753
2.39841
2.54288
3.16556
1.31289
1.62977
1.25045
1.63032
1.67812
1.28791
1.27524
1.25683
1.25216
1.08186
1.16653
1.58477
1.37406
1.35217
1.43298
1.82903
1.69252
2.03625
1.87365
2.25246
2.40688
1.97819
2.34623
2.74909
2.67813
2.15384
2.59886
2.18672
1.43595
1.54878
1.35078
1.65286
2.09492
1.94674
1.77075
1.25957
1.12409
1.16569
1.41968
1.52775
1.5763
1.37612
1.30949
1.38117
1.18988
1.5455
1.33036
1.42074
1.6521
1.0702
1.15815
1.1953
1.20688
1.24601
1.4277
1.38786
1.35629
1.88507
1.38443
1.70753
1.42474
1.7604
1.31793
1.58722
3.39209
3.07797
2.87241
3.10107
3.43402
1.26373
1.97848
1.8653
1.72199
2.28351
2.72271
2.46697
2.61627
1.17696
1.37931
1.63742
1.27809
1.31907
1.42206
1.13609
1.9534
2.18233
1.84358
2.40945
2.00226
2.18937
2.71529
1.41562
1.43981
1.79398
1.6587
1.69005
2.14851
2.20067
2.69444
1.71115
2.5133
2.10137
1.23338
3.43852
3.33883
2.03183
2.72826
2.76265
3.10452
2.52
2.43029
2.21681
1.13653
1.23065
1.27036
1.31347
1.3549
1.55946
1.51707
2.20938
2.43221
2.72834
2.61168
2.90828
3.12201
3.27119
1.41928
2.13193
1.77125
1.61267
1.8262
1.39006
1.64962
1.37129
1.4732
1.26713
1.54509
1.99799
1.79789
1.71766
1.36363
1.78361
1.64892
1.66711
1.54184
1.9007
2.07079
1.5334
1.85303
1.9386
1.81523
1.74069
2.2851
2.40529
2.21922
2.7532
2.27938
3.28046
2.84556
2.90792
3.32096
1.87986
2.01963
2.24013
2.26145
2.46128
2.57022
2.71382
1.15587
1.46566
1.28735
1.53171
1.34356
1.53
1.72945
2.15611
3.53622
1.26471
1.48752
3.00395
1.23563
2.59505
2.53289
2.90513
2.37607
2.62669
2.85271
3.02272
2.7145
1.46927
2.05084
1.80727
2.23233
1.54761
1.91754
1.71171
1.27714
1.76056
1.76322
1.62622
1.42409
1.53717
1.471
1.92164
2.49884
1.99954
2.75494
2.48299
2.54339
2.77828
1.53136
2.2752
1.90334
1.92905
1.64175
2.05757
2.50106
1.22937
1.56705
1.37121
1.67677
1.46406
1.67796
1.91583
2.70131
1.77215
1.22806
2.02028
1.24587
1.23045
1.22575
3.07779
3.37553
2.72428
2.86512
3.40181
3.3307
3.17932
2.26187
2.70747
2.33349
2.74
2.56236
2.61246
2.73338
2.05436
1.48218
1.52699
1.67131
2.2069
2.26654
1.62029
2.99061
2.95323
3.01468
3.39764
3.41916
3.21252
3.19878
2.05176
1.69955
2.19415
1.91979
2.0612
2.5605
2.74088
1.39016
1.52324
1.56922
1.73867
1.7945
2.09025
2.02734
2.3797
2.52387
3.04991
3.00199
3.45849
3.11393
3.38743
1.33118
1.61432
1.36999
1.67899
1.99089
2.04131
1.63674
2.32251
2.8105
2.7248
2.90463
2.93866
3.16073
2.97319
2.29143
2.5899
2.12397
2.62693
2.81444
2.71522
2.80461
1.94095
1.47289
1.51406
1.78321
2.30619
2.36211
1.73817
2.5697
2.74358
2.44127
2.68139
2.64478
2.74787
2.71195
2.22662
1.94383
1.66278
1.82322
2.74208
2.43672
2.12792
1.41821
1.71975
1.45867
1.84701
2.19931
2.25637
1.79861
2.64885
1.93518
1.22805
1.84379
1.22837
1.23366
1.22527
2.45101
2.21252
2.01255
2.41107
3.33026
2.68434
3.04914
2.14598
2.7182
2.51432
2.80756
2.66443
2.80978
2.8285
3.26761
3.21348
3.11122
3.46742
3.45071
3.16819
3.08847
1.51055
1.96402
1.70203
2.26208
1.95414
2.26292
2.57038
1.94528
1.74303
1.82926
2.15462
2.29369
2.05913
2.6095
1.22581
3.61297
2.56322
1.22553
1.22508
1.82513
1.22806
2.87891
2.98851
2.91506
2.77917
3.06645
2.85439
3.06901
1.86835
2.76406
2.0601
2.45277
2.50824
2.12421
1.80882
3.04344
3.01065
2.4314
2.68549
3.54656
3.20951
3.31543
2.14435
1.95521
1.777
2.2482
3.03163
2.501
2.77337
2.08741
1.84178
1.6242
1.91006
2.78722
2.51815
2.16442
1.65612
1.72178
1.46732
1.79252
2.46659
2.18568
2.02108
1.81378
2.58143
2.37023
2.47804
2.24586
2.92153
3.07836
1.87607
2.6425
2.42424
2.82684
2.33046
1.26542
1.47396
1.22558
3.28782
3.5121
3.29614
3.4414
2.89115
3.33571
2.53341
2.27672
2.71885
2.15507
2.84467
3.19973
2.94496
3.1657
1.65793
2.28901
1.70647
2.03362
2.6435
2.6884
1.977
2.62488
2.01945
2.07118
3.10705
2.70433
2.76168
3.13107
2.47894
2.84277
2.65698
2.7814
2.79079
2.82611
2.65487
2.88073
2.79257
2.91508
2.43162
2.83641
2.77289
2.30991
3.24172
2.83155
3.06236
3.59145
3.44039
3.48399
3.51064
1.84183
1.77699
1.56614
1.98647
2.70681
2.42003
2.26613
3.2307
3.38772
2.91484
3.50931
3.22789
3.32025
3.5285
1.76876
2.16831
1.82098
2.44825
2.77738
2.81268
2.39256
2.16078
1.88511
2.03762
2.40579
2.64692
2.33069
2.94741
2.49172
2.84408
2.59472
2.09656
2.64471
2.91178
2.91547
1.29093
1.22586
1.22505
1.22507
1.25002
1.22553
1.22501
2.69586
2.64389
2.78483
2.48318
2.78652
2.77615
2.16914
3.38677
3.33289
3.39736
3.54319
3.57044
3.47873
2.9923
2.03721
2.89206
2.61226
2.93161
2.67103
2.35585
2.29947
2.45894
2.12451
1.84636
2.19703
3.04298
2.82936
2.50294
2.85888
2.84066
2.86103
2.85241
2.71834
2.77127
2.31071
2.97965
2.78132
2.95681
2.65142
1.85571
2.43802
2.11681
2.17154
2.78146
2.62805
3.1463
2.67321
2.81662
2.11764
2.26433
2.33329
1.97125
2.6061
3.09401
2.92816
2.87747
2.81808
2.41603
2.73374
3.0312
3.19446
2.97709
3.25467
2.59922
2.71672
2.75774
2.7696
1.8198
2.52354
2.66671
3.35543
3.48757
3.27879
3.29923
3.11403
3.33995
3.48082
2.43492
3.07178
2.61953
3.21785
3.05087
3.14588
3.20648
2.97973
2.36364
2.42177
2.7373
3.10843
3.09517
2.69321
2.79338
2.46383
3.13071
3.47458
2.99594
3.23773
3.49453
2.45579
2.29747
1.96021
2.87026
2.41547
2.98332
3.21713
2.21679
3.20198
2.8207
3.09468
2.59357
3.10289
3.26674
2.96189
3.52987
3.37326
3.52689
3.19462
3.33002
3.47648
3.27237
2.99303
3.08257
3.22855
2.28841
3.03257
2.85319
3.26022
3.50036
3.10847
3.37694
3.37993
3.49595
3.39939
2.13716
3.06013
2.73447
3.05337
2.71363
3.16638
3.26823
2.68876
1.42526
1.25372
2.74382
2.68238
1.45433
1.26961
2.28131
2.43743
1.90727
2.25878
2.85627
1.30196
2.33985
2.73116
2.84115
1.27094
1.30014
1.62524
1.52141
1.56535
1.6744
2.02889
2.09882
1.35021
1.75074
1.63881
1.87694
1.75588
2.20796
2.35067
2.04581
1.67891
1.53218
1.91018
2.1252
2.50858
2.66041
2.88473
1.87082
1.22951
1.23441
2.4799
1.25166
1.22513
1.91264
2.49769
1.98279
2.75951
2.49415
2.54588
2.78054
2.67704
2.21969
2.65189
2.74493
2.58075
2.61896
2.74059
2.14792
2.49011
1.87929
2.62994
2.38485
2.78162
2.85288
2.48934
2.37445
2.71304
2.67474
2.68643
2.73689
2.72748
2.25283
2.58447
2.09591
2.62024
2.82125
2.70339
2.80662
1.47279
1.15716
0.846802
2.23343
1.23524
0.710062
1.04224
1.09335
1.87871
1.29807
1.16433
2.85974
1.35877
1.33878
0.964606
2.42538
1.33165
0.724024
0.772852
0.802965
0.788722
0.819565
0.888477
0.90816
0.767635
0.742216
0.812395
0.879839
0.843897
0.939163
0.985267
0.861178
0.89651
0.806003
0.932534
1.00511
1.05056
1.13749
0.881602
1.06507
0.900139
1.22525
1.02537
1.04904
1.25552
0.926142
1.121
0.947107
1.24936
1.04227
1.06731
1.28336
0.973344
1.10206
0.929635
1.08753
1.3797
1.14499
1.30531
1.03016
1.16652
0.9803
1.10825
1.42511
1.16959
1.33996
1.75803
1.67553
2.88722
2.89394
2.03434
2.86813
1.50071
1.03006
1.05296
0.935101
1.21836
1.0994
1.24846
1.3886
1.23495
1.11816
1.03531
1.48422
1.22539
1.33199
1.62554
1.10111
1.46002
1.1959
1.54513
1.25542
1.36902
1.70952
1.47964
1.48687
1.21732
1.24889
1.95115
1.53301
1.52305
1.47901
1.30349
1.14934
1.3678
1.55883
1.56816
1.80765
1.65082
1.22439
1.47386
1.46961
2.08093
1.81714
1.64839
1.3176
1.86163
1.62967
1.51593
2.22991
1.93431
1.70913
1.3011
1.70599
1.73048
2.06875
1.37928
1.611
1.59563
1.86569
1.90119
1.48858
1.63603
2.61654
2.1305
2.08312
2.57366
1.73523
2.185
1.48601
1.70894
1.81505
2.14749
1.53061
1.89118
2.22692
2.41213
1.89085
2.22988
2.70877
2.17538
2.5347
1.95592
2.54983
1.97509
2.33129
2.77769
1.8364
2.65397
2.61537
2.76944
2.40356
2.35238
2.10869
2.75662
2.71747
2.6087
2.5845
2.79004
2.8131
2.3656
2.61584
2.77616
2.43567
2.80026
2.7817
2.836
2.70215
2.8667
2.84343
2.61075
2.50928
2.84318
2.07975
2.61425
2.73154
2.80395
2.46828
2.81931
2.86868
2.84393
2.6667
2.70882
2.80157
2.86814
2.81626
2.44395
2.72797
2.88236
2.72429
2.81849
2.92929
2.80292
2.34078
2.68201
2.88376
2.58725
2.71603
2.76875
2.78016
1.77803
2.67039
2.51789
2.7736
2.85768
2.76505
2.8402
1.99162
2.4531
2.7412
2.82376
2.62324
2.79672
2.77876
1.59684
1.99754
2.61938
2.74936
2.37378
2.81531
2.66648
1.41012
1.75118
2.34657
3.03978
2.87071
2.58841
2.87028
3.02788
3.08631
3.0613
2.77797
2.39468
2.14211
1.63302
2.7623
2.3822
2.57576
2.85672
2.78808
2.84644
2.79394
1.85912
2.35189
2.6193
2.32753
3.10315
3.1822
3.0218
2.80779
2.93017
2.61319
2.64891
2.85678
3.15363
3.06843
1.46209
2.00995
2.50644
2.46496
3.01428
2.86061
3.18773
3.02976
2.88913
2.41047
2.86032
3.50643
3.12537
3.51952
3.27458
3.34768
3.43096
2.43086
2.18675
1.61667
2.58953
2.39305
2.79171
2.78607
3.33238
3.26087
3.43999
2.95724
3.3671
3.31394
3.471
2.95125
2.28357
2.81733
1.58569
2.10923
1.72915
1.37755
3.00828
3.13586
2.82256
3.21491
2.9413
3.13649
3.24669
2.96198
1.88716
3.15346
2.25125
1.28623
1.95016
1.33814
2.59053
3.24972
3.11912
3.19476
2.9219
3.24017
3.14714
3.58563
3.54244
3.51536
3.58557
3.28441
3.4207
2.56289
1.225
1.22502
1.27457
1.22501
1.22504
1.22502
1.225
3.32081
2.12111
3.25916
1.48353
2.64227
2.48551
1.40908
2.62016
3.15989
3.16563
3.14127
3.09508
2.99368
2.88577
3.54449
2.86914
3.19563
2.63767
3.09791
2.03328
1.58322
2.72185
3.2582
3.18268
3.18688
3.14343
3.23651
3.07166
2.90726
2.90992
2.81964
1.82329
2.7041
2.9163
2.67637
1.66926
2.95206
2.61147
2.92121
2.90622
2.95101
2.61306
2.88948
2.92516
2.84054
2.20246
1.52527
2.92041
2.52578
1.48581
2.32798
2.88063
2.83925
2.86934
2.77495
2.12788
2.47823
2.32961
2.87764
2.17692
2.7945
2.84343
2.87179
2.09352
1.82649
2.68766
2.49495
1.26475
1.51438
1.72068
3.3226
3.52722
3.6098
3.37449
1.60127
2.91852
2.30275
3.00664
3.12177
2.79091
3.15761
3.13892
3.07412
2.991
3.35378
3.43307
3.39089
3.11778
3.36931
3.25647
2.60351
3.15788
3.36064
3.38471
3.37333
1.94185
2.961
3.19764
3.47316
3.30933
3.13483
3.33596
3.02633
3.33073
3.40262
2.65726
2.66618
2.89146
1.62942
2.33878
1.66133
1.30762
3.41788
3.54424
3.37857
2.99236
2.41227
2.88881
1.66679
1.33956
1.44442
1.86753
2.75613
2.46857
2.21142
1.6525
1.29082
1.50959
2.47001
2.731
2.87175
2.41848
1.82455
3.1365
2.51734
3.21524
2.70045
3.1705
3.06118
1.90883
3.06597
2.70234
2.52403
3.04777
3.12031
2.97357
3.13153
3.22199
3.21236
2.98219
3.25332
2.57568
3.24461
3.16075
2.59217
2.38541
2.82693
1.43147
2.16011
1.58045
1.27157
2.70983
1.7824
3.23734
1.54282
2.30912
1.51238
1.27231
1.79997
1.60128
1.33528
2.16014
1.90399
2.73828
2.60407
0.975428
3.24806
1.16451
1.24608
2.40677
1.16416
2.50922
1.17546
2.16283
2.14911
1.17621
2.51024
1.16653
1.54825
2.01319
0.963621
1.56084
1.16123
2.03211
1.16163
1.1601
1.15567
1.35914
1.35431
1.36267
1.36905
1.17206
1.1628
1.15665
1.36712
1.35703
1.3638
1.37227
2.04095
2.65969
1.30959
1.30839
2.66158
2.40079
2.06417
1.74851
2.51525
2.65341
1.73372
2.52892
2.62358
3.25957
1.14364
1.16835
1.1383
1.36732
1.45779
1.44724
1.37527
1.1687
1.14538
1.13887
1.36756
1.45692
1.37571
1.44721
1.01452
0.967462
1.00591
1.10391
1.07619
1.0683
1.11236
2.3729
2.78537
2.89079
2.87194
2.41119
2.79426
1.2473
1.67065
2.14256
1.65729
1.68913
2.27369
2.25612
1.70144
2.13832
1.66123
1.65421
1.68758
2.26529
1.69621
2.25401
0.963726
1.00016
1.00117
1.09951
1.06365
1.0997
1.06395
1.04165
1.15919
1.03364
1.16511
1.33902
1.33243
1.17234
1.15767
1.03183
1.03044
1.16307
1.33815
1.1663
1.33245
0.544659
1.22121
0.873209
1.03042
0.697534
0.541713
0.868045
0.686882
1.02274
0.871653
2.01972
1.12216
0.855405
1.21491
1.10234
2.00336
0.5389
0.631149
0.62476
0.716686
0.652247
0.723095
0.646265
0.551009
0.625617
0.63079
0.717199
0.656115
0.721251
0.648715
0.689917
0.775777
0.766554
0.759324
0.839817
0.766689
0.831477
0.685851
0.761044
0.756927
0.756976
0.825976
0.757382
0.827434
0.861499
0.999334
0.988291
1.09745
0.953671
1.10799
0.944797
0.851085
0.977056
0.981434
1.09182
0.939702
0.940548
1.09075
1.11129
1.15913
1.16863
1.25863
1.35012
1.2708
1.33872
1.15614
1.10484
1.15507
1.25251
1.33775
1.25246
1.33458
0.811989
0.76211
0.919392
0.866421
0.8183
0.912271
0.756013
0.811645
0.865543
0.762417
0.910746
0.814421
0.909941
0.757269
0.837427
0.936027
0.922526
1.02288
0.844631
0.928326
0.914866
0.835109
1.02056
0.92643
0.912595
0.836111
0.925419
0.911902
1.25422
1.07028
1.47443
1.21319
1.26509
1.06205
1.4629
1.24979
1.21142
1.06106
1.46335
1.05926
1.2516
1.45945
1.46843
1.77846
1.61919
2.00048
1.48291
1.76116
1.60463
1.46224
1.99515
1.75993
1.60581
1.46457
1.75504
1.60016
1.30013
1.52598
1.51331
1.6669
1.65217
1.99593
2.01411
1.29992
1.52279
1.51258
1.66373
1.65146
1.99448
2.0083
1.74627
1.9472
2.371
2.50369
2.36035
1.93137
1.75978
1.74572
2.50492
2.36929
1.94361
1.75711
2.36056
1.93068
1.27011
1.23843
1.59186
1.54419
1.58731
1.23244
1.27601
1.26993
1.54879
1.23757
1.60499
1.27517
1.59231
1.2322
1.4065
1.73626
1.3987
1.64175
1.6344
2.11386
2.12746
1.39784
1.73953
1.40269
1.64188
1.63492
2.11228
2.12146
1.36565
1.58609
1.72487
2.00739
1.71966
1.58025
1.3713
1.36709
2.01478
1.74125
1.59265
1.3744
1.726
1.58307
2.21054
2.62961
2.18958
2.8114
3.27829
3.27303
2.83018
2.1833
2.63322
2.19073
2.80623
3.26638
2.81414
3.26966
2.74508
1.88933
2.39431
1.87145
2.4469
2.74748
2.45698
2.22933
2.65981
2.21677
2.53549
2.74145
2.7515
2.54037
2.66153
2.22648
2.2165
2.53581
2.7461
2.53878
2.75457
2.39315
1.88261
1.86971
2.4462
2.74548
2.45269
2.7489
2.87538
2.92957
2.92454
3.39905
3.40381
3.23156
3.21474
2.87812
2.92802
2.92525
3.39528
3.40418
3.23713
3.22561
1.9843
2.51092
1.97655
2.66289
3.09184
3.09666
2.67392
2.51655
1.99172
1.97968
2.66304
3.09647
2.67336
3.09849
2.85998
2.79508
2.86221
2.88142
2.4794
2.52403
2.85265
2.79944
2.86639
2.86596
2.88962
2.50063
2.87181
2.53311
2.73676
2.75642
2.63037
2.09958
2.65981
2.75795
2.75169
2.75832
2.11006
2.64206
2.74542
2.75351
2.66556
2.76251
3.27812
3.28915
3.36962
3.4991
3.27267
3.38453
3.51352
3.27904
3.36872
3.502
3.28421
3.38327
3.51289
3.27674
2.46312
3.36097
3.38459
2.7736
1.5404
2.73345
1.56763
1.60687
2.18205
1.96991
2.47413
1.25515
2.18883
2.40692
1.99256
1.25912
1.50556
1.25138
1.49487
1.5946
1.98565
2.00164
1.25022
1.60122
1.50044
1.49352
1.59304
1.9836
1.99407
2.6433
2.64253
2.19547
2.74729
2.56616
2.56268
2.75541
1.88587
2.7517
2.41284
2.40104
1.8694
2.46626
2.7537
2.64199
2.18043
2.64394
2.56249
2.75014
2.56354
2.75773
2.39967
1.87811
1.86737
2.46544
2.75148
2.46951
2.75483
1.03509
1.85011
1.07974
0.766558
0.701824
1.03179
1.07917
1.84259
0.702926
0.794718
0.699198
0.79082
0.7628
0.875643
0.879966
0.698708
0.764721
0.794133
0.79055
0.761998
0.875189
0.878757
1.21459
0.875655
1.02955
0.871405
1.01095
1.01666
1.20673
0.915847
1.073
0.910912
1.02497
1.23379
1.03094
1.22511
1.02845
0.872978
0.870384
1.01014
1.21081
1.01411
1.20565
1.07297
0.915457
0.91086
1.02473
1.23205
1.0298
1.22477
1.46333
1.19654
1.46781
1.83293
1.20468
1.45601
1.45231
1.19581
1.83102
1.45851
1.46381
1.20177
1.4551
1.45108
2.61491
2.76428
2.73468
2.76846
2.02341
2.75454
2.64193
2.77002
2.03364
2.62656
2.74293
2.76533
2.75895
2.64737
1.51949
2.69896
3.35055
2.44706
3.37908
2.75918
1.55852
1.29641
1.51924
1.96446
2.02462
1.24911
1.30625
1.55544
2.03738
1.24966
1.30088
1.53417
1.99381
1.30829
1.56212
2.45827
1.27301
1.28084
1.81125
1.8725
1.38953
1.23585
1.28624
1.89961
1.47686
1.75729
1.23698
1.2681
1.4026
2.61577
1.27579
1.36457
1.27396
1.83407
1.46441
1.83208
1.96502
1.84986
2.48612
1.43064
1.24099
1.27789
1.29055
2.6465
1.25399
1.64582
1.31698
2.21405
1.41197
1.23662
3.34725
3.48919
3.32205
3.35846
2.32779
3.17246
3.31041
3.35045
3.48648
3.29054
3.35018
2.45707
3.21791
3.1533
2.27969
2.81896
1.66736
2.021
1.33471
1.51677
1.25479
3.12878
3.21062
3.15253
3.25075
1.86028
2.71447
3.05233
1.58789
1.2384
1.28086
1.23199
1.42609
1.25112
1.33162
3.31913
2.09168
2.38418
1.57361
2.60207
2.88088
3.18289
3.08043
3.24548
3.36322
3.28995
1.50001
2.53045
2.74975
3.17007
3.25369
3.37096
2.96337
1.41839
2.3298
1.90749
2.65847
1.36307
1.8645
1.27512
1.48006
1.27775
1.23412
2.10345
1.25481
1.28141
1.23805
1.32552
1.4172
1.63403
3.0921
2.9044
3.49684
1.83653
2.85907
1.62784
1.27899
1.30291
1.81331
2.70479
1.29288
1.23227
1.30303
1.81465
1.68211
1.56015
2.56525
1.26919
1.22977
1.28767
1.72032
1.22981
1.27316
1.24126
1.47371
1.3744
2.30014
1.83613
1.58222
1.7836
2.60472
1.69117
1.26463
1.29017
1.22981
2.06663
2.71624
3.08286
2.63027
1.27081
1.91488
1.43564
1.24564
1.26833
1.22828
1.42417
1.26003
2.37091
1.63018
1.38106
1.86509
1.27499
1.24265
1.22602
1.231
1.3239
1.53925
1.25018
1.22699
1.38467
1.23769
2.23449
1.37246
3.28873
1.5189
1.61829
1.77626
2.88916
2.55993
2.76026
3.21775
1.30066
2.06734
1.38259
2.46513
1.42012
1.23747
3.27067
1.4496
2.15156
1.41984
2.0538
1.31512
1.23976
1.50209
1.24071
1.29567
1.22907
1.24325
1.22933
1.22592
1.4281
1.26084
1.75107
1.29508
1.22625
1.22909
1.24822
1.23095
1.25073
1.31849
1.2634
1.22555
1.22729
1.23477
1.60115
1.81039
2.88269
2.32437
1.23557
1.33402
1.41955
1.40139
1.35046
1.96629
1.29821
1.22636
1.23722
1.23376
2.26001
1.23364
1.36562
1.24785
1.58357
1.25593
1.22672
2.99874
1.31774
1.27841
1.37772
1.73519
2.23699
1.93465
1.29019
1.72409
1.30633
1.26536
1.22556
1.22948
1.23066
1.22621
1.5232
1.30192
1.30937
1.22501
1.22502
1.57372
1.22508
2.98608
1.4139
1.225
1.31991
1.225
1.225
1.22502
1.225
1.225
1.31797
1.225
1.225
1.225
2.18641
1.22501
1.225
1.225
1.225
2.66483
1.225
1.225
1.225
1.225
1.225
1.225
1.225
1.225
1.225
1.225
1.225
1.225
1.225
1.225
1.225
1.225
1.225
1.225
1.225
1.225
1.225
1.225
1.225
1.225
1.225
1.225
1.225
1.225
1.225
2.03356
2.0741
2.60202
2.09943
2.44729
2.62445
2.01087
1.22539
1.2261
1.47796
2.69919
1.22616
1.32326
1.22541
2.779
1.22603
1.41078
2.74261
1.24043
1.35732
1.22609
2.67329
1.22902
1.22509
1.67625
1.22879
1.2294
1.22509
1.22691
1.79423
3.02914
2.99681
1.31671
1.80283
1.22519
2.13102
2.07177
2.12878
2.72882
2.68705
2.68802
2.72757
2.08123
2.15756
2.13847
2.73515
2.71068
2.74873
2.69566
2.29376
2.60086
2.29193
2.85174
2.99664
3.00358
2.85026
2.60883
2.31979
2.30136
2.8548
3.00071
2.8642
3.00224
2.743
2.7793
2.74446
2.797
2.79642
2.32187
2.26682
2.74565
2.78617
2.78572
2.80107
2.80042
2.332
2.28966
1.225
1.23033
1.23265
1.23318
1.22502
1.22635
1.225
2.67667
2.37571
2.40622
1.94316
1.97591
1.44349
1.42668
2.65879
1.92441
2.35839
2.3984
1.96734
1.43908
1.41741
1.74003
1.5223
1.68486
1.26907
1.2501
1.26201
1.24554
2.40501
1.98694
2.68863
2.70898
2.44963
2.04227
1.51194
2.71389
2.42325
2.45738
2.00924
2.05212
1.51811
1.49071
1.38868
1.45634
1.61174
1.24563
1.23554
1.25388
1.24041
2.71556
2.98609
3.18542
2.9905
3.20133
3.04761
2.75931
2.99407
3.18867
3.2022
3.02855
3.0449
2.7562
2.71313
1.41319
1.29204
1.37799
1.23025
1.23728
1.2348
1.22912
2.47361
2.33489
2.96333
2.97473
2.51058
2.37416
2.99456
1.22502
1.225
1.29292
1.40259
1.22544
1.22828
1.22514
2.96973
2.49665
2.98705
2.30907
2.96181
2.36052
2.99097
1.225
1.225
1.225
1.26603
1.225
1.225
1.225
1.5666
1.3229
1.225
1.225
1.225
1.225
1.225
1.225
1.225
1.225
1.225
1.225
1.22501
1.225
1.225
1.225
1.22668
1.225
1.225
1.22535
1.225
1.225
1.225
1.225
1.225
1.28492
1.225
1.225
1.225
1.31773
1.225
1.225
1.225
1.225
1.24855
1.22502
1.225
1.225
1.225
1.225
1.225
1.225
1.225
1.225
1.225
1.225
1.225
1.225
1.225
1.225
1.225
1.225
1.225
1.225
1.225
1.225
1.225
1.225
1.225
1.225
1.77126
1.225
1.225
1.2423
1.225
1.225
1.225
1.225
1.225
2.36952
1.225
1.225
1.225
2.5315
1.22501
1.225
1.225
1.225
1.82953
1.225
1.225
1.225
1.225
1.225
1.225
1.225
1.225
1.225
1.225
1.225
1.225
1.225
1.225
1.225
1.225
1.225
1.225
1.225
1.225
1.225
1.225
1.225
1.225
1.225
1.225
1.225
1.225
1.225
1.26112
1.22505
1.225
1.225
1.225
1.225
1.225
1.225
1.225
1.225
1.225
1.225
1.225
1.225
1.225
1.225
1.225
1.225
1.225
1.225
1.225
1.225
1.225
1.225
1.225
1.225
1.225
1.225
1.225
1.225
1.225
1.225
1.225
1.225
1.225
1.225
1.225
1.225
1.225
1.225
1.225
1.225
1.225
1.45041
1.22514
1.225
1.225
1.225
1.225
1.225
3.12863
1.22752
1.225
1.225
1.225
1.225
3.26472
1.22804
1.225
1.225
1.225
2.22621
1.22501
1.225
1.225
1.225
1.225
1.225
1.225
1.225
1.225
1.225
1.225
1.225
1.225
1.225
1.225
1.225
1.225
1.225
1.225
1.225
1.225
1.225
1.225
1.225
1.225
1.225
1.225
1.225
1.225
1.225
1.225
1.225
1.225
1.225
1.225
1.225
1.225
1.225
1.23044
1.225
1.225
1.225
1.225
1.225
1.225
1.78724
1.22505
1.225
1.225
1.225
1.225
3.15022
1.22506
1.225
1.225
1.225
1.27569
1.225
1.225
1.225
1.225
1.225
1.225
1.225
1.225
1.225
1.225
1.225
1.225
1.225
1.225
1.225
1.225
1.225
1.225
1.225
1.225
1.225
1.225
1.225
1.225
1.225
1.225
1.225
1.225
1.225
1.225
1.225
1.225
1.225
1.225
1.225
1.225
1.225
1.225
1.225
1.225
1.225
1.225
1.225
1.225
1.225
1.2251
1.225
1.225
1.225
1.225
1.225
1.22576
1.22501
1.225
1.225
1.225
1.22501
1.225
1.225
1.225
1.225
1.225
1.225
1.225
1.225
1.225
1.225
1.225
1.225
1.225
1.225
1.225
1.225
1.225
1.225
1.225
1.225
1.225
1.225
1.225
1.225
1.225
1.225
1.225
1.225
1.225
1.225
1.225
1.225
1.225
1.225
1.225
1.225
1.225
1.225
1.225
1.225
1.225
1.225
1.225
1.225
1.225
1.2251
1.22501
1.225
1.225
1.225
1.225
1.225
1.22861
1.225
1.225
1.225
1.225
1.225
1.22806
1.22501
1.225
1.225
1.225
1.225
1.225
1.225
1.225
1.225
1.225
1.225
1.225
1.225
1.225
1.225
1.225
1.225
1.225
1.225
1.225
1.225
1.225
1.225
1.225
1.225
1.225
1.225
1.225
1.225
1.225
1.225
1.225
1.225
1.225
1.225
1.225
1.225
1.225
1.225
1.225
1.225
1.225
1.225
1.225
1.225
1.225
1.225
1.225
1.225
1.225
1.225
1.225
1.225
1.2254
1.225
1.225
1.225
1.225
1.225
1.225
1.225
1.225
1.225
1.225
1.225
1.225
1.225
1.225
1.225
1.225
1.225
1.225
1.225
1.225
1.225
1.225
1.225
1.225
1.225
1.225
1.225
1.225
1.225
1.225
1.225
1.225
1.225
1.225
1.225
1.225
1.225
1.225
1.225
1.225
1.225
1.225
1.225
1.225
1.225
1.225
1.225
1.225
1.225
1.225
1.225
1.225
1.225
1.225
1.225
1.225
1.225
1.225
1.225
1.225
1.225
1.225
1.225
1.225
1.225
1.225
1.225
1.65494
1.22508
1.225
1.225
1.225
1.225
1.225
1.225
1.225
1.225
1.225
1.225
1.225
1.225
1.225
1.225
1.225
1.225
1.225
1.225
1.225
1.225
1.225
1.225
1.225
1.225
1.225
1.225
1.225
1.225
1.225
1.225
1.225
1.225
1.225
1.225
1.225
1.225
1.225
1.225
1.225
1.225
1.225
1.225
1.225
1.225
1.225
1.225
1.225
1.225
1.225
1.225
1.225
1.225
1.225
1.225
1.225
1.225
1.225
1.225
1.225
1.225
1.225
1.225
1.225
1.225
1.225
1.225
1.225
1.225
1.225
1.225
1.225
1.225
1.225
1.225
1.225
1.225
1.225
1.225
1.225
1.225
1.225
1.225
1.225
1.225
1.225
1.225
1.225
1.225
1.225
1.225
1.225
1.225
1.225
1.225
1.225
1.225
1.225
1.225
1.225
1.225
1.225
1.225
1.225
1.225
1.225
1.225
1.225
1.225
1.225
1.225
1.225
1.225
1.225
1.225
1.225
1.225
1.225
1.225
1.225
1.225
1.225
1.225
1.225
1.225
1.225
1.225
1.225
1.225
1.225
1.225
1.225
1.225
1.225
1.225
1.225
1.225
1.225
1.225
1.225
1.225
1.225
1.225
1.225
1.225
1.225
1.225
1.225
1.225
1.225
1.225
1.225
1.225
1.225
1.225
1.225
1.225
1.225
1.225
1.225
1.225
1.225
1.225
1.225
1.225
1.225
1.225
1.225
1.225
1.225
1.225
1.225
1.225
1.225
1.225
1.225
1.225
1.225
1.225
1.225
1.225
1.225
1.225
1.225
1.225
1.225
1.225
1.225
1.225
1.225
1.225
1.225
1.225
1.225
1.225
1.225
1.225
1.225
1.225
1.225
1.225
1.225
1.225
1.225
1.225
1.225
1.225
1.225
1.225
1.225
1.225
1.225
1.225
1.225
1.225
1.225
1.225
1.225
1.225
1.225
1.225
1.225
1.225
1.225
1.225
1.225
1.225
1.225
1.225
1.225
1.225
1.225
1.225
1.225
1.225
1.225
1.225
1.225
1.225
1.225
1.225
1.225
1.225
1.225
1.225
1.225
1.225
1.225
1.225
1.225
1.225
1.225
1.225
1.225
1.225
1.225
1.225
1.225
1.225
1.225
1.225
1.225
1.225
1.22545
1.22509
1.225
1.2252
1.225
1.22688
1.225
1.225
1.225
1.225
1.225
1.225
1.225
1.225
1.225
1.225
1.225
1.225
1.225
1.225
1.225
1.225
1.225
1.225
1.225
1.225
1.225
1.225
1.24267
1.225
1.225
1.225
1.225
1.225
1.225
1.225
1.225
1.225
1.225
1.225
1.225
1.225
1.225
1.225
1.225
1.225
1.225
1.225
1.225
1.225
1.225
1.225
1.225
1.225
1.225
1.225
1.22502
1.27429
1.22509
1.3271
1.22502
1.22518
1.79241
1.29813
2.45579
2.92265
2.13527
2.35449
2.66022
1.91666
1.22508
1.31547
1.22501
1.26307
1.22502
1.22517
1.76437
1.46873
1.22746
1.225
1.22528
1.22505
1.225
1.24848
1.2498
1.25111
1.22501
2.75276
1.23707
1.33146
1.22586
1.24162
2.92868
3.08667
1.5232
1.26084
2.63943
3.0097
1.24091
1.22501
1.22584
2.67296
1.22591
1.30259
1.22532
2.20394
1.22586
1.23952
1.225
1.22815
1.22856
1.22508
1.25643
2.04356
3.26518
2.46955
1.22815
2.54314
3.08344
1.27943
1.96663
3.24897
3.11732
1.23067
2.37056
2.93181
2.49536
1.22507
1.2274
1.22508
1.30012
1.22664
1.225
1.44047
2.53725
2.96217
3.19006
1.23053
2.69088
1.22556
1.23159
1.22535
1.225
1.90538
1.22933
1.23623
1.22501
1.40357
1.22526
1.225
1.22502
1.22543
1.2277
1.225
3.09976
1.22503
1.4706
3.01282
1.29804
1.71481
1.22515
1.22616
2.87563
2.9199
1.25049
1.22511
3.12584
2.0063
2.20194
2.19358
2.25784
2.82805
2.74151
2.77739
2.79661
1.22501
1.225
1.22521
2.08217
1.24507
1.225
1.22513
1.225
1.23868
1.22501
1.22523
1.225
1.22504
1.225
1.22573
1.225
1.225
1.26604
1.22501
1.22505
1.225
2.50841
2.30733
2.36231
2.89577
2.95997
2.96329
2.87696
2.72505
2.35675
2.42476
2.91905
3.00515
2.88541
3.01102
1.91792
2.4414
2.50972
2.49764
2.56259
3.03235
3.01094
2.49723
1.225
1.23174
1.23301
3.09543
1.22501
1.34667
1.22566
2.93808
2.65806
1.22606
1.225
2.83934
1.23181
3.18495
2.739
1.2262
2.36658
1.23328
1.225
1.29508
1.22972
2.5962
3.07274
1.22505
1.225
1.66943
1.28316
1.22588
1.225
1.225
1.225
1.225
1.22507
1.22552
2.77727
2.76437
2.76448
2.72808
2.72999
2.05512
2.20078
2.09633
2.56224
2.61158
2.70012
2.74155
3.11465
3.10254
3.17643
1.22691
1.79682
2.02237
1.22512
1.22697
1.225
2.6722
2.81808
2.53149
2.96042
2.9732
2.99229
3.008
2.68531
2.83428
2.86449
3.02459
3.00984
3.00216
3.04199
2.10244
2.89816
2.94694
2.65163
2.70903
3.11445
3.21739
1.22571
1.225
1.225
1.225
1.23288
1.22512
1.225