/*--------------------------------*- C++ -*----------------------------------*\
  =========                 |
  \\      /  F ield         | OpenFOAM: The Open Source CFD Toolbox
   \\    /   O peration     | Website:  https://openfoam.org
    \\  /    A nd           | Version:  9
     \\/     M anipulation  |
\*---------------------------------------------------------------------------*/
FoamFile
{
    format      ascii;
    class       volScalarField;
    location    "0.0013";
    object      overpressure;
}
// * * * * * * * * * * * * * * * * * * * * * * * * * * * * * * * * * * * * * //

dimensions      [1 -1 -2 0 0 0 0];

internalField   nonuniform List<scalar> 
10591
(
566884
900461
316186
476110
89549.1
8.68323
473.86
437843
589024
36502.9
772.618
682440
809054
933518
983591
808506
511165
67040.4
599941
631200
654516
678254
700330
780470
760286
586367
11087.1
513744
18541.4
964107
6364.25
1.1582
535352
597082
514004
524267
420072
452498
332542
617277
774172
680337
857175
735507
830088
948165
16142.4
1.43225
1854.34
11.1632
466.171
0.226156
0.111019
709036
829375
727335
875975
943318
942877
859122
828343
923184
846001
914316
903510
868000
906721
562462
341151
451938
164056
331895
199217
68254
495961
358184
448063
197721
326598
216520
91570.2
1.00841e+06
984186
1.0014e+06
989697
906043
978621
768526
893113
882490
767540
921697
905237
952232
982494
283022
11926.1
164407
9966.33
156147
68663.4
3342.85
968907
905845
892305
941011
603771
793040
932997
218293
231577
360141
93216.7
4573.83
20624.5
23695.5
932304
769777
881163
431970
837508
710452
946099
876153
372879
761866
187303
585913
338919
44076.7
1.01728e+06
705085
899273
663012
876841
532128
221987
169116
115492
41079.4
37453.5
11846.5
6188.88
1707.54
903028
302223
515274
255773
739046
574094
788481
17181.3
3546.35
72635.4
20976.5
205.846
926.668
4695.07
886238
114102
570644
244446
733123
313429
22178.1
10602.9
2401.21
52589
16693.8
146.492
3336.94
753.579
70695.2
2217.73
10181.1
727.77
3399.87
459.581
97.7103
129380
237916
542922
105533
774.152
14676.8
6440.92
156828
743980
400744
805892
512357
543280
184424
654844
574586
155584
413904
525136
334670
514842
625194
312553
371041
399640
696871
358269
826199
474055
437859
655048
319383
364918
341352
408569
506202
452092
91807.2
233687
202603
253931
247567
305788
327712
269333
351308
558906
682214
447461
540006
760375
948207
323627
298243
283823
376116
341446
358471
390481
280206
256970
226337
355976
332427
390078
297417
377982
382913
367426
436299
467596
497702
455636
381246
359822
337051
421687
449225
482939
455725
532306
903911
562299
831452
648308
978159
43708.3
325349
469118
386943
409025
441185
492618
350139
327821
297777
307647
391807
390439
428705
429605
397.372
459761
428284
489367
424357
229743
1015.22
350006
343388
317979
381431
438415
410334
410761
484930
331268
23734
305718
649554
6144.56
97.5418
430959
430802
403886
541180
520325
602453
482742
295128
340237
395467
374086
428783
471936
421081
486265
442763
410784
429996
549593
507597
461847
436668
475104
555336
418413
470199
521565
381325
389991
463241
414177
536328
594825
617605
512210
110429
7.89496
200.057
490032
377963
572597
88993.8
938321
508802
603390
781269
859110
301078
982171
375141
438537
413241
474159
445043
485640
518622
525231
790660
593980
640514
696734
849291
553842
407541
353891
358229
550301
483202
479979
528981
454484
582298
569412
520770
484983
534993
487418
796811
569921
596649
656774
710126
841787
621296
395512
358084
314054
477727
422858
460258
507044
391565
494916
443328
520009
533162
570473
474388
594813
461710
509418
552577
612132
640813
511556
466783
513593
609736
568987
686861
631235
794991
535132
623130
637957
693027
729970
854094
774899
525772
503627
503309
562235
558105
524750
473838
709225
753519
645240
963916
797656
912068
593557
485067
507495
457577
532652
634932
585806
571391
418808
529038
543094
541816
530984
532504
538057
738284
701221
881013
733554
829817
878174
680158
445438
384096
448719
498957
517908
527669
527429
611358
563316
522105
566130
759713
664327
615893
437343
544525
549167
542681
537903
523322
507536
599919
678373
631259
780555
700399
654478
566968
483478
578796
609124
555642
556054
626572
530684
548844
575803
605313
598229
625131
692930
674098
80627
1.03478e+06
746849
50777.3
876102
6.54419
6392.69
523981
596887
588945
535247
332437
513882
420094
525573
543128
560646
565087
532229
480596
436601
445950
506799
505902
511503
297121
400292
484881
617330
857534
774463
830235
735712
680393
682692
572549
832927
708198
815261
711273
911956
999869
563405
680387
625098
715592
646714
724431
832326
510047
530456
546732
465223
518720
458940
363154
713876
987374
895331
967344
801043
973840
971838
751578
913553
775167
940726
717332
949946
788339
762516
651788
672554
788086
897834
911756
769085
839299
747670
902307
921871
398680
749022
701562
557727
446441
513562
552979
502425
367667
262901
496008
198278
358453
216685
448107
326904
438165
479698
566064
561460
430135
239384
224682
440434
652349
522130
576327
451347
578336
446658
285909
709066
875928
727347
829408
943082
942610
808533
428359
194132
451517
318228
34705.8
52887.3
279335
547559
460489
556033
408849
149367
194509
373465
218325
472597
465441
341730
74452
352893
67133.1
562075
198951
451702
163368
475524
340745
68024.5
808985
788123
699153
840363
997104
952173
963361
893283
921615
767645
882502
904562
951863
983471
963155
876459
934810
1.03949e+06
1.02826e+06
1.02079e+06
978324
1.00129e+06
984349
900995
1.00858e+06
767585
905504
989501
392659
63615.1
338777
18832.7
221542
149048
8609.18
529867
302697
495164
95111.2
319765
241180
45556.1
454534
429421
523671
339301
47911.8
154211
197217
983221
665115
541572
946830
875545
699499
254590
930794
965957
941182
720879
912694
949292
922616
875884
186252
371757
337634
584726
761199
585558
231730
93199.6
360082
218102
4573.7
20589.5
89550.3
480263
254723
408060
311165
361673
301138
198525
272821
365527
482990
61156.2
467726
267496
387876
320594
295055
528146
231175
194987
227160
275231
279517
330676
326104
214531
249117
204783
238261
287635
340028
356073
227782
263990
244458
283876
347158
379325
410829
18881.2
336703
558085
549556
146202
409108
4417.35
268292
333430
328199
399109
476365
479264
394586
294381
281100
343907
409555
502463
487539
427581
481631
415077
417682
465206
479929
476842
463694
266010
351813
312013
428162
382737
450022
493253
435870
480678
424007
470359
463274
471654
480522
313822
425084
341168
521516
452087
482244
539584
477341
452442
473305
448718
494273
508670
423810
406647
394548
478522
477731
527269
534171
551070
432594
474261
379738
516353
535065
544020
547537
446206
514345
496433
516445
324291
384247
507860
507667
357400
520053
444012
516408
438734
508173
509520
410368
502771
339984
511318
428152
513415
382516
486804
515600
511085
204814
340852
457852
471224
579588
549572
524711
551366
524751
444527
497451
572749
569537
491543
547710
515032
407691
483141
513875
347790
234251
473959
408955
123620
492038
191699
129486
338399
279327
452062
410876
98151
294465
538110
524248
578420
435941
266391
7809.7
39376.5
301119
133047
416132
301163
39388.4
97210.9
228507
385170
277864
4750.05
104124
30877.4
8920.92
259236
26845
77385.5
1056.33
3378.76
26621.1
197588
338580
435005
145063
4553.88
59177.5
15768.2
1.00518e+06
887981
1.02288e+06
874552
1.01159e+06
819644
504089
145630
883.429
23553.6
9824.14
20428.9
157962
8623.16
40783.5
114872
315325
168629
1698.9
11789.5
37265.6
959713
788633
577904
677786
848644
913999
968781
1.01709e+06
530935
898758
662035
963675
704286
221079
121229
4136.29
9251.73
649.964
15017.4
6498.67
87471
171.519
1000.08
25753.1
1298.95
6869.64
33406.3
134846
70533.2
727.015
2214.26
458.177
3390.95
10150.1
16125.1
2168.84
4778.62
51180.5
22725.6
82.5754
937.813
2002.21
374953
489387
800199
380511
3891.52
81542.6
44538
458471
314916
793104
376804
2886.26
33840.3
77631.3
128673
104893
541890
237068
769.017
14582.5
18425.3
307670
321896
559881
285171
572490
297716
176896
157146
138223
178014
141653
182021
180833
224864
220260
147928
197860
199055
188863
187743
232457
243745
228277
280086
223641
279051
352775
358782
273843
292586
225372
229981
282847
374915
277819
380716
246972
293875
235762
287830
393797
371453
301430
306928
249009
237647
291711
416761
393670
305546
360646
568635
488408
503698
493089
354795
507678
373351
526658
537135
565075
506180
519299
395773
407213
496374
511016
963376
246304
44746.4
396545
44.7571
578774
110089
511433
732321
800299
927302
286095
568401
708210
287390
715492
570499
287147
410981
527501
909645
508070
917565
500801
480574
496542
583835
294620
417829
349685
461546
666630
843736
470058
490357
509180
621049
553293
965699
237215
352092
474308
571263
832185
674107
416139
501846
463062
317734
29915.3
315276
29506.3
467401
509630
615662
919408
895085
380944
487145
712503
892487
21180.8
478439
510551
484607
558231
94486.6
2447.82
350048
283091
346477
424554
368242
428513
363462
350473
283256
346745
424786
367899
429262
363327
710796
788349
427277
255395
1.02083e+06
577144
829078
357939
306642
369746
377609
437829
450724
392574
301231
295231
349914
314661
369184
421357
369124
376985
405995
375309
445383
480080
447815
478148
395927
197319
492442
537.976
43264.2
716969
437224
701979
2459.53
720479
679754
592959
958027
125835
379099
407354
376054
446301
484385
479714
450321
324837
408618
386455
468667
440744
492255
413402
474725
472870
523399
580108
577814
684392
689512
531065
474929
524616
588221
580633
686327
695180
385573
428168
395823
493196
458006
469691
506448
518775
491058
513945
707950
661786
713085
659230
520289
490985
514457
708317
658569
657758
714316
331291
391728
371494
411551
388846
435802
459619
442426
429648
410367
485845
549145
507248
524655
543205
504844
563174
602218
713627
623678
744449
532998
532820
556776
665066
730167
757964
678958
436353
418124
469980
474737
521297
555145
514551
769070
888994
489873
731576
922327
483320
570241
508156
607769
462523
562776
512236
603440
457283
508435
563409
610706
462437
604350
513321
457057
391448
519995
443263
494928
533141
570518
447410
352699
464961
405083
476723
492402
534404
428543
446324
442693
514537
472842
553985
530258
645263
622408
474214
522967
537464
603585
640006
492041
468041
463104
459034
577778
577352
528446
526857
462792
461210
458282
573921
575687
527320
524224
446962
519529
534952
560781
575295
704737
705229
569883
656145
596309
796316
710200
841152
696950
524790
639795
593518
695744
653920
789696
848232
454209
520512
484784
581862
534712
569187
624758
498475
469618
484204
573982
575439
521247
516856
552532
461508
509295
594699
611969
640745
558691
523105
572665
626331
705113
526218
622668
570215
557058
630726
543087
696456
582224
664114
515262
485008
532629
457537
507511
634838
539947
585822
441316
476444
419783
488960
582446
548025
517300
642425
589326
538509
552878
759515
662031
607071
524039
707365
630060
577935
623762
572017
529064
390921
490448
530402
492869
528856
645839
596387
548904
598226
692969
575798
605374
625190
508796
526040
524982
503714
562462
574846
503641
473778
526074
561899
555411
588104
593597
661511
639021
479716
511596
477530
499986
451964
458995
496032
572646
797438
668130
728395
598720
690023
632399
477766
511036
476711
499540
451346
494843
458941
566049
563076
521971
611181
759229
664153
681752
577550
739267
613081
651676
769995
791491
621016
737366
733243
828797
701470
877694
880953
655566
708230
644590
796496
752474
911097
825190
963252
1.01182e+06
137131
16.6086
106649
1.05065e+06
676914
891258
575464
712.022
243846
13.4577
77.0994
64833.8
5127.93
736841
911267
734481
887817
935812
888092
942257
913758
747542
738090
889327
937192
942544
893030
483234
511667
493835
435932
486849
472156
408504
500958
720841
601847
701912
604890
765113
917727
766198
929788
942341
903539
795562
921066
918083
856006
695939
765628
519061
853674
775371
700362
854976
516033
760401
689474
773118
697501
851499
563446
715466
724410
680370
625150
603356
646735
572344
911071
707448
814805
648053
832135
999473
421345
567156
524879
560330
544795
560672
516883
538867
660225
650810
605772
611966
686472
764153
737335
677867
850409
850630
418964
700504
659660
957665
883009
835716
941161
856083
958017
896227
533463
329361
539385
443774
203476
215886
436449
328576
529424
537824
443483
202570
215811
435249
702722
747219
901157
834427
769373
849078
677063
718198
777552
632569
677797
934796
833226
784291
506721
511608
506265
445651
296446
399944
364240
940101
750706
774037
912757
717761
831106
949899
662057
824749
656883
866046
861621
987171
838559
4138.09
0.415496
1.48686
1507.55
1782.27
669594
24754.7
514062
237193
488178
174275
417629
386437
132032
844582
342488
575319
558890
822083
643991
628553
625201
605691
597779
626368
694309
574445
453670
652166
447051
576471
452059
649766
522472
286475
973178
713136
894247
967017
903182
987125
971987
788074
651802
672592
762515
897884
911808
743968
750638
634897
658060
750633
870516
889200
731565
738476
931474
926781
953624
814794
888822
860986
921702
747712
901600
839618
399853
749716
563098
169058
381741
446820
337957
36910
265308
82402.5
934556
876251
746580
962662
978581
1.03938e+06
1.02827e+06
929501
788798
958154
923289
967982
933170
681358
884341
833628
812406
1.03147e+06
1.03595e+06
988181
1.04431e+06
840312
788069
699181
808965
997283
938307
952245
362723
240790
103857
34321
113507
253685
352991
362693
34216.9
103213
239607
113453
352258
253494
793874
756689
682452
793871
1.00892e+06
922320
937268
568711
569042
528778
473784
412743
398828
201909
82459.9
209865
329570
290970
12453.2
54380.2
163671
339580
454640
523859
429704
47980
305881
154505
553782
530107
578402
491239
160409
319175
385475
488946
434020
771772
686562
44659.9
274044
353615
982969
542389
700132
665591
946940
806039
875860
981976
742595
779670
1.00466e+06
987249
855350
456795
963303
849030
984471
871110
310509
756450
520651
895742
972354
842333
972629
965707
962361
878231
231606
6123.25
52483.6
10545.9
151198
26880.6
106883
224962
335982
554680
383697
9995.72
152106
87801
495507
419088
462713
244759
210333
117125
27281.1
214186
406077
346856
206484
220757
361003
412147
626727
354523
510374
496507
354648
86999.4
156269
227299
57888.8
351020
214059
381214
253077
231738
250642
425199
206192
380251
358747
96978.9
165035
268889
390293
106451
240305
388149
248351
226626
455592
455476
261214
228096
420226
420814
177946
193344
242081
209930
337539
432243
180798
200187
507376
428772
210863
240600
228498
225859
149832
210835
272230
272025
214238
156398
226434
149759
210229
268443
212257
270823
242113
254230
244568
297958
300598
301809
296518
253603
239375
243644
297334
297914
295095
300547
60037.7
56063.8
81102.7
135668
101189
140513
96787.2
86226.1
55294
80806.5
135319
99605.1
139440
96120.6
209420
208167
233638
286340
260551
259944
285129
228840
206871
232454
285279
257719
282655
258623
229640
230120
176033
270746
217754
224115
271784
66918
77430.2
110088
108927
148192
159348
119928
236264
247294
235843
297991
293712
296020
299510
320837
420936
518469
297028
410605
125277
255840
630823
774375
364030
511829
482508
279423
250260
207382
208386
226393
260100
282280
284094
263270
90567.3
141968
125076
173462
149464
191817
133203
231775
200695
187436
233474
287022
246814
277074
250244
254762
241384
305295
319465
306383
322325
173806
164841
161550
227264
224670
209114
212309
224910
161853
175126
172779
160255
223486
207902
197096
270820
152986
210529
267214
201191
148702
335774
363170
398114
527487
483123
232107
262456
270864
151819
200523
196974
210251
267267
148183
214043
243724
231071
292253
289045
307883
272321
185983
169283
177064
231020
237667
217825
226742
262907
317360
311072
352444
315148
310348
265013
307393
315172
262641
262153
351067
314379
308967
353113
426987
349231
402799
423063
348657
354149
278039
160064
208054
218573
231273
289320
170301
353200
401997
346314
352516
401225
422299
347348
162542
147239
188641
169747
215373
244864
195394
321801
312077
268011
273749
365565
329263
315856
195417
204411
188677
265518
248798
239288
256238
434480
350924
356728
364109
422056
447445
356661
507650
503848
283782
502880
228395
508407
277517
336899
407619
312669
377621
403854
310836
337928
310894
406275
336178
335925
377202
403214
309866
218133
274945
240321
301219
264934
288013
319230
235982
520068
244355
317336
533886
281401
573233
233210
247070
327293
202185
305300
253499
183958
414850
316077
340129
346818
400903
427981
323660
171551
189400
168276
216093
243807
220051
239272
191483
218202
169349
188527
167169
215198
238547
277637
303483
308624
339116
348421
382672
363200
265469
279727
294691
313571
332328
367032
347298
279828
342876
276926
262348
338272
333489
266106
258108
174009
220413
280646
267323
321992
227739
283413
375873
358136
334508
341045
297897
323385
264373
345825
278180
342447
276078
261523
333195
177416
210472
186849
251441
226854
237258
262901
284986
368682
294035
347739
272679
283197
364551
359952
421702
482779
358285
449235
381285
337117
378082
436188
497482
382935
467537
367448
399660
355626
225955
279827
312251
332120
389811
256656
224667
258958
288448
250408
279043
319185
310312
223773
215514
199463
250909
298753
268729
278035
296803
296144
266582
316022
372673
349327
341977
390988
330905
346325
426313
426920
482668
391281
391972
327911
307759
297952
429949
390837
319563
381158
349918
317701
343165
438267
410125
370974
272520
363581
415413
308136
358358
277038
303106
306936
363426
275566
271925
415718
358333
302682
351081
340044
471844
373857
395320
428608
294875
381728
316679
332510
415192
459663
482353
393800
540742
403890
430857
473778
520010
601731
430758
226538
277500
223007
279742
273412
352913
358102
223782
285403
279255
280329
274066
353250
359325
374757
317626
284764
296907
452332
394433
333933
535867
389880
414060
462900
594181
616754
437539
247207
294214
288139
301775
308043
372144
394520
292575
326805
283319
428448
361977
356281
429324
236045
291724
262278
329701
292985
328410
379091
374977
438456
485561
474002
413139
444896
400658
358238
480157
354015
550099
407369
408574
529011
261882
349274
320791
359980
328093
428963
477091
314363
478321
460710
396021
423461
341667
358603
531827
513433
793948
568626
609075
685916
466657
534506
852960
622221
692268
636980
728822
511731
345009
333298
296604
384850
529289
466687
451551
570295
359600
504197
354748
489151
493475
573322
375638
501349
370243
490500
547771
494628
551612
500862
376217
370365
490242
546370
494343
551056
504265
361133
355218
489098
568947
493940
572709
578332
608970
483078
484787
530925
555521
556139
389331
522067
412560
541162
505941
524193
532386
499200
449089
384346
445580
517828
527753
506347
373989
537717
396442
565276
507023
527354
559899
533222
490265
446887
544903
471002
511670
558508
557622
477828
430195
550539
516841
569555
546773
229564
229908
283374
240235
296599
516759
490910
307098
344664
156836
111265
250403
211569
262208
136059
195386
268548
99240.4
98678.4
146217
112498
142288
159738
156956
130817
155458
132178
205924
179854
176468
200599
111530
150777
126099
177385
153114
168473
193124
248735
239202
188624
265458
210834
204353
256138
182822
237024
186790
221110
214651
273802
264725
236243
167029
190911
212457
169101
144680
187957
310300
319249
259022
278968
288435
232115
224624
298492
240412
277778
250723
223587
199322
215374
359179
343219
473964
537317
409945
80275.3
496038
266432
193524
217108
249082
224706
275747
306458
356380
362169
292710
428842
335987
326938
429580
260376
297432
252109
377752
318522
308838
368927
291604
378920
328331
292841
329469
262290
235930
280068
277376
270544
329666
332765
342516
422603
333247
451482
384874
345084
529279
398131
466800
289412
308879
261935
322410
455472
391720
363618
167827
134277
71713.3
159727
279026
90118.9
26962.2
210270
94182.5
165644
305882
294204
223170
84975.3
191684
48608.1
61424.3
121876
94633.4
135525
103645
127313
153174
65099.7
108958
90156.7
125303
107912
132852
148272
33850.4
40311.8
56646.1
43066.8
61319.9
81793.6
57944.7
52293.7
71648.1
77775.7
89134.2
96191.9
122361
113952
98575.9
55557
77773.5
102208
94800.1
124883
74303.6
152852
134648
118722
165247
208302
200955
176877
144365
142851
120232
149773
202474
174567
175526
62807.8
121473
89654.3
109286
109600
143369
79802.6
170384
176066
139636
159711
231028
196946
189057
170374
214619
156351
184731
247826
194927
243060
141736
100557
107727
154428
181720
189974
145817
204435
136888
147025
174479
219535
231732
164383
131642
123936
203677
132680
159251
170604
100044
182856
240261
251523
254882
210115
222261
213526
218312
255336
318793
275898
256342
224520
278411
207236
234925
306757
253864
244343
265691
197242
27524.8
-493.631
25567
609.378
-40499.3
20139.6
73139.4
127407
81860.4
21948
-97810.1
-93071.2
106078
76002.6
71764.6
90158.7
-97607.1
-81268.3
-86847.2
-72984.1
-78820.9
-35172.1
-23038.3
-72584.6
-63458
-33040.7
-57467
-28924.4
-13113.6
-23133.4
-17787.9
4680.48
-13707.5
5744.32
-12109.3
-4801.87
9345.02
-98402.5
-86362.4
-88928
-77929.1
-81617
-42645.2
-38899.6
11765
-32568.8
-17806.7
15989.5
83719.7
35557.1
55039
5969.35
-35889.4
-46413.3
15648.8
73259.8
31937.7
51747.5
38433.6
111523
74178.5
-5006.4
-4809.55
24128.6
50158
88396.4
79556.8
64884.9
-1044.55
-14669.8
33748.2
48827.7
36052.1
39287.1
-3710.9
-48355.7
6751.57
-52460
4808.28
31091
15109.9
7956.55
8657.4
-6552.09
9613.4
15591.4
71791.8
22854
53262.9
52325.4
-19197.9
-23419.1
22306.6
29934.9
39611.2
19549.1
10914.9
-1177.85
13140.3
17141
94681.4
153207
121837
103728
135499
61514.2
94188.1
132877
148258
108909
125244
107893
65143.9
84946.7
57989.5
40335.3
56692.7
43125.2
61395.7
33912.6
26974.5
77839.6
114064
122425
96215.3
89204.1
48717.6
52368.6
90229
29901.5
74880.2
164319
39069.2
70650.7
149910
102294
146538
259353
128590
79466
160166
100672
118744
274871
266281
53412.7
15786
-31441.4
-71806.7
98614.7
68824.8
126827
70534
-39846.6
-71795.3
-93390.6
-22988.9
-58843.9
-26253.5
2334.93
52040.7
114422
78518.7
110325
88196.4
116659
137293
37563
98600
151916
159213
89058.8
251570
279607
44816.6
98532.7
67102.9
93339
74519
110849
127180
7020.4
36819.2
-5967.52
-32018.4
13206.5
43408.7
23433.8
-3529.4
22922.5
10397.1
36954.4
10968.4
24341.4
47763
61995.8
67252.8
32985.2
57299.7
62571.1
99631.2
92920.3
54639.2
25155.3
29897.1
38842
53865.2
76031.4
54397.1
27433.5
53500.3
-2177.58
59746.6
21741.9
36982.1
72130.3
30832.8
13995.3
35948
58417
81887.7
39178
62713.9
110799
86044.4
48092.4
113901
76182.4
54037.1
90471.8
31056.1
62007.2
67825.5
57797.6
63584.9
91429.2
94919.2
135359
142214
115494
142244
194390
169219
164335
97207.7
54154.5
75550.5
97225.9
91537.8
120665
70658.9
120292
175620
142871
144450
202549
174701
167880
74371
55574
77815.1
98625.4
94885.5
124991
71743.6
146867
124849
108458
146872
195145
160154
186479
165268
176861
134629
152868
208268
165622
200983
65542.3
74102.4
41759.7
52906.8
112126
86922.5
77474.5
90504.6
135569
97232.7
135587
168375
175252
128626
107793
145930
154482
141784
181836
190037
134372
52138.1
81160.4
104495
99601.3
76629.1
106986
130242
124703
125162
92590.2
161877
124738
125187
159741
150704
90375.3
114438
69541.2
129761
105074
94126.5
140467
140491
102012
173516
130037
130406
170387
121702
116922
119154
187055
152743
149670
92373.3
170503
226238
230887
235848
203038
199568
196442
190175
233536
241005
284439
198489
240763
232339
179019
213963
221553
275302
229292
221041
171905
175006
114458
137790
141773
203571
180844
164463
127829
136609
104510
136616
192502
170195
159199
203784
210027
164971
162493
244187
204510
199012
172915
237650
231869
253499
214227
208724
195264
131810
196414
197352
171830
195286
105419
83558.7
50868.2
183144
166679
377882
166536
279778
130808
183057
220699
296196
369227
459630
183920
294866
92331.2
192134
305391
342329
180105
429960
289459
218340
346393
394105
706104
530338
320504
327943
198515
337425
342730
483201
311548
633234
319569
40851.3
74411.3
66399.9
77998.7
85699
102299
115223
164894
318309
289415
605876
300765
433276
276481
208375
190541
443181
191316
329758
229862
445585
65150.8
112941
121095
93771.5
101623
131786
151726
121650
119079
116898
149637
152644
186981
146485
100190
124071
159432
132882
170856
203902
159902
198393
115653
181379
128993
145859
160125
214033
96475.8
144853
109448
170192
134247
148198
185082
170440
230855
226232
199535
202923
235781
259355
190156
241050
233553
232328
240734
284414
274914
178976
221442
213920
221010
229216
275217
266183
213659
240335
210296
254989
222504
251722
279061
224495
255284
256390
275847
278466
318853
305800
207289
235069
244433
253986
265762
306921
294389
135420
143811
130438
161287
169681
175000
202439
151174
233004
193047
242580
232613
287234
192270
151067
242411
192898
232900
232508
287122
183842
145099
228580
185157
228544
223087
276767
180079
162440
209907
203738
198980
204432
251470
244120
109420
174502
159894
35313.4
119151
195700
319290
133602
233859
184735
153611
127341
363137
347427
306292
292092
137734
144727
128431
195856
182071
192965
205013
93102.4
157585
141090
189870
143054
159150
196637
48140.3
70383.7
50230.2
58194.9
85826.2
103295
73064.7
118146
116931
108355
160383
173389
184038
171444
79936.8
62916.6
89773.2
121683
109814
143607
90312.6
189180
139777
170439
176301
231192
197200
210420
194911
170304
156321
214564
247777
243063
223106
164459
136933
147021
204380
219597
231740
191696
90861.6
173863
125368
142265
149833
192212
106743
187729
277317
231965
200981
287214
247164
240504
250118
305164
241237
254660
319395
322255
261121
230904
213994
272258
243609
289000
307775
228055
162849
147518
245200
170099
188951
215744
125568
218437
275057
288273
301347
240611
265244
256019
277608
303426
382753
339052
308661
348412
279344
265411
279789
367152
313586
294710
332310
250256
162206
145874
125927
165395
226056
186126
203389
221774
199720
146203
177736
257978
198926
233547
280923
174252
227995
258340
267530
322186
206686
235005
218014
179641
194688
301180
234536
252181
342010
266823
316222
296974
372707
320843
349456
266825
275675
241678
283894
337514
319364
305380
266815
283768
241541
275603
337523
319302
294885
256801
271724
233923
271700
325626
310253
289466
426506
330825
391238
391119
426932
360925
482994
286988
345044
298096
364368
374097
337340
419740
287061
364283
298053
344989
374152
320568
419603
277437
357485
287696
340506
405403
422643
327767
270657
334496
279595
334478
355114
311575
396175
262103
331435
270833
331375
386713
402265
319503
172902
237669
231877
208714
214203
253472
279608
301391
314817
421405
295348
350002
369306
246464
279179
282605
276911
394827
330969
337181
225295
316844
332660
415497
382013
460175
364327
482868
277599
340673
287839
357728
405707
422939
342986
169333
254437
239022
196955
211123
241649
291354
248582
289788
282621
218734
224483
255989
334431
158697
235372
226876
191288
199642
235339
276423
260213
308698
252006
377503
306938
297324
368753
248264
291487
241356
363221
300705
291448
353338
-99691.4
-86283.3
-55379.2
-99428.6
89655.5
32489.3
-77457.8
74490.7
-99625.2
-98777.1
-98253.5
-98335.5
-97635.1
-85447.9
-89686.6
-98561.8
-90726
-96666.4
-85076.3
-95148.5
-74430.9
-52180.1
-40449.3
-89982.1
-48651.3
-42866.1
4879.61
14236.4
-51361.7
-83449.6
-11979.3
-23020.6
-36013.2
22317.8
32157.6
-45979.4
-5667.73
-76360
-26113.3
-28490.1
29013.2
22389.6
-6976.77
-34339.1
-61539
6854.48
-20806.8
50171.7
41240.3
1742.29
17444.6
42409.5
79281.9
51451.5
57869.8
48768.6
7808.34
26015.9
58218.9
66685.7
83599.2
62453.2
53878.6
33349.3
33105.1
18681.3
154994
264127
120002
141501
204064
106660
10074.4
51850
42932
49068.6
56840.5
81575.6
77685.4
25712.2
66719.8
58742
53825.8
61389.5
86374
92828.8
170222
138654
166711
92114
118075
94714.2
121121
139495
71804.5
103394
106690
76207.6
109921
142893
185902
146731
176460
106010
99240.7
126532
134697
87168
112208
81145.6
115419
158201
149150
123303
199947
148573
244747
240105
183827
152079
187884
221461
211097
252517
158364
204896
194796
167578
213363
283457
305245
332157
236553
255713
274663
312451
378310
409785
371381
354371
360107
328657
331391
411567
435821
391713
371534
352097
388914
402281
421879
411084
575819
360042
473819
487824
447373
561573
705637
520097
535460
427700
576017
446545
472889
645752
442686
396502
514803
554417
407475
494599
629572
482019
495998
509047
391557
261892
322328
363586
308822
455418
391594
344646
336387
302304
250725
302286
426421
370623
336385
321208
349568
265816
304289
526514
376618
414103
252885
400978
296507
296482
495536
353849
400975
277329
270527
329648
280019
422581
342468
332748
396250
530965
646246
391164
596377
493177
529148
465325
453480
366932
357081
592138
452161
465754
503627
445591
585121
589444
462633
569057
583924
424176
560092
455160
578606
447221
557624
593898
325476
414932
537860
543771
409940
543775
605780
585136
583994
569067
359150
589495
462612
503630
421502
560275
560545
567124
524985
492493
544822
554145
571539
560558
375310
584265
488044
501737
510077
459107
530490
465156
546794
518795
543297
280982
567377
481124
294637
564451
504491
489670
566700
293459
479142
494212
562873
503744
489074
459282
475549
559365
554380
192861
425432
443854
639014
839058
24745.6
412594
532868
359539
344233
547014
276549
348836
490892
366529
228363
764164
428584
517308
409819
225346
493775
328647
184251
212099
169230
210868
227067
258411
277761
456483
988204
605011
563503
360006
819231
391722
313983
558060
224506
1747.67
569037
424166
474108
279237
282681
276938
337229
330985
394855
342377
578337
694273
27233.1
724547
367078
462505
433300
502697
24352.4
344704
95602.6
510207
308627
572045
225645
249156
202784
274684
247689
304370
342193
312479
378283
371367
360122
354374
409780
429935
281144
327679
261619
428250
320421
348907
476523
264015
377190
283813
450992
325006
353978
496499
476703
352771
405128
464952
492424
534352
416172
338879
459105
391307
459104
480501
523389
409834
402351
421859
411071
487968
473864
483201
575952
407635
494952
482144
509363
496106
629869
633594
254275
311210
291600
363493
368623
401047
489714
477856
408707
308400
394417
570573
461660
530734
350104
425494
311013
399440
580170
465517
545315
488935
441294
419783
476420
582438
501829
547972
469993
426040