/*--------------------------------*- C++ -*----------------------------------*\
  =========                 |
  \\      /  F ield         | OpenFOAM: The Open Source CFD Toolbox
   \\    /   O peration     | Website:  https://openfoam.org
    \\  /    A nd           | Version:  9
     \\/     M anipulation  |
\*---------------------------------------------------------------------------*/
FoamFile
{
    format      ascii;
    class       volScalarField;
    location    "0.0013";
    object      rho;
}
// * * * * * * * * * * * * * * * * * * * * * * * * * * * * * * * * * * * * * //

dimensions      [1 -3 0 0 0 0 0];

internalField   nonuniform List<scalar> 
10591
(
1.4707
2.88576
2.69387
3.07745
1.7366
1.22507
1.22872
2.79663
2.705
1.45252
1.23101
2.07221
3.21555
2.91589
3.03928
2.22785
2.87371
1.53854
1.55821
1.63352
1.71462
1.77307
1.85904
2.1356
2.04588
3.44561
1.29628
2.8886
1.33547
3.38485
1.26356
1.22501
2.69829
2.94468
2.85071
2.9844
2.80567
2.97432
2.67752
1.70485
2.32666
1.89134
2.57817
2.06843
2.38579
2.89814
1.3323
1.22501
1.23887
1.22509
1.22867
1.225
1.225
1.87451
2.31796
1.95457
2.51072
2.85946
2.91406
2.42273
2.29281
2.95829
2.3843
2.7342
3.14781
3.13129
2.6586
3.08886
2.7281
2.89205
2.08939
2.72551
2.23964
1.62853
2.75952
2.70943
2.8187
2.21526
2.62561
2.29652
1.74673
3.59341
3.13561
3.2797
3.63932
3.60877
3.36613
3.444
2.67873
2.5728
2.17144
2.76493
3.28714
3.09933
3.16759
2.54301
1.30683
2.08654
1.29343
2.05046
1.63137
1.24962
3.09543
3.10632
2.64505
2.9651
3.00791
3.15169
3.24535
2.31168
2.35204
2.7295
1.75836
1.25775
1.36083
1.3783
3.05695
3.19443
3.24192
2.67847
3.19953
3.10993
3.02713
3.7987
2.85403
3.66383
2.148
3.33812
2.60551
1.47304
3.31297
3.32461
3.57676
3.15116
3.35904
3.00255
2.11609
2.1144
1.85836
1.47542
1.45871
1.30586
1.26836
1.23793
3.1688
2.33779
2.86739
2.19907
3.15012
2.93877
3.22579
1.33922
1.25103
1.65264
1.36354
1.22665
1.2322
1.25866
3.3553
1.73359
3.11467
2.17506
3.23844
2.424
1.34424
1.29685
1.24271
1.54091
1.33653
1.22619
1.2495
1.23086
1.64235
1.24148
1.29514
1.23065
1.24992
1.22863
1.2258
1.87442
2.22322
3.18726
1.71937
1.23068
1.30924
1.26731
2.02518
2.00418
1.36167
3.73857
2.15327
2.6926
0.788692
2.17018
2.75966
2.02877
1.18536
1.63076
1.2082
1.36486
1.9194
1.05199
1.29229
1.52917
2.94442
1.47561
2.68864
1.82315
1.83389
3.41483
1.42058
2.6772
1.54714
1.85108
2.39952
2.97367
1.74788
0.906805
0.829996
0.948251
0.91022
1.03434
1.07438
0.954493
1.11216
1.45528
2.07798
1.23926
1.6814
2.04768
2.89936
1.18813
1.07002
1.04737
1.29125
1.13892
1.16648
1.3277
0.997153
0.939353
0.879912
1.12113
1.06538
1.17399
1.00623
1.4503
1.4119
1.36158
1.55082
1.72947
1.8525
1.62622
1.51923
1.43483
1.38757
1.70029
1.73956
1.88436
1.85474
2.03938
2.91515
3.35763
3.57199
2.19419
3.36596
1.47115
1.0432
1.29533
1.16542
1.20405
1.23445
1.33824
1.08901
1.41277
1.31498
1.32167
1.65433
1.70008
1.82573
1.89315
1.22812
2.0638
2.81963
2.88708
1.9246
2.30713
1.23275
1.24157
1.13739
1.09927
1.20335
1.44869
1.25182
1.3797
2.21569
2.72379
1.37852
2.60737
3.26379
1.26807
1.22579
1.65207
1.58757
1.48839
2.02556
1.84688
2.25248
1.72517
1.00606
1.07682
1.17725
1.13006
1.2326
1.30062
1.20128
1.3852
1.43683
1.25197
1.28772
1.70403
1.43316
1.49038
1.24902
1.29334
1.45723
1.20025
1.30276
1.39068
1.14124
1.61777
1.86233
1.65665
2.10581
2.45546
2.42602
2.10063
1.8242
1.22507
1.2266
2.20518
2.74677
2.78343
1.73079
2.80576
1.34657
1.83514
3.26471
2.42416
2.34628
3.16794
1.18725
1.44957
1.25147
1.5355
1.31391
1.39212
1.64157
1.80874
2.76941
2.14559
2.32319
2.30545
2.98729
1.90979
1.79105
1.59045
1.55971
2.42352
2.08352
2.16155
2.47448
1.33373
1.79858
1.58024
1.64796
1.39355
1.49624
1.56003
3.02134
2.2698
2.26324
2.50601
3.14416
3.26167
2.51499
1.81996
1.63549
1.41021
2.21088
1.8879
2.09818
2.41892
1.15259
1.33416
1.24953
1.38319
1.39733
1.48532
1.28795
1.54689
1.27006
1.36847
1.45072
1.58436
1.67317
1.35797
1.70482
1.8421
2.29803
1.99196
2.53517
2.16468
2.87058
2.15217
2.60503
2.5399
2.89666
2.85047
3.3164
3.33459
2.23322
2.71735
2.27992
2.8938
2.44629
2.48076
2.79042
2.56663
2.4782
2.19535
3.43571
2.86411
3.22453
2.03826
1.55559
1.43054
1.33201
1.48996
1.93121
1.61414
1.77036
1.91003
2.39539
2.53941
2.53992
2.40308
2.77966
2.7866
2.8347
3.32168
3.67615
3.16952
3.21551
3.50692
2.82577
2.05951
1.75825
2.08413
2.35518
2.80385
2.62707
2.64053
1.69262
1.75768
1.47124
1.57235
2.2939
1.84697
1.89426
1.97135
2.62309
2.51959
2.56544
2.44165
2.78749
2.80876
1.55945
1.77493
1.63495
2.13734
1.8608
1.7159
1.47203
2.13282
2.57468
2.78984
2.61448
2.76961
3.08271
2.94061
1.43531
1.4869
1.56719
1.54482
1.62499
1.83857
1.76304
1.63582
3.34717
2.43569
1.47136
3.3583
1.22505
1.26702
2.98376
2.94502
2.7053
2.69786
2.67724
2.85068
2.8054
2.39115
2.70432
2.63101
2.7556
2.78869
2.82722
2.81366
2.73299
2.68376
2.45297
2.62041
2.54064
2.73351
2.76692
1.70619
2.58011
2.32815
2.3875
2.07032
1.89266
2.07372
2.00277
2.96119
2.6046
2.6336
2.37234
3.21574
3.48065
1.55214
2.03915
1.711
2.15085
1.78154
2.02727
2.48348
2.41405
2.87105
2.73018
2.85972
2.81975
2.88023
2.74181
2.38741
3.57914
3.18075
3.11876
2.6195
3.44321
3.63921
3.14203
3.50576
3.02531
3.67699
3.65633
3.82954
3.60591
2.08297
1.69275
1.76777
2.17236
2.57659
2.6539
2.09009
3.73246
3.43938
3.55996
3.76325
2.95525
3.65747
3.55619
2.59722
2.83901
2.92192
2.86399
2.84433
2.72028
2.44701
2.75895
2.21734
2.70989
2.29716
2.81866
2.62617
2.79656
2.86955
2.75711
2.75184
2.79936
2.36613
2.30828
2.82146
3.00505
3.02989
2.91184
3.08418
3.21615
2.94691
2.57358
1.87589
2.51201
1.95587
2.3191
2.86008
2.91455
2.22905
2.73613
2.17202
2.74435
2.57201
1.44001
1.53906
2.47295
2.81117
2.85026
2.76873
2.76722
2.00734
2.19281
2.71292
2.26222
2.76508
2.75279
2.62721
1.65163
2.65782
1.61323
3.08892
2.23869
2.89195
2.08644
3.07687
2.72724
1.62736
2.30643
2.34742
1.93945
2.41411
3.23274
2.88539
2.9105
2.67988
2.766
2.17275
2.57376
3.28658
3.09949
3.03974
3.31681
2.76477
2.95068
3.55247
3.60941
3.22699
3.61477
3.28027
3.13645
2.88756
3.59425
3.44232
3.60828
3.63923
2.71
1.59633
2.62725
1.34788
2.28706
2.0006
1.28405
2.86133
2.57691
2.89042
1.75785
2.60361
2.36975
1.50143
2.88831
2.89065
2.90803
2.70404
1.51605
2.04651
2.22242
3.79294
3.59494
3.34156
3.83295
3.79182
3.51428
2.38733
2.77101
3.13606
3.20748
3.17262
3.19938
3.15335
2.70242
3.79902
2.14349
2.85025
2.60097
3.3352
3.66276
3.44446
2.35263
1.75831
2.72947
2.31106
1.25776
1.36063
1.73662
2.46687
2.40007
2.678
2.52634
1.65747
1.41796
1.04579
1.31168
2.63455
2.41683
1.58376
2.59598
2.42169
1.76794
1.4889
1.40145
2.42498
1.15345
1.03819
1.14491
1.34105
1.3496
1.53881
1.52874
1.092
1.21012
1.06295
1.17392
1.37287
1.56826
1.62703
1.1333
1.26492
1.19178
1.34608
1.59463
1.72154
1.86009
1.34812
1.58202
2.60415
2.55596
1.98531
2.83693
1.2563
1.30177
1.55475
1.54238
1.81242
2.16018
2.16909
1.80114
1.38561
1.33735
1.58951
1.84932
2.28538
2.20641
1.92338
2.41463
1.89576
1.90102
2.13433
2.5696
2.56467
2.13015
1.27726
1.64106
1.46703
1.95112
1.74594
2.04602
2.27291
1.97737
2.42789
1.92435
2.16005
2.59736
2.57179
2.2205
1.46375
1.9324
1.58126
2.40541
2.03853
2.19605
2.55278
2.5271
2.06387
2.18815
2.63361
2.31854
2.44906
2.66158
1.882
1.8339
2.20146
2.19938
2.48236
2.52607
2.7399
1.98569
2.15697
1.75102
2.39441
2.81597
2.60497
2.70018
2.65459
2.53048
2.34993
2.59096
2.57706
2.6569
2.71131
2.40743
2.61378
2.64606
2.66359
2.64169
2.65385
2.40599
2.43194
2.64902
2.68738
2.58081
2.65437
2.64894
2.48908
2.63932
2.72956
2.57227
2.66545
2.21734
2.5939
2.75703
2.17189
2.82571
2.55607
2.85747
2.72668
2.85751
2.8447
2.28393
2.86896
2.68771
2.86629
2.77355
2.86391
2.80079
2.7756
2.68661
2.6256
2.3298
2.77824
2.75819
1.88713
2.74134
2.17149
1.9114
2.63699
2.4635
2.77421
2.74342
1.76834
2.54511
2.94223
2.94408
2.83752
2.83654
2.45701
1.27839
1.46578
2.55133
1.92915
2.76569
2.55142
1.46584
1.76397
2.31722
2.72651
2.48331
1.2585
1.79566
1.41836
1.28602
2.41984
1.39525
1.66721
1.23304
1.24941
1.39377
2.21702
2.68234
2.85644
1.98983
1.25753
1.57462
1.32939
3.13104
3.52616
3.6154
3.36612
3.37079
3.46747
2.91553
1.98474
1.23177
1.37605
1.29183
1.35722
2.04091
1.28402
1.47381
1.85544
2.69121
2.11239
1.23787
1.3055
1.45767
2.98722
3.25432
2.97469
3.13143
3.22733
3.23929
3.27445
3.31302
2.99951
3.57596
3.14955
3.38446
3.32295
2.11288
1.87554
1.25459
1.28828
1.23003
1.32443
1.27024
1.71726
1.22637
1.23258
1.38769
1.23476
1.27228
1.43114
1.93567
1.64153
1.23065
1.24146
1.22862
1.24986
1.29495
1.3322
1.24105
1.259
1.53131
1.37119
1.22567
1.23218
1.23988
2.81166
2.99217
3.66035
2.68967
1.25079
1.60958
1.46613
2.77036
2.39181
3.30343
2.59265
1.24364
1.39706
1.58276
1.8712
1.71657
3.18432
2.21997
1.23065
1.30875
1.33484
1.42644
1.50059
2.79624
1.33781
2.72642
1.41153
0.936542
0.871271
0.818715
0.932381
0.82816
0.942187
0.946025
1.09951
1.08921
0.846462
0.997716
0.994002
0.962278
0.966122
1.1229
1.16365
1.10191
1.32611
1.09145
1.32136
1.65257
1.66801
1.3095
1.39995
1.11731
1.12742
1.34413
1.74104
1.33287
1.75537
1.1667
1.36806
1.12534
1.35094
1.80499
1.7134
1.40651
1.44203
1.19153
1.15077
1.37355
1.89111
1.80027
1.42886
1.67708
2.72274
2.21358
2.27161
2.22844
1.66251
2.28416
1.72138
2.38672
2.42822
2.74399
2.28362
2.33432
1.81047
1.32124
1.96358
2.48439
2.91008
0.923119
1.46717
1.51138
1.22537
3.21593
1.83558
1.35677
2.16261
2.61708
2.96405
2.5219
1.43379
2.0975
0.944912
2.11676
1.44443
0.954686
1.34053
1.88844
2.90762
3.15355
2.92856
3.1288
1.64452
1.96192
1.47714
0.974753
1.3626
1.08732
1.4883
1.71231
2.52326
3.06015
1.67765
2.0067
2.51351
1.90688
3.21239
2.36683
1.24705
1.28705
1.76925
2.48266
1.76209
1.18339
1.5742
2.01837
2.6282
1.41504
2.61532
1.41256
1.94379
2.47736
1.8927
3.20837
2.60155
1.13975
1.5581
1.85964
2.70593
1.36341
1.98692
2.51182
2.76784
2.44659
1.75761
1.24318
1.07244
0.939904
1.06933
1.1941
1.07995
1.1974
1.07475
1.08416
0.943114
1.07292
1.19764
1.08882
1.20945
1.07722
2.37076
3.60433
1.83666
2.39056
3.22685
1.9857
3.37828
1.10369
1.00343
1.13056
1.11114
1.22991
1.25806
1.14297
1.03127
1.00461
1.10313
1.03579
1.13389
1.21022
1.11588
1.16602
1.32105
1.16629
1.27941
1.48478
1.28074
1.48323
1.78269
2.2228
2.31823
1.22921
1.4833
3.23912
2.9039
3.55561
1.24255
3.21848
2.82343
2.03543
3.29015
1.89005
1.18127
1.3272
1.17096
1.28429
1.50437
1.48947
1.29652
1.04138
1.20237
1.16357
1.29349
1.23275
1.33653
1.18356
1.62083
1.61876
1.88036
1.92407
1.92109
2.3997
2.41086
1.90344
1.6265
1.88513
1.95152
1.93001
2.40584
2.42993
1.19851
1.39358
1.22145
1.53143
1.31726
1.34603
1.57228
1.96071
1.949
1.94903
2.6375
2.65701
2.65212
2.64572
1.96585
1.94763
1.95034
2.63812
2.64545
2.6405
2.65543
1.10814
1.33684
1.17204
1.38399
1.20436
1.2856
1.49055
1.43462
1.28596
1.25008
1.38319
1.70158
1.43123
1.62819
1.9447
1.73057
2.02126
1.99415
2.48851
2.06467
2.59749
2.00968
2.10324
2.10167
2.68613
2.71424
2.83347
2.7846
1.24755
1.19897
1.30147
1.29176
1.38909
1.45569
1.36334
2.08926
3.32851
2.83142
1.96293
2.74757
1.29555
1.73384
1.3262
1.52944
1.23139
1.42603
1.32985
1.52339
1.22562
1.32964
1.4288
1.54131
1.24057
1.52656
1.3422
1.22781
1.15191
1.38229
1.24883
1.33355
1.39637
1.48443
1.23864
1.08985
1.27639
1.18251
1.2989
1.31335
1.40242
1.20503
1.76902
1.64347
1.9936
1.72848
2.12177
1.88317
2.40378
1.57271
1.26702
1.36598
1.40066
1.52953
1.62478
1.3058
1.94954
1.93411
2.00313
2.55758
2.54946
2.55485
2.55966
1.93149
2.00844
1.99916
2.54189
2.54295
2.54991
2.54746
1.85048
2.20746
2.1758
2.36741
2.32312
2.7741
2.92395
2.2693
2.50288
2.26111
3.01889
3.14367
3.25853
2.94452
1.80582
2.31957
2.14258
2.30155
2.16626
2.7652
2.98292
1.3321
1.64616
1.39204
1.79625
1.49439
1.57845
1.91715
2.0808
2.04917
2.13741
2.56951
2.64237
2.57202
2.63551
1.44951
1.26889
1.36726
1.5453
1.58259
1.6715
1.45368
1.42806
1.72004
1.68411
2.09215
1.43118
1.67838
1.71724
1.44624
1.60573
1.41387
1.80799
1.50559
1.70103
1.35459
1.55467
1.48892
1.33117
1.42981
1.93028
1.68068
1.61318
1.44485
1.35803
1.25315
1.3868
1.77096
1.51099
1.61679
1.73101
1.77237
1.47152
1.51129
2.24453
1.79179
1.827
1.43233
2.09745
1.69653
1.73936
1.68157
1.72311
1.44581
1.81236
2.18118
2.35086
2.25169
2.42752
2.87341
2.84316
1.43473
1.54382
1.83771
1.48625
1.56661
1.62409
1.34593
2.23439
2.48208
2.28222
2.89486
2.76144
2.71909
2.79124
1.38449
1.4521
1.43673
1.51823
1.53324
1.72934
1.6535
2.19701
2.47761
2.18485
2.65389
2.74503
2.75508
2.65311
1.56667
2.36621
2.01614
2.01249
1.64126
1.88361
1.9066
2.18689
2.4748
2.18081
2.65143
2.74169
2.64644
2.75432
1.57097
1.75601
1.46981
1.69084
2.29168
1.84515
2.07575
1.4917
1.95556
1.58518
1.69657
2.05735
2.15022
1.60335
2.83067
3.1671
3.21117
3.32124
3.50405
3.67441
3.41487
2.56246
2.19259
2.85981
2.47437
3.22058
2.68513
3.43277
3.371
1.81394
1.22513
1.75134
3.59995
2.22638
3.76444
2.74327
1.23051
2.40614
1.22511
1.22563
1.60809
1.26152
2.36814
2.91119
2.36484
3.0805
3.47772
3.08137
3.49058
2.91733
2.39893
2.37459
3.08535
3.48519
3.49205
3.09793
2.22556
2.58654
2.31493
2.73411
2.66051
2.69565
2.72241
1.79905
2.60192
2.26259
2.3026
2.06758
2.74606
3.15103
2.45167
3.49128
3.0307
3.14054
2.54216
3.22381
3.51407
3.34372
3.19433
3.56018
3.18151
3.34235
3.58089
3.19781
3.34102
3.17111
3.55018
3.17348
3.57555
3.18868
3.33773
1.55153
2.14998
2.02644
2.03872
1.71048
1.8346
1.78066
2.00166
3.21313
2.6021
2.63229
2.19328
2.95901
3.47954
1.97953
2.729
2.44905
2.81231
2.59587
2.87969
2.93919
1.48771
1.97324
1.94256
1.64926
1.66869
1.89343
2.27253
3.52197
3.17862
3.36412
3.43276
2.94541
3.4894
3.2113
3.11963
2.82938
2.67202
3.33806
3.54239
3.46412
3.5394
2.90613
2.66747
2.91306
2.77737
2.23434
2.28558
2.76535
2.66322
2.88894
2.90662
2.7752
2.22859
2.28462
2.7578
1.85722
1.99139
2.67601
2.30824
2.08499
2.39364
1.76479
2.1641
2.18357
1.74141
1.8793
2.90272
2.39627
2.35785
2.68581
2.62207
2.45597
2.7341
2.5392
2.73369
2.67675
3.67447
3.13838
3.02144
3.50311
3.65615
3.56984
3.82876
2.74388
3.145
2.59909
3.30495
3.76287
3.7173
3.47831
1.25431
1.225
1.22501
1.2364
1.23835
3.43224
1.38433
2.88126
2.3582
2.88406
2.11486
2.73839
2.70733
1.93606
3.52572
2.7369
3.26261
3.28387
3.60487
3.42632
3.25455
2.7385
3.0584
2.75913
3.38598
3.26347
3.05769
3.01437
3.00327
2.94717
2.91126
3.08543
3.26306
3.0299
2.57533
3.44087
2.38472
3.17699
3.11713
2.91245
3.57748
3.63869
2.17159
1.69213
1.76723
2.08253
2.57615
2.6535
2.00368
2.04139
1.6415
1.71765
2.04124
2.46522
2.55005
1.96276
2.07212
2.8549
2.91257
3.0885
2.33189
2.64709
2.59541
3.76159
3.43777
3.55664
3.7318
2.95876
3.65811
3.35868
2.09597
2.7977
2.87519
2.63634
1.45692
2.45812
1.70099
2.94987
2.76423
2.43497
3.31563
3.61523
3.55232
3.60937
2.99437
3.49427
3.56156
3.33346
3.15159
3.61008
3.34756
3.03567
2.63396
2.56934
3.44686
3.48778
3.05774
3.6051
2.41337
2.34699
1.93899
2.30603
3.23276
2.80549
2.8851
2.67145
2.3614
1.80586
1.44082
1.85405
2.40984
2.64664
2.67052
1.44015
1.80195
2.35558
1.85351
2.64181
2.40859
2.25517
2.24894
1.87913
2.25505
3.18024
2.74749
2.79029
2.97148
2.94405
2.94986
2.95859
2.85593
2.83625
2.24216
1.69977
2.24814
2.59265
2.50491
1.30943
1.55412
2.06902
2.7046
2.88845
2.90796
2.89099
1.51642
2.60785
2.04775
2.94368
2.99552
2.83318
2.96617
2.06971
2.6645
2.80654
3.15977
2.96886
3.62362
3.5445
1.48616
2.43022
2.80187
3.79195
3.3435
3.51573
3.59564
3.83293
3.73789
3.7921
3.65214
3.70726
3.74959
3.83448
3.8385
3.7179
3.06154
3.35166
3.32278
3.27718
3.58756
2.43112
3.452
3.0233
2.57727
3.06741
3.27729
3.02772
3.06533
3.09842
2.4943
2.3327
1.26827
1.54241
1.29789
2.0238
1.39898
1.81866
2.34579
2.76217
3.28704
2.86223
1.29358
2.03594
1.72795
3.08326
3.02066
3.13956
2.4242
2.28791
1.85466
1.39806
0.825166
1.43561
1.46461
0.847275
0.844709
1.39843
1.45884
3.08175
1.49153
2.38333
2.89125
1.22833
0.580024
0.793621
1.00847
0.494512
1.20851
0.814728
1.52858
1.12147
1.09143
1.09773
1.55692
1.01307
1.52549
1.24372
0.605998
0.819673
0.952808
1.32595
0.617982
1.03528
1.55332
1.11532
1.08464
1.85354
1.6241
1.11587
1.07018
1.90665
1.91265
0.942145
0.968428
1.14269
1.00637
1.47841
1.95674
0.955351
0.9887
2.4212
1.82561
1.02008
1.13947
1.02777
1.0161
0.774881
0.895284
1.09502
1.08789
0.908178
0.785764
1.01286
0.772816
0.890755
1.07091
0.892023
1.08097
1.1134
1.11666
1.11245
1.22832
1.20919
1.20504
1.23111
1.11023
1.09184
1.10631
1.2233
1.1872
1.2142
1.19772
0.502528
0.492001
0.564523
0.684297
0.595163
0.698265
0.58307
0.574479
0.48944
0.562962
0.68168
0.586432
0.688894
0.580209
1.03173
1.02406
1.09047
1.21313
1.15357
1.14948
1.21461
1.07183
1.01799
1.08417
1.20787
1.138
1.19784
1.14406
1.03636
1.03773
0.849617
1.09747
0.922482
0.940968
1.09983
0.519987
0.546067
0.639841
0.615703
0.720054
0.749963
0.64404
1.10445
1.11004
1.10123
1.20843
1.23049
1.23646
1.21039
1.17648
1.20039
1.64031
1.00471
1.37808
0.664462
1.05374
2.16291
3.33154
1.57074
2.09854
1.72312
1.15063
1.1294
1.03284
1.03621
1.08437
1.15719
1.21344
1.21992
1.16774
0.578594
0.719381
0.677949
0.785164
0.717204
0.827174
0.677548
1.03178
0.901588
0.876055
0.961073
1.1169
0.984222
1.10485
1.10491
1.12814
1.10498
1.25599
1.24601
1.2198
1.30069
0.92838
0.893665
0.883173
1.06379
1.05571
1.0072
1.01607
1.05156
0.880281
0.927061
0.923787
0.87846
1.05119
1.00337
0.809321
0.95033
0.705883
0.813251
0.938149
0.822513
0.693172
1.51171
2.74181
1.8988
2.64156
2.08269
1.07938
1.24435
0.938664
0.695382
0.810882
0.806186
0.809817
0.93489
0.689836
1.04287
1.11182
1.08832
1.23948
1.23984
1.2845
1.19065
0.96978
0.909308
0.930716
1.07757
1.098
1.03387
1.06214
0.988903
1.08421
1.15543
1.21755
1.07472
1.14734
0.999118
1.13339
1.06769
0.98111
0.983686
1.21126
1.06973
1.14047
1.35616
1.5696
1.30082
1.42228
1.5569
1.29293
1.36338
0.970989
0.726088
0.843064
0.87108
0.87229
0.998879
0.753402
1.35002
1.41507
1.28096
1.35181
1.41563
1.55273
1.28643
0.767357
0.717354
0.824889
0.764592
0.877231
0.935086
0.821214
1.09821
1.16361
1.01159
1.02713
1.26337
1.11563
1.17336
0.987552
0.996812
0.957269
1.18088
1.12831
1.10231
1.16485
1.59665
1.31201
1.37674
1.40267
1.49528
1.64658
1.32999
2.28634
2.34222
1.33854
2.33674
1.10283
2.28758
2.50033
1.34363
1.56984
1.29425
1.5196
1.55949
1.2886
1.34871
1.28513
1.56248
1.33687
1.33941
1.51884
1.55703
1.28521
0.931738
1.08329
0.967887
1.13874
1.01256
1.04692
1.1736
1.12655
2.33805
2.38803
2.62428
2.74784
1.3292
2.71738
0.905066
0.908457
1.07268
0.828437
1.0325
0.946564
0.787097
1.59556
1.30749
1.36016
1.38586
1.60611
1.64803
1.33588
0.90179
0.958728
0.892688
1.03193
1.14495
1.0415
1.13464
0.962796
1.03635
0.89265
0.956585
0.889031
1.02992
1.13399
1.18481
1.21171
1.27849
1.29958
1.38441
1.51084
1.38027
1.16885
1.22824
1.26446
1.3293
1.37044
1.50765
1.47053
1.21557
1.45514
1.20804
1.17905
1.47672
1.4654
1.18795
0.960126
0.778483
0.890006
0.998781
0.959609
1.06462
0.88715
1.04562
1.28941
1.16483
1.20671
1.13714
1.0684
1.18652
1.18378
1.46382
1.20909
1.45521
1.20567
1.17751
1.46632
0.919573
1.0213
0.946189
1.16923
1.0623
1.09754
1.21303
1.23294
1.54982
1.26633
1.50965
1.20938
1.24982
1.5794
1.43408
1.6997
1.8825
1.47487
1.73832
1.51811
1.38709
1.44915
1.54876
1.85013
1.41041
1.72757
1.36021
1.52769
1.11964
0.87844
0.995626
1.05068
1.0641
1.17274
0.938053
1.06218
1.17541
1.27088
1.16488
1.26547
1.41119
1.41807
1.06875
1.03305
0.981296
1.15032
1.38973
1.23072
1.28284
1.05494
1.12275
1.00875
1.0885
1.2952
1.14006
1.2252
1.57365
1.29686
1.40941
1.67919
1.59556
1.88433
1.48038
1.65474
1.41261
1.32168
1.31552
1.89432
1.70169
1.42099
1.20187
1.24021
1.09785
1.13615
1.4472
1.25049
1.29106
1.24163
1.6181
1.89237
1.41771
1.60495
1.25186
1.40569
1.41871
1.62242
1.25102
1.24158
1.89507
1.60693
1.40651
1.11109
1.07596
1.29968
1.12901
1.17641
1.23155
1.00496
1.59807
1.37249
1.40542
1.7051
1.95975
1.97299
1.6751
2.02273
1.48687
1.65024
1.82102
1.84493
2.24925
1.58615
1.0994
1.32055
1.09111
1.32759
1.31041
1.65545
1.67038
1.09213
1.33954
1.32289
1.32749
1.31069
1.65479
1.67079
1.65917
1.4514
1.27768
1.32758
2.05795
1.74542
1.52027
2.10309
1.61655
1.65504
1.86012
2.45242
2.42228
1.832
1.16787
1.37011
1.35278
1.40833
1.42848
1.71666
1.80827
1.31644
1.51857
1.3133
1.91602
1.61569
1.64181
1.97443
1.11415
1.39274
1.23417
1.55008
1.35285
1.53343
1.7891
1.18617
1.4485
1.391
1.53412
1.25051
1.3127
1.36052
1.55914
2.16189
1.59049
2.422
1.78982
1.85055
2.47401
1.23239
1.63925
1.49899
1.68256
1.52623
1.9619
2.18688
1.41164
2.21431
2.10029
1.82205
1.89079
1.54835
1.63793
2.03704
1.84087
2.86715
1.99008
2.29554
2.5317
1.70351
2.14928
3.31219
2.60137
2.89309
2.53622
2.846
2.15048
1.63525
1.59947
1.4017
1.80214
2.5169
2.18011
2.12537
2.7278
1.67745
2.27496
1.66466
2.21782
2.23246
2.73004
1.7364
2.32939
1.71976
2.24014
2.7307
2.25572
2.7332
2.32677
1.73425
1.71833
2.23825
2.72657
2.25274
2.73121
2.27413
1.6796
1.66445
2.21661
2.72513
2.23228
2.72813
2.57225
2.78817
2.13077
2.21453
2.94034
2.6132
2.76904
1.78313
2.47629
1.88266
2.7477
2.30655
2.40908
2.79678
2.35626
2.08551
1.75898
2.05968
2.80408
2.62729
2.40002
1.72439
2.43142
1.81349
2.7464
2.2876
2.3903
2.79828
2.60852
2.27183
2.04588
2.55594
2.86765
2.84798
2.71966
2.56358
2.17576
1.96001
2.53521
2.91275
2.70336
2.864
1.09591
1.15617
1.3139
1.15347
1.40209
2.93902
2.18297
1.3974
1.6687
0.86792
0.769989
1.16526
1.03334
1.23433
0.808993
0.987806
1.23019
0.751564
0.72926
0.86471
0.753852
0.837534
0.887865
0.867285
0.80695
0.854783
0.795459
1.0047
0.932732
0.915258
0.988996
0.748535
0.843005
0.777039
0.921277
0.854948
0.891159
0.969146
1.12853
1.1023
0.957407
1.18112
1.02034
0.996899
1.1648
0.936362
1.10875
0.95087
1.06082
1.04724
1.25182
1.24301
1.14661
0.885595
0.971278
1.04182
0.895027
0.821506
0.948039
1.41852
1.41197
1.17603
1.26561
1.27135
1.07979
1.06237
1.38877
1.13898
1.28164
1.14969
1.06814
0.981031
1.03279
1.73428
1.67295
2.95659
3.02372
1.97349
1.68955
2.97922
1.29047
0.975524
1.07787
1.2209
1.09731
1.31559
1.48413
1.64266
1.6169
1.31728
1.91785
1.51278
1.51938
1.97581
1.20592
1.39145
1.19524
1.70247
1.443
1.44091
1.71456
1.39277
1.78884
1.53355
1.35261
1.54947
1.24412
1.11407
1.38351
1.37035
1.34287
1.61487
1.6299
1.66999
2.02372
1.59972
2.12547
1.80264
1.63585
2.51715
1.89918
2.18092
1.41015
1.47327
1.25835
1.53469
2.15419
1.85025
1.75272
0.890003
0.814228
0.534057
0.748694
1.08502
0.579656
0.429476
0.977219
0.789349
0.890556
1.23263
1.30243
1.02741
0.775646
0.969929
0.632501
0.599512
0.839623
0.68285
0.869992
0.702905
0.755383
0.883406
0.699608
0.808852
0.743171
0.849667
0.790719
0.830965
0.874478
0.461574
0.456946
0.516128
0.463708
0.527085
0.578508
0.499013
0.649351
0.673921
0.699766
0.723207
0.750942
0.801242
0.770993
0.62102
0.49246
0.568704
0.62976
0.593012
0.685233
0.540733
0.866139
0.840042
0.792976
0.898498
0.980661
0.98754
0.918066
0.788444
0.86094
0.740123
0.799745
0.943525
0.845882
0.9061
0.511902
0.674158
0.597235
0.646261
0.628558
0.726242
0.554532
0.918697
0.854002
0.781817
0.820649
1.00274
0.890798
0.934176
0.927162
1.02445
0.89112
0.948384
1.07437
0.961343
1.09591
0.840101
0.732985
0.760513
0.874304
0.942574
0.968519
0.84577
1.00607
0.833436
0.866378
0.927155
1.04547
1.07959
0.895799
0.700252
0.665326
0.85774
0.685165
0.763923
0.787882
0.605756
0.862686
1.00922
0.98149
1.03982
0.910508
0.933737
0.966414
1.03212
1.09405
1.33283
1.14406
1.14154
1.01874
1.19964
1.01473
1.1013
1.33032
1.15485
1.12775
1.18599
0.985057
0.60624
0.497442
0.427302
0.38509
0.300905
0.41493
0.626947
0.755799
0.578836
0.60133
0.0656499
0.112939
0.828402
0.714304
0.674183
0.743032
0.0707404
0.187267
0.140564
0.22929
0.180702
0.373188
0.438323
0.217955
0.262093
0.324992
0.287717
0.336485
0.387938
0.42806
0.340719
0.393306
0.349808
0.392954
0.351491
0.368725
0.398205
0.0597641
0.139172
0.123935
0.183745
0.161359
0.336137
0.356261
0.467113
0.394389
0.375161
0.476836
0.763158
0.62935
0.585231
0.528109
0.391331
0.330521
0.562144
0.743297
0.633731
0.659566
0.533926
0.829958
0.73671
0.491784
0.411017
0.497187
0.671221
0.761836
0.769992
0.706449
0.518985
0.450197
0.618278
0.684445
0.59459
0.609892
0.485543
0.320617
0.521007
0.299322
0.514733
0.456185
0.409633
0.402295
0.39907
0.36632
0.404665
0.408948
0.695997
0.569344
0.656328
0.650026
0.427123
0.407828
0.568761
0.435236
0.474292
0.425487
0.398817
0.37565
0.411448
0.410277
0.683024
0.883553
0.839464
0.703233
0.869994
0.599738
0.789324
0.831139
0.874446
0.808537
0.849438
0.790628
0.699456
0.775317
0.49923
0.456959
0.51625
0.463822
0.527316
0.461607
0.429334
0.699817
0.771419
0.801522
0.750955
0.723403
0.632603
0.64929
0.673471
0.574307
0.630411
0.882604
0.454118
0.531381
0.800291
0.630176
0.721057
1.04238
0.798581
0.711954
0.877035
0.73335
0.793045
1.1543
1.21651
0.582488
0.522159
0.381381
0.21892
0.71406
0.672992
0.769644
0.656686
0.360118
0.220706
0.101325
0.422802
0.275936
0.404013
0.497481
0.579368
0.821931
0.749796
0.811583
0.669407
0.732346
0.848134
0.560617
0.716864
0.840965
0.872068
0.68995
1.17673
1.36806
0.635852
0.779789
0.723748
0.764651
0.696614
0.770976
0.820276
0.51782
0.583995
0.47567
0.39232
0.536268
0.577904
0.544142
0.473725
0.53135
0.505198
0.567984
0.511898
0.538462
0.583976
0.644882
0.668337
0.588657
0.63013
0.653543
0.737249
0.710933
0.511778
0.427275
0.454451
0.453751
0.510328
0.564559
0.489542
0.575702
0.64308
0.488413
0.638547
0.549123
0.580106
0.657558
0.538141
0.511566
0.551005
0.596528
0.650597
0.561401
0.609391
0.751403
0.7006
0.616717
0.743828
0.650717
0.607906
0.691642
0.565697
0.631439
0.62654
0.618507
0.614301
0.696466
0.690632
0.843563
0.784015
0.729771
0.784123
0.92713
0.835712
0.882639
0.617734
0.488956
0.563443
0.617815
0.585028
0.675692
0.531426
0.740375
0.906412
0.86096
0.788766
0.94383
0.846399
0.890144
0.541054
0.492567
0.568902
0.621262
0.593399
0.685712
0.534223
0.850291
0.814043
0.76403
0.850339
0.949757
0.87701
0.950839
0.898778
0.918147
0.839913
0.86629
0.980796
0.890539
0.987866
0.633518
0.657683
0.583934
0.599541
0.739879
0.678848
0.652794
0.703936
0.823261
0.729998
0.823337
0.906679
0.929529
0.798701
0.760714
0.846244
0.874642
0.840323
0.943021
0.968872
0.814566
0.57856
0.647671
0.706757
0.69322
0.634947
0.713751
0.779141
0.779863
0.770407
0.684202
0.881731
0.779983
0.770496
0.86981
0.839426
0.674067
0.735416
0.628626
0.780708
0.71646
0.686486
0.822886
0.812151
0.710387
0.913579
0.794454
0.784498
0.900087
0.678077
0.64948
0.65463
0.825517
0.750621
0.744026
0.587074
0.838167
0.980401
0.990049
0.95304
0.896945
0.890387
0.931317
0.960269
1.0415
1.0597
1.23696
0.957723
1.10048
1.07796
0.939687
1.04223
1.06352
1.23773
1.08638
1.06364
0.916131
0.92065
0.734371
0.801024
0.811743
1.03063
0.935644
0.887852
0.772345
0.797223
0.707104
0.797258
0.993758
0.903443
0.872071
1.00983
1.02794
0.890085
0.877631
1.16615
1.01487
0.997823
0.911506
1.17622
1.15448
1.2244
1.06044
1.04184
1.00273
0.700995
0.931202
0.9856
0.915879
1.00269
0.713183
0.658944
0.594344
0.951884
0.904885
1.77271
0.927314
1.32363
0.798407
0.863485
0.891173
1.12355
1.11635
1.49116
0.803675
1.11741
0.586893
0.819452
1.14101
1.07379
0.796133
1.417
1.10513
1.03263
1.41047
1.67673
2.92718
1.88382
1.28962
1.44461
0.957689
1.33469
1.49612
1.74755
1.26545
2.62821
1.41616
0.578565
0.665151
0.637545
0.657118
0.684951
0.732329
0.757963
0.889825
1.44215
1.40997
2.63918
1.37314
2.05906
1.35471
1.05368
0.985771
2.06072
0.995939
1.58086
1.15619
2.10867
0.619415
0.735055
0.764491
0.688919
0.717721
0.796274
0.851801
0.677849
0.654271
0.649366
0.743888
0.750181
0.825214
0.72081
0.606376
0.665931
0.764666
0.686029
0.788918
0.85865
0.74947
1.01833
0.779554
0.965557
0.806777
0.854324
0.888701
1.06926
0.710876
0.830415
0.73598
0.911621
0.813213
0.845493
0.956607
0.837919
0.989836
0.980351
0.890263
0.896547
0.952799
1.04227
0.960109
1.05957
1.04147
1.07787
1.10019
1.23674
1.1542
0.939496
1.06313
1.04209
1.06351
1.08604
1.23741
1.21618
0.966993
1.00968
0.911212
1.04056
0.934737
0.982295
1.08557
1.01908
1.09437
1.14206
1.14462
1.2004
1.33358
1.23313
1.01521
1.10188
1.12828
1.15552
1.18665
1.3312
1.30325
0.797999
0.827897
0.783478
0.882808
0.913089
0.929905
1.03682
0.730958
0.915768
0.83737
0.932961
0.899153
1.00887
0.820068
0.730458
0.932281
0.836761
0.915356
0.898703
1.00843
0.803314
0.71792
0.907723
0.821699
0.907584
0.882216
0.991716
0.796017
0.877444
1.02754
1.00968
0.997715
1.01458
1.17641
1.16591
0.646897
0.927548
0.821426
0.447254
0.737153
0.822465
1.17465
0.678863
0.962661
0.948789
0.915611
0.832114
1.38137
1.47165
1.22066
1.23989
0.865518
0.917735
0.860956
1.00678
0.974471
0.983937
1.00632
0.673326
0.915231
0.893297
0.973677
0.786882
0.822236
0.969521
0.476617
0.54887
0.499177
0.501141
0.585175
0.629306
0.537333
0.800912
0.819147
0.789479
0.912675
0.951821
0.964114
0.927028
0.555081
0.512309
0.59775
0.675035
0.629418
0.727239
0.580406
0.934723
0.782468
0.91909
0.855055
1.0036
0.89189
0.978071
0.961601
0.927198
0.891334
1.02493
1.07489
1.09656
1.02781
0.896275
0.83378
0.866615
1.00644
1.04601
1.08011
0.970337
0.579523
0.786594
0.678956
0.720514
0.718536
0.828665
0.619003
0.87726
1.10633
1.03294
0.902878
1.11829
0.985782
1.03648
1.10543
1.25669
1.10542
1.12873
1.247
1.30164
1.1165
1.08851
1.04317
1.19103
1.11217
1.24033
1.28512
1.07051
0.768586
0.718469
0.936456
0.765931
0.826148
0.878699
0.665558
0.93308
1.08426
1.04816
1.13994
0.969147
1.01399
1.05488
1.1856
1.21252
1.51227
1.30066
1.27947
1.3856
1.15135
1.16939
1.22895
1.50899
1.33005
1.26523
1.37138
1.12989
0.879305
0.829406
0.773856
0.894075
1.12015
0.965906
1.02367
1.1011
1.02119
0.847185
0.93953
1.24855
1.01372
1.14338
0.999947
0.779523
0.888259
0.961077
0.960516
1.06551
0.848165
1.1439
1.07435
0.947825
0.994459
1.42157
1.14006
1.21344
1.22614
1.00981
1.08954
1.05577
1.29609
1.17717
1.14093
1.05871
1.01808
0.963748
1.03262
1.21338
1.0875
1.14145
1.05841
1.03204
0.963231
1.01776
1.21303
1.08711
1.1172
1.03685
1.01118
0.949524
1.01108
1.18537
1.07157
1.10507
1.68078
1.29764
1.48135
1.57477
1.5964
1.39907
1.88599
1.18511
1.43529
1.27528
1.49376
1.44899
1.33506
1.68392
1.18485
1.49303
1.27481
1.43488
1.44873
1.28946
1.68322
1.25045
1.51942
1.27411
1.46389
1.75203
1.76372
1.444
1.14352
1.4036
1.22332
1.40347
1.39535
1.26541
1.60841
1.20398
1.43458
1.22456
1.43436
1.68095
1.69096
1.41594
0.911417
1.17612
1.15445
1.04179
1.06027
1.22426
1.36799
1.03194
1.03647
1.21069
1.00508
1.10356
1.13453
0.923808
0.995557
0.984396
0.975461
1.16554
1.07362
1.08315
0.88604
1.37348
1.40653
1.70689
1.59949
1.96197
1.57208
1.97526
1.25105
1.46453
1.27473
1.52046
1.75313
1.76483