/*--------------------------------*- C++ -*----------------------------------*\
  =========                 |
  \\      /  F ield         | OpenFOAM: The Open Source CFD Toolbox
   \\    /   O peration     | Website:  https://openfoam.org
    \\  /    A nd           | Version:  9
     \\/     M anipulation  |
\*---------------------------------------------------------------------------*/
FoamFile
{
    format      ascii;
    class       volVectorField;
    location    "0.0013";
    object      U;
}
// * * * * * * * * * * * * * * * * * * * * * * * * * * * * * * * * * * * * * //

dimensions      [0 1 -1 0 0 0 0];

internalField   nonuniform List<vector> 
10591
(
(-801.044 -433.988 55.3624)
(-652.212 -371.952 327.919)
(-336.672 -214.314 111.383)
(-461.336 -266.494 145.634)
(-132.304 -78.194 61.2961)
(-0.0195034 -0.00619537 0.0046469)
(-1.05412 -0.372891 0.237396)
(-471.586 -195.616 217.661)
(-572.074 -233.937 187.524)
(-70.0952 -27.3247 19.6676)
(-1.75824 -0.494412 0.497584)
(-653.891 -376.287 233.824)
(-640.476 -338.271 306.179)
(-797.167 -424.016 50.6876)
(-671.993 -481.507 331.176)
(-723.111 -519.281 53.0282)
(-483.261 -323.482 26.2986)
(-101.129 -62.2636 45.9462)
(-764.783 -427.057 96.5156)
(-762.521 -459.302 54.0168)
(-738.594 -453.442 125.636)
(-787.847 -424.787 54.0659)
(-768.173 -420.568 133.691)
(-761.335 -454.367 146.238)
(-767.247 -457.472 53.8013)
(-474.363 -285.209 211.416)
(-20.9375 -9.75355 10.483)
(-448.852 -240.609 270.228)
(-30.7016 -19.5147 19.2719)
(-610.377 -433.514 378.841)
(-12.696 -6.2333 5.68426)
(-0.00232335 -0.000952276 0.00115002)
(-548.743 -228.388 187.898)
(-550.598 -261.681 178.757)
(-519.695 -249.372 174.71)
(-536.325 -217.522 161.32)
(-481.478 -196.081 154.647)
(-477.837 -221.872 142.337)
(-396.249 -187.401 127.199)
(-703.572 -401.316 166.626)
(-667.317 -411.213 275.845)
(-692.629 -429.254 199.041)
(-710.609 -390.774 305.953)
(-730.013 -402.1 212.502)
(-735.609 -438.723 232.403)
(-706.585 -425.957 330.826)
(-30.7505 -16.8238 11.9344)
(-0.00317232 -0.00111034 0.000933378)
(-4.00016 -1.70715 1.03213)
(-0.0239262 -0.0111989 0.00621688)
(-0.963216 -0.548374 0.235503)
(-0.000482943 -0.000227051 8.09769e-05)
(-0.00023915 -0.000112367 6.38214e-05)
(-735.077 -487.226 53.6768)
(-723.696 -517.198 149.778)
(-723.981 -482.749 142.119)
(-758.026 -490.961 153.252)
(-742.328 -521.035 50.2235)
(-734.628 -514.481 154.038)
(-760.392 -492.869 52.6796)
(-805.16 -428.26 53.6094)
(-781.131 -417.037 156.262)
(-798.994 -426.192 152.832)
(-778.875 -458.827 156.205)
(-745.325 -434.245 46.1738)
(-726.381 -421.8 147.747)
(-788.948 -463.589 52.1597)
(-520.394 -276.172 165.382)
(-379.34 -223.345 124.162)
(-473.077 -251.165 155.154)
(-217.655 -127.7 69.9527)
(-372.345 -196.974 113.648)
(-262.684 -142.254 85.6189)
(-110.998 -63.7516 35.6771)
(-518.322 -217.807 203.959)
(-403.423 -192.041 185.79)
(-479.402 -228.241 185.227)
(-264.076 -112.086 122.893)
(-400.495 -164.713 152.339)
(-284.082 -137.527 110.314)
(-140.753 -68.3984 64.559)
(-621.625 -359.245 364.655)
(-656.507 -405.351 366.305)
(-667.591 -372.765 379.158)
(-604.353 -375.638 379.001)
(-594.923 -331.233 374.055)
(-642.038 -387.86 381.948)
(-538.314 -319.845 355.074)
(-681.888 -451.261 313.736)
(-703.602 -501.077 238.008)
(-695.443 -462.184 220.072)
(-728.106 -474.045 246.579)
(-634.364 -439.738 316.693)
(-696.855 -488.187 246.351)
(-681.188 -444.56 332.933)
(-353.917 -145.741 102.956)
(-25.6548 -8.99312 6.81356)
(-239.036 -100.94 76.8013)
(-21.3298 -8.27079 5.44307)
(-222.175 -106.298 66.8369)
(-116.323 -55.3393 36.7973)
(-7.50938 -2.67144 1.76766)
(-713.122 -389.802 336.116)
(-729.235 -391.09 247.641)
(-765.328 -412.609 246.807)
(-738.076 -437.782 251.004)
(-518.619 -297.841 252.017)
(-660.028 -379.147 227.95)
(-675.267 -399.689 327.79)
(-271.218 -162.345 106.493)
(-282.945 -154.395 133.021)
(-405.969 -216.039 155.894)
(-143.261 -77.0661 55.5663)
(-9.8088 -4.19292 3.24329)
(-39.5704 -20.0657 13.6321)
(-44.6339 -21.3561 18.0084)
(-739.907 -474.27 153.27)
(-660.469 -410.223 38.4951)
(-693.159 -474.882 42.8781)
(-431.165 -289.682 89.8629)
(-674.713 -459.529 139.843)
(-629.272 -389.443 127.808)
(-752.344 -482.711 49.0501)
(-572.215 -335.051 326.821)
(-344.143 -223.984 172.578)
(-526.474 -326.396 324.785)
(-222.085 -133.011 108.231)
(-460.794 -260.35 281.742)
(-315.536 -193.994 207.029)
(-69.9659 -40.7109 37.956)
(-641.498 -427.454 382.271)
(-490.976 -344.814 339.454)
(-568.978 -374.508 377.364)
(-499.92 -342.967 310.531)
(-600.595 -384.372 367.808)
(-422.151 -272.715 288.36)
(-229.516 -159.338 158.76)
(-220.644 -143.074 73.6479)
(-157.689 -106.296 56.1552)
(-71.0738 -41.0726 22.7818)
(-64.7467 -40.9762 20.6587)
(-23.9869 -12.5016 6.66345)
(-12.6042 -6.49202 3.8031)
(-3.66897 -1.77258 0.886657)
(-691.098 -441.631 242.299)
(-315.034 -197.666 156.243)
(-442.716 -299.976 221.105)
(-287.422 -192.109 107.256)
(-601.896 -405.768 213.566)
(-521.186 -323.321 185.391)
(-603.291 -378.439 294.98)
(-34.6673 -12.733 13.347)
(-8.01278 -2.48517 2.26796)
(-122.045 -51.037 46.6074)
(-41.5873 -17.9242 14.236)
(-0.465824 -0.140869 0.121339)
(-2.09338 -0.684922 0.541124)
(-10.2708 -3.76165 3.37198)
(-627.306 -338.66 372.833)
(-149.183 -79.8536 97.591)
(-459 -249.6 301.925)
(-265.249 -155.344 158.684)
(-556.378 -323.036 336.967)
(-303.873 -181.48 204.565)
(-38.1425 -18.7886 23.8683)
(-21.8313 -9.97914 6.01152)
(-5.31886 -1.96741 1.25505)
(-91.4103 -46.4077 27.8528)
(-33.6283 -15.3281 9.41368)
(-0.330264 -0.11231 0.0668985)
(-7.35238 -3.03565 1.77288)
(-1.70306 -0.584694 0.368228)
(-109.699 -68.8078 42.5166)
(-4.68112 -2.35198 1.48066)
(-20.2194 -11.4638 6.58053)
(-1.59257 -0.670509 0.456561)
(-7.31727 -3.35867 2.10706)
(-0.996485 -0.453147 0.256846)
(-0.212597 -0.0922624 0.0553136)
(-159.43 -108.592 90.0007)
(-236.719 -169.435 166.338)
(-419.691 -279.882 278.868)
(-133.171 -85.0232 91.6585)
(-1.45219 -0.728503 0.884871)
(-24.563 -14.4114 17.311)
(-11.8424 -6.1744 6.88786)
(-44.0657 -159.268 202.635)
(-573.405 -657.734 52.9574)
(-274.971 -554.698 89.5481)
(-380.459 -521.043 260.449)
(-238.38 -464.868 216.135)
(-280.511 -501.233 243.768)
(-165.628 -984.762 77.2196)
(-165.919 -643.996 221.812)
(-163.987 -594.595 185.171)
(-92.609 -155.187 181.662)
(-196.282 -977.412 56.1495)
(-176.356 -709.07 138.366)
(-156.91 -563.878 131.557)
(-325.779 -894.141 58.2081)
(-284.55 -690.88 195.207)
(-293.548 -859.444 29.7688)
(-234.869 -552.143 97.0364)
(-133.921 -407.754 240.817)
(-167.977 -624.526 227.812)
(-142.518 -422.461 229.613)
(-277.774 -673.24 290.85)
(-188.879 -422.622 224.453)
(-201.178 -441.771 217.339)
(-251.091 -554.217 207.469)
(-160.735 -454.778 194.079)
(-123.425 -440.021 199.061)
(-165.669 -466.527 199.885)
(-226.747 -480.092 188.943)
(-250.46 -510.685 245.625)
(-222.003 -477.558 141.861)
(-68.6324 -141.032 64.6536)
(-146.119 -901.81 54.7613)
(-213.425 -974.069 72.4718)
(-192.486 -892.769 43.8067)
(-174.922 -989.741 66.6057)
(-166.965 -919.708 31.9898)
(-214.814 -909.694 30.1183)
(-224.134 -977.395 61.5319)
(-344.669 -836.893 29.4374)
(-361.226 -856.382 56.1082)
(-318.946 -692.3 228.782)
(-486.734 -788.48 55.5487)
(-390.981 -578.57 143.504)
(-457.177 -767.237 53.7878)
(-425.666 -706.567 330.889)
(-120.356 -575.078 151.678)
(-170.49 -739.441 80.6801)
(-126.106 -749.973 92.9099)
(-149.732 -616.954 115.278)
(-157.509 -780.313 66.9357)
(-201.33 -770.13 62.5985)
(-185.372 -609.684 106.822)
(-242.307 -878.504 35.4622)
(-313.653 -931.575 60.8548)
(-262.785 -955.929 66.9846)
(-263.725 -893.688 31.1162)
(-322.888 -928.526 55.4796)
(-312.197 -872.489 34.4443)
(-274.087 -956.456 57.6983)
(-110.68 -409.418 252.486)
(-141.685 -449.192 207.607)
(-113.725 -453.15 221.223)
(-137.917 -508.243 195.309)
(-131.443 -468.689 236.847)
(-157.988 -471.136 233.888)
(-166.948 -507.585 185.065)
(-136.163 -408.936 249.16)
(-112.453 -409.555 256.324)
(-117.379 -422.877 235.699)
(-136.112 -486.212 227.004)
(-131.964 -469.932 245.558)
(-159.341 -473.968 241.102)
(-165.77 -492.456 222.965)
(-223.9 -441.623 224.772)
(-314.524 -682.656 328.544)
(-247.727 -493.541 193.727)
(-368.027 -535.606 251.763)
(-366.619 -541.481 210.646)
(-387.525 -641.979 381.926)
(-40.3732 -69.4683 37.6844)
(-189.963 -989.068 57.3743)
(-196.623 -933.527 44.4925)
(-189.021 -934.723 33.4603)
(-234.475 -919.923 37.2333)
(-241.158 -956.869 56.9014)
(-239.711 -913.441 50.1212)
(-237.498 -972.187 56.0449)
(-152.362 -441.034 200.741)
(-131.509 -453.469 198.167)
(-125.339 -441.388 206.704)
(-140.694 -504.054 200.807)
(-144.639 -519.457 201.715)
(-173.326 -512.639 197.043)
(-180.537 -529.833 198.657)
(-0.134431 -0.559692 0.793446)
(-105.087 -390.966 448.477)
(-94.3494 -396.371 361.249)
(-12.8023 -432.456 398.381)
(-45.9188 -378.468 439.57)
(-6.28697 -211.568 275.561)
(-0.0278145 -1.44898 2.03621)
(-195.653 -555.877 112.477)
(-266.405 -712.112 57.0631)
(-217.877 -726.157 67.0591)
(-246.312 -757.937 60.1979)
(-259.881 -603.639 100.705)
(-291.154 -745.035 62.0562)
(-222.086 -604.946 101.095)
(-270.174 -505.352 188.482)
(-196.872 -371.833 113.221)
(-21.4018 -44.694 18.0301)
(-228.26 -318.833 154.262)
(-353.581 -502.069 183.444)
(-6.44297 -12.519 3.77039)
(-0.092174 -0.212197 0.0552097)
(-159.535 -411.611 230.556)
(-204.141 -455.965 172.286)
(-171.423 -449.12 190.501)
(-187.117 -480.091 234.387)
(-233.337 -522.508 172.305)
(-221.239 -497.788 238.177)
(-198.284 -511.905 175.752)
(-363.208 -899.521 55.5377)
(-408.709 -863.545 53.3881)
(-392.814 -811.621 32.0122)
(-367.948 -894.99 54.9653)
(-357.264 -845.835 39.8998)
(-399.431 -815.656 48.0483)
(-409.498 -858.297 55.9409)
(-190.979 -834.084 89.2863)
(-167.135 -666.885 111.255)
(-180.684 -814.408 67.0654)
(-222.954 -801.809 70.4786)
(-213.23 -700.75 150.222)
(-231.184 -815.716 97.7025)
(-203.729 -660.091 113.236)
(-278.526 -898.961 42.2588)
(-284.726 -928.177 58.0958)
(-320.554 -853.668 69.5544)
(-327.896 -917.773 56.9759)
(-321.085 -872.38 48.4336)
(-281.289 -886.659 57.9842)
(-283.81 -947.977 56.0996)
(-169.726 -428.144 222.911)
(-190.661 -424.655 234.622)
(-161.528 -413.364 241.626)
(-189.303 -485.115 238.258)
(-237.815 -529.588 220.487)
(-224.13 -505.506 241.479)
(-198.656 -506.457 220.335)
(-43.5468 -118.927 150.96)
(-0.00486487 -0.0111166 0.0151157)
(-0.083515 -0.279375 0.397223)
(-137.515 -399.443 452.035)
(-111.972 -359.578 325.158)
(-234.523 -404.711 430.175)
(-61.2648 -113.559 99.5217)
(-539.996 -625.434 316.965)
(-515.32 -749.98 54.0687)
(-422.348 -584.207 186.868)
(-477.771 -610.98 36.7726)
(-492.54 -760.416 52.6664)
(-227.262 -291.166 149.953)
(-444.214 -681.144 332.899)
(-314.6 -700.175 53.4191)
(-315.939 -562.49 93.7806)
(-361.207 -691.024 58.5743)
(-297.955 -606.112 109.816)
(-334.51 -732.448 70.9474)
(-374.166 -717.959 88.6017)
(-334.556 -609.041 130.93)
(-153.435 -572.931 188.424)
(-163.711 -635.604 281.515)
(-146.874 -541.412 247.126)
(-179.118 -551.266 251.038)
(-202.302 -649.574 236.242)
(-201.616 -645.027 293.958)
(-186.268 -575.45 189.029)
(-214.143 -460.871 189.447)
(-191.507 -462.023 190.713)
(-181.214 -446.703 194.223)
(-252.485 -543.321 190.642)
(-210.747 -528.813 194.064)
(-219.885 -540.814 194.967)
(-258.98 -540.471 190.4)
(-264.681 -786.658 77.1748)
(-249.35 -693.94 168.707)
(-306.073 -771.014 130.391)
(-276.356 -650.494 133.909)
(-304.944 -768.972 88.6015)
(-269.79 -794.09 110.689)
(-240.34 -654.406 119.847)
(-166.262 -639.58 272.45)
(-154.044 -574.003 227.142)
(-148.002 -548.655 247.413)
(-182.001 -562.129 250.07)
(-203.642 -608.793 223.132)
(-204.251 -636.061 280.002)
(-191.496 -583.754 225.477)
(-172.085 -486.489 231.613)
(-138.181 -475.872 228.807)
(-134.636 -462.797 201.698)
(-153.811 -544.792 253.775)
(-149.257 -534.37 214.05)
(-186.79 -541.005 214.269)
(-190.911 -538.427 254.284)
(-450.552 -826.915 53.6144)
(-475.672 -751.936 53.4104)
(-437.473 -784.349 40.1443)
(-436.311 -780.019 61.1568)
(-474.333 -777.475 54.7776)
(-465.167 -741.308 85.6622)
(-445.456 -817.911 57.2163)
(-356.334 -817.566 88.2968)
(-368.292 -881.306 58.2127)
(-360.847 -839.73 56.6861)
(-396.888 -802.037 71.2201)
(-393.375 -818.321 54.7682)
(-388.876 -787.735 112.644)
(-404.729 -841.841 58.0904)
(-241.327 -470.156 158.744)
(-282.585 -490.719 158.445)
(-266.486 -470.643 230.434)
(-271.547 -538.707 179.863)
(-261.524 -525.493 250.707)
(-311.097 -559.664 202.42)
(-306.396 -560.684 275.523)
(-225.636 -444.947 231.78)
(-283.364 -499.614 220.545)
(-268.182 -477.747 240.326)
(-281.491 -551.02 225.696)
(-265.824 -537.147 252.75)
(-312.864 -567.998 275.41)
(-318.939 -554.194 235.589)
(-159.164 -586.964 199.048)
(-156.454 -560.931 185.033)
(-160.1 -582.683 199.609)
(-196.13 -571.784 175.265)
(-197.208 -583.795 193.281)
(-197.203 -569.548 194.871)
(-182.79 -529.829 172.386)
(-214.743 -568.033 260.415)
(-239.732 -660.252 259.031)
(-257.732 -595.333 211.668)
(-275.229 -650.182 334.421)
(-254.621 -592.019 278.22)
(-239.997 -652.264 312.253)
(-221.099 -582.504 195.431)
(-355.466 -571.306 111.921)
(-439.351 -669.167 101.767)
(-403.997 -682.346 74.6766)
(-407.323 -698.604 115.098)
(-398.74 -616.403 207.546)
(-433.581 -676.772 149.641)
(-367.972 -611.857 164.225)
(-17.2645 -371.873 433.633)
(-16.7666 -433.487 456.887)
(-15.5242 -399.859 485.923)
(-45.5299 -402.107 487.453)
(-47.6331 -437.596 459.681)
(-43.3909 -411.6 458.039)
(-14.0508 -411.125 458.078)
(-220.013 -580.69 257.427)
(-233.598 -586.684 216.83)
(-267.469 -610.216 299.946)
(-266.88 -580.705 227.634)
(-260.815 -596.759 271.699)
(-239.641 -626.255 289.588)
(-230.924 -588.733 225.605)
(-239.027 -499.057 203.695)
(-199.433 -478.68 200.378)
(-210.024 -501.843 238.182)
(-225.162 -539.716 214.129)
(-245.487 -498.531 238.318)
(-256.97 -525.124 210.572)
(-223.278 -522.847 249.732)
(-338.677 -749.199 157.789)
(-310.795 -648.119 158.062)
(-341.776 -747.962 106.69)
(-373.836 -724.552 132.794)
(-353.877 -700.368 267.712)
(-369.38 -733.992 187.878)
(-343.755 -648.837 192.484)
(-75.0613 -384.01 444.112)
(-107.517 -399.899 475.802)
(-111.533 -438.8 454.109)
(-76.4474 -401.799 483.915)
(-79.1925 -439.268 458.387)
(-73.496 -407.661 452.023)
(-102.458 -398.942 440.301)
(-426.699 -764.646 96.6281)
(-424.525 -787.722 54.0423)
(-458.933 -762.431 53.9833)
(-454.075 -761.407 146.279)
(-420.3 -768.151 133.765)
(-453.088 -738.596 125.726)
(-433.61 -800.819 55.2925)
(-254.931 -487.901 188.03)
(-302.829 -515.138 189.384)
(-290.744 -542.205 186.638)
(-312.106 -514.043 186.565)
(-286.4 -523.753 183.479)
(-312.704 -525.231 179.906)
(-297.752 -496.619 169.975)
(-503.751 -715.08 77.7735)
(-533.455 -709.181 53.3485)
(-523.21 -683.614 110.276)
(-495.567 -736.586 53.7005)
(-487.689 -710.82 117.1)
(-512.254 -692.995 139.316)
(-517.594 -705.963 53.6885)
(-84.3026 -99.5923 68.0599)
(-509.011 -589.752 381.613)
(-408.915 -569.685 260.288)
(-53.8385 -73.9773 42.2742)
(-383.972 -600.456 367.69)
(-0.00672049 -0.0120884 0.00758175)
(-6.12225 -11.7588 6.83803)
(-217.789 -536.172 160.786)
(-261.891 -550.45 178.28)
(-234.232 -571.981 187.04)
(-228.722 -548.673 187.512)
(-187.598 -396.138 126.913)
(-249.632 -519.589 174.346)
(-196.428 -481.482 154.331)
(-171.708 -407.852 451.277)
(-137.936 -395.077 463.855)
(-144.534 -435.747 446.598)
(-175.832 -429.211 435.378)
(-165.858 -386.02 448.516)
(-127.982 -383.581 421.412)
(-146.574 -357.727 389.758)
(-144.395 -516.818 196.916)
(-153.567 -534.324 250.552)
(-159.367 -564.353 220.773)
(-192.643 -545.341 215.089)
(-129.615 -369.145 168.719)
(-163.4 -473.845 179.487)
(-180.609 -509.048 237.963)
(-401.026 -703.552 166.734)
(-390.584 -710.697 306.136)
(-411.019 -667.54 275.981)
(-438.464 -735.678 232.507)
(-401.875 -730.084 212.615)
(-428.949 -692.705 199.137)
(-376.11 -654.063 233.966)
(-324.772 -515.024 175.886)
(-365.964 -551.471 287.813)
(-315.09 -509.105 250.548)
(-390.61 -610.286 290.607)
(-350.701 -584.127 240.8)
(-352.138 -593.536 313.336)
(-389.984 -608.194 352.507)
(-465.8 -649.869 137.113)
(-455.484 -592.887 235.37)
(-488.045 -633.053 175.547)
(-432.249 -626.865 252.749)
(-458.113 -661.723 186.378)
(-487.414 -658.882 212.519)
(-472.429 -645.584 293.636)
(-281.319 -511.431 207.457)
(-294.151 -477.436 231.974)
(-308.512 -501.344 205.032)
(-250.584 -461.996 216.714)
(-275.396 -499.989 200.069)
(-272.966 -459.178 179.631)
(-229.138 -385.411 180.187)
(-295.753 -612.989 240.303)
(-303.21 -640.85 354.585)
(-296.048 -614.989 305.595)
(-347.291 -681.06 361.41)
(-334.249 -634.139 281.121)
(-333.105 -626.01 337.858)
(-323.478 -623.522 369.254)
(-333.893 -530.837 234.239)
(-372.524 -557.904 294.013)
(-319.383 -521.568 260.392)
(-351.136 -580.212 306.294)
(-338.667 -512.841 241.354)
(-372.592 -573.559 332.024)
(-338.342 -541.441 242.522)
(-569.596 -655.54 145.309)
(-549.188 -676.337 53.6809)
(-542.707 -663.196 136.034)
(-542.686 -687.958 147.034)
(-580.432 -692.175 51.0008)
(-578.392 -691.687 151.659)
(-545.804 -688.022 53.0175)
(-284.836 -587.865 307.833)
(-291.519 -563.086 227.799)
(-297.707 -599.25 292.173)
(-322.335 -590.842 312.836)
(-211.936 -381.775 164.986)
(-285.349 -545.968 308.535)
(-301.393 -536.259 223.651)
(-205.823 -410.244 443.709)
(-196.829 -339.727 388.755)
(-219.398 -396.132 394.501)
(-202.992 -417.427 419.531)
(-187.099 -369.6 426.486)
(-152.545 -313.804 336.862)
(-137.028 -243.071 253.538)
(-218.189 -518.297 203.719)
(-112.501 -264.594 123.05)
(-192.37 -403.567 185.725)
(-137.773 -284.209 110.229)
(-228.537 -479.356 184.993)
(-165.109 -400.729 152.237)
(-196.018 -471.699 217.58)
(-41.1807 -429.695 395.178)
(-15.4747 -453.599 443.096)
(-46.7411 -454.685 444.121)
(-37.1069 -376.303 393.477)
(-6.77072 -252.364 244.289)
(-23.206 -241.283 233.29)
(-11.3808 -380.245 398.306)
(-339.985 -518.87 190.079)
(-329.569 -465.892 163.029)
(-331.64 -498.552 179.402)
(-284.149 -416.027 142.911)
(-316.374 -495.655 166.888)
(-283.526 -441.688 147.707)
(-220.436 -313.842 106.608)
(-486.866 -735.095 53.6645)
(-490.631 -758.063 153.257)
(-482.408 -724.078 142.142)
(-516.844 -723.845 149.792)
(-520.646 -742.285 50.2076)
(-514.118 -734.579 154.007)
(-518.927 -723.235 53.0153)
(-89.9178 -334.417 423.669)
(-35.6325 -187.917 241.322)
(-64.9782 -346.521 442.061)
(-51.3159 -285.001 332.957)
(-12.5231 -44.4957 57.9074)
(-12.7692 -65.9125 83.1089)
(-67.3972 -258.348 297.524)
(-110.193 -444.82 430.731)
(-69.4011 -418.344 383.409)
(-78.6986 -451.695 439.689)
(-62.5526 -363.308 378.417)
(-44.3915 -175.186 168.397)
(-37.2866 -215.855 208.108)
(-84.1105 -339.049 350.629)
(-21.6863 -204.779 265.376)
(-11.865 -353.329 453.727)
(-38.0926 -352.54 451.675)
(-30.6477 -300.269 353.764)
(-2.44894 -89.1223 109.774)
(-9.17687 -305.984 361.801)
(-8.67978 -81.6183 101.202)
(-276.24 -520.214 164.938)
(-142.23 -262.403 85.3671)
(-251.289 -472.906 154.815)
(-127.349 -216.97 69.5957)
(-266.383 -461.003 145.231)
(-223.268 -379.002 123.844)
(-63.5942 -110.701 35.512)
(-549.417 -635.709 223.735)
(-494.782 -608.765 278.853)
(-514.444 -627.265 206.533)
(-524.921 -670.106 229.223)
(-523.155 -628.178 327.505)
(-556.996 -666.972 243.771)
(-512.695 -652.348 324.761)
(-451.002 -682.033 313.845)
(-473.713 -728.086 246.598)
(-461.894 -695.606 220.116)
(-500.781 -703.725 238.036)
(-439.322 -634.233 316.589)
(-487.802 -696.79 246.317)
(-481.189 -672.061 331.194)
(-415.432 -583.775 335.102)
(-453.931 -598.118 317.471)
(-431.075 -631.353 342.742)
(-447.429 -588.119 372.679)
(-413.051 -601.189 377.644)
(-462.206 -630.021 375.731)
(-420.875 -575.315 384.841)
(-372.497 -667.56 379.202)
(-405.118 -656.622 366.407)
(-371.82 -652.429 328.123)
(-359.047 -621.708 364.738)
(-319.441 -538.027 354.902)
(-330.916 -594.814 374.006)
(-375.367 -604.381 379.03)
(-110.04 -314.078 393.741)
(-33.4661 -73.368 95.2898)
(-121.357 -281.084 345.494)
(-8.92122 -24.8858 33.7402)
(-74.3337 -217.027 245.388)
(-67.7858 -158.583 177.926)
(-4.88727 -11.3923 16.5155)
(-139.348 -433.211 416.421)
(-116.484 -300.551 267.8)
(-162.509 -412.747 393.842)
(-40.4131 -121.036 116.195)
(-97.5543 -299.931 305.708)
(-97.673 -241.104 241.264)
(-25.9261 -64.3087 63.1026)
(-284.553 -432.549 206.258)
(-294.248 -416.655 166.416)
(-316.312 -475.85 193.085)
(-237.114 -366.092 143.481)
(-50.6058 -76.7189 34.4362)
(-138.909 -197.575 79.2888)
(-157.425 -238.298 114.216)
(-405.978 -565.243 329.241)
(-357.895 -465.554 249.923)
(-298.628 -425.242 219.4)
(-420.076 -549.314 351.131)
(-377.431 -549.126 343.448)
(-347.811 -476.907 321.753)
(-189.129 -251.585 147.337)
(-548.645 -717.357 153.041)
(-561.711 -692.653 47.3202)
(-523.101 -699.685 45.6227)
(-454.112 -582.053 122.731)
(-512.03 -687.223 146.162)
(-553.462 -683.588 149.377)
(-552.921 -720.115 50.7378)
(-334.8 -572.177 326.823)
(-132.438 -221.207 107.781)
(-223.466 -343.501 172.256)
(-193.416 -314.789 206.563)
(-259.897 -460.226 281.442)
(-326.032 -526.267 324.709)
(-284.888 -473.988 211.159)
(-154.594 -283.047 132.976)
(-77.1154 -143.229 55.4861)
(-216.198 -405.886 155.679)
(-162.325 -271.03 106.301)
(-4.19572 -9.80811 3.24174)
(-20.0441 -39.5096 13.5921)
(-78.2323 -132.299 61.2549)
(-90.5799 -261.918 530.61)
(-160.411 -174.075 293.084)
(-179.88 -240.537 443.075)
(-71.1295 -250.182 357.233)
(-97.6938 -334.4 416.204)
(-88.2208 -246.087 436.809)
(-36.5182 -228.78 345.341)
(-41.2839 -285.353 381.97)
(-9.12579 -277.711 409.759)
(-11.4819 -256.226 539.599)
(-42.5696 -66.8157 91.486)
(-143.87 -260.645 501.856)
(-83.2286 -223.765 311.756)
(-126.962 -341.01 423.772)
(-114.102 -249.435 442.674)
(-182.024 -243.442 378.078)
(-228.75 -379.491 445.608)
(-38.9654 -253.25 363.062)
(-14.3801 -222.049 335.709)
(-15.4369 -246.292 354.712)
(-14.8363 -234.941 417.527)
(-39.0752 -240.732 425.807)
(-41.2909 -272.927 447.668)
(-15.6644 -266.857 440.341)
(-81.8877 -232.129 358.619)
(-86.7623 -258.801 373.727)
(-59.2535 -231.686 353.167)
(-62.9275 -256.873 369.261)
(-63.8932 -243.823 431.638)
(-67.2432 -276.769 453.237)
(-93.1997 -280.628 459.109)
(-105.425 -232.646 362.736)
(-111.65 -261.133 377.563)
(-129.905 -233.945 366.17)
(-137.598 -264.895 381.721)
(-141.739 -254.692 450.677)
(-121.271 -286.12 466.058)
(-151.505 -293.996 473.898)
(-15.6988 -21.9086 33.3464)
(-211.682 -253.313 389.924)
(-285.77 -358.469 438.648)
(-332.96 -308.881 438.643)
(-124.104 -124.091 171.179)
(-263.281 -298.428 324.448)
(-4.49084 -5.23603 8.3287)
(-16.2951 -278.31 374.704)
(-43.6459 -325.418 404.969)
(-16.9606 -318.625 398.419)
(-43.4235 -314.914 475.665)
(-16.0026 -360.192 491.856)
(-44.9805 -365.474 495.309)
(-16.1038 -308.817 469.714)
(-91.9203 -292.653 391.431)
(-66.6147 -289.468 387.148)
(-70.5605 -329.818 410.197)
(-71.0747 -319.226 480.004)
(-105.067 -372.686 493.906)
(-74.5969 -369.205 495.908)
(-99.3124 -324.18 484.317)
(-36.6318 -259.574 541.197)
(-13.7009 -256.407 523.81)
(-39.6262 -261.094 529.493)
(-41.2715 -298.444 534.036)
(-11.4595 -281.306 516.275)
(-36.6252 -283.655 516.532)
(-14.0989 -293.901 530.797)
(-155.129 -237.089 370.651)
(-194.058 -279.998 398.466)
(-164.686 -270.72 387.551)
(-203.995 -273.521 472.714)
(-171.507 -262.653 461.146)
(-183.655 -304.095 481.257)
(-217.179 -315.645 482.684)
(-93.774 -267.576 532.782)
(-63.462 -260.981 538.241)
(-66.5956 -264.183 532.007)
(-69.3878 -301.47 533.413)
(-90.0384 -281.678 500.872)
(-63.4705 -283.698 511.469)
(-98.0472 -304.692 529.173)
(-118.647 -296.488 395.607)
(-158.396 -351.286 433.411)
(-146.696 -302.454 402.157)
(-136.971 -375.616 488.073)
(-129.706 -330.915 488.029)
(-161.764 -339.756 488.666)
(-169.041 -375.339 477.629)
(-117.893 -262.193 518.789)
(-122.75 -272.007 531.638)
(-153.072 -277.745 526.28)
(-115.367 -276.728 484.779)
(-128.197 -308.157 521.657)
(-158.898 -310.318 510)
(-137.279 -267.253 460.973)
(-227.871 -294.545 416.772)
(-246.667 -268.458 410.559)
(-238.867 -286.628 480.151)
(-267.378 -314.649 435.455)
(-274.057 -298.185 474.341)
(-250.565 -323.629 473.454)
(-274.771 -321.451 454.352)
(-210.372 -326.543 428.466)
(-192.402 -365.702 442.849)
(-176.703 -312.037 413.374)
(-194.837 -347.162 483.095)
(-220.957 -360.519 441.944)
(-225.812 -348.707 470.042)
(-197.747 -370.987 461.99)
(-165.667 -254.068 478.226)
(-213.225 -285.645 499.467)
(-184.156 -283.502 515.633)
(-187.13 -309.206 493.548)
(-155.178 -223.088 363.242)
(-152.421 -251.092 423.565)
(-210.701 -303.686 472.198)
(-42.1481 -334.457 521.245)
(-30.715 -275.353 404.137)
(-13.505 -354.119 493.652)
(-10.7083 -292.353 479.464)
(-41.4304 -355.711 493.815)
(-34.9531 -293.01 477.979)
(-14.1926 -331.312 519.775)
(-71.3116 -335.523 517.805)
(-84.8078 -282.662 452.95)
(-99.0673 -350.064 478.302)
(-52.457 -266.635 387.366)
(-70.4407 -354.252 488.515)
(-60.4733 -289.839 469.566)
(-100.941 -335.477 509.862)
(-105.8 -270.277 426.219)
(-125.726 -341.875 463.118)
(-130.422 -333.875 498.06)
(-158.287 -329.753 482.183)
(-84.4576 -183.857 248.792)
(-120.111 -249.444 383.987)
(-147.872 -327.179 440.184)
(-288.934 -288.923 432.977)
(-332.225 -332.204 422.786)
(-308.901 -332.944 438.649)
(-308.808 -287 428.073)
(-298.627 -298.619 455.661)
(-287.025 -308.788 428.086)
(-276.644 -276.617 379.819)
(-248.102 -345.492 441.103)
(-283.516 -375.117 417.496)
(-261.699 -383.618 436.059)
(-232.238 -339.457 413.288)
(-249.228 -342.809 450.101)
(-261.769 -327.06 423.914)
(-224.58 -297.786 357.06)
(-249.559 -271.196 449.003)
(-236.456 -282.814 477.608)
(-181.322 -216.652 385.504)
(-137.966 -176.87 274.074)
(-224.452 -289.135 443.805)
(-223.927 -261.915 395.233)
(-93.4992 -108.529 162.684)
(-181.459 -320.28 461.379)
(-107.484 -163.773 233.62)
(-70.2951 -128.28 170.719)
(-161.46 -262.871 339.999)
(-122.975 -215.556 320.148)
(-195.659 -301.543 430.791)
(-161.978 -303.04 402.76)
(-89.3125 -100.263 114.915)
(-207.244 -220.996 271.333)
(-315.262 -336.512 394.634)
(-289.632 -353.114 389.892)
(-308.762 -354.688 421.372)
(-254.042 -292.309 374.75)
(-180.168 -218.625 251.314)
(-7.85442 -7.85343 15.0821)
(-39.6776 -37.3859 63.1723)
(-211.016 -196.159 304.046)
(-107.252 -107.245 172.584)
(-245.865 -245.853 400.506)
(-196.193 -211.011 304.078)
(-37.3987 -39.6849 63.1891)
(-70.108 -94.6183 133.476)
(-136.413 -196.889 244.513)
(-196.371 -269.861 377.563)
(-171.174 -213.032 285.051)
(-4.21114 -5.37877 9.40861)
(-81.6578 -105.508 130.43)
(-27.7786 -33.2806 51.2865)
(-6.6452 -11.0797 17.0324)
(-118.053 -229.857 274.2)
(-17.647 -32.8021 45.7243)
(-46.7895 -91.4898 103.985)
(-0.727509 -1.32417 2.13262)
(-2.15541 -4.33749 6.7475)
(-20.2013 -35.0475 42.5602)
(-100.549 -215.196 189.559)
(-165.965 -309.334 286.844)
(-174.096 -375.526 354.452)
(-78.7264 -161.751 160.602)
(-3.45906 -7.26542 7.61422)
(-42.668 -76.2391 77.5107)
(-10.8312 -24.4361 24.6351)
(-493.609 -609.048 366.37)
(-444.434 -519.333 376.292)
(-461.264 -568.306 387.021)
(-456.212 -553.8 360.066)
(-473.572 -604.687 381.538)
(-399.962 -517.867 364.867)
(-312.27 -375.776 273.836)
(-16.5254 -164.468 177.956)
(-0.115358 -1.26208 1.77505)
(-0.822724 -35.1175 38.9463)
(-0.321329 -13.8391 18.7778)
(-2.98007 -30.7475 34.3306)
(-4.75992 -174.773 188.966)
(-1.21484 -12.1632 16.6745)
(-40.7945 -70.6383 22.5977)
(-105.825 -157.046 55.8593)
(-213.946 -336.06 111.005)
(-142.79 -220.172 73.3748)
(-1.76358 -3.65069 0.880629)
(-12.4449 -23.8817 6.61964)
(-40.7877 -64.4753 20.5339)
(-524.56 -686.347 246.413)
(-445.437 -557.52 286.332)
(-375.642 -481.905 178.449)
(-381.897 -522.295 262.416)
(-468.6 -634.344 228.825)
(-517.033 -640.615 236.887)
(-485.546 -637.778 324.854)
(-427.161 -641.548 382.292)
(-272.201 -421.621 287.99)
(-374.172 -568.924 377.326)
(-342.477 -499.52 310.252)
(-433.188 -610.398 378.812)
(-344.419 -490.766 339.289)
(-158.788 -228.888 158.312)
(-25.778 -141.926 153.527)
(-1.51074 -5.70375 8.22926)
(-3.51564 -14.201 16.5071)
(-0.156142 -0.923843 1.30323)
(-3.99234 -22.8591 25.8987)
(-1.67139 -9.10508 12.7599)
(-28.7526 -107.814 117.081)
(-0.151106 -0.18024 0.350967)
(-0.861562 -1.09387 2.05156)
(-24.7478 -30.048 41.0526)
(-1.22398 -1.325 2.66426)
(-6.48672 -7.37342 13.3721)
(-34.0049 -36.1246 51.454)
(-108.512 -123.55 160.552)
(-68.6902 -109.506 42.3886)
(-0.670115 -1.59078 0.455896)
(-2.34868 -4.67387 1.47736)
(-0.451827 -0.993478 0.255713)
(-3.35105 -7.29859 2.09859)
(-11.4303 -20.1642 6.55327)
(-16.8131 -30.7216 11.9168)
(-0.984445 -2.94085 4.35059)
(-2.27965 -7.29412 8.77279)
(-23.4205 -67.1226 75.157)
(-13.2245 -32.0505 37.2993)
(-0.0402249 -0.115331 0.162416)
(-0.492056 -1.25459 1.88414)
(-1.10703 -3.03431 3.71927)
(-259.217 -314.346 190.533)
(-309.342 -358.237 265.027)
(-401.683 -497.839 344.079)
(-248.005 -315.353 226.659)
(-4.58088 -6.45852 4.66634)
(-80.2176 -99.7671 75.5008)
(-47.8557 -64.1252 42.118)
(-297.621 -369.308 237.03)
(-218.576 -295.469 184.253)
(-406.571 -543.201 343.951)
(-244.243 -321.026 227.598)
(-3.23762 -5.33377 3.19307)
(-34.6774 -51.8716 34.6228)
(-76.4004 -99.0572 69.7292)
(-108.062 -158.789 89.6474)
(-84.5492 -132.575 91.2531)
(-279.399 -419.246 278.616)
(-168.918 -236.173 165.963)
(-0.722865 -1.44287 0.879173)
(-14.3093 -24.4238 17.2101)
(-19.3812 -30.5311 19.1664)
(-101.987 -431.478 252.229)
(-96.99 -350.973 362.335)
(-113.933 -476.207 404.13)
(-45.5144 -422.971 247.658)
(-16.0582 -484.372 414.585)
(-43.5247 -342.406 353.571)
(-15.4169 -296.187 226.64)
(-66.8518 -305.749 193.561)
(-13.3862 -288.336 171.521)
(-15.4935 -325.443 198.571)
(-27.3881 -300.723 179.819)
(-35.9512 -336.65 205.511)
(-35.8666 -306.875 234.379)
(-40.2666 -345.259 255.576)
(-16.7311 -335.39 248.662)
(-45.15 -306.747 189.195)
(-82.0823 -312.632 244.011)
(-82.971 -342.46 213.897)
(-58.8381 -342.05 211.606)
(-58.3362 -312.074 241.004)
(-65.4917 -350.22 260.329)
(-91.0926 -352.08 262.479)
(-41.2906 -376.674 227.564)
(-18.0365 -414.164 242.164)
(-16.9288 -366.8 221.354)
(-44.2205 -389.367 276.426)
(-18.3241 -437.659 296.729)
(-47.5662 -445.364 301.995)
(-17.8394 -380.515 270.226)
(-17.2979 -334.899 346.647)
(-16.5633 -311.852 282.753)
(-40.3333 -320.724 290.325)
(-43.7674 -362.759 311.788)
(-17.8502 -386.196 377.029)
(-17.6348 -354.405 304.943)
(-46.264 -393.137 383.629)
(-93.7513 -383.374 232.647)
(-73.7457 -428.015 250.75)
(-67.4067 -381.726 231.473)
(-71.3837 -394.321 280.191)
(-106.656 -456.865 309.518)
(-76.7582 -450.771 305.576)
(-98.6013 -397.623 282.722)
(-70.2768 -347.009 358.243)
(-90.7965 -327.86 298.202)
(-65.4418 -325.615 295.319)
(-70.3863 -367.594 316.108)
(-103.932 -405.49 393.806)
(-74.7419 -398.407 388.469)