/*--------------------------------*- C++ -*----------------------------------*\
  =========                 |
  \\      /  F ield         | OpenFOAM: The Open Source CFD Toolbox
   \\    /   O peration     | Website:  https://openfoam.org
    \\  /    A nd           | Version:  9
     \\/     M anipulation  |
\*---------------------------------------------------------------------------*/
FoamFile
{
    format      ascii;
    class       surfaceScalarField;
    location    "0.00075";
    object      phi;
}
// * * * * * * * * * * * * * * * * * * * * * * * * * * * * * * * * * * * * * //

dimensions      [0 3 -1 0 0 0 0];

internalField   nonuniform List<scalar> 
19567
(
-1.63269
1.49915
4.64678
-0.02852
0.246345
0.208617
1.05772
0.00712057
-3.10022
-4.79781
4.81275
-1.36134
-4.9105
4.9773
1.5011
-8.09913
-3.13303
-4.83265
-8.23358
1.25088
-4.96657
-3.24043
-8.15946
1.63865
-0.114864
1.27547
-8.25736
1.62053
0.0227086
-4.74411
-1.5761
2.93957
-1.50293
3.18287
6.5161
1.52723
4.59848
-0.224376
-0.228451
-0.223109
-0.239623
0.0150718
-2.31323
4.73159
3.06989
-2.61196
1.54648
6.43029
-0.0485476
-1.28309
3.09866
-1.43799
6.47989
-0.00772186
3.14239
6.4689
-4.87801
-1.57495
-1.4613
3.23503
6.68961
-0.529606
0.187669
0.947115
0.00895444
0.826968
-0.625515
0.246867
1.04781
1.69331
-1.49722
0.241866
0.186074
0.00460425
3.20168
-0.354449
-0.35673
-0.387106
-0.332908
-0.39736
-0.398387
-0.399434
-0.391409
6.57739
-1.17891
-1.17516
-1.18424
-1.17531
-0.396873
-0.399517
-0.398678
-0.400014
0.0254899
3.26637
6.68976
-1.27668
-1.28971
-1.27256
-1.28511
-0.402713
-0.432096
-0.399659
-0.43221
-4.93843
4.93672
-4.96188
-1.36198
4.90703
1.52218
6.66024
1.4201
4.96553
-0.827807
-0.852505
-0.856241
-4.90874
1.25847
6.59877
1.42838
6.63732
1.4906
6.64258
-8.315
1.64297
1.53137
0.0444066
-1.59999
8.3996
-1.3229
3.28802
1.50812
1.40883
1.61347
-1.67857
-1.68393
-1.66938
0.0315721
1.2258
-8.34741
3.27893
1.52025
0.0374493
3.3588
1.50884
3.24224
-0.232175
-1.00305
-0.21164
0.47109
0.392993
1.19737
0.220753
1.04601
0.502991
0.000330953
1.01483
0.244891
0.426928
0.20597
0.239709
1.27585
0.00605628
0.399883
1.22477
0.488087
0.445927
0.484217
1.25105
0.00625514
0.493633
-0.990629
-0.15406
0.164389
0.99294
0.00722112
0.951032
-0.512203
0.20385
-0.504467
0.00682562
0.00202303
-0.257901
-1.08013
0.616848
1.06183
0.262256
-0.636559
1.04629
-0.618913
0.261706
-0.236521
1.42657
-0.208305
0.202885
0.242558
0.00604876
0.184969
-1.466
0.00811161
-1.45811
0.247406
0.00714258
-4.823
4.86141
-4.83152
3.13526
4.862
6.53074
-2.82699
4.78521
-4.83534
-3.19948
6.48569
6.48978
6.52506
8.32924
-1.19488
4.99003
1.47665
-4.88767
1.08031
-5.05223
-8.3189
1.41553
1.17845
-8.29739
1.45674
1.37436
-8.22235
1.63396
-0.0660061
-1.60902
8.1944
3.16874
3.21979
-3.05528
1.59382
-0.0885594
-3.24382
-8.14775
3.22557
-0.0454222
3.23242
3.18923
8.17179
3.21346
4.86815
-4.84608
-3.17833
-4.84553
-8.14049
-3.21198
-8.13001
1.3454
-3.64072
18.1069
4.80902
-17.4411
-1.52015
-1.63634
1.4497
11.0036
2.43662
-10.2455
-1.44649
1.38424
0.568097
11.3075
-11.4822
-2.13961
-2.17259
10.9833
3.08782
-10.5081
2.71852
-2.12875
0.705158
11.2735
-11.1089
2.66936
-1.3674
-10.4203
-1.92125
0.696671
2.31099
-1.35756
-11.286
0.588462
0.782214
-9.06594
-0.930218
-1.47974
1.60105
1.14256
-11.5013
-1.15567
10.7292
1.75156
0.787689
-1.9612
-1.66262
11.641
2.53025
-10.8123
1.32537
1.5527
18.553
-17.9704
0.597945
-2.06245
11.8187
-11.9801
-18.1243
1.82229
-3.59386
4.75636
-11.7736
-2.28599
-2.84568
2.8822
-18.6594
18.6109
1.66099
1.17531
-12.338
0.651269
-2.62712
0.583223
11.3971
1.65369
-11.6529
1.38815
11.2714
-1.45597
1.04371
-11.2506
11.3298
1.08806
1.61441
-11.3918
-1.29384
-0.751122
1.52245
1.3751
11.4731
0.713057
1.28549
-1.40018
11.5896
-1.41188
1.44882
11.5879
1.3722
11.4877
-2.04528
11.7862
1.07249
-11.7755
0.735466
13.6613
-2.55882
-13.5678
13.6755
1.35675
-2.52021
-13.3574
-1.9697
0.707847
12.4038
0.821464
-2.31532
14.5188
-1.96308
1.45479
12.4492
1.67974
-2.26362
14.6294
1.42162
11.1171
-1.48547
-10.8236
-1.719
10.9672
1.59423
2.56586
-10.4
11.1669
1.62712
-10.9591
-1.27682
2.36426
1.34985
11.3098
-2.29657
1.24447
-1.43899
11.2671
3.25268
-1.42254
11.4368
1.30499
11.0353
3.26523
0.643424
11.4428
-11.5385
-2.1524
11.293
1.38125
-10.9772
2.71147
11.3745
1.21736
-11.3087
-0.79464
1.96011
1.59965
11.4845
-1.9656
0.819927
11.3509
2.69696
1.65341
11.3541
2.71038
-2.08311
13.5291
-2.29655
3.03314
-12.6628
-1.9837
11.6809
-11.3858
13.619
-2.40775
-13.0107
-2.31672
-2.04719
12.0444
3.30494
-1.97752
12.3057
2.62299
-2.21835
14.5664
-2.22137
14.3594
3.65718
1.48572
18.5353
2.47791
-17.9119
1.10936
16.6778
-16.1122
16.6961
2.0435
-16.03
1.37946
1.27774
1.1022
17.2063
-1.33945
2.19502
17.2541
2.52609
18.649
-3.00528
16.3501
4.07516
-15.6077
1.33089
18.393
-17.7356
16.6079
-15.8836
3.29354
-1.40458
17.124
1.4885
-3.75927
18.2037
4.96115
16.8502
4.41441
18.5081
-1.9081
11.0972
2.81596
-10.5464
-2.17908
11.2232
-10.682
2.72051
11.301
-10.998
2.44055
1.92798
11.3328
-1.86463
-2.50067
10.8332
3.34825
2.65563
11.0314
3.32415
11.1777
2.69358
10.8342
-1.10042
-0.776549
1.61758
1.16035
0.759034
1.09163
-1.41281
0.78816
-11.2617
-1.38508
1.3052
0.576477
-10.8888
0.830473
1.23507
0.83013
-1.44016
1.61746
-2.21405
0.758067
-12.3578
-2.66646
1.49844
-14.7222
0.816086
-2.74444
0.862634
-2.40156
-2.25303
1.66598
14.8035
1.86578
-2.39973
1.83417
-2.76173
10.4994
-1.07464
2.43204
1.12466
-2.48006
1.01823
-1.51039
3.26351
0.762611
-10.9574
-1.39368
-1.78576
-9.91148
0.690053
2.08652
0.78744
-1.47168
1.05217
3.13121
1.21999
0.552851
-10.3421
0.488856
1.60461
0.775757
2.4791
10.6604
1.74854
1.62504
-1.1989
-10.2479
1.04021
1.56368
1.16339
1.59482
2.46625
-2.59093
-2.46131
3.49051
-12.1484
-2.74517
-2.33293
14.6722
2.89209
-2.44539
-2.83798
-14.3668
-2.94951
3.73248
-2.83563
-2.53698
3.92862
1.7873
1.11423
-17.2886
1.01293
1.06257
17.3344
-1.62694
2.23124
1.76962
-18.6165
2.37455
2.18737
2.46284
17.1919
3.37459
-1.67053
1.68512
-3.7315
4.93123
-3.33281
-16.8844
4.42838
1.77435
-18.4605
4.50044
10.3065
2.4135
1.69426
-1.58579
-2.351
2.94414
2.2073
-1.67154
-9.60036
1.88946
-1.1028
-9.81236
1.41228
3.07408
2.37785
1.4092
-8.23213
15.7865
-15.4492
9.19797
-1.78912
-5.75435
1.10641
9.7071
-9.81413
6.31844
-2.49442
-5.88083
10.6681
-10.5113
6.79879
1.35411
5.98556
17.6469
-17.0562
1.52417
-1.92594
3.57984
11.5609
-10.4676
-14.9292
1.83555
-7.12363
6.89934
0.188443
-4.82861
-1.44309
-1.82027
0.374578
-17.6159
1.89756
5.82522
1.26869
-11.1815
-2.91627
3.20148
1.44242
3.49379
10.8747
-9.87883
-1.54251
-5.5874
8.80665
-9.48853
2.24692
5.80105
-2.04447
4.01718
10.607
-10.3939
2.67838
-1.56259
-0.407078
0.0316592
0.0615483
-9.59087
0.593094
2.32385
-0.501357
-0.0135572
-0.0808823
0.00731542
0.0108858
-10.5444
-0.943648
8.53058
1.41687
3.49589
4.15877
13.3894
-2.17531
-12.4286
-1.96037
11.3336
1.52939
4.6979
-10.3103
13.1945
-2.11089
5.26254
-12.174
-2.17937
4.30555
1.47714
11.7845
4.71427
-2.27528
13.9996
2.39173
-2.40361
5.77339
13.5222
1.54848
5.2212
11.3906
3.60795
10.6943
1.51208
-10.0065
1.34861
10.5475
4.68301
-9.84318
10.2534
1.3951
4.71233
-9.93991
1.19056
4.18036
10.9193
4.12474
1.23519
10.5962
-1.11485
1.14134
4.79267
9.96815
4.96589
10.3802
5.23052
15.9902
-15.3284
1.36077
17.0676
7.14865
-16.5953
15.5303
6.34237
-14.9319
1.49185
6.11378
17.7265
5.51277
16.4427
-1.53102
6.55907
15.926
7.20054
17.13
3.81096
10.7355
-10.2856
-1.88953
10.3075
4.90837
-10.1809
2.62126
10.3069
4.8206
-10.1138
-1.78763
4.10558
10.3212
2.56939
4.13597
1.66641
4.73597
9.79969
4.6167
9.37212
2.37036
-7.3849
14.6971
2.37889
-13.947
8.40259
1.32287
16.4087
-16.0505
15.0838
2.15916
-14.4175
7.58398
-1.64084
2.65249
15.2863
1.82181
-8.19311
15.7473
9.10416
2.98352
14.7375
8.57536
16.4582
1.24191
10.2164
-1.60776
-9.97431
-5.65007
9.25523
1.08891
-9.47947
6.05596
9.9295
1.25951
-9.81506
5.09411
-0.986638
0.978234
8.94596
0.831098
-5.37142
-1.77438
7.77148
5.21701
0.808995
6.91535
4.74739
-1.66567
9.51221
-6.36102
12.6235
-11.9562
7.57645
-2.12888
10.9899
-10.3861
12.9704
-11.921
6.77107
2.69579
13.0713
-3.05901
-5.89885
9.83207
6.12927
12.4498
7.48662
10.7994
1.71375
6.06199
-16.4249
5.40693
3.06349
5.5828
2.68458
15.8071
-1.78296
2.88621
6.61969
1.99909
-16.9686
6.67714
3.13002
6.10398
7.10932
-2.63593
4.2667
1.56549
-13.8726
4.40805
4.92011
13.1518
2.85558
5.77128
-2.85285
-10.2309
1.0455
2.98341
4.75938
1.58078
4.74168
-5.6586
9.09436
-9.44294
5.95468
-1.72383
9.73621
-9.84329
2.50278
9.88446
-9.87797
4.95495
1.43905
8.62597
-1.12447
-4.69324
4.64546
1.49996
3.78167
6.00854
4.40125
8.07539
2.01827
0.928399
3.83607
-9.02833
1.96549
0.540229
3.61411
7.17969
-0.830723
0.840641
3.76626
0.408226
-8.07772
1.62338
0.330039
1.17123
4.0876
0.684827
1.66298
7.57689
3.28576
1.93802
1.23868
0.754425
6.13174
1.18036
3.53022
-0.380324
-4.88128
0.472842
0.313936
0.84281
3.1401
1.5568
14.9525
7.48962
-1.89693
3.10988
2.02704
-8.0187
8.61856
-6.34491
-13.6552
2.74327
5.81848
2.13725
-16.1753
3.07727
3.2422
7.92685
12.132
6.27224
3.07045
-3.11834
-4.79248
1.21073
3.91107
-4.55918
-10.4745
3.18567
-2.44516
-8.43199
0.610796
6.29945
1.4975
3.5944
3.1078
-0.685825
0.638429
0.436003
-3.62162
1.72104
0.183521
-4.95578
-0.252824
-1.07131
0.0151555
0.0354438
0.112779
0.328495
1.0904
2.78618
2.66268
0.841236
-0.377744
-1.97323
0.394718
0.305602
-0.164403
-0.787086
0.0228104
-0.101998
-1.87923
0.0596039
0.702179
0.9882
-4.66751
0.0717624
17.0245
0.0110186
5.20116
-16.9094
-3.91221
-4.4963
15.163
5.37149
4.12199
-16.3508
-1.70171
0.522623
18.1498
-0.253392
3.2985
-17.372
1.11417
-3.88192
0.704553
14.7538
4.7599
-14.5642
0.0737808
1.60907
-1.41063
15.9132
2.6959
-15.2798
-16.8039
1.42916
-3.41891
4.49421
1.54453
-11.0187
-2.07897
-1.06499
1.73253
-17.4102
1.33841
1.24245
1.32766
-14.8313
0.351864
-2.16888
-1.52099
-4.95072
17.7294
2.97797
6.26334
-17.2506
-4.85724
-1.50833
17.5454
3.13326
5.49323
-17.3057
-1.76923
-1.65324
18.5047
3.37819
3.41416
-17.4406
-10.6159
-0.926495
1.49698
1.67248
-15.2363
1.50996
0.235459
-10.3518
-2.26753
-1.47009
2.72558
2.27238
-11.9731
-2.47903
0.426532
2.74409
0.617565
18.418
-0.301282
-17.2987
-1.6195
17.328
3.09016
-16.7578
17.5503
0.14753
-16.8404
-0.0888214
1.34126
0.121206
18.2373
-1.36757
0.212432
2.29544
-1.48794
16.4985
-1.26604
17.011
0.201798
2.34684
17.7759
-1.72626
18.8072
3.50281
-17.0139
-1.78183
18.4307
3.42699
-17.3415
18.6988
-16.8203
1.44979
1.33263
18.5914
1.33003
2.97081
18.6986
-1.43465
2.92979
2.48091
18.2139
2.45454
18.1131
0.353874
17.8768
-0.156751
-17.3346
-4.30564
15.6387
4.86467
-15.905
16.8136
-0.480234
-16.4522
2.79893
0.500176
-1.93388
15.1667
-1.00655
-2.8439
0.675335
13.4017
2.52204
-2.40634
13.2244
2.68675
0.365778
16.4047
-1.42566
15.9818
2.72789
-15.0807
-1.787
16.155
-15.2283
16.1566
-15.4346
-1.35975
0.37123
2.38284
15.8601
-0.572188
1.40017
16.8539
16.1144
2.57124
16.6901
-5.06754
17.9203
6.43817
-17.2767
-1.67957
18.1098
3.2454
-17.3861
18.3872
-17.369
-4.39951
0.975692
16.5457
5.05113
1.25014
18.0993
4.20349
2.23504
17.5276
1.56237
15.5148
4.8092
-1.58901
18.1288
3.26159
-17.4586
-4.85612
17.3969
5.39814
-17.1932
18.0458
-17.3728
-1.40549
3.08776
2.85265
17.1153
-2.99822
1.35492
13.8356
2.73413
16.9168
2.6872
14.2446
2.94362
-4.84227
17.1917
5.87702
-17.1224
-4.68955
17.026
5.18786
-16.9917
17.8664
-17.3385
2.69145
3.92421
16.2295
-3.55684
-1.6768
11.1916
3.60502
1.3731
13.1294
2.36864
13.4232
4.3514
1.25687
15.465
-15.0419
-3.97376
15.3993
5.14157
-14.5329
15.7309
-14.871
3.1627
0.00831529
15.4537
0.449497
-3.67654
16.1542
4.71576
14.9454
3.77414
16.4475
1.25685
0.689922
-0.818152
-15.4953
0.224388
2.11975
0.707713
2.51386
14.2367
-1.28116
1.04866
2.42962
1.49484
-13.8317
-1.3486
0.333339
0.366419
2.05818
-0.926377
0.984386
-1.24119
0.740158
13.8567
-0.889093
1.37541
1.26296
-2.65132
-2.02786
-13.6157
0.534456
0.675783
-14.323
-2.69274
1.12013
-2.7097
-2.61047
1.01897
13.1944
1.51938
1.62992
-2.54418
-1.84826
-0.874852
1.2929
1.13535
-1.62098
-12.6331
-2.56922
2.30716
-2.02398
-12.2305
1.4315
-2.65512
-2.68742
1.99781
1.08734
15.8348
-1.14162
-0.74518
1.94694
0.635976
1.35233
1.29579
-17.2949
2.39339
1.09331
-16.0401
1.92059
2.43334
12.4037
-1.37454
0.955193
2.36141
-0.831351
1.51126
0.977786
1.46754
-12.1622
-0.971567
-10.8277
1.79628
1.78017
1.91021
2.16213
1.07529
-3.2941
0.194811
3.33729
-14.2339
0.19339
0.508792
13.0243
3.14137
0.751281
-2.40157
-11.4851
0.879179
2.68588
0.465334
0.270222
3.15997
15.4984
2.68999
-0.925552
1.13159
-3.43851
4.41923
-2.74222
-15.0718
3.6669
1.38292
-17.0892
3.47839
11.7973
0.724588
2.89521
-2.54731
-0.668771
2.77252
1.46917
-1.13833
-10.73
1.92611
-2.30449
-10.8529
2.7107
1.14364
2.95247
-2.58526
5.10302
11.5613
-15.226
2.25556
-5.0171
-0.898962
5.03878
1.36627
8.76772
-9.28303
-1.28876
6.80806
15.9516
2.18269
-16.4851
-5.94745
5.21195
0.505183
9.22705
-10.947
-9.77877
-1.82943
3.40585
10.5056
2.68988
-10.7261
0.638948
3.31093
10.6043
-9.48929
-5.4217
-2.42891
5.59916
9.37831
3.23676
-9.63338
-5.50266
0.771383
5.82063
9.73958
7.01801
16.5555
-16.7503
0.757554
12.2866
-15.2191
11.4083
1.20975
5.59864
-14.8391
0.429035
4.6247
12.4648
4.31359
0.665565
11.7027
0.353544
4.24418
10.1297
0.725843
4.21032
9.93377
6.19922
14.2564
-16.1824
-1.28797
9.29133
4.57484
-11.2985
1.53795
10.2882
-13.7561
-0.782139
3.56034
9.88092
1.35654
3.88706
10.716
1.23131
4.09844
9.60276
4.01234
9.10248
1.83998
0.655224
8.05988
5.42538
-8.06522
5.20568
9.07288
-10.2027
8.04239
1.21376
5.59694
-7.97282
-4.62075
0.710455
8.59469
5.90609
0.594703
9.07176
4.81061
1.10548
9.01511
1.39538
8.69915
6.0254
0.280425
3.39577
-10.5466
3.3517
1.18356
10.5695
3.36281
0.66268
-9.91244
0.709175
4.15895
10.4041
0.57889
3.96403
9.84028
1.0777
4.02503
1.39239
4.23202
10.4951
1.81577
7.96459
5.74833
-7.67298
4.83985
8.21201
-8.33103
1.95549
7.88516
5.80499
-7.25904
2.54525
1.68611
4.87195
8.83647
-4.89983
-2.12414
8.95016
6.21475
2.90506
8.6417
2.43264
8.80258
6.16814
-1.25023
3.30703
1.92605
-10.2233
3.37824
10.5337
3.27093
9.67057
1.66738
4.07154
-2.15051
-9.49954
4.3714
10.4059
3.00428
4.3072
10.4823
4.1061
2.4547
-4.95203
0.759917
6.23751
-9.44795
0.770742
10.2979
0.694975
9.55784
5.04923
1.35955
-5.55407
-9.70473
1.59584
5.8367
9.76832
1.55657
10.3358
1.53459
6.28465
9.61751
2.09051
5.14364
-5.23063
-2.34063
6.13972
3.17734
-2.38208
-9.6885
9.97373
3.24621
-5.54161
-9.66076
5.7655
9.65107
10.2147
2.90125
6.25442
0.73037
6.92505
7.90604
-7.15444
-1.43756
2.16825
7.05501
8.12092
-7.21714
-6.16574
-1.25221
3.06537
-4.9921
1.50555
4.33439
-6.80053
0.367663
-5.45945
-0.0543561
-0.00407271
-0.0989645
0.00211772
-1.35952
-1.75125
0.174897
0.0261485
-8.82347
-2.15239
4.8528
2.70412
-8.20196
7.63132
-6.41767
0.611358
5.71852
7.03122
8.03696
-7.20528
0.724793
7.98912
7.24889
-7.19585
0.750132
6.84886
8.93257
8.01719
1.49428
7.29637
-7.30631
6.88622
1.52796
9.0108
-0.695679
1.47574
6.82618
8.23858
6.81436
7.01386
8.19719
-7.15145
2.93937
-2.27199
7.8985
7.12741
-7.41047
3.06563
7.96914
7.25846
-7.37663
-2.32117
6.54902
8.83074
3.13563
6.81129
8.98188
2.26133
6.7016
8.1632
6.43617
7.95518
3.01295
-5.15998
0.170165
7.05421
0.620316
-6.91664
0.510577
6.29678
-6.76264
4.20277
0.824868
-5.44466
7.0779
1.3386
-6.97027
5.00811
1.12642
6.21893
0.432301
1.18075
-5.60996
0.394764
2.76594
9.07224
0.738879
0.675945
-9.11754
5.5535
1.44112
6.4333
1.54948
7.5754
1.33007
5.63935
0.886651
2.46902
-2.05507
6.72793
-6.83847
2.6894
-6.56032
3.8071
-5.30554
6.97626
-6.94578
1.69774
4.55632
5.8936
-3.7118
-0.603049
0.558512
0.542765
5.19021
2.11987
0.901213
-2.37089
6.15378
3.16747
-9.03325
5.32499
6.3458
7.29112
1.99723
5.34624
-1.29588
-6.6639
1.25294
1.41636
1.86607
4.71651
2.51391
3.07268
0.296947
-0.29554
0.00152146
0.0666022
2.826
1.60859
0.695434
-0.261331
-0.15127
0.00445803
0.177842
0.0738555
2.06803
1.01434
1.27873
-0.836551
-0.0754323
0.0451262
-0.185038
-0.103615
-0.181279
-1.26306
0.102055
1.05254
1.69431
-3.26592
-1.97187
7.46122
4.34694
-7.36359
-4.04298
3.08323
11.646
4.47215
-15.2422
-0.500021
4.67469
13.9839
0.364377
-15.9291
1.2717
-8.12208
13.498
9.12695
-12.7328
1.89402
0.0357995
5.28751
13.9976
-13.7893
-14.8248
1.21009
-8.03164
9.13218
1.61062
-9.21295
-1.95352
-4.96649
6.34286
-16.4207
1.33853
5.65805
1.60981
-10.2372
-2.05929
2.61772
-3.57743
-2.39404
7.37807
2.81837
4.73365
-6.92022
1.67852
-3.13132
7.13591
4.1311
-7.13733
-1.47257
5.33496
15.1765
2.92677
-16.2527
-9.00768
-4.88937
1.34231
6.39376
-9.78549
1.54576
2.52863
-9.30984
-1.74542
-5.46019
2.48583
6.46002
-9.69442
-2.247
3.2895
2.73465
4.47609
13.1576
-14.8978
-1.14192
10.1849
0.854499
3.06127
-13.7697
11.061
-2.23195
3.85968
-12.6267
-1.48172
1.86587
1.10955
10.7663
2.71719
-2.49943
11.9405
1.92623
-2.62491
3.40396
10.9189
1.50568
2.41628
9.53246
5.07751
14.7439
-16.1345
1.5229
10.3132
3.12405
-14.3463
10.7691
2.66534
3.51356
-14.6464
1.53888
1.75943
10.6987
1.98768
2.43777
11.0432
-1.59047
2.05627
2.41119
9.24184
2.21128
9.0324
4.65895
14.0177
-16.0014
-3.39578
9.25226
2.80614
3.35458
-11.535
10.2473
3.16683
-13.9462
-2.97309
1.84168
9.85733
3.01733
1.90146
10.6315
2.4478
2.54032
9.36345
2.82959
8.96325
2.7914
6.19547
15.0442
-14.1388
0.641792
14.633
7.15233
-13.7489
13.1965
5.74394
-12.7938
0.883413
5.68561
15.8099
4.44271
14.2495
-1.20775
5.38887
13.6644
6.67592
15.3625
-1.74798
8.51356
1.44919
-9.27983
-4.33199
8.97994
-2.45296
5.49622
-8.50302
9.77034
-2.56183
-9.92634
4.56842
2.05971
-2.49079
10.2466
-1.96048
-3.51344
1.69853
8.15797
4.71349
-2.27521
9.86711
5.81988
1.68186
8.56385
-3.3719
7.33277
1.87268
4.29834
-7.40488
1.61614
8.18264
-9.54218
8.4325
2.24846
-10.0557
-1.63896
3.47436
1.79724
8.29166
-3.32679
1.65582
7.72815
4.51709
8.11255
1.75995
7.79173
4.6205
-2.06542
1.87835
1.54777
-11.863
3.33925
-2.42988
2.75125
-2.62983
11.3838
2.0869
-2.49382
3.82647
-1.97435
-9.54777
1.61095
3.80238
-2.24681
4.57436
1.66679
2.90078
1.54888
1.76852
-9.94205
2.66717
1.72989
1.87552
1.92852
9.09738
-1.61363
1.79358
2.92242
1.54315
-8.95769
3.62601
1.63501
3.71219
2.77782
-6.59782
11.8661
7.71008
-11.0705
1.09068
14.1189
-13.3069
12.459
-11.8732
6.54026
-1.31516
13.1295
1.21302
-7.7404
14.1564
8.8845
12.5613
7.67224
14.777
1.34474
5.45632
-14.6968
4.76179
4.43602
14.2647
-1.35076
5.55838
1.33098
-15.9332
6.85901
5.94533
6.58459
-2.61835
8.08172
2.87904
-8.36938
-3.41828
7.49106
4.49624
-7.45651
8.48336
-9.50755
3.66252
2.3203
8.43968
-2.23054
-3.98176
8.16121
2.64766
5.18516
8.02152
4.85385
8.34266
2.77357
-2.33473
2.38824
2.72994
-10.0215
2.86857
2.03563
9.31182
2.29469
3.10321
-2.16266
-9.24749
4.29939
2.6878
3.95595
3.4899
2.74391
11.0276
5.10515
2.00309
-2.28935
-1.86674
-4.15506
1.61239
5.37175
-5.75154
-10.7494
-1.98163
6.87868
-1.90133
-9.1894
1.57916
-2.04478
-1.99647
6.2937
1.67041
8.69699
-1.60864
4.05485
1.69577
-3.95542
1.5242
5.25558
1.46224
-8.65881
-4.98227
-9.07318
1.35532
6.37255
1.51834
1.56521
5.34708
13.7727
6.73275
-1.29489
1.18886
-7.78159
8.95378
-7.0838
-13.2397
8.13995
1.25483
-15.3779
7.8563
8.96092
4.28712
2.1891
-1.99678
-4.64617
2.5301
5.92269
-5.20435
-9.19151
6.44267
-1.98531
-9.1129
2.58278
5.58524
2.65685
0.00224715
-0.00826953
-0.0798293
-0.00654263
0.00130106
0.00124451
-6.23182e-08
-3.53237e-07
-1.54988e-06
6.27962e-08
-0.066666
-0.0254635
0.0114733
0.00502385
-0.301563
6.43522
-3.01437
-0.636721
3.00158
-10.2464
0.346002
-1.4746
-0.0830521
-3.26399
-0.000377309
-3.73257e-05
-1.12474e-06
-0.00820438
-0.23939
0.000927407
0.00214849
0.000123961
1.44136
-0.664681
3.04299
9.27914
-2.51167
-11.1174
0.172024
-0.0603691
-1.54253
0.366032
-3.4562
-0.00713872
-0.21331
-0.000593377
0.00183495
0.0019098
2.52109e-06
-8.04368e-07
-0.000406719
-4.06006e-05
1.46857e-07
-8.26203e-06
-1.17769e-06
-4.50073e-07
-0.000149056
-0.00697814
-0.000273942
3.631e-05
5.6584e-05
-2.83085
1.54686
2.56545
-1.57933
2.30913
-8.71487
2.14612
2.9079
8.7683
-2.42557
-10.8976
-1.05529
0.160503
0.247398
-2.57952
-0.00194603
-0.0737033
-0.00175118
0.000498015
0.000852995
-0.000247075
-2.49447e-05
2.11509e-06
-1.50473
-0.205326
0.537403
0.869232
9.19435
-0.791348
-2.49596
-11.0991
-0.405467
-1.5364
2.42902
3.06348
9.36339
-0.0561631
-2.51742
-11.1049
6.86242
-0.046317
3.11571
-10.3294
1.62112
-0.0320738
-1.60398
2.7469
-0.00938855
0.691507
1.01292
3.06996
9.3849
-2.51773
-11.0969
-0.534432
6.59818
1.17658
3.05191
-10.2932
6.91989
3.13033
-10.3325
-0.328971
1.55812
0.765396
-1.57385
2.56277
1.63631
-1.61132
2.78945
0.154225
0.70871
1.03041
0.4164
0.585314
0.919201
-1.42374e-07
-2.71678e-07
-6.59745e-07
-4.79884e-06
-5.25045e-07
-9.91567e-08
-5.44022e-07
-1.28963e-07
-2.56678e-07
-9.01734e-08
-1.0737e-07
-1.09301e-07
-0.000237054
-0.000788296
7.76462e-05
3.8052e-05
-0.00331495
-1.07133e-05
-5.69194e-07
-1.66178e-06
6.7219e-07
2.3452e-07
-4.86074e-06
1.17366e-06
-9.12545e-06
-3.14368e-05
-0.000148292
-0.000116866
5.1498e-05
2.44141e-05
2.26457e-05
4.28413e-06
-0.000185306
-2.10928e-05
-1.98938e-05
2.4466e-06
-5.19854e-07
4.22987e-07
-4.8923e-07
-4.09622e-05
-0.000283752
-0.00185215
9.4976e-06
4.71986e-05
-1.02906e-05
-7.57713e-06
2.38404e-06
-6.21439e-05
-1.42629e-06
-5.5889e-07
-1.40059e-05
-1.33977e-06
-1.023e-06
-9.32949e-08
-1.37935e-07
-1.91945e-07
-7.37595e-08
-1.31529e-07
-5.39852e-07
-1.13247e-07
-0.000814974
-0.0013178
0.000256463
0.000102289
-0.00954031
-1.58042e-06
-2.04684e-07
8.48938e-08
-2.8575e-06
-0.000166866
-1.72778e-05
1.29166e-06
1.7685e-06
-0.00750603
-0.199971
-0.0236361
0.00168642
0.00295946
0.00656636
2.64935
7.5972
2.65212
-2.24974
-10.479
1.73494
5.72729
2.79799
-9.93925
4.02862
2.02713
2.28524
-9.39276
1.0919
1.31822
-1.42705
1.99606
0.89281
1.05385
-1.15829
1.21887
0.511104
0.38034
0.683984
0.320076
0.190986
0.409359
2.23078
5.4236
-1.97019
-9.79064
-1.81253
0.844974
0.895298
0.500985
-6.23424
2.1224
1.47103
-8.40759
-0.583546
0.0905982
-0.323595
0.141633
0.21453
0.397535
-0.7692
0.612205
0.10947
0.0636293
0.160735
0.022235
0.0146569
0.045921
-0.0734816
-0.00226384
0.013729
2.09849
-0.362504
-8.30268
-0.0373559
0.167436
-1.68869
0.415911
0.0142966
-3.93629
2.40917
-0.0245366
-8.53332
0.0934901
0.00765646
0.207307
0.000394943
0.017502
-1.7118
0.422579
-3.98702
-0.296135
2.19595
0.718952
-8.39631
2.44189
-8.55359
0.026501
0.0958174
0.211709
-0.0796744
-0.00160087
0.00472299
0.0147718
0.0749077
0.179566
0.0179081
0.381757
-2.40665
-4.75259
0.867796
-5.97057
0.00832992
-0.0149164
-0.289332
0.0225869
-0.456149
-3.01791e-05
-8.16161e-05
6.47838e-06
-0.00017645
0.200703
-1.23557
-1.26308
0.273803
-2.6535
3.44052e-07
-7.20567e-06
-2.31405e-06
-3.01338e-06
9.94838e-07
5.0881e-07
0.000164345
-0.0562753
0.00122744
-0.00230336
-0.000314032
-0.0112971
0.00016798
0.000161621
-0.000376062
-0.00050076
-0.0325448
0.000602171
0.000440421
-0.00115329
1.8293
-1.40087
3.10174
4.70434
-7.83767
-2.74175
0.459131
3.24075
5.49539
-7.98263
-2.81722
0.702543
-2.60809
-0.660213
0.604724
-4.75342
8.48441e-06
-4.87677e-05
-0.000823687
-1.20784e-05
-3.24065
0.187258
1.09986
-5.8775
-0.000121711
2.79565e-06
-0.00197101
5.39475
-5.40327
2.75189
8.03063
-9.31006
4.12041
3.53875
10.4804
-3.23215
-10.349
-4.52764
2.97836
5.96406
-2.72504
-8.93594
-6.30572
-2.29568
0.895494
0.853566
0.611802
-5.39126
0.576966
0.393501
-1.05171
-0.00201904
-0.00730861
-0.050959
0.000590659
2.69521e-06
-0.000280445
-2.99011e-05
-2.00031e-05
-0.0129214
-0.000722895
0.000303307
-0.000754851
0.000149159
-2.42951
2.27537
2.21563
1.77742
-2.29169
-6.5915
2.20161
2.97916
4.06754
-7.60882
-2.66801
0.000310946
-0.013466
-0.00136166
-0.000851883
0.000152354
-1.98854
0.514754
0.384812
-3.62791
-2.54869e-05
6.91616e-06
-1.58767e-05
2.90159e-06
-2.45918e-05
-0.000390576
4.31176e-06
3.23523
5.40406
0.929871
-8.01017
-2.81681
0.402466
4.38959
3.48037
-7.66529
4.27961
0.844016
3.46304
-7.68793
0.161596
1.21482
0.88619
-1.25645
1.172
0.332626
0.837677
-1.2207
-0.0997239
0.223943
0.817811
0.497908
0.868957
0.523445
2.19572
-10.9982
11.4793
-12.9938
1.64901
10.0732
15.1078
-14.8892
1.96158
-3.00344
7.13425
10.0916
-10.2932
-13.1181
1.14887
5.33073
-7.65175
-2.53931
1.36753
1.53661
0.54858
-0.59625
-0.217716
0.00436686
7.71819e-06
-0.00117969
-0.000252355
-0.000127441
0.0517142
-1.20702
0.131218
-1.70936
0.931306
6.35734
8.64152
-9.51187
1.78206
-1.26502
5.21137
6.77709
-8.90925
-2.39229
-0.122758
0.203313
0.14721
0.0595605
0.0300423
-1.16213
-0.0517888
0.0730857
0.0461666
-0.000115856
-3.10483e-05
7.0185e-07
1.47251e-07
-1.93963e-05
-5.74548e-06
-1.94604e-07
3.18835
5.14101
-7.96571
-2.79108
-1.28156
3.43051
1.65331
3.20702
-7.39999
3.98307
3.37859
-7.60091
-0.487112
0.912357
0.564936
0.600212
-1.0297
1.07028
0.73508
-1.14735
0.323646
0.695145
0.437897
0.341603
0.513119
0.350005
3.45764
10.0497
4.9158
-10.0872
4.13028
10.068
4.30179
-3.32286
-10.1649
3.95834
3.22055
9.72557
-3.29762
9.41737
4.72845
3.99661
-9.73469
2.8759
4.30862
8.67934
3.55802
3.48633
8.42577
-3.10706
3.60345
2.90297
6.30998
2.7285
2.94627
-7.2266
-2.54847
1.91298
2.44067
2.91561
-7.06744
0.552642
0.692931
0.45562
-0.869021
1.6388
1.91106
2.36152
-6.48612
0.407194
0.38572
0.299236
-0.65487
0.258535
0.301467
0.23486
0.127745
0.133575
0.120971
-0.0971701
0.001908
0.00665823
-0.177978
-0.196794
0.0203407
0.0333064
-0.610069
2.02156
4.12294
4.7106
-8.48283
-0.530695
-0.133963
0.0244498
0.00708591
0.0134089
-2.53289e-05
-4.29819e-06
3.91118e-07
-5.46157e-06
-1.63047e-06
9.79339e-08
-3.56633e-07
-1.61943e-07
-7.53722e-08
0.315947
2.51923
-7.08636
-3.18142
1.02093
0.446822
-5.78046
2.40943
0.688395
-7.08421
0.289826
-0.0382014
0.10109
0.228651
0.00796952
-0.320322
0.0677802
0.0237327
0.0616811
0.24694
3.20182
9.32217
-9.61483
-4.94938
5.8765
4.39754
2.77819
-8.76101
8.32012
3.5353
-9.45297
-4.09495
1.45112
2.49485
2.38218
2.3455
2.69894
1.84427
2.80728
0.698476
0.463359
0.775906
9.52288
14.1487
2.81001
-13.7563
1.95942
14.4229
10.8031
-14.4339
13.61
3.24929
10.2042
-13.5981
2.00037
9.79299
14.9215
9.16405
3.27439
13.9059
-2.11588
3.33715
9.13528
12.3769
9.95262
13.6336
-1.05074
1.70617
1.30037
-6.58099
-2.98979
0.84204
-5.45238
2.13881
-6.93481
0.223486
0.131137
0.186072
-0.0293341
-0.141962
0.0228618
0.031347
0.0481677
0.110736
0.128854
3.85409
9.01622
-3.24899
-9.79573
-3.98519
3.17884
2.6303
-8.08553
7.86048
4.13803
-9.3724
-2.69316
0.920009
-1.39067
0.872106
2.63798
-2.53894
4.62868
1.44344
2.0175
2.06097
0.252948
0.332487
8.47527
12.2183
-12.1046
-3.42514
8.77996
1.9739
6.91137
-9.96089
11.4857
8.70546
-11.7566
-3.34283
5.64402
1.66607
7.65267
11.3464
3.19857
7.06043
9.27175
1.05817
3.21682
2.8665
2.82014
2.18727
-2.65043
-2.54837
0.0916923
0.140276
1.52119
-2.16
0.112652
-0.330361
0.0651592
1.83305
-2.05044
1.48903
0.858133
0.914979
0.522178
0.0229329
0.0149918
1.31977
0.794767
1.39388
-5.2928
-1.76518
-1.38274
0.337195
0.442973
0.453183
-3.35388
0.827663
1.44671
-5.36846
-0.153556
0.0403177
0.0371602
0.0441732
-0.111679
0.153768
0.137459
-0.356666
0.0426831
0.0413522
0.0465191
0.00826693
5.91153
8.04418
0.874728
-9.15448
0.775224
5.60147
5.00747
-8.831
4.22852
0.650461
3.99166
-8.29822
0.64339
3.46871
3.34356
2.58676
0.522157
-0.277506
0.152992
0.375653
0.450683
0.647291
0.711912
5.64638
7.59409
-9.05981
-0.84828
2.14234
1.06116
2.36375
-7.54853
3.14924
3.31512
-7.97877
-0.658753
1.09385
0.721305
1.99138
1.82881
0.143411
0.261846
0.325468
0.0880988
0.139163
0.181533
-0.0521158
0.00111127
0.000395891
-0.00206963
0.00743297
0.0545843
-0.0904389
0.0501185
0.0167344
-0.0823634
-0.00279918
0.0244664
0.0073107
0.0212331
-0.0264537
5.34448e-05
0.000471628
0.0232969
0.000152364
0.000426742
1.33958
1.16388
-5.96333
-1.10463
0.183464
0.210739
-2.08292
0.640651
1.02202
-4.8713
-0.0681551
0.011606
0.0161373
0.0669753
0.0732254
0.025074
0.0286218
0.0334957
0.00395802
0.00592207
-0.0435388
0.000879684
-0.00164522
-0.0217831
0.0292808
0.0206896
-0.0499209
0.0409227
-0.0676211
0.020023
0.00959131
0.0167207
-0.00019586
-0.014052
0.000166262
0.000216742
0.000330462
0.00842117
0.0110617
-10.2469
10.1066
3.1518
-12.1561
2.12827
13.4723
-13.7558
12.4846
3.42213
-13.0404
7.80425
-2.15117
2.96739
9.35448
1.07497
-9.07241
5.58105
1.66202
2.87688
11.1354
2.15976
8.6349
-11.5676
3.68906
1.8153
7.70554
3.1477
7.14337
-1.60394
2.56836
6.01247
0.564379
-9.69642
1.75305
0.438349
0.712968
7.49303
1.94176
1.7758
1.27503
-7.32117
0.749945
1.01585
0.962684
-6.23097
0.335457
0.440123
0.306457
0.142914
0.248168
-2.94662
0.0917558
0.0530312
0.132824
0.021362
0.0424558
0.0624633
0.00339839
0.00693277
0.011666
-0.0515628
0.00269113
0.00612238
-0.481313
-5.69209e-07
-2.74822e-06
1.03821e-07
-2.14516e-05
1.23311
0.390971
-8.98519
-2.10861
1.64149
-1.31763
18.4776
-18.5689
-0.00414162
0.000410856
-0.0850321
-0.002229
0.000911134
-1.7473
-0.873077
10.2333
-11.4968
2.06821
-1.1919
14.586
-2.35807
-14.5352
-15.5375
1.10271
-0.772745
0.0516197
-2.35485
-0.423368
-0.0432482
2.47802
-1.23344
1.68552
18.1872
-18.2855
1.27533
1.65109
-0.750424
-2.15823
12.1839
-12.3492
1.34656
-0.633315
-15.467
1.11415
0.0602405
0.0738654
-0.0233925
-2.58299
-0.471751
0.97076
-0.989944
11.1223
-1.19943
-11.6904
-1.06008
0.0118141
-0.012171
-0.470785
-0.010239
-0.00305913
0.00641653
1.60763
-0.749612
1.00596
11.1747
-11.6204
1.56339
-0.732108
-1.75336
10.3152
-11.4894
0.0231891
-0.007287
-1.15827
0.0137295
0.0062266
-0.00195346
-0.503263
-0.0113689
-0.253812
-0.202471
0.0277825
-1.69326
0.0548128
6.89146
1.77536
-5.88744
16.5838
-16.7624
1.32878
4.58455
-2.67214
-4.1644
9.89746
-11.285
1.70619
3.68281
18.0098
-18.0993
1.296
-2.21901
2.56258
11.9665
-12.1936
-14.9854
1.01888
2.01889
0.0421914
-2.05224
-0.359297
0.0758007
4.00696
0.724526
-3.77491
7.91019
-10.3324
-0.000258009
0.000260006
-0.00191807
-0.0423249
0.000424398
3.16599
-1.16424
-3.30757
4.93292
-9.44148
0.976132
2.46295
10.8564
-11.492
-1.69532
2.34639
9.88807
-11.319
-0.886418
0.00932643
0.0231736
-0.367431
-0.00708276
0.00574274
0.00439959
-0.939852
10.8237
1.07154
-11.6384
1.00003
11.2124
-1.23158
-0.104737
-11.6595
10.9065
-0.0801316
1.09583
-11.6116
-0.674981
0.683573
-0.0582394
0.763714
6.90205
-0.751567
0.643032
-1.05909
7.29684
-1.08342
-0.0752267
7.72901
0.731287
6.47237
-1.06175
12.1743
-12.3903
-2.07649
12.2128
-0.139595
-12.3838
14.5444
-0.169621
-2.35383
-14.4295
2.4082
1.13795
-0.151614
-2.66285
13.4715
-0.905307
-2.4078
9.78784
-0.10878
10.0716