/*--------------------------------*- C++ -*----------------------------------*\
  =========                 |
  \\      /  F ield         | OpenFOAM: The Open Source CFD Toolbox
   \\    /   O peration     | Website:  https://openfoam.org
    \\  /    A nd           | Version:  9
     \\/     M anipulation  |
\*---------------------------------------------------------------------------*/
FoamFile
{
    format      ascii;
    class       volScalarField;
    location    "0.00075";
    object      rhoE;
}
// * * * * * * * * * * * * * * * * * * * * * * * * * * * * * * * * * * * * * //

dimensions      [1 -1 -2 0 0 0 0];

internalField   nonuniform List<scalar> 
6875
(
2.45332e+06
68636.5
2.89395e+06
164092
3.44983e+06
155795
3.24828e+06
134219
639410
595088
2.58332e+06
2.70188e+06
605163
621834
2.80101e+06
151750
130034
75002.3
90990.6
129758
142765
96262.2
106226
164070
90742.8
120182
144225
106814
181569
200205
177146
110271
139831
169061
207523
117365
77144.1
68755.1
69486.2
74063.9
75216.6
70774.2
74716.2
96387.5
83347.1
136003
151593
159044
87226.8
92165.6
84518.6
72961.3
80133.8
81166.9
78035.1
78770.9
87711.8
84880.3
80716.8
95290.9
89449.3
81561.8
93533.6
82781.8
666922
668390
2.72179e+06
3.05747e+06
623572
2.91247e+06
712111
188033
137473
234914
146636
217610
125589
204240
763414
699839
2.96709e+06
3.26901e+06
685382
773606
3.02571e+06
727535
3.24077e+06
843245
3.34259e+06
800843
3.11615e+06
769906
6.3655e+06
3.13059e+06
2.53565e+06
3.01555e+06
2.62945e+06
2.9559e+06
3.75675e+06
1.69146e+06
3.99139e+06
3.81577e+06
6.55636e+06
3.22702e+06
8.15642e+06
4.73404e+06
7.50466e+06
5.38914e+06
2.32781e+06
2.68445e+06
2.45768e+06
3.6545e+06
3.91009e+06
4.01882e+06
3.56261e+06
3.39066e+06
4.23793e+06
4.35934e+06
4.7147e+06
5.55926e+06
4.83264e+06
5.65041e+06
2.89895e+06
2.86601e+06
2.64521e+06
3.79226e+06
4.36966e+06
4.17365e+06
3.95218e+06
2.39779e+06
2.7077e+06
2.49711e+06
3.52558e+06
3.57777e+06
3.45771e+06
3.63304e+06
4.7114e+06
3.60285e+06
4.54117e+06
5.21709e+06
4.99341e+06
5.77473e+06
5.95215e+06
6.52607e+06
5.19986e+06
5.24538e+06
7.09089e+06
6.22919e+06
6.26624e+06
7.06921e+06
5.43403e+06
6.4602e+06
5.32961e+06
6.33006e+06
6.9213e+06
6.40011e+06
7.00644e+06
2.84666e+06
2.83769e+06
2.65552e+06
3.63832e+06
3.81994e+06
3.77281e+06
3.71857e+06
4.23044e+06
4.77105e+06
3.68024e+06
3.1798e+06
3.08996e+06
4.78561e+06
4.23409e+06
5.88986e+06
5.33918e+06
7.36697e+06
6.90195e+06
5.93228e+06
6.97373e+06
7.3642e+06
4.17519e+06
4.66149e+06
3.42187e+06
2.38065e+06
2.82699e+06
4.75602e+06
4.03495e+06
2.87439e+06
2.51746e+06
3.90487e+06
3.97568e+06
2.41287e+06
2.7826e+06
3.87187e+06
5.96237e+06
5.1309e+06
5.95062e+06
7.05007e+06
7.10783e+06
7.27906e+06
7.16405e+06
8.09732e+06
8.12021e+06
7.23341e+06
7.27253e+06
8.10304e+06
8.13627e+06
7.49652e+06
7.33436e+06
7.46179e+06
8.16225e+06
8.10739e+06
8.14351e+06
7.43547e+06
7.46697e+06
3.91864e+06
3.58077e+06
2.06747e+06
2.14012e+06
2.5124e+06
3.77468e+06
3.77649e+06
6.43889e+06
5.0414e+06
6.18244e+06
6.27902e+06
4.08719e+06
7.06389e+06
646252
8.2456e+06
4.06294e+06
3.44672e+06
3.97558e+06
3.24864e+06
305064
2.25184e+06
262735
3.46296e+06
4.88342e+06
4.54971e+06
5.17225e+06
5.52042e+06
6.2326e+06
6.66246e+06
5.88096e+06
3.16862e+06
3.91393e+06
3.57261e+06
4.58559e+06
4.10249e+06
4.17854e+06
4.7566e+06
5.54893e+06
6.22622e+06
5.68615e+06
6.85048e+06
6.51189e+06
6.73338e+06
6.85132e+06
3.09704e+06
3.55794e+06
3.43034e+06
3.90811e+06
3.8965e+06
3.94244e+06
3.86591e+06
6.37774e+06
6.25202e+06
5.9089e+06
7.1397e+06
7.43001e+06
7.73054e+06
7.01547e+06
4.53083e+06
4.33576e+06
4.05023e+06
3.98466e+06
4.13472e+06
3.3182e+06
4.7161e+06
6.63228e+06
5.31106e+06
5.72966e+06
7.19316e+06
5.98073e+06
7.60155e+06
6.13792e+06
7.5239e+06
8.14364e+06
7.60323e+06
7.84648e+06
8.28073e+06
7.92305e+06
7.70094e+06
5.87826e+06
6.75192e+06
7.30085e+06
7.39127e+06
3.02243e+06
6.05714e+06
5.58954e+06
4.05028e+06
3.89439e+06
3.82845e+06
3.69858e+06
2.58592e+06
2.97272e+06
3.49426e+06
4.40665e+06
1.74888e+06
3.73625e+06
3.19164e+06
1.36866e+06
1.01007e+06
3.88475e+06
1.45402e+06
3.19848e+06
1.106e+06
2.87701e+06
594157
808730
2.51026e+06
8.11232e+06
8.28382e+06
5.85125e+06
7.99868e+06
7.273e+06
8.14133e+06
8.00128e+06
7.24848e+06
3.47336e+06
2.97073e+06
1.69309e+06
4.84909e+06
6.54668e+06
4.88097e+06
2.27339e+06
1.48583e+06
613601
282013
470997
1.06663e+06
2.91876e+06
1.93752e+06
605018
272048
321395
394096
847495
1.51706e+06
408607
404937
315208
1.86099e+06
1.56912e+06
5.8975e+06
2.68945e+06
6.15701e+06
1.80826e+06
297634
319529
262816
2.08136e+06
1.36322e+06
2.17324e+06
1.68212e+06
304863
508783
490226
445782
818737
758703
470144
251551
257631
243201
351800
351430
366308
369396
339254
676779
558709
985919
756886
1.30923e+06
547912
5.01105e+06
5.00575e+06
1.53358e+06
2.12837e+06
5.53614e+06
2.06769e+06
5.50818e+06
287093
273520
267717
442933
369775
389079
480380
277799
318873
274873
412555
561778
419104
544130
333930
342618
290939
448539
780436
607474
590342
1.66911e+06
5.13174e+06
5.06067e+06
2.27643e+06
5.46148e+06
2.54694e+06
5.48919e+06
633290
1.28093e+06
609739
677139
1.472e+06
1.3795e+06
707680
854292
1.61886e+06
1.9339e+06
2.65888e+06
2.83485e+06
1.50253e+06
948913
1.85348e+06
1.5036e+06
3.61045e+06
2.24092e+06
3.18012e+06
2.27212e+06
1.17181e+06
2.98036e+06
5.88664e+06
6.0995e+06
4.0059e+06
4.10592e+06
2.88285e+06
5.83318e+06
833393
1.14258e+06
1.71441e+06
1.88194e+06
1.58192e+06
875905
1.07444e+06
904523
1.38947e+06
681809
759008
1.80007e+06
1.4961e+06
988599
3.20041e+06
5.66089e+06
4.50406e+06
6.00701e+06
4.28819e+06
3.51591e+06
5.76297e+06
926211
1.39207e+06
1.95413e+06
1.97998e+06
1.68994e+06
1.14789e+06
1.14047e+06
582891
1.28783e+06
377388
1.03897e+06
2.47141e+06
2.12405e+06
4.53487e+06
4.33464e+06
353452
579376
636686
658106
728799
1.08482e+06
1.16224e+06
440569
943508
758891
1.07547e+06
869390
1.33806e+06
1.59402e+06
1.78906e+06
1.11535e+06
1.87535e+06
2.42535e+06
1.72636e+06
1.82195e+06
2.50436e+06
1.27217e+06
2.21783e+06
1.3664e+06
2.5837e+06
1.83338e+06
1.93387e+06
2.65267e+06
2.00629e+06
1.54481e+06
2.15823e+06
1.9755e+06
2.79848e+06
2.12825e+06
2.62777e+06
1.80344e+06
2.33842e+06
1.56066e+06
2.07967e+06
2.92493e+06
2.76194e+06
2.21902e+06
3.31013e+06
3.30455e+06
2.42282e+06
2.49664e+06
4.38799e+06
3.4005e+06
3.40709e+06
2.60634e+06
3.83896e+06
3.80637e+06
4.45941e+06
3.56382e+06
2.75598e+06
3.58021e+06
2.6059e+06
2.82895e+06
1.96706e+06
2.59741e+06
255227
375780
4.01851e+06
4.22546e+06
2.69423e+06
3.82951e+06
3.531e+06
3.89868e+06
3.62351e+06
4.45865e+06
4.43452e+06
3.0126e+06
4.15714e+06
4.00564e+06
3.9993e+06
3.77803e+06
4.47561e+06
4.475e+06
1.20623e+06
4.2032e+06
3.64428e+06
2.52469e+06
4.20652e+06
3.59097e+06
1.13078e+06
2.69206e+06
4.41931e+06
4.42127e+06
4.39212e+06
4.4646e+06
4.19001e+06
2.57226e+06
4.05845e+06
2.32295e+06
4.16685e+06
3.41365e+06
708046
3.06618e+06
953617
4.57849e+06
4.2772e+06
4.52065e+06
4.05593e+06
1.75274e+06
2.26421e+06
3.76866e+06
2.0641e+06
260760
562643
1.95721e+06
259565
518939
357767
1.68759e+06
288762
257328
337156
429116
1.26839e+06
323062
2.07424e+06
571047
554926
5.01347e+06
2.15609e+06
5.73014e+06
4.6673e+06
5.79421e+06
3.06149e+06
1.60794e+06
1.65964e+06
409439
4.12628e+06
2.44067e+06
3.7199e+06
2.35649e+06
963999
894638
1.42845e+06
1.12029e+06
1.74706e+06
2.37346e+06
1.64562e+06
416972
665792
633163
847507
801804
1.1541e+06
1.25986e+06
450219
841844
691580
1.04357e+06
867068
1.21214e+06
1.41109e+06
5.1933e+06
5.17888e+06
2.61044e+06
5.38965e+06
2.96399e+06
3.41189e+06
5.26704e+06
1.41189e+06
2.70728e+06
2.07467e+06
2.95917e+06
2.6684e+06
3.32526e+06
2.26339e+06
1.48303e+06
1.07872e+06
991578
1.60633e+06
2.21736e+06
1.79529e+06
2.0017e+06
2.04052e+06
3.93178e+06
2.87067e+06
3.36236e+06
3.33668e+06
4.14789e+06
2.57932e+06
1.55725e+06
2.19881e+06
1.41456e+06
1.82049e+06
2.74736e+06
2.4979e+06
2.03356e+06
3.55161e+06
5.10195e+06
3.11793e+06
3.7888e+06
5.10068e+06
4.07634e+06
5.15783e+06
5.5252e+06
4.70035e+06
3.86665e+06
4.16342e+06
5.71323e+06
4.87644e+06
5.41224e+06
1.22751e+06
1.49038e+06
1.04836e+06
1.61472e+06
2.02957e+06
1.94359e+06
1.73926e+06
1.71223e+06
2.20414e+06
1.48761e+06
1.8348e+06
2.60188e+06
2.45567e+06
1.96528e+06
3.65373e+06
3.36504e+06
5.01223e+06
3.77848e+06
4.43337e+06
3.97156e+06
2.91425e+06
2.16686e+06
2.878e+06
3.23504e+06
3.76742e+06
2.96834e+06
2.39366e+06
2.63277e+06
4.3999e+06
5.3186e+06
5.30084e+06
5.67799e+06
5.05057e+06
4.60926e+06
5.33918e+06
2.10956e+06
2.68692e+06
3.5817e+06
3.04948e+06
2.87695e+06
2.53809e+06
2.21566e+06
254440
253245
258467
3.13127e+06
482370
253249
256499
3.75646e+06
498549
256080
253250
253245
253318
1.90058e+06
3.60413e+06
405770
254107
253248
892543
3.73058e+06
1.75879e+06
3.78797e+06
3.25041e+06
1.89817e+06
996768
3.79383e+06
3.17825e+06
3.26392e+06
1.8162e+06
1.91567e+06
1.00987e+06
929270
253245
253290
253245
253245
253272
253247
253245
253266
253246
253245
253359
253245
253247
256041
3.30094e+06
2.9176e+06
2.44025e+06
1.54684e+06
1.12525e+06
746024
515494
2.74682e+06
924084
1.72468e+06
373675
680750
339680
273803
259261
1.73615e+06
343159
539122
1.89673e+06
368849
260969
545546
1.78861e+06
1.9143e+06
371958
259733
350798
261164
1.21159e+06
264793
253248
450554
253245
254125
253389
253709
2.71452e+06
2.94642e+06
863003
253255
1.28354e+06
253270
3.84648e+06
3.58912e+06
3.35627e+06
912969
670852
253884
253248
253403
1.68283e+06
2.49376e+06
253413
613729
253249
253250
2.92256e+06
2.64405e+06
2.61004e+06
993609
958380
672997
698496
8.23551e+06
6.90991e+06
6.57622e+06
4.98627e+06
1.57117e+06
264489
253257
339572
4.90905e+06
3.36765e+06
370953
289033
253246
253245
2.85043e+06
2.3176e+06
2.50579e+06
764375
879544
614114
526109
3.88568e+06
4.11565e+06
3.97669e+06
4.23256e+06
3.73226e+06
3.78054e+06
3.19055e+06
2.16382e+06
2.02964e+06
627170
1.61434e+06
478254
424499
332557
256572
270446
2.81776e+06
264294
253245
253245
253245
2.10403e+06
1.22678e+06
2.05533e+06
419861
294073
289868
435537
4.08281e+06
3.24562e+06
4.03546e+06
1.89809e+06
3.1009e+06
2.14813e+06
906421
7.20901e+06
7.72753e+06
8.19866e+06
8.03521e+06
8.29283e+06
8.24242e+06
8.44422e+06
1.67447e+06
1.08408e+06
1.91607e+06
384578
270574
280985
338527
4.33283e+06
2.42973e+06
3.97341e+06
986036
2.74461e+06
1.78854e+06
487887
7.59747e+06
5.98406e+06
7.9789e+06
4.98421e+06
7.49663e+06
6.3519e+06
2.8411e+06
2.70289e+06
371106
1.87173e+06
341370
1.72384e+06
928483
274225
1.03811e+06
562489
1.06814e+06
278612
344918
280152
260264
4.00313e+06
3.6524e+06
2.70244e+06
2.64645e+06
1.92369e+06
583686
876163
3.65468e+06
1.83826e+06
2.29672e+06
1.1723e+06
1.57997e+06
472754
362113
254049
282986
280593
265713
253612
266755
253580
1.32545e+06
400171
900299
261925
297976
271985
256409
253896
269895
275804
263425
253427
253512
260387
7.50418e+06
8.5018e+06
8.59435e+06
6.74242e+06
4.90312e+06
3.32308e+06
7.74988e+06
8.09103e+06
3.46427e+06
7.43393e+06
5.39435e+06
2.11234e+06
1.11211e+06
6.73603e+06
1.69673e+06
1.13441e+06
666138
478175
329957
285176
258700
260045
253245
1.35388e+06
7.8062e+06
254239
3.90609e+06
7.04306e+06
4.90899e+06
346769
7.43085e+06
5.8339e+06
4.90087e+06
362953
4.69491e+06
278979
260938
4.71934e+06
3.91626e+06
282273
261724
302942
7.61764e+06
5.31906e+06
7.36844e+06
5.83506e+06
4.42169e+06
325818
3.73749e+06
253721
2.54722e+06
4.67616e+06
3.823e+06
272806
258745
4.20794e+06
4.70094e+06
4.21161e+06
3.11503e+06
3.43562e+06
3.5755e+06
2.98453e+06
5.80592e+06
5.78897e+06
6.94826e+06
7.14072e+06
4.92059e+06
5.0577e+06
7.09769e+06
5.80065e+06
6.97468e+06
6.92767e+06
7.13177e+06
5.02204e+06
7.09811e+06
5.08583e+06
4.70787e+06
4.22265e+06
4.21634e+06
3.1283e+06
3.52148e+06
3.59496e+06
3.04717e+06
7.52064e+06
7.63843e+06
7.38134e+06
8.14221e+06
8.31258e+06
8.1839e+06
8.20587e+06
7.49544e+06
7.31217e+06
7.30855e+06
8.08671e+06
8.04421e+06
8.06062e+06
8.08604e+06
3.93173e+06
3.99777e+06
4.00238e+06
2.85919e+06
2.42705e+06
2.78051e+06
2.51419e+06
253442
848202
256011
584161
254885
7.89212e+06
4.53071e+06
253470
253245
253319
253273
2.77629e+06
253258
1.54279e+06
3.9921e+06
3.92953e+06
4.00114e+06
2.84716e+06
2.36965e+06
2.49982e+06
2.72452e+06
7.02689e+06
5.8095e+06
7.1104e+06
4.78502e+06
6.97003e+06
6.7284e+06
4.34657e+06
4.16887e+06
4.55738e+06
4.02862e+06
3.26304e+06
2.78915e+06
2.34536e+06
2.79703e+06
7.35242e+06
7.35913e+06
7.44508e+06
8.00331e+06
8.02097e+06
7.96942e+06
8.00378e+06
3.94176e+06
3.62834e+06
3.79799e+06
2.16563e+06
2.51866e+06
2.07529e+06
1.71999e+06
7.79492e+06
7.43645e+06
7.5978e+06
7.84031e+06
7.94572e+06
7.46896e+06
8.02542e+06
3.16907e+06
4.27909e+06
3.72319e+06
1.71726e+06
1.2724e+06
989582
2.10983e+06
7.2053e+06
5.6766e+06
7.1982e+06
6.27391e+06
2.58042e+06
5.47342e+06
3.63142e+06
2.89487e+06
3.2449e+06
3.48587e+06
1.4618e+06
605013
815337
1.12837e+06
7.27941e+06
8.00812e+06
3.38282e+06
5.14101e+06
3.65322e+06
8.01599e+06
7.17003e+06
4.99516e+06
1.98274e+06
1.21307e+06
373599
1.3793e+06
2.18375e+06
4.7807e+06
7.24473e+06
5.07613e+06
7.85395e+06
3.46284e+06
7.13504e+06
3.64336e+06
7.94418e+06
5.01525e+06
379075
2.11547e+06
1.29973e+06
4.88865e+06
1.40129e+06
2.2231e+06
908416
989003
271996
285352
1.10282e+06
276535
816153
918758
286340
1.05473e+06
273950
1.12125e+06
859316
277079
771307
532639
267117
262799
270266
587309
698107
779881
263047
557026
268440
730972
270659
594212
7.66931e+06
2.99984e+06
6.859e+06
6.34876e+06
3.58707e+06
2.26774e+06
7.34607e+06
7.97299e+06
8.06563e+06
7.83321e+06
7.50782e+06
6.6572e+06
5.10465e+06
6.38239e+06
6.93443e+06
3.07155e+06
6.09094e+06
1.36472e+06
4.17004e+06
2.35889e+06
520639
1.79741e+06
1.04719e+06
4.52012e+06
3.86349e+06
289076
712955
1.31614e+06
864685
267125
705579
506925
263122
612972
260020
2.24717e+06
1.38463e+06
1.05252e+06
572527
464785
281308
298191
1.94995e+06
613122
853605
323723
396395
272298
262954
5.50465e+06
722165
5.60664e+06
2.47112e+06
4.24509e+06
1.42924e+06
6.72447e+06
462341
263275
598780
433232
255821
257978
352916
3.35121e+06
2.9701e+06
3.9139e+06
4.02731e+06
3.55146e+06
3.76406e+06
390386
318448
3.04714e+06
3.5236e+06
3.60485e+06
3.86501e+06
3.90306e+06
4.18879e+06
4.17848e+06
3.17468e+06
3.91486e+06
3.7325e+06
4.00021e+06
3.95009e+06
4.16098e+06
4.05732e+06
4.35369e+06
2.67429e+06
4.27222e+06
4.31897e+06
4.31479e+06
3.96452e+06
2.53104e+06
4.40083e+06
4.19484e+06
4.36446e+06
3.7762e+06
1.63318e+06
3.40392e+06
2.18644e+06
3.70802e+06
1.93465e+06
1.81639e+06
1.04794e+06
3.27709e+06
3.17299e+06
950031
3.24896e+06
1.10828e+06
1.53301e+06
2.9036e+06
519721
754860
2.42944e+06
2.00446e+06
262946
603551
1.86034e+06
261025
363377
543199
308076
494927
258557
286022
260291
253978
253398
380673
255830
354641
273540
253774
278728
253914
364716
256593
384437
279418
253820
275279
253932
1.48276e+06
319904
1.03388e+06
257184
312590
279549
254978
1.74199e+06
1.24896e+06
3.1435e+06
808603
258135
334417
292379
253533
264097
258979
253348
257400
255134
253291
368885
274064
256025
414500
253734
257052
272739
256885
253929
255675
347537
292613
278889
400344
437447
256947
266860
2.90278e+06
428809
1.7616e+06
802128
1.63497e+06
6.15916e+06
4.79704e+06
7.69948e+06
6.93216e+06
2.78878e+06
4.22548e+06
257838
432038
255224
281495
330006
1.06853e+06
1.53574e+06
286256
255064
324393
253607
267383
259730
253406
370222
274370
924613
410950
272319
256951
253721
4.7457e+06
3.95894e+06
7.19973e+06
3.76459e+06
282161
962324
789699
262703
277754
617201
344932
253395
255455
259133
260940
254504
311201
291316
521079
259185
254091
4.95243e+06
1.10434e+06
298577
2.38568e+06
257098
341711
447250
253489
262824
254940
254166
287670
317113
271118
306900
270380
357093
3.92248e+06
2.56677e+06
1.06749e+06
1.95797e+06
257260
253356
253267
254243
254142
257665
253345
288571
1.40237e+06
873547
273478
255462
297961
254254
481170
256185
258692
262168
253677
271062
253475
309385
1.96102e+06
393576
1.30572e+06
4.39151e+06
825824
284221
338206
274929
596803
262023
253378
255296
253810
276013
496418
691264
266370
253567
253900
259740
253245
253245
253323
253245
253245
253245
253245
256369
253295
253665
253262
253925
253322
255273
2.203e+06
848271
482535
256390
318214
440241
3.65767e+06
327000
254182
255149
258950
253318
253395
256022
263881
253361
254009
288902
790062
347304
258821
253630
261960
269098
454218
367731
256111
258018
256146
253543
265101
255335
253258
253763
253297
253856
253249
253259
253299
255437
253891
253260
554190
254398
273494
253689
260643
253759
253275
255273
253872
253436
264298
288954
373283
643220
254196
256052
289651
253396
258973
327659
255165
253264
253445
253382
261375
258582
253983
254359
268927
253370
253294
253271
253638
255193
254257
253271
253447
254323
253695
253247
253317
253255
325815
253785
265329
253336
255122
253555
253259
253520
253291
255095
253266
254064
253381
253248
253251
253493
253339
253291
255031
256840
253751
3.67663e+06
253932
253281
253245
254634
253246
253247
254747
2.3771e+06
1.16975e+06
1.35421e+06
450327
497591
303442
260141
303298
872034
272465
254776
275541
253906
253292
283194
253349
257736
253276
254519
253422
253249
306818
253435
260186
253296
254913
253464
253252
253404
255508
253303
256143
253250
253320
253448
256220
253251
253416
253308
255697
253322
253453
253349
253284
254755
253921
253246
253262
253290
253351
253268
254294
253445
262394
254255
253267
253520
254063
264339
253248
253378
255052
253290
254158
267937
255078
253268
253611
253291
253248
572045
253854
253494
253505
258700
267950
265727
253512
256696
253891
253251
253321
253259
253246
253315
253258
253786
253247
253336
253257
253245
253262
253246
253258
253301
254215
264268
253885
253365
253246
253248
253245
253261
253248
253245
253273
253246
253245
253379
253245
253264
253248
253790
253301
253272
253246
254355
253259
253273
253462
253248
253246
253245
253296
253250
253259
253599
253254
253250
253246
253254
253263
253417
253248
255870
253328
253359
253249
253249
253245
253246
253245
253246
253256
253245
253714
253262
253289
253245
253246
253246
253263
253884
253265
253293
253307
254327
253273
253245
253246
253247
253256
253249
253427
253258
253245
253245
253246
253248
253245
253247
253251
253254
253319
253360
253246
253245
253246
253247
253269
253249
253295
253250
253245
253245
253253
253328
253247
253245
253255
253245
253257
253245
253417
253249
253245
253247
253246
253294
253253
253245
253245
253245
2.98381e+06
98769.7
2.34925e+06
65611.6
2.43323e+06
2.81371e+06
149072
152255
601197
657223
2.73479e+06
2.7818e+06
631151
614719
2.52083e+06
129782
152792
77503.2
92450.1
142875
69610.3
129041
310180
2.53973e+06
306929
2.31797e+06
275829
622114
2.35675e+06
109918
73426.5
109588
58113.3
85608.7
65622.8
144843
622238
2.27947e+06
322566
310715
2.29913e+06
280341
2.3192e+06
642694
2.59029e+06
607476
598442
2.71993e+06
625026
2.46761e+06
111849
71195
64134.7
109975
57945
86071.8
64782.2
129844
96462.9
74989.3
130255
90939.5
142755
68616.6
63451.3
67171.1
65000.1
61701.9
61773.1
63241.3
66980.5
77445.2
138461
89902.9
138263
84140.6
125591
84188.4
97071.6
150892
83589.4
135775
157858
87774.8
92385.5
85762.6
84329.1
74796.8
81649.5
80127.9
79668.8
89601.8
86411.3
91370.6
96075.9
82067.1
83323.4
83479.7
95102.4
78300.9
69202.9
70980.9
75176.3
76885.7
71644.5
75321.7
933285
295259
318479
916634
990015
300334
884612
932264
909693
293572
316756
881230
300284
987509
1.8443e+06
2.48559e+06
1.90871e+06
2.48336e+06
1.83706e+06
1.83828e+06
2.66916e+06
863940
261299
260704
1.01285e+06
896640
259468
898166
69754.4
97731.5
72645.7
114973
76165.8
105069
66508.2
66521.9
69397.2
69376
75284.2
71129.2
65378
71036.4
69716.4
72595
97595.5
114859
66478.7
105162
76142.9
62071.3
60030.9
58303.7
60031.3
60047.7
60056.5
61676
64125.4
87633.5
87604.1
61344.8
62181
91323
62188.9
63441.9
64996.7
67179.2
61712.9
66977.2
61770.5
63249.6
77484.7
135190
90518.1
135062
84340
123251
84157
934856
330211
914955
308137
982386
887350
312433
933424
323320
297759
915388
885079
985197
307271
1.81782e+06
2.44457e+06
1.90376e+06
2.46197e+06
1.81396e+06
1.82953e+06
2.62008e+06
873502
270715
265121
1.01967e+06
909252
902585
267820
69658.5
117210
72670.4
99513.4
76256.1
66372.7
106383
66218.3
73929.1
67539.7
67809.3
70138
70389.1
63920.2
62357.5
63864.8
65341.6
60469.1
65398.5
60862.6
61777.5
69457.8
115889
98073.1
72494.8
66402.5
105657
76019.3
60811.6
59208.5
58255.9
59503.8
59386.1
59734.8
60435.7
63487.8
88369.7
88097.9
61360.1
61821.5
62170.1
92077
62700.4
65783
64579.3
60974.1
61380.5
65925.2
62040.5
85533.2
80317.7
80890.3
72917.6
88292.8
78891.8
77619.1
96429.3
136269
151810
83389.6
92196.1
159252
87262.1
84936.4
89408.5
95318.6
80676.3
82756.3
93611.3
81530.1
77172.1
69467.7
68737.2
74022.8
74664.9
70769.3
75184.2
2.20478e+06
1.99406e+06
992429
706740
3.62165e+06
3.51385e+06
3.1152e+06
3.73764e+06
749077
986558
1.04641e+06
1.47115e+06
1.55278e+06
2.02011e+06
1.93121e+06
839641
1.38771e+06
1.16767e+06
1.94024e+06
1.70821e+06
2.16795e+06
2.34285e+06
326007
1.62889e+06
252749
1.13377e+06
472749
361808
180831
180914
181318
183592
184858
192185
190552
189739
186510
184847
189990
187559
178765
185963
204148
233683
375136
243924
237337
286448
469513
497787
279655
245892
183496
184192
249121
335134
355034
243440
408351
258486
280580
308300
699025
568415
355476
274832
228806
194992
266966
526080
405439
313592
381857
1.21936e+06
591472
714184
643288
768171
361804
434107
931842
1.39572e+06
1.05668e+06
754285
877231
551712
1.42867e+06
2.07612e+06
1.51974e+06
2.49171e+06
3.01815e+06
3.09755e+06
2.41311e+06
2.66978e+06
3.54532e+06
2.74337e+06
3.10302e+06
3.69188e+06
3.71152e+06
3.03743e+06
1.68342e+06
2.35953e+06
1.89584e+06
2.61641e+06
3.38843e+06
3.21641e+06
2.77142e+06
2.98112e+06
3.58461e+06
2.85146e+06
3.19356e+06
3.69925e+06
3.71552e+06
3.3073e+06
736614
537651
495829
2.85532e+06
418384
3.17267e+06
3.49948e+06
3.32849e+06
405752
382608
392737
770029
800845
874842
838330
450858
445869
413570
960205
862811
946906
1.05848e+06
566525
464371
446115
994945
1.14911e+06
1.2086e+06
950051
628547
580558
506120
1.0864e+06
1.53079e+06
1.33211e+06
1.24065e+06
1.61792e+06
2.91839e+06
1.68987e+06
1.86215e+06
2.98263e+06
1.78487e+06
3.04471e+06
2.03519e+06
3.03335e+06
1.83279e+06
2.00694e+06
3.27471e+06
3.14976e+06
2.20865e+06
2.10095e+06
2.32064e+06
3.14933e+06
3.37099e+06
2.4013e+06
2.02056e+06
3.20458e+06
2.24421e+06
2.7039e+06
3.38326e+06
3.43248e+06
2.53609e+06
3.29067e+06
2.43529e+06
177548
307333
180063
371296
135824
159663
267635
297247
132067
151333
153885
160197
141287
144687
158295
151233
142204
169872
164055
158039
163911
150833
176581
168402
170842
168425
153388
156220
166948
262794
251822
256514
163596
166644
175109
171576
182621
183344
176001
170877
178182
172011
162024
280810
279086
265617
199182
184185
171948
183208
315657
285343
279042
211735
206681
191155
186742
335075
320145
299310
223166
240746
217940
201632
3.40383e+06
234408
3.16334e+06
132333
2.55233e+06
3.06419e+06
129992
181961
177895
138230
200723
108612
207787
169932
116015
604990
2.38953e+06
598413
637387
2.60523e+06
619612
2.74326e+06
132708
74838.8
67859.1
152611
89334.8
143896
95652.4
164411
144594
120276
106912
90921.1
164678
106375
96238.1
138821
83470
154779
92038
162371
87449.9
84623.5
80111.6
72475.5
80542.1
87780.9
77059.3
78343.5
76313.3
67908.2
68850.5
73098.6
73668.9
74452.6
70101.6
84123.6
79532.9
93961.2
87900.8
81607.5
92918.1
80585.5
217195
154976
145626
204281
137213
188470
124816
714638
2.91953e+06
670931
2.72145e+06
624970
668698
2.89365e+06
3.09142e+06
765355
751518
695612
2.84451e+06
678407
2.94817e+06
3.2685e+06
838975
794197
3.22276e+06
769849
725802
3.07248e+06
3.62366e+06
158929
270204
3.39743e+06
244832
1.40801e+06
275210
1.25113e+06
233872
145093
159424
185342
224672
197174
265208
211564
238874
162735
157453
284725
190144
280980
194946
140521
149375
146420
172852
165383
169490
170439
253175
179092
169400
304584
207670
291028
200126
150754
161880
154203
180402
181368
176260
173803
3.34777e+06
849050
837696
944231
3.6387e+06
933964
3.67823e+06
156336
171560
173952
181308
190275
179413
191051
231507
378151
369262
321140
221587
316839
223462
197884
193785
193888
192960
190630
192638
192354
3.48851e+06
920450
876553
3.91139e+06
1.01628e+06
971461
3.7675e+06
172545
164729
178530
189388
195313
184031
192818
242886
449651
401060
345369
217127
329565
221926
4.48997e+06
4.46994e+06
1.23059e+06
1.06287e+06
4.01678e+06
1.05197e+06
4.05011e+06
201072
220451
197013
185801
187618
192588
192225
206314
204574
204288
198997
200909
199203
197397
1.30563e+06
4.68473e+06
4.56195e+06
4.27546e+06
1.15942e+06
1.09495e+06
4.13736e+06
230729
240077
211879
192129
191616
196567
190767
139087
119182
139066
170631
75878.3
108447
96087.8
125811
111423
124011
126055
100005
129048
105243
107796
68793.5
84398.7
78674
96500.8
90329.6
89654.8
91859.5
97712.4
85542.6
113968
103797
92227.5
103327
97062.2
91416.2
114007
109572
107621
120437
102991
124797
81176.7
73496.1
77795.3
81787
78193.8
81035.7
76754.5
78184
69728.3
70005.5
74212.3
75363.1
75788.6
71671.9
82076
75300.7
79271.1
84371.3
80081.4
82698.4
77478.1
82182.8
80279.6
88212.3
88152
80829.2
81130.9
86072.8
130177
142306
134138
122416
126795
117405
112178
115735
104452
142791
132734
121841
115334
132345
135978
151897
155008
122082
134768
118228
138461
154013
145007
161460
138329
155229
128765
145304
3.49143e+06
4.00375e+06
3.46545e+06
3.54584e+06
3.43854e+06
4.03859e+06
3.73909e+06
3.62315e+06
4.12259e+06
3.60716e+06
3.33012e+06
4.07821e+06
3.69873e+06
3.7264e+06
3.28999e+06
253269
4.72366e+06
286272
1.45564e+06
253250
525220
253973
3.50857e+06
3.71488e+06
4.32511e+06
4.26502e+06
4.53564e+06
4.44928e+06
4.38745e+06
4.08317e+06
255287
4.61866e+06
257387
253245
253249
253246
254865
4.27891e+06
3.89558e+06
4.34732e+06
4.65705e+06
4.39742e+06
3.36773e+06
2.06534e+06
3.81204e+06
884646
3.33402e+06
468329
2.49319e+06
1.68297e+06
317821
4.58051e+06
2.63736e+06
4.37637e+06
1.11852e+06
3.23541e+06
2.37679e+06
571683
3.52047e+06
2.5912e+06
3.17647e+06
1.26594e+06
907480
729737
290968
1.29015e+06
453194
2.48433e+06
838638
255518
361470
267789
2.45622e+06
1.4437e+06
3.74734e+06
1.26909e+06
261084
312769
476760
811890
3.91238e+06
4.25565e+06
2.54384e+06
4.34912e+06
3.15515e+06
1.75002e+06
3.09072e+06
3.10671e+06
2.3797e+06
434529
8.2558e+06
822703
4.20419e+06
5.27745e+06
1.15636e+06
3.7345e+06
2.02714e+06
1.22314e+06
2.77552e+06
1.41511e+06
334913
1.59901e+06
612391
211888
3.40039e+06
5.60527e+06
2.38664e+06
6.71563e+06
5.81888e+06
6.85045e+06
5.00467e+06
2.06576e+06
906973
1.4982e+06
4.69592e+06
3.90263e+06
4.18993e+06
3.75562e+06
182524
182657
196295
258013
245175
271790
357543
1.54421e+06
3.11986e+06
3.14728e+06
257543
256120
256938
255934
3.15622e+06
254937
254143
2.9429e+06
3.1088e+06
257475
255822
1.78176e+06
3.81622e+06
1.81222e+06
2.33609e+06
4.08605e+06
2.64722e+06
4.55153e+06
1.97072e+06
3.95005e+06
3.70772e+06
3.64663e+06
1.7595e+06
578185
1.94882e+06
4.03374e+06
2.1981e+06
1.6847e+06
3.88294e+06
3.63593e+06
607575
2.73709e+06
272382
659666
362634
733054
408356
612356
1.02011e+06
238886
563703
344878
556424
334796
563004
876283
325425
838584
419981
901872
454123
658443
1.21299e+06
1.94355e+06
1.25147e+06
1.58945e+06
2.34904e+06
3.29252e+06
3.67421e+06
2.77526e+06
1.17917e+06
840790
1.08189e+06
1.7615e+06
1.60047e+06
1.89855e+06
2.12783e+06
3.9402e+06
4.5882e+06
3.17603e+06
303532
2.33141e+06
3.89841e+06
3.70287e+06
261732
289622
2.9507e+06
3.10026e+06
255263
2.78092e+06
253485
1.59237e+06
4.5627e+06
2.05876e+06
462185
3.78265e+06
4.00639e+06
2.07595e+06
253823
253286
2.12627e+06
2.77971e+06
255005
2.61168e+06
253443
2.53966e+06
5.62282e+06
5.86472e+06
5.21121e+06
3.66684e+06
6.95001e+06
6.00193e+06
5.19645e+06
2.41799e+06
2.23787e+06
363471
4.29273e+06
4.60937e+06
3.53013e+06
932299
1.15452e+06
1.40402e+06
2.02476e+06
1.717e+06
1.98113e+06
2.22324e+06
3.60446e+06
5.7973e+06
3.31268e+06
5.99658e+06
4.39627e+06
4.5658e+06
5.81179e+06
1.23878e+06
1.13913e+06
1.39806e+06
1.5749e+06
1.71208e+06
1.83681e+06
2.02816e+06
1.85174e+06
1.35622e+06
749433
1.03776e+06
2.06615e+06
1.55191e+06
1.67568e+06
985293
914252
577501
905662
1.72397e+06
1.41237e+06
1.34195e+06
966471
1.17535e+06
633002
963782
1.89536e+06
1.391e+06
1.59151e+06
2.63436e+06
2.96528e+06
2.1328e+06
3.95005e+06
3.37152e+06
4.1495e+06
3.10965e+06
1.59566e+06
1.42493e+06
1.83304e+06
2.21596e+06
2.77775e+06
2.51024e+06
2.47556e+06
906869
913596
984685
1.34385e+06
1.42186e+06
1.41891e+06
1.73512e+06
1.23031e+06
1.58453e+06
2.19969e+06
1.95319e+06
2.42889e+06
2.52874e+06
2.73983e+06
1.95078e+06
2.28278e+06
2.707e+06
2.4397e+06
2.85455e+06
3.35338e+06
3.51289e+06
4.18174e+06
5.41326e+06
3.91552e+06
4.71838e+06
5.57253e+06
4.8567e+06
5.66342e+06
3.64275e+06
5.78614e+06
4.54366e+06
4.69663e+06
5.22119e+06
5.98763e+06
3.85235e+06
1.73194e+06
1.99297e+06
1.85058e+06
2.23257e+06
2.63315e+06
2.4753e+06
2.40023e+06
2.94142e+06
3.79786e+06
2.67378e+06
2.8876e+06
4.37212e+06
3.9502e+06
3.17128e+06
1.84162e+06
2.1411e+06
2.40768e+06
2.28648e+06
2.53969e+06
2.844e+06
3.00683e+06
3.16006e+06
3.19426e+06
3.18838e+06
1.61661e+06
1.56936e+06
1.52367e+06
1.5742e+06
3.08145e+06
3.1121e+06
3.08717e+06
1.60286e+06
1.585e+06
1.54777e+06
1.56091e+06
6.40455e+06
6.29176e+06
5.36236e+06
5.41768e+06
6.734e+06
6.35594e+06
6.24575e+06
1.52491e+06
3.09951e+06
3.09035e+06
3.07948e+06
3.09075e+06
1.57182e+06
1.5445e+06
1.40794e+06
1.49186e+06
3.12447e+06
3.12255e+06
3.11896e+06
1.51583e+06
1.43961e+06
3.14438e+06
3.12969e+06
3.12069e+06
1.52461e+06
1.44806e+06
1.52879e+06
1.45335e+06
1.5486e+06
4.74519e+06
2.17512e+06
253339
1.87403e+06
824866
3.4761e+06
265443
253600
1.24077e+06
4.74237e+06
2.60402e+06
4.04734e+06
302669
2.89833e+06
3.66059e+06
2.70435e+06
2.88621e+06
3.85292e+06
3.78779e+06
3.06565e+06
3.17534e+06
3.13698e+06
3.17916e+06
1.41018e+06
1.51422e+06
1.44765e+06
1.32489e+06
1.51698e+06
2.12032e+06
1.8281e+06
2.26396e+06
1.94492e+06
2.27658e+06
2.75289e+06
1.38742e+06
2.062e+06
1.69884e+06
2.15821e+06
1.76323e+06
2.06907e+06
2.58778e+06
1.44025e+06
2.23029e+06
1.7553e+06
2.36999e+06
1.84824e+06
2.13768e+06
2.8116e+06
2.09234e+06
2.81037e+06
2.28663e+06
3.62148e+06
2.96319e+06
3.23325e+06
3.94826e+06
2.52763e+06
285275
4.03408e+06
1.24678e+06
253274
288444
3.14027e+06
1.43011e+06
2.32669e+06
2.11767e+06