# vtk DataFile Version 2.0
sampleSurface
ASCII
DATASET POLYDATA
POINTS 3116 float
-2.71051e-18 0 0 0.1 0 0 -1.35525e-18 0.1 0 -1.35525e-18 -0.1
0 -0.1 0 0 -0.1 0.1 0 -0.1 -0.1 0
0.1 0.1 0 0.1 -0.1 0 0 0.2 0 -0.2
0 0 0.2 0 0 0 -0.2 0 -0.1 0.2
0 0.1 0.2 0 -0.2 0.1 0 -0.2 -0.1 0
-0.1 -0.2 0 0.2 0.1 0 0.1 -0.2 0 0.2
-0.1 0 -0.2 0.2 0 0.2 0.2 0 -0.2 -0.2
0 0.2 -0.2 0 9.03502e-19 0.3 0 -0.3 0 0
0.3 0 0 1.58113e-18 -0.3 0 -0.1 0.3 0 -0.3
0.1 0 0.3 -0.1 0 0.3 0.1 0 0.1 0.3
0 -0.1 -0.3 0 0.1 -0.3 0 -0.3 -0.1 0
-0.3 0.2 0 -0.2 0.3 0 0.2 0.3 0 -0.2
-0.3 0 -0.3 -0.2 0 0.3 0.2 0 0.3 -0.2
0 0.2 -0.3 0 1.807e-18 0.4 0 -0.4 0 0
0.4 0 0 3.16226e-18 -0.4 0 0.1 0.4 0 -0.1
0.4 0 -0.4 0.1 0 -0.4 -0.1 0 0.4 0.1
0 0.4 -0.1 0 0.1 -0.4 0 -0.1 -0.4 0
0.3 0.3 0 0.3 -0.3 0 -0.3 0.3 0 -0.3
-0.3 0 -0.4 0.2 0 -0.2 0.4 0 0.2 0.4
0 -0.2 -0.4 0 -0.4 -0.2 0 0.4 0.2 0
0.4 -0.2 0 0.2 -0.4 0 9.03502e-19 0.5 0 -0.3
0.4 0 -0.4 -0.3 0 -0.5 0 0 0.5 0
0 1.58113e-18 -0.5 0 -0.4 0.3 0 -0.3 -0.4 0
0.4 0.3 0 0.3 0.4 0 0.4 -0.3 0 0.3
-0.4 0 0.1 0.5 0 -0.5 0.1 0 -0.1 0.5
0 -0.5 -0.1 0 0.5 0.1 0 0.5 -0.1 0
-0.1 -0.5 0 0.1 -0.5 0 -0.5 0.2 0 -0.2
0.5 0 0.2 0.5 0 -0.5 -0.2 0 -0.2 -0.5
0 0.5 0.2 0 0.5 -0.2 0 0.2 -0.5 0
-0.4 0.4 0 -0.4 -0.4 0 0.4 0.4 0 0.4
-0.4 0 0.3 0.5 0 0.5 0.3 0 0.3 -0.5
0 0.5 -0.3 0 -0.3 0.5 0 -0.5 -0.3 0
-0.5 0.3 0 -0.3 -0.5 0 0 0.6 0 -0.6
0 0 0.6 0 0 0 -0.6 0 -0.1 0.6
0 0.1 0.6 0 -0.6 0.1 0 -0.6 -0.1 0
0.6 0.1 0 0.6 -0.1 0 -0.1 -0.6 0 0.1
-0.6 0 -0.6 0.2 0 -0.2 0.6 0 0.2 0.6
0 0.6 0.2 0 -0.6 -0.2 0 -0.2 -0.6 0
0.6 -0.2 0 0.2 -0.6 0 -0.4 0.5 0 -0.5
0.4 0 -0.4 -0.5 0 -0.5 -0.4 0 0.5 0.4
0 0.4 0.5 0 0.5 -0.4 0 0.4 -0.5 0
-0.6 0.3 0 -0.3 0.6 0 0.3 0.6 0 0.6
0.3 0 -0.6 -0.3 0 -0.3 -0.6 0 0.3 -0.6
0 0.6 -0.3 0 0 0.7 0 -0.7 0 0
3.38813e-18 -0.7 0 0.7 0 0 0.5 -0.5 0 -0.1
-0.7 0 0.1 -0.7 0 0.7 -0.1 0 0.7 0.1
0 0.1 0.7 0 -0.7 0.1 0 -0.7 -0.1 0
0.5 0.5 0 -0.5 0.5 0 -0.1 0.7 0 -0.5
-0.5 0 -0.6 0.4 0 -0.4 0.6 0 0.4 0.6
0 0.6 0.4 0 -0.6 -0.4 0 -0.4 -0.6 0
0.4 -0.6 0 0.6 -0.4 0 -0.7 0.2 0 -0.2
0.7 0 0.2 0.7 0 0.7 0.2 0 -0.7 -0.2
0 -0.2 -0.7 0 0.2 -0.7 0 0.7 -0.2 0
0.3 0.7 0 -0.3 0.7 0 -0.7 -0.3 0 -0.3
-0.7 0 -0.7 0.3 0 0.7 0.3 0 0.3 -0.7
0 0.7 -0.3 0 -0.6 0.5 0 -0.5 0.6 0
0.5 0.6 0 0.6 0.5 0 -0.6 -0.5 0 -0.5
-0.6 0 0.5 -0.6 0 0.6 -0.5 0 -0.8 0
0 6.77626e-18 -0.8 0 0 0.8 0 0.8 0 0
-0.7 0.4 0 -0.4 0.7 0 0.4 0.7 0 0.7
0.4 0 -0.8 0.1 0 -0.8 -0.1 0 -0.7 -0.4
0 -0.4 -0.7 0 0.1 -0.8 0 0.4 -0.7 0
-0.1 -0.8 0 0.7 -0.4 0 -0.1 0.8 0 0.1
0.8 0 0.8 -0.1 0 0.8 0.1 0 -0.8 0.2
0 -0.2 0.8 0 0.2 0.8 0 0.8 0.2 0
-0.8 -0.2 0 -0.2 -0.8 0 0.2 -0.8 0 0.8
-0.2 0 -0.6 0.6 0 0.6 0.6 0 -0.6 -0.6
0 0.6 -0.6 0 0.3 0.8 0 -0.8 0.3 0
0.8 0.3 0 0.8 -0.3 0 -0.3 0.8 0 -0.8
-0.3 0 -0.3 -0.8 0 0.3 -0.8 0 0.7 0.5
0 0.5 -0.7 0 -0.5 -0.7 0 0.7 -0.5 0
-0.7 0.5 0 -0.5 0.7 0 0.5 0.7 0 -0.7
-0.5 0 0.4 0.8 0 -0.8 0.4 0 -0.4 0.8
0 0.8 0.4 0 -0.8 -0.4 0 -0.4 -0.8 0
0.4 -0.8 0 0.8 -0.4 0 -0.9 0 0 3.38813e-18
-0.9 0 0 0.9 0 0.9 0 0 0.9 0.05
0 0.9 -0.05 0 -0.1 -0.9 0 -0.1 0.9 0
0.1 0.9 0 -0.9 0.1 0 0.1 -0.9 0 0.9
0.1 0 0.9 -0.1 0 -0.9 -0.1 0 -0.7 0.6
0 -0.6 0.7 0 0.6 0.7 0 0.7 0.6 0
-0.7 -0.6 0 -0.6 -0.7 0 0.6 -0.7 0 0.7
-0.6 0 -0.9 0.2 0 -0.2 0.9 0 0.2 0.9
0 0.9 0.2 0 -0.9 -0.2 0 -0.2 -0.9 0
0.2 -0.9 0 0.9 -0.2 0 -0.8 0.5 0 0.5
0.8 0 -0.5 0.8 0 0.8 0.5 0 -0.8 -0.5
0 -0.5 -0.8 0 0.5 -0.8 0 0.8 -0.5 0
-0.9 0.3 0 -0.3 0.9 0 -0.9 -0.3 0 0.9
0.3 0 -0.3 -0.9 0 0.9 -0.3 0 0.3 -0.9
0 0.3 0.9 0 0.95 0 0 0.95 0.05 0
0.95 -0.05 0 0.95 0.1 0 0.95 -0.1 0 0.4
0.9 0 -0.9 0.4 0 -0.4 0.9 0 0.9 0.4
0 -0.9 -0.4 0 -0.4 -0.9 0 0.4 -0.9 0
0.9 -0.4 0 -0.7 -0.7 0 0.7 -0.7 0 0.7
0.7 0 -0.7 0.7 0 -0.8 0.6 0 -0.6 0.8
0 0 1 0 0.6 0.8 0 0.8 0.6 0
-1 0 0 -0.8 -0.6 0 -0.6 -0.8 0 0.6
-0.8 0 0 -1 0 1 0 0 0.8 -0.6
0 1 0.05 0 1 -0.05 0 -0.1 1 0
0.1 1 0 -1 0.1 0 -1 -0.1 0 -0.1
-1 0 0.1 -1 0 1 0.1 0 1 -0.1
0 -1 0.2 0 -0.2 1 0 0.2 1 0
1 0.2 0 -1 -0.2 0 -0.2 -1 0 0.2
-1 0 1 -0.2 0 -0.5 -0.9 0 0.5 -0.9
0 0.5 0.9 0 -0.9 0.5 0 0.9 -0.5 0
0.9 0.5 0 -0.5 0.9 0 -0.9 -0.5 0 -1
0.3 0 -0.3 1 0 0.3 1 0 1 0.3
0 -1 -0.3 0 -0.3 -1 0 0.3 -1 0
1 -0.3 0 1.05 0 0 1.05 -0.05 0 1.05
0.05 0 1.05 -0.1 0 1.05 0.1 0 -0.8 -0.7
0 -0.8 0.7 0 -0.7 0.8 0 0.8 0.7 0
0.7 0.8 0 -0.7 -0.8 0 0.8 -0.7 0 0.7
-0.8 0 -1 0.4 0 -0.4 1 0 0.4 1
0 1 0.4 0 -1 -0.4 0 -0.4 -1 0
0.4 -1 0 1 -0.4 0 -0.6 0.9 0 -0.9
0.6 0 0.6 0.9 0 0.9 0.6 0 -0.9 -0.6
0 -0.6 -0.9 0 0.6 -0.9 0 0.9 -0.6 0
0 1.1 0 -1.1 0 0 4.06576e-18 -1.1 0 1.1
0 0 1.1 -0.05 0 1.1 0.05 0 0.1 1.1
0 0.1 -1.1 0 -0.1 1.1 0 -1.1 0.1 0
-1.1 -0.1 0 -0.1 -1.1 0 1.1 -0.1 0 1.1
0.1 0 -1 0.5 0 -0.5 1 0 0.5 1
0 1 0.5 0 -1 -0.5 0 -0.5 -1 0
0.5 -1 0 1 -0.5 0 -1.1 0.2 0 -0.2
1.1 0 0.2 1.1 0 1.1 0.2 0 -1.1 -0.2
0 0.2 -1.1 0 -0.2 -1.1 0 1.1 -0.2 0
-0.8 -0.8 0 -0.8 0.8 0 0.8 0.8 0 0.8
-0.8 0 -0.7 -0.9 0 0.7 0.9 0 -0.9 -0.7
0 0.9 -0.7 0 -1.1 0.3 0 0.3 1.1 0
0.9 0.7 0 -1.1 -0.3 0 0.7 -0.9 0 -0.7
0.9 0 -0.9 0.7 0 -0.3 1.1 0 1.1 0.3
0 -0.3 -1.1 0 1.1 -0.3 0 0.3 -1.1 0
-0.6 1 0 -1 0.6 0 0.6 1 0 1
0.6 0 -1 -0.6 0 -0.6 -1 0 0.6 -1
0 1 -0.6 0 -1.1 0.4 0 -0.4 1.1 0
0.4 1.1 0 1.1 0.4 0 -1.1 -0.4 0 0.4
-1.1 0 -0.4 -1.1 0 1.1 -0.4 0 0 1.2
0 -1.2 0 0 8.13152e-18 -1.2 0 1.2 0 0
-0.1 1.2 0 0.1 1.2 0 -1.2 0.1 0 -1.2
-0.1 0 -0.8 -0.9 0 -0.9 -0.8 0 0.1 -1.2
0 -0.1 -1.2 0 1.2 -0.1 0 1.2 0.1 0
-0.8 0.9 0 -0.9 0.8 0 0.9 0.8 0 0.8
0.9 0 0.9 -0.8 0 0.8 -0.9 0 1.1 0.5
0 -1.1 -0.5 0 -1.1 0.5 0 -0.5 1.1 0
0.5 1.1 0 0.5 -1.1 0 1.1 -0.5 0 -0.5
-1.1 0 -1.2 0.2 0 -0.2 1.2 0 0.2 1.2
0 1.2 0.2 0 -1.2 -0.2 0 0.2 -1.2 0
-0.2 -1.2 0 1.2 -0.2 0 -0.7 1 0 -1
0.7 0 0.7 1 0 1 0.7 0 -0.7 -1
0 -1 -0.7 0 0.7 -1 0 1 -0.7 0
-1.2 0.3 0 -1.2 -0.3 0 -0.3 1.2 0 0.3
1.2 0 1.2 0.3 0 1.2 -0.3 0 0.3 -1.2
0 -0.3 -1.2 0 -0.6 1.1 0 -1.1 0.6 0
0.6 1.1 0 1.1 0.6 0 -1.1 -0.6 0 -0.6
-1.1 0 0.6 -1.1 0 1.1 -0.6 0 -1.2 0.4
0 -1.2 -0.4 0 -0.4 1.2 0 0.4 1.2 0
1.2 0.4 0 1.2 -0.4 0 0.4 -1.2 0 -0.4
-1.2 0 -0.9 -0.9 0 -0.9 0.9 0 0.9 -0.9
0 0.9 0.9 0 -0.8 1 0 -1 0.8 0
0.8 1 0 1 0.8 0 -0.8 -1 0 -1
-0.8 0 1 -0.8 0 0.8 -1 0 -1.2 0.5
0 -1.3 0 0 4.06576e-18 -1.3 0 -0.5 1.2 0
0.5 1.2 0 1.2 0.5 0 -1.2 -0.5 0 1.2
-0.5 0 0 1.3 0 1.3 0 0 0.5 -1.2
0 -0.5 -1.2 0 -0.7 1.1 0 0.1 1.3 0
1.1 0.7 0 -1.1 -0.7 0 0.1 -1.3 0 0.7
-1.1 0 1.1 -0.7 0 -1.1 0.7 0 -0.1 1.3
0 0.7 1.1 0 -1.3 -0.1 0 -1.3 0.1 0
-0.7 -1.1 0 -0.1 -1.3 0 1.3 0.1 0 1.3
-0.1 0 -1.3 0.2 0 0.2 1.3 0 -1.3 -0.2
0 0.2 -1.3 0 -0.2 -1.3 0 -0.2 1.3 0
1.3 0.2 0 1.3 -0.2 0 1.3 0.3 0 -1.3
-0.3 0 1.3 -0.3 0 -1.3 0.3 0 0.3 -1.3
0 -0.3 -1.3 0 -0.3 1.3 0 0.3 1.3 0
-0.6 1.2 0 -1.2 0.6 0 1.2 0.6 0 0.6
1.2 0 -0.6 -1.2 0 -1.2 -0.6 0 0.6 -1.2
0 1.2 -0.6 0 -0.9 1 0 -1 0.9 0
0.9 1 0 1 0.9 0 -0.9 -1 0 -1
-0.9 0 0.9 -1 0 1 -0.9 0 -1.3 -0.4
0 -1.3 0.4 0 0.4 1.3 0 1.3 0.4 0
1.3 -0.4 0 -0.4 1.3 0 -0.8 -1.1 0 0.4
-1.3 0 -0.4 -1.3 0 -0.8 1.1 0 -1.1 0.8
0 0.8 1.1 0 1.1 0.8 0 -1.1 -0.8 0
0.8 -1.1 0 1.1 -0.8 0 -0.7 1.2 0 -1.2
0.7 0 1.2 0.7 0 0.7 1.2 0 -0.7 -1.2
0 -1.2 -0.7 0 0.7 -1.2 0 1.2 -0.7 0
0.5 -1.3 0 -1.3 0.5 0 1.3 0.5 0 1.3
-0.5 0 -1.3 -0.5 0 -0.5 1.3 0 0.5 1.3
0 -0.5 -1.3 0 0 1.4 0 -1.4 0 0
0 -1.4 0 1.4 0 0 -0.1 1.4 0 0.1
1.4 0 -1.4 -0.1 0 -1.4 0.1 0 -0.1 -1.4
0 0.1 -1.4 0 1.4 0.1 0 1.4 -0.1 0
-1.4 0.2 0 -0.2 1.4 0 0.2 1.4 0 1.4
0.2 0 -1.4 -0.2 0 -0.2 -1.4 0 0.2 -1.4
0 1.4 -0.2 0 -1 1 0 1 1 0
-1 -1 0 1 -1 0 -1.1 -0.9 0 0.9
-1.1 0 0.9 1.1 0 1.1 0.9 0 -0.9 -1.1
0 -0.9 1.1 0 -1.1 0.9 0 1.1 -0.9 0
-1.3 0.6 0 1.3 0.6 0 0.6 1.3 0 -1.3
-0.6 0 -0.6 -1.3 0 0.6 -1.3 0 1.3 -0.6
0 -1.4 0.3 0 -0.3 1.4 0 0.3 1.4 0
1.4 0.3 0 -1.4 -0.3 0 -0.3 -1.4 0 0.3
-1.4 0 1.4 -0.3 0 -0.6 1.3 0 -0.8 -1.2
0 -0.8 1.2 0 -1.2 0.8 0 1.2 0.8 0
0.8 1.2 0 -1.2 -0.8 0 0.8 -1.2 0 1.2
-0.8 0 -1.4 0.4 0 -0.4 1.4 0 0.4 1.4
0 1.4 0.4 0 -0.4 -1.4 0 -1.4 -0.4 0
0.4 -1.4 0 1.4 -0.4 0 -1.3 0.7 0 -0.7
-1.3 0 1.3 -0.7 0 0.7 -1.3 0 0.7 1.3
0 -0.7 1.3 0 1.3 0.7 0 -1.3 -0.7 0
-1 1.1 0 -1.1 1 0 -1.4 0.5 0 -0.5
1.4 0 1 1.1 0 0.5 1.4 0 1.1 1
0 1.4 0.5 0 -1.4 -0.5 0 -1 -1.1 0
-0.5 -1.4 0 -1.1 -1 0 0.5 -1.4 0 1
-1.1 0 1.1 -1 0 1.4 -0.5 0 -0.9 1.2
0 -1.2 0.9 0 1.2 0.9 0 0 1.5 0
0.9 1.2 0 -0.9 -1.2 0 -1.2 -0.9 0 -1.5
0 0 2.25875e-18 -1.5 0 0.9 -1.2 0 1.2 -0.9
0 1.5 0 0 -0.1 1.5 0 0.1 1.5 0
-1.5 0.1 0 -1.5 -0.1 0 -0.1 -1.5 0 1.5
-0.1 0 1.5 0.1 0 0.1 -1.5 0 -1.5 0.2
0 -0.2 1.5 0 0.2 1.5 0 1.5 0.2 0
-0.2 -1.5 0 -1.5 -0.2 0 0.2 -1.5 0 1.5
-0.2 0 -0.6 1.4 0 -1.4 0.6 0 1.4 0.6
0 0.6 1.4 0 -1.4 -0.6 0 -0.6 -1.4 0
0.6 -1.4 0 1.4 -0.6 0 -0.8 -1.3 0 -1.3
0.8 0 1.3 0.8 0 0.8 1.3 0 -1.3 -0.8
0 0.8 -1.3 0 1.3 -0.8 0 -0.8 1.3 0
0.3 -1.5 0 -1.5 0.3 0 -0.3 1.5 0 0.3
1.5 0 1.5 0.3 0 -0.3 -1.5 0 -1.5 -0.3
0 1.5 -0.3 0 -0.4 -1.5 0 0.4 -1.5 0
-0.4 1.5 0 -1.5 0.4 0 0.4 1.5 0 1.5
0.4 0 -1.5 -0.4 0 1.5 -0.4 0 -1.1 -1.1
0 -1.1 1.1 0 1.1 1.1 0 1.1 -1.1 0
-1.2 1 0 -1 1.2 0 1.2 1 0 1
1.2 0 -1.2 -1 0 -1 -1.2 0 1 -1.2
0 1.2 -1 0 -0.7 1.4 0 -1.4 0.7 0
1.4 0.7 0 0.7 1.4 0 -0.7 -1.4 0 -1.4
-0.7 0 0.7 -1.4 0 1.4 -0.7 0 0.9 -1.3
0 0.9 1.3 0 0.5 -1.5 0 -1.3 0.9 0
1.3 0.9 0 -1.3 -0.9 0 1.3 -0.9 0 -0.9
1.3 0 -1.5 0.5 0 -0.5 1.5 0 1.5 0.5
0 -0.9 -1.3 0 -1.5 -0.5 0 0.5 1.5 0
-0.5 -1.5 0 1.5 -0.5 0 -1.6 0 0 4.51751e-18
-1.6 0 0 1.6 0 1.6 0 0 0.1 1.6
0 -1.6 -0.1 0 -1.6 0.1 0 0.1 -1.6 0
-0.1 -1.6 0 1.6 -0.1 0 1.6 0.1 0 -0.8
1.4 0 -1.4 0.8 0 1.4 0.8 0 0.8 1.4
0 -0.8 -1.4 0 -1.4 -0.8 0 0.8 -1.4 0
1.4 -0.8 0 -1.6 0.2 0 0.2 1.6 0 1.6
0.2 0 -1.6 -0.2 0 -0.2 -1.6 0 0.2 -1.6
0 1.6 -0.2 0 -0.6 1.5 0 -1.5 0.6 0
0.6 1.5 0 1.5 0.6 0 -0.6 -1.5 0 -1.5
-0.6 0 0.6 -1.5 0 1.5 -0.6 0 -0.3 -1.6
0 -1.1 -1.2 0 0.3 -1.6 0 -1.6 0.3 0
-1.2 1.1 0 -1.1 1.2 0 1.2 1.1 0 0.3
1.6 0 1.1 1.2 0 1.6 0.3 0 -1.2 -1.1
0 -1.6 -0.3 0 1.2 -1.1 0 1.1 -1.2 0
1.6 -0.3 0 -1.3 1 0 1.3 1 0 -1
-1.3 0 -1.3 -1 0 1 -1.3 0 1.3 -1
0 -1 1.3 0 1 1.3 0 -0.4 -1.6 0
0.4 -1.6 0 -1.6 0.4 0 0.4 1.6 0 1.6
0.4 0 -1.6 -0.4 0 1.6 -0.4 0 0.7 1.5
0 -0.7 1.5 0 0.7 -1.5 0 1.5 0.7 0
-0.7 -1.5 0 1.5 -0.7 0 -0.9 1.4 0 -1.4
0.9 0 1.4 0.9 0 0.9 1.4 0 -0.9 -1.4
0 -1.4 -0.9 0 0.9 -1.4 0 1.4 -0.9 0
-0.5 -1.6 0 0.5 -1.6 0 -1.6 0.5 0 0.5
1.6 0 1.6 0.5 0 -1.6 -0.5 0 1.6 -0.5
0 -1.2 1.2 0 1.2 1.2 0 -1.2 -1.2 0
1.2 -1.2 0 0 1.7 0 2.25875e-18 -1.7 0 -0.8
1.5 0 0.8 1.5 0 1.5 0.8 0 -0.8 -1.5
0 0.8 -1.5 0 1.5 -0.8 0 1.7 0 0
0.1 -1.7 0 1.7 0.1 0 1.7 -0.1 0 1.3
1.1 0 0.1 1.7 0 1.3 -1.1 0 -1.1 1.3
0 1.1 1.3 0 -0.1 -1.7 0 1.1 -1.3 0
-1.6 0.6 0 0.6 1.6 0 1.6 0.6 0 -1.6
[...]
CELL_DATA 2853
FIELD attributes 1
p 1 2853 float
101298 101298 101298 101298 101298 101298 101298 101298 101298 101298 101298
101298 101298 101298 101298 101298 101298 101298 101298 101298 101298
101298 101298 101298 101298 101298 101298 101298 101298 101298 101298
101298 101298 101298 101298 101298 101298 101298 101298 101298 101298
101298 101298 101298 101298 101298 101298 101298 101298 101298 101298
101298 101298 101298 101298 101298 101298 101298 101298 101298 101298
101298 101298 101298 101298 101298 101298 101298 101298 101298 101298
101298 101298 101298 101298 101298 101298 101298 101298 101298 101298
101298 101298 101298 101298 101298 101298 101298 101298 101298 101298
101298 101298 101298 101298 101298 101298 101298 101298 101298 101298
101298 101298 101298 101298 101298 101298 101298 101298 101298 101298
101298 101298 101298 101298 101298 101298 101298 101298 101298 101298
101298 101298 101298 101298 101298 101298 101298 101298 101298 101298
101298 101298 101298 101298 101298 101298 101298 101298 101298 101298
101298 101298 101298 101298 101298 101298 101298 101298 101298 101298
101298 101298 101298 101298 101298 101298 101298 101298 101298 101298
101298 101298 101298 101298 101298 101298 101298 101298 101298 101298
101298 101298 101298 101298 101298 101298 101298 101298 101298 101298
101298 101298 101298 101298 101298 101298 101298 101298 101298 101298
101298 101298 101298 101298 101298 101298 101298 101298 101298 101298
101298 101298 101298 101298 101298 101298 101298 101298 101298 101298
101298 101298 101298 101298 101298 101298 101298 101298 101298 101298
101298 101298 101298 101298 101298 101298 101298 101298 101298 101298
101298 101298 101298 101298 101298 101298 101298 101298 101298 101298
101298 101298 101298 101298 101298 101298 101298 101298 101298 101298
101298 101298 101298 101298 101298 101298 101298 101298 101298 101298
101298 101298 101298 101298 101298 101298 101298 101298 101298 101298
101298 101298 101298 101298 101298 101298 101298 101298 101298 101298
101298 101298 101298 101298 101298 101298 101298 101298 101298 101298
101298 101298 101298 122555 1.8028e+06 101977 477111 112994 101734 101312
101298 101307 101525 1.89882e+06 1.51089e+06 1.81315e+06 101397 101298 101298 101298
101298 101299 101298 101298 1.13926e+06 102771 101298 101298 101298 101298
101298 101298 101298 101326 101298 101298 101298 101298 101298 101298
101298 101298 101298 101298 101298 101298 101298 101298 101298 101298
101298 101298 101302 101298 101298 101298 101298 101652 239609 119962
101298 101298 101298 101298 101298 101298 101298 1.47767e+06 1.42837e+06 1.34549e+06
1.52604e+06 1.55264e+06 1.35437e+06 1.3794e+06 1.6022e+06 1.67572e+06 1.77052e+06 1.86067e+06 1.6322e+06 1.77572e+06
1.782e+06 1.74793e+06 101303 490030 1.2347e+06 1.86022e+06 1.82795e+06 1.68098e+06 1.78242e+06 1.84367e+06
1.59024e+06 671773 1.62433e+06 1.81563e+06 305871 214884 1.05908e+06 994351 315547 1.29666e+06
600160 1.21146e+06 271182 796493 144156 113816 104188 101794 126790 101388
106167 179562 101345 103680 106312 101298 101298 101300 104891 101365
101305 101547 102151 101315 1.30157e+06 1.6971e+06 1.38415e+06 1.20487e+06 1.14575e+06 1.42472e+06
1.29096e+06 1.51389e+06 1.09943e+06 970644 1.03777e+06 1.0783e+06 998975 1.04099e+06 1.13789e+06 1.22748e+06
1.88579e+06 132192 598287 2.11815e+06 1.1873e+06 3.62075e+06 753271 1.52146e+06 1.93725e+06 1.47666e+06
1.58081e+06 1.83392e+06 1.97201e+06 2.37787e+06 1.3645e+06 1.58337e+06 1.32734e+06 1.90463e+06 1.86341e+06 1.62941e+06
101298 101308 101353 101299 101298 101300 101298 101298 101299 1.19721e+06
1.25125e+06 958359 953723 1.0028e+06 1.00057e+06 957079 955931 1.0022e+06 1.01208e+06 1.20195e+06
1.07139e+06 1.07122e+06 1.10593e+06 1.08242e+06 1.2189e+06 101298 101299 101298 101298 101298
101298 3.33923e+06 982916 7.70043e+06 1.83078e+06 1.75054e+06 3.15844e+06 7.21245e+06 923892 1.08278e+06
1.14076e+06 889151 707450 684735 715965 747506 805319 760523 833817 933672
1.07731e+06 4.01763e+06 1.98664e+06 3.35903e+06 1.63348e+06 1.22361e+06 1.37998e+06 1.0209e+06 948531 922643
912209 968949 939104 977850 1.17046e+06 1.07566e+06 1.01181e+06 1.16557e+06 3.05205e+06 1.02835e+06
1.80062e+06 1.82157e+06 1.87758e+06 1.89374e+06 1.1807e+06 1.04099e+06 1.29871e+06 1.10616e+06 983828 963842
872071 837684 842553 920092 947308 928393 920969 853948 1.3624e+06 1.54249e+06
1.31346e+06 101687 101298 101298 101298 101298 101298 101298 101298 101298
101298 101298 115519 101694 104254 206213 101298 101298 101298 101298
101298 101298 101298 101298 101298 101298 101298 101298 101298 101298
101298 101298 101298 101298 101298 101298 101298 101298 101298 101298
101298 101298 101298 101298 101298 101298 101298 101298 101298 1.09661e+06
996755 894350 101298 102452 104401 101321 101351 103934 101299 101298
101299 101300 105226 101378 101366 1.85736e+06 158069 1.88894e+06 226112 1.79364e+06
1.71341e+06 1.00875e+06 1.12932e+06 263466 101298 101298 101298 101298 101298 101298
101298 101303 101298 101298 101298 101298 101299 101298 101298 101298
101298 101554 120942 101698 101298 101298 101298 101298 101298 101298
101298 101298 101298 101298 101298 101298 101298 101299 101325 101298
101298 101298 101298 101298 101298 101298 101298 101298 101298 101298
101298 101298 101298 101298 101298 101298 101298 101298 101298 101298
101415 101300 101306 101298 101298 101298 101298 101298 101298 101298
101298 101298 101298 101298 101298 101298 101298 101298 101298 101298
101298 101298 101298 101298 101298 101298 101298 101298 1.45285e+06 101298
101333 1.02687e+06 101298 101298 101298 101301 101298 632505 116981 194526
101298 103137 101571 101303 101298 101298 101298 101298 101298 101298
1.69055e+06 1.67095e+06 1.86118e+06 905781 926643 929683 954091 952616 1.00288e+06 1.15341e+06
937013 1.20867e+06 1.3525e+06 1.74816e+06 920265 1.08029e+06 1.83078e+06 1.82139e+06 2.01465e+06 3.11602e+06
2.18178e+06 2.86249e+06 1.73358e+06 918178 904612 919045 936357 944720 930143 911237
968096 1.01753e+06 975600 1.03526e+06 965969 996529 1.09905e+06 1.24455e+06 1.26427e+06 1.0384e+06
1.10535e+06 1.27925e+06 1.41348e+06 1.29209e+06 1.14195e+06 847524 791539 905623 830610 667933
695595 745946 709144 845042 794331 738244 763764 806007 867828 889303
906009 885579 892363 851785 886682 1.45473e+06 1.44173e+06 1.69779e+06 1.70695e+06 1.77823e+06
1.90101e+06 1.75804e+06 1.50926e+06 1.66692e+06 1.80788e+06 1.27301e+06 1.53948e+06 101298 101298 101298
101298 101298 101298 101298 101298 101298 1.74123e+06 1.50099e+06 1.52642e+06 1.80646e+06
1.79944e+06 1.8097e+06 1.69641e+06 1.55631e+06 221040 1.05506e+06 862447 492523 909202 1.69815e+06
587664 334672 107225 102652 168625 114127 101298 101298 101298 101298
101298 101298 101298 101298 101298 101298 101298 101298 101298 101298
101298 101298 101298 101298 101298 101298 101298 101298 855829 5.4709e+06
2.47795e+06 6.39733e+06 2.8326e+06 1.61268e+06 1.44663e+06 987428 1.02886e+06 881223 652144 648145
778933 798381 764568 635642 676171 693841 666096 634433 661785 662994
685556 671698 641390 798468 732277 713904 704015 705332 763925 777245
717223 734606 101308 101298 101312 555524 624718 682116 624949 578692
604372 583852 603150 623561 643601 644559 624384 601614 662222 643211
662790 896296 927532 797134 686309 742628 772716 711343 912275 846915
816832 748555 814508 859159 900768 880959 922340 101298 101298 101300
101375 101309 101298 101298 101298 101298 101298 101298 101298 101298
101298 101298 101298 101298 101298 101298 101298 101298 101298 101298
101298 101298 101298 101298 101298 101298 101298 101298 101298 101298
101298 253296 2.02212e+06 106068 1.08653e+06 1.91664e+06 1.18408e+06 282559 1.41101e+06 1.57847e+06
1.9126e+06 2.05195e+06 1.30135e+06 1.05036e+06 7.92266e+06 1.16154e+06 7.28898e+06 3.53041e+06 3.39469e+06 3.1011e+06
1.15779e+06 7.56951e+06 2.9539e+06 2.46717e+06 1.27376e+06 5.09573e+06 2.24024e+06 7.92233e+06 6.90642e+06 3.34214e+06
1.83152e+06 1.85459e+06 1.71879e+06 1.78352e+06 3.23337e+06 7.78874e+06 2.80183e+06 1.57072e+06 1.63914e+06 1.65724e+06
1.55754e+06 2.64877e+06 6.20634e+06 1.86414e+06 1.18976e+06 1.22019e+06 1.10849e+06 1.14446e+06 1.2333e+06 1.23681e+06
1.24449e+06 1.26174e+06 1.18021e+06 1.91974e+06 1.49455e+06 1.45393e+06 1.3436e+06 1.2468e+06 1.21122e+06 1.29851e+06
1.40306e+06 1.3444e+06 1.41294e+06 1.59467e+06 101298 101298 101298 101298 101298 101298
101298 101298 101298 101298 101298 101298 101298 101298 101298 101298
101298 101298 101298 101298 101298 101298 101298 101298 101298 101298
101298 101298 101298 101298 101298 101298 101298 101298 101298 101298
101298 101298 101298 101298 101298 101298 101298 101298 101298 101298
101298 101298 101298 101298 101298 101298 101298 101298 101298 101298
101298 101298 101298 101298 101298 101298 101298 101298 101298 101298
101298 101298 101298 101298 101298 101298 101298 101298 101298 101298
101298 101298 101298 101298 101298 101298 101298 101298 101298 101298
101298 101298 101298 101298 101298 101298 101298 101298 101298 101298
101298 101298 101298 101298 101298 101298 101298 101298 101298 101298
101298 101298 101298 101298 101298 101298 101298 101298 101298 101298
101298 101298 101298 101298 101298 101298 101298 101298 101298 101298
101298 101298 101298 101298 101298 101298 101298 101298 101298 101298
101298 101298 101298 101298 101298 101298 101298 101298 101298 101298
101298 101298 101298 101298 101298 101298 101298 988624 141322 101299
101298 101298 101298 101298 101298 101298 101298 101298 101298 101298
101298 101298 101298 101298 101298 101298 101298 101298 101298 101369
101298 101298 101298 101298 101298 101303 101298 101298 101298 101298
101298 101298 1.45178e+06 1.7028e+06 1.64621e+06 101398 104720 101298 101571 101298
101300 101364 103205 199520 101299 101334 101299 101298 1.95113e+06 105278
809127 1.60272e+06 1.23218e+06 1.75328e+06 1.48411e+06 1.67945e+06 1.62945e+06 1.82693e+06 1.74501e+06 1.53183e+06
1.61621e+06 1.87858e+06 1.6349e+06 1.74265e+06 1.51439e+06 1.67349e+06 274649 101299 101334 1.82969e+06
1.92423e+06 1.9097e+06 1.82172e+06 1.86445e+06 1.68259e+06 1.51724e+06 1.89483e+06 1.86925e+06 1.18355e+06 1.21226e+06
1.28065e+06 1.2371e+06 1.89148e+06 2.05321e+06 1.83283e+06 1.32578e+06 1.78483e+06 1.9505e+06 1.73789e+06 1.41427e+06
374576 777666 140597 188753 868002 146291 568853 1.22892e+06 1.20047e+06 1.17647e+06
1.19418e+06 1.07586e+06 1.16155e+06 1.42967e+06 1.31449e+06 1.11081e+06 1.14716e+06 1.11911e+06 1.20278e+06 1.17403e+06
1.14056e+06 1.18518e+06 1.21567e+06 1.34379e+06 1.38124e+06 1.24843e+06 1.29077e+06 105050 114894 513596
143829 844708 294145 107907 101421 102050 101298 101298 101298 103113
102077 101314 116353 102111 101313 645178 738592 762997 1.04096e+06 964871
948536 706054 862035 714185 1.1571e+06 1.1741e+06 1.16199e+06 662927 682837 664559
952668 1.14481e+06 1.01696e+06 737738 706160 681763 685634 707707 744732 795576
864788 785496 806965 888988 833566 792391 738692 785829 1.04865e+06 952652
870159 859723 950652 1.04025e+06 1.0476e+06 965025 870421 924457 986506 1.06701e+06
1.11328e+06 1.15963e+06 1.11315e+06 1.11301e+06 1.04077e+06 1.11171e+06 1.11247e+06 1.05648e+06 1.11329e+06 1.17441e+06
1.17712e+06 1.16307e+06 1.15227e+06 1.16994e+06 1.17663e+06 101299 101312 102069 101303 101566
101368 101312 101300 101298 101298 101298 101298 101298 101298 101298
101298 101298 101298 101298 101298 101298 101298 101298 101298 101298
101298 101508 101298 101298 101298 101298 101298 101299 101298 101298
101298 101298 101298 101298 101298 101298 101298 101298 101298 101298
101298 101298 101298 101298 183902 101298 101298 101298 101298 101298
101298 101298 398345 101298 101298 101298 101298 101298 101298 101298
143665 101298 101298 101298 101298 101298 101298 101298 101364 101298
101298 101298 101298 101298 101298 101298 101298 101298 101298 101298
101298 101298 101298 101298 101298 101298 101298 101298 101298 101298
101298 101298 101298 101298 101298 101298 101298 101298 101298 101298
101298 101298 101298 101298 101298 101298 101298 101298 101298 101298
101298 101298 101298 101298 101298 101298 101298 101298 101298 101298
101298 101298 101298 101298 101298 101298 101298 101298 101298 101298
101298 118901 101298 101298 101298 101298 101298 1.74198e+06 1.78328e+06 213609
101298 101298 101298 101298 101298 101298 101433 101298 101298 101298
101298 101298 101298 101298 101298 101298 101298 101298 101298 101298
101298 101298 101298 101298 101298 101298 101298 101298 101298 101298
101298 101298 101298 101298 101298 101298 101298 101298 101298 101298
101298 101298 101298 101298 101298 101298 101298 101298 101298 101298
101298 101298 101298 101298 101298 101298 101298 101298 101298 101298
101298 101298 101298 101298 101298 101298 101298 101298 101298 101298
101298 101298 101298 101298 101298 101298 101298 101298 101298 101298
101298 101298 101298 101298 101298 101298 101298 101298 101298 101298
101298 101298 101298 101298 101298 101298 101298 101298 101298 101298
101298 101298 101298 101298 101298 101298 101298 101298 101298 101298
101298 101298 101298 101298 101298 101298 101298 101298 101298 101298
101298 101298 101298 101298 101298 101298 101298 101298 101298 101298
101298 101298 101298 101298 101298 101298 101298 101298 101298 101298
101298 101298 101298 101298 101298 101298 101298 101298 101298 101298
101298 101298 101298 101298 101298 101298 101301 101298 101298 101298
101298 101577 1.83691e+06 1.74689e+06 394975 1.82913e+06 1.62326e+06 101788 1.59746e+06 1.88699e+06
129902 1.73805e+06 1.83212e+06 1.84659e+06 101450 1.32988e+06 1.31515e+06 1.84895e+06 1.84119e+06 1.75904e+06
1.775e+06 1.81269e+06 1.74907e+06 101375 1.19786e+06 406712 1.78949e+06 1.82872e+06 1.78428e+06 1.72554e+06
102215 101298 1.861e+06 1.47588e+06 1.67972e+06 1.20938e+06 106126 101298 102038 1.81225e+06
111902 115525 2.00895e+06 107155 1.66578e+06 1.42729e+06 1.90499e+06 103677 1.10737e+06 101333
170809 101299 101298 102951 109705 101298 109878 103650 101298 1.36405e+06
1.32708e+06 371093 101299 189437 101483 353735 1.31235e+06 1.36346e+06 669161 1.13696e+06
1.81568e+06 992965 1.19515e+06 273150 304047 1.23188e+06 1.05609e+06 1.83548e+06 1.04023e+06 552688
1.36669e+06 400695 373240 355804 397306 1.36621e+06 995795 184682 274661 102141
101308 101298 793524 487702 113682 101303 101855 101298 109312 404845
705014 852285 259649 1.19584e+06 1.18344e+06 226939 846466 1.39481e+06 450751 1.49063e+06
109389 130187 707663 597822 119774 269746 104154 238274 126508 202126
111354 470523 116051 188581 102972 101523 101298 101298 101865 101298
101298 420242 110151 101654 102692 101560 114466 116197 101579 102990
101299 101298 101298 101299 101298 101298 101315 101298 101298 101298
101301 101301 101470 109805 108078 101298 101608 101298 101298 101406
101298 101298 101312 101298 108826 109982 101474 101359 104599 150146
101387 102756 178882 142695 103697 101341 101507 107193 348824 491201
115506 101651 101506 111859 347778 101468 101432 108003 108739 101448
101472 101299 101298 101298 104851 101649 101305 101298 101299 101298
105254 102968 101331 142302 102031 101341 105211 101374 101330 101344
101396 106251 103206 101335 101302 101298 101299 101298 101301 101481
103188 101544 101303 101315 101309 101861 101452 101301 101333 103209
101309 101301 101450 101310 101298 101314 101298 101298 101298 101300
101407 101302 101306 101607 101304 101305 101467 101301 101298 101303
101326 101298 101299 101353 101307 101298 101302 101306 101298 101304
101299 101311 101298 101298 101298 101298 101299 101325 101300 101330
101303 101298 101330 101299 101298 101300 101298 101302 101298 101298
101299 101299 101298 101298 101298 101298 101298 101299 101299 101298
101298 101298 101298 101301 101301 101298 101298 101299 101298 101298
101301 101301 101298 101300 101299 101301 101298 101298 101298 101298
101301 101299 101298 101298 101298 101299 101298 101298 101298 101298
101298 101298 101298 101298 101298 101298 101298 101298 101299 101298
101298 101298 101299 101298 101298 101298 101298 101298 101298 101298
101298 101298 101298 101298 101298 101298 101298 101298 101298 101298
101298 101298 101298 101298 101298 101298 101298 101298 101298 101298
101298 101298 101298 101298 101298 101298 101298 101298 101298 101298
101298 101298 101298 101298 101298 101298 101298 101298 101298 101298
101298 101298 101298 101298 101298 101298 581529 628364 612572 545958
558246 576355 567877 595645 583987 567424 589903 594133 613272 619353
600822 610651 1.84218e+06 111452 1.42967e+06 1.83265e+06 1.34624e+06 1.37981e+06 1.83002e+06 1.402e+06
1.53235e+06 1.34938e+06 1.52195e+06 1.51903e+06 1.54802e+06 1.53096e+06 1.36148e+06 1.42935e+06 1.62193e+06 1.57743e+06
1.04315e+06 1.62473e+06 1.97435e+06 1.76812e+06 1.68558e+06 1.4704e+06 1.84972e+06 1.74664e+06 1.75912e+06 1.73718e+06
1.74148e+06 1.84721e+06 1.78995e+06 1.83762e+06 1.78588e+06 1.75066e+06 1.93723e+06 1.86857e+06 1.6678e+06 1.88785e+06
1.90623e+06 1.55093e+06 1.87945e+06 1.89582e+06 1.83703e+06 1.59939e+06 555046 203164 1.11015e+06 472612
1.82497e+06 1.36219e+06 1.25167e+06 1.00674e+06 1.07902e+06 1.03487e+06 1.07965e+06 1.05727e+06 1.42132e+06 1.10455e+06
1.22182e+06 1.13258e+06 1.104e+06 1.05912e+06 1.12627e+06 1.15094e+06 1.27894e+06 1.13842e+06 1.20671e+06 1.16629e+06
1.31494e+06 1.18068e+06 1.21869e+06 1.35708e+06 1.26276e+06 1.17382e+06 1.26816e+06 1.33272e+06 1.50744e+06 1.22954e+06
1.19812e+06 950506 981200 951554 1.01088e+06 1.00624e+06 1.03715e+06 1.02209e+06 962349 1.21372e+06
1.09055e+06 1.10568e+06 1.07349e+06 1.07861e+06 1.20201e+06 1.64102e+06 1.42258e+06 1.55954e+06 647166 738760
640914 594512 607757 619765 606823 665967 637900 623663 621300 636326
659407 910572 882411 671521 680953 641449 635476 583778 585070 572104
589800 597986 600818 591093 572826 631896 609526 618154 613820 607744
629683 664774 718041 725323 740216 722849 667907 691318 658468 696222
797868 790774 877535 887287 798090 819895 1.15604e+06 1.0494e+06 945173 703675
859308 740506 816440 770437 1.0698e+06 931578 1.07125e+06 944228 877786 792460
856560 907043 984736 1.01781e+06 962076 1.00763e+06 994058 1.04558e+06 999128 1.20586e+06
1.0451e+06 850825 671205 876846 721114 779016 712112 1.06859e+06 961109 1.10291e+06
775635 850568 926968 943484 858615 791412 779603 657162 596671 641799
609178 624618 611921 630095 646731 682090 668853 642140 622573 722039
671877 712422 993855 931220 998522 1.01686e+06 1.04834e+06 1.00672e+06 1.04575e+06 1.06943e+06
1.09068e+06 1.08446e+06 1.07154e+06 1.04575e+06 1.0449e+06 1.06863e+06 1.0897e+06 1.1315e+06 1.07777e+06 1.05803e+06
1.12219e+06 1.08571e+06 1.11496e+06 1.13752e+06 1.10341e+06 1.1653e+06 1.74205e+06 1.20325e+06 1.08513e+06 1.26214e+06
1.12153e+06 1.15568e+06 1.11472e+06 1.1506e+06 1.20308e+06 1.3e+06 1.35695e+06 1.22137e+06 1.17313e+06 1.4835e+06
1.31405e+06 1.50784e+06 451442 226011 1.99315e+06 1.31417e+06 1.98663e+06 1.99087e+06 1.42251e+06 1.87843e+06
1.48339e+06 1.74167e+06 1.50748e+06 1.64132e+06 1.8255e+06 1.5599e+06 1.76909e+06 1.99051e+06 1.94651e+06 2.02516e+06
1.98648e+06 1.73341e+06 1.7697e+06 1.99344e+06 1.94602e+06 1.62167e+06 1.15009e+06 1.09074e+06 1.53165e+06 1.21377e+06
1.22906e+06 1.10532e+06 1.12567e+06 1.25094e+06 1.27813e+06 1.54825e+06 1.37983e+06 1.36193e+06 1.42906e+06 1.40176e+06
1.5773e+06 1.93663e+06 1.33211e+06 1.17974e+06 1.68529e+06 1.31424e+06 1.36167e+06 1.21776e+06 1.26731e+06 1.42107e+06
1.50751e+06 1.76791e+06 1.53223e+06 1.47013e+06 1.75084e+06 1.62484e+06 1.86839e+06 1.54891e+06 1.97408e+06 1.89594e+06
1.39594e+06 2.00913e+06 1.49101e+06 1.1814e+06 1.81113e+06 843815 569215 568807 532970 522396
553912 535275 552000 554509 536347 553569 529937 526937 548778 541808
523973 526185 558363 591328 562595 555095 584360 554889 623910 581056
531939 589280 551013 567006 550078 564209 580363 594954 599299 583056
570236 608774 595596 610785 1.07871e+06 815338 645776 608462 722530 631260
640604 617082 906147 797940 1.02222e+06 628970 656000 680892 739589 680217
667416 739248 702521 769430 887227 910207 819404 855818 944526 983847