/*--------------------------------*- C++ -*----------------------------------*\
  =========                 |
  \\      /  F ield         | OpenFOAM: The Open Source CFD Toolbox
   \\    /   O peration     | Website:  https://openfoam.org
    \\  /    A nd           | Version:  9
     \\/     M anipulation  |
\*---------------------------------------------------------------------------*/
FoamFile
{
    format      ascii;
    class       volScalarField;
    location    "0.0017";
    object      alpha.c4;
}
// * * * * * * * * * * * * * * * * * * * * * * * * * * * * * * * * * * * * * //

dimensions      [0 0 0 0 0 0 0];

internalField   nonuniform List<scalar> 
13975
(
3.87719e-28
2.74491e-26
1.81998e-24
1.1036e-22
6.10141e-21
3.13251e-19
1.50465e-17
1.30959e-29
9.08402e-28
5.92576e-26
3.5432e-24
1.92244e-22
9.51311e-21
4.36996e-19
3.56682e-31
2.415e-29
1.54274e-27
9.05989e-26
4.82168e-24
2.30442e-22
9.88189e-21
8.23976e-33
5.4418e-31
3.39559e-29
1.95249e-27
1.01917e-25
4.75197e-24
1.9465e-22
1.69325e-34
1.09277e-32
6.65508e-31
3.73726e-29
1.90893e-27
8.70856e-26
3.46658e-24
1.8129e-17
3.76778e-19
6.86541e-21
1.16942e-22
6.03938e-16
2.15043e-13
5.78406e-16
1.18999e-17
2.00123e-19
3.21691e-21
5.89147e-09
5.40951e-15
2.6177e-16
4.43407e-18
6.89446e-20
5.81238e-18
3.89986e-16
6.0837e-12
1.65947e-08
1.38296e-18
7.73638e-17
2.59378e-15
1.10423e-10
1.22186e-05
3.08349e-19
1.72329e-17
7.47276e-16
1.14248e-13
6.84709e-10
4.69442e-39
3.59985e-37
2.62972e-35
1.79076e-33
1.12152e-31
6.33818e-30
3.14761e-28
1.32786e-26
4.59657e-25
1.27804e-23
2.75034e-37
2.18074e-35
1.65042e-33
1.16686e-31
7.59446e-30
4.45181e-28
2.27947e-26
9.82639e-25
3.45284e-23
9.79607e-22
1.49049e-35
1.22282e-33
9.60071e-32
7.05903e-30
4.77924e-28
2.90385e-26
1.53052e-24
6.7452e-23
2.42379e-21
7.02965e-20
7.2101e-34
6.12044e-32
4.98723e-30
3.81352e-28
2.68183e-26
1.6858e-24
9.16514e-23
4.21289e-21
1.64947e-19
5.01127e-18
3.02674e-32
2.65138e-30
2.2359e-28
1.77108e-26
1.28832e-24
8.3793e-23
4.8044e-21
2.53837e-19
1.30331e-17
4.40958e-16
1.06167e-30
9.52941e-29
8.25415e-27
6.72061e-25
5.03535e-23
3.43434e-21
2.26218e-19
1.65328e-17
5.09657e-16
2.21262e-14
2.97825e-29
2.70769e-27
2.3837e-25
1.97958e-23
1.52707e-21
1.1342e-19
9.58678e-18
4.06923e-16
1.43592e-09
1.14504e-09
6.50584e-28
5.94761e-26
5.31465e-24
4.50422e-22
3.51373e-20
2.56172e-18
2.03185e-16
1.34364e-10
5.93281e-05
2.22089e-39
1.52221e-37
9.9434e-36
6.07278e-34
3.43151e-32
1.76502e-30
8.06899e-29
3.17614e-27
1.03497e-25
2.68045e-24
1.17671e-37
8.30265e-36
5.61242e-34
3.56368e-32
2.10037e-30
1.12796e-28
5.37542e-27
2.19119e-25
7.31523e-24
1.92815e-22
5.77814e-36
4.21138e-34
2.95515e-32
1.95689e-30
1.20673e-28
6.79159e-27
3.37999e-25
1.42811e-23
4.90583e-22
1.31712e-20
2.5462e-34
1.92014e-32
1.40121e-30
9.69519e-29
6.2721e-27
3.70103e-25
1.92334e-23
8.44207e-22
2.97341e-20
7.87048e-19
9.83649e-33
7.66416e-31
5.80682e-29
4.19428e-27
2.84038e-25
1.75204e-23
9.50239e-22
4.31276e-20
1.55062e-18
3.82254e-17
3.22418e-31
2.57806e-29
2.01446e-27
1.50947e-25
1.06183e-23
6.81833e-22
3.8328e-20
1.7968e-18
7.42095e-17
3.94044e-15
8.60914e-30
6.96914e-28
5.54205e-26
4.24761e-24
3.07561e-22
2.04047e-20
1.17482e-18
5.88006e-17
4.83833e-12
1.11516e-10
1.81087e-28
1.45775e-26
1.15908e-24
8.95575e-23
6.67135e-21
4.62811e-19
2.54539e-17
2.57913e-13
2.0103e-07
0.000813535
5.499e-40
3.53572e-38
2.1752e-36
1.24672e-34
6.57257e-33
3.14218e-31
1.33926e-29
4.96702e-28
1.55091e-26
3.91145e-25
2.76008e-38
1.82718e-36
1.15504e-34
6.80418e-33
3.69334e-31
1.82414e-29
8.04527e-28
3.08434e-26
9.90344e-25
2.53687e-23
1.29019e-36
8.76503e-35
5.68857e-33
3.44707e-31
1.93327e-29
9.8994e-28
4.53537e-26
1.80526e-24
5.9826e-23
1.55862e-21
5.4168e-35
3.77261e-33
2.51338e-31
1.57107e-29
9.13014e-28
4.86349e-26
2.3244e-24
9.64046e-23
3.29736e-21
8.6757e-20
2.00259e-33
1.42694e-31
9.76493e-30
6.30093e-28
3.79833e-26
2.1089e-24
1.05315e-22
4.54115e-21
1.58737e-19
4.15352e-18
6.36297e-32
4.62758e-30
3.24566e-28
2.1562e-26
1.3455e-24
7.77016e-23
4.03338e-21
1.78658e-19
6.4173e-18
1.84039e-16
1.69181e-30
1.2493e-28
8.92212e-27
6.05804e-25
3.88257e-23
2.31023e-21
1.22754e-19
5.53878e-18
2.33783e-16
2.30589e-14
3.67532e-29
2.73397e-27
1.96805e-25
1.34874e-23
8.75529e-22
5.28553e-20
2.79571e-18
1.23534e-16
1.31017e-14
2.16321e-11
7.5593e-41
4.93419e-39
3.0428e-37
1.73527e-35
9.05596e-34
4.26654e-32
1.78317e-30
6.46423e-29
1.97472e-27
4.90323e-26
3.85262e-39
2.55889e-37
1.60884e-35
9.37162e-34
5.00472e-32
2.41736e-30
1.03785e-28
3.87119e-27
1.21676e-25
3.09029e-24
1.81053e-37
1.22501e-35
7.86035e-34
4.68345e-32
2.56505e-30
1.27462e-28
5.65059e-27
2.18468e-25
7.12593e-24
1.86175e-22
7.60905e-36
5.24892e-34
3.44173e-32
2.10206e-30
1.18451e-28
6.08498e-27
2.8052e-25
1.13393e-23
3.8651e-22
1.03785e-20
2.81222e-34
1.9786e-32
1.32708e-30
8.32367e-29
4.84108e-27
2.58339e-25
1.24595e-23
5.28792e-22
1.87812e-20
5.11804e-19
8.95137e-33
6.41994e-31
4.40408e-29
2.83806e-27
1.70572e-25
9.4688e-24
4.77156e-22
2.10759e-20
7.67809e-19
2.11774e-17
2.39221e-31
1.74482e-29
1.22099e-27
8.05741e-26
4.97997e-24
2.85037e-22
1.47498e-20
6.59674e-19
2.43701e-17
7.6672e-16
5.21625e-30
3.85002e-28
2.72958e-26
1.82572e-24
1.14207e-22
6.57701e-21
3.36913e-19
1.44799e-17
5.24011e-16
1.21394e-13
5.95039e-42
3.91155e-40
2.42371e-38
1.38598e-36
7.23854e-35
3.40669e-33
1.41993e-31
5.12689e-30
1.55976e-28
3.86699e-27
3.05578e-40
2.03982e-38
1.28571e-36
7.49042e-35
3.99135e-33
1.91903e-31
8.18155e-30
3.02505e-28
9.43047e-27
2.39199e-25
1.44526e-38
9.80862e-37
6.29512e-35
3.7412e-33
2.03747e-31
1.00331e-29
4.39207e-28
1.67271e-26
5.38648e-25
1.40983e-23
6.10991e-37
4.22006e-35
2.7616e-33
1.67743e-31
9.36165e-30
4.7399e-28
2.14294e-26
8.47402e-25
2.84436e-23
7.73234e-22
2.27212e-35
1.5984e-33
1.06787e-31
6.64211e-30
3.80993e-28
1.99223e-26
9.36044e-25
3.86952e-23
1.35916e-21
3.83101e-20
7.28598e-34
5.22193e-32
3.56407e-30
2.273e-28
1.34303e-26
7.2765e-25
3.56318e-23
1.53874e-21
5.61867e-20
1.63836e-18
1.96531e-32
1.43374e-30
9.98932e-29
6.52791e-27
3.97006e-25
2.22383e-23
1.12751e-21
5.01746e-20
1.88897e-18
6.20445e-17
4.32719e-31
3.20402e-29
2.27121e-27
1.51399e-25
9.41223e-24
5.38836e-22
2.77558e-20
1.24456e-18
5.12225e-17
3.39291e-15
3.16098e-43
2.07623e-41
1.28399e-39
7.3194e-38
3.80653e-36
1.78232e-34
7.38641e-33
2.65115e-31
8.01944e-30
1.97839e-28
1.62398e-41
1.08175e-39
6.79375e-38
3.93783e-36
2.08465e-34
9.94464e-33
4.20148e-31
1.53763e-29
4.74082e-28
1.19031e-26
7.68093e-40
5.19392e-38
3.31522e-36
1.95578e-34
1.05524e-32
5.13721e-31
2.21784e-29
8.3068e-28
2.62517e-26
6.75726e-25
3.24639e-38
2.23042e-36
1.44859e-34
8.71119e-33
4.79963e-31
2.3908e-29
1.05876e-27
4.08125e-26
1.33202e-24
3.54327e-23
1.20702e-36
8.43192e-35
5.57807e-33
3.4243e-31
1.93066e-29
9.87021e-28
4.50416e-26
1.79777e-24
6.09658e-23
1.68141e-21
3.87191e-35
2.75107e-33
1.85489e-31
1.16356e-29
6.72417e-28
3.5376e-26
1.66931e-24
6.91756e-23
2.4339e-21
6.91234e-20
1.046e-33
7.55389e-32
5.18841e-30
3.32468e-28
1.96927e-26
1.06611e-24
5.19367e-23
2.21972e-21
7.99389e-20
2.31802e-18
2.30883e-32
1.69108e-30
1.18043e-28
7.70533e-27
4.66084e-25
2.58165e-23
1.28499e-21
5.5627e-20
2.00956e-18
6.21294e-17
1.25345e-44
8.18765e-43
5.03141e-41
2.84733e-39
1.4688e-37
6.81748e-36
2.80017e-34
9.96395e-33
2.98997e-31
7.32445e-30
6.41417e-43
4.24383e-41
2.64431e-39
1.51882e-37
7.95881e-36
3.75468e-34
1.56773e-32
5.66794e-31
1.72593e-29
4.28019e-28
3.02103e-41
2.02614e-39
1.28081e-37
7.47169e-36
3.98037e-34
1.91052e-32
8.12037e-31
2.98933e-29
9.26769e-28
2.33769e-26
1.27116e-39
8.64733e-38
5.55061e-36
3.29237e-34
1.78554e-32
8.73423e-31
3.78751e-29
1.42439e-27
4.51815e-26
1.16645e-24
4.70458e-38
3.24778e-36
2.11844e-34
1.27894e-32
7.07034e-31
3.53103e-29
1.56639e-27
6.04231e-26
1.97124e-24
5.23478e-23
1.50255e-36
1.05275e-34
6.98027e-33
4.29135e-31
2.42033e-29
1.2359e-27
5.62168e-26
2.23092e-24
7.49829e-23
2.04311e-21
4.04352e-35
2.87362e-33
1.93569e-31
1.21113e-29
6.96579e-28
3.6362e-26
1.69542e-24
6.90467e-23
2.37118e-21
6.52262e-20
8.90159e-34
6.40396e-32
4.37286e-30
2.77758e-28
1.6243e-26
8.63398e-25
4.10009e-23
1.6926e-21
5.8077e-20
1.56666e-18
3.95741e-46
2.56405e-44
1.56189e-42
8.7551e-41
4.4705e-39
2.05306e-37
8.3435e-36
2.93863e-34
8.73818e-33
2.12458e-31
2.01209e-44
1.31898e-42
8.13526e-41
4.6207e-39
2.39219e-37
1.11422e-35
4.59169e-34
1.63857e-32
4.92742e-31
1.20778e-29
9.41522e-43
6.24757e-41
3.90293e-39
2.24713e-37
1.18008e-35
5.5779e-34
2.33283e-32
8.44456e-31
2.57262e-29
6.3735e-28
3.93507e-41
2.64411e-39
1.67404e-37
9.778e-36
5.21345e-34
2.50335e-32
1.06387e-30
3.91314e-29
1.21085e-27
3.04302e-26
1.44637e-39
9.84374e-38
6.31911e-36
3.74671e-34
2.02982e-32
9.91046e-31
4.28518e-29
1.60469e-27
5.05859e-26
1.29438e-24
4.58747e-38
3.16224e-36
2.05841e-34
1.23906e-32
6.82207e-31
3.3883e-29
1.4919e-27
5.69615e-26
1.83237e-24
4.77406e-23
1.22659e-36
8.55765e-35
5.64437e-33
3.44638e-31
1.92658e-29
9.72467e-28
4.35635e-26
1.69332e-24
5.53445e-23
1.45222e-21
2.68558e-35
1.89302e-33
1.26249e-31
7.79969e-30
4.41383e-28
2.25606e-26
1.02302e-24
4.01336e-23
1.31074e-21
3.36109e-20
1.03922e-47
6.66934e-46
4.02227e-44
2.2309e-42
1.12656e-40
5.11521e-39
2.05518e-37
7.16084e-36
2.10917e-34
5.09018e-33
5.24294e-46
3.40073e-44
2.07402e-42
1.16387e-40
5.9489e-39
2.73421e-37
1.11168e-35
3.9153e-34
1.16319e-32
2.82145e-31
2.43451e-44
1.59636e-42
9.84653e-41
5.59165e-39
2.89351e-37
1.34669e-35
5.54331e-34
1.97468e-32
5.9222e-31
1.44547e-29
1.00951e-42
6.69304e-41
4.17679e-39
2.40149e-37
1.25885e-35
5.93643e-34
2.4753e-32
8.92503e-31
2.70482e-29
6.65316e-28
3.68094e-41
2.46765e-39
1.5583e-37
9.07394e-36
4.82006e-34
2.30389e-32
9.73479e-31
3.55466e-29
1.08972e-27
2.70552e-26
1.15822e-39
7.84919e-38
5.01508e-36
2.95701e-34
1.59137e-32
7.70755e-31
3.29944e-29
1.22003e-27
3.78404e-26
9.48074e-25
3.07313e-38
2.10383e-36
1.3589e-34
8.10471e-33
4.41317e-31
2.16253e-29
9.36239e-28
3.4983e-26
1.09401e-24
2.74666e-23
6.68298e-37
4.61427e-35
3.00709e-33
1.80972e-31
9.94075e-30
4.91014e-28
2.13962e-26
8.02171e-25
2.4987e-23
6.1486e-22
2.38755e-49
1.51639e-47
9.04735e-46
4.96169e-44
2.47639e-42
1.11102e-40
4.41142e-39
1.51997e-37
4.43368e-36
1.06222e-34
1.19419e-47
7.65853e-46
4.61534e-44
2.55755e-42
1.29011e-40
5.84963e-39
2.34622e-37
8.15621e-36
2.39494e-34
5.7544e-33
5.49782e-46
3.56049e-44
2.16724e-42
1.21347e-40
6.18633e-39
2.83485e-37
1.14864e-35
4.02921e-34
1.19116e-32
2.871e-31
2.26016e-44
1.47811e-42
9.08883e-41
5.14332e-39
2.65077e-37
1.22795e-35
5.02725e-34
1.7796e-32
5.29748e-31
1.28112e-29
8.17022e-43
5.39489e-41
3.35101e-39
1.91662e-37
9.98655e-36
4.67648e-34
1.93413e-32
6.90738e-31
2.06977e-29
5.02158e-28
2.54883e-41
1.69868e-39
1.06549e-37
6.15693e-36
3.24173e-34
1.53353e-32
6.40151e-31
2.30396e-29
6.94103e-28
1.68688e-26
6.7072e-40
4.50817e-38
2.85292e-36
1.66367e-34
8.8386e-33
4.21617e-31
1.77238e-29
6.41019e-28
1.93435e-26
4.6823e-25
1.4477e-38
9.79943e-37
6.24545e-35
3.66698e-33
1.96005e-31
9.39366e-30
3.95821e-28
1.42951e-26
4.27886e-25
1.01535e-23
8.64693e-20
2.00599e-20
4.71635e-21
6.11246e-22
3.9072e-20
2.38758e-18
1.57587e-16
8.07752e-15
1.0352e-13
1.13462e-26
1.05458e-24
9.76655e-23
8.61263e-21
6.71988e-19
4.39013e-17
1.06267e-14
2.72907e-09
0.000206424
1.46324e-25
1.30952e-23
1.18408e-21
1.12839e-19
1.35593e-17
1.18615e-15
2.43043e-14
0.000614278
1.45503e-24
1.47815e-22
1.47745e-20
1.28659e-18
8.34559e-17
2.08835e-15
6.59991e-13
0.00123554
6.55301e-24
5.69371e-22
4.41535e-20
2.91799e-18
1.8355e-16
4.6537e-13
7.64924e-06
1.28245e-23
1.11202e-21
3.01853e-27
2.39582e-25
1.88545e-23
1.48071e-21
1.23419e-19
1.05265e-17
6.5165e-16
9.71091e-12
1.34479e-05
3.94577e-26
3.02475e-24
2.22689e-22
1.52846e-20
1.00209e-18
6.64409e-17
1.2719e-15
3.47663e-05
3.52933e-25
2.75359e-23
2.17043e-21
1.77473e-19
1.69151e-17
8.54011e-16
6.41218e-14
9.02368e-05
1.77944e-24
1.36955e-22
1.0706e-20
8.05495e-19
5.03413e-17
3.68776e-15
5.59011e-11
4.41782e-05
3.57355e-24
2.68952e-22
6.46178e-28
4.81186e-26
3.46042e-24
2.36201e-22
1.53367e-20
9.36231e-19
4.78905e-17
3.33703e-15
8.98573e-15
9.07918e-27
6.71255e-25
4.74969e-23
3.1294e-21
1.89791e-19
1.07072e-17
6.41157e-16
2.43067e-13
8.89612e-26
6.42472e-24
4.51561e-22
3.0986e-20
2.06635e-18
1.19464e-16
2.255e-15
5.00574e-09
4.5402e-25
3.25022e-23
2.31012e-21
1.55879e-19
9.14397e-18
4.1338e-16
6.93552e-14
8.63101e-08
9.32445e-25
6.70364e-23
9.04664e-29
6.7171e-27
4.78096e-25
3.19618e-23
1.98872e-21
1.13826e-19
5.75633e-18
2.29805e-16
2.92764e-15
1.22568e-27
9.15379e-26
6.53894e-24
4.38601e-22
2.78865e-20
1.73175e-18
9.9828e-17
3.58433e-14
4.23928e-12
1.21325e-26
9.06087e-25
6.41149e-23
4.15279e-21
2.40832e-19
1.23274e-17
5.82946e-16
4.07107e-13
6.3078e-26
4.53716e-24
3.09797e-22
1.9666e-20
1.16431e-18
6.71551e-17
4.24926e-15
1.96536e-09
1.25748e-25
8.9796e-24
7.52285e-30
5.62973e-28
4.03864e-26
2.7257e-24
1.71443e-22
9.90195e-21
5.09223e-19
2.21071e-17
7.88569e-16
1.00031e-28
7.56019e-27
5.48233e-25
3.74003e-23
2.3834e-21
1.40761e-19
7.43151e-18
3.10093e-16
3.51475e-15
9.64114e-28
7.35046e-26
5.3389e-24
3.58059e-22
2.18153e-20
1.20745e-18
6.3162e-17
3.738e-15
4.95302e-27
3.65479e-25
2.55702e-23
1.66974e-21
1.03805e-19
6.43591e-18
3.82437e-16
1.33411e-14
9.70867e-27
7.06926e-25
4.88116e-23
3.14506e-21
1.89793e-19
1.06194e-17
4.9941e-16
1.49541e-14
4.01726e-31
2.97358e-29
2.10094e-27
1.38995e-25
8.52819e-24
4.78915e-22
2.4049e-20
1.03426e-18
3.64053e-17
1.17683e-15
5.29393e-30
3.953e-28
2.82265e-26
1.88865e-24
1.17226e-22
6.67058e-21
3.4024e-19
1.47469e-17
5.0253e-16
3.29159e-15
4.97675e-29
3.75383e-27
2.70369e-25
1.80889e-23
1.10562e-21
6.13268e-20
3.18223e-18
1.73008e-16
2.50098e-28
1.84496e-26
1.29255e-24
8.42541e-23
5.13108e-21
2.98964e-19
1.66478e-17
7.56087e-16
4.87455e-28
3.55387e-26
2.45885e-24
1.58415e-22
9.53817e-21
5.4381e-19
2.88887e-17
1.26631e-15
1.54566e-32
1.12188e-30
7.73681e-29
4.9673e-27
2.93731e-25
1.57793e-23
7.54769e-22
3.10293e-20
1.03111e-18
2.56527e-17
2.02472e-31
1.47888e-29
1.02786e-27
6.65566e-26
3.96739e-24
2.14528e-22
1.03046e-20
4.22195e-19
1.35735e-17
2.8667e-16
1.86845e-30
1.37413e-28
9.63316e-27
6.27578e-25
3.73228e-23
1.98865e-21
9.38206e-20
3.96616e-18
9.17464e-30
6.64478e-28
4.57087e-26
2.91406e-24
1.70699e-22
9.21278e-21
4.61205e-19
2.03394e-17
1.77974e-29
1.27712e-27
8.69923e-26
5.4933e-24
3.19277e-22
1.71265e-20
8.50186e-19
3.71152e-17
4.64418e-34
3.2972e-32
2.21563e-30
1.37932e-28
7.86239e-27
4.04255e-25
1.83747e-23
7.16105e-22
2.27286e-20
5.40426e-19
6.05464e-33
4.31602e-31
2.91422e-29
1.82352e-27
1.04391e-25
5.37589e-24
2.43439e-22
9.36086e-21
2.87207e-19
6.31575e-18
5.51784e-32
3.94264e-30
2.67601e-28
1.68427e-26
9.66561e-25
4.94547e-23
2.19548e-21
8.19539e-20
2.65977e-31
1.87586e-29
1.25569e-27
7.77533e-26
4.38661e-24
2.22593e-22
1.00746e-20
3.98189e-19
5.1284e-31
3.58894e-29
2.3841e-27
1.46552e-25
8.2171e-24
4.15273e-22
1.87582e-20
7.3976e-19
1.14962e-35
7.98357e-34
5.23228e-32
3.16511e-30
1.74568e-28
8.63984e-27
3.75733e-25
1.39457e-23
4.22876e-22
9.80059e-21
1.49226e-34
1.03885e-32
6.82525e-31
4.13773e-29
2.28454e-27
1.12856e-25
4.86913e-24
1.77327e-22
5.17843e-21
1.12751e-19
1.34947e-33
9.381e-32
6.16963e-30
3.75027e-28
2.07515e-26
1.02253e-24
4.35435e-23
1.53929e-21
6.43322e-33
4.40864e-31
2.86296e-29
1.71805e-27
9.37047e-26
4.55252e-24
1.92785e-22
6.93119e-21
1.23236e-32
8.38128e-31
5.4057e-29
3.2244e-27
1.74982e-25
8.46989e-24
3.57924e-22
1.28532e-20
2.47526e-37
1.68338e-35
1.07738e-33
6.34675e-32
3.39847e-30
1.62757e-28
6.82424e-27
2.43423e-25
7.09951e-24
1.60317e-22
3.1989e-36
2.1787e-34
1.39569e-32
8.22254e-31
4.39676e-29
2.09674e-27
8.70549e-26
3.04347e-24
8.55066e-23
1.81911e-21
2.88536e-35
1.95433e-33
1.24877e-31
7.34868e-30
3.92769e-28
1.86899e-26
7.69693e-25
2.63771e-23
1.36916e-34
9.12525e-33
5.74842e-31
3.34124e-29
1.76414e-27
8.28375e-26
3.36741e-24
1.1466e-22
2.60844e-34
1.72368e-32
1.07788e-30
6.22648e-29
3.2713e-27
1.53018e-25
6.20104e-24
2.10506e-22
2.98311e-10
8.22049e-08
1.27182e-13
2.20662e-13
3.74344e-10
6.56437e-15
2.1813e-11
1.55009e-13
4.77873e-10
3.54225e-13
7.89482e-09
1.56426e-16
3.2198e-15
6.41105e-16
4.05114e-14
1.17061e-15
1.39157e-13
2.4629e-18
5.29114e-17
1.25167e-17
2.53974e-16
2.30278e-17
4.34749e-16
4.27049e-20
8.59117e-19
2.01023e-19
4.24648e-18
3.70933e-19
7.6054e-18
7.14143e-22
1.44894e-20
3.13476e-21
6.54765e-20
5.72829e-21
1.18266e-19
3.05226e-06
0.000312161
0.00596832
0.00183164
1.75412e-06
5.42182e-05
7.00589e-08
4.67364e-06
0.000102342
2.77366e-09
1.08801e-07
1.11369e-07
0.000344977
7.1253e-11
3.08314e-06
0.000315682
3.9713e-12
6.13124e-09
5.13721e-11
2.37175e-06
8.37943e-05
2.11957e-07
8.55959e-08
0.000799322
7.05242e-05
6.75742e-05
3.95339e-09
1.23415e-05
0.000791008
5.05391e-05
1.44932e-07
5.57598e-09
5.79447e-05
0.00316632
8.21072e-06
0.00103811
2.90065e-09
1.01733e-05
0.000630397
0.000317088
8.031e-05
1.62685e-06
2.75008e-10
0.000136029
5.59824e-10
2.73405e-05
3.25946e-07
1.8872e-11
2.71856e-06
1.13921e-08
5.1646e-07
3.09267e-13
8.93417e-12
1.29569e-12
3.19691e-10
3.41426e-05
1.14212e-08
0.000188983
1.08719e-07
4.20618e-05
6.7316e-09
5.51379e-07
1.1443e-12
8.21589e-11
2.786e-05
6.30887e-06
0.000107386
1.93392e-05
1.45023e-08
7.42631e-09
9.02121e-13
0.00540456
0.00382474
0.00344324
0.00180412
0.00161629
0.000969682
0.00109368
1.3402e-05
1.51893e-07
1.14734e-11
1.23934e-05
1.71939e-07
9.09695e-13
1.97281e-10
5.43481e-10
6.86421e-09
1.29333e-13
1.35479e-06
0.000392136
9.40437e-09
4.94594e-06
9.9928e-06
1.14883e-07
7.87792e-13
1.437e-10
1.1291e-09
1.30193e-11
1.64181e-12
0.0028816
0.00143078
0.00130286
0.00108038
0.000975922
0.000391183
0.000435843
1.00129e-09
3.64572e-05
1.33638e-05
1.37131e-05
1.76302e-11
4.09321e-10
3.78031e-05
0.00376775
0.0011108
0.00235941
0.000481139
0.00108509
0.000630838
0.000261441
0.000332438
5.25321e-05
0.000347136
0.00010803
5.61464e-05
1.20535e-05
1.10544e-05
0.00035075
0.000105417
0.000108908
5.42685e-05
5.66382e-05
1.21259e-05
1.13188e-05
0.00222338
0.000786373
0.00219553
0.000645278
0.000657873
0.00020049
0.000195286
0.00222086
0.00080184
0.0022347
0.0006531
0.000661509
0.000201136
0.000196337
0.00109775
0.00226356
0.00202472
0.000523394
0.000289319
0.00024734
0.00059882
1.33297e-11
3.13562e-10
3.26123e-05
3.55611e-11
6.5825e-06
1.6397e-12
1.75786e-06
0.000251728
9.28745e-05
6.96921e-05
4.65561e-05
3.32046e-05
9.13062e-06
5.88171e-06
0.00204459
0.000450354
0.000916835
0.00031762
0.000671951
0.000263234
0.000116831
0.00185599
0.000740137
0.00211525
0.000610367
0.00051735
0.000178567
0.000144594
2.10272e-08
1.22379e-05
6.30162e-06
9.54369e-13
1.64635e-06
1.04235e-13
4.64406e-07
0.000332045
0.00010637
0.00029441
0.000310613
9.81057e-05
0.000103248
2.88924e-05
2.93559e-09
1.92977e-12
2.39465e-08
1.10101e-09
9.85894e-14
4.22047e-11
2.49441e-13
0.000722574
0.000619804
0.00136192
0.000325969
4.88963e-05
0.000144641
0.000122593
0.00016369
1.94075e-05
4.19272e-05
7.46944e-06
1.83232e-05
2.82852e-06
9.86467e-07
0.000475784
0.00146049
0.00102607
0.000250867
0.000385948
0.00010087
5.99567e-05
4.65827e-06
7.45242e-09
2.69991e-10
5.35035e-13
4.84231e-08
1.03605e-13
1.06614e-08
0.000184005
0.000580924
0.000525244
0.000134853
4.20207e-05
3.56131e-05
0.000153184
9.82353e-11
1.21229e-13
8.55272e-14
4.78394e-11
5.5098e-06
1.79034e-12
1.72156e-06
0.000539466
0.000268171
0.000231161
0.00011799
9.80139e-05
3.12459e-05
3.90384e-05
3.36951e-08
1.15483e-11
2.43493e-06
3.57163e-13
1.14775e-09
5.78999e-13
5.99513e-07
0.000421338
4.2955e-05
0.000363035
0.000186949
2.23466e-05
1.7051e-05
0.000221918
0.000302545
4.85546e-05
0.000267958
8.76282e-05
1.35641e-05
1.07841e-05
0.000101763
0.000651347
0.000377271
0.000101375
0.000141895
6.98204e-05
3.02983e-05
1.28579e-05
7.908e-11
1.81264e-13
9.62973e-12
3.19043e-12
1.56999e-09
6.98939e-13
1.08504e-13
2.91352e-13
2.0461e-07
8.05545e-12
3.37581e-13
5.38883e-12
1.07258e-08
1.5613e-11
5.78456e-09
6.37614e-13
4.49116e-11
1.83596e-12
9.56478e-12
1.07551e-13
1.85491e-13
1.05553e-10
2.57735e-13
1.30091e-11
8.75715e-09
1.04772e-10
1.43386e-11
2.5175e-13
0.000120764
0.000159159
0.000106128
4.4704e-05
2.7109e-05
3.3878e-05
7.02063e-06
0.000187991
5.89207e-05
0.00023122
4.88495e-06
3.87752e-05
2.89039e-05
3.16408e-06
2.2073e-12
1.6742e-10
5.99498e-11
3.65188e-13
3.77621e-12
7.53427e-14
4.30944e-13
7.99775e-10
1.42714e-13
4.92602e-12
1.61888e-13
6.35184e-12
1.44429e-14
1.75938e-13
1.36388e-13
1.04157e-12
4.0993e-12
6.91954e-09
5.03571e-10
1.94997e-12
1.0074e-11
2.34122e-05
3.36986e-06
2.50988e-05
1.5383e-06
1.04472e-07
1.37661e-06
1.17767e-07
7.48005e-05
2.03059e-05
0.000215833
0.000105048
1.42432e-06
7.26527e-06
3.26972e-05
3.3768e-06
2.39314e-05
2.52436e-05
1.54246e-06
1.0518e-07
1.39496e-06
1.17862e-07
0.000259616
6.75988e-05
0.000253162
4.67996e-05
6.22656e-06
4.48772e-05
6.69597e-06
0.000253693
7.0513e-05
0.000259976
4.68128e-05
6.13417e-06
6.66492e-06
4.47522e-05
0.000120629
0.000168641
0.000360878
8.52189e-05
6.38476e-06
2.03216e-05
3.29351e-05
2.69517e-05
7.02797e-05
0.000173211
5.21818e-05
1.19049e-06
5.13533e-06
1.82859e-05
0.000342524
4.8684e-05
0.00013833
1.56237e-05
5.32725e-05
1.52831e-05
3.74772e-06
1.11452e-05
6.74422e-06
2.23028e-06
1.78066e-06
5.12537e-07
2.57912e-07
5.5669e-08
3.68557e-07
3.06974e-13
2.95141e-11
7.63277e-11
4.08435e-07
2.75224e-13
1.98764e-12
0.000128315
1.30615e-05
0.000132984
2.91277e-05
1.37279e-06
2.77254e-05
1.50075e-06
0.000197233
1.87743e-05
4.76239e-05
1.00532e-05
2.95106e-05
4.37598e-06
1.12646e-06
1.73796e-07
1.73683e-13
1.55068e-12
5.86444e-13
3.19439e-08
8.04859e-14
5.64581e-12
8.23017e-05
3.7588e-05
7.23541e-06
1.21283e-06
2.9607e-05
5.23293e-06
0.000100419
2.00188e-05
1.42747e-06
1.36611e-05
7.68701e-08
1.05071e-06
6.14907e-07
4.3167e-08
0.000129894
1.31342e-05
0.000133766
2.92152e-05
1.36757e-06
1.50247e-06
2.78097e-05
0.000116161
6.94981e-06
9.1222e-05
1.05507e-06
2.37319e-05
1.71948e-05
6.56544e-07
1.28287e-08
1.99212e-11
2.50239e-08
7.13331e-13
1.1506e-11
1.08925e-13
2.32735e-14
1.98918e-12
2.62163e-09
8.65841e-13
2.99365e-09
7.00853e-13
3.08144e-12
1.05526e-13
3.63575e-06
1.2329e-07
4.04488e-06
5.0691e-07
1.16909e-08
4.50182e-07
1.3247e-08
1.23974e-07
3.72949e-06
4.07062e-06
5.08969e-07
1.19076e-08
1.3302e-08
4.58418e-07
1.36175e-05
2.71933e-05
0.000132357
1.78547e-05
6.29877e-07
8.98333e-06
1.59844e-06
9.66924e-05
2.20321e-05
8.09342e-05
7.39523e-06
1.6007e-06
1.12585e-06
9.72545e-06
8.92918e-05
5.1899e-06
2.16691e-05
4.49162e-06
2.53556e-05
5.88165e-06
5.81964e-07
7.27613e-14
9.28065e-10
2.66805e-07
1.1306e-13
2.10042e-10
1.47771e-14
9.83939e-14
2.63344e-11
3.56513e-10
1.02668e-13
1.37055e-13
1.70422e-10
1.4591e-14
1.45736e-13
5.28526e-13
9.18747e-13
1.38523e-10
2.38465e-12
7.5786e-14
1.9465e-13
2.73159e-14
2.88009e-06
4.65993e-08
1.736e-06
8.70762e-09
3.41535e-07
1.96399e-07
4.86248e-09
4.2859e-05
3.1373e-06
4.25187e-07
3.47398e-07
1.38278e-05
1.98055e-06
1.15099e-05
3.79413e-06
3.41554e-05
6.08816e-05
1.01836e-05
1.25771e-07
4.81933e-06
3.22702e-07
3.04255e-05
5.91045e-06
2.70354e-05
4.29969e-06
2.70557e-05
5.91527e-06
5.3898e-07
9.15743e-05
3.76943e-06
2.48882e-05
3.12845e-06
2.42707e-05
5.10504e-06
3.50588e-07
1.50189e-05
7.37315e-05
8.39469e-05
1.7003e-05
1.39284e-05
1.08832e-06
1.50434e-06
5.11363e-05
1.16778e-05
9.3995e-06
7.7984e-06
6.13273e-06
5.01102e-07
7.13101e-07
5.36701e-05
2.31254e-06
1.26331e-05
1.08203e-06
7.9756e-06
1.12831e-06
9.08012e-08
7.26472e-14
5.69706e-12
1.05265e-13
8.76525e-12
1.24206e-09
1.22002e-13
3.33193e-12
6.39513e-07
2.7371e-06
7.13706e-06
2.68348e-07
5.66883e-09
8.66107e-08
1.80599e-08
2.15252e-05
4.34224e-06
9.85215e-08
1.92934e-06
3.30379e-06
1.40059e-06
2.6024e-05
2.79875e-06
5.68906e-08
3.5985e-07
1.42714e-08
9.5038e-08
9.80795e-09
1.44985e-09
5.61516e-06
1.8843e-06
1.9018e-05
2.0035e-07
3.65569e-06
1.18326e-06
5.31211e-08
2.88038e-05
3.87813e-05
3.07684e-05
1.04326e-06
1.34392e-06
1.48428e-06
9.42831e-07
2.97775e-05
3.93272e-05
3.11719e-05
1.05723e-06
1.39379e-06
9.74209e-07
1.50627e-06
9.02331e-12
3.88595e-13
5.57592e-09
8.57544e-15
4.32298e-13
9.85907e-14
1.84655e-10
2.31954e-14
8.85406e-14
2.18376e-15
2.62418e-13
2.1993e-09
2.12541e-14
4.04738e-12
5.88174e-06
1.07262e-05
2.57646e-06
1.34891e-06
4.67991e-07
2.18588e-07
3.32814e-08
1.12295e-10
2.82949e-13
9.99431e-09
6.76841e-15
1.87012e-13
2.29434e-14
1.77648e-12
2.92825e-11
8.02323e-14
4.73459e-13
6.46427e-15
1.13521e-13
1.29847e-12
3.22807e-14
1.95816e-08
2.55082e-07
7.75184e-07
8.35312e-08
6.22848e-10
2.00956e-09
2.63432e-08
1.08599e-05
2.19147e-07
8.12652e-06
1.58556e-06
4.73915e-08
3.11638e-08
2.26605e-06
1.36858e-05
1.0959e-05
4.48038e-05
3.13099e-06
6.86834e-08
4.05801e-07
6.00949e-07
1.56753e-05
1.52397e-07
5.78982e-06
3.95921e-08
1.80161e-06
5.31818e-07
1.03185e-08
1.24402e-05
1.36787e-06
1.52294e-06
4.57654e-07
5.07502e-07
3.63196e-08
3.2369e-08
1.33638e-05
1.36758e-06
1.51722e-06
4.48439e-07
5.03194e-07
3.61578e-08
3.22595e-08
1.80827e-05
1.12508e-07
3.08744e-06
1.36537e-07
3.80731e-06
4.13726e-07
9.33914e-09
3.05019e-05
9.76241e-07
9.06086e-06
3.4859e-07
4.51776e-06
7.73087e-07
3.50539e-08
2.53515e-05
2.37579e-05
1.80903e-05
1.10201e-06
7.63667e-07
4.81502e-07
7.0258e-07
4.64689e-05
1.76489e-05
1.64997e-06
1.97825e-06
7.30058e-06
4.18725e-07
7.50513e-08
8.55376e-17
9.83293e-16
1.18278e-16
8.44632e-17
1.19036e-16
3.8274e-15
9.35873e-16
4.63147e-15
1.47588e-14
4.20285e-09
2.57013e-14
3.52713e-15
2.65265e-13
2.36285e-14
9.58018e-16
1.90553e-14
1.96978e-13
4.01704e-13
4.47254e-13
1.69291e-14
3.56952e-14
1.16089e-15
4.05149e-21
4.7871e-17
6.59504e-18
6.44063e-20
1.00062e-20
1.28865e-21
2.94458e-21
8.76667e-20
2.74376e-20
4.93895e-20
6.39013e-19
7.67013e-19
8.87119e-19
6.4459e-19
5.10064e-16
1.5341e-17
3.2089e-16
3.86493e-16
1.80024e-17
8.37206e-17
1.07036e-17
9.43387e-18
2.43359e-20
6.28561e-20
1.93298e-20
6.00919e-20
6.05899e-19
3.68715e-19
1.35898e-20
2.47773e-21
5.47471e-21
1.28314e-21
6.96822e-21
8.9864e-21
1.83549e-22
3.31336e-24
6.90157e-22
1.37716e-23
2.50465e-25
7.35462e-18
1.28723e-16
1.13099e-16
6.14086e-18
3.17014e-18
5.58166e-18
3.47367e-18
4.89817e-17
2.04507e-16
3.99823e-17
2.35049e-16
5.90982e-19
3.23258e-18
4.80983e-18
3.5478e-17
7.35236e-19
5.63598e-19
7.01204e-19
6.54065e-18
3.24343e-18
6.80591e-18
3.38328e-18
9.09404e-18
8.64876e-19
1.58723e-17
2.58561e-20
3.69762e-16
4.49847e-12
4.62199e-17
3.34102e-16
2.85984e-20
3.13046e-19
2.88004e-19
4.13919e-18
4.35819e-20
1.26055e-20
5.76247e-21
2.9362e-19
1.21675e-19
2.53799e-19
1.45674e-19
8.3482e-19
4.0947e-19
6.94031e-20
1.99737e-18
9.66985e-18
1.57554e-18
1.0534e-17
5.31181e-17
2.82914e-17
2.41291e-17
2.77029e-18
2.27655e-18
9.47607e-19
9.16458e-19
2.33986e-16
2.24933e-17
2.50843e-16
1.33201e-17
1.96393e-17
4.18769e-15
3.21971e-16
6.53629e-19
1.35493e-21
1.17262e-19
5.5747e-19
2.53152e-20
9.93532e-21
2.35701e-20
4.49395e-22
4.99436e-21
7.32405e-21
2.58296e-21
2.80171e-20
5.14143e-20
2.99396e-20
4.31798e-20
3.73181e-20
1.82786e-19
4.37176e-19
1.49302e-19
4.90321e-19
9.02007e-18
1.61394e-18
1.48982e-18
5.59752e-19
1.90429e-20
7.35284e-20
1.47809e-20
7.34633e-20
3.57531e-19
1.16911e-17
2.7797e-19
5.44199e-21
9.5348e-23
2.98613e-16
6.84918e-18
1.98684e-20
4.45385e-19
1.30243e-19
3.90581e-22
8.93084e-21
2.21871e-21
7.01484e-24
1.60375e-22
3.49561e-15
2.0709e-15
4.65042e-14
3.14425e-15
1.48352e-15
1.52024e-14
1.32143e-15
2.01261e-15
1.49222e-16
5.19685e-16
1.01491e-16
1.41652e-16
6.73949e-17
6.25424e-17
1.09287e-23
6.78137e-22
6.4341e-25
1.40771e-24
9.4915e-25
3.21641e-23
9.76372e-23
1.23907e-23
5.56907e-23
3.68962e-20
1.78202e-18
2.17917e-21
5.88149e-21
7.57996e-22
3.26931e-21
1.19857e-19
4.1527e-20
3.11363e-19
2.0543e-19
6.1983e-18
4.55623e-18
2.26325e-27
1.61939e-25
1.80484e-27
9.82813e-26
2.27694e-30
2.08645e-31
5.05181e-31
5.71049e-32
1.19625e-26
3.87184e-28
1.26063e-27
5.61168e-25
7.09949e-29
9.34706e-28
3.50617e-26
4.51699e-25
1.21778e-25
1.18559e-25
9.84604e-26
5.35364e-31
2.187e-31
7.97141e-31
2.14134e-32
9.30047e-31
2.78055e-32
4.02493e-31
1.65567e-31
2.67503e-31
9.1615e-33
5.11403e-32
1.86007e-31
2.32316e-31
7.83863e-33
7.44504e-26
1.58177e-26
1.63523e-26
6.42706e-25
2.20878e-24
5.57512e-24
9.95194e-25
7.12799e-27
1.22504e-26
3.87211e-27
3.63856e-28
7.49872e-28
1.98273e-28
7.8903e-28
8.91522e-25
4.44213e-25
8.94432e-25
4.89995e-32
2.54656e-32
1.0358e-32
3.42438e-31
2.27253e-31
3.32018e-32
1.6123e-31
1.09386e-31
1.61734e-32
5.87931e-32
1.12723e-33
7.783e-33
2.75775e-32
4.80118e-32
7.57179e-33
2.739e-32
1.14932e-33
5.72072e-34
4.74229e-33
1.34595e-32
2.37674e-32
6.22549e-34
3.81897e-33
1.32336e-32
2.24158e-34
2.21628e-33
5.02491e-33
9.32447e-33
2.56773e-34
1.86081e-33
4.84757e-33
8.69905e-34
3.44496e-32
6.02852e-33
1.87129e-32
6.48639e-33
1.90354e-32
8.23624e-34
4.20352e-34
1.72774e-32
2.79781e-33
9.04106e-33
2.69947e-33
9.23485e-33
4.01094e-34
4.04701e-29
1.67935e-27
1.48185e-27
1.48675e-27
1.07328e-28
5.95011e-29
7.29239e-29
8.50175e-29
4.64782e-22
4.19502e-23
5.69561e-22
4.65083e-22
5.60096e-22
3.97825e-22
4.18871e-21
6.80569e-23
3.2778e-23
6.9371e-23
6.42323e-24
3.00553e-23
1.79652e-21
8.25877e-24
6.43045e-24
7.9955e-24
6.09444e-23
1.47248e-22
1.14274e-28
2.21585e-26
2.71227e-27
5.62649e-27
2.35906e-26
8.63115e-28
1.71168e-28
2.24657e-20
2.26084e-21
2.37555e-20
2.23307e-20
2.35717e-20
2.0193e-20
1.9349e-19
3.51927e-21
1.62811e-21
2.54078e-21
1.20455e-19
9.74376e-21
1.37737e-24
2.34766e-20
7.77738e-21
1.39475e-19
8.24761e-20
6.4935e-20
6.27186e-20
2.68857e-21
1.40541e-20
9.19608e-21
3.0162e-22
1.15677e-21
1.02338e-20
2.12587e-20
1.01145e-21
1.01211e-20
3.15034e-22
1.49532e-22
1.19873e-20
3.22548e-22
4.569e-21
5.94063e-22
4.74509e-21
1.25737e-22
2.36629e-23
1.22605e-22
1.013e-21
1.53735e-21
3.20481e-23
5.98819e-23
9.23232e-22
2.45962e-21
3.90648e-19
2.62106e-22
4.01964e-20
5.01833e-24
2.78513e-21
1.17839e-25
7.7655e-23
1.12283e-26
7.51756e-24
3.7664e-24
1.71162e-22
7.96953e-23
4.34548e-23
4.40191e-22
2.36477e-23
3.60566e-22
1.78741e-20
1.18859e-21
1.44084e-20
8.55962e-25
2.90279e-25
1.83346e-23
3.48347e-24
1.05471e-22
4.96715e-24
6.31827e-23
2.61457e-24
4.95604e-23
2.13808e-21
4.86335e-23
1.23659e-21
1.68202e-21
3.67417e-21
2.40934e-26
8.1636e-27
1.56616e-25
2.17666e-23
9.63576e-26
2.26856e-25
3.68524e-24
8.11878e-26
2.07991e-24
1.19978e-22
1.32035e-22