/*--------------------------------*- C++ -*----------------------------------*\
  =========                 |
  \\      /  F ield         | OpenFOAM: The Open Source CFD Toolbox
   \\    /   O peration     | Website:  https://openfoam.org
    \\  /    A nd           | Version:  9
     \\/     M anipulation  |
\*---------------------------------------------------------------------------*/
FoamFile
{
    format      ascii;
    class       volScalarField;
    location    "0.0014";
    object      p;
}
// * * * * * * * * * * * * * * * * * * * * * * * * * * * * * * * * * * * * * //

dimensions      [1 -1 -2 0 0 0 0];

internalField   nonuniform List<scalar> 
11341
(
101298
101298
101298
101298
101298
101298
101298
101298
101298
101299
101298
101298
101298
101298
101298
101298
101298
101298
101298
101298
101298
101298
101298
101298
101298
101298
101298
101298
101298
101298
101304
101299
101298
101298
101298
101298
101298
101298
101298
101298
101298
101298
101298
101298
101298
101298
101298
101298
101298
101298
101298
101298
101298
101298
101298
101298
101298
101298
101298
101298
101298
101298
101298
101298
101298
101298
101298
101298
101298
101298
101298
101298
101298
101298
101298
101298
101298
101298
101298
101298
101298
101298
101298
101298
101298
101298
101298
101298
101298
101298
101298
101298
101298
101298
101298
101298
101298
101298
101298
101298
101298
101298
101298
101298
101298
101298
101298
101298
101298
101298
101298
101298
101298
101298
101298
101298
101298
101298
101298
101298
101298
101298
101298
101298
101298
101298
101298
101298
101298
101298
101298
101298
101298
101298
101298
101298
101298
101298
101298
101298
101298
101298
101298
101298
101298
101298
101298
101298
101298
101298
101298
101298
101298
101298
101298
101298
101298
101298
101298
101298
101298
101298
101298
101298
101298
101298
101298
101298
101298
101298
101298
101298
101298
101298
101298
101298
101298
101298
101298
101298
101298
101298
101298
101298
101298
101298
101298
101298
101298
101298
101298
101298
101298
101298
101298
101298
101298
101298
101298
101298
101298
101298
101298
101298
101298
101298
101298
101298
101298
101298
101298
101298
101298
101298
101298
101298
101298
101298
101298
101298
101298
101298
101298
101298
101298
101298
101298
101298
101298
101298
101298
101298
101298
101298
101298
101298
101298
101298
101298
101298
101298
101298
101298
101298
101298
101298
101298
101298
101298
101298
101298
101298
101298
101298
101298
101298
101298
101298
101298
101298
101298
101298
101298
101298
101298
101298
101298
101298
101298
101298
101298
101298
101298
101298
101298
101298
101298
101298
101298
101298
101298
101298
101298
101298
101298
101298
101298
101298
101298
101298
101298
101298
101298
101298
101298
101298
101298
101298
101298
101298
101298
101298
101298
101298
101298
101298
101298
101298
101298
101298
101298
101298
101298
101298
101298
101298
101298
101298
101298
101298
101298
101298
101298
101298
101298
101298
101298
101298
101298
101298
101298
101298
101298
101298
101298
101298
101298
101298
101298
101298
101298
101298
101298
101298
101298
101298
101298
101298
101298
101298
101298
101298
101298
101298
101298
101298
101298
101298
101298
101298
101298
101298
101298
101298
101298
101298
101298
101298
101298
101298
101298
101298
101298
101298
101298
101298
101298
101298
101298
101298
101298
101298
101298
101298
101298
101298
101298
101298
101298
101298
101298
101298
101298
101298
101298
101298
101298
101298
101298
101298
101298
101298
101298
101298
101298
101298
101298
101298
101298
101298
101298
101298
101298
101298
101298
101298
101298
101298
101298
101298
101298
101298
101298
101298
101298
101298
101298
101298
101298
101298
101298
101298
101298
101298
101298
101298
101298
101298
101298
101298
101298
101298
101298
101298
101298
101298
101298
101298
101298
101298
101298
101298
101298
101298
101298
101298
101298
101298
101298
101298
101298
101298
101298
101298
101298
101298
101298
101298
101298
101298
101298
101298
101298
101298
101298
101298
101298
101298
101298
101298
101298
101298
101298
101298
101298
101298
101298
101298
101298
101298
101298
101298
101298
101298
101298
101298
101298
101298
101298
101298
101298
101298
101298
101298
101298
101298
101298
101298
101298
101298
101298
101298
101298
101298
101298
101298
101298
101298
101298
101298
101298
101298
101298
101298
101298
101298
101298
101298
101298
101298
101298
101298
101298
101298
101298
101298
101298
101298
101298
101298
101298
101298
101298
101298
101298
101298
101298
101298
101298
101298
101298
101298
101298
101298
101298
101298
101298
101298
101298
101298
101298
101298
101298
101298
101298
101298
101298
101298
101298
101298
101298
101298
101298
101298
101298
101298
101298
101298
101298
101298
101298
101298
101298
101298
101298
101298
101298
101298
101298
101298
101298
101298
101298
101298
101298
101298
101298
101298
101298
101298
101298
101298
101298
101298
101298
101298
101298
101298
101298
101298
101298
101298
101298
101298
101298
101298
101298
101298
101298
101298
101298
101298
101298
101298
101298
101298
101298
101298
101298
101298
101298
101298
101298
101298
101298
101298
101298
101298
101298
101298
101298
101298
101298
101298
101298
101298
101298
101298
101298
101298
101298
101298
101298
101298
101298
101298
101298
101298
101298
101298
101298
101298
101298
101298
101298
101298
101298
101298
101298
101298
101298
101298
101298
101298
101298
101298
101298
101298
101298
101298
101298
101298
101298
101298
101298
101298
101298
101298
101298
101298
101298
101298
101298
101298
101298
101298
101298
101298
101298
101298
101298
101298
101298
101298
101298
101298
101298
101298
101298
101298
101298
101298
101298
101298
101298
101298
101298
101298
101298
101298
101298
101298
101298
101298
101298
101298
101298
101298
101298
101298
101298
101298
101298
101298
101298
101298
101298
101298
101298
101298
101298
101298
101298
101298
101298
101298
101298
101298
101298
101298
101298
101298
101298
101298
101298
101298
101298
101298
101298
101298
101298
101298
101298
101298
101298
101298
101298
101298
101298
101298
101298
101298
101298
101298
101298
101298
101298
101298
101298
101298
101298
101298
101298
101298
101298
101298
101298
101298
101298
101298
101298
101298
101298
101298
101298
101298
101298
101298
101298
101298
101298
101298
101298
101298
101298
101298
101298
101298
101298
101298
101298
101298
101298
101298
101298
101298
101298
101298
101298
101298
101298
101298
101298
101298
101298
101298
101298
101298
101298
101298
101298
101298
101298
101298
101298
101298
101298
101298
101298
101298
101298
101298
101298
101298
101298
101298
101298
101298
101298
101298
101298
101298
101298
101298
101298
101298
101298
101298
101298
101298
101298
101298
101298
101298
101298
101298
101298
101298
101298
101298
101298
101298
101298
101298
101298
101298
101298
101298
101298
101298
101298
101298
101298
101298
101298
101298
101298
101298
101298
101298
101298
101298
101298
101298
101298
101298
101298
101298
101298
101298
101298
101298
101298
101298
101298
101298
101298
101298
101298
101298
101298
101298
101298
101298
101298
101298
101298
101298
101298
101298
101298
101298
101298
101298
101298
101298
101298
101298
101298
101298
101298
101298
101298
101298
101298
101298
101298
101298
101298
101298
101298
101298
101298
101298
101298
101298
101298
101298
101298
101298
101298
101298
101298
101298
101298
101298
101298
101298
101298
101298
101298
101298
101298
101298
101298
101298
101298
101298
101298
101298
101298
101298
101298
101298
101298
101298
101298
101298
101298
101298
101298
101298
101298
101298
101298
101298
101298
101298
101298
101298
101298
101298
101298
101298
101298
101298
101298
101298
101298
101298
101298
101298
101298
101298
101298
101298
101298
101298
101298
101298
101298
101298
101298
101298
101298
101298
101298
101298
101298
101298
101298
101298
101298
101298
101298
101298
101298
101298
101298
101298
101298
101298
101298
101298
101298
101298
101298
101298
101298
101298
101298
101298
101298
101298
101298
101298
101298
101298
101298
101298
101298
101298
101298
101298
101298
101298
101298
101298
101298
101298
101298
101298
101298
101298
101298
101298
101298
101298
101298
101298
101298
101298
101298
101298
101298
101298
101298
101298
101298
101298
101298
101298
101298
101298
101298
101298
101298
101298
101298
101298
101298
101298
101298
101298
101298
101298
101298
101298
101298
101298
101298
101298
101298
101298
101298
101298
101298
101298
101298
101298
101298
101298
101298
101298
101298
101298
101298
101298
101298
101298
101298
101298
101298
101298
101298
101298
101298
101298
101298
101298
101298
101298
101298
101298
101298
101298
101298
101298
101298
101298
101298
101298
101298
101298
101298
101298
101298
101298
101298
101298
101298
101298
101298
101298
101298
101298
101298
101298
101298
101298
101298
101298
101298
101298
101298
101298
101298
101298
101298
101298
101298
101298
101298
101298
101298
101298
101298
101298
101298
101298
101298
101298
101298
101298
101298
101298
101298
101298
101298
101298
101298
101298
101298
101298
101298
101298
101298
101298
101298
101298
101298
101298
101298
101298
101298
101298
101298
101298
101298
101298
101298
101298
101298
101298
101298
101298
101298
101298
101298
101298
101298
101298
101298
101298
101298
101298
101298
101298
101298
101298
101298
101298
101298
101298
101298
101298
101298
101298
101298
101298
101298
101298
101298
101298
101298
101298
101298
101298
101298
101298
101298
101298
101298
101298
101298
101298
101298
101298
101298
101298
101298
101298
101298
101298
101298
101298
101298
101298
101298
101298
101298
101298
101298
101298
101298
101298
101298
101298
101298
101298
101298
101298
101298
101298
101298
101298
101298
101298
101298
101298
101298
101298
101298
101298
101298
101298
101298
101298
101298
101298
101298
101298
101298
101298
101298
101298
101298
101298
101298
101298
101298
101298
101298
101298
101298
101298
101298
101298
101298
101298
101298
101298
101298
101298
101298
101298
101298
101298
101298
101298
101298
101298
101298
101298
101298
101298
101298
101298
101298
101298
101298
101298
101298
101298
101298
101298
101298
101298
101298
101298
101298
101298
101298
101298
101298
101298
101298
101298
101298
101298
101298
101298
101298
101298
101298
101298
101298
101298
101298
101298
101298
101298
101298
101298
101298
101298
101298
101298
101298
101298
101298
101298
101298
101298
101298
101298
101298
101298
101298
101298
101298
101298
101298
101298
101298
101298
101298
101298
101298
101298
101298
101298
101298
101298
101298
101298
101298
101298
101298
101298
101298
101298
101298
101298
101298
101298
101298
101298
101298
101298
101298
101298
101298
101298
101298
101298
101298
101298
101298
101298
101298
101298
101298
101298
101298
101298
101298
101298
101298
101298
101298
101298
101298
101298
101298
101298
101298
101298
101298
101298
101298
101298
101298
101298
101298
101298
101298
101298
101298
101298
101298
101298
101298
101298
101298
101298
101298
101298
101298
101298
101298
101298
101298
101298
101298
101298
101298
101298
101298
101298
101298
101298
101298
101298
101298
101298
101298
101298
101298
101298
101298
101298
101298
101298
101298
101298
101298
101298
101298
101298
101298
101298
101298
101298
101298
101298
101298
101298
101298
101298
101298
101298
101298
101298
101298
101298
101298
101298
101298
101298
101298
101298
101298
101298
101298
101298
101298
101298
101298
101298
101298
101298
101298
101298
101298
101298
101298
101298
101298
101298
101298
101298
101298
101298
101298
101298
101298
101298
101298
101298
101298
101298
101298
101298
101298
101298
101298
101298
101298
101298
101298
101298
101298
101298
101298
101298
101298
101298
101298
101298
101298
101298
101298
101298
101298
101298
101298
101298
101298
101298
101298
101298
101298
101298
101298
101298
101298
101298
101298
101298
101298
101298
101298
101298
101298
101298
101298
101298
101298
101298
101298
101298
101298
101298
101298
101298
101298
101298
101298
101298
101298
101298
101298
101298
101298
101298
101298
101298
101298
101298
101298
101298
101298
101298
101298
101298
101298
101298
101298
101298
101298
101298
101298
101298
101298
101298
101298
101298
101298
101298
101298
101298
101298
101298
101298
101298
101298
101298
101298
101298
101298
101298
101298
101298
101298
101298
101298
101298
101298
101298
101298
101298
101298
101298
101298
101298
101298
101298
101298
101298
101298
101298
101298
101298
101298
101298
101298
101298
101298
101298
101298
101298
101298
101298
101298
101298
101298
101298
101298
101298
101298
101298
101298
101298
101298
101298
101298
101298
101298
101298
101298
101298
101298
101298
101298
101298
101298
101298
101298
101298
101298
101298
101298
101298
101298
101298
101298
101298
101298
101298
101298
101298
101298
101298
101298
101298
101298
101298
101298
101298
101298
101298
101298
101298
101298
101298
101298
101298
101298
101298
101298
101298
101298
101298
101298
101298
101298
101298
101298
101298
101298
101298
101298
101298
101298
101298
101298
101298
101298
101298
101298
101298
101298
101298
101298
101298
101298
101298
101298
101298
101298
101298
101298
101298
101298
101298
101298
101298
101298
101298
101298
101298
101298
101298
101298
101298
101298
101298
101298
101298
101298
101298
101298
101298
101298
101298
101298
101298
101298
101298
101298
101298
101298
101298
101298
101298
101298
101298
101298
101298
101298
101298
101298
101298
101298
101298
101298
101298
101298
101298
101298
101298
101298
101298
101298
101298
101298
101298
101298
101298
101298
101298
101298
101298
101298
101298
101298
101298
101298
101298
101298
101298
101298
101298
101298
101298
101298
101298
101298
101298
101298
101298
101298
101298
101298
101298
101298
101298
101298
101298
101298
101298
101298
101298
101298
101298
101298
104261
197926
101298
101298
101887
101298
101298
101302
101298
101298
102311
101298
101298
101302
101298
101298
101298
101298
101300
101298
101298
101298
101298
101298
101298
101298
101298
101298
101298
101298
101318
101298
101298
101298
101298
101298
101298
101298
101298
101298
101298
101298
101298
101298
101298
101298
101298
101298
101298
101298
101298
101298
101298
101298
101298
101298
101298
101298
101298
101298
101298
101298
101298
101298
101298
101298
101298
101298
101298
101298
101298
101298
101298
101410
101303
101298
101301
101298
101500
101298
101298
101298
101463
101304
101298
101298
101298
101298
101299
101298
101299
101298
101298
101298
101298
101298
101298
101298
101298
101298
101298
101298
101298
101298
101298
101298
101298
101298
101298
101298
101298
101298
101298
101298
101299
101298
101377
101298
101298
101298
101298
101298
101298
101298
101298
101298
101298
101298
101298
101298
101298
101298
101298
101298
101298
101298
101298
101298
101298
101298
101298
101298
101298
101298
101298
101300
101298
101298
101298
101298
101298
101298
101298
101298
101298
101298
101298
101298
101298
101298
101298
101298
101298
101298
101298
101298
101298
101298
101298
101298
101298
101298
101298
101298
101298
101298
101298
101298
101298
101298
101298
101298
101298
101298
101298
101298
101298
101298
101298
101979
101369
101732
101322
101326
101445
101298
101321
101298
101300
101313
101298
101299
101298
101299
101299
101298
101303
101298
101298
101402
101332
101299
101298
101298
101298
101298
101298
101298
101298
101298
101298
101301
101298
101298
101298
101298
101298
101298
101298
101298
101298
101298
101298
101298
101298
101298
101298
101298
101298
101298
101298
101298
101298
101298
101298
101298
101298
101298
101298
101298
101298
101298
101298
101298
101298
101298
101298
101298
101298
101298
101298
101298
101298
101298
101298
101298
101298
101298
101298
101298
101298
101298
101298
101298
101298
101298
101298
101298
101298
101298
101298
101298
101298
101298
101298
101298
101298
101298
101298
101298
101298
101298
101298
101298
101298
101298
101298
101301
101298
101298
101299
101299
101298
101298
101298
101298
101298
101298
101298
101298
101298
101298
101298
101298
101298
101298
101298
101298
101298
101298
101298
101298
101298
101298
101298
101298
101298
101298
101298
101298
101298
101298
101298
101298
101298
101298
101298
101298
101298
101298
101298
101298
101298
101298
101298
101298
101298
101298
101298
101298
101298
101298
101298
101298
101298
101298
101298
101298
101298
101298
101298
101298
101298
101298
101298
101298
101298
101298
101298
101298
101298
101298
101298
101298
101298
101298
101298
101298
101298
101298
101298
101298
101298
101298
101298
101298
101298
101298
101298
101298
101298
101298
101298
101298
101298
101298
101304
111789
101298
109172
101299
105169
101298
101298
101298
101298
101298
101298
101298
101298
101298
101298
101298
101298
101298
101298
101298
101301
101303
102096
101305
101309
101298
101298
101298
101298
101298
101298
101298
101298
101298
101298
101298
101298
101298
101298
101298
101298
101300
101298
101298
101298
101298
101298
101298
101298
101298
101298
101298
101298
101298
101298
101298
101298
101298
101298
101298
101298
101298
101298
101298
101298
101298
101298
101298
101298
101298
101298
101298
101298
101298
101298
101298
101305
101298
101299
101298
101298
101298
101298
101298
101298
101298
101298
101298
101298
101298
101298
101298
101298
101298
651869
411324
758282
929547
1.27352e+06
758684
101653
528248
974105
747700
649051
170398
283145
577495
136585
677211
101299
101298
101310
560441
102809
101298
101298
101298
101298
101298
101298
101298
101298
101298
101298
101298
101298
101298
101298
101298
101298
101298
101298
101298
101298
101298
101298
101298
101298
101298
101298
101298
101298
101298
101298
101298
101298
101298
975534
1.70916e+06
712602
766861
1.117e+06
118774
919250
859938
107467
283964
2.15277e+06
1.50322e+06
462727
937435
576815
965769
122633
101450
101438
127378
101305
101298
101303
895617
101622
101306
101406
101307
305994
101328
101298
101298
101308
101298
330528
1.14335e+06
267973
2.61804e+06
2.27662e+06
102782
106019
101397
113807
101673
101298
101298
101298
101299
101298
101298
1.5336e+06
1.26096e+06
2.08776e+06
1.6234e+06
1.21706e+06
2.04984e+06
1.56747e+06
1.71213e+06
2.16852e+06
2.12037e+06
1.66011e+06
1.46272e+06
1.45184e+06
978183
1.86928e+06
1.13523e+06
1.99184e+06
1.37554e+06
320383
886903
214412
805690
821398
177757
383540
113290
105057
103700
120040
206475
573567
429527
107311
680410
130213
124369
105549
101464
102135
102117
2.6419e+06
2.04274e+06
2.57608e+06
2.67132e+06
2.61394e+06
1.84909e+06
2.31325e+06
2.4747e+06
108551
105956
867796
114675
170522
101589
102874
1.30562e+06
2.13166e+06
1.57291e+06
1.74851e+06
764942
641065
1.52415e+06
172820
1.18734e+06
235053
826621
808968
228679
933731
298938
274219
105003
101867
106186
110613
219195
114189
101519
175696
101994
103245
104104
107326
101350
101306
101317
101395
101299
101312
101400
101321
101298
101670
101301
101299
101299
101298
101298
101298
1.97249e+06
281083
1.22521e+06
409929
1.38235e+06
110985
114506
384452
101329
101300
101513
101298
101303
101298
101298
107665
107137
128607
102064
101610
101359
101534
101300
102636
101312
101335
103099
101343
101494
101719
101384
101298
101299
101300
101302
101307
101318
101298
101301
101298
101298
101298
101299
101298
101661
101298
101311
101303
101329
101298
101298
101299
101307
101306
101371
101299
640935
585122
651379
474124
735833
618630
692707
596052
901191
307331
888466
274647
942980
206192
914471
647280
988139
619135
613578
777646
194095
131058
811521
101517
256899
101314
102074
101313
376828
691956
105019
564482
117782
575101
102386
101425
101732
155726
101346
102894
101302
101754
101299
295627
101298
101298
101298
101298
101298
101298
101298
101298
101346
101329
101298
101299
101298
101300
101494
101314
101354
107091
101774
102055
101298
101299
101298
101302
101300
101328
101298
101300
101316
101298
101302
101298
101298
101392
101301
101298
101304
101298
101298
1.15746e+06
2.06696e+06
2.73405e+06
364177
101316
1.88107e+06
2.10213e+06
2.44565e+06
2.29987e+06
896843
1.37631e+06
217830
102195
101418
131220
104335
101520
101301
101455
101697
101298
2.5354e+06
2.12801e+06
2.56248e+06
2.85962e+06
111559
101300
101387
101298
101298
1.73824e+06
1.70923e+06
2.07731e+06
1.92003e+06
1.74377e+06
2.09267e+06
1.73328e+06
1.98363e+06
1.80104e+06
1.77693e+06
2.24411e+06
1.82618e+06
2.2969e+06
1.68318e+06
1.81173e+06
771928
1.30006e+06
2.40742e+06
363103
115886
205938
105148
109757
137265
102029
169458
131140
153162
101684
338643
105118
108336
108098
101335
101325
101349
101661
101975
101801
102806
101318
101489
110155
101343
102249
101302
101303
101377
953080
1.68121e+06
894200
1.89743e+06
1.6914e+06
2.03455e+06
697841
2.13754e+06
806574
1.72471e+06
2.37078e+06
2.39684e+06
723797
783093
521990
117787
1.2533e+06
103970
1.54759e+06
1.62209e+06
1.49636e+06
1.72296e+06
1.65959e+06
1.53871e+06
1.5062e+06
1.60119e+06
1.79135e+06
1.779e+06
1.71114e+06
1.71089e+06
1.60653e+06
1.67149e+06
1.44287e+06
1.74402e+06
1.4864e+06
1.84608e+06
1.7179e+06
1.56655e+06
1.97258e+06
1.89859e+06
1.8955e+06
2.45611e+06
1.81457e+06
1.9189e+06
2.29439e+06
1.83672e+06
2.34456e+06
1.14323e+06
2.20749e+06
1.62312e+06
2.52283e+06
1.40054e+06
1.99782e+06
2.89031e+06
2.52727e+06
3.00676e+06
2.99054e+06
3.10071e+06
637847
683936
1.47101e+06
283149
878262
476101
722526
552860
165971
228033
279666
356468
437791
472604
2.2426e+06
302185
1.10244e+06
118152
160491
380636
101298
101375
101349
101364
102116
102211
101303
466933
781298
493736
505728
574778
688617
864066
506514
605443
445959
528933
534881
471510
148100
514061
476685
527211
532202
605518
545244
623737
512913
506415
526222
612395
622100
643804
635446
461059
383285
436395
537292
465879
512442
493868
752132
849237
621512
388641
691707
719784
844669
968016
1.41008e+06
1.37249e+06
1.39101e+06
1.01187e+06
1.05735e+06
1.34463e+06
567898
585672
686656
489330
544550
562544
649551
556998
716665
729528
525854
545700
678264
670013
461901
474505
461446
581545
599597
559833
571172
452002
472832
496027
545659
542356
520789
570761
614669
541632
575256
457421
500122
565722
528076
1.40774e+06
763847
1.3305e+06
1.41737e+06
907442
1.02847e+06
1.42072e+06
519916
651713
600260
495572
485397
623361
586344
557632
600989
647780
810841
617080
657944
739634
101359
166518
123199
565071
112251
580249
102562
685568
608245
681780
877211
770727
798599
820424
614640
553410
675703
668065
589321
700003
581817
569234
506419
577409
526663
648137
574042
603967
463148
522324
480673
567824
557509
564142
566055
727585
731930
1.13367e+06
830664
827821
1.3372e+06
1.33477e+06
679841
668432
695120
774935
797339
815140
795258
623546
923107
750220
783583
641131
777528
940166
919541
361610
587252
175321
101343
367673
969690
637264
561692
601375
580409
678130
685163
602733
1.1963e+06
753473
1.09977e+06
676765
1.18021e+06
744654
1.35286e+06
916035
764770
802359
827877
764281
917077
778141
674521
765894
786580
640107
717241
738925
610733
623142
681340
624726
789737
594956
719381
660061
1.02337e+06
803230
906942
628724
654999
826475
976906
563708
537097
570565
542256
505676
570452
558357
1.05821e+06
761207
1.27193e+06
701807
1.14394e+06
733085
998007
595040
710934
791345
775405
966301
892950
708990
698533
978978
865004
818716
665357
815569
960553
854806
743369
866409
690575
715793
839169
822167
101381
118966
370014
101308
188869
103635
101319
878434
771235
847326
807922
970618
943056
838674
591931
725107
637597
584596
593701
641020
704812
896273
806605
900061
861751
735951
912825
794458
670632
577648
669895
486087
595353
587532
454762
101312
101298
101406
121253
101299
101856
101298
694133
773813
711084
893289
823554
841876
908318
917964
887944
804988
779551
894353
823387
918498
917928
825421
758415
653952
855443
767975
702992
972205
744289
959477
986596
804749
921184
976078
713170
620738
598653
582569
428300
525840
656744
584626
577426
567769
509906
496600
552957
429652
338365
652589
540804
535419
666948
571261
407509
573519
589806
581707
553749
537169
475267
442713
729729
745851
964664
834998
938453
850745
936692
941547
860680
800563
495188
931847
797788
764379
767131
937174
890826
805088
734874
865174
924996
1.07843e+06
905819
1.10304e+06
1.05565e+06
876992
1.05403e+06
1.01704e+06
406571
505632
581511
601188
571414
591755
606894
530910
466144
321533
581007
564007
509595
393488
101331
101306
101322
557283
213184
121236
281857
491916
393668
546752
530716
242671
357489
466442
923860
808261
933566
931319
914560
854972
897439
247495
164519
410237
616014
257999
549615
491027
885443
823210
890816
899648
831308
800020
898129
945512
957568
886990
845823
953658
948563
979998
905332
909555
877982
920101
855962
870068
932000
963793
935408
956765
947507
937754
817912
782927
1.02723e+06
869546
821205
874442
718522
945012
546739
945951
856164
1.00477e+06
1.00447e+06
990135
877506
936447
443033
524529
524406
197141
313216
434896
323478
232792
367566
462197
504375
194544
302734
426591
476305
389630
514425
153195
398205
297003
231586
737886
914973
901863
905565
796545
758309
910561
827221
538252
798084
239894
534859
475101
198501
883711
915178
651304
953968
942888
918754
729370
391934
569092
528403
147285
442136
249020
275937
933226
683621
820130
896196
957328
901585
818343
529271
555615
855133
918121
338588
693348
688855
241804
421399
255014
494091
583407
499197
341543
893998
759777
903546
904952
570351
723856
877327
648914
463705
523433
821088
900991
876219
856357
165858
106230
121392
300215
282343
396832
189949
137517
301259
346510
524862
496709
305550
261082
596314
819599
908555
924972
776564
881862
654662
392849
824875
956882
866912
731437
538325
787889
874253
995188
823349
717797
1.01917e+06
964538
498117
117992
114470
281939
171537
290264
158787
437970
101298
101299
101298
101323
101299
101298
101298
586331
791509
873779
897598
492538
667668
845714
125766
686274
294823
465729
753749
392715
156683
321033
247875
210461
136658
123027
112683
108384
101325
101300
101298
101298
101298
101298
101302
101298
101298
101303
101298
101323
101358
101298
119208
182133
105323
226856
138408
108786
102910
396689
142860
358864
111342
238464
200808
107409
163684
267509
426717
104524
121903
114528
178635
266303
307081
435120
122017
104096
114279
187601
105940
178363
241992
387216
153799
452728
206328
459530
918288
479360
695089
680472
828002
252290
471315
330915
177884
743666
706518
826087
581149
110133
230134
126761
122425
301740
159644
104384
106115
132096
102826
256653
168306
112380
104987
101298
101298
101298
101298
101298
101298
105592
101298
101298
101298
101298
101298
101298
101298
101298
101298
101298
101298
101298
101301
101298
101298
101298
101298
101298
101298
101298
101298
101298
101298
101298
101298
101298
101298
101298
101298
101298
101436
101298
101298
101298
101298
101298
101298
101298
101298
101298
101298
101298
101348
101299
101298
101298
101478
102880
101298
101307
101298
101298
101300
102101
101298
101298
101299
101303
101909
103985
101300
531895
324798
361962
105285
735244
165293
185497
361235
180080
213824
635971
577286
725529
771864
395861
490236
144552
242034
906781
588997
666666
110407
104216
137718
585616
165850
200226
444962
101561
106778
102519
106365
123807
191780
126926
761071
306399
720870
142587
467660
407134
127291
502806
505330
447605
179576
154019
135446
152919
101298
101298
101332
101298
101300
101298
101298
131015
294882
110000
194839
106820
120031
101756
167906
112002
144392
102192
104969
103513
101837
162938
105017
113910
102141
104092
101840
101453
101298
101298
101301
101298
101298
101298
101298
101299
101298
101308
101299
101298
101298
101298
104471
101421
102209
103917
162876
120219
110112
102802
104216
120572
128109
297730
105360
154172
107584
567954
239351
239695
658608
327778
115054
329323
114378
110165
426681
370175
119936
129352
102994
101800
111977
101823
101451
104586
111959
111204
172511
112834
101870
101372
105080
101793
128574
104631
106488
193028
437222
374255
231577
101983
103933
103598
155248
101738
110692
115301
129583
123656
106861
241431
440447
618715
411344
110581
101755
101408
106822
123356
102397
101568
374439
179286
322229
105786
120913
114050
104162
102940
213698
405726
285953
122889
110421
146654
103736
102081
110991
123236
442739
300101
165929
101402
102490
103308
102454
123371
114519
101986
103850
102025
117983
102206
107651
101572
101336
144643
103951
127998
103931
102888
101459
101394
232791
136805
154766
102507
106705
104938
103130
104540
109313
175360
149375
101513
103288
106276
191588
101985
104649
144893
257814
108406
102818
1.12756e+06
1.10685e+06
1.06012e+06
1.07171e+06
1.13347e+06
1.02033e+06
1.13231e+06
1.16966e+06
1.04124e+06
1.04094e+06
983983
1.08973e+06
1.00927e+06
1.84393e+06
1.20208e+06
1.21641e+06
1.18662e+06
1.3339e+06
1.30735e+06
1.16362e+06
1.98443e+06
1.28295e+06
2.31737e+06
684890
1.8941e+06
2.47097e+06
1.09115e+06
1.16798e+06
1.24052e+06
1.10105e+06
1.19666e+06
1.07049e+06
1.11841e+06
1.13231e+06
1.07972e+06
1.04549e+06
1.31613e+06
1.33698e+06
1.15574e+06
1.48741e+06
1.1837e+06
1.52567e+06
1.27554e+06
1.51685e+06
1.80329e+06
1.65373e+06
1.67738e+06
1.72141e+06
1.5089e+06
1.54492e+06
1.1339e+06
1.4905e+06
1.26657e+06
1.88724e+06
1.8472e+06
1.53136e+06
1.14028e+06
1.40856e+06
1.66655e+06
1.58245e+06
1.41677e+06
1.02082e+06
1.52027e+06
1.97573e+06
2.30486e+06
1.93135e+06
429365
293742
446383
651473
726178
696046
299301
371643
385588
314032
152450
227333
1.21131e+06
1.1512e+06
301379
422292
1.42268e+06
1.47205e+06
254678
342725
492042
566518
101317
1.21002e+06
1.29818e+06
1.35836e+06
1.32023e+06
1.49083e+06
1.27173e+06
1.18596e+06
1.31075e+06
1.70679e+06
2.12453e+06
1.41437e+06
1.24476e+06
1.33776e+06
1.24124e+06
1.28402e+06
1.37572e+06
1.37328e+06
1.46156e+06
1.28754e+06
1.382e+06
1.52671e+06
1.32105e+06
1.4345e+06
1.53473e+06
1.23858e+06
1.49056e+06
1.37552e+06
1.88057e+06
1.50679e+06
1.6927e+06
1.66996e+06
2.01356e+06
480446
2.85532e+06
483067
919973
298925
946624
2.24965e+06
2.82905e+06
1.99282e+06
415651
859789
1.33907e+06
691381
632482
114073
103205
1.77833e+06
2.79399e+06
2.39726e+06
1.97128e+06
274314
407960
121967
101339
101304
101298
1.73888e+06
1.72919e+06
1.90129e+06
2.1335e+06
1.67984e+06
2.36166e+06
2.40948e+06
1.59383e+06
2.33867e+06
3.11958e+06
2.80859e+06