/*--------------------------------*- C++ -*----------------------------------*\
  =========                 |
  \\      /  F ield         | OpenFOAM: The Open Source CFD Toolbox
   \\    /   O peration     | Website:  https://openfoam.org
    \\  /    A nd           | Version:  9
     \\/     M anipulation  |
\*---------------------------------------------------------------------------*/
FoamFile
{
    format      ascii;
    class       volVectorField;
    location    "0.0014";
    object      U;
}
// * * * * * * * * * * * * * * * * * * * * * * * * * * * * * * * * * * * * * //

dimensions      [0 1 -1 0 0 0 0];

internalField   nonuniform List<vector> 
11341
(
(7.78256e-05 4.92028e-05 0.000327935)
(7.64618e-11 1.70754e-10 6.45077e-11)
(1.08263e-10 2.08369e-10 1.94459e-10)
(2.51779e-12 4.88329e-12 5.74524e-12)
(4.64028e-14 9.6746e-14 1.39287e-13)
(3.48065e-09 4.13328e-09 7.97062e-09)
(6.66234e-11 8.33259e-11 1.76154e-10)
(1.2682e-12 1.64712e-12 3.70439e-12)
(6.13471e-11 2.32713e-11 2.14473e-11)
(0.00116255 0.00254622 0.0010147)
(7.40681e-12 1.09059e-11 -5.08096e-12)
(3.90694e-10 7.28297e-10 1.499e-10)
(8.48844e-10 1.36584e-09 6.15664e-10)
(3.55613e-09 6.80999e-09 4.23514e-09)
(7.54373e-12 -6.42523e-12 2.42496e-12)
(1.84603e-11 2.59253e-11 -2.50063e-11)
(9.24346e-11 3.05308e-12 2.52028e-11)
(3.5382e-10 1.13863e-10 9.62933e-11)
(1.4677e-11 1.69209e-12 4.31925e-12)
(2.06625e-11 8.8228e-12 -1.73705e-12)
(4.81749e-11 2.43014e-11 5.7473e-12)
(3.53032e-12 -6.14799e-13 8.50486e-13)
(9.7152e-06 1.71175e-05 5.81803e-06)
(8.20798e-09 1.53285e-08 -7.72449e-09)
(2.88753e-05 5.48101e-05 2.78883e-05)
(2.34012e-06 3.70983e-06 1.3385e-06)
(6.44393e-08 1.20634e-07 2.0199e-08)
(4.39532e-05 4.28744e-05 6.41611e-05)
(1.61114e-07 1.82341e-07 3.1519e-07)
(0.000112123 0.000212153 7.85111e-05)
(0.00575802 0.0146526 0.00167159)
(0.000560938 0.00116649 0.000117834)
(5.09566e-06 1.03152e-05 1.3302e-06)
(0.000179195 0.000474691 3.62534e-05)
(1.79068e-05 4.00521e-05 2.65778e-06)
(4.23431e-05 9.87275e-05 2.80511e-05)
(2.10515e-12 1.27031e-13 -3.00783e-12)
(2.87469e-13 -3.92954e-13 1.29181e-13)
(1.84691e-11 -1.15172e-11 4.59171e-12)
(6.3776e-12 -5.63822e-12 1.92603e-12)
(1.1858e-12 -1.01571e-12 2.37498e-13)
(3.13064e-13 -2.41913e-13 -1.72486e-13)
(1.41236e-11 -9.17723e-12 2.99094e-12)
(6.00483e-11 5.66714e-11 -1.13986e-10)
(1.72247e-12 2.26138e-14 -1.01041e-12)
(1.65076e-10 1.9945e-10 -2.48242e-10)
(1.99193e-10 3.58602e-10 -2.31556e-10)
(4.53696e-12 3.08671e-12 -7.51929e-12)
(1.00501e-11 9.99614e-12 -1.22776e-11)
(2.44304e-09 3.66323e-09 -3.89126e-09)
(9.79154e-07 1.64338e-06 2.53753e-07)
(4.54175e-05 8.72355e-05 8.35448e-06)
(3.56384e-06 6.4736e-06 5.70499e-07)
(5.34628e-07 9.50467e-07 3.58217e-08)
(1.31997e-07 2.54019e-07 6.78639e-09)
(1.54792e-06 3.17665e-06 2.05735e-07)
(1.56875e-07 2.40421e-07 -1.2747e-07)
(1.06208e-11 1.52083e-11 2.54751e-13)
(1.56814e-10 2.50118e-10 -5.67446e-11)
(5.53177e-10 1.51856e-09 2.61582e-11)
(6.56607e-11 1.35052e-10 -2.0742e-11)
(1.78165e-09 3.82291e-09 1.50013e-10)
(1.86213e-10 2.56985e-10 -1.03141e-10)
(2.02444e-08 5.56134e-08 4.915e-09)
(2.48586e-09 5.10863e-09 3.62947e-09)
(1.32172e-07 2.00465e-07 1.36176e-07)
(4.92663e-09 8.22821e-09 4.10561e-09)
(5.18876e-08 9.68536e-08 1.00466e-07)
(1.56401e-06 2.98838e-06 2.60457e-06)
(5.69407e-09 9.77433e-09 6.98195e-09)
(3.28838e-09 5.95091e-09 -4.96181e-09)
(2.47869e-10 4.80705e-10 -2.50106e-10)
(4.66801e-09 9.78871e-09 -7.50662e-10)
(2.49656e-08 4.81521e-08 -3.77027e-09)
(1.81478e-09 4.02272e-09 -5.33212e-10)
(5.0819e-08 1.11317e-07 8.06951e-10)
(5.6183e-09 8.95905e-09 -6.14739e-09)
(2.99678e-06 3.71274e-06 3.8547e-06)
(9.81697e-07 1.42707e-06 2.08235e-06)
(3.0091e-05 4.35594e-05 5.16849e-05)
(1.08867e-07 1.4756e-07 1.60239e-07)
(0.000112187 0.000152456 0.00026893)
(1.14106e-05 1.27134e-05 2.79662e-05)
(1.4775e-06 1.54475e-06 2.74029e-06)
(5.65093e-12 2.15647e-11 5.37168e-13)
(6.42679e-13 2.2879e-12 8.22876e-14)
(4.04903e-09 1.63315e-11 1.54434e-10)
(4.37984e-12 -2.87388e-13 1.51118e-13)
(4.15468e-15 4.40827e-14 1.54676e-15)
(0 4.57067e-14 0)
(0 6.74663e-15 1.60457e-14)
(6.96042e-15 3.09691e-14 -1.4186e-14)
(2.67423e-09 4.25989e-10 1.1172e-10)
(3.84541e-11 3.04932e-12 1.30528e-12)
(5.4273e-13 4.63255e-14 4.5019e-14)
(6.01867e-15 2.59856e-14 3.39182e-15)
(0 2.59856e-14 0)
(0 0 0)
(1.04885e-10 7.87997e-11 5.03544e-12)
(2.25198e-12 1.30463e-12 1.00843e-13)
(3.8862e-14 1.47075e-14 2.90322e-14)
(0 0 2.86151e-15)
(0 0 0)
(0 0 0)
(1.77614e-12 1.94089e-12 1.15079e-13)
(4.2075e-14 3.64119e-14 -1.52257e-14)
(0 0 0)
(0 0 0)
(0 0 0)
(0 0 0)
(2.7687e-14 3.82927e-14 8.50718e-16)
(0 0 0)
(0 0 0)
(0 0 0)
(0 0 0)
(0 0 0)
(0 1.31473e-16 0)
(0 0 0)
(0 0 0)
(0 0 0)
(0 0 0)
(0 0 0)
(0 0 0)
(0 0 0)
(0 0 0)
(0 0 0)
(0 0 0)
(0 0 0)
(3.56992e-13 1.36686e-12 2.1619e-13)
(1.01467e-13 3.97296e-13 5.65874e-14)
(4.6466e-10 7.5787e-13 7.45196e-11)
(4.4471e-13 1.6241e-14 7.74865e-14)
(1.31307e-17 4.70215e-14 0)
(0 4.61708e-14 1.05422e-16)
(0 0 1.87272e-14)
(2.93884e-15 4.58744e-15 -2.99093e-16)
(2.55996e-10 4.23188e-11 6.07363e-11)
(4.15988e-12 3.53241e-13 1.00459e-12)
(6.19722e-14 2.8151e-14 1.70757e-14)
(0 2.59856e-14 0)
(0 2.59856e-14 0)
(0 0 0)
(1.13821e-11 8.58972e-12 3.53773e-12)
(2.55591e-13 1.50397e-13 7.1615e-14)
(2.6169e-15 4.63677e-16 1.77877e-15)
(0 0 0)
(0 0 0)
(0 0 0)
(2.02316e-13 2.20695e-13 7.51906e-14)
(2.61512e-15 1.69899e-15 4.64028e-16)
(0 0 0)
(0 0 0)
(0 0 0)
(0 0 0)
(1.08273e-15 2.27454e-15 4.79937e-16)
(0 0 0)
(0 0 0)
(0 0 0)
(0 0 0)
(0 0 0)
(0 3.18884e-18 2.97061e-19)
(0 0 0)
(0 0 0)
(0 0 0)
(0 0 0)
(0 0 0)
(0 0 0)
(0 0 0)
(0 0 0)
(0 0 0)
(0 0 0)
(0 0 0)
(5.15844e-14 9.33427e-14 -1.46102e-14)
(2.95431e-14 1.1709e-13 8.47015e-15)
(4.45729e-14 4.53201e-14 3.04341e-15)
(0 4.65575e-14 0)
(0 4.61708e-14 1.06287e-16)
(0 0 1.88819e-14)
(3.09352e-16 1.54676e-16 -2.99405e-16)
(2.49337e-11 4.51392e-12 4.11029e-12)
(3.70966e-13 5.77328e-14 5.92714e-14)
(3.49485e-15 2.59856e-14 7.7338e-17)
(0 2.59856e-14 0)
(0 2.59856e-14 0)
(0 0 0)
(1.03138e-12 7.82664e-13 2.17555e-13)
(1.90156e-14 8.78924e-15 2.16546e-15)
(0 0 0)
(0 0 0)
(0 0 0)
(0 0 0)
(1.54676e-14 1.60663e-14 2.42501e-15)
(0 0 0)
(0 0 0)
(0 0 0)
(0 0 0)
(0 0 0)
(0 6.13231e-17 4.30579e-18)
(0 0 0)
(0 0 0)
(0 0 0)
(0 0 0)
(0 0 0)
(0 3.8548e-20 4.98784e-22)
(0 0 0)
(0 0 0)
(0 0 0)
(0 0 0)
(0 0 0)
(0 0 0)
(0 0 0)
(0 0 0)
(0 0 0)
(0 0 0)
(0 0 0)
(4.67121e-14 7.91335e-15 -1.68338e-14)
(3.40287e-15 1.20647e-14 1.37058e-15)
(6.86691e-22 4.65575e-14 0)
(0 4.65575e-14 0)
(0 4.60934e-14 1.06194e-16)
(0 0 1.87272e-14)
(0 -1.27847e-22 -2.39871e-16)
(9.91608e-13 2.00228e-13 3.22211e-13)
(1.32739e-14 2.67589e-14 2.54708e-15)
(0 2.59856e-14 0)
(0 2.59856e-14 -1.82618e-16)
(0 2.59856e-14 0)
(0 0 0)
(3.9133e-14 2.96246e-14 1.52649e-14)
(0 0 0)
(0 0 0)
(0 0 0)
(0 0 0)
(0 0 0)
(0 1.49799e-16 1.30736e-16)
(0 0 0)
(0 0 0)
(0 0 0)
(0 0 0)
(0 0 0)
(0 2.50408e-19 9.29369e-20)
(0 0 0)
(0 0 0)
(0 0 0)
(0 0 0)
(0 0 0)
(0 0 4.87621e-21)
(0 0 0)
(0 0 0)
(0 0 0)
(0 0 0)
(0 0 0)
(0 0 0)
(0 0 0)
(0 0 0)
(0 0 0)
(0 0 0)
(0 0 0)
(2.23684e-10 5.24019e-10 -3.52603e-11)
(1.03324e-12 2.51915e-12 -7.02937e-13)
(9.89926e-15 3.95015e-14 7.37821e-15)
(3.11042e-15 0 1.06655e-14)
(1.23741e-15 0 5.65146e-16)
(1.11658e-10 1.96389e-10 4.70816e-12)
(2.15305e-14 8.01222e-14 -1.85995e-14)
(3.20478e-17 4.63255e-14 1.82132e-16)
(0 4.60934e-14 5.64901e-16)
(0 0 1.20692e-14)
(0 1.27916e-21 9.66643e-16)
(1.63837e-13 1.40059e-13 1.61156e-15)
(6.85898e-16 2.61402e-14 -1.9726e-15)
(0 2.59856e-14 -8.59273e-16)
(0 2.59856e-14 7.55919e-16)
(0 2.59856e-14 -5.75406e-16)
(0 0 0)
(1.39208e-15 2.04995e-15 1.16264e-16)
(0 0 0)
(0 0 0)
(0 0 0)
(0 0 0)
(0 0 0)
(0 7.33495e-18 1.37882e-18)
(0 0 0)
(0 0 0)
(0 0 0)
(0 0 0)
(0 0 0)
(0 9.44561e-22 -4.32494e-20)
(0 0 0)
(0 0 0)
(0 0 0)
(0 0 0)
(0 0 0)
(0 0 -8.70138e-21)
(0 0 0)
(0 0 0)
(0 0 0)
(0 0 0)
(0 0 0)
(0 0 -2.41743e-22)
(0 0 0)
(0 0 0)
(0 0 0)
(0 0 0)
(0 0 0)
(1.10202e-08 1.63257e-08 1.07378e-08)
(7.60647e-11 1.85216e-10 3.35536e-11)
(4.11639e-12 7.8091e-12 1.08898e-12)
(1.10067e-13 1.94273e-13 1.84515e-14)
(-2.02626e-14 7.45532e-15 -1.19131e-14)
(0 0 1.49075e-17)
(1.7016e-11 1.54146e-11 5.03519e-12)
(2.85271e-13 3.21919e-13 2.72727e-14)
(4.64564e-15 2.89244e-14 -4.0858e-15)
(9.88984e-19 -1.37441e-14 -9.83229e-15)
(0 -1.87893e-14 0)
(0 0 0)
(3.76327e-13 4.09464e-13 6.10053e-14)
(4.75258e-15 6.40267e-15 -2.9057e-14)
(0 0 -2.83609e-14)
(0 3.01739e-14 -6.31962e-15)
(0 2.48659e-14 0)
(0 0 0)
(4.4856e-15 6.24633e-15 3.63519e-16)
(0 0 -6.46325e-15)
(0 0 -5.85559e-15)
(0 0 0)
(0 0 0)
(0 0 0)
(0 2.22357e-17 8.20072e-18)
(0 0 0)
(0 0 0)
(0 0 0)
(0 0 0)
(0 0 0)
(0 1.40766e-20 0)
(0 0 0)
(0 0 0)
(0 0 0)
(0 0 0)
(0 0 0)
(0 0 0)
(0 0 0)
(0 0 0)
(0 0 0)
(0 0 0)
(0 0 0)
(0 0 0)
(0 0 0)
(0 0 0)
(0 0 0)
(0 0 0)
(0 0 0)
(2.10348e-10 4.00744e-10 2.03342e-10)
(1.48475e-11 2.4835e-11 1.26057e-11)
(7.69253e-13 1.01683e-12 4.58647e-13)
(2.59086e-14 1.19156e-14 -4.28933e-15)
(3.90665e-16 0 8.88088e-15)
(0 0 1.31265e-19)
(4.61401e-12 1.06593e-11 2.96207e-12)
(2.97938e-13 6.02433e-13 1.15013e-13)
(1.25755e-14 2.244e-14 -2.79522e-14)
(0 3.02216e-14 -8.56242e-15)
(0 0 0)
(0 0 0)
(9.17229e-14 2.46097e-13 4.02194e-14)
(1.9788e-15 1.12336e-14 -5.30318e-15)
(0 0 -7.38025e-15)
(0 0 0)
(0 0 0)
(0 0 0)
(0 2.30216e-15 8.10393e-17)
(0 0 0)
(0 0 0)
(0 0 0)
(0 0 0)
(0 0 0)
(0 6.14475e-19 2.64518e-18)
(0 0 0)
(0 0 0)
(0 0 0)
(0 0 0)
(0 0 0)
(0 0 0)
(0 0 0)
(0 0 0)
(0 0 0)
(0 0 0)
(0 0 0)
(0 0 0)
(0 0 0)
(0 0 0)
(0 0 0)
(0 0 0)
(0 0 0)
(0 0 0)
(0 0 0)
(0 0 0)
(0 0 0)
(0 0 0)
(0 0 0)
(8.26846e-12 1.49954e-11 1.28715e-11)
(5.49059e-13 8.03056e-13 6.80152e-13)
(2.4496e-14 2.8151e-14 2.31319e-14)
(1.94497e-16 0 2.01371e-16)
(4.12747e-19 0 2.87041e-19)
(0 0 0)
(2.41604e-13 5.51376e-13 3.73629e-13)
(1.51448e-14 2.89229e-14 1.63515e-14)
(0 0 -3.04933e-15)
(0 0 0)
(0 0 0)
(0 0 0)
(2.62949e-15 1.3258e-14 4.13801e-15)
(0 0 0)
(0 0 0)
(0 0 0)
(0 0 0)
(0 0 0)
(0 4.67646e-18 3.09649e-18)
(0 0 0)
(0 0 0)
(0 0 0)
(0 0 0)
(0 0 0)
(0 0 0)
(0 0 0)
(0 0 0)
(0 0 0)
(0 0 0)
(0 0 0)
(0 0 0)
(0 0 0)
(0 0 0)
(0 0 0)
(0 0 0)
(0 0 0)
(0 0 0)
(0 0 0)
(0 0 0)
(0 0 0)
(0 0 0)
(0 0 0)
(0 0 0)
(0 0 0)
(0 0 0)
(0 0 0)
(0 0 0)
(0 0 0)
(2.04872e-13 3.54981e-13 4.09778e-13)
(1.05493e-14 1.60863e-14 1.86515e-14)
(9.56121e-17 0 1.49261e-16)
(1.48743e-19 0 2.74128e-19)
(0 0 0)
(0 0 0)
(3.09352e-15 1.04675e-14 1.05907e-14)
(0 0 0)
(0 0 0)
(0 0 0)
(0 0 0)
(0 0 0)
(0 5.48336e-18 6.53969e-18)
(0 0 0)
(0 0 0)
(0 0 0)
(0 0 0)
(0 0 0)
(0 0 0)
(0 0 0)
(0 0 0)
(0 0 0)
(0 0 0)
(0 0 0)
(0 0 0)
(0 0 0)
(0 0 0)
(0 0 0)
(0 0 0)
(0 0 0)
(0 0 0)
(0 0 0)
(0 0 0)
(0 0 0)
(0 0 0)
(0 0 0)
(0 0 0)
(0 0 0)
(0 0 0)
(0 0 0)
(0 0 0)
(0 0 0)
(0 0 0)
(0 0 0)
(0 0 0)
(0 0 0)
(0 0 0)
(0 0 0)
(1.64564e-15 3.40287e-15 7.65646e-15)
(1.65761e-17 0 0)
(2.71895e-20 0 0)
(0 0 0)
(0 0 0)
(0 0 0)
(0 2.15109e-18 0)
(0 0 0)
(0 0 0)
(0 0 0)
(0 0 0)
(0 0 0)
(0 0 0)
(0 0 0)
(0 0 0)
(0 0 0)
(0 0 0)
(0 0 0)
(0 0 0)
(0 0 0)
(0 0 0)
(0 0 0)
(0 0 0)
(0 0 0)
(0 0 0)
(0 0 0)
(0 0 0)
(0 0 0)
(0 0 0)
(0 0 0)
(0 0 0)
(0 0 0)
(0 0 0)
(0 0 0)
(0 0 0)
(0 0 0)
(0 0 0)
(0 0 0)
(0 0 0)
(0 0 0)
(0 0 0)
(0 0 0)
(0 0 0)
(0 0 0)
(0 0 0)
(0 0 0)
(0 0 0)
(0 0 0)
(1.05867e-09 -6.70614e-10 2.65574e-11)
(6.40859e-12 -5.75364e-12 1.93345e-13)
(4.23182e-10 -2.80613e-10 7.20792e-11)
(4.66936e-12 -4.37078e-12 8.2438e-13)
(6.74033e-13 -4.57291e-13 1.17554e-14)
(3.05173e-15 6.30402e-16 0)
(4.04014e-13 -2.51636e-13 5.62542e-14)
(1.85611e-15 6.25208e-16 0)
(0 3.09163e-15 0)
(0 2.47446e-15 0)
(0 3.72228e-15 0)
(0 2.47567e-15 0)
(2.77179e-13 1.11292e-11 5.87769e-14)
(0 3.13074e-15 0)
(-9.22379e-15 1.66128e-14 1.18869e-14)
(1.34259e-13 4.8593e-12 5.36783e-13)
(0 1.52978e-17 -8.87308e-16)
(1.85611e-15 8.46765e-15 -2.14259e-14)
(1.00225e-12 2.26817e-12 4.45467e-14)
(7.91941e-14 4.69022e-13 -5.47254e-15)
(-1.70727e-14 1.13223e-13 1.85611e-15)
(2.27606e-12 8.84248e-12 1.20988e-12)
(3.66958e-13 1.12202e-12 1.50998e-13)
(5.56909e-14 1.97367e-13 1.82074e-14)
(-2.36659e-14 6.34171e-14 -4.65221e-15)
(1.38129e-10 -7.18206e-12 4.98569e-12)
(1.20922e-09 1.32585e-10 3.23986e-11)
(1.34905e-10 -6.84036e-11 4.88548e-12)
(1.71511e-09 -4.69373e-12 2.56802e-10)
(5.90881e-11 -3.37174e-12 7.70794e-12)
(6.45031e-10 -2.50954e-11 1.03195e-10)
(9.37079e-11 -5.88252e-11 9.25806e-12)
(1.39994e-13 5.72301e-15 2.20976e-14)
(5.08387e-12 -2.01275e-12 1.44512e-13)
(1.32557e-12 -1.10949e-12 5.57607e-14)
(1.90685e-12 -1.49804e-13 2.39174e-13)
(6.56934e-14 1.06726e-14 -1.31211e-14)
(3.89625e-12 -1.98219e-12 3.76039e-13)
(1.00467e-12 -8.31925e-13 7.37362e-14)
(3.28217e-16 4.42373e-14 0)
(4.72706e-14 -2.48972e-14 1.05401e-14)
(1.36115e-14 -4.45213e-15 5.83349e-15)
(5.20134e-16 4.62481e-14 -2.71301e-15)
(2.46616e-20 4.42373e-14 -1.06908e-18)
(4.22929e-14 -2.006e-14 1.27276e-14)
(1.0971e-14 -2.37015e-15 8.52927e-15)
(-4.46719e-17 3.87795e-14 0)
(0 2.89757e-15 0)
(0 2.38854e-16 0)
(0 4.30883e-14 -6.89431e-15)
(0 3.08262e-14 -2.59654e-14)
(0 8.74769e-17 0)
(0 1.022e-17 -4.39323e-15)
(1.21425e-10 -7.43924e-11 2.5176e-11)
(1.27488e-12 -1.14231e-12 3.45546e-13)
(3.2915e-13 -3.03834e-13 4.19409e-14)
(9.79549e-14 -4.259e-14 1.88705e-14)
(0 1.24241e-15 0)
(2.10359e-14 -4.21258e-15 3.09352e-16)
(0 1.85717e-15 0)
(0 3.71195e-15 0)
(0 3.09321e-15 0)
(0 3.7122e-15 0)
(0 3.09352e-15 0)
(2.96978e-14 9.18775e-13 1.98619e-13)
(0 3.09601e-15 0)
(0 0 1.40779e-14)
(6.18704e-16 1.02086e-13 1.49571e-14)
(0 3.09363e-15 -2.95263e-16)
(0 0 -1.52162e-14)
(6.71664e-14 2.62949e-13 2.78097e-14)
(3.26256e-14 3.02606e-14 2.13456e-17)
(-4.00014e-15 1.91798e-14 7.59774e-15)
(8.2597e-14 2.91454e-13 4.63017e-14)
(9.56534e-15 1.06726e-13 8.98433e-15)
(3.41315e-14 3.71222e-15 -2.22881e-15)
(-1.5311e-15 4.94963e-15 -7.1054e-15)
(1.52856e-11 -7.09499e-13 3.02031e-12)
(1.23377e-10 1.37591e-11 2.11364e-11)
(1.36089e-11 -7.00539e-12 3.50329e-12)
(4.6047e-12 -1.50444e-13 4.81967e-13)
(4.91836e-11 -3.44043e-12 9.31349e-12)
(4.52857e-12 -2.37084e-12 1.12712e-12)
(1.28091e-14 3.80503e-14 1.32168e-14)
(5.36091e-13 -2.2854e-13 1.26989e-13)
(1.53129e-13 -1.20466e-13 4.50778e-14)
(1.30286e-13 3.85143e-14 6.03125e-15)
(6.23541e-16 4.19172e-14 -1.58796e-14)
(2.48117e-13 -1.5406e-13 5.73848e-14)
(4.85052e-14 -3.4656e-14 9.89926e-15)
(8.673e-18 4.65575e-14 0)
(2.46993e-15 7.32856e-16 0)
(1.23741e-15 3.06167e-15 0)
(3.85211e-18 4.67121e-14 -4.28716e-15)
(0 4.65575e-14 0)
(9.26578e-16 2.48392e-15 0)
(0 3.08673e-15 0)
(0 3.65588e-14 1.28607e-14)
(0 3.05092e-15 0)
(0 2.61466e-16 0)
(0 4.61708e-14 -3.01628e-15)
(0 3.26387e-14 -1.46639e-14)
(0 3.1295e-15 0)
(0 2.66285e-16 0)
(1.10845e-13 -1.05416e-13 2.01079e-14)
(2.41295e-14 -1.17352e-14 2.1375e-15)
(1.23741e-15 3.12823e-15 0)
(0 2.47511e-15 0)
(0 4.33348e-15 0)
(0 3.09352e-15 0)
(0 3.09352e-15 0)
(0 3.09321e-15 0)
(0 3.09352e-15 0)
(0 3.09352e-15 0)
(4.89058e-15 2.84604e-14 -3.65296e-15)
(0 3.09571e-15 0)
(0 0 1.40779e-14)
(3.71535e-15 8.66185e-15 1.63514e-16)
(0 3.09352e-15 -2.95591e-16)
(0 0 -1.52066e-14)
(7.0438e-15 5.50646e-14 2.34216e-15)
(2.92227e-14 1.16507e-16 -2.2082e-15)
(0 4.02158e-15 6.70295e-15)
(4.74855e-14 5.7117e-14 1.14688e-14)
(3.97193e-15 3.00071e-14 2.14547e-15)
(3.37161e-14 0 -2.31024e-15)
(0 0 -6.98079e-15)
(1.77197e-12 -2.16749e-14 2.64974e-13)
(1.42174e-11 2.02566e-12 1.75978e-12)
(1.31629e-12 -5.99614e-13 2.16366e-13)
(4.1515e-13 2.55961e-14 5.12428e-14)
(5.00814e-12 -3.6267e-13 1.00126e-12)
(4.22182e-13 -2.21836e-13 8.39891e-14)
(2.86908e-16 4.4856e-14 1.12855e-14)
(4.20906e-14 -1.35032e-14 4.79496e-15)
(1.1446e-14 5.36058e-16 1.38336e-15)
(7.26679e-15 4.71762e-14 -4.42041e-15)
(1.14471e-21 4.62481e-14 -1.66327e-14)
(1.78042e-14 -6.36291e-15 2.47482e-15)
(3.38067e-15 1.48004e-15 0)
(0 4.65575e-14 0)
(0 3.07536e-15 0)
(0 3.09201e-15 0)
(0 4.65575e-14 -4.27048e-15)
(0 4.65575e-14 0)
(0 3.09352e-15 0)
(0 3.09188e-15 0)
(0 3.68681e-14 1.28922e-14)
(0 3.13082e-15 0)
(0 2.66413e-16 0)
(0 4.61708e-14 -3.02065e-15)
(0 3.26437e-14 -1.46543e-14)
(0 3.12522e-15 0)
(0 2.65701e-16 0)
(1.85045e-15 2.44695e-15 0)
(9.07012e-15 2.60867e-14 -3.71222e-14)
(0 3.09367e-15 0)
(0 3.09352e-15 0)
(0 3.1015e-15 -2.67458e-15)
(0 3.09392e-15 -6.17735e-15)
(0 3.09352e-15 0)
(0 3.09313e-15 0)
(0 3.09258e-15 0)
(0 3.09366e-15 0)
(3.09263e-15 0 2.27702e-15)
(0 3.09716e-15 0)
(0 0 1.40779e-14)
(3.08954e-15 0 0)
(0 2.36948e-17 0)
(0 0 -1.83058e-14)
(3.14113e-15 3.40287e-15 4.65367e-16)
(2.7676e-14 0 -2.25539e-15)
(0 0 6.81002e-15)
(4.64037e-14 2.73549e-15 0)
(3.18334e-15 0 -7.98439e-16)
(3.30818e-14 0 -4.66505e-15)
(0 0 -7.04592e-15)
(6.62013e-14 4.30444e-14 1.71255e-14)
(5.13645e-13 6.49639e-14 1.49889e-13)
(4.33093e-14 -1.66393e-14 1.34829e-14)
(1.34983e-14 5.01179e-14 -1.08273e-14)
(1.18822e-13 -1.35802e-14 1.85611e-14)
(1.02157e-14 -1.80922e-15 3.09352e-15)
(9.05592e-20 4.65575e-14 1.07469e-14)
(6.98906e-21 2.87463e-15 0)
(0 3.09643e-15 0)
(1.57034e-19 4.65575e-14 -8.57446e-15)
(6.22742e-18 4.65711e-14 -3.27232e-14)
(9.42856e-19 3.09301e-15 0)
(0 3.09888e-15 -1.19708e-14)
(0 4.65575e-14 0)
(0 3.0934e-15 0)
(0 3.08416e-15 0)
(0 4.65575e-14 -8.16632e-15)
(0 4.61001e-14 0)
(0 3.09023e-15 0)
(0 2.98977e-15 0)
(0 3.68681e-14 1.28546e-14)
(0 2.93102e-15 0)
(0 2.436e-16 0)
(0 4.34308e-14 -6.70261e-15)
(0 3.15028e-14 -2.6263e-14)
(0 8.13381e-17 0)
(0 1.04005e-17 -4.48637e-15)
(1.4218e-11 3.31586e-11 -6.30791e-12)
(7.48632e-14 1.39347e-13 -9.61555e-14)
(2.01148e-16 4.07919e-15 0)
(4.20281e-10 6.59368e-10 1.01589e-10)
(2.95038e-11 5.68535e-11 1.75668e-12)
(1.34461e-11 2.32703e-11 1.0721e-12)
(9.38238e-13 2.2582e-12 -4.30957e-14)
(1.22625e-13 3.86071e-13 -9.92059e-14)
(7.58282e-17 3.21588e-15 0)
(0 3.09297e-15 0)
(2.81778e-12 5.86354e-12 -7.69433e-14)
(3.62411e-13 9.55869e-13 -3.9663e-14)
(1.14305e-13 2.23295e-13 2.57966e-14)
(-1.53082e-14 5.83857e-14 3.28116e-14)
(3.09911e-15 0 9.10482e-16)
(0 3.09786e-15 0)
(0 0 1.95063e-14)
(4.93253e-14 1.05167e-13 3.69823e-14)
(2.44501e-15 1.35814e-14 2.8163e-14)
(2.50222e-14 -8.29438e-15 3.26311e-14)
(-1.36354e-14 -1.83273e-14 2.69689e-14)
(8.36032e-11 1.3312e-10 7.79896e-12)
(1.16998e-11 2.14361e-11 3.62811e-12)
(2.69132e-12 5.61591e-12 8.05965e-13)
(3.82643e-12 9.30447e-12 2.46083e-12)
(3.96655e-13 7.97001e-13 1.51188e-13)
(3.31358e-08 3.56331e-08 4.40149e-09)
(4.12987e-10 5.87892e-10 -2.69638e-11)
(6.69594e-15 1.73237e-14 9.10691e-15)
(4.71762e-14 8.32157e-14 1.50826e-14)
(3.87684e-06 3.64811e-06 4.79216e-06)
(1.99513e-09 3.60798e-09 1.09618e-09)
(1.07925e-10 1.49362e-10 3.61352e-11)
(3.12176e-12 4.24895e-12 8.23338e-13)
(6.24259e-13 5.03006e-13 1.48613e-13)
(1.11367e-14 6.34171e-15 2.27365e-15)
(9.05279e-09 1.05054e-08 1.20528e-08)
(6.8172e-10 7.28931e-10 8.46656e-10)
(3.46848e-11 2.91207e-11 3.25865e-11)
(1.26903e-12 9.30288e-13 9.36007e-13)
(3.78129e-14 2.13453e-14 -2.55189e-15)
(0 0 2.48063e-17)
(2.50018e-10 2.8683e-10 4.45949e-10)
(1.73215e-11 1.61192e-11 2.55454e-11)
(8.76702e-13 6.41905e-13 1.00739e-12)
(2.91801e-14 1.74784e-14 2.8557e-14)
(7.51033e-17 0 5.14304e-17)
(0 0 0)
(5.61399e-12 6.35957e-12 1.21069e-11)
(3.83911e-13 3.3642e-13 6.52323e-13)
(1.61406e-14 8.19783e-15 2.19155e-14)
(3.7782e-17 0 5.90671e-17)
(0 0 0)
(0 0 0)
(1.06703e-13 1.18791e-13 2.7076e-13)
(3.42618e-15 2.16546e-15 1.15234e-14)
(9.18297e-18 0 0)
(0 0 0)
(0 0 0)
(0 0 0)
(1.66462e-11 2.49089e-10 1.70468e-12)
(6.69314e-12 1.03375e-10 1.21208e-11)
(1.28994e-09 1.30879e-09 4.5898e-11)
(4.92532e-10 9.09575e-10 3.18781e-11)
(3.0962e-11 6.1846e-11 1.57723e-12)
(5.34803e-10 6.75883e-10 1.36539e-10)
(1.94424e-10 3.63009e-10 5.71401e-11)
(1.16141e-11 3.23754e-11 4.78243e-12)
(1.2405e-12 1.90227e-11 4.51482e-12)
(1.11985e-13 2.55401e-12 5.47318e-13)
(9.08711e-11 1.52989e-10 3.02826e-11)
(2.74397e-11 5.32051e-11 1.17125e-11)
(1.98697e-12 7.12924e-12 1.03664e-12)
(2.02506e-11 5.08677e-11 8.12451e-12)
(4.05763e-12 1.03049e-11 1.88565e-12)
(1.80948e-13 2.78669e-12 4.01229e-13)
(-9.09255e-14 6.74387e-13 8.63261e-14)
(3.51112e-10 6.46809e-10 1.06443e-10)
(-8.98721e-14 2.65424e-13 1.50582e-14)
(8.87863e-12 3.40718e-11 2.20322e-12)
(8.08113e-13 2.99081e-12 3.56508e-13)
(1.61396e-13 1.7167e-12 1.32867e-13)
(1.96369e-11 4.39907e-11 6.30076e-12)
(4.24637e-12 1.49766e-11 2.97833e-12)
(3.29073e-13 1.72616e-12 1.86864e-13)
(2.80019e-14 9.03853e-13 1.38899e-13)
(6.23394e-11 1.24115e-10 3.62075e-11)
(9.69953e-15 6.31078e-14 1.36336e-14)
(1.29228e-11 3.3671e-11 -3.44074e-12)
(3.11557e-15 1.59554e-14 1.33947e-14)
(1.24586e-12 5.00863e-12 8.63415e-13)
(1.08196e-13 3.93279e-13 8.72162e-14)
(3.03466e-14 2.33101e-13 3.35647e-14)
(1.43096e-12 4.85263e-12 4.21782e-13)
(5.15429e-13 1.79954e-12 3.49023e-13)
(6.37186e-14 1.92739e-13 1.22194e-14)
(8.66185e-15 9.26954e-14 1.04434e-14)
(4.29223e-08 8.88695e-08 -3.11783e-09)
(2.14022e-07 2.66077e-07 1.0408e-07)
(3.89114e-09 8.03465e-09 -1.62065e-10)
(2.35151e-10 4.49811e-10 -6.20926e-11)
(3.98809e-07 3.69492e-07 3.27352e-07)
(2.44072e-08 2.34178e-08 1.53692e-08)
(1.33838e-08 1.76436e-08 7.09457e-09)
(8.781e-10 1.28993e-09 2.78721e-10)
(1.37061e-09 3.58078e-09 6.32807e-11)
(1.34868e-11 2.87506e-11 -7.7735e-12)
(1.58566e-12 4.35338e-12 -1.36191e-12)
(1.67195e-09 2.12797e-09 7.46103e-10)
(2.29761e-10 4.62462e-10 8.1972e-11)
(7.16026e-11 1.22001e-10 1.2597e-11)
(9.4981e-12 2.21731e-11 1.88975e-13)
(3.12024e-11 8.14645e-11 -9.94703e-13)
(2.87473e-13 6.53351e-13 -1.24471e-13)
(1.86667e-14 4.20719e-14 -1.96989e-15)
(3.10093e-11 5.03275e-11 1.0582e-11)
(4.99627e-12 9.86391e-12 1.39722e-12)
(1.31264e-12 2.56557e-12 1.28608e-13)
(1.84635e-13 4.70563e-13 2.30291e-14)
(7.0044e-09 1.02898e-08 1.73971e-09)
(2.84108e-09 6.67305e-09 -4.00274e-10)
(1.41072e-11 2.33805e-11 -2.00729e-11)
(2.13724e-10 3.56102e-10 2.78453e-11)
(8.19306e-11 1.86184e-10 -4.82942e-11)
(1.78973e-10 4.69674e-10 -1.0813e-13)
(4.74326e-11 1.23311e-10 -2.48224e-12)
(1.23165e-11 2.15624e-11 -1.27729e-11)
(1.09431e-11 2.98479e-11 -1.83536e-12)
(2.94642e-12 7.62676e-12 -6.99754e-13)
(3.86333e-11 6.84649e-11 -3.61033e-11)
(4.72393e-13 1.18853e-12 -4.40915e-13)
(4.83716e-13 1.46942e-12 -7.03109e-14)
(1.69063e-13 6.41596e-13 -6.53398e-14)
(8.45617e-14 1.96129e-13 -1.42027e-13)
(2.26184e-14 1.0023e-13 -2.13453e-14)
(4.28893e-15 3.71222e-14 -3.36939e-15)
(3.03524e-13 5.77869e-13 -4.31849e-13)
(0 1.224e-14 -2.86017e-15)
(5.33255e-15 2.7223e-14 2.5632e-15)
(0 3.6654e-15 3.91694e-14)
(0 0 5.70354e-15)
(0 0 0)
(0 0 1.11953e-14)
(0 4.33093e-15 9.77002e-15)
(1.50326e-11 -1.64068e-11 1.70639e-12)
(8.67796e-11 -7.02255e-11 1.60882e-12)
(3.18745e-10 -2.58384e-10 1.01672e-11)
(1.03044e-09 -6.68451e-10 9.50771e-11)
(8.01488e-11 -6.67247e-11 8.33144e-12)
(2.71308e-10 -2.19766e-10 2.32788e-11)
(1.74138e-11 -1.90597e-11 4.47323e-13)
(1.89203e-12 -1.61049e-12 1.63957e-13)
(3.27294e-13 -4.03395e-13 5.25898e-15)
(2.93278e-11 -1.85276e-11 7.09653e-13)
(5.41295e-12 -4.85741e-12 3.53986e-13)
(2.8151e-13 -3.39668e-13 1.91191e-14)
(2.64106e-11 -1.7107e-11 2.28828e-12)
(2.15457e-12 -1.81528e-12 3.341e-14)
(8.39952e-12 -9.40182e-12 1.91515e-12)
(4.5828e-10 -2.82218e-10 5.9445e-11)
(2.95562e-11 -2.62885e-11 5.68196e-12)
(7.85578e-11 -6.2731e-11 2.04136e-11)
(3.88211e-11 -3.11646e-11 7.40741e-12)
(1.64355e-10 -1.34888e-10 2.37615e-11)
(4.60486e-12 -4.7566e-12 1.24359e-12)
(1.00477e-12 -8.52574e-13 2.11597e-13)
(5.0808e-12 -4.49645e-12 5.48805e-13)
(1.53634e-13 -2.49956e-13 3.52661e-14)
(8.43779e-12 -6.23896e-12 1.86106e-12)
(2.12834e-13 -2.71611e-13 2.42822e-14)
(1.38429e-11 -8.74783e-12 1.71474e-12)
(5.4022e-13 -5.12287e-13 1.25597e-13)
(6.18704e-16 0 0)
(3.03165e-14 -3.21726e-14 0)
(1.39208e-13 -1.21173e-13 3.71222e-15)
(6.14879e-13 -4.29524e-13 3.71222e-14)
(2.70645e-14 -3.09352e-14 0)
(1.20291e-13 -1.03814e-13 3.09352e-15)
(1.85611e-15 -6.18704e-16 0)
(2.01034e-18 0 0)
(0 0 0)
(7.72684e-15 -8.0496e-30 0)
(0 8.41439e-16 0)
(0 0 0)
(6.24311e-16 6.24174e-16 0)
(1.0494e-16 0 0)
(0 0 0)
(4.00301e-13 -2.34007e-13 3.12234e-14)
(1.20933e-14 -1.85611e-14 1.54676e-15)
(4.73108e-14 -3.49111e-14 4.33093e-15)
(1.90054e-14 -1.85611e-14 0)
(7.67193e-14 -6.69463e-14 7.28878e-15)
(0 0 0)
(6.94865e-18 0 0)
(1.23741e-15 8.67286e-16 0)
(0 0 0)
(1.84505e-15 6.79096e-16 0)
(0 0 0)
(1.8561e-15 6.25448e-16 0)
(7.03891e-18 0 0)
(0 0 0)
(0 0 0)
(0 3.04759e-15 0)
(0 3.11008e-15 0)
(9.69736e-54 0 0)
(0 3.07413e-15 0)
(0 0 0)
(0 0 0)
(0 0 0)
(0 2.47482e-15 0)
(0 2.46918e-15 0)
(0 0 0)
(0 2.4668e-15 0)
(0 0 0)
(0 0 0)
(0 3.72082e-15 0)
(1.36785e-47 0 0)
(0 4.19421e-15 0)
(1.34428e-50 0 0)
(0 4.2323e-15 0)
(0 0 0)
(0 0 0)
(0 2.21661e-15 -2.89575e-17)
(0 0 0)
(0 2.4963e-15 0)
(0 0 0)
(0 2.47165e-15 0)
(0 0 0)
(2.66661e-13 1.00484e-11 5.13756e-13)
(-5.05466e-13 1.19416e-11 1.24359e-13)
(-5.89952e-13 1.05749e-11 6.86001e-13)
(-2.22733e-14 4.28143e-13 1.67839e-14)
(-8.00708e-13 1.58203e-12 2.75323e-14)
(-6.87748e-13 1.35806e-12 7.33325e-14)
(-3.03165e-14 4.77021e-13 3.09352e-16)
(0 0 0)
(0 0 0)
(0 2.79919e-15 0)
(0 2.8765e-15 0)
(0 0 0)
(0 3.30777e-15 -1.92746e-16)
(0 0 0)
(-1.71149e-13 4.98552e-12 4.4111e-13)
(6.682e-14 3.37812e-12 3.47704e-13)
(-3.0938e-13 3.93558e-12 4.53562e-13)
(-9.89926e-15 2.0046e-13 2.01658e-14)
(-1.66602e-13 3.81122e-13 5.20949e-14)
(-3.21997e-13 6.71294e-13 8.65521e-14)
(-4.33093e-15 1.30547e-13 7.64177e-15)
(0 0 0)
(0 1.1632e-18 -2.37559e-16)
(0 0 0)
(0 3.85489e-16 -3.75929e-15)
(0 0 0)
(0 2.72287e-17 -1.35601e-15)
(0 0 0)
(9.8697e-13 -9.87451e-13 2.51194e-13)
(9.54686e-12 -7.94687e-12 2.84602e-12)
(4.08215e-11 -3.3567e-11 6.89677e-12)
(1.9087e-12 -2.16051e-12 4.77831e-13)
(1.69114e-11 -1.32271e-11 4.39761e-12)
(1.1236e-13 -1.02705e-13 1.97985e-14)
(4.14532e-14 -6.62013e-14 1.12841e-14)
(3.27051e-12 -2.07334e-12 5.76323e-13)
(4.0587e-13 -3.6983e-13 9.59684e-14)
(2.16433e-13 -1.83136e-13 4.31166e-14)
(9.28056e-15 -1.48489e-14 1.53627e-15)
(1.93293e-12 -1.38336e-12 4.34021e-13)
(5.56833e-14 -4.94963e-14 3.95567e-15)
(3.42762e-13 -3.08268e-13 3.00604e-14)
(7.21864e-15 -1.29928e-14 0)
(6.12517e-13 -4.33465e-13 9.65866e-14)
(7.42445e-15 -1.29928e-14 0)
(1.00168e-12 -6.14062e-13 1.00997e-13)
(2.90791e-14 -3.09352e-14 2.74098e-15)
(0 0 0)
(6.37781e-16 0 0)
(2.66043e-14 -1.81457e-14 3.66046e-15)
(3.9241e-14 -2.5457e-14 5.25898e-15)
(0 0 4.91091e-17)
(6.5404e-16 0 0)
(8.01965e-15 -4.2761e-15 3.09352e-16)
(2.11615e-41 0 0)
(0 0 0)
(6.25951e-42 1.23936e-15 0)
(0 1.39093e-15 0)
(1.89764e-44 0 0)
(0 0 0)
(2.073e-39 1.28534e-15 0)
(0 0 0)
(1.97985e-14 -3.09384e-15 0)
(2.34762e-30 0 0)
(0 2.94151e-15 0)
(2.55548e-16 0 0)
(6.80574e-15 2.98621e-15 0)
(0 0 0)
(5.74733e-39 0 0)
(0 1.90772e-15 0)
(0 0 0)
(1.62341e-34 1.88703e-15 0)
(0 0 0)
(6.50608e-37 1.85833e-15 0)
(1.23189e-36 0 0)
(0 0 0)
(1.08118e-44 0 0)
(0 3.7013e-15 0)
(0 3.70587e-15 0)
(0 0 0)
(6.87641e-42 0 0)
(0 3.69567e-15 0)
(0 0 0)
(0 0 0)
(0 3.09351e-15 0)
(0 3.08707e-15 0)
(0 0 0)
(0 0 0)
(0 3.09313e-15 0)
(0 0 0)
(0 3.71221e-15 0)
(1.57984e-36 0 0)
(0 3.70547e-15 0)
(3.61126e-39 0 0)
(0 3.70858e-15 0)
(0 0 0)
(0 0 0)
(0 3.08707e-15 0)
(0 0 0)
(0 3.09352e-15 0)
(0 0 0)
(0 3.09313e-15 0)
(0 0 0)
(2.14206e-15 8.90315e-13 1.77385e-13)
(7.42445e-15 4.77639e-13 6.05609e-14)
(-4.77904e-14 5.72301e-13 7.388e-14)
(0 1.0518e-14 3.09352e-16)
(-3.41119e-14 1.11367e-13 1.68874e-14)
(0 2.59856e-14 8.58929e-15)
(-1.48944e-14 4.33093e-14 -3.52972e-15)
(0 0 0)
(0 0 0)
(0 3.12166e-15 7.25667e-16)
(0 3.09e-15 0)
(0 0 1.72382e-15)
(0 0 0)
(0 3.42107e-15 0)
(1.02484e-15 1.42302e-13 2.35461e-14)
(-1.1697e-15 8.59998e-14 1.41352e-14)
(0 5.13524e-14 2.66905e-14)
(0 0 0)
(1.14446e-15 4.33093e-15 -5.31837e-15)
(8.79254e-15 1.97985e-14 1.1898e-14)
(0 0 0)
(0 0 0)
(0 3.09011e-15 0)
(0 0 0)
(0 3.09163e-15 -1.16765e-15)
(0 0 0)
(0 3.42731e-15 0)
(0 0 0)
(4.33093e-15 -4.33093e-15 2.75415e-16)
(6.18704e-16 0 0)
(3.55755e-13 -2.07917e-13 3.99296e-14)
(3.71222e-14 -3.64207e-14 4.56796e-15)
(1.42302e-14 -1.11367e-14 1.51856e-15)
(0 0 0)
(2.26446e-13 -1.49429e-13 3.81988e-14)
(0 0 5.21097e-17)
(2.47482e-14 -1.14939e-14 2.13097e-15)
(0 0 0)
(4.3928e-14 -1.87363e-14 4.54235e-15)
(0 0 0)
(8.29063e-14 -2.93198e-14 8.23262e-15)
(0 0 2.09274e-17)
(0 0 0)
(3.12711e-28 0 0)
(6.18704e-16 3.65906e-15 0)
(6.18704e-16 3.70174e-15 0)
(0 0 0)
(3.76346e-26 0 0)
(0 3.65728e-15 0)
(1.24632e-31 0 0)
(0 0 0)
(3.94578e-32 2.47496e-15 0)
(0 2.50134e-15 0)
(1.80709e-34 0 0)
(0 0 0)
(7.62782e-30 2.48738e-15 0)
(0 0 0)
(0 4.33425e-15 0)
(4.08649e-22 0 0)
(0 4.27009e-15 0)
(4.1579e-24 0 0)
(0 4.29484e-15 0)
(0 0 0)
(2.05636e-29 0 0)
(0 3.09352e-15 0)
(0 0 0)
(2.10896e-25 3.09352e-15 0)
(0 0 0)
(1.42639e-27 3.09352e-15 0)
(2.57184e-27 0 0)
(0 0 0)
(5.7949e-34 0 0)
(0 3.09352e-15 0)
(0 3.09352e-15 0)
(0 0 0)
(1.79332e-31 0 0)
(0 3.0935e-15 0)
(0 0 0)
(0 0 0)
(0 3.09351e-15 0)
(0 3.08709e-15 0)
(0 0 0)
(0 0 0)
(0 3.09313e-15 0)
(0 0 0)
(0 3.09352e-15 0)
(1.04389e-26 0 0)
(0 3.09352e-15 0)
(4.72254e-29 0 0)
(0 3.0935e-15 0)
(0 0 0)
(0 0 0)
(0 3.08707e-15 0)
(0 0 0)
(0 3.09351e-15 0)
(0 0 0)
(0 3.09313e-15 0)
(0 0 0)
(2.85354e-15 1.85611e-14 3.98993e-15)
(0 1.23741e-14 -5.28473e-15)
(0 7.42445e-15 2.1781e-14)
(0 0 0)
(5.02757e-15 4.33093e-15 1.62656e-15)
(0 0 3.84094e-15)
(2.32644e-15 0 -8.63949e-15)
(0 0 0)
(0 0 0)
(0 3.11492e-15 7.30112e-16)
(0 3.09055e-15 0)
(0 0 1.68901e-15)
(0 0 0)
(0 3.4286e-15 0)
(4.16397e-15 4.94963e-15 8.18754e-15)
(0 1.85611e-15 -5.77921e-15)
(0 6.18704e-16 2.17676e-14)
(0 0 0)
(2.79836e-15 0 -5.21443e-15)
(2.81891e-15 6.18704e-16 1.03984e-14)
(0 0 3.09712e-16)
(0 0 0)
(0 3.0901e-15 0)
(0 0 0)
(0 3.08775e-15 -1.1663e-15)
(0 0 0)
(0 3.42696e-15 0)
(0 0 0)
(0 0 -1.12832e-17)
(0 0 0)
(4.33093e-15 5.59357e-16 1.20783e-15)
(0 2.4797e-15 0)
(0 0 7.52607e-17)
(0 0 0)
(1.85611e-15 1.79341e-15 3.66322e-16)
(4.33093e-15 9.89926e-15 -2.35405e-14)
(0 3.14425e-15 -2.11579e-16)
(7.20781e-14 1.63957e-13 -2.04791e-13)
(4.96559e-14 1.09189e-13 -1.08273e-13)
(0 6.18704e-16 -2.74938e-15)
(0 6.44393e-15 -1.6393e-15)
(3.10436e-13 5.93337e-13 -7.3966e-13)
(0 0 0)
(3.52898e-20 0 0)
(0 3.09722e-15 0)
(0 3.09658e-15 0)
(0 0 0)
(2.6955e-18 0 0)
(0 3.10365e-15 0)
(1.39363e-20 0 0)
(0 0 0)
(2.77339e-23 3.09352e-15 0)
(0 3.09352e-15 0)
(2.13832e-25 0 0)
(0 0 0)
(3.18688e-21 3.09353e-15 0)
(0 0 0)
(0 3.09374e-15 -1.3038e-15)
(1.14866e-14 3.40287e-14 -3.65035e-14)
(6.13898e-17 3.54934e-15 0)
(1.87603e-16 0 0)
(0 3.10758e-15 -6.11003e-15)