/*--------------------------------*- C++ -*----------------------------------*\
  =========                 |
  \\      /  F ield         | OpenFOAM: The Open Source CFD Toolbox
   \\    /   O peration     | Website:  https://openfoam.org
    \\  /    A nd           | Version:  9
     \\/     M anipulation  |
\*---------------------------------------------------------------------------*/
FoamFile
{
    format      ascii;
    class       volScalarField;
    location    "0.00245";
    object      p;
}
// * * * * * * * * * * * * * * * * * * * * * * * * * * * * * * * * * * * * * //

dimensions      [1 -1 -2 0 0 0 0];

internalField   nonuniform List<scalar> 
20292
(
139460
146417
140125
117441
116668
150354
136553
132631
151199
277470
251316
105181
360294
395244
286519
296228
400470
338383
311005
332803
278169
219579
296257
255733
222716
183193
426370
430960
330568
371650
403893
460137
337514
452967
384564
525266
362292
495943
347996
483169
519668
529561
377026
401673
508391
497957
392703
498907
381365
324720
394263
425933
405792
436082
228315
233986
355004
225889
333769
193646
289291
175434
214453
181325
200357
191353
226816
157036
208887
331008
240590
168731
174349
197913
225723
163826
176108
203943
151909
46374
168345
53078
244171
70251.7
377013
156185
215817
337399
36288.6
133938
156796
40334.4
156263
149484
50693.8
153933
42965.4
177921
196716
57911.5
198464
160277
63840.1
170781
65945.3
236469
327068
118675
308282
227743
123490
326485
465876
366897
148090
321763
329032
217045
243722
298983
210890
187699
100464
79157
67629
47599.9
81198.2
69548.2
97783.3
115365
89785.2
76265.6
55708.6
110408
94315.2
79025.4
175471
119265
100816
80367.1
149459
135928
120596
273973
239340
218346
183256
280864
264194
226108
279246
221045
259496
279506
303645
299023
171961
288796
295435
115935
111611
63669.9
37270.2
113257
65203.6
114522
117242
38385.2
118408
70150.2
115183
67013.3
119946
102739
48732.4
86198.3
73968.2
83033.7
71152.8
106522
128324
122935
74193.1
46600.7
123399
129126
79754.7
136360
51534.7
151256
97177.8
138586
87511.1
147206
121853
58997.3
108306
89188.9
100121
82939.9
132192
184197
167913
109838
77315.2
162179
190498
128093
215134
94522.1
263630
186340
221963
153903
253890
216161
97218
199494
190483
161914
152610
258130
571174
517102
445658
479120
508439
547478
486246
585136
425926
492216
488523
550870
449406
439556
384907
527962
456613
461190
598378
447693
491686
534124
315460
310784
222143
177554
292153
343400
254458
310941
198964
324024
276644
340782
272754
301215
242534
198925
257671
194990
266137
214715
205042
330710
222259
276758
359935
281604
310906
299459
258967
105461
214685
309272
140767
210014
101758
299877
263488
304673
285549
285916
297494
279667
101299
343866
106198
258694
262173
266052
307913
334184
417306
456020
290567
413426
244233
187861
173107
210537
205323
199057
190005
348609
331170
289401
259614
333653
290252
345293
355980
260168
347364
294703
339028
291767
368016
402195
357634
299419
274098
383451
370651
307930
423861
287657
410952
337336
387815
320984
448776
485640
437358
354453
364886
473056
458121
374360
483060
397368
451957
409447
464317
398690
455209
286219
397642
392595
388338
381917
310420
353329
196197
330997
160334
204503
225987
279816
142468
411761
433661
488127
441044
445756
377326
487462
337392
387701
211722
347620
294079
446836
247561
160403
154275
179784
177428
152335
158819
182520
169292
235508
179164
190274
159570
169450
189006
222438
299146
298073
336334
212184
227816
221959
139834
103158
166932
101803
213404
101311
111187
101299
246969
101535
101298
101298
119260
164273
131703
168179
121600
130190
126324
124731
140921
187470
204362
262969
129177
113437
233028
306355
213754
287264
166807
141636
105709
104168
210333
104967
224108
104492
191496
157351
228490
156361
197471
150498
227257
223245
132834
216592
207180
273525
154460
171348
224522
115333
102192
134131
112762
102612
101343
101817
101404
101301
101755
101334
101308
101300
114026
103676
101485
107400
101355
120809
98773.2
129405
121490
100710
132011
117961
123397
125021
106412
142829
102929
135705
127921
132793
122456
153067
122233
122082
153484
133686
131147
123873
121026
155894
121673
154541
128411
141153
109679
153078
155450
133252
114763
168932
152692
176792
137534
221674
123189
192068
170861
119147
119751
156213
132476
124238
117270
154245
240267
162040
251164
249780
199966
197742
268084
272117
245281
246583
233268
231812
265239
281247
212146
230740
175262
130204
259124
195732
128576
161994
112359
133986
104509
160406
110334
128030
222903
201542
192268
258554
198841
262150
203645
140315
131319
107098
103756
142601
124647
105614
151753
169813
142447
155004
171321
184470
182472
185267
186404
179428
201097
192560
212986
204709
241588
169638
205006
235621
138261
159413
199829
111907
102360
104611
104370
101653
101619
102397
251190
195579
255293
173043
175928
135569
225182
101301
101299
101298
101303
101299
101298
101298
106141
101351
101349
101299
147644
171678
179908
161003
174589
188825
196145
193914
233490
187790
218198
194201
218287
216342
174515
142260
104897
199184
113939
119621
105683
102504
101637
101344
102304
101422
101400
101332
122719
102451
102362
112124
112005
104908
101652
122389
101320
101317
102587
115434
101313
101310
106236
101304
101302
101407
101373
101300
101299
101305
101299
101299
101300
101299
101298
101298
101298
101298
101298
101298
101298
101298
101298
101298
101298
101298
101298
101302
177275
118852
274739
101487
203504
322775
114664
102730
143634
101735
282754
333031
209219
233493
265788
281231
116366
101402
101298
101317
102962
101313
249231
233640
102350
270829
235213
226774
101708
188349
200190
101483
265629
120157
137602
101320
102479
101560
101300
104007
101305
101310
101299
101300
101300
101298
101305
101299
101298
101298
101299
102674
101423
101300
101300
101302
101298
101299
101298
101298
101298
101298
101298
101298
101298
101298
101298
101298
101298
101298
101298
101298
101298
101298
101298
101298
101310
101301
101299
101298
101298
101298
101298
101298
101298
101298
253224
256430
237676
308310
271384
313442
427241
379518
335546
101298
101298
101298
101298
101298
101298
101298
101298
101298
101298
101298
101298
101298
101298
101298
101298
212314
101743
101677
159423
353943
102951
314396
111061
101310
101300
101298
158315
163257
224154
253614
319559
453654
333937
117036
102294
101305
201385
288132
144767
166782
216491
178393
228440
258637
223135
250764
301923
221806
269993
383603
302483
230438
226634
219798
231755
223324
236166
227584
223702
214927
217150
222044
243533
246954
273923
261704
251085
240950
264147
235896
253071
234234
254795
337065
306435
291728
347237
294158
351590
334292
325692
281436
283359
323340
192893
213435
294426
596703
294923
177710
205632
185642
190941
262357
230718
257252
485126
409346
588401
183179
181927
194319
195397
184605
196551
180877
208873
202891
212498
223739
200004
213301
220808
309383
282874
283771
338394
270232
325389
325108
660778
565442
596653
661385
563535
613838
723909
387018
333526
166600
172829
154790
179715
175287
157091
163856
181026
192520
195716
177932
161042
147103
149741
158303
186932
199194
194981
206072
188539
200199
193015
170218
181716
184031
164331
178521
159589
176083
184369
203966
199130
189509
164439
156981
152592
169743
192844
191331
170624
199132
183364
201293
179028
202417
208753
195044
215967
183290
162393
175734
169482
222362
239330
251586
254501
228909
234162
242217
206675
211964
238481
208806
216686
191419
225914
213983
245870
227653
231451
194322
195088
180038
210530
287556
267986
232327
293376
251958
307517
264083
295613
273420
257490
314068
267986
216013
234028
245898
365206
398707
466246
471728
383316
384308
447662
338079
342120
438049
370848
361336
308442
411490
351901
464723
374346
436375
317728
349369
288861
391433
683359
595187
555902
756561
659361
658187
523245
664638
603439
745909
565764
717501
768811
823408
647712
337523
502096
275103
240355
421023
301544
339488
260348
255038
260567
281987
311708
196691
213124
240522
291922
373340
475515
526346
305779
243149
270786
220749
252183
226885
231762
278500
308600
437852
254619
344067
348405
251271
258925
371262
356067
268441
297492
388330
279903
410676
322588
439073
532249
232258
278594
199185
222830
281038
201922
229445
235020
224000
288489
208464
283516
204268
241091
260866
294391
215642
241080
248730
305870
226317
279867
256179
351809
265907
324975
242192
306937
379249
383386
298166
345968
340858
416977
339624
419511
391028
455548
452877
445156
392541
447380
101659
101298
101299
101298
101298
103797
101409
101625
101322
101299
101299
101298
101298
101298
101298
101298
101298
101298
142995
212272
79275.6
192210
116233
101388
101307
101298
101298
156623
225070
93677.8
232148
111919
101321
101298
101298
101298
237406
300109
127983
291264
103776
101299
101298
101298
101298
516883
617892
374937
113526
101327
101298
101298
101298
101298
301792
350460
197769
299194
101299
101555
101298
101298
101845
349002
101299
106721
101298
101298
239818
206781
243546
222377
207563
62500.4
147678
215576
64320.4
202781
219814
214290
124368
84639.8
133016
133721
234083
118408
204386
133909
232116
111679
101805
104128
101474
113646
101608
102917
101332
256455
291068
220539
68029.6
170819
261082
74202
268923
150260
105070
181678
133070
219179
108422
267833
123311
148744
102366
101516
102378
101313
105556
101336
101445
101302
360352
445365
475051
292222
157229
350038
486124
225334
497977
498023
251705
190388
364847
117410
106829
101714
226071
102986
101532
101306
101313
101353
101300
101436
101298
101300
101299
479762
496504
291474
314759
595649
368712
486572
581979
479846
617429
643260
643836
374891
413439
104079
101682
101303
101300
101314
101309
101299
101299
101298
101299
101298
101314
101348
101298
101298
292464
102190
103379
103069
170473
101299
101338
242927
104568
109002
208943
263601
101375
105601
200301
259891
228236
245738
324598
104049
423690
101299
101608
101298
125536
129411
111116
223207
141240
210152
119291
228226
150005
141552
180533
135139
278088
168764
259121
158470
292387
203935
246219
377552
238644
447594
278157
465036
375345
458618
386570
515325
389661
510865
109815
365750
119532
239324
101303
102444
209570
212616
203446
213220
213825
205814
207186
81632.6
54300.7
55750.9
50335.7
28580.6
29289.7
49113.3
104079
104702
118959
115666
104495
118120
104267
227795
227042
217256
233603
221750
235850
222206
65505
98668.3
69359.9
59747.5
34429.1
57404.2
36117.5
102341
103195
111548
109879
102806
102682
108751
330172
304926
276683
344141
287958
349960
316497
150857
94506
114360
87043.1
46860.9
73781.2
57475.8
101362
101590
102866
102541
101466
101424
101960
795558
629543
598079
705293
621779
725239
771653
421336
274383
356311
311815
157659
240235
234661
101298
101300
101309
101303
101299
101298
101300
117076
276385
339287
307678
404774
361162
311356
329664
421667
454417
363984
286769
352601
360478
265985
290542
233648
385806
238590
380955
253229
101298
101298
101303
101456
101298
101301
101298
101816
101298
101301
101304
101328
101298
101298
185364
202615
194133
208657
204020
196431
183842
63205.5
103432
104923
126754
45481.5
45905.5
125756
173479
187240
188180
172285
187916
211480
211049
204595
206891
199723
191977
107286
65908.3
110827
128132
47253.2
46454
130007
175292
191254
189216
178914
209388
209478
202564
204796
211063
204704
207210
204644
196132
197649
202622
206386
199525
202569
203944
212793
215863
220859
213679
216458
209081
217431
212758
208198
219522
213773
214056
208159
217959
207329
203561
199890
211467
209702
210839
206194
213977
128469
105267
109066
80038.5
101717
104809
76529.9
58168.5
89008
61741
52224.7
32505.1
30567.7
54939.2
112756
140745
118609
82792
115712
108951
87575.2
172157
122396
153475
133675
123674
152728
171180
174577
133937
131485
149596
126797
151609
178088
101724
101875
101686
101766
101835
101655
101757
103745
114870
103712
114424
104161
116648
103299
101663
101697
101678
101522
101767
101596
101586
201755
216457
209068
228043
196278
224368
214397
114620
70474.7
119178
136436
48203.6
132734
49163.3
187180
193332
182600
196255
211258
240781
257827
239009
237407
223986
226108
126543
138726
80483.2
142216
53610.4
50804.3
150843
194892
214999
203228
206788
218576
206310
213846
209742
239689
247490
272720
250027
250320
232722
259019
229225
232090
218251
246461
125159
163204
133388
96982
123712
92033.2
134436
74356.4
114145
82049.7
62487.7
41176.3
38088
66607.1
209427
144297
159376
103323
174669
150036
112679
185106
137398
145934
131115
182017
143678
139716
185345
128015
155287
122612
149584
131644
179903
101431
101580
101449
101436
101504
101490
101388
101951
107740
101856
104325
102226
106304
101659
101375
101375
101361
101319
101415
101345
101337
282810
287940
261512
336429
248568
330223
297698
184852
91094.2
108713
185661
58633.4
164006
67406.4
255177
234387
225428
266375
333480
398916
465927
434160
388322
351940
409075
284439
137657
184347
221304
109442
82429.9
277301
301597
402593
318581
374563
315705
255914
273897
294323
392047
407116
505506
464927
413417
375455
485589
399343
409186
505302
486489
414730
395648
492084
378969
447591
354088
476193
389140
480212
385908
485344
309744
181803
218340
157481
214406
128437
270136
145916
195225
259430
113179
106464
75869.9
162976
382799
281596
362413
208998
342989
323668
282139
143968
158235
114015
111407
165879
154824
107365
120917
106234
121268
101898
142517
103521
107109
101304
101327
101307
101303
101315
101309
101301
101317
101784
101309
101353
101340
101515
101303
101300
101299
101299
101298
101301
101299
101298
657166
560581
558718
663535
521571
613320
716386
462094
352252
256180
484961
156919
362423
230878
654006
537963
488035
737943
700545
657048
520533
731487
600091
777060
656823
532714
527152
443153
579824
384488
311742
608571
802017
951380
908875
850748
791669
627610
617360
699232
626143
722156
768853
837596
594308
624358
807266
833624
619252
629718
807245
875979
708357
677191
807785
736843
850097
831900
861083
705065
676410
751904
733944
817749
807934
997042
1.02924e+06
982916
1.0253e+06
970067
883909
911362
971732
215503
337129
409069
321990
298349
338801
197177
434886
282854
398798
327898
333084
302760
263457
134047
249207
121300
230251
104874
121840
139123
101504
106497
101421
101365
102511
102184
101319
101331
101310
101326
101300
101444
101301
101304
101298
101298
101298
101298
101298
101298
101298
101298
101300
101323
101302
101300
101299
101304
101299
101301
101335
101311
101300
101299
101307
183132
290980
215840
365172
192920
334526
225282
109323
124057
102457
102578
114358
117610
101924
267399
268631
224993
324467
234647
356663
261117
137451
134687
105916
103438
144239
127454
104512
146819
156876
107466
107086
152104
154590
105812
103336
101596
101298
102302
101299
101298
101399
101298
101298
101299
101298
101298
220178
101904
101298
107981
101298
102895
102645
102466
101809
101523
135222
102002
105833
132281
101300
105820
101301
105038
101300
101757
102441
101299
101330
101357
101366
101299
101300
109965
260143
105892
110209
110219
103073
103191
109767
102942
110843
104618
106806
102088
101982
106128
105321
101803
101476
102156
101354
101335
101782
101658
101317
101300
101309
101299
101299
101303
101302
101298
237822
206023
213943
294897
203995
273840
250782
101658
101302
101300
101334
101324
101299
101298
109120
102954
108110
102406
109088
102708
107697
103342
101718
102956
101436
104021
101583
102385
113781
134910
110757
137749
114083
148271
108819
102801
107353
123895
123540
105018
104348
111716
101355
101310
101335
101300
101420
101304
101314
101796
112201
101674
102398
102486
104959
101447
101313
101415
101638
101678
101344
101337
101409
101300
101302
101353
101314
101303
101299
101313
101304
101435
101344
101317
101315
101337
101310
152419
157545
109053
107903
151525
158599
107243
676051
389501
468382
629962
435553
494773
536706
724063
407585
495744
718090
484187
563814
573704
389702
594267
324643
372141
670299
444066
520325
196265
142676
146865
184856
126791
129962
181977
101359
111523
109407
104197
101303
102845
101301
101299
101299
101304
101790
101302
101555
101300
249752
182057
204807
224228
160579
211175
179914
103146
101303
105612
102292
101300
101419
101299
101301
101298
101299
101459
101299
101316
101298
278632
301688
328977
226993
261114
247571
282099
101326
101298
101314
101342
101299
101299
101298
101298
101298
101298
101302
101298
101298
101298
102223
108168
179628
102097
159182
106299
111519
101298
101298
101299
101298
101298
101298
101298
101298
101298
101298
101298
101298
101298
101298
330571
112011
162299
140414
348152
195397
293774
101684
101317
101457
101328
101551
101316
101309
101308
170887
102682
345491
156978
114871
101329
254349
104499
200036
368178
192396
129340
101362
101298
101315
101299
107896
101302
101299
101298
101342
101819
101299
113994
101306
101300
101299
153802
216993
165617
190907
146356
136258
199930
283782
234145
267047
237596
231154
204086
248597
144081
332491
286706
179513
237951
280284
126854
101517
102868
101415
101423
101578
102925
101319
101370
101744
106807
104375
102174
111680
101530
258347
214409
227589
282345
260647
293450
238273
157193
259794
300483
345431
175995
410062
114337
101367
322827
226541
385465
102169
166468
101321
101305
101299
108736
102009
101299
101299
101298
101299
103820
101491
101506
101300
101300
101298
101298
101298
101300
101298
101298
101298
101298
439407
480046
448376
546137
408063
450045
394896
101301
101333
101366
101303
101315
101299
101298
101386
101309
101390
101304
101343
101301
101304
101340
101360
102021
101850
101343
101680
101328
101301
101300
101507
102042
101309
101813
101305
101378
101298
101313
101499
101302
101343
101300
101298
101298
101299
101304
101298
101299
101298
101298
101298
101298
101299
101298
101298
101298
101348
101371
102130
102063
101367
101859
101346
101357
101367
101304
101873
101331
101530
101351
101709
101334
101318
101298
269770
286622
327406
232365
209173
357124
284597
228051
230267
306042
237015
238986
270346
331648
311451
245717
347789
373526
303555
318076
302687
455815
341068
248073
475100
513770
278185
282513
233254
351083
568228
161012
360451
251526
227025
209235
244627
254985
215272
222413
346745
419007
248977
281821
506651
509022
332756
433225
344501
169390
413590
273886
277060
267145
272372
305859
276915
280641
300192
231801
262775
270831
249374
224527
228003
242842
293997
278309
285647
312542
291034
285225
322570
279100
292963
245120
258000
240073
232848
271919
316956
306712
292894
358034
301388
335898
319753
337975
256941
273719
312135
250438
288984
265712
346053
332310
324690
390645
378482
346731
425622
416471
297220
328190
342009
315302
287032
377228
307943
332688
323952
441573
402128
444002
410325
475995
363952
400357
437036
348788
411259
384502
272061
258477
278184
420797
371784
402485
378187
438853
434446
460691
448319
472391
425052
430257
238094
242580
248605
287926
319469
327844
274800
243784
456479
408973
267368
495778
364985
462033
133936
319142
230862
173497
255033
367485
131288
248673
297420
303756
311639
325825
264552
377529
277612
295387
467467
319736
350770
522159
384558
418265
451836
447164
455837
227621
434938
370897
168016
279443
235100
204124
227335
233456
267237
258150
231734
231701
260203
233644
263615
272402
234658
269425
243253
263827
237566
280596
311772
279162
251698
257564
292904
295365
265051
337633
276134
349681
311087
318541
284264
367870
429962
385719
345897
389095
398537
423543
389532
457003
447024
483163
502309
458982
442642
465578
357480
472764
541455
571823
436915
406309
527365
261887
504698
236263
315353
309164
445560
119167
262967
101298
101298
101298
101298
101298
101298
101298
101298
101298
101298
101298
101298
101298
101298
101298
101298
101298
101298
101298
101298
101298
101298
101301
101298
101298
101299
101298
101298
101298
101298
101298
101298
101298
101298
101298
101298
101300
101298
101298
101299
101298
101298
101298
101298
101298
101298
101298
101298
101298
101298
101298
101298
101298
101298
101298
101298
101298
101298
101298
101298
101298
101298
101298
101298
101298
101298
101298
101298
101298
101298
101298
101298
101298
101298
101298
101298
101298
101298
101298
101298
101298
101298
101298
101298
101298
101298
101298
101298
101298
101298
101298
101298
101298
101298
101298
101298
101298
101298
101298
101298
101298
101298
101298
101298
101298
141985
188872
274733
216145
218975
196939
176415
256767
253949
242244
345059
277690
130320
145326
203488
123730
179224
188571
131964
225985
224707
234264
257240
219036
244453
228848
216222
211600
230365
266041
359698
105000
276057
342074
332817
378146
169963
206830
196439
182994
192532
196021
196495
185722
200156
224174
218272
244403
206487
216935
164984
227444
205230
206605
238911
236274
194597
209097
228555
219801
338946
276049
257144
250782
283145
289292
107559
218751
252231
337527
248385
256800
284134
305230
462659
473025
284675
373120
251907
326561
330228
337926
269214
355467
375214
401408
305438
361066
431638
331939
473092
354387
376373
482035
378779
417653
505709
388112
528444
316462
432927
356270
432590
502400
422750
239414
239004
243504
225604
228571
233933
229923
258848
260673
285227
269589
269765
246022
254250
247047
248699
258556
231957
237513
245094
238011
262753
252368
249389
236656
239120
250823
252438
287607
311036
282734
305460
293145
323890
325682
183056
136064
126744
286405
228589
247376
198146
259693
258237
267321
101298
101298
101298
101298
340046
278050
281687
334806
347964
297133
287238
362047
416252
311058
383700
329098
461594
380289
351139
515308
569573
414528
560166
449958
531400
455470
469108
435118
220293
401741
302542
314992
205473
249251
255867
213278
101298
101298
101298
101298
101298
101298
101298
101298
101298
101298
101298
101298
101298
101298
101298
101298
101298
275575
262507
298881
101298
101298
101298
101298
101298
101298
101298
101298
101298
101298
101298
101298
101298
101298
101298
101298
257615
264133
265334
242043
254496
246597
257763
268368
267509
267684
275527
254240
264661
277625
318151
323933
363941
338923
356072
384319
339525
298270
314965
287991
307300
290437
298221
325682
207546
210026
199629
190710
193372
214128
211610
265815
268512
273525
261958
263728
273257
275703
277048
281121
272306
265903
269082
278677
282807
319195
366960
342502
325111
319675
352893
376525
202948
218680
209088
196208
202767
222199
216547
217272
219425
209235
229540
230903
216435
218262
275468
285099
299657
275939
289348
291098
307043
243734
226990
217328
229214
211179
223249
230304
301778
333343
319125
310554
337833
330936
360100
261263
264344
293755
246968
273191
241272
267337
212347
233331
227901
218113
237986
225818
220898
241181
227356
249601
251182
228784
223130
224745
296812
410591
399330
315898
388599
406400
328425
236709
226366
246349
260089
244835
233360
238239
271706
280897
311172
288590
262431
255993
282200
326816
323634
334331
363833
386079
385635
404047
330340
330403
371662
355605
308810
301814
346492
248129
231219
253959
231235
259061
235248
227055
404896
312579
391523
284193
316259
398675
410133
250933
286549
391629
238942
359141
381005
258334
397979
476437
347444
489063
335554
447605
260642
380952
441148
314778
362808
443800
318487
375754
389406
369277
470088
334219
452377
323974
405059
464392
496508
349281
419238
428450
536146
367823
515116
446809
612342
424468
586847
391381
573565
568717
571616
459111
461648
604884
475101
481861
471596
409035
269271
415478
356095
466215
347003
219560
217132
335679
204092
259834
182503
261146
157616
131824
202598
170764
158571
218898
160507
224380
202775
294229
229327
102816
101298
101298
101298
101298
185626
189419
326808
129189
102013
260893
188048
263654
276742
196970
281592
256084
276235
107389
102583
103640
101407
101315
101438
101983
225174
277523
234112
281202
292373
258704
303896
189769
195692
110398
223429
101350
109058
101302
101761
101302
101300
101301
101333
101304
101301
101298
101298
101298
101298
101298
101302
101298
101298
101298
101298
101298
101298
101298
101298
101298
101298
101298
101644
101298
101298
101298
101298
101298
101298
101298
101298
101298
101298
101298
101298
101298
101298
101298
101298
101298
101298
101298
101298
101298
101298
101298
101298
101298
101298
101298
101298
101298
101298
101298
101298
101298
101298
101298
101298
101298
101298
101298
101298
101298
101298
101298
101298
101298
101298
101298
101298
101298
101298
101298
101298
101298
101298
101298
101298
101298
101298
101298
101298
101298
101298
101298
101298
101298
101322
101298
101298
101298
101298
101298
101298
101298
101298
101299
101298
101298
110001
101298
101298
118517
101298
101298
101298
101298
101298
101298
101298
101298
101298
101298
101298
101298
101298
101298
101570
101298
101298
101298
101298
101298
101298
101298
101298
101298
101298
101298
101298
101298
101298
101298
101298
101298
101298
101298
101298
101298
101298
101298
101298
101298
101298
101298
101298
101298
101298
101298
101298
101298
101298
101298
101298
101298
101298
101298
101298
101298
101298
101298
101298
150393
195885
196785
159331
160336
225257
225288
340223
349802
393358
365695
373000
325007
318336
312822
262789
297408
404749
410396
413220
402187
261646
236177
383888
377589
326973
327309
237864
270057
249158
238064
268181
282940
241915
253278
321779
293201
266702
304983
336387
271227
298260
153564
197114
198860
161318
224869
163307
225033
454410
462724
419479
415612
493340
416403
404582
402454
379787
330486
374856
415230
336079
386012
235553
382964
329956
232851
250384
326468
384913
429947
438644
507883
427572
435405
483076
516866
161147
202594
210160
166357
226985
233363
171220
247363
232472
241006
313273
292446
377092
354021
180226
222803
240888
244316
258040
179802
191266
106356
283815
101298
101298
101298
101298
101298
101298
101298
101298
101298
101298
101298
101298
101298
101298
101298
101298
101298
101298
101298
101298
101298
101298
101298
101298
101298
101298
101298
101298
101298
101298
101298
101298
335728
350147
217756
218137
360530
380829
315538
337987
385717
317295
356109
369159
342894
410938
326063
395955
321641
385085
252557
315059
321701
248245
365169
345649
381365
316981
324943
214405
266938
254135
293095
200264
268824
392977
296660
395066
226074
290553
217368
279086
308505
270038
229539
284373
375413
191758
264811
115285
223129
283723
267160
302109
136101
299353
159473
218384
164153
106870
110467
496370
432644
397844
367140
436539
397684
497636
473430
386943
395232
340418
377829
391096
480256
498894
372503
463571
405354
447441
401129
500631
464940
331717
339235
376089
362809
386177
447684
477854
485998
405135
403318
498245
510912
392415
372840
307112
358755
274380
417481
269214
334462
434358
405608
492674
338186
517862
366853
375118
323334
251854
201319
285013
233319
308196
278279
265330
440635
313588
348306
316341
369723
286937
203798
171086
260805
154285
239503
143939
228665
222304
312877
229837
210744
292087
250458
189763
172896
127902
114579
156724
124732
189268
150100
162889
194537
181600
196718
170254
183101
169784
108679
106879
125521
171013
217153
223345
102736
227553
189334
166486
202624
179472
193161
187761
177101
161347
109953
247525
242567
219471
172902
175283
210079
230513
167741
177606
215357
110030
145618
109389
113209
176932
214807
129831
109935
138729
109130
136440
109199
131272
132551
120274
125107
157519
117001
137972
134827
174259
167651
154913
184436
194949
156730
168895
197665
171197
233363
241920
271299
101300
101298
101298
101298
101689
101366
101299
101298
217299
276086
275630
184231
184263
256529
256293
442255
487774
455747
493384
447289
520417
521099
217593
263743
292867
272879
291331
206014
226635
467471
481362
463105
445240
536609
570315
555420
144777
181813
184084
191665
193544
165917
164236
480309
486908
596236
577496
504959
590057
611225
230911
243941
275451
223706
227302
240276
270520
279365
256809
256254
184034
219250
184881
277255
304382
345312
204345
229300
226822
361983
237727
188114
151977
194425
196891
201929
168681
172864
172157
152273
154441
173231
135149
105012
107129
279499
329973
375771
317453
349258
255740
294870
225010
217491
225521
233470
260234
227370
250887
282299
257983
219827
186391
220800
260954
189394
198820
214233
203145
194025
198327
197658
191214
457789
507470
503436
602432
585856
593359
613676
218237
162681
160265
147208
149180
191302
194020
447708
409070
398324
284765
379873
505683
542482
253280
302345
301575
283794
328057
328101
284413
173902
136224
175656
138159
159633
113569
109431
201935
161999
211377
208554
217159
183382
177916
292016
228105
223453
266404
274049
194807
202693
166057
229105
170893
152132
198288
156318
205290
476914
411488
310350
485668
410128
573260
588835
220293
215346
226978
212703
219319
219766
225769
308300
256150
304655
283372
331581
330080
280533
300249
252975
235485
284068
297801
214452
232367
121480
101298
101298
102249
179061
335017
101361
101298
101298
137674
158792
134200
111160
115026
144513
134307
129605
148839
409214
372031
370829
331995
347816
416340
398991
225180
185062
245279
229872
248903
191985
205388
214869
206498
208558
218284
219642
211004
211551
197002
175185
182607
192810
200160
212212
220861
141133
162801
181857
167905
146482
118230
124262
465383
389797
266455
356614
424980
559770
584246
123125
103400
106040
109068
110849
79994.8
81589.3
237857
176469
183549
160780
214069
166771
224864
209244
199288
202570
226646
217910
206940
209303
152222
152153
149151
121929
124898
114396
116979
254005
194869
191769
244644
241475
295728
292652
198433
199734
215109
228125
228232
247411
247795
309496
206139
272872
276181
314658
255552
225527
135028
110470
117150
113705
117735
84233.2
88079.2
312123
255846
253730
268228
330120
274868
322160
328347
316964
285905
318276
339247
258353
293756
235108
241044
314037
209129
277034
216816
188062
239783
211364
233018
218030
253203
228160
238821
161012
179452
160421
161132
147559
178609
160625
199390
249577
265440
206114
256675
300462
308128
215739
227236
217196
201239
226146
246627
245084
101298
101298
101298
306127
193416
191394
115396
214026
126552
149544
129465
98892
102169
116524
80120.7
84654.1
113179
140141
129631
137096
141516
131665
150593
138566
177633
113326
129165
133808
123187
111913