/*--------------------------------*- C++ -*----------------------------------*\
  =========                 |
  \\      /  F ield         | OpenFOAM: The Open Source CFD Toolbox
   \\    /   O peration     | Website:  https://openfoam.org
    \\  /    A nd           | Version:  9
     \\/     M anipulation  |
\*---------------------------------------------------------------------------*/
FoamFile
{
    format      ascii;
    class       volScalarField;
    location    "0.00245";
    object      rhoE;
}
// * * * * * * * * * * * * * * * * * * * * * * * * * * * * * * * * * * * * * //

dimensions      [1 -1 -2 0 0 0 0];

internalField   nonuniform List<scalar> 
20292
(
353396
375977
355165
296918
294914
382508
345824
334957
385489
770103
696256
263009
1.07946e+06
1.17946e+06
884038
905765
1.196e+06
999779
950692
1.02018e+06
789650
571416
881418
696544
585745
480240
1.27293e+06
1.2684e+06
1.00853e+06
1.10628e+06
1.21484e+06
1.34934e+06
1.02217e+06
1.35144e+06
1.14584e+06
1.56092e+06
1.09816e+06
1.46238e+06
1.05209e+06
1.45131e+06
1.59697e+06
1.58285e+06
1.15011e+06
1.20479e+06
1.54621e+06
1.49208e+06
1.20973e+06
1.54192e+06
1.14553e+06
929322
1.22258e+06
1.26288e+06
1.26146e+06
1.33801e+06
619576
634712
1.0736e+06
608970
982598
505865
822025
450111
560800
467572
513642
492747
597685
399233
579500
1.00296e+06
664347
434446
446298
511143
605684
415678
457073
537974
532707
136351
571801
155241
811949
211193
1.24367e+06
491588
578366
1.02402e+06
139605
496430
545536
151451
495612
430665
148631
441902
158704
588190
658530
205132
622173
454822
188918
486240
231316
733255
1.08724e+06
407726
961996
670278
387236
1.01576e+06
1.51064e+06
1.06892e+06
503172
972100
965727
680171
675767
878821
624161
495298
258514
220333
174173
139880
225746
179088
251576
298464
248257
196061
162964
284297
261510
204573
481730
339880
270654
246139
400890
393070
329995
793938
727997
639705
573389
831013
806953
648667
791918
695654
751852
820184
900702
859714
444309
826883
847182
444410
408803
225912
142434
412765
230073
440401
448669
146197
427515
242889
419361
235415
453919
264289
143303
238520
189930
230667
183067
273981
469965
437961
252707
169618
459552
454283
266736
489737
185051
522331
315568
482612
287872
519192
317881
173246
304676
236563
279471
217214
348870
629180
574972
353579
269154
562396
646653
410203
727458
326905
887027
595462
748912
491900
853336
615011
302482
594896
554417
474660
430202
759890
1.76195e+06
1.64375e+06
1.43104e+06
1.52098e+06
1.57272e+06
1.71999e+06
1.54078e+06
1.76839e+06
1.36754e+06
1.48431e+06
1.55003e+06
1.66997e+06
1.37688e+06
1.29835e+06
1.15716e+06
1.61417e+06
1.41057e+06
1.38342e+06
1.77387e+06
1.36848e+06
1.51355e+06
1.60279e+06
1.02907e+06
1.04034e+06
706494
592840
972477
1.13037e+06
804941
978518
645012
1.00478e+06
839852
1.08682e+06
849098
909602
677389
608530
747205
525467
797660
596658
549866
1.01417e+06
713310
843254
1.10869e+06
871940
932075
890079
723668
263718
576833
921317
357065
561453
254397
875689
801206
912647
842366
847009
871024
803416
253248
1.05095e+06
265586
809181
809455
810566
943021
1.04028e+06
1.36392e+06
1.48243e+06
823322
1.3431e+06
662235
490700
452620
587670
554871
551806
516850
1.08015e+06
1.02761e+06
904923
812911
1.03558e+06
908484
1.06977e+06
1.09941e+06
812173
1.05944e+06
912077
1.04726e+06
911254
1.12545e+06
1.20604e+06
1.07374e+06
916243
828716
1.15785e+06
1.1025e+06
936545
1.27457e+06
871806
1.24121e+06
1.03661e+06
1.15713e+06
978498
1.36313e+06
1.52378e+06
1.3462e+06
1.10177e+06
1.15736e+06
1.45815e+06
1.44342e+06
1.17932e+06
1.5394e+06
1.28467e+06
1.4755e+06
1.3182e+06
1.4951e+06
1.27521e+06
1.45683e+06
856994
1.29294e+06
1.2488e+06
1.22698e+06
1.20638e+06
977628
1.07675e+06
533273
981757
435339
526832
665404
781623
365883
1.29889e+06
1.3951e+06
1.57165e+06
1.40221e+06
1.43717e+06
1.18396e+06
1.54647e+06
1.02017e+06
1.17459e+06
601707
1.01233e+06
879423
1.37041e+06
715221
412685
400458
460963
469616
387087
413850
477862
457697
652029
483891
526884
425073
459715
517622
625996
867432
865127
1.02092e+06
590391
644933
617917
370735
257909
451973
254509
589057
253278
278323
253247
712865
253836
253245
253245
305937
446563
340646
457861
318798
329003
332474
314134
367123
515226
560742
766416
340413
284189
649726
920967
575633
830169
431152
359751
264344
260451
624791
262468
610428
261270
531071
407085
641216
419878
549617
386724
636477
632506
336125
594434
573361
792957
397996
446003
612377
289119
255484
338977
282394
256536
253358
254542
253509
253252
254388
253334
253270
253249
285613
259211
253712
268637
253389
309679
249826
335981
312349
254873
343565
302122
316420
322024
269459
373961
260554
353832
328339
336467
310233
401139
320890
309218
402405
338896
331859
325510
306093
407805
308020
404886
324282
365203
278197
403503
410028
342707
292601
450956
399396
474915
359577
619727
317006
523368
454807
299277
302335
407420
348893
312927
295345
400187
681915
435495
716222
699833
547073
550196
769753
790508
680284
696237
639929
658287
755915
814996
570877
635869
455440
328324
731039
521843
323934
417257
281343
338751
261314
413980
276147
322570
615344
616868
518594
757246
548819
784488
547248
356237
331588
267878
259415
363425
313626
264112
408161
461592
378852
418837
466817
513966
506500
511511
508711
490487
562367
524814
596036
572885
685148
443118
555401
656664
351016
409738
535296
280176
255903
261569
260962
254132
254048
255997
709580
519454
725529
450079
458650
342993
613575
253252
253248
253246
253259
253248
253246
253245
265439
253377
253374
253247
394018
468939
491061
436642
476189
527008
548401
534557
663143
502802
616575
526595
608788
596034
455572
361000
262293
529401
285477
300221
264278
256266
254094
253359
255765
253556
253500
253329
308355
256134
255909
280749
280442
262320
254132
307629
253299
253293
256474
289370
253282
253275
265688
253259
253255
253519
253433
253250
253248
253261
253247
253246
253249
253248
253245
253245
253246
253245
253245
253246
253245
253245
253245
253245
253245
253245
253245
253255
461082
298178
776031
253719
541477
943282
287299
256831
364865
254339
804639
1.00562e+06
576749
641497
768482
810375
291709
253506
253245
253292
257415
253282
696306
651663
255880
784757
648605
628121
254270
495370
535376
253708
752024
301634
348577
253299
256202
253901
253250
260044
253263
253275
253248
253249
253249
253246
253261
253247
253246
253245
253247
256691
253556
253249
253250
253255
253246
253248
253246
253245
253245
253245
253245
253245
253245
253245
253245
253245
253245
253245
253245
253245
253245
253245
253245
253245
253275
253253
253247
253245
253246
253245
253245
253245
253245
253245
797237
767922
728444
952432
851044
966241
1.34022e+06
1.20772e+06
1.01757e+06
253245
253245
253245
253245
253245
253245
253245
253245
253245
253245
253245
253245
253245
253245
253245
253245
570180
254359
254194
409382
1.0643e+06
257386
913469
277989
253274
253251
253245
558326
571294
693025
780679
1.01437e+06
1.52829e+06
974253
293443
255738
253262
538659
832451
386216
440102
580781
472419
616594
710962
597619
721005
866101
601015
724218
1.13258e+06
820626
595933
602639
584382
620720
583633
620583
598676
573366
565992
562571
578505
627445
659456
721533
687302
658059
631402
682138
601549
656446
607444
649837
889488
816813
771950
959474
765642
954976
896555
842598
733328
726083
850538
560598
595768
820051
1.81856e+06
829717
581207
583578
598385
607217
723473
718379
804253
1.44202e+06
1.32688e+06
1.75369e+06
538403
551133
546607
565908
557115
551650
533284
591533
592111
581820
617101
573168
614947
597873
886045
820028
771617
958115
766118
956407
894684
2.02208e+06
1.76776e+06
1.75437e+06
2.02874e+06
1.70639e+06
1.91512e+06
2.17449e+06
1.18802e+06
1.00591e+06
517728
545793
516171
585921
551343
521877
511085
526520
534968
542508
519109
500182
508110
514879
493626
547773
573204
578133
571741
565988
560186
560807
527626
591076
570108
539955
559132
529291
540940
535193
559853
550626
546132
509737
533748
523661
522080
575820
584204
552212
625404
554934
607211
571450
569279
565980
554808
579409
548975
544022
533001
560217
626632
657602
723569
687506
656908
631446
683124
612706
660956
714511
657562
649599
605497
668470
598782
656846
608235
647000
577969
634912
589538
624289
858127
806606
731261
925879
747153
935032
833999
833327
733177
721442
849110
795632
699869
693573
794523
1.06187e+06
1.1543e+06
1.42971e+06
1.35145e+06
1.14875e+06
1.07658e+06
1.32659e+06
1.01895e+06
1.09446e+06
1.37729e+06
1.1862e+06
1.11552e+06
979470
1.25637e+06
1.00205e+06
1.29483e+06
1.02537e+06
1.25911e+06
947011
1.12575e+06
931569
1.1733e+06
2.03677e+06
1.69247e+06
1.62922e+06
2.2072e+06
1.99709e+06
1.98956e+06
1.56554e+06
2.01319e+06
1.8461e+06
2.23006e+06
1.71863e+06
2.1209e+06
2.31885e+06
2.4079e+06
1.96004e+06
1.07534e+06
1.58749e+06
913937
787122
1.32077e+06
948087
1.03054e+06
856025
840789
838222
887850
983242
602359
674242
710891
859757
1.13032e+06
1.49501e+06
1.67031e+06
885664
816419
876320
703726
834934
713201
717963
854735
956713
1.42623e+06
833797
1.10284e+06
1.11544e+06
825911
842121
1.16533e+06
1.13352e+06
858853
915741
1.19751e+06
876541
1.24999e+06
989267
1.33361e+06
1.68147e+06
751942
873708
640634
710126
881247
647251
744802
755158
711673
885616
654985
884011
651155
760264
793488
886447
665126
738702
767807
909599
688616
848228
783088
1.05556e+06
804092
966232
732145
935478
1.18969e+06
1.16817e+06
908980
1.08986e+06
1.05173e+06
1.29575e+06
1.05079e+06
1.33969e+06
1.25492e+06
1.46545e+06
1.45239e+06
1.41285e+06
1.2374e+06
1.44482e+06
254149
253245
253247
253245
253245
259516
253521
254063
253306
253247
253247
253245
253245
253245
253245
253245
253245
253245
493792
592482
208592
540389
291894
253469
253267
253246
253245
525891
601057
246701
674270
280394
253301
253246
253245
253245
811942
804939
357904
862062
259467
253247
253245
253245
253245
1.81297e+06
1.82943e+06
1.3006e+06
284351
253316
253245
253245
253245
253245
877619
999842
523258
981672
253247
253888
253245
253245
254614
1.06244e+06
253247
266912
253245
253245
729680
615666
727321
686682
592278
235347
506440
598265
239094
572014
597344
590455
318197
222683
341793
343753
663575
297150
581577
344009
655191
279614
254512
260351
253685
284973
254021
257302
253331
721504
795393
601277
244398
573283
706035
261606
713154
390801
281895
486077
341359
604610
271251
791919
311980
379763
255921
253791
255949
253282
263969
253339
253614
253254
1.00538e+06
1.28516e+06
1.45372e+06
799450
558405
1.21999e+06
1.42242e+06
810436
1.43335e+06
1.45077e+06
716526
564873
1.11705e+06
295343
267186
254286
614389
257480
253830
253265
253283
253382
253250
253590
253246
253250
253246
1.38847e+06
1.52148e+06
815167
899591
1.7903e+06
1.33554e+06
1.58616e+06
1.74488e+06
1.65536e+06
1.84799e+06
1.90405e+06
1.90638e+06
1.14343e+06
1.33991e+06
260227
254206
253257
253251
253286
253272
253247
253247
253245
253246
253245
253285
253370
253245
253246
954332
255479
258463
257683
441094
253249
253344
781657
261461
272735
556668
740227
253438
264075
601982
753579
678085
693289
1.02262e+06
260153
1.3378e+06
253247
254022
253246
469906
480759
355930
634919
369668
630932
378092
650725
395036
510356
635232
417319
811628
451179
779467
487955
870218
563591
858348
1.3174e+06
764947
1.43249e+06
821070
1.56538e+06
1.26716e+06
1.47508e+06
1.21751e+06
1.77894e+06
1.18579e+06
1.73893e+06
274806
1.11073e+06
300012
653578
253257
256114
561006
588522
552314
594254
590763
558762
554935
214886
172125
176030
135547
97327.5
99463.4
132088
260228
261802
298549
290389
261278
296350
260702
587632
600176
574427
617361
577856
616266
582526
200670
261519
212174
162183
113680
154479
119602
255856
258003
279275
275053
257024
256712
272101
868962
808572
731625
939604
747751
945528
847701
433801
299001
368051
261911
163831
215007
204761
253406
253974
257174
256360
253666
253559
254901
2.32884e+06
1.84678e+06
1.71983e+06
2.12298e+06
1.76253e+06
2.16296e+06
2.28857e+06
1.38926e+06
932716
1.16654e+06
1.03145e+06
581824
791542
861344
253245
253250
253272
253257
253247
253246
253249
293565
826507
1.01054e+06
904443
1.42736e+06
1.11609e+06
901180
933572
1.47133e+06
1.4144e+06
1.10959e+06
839632
1.04684e+06
1.09682e+06
758967
950549
671540
1.2239e+06
692109
1.20711e+06
712602
253245
253245
253259
253640
253246
253253
253245
254542
253246
253253
253259
253320
253246
253246
547928
598726
543146
594360
601463
549745
542905
237063
380670
385389
427115
174233
175404
424253
525310
521732
525298
520762
553406
596739
606305
564281
604063
556345
560594
391996
241093
401131
429064
177141
176273
431212
530089
529332
527137
538374
561170
581799
552135
576171
584912
557228
555853
541914
527547
532152
536495
546707
537613
545045
540517
567135
596295
594762
571816
592858
565054
573888
568204
581923
594289
575618
588705
565102
576997
547497
542795
536885
554032
554121
561895
553546
561068
329268
266300
276221
201678
257308
265522
192782
182261
233867
190981
140468
108075
102929
147480
285953
363393
301620
208771
295139
276719
221072
463911
325304
395474
343586
329290
393362
460680
471207
344213
353166
384001
338807
390010
481599
254310
254689
254214
254415
254589
254136
254393
259385
288245
259304
286696
260437
292486
258264
254159
254242
254196
253806
254418
253990
253964
579713
611609
569622
614926
567179
628005
579614
409754
250044
422849
442793
178175
434625
180261
558275
530340
546044
535038
607697
647870
727138
648107
664653
604846
654053
448376
491510
283202
459879
196466
185811
487482
583266
587550
553724
622803
559665
543902
553343
547955
616189
652941
714666
656036
652583
608663
667459
583922
604101
567938
627567
319711
429348
343279
247441
317695
233174
348975
228830
311823
255494
172402
140778
127700
188254
574461
375632
422034
266546
472395
395871
295353
499950
371407
373216
335290
492534
390760
355481
497922
325804
422898
308442
408201
332993
478065
253579
253951
253622
253591
253760
253724
253471
254880
269532
254642
260851
255569
265865
254148
253438
253438
253403
253299
253537
253363
253342
835515
822459
714773
936617
725471
959475
823842
660948
320709
383228
604411
215998
530839
250618
780723
643921
684215
737358
1.00077e+06
1.13604e+06
1.4175e+06
1.25117e+06
1.15229e+06
991296
1.25398e+06
1.0283e+06
485572
651242
730035
415006
309900
929381
932193
1.14177e+06
891103
1.17175e+06
814016
668453
700125
774464
1.05233e+06
1.1388e+06
1.44201e+06
1.29965e+06
1.14587e+06
1.02454e+06
1.33642e+06
1.07508e+06
1.1587e+06
1.44905e+06
1.36382e+06
1.15514e+06
1.0821e+06
1.35876e+06
991019
1.21245e+06
942977
1.26938e+06
1.02192e+06
1.30708e+06
1.03018e+06
1.30025e+06
921888
493768
615220
436981
600823
344359
786469
478239
652166
805636
348822
390541
274369
516808
1.17746e+06
840645
1.14027e+06
612892
1.01684e+06
962307
869026
367785
426688
285723
279116
432825
409522
268575
303995
265712
305505
254747
366776
258826
267934
253260
253317
253266
253258
253288
253272
253252
253293
254460
253272
253381
253350
253788
253257
253249
253249
253247
253246
253253
253247
253246
2.11719e+06
1.74774e+06
1.65368e+06
2.02198e+06
1.6393e+06
1.9339e+06
2.18085e+06
1.66696e+06
1.25607e+06
907215
1.68654e+06
596455
1.23776e+06
875864
2.09298e+06
1.55067e+06
1.54185e+06
2.17788e+06
2.26019e+06
1.98997e+06
1.60691e+06
2.27031e+06
1.88163e+06
2.38372e+06
2.12268e+06
1.82725e+06
1.87043e+06
1.57807e+06
2.02746e+06
1.38077e+06
1.16644e+06
2.10339e+06
2.57721e+06
2.92677e+06
2.72798e+06
2.75791e+06
2.32506e+06
1.8512e+06
1.78136e+06
2.11962e+06
1.78155e+06
2.16275e+06
2.28228e+06
2.3592e+06
1.6449e+06
1.70437e+06
2.30084e+06
2.36241e+06
1.72526e+06
1.7286e+06
2.318e+06
2.58617e+06
2.11561e+06
1.98347e+06
2.45656e+06
2.17587e+06
2.54684e+06
2.49917e+06
2.5441e+06
2.11015e+06
1.98813e+06
2.27111e+06
2.17491e+06
2.42971e+06
2.42904e+06
2.87805e+06
3.09877e+06
2.87089e+06
3.05781e+06
2.80813e+06
2.65772e+06
2.65165e+06
2.90446e+06
575433
996391
1.29895e+06
952800
853214
1.04528e+06
519875
1.49431e+06
801753
1.25586e+06
1.03004e+06
1.12141e+06
1.08245e+06
755478
338668
683956
304634
627038
262231
306023
352612
253760
266410
253551
253413
256285
255466
253297
253327
253274
253315
253251
253609
253253
253260
253245
253245
253245
253246
253245
253245
253245
253246
253249
253307
253254
253249
253246
253260
253247
253254
253338
253278
253251
253248
253268
481721
923222
604828
1.14871e+06
519256
1.02375e+06
617969
273566
312181
256146
256451
286551
295059
254811
766959
874259
648541
1.01238e+06
680810
1.12405e+06
748324
348320
341148
264870
258613
367876
321206
261321
374395
404625
268813
267851
390470
396509
264611
258359
253990
253245
255760
253248
253245
253498
253245
253245
253248
253245
253245
698232
254761
253245
270114
253245
257248
256620
256170
254524
253807
351689
255007
264668
339420
253250
264634
253254
262696
253249
254394
256113
253247
253325
253392
253416
253247
253249
275194
729145
264810
275843
276002
257696
257994
274831
257366
277464
261591
267166
255222
254957
265417
263380
254509
253691
255392
253386
253339
254456
254146
253293
253249
253273
253246
253247
253258
253255
253246
668356
643064
609769
908600
573199
832407
713443
254144
253254
253251
253334
253310
253247
253246
273050
257399
270522
256021
273058
256779
269412
258372
254296
257403
253590
260086
253957
255967
285122
353786
277522
350568
286551
381450
272289
257012
268594
312153
312424
262606
260919
279820
253387
253274
253337
253249
253550
253260
253286
254491
281332
254186
256001
256222
262468
253618
253282
253538
254096
254197
253360
253343
253522
253249
253255
253383
253284
253258
253248
253283
253260
253589
253360
253292
253286
253342
253276
390161
406564
272866
269926
389256
407580
268249
2.21991e+06
1.37011e+06
1.5734e+06
2.12422e+06
1.45141e+06
1.62801e+06
1.74884e+06
2.33608e+06
1.4026e+06
1.65703e+06
2.29128e+06
1.59973e+06
1.79256e+06
1.84717e+06
1.259e+06
1.88675e+06
1.09513e+06
1.2711e+06
2.13395e+06
1.45358e+06
1.64137e+06
554976
379069
391792
513583
332110
341110
503806
253398
279214
273773
260524
253258
257122
253252
253247
253246
253259
254477
253254
253887
253251
733262
498393
571348
639692
432121
598776
492283
257878
253257
264100
255733
253250
253548
253248
253251
253245
253247
253647
253248
253289
253246
806247
901246
991933
626648
753990
702520
818728
253315
253246
253285
253355
253247
253248
253245
253245
253245
253246
253256
253245
253246
253245
255561
270595
467087
255245
408315
265846
279178
253245
253245
253247
253246
253245
253245
253245
253245
253245
253245
253245
253245
253245
253245
979732
280449
417662
356224
1.07759e+06
516637
846987
254210
253292
253643
253320
253877
253291
253273
253269
442617
256712
1.03696e+06
402161
287835
253322
707503
261287
530669
1.1193e+06
505727
325990
253406
253245
253287
253247
269899
253255
253247
253246
253356
254548
253247
285556
253266
253250
253247
412326
623162
447719
533092
389217
359486
562347
842024
669319
782836
679837
658699
569883
710947
366013
997912
818237
470650
652857
806096
319558
253792
257179
253537
253557
253946
257323
253298
253424
254361
267131
260974
255438
279592
253826
746114
611416
657770
829757
734503
868121
657149
403309
767570
906325
1.0523e+06
458171
1.28791e+06
286460
253416
975076
615669
1.18261e+06
255426
429311
253303
253263
253248
272056
255025
253247
253248
253245
253248
259574
253729
253764
253249
253249
253246
253245
253245
253249
253246
253245
253245
253245
1.42721e+06
1.57106e+06
1.52707e+06
1.84485e+06
1.30524e+06
1.45949e+06
1.22454e+06
253251
253331
253414
253257
253288
253248
253246
253464
253273
253476
253261
253357
253252
253260
253351
253401
255055
254626
253358
254201
253319
253254
253251
253767
255108
253272
254534
253264
253445
253246
253282
253748
253254
253357
253250
253246
253245
253248
253261
253246
253248
253245
253245
253245
253245
253247
253245
253245
253245
253371
253428
255327
255161
253417
254648
253364
253392
253419
253260
254685
253328
253826
253377
254274
253334
253295
253245
850533
840333
952637
664855
575346
1.08998e+06
855255
706492
675375
885509
725347
671148
864537
912096
888825
672293
945036
1.05671e+06
821053
928172
818852
1.33196e+06
935532
670762
1.45156e+06
1.49602e+06
798452
878471
642540
1.09961e+06
1.67988e+06
474154
1.04446e+06
776021
652077
557797
746773
773894
700819
721686
988046
1.1927e+06
796826
909601
1.49034e+06
1.55781e+06
1.0801e+06
1.43061e+06
1.05447e+06
459763
1.31306e+06
773981
834991
815860
829358
899447
829860
837625
886869
716574
785955
808341
750334
686208
694605
734187
871765
835935
836405
905258
832757
838535
909859
824738
851064
737648
765314
706800
700380
787477
890497
851131
831766
960216
835865
919729
867323
954764
760676
803925
868697
721719
816565
756694
944062
911554
893346
1.04156e+06
1.02406e+06
934085
1.14034e+06
1.19264e+06
875057
975775
949898
906796
817654
1.05706e+06
824954
898115
883718
1.19637e+06
1.09641e+06
1.19711e+06
1.12455e+06
1.42284e+06
1.09886e+06
1.23283e+06
1.27112e+06
1.01995e+06
1.17189e+06
1.149e+06
732711
696237
743961
1.14342e+06
1.01755e+06
1.10467e+06
1.03049e+06
1.36659e+06
1.36854e+06
1.4753e+06
1.33067e+06
1.47797e+06
1.3003e+06
1.30304e+06
649976
667241
677048
810379
876523
903724
765074
749284
1.46656e+06
1.29764e+06
823698
1.5667e+06
1.12185e+06
1.45617e+06
381096
959196
646512
531871
749473
1.12743e+06
401658
759448
867677
887535
906522
938811
794496
1.07015e+06
825444
875620
1.34887e+06
952131
1.05374e+06
1.56685e+06
1.16874e+06
1.2917e+06
1.39991e+06
1.40917e+06
1.45524e+06
654934
1.3815e+06
1.1335e+06
446217
792186
638376
557128
636779
655147
795343
771059
692168
676823
773807
695093
787299
797886
675562
767259
696452
772354
696605
799531
845816
771096
703262
693706
810212
799526
730034
911525
741745
947381
861360
857759
781487
999027
1.19931e+06
1.05787e+06
970897
1.0874e+06
1.09543e+06
1.17708e+06
1.11283e+06
1.29382e+06
1.27518e+06
1.37103e+06
1.49562e+06
1.29199e+06
1.29033e+06
1.33254e+06
1.04045e+06
1.33963e+06
1.63452e+06
1.68516e+06
1.25932e+06
1.14877e+06
1.59144e+06
776811
1.4749e+06
689492
935794
882827
1.32996e+06
299018
731971
253245
253245
253245
253245
253245
253245
253245
253245
253245
253245
253245
253245
253245
253245
253245
253245
253245
253245
253246
253245
253245
253245
253253
253245
253245
253246
253245
253245
253245
253245
253245
253245
253245
253245
253245
253245
253249
253245
253245
253249
253245
253245
253245
253245
253245
253245
253245
253245
253245
253245
253245
253245
253245
253245
253245
253245
253245
253245
253245
253245
253245
253245
253245
253245
253245
253245
253245
253245
253245
253245
253245
253245
253245
253245
253245
253245
253245
253245
253245
253245
253245
253245
253245
253245
253245
253245
253245
253245
253245
253245
253245
253245
253245
253245
253245
253245
253245
253245
253245
253245
253245
253245
253245
253245
253245
360408
514823
776942
612038
611600
556887
480162
748034
720684
682113
1.04532e+06
810965
362803
400766
556220
363460
504695
535403
389458
628560
643317
653192
739185
633011
692370
675924
593936
581687
646887
758196
1.09358e+06
262551
780826
1.02968e+06
992788
1.16264e+06
439809
628049
558588
536344
552905
570833
569764
555696
573625
618707
602156
691352
593347
630556
479269
666549
604553
606376
712030
690495
588060
606998
679263
584002
1.00029e+06
774567
709018
686333
805430
815770
269043
596886
703358
1.09855e+06
837055
858053
926154
982497
1.48059e+06
1.52553e+06
904986
1.17939e+06
846435
1.09578e+06
1.10579e+06
1.12482e+06
889583
1.16787e+06
1.21485e+06
1.28367e+06
983018
1.15736e+06
1.37629e+06
1.06206e+06
1.44564e+06
1.09418e+06
1.21125e+06
1.55028e+06
1.2193e+06
1.32569e+06
1.56179e+06
1.21322e+06
1.65278e+06
1.00541e+06
1.38822e+06
1.14181e+06
1.39034e+06
1.59482e+06
1.36273e+06
807221
816478
828372
749539
755480
783033
773560
847126
809709
930117
845702
892136
777809
812228
825071
841154
866426
760816
766752
800532
790624
862229
836356
828875
770619
775424
803669
806242
925062
961227
871272
989144
913823
1.01346e+06
1.05586e+06
474926
344158
318788
808722
615445
670991
521105
706759
716932
742349
253245
253245
253245
253245
968092
823397
835549
950145
989581
874950
850281
1.02561e+06
1.17298e+06
911367
1.08156e+06
965043
1.31009e+06
1.13402e+06
1.03709e+06
1.48502e+06
1.71272e+06
1.25021e+06
1.65164e+06
1.38179e+06
1.61782e+06
1.42363e+06
1.46483e+06
1.31152e+06
602544
1.22911e+06
869917
916377
549401
675399
707247
567774
253245
253245
253245
253245
253245
253245
253245
253245
253245
253245
253245
253245
253245
253245
253245
253245
253245
757242
711457
847146
253246
253245
253245
253245
253245
253245
253245
253245
253245
253245
253245
253245
253245
253245
253245
253245
840854
860860
852840
778773
805230
780487
799863
851580
842079
811743
849501
786681
799301
818389
1.02675e+06
1.04521e+06
1.14627e+06
1.05647e+06
1.12433e+06
1.22771e+06
1.1055e+06
938646
948123
864831
933853
884552
869150
951305
666785
671072
608273
602122
607655
697586
692706
861111
867680
859992
826762
829503
842958
847580
859627
850662
852982
826074
815973
844363
834100
1.00626e+06
1.12682e+06
1.04113e+06
988853
972801
1.04065e+06
1.12206e+06
612173
677037
617643
611497
619751
703298
699283
681476
684834
620179
707154
708289
633633
636447
838657
845775
856238
810802
828433
831033
855711
739908
684255
627164
651212
631764
658216
711664
883182
939352
901766
879523
959376
914581
998764
766441
796985
888519
697925
774920
707967
786980
622764
707025
688083
626025
703511
635520
636452
730698
660351
751344
752934
662119
648155
650403
950742
1.32705e+06
1.27154e+06
1.01405e+06
1.23671e+06
1.31298e+06
1.06368e+06
694972
634196
706336
729066
660153
639911
656875
775478
781584
870835
779632
704702
702586
778431
952928
902391
938205
1.04231e+06
1.11658e+06
1.07775e+06
1.13771e+06
984719
1.01065e+06
1.15454e+06
1.03991e+06
886457
897674
1.04717e+06
721008
643729
749578
659844
743535
654646
648251
1.25729e+06
980841
1.21394e+06
852438
957366
1.19849e+06
1.23365e+06
785161
890611
1.22053e+06
652898
1.0054e+06
1.07703e+06
807711
1.13253e+06
1.43607e+06
1.04906e+06
1.50238e+06
982296
1.43298e+06
723676
1.05267e+06
1.19807e+06
901704
1.01885e+06
1.21002e+06
914765
1.03438e+06
1.0785e+06
1.04005e+06
1.2971e+06
960119
1.2393e+06
931271
1.1235e+06
1.29748e+06
1.38586e+06
1.00342e+06
1.20868e+06
1.1901e+06
1.52633e+06
1.06163e+06
1.46115e+06
1.31462e+06
1.8419e+06
1.25388e+06
1.7194e+06
1.14083e+06
1.67241e+06
1.72659e+06
1.75239e+06
1.38478e+06
1.42999e+06
1.80614e+06
1.4402e+06
1.48132e+06
1.41886e+06
1.24819e+06
746586
1.26755e+06
1.03252e+06
1.4438e+06
1.00016e+06
588911
582253
983863
542789
715719
476895
730215
402094
332631
533616
441300
405560
582961
410978
606802
533472
882635
623804
257049
253246
253245
253245
253245
537017
538562
998788
325618
255034
780771
542353
789498
826710
560733
825004
723965
787905
268612
256464
259118
253518
253288
253595
254960
632434
814222
661335
828719
856222
730746
892681
499630
517399
276294
605528
253375
272866
253254
254404
253254
253250
253253
253332
253260
253251
253245
253245
253245
253245
253245
253256
253245
253245
253245
253245
253245
253245
253245
253245
253245
253245
253245
254110
253245
253245
253245
253245
253245
253245
253245
253245
253245
253245
253245
253245
253245
253245
253245
253245
253245
253245
253245
253245
253245
253245
253245
253245
253245
253245
253245
253245
253245
253245
253245
253245
253245
253245
253245
253245
253245
253245
253245
253245
253245
253245
253245
253245
253245
253245
253245
253245
253245
253245
253245
253245
253245
253245
253245
253245
253245
253245
253245
253245
253245
253245
253245
253245
253245
253305
253245
253245
253245
253245
253245
253245
253245
253245
253247
253245
253245
275277
253245
253245
297344
253246
253245
253245
253245
253245
253245
253245
253245
253245
253245
253245
253245
253245
253245
253926
253245
253245
253245
253245
253245
253245
253245
253245
253245
253245
253245
253245
253245
253245
253245
253245
253245
253245
253245
253245
253245
253245
253245
253245
253245
253245
253245
253245
253245
253245
253245
253245
253245
253245
253245
253245
253245
253245
253245
253245
253245
253245
253245
253245
529218
642624
645840
573303
577017
733985
736114
988485
992503
1.13504e+06
1.04367e+06
1.04444e+06
890672
889913
904918
723918
822494
1.17913e+06
1.19431e+06
1.16772e+06
1.13185e+06
828320
730089
1.22517e+06
1.18807e+06
1.00311e+06
1.01548e+06
739039
742877
664041
645118
745821
770701
655633
675674
885115
783852
708384
826181
917271
721487
798809
538477
647707
649542
581279
735848
584878
732468
1.45597e+06
1.44959e+06
1.29269e+06
1.31237e+06
1.50838e+06
1.24454e+06
1.24705e+06
1.14155e+06
1.05241e+06
896345
1.03621e+06
1.16546e+06
913212
1.0708e+06
716226
1.17629e+06
991795
687684
746508
953132
1.14516e+06
1.29295e+06
1.28934e+06
1.51968e+06
1.24899e+06
1.24908e+06
1.44398e+06
1.51924e+06
553721
655861
675172
589852
732701
748417
600855
709337
646711
667232
890222
814034
1.08593e+06
987223
606944
713525
772506
783164
829375
622070
652435
265984
808153
253245
253245
253245
253245
253245
253245
253245
253245
253245
253245
253245
253245
253245
253245
253245
253245
253245
253245
253245
253245
253245
253245
253245
253245
253245
253245
253245
253245
253245
253245
253245
253245
1.02907e+06
1.06086e+06
743338
741160
1.10661e+06
1.13778e+06
985919
1.03551e+06
1.15296e+06
991243
1.09277e+06
1.13083e+06
1.04777e+06
1.21986e+06
1.0067e+06
1.18182e+06
1.00234e+06
1.17082e+06
823983
949222
963102
694724
1.09097e+06
1.00848e+06
1.133e+06
913703
962327
695688
806616
820147
876397
611562
812334
1.16242e+06
844458
1.16388e+06
608748
862219
672603
840595
916517
771113
685589
838337
1.10626e+06
502868
741267
288852
603712
870178
764802
887581
344047
875258
409110
590311
423073
267288
276442
1.44783e+06
1.25714e+06
1.17348e+06
1.09718e+06
1.27096e+06
1.17399e+06
1.44814e+06
1.39918e+06
1.12471e+06
1.1688e+06
993019
1.09649e+06
1.15876e+06
1.41651e+06
1.45888e+06
1.11182e+06
1.35164e+06
1.19418e+06
1.30476e+06
1.18386e+06
1.46763e+06
1.37642e+06
964091
967665
1.11347e+06
1.04679e+06
1.14512e+06
1.32517e+06
1.41805e+06
1.41807e+06
1.19393e+06
1.19008e+06
1.46897e+06
1.49674e+06
1.15867e+06
1.07935e+06
860466
1.05753e+06
768767
1.22899e+06
738325
975323
1.28261e+06
1.19564e+06
1.4622e+06
986125
1.5284e+06
1.07996e+06
1.08412e+06
912780
693023
530799
804744
627165
884639
766560
726431
1.29819e+06