/*--------------------------------*- C++ -*----------------------------------*\
  =========                 |
  \\      /  F ield         | OpenFOAM: The Open Source CFD Toolbox
   \\    /   O peration     | Website:  https://openfoam.org
    \\  /    A nd           | Version:  9
     \\/     M anipulation  |
\*---------------------------------------------------------------------------*/
FoamFile
{
    format      ascii;
    class       volScalarField;
    location    "0.0034";
    object      rho.air;
}
// * * * * * * * * * * * * * * * * * * * * * * * * * * * * * * * * * * * * * //

dimensions      [1 -3 0 0 0 0 0];

internalField   nonuniform List<scalar> 
29716
(
0.0451221
0.0323431
0.0717598
0.0515297
0.130177
0.0897468
0.0398724
0.0517906
0.0531334
0.0424494
0.064731
0.0953555
0.102775
0.0803798
0.115986
0.0226894
0.0332724
0.0235056
0.0373698
0.0619333
0.0465331
0.0848061
0.101334
0.102159
0.0430863
0.043287
0.0340623
0.0411019
0.0447743
0.0351949
0.041685
0.0473207
0.0451385
0.0587666
0.0450937
0.0494836
0.0385618
0.0553112
0.0363158
0.0303793
0.0258425
0.0786059
0.0719571
0.0548068
0.0779576
0.0663527
0.0865797
0.0667302
0.091423
0.0906024
0.115516
0.0950989
0.101001
0.0800293
0.105755
0.0715672
0.0699188
0.0573591
0.146035
0.131341
0.112631
0.131999
0.123248
0.150661
0.133189
0.0829937
0.0872758
0.0733923
0.0735319
0.0864914
0.0822468
0.0703616
0.0539976
0.0546172
0.0620954
0.0609734
0.0625641
0.051604
0.0597071
0.110149
0.116256
0.117281
0.101823
0.100452
0.0948951
0.109297
0.0467984
0.0473507
0.0490224
0.0488272
0.050344
0.0470736
0.0454872
0.135794
0.135228
0.153218
0.162664
0.12777
0.158788
0.158222
1.24018
1.23165
1.22579
1.225
1.225
1.30636
1.22502
1.225
1.32635
0.598977
1.67249
1.38816
1.39168
2.17143
1.32778
1.30267
1.44452
1.48002
1.36462
1.39864
1.57377
1.62652
0.662142
1.00514
0.734342
0.814171
0.963687
0.707267
1.98463
0.62608
0.588953
0.609845
0.764655
0.766279
0.79096
0.735147
1.38079
1.32243
1.34744
1.42035
1.33734
1.37961
1.42139
1.30507
1.43235
1.11761
1.268
1.32069
1.41016
1.09384
0.707157
0.638754
0.675639
0.804269
0.86873
0.82549
0.853969
1.6401
1.58754
1.65904
1.71206
1.3127
1.28829
1.25444
1.55967
0.98344
1.1217
1.28232
0.921166
1.26704
1.16937
1.19718
1.02553
0.955593
1.15215
0.986548
1.11572
0.74079
1.12327
0.823359
1.35214
0.732736
0.997377
0.971634
0.658926
0.996301
1.27895
1.22502
1.22523
1.34646
1.83053
2.12805
1.27714
1.22502
1.22501
1.22526
1.22991
1.22741
1.23247
1.225
1.225
1.225
1.225
1.225
1.225
1.225
1.225
1.225
1.225
1.225
1.225
1.225
1.225
1.225
1.225
1.225
1.225
1.225
1.225
1.225
1.225
1.225
1.225
1.225
1.225
1.225
1.225
1.225
0.692043
1.9981
1.23747
1.22501
1.22515
1.32212
1.86043
2.1371
1.25055
1.22501
1.22501
1.22516
1.22771
1.226
1.22783
1.225
1.225
1.225
1.225
1.225
1.225
1.225
1.225
1.225
1.225
1.225
1.225
1.225
1.225
1.225
1.225
1.225
1.225
1.225
1.225
1.225
1.225
1.225
1.225
1.225
1.225
1.225
1.225
1.225
0.870175
2.49611
1.22502
1.22507
1.26896
1.836
1.85681
1.22753
1.225
1.225
1.22505
1.22551
1.22507
1.22512
1.225
1.225
1.225
1.225
1.225
1.225
1.225
1.225
1.225
1.225
1.225
1.225
1.225
1.225
1.225
1.225
1.225
1.225
1.225
1.225
1.225
1.225
1.225
1.225
1.225
1.225
1.225
1.225
1.225
1.32811
1.91944
1.23687
1.22566
1.23118
1.40316
1.24779
1.22613
1.22507
1.22501
1.22501
1.22502
1.225
1.22501
1.225
1.225
1.225
1.225
1.225
1.225
1.225
1.225
1.225
1.225
1.225
1.225
1.225
1.225
1.225
1.225
1.225
1.225
1.225
1.225
1.225
1.225
1.225
1.225
1.225
1.225
1.225
1.225
1.225
1.03701
1.39044
1.94372
2.15925
1.22575
1.5506
1.71845
1.62518
1.23888
1.22824
1.22503
1.6473
1.23691
1.22519
1.225
1.225
1.225
1.22515
1.22501
1.225
1.225
1.225
1.225
1.225
1.225
1.225
1.225
1.225
1.225
1.225
1.225
1.225
1.225
1.225
1.225
1.225
1.225
1.225
1.225
1.225
1.225
1.225
1.225
1.225
1.225
1.225
1.225
1.01644
2.11081
2.35005
1.2469
1.22541
1.225
1.44524
2.07579
1.5774
1.22681
1.225
1.225
1.25324
1.23656
1.22504
1.225
1.225
1.225
1.22509
1.225
1.225
1.225
1.225
1.225
1.225
1.225
1.225
1.225
1.225
1.225
1.225
1.225
1.225
1.225
1.225
1.225
1.225
1.225
1.225
1.225
1.225
1.225
1.225
1.225
1.225
1.225
1.225
1.225
1.46014
1.40293
1.22559
1.22501
1.225
1.225
1.27229
1.41772
1.22555
1.225
1.225
1.225
1.22503
1.22502
1.225
1.225
1.225
1.225
1.225
1.225
1.225
1.225
1.225
1.225
1.225
1.225
1.225
1.225
1.225
1.225
1.225
1.225
1.225
1.225
1.225
1.225
1.225
1.225
1.225
1.225
1.225
1.225
1.225
1.225
1.225
1.225
1.225
1.225
1.22503
1.22502
1.225
1.225
1.225
1.225
1.22502
1.22502
1.225
1.225
1.225
1.225
1.225
1.225
1.225
1.225
1.225
1.225
1.225
1.225
1.225
1.225
1.225
1.225
1.225
1.225
1.225
1.225
1.225
1.225
1.225
1.225
1.225
1.225
1.225
1.225
1.225
1.225
1.225
1.225
1.225
1.225
1.225
1.225
1.225
1.225
1.225
1.225
1.225
1.225
1.225
1.225
1.225
1.225
1.225
1.225
1.225
1.225
1.225
1.225
1.225
1.225
1.225
1.225
1.225
1.225
1.225
1.225
1.225
1.225
1.225
1.225
1.225
1.225
1.225
1.225
1.225
1.225
1.225
1.225
1.225
1.225
1.225
1.225
1.225
1.225
1.225
1.225
1.225
1.225
1.225
1.225
1.225
1.225
1.225
1.225
1.225
1.225
1.225
1.225
1.225
1.225
1.225
1.225
1.225
1.225
1.225
1.225
1.225
1.225
1.225
1.225
1.225
1.225
1.225
1.225
1.225
1.225
1.225
1.225
1.225
1.225
1.225
1.225
1.225
1.225
1.225
1.225
1.225
1.225
1.225
1.225
1.225
1.225
1.225
1.225
1.225
1.225
1.225
1.225
1.225
1.225
1.225
1.225
1.28382
1.22508
1.25715
1.22505
1.22501
1.22507
1.22501
1.22506
1.22541
1.28334
1.22532
1.27475
0.802731
1.41684
1.63048
0.812185
1.4028
1.66533
0.72459
1.63934
1.80219
0.667706
0.735712
1.68361
1.86571
1.2251
1.27917
1.22515
1.26601
1.22506
1.27124
1.2251
1.22503
1.22502
1.22501
1.22502
1.22502
1.22502
1.22501
1.25622
1.22507
1.22544
1.22518
1.25101
1.22505
1.22533
1.75781
1.22662
1.24949
1.33154
1.76988
1.22621
1.24308
1.24581
1.22504
1.22502
1.22501
1.22505
1.22501
1.22502
1.22527
1.26983
1.22513
1.25168
0.835409
1.39319
1.68736
0.873464
1.34464
1.77982
0.901846
1.71316
1.91448
0.769223
1.0729
1.83537
2.09733
1.22522
1.25089
1.22527
1.22507
1.23047
1.22509
1.22502
1.22501
1.22501
1.22501
1.22501
1.22501
1.225
1.24798
1.22504
1.22527
1.22508
1.23721
1.22503
1.22513
1.7754
1.22599
1.23971
1.28299
1.76456
1.22539
1.23055
1.22503
1.23027
1.22501
1.22501
1.22817
1.22544
1.22509
1.2456
1.22523
1.23145
0.890835
1.32305
1.80748
1.01594
1.26285
1.80095
1.15861
1.87752
2.14458
1.03225
1.61097
1.89669
1.99409
1.22508
1.22765
1.22504
1.22776
1.22796
1.22586
1.22502
1.22501
1.225
1.22691
1.2252
1.22507
1.22502
1.23384
1.22502
1.2251
1.22507
1.22709
1.22501
1.22506
1.73399
1.22526
1.22852
1.23659
1.47864
1.22507
1.22555
1.25388
1.47577
1.2436
1.22836
1.51749
1.55939
1.22659
1.22881
1.51683
1.28927
1.2468
1.24818
1.72877
1.84195
1.25613
1.31115
1.86322
1.82167
1.72515
1.79663
2.40072
1.31768
1.23755
1.30068
1.24038
1.25279
1.57385
1.48881
1.53758
1.22658
1.22532
1.22504
1.60046
1.47422
1.25359
1.2269
1.22611
1.22507
1.22503
1.38213
1.23647
1.22567
1.22505
1.36583
1.22505
1.22525
1.22994
1.23532
1.22506
1.22503
1.20338
1.56872
1.79204
1.23036
1.43546
1.82075
2.12916
1.64042
1.81283
1.46728
1.6848
2.04201
2.13321
1.43922
2.16169
1.33514
1.26384
2.29474
2.01767
1.28988
1.22658
0.808771
1.53119
1.85595
1.01044
2.43042
0.890705
1.16187
2.48664
1.4497
0.813277
1.98586
2.48083
1.33541
1.38828
1.22502
1.54962
2.166
1.25791
1.22879
1.22501
1.225
2.36356
1.69569
1.22501
1.225
1.225
1.225
1.22775
1.22502
1.225
1.225
1.225
1.225
1.225
1.225
1.225
1.225
1.225
1.225
0.483681
0.487393
0.543255
0.418392
0.563264
0.553835
0.487668
0.574039
0.493415
0.508671
0.725754
0.470225
0.611992
0.897677
0.529304
0.738663
0.622131
0.793528
0.704846
0.966617
0.613544
0.863014
0.763409
1.21189
0.666029
0.939975
0.874884
0.832756
1.10724
1.34407
1.32374
1.03406
1.49529
1.20468
1.86274
1.39384
2.3887
0.735911
0.736588
0.856875
0.990318
0.807512
1.05637
0.864154
1.30427
1.12411
1.12995
1.27715
1.14768
1.32884
1.51099
1.75807
1.2148
1.50139
1.99276
1.45164
2.1227
2.12056
2.38723
1.04288
0.88822
1.39298
1.36353
1.11798
0.950428
1.02159
1.30915
1.16261
1.24566
1.21359
1.50425
1.25542
1.3429
1.88073
1.64788
1.80151
1.72591
2.06154
1.79122
1.95186
2.05685
1.99998
1.98136
2.08241
1.23096
1.28914
1.23127
1.2786
1.28331
1.23071
1.23156
1.22559
1.22507
1.22565
1.22507
1.22507
1.2256
1.22565
1.22982
1.26893
1.25951
1.22838
1.27253
1.22965
1.22845
1.22548
1.22506
1.22504
1.22536
1.22505
1.22549
1.22535
1.225
1.22501
1.22501
1.22501
1.22501
1.22501
1.22501
1.22501
1.22509
1.22501
1.22507
1.22508
1.22501
1.22501
1.225
1.22501
1.22501
1.22501
1.22501
1.22501
1.225
1.22501
1.22506
1.22507
1.22501
1.22508
1.22501
1.22501
1.22798
1.22555
1.22734
1.2254
1.22553
1.22726
1.22809
1.24038
1.29681
1.23741
1.28169
1.29498
1.23701
1.24088
1.2278
1.22536
1.22544
1.2269
1.22549
1.22711
1.22753
1.2395
1.27877
1.28692
1.23531
1.29168
1.23629
1.2383
0.806301
0.73732
0.741416
1.11479
1.00128
1.00667
1.10914
1.37799
1.38851
1.53005
1.41426
1.38746
1.53109
1.37591
0.746743
0.822362
0.756277
1.12665
1.03236
1.0158
1.14415
1.38178
1.40971
1.38182
1.53515
1.38547
1.53326
1.38636
1.22624
1.2471
1.22719
1.22719
1.22628
1.22513
1.22503
1.22524
1.22503
1.22522
1.22502
1.22514
1.22507
1.22502
1.22501
1.22505
1.22501
1.22508
1.22504
1.225
1.225
1.225
1.22501
1.225
1.225
1.225
1.22501
1.22506
1.22501
1.22504
1.22501
1.22505
1.22501
1.225
1.225
1.225
1.225
1.225
1.225
1.225
1.22501
1.22503
1.22503
1.225
1.22503
1.22501
1.225
1.22685
1.22537
1.22664
1.22523
1.2272
1.2253
1.22636
1.23518
1.28072
1.23411
1.26415
1.23683
1.27312
1.23276
1.22649
1.22517
1.22518
1.22582
1.22524
1.22608
1.22615
1.23345
1.25797
1.25833
1.22995
1.2655
1.23135
1.23172
0.769677
0.852146
0.789189
1.20061
1.05509
1.1676
1.08705
1.39754
1.37653
1.53617
1.3804
1.39154
1.36945
1.53603
0.815255
0.848599
0.900277
1.24437
1.18858
1.13048
1.30032
1.40432
1.3641
1.34493
1.52394
1.35899
1.53278
1.41014
1.22527
1.22503
1.22506
1.22513
1.22506
1.22515
1.22523
1.22669
1.22584
1.23123
1.23327
1.22604
1.22641
1.23454
1.22504
1.22501
1.22501
1.22507
1.22501
1.22508
1.22504
1.22502
1.22502
1.22501
1.22502
1.22501
1.22502
1.22502
1.22533
1.22548
1.22884
1.22679
1.2256
1.22525
1.22724
1.22516
1.22507
1.22561
1.22592
1.22509
1.22512
1.22621
1.22556
1.22512
1.22559
1.22506
1.22582
1.22509
1.22539
1.22867
1.25149
1.22865
1.24003
1.2301
1.24522
1.22753
1.22537
1.22506
1.22532
1.22523
1.22508
1.22526
1.22534
1.22747
1.23525
1.23483
1.22601
1.2396
1.22663
1.2266
0.944806
0.933507
0.976438
1.4516
1.26496
1.3698
1.36282
1.4165
1.32804
1.50724
1.30129
1.41436
1.30944
1.48026
1.11372
1.02523
1.09256
1.55138
1.60727
1.48126
1.65465
1.41222
1.28094
1.27565
1.39461
1.29143
1.44215
1.40192
1.35408
1.25733
1.26805
1.35335
1.2724
1.33706
1.3835
1.37043
1.48115
1.25685
1.42922
1.38203
1.47985
1.2194
1.29118
1.24641
1.23634
1.31754
1.2384
1.31496
1.28638
1.26772
1.22941
1.23144
1.24742
1.23291
1.25125
1.26341
1.3828
1.46945
1.29575
1.54849
1.38747
1.43934
1.33662
1.36247
1.34422
1.40487
1.56606
1.33061
1.39402
1.37608
1.23338
1.22727
1.22579
1.2369
1.22625
1.24047
1.23067
1.22974
1.2313
1.22581
1.22782
1.22638
1.23025
1.2278
1.27685
1.3001
1.41889
1.44146
1.30087
1.26612
1.41758
1.25567
1.23467
1.34479
1.3545
1.24323
1.24475
1.39611
1.41378
1.34014
1.19394
1.81086
1.73032
1.74354
1.84109
1.35146
1.26088
1.34226
1.23814
1.38284
1.24845
1.29566
1.61986
1.75927
1.53371
1.85785
1.9604
1.91974
1.89056
1.31403
1.23436
1.30161
1.25378
1.24414
1.26365
1.30455
1.29345
1.09575
1.17405
1.42136
1.48799
1.35161
1.56111
1.79365
1.45751
1.60933
1.99539
1.98064
1.91422
2.06432
0.676558
0.44423
0.47831
0.74548
0.628082
0.908693
0.975692
0.603409
0.971853
0.650361
1.05851
0.846523
1.1021
1.17738
0.735003
1.25246
0.763381
1.27072
1.05402
0.485249
0.513013
0.517366
0.295944
0.371992
0.375465
0.294067
0.520782
0.48992
0.526674
0.298283
0.385457
0.378971
0.302531
0.53553
0.499557
0.549173
0.317544
0.395426
0.308699
0.41006
0.567881
0.592002
0.521237
0.329043
0.453208
0.429341
0.343324
0.659329
0.538314
0.561639
0.382332
0.481934
0.360796
0.516098
0.348708
0.712776
0.787882
0.5312
0.703454
0.48798
0.378068
0.76087
0.592933
0.635334
0.40804
0.599469
0.555304
0.437103
0.934346
0.781902
0.695464
0.510724
0.649011
0.46828
0.711709
1.09465
1.15329
0.921116
0.575001
0.941025
0.798113
0.695152
0.794354
0.629535
0.669972
0.623782
0.50847
0.480341
0.668747
0.729198
0.557887
0.889849
0.515886
0.814128
0.786005
0.922566
0.712736
0.757445
0.768704
0.538545
0.570754
0.716913
1.05929
0.803693
0.850609
0.824747
0.646891
0.606326
0.885421
0.966622
1.06113
0.721146
1.21027
0.689692
1.14337
1.01541
1.20224
0.900058
0.95563
1.01105
0.69118
0.734274
0.948763
1.37051
1.01743
1.09837
1.06779
0.813152
0.771422
1.1275
1.66844
1.22683
1.39736
1.26516
0.852832
0.918511
1.18245
0.441949
0.872278
0.578201
0.953475
0.408295
0.950099
0.632874
0.483326
1.02588
1.09493
0.810092
1.01735
0.700269
0.565593
0.960345
0.824366
0.884471
1.09223
1.02937
1.12829
1.05024
1.22668
1.28619
0.789901
1.22796
1.22848
1.22641
1.24257
1.23783
1.30646
1.3415
1.496
0.633339
0.686461
0.760557
1.23267
1.35322
1.23698
1.23747
1.22564
1.23124
1.22787
1.22535
1.23129
1.22568
1.22531
1.22549
1.22634
1.22521
1.22609
1.2252
1.22613
1.22542
1.22763
1.22853
1.24476
1.23731
1.22904
1.22725
1.23896
1.36623
1.30676
1.28602
1.41713
1.2898
1.37519
1.40525
1.35548
1.45358
1.14688
1.38362
1.33838
1.46989
1.18127
0.682099
0.592108
0.558074
0.582053
0.430097
0.454136
0.543836
0.912509
0.918229
0.719538
0.82128
0.769359
0.971778
0.978288
1.22947
1.6289
2.24015
1.25642
1.22731
1.22546
1.22501
1.639
1.87845
1.76188
1.61593
1.70113
1.77379
1.56162
1.73449
1.30395
1.23001
1.97652
2.00599
1.38184
1.2304
1.26107
1.22671
1.22507
1.79065
1.24941
1.2265
1.22503
1.22923
1.22503
1.22503
1.23185
1.22515
1.22502
1.22501
1.41658
1.79245
1.52231
1.92116
1.19856
1.48407
2.26016
1.4038
2.42615
1.63199
1.9555
2.1961
2.22797
1.36183
1.97666
1.31852
2.35129
2.10988
1.29245
1.25677
1.22528
2.38049
1.47355
1.22524
1.24279
1.22529
1.22506
1.22501
1.414
1.33168
1.61356
1.63618
1.34031
1.61764
1.40759
1.42578
1.64799
1.38263
1.63703
1.35681
1.62555
1.44234
1.4891
1.41663
1.65152
1.71492
1.4633
1.45877
1.66826
1.51988
1.74706
1.56376
1.70018
1.50795
1.68534
1.55554
1.63163
1.62549
1.7097
1.82471
1.5935
1.68959
1.70958
1.6704
1.8261
1.80891
1.65203
1.75183
1.69333
1.70378
1.72148
1.85122
1.56933
1.59409
1.72857
1.86076
1.45513
1.66732
1.42746
1.68832
1.28569
1.81658
1.34874
1.58029
1.52383
1.33709
1.65524
1.6229
1.44225
1.39499
1.73851
1.66979
1.66893
1.73302
1.92336
1.56037
1.80335
1.84226
1.97995
1.76049
1.77691
1.96559
1.82904
1.90907
1.9477
2.01655
1.82712
1.6472
1.6025
1.86064
1.99358
1.83138
2.03184
2.11433
2.01383
2.01032
1.97683
1.95998
1.93858
1.66505
1.71528
1.27742
1.39099
1.57968
1.8693
1.29056
1.50009
1.53586
1.26646
1.24247
1.53491
1.39194
1.25655
1.25827
2.2829
2.06367
1.53303
2.18032
2.21268
2.16463
0.92664
1.448
1.81559
1.02818
0.972498
1.33977
1.36511
1.22493
2.44493
1.52002
1.17834
1.67531
1.87224
2.26037
1.7803
1.62522
2.15567
1.97762
2.28856
2.54224
2.59672
2.42278
2.11336
1.22641
2.23759
2.46283
2.21187
1.27625
1.21979
1.16721
1.05665
1.39969
0.861964
1.31307
1.38294
1.67174
1.83504
1.54297
1.40728
1.23276
1.04469
1.57409
1.20208
1.38726
1.18109
1.47488
1.25161
1.50067
1.2892
1.30595
1.12807
1.31361
1.12189
1.25103
1.06303
1.07091
2.03208
1.26195
1.26312
1.85043
2.05908
1.25175
1.24999
2.07172
1.24655
1.24373
1.86241
2.04272
1.23259
1.22966
1.97125
1.22965
1.22741
1.54919
1.41294
1.22564
1.22517
1.29191
1.22527
1.22506
1.23529
1.22616
1.22502
1.22501
1.22521
1.22501
1.225
1.22505
1.22501
1.225
1.225
1.34414
1.22505
1.22516
1.22501
1.22502
1.225
1.22501
1.225
1.225
1.225
1.28076
1.24781
1.23413
1.22507
1.22503
1.61351
1.22501
1.225
1.225
1.22502
1.225
1.225
1.225
1.22502
1.225
1.225
1.225
1.225
1.225
1.225
1.225
1.225
1.225
1.225
1.225
1.225
1.225
1.225
0.220522
0.343497
0.452494
0.830401
0.390678
0.505462
0.828775
0.365882
0.37486
0.995641
0.49236
1.46279
1.70916
0.479759
0.605269
1.5758
0.432278
0.430636
1.00007
1.24101
0.884622
1.96438
3.00738
0.824565
1.0493
1.88076
0.668938
0.689476
1.59129
2.0783
0.876157
1.34019
3.54536
3.76918
0.889191
1.35025
1.70402
2.41572
0.888219
1.08185
2.90374
3.70453
4.00975
1.23079
0.809611
1.15257
1.83135
2.24783
1.60048
0.622067
3.01066
1.83618
1.22837
1.22501
1.1749
1.94208
1.3119
1.5102
1.22504
1.74393
1.22502
1.22501
1.225
2.16684
2.90678
1.22501
1.225
1.225
1.85548
1.22502
1.225
1.225
1.225
0.360542
0.400036
0.46667
0.377175
0.399425
0.405096
0.517747
0.414183
0.430267
0.355358
0.394247
0.355607
0.401019
0.380422
0.461985
0.43528
0.607515
0.428527
0.593134
0.401036
0.591999
0.514749
0.492135
0.77041
0.685698
0.817703
0.890506
0.821249
0.992911
0.982882
0.696539
0.778185
1.22065
1.48448
1.01685
0.996984
0.66932
0.82099
0.97028
0.570908
0.973774
0.811044
0.814595
0.717891
0.826463
0.694451
0.927306
1.22393
0.889657
1.10028
1.07533
1.54088
1.02162
1.32197
1.63957
1.13072
1.20304
1.70437
2.07539
1.37017
1.34357
0.812971
0.692528
0.917572
1.07427
1.00653
1.26962
1.28458
0.570433
0.81196
0.811884
0.376987
0.370816
0.382241
0.564146
0.446959
0.456133
0.713677
0.842554
0.616321
0.605131
0.436728
0.476285
0.476345
0.659751
0.760105
0.746834
0.964597
0.94478
1.03182
1.05919
1.17702
1.15215
0.994524
0.695225
0.925006
1.00451
1.10043
0.866641
1.11304
1.65881
1.01751
1.22044
1.63087
2.34544
1.2167
1.42498
2.20177
1.37197
1.38604
2.55761
2.90913
1.59393
2.15545
0.678773
0.683734
0.361691
0.364865
0.366185
0.376098
0.402957
0.378151
0.406875
0.380809
0.387332
0.382061
0.385767
0.392628
0.401495
0.417271
0.392217
0.420442
0.421367
0.396837
0.401752
0.439773
0.359954
0.370623
0.380121
0.409046
0.390808
0.216496
0.3671
0.361758
0.309351
0.347808
0.301248
0.223065
0.439703
0.483701
0.489935
0.539776
0.621213
0.549122
0.47544
0.528896
0.24567
0.383042
0.321667
0.430529
0.232815
0.413916
0.338726
0.528002
0.586474
0.525635
0.76575
0.706108
0.661963
0.778383
0.673572
0.807057
0.750021
0.807924
0.74692
0.821601
0.887296
0.747521
0.80074
0.894081
0.865188
0.882545
1.03713
0.94582
0.919738
0.846592
0.966153
0.875153
0.734216
0.697986
0.791921
0.760547
0.842314
0.795348
1.00616
0.900731
1.09541
1.02406
0.965266
0.906278
1.14546
0.655564
0.759742
0.743069
0.746904
0.884868
0.798142
0.862023
0.939268
0.83957
0.322122
0.557324
0.414841
0.637569
0.298604
0.625501
0.449222
0.863231
0.953373
0.846101
0.78858
0.813549
0.743898
0.8672
0.742417
0.867044
0.789781
0.748141
0.709457
0.764793
0.746823
0.781786
0.823578
0.903533
0.950814
0.842004
0.907691
0.821774
0.861565
1.04658
0.890026
0.967761
0.950597
0.973917
0.952117
1.0374
1.1471
1.1491
1.03987
1.1942
1.0609
1.24959
1.12181
1.10349
0.991958
1.05016
1.12442
1.00055
1.08621
1.16035
1.2146
1.26312
1.40118
1.23086
1.32721
1.18116
1.28025
1.39792
1.22112
1.1392
1.23052
1.28003
1.33236
1.24059
1.4924
1.30519
1.50152
1.38425
1.42045
1.31985
1.57375
0.741647
0.862071
0.784966
0.76117
0.736958
0.891959
0.835806
0.810698
1.03252
1.16469
1.11129
0.980537
1.10308
1.07513
1.22768
1.19942
1.16467
1.23927
1.26959
1.21603
0.542712
0.5228
0.41326
0.628033
0.385586
0.5776
0.583542
0.741692
0.213308
0.336655
0.293903
0.360349
0.34104
0.297307
0.210774
0.260813
0.468
0.500078
0.385313
0.452538
0.359971
0.27834
0.415116
0.379084
0.467383
0.421476
0.44949
0.398503
0.525829
0.74441
0.493445
0.574832
0.55737
0.80998
0.505804
0.58629
0.879553
0.547976
0.755679
0.900708
1.25058
0.638853
0.970523
0.808073
0.737473
0.770291
0.881414
0.825639
0.913172
1.33197
0.872037
1.04785
1.21418
1.75217
1.23694
1.57301
1.393
0.806448
1.05348
1.55294
1.7989
0.903804
1.31263
1.1703
0.884221
1.22894
1.16749
1.60074
1.07595
1.58663
2.31821
1.36616
1.74254
1.91088
3.17394
1.78206
2.30252
1.93396
1.16564
1.4117
2.12714
2.42433
1.35383
1.89087
0.456134
0.451295
0.493111
0.474185
0.506617
0.494309
0.523742
0.548418
0.644035
0.616138
0.568074
0.548293
0.664967
0.585935
0.584974
0.568465
0.582013
0.779543
0.982922
0.656969
0.896623
2.70805
1.61847
2.17953
2.94424
2.37003
2.21996
2.36161
1.80351
1.92952
2.24657
1.22502
1.225
0.165191
0.164139
0.244006
0.283475
0.289643
0.336909
0.686305
0.255092
0.377837
0.247862
0.368464
0.368018
0.566738
0.432975
0.614206
0.430123
0.64871
0.597541
0.874748
0.58788
0.653362
1.46117
1.16774
0.812469
2.17679
1.53881
1.27849
1.22502
1.22501
1.225
1.225
2.40881
1.22505
1.225
1.225
1.225
1.225
1.22954
1.22505
1.225
1.225
1.225
1.225
1.225
1.225
1.225
1.225
1.225
1.225
1.225
1.225
1.225
1.225
1.225
0.23283
0.263622
0.219149
0.245543
0.305259
0.366425
0.290191
0.328338
0.380841
0.332253
0.26365
0.305421
0.3317
0.337842
0.341491
0.332077
0.497699
0.497082
0.454133
0.368708
0.573335
0.671149
0.531028
0.341595
0.497613
0.530234
0.621455
0.558306
0.572059
0.687384
0.755354
0.598019
0.558986
0.754781
0.314063
0.293322
0.317892
0.285121
0.327993
0.392488
0.41523
0.44007
0.477066
0.52973
0.629969
0.671192
0.711475
0.675029
0.713491
0.826811
0.238835
0.262491
0.236727
0.267341
0.266072
0.240342
0.235389
0.224763
0.249969
0.226433
0.247902
0.251431
0.2804
0.303641
0.277472
0.278994
0.253084
0.275493
0.318831
0.289297
0.315678
0.293881
0.29296
0.319355
0.315151
0.342907
0.339201
0.343186
0.338827
0.331765
0.307001
0.331197
0.357552
0.306016
0.332191
0.35726
0.35541
0.380321
0.355332
0.380922
0.237038
0.267374
0.240704
0.250687
0.226972
0.280442
0.278005
0.253483
0.336512
0.340719
0.306363
0.355871
0.330535
0.377284
0.352376
0.323737
0.284224
0.281573
0.326891
0.354986
0.339763
0.313135
0.387664
0.310742
0.385823
0.357801
0.369831
0.424681
0.37335
0.421332
0.403492
0.438802
0.495419
0.461058
0.437034
0.406562
0.458079
0.443119
0.367863
0.394363
0.415766
0.394531
0.415263
0.44223
0.468
0.416727
0.418372
0.465207
0.498692
0.468854
0.531668
0.560986
0.468967
0.496215
0.56502
0.525152
0.586028
0.520043
0.594194
0.313739
0.388133
0.358721
0.425681
0.374591
0.439328
0.462034
0.407634
0.413247
0.461198
0.468152
0.557809
0.493718
0.580247
0.515305
0.527155
0.476467
0.473346
0.529733
0.573441
0.556443
0.517106
0.624143
0.514076
0.622215
0.576211
0.579879
0.631725
0.581736
0.630389
0.632777
0.690659
0.753975
0.691724
0.688887
0.634927
0.69014
0.721224
0.598651
0.633247
0.67143
0.638535
0.672099
0.7145
0.517951
0.624807
0.57669
0.629807
0.580838
0.690932
0.69041
0.634621
0.717099
0.677599
0.676282
0.718188
0.221414
0.199402
0.224006
0.184159
0.294282
0.215888
0.242021
0.320763
0.277374
0.353419
0.321415
0.397794
0.326891
0.37276
0.346821
0.247336
0.338723
0.346891
0.511854
0.336159
0.501973
0.465438
0.370361
0.534486
0.558543
0.71953
0.602771
0.614877
0.561382
0.432045
0.624008
0.513347
0.702661
0.523505
0.685646
0.675162
0.792
0.647892
0.800965
0.744147
0.906239
0.716637
0.867088
0.55306
1.26313
1.91754
2.17834
2.12215
1.22542
1.22508
1.225
1.22501
0.676215
0.49949
0.552859
0.558125
0.631931
0.522633
0.465882
0.480594
0.453187
0.360858
0.371326
0.433193
0.590052
0.501781
0.527825
0.478888
0.408359
0.388374
0.509377
0.67822
0.679358
0.669554
0.490457
0.68798
0.472645
0.438916
0.339276
0.505688
0.478756
0.360945
0.53156
0.207237
0.187203
0.256632
0.437385
0.613028
0.186935
0.22345
0.224241
0.255659
0.388916
0.389873
0.437068
0.575035
0.572967
0.593542
0.557923
0.647895
0.628829
0.615617
0.555162
0.628675
0.211175
0.190315
0.214636
0.297373
0.484739
0.64771
0.672146
0.60982
0.827862
0.212728
0.185842
0.210823
0.189942
0.18872
0.214182
0.209546
0.201337
0.221462
0.199784
0.201884
0.253069
0.296179
0.293051
0.340348
0.385637
0.33686
0.341594
0.434242
0.485104
0.483024
0.531094
0.574318
0.529879
0.529906
0.534084
0.557789
0.504048
0.590835
0.504492
0.591041
0.532815
0.556234
0.613777
0.642769
0.567879
0.615562
0.553052
0.581534
0.614848
0.652307
0.651727
0.501196
0.58618
0.528157
0.605996
0.569142
0.545874
0.159221
0.165396
0.171967
0.1985
0.165582
0.199277
0.220652
0.228407
0.300039
0.354337
0.229398
0.35529
0.392811
0.399257
0.521826
0.521904
0.399462
0.519743
0.148045
0.164348
0.146006
0.168181
0.167197
0.148963
0.14501
0.156322
0.178291
0.196675
0.175389
0.17692
0.157529
0.173734
0.146188
0.168463
0.149176
0.178784
0.176124
0.157947
0.235921
0.22599
0.202751
0.266756
0.200507
0.263773
0.238711
0.275369
0.308553
0.351277
0.321454
0.305296
0.278419
0.318611
0.203754
0.267961
0.23983
0.309785
0.322427
0.279683
0.401269
0.396801
0.363305
0.442634
0.361117
0.441042
0.402568
0.438288
0.483309
0.521748
0.472597
0.482617
0.438717
0.472795
0.363602
0.442075
0.402049
0.481963
0.47044
0.437402
0.603737
0.418542
0.320843
0.454159
0.306519
0.422529
0.443492
0.272639
0.455468
0.365388
0.260522
0.351548
0.508215
0.349674
0.45187
0.481403
0.408132
0.42887
0.502309
0.550757
0.676071
0.313758
0.271538
0.315495
0.295977
0.339428
0.297793
0.343836
0.343821
0.380419
0.35153
0.39091
0.369661
0.381243
0.409768
0.1687
0.155804
0.161528
0.191301
0.177103
0.18361
0.186109
0.286051
0.190295
0.315151
0.386322
0.297285
0.227776
0.318022
0.162349
0.165285
0.1623
0.146149
0.139861
0.143128
0.143007
0.306859
0.290211
0.338733
0.26651
0.312396
0.295043
0.342879
0.39236
0.427592
0.385199
0.388936
0.353174
0.385311
0.421776
0.38554
0.40597
0.433707
0.411332
0.435356
0.434491
0.46345
0.180162
0.212882
0.212344
0.208419
0.2397
0.204217
0.239226
0.20287
0.17643
0.179636
0.170988
0.1747
0.197697
0.193526
0.174749
0.191573
0.194167
0.154296
0.168844
0.151519
0.171405
0.465349
0.465109
0.50259
0.420135
0.452455
0.453258
0.486143
0.250866
0.300503
0.294677
0.327312
0.285097
0.280803
0.333004
0.816258
0.602196
0.655401
0.472522
0.68698
0.570249
0.758489
0.341059
0.392317
0.389139
0.376293
0.428957
0.381777
0.426743
0.214984
0.19902
0.233149
0.229197
0.206233
0.239508
0.209159
0.191365
0.18791
0.214102
0.21275
0.240613
0.212319
0.23947
0.430658
0.488295
0.461851
0.480595
0.457886
0.492147
0.519585
0.203887
0.206989
0.210278
0.18062
0.183574
0.186598
0.183734
0.179666
0.188274
0.201856
0.174605
0.188451
0.214854
0.201559
0.317546
0.388898
0.364368
0.34721
0.322898
0.372778
0.402087
0.354288
0.404989
0.496706
0.460568
0.71643
0.554105
0.378712
0.433502
0.473579
0.477641
0.519946
0.471485
0.473308
0.513642
0.223012
0.258185
0.260347
0.22986
0.232495
0.195098
0.197657
0.42703
0.420584
0.397071
0.412669
0.479986
0.446328
0.442615
0.227938
0.250231
0.254565
0.222183
0.242696
0.247909
0.217452
0.233622
0.253201
0.2669
0.295275
0.228635
0.259521
0.266925
0.301836
0.346686
0.348189
0.313881
0.269545
0.315589
0.271866
0.538271
0.578323
0.540865
0.517271
0.485581
0.520072
0.552778
0.22218
0.194524
0.197394
0.216184
0.218794
0.242555
0.245147
0.248267
0.290379
0.288237
0.276565
0.31999
0.322729
0.277858
0.320056
0.405339
0.371467
0.350338
0.323121
0.374285
0.406246
0.247791
0.237776
0.258076
0.20915
0.221083
0.23799
0.225978
0.764089
0.634375
0.528817
0.798737
0.601866
0.739417
0.851142
0.333073
0.385224
0.382429
0.419705
0.367493
0.371136
0.422944
0.439397
0.394236
0.438224
0.399608
0.35765
0.400148
0.358867
0.459072
0.466104
0.420949
0.419813
0.497724
0.45627
0.457839
0.443017
0.509799
0.469665
0.509061
0.467888
0.499005
0.541186
0.873782
1.16832
0.81293
0.577648
0.880467
0.668359
1.14436
0.221661
0.302747
0.241395
0.296433
0.230044
0.254663
0.31852
0.289757
0.266769
0.257689
0.252227
0.275318
0.26446
0.282686
0.297599
0.269485
0.268563
0.238079
0.296326
0.264928
0.267411
0.361205
0.315658
0.343434
0.40171
0.311649
0.366621
0.396703
0.430648
0.478917
0.479228
0.470785
0.523239
0.522499
0.47236
0.519923
0.552456
0.561155
0.564735
0.596437
0.555248
0.608677
0.591983
0.505486
0.544415
0.533173
0.490662
0.524678
0.569074
0.511975
0.496413
0.535474
0.504156
0.545404
0.53345
0.573078
0.229051
0.23251
0.236163
0.25595
0.259999
0.259706
0.263529
0.4135
0.457666
0.468654
0.510995
0.418569
0.453046
0.467245
0.268054
0.342105
0.289449
0.3125
0.256401
0.274085
0.333042
0.249983
0.287927
0.289665
0.320582
0.276695
0.278535
0.319225
0.522383
0.482038
0.481115
0.474958
0.474108
0.438481
0.438372
0.598428
0.612089
0.642991
0.545116
0.570381
0.58233
0.610746
0.332355
0.378217
0.303619
0.197782
0.326372
0.406899
0.316688
0.51789
0.537349
0.492989
0.52902
0.605323
0.573434
0.558037
0.311866
0.277621
0.347991
0.323696
0.301808
0.285646
0.351872
0.609171
0.619679
0.566799
0.513989
0.565164
0.516892
0.558328
0.182842
0.202806
0.195949
0.226655
0.225215
0.237576
0.21378
0.248766
0.299271
0.273334
0.270388
0.301416
0.276553
0.272855
0.3048
0.282012
0.309652
0.30123
0.268775
0.274351
0.295394
0.413651
0.369995
0.43132
0.370431
0.391089
0.439749
0.460667
0.33346
0.381378
0.382605
0.36684
0.418139
0.365983
0.418745
0.307134
0.388223
0.353334
0.356555
0.340657
0.308696
0.392041
0.569869
0.566319
0.525575
0.622534
0.573906
0.570527
0.616837
0.633973
0.623556
0.584243
0.559891
0.643052
0.606314
0.594085
0.619099
0.633351
0.599196
0.686812
0.634136
0.649541
0.668198
0.286935
0.267472
0.277886
0.254028
0.257783
0.269395
0.242141
0.46037
0.522397
0.482395
0.547671
0.498887
0.521277
0.57093
0.407203
0.439901
0.474531
0.376966
0.438658
0.402383
0.471263
0.480888
0.431511
0.479321
0.524773
0.469839
0.470802
0.523267
0.297556
0.356047
0.325685
0.31982
0.325438
0.292267
0.354444
0.442419
0.459456
0.403923
0.408111
0.506892
0.447397
0.463388
0.593576
0.558978
0.559277
0.540006
0.508349
0.506803
0.537666
0.305678
0.243508
0.237007
0.266349
0.345489
0.277033
0.3325
0.311947
0.339558
0.332229
0.314785
0.289389
0.298156
0.307515
0.655776
0.722611
0.671604
0.614601
0.645696
0.60206
0.661657
0.62931
0.602157
0.571975
0.528347
0.564224
0.573465
0.608484
0.317835
0.310886
0.287289
0.287474
0.315018
0.290991
0.314061
0.470198
0.408228
0.375511
0.437656
0.40715
0.473836
0.433283
0.352614
0.30688
0.338206
0.38571
0.308184
0.352021
0.38492
0.623639
0.561397
0.514081
0.571127
0.570348
0.564438
0.516232
0.938055
0.696333
0.911121
0.682585
0.691124
0.951504
1.15324
0.329534
0.364895
0.309912
0.290483
0.369187
0.305853
0.351824
0.603968
0.499257
0.541173
0.542028
0.494858
0.535487
0.591166
0.556678
0.561698
0.59157
0.590885
0.613707
0.63295
0.65562
0.861616
0.971145
1.65042
1.10039
1.73543
1.50538
0.854534
1.32697
1.13757
0.935127
1.23074
0.864815
0.840073
1.13853
0.633772
0.595972
0.685232
0.561652
0.604244
0.639587
0.690869
0.545644
0.639543
0.586781
0.650059
0.582628
0.62049
0.68283
0.574008
0.528537
0.526685
0.62908
0.626041
0.577905
0.575608
0.64226
0.61046
0.605944
0.667196