/*--------------------------------*- C++ -*----------------------------------*\
  =========                 |
  \\      /  F ield         | OpenFOAM: The Open Source CFD Toolbox
   \\    /   O peration     | Website:  https://openfoam.org
    \\  /    A nd           | Version:  9
     \\/     M anipulation  |
\*---------------------------------------------------------------------------*/
FoamFile
{
    format      ascii;
    class       volScalarField;
    location    "0.0023";
    object      overpressureMax;
}
// * * * * * * * * * * * * * * * * * * * * * * * * * * * * * * * * * * * * * //

dimensions      [1 -1 -2 0 0 0 0];

internalField   nonuniform List<scalar> 
19029
(
227286
281624
250156
146023
164753
229243
150010
175792
194231
138363
27677.7
269.945
285435
257795
193484
204586
237722
133059
220450
180206
101551
124026
142274
124143
159505
236418
418595
432357
261268
284761
421045
428829
264240
415588
276007
329588
272446
392929
268729
392588
275364
251999
270525
211619
346014
177332
256882
185405
174712
92920.1
181842
123700
228615
109373
62099.1
76500.8
124887
89083.3
65720.7
72684.5
96553.5
66706.5
96711.3
89788.5
124590
82572.4
97796.8
90301.5
302869
264162
261562
217379
144499
178210
180810
175093
181085
208033
628377
303688
530573
302011
394132
246067
319324
152315
209224
223615
496245
418345
596541
495525
390769
389717
304498
384126
491697
346467
437465
425345
335096
372530
266458
354776
384529
299299
344267
249743
272684
304018
173911
252033
378312
265443
214737
168540
159874
161850
60511.2
107884
111743
15192.5
324687
406533
229136
302745
404856
228537
326219
312347
393719
225368
295385
316095
385925
224369
257031
330156
203091
223035
275932
301659
189799
128942
212413
140987
135049
182191
187685
110715
241530
167157
278156
219950
195600
185882
7960.53
227799
153719
579427
898792
504837
492471
894013
502463
580158
579648
492611
888245
499594
885714
500403
582578
321017
303139
398226
225440
401163
225841
318066
574461
888439
496221
479831
582789
872584
489621
553363
457371
776777
447490
834165
473413
520229
304186
283067
354274
213456
372709
220612
291806
428561
702952
411759
338630
477485
620811
370220
378152
292228
463456
285495
538846
326891
330151
236213
198232
240519
157838
270951
174327
214312
487978
474524
419061
319778
534345
418822
379079
704522
676735
811527
592754
379990
279999
324839
242774
343454
303463
283761
630222
476912
534012
558929
253791
399928
248730
189307
287751
353219
218646
232181
172390
294846
181787
322020
196297
220286
76927.9
122202
122844
44564.9
158329
76023.9
35034.9
291965
179401
187541
327370
200396
244098
225438
31239.4
213.645
12438.6
204288
2802.06
11251.6
23.2557
205027
182532
239081
164531
171406
209315
121518
0.18077
267173
349.897
539095
513931
482442
301164
290096
277360
364551
313982
223052
189669
221978
272034
407696
287822
323910
293931
427930
396380
279911
533447
385681
284083
438526
417054
529453
361743
299131
372253
292482
405237
390991
354269
294426
430318
395724
353051
276244
389099
363165
357522
268928
355291
261094
382690
316286
349200
278808
300682
359347
323890
283046
239446
300322
179602
236335
264218
269833
151404
73614.7
139042
174502
198333
79436.6
136359
132470
74075.8
192031
133679
139620
133291
129888
86171.7
508284
450838
445455
350079
529714
433509
427750
483453
334071
388839
383968
413683
408035
452769
253097
220776
192944
242423
194569
269424
230467
336444
347861
271022
403256
307519
358893
314678
320187
72370.8
68172.7
271088
320964
298210
285416
114890
294.268
114407
63.7702
88494.9
1.44057
1397.01
0.117332
117680
21.9353
0.00309394
0.0158046
166862
235504
166170
232393
31365.2
7829.85
32354.2
5397.43
165998
224774
163521
211191
32911.6
2153.28
159624
225987
41822.3
65044.3
14061.6
3505.35
655.066
237.015
112455
487.374
23475.4
203.597
189650
22524.1
107293
114438
187153
16027.4
92480.4
181929
6280.87
51595.9
110469
138898
13437.3
9399.81
19728.2
1749.06
52.9045
4429.88
693.65
132.922
2.79835
36.8678
11.1727
1.41107
57.6746
3.05564
0.593671
0.30116
1000.65
276.603
13.1716
397.319
3.68963
260899
187011
207908
166466
186708
206957
262099
257613
166146
187684
201638
186412
204494
254420
17064.7
15370.8
52854.1
31307.1
14662.1
52182.7
18140.1
15172.8
31676.9
12127.9
47190.8
13632.6
50544.4
12531.3
249039
188826
198745
165910
251613
189224
196326
244637
165428
185449
189627
188517
193745
237152
6166.34
10177.5
41266.3
32556.6
9390.21
7996.66
32598.8
213587
179376
183315
138899
226818
170488
164200
196944
92723.5
125011
43067.5
159147
109157
150641
34042
76978.3
11878.5
5001.7
82865.2
38546.5
3811.12
11973.3
1849.24
6097.48
406.39
16198.2
1278.16
4014.24
50089.4
118189
40490.5
123713
56815.2
147953
29429.8
5370.05
4997.57
843.529
254.525
8416.18
2882.42
481.467
157615
95611.2
114467
156897
95486.3
122517
122843
151711
91701.9
114449
150062
83887.5
115058
119816
120249
17655.9
49024.1
64337.2
5430.64
6954.49
27203.4
1184.64
132.121
488.926
376.226
45.2438
34.5512
109.627
81037.3
28633.6
83372.3
12070.5
11394.1
3074.64
30264.3
1.03987
0.159384
0.0671639
0.654129
0.234417
0.0399981
0.0172599
288.023
2.86051
2.71443
0.258665
114287
153564
94640.4
155314
94981.5
121625
120810
114528
144866
42357.3
148489
68247
100438
67216.7
15771.6
4326.7
423.954
18197.1
1492.81
1663.92
398.624
172.459
36.9299
5.25835
122.233
15.3242
10.6263
3.45887
2983.29
110.156
90.7613
1184.41
1039.26
294.863
27.0727
2705.04
3.85792
2.36286
191.8
1670.44
2.81549
1.62202
475.269
1.77657
0.995754
11.3596
5.03935
0.694619
0.429393
1.00696
0.135554
0.126105
0.640427
0.351844
0.0387832
0.0258261
0.0999052
0.00789494
0.00553142
0.0270147
0.0204748
0.0014027
0.00146895
0.0722026
0.0369651
0.00458852
0.00021307
1.07583
5550.79
1338.16
97751.4
8.99726
12599.3
157315
789.505
91.1227
2768.52
22.5082
48100.6
270150
319243
279333
188620
112990
629.322
6.11211
0.0520019
1.20669
116.754
1.99228
54175.7
78797.4
62.5718
183184
34944.5
59353.2
21.4475
8792.17
20948.3
8.90965
59003.5
894.113
2692.62
1.43462
42.8088
13.0067
1.11271
125.012
1.17978
1.20006
0.21103
0.542387
0.340594
0.0411196
0.835811
0.118825
0.0725097
0.0132581
0.142487
74.2052
7.70168
0.774813
0.455967
0.926929
0.0630742
0.194878
0.0931648
0.0131461
0.0064857
7.16626e-05
0.00585303
0.000226747
0.00232349
6.33913e-05
0.000142179
3.9641e-06
6.53022e-06
1.82758e-07
1.57567e-06
3.36731e-08
0.000817886
1.83343e-05
4.27259e-07
9.80799e-09
1.18641
0.699673
0.101231
0.0216248
0.0767412
0.00185831
5.96962e-05
1.83056e-06
5.54719e-08
1.45519e-09
681926
650653
677853
682164
711539
602174
610463
628543
585631
0.00263239
0.00165678
5.62572e-05
0.000385213
1.42325e-05
6.80711e-05
2.12203e-06
6.31466e-06
1.7749e-07
1.83907e-06
4.69154e-08
0.0288526
0.00871503
0.00165548
0.000202542
6.75618e-05
402013
20.6605
14.6304
3306.62
182948
64.4076
73004.8
409.039
1.18065
0.813655
0.0102464
457727
463660
478674
467999
450389
394230
26617
1112.38
58.0015
0.881353
257951
270884
182641
169961
231957
176143
237890
215113
175698
1.09468e+06
735052
1.11111e+06
900802
595222
881890
1.51674e+06
1.10625e+06
1.29104e+06
1.02048e+06
1.50247e+06
1.03928e+06
1.29469e+06
3.10017e+06
2.75979e+06
3.07522e+06
2.74875e+06
1.51935e+06
914053
1.0025e+06
1.27102e+06
1.02032e+06
1.29062e+06
1.4933e+06
3.05669e+06
2.5169e+06
2.67072e+06
2.92317e+06
1.37135e+06
973479
1.23648e+06
853722
1.4426e+06
933937
1.18539e+06
2.50758e+06
2.32662e+06
2.73575e+06
2.10992e+06
1.28864e+06
1.10278e+06
747933
655619
330084
924840
1.17487e+06
834674
772841
754255
490764
412947
688044
392681
378655
1.03498e+06
1.25314e+06
1.1132e+06
1.2553e+06
1.22474e+06
1.08091e+06
1.06523e+06
884510
1.06406e+06
1.05404e+06
1.00649e+06
947591
965608
1.05266e+06
777312
613891
1.00747e+06
734420
802318
613699
972882
629183
571898
825447
612995
679660
526699
763682
304380
229049
914848
1.1413e+06
779293
902440
1.11344e+06
758380
942815
2.38575e+06
2.73972e+06
2.66973e+06
2.44091e+06
2.02324e+06
1.65233e+06
1.62946e+06
2.06054e+06
1.00786e+06
1.22561e+06
1.1395e+06
1.05793e+06
1.19509e+06
1.06028e+06
983369
887256
878595
1.02801e+06
713799
1.08371e+06
738450
854966
2.30689e+06
2.54024e+06
2.58472e+06
2.27063e+06
1.95946e+06
1.57601e+06
1.59021e+06
1.92712e+06
748184
953757
673368
692025
810948
857607
621053
2.21711e+06
2.53976e+06
2.26885e+06
2.49695e+06
1.875e+06
1.56953e+06
1.9208e+06
1.53262e+06
844321
880513
695489
1.02961e+06
835564
1.04494e+06
822761
693998
591517
606869
563958
733515
591125
661474
2.09404e+06
2.20433e+06
2.38122e+06
1.9224e+06
1.76907e+06
1.34104e+06
1.45309e+06
1.62364e+06
606152
508083
531267
388787
632897
490785
497736
1.52102e+06
2.00066e+06
1.72805e+06
1.77999e+06
1.27906e+06
1.20679e+06
1.45691e+06
1.06115e+06
748334
714529
593062
880922
606831
930235
716330
581687
393231
486585
439986
491636
466326
558390
1.3201e+06
1.3693e+06
1.56507e+06
1.1373e+06
1.10535e+06
786958
917572
947057
850506
1.19996e+06
980201
1.05782e+06
499315
496094
364510
454605
399460
635600
357164
741579
742975
901272
653916
249444
424254
225504
202024
376783
222993
274299
1.70658e+06
1.64437e+06
1.28225e+06
852903
724453
1.41534e+06
1.48308e+06
1.09372e+06
730851
602935
497853
479435
475099
1.81506e+06
1.05785e+06
1.08159e+06
1.54973e+06
966250
879776
521846
451559
378608
1.69353e+06
1.6189e+06
1.61235e+06
1.70627e+06
1.63442e+06
1.45722e+06
1.56417e+06
1.51302e+06
1.07454e+06
1.27025e+06
1.31771e+06
1.03304e+06
864939
832049
642971
1.48785e+06
1.27575e+06
1.31668e+06
1.06239e+06
1.26602e+06
1.29562e+06
1.50206e+06
1.44657e+06
1.03142e+06
1.14445e+06
1.18664e+06
1.22649e+06
1.26311e+06
1.35236e+06
1.02837e+06
1.01894e+06
1.08772e+06
765767
1.21525e+06
857408
954576
833055
633835
577505
645062
693218
789465
688377
580806
522002
552998
414792
616266
493736
505972
563222
393765
465559
462306
479010
480113
547474
21.6095
0.0224226
0.101645
0.00914893
0.0105493
53.8083
7.03261
5.43327
1.44368
0.13204
0.120467
0.00760199
0.00323435
0.00212995
0.000256325
0.0138721
0.00146377
0.00203006
695628
1.2944e+06
483413
194993
6501.14
7.22734
1.95467
0.044725
0.0248635
667188
1.30346e+06
491071
194462
3597.83
1.81773
0.0525856
0.0192484
0.0056429
600618
935933
466408
124911
432.826
0.217786
0.000434698
0.0046821
0.00032406
476244
750032
392921
389.196
1.10266
0.00709334
0.000795366
0.000110685
7.05717e-06
51584.5
379678
4678.63
168578
0.0684284
15.9589
0.000159514
0.0037374
20.3931
221865
0.158657
256.889
0.000616118
0.0141463
1.37968e+06
1.3965e+06
1.32178e+06
1.44509e+06
1.32233e+06
755791
679104
1.31856e+06
748508
1.2854e+06
1.30212e+06
1.17773e+06
330887
482163
329200
25006.7
83690.4
2922.45
194701
21813.3
74462.9
1485.34
128.737
434.922
31.3107
4691.13
69.3692
214.866
7.20945
1.21368e+06
929833
1.31435e+06
761449
623378
1.08605e+06
766358
1.06638e+06
328226
490732
324805
19060.9
42147.7
920.752
191171
8124.47
3764.49
89.5162
43.5281
129.067
4.60381
945.289
4.34569
11.5843
1.55156
653284
533559
554907
959913
825598
556679
716616
734673
802058
777976
316441
421742
281329
4516.6
251.278
29.3021
10756.3
106.503
6.76249
0.570232
1.39662
3.60759
0.335701
7.07697
0.0269728
0.483237
0.0464576
486855
537974
454301
467692
675409
618799
279023
457052
309700
733052
463304
397630
68411.8
140301
111.253
17.1717
0.442996
1.01039
0.592927
0.4674
0.153202
0.0372901
0.00867916
0.0346528
0.00439842
0.791503
4.30375
0.0074212
0.0211959
147848
31.2563
150.408
61.5726
2509.57
0.348496
1.33372
152351
263.849
984.223
4979.17
28166.4
2.23018
207.142
500235
107431
490868
50891.9
449357
67.3003
43580.1
0.10538
10.1689
0.022893
526512
531448
626563
449051
375963
498828
623484
446486
372426
548816
556772
620530
388990
365643
473971
603819
419253
356131
528856
484290
538932
252206
341533
384831
477074
116271
284052
371077
89633.5
234457
85.4156
32394.6
345.65
5099.53
0.806348
28.7292
1.65656e+06
1.2141e+06
1.64688e+06
1.27184e+06
1.18287e+06
1.63801e+06
1.66007e+06
480946
599065
594546
322060
446380
443854
322988
699.456
1011.85
5467.67
6113.48
939.163
5092.44
757.907
1.66159e+06
1.15492e+06
1.62993e+06
1.26755e+06
1.64426e+06
1.10753e+06
1.64294e+06
604290
492993
606498
343405
459892
337812
462417
192.664
480.155
2620.82
2556.91
314.572
317.362
1726.72
1.48647e+06
1.00428e+06
1.55331e+06
897938
1.57415e+06
960222
1.46164e+06
445873
571762
544084
322948
430890
335393
406916
4.44765
35.991
189.495
148.922
16.0247
10.8434
56.5021
1.0378e+06
793270
1.11933e+06
694660
1.15232e+06
734157
1.00555e+06
267162
433648
366884
220155
317447
267947
286595
0.00591835
0.0702099
0.362302
0.16536
0.0260035
0.0144118
0.0530198
654.043
277463
45435.9
386202
325309
313738
27401.7
339163
355460
341416
332361
290223
50816.5
236812
36144.6
173169
40479.9
162030
52045.5
184616
23627.4
0.0034864
0.00706124
0.188266
8.61217
0.0119
0.251494
0.0108592
40.5622
0.0443191
0.155379
0.521092
1.46759
0.0354534
0.0821784
1.13374e+06
1.20439e+06
1.39755e+06
1.30015e+06
1.17942e+06
1.39401e+06
1.13687e+06
750198
858216
853289
1.40696e+06
756397
749173
1.42333e+06
2.74151e+06
3.41679e+06
3.35469e+06
2.78743e+06
1.13307e+06
1.29899e+06
1.1769e+06
1.3961e+06
1.17156e+06
1.39286e+06
1.13369e+06
851734
753981
856579
1.38525e+06
748255
744874
1.37223e+06
2.68055e+06
3.26421e+06
3.28961e+06
2.64227e+06
1.51346e+06
1.24769e+06
1.29291e+06
1.24737e+06
1.20657e+06
1.30246e+06
1.50894e+06
3.56867e+06
3.77644e+06
3.70378e+06
3.63406e+06
3.18643e+06
2.94757e+06
2.88584e+06
3.23766e+06
1.64155e+06
1.27637e+06
1.17293e+06
1.62421e+06
1.17278e+06
1.62658e+06
1.63727e+06
1.50315e+06
1.22038e+06
1.15588e+06
1.29329e+06
1.18329e+06
1.29663e+06
1.49879e+06
3.47396e+06
3.57348e+06
3.61038e+06
3.42705e+06
3.10216e+06
2.75417e+06
2.80301e+06
3.0546e+06
329666
404401
402721
273130
251044
250898
273385
594640
486786
599438
323309
453750
446194
329901
402113
329102
402794
276918
257290
253468
283613
80389.4
49370.4
30803
24209.6
49352.9
29349.3
80564.8
80191.6
23329.4
51658.1
23192.4
50301.4
26851.9
78782.5
91.6557
144.395
86.734
117.043
132.6
78.3712
100.367
593.017
5540.31
657.068
3573.7
817.843
4438.84
456.553
75.3215
95.5461
84.6012
44.056
111.345
62.6878
55.2394
1.13738e+06
1.15381e+06
1.40093e+06
1.272e+06
1.13456e+06
1.10034e+06
1.40916e+06
866307
767963
875569
1.38612e+06
754464
1.37635e+06
756384
2.6492e+06
3.28522e+06
2.64104e+06
3.31663e+06
1.1377e+06
1.19193e+06
929331
1.3829e+06
1.02519e+06
1.40973e+06
1.1228e+06
874152
856753
752080
1.38179e+06
731457
749888
1.35206e+06
2.62502e+06
3.17345e+06
3.28698e+06
2.54336e+06
3.48615e+06
3.59804e+06
3.44922e+06
3.63829e+06
1.66542e+06
1.18563e+06
1.03825e+06
1.61694e+06
1.06146e+06
1.64528e+06
1.63653e+06
3.44995e+06
3.48532e+06
3.60709e+06
3.32359e+06
403564
326812
403589
294771
260431
289883
262881
602170
481801
590197
345614
448885
459692
343141
321763
401991
397506
298063
265678
264880
298536
65796.9
52919.2
18488.7
15591.2
74436.7
54108.3
13413.1
52547.9
11919.6
50011.5
4629.65
54039
8543.9
35459
20.4137
56.8322
27.367
23.956
36.3276
34.1578
14.2644
102.211
1670.59
91.1373
485.974
185.058
996.721
45.2868
10.2055
11.1316
7.7126
2.38646
17.6693
6.47787
4.03797
1.03831e+06
819588
1.33042e+06
824431
1.08867e+06
704540
1.25662e+06
783962
724942
687691
1.21322e+06
699904
1.29314e+06
656926
2.21146e+06
2.97913e+06
2.39893e+06
2.72747e+06
977149
753144
623399
1.07683e+06
650063
1.16967e+06
907667
679296
642554
591852
1.12073e+06
548872
605494
1.01904e+06
2.00414e+06
2.17213e+06
2.45028e+06
1.7913e+06
2.86455e+06
3.27271e+06
3.11985e+06
2.99817e+06
1.38171e+06
851876
851051
1.23555e+06
907819
1.35189e+06
1.26761e+06
1.28592e+06
818926
836611
1.05082e+06
887520
1.12247e+06
1.19048e+06
2.57836e+06
2.38328e+06
2.69067e+06
2.28745e+06
2.26018e+06
1.67812e+06
1.88951e+06
2.01202e+06
307948
388521
375138
288171
264022
295327
259206
510456
473179
395085
306763
348588
378832
288030
177703
357686
334305
277694
146704
233629
264221
6705.33
39544.9
2014.07
1874.1
18413.3
22250.4
658.666
1733.19
531.349
1527.99
30.7376
7546.95
162.517
336.587
0.361096
2.69764
0.758049
0.390792
1.33341
0.756067
0.219377
0.977787
37.0949
0.464408
2.41492
2.55277
13.4814
0.179697
0.0757704
0.100175
0.0309524
0.017044
0.169521
0.0526754
0.0160906
753384
590853
980879
624717
832287
538413
883441
556746
483766
538055
805879
490287
911629
433419
1.38346e+06
1.90305e+06
1.58074e+06
1.65656e+06
659480
485426
386323
605792
413002
774531
505967
398074
495914
423247
704519
319710
379570
597537
1.1931e+06
1.17296e+06
1.41758e+06
996723
988540
782952
972560
684111
1.09033e+06
727853
890095
1.7512e+06
2.08779e+06
2.00636e+06
1.81935e+06
1.56e+06
1.4835e+06
1.77625e+06
1.31005e+06
912147
579613
441466
700926
632303
883326
719363
869251
579000
441410
571927
628645
771904
671101
1.4944e+06
1.29097e+06
1.55469e+06
1.23546e+06
1.33214e+06
914188
1.11778e+06
1.09838e+06
5533.64
45217.3
230544
70706.5
43217.5
191510
6537.84
295349
18281.5
99018.5
105665
159468
246041
28929
1469.41
9544.34
733.863
12887.1
199.524
1075.95
2550.84
7.78989
252.132
4.60716
2.56691
52.6617
37.5305
0.670704
1.1117
0.424711
1.14862
0.0782407
5.91387
0.107292
0.205877
0.00266572
0.00570798
0.00442829
0.0142409
0.00272842
0.0080428
0.0049689
0.0186468
0.0652251
1.5026
0.131733
0.07972
0.0165962
0.265474
0.0352268
0.24402
2.77556
0.844239
0.14955
0.0609101
0.515043
6194.89
112742
28088.6
124469
14783
73476.5
13774.9
426.495
2257.18
72.8063
61.4731
1108.55
956.224
27.4489
50851.3
165653
71612.8
191900
63452.6
194016
63602.6
2894.81
3689.61
436.722
114.804
5495.58
1720.6
206.898
4643.2
10498.5
695.575
545.482
7902.24
6563.58
361.168
708.282
46.0657
0.0754319
293.928
0.323563
0.0285566
13.5741
0.00419048
0.0023206
0.0973794
0.0018805
6.28701e-05
139293
51.5304
0.00555826
351.862
0.0223313
315.889
425.926
216.394
77.9281
39.0991
23494.8
101.407
741.721
13602.8
1.49181
576.886
0.307789
463.555
0.529959
43.3125
143.678
0.0601698
1.32297
5.45032
7.23682
0.0436963
0.155132
1183.97
35501.8
280.88
3217.3
4079.36
545.421
649.474
3765.1
497.17
3491.77
863.891
1989.74
191.868
177.465
1440.3
1341.43
106.576
19.4363
148.025
6.48377
3.94669
66.8234
46.1448
1.8707
0.15633
1.14174
0.0435755
0.0480692
0.480962
0.410996
0.0201497
65231.2
126648
75258.9
183532
68879.7
167033
70723.6
39.4501
0.264244
0.177991
2.06859
1.60651
0.115713
0.0922649
2728.61
550.964
2648.38
299.764
3264.18
409.258
2099.96
443.387
91.5357
381.949
19.7558
785.274
50.2832
189.401
3478.88
30045.5
3247.23
11604.8
5610.84
21784.4
1636.31
191.619
1480.49
4765.82
5495.89
620.069
512.651
1544.61
5.47313
1.08589
3.64963
0.15297
12.773
0.490309
1.50528
53.1618
1613.05
42.4156
123.481
147.602
435.098
14.9238
1.44865
13.4477
39.2197
49.0518
4.64209
4.515
12.7542
0.132202
0.32288
5.59564
1.10157
0.435754
0.0848129
1.17281
0.531924
16.9248
4.61056
1.66859
1.72166
4.04447
0.993649
7418.29
12400.2
1136.22
674.89
11471.9
7896.97
657.977
660781
281001
303905
554039
242076
345155
408769
730150
341432
339719
702308
341272
438948
447253
281196
496894
252215
297953
606533
316262
394702
194798
254018
253086
147354
178997
179046
147407
4.71112
1026.83
778.993
377.104
1.94681
179.148
1.46187
0.186367
0.118702
1.31239
58.7687
0.726008
26.7548
0.486191
193794
251861
250669
147988
184997
148966
186585
129.595
0.736756
255.352
105.265
1.43536
8.83282
0.401215
0.6668
0.0168666
0.179535
13.9232
0.250395
1.21836
0.0843427
52806.6
243476
208410
30744.6
184238
76471.9
152334
1.41649
0.0545987
0.852739
2.82909
0.123827
0.322328
0.0192919
0.00627301
0.00350865
0.0424759
0.243003
0.016536
0.0313561
0.00216428
26.0893
211.911
3201.07
32.0303
3146.84
217.018
467.382
0.000600292
0.00489165
0.0930675
0.0382322
0.00174475
0.00188515
0.000103813
2.49389e-05
3.96056e-05
0.000565931
0.00247607
0.000154776
0.000313743
1.41493e-05
33956.5
399.023
2751.2
1735.76
89772.9
8315.73
23188.7
28.609
0.935016
7.14547
1.77609
13.8186
0.839372
0.42772
0.907279
3634.57
50.0225
95575.6
2292.11
584.811
1.50278
23679
149.388
8719.74
144476
4641.95
1257.37
2.48665
0.0122708
0.789154
0.129702
204.125
0.494665
0.505198
0.0350197
1.9483
20.566
0.193043
420.551
1.06992
1.06502
0.118434
252732
194791
252603
147786
182994
180603
148487
172889
249200
247318
138438
188613
187943
116704
1666.02
113559
24763.5
7483.39
19888.6
82073.3
1399.95
7.88479
51.7609
3.42783
5.12935
13.4463
75.5705
0.88307
2.39287
15.8931
212.648
125.239
43.4596
617.462
8.64092
95430.6
235846
234198
344817
22463.8
342294
12958
3281.13
231622
222400
334984
3182.57
263626
329.876
1.26425
124633
7207.28
57253.9
14.8004
932.439
0.627502
0.679779
0.25419
165.498
6.77714
0.158859
0.269739
0.0193866
0.353166
89.3244
5.84916
6.64674
0.40413
0.587052
0.0488006
0.00122225
0.0108294
0.200269
0.03261
0.00227634
0.00348197
0.00036279
170251
277148
270879
400393
149106
268728
164401
0.0977334
1.17123
2.85434
0.18142
0.578005
0.0422771
0.0298659
4.23749
0.486769
3.79216
0.247439
1.68915
0.107394
0.218211
2.70249
5.26243
74.9735
49.7847
3.30852
25.4757
1.63347
0.964643
0.645598
29.4924
117.648
3.14997
77.8748
2.54636
7.41435
0.10103
1.00436
26.7592
1.21557
5.46471
0.402047
0.0528201
0.026106
0.291166
1.23113
0.14171
0.490976
0.0304037
7.51662e-05
0.00042883
0.00532575
0.0691369
0.00340257
0.00789998
0.000364728
3.52389
6.68541
92.6532
92.1154
6.87006
52.0799
3.67019
2.74901
3.52767
0.290877
68.8952
3.07566
20.578
5.22037
38.6055
2.78806
1.63037
0.0266737
1.57477e+06
1.31025e+06
639339
563929
470303
258294
2.83338e+06
506102
1.44798e+06
2.72871e+06
503069
1.4595e+06
1.51322e+06
2.30466e+06
322339
1.44924e+06
1.63827e+06
352790
1.15102e+06
715462
800048
348604
990057
737096
222524
638077
609975
678169
703583
131637
591246
120006
503201
654341
549448
8489.28
323550
328743
336275
343697
360430
391924
357670
360609
376687
212235
365378
339942
105725
97216.2
189942
141328
2.90367e+06
1.82817e+06
1.82178e+06
2.57874e+06
1.77872e+06
1.76493e+06
2.64167e+06
500281
299494
298582
637962
856756
840251
647172
2.82648e+06
1.85141e+06
1.83883e+06
2.56172e+06
1.81866e+06
1.801e+06
2.53257e+06
305151
311949
510167
640409
834648
834885
648183
2.54466e+06
1.54666e+06
1.73631e+06
2.22334e+06
1.76596e+06
2.40726e+06
1.6318e+06
338670
510199
495208
605394
819934
638694
784019
1.99159e+06
1.06171e+06
1.29963e+06
1.98221e+06
1.19657e+06
1.42738e+06
1.68631e+06
361297
465569
426377
550531
653935
729334
479882
1.1984e+06
1.35582e+06
886941
1.18196e+06
989545
1.39102e+06
849869
302647
378948
358503
333435
563571
401865
474988
757754
1.04415e+06
1.10262e+06
1.05645e+06
737546
776715
977438
141962
356745
317595
286484
382498
404808
258816
722636
941842
996370
871486
714756
921239
693238
124891
238381
208595
228611
327688
241554
305860
122636
196839
193321
216983
273350
287046
208396
323107
320437
327021
335979
347853
338730
375809
347375
347157
399546
336298
338678
313851
343202
346935
116678
331970
275544
98738.4
191797
164261
105846
154362
157975
391205
408206
343217
1.87039e+06
1.61828e+06
1.44168e+06
1.42699e+06
1.59694e+06
1.41364e+06
1.90778e+06
1.87226e+06
1.43951e+06
1.64038e+06
1.41818e+06
1.61894e+06
1.40871e+06
1.88135e+06
1.70041e+06
1.61616e+06
1.38495e+06
1.39254e+06
1.81781e+06
1.52948e+06
1.30938e+06
1.53477e+06
1.28857e+06
1.1985e+06
1.05603e+06
1.38485e+06
1.20124e+06
1.31979e+06
914464
1.00594e+06
895528
836801
1.093e+06
845714
752636
802467
715972
681694
578296
740008
646483
734114
651089
646803
536010
560053
688424
620217
505281
612272
533614
557303
444784
593231
476765
912.28
25863.6
0.000344547
3.708e-05
1.92297e-05
0.00038969
1.42943e-05
0.000476389
2.06039e-05
0.000151642
0.00480937
0.000144755
0.00131903
4.12219e-05
0.00128195
5.52397e-05
0.000148578
0.000896466
0.00907592
0.00231168
0.0262813
0.00169694
0.000155126
0.00615445
0.168036
0.0109299
0.000883442
0.0901734
0.00444777
0.000384789
0.000238408
0.00849494
0.000278905
0.0064132
0.000369994
0.00433304
0.00032409
0.0196434
0.253957
0.0163265
0.00146504
0.206483
0.0136009
0.00234151
2.21957e-06
2.84366e-06
1.08899e-05
0.000366102
0.00199667
2.80676e-05
0.000168378
0.000249877
0.00105441
5.12184e-05
9.28752e-05
0.00325168
0.00111262
0.000130944
3.22261e-05
0.00137732
0.000231232
4.59502e-05
7.68613e-06
0.000127326
1.342e-05
3.15676e-06
4.27404e-07
3.54828e-06
3.39642e-07
9.82254e-08
1.1918e-08
8.5638e-08
5.80912e-08
2.61934e-09
1.13505e-09
0.00511145
0.000141025
0.00103428
3.15862e-05
6.94035e-05
1.92481e-06
2.1485e-06
6.4756e-08
2.51341e-07
5.55883e-09
8.36744e-06
1.88942e-07
3.97267e-09
6.8481e-05
2.02433e-06
5.54428e-08
1.38243e-09
6.90372e-07
3.61599e-06
1.67493e-08
7.59755e-08
3.34694e-10
1.44064e-09
7.47234e-06
3.28761e-05
2.19894e-07
9.30624e-07
6.24277e-09
2.51166e-08
1.01863e-10
5.67525e-10
3.36282e-06
2502.05
272808
35425.3
638728
502591
462867
203258
457670
303350
362485
241911
345018
191015
176893
249988
262929
317544
297236
247284
677571
799829
878766
814608
626575
666667
743522
407888
439868
414803
357976
265509
153.559
27308.9
286259
132959
272138
3997.45
563549
540117
558254
422208
405663
531015
530036
455226
247276
225601
243816
294012
288928
278944
285228
378635
494593
394613
413008
450819
436866
351877
179727
176551
130383
228798
190828
219312
204286
466.289
380352
297219
769450
1.91344e+06
1.77825e+06
1.32718e+06
791341
756372
724865
708016
705440
1.87818e+06
1.79046e+06
1.76089e+06
1.67189e+06
1.59592e+06
1.50685e+06
1.24272e+06
983504
1.05779e+06
804861
827626
887455
724117
750121
760169
730907
771642
673034
674024
696257
653298
736817
719323
752543
662248
629319
648348
1.85675e+06
1.90532e+06
1.86883e+06
1.68869e+06
1.66434e+06
1.68899e+06
1.7068e+06
1.31372e+06
1.08176e+06
1.06531e+06
1.07766e+06
1.33102e+06
1.31001e+06
1.31489e+06
1.71403e+06
1.76673e+06
1.58838e+06
1.60051e+06
1.4845e+06
1.50403e+06
1.62608e+06
1.66697e+06
1.74163e+06
1.78234e+06
1.63753e+06
1.60902e+06
1.56795e+06
1.53548e+06
876414
747191
869156
889486
865734
748504
805636
14495.6
2002.06
2027.59
155284
62102
73010.7
13567.1
124902
79699.6
69885.7
0.028197
0.0103158
0.00223726
0.000250034
397438
313037
315872
395046
401869
323041
318654
408097
429985
329534
417720
337537
443568
350484
344797
440913
291416
354703
391181
341272
176951
226536
296985
125014
103528
171690
113152
144995
101145
129656
132349
105738
8.16304e-06
0.00165852
6.68899e-05
0.000651138
2.23772e-05
7.28801e-05
2.23402e-06
6.80449e-06
1.69413e-07
2.37531e-07
6.41739e-09
1.45529e-06
3.75294e-08
8.44011e-10
1.07626e-07
3.14321e-09
0
152609
168419
168112
0.065886
0.00915976
0.0146145
0.00225534
0.00447591
0.000436651
0.0011
4.42817e-05
0.000301588
1.01053e-05
9.211e-05
3.30554e-06
1.54039e-05
4.95216e-07
1.41544e-06
4.092e-08
1.49294e+06
1.5759e+06
1.43753e+06
1.54801e+06
1.48022e+06
1.44198e+06
1.38289e+06
1.03978e+06
1.25244e+06
1.07749e+06
1.02272e+06
1.2891e+06
1.24999e+06
1.06035e+06
752229
735932
659280
687435
691697
666945
754908
765335
737786
869178
738830
831950
860866
720160
1.54656e+06
1.5235e+06
1.38791e+06
1.39507e+06
1.37344e+06
1.52908e+06
1.54495e+06
1.63467e+06
1.59547e+06
1.54922e+06
1.49162e+06
1.45733e+06
1.44243e+06
1.42581e+06
1.5005e+06
1.42805e+06
1.39013e+06
1.41121e+06
1.33266e+06
1.42044e+06
1.4196e+06
705477
642487
674049
672373
694325
652023
617246
1.35678e+06
1.39767e+06
1.29106e+06
1.34195e+06
1.27078e+06
1.39742e+06
1.48749e+06
1.51153e+06
1.48199e+06
1.36199e+06
1.45224e+06
1.41671e+06
1.34742e+06
1.30757e+06
1.23102e+06
1.01693e+06
1.11969e+06
1.22647e+06
1.0622e+06
1.37387e+06
1.24189e+06
1.0757e+06
1.27135e+06
1.19927e+06
1.07134e+06
1.17382e+06
1.03971e+06
1.26209e+06
819143
744395
917780
869980
707892
1.06323e+06
890741
894499
875193
718736
902619
740221
868192
709950
1.33438e+06
1.38242e+06
1.36764e+06
1.27728e+06
1.31333e+06
1.23598e+06
1.28242e+06
1.34303e+06
1.35405e+06
1.37798e+06
1.36133e+06
1.33459e+06
1.29001e+06
1.25461e+06
727800
641811
631999
724983
646243
655688
744645
1.25625e+06
1.19459e+06
1.21838e+06
1.07924e+06
1.06973e+06
1.16965e+06
1.07737e+06
901550
898334
731521
766471
924358
916600
754998
665105
620776
655169
629768
589747
740979
636701
645717
639825
600760
561123
622151
601924
547578
1.27797e+06
1.22647e+06
1.38663e+06
1.3505e+06
1.42705e+06
1.38537e+06
1.24451e+06
613224
693974
627210
644487
659839
599679
585832
331775
346227
345915
50256.9
388682
388515
337247
388962
348321
350886
297776
131614
256374
84003.8
479886
521846
356762
388705
517759
357629
482328
478152
388148
510354
358905
514172
357466
477984
485081
508122
361538
388866
479599
490646
364842
486775
380920
331647
369452
430851
367771
435650
221047
234239
350270
238100
330166
175129
304089
164632
182048
102421
189828
137818
242877
140453
86322.2
65266.3
145947
46169
114523
36523.4
110384
12142.8
3789.25
66740.4
22518.3
15083
65032
19584.1
83423.4
59437.1
371771
5708.26
20.6673
0.0275033
0.000222184
1.21425e-05
5.13028e-07
332299
319643
214118
2476.91
61.4397
196259
328616
194947
189133
308127
105178
42397.8
42575.8
368.423
90.5382
222.823
11.1488
1.98761
19.7081
78.6423
219278
184937
216747
174847
201006
57756.1
170569
7500.05
6420.13
376.623
12149.1
2.93718
512.866
2.17465
34.1573
1.1801
0.33557
0.720101
2.93119
0.80714
0.989876
0.0074015
0.000300727
1.1406e-05
3.92058e-07
1.16124e-08
0.756501
0.00737624
0.000252116
0.0117944
0.000424592
1.21556e-05
0.00118953
4.2568e-05
1.35963e-06
0.0238184
0.00109646
3.07255e-05
21.7992
0.00541612
0.000207734
0.00226307
0.000100734
3.82755e-06
1.35056e-07
4.55475e-09
5.82077e-11
7.90045e-05
4.01372e-06
1.75918e-07
6.97037e-09
1.60071e-10
0
2.55831e-06
1.46101e-07
6.99947e-09
2.32831e-10
0
0
0.000296346
0.00116808
1.24842e-05
4.90286e-05
4.88493e-07
1.8173e-06
1.79134e-08
6.43486e-08
5.38421e-10
2.12458e-09
0
0
1.11338e-05
3.92683e-05
5.55287e-07
1.95936e-06
2.42435e-08
8.57253e-08
9.31323e-10
3.40515e-09
0
4.36557e-11
0
0
3.94735e-07
1.29525e-06
2.1173e-08
7.29488e-08
9.31323e-10
3.40515e-09
0
8.73115e-11
0
0
0
0
8.4544e-05
3.98538e-06
1.58572e-07
2.98495e-06
1.51369e-07
6.49015e-09
9.70031e-08
5.18048e-09
1.60071e-10
1.20572
0.00382543
0.0120635
0.00291128
0.000148749
0.000518321
0.000117708
5.42356e-06
1.56175e-05
0.128389
0.00120141
4.9447e-05
830.898
0.0122565
0.000833599
1680.72
0.0799249
0.00117143
5.61704e-09
1.16415e-10
0
1.89175e-10
0
0
0
0
0
0.020925
0.000941813
2.74054e-05
16.6854
0.00541798
0.000198032
0.00183538
7.92872e-05
3.16132e-06
1.18394e-07
4.10364e-09
4.36557e-11
6.16563e-05
3.28594e-06
1.51878e-07