/*--------------------------------*- C++ -*----------------------------------*\
  =========                 |
  \\      /  F ield         | OpenFOAM: The Open Source CFD Toolbox
   \\    /   O peration     | Website:  https://openfoam.org
    \\  /    A nd           | Version:  9
     \\/     M anipulation  |
\*---------------------------------------------------------------------------*/
FoamFile
{
    format      ascii;
    class       volScalarField;
    location    "0.0023";
    object      rho;
}
// * * * * * * * * * * * * * * * * * * * * * * * * * * * * * * * * * * * * * //

dimensions      [1 -3 0 0 0 0 0];

internalField   nonuniform List<scalar> 
19029
(
0.885956
0.950773
0.881116
0.762082
0.743294
1.16956
1.13502
1.069
1.20139
2.21249
1.4328
1.22725
1.12451
1.58544
0.999729
1.29864
1.71793
1.77247
1.75202
1.93555
1.71198
1.99124
2.04986
2.06483
2.12852
1.64893
1.28364
1.45347
0.926996
1.27392
1.15381
1.65439
1.02699
1.41336
1.43701
1.88309
1.2639
1.81007
1.14578
1.49481
1.46188
1.85579
1.36879
1.80253
1.51351
1.75923
1.44303
1.3335
1.82034
1.60761
1.46608
1.66159
1.4801
1.21333
1.20098
1.58898
1.40599
1.71142
1.16525
1.62256
1.383
1.33128
1.80514
1.73326
1.68636
1.71897
1.48847
1.43131
1.65614
2.47947
2.16765
1.54844
1.69292
1.88639
2.15567
1.51877
1.6708
2.00489
0.567372
0.183879
0.774946
0.26322
1.3632
0.584398
1.9029
1.6116
1.9771
2.50041
0.179509
0.442405
0.617261
0.210981
0.542232
0.544827
0.226909
0.582488
0.242337
0.673022
1.03588
0.417015
1.1453
0.733092
0.466626
1.05344
0.51335
1.75755
1.78693
1.09523
2.54072
2.13307
1.34415
2.54738
1.73133
1.36744
1.37063
2.29996
1.42648
1.93117
1.68487
1.97454
1.89224
1.3466
0.411571
0.288983
0.291496
0.190313
0.297639
0.299263
0.40056
0.659635
0.401467
0.402128
0.314795
0.552968
0.480248
0.476798
1.67973
0.887372
0.957675
0.763347
1.28938
1.14341
1.28051
2.0714
2.10647
2.03433
1.7929
2.28721
2.18114
1.93812
1.84065
1.97849
2.19757
2.33232
2.38332
2.3785
1.29061
2.47094
2.2608
0.424809
0.455788
0.257282
0.184005
0.462101
0.264114
0.418162
0.43837
0.192761
0.505962
0.305269
0.477234
0.277287
0.466259
0.432613
0.201543
0.347855
0.350282
0.313371
0.314731
0.479911
0.58992
0.557249
0.351395
0.287365
0.514048
0.635747
0.418296
0.692768
0.345343
0.857621
0.619733
0.73828
0.506997
0.8189
0.806218
0.382041
0.712995
0.732448
0.583581
0.581981
1.00465
1.17108
0.995698
0.767517
0.650823
0.973525
1.17005
0.963705
1.41488
0.844815
1.65299
1.55175
1.39586
1.22674
1.68063
2.06133
1.02927
1.86079
1.93875
1.50002
1.64169
2.30166
2.54553
1.99649
2.22745
1.6286
2.57477
1.8817
2.21623
3.21488
2.54074
2.97326
2.76734
2.33275
1.47257
1.44242
1.98655
1.65317
2.09578
2.10414
3.18778
2.85569
2.82877
3.08457
2.07396
1.88706
1.87058
1.61196
1.92036
2.06406
2.06456
2.18518
1.77556
2.33856
2.21734
2.18771
2.14506
2.31826
1.77213
1.87465
2.01623
1.55048
2.14215
1.75375
1.48733
2.39122
1.91907
2.2583
2.42032
2.2428
2.30218
2.32251
1.45599
1.2268
1.3201
2.41547
1.24786
1.31258
1.2252
2.38018
2.22242
2.35045
2.25756
2.28507
2.37736
2.08144
1.225
2.57544
1.22792
0.702486
0.750043
0.808465
1.11844
1.21016
1.20531
1.22832
0.903099
1.10161
0.942922
1.09682
1.47892
1.12981
0.980141
1.47388
1.48645
0.90898
0.849089
0.748492
0.705932
0.852194
0.750662
0.901608
0.931812
0.717562
0.905258
0.793853
0.86776
0.762466
0.978392
1.14043
0.964848
0.849447
0.897729
1.04883
1.04578
0.934059
1.23019
1.00659
1.19323
1.13566
1.13251
1.03587
1.28206
1.23121
1.20304
1.22147
1.2617
1.28357
1.16094
1.27832
1.1028
1.25928
0.854106
1.25372
1.03148
1.28704
0.94377
0.779995
0.707231
1.17158
0.998339
0.823027
0.624158
1.08975
0.830165
0.932779
0.678877
1.20104
0.616468
1.09066
0.93778
0.883212
0.873298
1.43178
1.07894
1.01616
0.761544
1.2579
0.811772
0.948612
0.726176
0.954002
0.710821
1.06457
0.783203
1.31028
0.904658
1.41975
1.31903
1.17792
1.09759
1.62237
0.816833
0.979959
1.16253
0.825201
0.979914
0.959406
1.12288
1.81318
1.73425
1.69981
2.54555
1.70414
1.90473
1.93011
1.38756
1.22752
1.65024
1.22555
1.83049
1.22501
1.23674
1.225
1.98839
1.22519
1.225
1.225
0.937617
1.24433
1.11361
1.30421
1.304
1.29103
1.35428
1.27065
1.27551
1.62915
1.95172
2.306
1.38102
1.24327
2.10278
2.43961
1.55163
1.68967
1.33945
1.25372
1.23051
1.22702
1.88725
1.22908
1.40408
1.22672
1.76522
1.41107
1.9668
1.53762
1.82675
1.35806
1.88026
2.0816
1.27742
1.61369
1.90695
2.10856
1.33473
1.3
1.37579
1.23956
1.22545
1.26159
1.23081
1.22613
1.22502
1.22532
1.2251
1.22501
1.22549
1.22503
1.22501
1.225
1.23348
1.22734
1.22511
1.22837
1.22503
0.64564
0.547769
0.986313
0.951425
0.555108
1.00353
0.634775
0.677558
1.0041
0.645066
1.17004
0.582899
1.05669
0.748978
1.35382
1.3242
1.5662
1.3084
1.31908
1.56333
1.36199
1.34011
1.32633
1.3047
1.54653
1.31296
1.5589
1.32124
1.02294
0.739687
1.3413
1.484
0.861787
0.872468
1.56062
1.24551
1.7215
1.31903
2.04629
1.05951
1.80621
1.54686
1.2744
1.29417
1.51588
1.39967
1.29873
1.28217
1.46287
2.1975
1.6538
2.21077
2.09117
1.90161
1.96826
2.22539
2.32837
1.88216
2.03823
1.55585
2.12916
1.982
2.19527
1.48923
1.78531
1.32061
1.26628
1.82604
1.52557
1.25643
1.3206
1.24043
1.27409
1.22844
1.35473
1.2357
1.25772
1.57586
1.86515
1.51182
2.01878
1.60443
2.10747
1.4424
1.26727
1.26468
1.23196
1.22715
1.28996
1.24837
1.22902
1.46032
1.74686
1.40198
1.47751
1.75624
1.84133
1.82986
1.77289
1.81909
1.76497
1.91274
1.79762
1.976
1.96748
2.02916
1.36397
1.59367
1.69909
1.26928
1.28118
1.4362
1.23494
1.22613
1.22914
1.22819
1.22539
1.2253
1.22594
1.80679
1.44069
1.81736
1.32115
1.31505
1.25036
1.46114
1.22501
1.225
1.225
1.22501
1.225
1.225
1.225
1.22743
1.22502
1.22502
1.225
1.44875
1.63805
1.80756
1.53269
1.77877
1.87393
1.92532
1.85941
2.10243
1.54488
2.03291
1.71642
1.91917
1.71915
1.35155
1.26041
1.2286
1.3686
1.23749
1.23882
1.22837
1.22647
1.22532
1.22505
1.22604
1.22513
1.22509
1.22503
1.24943
1.22594
1.22577
1.23493
1.23369
1.2275
1.22523
1.24746
1.22503
1.22502
1.22664
1.23896
1.22502
1.22501
1.22902
1.22502
1.22501
1.2251
1.22504
1.22501
1.225
1.22501
1.225
1.225
1.22501
1.225
1.225
1.225
1.225
1.225
1.225
1.225
1.225
1.225
1.225
1.225
1.225
1.225
1.225
1.22501
1.26947
1.23621
1.92714
1.22508
1.32408
2.2546
1.23163
1.22578
1.24755
1.22519
1.57502
2.51397
1.67551
2.13367
2.25885
1.98553
1.23025
1.22505
1.225
1.22501
1.226
1.22502
1.6317
1.7997
1.22554
2.25401
1.49368
1.66917
1.22518
1.29543
1.38966
1.22508
1.65205
1.23245
1.24709
1.22501
1.22536
1.22511
1.22501
1.22606
1.22501
1.22501
1.225
1.225
1.225
1.225
1.22501
1.225
1.225
1.225
1.225
1.22563
1.22507
1.22501
1.225
1.22501
1.225
1.225
1.225
1.225
1.225
1.225
1.225
1.225
1.225
1.225
1.225
1.225
1.225
1.225
1.225
1.225
1.225
1.225
1.225
1.225
1.22501
1.22501
1.225
1.225
1.225
1.225
1.225
1.225
1.225
1.225
0.811884
0.636798
0.676752
0.665376
0.683109
0.749333
0.785118
0.78801
0.732507
1.225
1.225
1.225
1.225
1.225
1.225
1.225
1.225
1.225
1.225
1.225
1.225
1.225
1.225
1.225
1.225
1.16984
1.22518
1.22512
1.25157
2.34543
1.22555
1.74115
1.22842
1.22501
1.22501
1.225
0.603386
0.632303
1.04496
1.48884
2.31114
2.9942
1.42276
1.23423
1.2255
1.22501
1.56628
2.47964
1.20062
1.52552
1.84536
1.6056
1.93304
2.25692
2.07594
1.01985
1.29545
0.945611
1.4868
1.47251
1.74314
1.12399
0.966359
0.973451
1.08109
0.990145
1.10356
1.10489
1.11875
0.972859
0.986551
1.1014
1.31212
1.26378
1.52185
1.51869
1.29086
1.28833
1.54944
1.30562
1.51186
1.28251
1.54231
2.20903
1.79034
1.79753
2.0427
1.83941
2.1043
2.15005
2.23309
1.79795
1.83935
2.17283
0.739133
0.909662
1.67165
2.53445
1.59349
0.620058
0.822656
0.683639
0.752073
1.42947
1.16016
1.34037
2.50474
1.76918
1.91226
0.740074
0.694817
0.776362
0.748463
0.70479
0.787965
0.729699
1.00549
0.860445
0.939129
1.04113
0.885253
0.985509
1.06555
1.92005
1.57838
1.72183
1.95354
1.61743
1.83949
2.05175
2.96877
2.2898
3.33396
2.47194
2.977
2.19528
3.38177
2.55407
2.52412
0.678393
0.647426
0.60796
0.627681
0.657043
0.618091
0.667681
0.741341
0.779941
0.79338
0.728911
0.672295
0.595925
0.606377
0.661181
0.761607
0.771373
0.776991
0.858359
0.727345
0.810927
0.807447
0.698844
0.644326
0.724385
0.677023
0.677895
0.636523
0.742808
0.763338
0.863422
0.816835
0.808043
0.6928
0.661929
0.624582
0.734068
0.93201
0.802058
0.746215
0.857025
0.818027
0.918524
0.851025
0.996568
0.93983
0.881469
1.06207
0.909669
0.725909
0.803444
0.823252
1.17113
1.21712
1.35184
1.45921
1.15228
1.24079
1.3751
1.08576
0.997147
1.25347
1.15365
1.07277
0.990193
1.2705
1.1573
1.4512
1.23379
1.35881
1.05579
1.11251
0.955091
1.23495
1.749
1.45687
1.3391
1.54165
1.48502
1.69081
1.56337
1.92205
1.72063
1.6057
2.06965
1.72461
1.29648
1.45047
1.5267
2.31174
2.2753
2.28864
2.99821
2.12304
2.48033
2.746
2.08758
1.71847
2.02199
2.11292
1.92321
1.84821
2.42304
2.34762
3.16873
2.5437
2.88935
2.09242
2.19419
1.82983
2.54946
3.71086
3.82112
3.40547
4.23953
2.72012
2.25788
1.64233
2.72809
1.94981
3.15919
2.36858
3.6538
3.9266
4.20945
3.44161
2.44019
2.83898
2.11484
1.97346
2.57191
2.30794
2.38527
0.711509
0.71448
0.779824
0.867027
0.834109
0.705445
0.740477
0.964814
1.23402
1.40325
1.7234
1.64708
1.04963
0.666318
0.772409
0.655376
0.702174
0.715735
0.785228
1.15882
1.28739
1.34705
0.660015
0.780172
0.79008
0.648937
0.682708
0.873496
0.816936
0.730768
0.876005
0.942674
0.793946
1.02514
0.962796
1.10597
0.978085
0.667085
0.712894
0.643865
0.662199
0.718425
0.652376
0.657452
0.686499
0.677058
0.77182
0.71479
0.734086
0.671133
0.730037
0.895968
0.831063
0.788713
0.888449
0.797875
0.917392
0.90083
1.01508
1.01911
1.11345
1.20496
1.02104
1.04583
1.12602
1.2458
1.16975
1.3625
1.38227
1.20516
1.17871
1.49482
1.23721
1.40207
1.01592
1.53261
1.1294
1.55588
1.15905
1.22518
1.225
1.225
1.225
1.225
1.22545
1.22506
1.22505
1.22501
1.225
1.225
1.225
1.225
1.225
1.225
1.225
1.225
1.225
0.557934
0.792874
0.322999
1.75444
1.27395
1.22506
1.22502
1.225
1.225
0.690593
0.955688
0.438055
2.02885
1.25215
1.22502
1.225
1.225
1.225
1.58844
1.78879
0.932758
1.98313
1.22847
1.225
1.225
1.225
1.225
2.76512
2.9555
2.86141
1.22819
1.22501
1.225
1.225
1.225
1.225
1.59149
2.21524
1.26184
2.11341
1.225
1.22514
1.225
1.225
1.22517
2.50887
1.225
1.22716
1.225
1.225
0.837193
0.746963
0.862505
0.792319
0.768018
0.302593
0.589808
0.842891
0.317916
0.771503
0.870963
0.856896
0.771357
0.3529
0.833721
1.35627
1.80384
1.24957
1.82543
1.34308
1.7474
1.23753
1.2261
1.22871
1.22527
1.26051
1.22559
1.22684
1.22506
0.968907
1.23759
0.922567
0.366353
0.916132
1.47014
0.47993
1.50955
1.04144
0.597382
1.46504
1.33064
1.53686
1.23278
2.19319
1.27856
1.25489
1.22576
1.22537
1.2261
1.22504
1.23243
1.22504
1.2251
1.22501
1.49822
1.60348
1.4576
1.74629
1.08807
2.39098
2.71459
1.71636
2.82364
2.68536
2.13162
1.80599
2.5247
1.25654
1.22708
1.22525
1.3044
1.22587
1.22506
1.225
1.22501
1.22503
1.225
1.22506
1.225
1.225
1.225
1.28232
1.33652
1.30998
1.17913
2.83094
2.70941
2.38333
2.12114
2.78178
2.75234
2.35569
2.19552
1.65787
2.04906
1.22593
1.22514
1.225
1.22501
1.22501
1.225
1.225
1.225
1.225
1.225
1.225
1.22501
1.22504
1.225
1.225
2.00583
1.22527
1.22625
1.22552
1.24489
1.225
1.22501
2.00954
1.22718
1.23301
1.26375
1.43143
1.22502
1.22674
0.873013
1.93388
1.14211
1.58809
2.47219
1.22556
1.50838
1.225
1.22509
1.225
0.506381
0.529099
0.477685
1.25643
0.845473
0.934672
0.519354
1.31783
0.910554
0.635479
1.06473
0.641748
2.24749
1.13822
1.61368
0.897813
2.35358
1.5943
1.69608
2.7677
1.80299
2.49923
2.26757
2.92724
2.9702
1.89581
2.55717
3.09166
1.83204
2.49312
1.22571
1.43871
1.22786
1.26483
1.22501
1.22524
0.834692
0.80187
0.81094
0.801324
0.810289
0.821505
0.823101
0.332763
0.239789
0.24692
0.214389
0.141418
0.14527
0.208806
1.23082
1.23326
1.26802
1.27094
1.23266
1.26503
1.2313
1.11782
0.969308
0.967641
1.08952
0.9858
1.10604
1.09396
0.331479
0.505091
0.387123
0.330104
0.195524
0.286162
0.228536
1.22662
1.22894
1.24593
1.24437
1.22763
1.22762
1.23893
2.21731
1.80549
1.79007
2.11491
1.83742
2.1299
2.16443
1.26718
0.72557
0.963382
0.864666
0.440652
0.617488
0.60479
1.22504
1.2253
1.22657
1.22622
1.22514
1.22509
1.22547
4.24505
2.98908
3.94801
2.95282
3.99402
2.99383
4.20766
2.57771
2.55888
2.77319
2.32634
1.89568
2.31898
2.31547
1.225
1.225
1.225
1.225
1.225
1.225
1.225
1.23042
2.15706
1.54832
2.17548
2.74358
2.79984
1.42048
1.80726
2.86854
2.79379
2.85698
2.36871
1.57847
2.57824
1.46559
2.13706
1.47782
2.15903
1.54896
2.28071
1.38467
1.225
1.225
1.225
1.22507
1.225
1.225
1.225
1.22534
1.225
1.225
1.225
1.22501
1.225
1.225
0.742534
0.738671
0.779665
0.77688
0.747533
0.790112
0.732553
0.307628
0.448876
0.456548
0.544548
0.236706
0.239832
0.538047
0.713068
0.759412
0.76835
0.703609
0.765228
0.798833
0.813353
0.858525
0.769817
0.813415
0.808305
0.47392
0.336495
0.506377
0.55737
0.260556
0.246621
0.585215
0.734851
0.830769
0.789345
0.775732
0.835445
0.794454
0.807284
0.780863
0.803133
0.818776
0.823566
0.824537
0.793079
0.804136
0.811738
0.833142
0.806976
0.820985
0.819484
0.8579
0.823556
0.882404
0.889374
0.832768
0.844205
0.904774
0.858787
0.804707
0.878121
0.890652
0.826756
0.842045
0.907207
0.849429
0.873248
0.828227
0.895816
0.858372
0.894132
0.84606
0.90645
0.790017
0.50051
0.514226
0.392622
0.676813
0.691812
0.380306
0.262723
0.388503
0.290925
0.228041
0.171193
0.154393
0.25265
0.543577
0.915984
0.595171
0.41662
0.809741
0.733226
0.459744
1.63259
1.24639
1.43586
1.35141
1.25223
1.42584
1.63049
1.64235
1.34816
1.30808
1.38598
1.2731
1.40966
1.65271
1.22578
1.22622
1.22574
1.226
1.22612
1.22567
1.22585
1.22994
1.26677
1.23038
1.25329
1.23167
1.25995
1.22881
1.22564
1.22582
1.22572
1.22538
1.22594
1.22554
1.22547
0.991469
0.891761
0.933379
1.05091
0.879987
1.01809
1.04998
0.557511
0.412142
0.633892
0.707049
0.282113
0.633014
0.311818
0.946832
0.899234
0.843243
1.00774
1.14807
1.23527
1.41659
1.43061
1.1958
1.21624
1.34721
0.743933
0.893866
0.573457
0.808271
0.412275
0.353989
0.940766
1.08833
1.36024
1.16059
1.27031
1.10481
0.947421
0.974309
1.0687
1.30494
1.27531
1.52929
1.50315
1.29458
1.27357
1.54274
1.29063
1.46709
1.24137
1.52857
0.668458
1.22047
0.77065
0.598264
0.925619
0.517946
1.09337
0.463834
0.729302
0.57104
0.389996
0.339805
0.27414
0.477368
1.77618
0.914724
1.12625
0.713715
1.62978
1.32682
0.888041
1.61616
1.35361
1.35556
1.31481
1.64848
1.39696
1.32263
1.55247
1.29807
1.44434
1.26033
1.42876
1.28866
1.4569
1.22517
1.22548
1.22523
1.22521
1.22531
1.22529
1.22512
1.22586
1.23788
1.22576
1.22899
1.22654
1.2331
1.22538
1.22509
1.2251
1.22507
1.22502
1.22515
1.22506
1.22503
1.92918
1.67218
1.70047
2.06023
1.59795
1.95833
2.05634
1.34905
0.709556
0.920398
1.37133
0.494703
1.12054
0.6297
1.83081
1.6249
1.50548
1.99862
2.3749
2.40696
2.55791
3.1615
2.27842
2.53945
2.9388
2.2039
1.2507
1.75115
1.73561
1.24585
0.863552
2.2751
2.29878
3.33787
2.54377
2.98774
2.23676
1.76041
1.83071
2.16346
2.7222
2.48633
2.86034
3.32593
2.51409
2.67048
3.37589
2.69833
2.39507
2.80781
3.19819
2.47683
2.61304
3.32334
2.80766
3.56204
2.74113
3.61163
2.78195
3.39237
2.68932
3.54431
2.42805
1.45476
1.92261
1.56816
1.97881
1.16
2.26489
1.34445
1.94473
2.41665
1.28981
1.32629
0.877009
1.85051
2.2129
2.41797
2.67641
2.06587
2.06375
2.33431
2.38954
1.27378
1.42767
1.24075
1.23889
1.35234
1.35454
1.23029
1.23834
1.22916
1.23643
1.22526
1.27548
1.22633
1.22773
1.225
1.22502
1.22501
1.225
1.22501
1.22501
1.225
1.22501
1.22531
1.225
1.22502
1.22502
1.22511
1.225
1.225
1.225
1.225
1.225
1.225
1.225
1.225
3.58058
2.64455
3.71502
2.79793
3.40294
2.5581
3.94212
3.08116
2.92732
2.39643
3.4405
1.7913
2.91493
2.37376
4.72384
4.37743
3.89889
5.28657
3.47424
2.50228
1.91412
3.46596
2.22993
3.85383
3.09742
3.0834
3.21915
3.02515
3.70522
2.65606
2.67532
3.66061
5.11593
5.55822
5.68571
5.01987
4.07823
2.91189
3.65312
2.72141
3.87589
2.90532
3.77823
5.5258
4.62991
4.63978
5.58497
5.23325
4.20149
4.48172
4.78007
4.18162
2.74585
2.45595
3.77033
2.83002
4.15112
3.79291
3.98085
2.5467
2.39658
3.16708
2.75277
3.61569
3.56842
5.8743
5.89906
6.01016
5.70547
5.44732
4.55707
4.84366
5.22264
1.26666
1.5234
2.43552
1.67784
1.51847
2.24325
1.2745
2.68627
1.35406
1.82477
1.84889
2.08392
2.37539
1.41732
1.23676
1.29499
1.23095
1.31828
1.22666
1.23368
1.24494
1.22507
1.22701
1.22504
1.22502
1.22544
1.22531
1.22501
1.22501
1.225
1.22501
1.225
1.22505
1.225
1.225
1.225
1.225
1.225
1.225
1.225
1.225
1.225
1.225
1.225
1.22501
1.225
1.225
1.225
1.225
1.225
1.225
1.22502
1.22501
1.225
1.225
1.225
1.27124
1.84398
1.40356
1.9557
1.32594
1.6818
1.32164
1.22849
1.24238
1.22561
1.22552
1.2338
1.23266
1.22523
1.55989
2.08972
1.66789
2.3053
1.61797
2.32507
1.64149
1.24758
1.25299
1.22859
1.22596
1.26638
1.23857
1.22672
1.26081
1.3027
1.23069
1.2295
1.28388
1.27514
1.22799
1.23091
1.2254
1.225
1.22748
1.225
1.225
1.22512
1.225
1.225
1.225
1.225
1.225
1.93522
1.22544
1.225
1.22795
1.225
1.22772
1.22857
1.22686
1.22567
1.22533
1.38064
1.22587
1.23135
1.32226
1.22501
1.22986
1.225
1.22886
1.225
1.22537
1.22621
1.225
1.22501
1.22505
1.22506
1.225
1.225
1.23464
1.48468
1.22736
1.25131
1.25744
1.22961
1.23041
1.25479
1.2292
1.25355
1.23224
1.24095
1.22663
1.2265
1.23699
1.23592
1.22591
1.22517
1.22625
1.22506
1.22503
1.22557
1.22539
1.22502
1.225
1.22501
1.225
1.225
1.225
1.225
1.225
1.6648
1.87591
1.69458
2.2569
1.66455
2.17876
1.69087
1.22534
1.225
1.225
1.22502
1.22501
1.225
1.225
1.24738
1.2296
1.24593
1.22755
1.25071
1.22847
1.24234
1.22874
1.22578
1.22819
1.22517
1.23148
1.22543
1.22661
1.2533
1.40505
1.25032
1.3151
1.26726
1.38888
1.23851
1.22662
1.23694
1.26321
1.26768
1.23019
1.22926
1.23773
1.22505
1.22501
1.22503
1.225
1.22511
1.225
1.22501
1.22545
1.23814
1.22536
1.22605
1.22625
1.22866
1.22513
1.22501
1.22511
1.22534
1.22542
1.22504
1.22504
1.22511
1.225
1.225
1.22505
1.22501
1.225
1.225
1.22501
1.225
1.22514
1.22504
1.22501
1.22501
1.22503
1.22501
1.28224
1.31733
1.2343
1.23057
1.31163
1.28531
1.23045
4.06018
2.57084
2.81841
3.66035
2.54657
2.95314
3.22214
4.30604
2.78679
2.97507
4.16835
2.96356
3.32137
3.3843
2.61301
3.24723
2.31269
2.55594
3.73248
2.81242
3.07675
1.77189
1.21477
1.24055
1.73148
1.17978
1.1996
1.71782
1.22504
1.23356
1.23151
1.22822
1.22502
1.22653
1.22501
1.225
1.225
1.22501
1.2255
1.22501
1.22523
1.225
2.12727
1.58591
1.77681
1.97078
1.47834
1.92049
1.63823
1.2261
1.22501
1.22714
1.2259
1.22501
1.22508
1.225
1.22501
1.225
1.225
1.22512
1.225
1.22501
1.225
1.58153
2.32828
2.3097
1.4384
2.0662
1.71319
2.03893
1.22501
1.225
1.22501
1.22502
1.225
1.225
1.225
1.225
1.225
1.225
1.225
1.225
1.225
1.225
1.22522
1.22675
1.24966
1.22527
1.24951
1.2268
1.22883
1.225
1.225
1.225
1.225
1.225
1.225
1.225
1.225
1.225
1.225
1.225
1.225
1.225
1.225
1.46421
1.22831
1.24685
1.23888
1.77715
1.28681
1.39
1.22524
1.22501
1.22506
1.22502
1.22512
1.22501
1.225
1.22501
1.25406
1.22542
1.86837
1.24332
1.22985
1.22501
1.40018
1.22626
1.29248
2.16154
1.26146
1.23528
1.22502
1.225
1.22501
1.225
1.22671
1.225
1.225
1.225
1.22502
1.22518
1.225
1.22849
1.22501
1.22501
1.225
1.30708
1.91893
1.42624
1.77335
1.34948
1.25593
1.84516
2.17461
1.98578
2.18465
1.97331
1.9666
1.81298
1.9087
1.23819
1.91405
1.39724
1.28106
1.36715
1.73667
1.23619
1.22507
1.22544
1.22503
1.22504
1.22511
1.22564
1.22501
1.22502
1.22514
1.22678
1.22605
1.22537
1.23003
1.22507
1.86459
1.88136
1.95763
2.32951
1.38924
2.3941
1.3221
1.25077
2.18791
2.3371
2.60336
1.24999
2.53614
1.22772
1.22501
1.96914
1.27826
1.59474
1.22513
1.23238
1.22501
1.22501
1.225
1.22637
1.22506
1.225
1.225
1.225
1.225
1.22576
1.22505
1.22506
1.225
1.22501
1.225
1.225
1.225
1.225
1.225
1.225
1.225
1.225
2.25745
2.69672
2.6377
3.11242
2.14521
2.66233
2.22895
1.225
1.22501
1.22502
1.225
1.225
1.225
1.225
1.22504
1.225
1.22503
1.225
1.22501
1.225
1.225
1.22502
1.22505
1.22563
1.22542
1.22503
1.22522
1.22501
1.22501
1.22501
1.22525
1.22601
1.22503
1.22567
1.22502
1.22506
1.225
1.22501
1.22523
1.22501
1.22505
1.225
1.225
1.225
1.225
1.22501
1.225
1.225
1.225
1.225
1.225
1.225
1.225
1.225
1.225
1.225
1.22503
1.22506
1.22578
1.22578
1.22506
1.22544
1.22503
1.22502
1.22503
1.225
1.22558
1.22503
1.22518
1.22504
1.22533
1.22502
1.22501
1.225
0.712774
0.833031
0.842005
0.943924
1.02665
2.61461
0.680111
0.692833
0.792631
0.743574
0.729337
0.864845
0.753513
0.901211
0.93424
0.94764
1.00507
1.24244
1.47946
0.943157
0.941782
1.45079
1.68957
1.00675
1.25581
2.09623
0.863682
0.803669
1.11367
0.888201
2.00782
0.865519
1.45997
0.848985
0.95399
1.29249
0.697972
0.73578
0.651122
0.688615
1.00394
1.33467
0.924307
1.27023
1.58564
1.39918
1.85538
2.35354
1.10088
1.28727
2.14418
2.07219
0.669601
0.669206
0.679606
0.841929
0.803589
0.813774
0.827819
0.705064
0.731857
0.751245
0.726894
0.712286
0.724238
0.709318
0.702101
0.700877
0.737887
0.865693
0.870445
0.833265
0.91127
0.78394
0.842475
0.776979
0.757782
0.792516
0.748109
0.81275
0.81186
0.882722
0.799308
1.12396
0.941649
0.992204
1.06455
1.07279
0.860426
0.990883
1.03096
0.870689
0.898732
0.996375
0.978509
0.952492
0.945496
1.26171
1.27107
1.19774
1.32944
1.3824
1.16201
1.34464
1.19467
1.34748
1.16347
1.3318
1.01713
1.00553
0.936863
1.2733
1.26817
1.31965
1.21295
1.41472
1.5069
1.64895
1.36393
1.53227
1.3897
1.7016
0.96887
1.0769
1.04001
1.23158
1.13872
1.15269
1.22358
1.04575
1.73135
1.69523
1.24551
1.78401
1.80586
1.05637
1.05882
1.17339
1.12365
1.22881
1.15753
1.22991
1.18213
0.82799
1.5365
1.31776
0.778527
1.61958
0.876325
1.34572
0.982998
1.24489
1.34634
0.759666
1.168
1.16206
0.826483
0.710604
0.799774
0.816587
0.847265
0.90638
0.785711
1.15146
0.871534
1.00353
1.49709
1.17757
1.37108
1.56599
1.55668
1.71372
1.18294
1.81506
1.78325
1.15311
1.63708
1.53381
1.48013
1.6008
1.79186
1.30749
1.30347
1.71677
0.794606
0.818442
0.763019
0.801386
0.827284
0.772735
0.785365
0.815712
0.822584
0.882139
0.837295
0.845144
0.79483
0.857296
1.07095
0.958941
0.917367
1.08557
0.936372
1.09155
1.05076
1.23932
1.27026
1.42461
1.43494
1.2631
1.23078
1.39634
1.52072
1.5391
1.63926
1.88542
1.49405
1.59466
1.82389
1.47305
2.04246
1.47258
1.95903
1.5769
1.94597
1.34082
1.14424
1.35562
1.84164
1.77454
1.21089
1.27542
1.59928
1.13078
1.54448
1.27377
1.33494
1.25585
1.39172
1.23259
1.41791
1.225
1.225
1.225
1.225
1.225
1.225
1.225
1.225
1.225
1.225
1.225
1.225
1.225
1.225
1.225
1.225
1.225
1.225
1.225
1.225
1.225
1.225
1.225
1.225
1.225
1.225
1.225
1.225
1.225
1.225
1.225
1.225
1.225
1.225
1.225
1.225
1.225
1.225
1.225
1.225
1.225
1.225
1.225
1.225
1.225
1.225
1.225
1.225
1.225
1.225
1.225
1.225
1.225
1.225
1.225
1.225
1.225
1.225
1.225
1.225
1.225
1.225
1.225
1.225
1.225
1.225
1.225
1.225
1.225
1.225
1.225
1.225
1.225
1.225
1.225
1.225
1.225
1.225
1.225
1.225
1.225
1.225
1.225
1.225
1.225
1.225
1.225
1.225
1.225
1.225
1.225
1.225
1.225
1.225
1.225
1.225
1.225
1.225
1.225
1.225
1.225
1.225
1.225
1.225
1.225
1.24524
1.31946
1.48465
1.17203
1.0652
1.23673
1.38446
1.52508
2.09227
1.76809
2.5425
2.34847
0.95496
1.13245
1.52777
0.854161
1.18722
1.32102
0.945196
1.15252
1.20047
1.20023
1.23434
1.22649
1.20629
1.24508
1.37503
1.22704
1.56423
2.15331
2.63148
1.2263
1.428
2.61786
2.10453
2.71897
1.25675
1.15749
1.15202
1.09372
1.21708
1.32567
1.24257
1.1744
1.36296
1.78695
1.66232
2.06481
1.52541
1.403
1.12887
1.777
1.4847
1.33562
1.43896
1.76364
1.2549
1.52325
1.71414
1.92432
2.34152
2.06838
2.22768
2.10694
2.36645
2.40528
1.22889
1.3769
1.86488
0.780299
0.583788
0.617414
0.721901
0.825542
0.930641
0.781254
0.769924
0.694915
0.594394
0.698212
0.706141
0.731858
0.665598
0.787491
0.851416
0.917024
0.773515
0.804297
0.953289
0.802387
1.15793
1.02369
0.717139
0.866085
0.770184
1.01883
1.15719
1.04211
1.09608
0.685343
0.726056
0.688391
0.942975
0.862803
0.85246
0.657017
0.612651
0.623189
0.706558
0.718457
0.674159
0.662048
0.731826
0.895613
0.751696
0.880945
0.712216
0.821133
0.801758
0.679949
0.642439
0.675594
0.737646
0.771143
0.741868
0.697008
0.72034
0.69888
0.69096
0.761933
0.772541
0.808169
0.817084
0.811868
1.05083
0.982022
0.788056
0.968226
1.03619
0.805673
1.34344
1.24152
1.24197
2.26699
1.69898
1.77578
1.33477
2.08906
1.81627
1.75308
1.225
1.225
1.225
1.225
0.92883
0.762521
0.774894
0.913537
0.960472
0.853198
0.800819
1.02374
1.30268
0.942392
1.13272
1.08143
1.52712
1.51187
1.27538
1.73679
1.82622
1.74652
1.85876
1.94054
1.65094
1.99417
2.0373
1.57928
1.70345
1.92539
1.63014
1.91456
1.77579
1.98973
1.93984
1.84715
1.225
1.225
1.225
1.225
1.225
1.225
1.225
1.225
1.225
1.225
1.225
1.225
1.225
1.225
1.225
1.225
1.225
2.16694
2.20889
2.29609
1.225
1.225
1.225
1.225
1.225
1.225
1.225
1.225
1.225
1.225
1.225
1.225
1.225
1.225
1.225
1.225
0.74256
0.74013
0.775305
0.791844
0.836058
0.825188
0.868021
0.828653
0.819618
0.950956
0.875118
0.875942
0.917638
0.995677
0.79756
0.75525
1.09246
1.09011
1.0718
1.06778
0.734763
0.87101
1.10707
1.03793
0.915093
0.916042
1.08886
1.15961
0.706919
0.718871
0.716858
0.665129
0.676346
0.673762
0.662383
0.720209
0.730735
0.723355
0.829492
0.837515
0.829409
0.83748
0.744576
0.779091
0.789619
0.855287
0.885596
0.854132
0.884817
0.787958
1.14292
1.14496
0.8157
0.871052
1.19432
1.18455
0.739754
0.78236
0.789135
0.698689
0.747532
0.74091
0.695198
0.758709
0.769953
0.758491
0.807405
0.815864
0.781447
0.791026
0.836867
0.901107
0.910654
0.937502
1.02631
0.946873
1.05665
0.923024
0.853144
0.87444
1.00388
0.829589
0.953236
0.813788
0.947565
0.957205
0.963994
1.13132
1.20577
1.18209
1.26129
1.10239
1.05535
1.17759
1.16952
1.35566
1.11114
1.2857
0.782416
0.837166
0.834917
0.832395
0.877254
0.863234
0.814649
0.84423
0.807516
0.840049
0.846698
0.81485
0.804076
0.811923
0.728762
0.920434
0.961427
0.745954
1.03462
1.00499
0.716035
0.907842
0.918775
0.948148
1.06049
1.08116
0.948448
1.05045
1.15916
1.20381
1.34578
1.46068
1.25706
1.22126
1.41668
0.894052
0.885541
0.914601
1.23767
1.2164
1.28037
1.23655
1.3337
1.27025
1.3322
1.72424
1.54513
1.45983
1.62059
0.898789
0.880235
0.863129
0.835727
0.898551
0.880886
0.833577
1.00065
0.778688
1.07868
0.825
0.800238
1.11028
1.02582
0.744744
1.05247
2.37871
1.61586
1.279
1.42829
0.78364
1.59578
2.32985
1.6606
2.4636
2.12996
2.61328
1.85472
1.14972
1.75486
0.90508
1.29033
1.75915
0.916544
1.13833
1.18754
1.33178
1.91383
1.01051
1.8033
0.946363
1.27222
1.66189
2.09196
1.1231
1.8349
1.42498
2.31819
1.30561
1.94793
2.0983
2.49837
1.85104
2.49126
1.56145
2.15133
2.0762
2.35919
2.10833
2.45272
2.18615
2.22712
2.26611
2.01252
2.33092
1.9591
2.2294
2.11793
2.29008
2.0132
1.81474
1.73053
2.10382
1.59149
1.94388
1.52301
1.95442
1.32489
1.25602
1.7151
1.40929
1.3473
1.71225
1.38796
1.82212
1.66813
1.90807
1.26866
1.22517
1.225
1.225
1.225
1.225
0.725875
0.968445
2.47023
1.24567
1.22553
2.15036
0.768002
2.18199
2.28754
1.42741
1.94791
1.53824
1.54459
1.22812
1.22577
1.22691
1.2251
1.22502
1.22517
1.22568
2.04812
2.28848
2.10088
2.25892
2.317
1.65095
2.24462
1.2847
1.27575
1.22816
1.31925
1.22503
1.22933
1.22502
1.22529
1.22501
1.225
1.22501
1.22503
1.22501
1.22501
1.225
1.225
1.225
1.225
1.225
1.22501
1.225
1.225
1.225
1.225
1.225
1.225
1.225
1.225
1.225
1.225
1.225
1.22519
1.225
1.225
1.225
1.225
1.225
1.225
1.225
1.225
1.225
1.225
1.225
1.225
1.225
1.225
1.225
1.225
1.225
1.225
1.225
1.225
1.225
1.225
1.225
1.225
1.225
1.225
1.225
1.225
1.225
1.225
1.225
1.225
1.225
1.225
1.225
1.225
1.225
1.225
1.225
1.225
1.225
1.225
1.225
1.225
1.225
1.225
1.225
1.225
1.225
1.225
1.225
1.225
1.225
1.225
1.225
1.225
1.225
1.225
1.225
1.225
1.225
1.225
1.225
1.225
1.225
1.22501
1.225
1.225
1.225
1.225
1.225
1.225
1.225
1.225
1.225
1.225
1.225
1.23191
1.225
1.225
1.23876
1.225
1.225
1.225
1.225
1.225
1.225
1.225
1.225
1.225
1.225
1.225
1.225
1.225
1.225
1.22514
1.225
1.225
1.225
1.225
1.225
1.225
1.225
1.225
1.225
1.225
1.225
1.225
1.225
1.225
1.225
1.225
1.225
1.225
1.225
1.225
1.225
1.225
1.225
1.225
1.225
1.225
1.225
1.225
1.225
1.225
1.225
1.225
1.225
1.225
1.225
1.225
1.225
1.225
1.225
1.225
1.225
1.225
1.225
1.225
0.560707
0.622782
0.628296
0.533952
0.538186
0.643033
0.645836
1.4014
1.4564
1.52823
1.81171
1.87536
1.67244
1.61818
0.83352
0.932455
0.896612
1.12887
1.04872
1.14539
1.08858
0.750079
0.836896
0.858054
0.916362
0.905897
0.825275
0.757577
1.08646
1.09955
0.964593
0.97231
1.0997
0.965333
1.1031
1.38481
1.4902
1.28034
1.26308
1.42042
1.28845
1.50069
0.582595
0.641567
0.676609
0.549367
0.656327
0.575358
0.688923
1.29504
1.37874
1.43018
1.35021
1.86972
1.84858
1.71878
1.57507
1.9072
1.70663
1.54059
1.6162
1.71437
1.91221
0.881527
0.958885
0.956194
0.909005
0.870347
0.992431
0.9873
1.5048
1.56003
1.99492
1.95688
2.03575
1.51262
2.09052
0.679801
0.739909
0.836857
0.626736
0.74658
0.832073
0.707916
0.905723
1.01839
0.973344
1.03712
1.11073
1.02172
1.08482
0.898467
0.959236
1.09135
0.937343
1.04832
0.814847
0.937949
1.22678
1.47992
1.225
1.225
1.225
1.225
1.225
1.225
1.225
1.225
1.225
1.225
1.225
1.225
1.225
1.225
1.225
1.225
1.225
1.225
1.225
1.225
1.225
1.225
1.225
1.225
1.225
1.225
1.225
1.225
1.225
1.225
1.225
1.225
0.93853
1.02143
0.61615
0.630729
0.965599
1.14661
0.808608
0.941398
1.15595
0.809967
0.956289
0.994959
0.964265
1.29243
0.861439
1.19791
0.825019
1.05629
0.745166
1.29312
2.19758
1.93032
1.2609
2.35571
1.39393
2.24209
2.31555
0.673996
2.1316
0.773513
2.23999
0.713592
2.16703
1.54337
2.16479
2.0046
1.70471
2.2929
0.877202
2.29186
1.76679
2.08956
1.58344
2.10997
2.09529
1.49552
1.89696
1.25872
1.58207
2.31447
1.73157
2.06211
1.28964
1.8763
1.28284
1.79578
1.29978
1.23204
1.23464
2.43647
1.72544
1.84372
1.26538
1.72623
1.84003
2.4604
2.6109
2.34536
2.33021
2.33288
2.30639
2.3152
2.65852
2.43756
1.30354
1.87635
1.93783
1.77041
1.86727
2.4512
2.54304
2.29581
2.13441
2.3132
2.23558
2.31001
2.45361
2.33587
2.03247
2.04354
1.71898
2.42906
2.15601
2.14129
2.2198
2.01662
2.30627
2.05585
2.33919
1.90175
2.27363
2.22723
1.87116
2.12179
2.22661
2.18201
2.20383
2.141
2.11455
1.90413
1.62103
2.14398
1.77496
2.22465
2.00878
1.95157
2.05437
2.19536
2.1108
2.05423
1.9806
2.09352
1.68483
1.45631
1.98705
1.35272
1.86787
1.33825
1.76052
1.82193
2.02996
1.79163
1.76441
1.88937
1.92985
1.69513
1.51757
1.286
1.25672
1.42311
1.28093
1.55332
1.40656
1.52871
1.7215
1.64289
1.75554
1.59665
1.69544
1.56182
1.23106
1.23128
1.25549
1.30436
1.94183
1.74005
1.22702
2.07491
1.7061
1.4997
1.79827
1.69054
1.66716
1.71853
1.53636
1.48164
1.23883
1.8231
1.70239
1.94795
1.61096
1.68457
1.85831
2.07874
1.57509
1.67297
1.9167
1.24648
1.4771
1.24359
1.25693
1.75317
1.99211
1.30672
1.24612