/*--------------------------------*- C++ -*----------------------------------*\
  =========                 |
  \\      /  F ield         | OpenFOAM: The Open Source CFD Toolbox
   \\    /   O peration     | Website:  https://openfoam.org
    \\  /    A nd           | Version:  9
     \\/     M anipulation  |
\*---------------------------------------------------------------------------*/
FoamFile
{
    format      ascii;
    class       volScalarField;
    location    "0.0023";
    object      T;
}
// * * * * * * * * * * * * * * * * * * * * * * * * * * * * * * * * * * * * * //

dimensions      [0 0 0 1 0 0 0];

internalField   nonuniform List<scalar> 
19029
(
591.402
600.571
604.076
545.723
563.43
521.477
472.028
488.983
506.478
377.13
313.425
288.163
1104.95
769.235
950.275
747.563
676.009
458.755
630.609
504.027
411.813
393.818
413.424
380.085
417.852
493.015
1249.48
1181.5
1186.38
997.803
1317.42
1060.99
1117.65
1167.32
880.5
780.605
969.217
920.339
1041.8
1074.9
863.11
654.744
901.003
598.061
976.398
547.499
831.35
729.8
524.531
419.677
660.542
469.551
753.922
596.273
443.084
389.063
555.416
386.934
495.822
373.017
477.279
425.102
381.694
382.836
439.122
372.217
446.211
418.94
561.459
512.898
512.911
477.539
433.982
445.514
439.476
454.331
465.871
458.159
1031.8
885.746
934.316
783.485
790.427
529.802
756.405
471.718
467.24
452.362
814.836
1039.73
1015.79
807.67
1044.23
1016.53
840.58
990.832
779.739
963.387
829.158
621.889
694.131
848.542
569.223
659.241
588.73
603.798
786.334
567.691
509.721
550.56
491.984
482.635
930.87
655.808
558.651
408.408
559.949
459.865
334.377
368.836
391.94
301.206
931.666
1011.59
849.879
885.341
1009.84
850.78
930.861
704.475
883.707
718.246
708.602
786.46
795.273
641.752
532.605
597.779
505.04
510.494
552.941
572.656
489.635
386.95
502.754
414.508
442.79
431.391
461.063
380.805
520.227
456.944
518.518
472.61
433.671
420.322
294.765
462.561
392.718
1006.75
994.726
941.747
817.122
996.406
943.955
1005.63
1002.22
816.633
979.874
927.664
993.308
940.727
986.138
911.323
871.858
955.553
788.503
992.906
831.965
863.211
882.985
949.716
889.323
732.126
946.692
896.019
824.408
815.405
673.58
784.529
689.636
834.892
750.686
760.417
634.469
631.513
641.97
531.857
709.605
577.205
583.829
704.393
752.843
649.552
573.471
724.572
738.257
625.011
691.304
569.471
730.793
593.614
734.289
609.27
672.722
507.237
502.339
535.568
446.549
556.91
471.532
474.362
799.543
967.108
803.948
876.581
847.518
933.934
748.698
794.44
782.986
823.015
748.177
714.758
764.902
698.995
601.16
828.259
669.192
635.049
728.035
628.745
685.822
664.383
577.216
712.395
567.966
532.662
636.125
665.024
527.331
520.21
493.992
549.508
444.372
601.606
481.748
480.892
350.155
414.39
387.029
327.549
421.885
352.019
319.153
537.823
478.094
445.212
566.514
466.791
503.708
482.035
316.949
288.11
299.99
440.415
290.469
298.561
287.945
447.952
444.538
493.615
409.93
415.468
454.748
372.708
287.926
497.846
288.233
1189.77
1157.68
1132.76
1035.34
1026
1010.05
1032.38
673.847
957.678
607.001
556.685
508.508
634.397
602.866
554.316
539.798
1395.61
1341.45
1272.59
1185.17
1334.06
1264.64
1402.94
1377.63
1173.54
1296.35
1220.36
1318.34
1246.83
1349.75
1266.32
1269.83
1182.73
1095.52
1312.44
1236.16
1130.73
1217.78
1058.51
1163.14
1034.61
1197.77
1075.53
1170.69
1073.46
1138.32
1006.12
1024.41
1125.04
1117.6
978.031
987.796
1024.94
1010.29
888.001
1082.17
942.314
871.866
603.573
907.057
790.334
846.544
734.84
780.241
660.225
520.562
704.002
583.363
510.839
658.808
560.664
481.197
941.665
997.105
1046.31
958.485
1004.58
908.952
1004.01
847.684
805.206
701.482
709.826
800.352
863.528
739.517
509.949
583.966
490.627
525.913
506.248
565.835
482.841
640.364
626.879
561.34
666.363
603.207
619.893
578.225
554.881
348.667
347.132
508.846
556.983
538.398
529.774
439.732
288.169
424.253
287.978
360.966
287.927
289.124
287.926
383.417
287.944
287.926
287.926
546.886
569.149
530.42
562.729
346.725
294.315
342.57
292.371
509.022
524.894
453.563
471.452
338.288
289.725
431.84
466.888
321.148
342.761
299.871
291.065
288.49
288.125
394.305
288.351
309.415
288.1
478.927
305.53
369.199
432.965
475.761
300.801
358.784
458.051
293.23
329.885
386.567
396.568
299.305
296.49
306.292
289.456
287.97
291.8
288.529
288.037
287.928
287.956
287.935
287.927
287.974
287.928
287.926
287.926
288.772
288.16
287.936
288.263
287.929
744.536
691.213
570.802
549.293
693.285
574.043
741.812
730.287
544.791
646.026
552.952
679.752
568.644
694.247
304.405
306.744
342.627
346.679
306.067
341.763
305.326
302.605
345.456
302.685
334.258
304.765
339.081
299.969
593.533
597.52
530.101
488.303
642.791
552.297
507.879
555.439
470.613
496.651
470.127
519.086
488.465
528.669
293.611
299.907
327.428
332.926
296.752
296.798
318.679
479.239
477.811
447.606
399.816
505.973
455.412
415.268
445.765
358.875
386.497
323.065
425.704
369.662
399.493
316.422
347.65
298.396
292.293
351.127
319.16
291.284
298.649
289.534
293.495
288.272
301.982
289.034
291.548
334.485
409.661
326.545
388.052
343.118
411.749
315.568
293.075
292.652
288.682
288.144
296.142
290.575
288.349
469.712
384.805
440.988
470.896
384.762
406.904
406.858
447.45
369.323
414.991
435.767
358.633
381.154
391.182
380.096
303.655
328.408
339.407
292.777
294.198
311.529
288.948
288.036
288.34
288.244
287.963
287.954
288.017
351.366
314.018
353.798
298.781
298.376
290.647
313.509
287.926
287.926
287.926
287.926
287.926
287.926
287.926
288.173
287.928
287.928
287.926
439.016
459.294
377.303
467.765
382.463
404.429
398.987
403.755
407.556
323.758
423.711
343.9
365.953
341.279
301.593
291.787
288.284
304.006
289.219
289.39
288.266
288.07
287.956
287.93
288.028
287.938
287.934
287.928
290.609
288.018
288.001
288.949
288.83
288.175
287.948
290.291
287.929
287.928
288.084
289.375
287.928
287.927
288.33
287.927
287.926
287.935
287.93
287.926
287.926
287.926
287.926
287.926
287.926
287.926
287.926
287.926
287.926
287.926
287.926
287.926
287.926
287.926
287.926
287.926
287.926
287.926
287.926
287.927
293.064
289.084
359.614
287.933
299.511
399.354
288.608
288.002
290.447
287.944
330.268
513.94
558.674
517.782
446.678
375.745
288.479
287.931
287.926
287.927
288.023
287.927
331.748
348.397
287.978
439.265
317.581
335.095
287.943
295.903
306.292
287.933
337.841
288.71
290.344
287.927
287.962
287.936
287.927
288.031
287.927
287.927
287.926
287.926
287.926
287.926
287.926
287.926
287.926
287.926
287.926
287.987
287.932
287.926
287.926
287.926
287.926
287.926
287.926
287.926
287.926
287.926
287.926
287.926
287.926
287.926
287.926
287.926
287.926
287.926
287.926
287.926
287.926
287.926
287.926
287.926
287.927
287.926
287.926
287.926
287.926
287.926
287.926
287.926
287.926
287.926
843.363
895.441
900.171
937.068
914.093
914.68
969.187
939.805
918.395
287.926
287.926
287.926
287.926
287.926
287.926
287.926
287.926
287.926
287.926
287.926
287.926
287.926
287.926
287.926
287.926
709.844
287.943
287.938
291.013
421.958
287.98
348.561
288.282
287.927
287.926
287.926
1032.86
1033.82
950.822
828.398
705.393
576.032
313.042
288.911
287.974
287.926
528.562
510.149
486.363
465.628
501.653
471.926
503.39
470.782
448.157
1018.93
996.162
1039.73
918.324
996.07
905.792
981.743
1043.17
1026.35
1000.6
1028.84
1005.69
978.775
965.507
1013.75
1015.3
963.561
925.621
952.91
920.053
879.52
957.32
922.927
881.116
907.495
860.805
905.632
862.002
856.582
904.965
859.066
911.469
858.863
908.8
858.568
836.164
839.84
839.263
837.998
1052.48
1038.73
906.079
985.201
568.967
1046.7
1056.11
1041.54
1019.65
916.642
901.452
893.953
971.398
936.934
767.971
1052.46
1044.86
1058.1
1054.95
1048.04
1060.39
1049.81
971.131
1034.44
1025.79
997.991
1020.27
993.953
977.036
851.14
904.174
857.485
913.822
850.919
914.019
857.798
849.465
982.524
907.859
974.622
887.081
965.283
882.516
538.143
455.6
1036.62
1038.35
1022.03
1048.1
1041.42
1025.05
1033.21
1042.43
1047.26
1050.91
1038.79
1024.27
1016.75
1020.22
1020.91
1052.13
1056.73
1050.81
1051.89
1050.58
1059.53
1045.57
1036.47
1047.08
1042.52
1015.53
1043.1
1022.92
1030.52
1041.99
1042.1
1050.35
1034.2
1023.8
1007.8
1018.34
1015.69
957.358
1025.55
989.617
977.345
1006.26
985.249
939.972
953.311
1013.36
1005.67
961.806
933.536
977.393
986.923
923.09
914.377
949.939
913.402
877.379
946.109
920.574
871.068
900.459
931.414
907.044
839.356
938.335
883.152
856.512
894.151
858.738
903.302
849.077
873.428
814.447
862.366
826.989
832.822
898.867
816.167
904.872
834.683
910.011
811.793
825.878
837.823
827.575
836.591
799.415
787.314
803.386
778.815
864.918
939.625
971.149
901.033
942.315
872.293
888.728
843.942
926.845
960.936
825.252
938.312
819.523
858.777
836.884
876.644
849.026
858.566
807.195
787.98
781.767
821.542
846.057
897.114
867.427
886.139
764.785
903.024
738.463
706.972
877.169
807.633
671.643
776.84
739.36
823.426
702.319
499.446
616.611
515.011
497.929
592.977
485.216
522.71
1002.65
1009.33
955.54
914.511
849.793
1033.39
1028.03
1016.36
995.113
999.739
1047.92
1049.84
789.403
1061.35
973.66
1093.31
1021.73
1087.73
1073.25
1001.96
1008.09
1051.19
1137.77
1297.1
1292.66
1138.75
1128.02
1272
1280.47
1119.33
1109.84
1264.55
1113.44
1252.95
1102.66
1237.67
1092.49
1075.54
1186.03
1044.65
1093.47
1183.19
1046.42
1074.84
1072.54
1090.7
1164.62
1052.52
1173.93
1048.27
1072.79
1061.61
1150.68
1046.14
1043.5
1071.54
1135.12
1020.09
1047.4
1013.33
1113.48
977.024
1120.37
989.073
1044.87
1049.34
1109.19
985.462
1024.69
1047.82
1101.85
1006.3
1049.24
1044.76
1057.34
1049.52
1089.39
1034.19
1036.99
287.944
287.926
287.926
287.926
287.926
287.972
287.931
287.93
287.927
287.926
287.926
287.926
287.926
287.926
287.926
287.926
287.926
287.926
977.137
1052.11
923.666
514.054
294.629
287.932
287.927
287.926
287.926
954.749
1046.84
872.548
494.629
291.686
287.927
287.926
287.926
287.926
806.573
898.058
699.273
397.156
288.339
287.926
287.926
287.926
287.926
725.986
940.946
601.253
288.282
287.927
287.926
287.926
287.926
287.926
334.477
580.049
292.43
444.583
287.926
287.939
287.926
287.926
287.943
448.42
287.926
288.149
287.926
287.926
1027.33
1038.27
1029.07
1026.98
1050.43
851.634
980.152
1059.37
852.497
1056.13
1059.82
1056.58
721.95
921.247
726.819
324.238
357.061
290.408
512.53
319.15
350.21
289.189
288.033
288.288
287.951
292.77
287.983
288.104
287.932
1049.12
1032.3
1045.46
820.31
873.114
915.971
742.893
916.962
699.896
782.709
659.542
314.934
324.984
288.708
464.27
297.988
291.513
288.001
287.962
288.033
287.929
288.86
287.929
287.935
287.927
1003.34
1009.88
996.308
895.185
766.928
809.036
914.556
759.13
935
968.266
614.383
659.165
527.637
293.214
288.15
287.95
299.112
288.024
287.931
287.926
287.927
287.929
287.926
287.932
287.926
287.926
287.926
883.006
969.155
736.853
787.575
916.131
754.01
555.406
683.4
514.386
983.56
727.018
782.932
356.421
410.527
288.022
287.941
287.926
287.926
287.926
287.926
287.926
287.926
287.926
287.926
287.926
287.926
287.929
287.926
287.926
432.462
287.952
288.06
287.978
290.345
287.926
287.927
439.39
288.164
288.834
292.817
314.915
287.927
288.105
979.87
375.789
901.646
333.672
688.58
287.984
334.429
287.926
287.934
287.926
973.413
976.168
980.771
797.995
759.102
973.801
984.916
791.035
761.583
962.079
846.466
951.742
675.153
724.829
783.712
856.209
689.504
671.721
770.219
686.125
712.808
492.467
618.411
578.141
661.151
399.586
524.647
531.902
362.868
468.892
288.002
323.554
288.235
292.896
287.926
287.95
1059.62
1054.67
1048.42
1054.01
1056.48
1050.14
1057.75
926.937
846.412
850.093
804.968
705.058
707.344
803.504
288.544
288.855
293.169
294.265
288.79
292.831
288.595
977.392
1046.18
1015.47
1008.01
1025.67
1008.49
965.473
830.188
830.02
796.669
717.905
689.313
757.566
659.46
288.092
288.363
290.413
290.598
288.2
288.212
289.541
849.699
902.453
839.615
898.678
852.775
904.99
835.702
673.532
699.039
679.878
590.84
578.728
604.929
570.736
287.929
287.957
288.095
288.062
287.939
287.935
287.975
892.964
962.201
888.886
926.797
904.61
952.316
876.202
497.663
649.762
587.716
481.08
586.837
546.216
565.85
287.926
287.926
287.926
287.926
287.926
287.926
287.926
288.508
531.031
329.976
561.766
541.302
515.644
315.468
579.039
554.27
551.323
526.571
525.301
335.54
456.522
326.527
447.122
334.037
424.648
344.691
436.458
314.135
287.926
287.926
287.926
287.933
287.926
287.926
287.926
287.96
287.926
287.926
287.926
287.927
287.926
287.926
1030.58
1056.02
1035.53
1052.68
1057.87
1037.34
1029.08
853.607
924.936
926.821
980.493
797.571
799.228
979.176
1015.54
1005.37
1006.16
1013.85
1030.35
1056.86
1064.21
1031.06
1062.13
1037.79
1022.95
926.823
843.879
921.127
977.513
789.548
797.681
966.971
1013.48
994.666
1004.69
1004.05
1063.25
1056.58
1060.41
1057.57
1057.95
1061.94
1061.66
1044.85
1023.35
1025.5
1042
1052.03
1046.94
1050.4
1048.94
1058.68
1057.45
1059.76
1042.47
1058.71
1049.8
1051.29
1061.52
1058.27
1058.08
1052.07
1058.96
1060.12
1053.89
1044.59
1016.63
1025.47
1035.83
1051.55
1041.96
1050.04
1043.28
727.921
854.139
859.4
758.504
654.815
660.395
752.389
851.697
903.843
847.982
800.711
705.642
708.709
786.456
855.412
717.596
840.092
755.447
655.774
661.298
743.266
387.441
400.554
320.329
323.352
400.732
319.03
388.312
384.72
321.859
397.743
312.741
400.272
316.525
379.347
288.003
288.049
287.997
288.023
288.039
287.991
288.01
288.449
293.657
288.527
291.354
288.677
292.205
288.326
287.989
288.005
287.998
287.962
288.021
287.977
287.972
947.327
1049.87
1003.9
1005.84
996.355
1010.55
953.049
901.093
781.755
865.579
892.407
763.054
938.991
714.985
925.181
964.616
975.472
912.805
891.341
956.022
919.347
849.557
960.605
895.295
846.179
824.695
789.337
711.396
834.351
631.113
668.803
786.84
866.7
810.989
855.104
819.886
956.425
986.502
1007.03
934.568
920.718
957.418
919.544
863.2
958.951
908.291
875.749
898.787
833.901
877.007
854.272
811.103
679.815
774.188
684.933
643.797
717.923
629.325
758.704
736.65
725.007
674.295
597.708
626.353
633.662
638.111
735.059
699.343
650.658
597.924
613.999
622.452
359.974
393.204
307.681
309.542
371.155
387.246
301.981
345.037
303.688
364.747
292.645
378.527
296.787
326.835
287.943
287.974
287.948
287.945
287.956
287.955
287.937
288.014
289.63
288.006
288.368
288.091
288.848
287.964
287.934
287.935
287.932
287.928
287.941
287.931
287.929
812.316
895.312
824.449
892.443
819.818
887.83
818.71
758.238
694.329
690.227
749.465
608.729
758.716
604.332
783.882
789.632
792.67
787.38
818.724
901.314
897.681
848.776
891.522
827.235
835.737
764.289
692.721
698.051
755.934
636.259
613.316
778.724
790.582
832.669
800.179
815.877
828.886
813.231
831.938
811.744
860.36
911.69
951.103
870.068
921.844
845.99
885.34
868.287
934.879
961.062
902.012
928.856
872.295
895.254
839.882
857.101
825.057
869.333
847.071
879.97
850.319
875.981
581.813
672.685
649.646
593.066
579.611
605.359
551.003
670.202
668.744
635.878
586.471
584.372
573.568
576.694
438.976
618.496
566.615
573.191
418.404
499.535
532.536
295.229
343.488
289.923
289.964
308.222
317.584
288.552
289.698
288.456
289.566
287.952
297.132
288.074
288.24
287.926
287.928
287.926
287.926
287.927
287.926
287.926
287.926
287.959
287.926
287.928
287.928
287.937
287.926
287.926
287.926
287.926
287.926
287.926
287.926
287.926
817.379
894.604
860.986
895.776
839.774
865.14
844.259
713.886
669.828
695.116
784.234
653.378
795.432
656.561
849.63
867.476
844.367
875.485
761.13
812.026
655.215
709.365
774.845
789.577
681.905
563.8
645.672
603.599
740.875
551.82
621.347
664.465
823.604
789.311
850.271
759.898
898.187
975.602
915.028
975.471
911.657
967.915
897.526
908.353
892.222
902.595
900.323
910.379
907.999
907.318
906.005
840.426
856.694
764.563
739.502
891.994
823.435
751.512
844.537
912.343
781.574
737.508
908.39
836.087
751.307
878.118
810.439
873.995
808.149
875.623
774.563
860.163
797.765
293.668
334.872
474.38
356.941
331.374
454.455
294.603
514.076
307.492
382.221
389.746
435.673
509.07
319.923
289.325
298.025
288.609
301.59
288.102
288.936
290.448
287.932
288.17
287.93
287.928
287.972
287.959
287.926
287.927
287.926
287.927
287.926
287.931
287.926
287.926
287.926
287.926
287.926
287.926
287.926
287.926
287.926
287.926
287.926
287.927
287.926
287.926
287.926
287.926
287.926
287.926
287.928
287.926
287.926
287.926
287.926
294.419
404.145
320.974
401.938
304.825
361.836
303.161
288.316
290.224
287.989
287.979
289
288.838
287.949
339.61
444.705
360.947
442.771
354.53
442.189
349.773
290.794
291.746
288.322
288.026
293.628
289.607
288.108
292.571
298.812
288.563
288.416
296.152
294.526
288.248
288.547
287.963
287.926
288.179
287.926
287.926
287.937
287.926
287.926
287.926
287.926
287.926
432.568
287.969
287.926
288.232
287.926
288.184
288.296
288.103
287.989
287.958
314.7
288.009
288.538
302.559
287.927
288.421
287.926
288.335
287.926
287.962
288.049
287.926
287.927
287.93
287.932
287.926
287.926
289.016
320.822
288.169
290.824
291.789
288.39
288.497
291.534
288.349
291.065
288.674
289.807
288.087
288.077
289.189
289.161
288.015
287.942
288.053
287.931
287.929
287.982
287.964
287.927
287.926
287.927
287.926
287.926
287.926
287.926
287.926
348.28
422.22
362.754
439.357
355.955
428.756
354.219
287.959
287.926
287.926
287.927
287.927
287.926
287.926
290.376
288.409
290.488
288.179
291.092
288.273
289.792
288.306
288.003
288.261
287.942
288.631
287.967
288.086
291.089
325.449
291.137
298.92
293.738
308.556
289.385
288.088
289.312
292.352
293.324
288.465
288.38
289.308
287.93
287.927
287.929
287.926
287.936
287.926
287.927
287.97
289.406
287.961
288.03
288.052
288.302
287.938
287.927
287.937
287.958
287.967
287.929
287.929
287.936
287.926
287.926
287.93
287.927
287.926
287.926
287.927
287.926
287.94
287.93
287.927
287.927
287.929
287.926
295.216
300.518
288.962
288.533
299.36
295.808
288.513
653.24
517.71
500.532
623.182
469.457
526.299
551.041
671.909
552.949
516.056
670.726
519.847
566.075
564.164
509.473
640.641
530.475
543.615
659.615
516.78
560.94
514.989
611.269
615.479
467.636
551.58
555.115
467.226
287.93
288.826
288.606
288.24
287.927
288.075
287.927
287.926
287.926
287.927
287.974
287.926
287.948
287.926
481.328
595.787
580.763
440.373
546.825
452.34
538.4
288.036
287.926
288.148
288.013
287.927
287.933
287.926
287.926
287.926
287.926
287.937
287.926
287.927
287.926
339.272
515.543
466.858
319.63
481.13
361.292
433.108
287.927
287.926
287.926
287.928
287.926
287.926
287.926
287.926
287.926
287.926
287.926
287.926
287.926
287.926
287.948
288.116
291.164
287.953
291.047
288.119
288.352
287.926
287.926
287.926
287.926
287.926
287.926
287.926
287.926
287.926
287.926
287.926
287.926
287.926
287.926
321.633
288.282
290.562
289.579
374.351
296.596
311.833
287.95
287.926
287.932
287.927
287.937
287.926
287.926
287.926
291.346
287.968
366.886
290.102
288.447
287.927
310.783
288.054
296.383
395.885
292.416
289.074
287.928
287.926
287.926
287.926
288.105
287.926
287.926
287.926
287.927
287.943
287.926
288.3
287.927
287.926
287.926
615.335
505.38
608.718
465.757
553.639
556.481
460.589
438.989
564.342
544.702
422.979
510.876
527.861
397.666
289.544
390.839
314.141
295.666
308.639
367.638
289.262
287.932
287.97
287.928
287.93
287.937
287.991
287.926
287.928
287.939
288.112
288.034
287.963
288.495
287.933
367.35
540.618
538.285
623.766
310.184
618.869
300.904
291.126
517.463
482.201
583.346
291.035
500.967
288.223
287.927
399.485
295.56
346.172
287.938
288.835
287.926
287.926
287.926
288.074
287.931
287.926
287.926
287.926
287.926
288.001
287.93
287.931
287.926
287.926
287.926
287.926
287.926
287.926
287.926
287.926
287.926
287.926
418.824
488.591
491.253
561.139
406.42
483.889
415.04
287.926
287.927
287.928
287.926
287.926
287.926
287.926
287.929
287.926
287.929
287.926
287.927
287.926
287.926
287.928
287.93
287.99
287.968
287.928
287.947
287.927
287.926
287.926
287.95
288.022
287.928
287.99
287.928
287.932
287.926
287.926
287.948
287.927
287.93
287.926
287.926
287.926
287.926
287.927
287.926
287.926
287.926
287.926
287.926
287.926
287.926
287.926
287.926
287.926
287.929
287.931
288.005
288.004
287.931
287.97
287.929
287.928
287.929
287.926
287.984
287.928
287.943
287.93
287.958
287.928
287.927
287.926
980.122
998.786
818.468
829.534
708.066
478.655
1012
1144.13
1059.66
1056.77
1161.52
1091.64
971.879
1055.32
1284.31
1100.06
916.859
1198.92
997.791
900.744
829.919
1054.49
975.53
818.217
885.958
987.684
797.987
792.097
809.898
631.863
958.306
499.528
634.163
810.211
843.424
295.761
1208.48
1221.9
1136.5
1139.63
1368.49
1236.92
1062.88
925.234
1035.29
776.076
805.965
651.868
522.525
453.533
472.788
407.649
1004.57
986.325
992.148
1111.05
1053.4
1059.67
1101.95
1149.69
1206.75
1217.73
1123.3
1100.39
1106.17
1112.18
1028.8
1005.05
1026.79
1132.11
1100.66
1074.9
1164.23
1239.33
1270.25
1178.28
1146.42
1137.72
1119.29
1181.51
1078.31
1030.29
1045.39
1170.83
1122.66
1187.71
1114.44
1258.46
1181.93
1152.73
1187.61
1143.38
1203.81
1116.87
987.615
904.926
972.752
1111.64
1015.89
1069.91
1041.64
1126.53
1099.34
1042.43
1139.42
1019.99
1067.74
1083.57
841.493
867.538
853.925
928.717
966.985
979.8
920.15
976.716
992.371
951.91
987.443
988.38
1031.76
971.016
821.436
822.986
828.395
886.2
841.961
876.491
852.139
766.558
910.157
852.767
937.033
930.183
957.252
856.947
818.556
802.709
819.466
775.75
816.361
821.067
783.116
540.825
765.243
647.981
625.662
867.871
736.328
754.684
480.852
565.81
530.09
558.478
575.691
638.427
525.124
1213
1332.46
1338.36
1353.01
1371.24
1232.72
1321.01
1226.64
1185.77
1139.12
1118.73
1046.74
915.059
974.996
902.462
625.147
826.261
733.185
477.613
622.185
536.44
441.812
494.551
474.602
602.728
637.376
555.811
1100.54
1058.18
1083.12
1062.95
1063.28
1087.34
1094.71
1117.9
1073.69
1103.67
1117.59
1077.97
1099.44
1146.87
1154.04
1125.34
1123.7
1078.18
1168.88
1115.71
1098.7
1108.65
1036.15
1042.17
1012.16
1078.88
1053.46
1064.79
1007.62
1018.74
986.44
971.95
1032.2
1003.45
977.064
975.872
980.383
933.188
972.644
980.063
977.396
914.961
738.85
861.627
928.636
863.568
828.698
777.09
825.718
669.32
732.845
646.013
617.423
705.126
701.889
288.73
312.264
287.926
287.926
287.926
287.926
287.926
287.926
287.926
287.926
287.926
287.926
287.926
287.926
287.926
287.926
287.926
287.926
287.926
287.926
287.926
287.926
287.926
287.926
287.926
287.926
287.926
287.926
287.926
287.926
287.926
287.926
287.926
287.926
287.926
287.926
287.926
287.926
287.926
287.926
287.926
287.926
287.926
287.926
287.926
287.926
287.926
287.926
287.926
287.926
287.926
287.926
287.926
287.926
287.926
287.926
287.926
287.926
287.926
287.926
287.926
287.926
287.926
287.926
287.926
287.926
287.926
287.926
287.926
287.926
287.926
287.926
287.926
287.926
287.926
287.926
287.926
287.926
287.926
287.926
287.926
287.926
287.926
287.926
287.926
287.926
287.926
287.926
287.926
287.926
287.926
287.926
287.926
287.926
287.926
287.926
287.926
287.926
287.926
287.926
287.926
287.926
287.926
287.926
287.926
287.926
287.926
290.243
559.994
320.649
717.08
806.877
638.75
506.831
585.694
536.997
577.764
469.976
547.531
514.358
496.45
534.285
541.245
583.247
559.251
523.956
771.823
695.047
754.601
718.188
679.87
734.015
661.431
641.161
691.423
620.593
556.874
485.27
288.057
313.581
512.73
387.557
478.135
291.726
616.109
668.595
629.698
614.785
585.747
634.474
602.312
605.866
517.891
517.534
511.034
543.188
548.895
540.512
532.009
563.364
602.057
572.7
560.595
580.474
577.794
548.926
470.423
413.153
389.994
485.789
472.102
471.208
442.316
288.335
652.101
561.466
963.606
1188.06
1170.67
1140.02
923.559
1191.11
1093.9
831.208
983.9
1185.69
1318.44
1311.54
1293.72
1153.55
1278.68
1266.58
1256.05
1129.36
1086.97
1232.08
1111.66
1220.45
1091.67
1013.3
1146.73
1054.6
1057.95
1195.08
1077.7
1153.48
936.894
1036.7
970.408
1021.87
1024.14
975.508
1064.78
1118.87
1115.98
1047.8
1046.52
1072.78
1073.13
995.622
990.327
1033.98
1036.34
1051.63
1001.79
1042.64
1046.03
1100.47
1076.12
1035.29
1017.78
1051.67
1063.47
998.607
1024.61
1028.77
1034.99
1032.34
1023.95
1020.61
951.841
964.711
977.807
1017.2
1024.75
1013.41
994.586
300.111
289.709
289.675
394.07
334.869
341.773
299.637
376.997
346.978
339.993
287.926
287.926
287.926
287.926
1434.98
1296.02
1297.88
1432.2
1438.18
1294.31
1298.44
1442.39
1330.53
1265.85
1410.48
1201.71
1215.06
1013.49
1112.92
1075.15
746.587
902.815
917.369
791.073
585.986
571.804
679.309
491.213
417.794
493.404
446.997
447.783
396.881
404.111
419.311
390.223
287.926
287.926
287.926
287.926
287.926
287.926
287.926
287.926
287.926
287.926
287.926
287.926
287.926
287.926
287.926
287.926
287.926
407.953
425.106
408.524
287.926
287.926
287.926
287.926
287.926
287.926
287.926
287.926
287.926
287.926
287.926
287.926
287.926
287.926
287.926
287.926
983.79
983.594
959.217
1020.73
1008.36
1000.8
990.349
935.012
935.132
974.873
922.654
983.522
978.435
978.143
891.078
859.102
945.454
956.148
1006.43
996.316
930.387
884.929
954.608
967.124
881.047
908.975
976.33
965.23
1030.92
1031.72
1036.22
1030.33
1033.65
1036.33
1034.66
982.957
980.992
982.142
1012.31
1010.56
1022.26
1024.1
984.27
990.5
958.659
1004.48
998.499
1029.04
1040.58
816.315
929.105
943.326
805.469
843.03
952.151
934.811
1039.16
1025.89
1045.51
1037.12
1044.17
1036.36
1034.51
1031.83
1031.59
1040.09
1029.91
1029.04
1038.95
1040.58
948.794
946.196
996.589
1000.04
1006.04
1056.71
1060.48
1031.28
1024.68
1042.44
1017.72
1041.73
1017.79
1038.88
932.818
914.792
965.038
1001.21
986.083
1039.66
1007.67
1002.49
1015.44
1009.07
985.793
969.047
985.63
970.452
1041.97
1026.38
1024.18
1047.17
1025.9
1050.37
1043.77
1027.53
1045.56
1034.59
1036.9
1047.64
1040.63
1042.45
883.492
938.155
894.019
837.079
922.228
971.98
900.818
1024.17
1045.09
1030.06
1029.22
1031.51
1050.9
1023.18
1006.45
1017.03
1003.57
974.83
998.361
991.079
971.135
857.345
828.755
864.32
968.926
946.625
976.849
943.841
996.243
1012.53
1018.13
989.05
972.746
975.958
995.578
1036.56
1058.41
1045.21
1055.67
1063.63
1071.24
1047.72
868.733
795.122
900.695
779.452
781.876
902.965
865.702
1194.3
1059.86
653.828
326.568
1156.28
1095.63
1188.23
1022.91
670.933
853.258
563.609
380.709
476.417
347.854
1438.02
1169.41
1323.65
1153.81
1165.28
1322.57
1439.28
1426.38
1137.2
1091.94
1283.98
1144.88
1312.09
1389.3
1197.59
1005.21
1224.96
921.452
1315.52
885.04
1133.16
1042.96
797.664
602.792
881.084
742.157
1016.4
865.96
540.173
494.994
743.964
481.629
686.07
432.071
622.133
459.912
423.176
362.04
454.535
393.057
522.972
418.02
359.953
335.122
409.127
322.624
386.524
315.08
377.086
298.13
291.32
341.128
305.907
300.767
338.227
303.249
352.968
335.493
735.607
293.684
287.943
287.926
287.926
287.926
287.926
924.917
748.679
444.408
290.071
287.977
474.781
896.404
469.24
441.659
595.759
369.024
325.249
324.314
288.239
288.001
288.11
287.935
287.927
287.942
287.99
509.249
435.287
504.157
425.465
454.136
335.433
421.642
294.872
293.994
288.252
299.419
287.928
288.364
287.927
287.954
287.927
287.926
287.926
287.928
287.926
287.926
287.926
287.926
287.926
287.926
287.926
287.926
287.926
287.926
287.926
287.926
287.926
287.926
287.926
287.926
287.926
287.926
287.926
287.944
287.926
287.926
287.926
287.926
287.926
287.926
287.926
287.926
287.926
287.926
287.926
287.926
287.926
287.926
287.926
287.926
287.926
287.926
287.926
287.926
287.926
287.926
287.926
287.926
287.926
287.926
287.926
287.926
287.926
287.926
287.926
287.926
287.926
287.926
287.926
287.926
287.926
287.926
287.926
287.926
287.926
287.926
287.926
287.926
287.926
287.926
287.926
287.926
287.926
287.926
287.926
287.926
287.926
287.926
287.926
287.926
287.926
287.926
287.926
287.926
287.926
287.926
287.926
287.926
287.926
287.927
287.926
287.926
287.926
287.926
287.926
287.926
287.926
287.926
287.926
287.926
287.926
288.659
287.926
287.926
289.453
287.926
287.926
287.926
287.926
287.926
287.926
287.926
287.926
287.926
287.926
287.926
287.926
287.926
287.926
287.94
287.926
287.926
287.926
287.926
287.926
287.926
287.926
287.926
287.926
287.926
287.926
287.926
287.926
287.926
287.926
287.926
287.926
287.926
287.926
287.926
287.926
287.926
287.926
287.926
287.926
287.926
287.926
287.926
287.926
287.926
287.926
287.926
287.926
287.926
287.926
287.926
287.926
287.926
287.926
287.926
287.926
287.926
287.926
287.926
1030.51
1080.8
1080.61
1051.85
1050.66
1144.94
1140.01
993.735
997.772
1000.49
984.886
982.689
971.411
971.371
797.879
817.038
816.391
911.068
871.246
901.859
861.727
879.079
865.573
912.353
879.141
885.551
902.746
885.281
1049.88
1044.13
1062.84
1083.8
1081.76
1079.69
1060.58
1012.78
980.81
1008.62
1054.4
1026.07
1022.12
988.885
1028.06
1075.81
1065.88
1043.27
1127.86
1023.66
1107.94
1023.54
1003.62
1007.52
1026.77
1038.74
1017.62
1026.82
1005.47
979.958
972.951
1011.25
1008.22
973.863
975.574
841.287
854.008
864.223
827.477
796.402
850.227
845.685
1002.58
1006.69
1031.83
1010.4
1005.21
998.258
1026.42
985.54
1040.09
994.579
984.519
1070.14
1011.83
925.328
809.962
826.514
822.409
840.169
815.795
846.336
835.625
876.204
944.553
907.405
948.235
898.338
861.379
808.427
288.112
321.405
287.926
287.926
287.926
287.926
287.926
287.926
287.926
287.926
287.926
287.926
287.926
287.926
287.926
287.926
287.926
287.926
287.926
287.926
287.926
287.926
287.926
287.926
287.926
287.926
287.926
287.926
287.926
287.926
287.926
287.926
287.926
287.926
1273.03
1187.19
1119.17
1101.52
1418.14
1355.56
1305.29
1263.75
1347.6
1296.24
1425.13
1398.37
1238.6
1268.35
1239.24
1323.01
1275.35
1367.07
1087.46
776.769
488.273
355.936
1056.75
398.561
954.106
379.959
435.689
1056.92
484.528
1055.99
458.874
986.127
477.831
851.908
367.694
540.421
326.868
423.468
885.254
445.566
590.254
361.222
605.143
381.331
484.88
311.19
374.024
291.093
318.496
520.885
342.616
395.994
294.095
352.16
293.994
354.481
295.78
288.614
288.877
653.515
1043.19
718.315
1047.64
1032.55
710.227
662.561
463.362
377.527
496.942
395.985
374.678
492.403
468.805
631.68
1019.32
933.337
635.979
1001.8
685.97
590.077
451.274
389.863
360.228
458.837
368.783
480.332
431.085
473.973
826.909
569.818
730.439
532.681
702.394
506.413
385.434
350.722
432.67
355.068
406.77
341.627
407.929
428.794
620.03
502.748
424.498
588.959
458.727
398.288
368.73
341.864
320.635
368.417
332.075
387.163
354.259
356.524
445.621
396.593
440.708
375.564
407.497
371.688
324.771
308.001
349.373
299.507
339.714
298.166
330.397
340.492
403.242
359.374
333.715
379.928