/*--------------------------------*- C++ -*----------------------------------*\
  =========                 |
  \\      /  F ield         | OpenFOAM: The Open Source CFD Toolbox
   \\    /   O peration     | Website:  https://openfoam.org
    \\  /    A nd           | Version:  9
     \\/     M anipulation  |
\*---------------------------------------------------------------------------*/
FoamFile
{
    format      ascii;
    class       surfaceScalarField;
    location    "0.0018";
    object      phi;
}
// * * * * * * * * * * * * * * * * * * * * * * * * * * * * * * * * * * * * * //

dimensions      [0 3 -1 0 0 0 0];

internalField   nonuniform List<scalar> 
46073
(
1.12717
-0.180758
6.37486
-0.887574
-6.05664
1.9949
3.03744
-1.48975
-7.12022
-2.70418
7.40743
2.02821
-0.498857
-1.77764
0.767102
3.95363
-3.47578
2.99395
-7.08473
-2.70352
2.5223
7.19669
1.84267
-2.065
-1.61124
2.15499
3.72706
-3.21089
-5.27139
-1.56091
2.48206
1.86269
6.24524
-2.42713
2.17
-1.90368
-5.01971
-2.16498
1.71066
4.26601
1.94841
0.541796
-7.77856
-1.6445
7.84753
-1.73558
1.75781
-6.70529
-1.46385
2.14368
7.40903
-0.92966
2.51677
3.50496
1.08845
-2.45845
-2.989
-2.96554
1.47179
-6.38062
-1.30339
2.47524
5.31876
1.39553
-2.18988
-1.12716
4.77236
-4.02486
2.7962
-6.57757
0.550259
3.82348
6.75948
-3.92866
0.515857
-6.03769
4.1629
6.21975
-1.79574
-6.06203
2.29071
3.61454
6.7316
-3.57285
-1.65
-5.5149
1.98755
3.86023
6.03688
-3.04674
-5.68398
2.32913
2.52275
4.20795
-2.73946
-3.75948
5.29288
2.70852
4.10485
-5.03335
-0.154592
0.0184926
-0.182849
-0.289728
0.030881
0.0262102
-2.12731
0.0140199
2.55336
5.96377
-5.68022
2.04955
-1.53528
-7.1842
3.32724
7.31331
-0.49916
0.769529
2.29833
4.04871
-3.57274
-7.07055
2.50557
3.21197
7.04832
-2.00815
2.10703
2.10365
3.86836
-3.35225
-6.05464
-2.75211
-2.93371
2.90405
2.94879
6.08984
-1.74141
-4.74997
1.38409
1.9512
3.06183
-1.40684
-0.0478444
1.74119
6.20509
-5.92029
-1.46278
-0.0418145
1.80163
0.343894
5.45306
-5.16725
0.0293292
-1.16247
0.340767
5.57665
-5.31029
0.958815
2.63193
5.78381
-5.37926
-0.754123
-2.36354
2.79832
6.88196
-6.67083
0.214869
-2.5038
7.34445
0.0816366
-7.00724
1.89922
-1.60724
0.67169
-0.506387
-5.49873
1.82465
-1.56543
5.90765
-0.572828
2.66073
3.59219
0.756423
-2.62341
-3.1344
1.2247
1.92141
-2.24044
-1.01527
3.87385
-3.40385
-4.50718
-1.18027
2.31628
-2.24271
1.41025
5.13697
1.59923
2.08551
5.56718
-5.15369
-2.10386
-1.30286
4.99816
-4.47896
0.720529
2.37089
-2.31675
-0.482818
1.98805
-2.40359
0.580622
3.82511
-0.367045
-3.34112
2.0872
5.64293
-2.12564
-4.83249
0.748634
-0.488646
1.90902
-1.12332
-1.67912
1.58554
3.68123
-3.17272
-0.550463
0.845726
-1.33082
3.86989
1.54536
-3.40597
-1.25542
1.79525
-1.29544
3.50271
1.47691
-2.95398
2.50033
5.42826
-4.94401
-2.24215
1.17692
2.40169
2.46169
5.62176
-4.78326
-1.93024
-2.15949
5.33294
-4.84479
0.922153
1.74712
-1.50869
4.99493
-1.28667
-1.42863
-4.47977
1.78281
1.65729
-2.24381
-1.24306
2.32565
3.55063
1.41263
-3.01628
2.57506
5.99149
-5.01375
-2.2253
2.48435
2.46119
5.02382
-2.17254
-5.21991
-2.34644
1.86655
2.10618
-1.96695
-1.85634
4.21646
-3.68586
1.89631
-2.1625
1.42794
3.90969
-3.44572
-4.02044
-1.30571
-2.19985
4.55471
2.26484
1.50961
2.07682
5.46687
-5.26791
-2.10276
1.88723
-0.0891103
6.30398
-6.00131
-1.16613
6.12395
1.4787
-5.85565
6.22804
-0.105187
-0.903902
-5.95612
-0.0929042
1.35413
6.6956
-1.09725
1.42566
-0.012117
6.52277
-1.15235
0.0417577
1.73727
0.0637577
6.41367
1.65863
6.59623
1.80416
-1.39286
-6.98112
-1.51595
7.43402
1.7816
0.139701
-1.49183
7.69303
-7.43447
-0.276099
-1.20885
-6.88856
1.48591
0.578459
7.16123
0.0468846
0.941121
7.89559
-7.56807
-0.675691
1.04324
-8.02243
0.498082
-0.740088
8.06148
-0.49535
0.888493
6.53968
-6.20239
0.669382
-0.61649
1.61891
0.938227
-1.29947
-7.10087
-0.640354
7.41271
-2.16473
-0.12272
0.34226
2.53728
5.28461
-4.95501
1.10689
5.79037
-5.38936
-0.884411
2.89579
6.70901
-6.53475
0.288644
3.09063
6.30333
-3.66807
0.49873
-6.15074
1.55666
3.66131
5.92798
-3.4101
-1.2471
-5.56799
3.70492
-3.36644
0.142946
5.76312
-5.45253
0.806594
3.33416
-3.03922
-0.602645
4.77764
-4.37743
1.82635
6.00523
-5.73645
-0.0155745
6.0807
-5.80121
5.88032
0.0925287
2.20035
-5.60779
2.07942
-0.00701371
0.1199
6.29499
0.0481251
-2.01577
2.40365
6.36455
0.157165
2.44452
6.16948
6.48583
0.321137
5.71376
-0.90934
-5.45787
-1.2432
4.59828
1.51382
-4.23284
4.69691
0.587985
-0.996923
-4.37039
-0.32744
1.49452
0.518071
5.08576
-1.25828
1.44113
6.01367
-1.18306
0.352183
1.7377
5.89103
0.516503
1.75062
5.01173
2.71464
3.63506
-2.68549
-0.379587
-3.20746
0.571212
3.7334
2.65348
-0.369567
-3.30324
3.71677
0.768686
2.60205
-3.26523
0.636445
2.56285
4.0443
-2.51214
-0.424413
2.52001
0.837048
4.02986
-2.46109
0.632878
2.52348
4.14889
-0.414532
0.844448
2.47986
4.15172
2.59512
3.53926
-2.54809
-3.05117
-0.959461
3.66502
1.13541
2.46183
-3.16455
3.68453
2.53689
-3.20853
-1.02708
2.3917
1.20531
4.00062
-2.32189
2.46214
4.00685
-2.39744
1.04971
2.41993
4.14062
1.2431
2.34878
4.13845
1.24273
-1.02687
1.86539
3.94949
-3.48961
1.60665
-5.27849
-1.32944
2.10577
5.37047
1.08725
-4.63263
-2.14127
-1.00939
1.64462
2.87328
0.594981
1.86619
3.86163
-3.40046
-0.383354
-5.15537
0.770011
2.13516
-0.499071
5.51185
-2.10048
0.660304
4.55024
-3.82285
-0.44042
2.59931
-2.3945
-4.99279
0.659027
-0.430897
4.27783
2.25144
3.10916
0.552499
-7.265
-2.82417
7.71216
1.26575
2.72598
-1.02293
-2.46815
6.15761
2.93561
0.364939
-2.65126
7.00061
0.550495
-7.63471
2.24886
7.74357
1.77853
-1.4185
-6.93673
2.09331
7.49315
0.182443
2.07588
7.53934
-6.66162
-1.77205
-0.406143
0.717157
2.06127
6.91491
-6.83636
1.94289
0.214906
-1.63718
7.13888
-0.0154608
1.63992
-1.35278
1.68724
0.0926404
-1.40357
6.71923
-0.0400607
2.00469
0.150809
0.11698
-6.90471
2.20253
7.2223
2.2699
0.278653
6.98723
1.96236
-1.34888
3.60574
1.52971
-3.08039
0.917696
3.89937
-1.13206
-3.46648
3.58773
1.35437
-1.17944
-3.06431
0.807673
1.5095
4.36441
-1.30715
1.48869
1.22874
4.08534
-1.30631
0.786635
1.72711
4.3554
1.17901
1.68348
4.10767
-1.10404
1.52878
2.16871
3.80415
-3.31417
5.50077
-5.02966
1.3174
2.76605
2.59032
5.98593
-4.99703
-2.07813
2.79185
5.83005
-3.30059
-5.38699
1.83624
3.16506
-2.87391
1.03114
4.48938
-4.02916
-2.73627
-1.64948
4.43415
2.06706
3.08128
-3.88203
3.04512
3.74839
6.11655
-3.5013
-2.90309
-5.98265
0.338383
5.35472
-5.04506
-1.80253
4.53073
2.10737
-4.11792
4.54383
0.519287
-4.14883
0.370245
2.06348
5.78294
-2.02763
-0.391593
0.548976
2.31966
4.95876
0.52234
4.97012
2.40862
5.69059
-1.23503
3.46324
1.40966
-2.9097
1.9256
3.46148
-1.12905
-2.90922
3.41219
2.35382
-1.08074
-2.85848
-1.78666
1.38816
2.2385
-1.20874
3.94592
1.44209
-1.2652
3.98175
1.69807
1.63181
4.02306
2.16204
1.58213
3.99804
-5.36938
-0.756937
-1.08449
1.33106
1.01254
5.82719
1.68791
-2.98311
-6.7485
-1.445
6.50641
2.35601
-4.93888
-1.0131
-1.91563
1.26078
5.62851
-5.0761
-0.943313
0.799881
5.52678
1.35329
-0.546738
0.888728
-6.70365
1.93778
-0.599068
7.26267
2.34906
-4.90388
-1.90934
0.768018
5.51437
-0.518795
2.99859
-2.9766
-6.91929
0.871442
-0.566118
6.85765
2.59089
5.7649
-5.48418
0.0500366
5.86476
2.98067
-5.57188
5.66684
0.15362
2.99014
-5.37846
0.0866434
2.787
6.25552
2.82402
0.194353
6.04567
-0.125402
0.256992
3.20399
5.92568
3.13772
6.16512
0.574566
3.80551
-0.364371
-3.33702
-2.36717
3.84351
0.797391
1.97549
-3.36452
3.81197
0.786599
-3.33952
-2.28353
0.639384
1.97849
4.2777
-0.412306
0.636289
4.24512
-0.41006
2.25067
0.860023
4.25995
0.866233
1.9688
4.3008
6.58597
2.34675
-0.0849746
0.200843
0.1208
-2.30125
2.63493
-2.59891
-6.43388
0.439641
2.90941
6.64146
0.157113
-6.79579
7.06305
0.3494
6.81325
0.249658
2.70185
-6.34284
1.89812
-1.61136
-0.383535
1.67832
0.542541
-1.43508
1.68674
-1.41927
6.22614
0.420014
1.98489
-0.568959
-5.43704
2.09231
0.742487
5.8478
2.20194
6.53091
1.9389
0.5755
2.42462
3.50814
-2.97528
1.30467
3.67448
2.37618
-3.16006
3.711
1.48295
2.28582
-3.20102
2.31436
1.38423
1.43288
2.27341
4.15724
2.2433
1.57792
4.06927
1.63246
2.20366
4.20556
-0.996598
3.81023
1.19482
-3.32382
-2.30981
3.85541
1.95153
-3.38099
3.80729
-3.32824
1.08039
2.19703
4.26516
-2.13269
-1.09301
1.31369
1.92892
4.35465
1.29061
4.27824
1.94731
4.31994
0.96846
7.72725
0.196647
-7.44867
-0.685273
0.0639436
7.87472
1.21217
-7.5425
7.6853
1.25076
0.227058
-7.40386
-1.05565
-0.203096
1.36048
0.451039
7.83376
0.183772
1.01398
7.9865
-0.728172
0.41498
7.88236
-0.743151
1.30035
7.95101
0.793634
3.89124
-3.4138
-1.73232
3.74645
1.96166
-3.2572
3.662
1.17757
-3.15271
-1.96178
0.809162
2.21299
4.44566
0.78458
4.38336
1.89804
1.14898
4.15889
1.15025
2.13721
4.24205
2.20923
-1.93353
1.88682
4.52765
-3.82894
-4.58161
-2.52051
-2.26014
4.57574
2.44452
2.58164
-0.567488
-1.31568
-0.440239
0.0889914
0.164692
0.147671
-2.26937
1.69892
4.79293
-4.19639
2.81981
1.4598
1.85678
4.00928
-3.54243
-5.27472
1.85342
2.08248
5.2737
-4.32778
-1.94923
1.04605
1.20835
1.96745
-5.06779
-1.02335
1.28508
2.4315
6.07128
1.63218
-2.2329
-1.37454
5.49967
2.03358
0.0836906
-0.287914
-1.11426
-0.142254
0.0655914
0.118613
0.769142
2.41791
5.82451
-0.513665
-6.66844
0.812865
2.71706
-0.524383
6.18801
-2.18705
0.805381
5.75713
-0.516854
2.13461
-0.131623
-0.826499
-2.99664
0.188238
0.273261
0.422336
-1.30711
-5.64237
3.92063
6.0128
0.244896
4.00988
5.69238
-5.43688
1.00314
-0.790622
3.62805
4.88693
-4.49274
-4.55271
0.482448
5.492
4.77874
-5.27728
-4.61732
-5.99811
0.507165
5.04388
6.53152
-4.21575
-1.23401
5.20465
1.5442
4.49651
-4.86624
1.91272
-4.64233
-1.43341
-6.152
4.98094
6.36541
-5.3646
2.65302
2.93413
4.50921
-2.1195
-5.14369
2.45404
1.8894
-1.95741
2.39509
4.48952
-3.82148
-2.25346
-2.80076
4.97921
2.26197
3.24102
-4.11583
3.45283
-2.13261
-3.20674
4.83914
2.09129
-4.69341
3.49112
-3.40555
-5.84475
3.01777
5.77651
0.450756
-1.46139
-2.94525
-1.20299
0.268364
0.480376
0.679859
2.4296
-2.37202
-0.45399
-4.4867
2.35595
0.951024
-2.29534
5.03142
2.3993
0.896254
-2.33689
-4.58628
0.726077
2.30932
5.16022
-0.481902
0.680098
2.38756
-0.448557
4.60682
0.905049
2.3553
0.966864
2.29759
5.21975
2.42252
4.55273
-4.13103
-0.373296
4.60597
0.544591
2.73599
-4.18703
5.23964
2.90907
-4.9064
-0.437196
2.61558
0.610352
4.97507
2.76113
5.61154
0.527967
3.10046
5.54986
0.719105
2.90666
5.01973
-4.39593
-6.60499
0.525745
4.76744
6.8411
0.295185
3.52615
6.37389
-6.23
-4.15892
0.515046
5.91295
4.4342
-5.77805
-1.41259
-6.14229
3.61525
6.74487
2.0063
-1.53412
-4.38712
-6.59555
4.5076
6.6202
1.13942
-0.906302
3.2932
5.4528
-5.08557
1.6209
-1.29497
-3.8761
5.62746
4.15714
-5.2979
6.11217
0.462731
2.30578
-2.21376
-0.526166
2.49479
0.705801
-2.50646
-6.00352
2.79674
6.28522
-0.65008
-5.39582
0.83786
5.80386
6.39959
0.626692
2.63371
1.68113
3.58133
-3.04907
-1.61718
3.66627
1.85596
-3.13768
3.5526
2.13768
-3.00591
1.62749
1.84721
4.09044
-1.80075
-1.58945
2.04857
2.04816
4.19221
2.10808
4.08116
2.08917
4.18369
-1.54369
7.49096
-7.25579
0.336488
1.84867
0.0977226
7.80167
-7.5056
7.60972
-7.3448
1.66114
-0.239055
0.50586
7.74221
0.282991
-1.58945
1.87951
7.7512
0.574087
1.95407
7.6127
7.87584
2.60735
-2.34761
1.48693
5.88819
2.79725
2.71961
-2.40508
-2.38817
6.38581
2.29762
2.06059
-2.86676
-6.1513
-2.10697
4.47236
-6.74069
2.06091
2.26592
7.4093
-0.909575
-1.5821
1.14252
1.83489
5.8035
2.93049
-3.00871
-6.672
1.88601
6.27604
-1.47733
-1.51298
1.97849
1.76464
5.58796
-1.10509
2.30985
-2.24132
-4.4877
2.33466
-2.26859
2.35743
-2.29191
1.1258
4.61923
2.30912
-4.6459
-1.21009
1.45583
2.26305
5.42669
1.33954
2.25852
2.27921
5.29879
0.80879
1.64096
-1.4206
-4.56906
1.69103
-1.46252
5.06497
1.59562
-1.39026
1.20262
-4.85125
0.983197
1.99129
5.34476
0.832488
1.87194
4.60338
1.20105
1.81131
1.32377
1.92825
5.11163
0.937005
7.31045
-7.04737
-0.655643
-0.527507
6.49454
-6.14198
1.14635
0.703901
7.25268
-6.98014
-0.998758
0.766114
1.28899
7.4434
-0.723665
0.92185
0.926115
6.83603
-0.634669
7.49635
-0.697159
1.19606
0.975603
6.80047
0.0902426
5.80506
-5.49102
-3.38535
5.50581
0.320572
3.74586
-5.24005
5.57967
0.206597
-5.29936
3.55155
-0.175987
0.371028
5.82643
0.275933
-3.45873
3.76575
5.98561
0.536454
3.84956
5.76867
6.08565
0.039344
-7.09485
-1.33326
-0.617602
-4.86983
-1.27438
0.879148
5.34233
-0.453524
-5.58354
-1.31692
5.98161
-0.532478
0.683546
-0.331371
6.43806
-6.19528
0.18994
-0.711863
0.284035
5.84341
-5.58491
0.446402
-0.426786
6.54578
-0.379063
-6.45354
-7.21854
-0.0662682
0.829411
-0.601387
0.451242
0.4864
0.12376
6.21612
-0.41172
-5.97663
0.521489
-0.335409
-5.87305
0.844491
-0.594264
-0.625166
-0.94551
0.993798
3.98258
-3.58684
-1.79151
-4.42516
-1.17893
1.40215
4.97741
-1.46199
2.06015
-0.967271
3.46021
-2.92582
-0.684755
1.14543
-0.602221
4.25283
0.76723
-3.92161
-5.05931
0.825337
0.812983
5.44887
-0.567173
-1.66996
2.28308
-0.631885
3.57776
0.800021
-3.09167
-1.86186
-4.42326
0.728941
-0.494512
-0.385751
6.47385
-6.29736
0.474234
6.54313
-0.40329
-6.36055
6.45823
0.56808
-0.37547
-6.23764
-0.340017
0.547074
6.85172
-0.431858
0.590998
-0.295766
6.83871
-0.46882
0.294722
0.738288
-0.237193
6.77042
0.695567
6.83221
-0.257216
6.41494
-6.11376
-0.708704
6.31112
-6.03332
6.38747
-0.287997
-6.12848
0.922348
0.233363
-0.163904
6.70907
-0.149557
-0.879675
6.76825
-0.0880539
6.62119
6.80976
0.171834
6.08859
0.576665
-5.82981
-0.490294
5.14734
0.619053
-4.92246
5.31308
0.71241
-0.379287
-5.11858
-0.168006
0.669496
0.552239
5.57145
-0.492778
0.638745
6.49301
-0.494029
0.20358
0.792307
6.38926
0.538881
0.848204
5.44698
-0.658698
3.79085
0.832799
-3.34181
1.21799
4.39776
-0.441423
-4.10731
3.89456
1.76964
-0.471088
-3.48745
0.961835
0.730699
4.71226
-0.527285
0.73942
1.48631
4.28515
-0.527744
0.918018
0.924531
4.60959
1.41967
0.936749
4.21751
0.230723
5.96126
-5.70313
-0.785749
4.82701
-4.53913
4.97757
0.660306
-4.72275
0.967111
0.248053
6.2694
-0.293395
-1.04169
0.523288
5.18971
6.14477
0.530777
5.30913
-0.59208
3.50328
0.763316
-3.02542
2.37862
3.6501
-0.444351
-3.19733
3.56076
-0.406524
-3.11615
-2.12007
0.65747
3.98338
-0.451211
0.698509
4.07702
-0.489338
2.04324
0.894155
4.03513
0.850208
3.95638
-0.210246
0.690751
-0.518391
-7.14798
0.855545
0.0182454
-0.619732
0.734116
-0.139725
-0.54963
7.08793
0.162491
0.937645
-0.0978822
-0.0425045
-7.19743
1.0748
1.09923
0.0522618
0.889143
1.07356
4.10704
-3.74221
-1.00992
3.61717
-3.11328
3.69198
1.56869
-3.21251
-1.11461
0.840089
4.41514
0.87914
4.50031
1.12546
1.3541
4.14645
1.28827
4.09798
1.15718
7.02684
0.117143
-0.0368617
-6.93885
-1.35771
0.156074
-0.069196
-1.10664
-0.00465449
-7.16409
0.0328317
0.100481
-0.926942
3.40454
-2.869
2.17808
3.50537
-2.99446
3.44196
-2.93399
1.08489
1.96225
3.98862
-1.87564
-1.03322
3.91746
3.96627
3.92492
-6.77341
0.858538
-0.612089
-0.227998
0.782735
0.478934
-0.560673
0.767196
-0.564482
6.68651
0.260603
0.970322
-0.364438
-5.78509
1.07951
0.540747
1.09967
0.992645
0.484384
1.18288
6.57973
0.302126
-6.46429
-1.34722
6.78333
-0.34509
-1.20684
0.519161
-0.404817
-5.6778
0.573569
6.05859
0.498991
0.826376
0.783572
-0.556288
-4.669
0.781024
1.27588
-0.540358
0.765127
1.3185
-0.537663
-4.99572
0.831152
1.04441
5.41538
0.81088
0.996928
4.63092
1.28357
0.980288
1.26586
1.01086
5.06177
-4.49633
0.752332
4.93209
-0.516027
-1.94395
0.696116
-0.474513
0.729885
-0.507191
4.47879
1.89485
0.941497
-1.83932
-4.42088
0.955458
4.92323
0.979938
4.93484
0.907689
-1.20715
0.802199
-4.92121
0.850017
0.803711
1.18754
4.58645
1.25208
-4.56425
-1.23683
1.26822
5.04173
1.22348
1.26311
5.04114
1.1468
4.4562
1.8399
-4.45393
-1.20428
4.95175
-1.78025
-1.11163
1.30844
-1.81396
-4.4126
1.34835
4.93363
2.22952
3.62239
-3.09655
-1.68149
3.86267
2.1336
1.90577
-3.3743
3.76944
2.1997
-3.27558
-1.79368
2.15639
2.03896
4.27587
2.18578
4.15063
1.85168
2.15319
4.28898
2.13448
2.09986
4.43965
0.55149
-7.25605
3.42124
7.6528
1.40532
-1.1365
2.97841
6.15996
0.434367
3.21678
6.83249
-3.92206
0.5013
-7.1756
4.01648
7.02071
1.81865
-3.63569
-1.49352
-6.92549
3.57721
6.2919
-3.72997
0.526509
6.50074
3.96056
1.70129
-3.47916
-1.34084
6.39591
3.74393
1.38489
3.83327
-3.34627
-2.08315
3.96923
1.63468
1.87227
-3.50677
3.87688
1.57799
-3.39842
-2.0702
1.53525
1.9182
4.42227
1.49744
4.31099
2.01297
1.7127
4.37713
1.77329
1.91365
4.56359
0.158566
2.94885
-6.28245
3.19367
0.55611
6.50113
3.05303
0.329254
6.15661
-0.225507
0.448855
3.37294
0.372167
-6.39729
3.38374
6.55436
0.685815
3.45689
6.407
3.25311
1.86967
3.8877
0.808675
-3.42844
0.614107
3.94832
1.88017
-3.50327
-0.401837
3.98054
0.826855
1.88697
-3.53224
0.648596
1.94156
4.3412
-0.424465
1.93926
0.874219
4.37697
0.662361
1.99603
4.51717
-0.437178
0.890069
2.00926
4.59291
1.72674
1.55307
4.46831
1.51025
1.63456
2.22922
5.05143
4.52942
1.68782
1.76777
-1.79515
-4.5339
2.23652
1.88494
5.16751
1.89514
5.06465
2.14828
1.729
0.642
7.04717
1.40535
6.4243
6.35356
1.67073
0.825379
1.57572
0.829928
7.35306
-0.906381
-1.46697
1.73868
1.13011
6.67551
1.8601
7.24237
1.04512
6.73993
2.15517
7.33551
0.23077
7.35922
2.36625
7.15976
2.45182
0.486944
0.3324
2.16789
7.59529
2.23583
0.65221
7.46304
-0.388561
2.51121
0.73568
7.30907
2.45925
7.42058
2.22047
3.85803
-3.37841
0.808732
4.17322
2.58422
-3.70072
0.863075
2.47945
4.53784
4.00299
1.12424
2.50542
-3.52118
2.404
1.18252
4.35964
0.954298
2.75703
4.65708
1.24811
2.69055
4.5088
-4.7184
0.736144
5.47115
-0.483345
-2.15731
0.689468
1.99586
-0.451951
0.6852
-0.448024
4.7462
2.13551
0.919981
-2.12702
-4.89491
1.01802
2.09255
5.65142
0.990202
5.60022
0.927841
1.99711
-0.456109
4.6824
0.645622
-4.27383
-3.26244
5.19799
3.58274
-4.88522
5.20903
-4.88851
3.40921
0.671468
5.51432
-0.848628
-3.19184
1.0665
3.47394
5.18061
3.69043
5.5171
0.878204
5.08955
-2.49776
2.80232
6.14879
1.85567
-1.91201
-2.00744
3.25132
1.37107
-4.7287
-1.39046
0.639081
1.01293
1.13161
0.00108351
0.00275564
-0.0450489
-0.00807076
-0.00585571
0.00179692
-6.20289
2.25781
1.56637
4.67124
-2.18256
1.84139
5.29498
1.95252
-0.137481
-0.631011
0.0410658
0.028873
0.0580732
2.31095
1.65178
-4.70218
1.71541
2.25686
5.66473
1.55566
2.21597
-4.63767
2.33176
1.9192
5.48352
2.23175
1.73063
4.82528
2.19197
1.78791
2.26415
2.00994
5.7734
7.92391
-1.07884
-0.366399
1.38288
0.70447
0.511243
-7.98456
1.34307
8.02652
0.347083
1.03539
-0.743762
1.06707
-7.96434
0.920891
-0.751167
8.07126
1.37253
0.941503
8.04144
0.667285
-0.762064
1.32654
-0.627145
2.77431
0.823221
-5.90991
3.06921
6.20318
2.95021
5.84989
0.764609
3.24096
-1.02363
-5.42994
3.15564
1.26746
5.82072
3.32925
6.16022
3.04828
0.976457
1.8693
3.91256
-3.45481
-1.04527
4.07119
1.26574
1.90101
-3.60081
4.0179
1.8916
-3.56249
-1.105
1.91543
1.33821
4.5188
1.92765
4.42791
1.12579
2.02745
4.70332
1.36976
2.06447
4.87784
1.15529
4.77264
2.09787
-2.05285
-1.17202
1.42081
1.98973
-4.83469
-1.25153
1.52643
5.68184
-2.11597
-4.98331
2.09374
5.62974
1.38727
5.64094
1.99367
-2.11424
0.946669
2.36822
-4.88369
1.06592
5.37668
0.877792
4.66514
2.04345
1.22145
-2.17758
-4.75629
1.47553
2.44143
5.28387
1.38373
5.18449
1.26661
2.29715
-2.73271
6.84781
0.683919
3.00001
0.293279
7.1795
6.99107
0.579639
2.78217
-0.445738
0.817705
7.17156
0.494328
-2.75084
3.02871
7.1022
0.885125
3.04381
7.06145
7.25309
1.93798
6.28351
-0.806056
6.22291
2.20462
1.01226
6.77905
2.34577
-0.990668
2.0075
1.22652
6.61346
2.13879
7.12273
1.08196
2.41189
7.00537
2.27201
1.33515
6.56104
4.05259
5.46727
0.493475
-5.19348
0.360918
5.60131
4.2936
-5.39123
5.47118
0.670757
4.31987
-5.18131
0.383391
4.06392
5.8766
4.11429
0.70314
5.75015
-0.458866
0.819491
4.36522
5.75666
4.33883
5.78099
1.67711
7.84047
-0.397782
0.761854
-7.72448
-1.6717
0.988653
1.96859
7.8883
0.438879
-1.62017
1.91938
0.527861
-7.90199
7.95023
0.826405
1.96659
0.967495
7.97304
1.20853
3.46446
4.66123
-4.21448
-2.02996
-3.44949
5.10193
2.54951
3.85507
-4.41275
3.10364
-3.04254
-6.01699
3.88556
6.02143
-4.0549
-1.81043
5.14142
2.1297
4.40276
-4.69406
-4.68977
-6.14811
2.36652
4.78593
6.21844
-4.36473
-2.72784
5.57894
3.08789
4.79261
-5.14394
-3.74587
-2.66341
-5.30746
3.27576
1.91646
2.85266
-1.78428
4.0416
2.01049
-3.56358
-2.0149
4.06464
1.86218
-3.58429
3.94165
-3.47195
1.98107
1.94634
4.49085
-2.03917
-1.99858
2.35287
1.95902
5.04996
1.92117
4.80121
2.21079
4.7194
3.6526
6.08178
-0.317363
0.599356
0.449137
-6.27407
6.42066
-6.04694
-3.70817
0.880477
3.95132
6.31126
0.413187
-3.55847
3.85626
0.746891
3.91016
0.80359
6.34852
2.12265
3.80707
-3.29543
-1.51912
3.97508
1.9585
2.41604
-3.4718
3.95973
2.45635
-3.47239
-1.59406
2.32558
2.03686
4.34238
2.35872
4.31275
1.64161
2.6554
4.48053
2.07325
2.63448
4.54443
0.837311
5.87252
-0.576661
0.970169
5.85596
5.52927
1.04351
1.36494
0.857264
1.18174
6.28707
-0.58445
1.22676
1.11862
6.27837
0.823778
1.55506
6.0292
-0.557856
1.08131
1.59047
6.04534
-4.22022
-6.44039
2.35844
4.29163
6.332
1.35482
3.16755
5.18424
-4.74731
-3.7609
1.91857
5.54419
4.06375
-5.14158
-3.06954
-6.1755
3.22172
5.85702
-2.23017
-2.62778
-4.74595
1.35083
1.24606
0.758887
2.62785
-2.05504
3.23325
5.55271
-4.73867
3.11948
-2.97817
-4.04291
5.84914
4.27058
-5.73573
4.60508
1.67444
2.0004
-1.97172
-1.69643
2.13535
2.24149
-2.14963
-4.71283
2.42724
5.3099
-1.83954
-4.63452
2.28639
5.34893
5.16642
2.1255
2.25849
3.62116
6.15458
0.572445
-5.95726
0.403516
6.19616
3.84985
-6.08579
6.05961
0.741042
3.90944
-5.8378
0.440063
3.66662
6.46994
3.71431
0.801601
6.36831
-0.503912
0.896424
3.98781
6.28068
3.95956
6.29963
2.15894
4.0016
2.09872
-3.49554
2.10524
4.05376
2.39799
-3.52166
2.16278
2.32333
4.46486
4.21169
2.10441
2.45056
-3.64564
2.39076
2.15129
4.69565
2.22153
2.65478
4.74889
2.21387
2.74835
5.07577
7.59976
-1.02058
1.05903
1.31617
-1.3275
-7.07795
1.22862
1.65504
7.41273
1.01659
-7.63811
-0.706261
7.81458
-1.01527
0.935675
1.2722
-0.641206
1.31676
7.79169
-0.712543
1.21846
1.3242
-2.62094
6.56073
2.88625
-0.909048
6.17892
1.13131
6.65716
1.17173
2.67846
6.90513
-2.53129
-1.25024
2.7855
1.55126
6.51531
1.44729
6.52539
2.9352
6.83142
0.891792
4.3224
-3.85624
-2.80171
4.37623
1.29562
3.10218
-3.89141
4.17937
1.18236
-3.69461
-3.03966
1.26938
3.32611
4.94853
1.09297
4.79682
2.9831
1.36125
4.68327
1.52475
3.2785
4.87023
1.06883
5.80956
1.2863
5.52776
1.38779
5.5438
1.53229
1.42345
-1.37895
1.36613
1.64229
6.2481
1.28869
6.25935
1.33919
1.63992
6.06205
1.60188
1.70803
6.09507
0.779776
5.43185
-0.530657
-1.90932
5.56206
2.351
5.45093
1.02282
-2.12155
0.820794
2.57089
6.55974
-0.547973
0.814264
6.06429
-0.549216
2.15683
1.07467
6.10916
2.59846
1.09357
6.59449
1.85082
4.09857
1.68698
-3.61345
1.4932
4.16613
1.92083
-3.65733
1.57827
1.9148
4.67667
4.34074
1.73797
1.95701
-3.73554
1.9351
1.84017
4.91702
1.63936
2.13908
4.96369
1.95656
2.24963
5.01386
3.87297
5.21935
-4.89817
-0.978844
5.00196
1.20912
3.92356
-4.61348
5.27385
4.14894
-4.93893
-1.02478
3.75563
1.26347
5.27988
3.95986
5.55377
1.16373
5.60267
4.22427
1.43867
5.37032
4.03357
1.64123
2.86994
5.95872
-2.66715
3.02639
6.36887
-2.64724
-5.75687
1.79598
1.63771
2.88861
-3.33473
-6.60163
1.94707
3.11636
5.31852
-3.40951
2.1075
6.54121
3.71598
-4.97931
1.35555
1.31956
-2.24721
-2.21032
0.821423
-3.43573
-2.98498
6.00849
3.53162
3.05471
-2.04416
1.68716
1.99357
-4.95683
1.82232
5.69873
1.6248
5.17487
2.04516
1.88094
-2.11971
-5.33218
2.14532
2.06513
5.41616
2.13332
5.64615
1.99194
2.02114
1.60449
7.5242
1.12157
-7.42988
-1.61014
1.9012
7.69007
-1.1885
-1.49628
1.77267
1.47132
-1.36143
-7.03163
1.695
7.41052
1.88936
7.74086
1.39433
3.50971
5.83194
0.926662
-1.15127
-5.49395
1.42599
5.86832
-5.84621
-3.58079
3.82529
6.15445
-1.08237
-3.31759
1.33575
3.58442
3.76984
6.14618
1.15464
0.631981
4.10372
-3.61171
-0.418904
-2.12094
4.66677
0.885927
-3.8629
2.65093
4.15525
0.846481
-3.64362
-2.37736
0.727824
5.01708
-0.476284
2.87711
0.683002
4.93036
-0.452888
2.42567
0.920616
4.96791
0.991287
4.98599
2.86285
1.04713
2.63393
-4.87879
2.71751
1.60359
5.41044
2.57039
1.34219
-5.13738
1.48263
3.03416
5.59454
1.18669
2.9081
5.02674
1.46191
2.85517
1.77377
2.99811
5.55923
3.47811
5.85002
-5.58584
-1.08238
5.50567
3.5862
1.33551
-5.1449
5.82083
3.76898
-5.53647
-1.15841
3.41853
1.43388
5.80189
3.58844
6.12369
1.26709
3.86234
6.09779
3.692
1.57519
5.84246
2.55044
1.9629
4.79852
-4.01029
-4.37193
-2.28474
-2.53122
3.78798
2.44031
2.13111
-1.21937
0.0832146
0.152347
-0.538583
-0.540383
0.126546
-4.48839
-3.04894
-2.01901
4.13336
1.92612
2.97247
-3.16847
-1.54425
-1.94348
0.749245
0.467784
0.8259
0.131821
-1.96537
0.208192
-0.617865
0.246137
-0.99902
-0.478225
0.0340888
0.0223562
0.046609
-0.184405
-1.97979
2.25309
2.26613
-4.77691
2.38805
5.81916
2.22311
5.04462
2.04927
2.19082
-2.33924
-5.40202
2.44219
2.66277
5.81103
2.31658
5.83241
2.22127
2.35794
0.699227
1.99505
-0.460067
-5.19909
2.12781
1.04785
5.46356
2.00164
0.942802
-5.26292
0.77309
2.28144
-0.501096
5.34208
0.719681
2.26172
-0.471627
5.26549
0.979184
2.29328
1.04667
2.26862
5.29858
-7.59633
2.2621
0.998893
7.82351
0.481642
2.2212
2.25265
0.886931
7.47777
-0.515374
0.931837
2.53459
0.554223
-7.48811
2.54085
7.69008
1.0025
2.55218
7.82333
2.51873
2.42359
5.91003
0.782228
6.1199
2.33452
-0.515313
6.14256
1.05379
2.33209
0.83966
2.61202
6.61932
-0.550701
2.63568
1.13311
6.59859
0.844683
2.50611
6.30949
-0.545503
1.14553
2.51051
6.29321
1.78085
5.58178
1.23725
5.81123
2.09006
5.64311
2.03544
1.55544
1.9058
1.45943
6.24836
1.56941
2.16873
6.26425
1.86843
1.80012
6.14804
2.1398
1.92045
6.23483
3.2575
6.73515
0.787884
0.489448
6.68995
3.48335
6.65778
0.869108
3.50485
0.524556
3.28612
6.97258
3.29393
0.928176
6.98096
-0.536068
0.947859
3.53898
6.93473
3.52567
6.87035
1.26625
5.47191
1.93537
5.51393
5.74195
2.37576
1.51614
1.33725
2.2116
6.17324
-2.30057
-1.37487
2.69229
1.67053
6.64066
1.6078
6.27244
2.6358
6.6258
0.443816
5.5292
-5.32398
-4.57043
5.53554
0.860498
4.81107
-5.25394
5.50059
0.795935
-5.20649
4.60537
-0.492703
0.876393
5.77296
0.502301
-4.57611
5.7049
4.7814
0.898252
5.79828
4.83313
5.72076
2.26564
4.19619
-3.67556
-1.98781
4.83737
1.95113
2.75167
-4.01472
4.46774
2.56765
-3.81977
-2.03108
2.74211
2.01935
5.12355
2.52795
5.08332
2.08125
2.92552
5.23963
2.05194
3.04363
5.02386
-1.07014
4.36773
1.30425
-3.73221
-2.14567
4.72195
-3.92229
2.71609
4.2346
-3.68063
1.17703
2.49903
4.99675
-2.54997
-1.26304
1.53077
4.88995
2.73378
1.46016
5.00491
4.92175
2.83131
-6.02436
4.1864
0.914998
6.29085
0.477411
4.13021
4.15796
0.848717
6.02207
-0.504566
0.895707
4.39572
0.516378
-5.96068
4.37904
6.1943
0.928778
4.42096
6.31435
4.36924
-1.19885
2.05203
1.47501
-5.24369
2.12114
5.41665
2.01608
1.25699
5.23646
2.31006
-5.17334
-1.3092
1.54678
2.1909
5.08197
1.54513
2.30593
2.2457
5.21449
-7.33207
2.19056
7.68006
-1.25367
2.04587
1.55087
2.16938
7.24437
1.3092
2.44313
-1.43859
-6.91401
2.3871
1.8291
7.52733
2.47847
7.7315
2.3151
1.62534
0.481882
6.03356
-5.92372
-4.18961
5.95717
0.913561
4.45815
-5.72253
5.9915
0.860411
-5.75981
4.25038
-0.527994
0.936727
6.2239
0.527766
-4.22638
6.10464
4.4637
0.945642
6.21553
4.49988
6.17021
3.49455
-2.33035
4.69233
2.05794
-4.73041
-5.74721
2.94339
3.49288
5.43092
-1.91649
-1.09807
0.235928
-0.88405
0.130975
0.20341
-3.09915
-4.1724
4.77344
2.80844
4.10379
-4.9676
0.379198
-3.34299
0.611065
-2.04218
0.630881
-2.31776
-1.67128
-2.41696
0.619197
0.607774
0.348868
-3.00034
-0.595174
0.0480242
0.0367384
0.0583916
-0.327245
-1.55592
4.18206
1.98141
-3.66304
-2.76594
4.36467
3.08513
-3.86239
4.14849
-3.65379
2.96572
1.74104
4.68191
-1.90708
-2.97271
2.39329
3.33233
5.14783
3.27919
4.90669
2.181
4.80854
1.85727
4.2578
-3.70473
-2.01203
4.78336
2.35151
-4.02523
2.15762
4.64524
-3.8454
2.02744
-2.15576
2.0756
2.53019
5.04179
2.00199
5.02831
2.29246
4.96739
2.27492
2.53814
4.89963
2.19777
2.44711
6.17929
-1.33907
6.1214
1.63706
2.37936
6.14739
2.33211
-1.4355
2.70534
1.73548
6.47764
2.66366
6.54974
1.44301
2.50855
6.23466
1.71835
2.46598
6.13379
3.14116
6.49328
-1.231
6.18523
3.2271
1.53107
6.45785
3.38651
-1.31114
3.04035
1.63991
6.54265
3.18296
6.78747
1.3526
3.43212
6.79967
3.30157
1.70768
6.67275
3.41157
4.58046
1.45744
-4.10469
1.41232
4.81885
3.7726
-4.39586
1.47026
3.61793
5.09472
4.76994
1.65878
3.72994
-4.31594
3.58048
1.72748
5.05702
1.67131
3.91019
5.22791
1.95418
3.89205
5.23667
-1.62861
0.157367
0.194028
-0.929997
-0.858352
0.116894
2.75228
3.41619
5.8377
-5.08578
-3.87531
3.09844
5.5041
3.95938
-5.57018
0.0298068
-0.473452
0.0219354
-0.159684
0.0425753
-0.193632
0.0040449
-0.112925
0.00515375
0.00786728
-0.0473711
-2.29079
2.77697
4.35849
1.79963
-4.95236
0.139174
0.214517
-1.13963
0.246775
-0.963716
-1.98037
5.3635
2.05347
2.17289
-2.41687
-5.43723
2.62589
5.48012
-2.32825
-2.07566
2.04706
2.60792
-2.19397
-5.31501
2.00798
5.28077
5.54535
2.03888
2.51703
7.38349
2.80763
-0.536707
0.958789
-2.83957
-7.33767
1.01711
3.14428
7.82648
0.545948
-2.80235
3.06507
0.553493
-7.36096
7.72395
1.00549
7.84429
0.971186
3.07118
-1.76035
2.54353
2.20355
-4.86398
2.72129
5.49864
2.54276
5.05364
1.87644
2.84408
-2.3102
-5.30573
2.79439
3.15001
6.16724
3.02399
5.75897
2.35404
2.87535
-5.25819
1.66323
5.70223
-3.18495
1.55247
3.46203
1.35935
3.14213
5.19334
1.62649
-5.3724
-3.28428
3.58193
2.22409
5.98696
3.43198
1.83053
1.98154
5.73384
-5.87211
4.06839
6.18032
-1.20343
3.84714
1.49289
4.02464
5.90553
1.27798
4.27198
-1.34493
-5.71981
1.71533
4.20865
6.22153
4.32289
6.26278
1.60627
4.10862
-1.13165
5.11067
1.39774
-4.74032
-4.41957
5.40152
4.67927
-5.0925
5.34214
-5.00767
4.47757
1.25296
5.6476
-1.30358
-4.30223
1.6582
5.54866
4.57936
5.69553
4.72582
1.5707
5.45245
1.35088
5.83878
-2.29901
5.84086
2.57137
1.79994
5.72767
1.66094
-2.43173
1.83123
2.69872
6.37879
1.69624
6.3008
2.41835
2.08366
6.37828
2.70102
2.30465
6.62591
-3.62221
3.40437
-2.30829
3.40109
2.24102
-3.6198
-3.36151
-2.46249
-3.97544
3.41205
3.97012
2.50887
3.98268
2.02669
-3.99508
-3.99873
3.98513
-2.17809
-3.12413
-1.89489
3.95702
2.14027
3.71191
-3.30135
-3.30507
-4.33442
-2.0693
3.32281
2.04736
4.22467
-2.49581
-3.48083
-1.81548
1.32602
0.865614
1.25877
3.20791
1.60146
-3.76394
3.09911
-2.04831
-0.361069
0.0407361
0.0423467
-0.176414
-0.324842
0.0247278
1.93918
6.05753
2.43427
2.57727
6.26929
-2.52662
2.18383
5.95595
2.47507
2.22558
2.75792
2.0179
-2.76538
6.37638
1.95789
2.4326
5.98625
2.81507
-2.85067
2.26519
6.32741
2.39027
2.13537
5.78307
-1.41788
1.73387
1.69289
-6.69953
2.05506
-1.17505
7.40063
1.65141
-1.14487
1.39897
6.72247
-1.12237