/*--------------------------------*- C++ -*----------------------------------*\
  =========                 |
  \\      /  F ield         | OpenFOAM: The Open Source CFD Toolbox
   \\    /   O peration     | Website:  https://openfoam.org
    \\  /    A nd           | Version:  9
     \\/     M anipulation  |
\*---------------------------------------------------------------------------*/
FoamFile
{
    format      ascii;
    class       volScalarField;
    location    "0.0018";
    object      rhoE;
}
// * * * * * * * * * * * * * * * * * * * * * * * * * * * * * * * * * * * * * //

dimensions      [1 -1 -2 0 0 0 0];

internalField   nonuniform List<scalar> 
15504
(
717753
1.98612e+06
729523
2.22981e+06
1.01044e+06
1.8121e+06
1.39305e+06
1.42447e+06
1.67168e+06
874405
2.02547e+06
1.13583e+06
1.4651e+06
1.34691e+06
1.81394e+06
1.58532e+06
1.87838e+06
2.26122e+06
267757
845430
2.16486e+06
774444
2.35613e+06
1.08116e+06
2.44594e+06
1.18874e+06
783217
738109
717384
1.05138e+06
1.06286e+06
1.02e+06
937975
869566
820320
1.30987e+06
1.42188e+06
1.19792e+06
777327
1.22738e+06
822315
668951
756685
1.08448e+06
1.56554e+06
939416
1.08464e+06
916418
1.86806e+06
1.66328e+06
999684
844431
1.15465e+06
1.51465e+06
750106
762736
737180
822438
829841
849084
847884
1.52292e+06
1.10626e+06
1.04476e+06
1.07687e+06
1.36236e+06
983978
1.42226e+06
794784
1.10869e+06
1.08798e+06
1.25547e+06
1.35408e+06
953245
944444
787173
814924
811497
868793
896458
890452
872771
699814
682829
668446
745136
781778
798624
763441
869788
866800
871131
941147
948867
941082
952764
869409
884508
875549
975992
959183
967160
987960
793794
1.45681e+06
1.09144e+06
735765
1.32029e+06
970150
1.32682e+06
1.70082e+06
1.19214e+06
1.15503e+06
1.46168e+06
1.58758e+06
1.11493e+06
1.07515e+06
1.01691e+06
923113
922756
938018
1.03265e+06
1.02847e+06
940932
690537
653078
673550
729718
753008
753065
779345
873376
1.15426e+06
1.757e+06
1.44365e+06
971121
1.27248e+06
2.49437e+06
763623
734291
704269
819539
824889
789808
846188
852766
740439
833771
932527
825482
852386
962672
1.0137e+06
2.42424e+06
1.38506e+06
1.01962e+06
1.5218e+06
1.30892e+06
2.46397e+06
838290
876460
869653
920876
916528
949090
949875
836873
789312
845283
861531
915724
929300
877240
954583
977022
1.0639e+06
1.04615e+06
1.04331e+06
974720
958332
966988
833824
870215
887343
967036
986309
857196
889383
902996
933781
1.00334e+06
1.01949e+06
1.04401e+06
1.06538e+06
868143
802985
854713
945997
922843
968756
896614
1.07709e+06
1.08628e+06
1.08466e+06
1.17669e+06
1.17472e+06
1.17057e+06
1.18062e+06
694379
755845
717835
828186
785877
816158
863569
1.03044e+06
1.52257e+06
329916
1.24333e+06
827029
1.5e+06
924109
1.56721e+06
1.61726e+06
300865
1.45673e+06
2.2382e+06
1.54416e+06
446942
1.46998e+06
1.00445e+06
1.02076e+06
1.23698e+06
1.87251e+06
1.33073e+06
2.19897e+06
2.12079e+06
1.57651e+06
1.10609e+06
1.61438e+06
1.73739e+06
2.49393e+06
509741
1.04407e+06
1.22295e+06
1.05959e+06
1.22001e+06
1.04946e+06
1.0686e+06
1.25014e+06
773303
821260
833655
869032
880491
923928
922644
2.09025e+06
1.07093e+06
1.27933e+06
1.62395e+06
2.34876e+06
1.08941e+06
1.38374e+06
909835
929434
1.04676e+06
1.00443e+06
1.01236e+06
888824
939588
783738
923687
882652
890863
1.06225e+06
1.00467e+06
942181
1.10183e+06
1.09687e+06
1.09341e+06
1.18415e+06
1.19175e+06
1.19156e+06
1.18662e+06
1.24768e+06
2.08474e+06
1.86871e+06
1.76964e+06
1.0783e+06
2.37131e+06
1.29533e+06
1.11074e+06
1.25825e+06
1.08053e+06
1.09389e+06
1.35911e+06
1.12973e+06
1.29373e+06
823988
983103
854230
977982
854997
890557
1.03013e+06
1.02374e+06
996724
1.03341e+06
1.14382e+06
1.10959e+06
1.13356e+06
1.12431e+06
911134
953294
907765
989708
1.03468e+06
1.04028e+06
987354
1.00686e+06
909732
916242
653670
683772
590734
966638
643246
877958
646059
1.19013e+06
734604
649915
860015
745942
1.10839e+06
620268
640302
662370
728327
755519
772553
750270
686335
711332
686510
790861
797789
810280
773848
654790
649977
647742
715210
734562
745044
719413
674930
654524
682813
705005
727409
705612
727018
668656
658972
653095
756005
732948
767970
724779
831262
754804
837081
895340
800403
799555
897034
853384
973273
865824
879060
979620
983599
869496
646015
666376
668009
715266
708098
729078
736715
893288
1.00613e+06
904517
993557
907683
995130
886643
825583
737665
825965
801240
912641
808917
901736
921024
790646
826228
835317
887683
930225
797252
845096
952466
817275
899959
856659
940574
805579
770733
888455
793030
871738
777245
799761
901556
975774
982020
870203
877077
1.12669e+06
990216
991628
801677
887696
786806
810616
946983
827967
920409
888631
1.04222e+06
1.02788e+06
1.15259e+06
907505
1.01155e+06
1.00597e+06
956186
1.03851e+06
978169
1.17476e+06
1.10006e+06
1.12961e+06
1.21903e+06
1.86476e+06
1.25793e+06
1.19222e+06
2.30906e+06
2.21676e+06
1.4149e+06
1.55909e+06
889433
878709
921358
961086
1.00172e+06
1.04966e+06
1.01864e+06
1.00042e+06
1.09397e+06
1.00092e+06
1.03629e+06
1.1266e+06
1.13754e+06
1.0318e+06
750704
757338
775030
840752
860750
889550
914634
936041
1.06033e+06
1.24397e+06
975966
1.31904e+06
1.1413e+06
1.10644e+06
1.05837e+06
1.01283e+06
1.03363e+06
1.15637e+06
1.16796e+06
1.17176e+06
1.1434e+06
1.10997e+06
1.12294e+06
1.11991e+06
1.19801e+06
1.20068e+06
1.21693e+06
1.20988e+06
804742
829407
880566
865139
922499
943418
994183
1.21069e+06
983847
1.02592e+06
1.04633e+06
1.2723e+06
1.24703e+06
1.00776e+06
878285
938370
881405
977085
1.05999e+06
1.04027e+06
985999
2.35059e+06
1.26909e+06
896161
254306
1.86452e+06
1.61884e+06
275452
1.38529e+06
1.45792e+06
1.18158e+06
1.49422e+06
1.21638e+06
1.25626e+06
1.60421e+06
1.26483e+06
1.37714e+06
1.25058e+06
1.37623e+06
1.39216e+06
1.25615e+06
1.25858e+06
979745
1.09099e+06
978484
1.02761e+06
1.17743e+06
1.14784e+06
1.04028e+06
769469
829500
798403
924820
887484
950821
1.00464e+06
1.07339e+06
1.09313e+06
1.38381e+06
1.33742e+06
1.11206e+06
1.30183e+06
1.04167e+06
945424
1.02602e+06
895324
937544
1.16049e+06
1.08897e+06
995973
1.163e+06
1.13391e+06
1.13605e+06
1.24591e+06
1.27372e+06
1.29061e+06
1.23397e+06
1.06033e+06
1.09476e+06
1.09742e+06
1.19958e+06
1.19222e+06
1.22081e+06
1.24021e+06
1.00737e+06
1.06595e+06
1.07344e+06
1.09366e+06
1.10372e+06
1.18447e+06
1.16802e+06
1.27607e+06
1.44325e+06
1.28127e+06
1.39733e+06
1.29145e+06
1.41378e+06
1.26843e+06
1.05893e+06
1.64942e+06
2.57772e+06
1.55351e+06
2.39826e+06
2.34807e+06
1.72297e+06
1.02872e+06
927884
966301
1.11882e+06
1.24151e+06
1.10661e+06
1.22175e+06
1.08328e+06
1.18244e+06
1.27702e+06
1.13193e+06
1.14492e+06
1.19817e+06
1.0749e+06
978726
1.05202e+06
938520
1.13932e+06
1.0078e+06
1.09036e+06
1.24223e+06
976558
992412
1.03841e+06
1.12044e+06
1.13944e+06
1.19402e+06
1.21834e+06
2.43338e+06
1.13701e+06
1.47689e+06
2.44273e+06
1.02198e+06
1.69194e+06
2.52432e+06
1.02911e+06
1.25641e+06
1.30953e+06
1.42277e+06
1.21537e+06
1.16983e+06
1.09745e+06
1.07453e+06
1.12177e+06
1.13092e+06
1.1688e+06
1.18034e+06
1.25419e+06
1.23551e+06
1.11917e+06
1.17196e+06
1.27593e+06
1.22877e+06
1.34635e+06
1.41511e+06
1.53306e+06
1.26057e+06
1.44522e+06
1.39128e+06
1.25037e+06
1.40972e+06
1.2477e+06
1.26772e+06
1.16861e+06
1.13823e+06
1.12751e+06
1.26079e+06
1.3566e+06
1.29176e+06
1.31426e+06
894733
1.02458e+06
938085
1.10304e+06
1.01713e+06
1.07956e+06
1.18054e+06
1.04194e+06
1.06474e+06
1.1004e+06
1.19889e+06
1.16517e+06
1.25278e+06
1.29934e+06
1.13134e+06
1.33969e+06
1.15407e+06
1.66777e+06
1.36812e+06
1.40199e+06
1.72264e+06
873012
872343
979047
932926
1.06008e+06
1.08494e+06
1.19981e+06
1.0047e+06
1.10874e+06
1.08205e+06
1.14584e+06
1.11533e+06
1.20522e+06
1.24532e+06
1.32844e+06
2.31465e+06
1.47162e+06
2.0056e+06
1.71253e+06
1.02902e+06
2.53592e+06
1.17347e+06
1.50038e+06
1.16983e+06
1.25926e+06
1.60343e+06
1.64438e+06
1.29082e+06
1.27734e+06
1.46934e+06
1.32142e+06
1.47748e+06
1.29983e+06
1.43484e+06
1.29077e+06
1.08751e+06
1.25853e+06
1.30513e+06
1.19542e+06
1.16054e+06
1.21887e+06
1.11177e+06
823990
1.00463e+06
846152
1.28525e+06
1.01803e+06
1.05637e+06
1.33006e+06
1.00611e+06
1.24684e+06
1.06734e+06
1.23589e+06
1.07788e+06
1.15269e+06
1.35005e+06
1.07062e+06
1.17202e+06
1.14094e+06
1.22954e+06
1.19453e+06
1.2786e+06
1.32409e+06
1.17207e+06
1.37558e+06
326003
1.47668e+06
656287
378799
272890
1.42357e+06
1.65085e+06
1.30275e+06
1.36515e+06
2.0114e+06
1.79585e+06
1.52641e+06
1.00939e+06
1.35808e+06
1.0431e+06
1.4094e+06
1.1297e+06
1.1744e+06
1.42706e+06
1.48424e+06
1.30116e+06
1.31456e+06
1.34915e+06
1.51339e+06
1.5422e+06
1.33184e+06
1.50038e+06
1.54011e+06
1.59548e+06
1.94393e+06
2.00485e+06
1.99366e+06
2.02999e+06
1.14704e+06
1.12403e+06
1.20615e+06
1.24209e+06
1.29649e+06
1.36031e+06
1.43814e+06
1.2056e+06
1.24714e+06
1.26589e+06
1.3305e+06
1.35252e+06
1.43439e+06
1.40647e+06
1.18692e+06
1.23288e+06
1.45133e+06
1.45237e+06
1.9239e+06
1.52341e+06
1.8065e+06
1.14202e+06
1.2593e+06
1.15631e+06
1.28485e+06
1.37461e+06
1.40679e+06
1.26096e+06
1.11611e+06
1.26811e+06
1.2434e+06
1.43141e+06
1.37858e+06
1.60925e+06
1.63681e+06
922299
1.05772e+06
877564
1.11456e+06
1.44283e+06
1.19808e+06
1.38598e+06
1.37506e+06
1.20539e+06
1.22423e+06
1.32271e+06
1.46303e+06
1.49912e+06
1.2968e+06
1.16672e+06
1.40551e+06
1.09325e+06
1.23834e+06
1.45488e+06
1.31655e+06
1.4447e+06
1.51745e+06
1.36178e+06
1.33057e+06
1.37233e+06
1.68097e+06
1.58704e+06
1.41469e+06
1.19024e+06
1.30323e+06
1.20637e+06
1.34917e+06
1.43592e+06
1.47025e+06
1.32317e+06
1.83469e+06
2.38247e+06
384101
2.28852e+06
683311
637573
283668
1.14775e+06
1.12031e+06
1.02012e+06
1.19241e+06
1.55511e+06
1.31652e+06
1.37766e+06
937273
1.15474e+06
1.02164e+06
1.34457e+06
1.18103e+06
1.3413e+06
1.46499e+06
1.66876e+06
1.78891e+06
1.67768e+06
2.19093e+06
2.09004e+06
2.07607e+06
2.12061e+06
1.22281e+06
1.33738e+06
1.29183e+06
1.43821e+06
1.38333e+06
1.47258e+06
1.54463e+06
1.12626e+06
1.15945e+06
1.20185e+06
1.2445e+06
1.29809e+06
1.31474e+06
1.43608e+06
365135
2.10262e+06
2.51009e+06
271956
256667
1.64977e+06
392789
1.3955e+06
1.91633e+06
1.59478e+06
1.66397e+06
1.79418e+06
1.44258e+06
1.58581e+06
1.39837e+06
1.7531e+06
1.43888e+06
1.58887e+06
1.62768e+06
1.46531e+06
1.37702e+06
1.37356e+06
1.42782e+06
1.18387e+06
1.29137e+06
2.00434e+06
1.57548e+06
1.5307e+06
1.33095e+06
1.25822e+06
1.16161e+06
1.25349e+06
1.62633e+06
1.3722e+06
1.47374e+06
1.40957e+06
1.29257e+06
1.24855e+06
1.3533e+06
1.62256e+06
1.54207e+06
1.40647e+06
1.21099e+06
1.28443e+06
1.17402e+06
1.31234e+06
1.50177e+06
1.44077e+06
1.36118e+06
1.18011e+06
1.36953e+06
1.27956e+06
1.44805e+06
1.36404e+06
1.53613e+06
1.66232e+06
1.4529e+06
1.55922e+06
1.68577e+06
1.19402e+06
1.55009e+06
849075
1.42082e+06
274171
1.92335e+06
1.99177e+06
2.06189e+06
2.28971e+06
2.14446e+06
2.36705e+06
2.13035e+06
1.39021e+06
1.60216e+06
1.34769e+06
1.51261e+06
2.03649e+06
1.57857e+06
1.93259e+06
1.29526e+06
1.49721e+06
1.31657e+06
1.4122e+06
1.59308e+06
1.63674e+06
1.38351e+06
1.55403e+06
1.29295e+06
1.31592e+06
1.80197e+06
1.43204e+06
1.46489e+06
1.85465e+06
987923
1.36822e+06
1.08505e+06
1.48485e+06
1.30441e+06
1.41071e+06
1.49777e+06
1.57353e+06
1.56928e+06
1.62028e+06
1.56756e+06
1.82362e+06
1.8287e+06
1.5425e+06
1.46165e+06
1.29325e+06
1.38428e+06
1.88564e+06
1.61139e+06
1.80099e+06
2.11018e+06
1.33242e+06
1.26925e+06
1.22755e+06
1.38141e+06
1.58535e+06
1.5108e+06
1.43811e+06
1.547e+06
1.68086e+06
1.37807e+06
2.07403e+06
1.62103e+06
1.75216e+06
2.24271e+06
1.32064e+06
1.44604e+06
1.34502e+06
1.5436e+06
1.65286e+06
1.70209e+06
1.50769e+06
1.22614e+06
1.23346e+06
1.29864e+06
1.34385e+06
1.4328e+06
1.4093e+06
1.57992e+06
996488
1.22745e+06
1.07561e+06
930328
1.09738e+06
1.33501e+06
1.50689e+06
935871
343567
254541
260209
1.23814e+06
270484
253774
1.26866e+06
1.5178e+06
1.38594e+06
1.44204e+06
1.39737e+06
1.46116e+06
1.38955e+06
1.59471e+06
2.19321e+06
1.75563e+06
2.34991e+06
1.83556e+06
2.02249e+06
2.28345e+06
1.42822e+06
1.83554e+06
1.57971e+06
1.81348e+06
1.68896e+06
1.48445e+06
1.50338e+06
1.53921e+06
1.39528e+06
1.34438e+06
1.44803e+06
1.82785e+06
1.70016e+06
1.51372e+06
1.3732e+06
1.33597e+06
1.50557e+06
1.49984e+06
1.52281e+06
1.59613e+06
1.491e+06
1.75793e+06
1.59637e+06
1.6836e+06
1.82679e+06
1.41109e+06
1.80696e+06
1.49445e+06
1.44388e+06
1.62139e+06
1.55878e+06
1.93485e+06
1.60143e+06
1.66807e+06
1.41007e+06
1.43443e+06
1.48569e+06
1.37751e+06
1.59434e+06
1.92286e+06
1.77725e+06
1.69682e+06
1.47935e+06
1.42547e+06
1.55544e+06
1.61537e+06
1.83025e+06
1.7033e+06
2.05143e+06
1.43996e+06
1.4715e+06
1.33948e+06
1.3743e+06
1.28093e+06
1.43137e+06
1.47086e+06
2.30642e+06
2.22954e+06
1.75963e+06
1.81486e+06
2.45898e+06
2.34596e+06
2.27753e+06
1.44622e+06
1.90308e+06
1.51995e+06
2.16118e+06
1.66878e+06
1.78976e+06
2.2883e+06
1.92787e+06
1.52294e+06
1.55764e+06
1.69406e+06
2.06068e+06
2.11818e+06
1.64609e+06
1.38904e+06
1.24126e+06
1.43386e+06
1.79178e+06
1.46942e+06
1.66479e+06
2.11448e+06
1.38305e+06
1.41042e+06
1.27543e+06
1.61494e+06
1.44664e+06
1.60767e+06
1.84653e+06
1.36961e+06
1.83192e+06
1.51445e+06
1.78825e+06
1.50266e+06
1.69465e+06
2.12809e+06
1.42344e+06
2.27985e+06
2.0156e+06
2.00887e+06
1.5885e+06
1.76451e+06
1.7364e+06
1.72053e+06
1.50205e+06
1.43716e+06
1.87326e+06
1.76651e+06
2.0586e+06
1.77286e+06
1.62314e+06
1.86215e+06
1.48567e+06
1.92186e+06
2.49681e+06
2.39307e+06
2.12694e+06
1.34482e+06
1.66013e+06
1.48407e+06
1.73701e+06
1.54631e+06
1.77394e+06
2.05955e+06
1.10774e+06
674932
660581
1.39472e+06
1.1312e+06
1.10399e+06
620107
934270
969607
1.33102e+06
903152
1.33917e+06
930843
1.44586e+06
1.47841e+06
1.36311e+06
740429
633757
727897
697593
714017
745293
837560
860409
651959
765672
736397
800728
769200
893658
940347
843771
743940
704923
805202
858476
1.00807e+06
1.10426e+06
1.39845e+06
1.41855e+06
367306
450653
1.54497e+06
730921
257428
803851
1.00307e+06
825252
1.30961e+06
1.01273e+06
1.04869e+06
1.35312e+06
1.29238e+06
906531
1.2565e+06
1.4459e+06
1.10848e+06
1.1486e+06
1.45934e+06
862768
987118
794913
1.03649e+06
931506
1.23803e+06
1.39627e+06
1.03336e+06
975337
1.34009e+06
1.20858e+06
1.48148e+06
1.28677e+06
1.47355e+06
897711
1.05496e+06
855695
1.10375e+06
1.46319e+06
1.18263e+06
1.40826e+06
751664
589814
502893
891091
700318
473690
544399
654057
797879
687260
609391
1.33533e+06
655625
645277
541839
950945
725081
483210
470568
525106
479908
535306
522538
533208
501967
492486
490658
557526
545798
545961
561267
533667
519270
514871
573407
595884
581506
608577
494293
555952
504571
607960
550360
562240
621510
584638
666686
595761
662480
585712
598062
676941
532836
571095
517439
577407
662139
596161
639482
622834
681711
608102
613409
718663
632354
695392
773076
810298
1.38083e+06
1.49844e+06
872464
1.3e+06
1.28073e+06
592923
571604
559436
665110
626119
643562
687598
614050
579264
552854
691613
620525
652132
729760
642710
758326
669931
749202
657130
689504
789506
688636
706869
620083
633866
819236
723331
704792
713600
656227
635073
714111
774991
742267
810559
734590
613178
684817
692244
844675
779225
742692
705770
861336
802435
730904
917014
843329
783633
651820
755285
774396
849288
674536
745320
726615
793986
814072
704150
742757
1.03833e+06
868328
846315
1.02603e+06
829637
951614
751186
783802
851221
899514
708047
798182
883140
934289
807110
893094
1.06506e+06
942121
1.05843e+06
886742
1.02314e+06
852314
946184
1.18519e+06
793177
1.05443e+06
1.01968e+06
1.1667e+06
943947
917696
860402
1.44552e+06
1.22337e+06
1.11458e+06
1.47569e+06
1.37644e+06
1.45933e+06
1.44505e+06
1.04465e+06
1.23662e+06
957718
1.50806e+06
1.2867e+06
1.40329e+06
1.52823e+06
1.26899e+06
1.19478e+06
1.0041e+06
974085
1.20834e+06
856718
1.01549e+06
1.09642e+06
1.19324e+06
956737
1.27586e+06
1.46028e+06
1.51759e+06
1.5509e+06
1.54229e+06
1.17373e+06
1.48759e+06
1.21912e+06
953344
1.09093e+06
1.42155e+06
1.1471e+06
1.56026e+06
1.48478e+06
1.23684e+06
991494
1.08385e+06
1.40707e+06
1.47804e+06
1.50883e+06
1.38384e+06
1.41625e+06
1.28477e+06
1.50639e+06
1.46688e+06
1.53621e+06
1.47663e+06
1.17193e+06
1.49746e+06
1.4296e+06
1.50821e+06
1.54248e+06
1.46685e+06
1.48269e+06
1.3512e+06
1.51288e+06
1.23241e+06
1.37159e+06
1.52077e+06
1.55381e+06
1.49106e+06
1.48978e+06
1.48995e+06
1.07799e+06
1.27983e+06
1.45981e+06
2.01993e+06
1.71823e+06
1.61053e+06
1.76942e+06
2.30411e+06
2.19394e+06
1.91523e+06
1.41421e+06
1.44263e+06
1.36577e+06
1.20716e+06
1.4495e+06
1.41049e+06
1.46471e+06
1.38654e+06
1.22306e+06
1.47455e+06
1.48309e+06
1.36976e+06
1.46741e+06
1.49886e+06
1.48131e+06
1.85699e+06
2.03386e+06
1.75411e+06
1.65285e+06
1.73148e+06
1.549e+06
1.95791e+06
1.70784e+06
1.79975e+06
1.97418e+06
1.35232e+06
1.89806e+06
1.7262e+06
1.53771e+06
1.79264e+06
1.66754e+06
2.15e+06
1.85227e+06
1.71787e+06
1.50053e+06
1.39008e+06
1.95387e+06
1.55013e+06
2.21228e+06
1.70089e+06
1.93796e+06
2.45865e+06
1.47873e+06
1.40587e+06
1.21253e+06
1.49921e+06
1.44574e+06
1.45349e+06
1.48858e+06
1.89727e+06
2.44469e+06
2.40512e+06
2.44899e+06
2.00925e+06
2.39441e+06
2.33952e+06
1.83083e+06
1.5793e+06
1.87844e+06
1.27737e+06
1.74862e+06
1.63181e+06
1.06993e+06
1.76064e+06
2.06638e+06
1.62019e+06
1.9494e+06
2.45227e+06
2.39574e+06
2.14369e+06
2.34835e+06
2.12911e+06
2.34802e+06
2.03283e+06
1.20246e+06
1.96276e+06
1.40537e+06
1.49707e+06
2.19683e+06
1.71886e+06
2.08443e+06
1.64917e+06
1.95077e+06
2.42796e+06
2.03547e+06
1.93773e+06
1.70222e+06
2.21724e+06
2.32894e+06
2.47372e+06
2.36035e+06
253330
253869
907165
253408
255034
253939
253257
2.32319e+06
2.1958e+06
2.33573e+06
1.64785e+06
2.09246e+06
2.07165e+06
1.55126e+06
1.58518e+06
2.23467e+06
2.11583e+06
1.93713e+06
1.94791e+06
1.7916e+06
1.6788e+06
2.18732e+06
2.21701e+06
2.17129e+06
2.39058e+06
2.40471e+06
2.06435e+06
1.91382e+06
1.54657e+06
2.04222e+06
1.79515e+06
2.18214e+06
1.91485e+06
2.29786e+06
2.46659e+06
1.46922e+06
1.45813e+06
1.15757e+06
1.43824e+06
1.56516e+06
1.43863e+06
1.56453e+06
1.43668e+06
1.62811e+06
1.59511e+06
1.49361e+06
1.31653e+06
1.62687e+06
1.59495e+06
1.53732e+06
1.39344e+06
1.65353e+06
1.63489e+06
1.34246e+06
1.64083e+06
1.5833e+06
1.26935e+06
1.52077e+06
1.51843e+06
1.54498e+06
1.30573e+06
1.55344e+06
1.4836e+06
1.53782e+06
1.51593e+06
1.51335e+06
1.48677e+06
1.53903e+06
1.53532e+06
1.30071e+06
1.38911e+06
1.2859e+06
1.46824e+06
1.45763e+06
702374
1.15024e+06
1.28744e+06
2.48144e+06
2.39174e+06
2.1282e+06
2.24673e+06
2.09754e+06
2.33849e+06
2.25678e+06
1.89504e+06
2.23107e+06
2.32274e+06
2.07593e+06
2.13399e+06
2.26976e+06
1.83196e+06
1.80006e+06
2.48477e+06
2.02804e+06
2.53657e+06
2.33941e+06
2.49203e+06
2.50704e+06
2.48207e+06
2.46184e+06
2.14839e+06
2.29785e+06
2.27942e+06
2.49009e+06
2.49231e+06
1.95374e+06
1.83265e+06
1.57662e+06
1.9347e+06
2.59094e+06
2.30939e+06
2.45141e+06
1.55207e+06
1.64016e+06
1.56841e+06
1.41063e+06
1.57928e+06
1.33834e+06
987892
2.26221e+06
2.37843e+06
2.48517e+06
2.36313e+06
2.30118e+06
2.51516e+06
2.15889e+06
992630
1.14051e+06
1.34289e+06
1.52655e+06
1.51033e+06
1.46752e+06
1.319e+06
936284
1.25337e+06
1.52237e+06
1.55484e+06
1.49331e+06
1.51856e+06
1.40529e+06
1.95221e+06
2.43103e+06
2.33186e+06
2.3889e+06
2.17553e+06
2.45609e+06
2.29346e+06
1.9914e+06
2.3411e+06
2.29883e+06
2.32201e+06
2.21247e+06
2.30849e+06
2.1466e+06
2.09994e+06
1.95978e+06
1.67981e+06
1.95675e+06
2.5085e+06
2.32362e+06
2.43389e+06
1.52191e+06
1.4974e+06
1.50301e+06
1.16623e+06
1.44277e+06
1.27731e+06
822094
2.12822e+06
1.72873e+06
2.0095e+06
1.57428e+06
2.06901e+06
1.87652e+06
1.08675e+06
1.34253e+06
1.22117e+06
948014
1.43263e+06
1.33675e+06
1.51153e+06
1.51053e+06
1.08351e+06
2.47418e+06
867769
472237
952899
866787
1.20046e+06
762909
1.18878e+06
1.18077e+06
767445
1.20004e+06
983828
1.37043e+06
1.41461e+06
1.07079e+06
1.35173e+06
974250
1.40542e+06
864695
861541
856348
934550
929032
924177
931708
873989
863288
856894
940498
931025
924867
933839
1.34441e+06
1.29539e+06
722186
724595
1.29505e+06
949149
1.35271e+06
1.01294e+06
1.50473e+06
1.30368e+06
998998
1.49979e+06
1.27856e+06
2.46765e+06
827889
757348
822098
896088
845831
837916
904288
759000
829323
822727
896464
849255
905118
839171
1.08624e+06
1.07328e+06
1.07486e+06
1.17511e+06
1.19198e+06
1.17811e+06
1.18987e+06
2.26048e+06
1.52345e+06
1.44136e+06
1.41553e+06
2.26336e+06
1.52738e+06
484494
1.0393e+06
1.17278e+06
1.02709e+06
1.0268e+06
1.20484e+06
1.18922e+06
1.03867e+06
1.16994e+06
1.03281e+06
1.02485e+06
1.02579e+06
1.20017e+06
1.03572e+06
1.18763e+06
1.06939e+06
1.07184e+06
1.07014e+06
1.16645e+06
1.1707e+06
1.1665e+06
1.17057e+06
1.02844e+06
972567
1.0169e+06
1.12862e+06
1.10939e+06
1.09624e+06
1.14288e+06
968761
1.01628e+06
1.01237e+06
1.12184e+06
1.09805e+06
1.12555e+06
1.09161e+06
539063
858320
960908
878579
632853
549511
957187
630197
870445
672352
1.10946e+06
780658
662294
851575
761253
1.0962e+06
540355
606779
606299
726375
685807
727686
686566
566588
612091
622863
731577
708687
741193
694802
629691
655160
650139
718985
719461
723670
713006
634210
646643
645927
719525
711426
724746
709997
667236
706230
699577
734258
716301
741255
709991
658344
689099
694001
729576
704749
705673
728119
772167
846433
854888
808747
907819
817447
898025
840117
765806
841312
803096
893940
801416
893117
844611
828451
969645
953350
848669
961893
825051
847384
952870
839284
965310
854742
960766
829801
813847
920997
792413
869213
820465
911857
784864
813169
866128
913576
785208
818066
909298
782161
790304
774920
886632
849480
798048
767461
877404
786770
846866
766233
879435
764185
788621
874648
868882
976886
988970
1.09441e+06
878520
965292
977079
864275
1.08964e+06
966186
975656
865865
961327
972347
715038
744698
735903
825061
815596
861798
873050
715824
744809
735854
826459
816092
861689
872737
999917
964934
1.18911e+06
1.18481e+06
1.17419e+06
954118
1.01092e+06
1.00007e+06
1.18494e+06
1.18802e+06
967036
1.01114e+06
1.174e+06
954977
1.25792e+06
1.27023e+06
1.38271e+06
1.35507e+06
1.36667e+06
1.25438e+06
1.27477e+06
1.24785e+06
1.34741e+06
1.24462e+06
1.36438e+06
1.24951e+06
1.35873e+06
1.24451e+06
971348
1.00158e+06
960788
1.11317e+06
1.10068e+06
1.16967e+06
1.18342e+06
958189
1.00642e+06
964939
1.10624e+06
1.09785e+06
1.16714e+06
1.17691e+06
1.24027e+06
1.24844e+06
1.39175e+06
1.39897e+06
1.37588e+06
1.23397e+06
1.25605e+06
1.23273e+06
1.39507e+06
1.37734e+06
1.23695e+06
1.23758e+06
1.36966e+06
1.2292e+06
1.12653e+06
1.28398e+06
1.11191e+06
1.33869e+06
1.65255e+06
1.62527e+06
1.3575e+06
1.10794e+06
1.28892e+06
1.11605e+06
1.3343e+06
1.63408e+06
1.34576e+06
1.61859e+06
1.26157e+06
810522
939081
799726
982751
1.2449e+06
997435
987946
1.28142e+06
975041
1.08862e+06
1.39492e+06
1.38891e+06
1.10439e+06
1.28152e+06
988141
975235
1.0881e+06
1.39667e+06
1.10252e+06
1.38962e+06
937742
808950
799112
981773
1.25651e+06
994551
1.2433e+06
1.41948e+06
1.51544e+06
1.49321e+06
1.92075e+06
1.89406e+06
1.96141e+06
1.97565e+06
1.42987e+06
1.5073e+06
1.49068e+06
1.90655e+06
1.88928e+06
1.9601e+06
1.97104e+06
1.283e+06
1.48834e+06
1.2687e+06
1.3998e+06
1.77331e+06
1.7526e+06
1.41629e+06
1.48636e+06
1.27623e+06
1.26598e+06
1.3975e+06
1.76878e+06
1.41009e+06
1.7508e+06
1.546e+06
1.51594e+06
1.52915e+06
1.81293e+06
1.56652e+06
1.57582e+06
1.81271e+06
1.51746e+06
1.5441e+06
1.5288e+06
1.81567e+06
1.57868e+06
1.81933e+06
1.58031e+06
1.4686e+06
1.3057e+06
1.43977e+06
1.36021e+06
1.44386e+06
1.46956e+06
1.3186e+06
1.30497e+06
1.3634e+06
1.44382e+06
1.4709e+06
1.31661e+06
1.44549e+06
1.4705e+06
1.70792e+06
2.47237e+06
2.27811e+06
2.19829e+06
1.725e+06
2.26439e+06
2.18376e+06
1.71314e+06
2.28908e+06
2.21511e+06
2.47435e+06
2.26863e+06
2.19035e+06
1.73896e+06
2.27603e+06
2.31554e+06
2.31403e+06
2.10856e+06
1.70363e+06
2.10362e+06
1.7266e+06
719449
880919
1.34882e+06
995858
610774
889171
949318
1.35762e+06
614053
689759
606262
680720
709859
815170
826329
605007
716067
686498
679494
708602
813838
822692
1.22464e+06
1.23842e+06
893290
1.43708e+06
1.08952e+06
1.07422e+06
1.43195e+06
793285
1.28777e+06
953697
940087
782485
981536
1.27147e+06
1.23404e+06
879498
1.22325e+06
1.07249e+06
1.43649e+06
1.0844e+06
1.43179e+06
938569
789764
781197
979894
1.28223e+06
991044
1.26964e+06
539274
786489
641317
463688
465540
536345
644349
783682
463450
513592
459556
509885
459064
509472
514527
460387
463144
516544
510878
458790
509265
514460
601398
488601
532785
483090
537318
543362
593989
572467
635851
568157
570754
651995
576625
644944
531608
486654
482247
536629
598724
541896
592924
636823
575706
569205
570641
652232
576782
644884
680224
604663
696574
775883
611689
688055
671515
604083
774809
677632
695391
610456
687514
670497
1.48057e+06
1.36617e+06
1.5072e+06
1.35383e+06
1.36529e+06
1.50906e+06
1.48572e+06
1.35255e+06
1.36864e+06
1.48442e+06
1.5096e+06
1.36246e+06
1.51e+06
1.48737e+06
1.68317e+06
2.09766e+06
2.32212e+06
2.27495e+06
2.31616e+06
2.10614e+06
1.71932e+06
920281
1.15604e+06
1.64353e+06
1.66695e+06
496843
964335
1.18931e+06
1.67373e+06
502096
946560
1.1769e+06
1.66184e+06
974525
1.19702e+06
1.54733e+06
765361
835823
1.34654e+06
1.43931e+06
1.10411e+06
450811
880060
1.62779e+06
1.12473e+06
1.56567e+06
395755
774857
1.03468e+06
2.02914e+06
943034
1.31528e+06
1.24753e+06
1.93904e+06
1.68582e+06
1.61992e+06
1.79835e+06
1.47319e+06
1.87492e+06
1.42809e+06
518033
794776
1.1081e+06
2.32784e+06
952278
1.84615e+06
1.6257e+06
2.27215e+06
1.65953e+06
685844
2.31656e+06
2.32113e+06
1.80358e+06
2.0997e+06
2.52412e+06
2.53667e+06
2.54155e+06
2.04353e+06
2.27248e+06
1.75664e+06
2.24433e+06
2.54773e+06
2.51209e+06
2.57644e+06
2.18441e+06
2.45821e+06
2.051e+06
2.30603e+06
1.63702e+06
2.11023e+06
1.20278e+06
2.34636e+06
2.19984e+06
1.87791e+06
2.25754e+06
2.35569e+06
2.49741e+06
2.48496e+06
1.46696e+06
499582
738323
342506
1.31507e+06
640490
904667
2.42336e+06
2.37316e+06
2.43245e+06
2.12414e+06
2.46069e+06
2.48708e+06
2.50562e+06
2.54122e+06
2.5533e+06
2.18992e+06
2.44442e+06
2.21601e+06
2.52501e+06
2.55717e+06
2.56103e+06
2.49574e+06
2.28957e+06
2.54885e+06
2.11678e+06
2.49152e+06
2.38539e+06
2.06931e+06
1.34398e+06
1.98422e+06
970004
1.75025e+06
1.32262e+06
525612
1.39654e+06
644714
832732
479550
930728
1.10822e+06
1.26085e+06
2.54328e+06
2.39209e+06
2.39207e+06
2.40123e+06
2.53371e+06
2.19845e+06
1.72055e+06
1.04601e+06
1.44373e+06
1.56671e+06
1.01047e+06
474705
1.04665e+06
1.44432e+06
1.38676e+06
1.32842e+06
1.55147e+06
875434
401706
983611
1.41026e+06
356094
770972
520859
1.18351e+06
1.03597e+06
1.47268e+06
1.37225e+06
1.33362e+06
1.42717e+06
1.56089e+06
1.39349e+06
841373
994974
403291
2.27938e+06
2.40832e+06
2.3547e+06
2.46824e+06
1.51935e+06
2.32894e+06
2.01144e+06
736600
893759
358248
1.35617e+06
822250
1.6736e+06
1.41499e+06
1.1329e+06
1.39796e+06
800804
603143
279368
386623
1.02405e+06
1.31327e+06
713114
313903
1.16371e+06
544550
1.50525e+06
1.14429e+06
2.4359e+06
2.29108e+06
2.3512e+06
2.43215e+06
2.57931e+06
2.55487e+06
2.57839e+06
2.51837e+06
1.7133e+06
2.27641e+06
2.07788e+06
2.49047e+06
2.02502e+06
1.06686e+06
2.5235e+06
2.07601e+06
2.3117e+06
2.14437e+06
2.42194e+06
1.7991e+06
1.15605e+06
1.61074e+06
565626
1.25324e+06
340560
725856
429928
275133
1.94875e+06
1.28956e+06
2.15735e+06
1.3757e+06
328702
461091
1.00166e+06
383160
556378
1.09917e+06
832134
262537
308172
402549
2.19128e+06
2.30421e+06
2.52179e+06
2.46078e+06
965439
1.86315e+06
2.05897e+06
1.17952e+06
1.09746e+06
1.4342e+06
942161
291550
519364
459351
2.42503e+06
827212
1.85455e+06
1.33491e+06
2.23189e+06
1.35792e+06
435440
2.56394e+06
1.94121e+06
1.74978e+06
2.12298e+06
2.35671e+06
2.5093e+06
2.43961e+06
1.5712e+06
2.01337e+06
1.31387e+06
1.36065e+06
286533
645595
508118
259692
840285
576746
596807
253283
253347
879870
253714
2.17696e+06
1.56179e+06
253274
1.48198e+06
253263
253245
254320
253245
253245
855013
253270
253245
253245
1.42502e+06
253365
253245
253245
253245
1.44178e+06
253268
253245
253245
253245
253245
253246
253245
253245
253245
253245
253245
253245
253245
253245
253245
253245
253245
253245
253245
253245
253245
253245
253245
253245
253245
253245
253245
253245
253245
2.10527e+06
1.54248e+06
1.66782e+06
1.52954e+06
2.16755e+06
1.66455e+06
2.0757e+06
259177
266330
1.03682e+06
1.48205e+06
267061
869784
259525
1.5008e+06
271360
1.06338e+06
1.24258e+06
481195
971722
272443
1.44147e+06
289762
254426
1.19347e+06
287727
311503
254487
376053
2.18692e+06
2.28696e+06
1.87619e+06
1.45938e+06
2.18345e+06
265608
1.56373e+06
1.52744e+06
1.54735e+06
1.8688e+06
1.83508e+06
1.81735e+06
1.88489e+06
1.52164e+06
1.55039e+06
1.54095e+06
1.86565e+06
1.82906e+06
1.88095e+06
1.814e+06
1.59474e+06
1.65004e+06
1.57729e+06
1.94231e+06
2.08579e+06
2.07128e+06
1.95846e+06
1.64805e+06
1.58496e+06
1.57247e+06
1.94053e+06
2.08648e+06
1.95698e+06
2.07069e+06
1.24835e+06
1.48526e+06
1.2312e+06
1.48411e+06
1.4999e+06
1.45312e+06
1.44116e+06
1.22923e+06
1.48624e+06
1.50197e+06
1.48464e+06
1.50044e+06
1.45574e+06
1.44792e+06
253249
343309
613215
627448
254370
269416
253249
1.44248e+06
1.40253e+06
1.40881e+06
1.23657e+06
1.24644e+06
984719
967001
1.43938e+06
1.22865e+06
1.39672e+06
1.4065e+06
1.24336e+06
980024
954774
974902
842702
943471
448665
378211
423708
357810
1.39809e+06
1.32096e+06
1.47544e+06
1.47687e+06
1.40718e+06
1.33913e+06
1.06546e+06
1.47925e+06
1.40585e+06
1.41002e+06
1.3344e+06
1.34393e+06
1.07077e+06
1.05088e+06
720316
790607
899450
357457
309748
392492
333485
2.40549e+06
1.87466e+06
2.27062e+06
1.85615e+06
2.25684e+06
2.27776e+06
2.40897e+06
1.8563e+06
2.26584e+06
2.25517e+06
2.28373e+06
2.27614e+06
2.40562e+06
2.39689e+06
753140
553453
709267
283048
319041
306408
276999
2.19472e+06
2.18894e+06
2.2184e+06
2.20822e+06
2.19104e+06
2.1883e+06
2.16524e+06
253951
253325
1.23229e+06
1.52548e+06
267438
368792
258537
2.20352e+06
2.1789e+06
2.16818e+06
2.16131e+06
2.20997e+06
2.17522e+06
2.16085e+06
253245
253245
253245
474619
253261
253245
253245
871797
626386
253245
253245
253245
253245
253245
253245
253246
253245
253245
253245
253349
253245
253245
253245
346919
253246
253245
275165
253245
253245
253246
253245
253245
799170
253257
253245
253245
990294
253246
253245
253245
253245
560469
253821
253245
253245
253245
253245
253245
253245
253245
253245
253245
253245
253245
253245
253245
253245
253245
253245
253245
253245
253245
253245
253245
253245
253245
253245
1.92153e+06
253258
253268
833002
253259
253245
253246
253245
253245
1.45169e+06
253264
253245
253245
1.4976e+06
253340
253245
253245
253245
1.25631e+06
253264
253245
253245
253245