/*--------------------------------*- C++ -*----------------------------------*\
  =========                 |
  \\      /  F ield         | OpenFOAM: The Open Source CFD Toolbox
   \\    /   O peration     | Website:  https://openfoam.org
    \\  /    A nd           | Version:  9
     \\/     M anipulation  |
\*---------------------------------------------------------------------------*/
FoamFile
{
    format      ascii;
    class       volScalarField;
    location    "0.00145";
    object      alpha.c4;
}
// * * * * * * * * * * * * * * * * * * * * * * * * * * * * * * * * * * * * * //

dimensions      [0 0 0 0 0 0 0];

internalField   nonuniform List<scalar> 
11043
(
0.609256
0.583913
0.609703
0.551435
0.457718
0.61078
0.616276
0.58268
0.541623
0.371422
0.521129
0.273574
0.616862
0.585384
0.516821
0.444882
0.6156
0.621062
0.622431
0.59862
0.596752
0.599862
0.594358
0.620035
0.600222
0.605549
0.577949
0.573342
0.546445
0.540063
0.543711
0.60619
0.581535
0.524987
0.556955
0.516305
0.470551
0.613714
0.607105
0.61663
0.595287
0.571164
0.586583
0.588703
0.610386
0.612123
0.611666
0.598223
0.598426
0.598958
0.597868
0.575565
0.580546
0.591134
0.511866
0.525095
0.51918
0.50748
0.607058
0.607927
0.61041
0.596292
0.593276
0.592589
0.59629
0.513046
0.564129
0.555198
0.495222
0.439426
0.486401
0.44665
0.575877
0.557435
0.502407
0.574002
0.498187
0.539055
0.554078
0.438162
0.470688
0.378966
0.432732
0.511605
0.46475
0.374158
0.561732
0.557308
0.581401
0.580282
0.560489
0.555722
0.581844
0.348996
0.330873
0.429178
0.440068
0.329232
0.345816
0.42597
0.577382
0.575346
0.544241
0.557253
0.551662
0.571996
0.579567
0.568858
0.521623
0.518526
0.484496
0.531931
0.543101
0.559075
0.453885
0.412374
0.492157
0.440426
0.306919
0.352573
0.391882
0.416996
0.28305
0.359916
0.313724
0.326894
0.4064
0.367704
0.519589
0.0679542
0.35301
0.131424
0.379058
0.533272
0.429721
0.374713
0.157621
0.279847
0.0271754
0.185828
0.2256
0.342731
0.0848491
0.033663
0.531606
0.524348
0.522301
0.494698
0.479951
0.477559
0.492734
0.337525
0.276105
0.272528
0.23973
0.177553
0.175267
0.235588
0.507198
0.527294
0.516971
0.471007
0.477647
0.45877
0.487395
0.424843
0.49425
0.490998
0.340025
0.431187
0.427513
0.335183
0.226108
0.244967
0.243122
0.13439
0.150595
0.149632
0.134348
0.464634
0.409292
0.481892
0.416881
0.290127
0.319787
0.396548
0.218735
0.318367
0.255654
0.16398
0.190163
0.220411
0.138968
0.196447
0.21515
0.22965
0.141311
0.110299
0.128257
0.120167
0.443052
0.346881
0.421526
0.419062
0.372786
0.344741
0.440986
0.411684
0.423133
0.32211
0.366263
0.337327
0.39741
0.434842
0.243521
0.265263
0.35289
0.349396
0.155412
0.262658
0.239729
0.338665
0.235514
0.203315
0.14746
0.253692
0.227332
0.317817
0.148895
0.0539787
0.101736
0.100523
0.0836734
0.146388
0.0534068
0.0941266
0.117396
0.0426836
0.0786146
0.136777
0.0501488
0.0797535
0.0706527
0.0411214
0.08216
0.0816819
0.0336141
0.0408667
0.0706593
0.077147
0.0326805
0.0578334
0.0319359
0.0385507
0.0674241
0.0655229
0.00096897
1.55991e-07
3.11053e-06
0.000787436
0.00428897
1.95546e-08
0.00037793
4.30344e-08
0.000546017
5.64529e-06
0.0051464
9.17352e-08
1.79079e-06
0.00342134
2.92157e-10
9.66934e-09
0.000101746
0.000454104
0.00506089
0.00283944
0.00278194
0.00117409
0.00114355
0.000522218
0.000540066
9.58291e-07
3.61401e-07
0.00066856
2.38069e-06
8.21451e-07
6.29031e-11
2.03513e-11
0.00482745
0.00227263
0.00262215
0.000898854
0.00106289
0.00047522
0.000386306
0.00239567
0.00173822
0.00114552
0.000663565
0.00041695
0.000268034
0.000154601
2.78265e-09
0.000455124
4.82265e-05
3.33851e-07
4.72699e-09
8.38935e-12
8.202e-13
0.00146636
0.000315043
0.000647398
9.83953e-05
0.000221051
7.30228e-05
2.79564e-05
0.00103136
0.000473873
0.00123275
0.000171204
3.28307e-05
4.56774e-05
0.000131887
0.000526366
0.00136896
0.0013326
0.000193665
5.72428e-05
5.38865e-05
0.000202356
0.000142102
0.000745595
0.000255051
1.90338e-05
8.41444e-05
4.32635e-05
8.55235e-06
0.00093359
0.000220078
0.000253526
0.000241143
0.000209463
3.28357e-05
3.55814e-05
5.25567e-06
0.000139345
0.000133044
4.41689e-05
1.39609e-06
4.68277e-05
1.29262e-06
9.14141e-05
4.39272e-06
0.000117809
3.78174e-05
7.25385e-07
2.76397e-05
1.06043e-06
0.000838517
0.000134967
0.000155311
0.000208918
0.000181547
2.62807e-05
1.69954e-05
5.92481e-05
8.23864e-07
3.11707e-05
3.96211e-07
1.64055e-05
7.71354e-06
1.7083e-07
2.45546e-05
0.000233606
6.5443e-05
1.7843e-05
8.17348e-07
2.97639e-06
5.8337e-06
0.000260268
8.1528e-05
9.34958e-05
4.4375e-05
3.87759e-05
8.34958e-06
3.01911e-06
4.35564e-06
3.04594e-07
1.30688e-05
2.87241e-06
1.67218e-08
8.60319e-07
5.89886e-08
1.08677e-05
3.92913e-08
2.08231e-06
2.78695e-07
1.9096e-06
1.16934e-05
2.55796e-07
0.000124404
3.89309e-06
4.47558e-06
1.63642e-05
1.42625e-05
8.06413e-07
1.70672e-07
8.95622e-06
1.33772e-07
9.90624e-07
3.08252e-08
1.52046e-06
6.13671e-06
2.04357e-07
6.91632e-08
5.061e-07
3.33399e-06
1.4217e-06
3.72861e-09
2.00117e-07
2.82003e-08
2.50335e-05
8.54205e-07
2.30594e-05
1.58074e-06
4.52378e-08
1.77983e-06
3.99169e-08
3.90426e-05
2.09507e-06
3.59465e-05
2.13524e-06
8.35818e-08
7.28846e-08
2.41382e-06
6.29871e-07
1.17632e-05
1.83557e-05
1.1556e-06
1.58015e-08
6.53823e-07
2.86584e-08
1.83347e-05
1.49998e-06
2.86102e-05
1.54658e-06
2.71071e-08
5.10051e-08
8.61816e-07
5.72111e-06
5.09034e-08
2.06214e-06
6.52913e-09
2.76814e-07
8.7827e-08
2.04695e-09
4.85577e-07
2.44773e-09
1.15215e-09
1.6052e-08
6.27552e-08
1.3284e-07
9.2182e-09
8.89862e-06
1.01031e-07
3.1671e-06
1.07195e-08
3.57615e-07
1.10724e-07
3.19085e-09
1.2939e-08
1.20875e-07
5.58001e-07
2.15809e-08
1.07832e-10
4.5031e-09
5.04117e-10
1.71962e-07
2.38145e-08
8.2958e-07
2.65469e-08
1.53016e-10
7.55828e-10
5.38075e-09
0.198379
0.00291269
6.56285e-05
0.102383
0.175618
0.0917881
0.0260438
0.0187371
0.00477228
0.00329803
0.155708
0.191352
0.150054
0.113509
0.109413
0.0852105
0.082046
0.138415
0.117687
0.148038
0.0836396
0.100138
0.0753914
0.0634654
0.0262765
0.000789123
0.00108484
0.0223894
1.31747e-05
5.92264e-06
0.00216237
0.0587255
0.0988796
0.0569247
0.0293188
0.053399
0.0515607
0.0284157
0.0530819
0.0456614
0.0786598
0.0476718
0.0224176
0.0404566
0.0263604
0.000553535
0.00502524
0.0180898
2.82125e-06
6.18064e-08
0.00155565
0.000240833
0.057469
0.0251208
0.0554507
0.0177059
0.0414365
0.0399326
0.0170342
0.0421095
0.0228517
0.050705
0.0365703
0.0126144
0.0154476
0.0304838
0.0259263
0.0142682
0.011653
0.0140371
0.0114649
0.00560287
0.00572307
0.0249271
0.00964495
0.0118033
0.0133709
0.0109209
0.00525889
0.0045212
0.0130083
0.00997241
0.0249169
0.0240497
0.00458189
0.00958541
0.012576
0.022081
0.00959905
0.00703262
0.00411629
0.00866658
0.0184539
0.0115368
0.0129691
0.00759866
0.00930101
0.00645613
0.00525281
0.00342386
0.00224815
0.00838672
0.00178276
0.00225929
0.00400219
0.00321662
0.0012939
0.000665671
0.00699277
0.00283186
0.00684798
0.00233387
0.000828005
0.00079878
0.0023994
0.000962466
0.00322632
0.0037674
0.00155065
0.000237178
0.00128971
0.000306516
0.00411831
0.00105219
0.00402572
0.00168379
0.000361524
0.00173215
0.000346473
0.00260579
0.00553882
0.00643378
0.00214995
0.00057328
0.000718792
0.00178836
0.002431
0.000323361
0.00158582
0.000153549
0.000928449
0.000565885
8.1342e-05
0.0042041
0.000956432
0.0027705
0.000388884
0.00129195
0.000798358
0.000220085
0.160194
0.0240049
0.0730608
0.14845
0.0143318
0.00200439
0.00257946
0.0392918
0.0165226
0.128949
0.010213
0.011802
0.000247486
0.0014975
0.00979252
0.0323309
0.111719
0.159688
0.111042
0.0862442
0.0859517
0.0573073
0.0576926
0.157467
0.101367
0.108848
0.0791352
0.0845138
0.055976
0.0517387
0.101182
0.0861859
0.0680052
0.0657115
0.0525917
0.043532
0.0327612
0.0480381
0.072192
0.0296267
0.0455581
0.0368617
0.022324
0.0141546
0.0451043
0.0446028
0.0724155
0.0358694
0.0213397
0.0210652
0.0362252
0.0649275
0.0431795
0.0705387
0.0347807
0.0182179
0.0202613
0.0317275
0.0163375
0.0410987
0.040846
0.026108
0.00988813
0.0263593
0.00974047
0.0369305
0.0157818
0.0398974
0.0253057
0.00829771
0.0230722
0.0093158
0.0542731
0.0237058
0.0405381
0.0147409
0.0261975
0.0192598
0.0105668
0.0312538
0.0086429
0.0237268
0.00662759
0.0190562
0.0140057
0.00466018
0.00333224
0.00564063
0.0162368
0.00923439
0.00163402
0.00557163
0.0029039
0.0175298
0.0157609
0.0275182
0.0127837
0.00401082
0.00679597
0.00787099
0.0154499
0.0085079
0.00251893
0.00534292
0.00835772
0.015657
0.00524056
0.0148354
0.0043203
0.00235119
0.00696104
0.0079308
0.0132977
0.00495355
0.00334622
0.00543617
0.0107073
0.00760538
0.000958929
0.00371167
0.00226193
0.00480889
0.000706667
0.000526223
0.00121628
0.00223751
0.00276498
0.00134293
0.000453964
0.000158457
0.00090358
0.000291909
1.15466e-05
0.000128452
3.47789e-05
0.000830679
0.00051063
0.00160459
0.000424871
3.95566e-05
0.00010356
0.00019638
0.000582494
0.000156701
8.90425e-05
1.20537e-05
0.000148797
0.000604768
8.40978e-05
0.0005217
5.11401e-05
9.44964e-06
9.41396e-05
0.000128132
0.000411851
7.14345e-05
2.90826e-05
5.58459e-05
0.000273991
0.00015077
1.01255e-06
2.58629e-05
1.27789e-05
0.6638
0.643049
0.667446
0.650563
0.546838
0.610567
0.37564
0.429914
0.66789
0.662371
0.661651
0.660805
0.65952
0.650456
0.647948
0.666401
0.654259
0.659644
0.647162
0.656034
0.640967
0.624698
0.620091
0.6486
0.615599
0.571095
0.623706
0.61838
0.565498
0.645757
0.601429
0.641357
0.570805
0.621334
0.615092
0.562902
0.604033
0.629074
0.581271
0.605397
0.520277
0.580761
0.550103
0.607156
0.5808
0.629801
0.599866
0.508574
0.542913
0.572804
0.505409
0.509286
0.574581
0.567843
0.42439
0.502651
0.500171
0.550269
0.451448
0.448488
0.409348
0.484337
0.518043
0.484636
0.560542
0.542512
0.2421
0.260941
0.0755606
0.133307
0.293056
0.318689
0.555833
0.475373
0.494057
0.472043
0.490165
0.396884
0.399726
0.515853
0.436834
0.461541
0.448218
0.477554
0.387846
0.363157
0.193121
0.372157
0.294636
0.25974
0.369855
0.292563
0.191866
0.237248
0.418376
0.335809
0.331558
0.414483
0.315818
0.234308
0.343655
0.255954
0.363164
0.286596
0.175973
0.268307
0.188211
0.373514
0.320622
0.402965
0.307783
0.207504
0.227068
0.284915
0.218302
0.0861445
0.15034
0.216333
0.0851822
0.148567
0.132127
0.211082
0.119165
0.0826533
0.131885
0.144172
0.195376
0.128923
0.476241
0.555558
0.294418
0.350378
0.362041
0.399268
0.174084
0.157543
0.544094
0.506344
0.497801
0.484645
0.47298
0.421973
0.430998
0.518029
0.43783
0.476188
0.399973
0.445682
0.400221
0.360714
0.346004
0.257972
0.4342
0.340188
0.427304
0.343269
0.252379
0.373072
0.325891
0.40933
0.326315
0.213343
0.292547
0.239796
0.38799
0.300223
0.290465
0.247311
0.343405
0.334441
0.239391
0.317329
0.230195
0.268463
0.314175
0.192387
0.222602
0.277199
0.260777
0.106717
0.174889
0.254059
0.103554
0.168663
0.170274
0.0969978
0.160502
0.084199
0.136676
0.140857
0.210977
0.239366
0.472863
0.270104
0.0856544
0.212655
0.0199049
0.0929355
0.0625737
0.246751
0.413761
0.393851
0.400232
0.336838
0.334519
0.318888
0.259915
0.343726
0.199621
0.198963
0.266572
0.26659
0.196958
0.1403
0.305526
0.170453
0.251773
0.151005
0.232614
0.184212
0.116912
0.323947
0.190274
0.260908
0.172935
0.243529
0.190344
0.130315
0.137106
0.125078
0.192132
0.134227
0.0549299
0.0919172
0.0826555
0.139346
0.136339
0.196105
0.137524
0.0598837
0.0905774
0.0939064
0.100298
0.10949
0.165493
0.1266
0.0463008
0.0815438
0.0756764
0.0888596
0.033865
0.0360919
0.0312497
0.0556882
0.0589654
0.0521103
0.0605206
0.011012
0.00769949
0.0523919
0.162879
0.0450786
0.212719
0.00603942
0.0554031
0.0589335
0.0367568
0.113502
0.00455983
0.000894161
0.0376619
0.0102817
0.250427
0.170893
0.246125
0.167191
0.160238
0.100902
0.1029
0.236194
0.139102
0.141395
0.159154
0.154205
0.096427
0.0859767
0.174398
0.129609
0.113508
0.0820994
0.0832102
0.0690281
0.0496375
0.106249
0.0589159
0.103598
0.0588818
0.032724
0.0319752
0.0601758
0.0961918
0.0516983
0.0947978
0.0565247
0.0299877
0.0295309
0.057483
0.0893523
0.0362763
0.0353363
0.0550227
0.0562399
0.032865
0.020736
0.0498683
0.0826893
0.0914351
0.0541759
0.0252543
0.0484506
0.0282929
0.0979432
0.0482321
0.0860527
0.055919
0.0263374
0.0301758
0.0493454
0.067514
0.0267177
0.0492935
0.0202389
0.0389737
0.0279755
0.0144143
0.0680338
0.0263156
0.0483028
0.0205563
0.0390901
0.027666
0.0142781
0.0209382
0.0176877
0.0329835
0.0183648
0.00560518
0.0113893
0.00931066
0.0198452
0.0168995
0.0316848
0.0179664
0.00535856
0.00903949
0.0110538
0.0315562
0.0166968
0.0159915
0.00752783
0.01635
0.0157079
0.0321515
0.0300396
0.00704938
0.0131022
0.0134267
0.0154301
0.0265442
0.0149174
0.0102612
0.0103985
0.0210136
0.0147964
0.00299532
0.00710744
0.00708918
0.00948113
0.00249696
0.00173062
0.00246341
0.00436638
0.00568461
0.00439488
6.84448e-05
1.06684e-06
2.78671e-07
2.41715e-06
9.1855e-06
2.48828e-05
4.25187e-06
0.0317381
0.0191397
0.0288798
0.00313209
0.00229395
0.00201137
0.00135025
3.35919e-05
1.49964e-05
0.00163663
0.00024871
0.00474169
0.000909673
9.76308e-05
7.02548e-06
1.23846e-07
0.0308763
0.0164095
0.0160032
0.0151421
0.0147048
0.0070675
0.00728092
0.0248838
0.0128714
0.0149764
0.0115416
0.0136305
0.00651445
0.00544698
0.0130989
0.0098197
0.00864307
0.00660452
0.00569055
0.00398611
0.00252531
0.00816162
0.00220932
0.00399206
0.00178862
0.00335014
0.00140601
0.000700773
0.00779133
0.00303892
0.00759462
0.00292764
0.000998207
0.0030275
0.000959486
0.00621916
0.00192586
0.00600639
0.00252033
0.000726977
0.000692319
0.00261911
0.00278378
0.00599274
0.00706511
0.00266105
0.000678221
0.00216721
0.000857123
0.00448595
0.00171333
0.00547126
0.0022671
0.000459183
0.000604741
0.00181733
0.00446969
0.000998388
0.00289791
0.00045708
0.00152387
0.000915221
0.000257558
0.00319667
0.000515717
0.00196464
0.000289987
0.00125335
0.000738777
0.000148853
0.000528976
0.000843601
0.00165264
0.00047813
4.60678e-05
0.000218826
0.000121045
0.000512477
0.000245997
0.00105985
0.000374412
2.08864e-05
6.24634e-05
0.000162759
0.000871823
0.000245335
0.000199443
3.07124e-05
0.000187403
0.000910063
0.000232422
0.00077271
0.000145528
0.000111909
2.40417e-05
0.000157687
0.000601855
0.000199348
8.58492e-05
6.36379e-05
0.000395744
0.000215503
2.40364e-06
2.79682e-05
3.97308e-05
9.65275e-05
3.73891e-06
2.28248e-06
6.09951e-07
9.30368e-06
3.5084e-05
1.41773e-05
6.25825e-08
1.75719e-09
2.35486e-09
5.46535e-11
2.05664e-09
7.13651e-08
1.54236e-09
4.43345e-08
5.85389e-10
7.59369e-10
3.81343e-11
1.43753e-09
2.39825e-08
1.09101e-09
2.361e-10
2.99232e-10
9.68207e-09
2.94944e-09
3.06474e-12
9.01056e-11
7.34857e-11
7.09033e-10
4.48245e-12
5.34741e-12
1.32139e-12
2.19063e-11
1.47112e-10
1.83707e-11
4.86258e-10
1.45804e-05
7.50365e-10
1.29978e-12
4.51502e-08
1.08869e-12
1.5499e-13
1.15286e-12
3.19575e-06
7.81985e-07
8.91569e-07
1.29751e-07
1.16586e-07
2.86003e-08
3.90165e-09
4.52541e-07
1.36284e-09
1.29679e-09
1.46972e-08
1.35966e-08
4.39257e-10
4.145e-11
2.1017e-08
6.95084e-11
2.97187e-09
1.8495e-11
7.52574e-10
1.03575e-10
2.80383e-12
2.80721e-08
9.87786e-11
3.73752e-09
2.47023e-11
8.71534e-10
1.16715e-10
3.52713e-12
1.09561e-11
3.79051e-11
4.10526e-10
1.3151e-11
3.09964e-13
6.69884e-13
1.52611e-12
8.45679e-12
3.36458e-11
3.45633e-10
1.1951e-11
2.9828e-13
1.4276e-12
5.93216e-13
4.46138e-05
0.0065183
0.00682923
1.09566e-08
0.00100416
0.000409881
0.014832
0.000508922
0.00162312
3.33337e-05
1.61396e-05
6.80003e-10
1.04997e-08
2.48213e-06
3.56116e-09
0.00225517
9.29176e-05
2.78667e-05
0.00225109
8.2545e-07
0.0103791
2.91643e-05
8.43917e-06
0.00216378
7.06025e-07
1.3299e-07
0.00101407
0.0102161
2.66974e-05
0.00297075
0.00169434
1.09673e-07
3.9407e-06
7.75107e-10
4.87043e-08
0.000587767
0.00139264
0.115086
0.0190556
0.00410208
0.000380931
0.0223087
0.00527128
2.735e-05
1.20838e-06
1.57435e-07
0.00106313
1.61962e-07
2.62145e-05
3.12072e-10
0.0934813
0.0685278
0.0564097
0.0651978
0.0539735
0.0302526
0.0357105
0.0102575
0.010282
0.00683093
0.00271484
0.00273835
0.00167749
0.00166341
1.35111e-07
2.19022e-08
0.000123166
2.76122e-05
2.78721e-11
1.56843e-05
2.46563e-10
0.000121156
0.00942479
0.00222998
5.85164e-05
3.14481e-07
0.00198947
0.000152876
0.0103291
0.00686162
0.00684289
0.00275971
0.00275378
0.00168302
0.00168095
0.00956018
0.00672315
0.00621086
0.00269153
0.00246538
0.00162407
0.00145452
0.00153519
0.00827097
0.00395443
0.00523564
0.00205775
0.00116286
0.000810181
0.0530667
0.014479
0.0331569
0.0140376
0.0320284
0.0188721
0.00870256
1.45675e-08
0.0014125
6.26546e-05
1.04894e-07
1.99151e-11
0.000211011
1.08823e-06
4.60039e-05
2.3009e-08
1.36672e-10
3.37867e-13
6.47033e-11
3.43039e-08
1.58675e-06
4.22257e-06
0.00908885
0.000571535
0.000121595
1.74622e-07
0.00278946
0.000145793
0.0374588
0.0165488
0.0316432
0.0158939
0.00882113
0.00782466
0.0182954
1.00654e-05
2.36827e-13
1.05312e-10
7.55092e-09
2.22157e-05
3.29356e-06
8.39301e-12
0.032744
0.0129067
0.0278373
0.014645
0.00724248
0.00640873
0.0168477
0.000394397
0.00414171
0.00226316
0.00414337
0.00089418
0.000883202
0.000402155
0.00226102
0.00414112
0.00414204
0.000896091
0.000397331
0.000889938
0.000402972
0.00402765
0.00191645
0.00365731
0.000370298
0.000846219
0.000733596
0.000308882
0.00464283
0.00100551
0.00265815
0.00158593
0.000569211
0.000486973
0.00025029
0.00150053
0.00214509
0.00298644
0.000556631
0.000131052
0.00036073
0.000220484
0.00849995
0.00809924
0.0174929
0.0096333
0.00213211
0.00434016
0.00466971
0.0108466
0.00903618
0.0196301
0.0104341
0.0026877
0.00534156
0.00506455
0.00473228
0.00611616
0.00584598
0.00291372
0.00268718
0.00363556
0.00157138
0.000852464
0.000381842
0.000836075
0.000111301
0.000275256
0.000108351
3.78297e-05
0.00287519
0.000973425
0.0016021
0.000795714
0.00139606
0.000713442
0.000339248
0.000435921
2.92824e-05
0.000445989
0.000230152
1.07653e-05
0.000224119
1.13826e-05
2.97067e-05
0.000447661
0.000449717
0.000231714
1.1212e-05
0.000229149
1.15301e-05
0.0013488
0.000293352
0.000743007
6.37621e-05
0.000197656
9.07583e-05
2.51906e-05
0.0072555
0.00332107
0.00373897
0.00124049
0.00296599
0.00335042
0.00818796
0.00806718
0.00398926
0.00405393
0.00358122
0.00364248
0.00147897
0.0016482
0.00106325
0.00014213
0.0010747
0.000419008
0.000146814
3.98174e-05
3.7785e-05
0.000426992
2.15631e-05
0.000373258
1.00205e-05
0.000214693
0.000180784
7.75317e-06
0.00107428
0.000411656
0.000419443
0.000143714
0.000147278
4.00457e-05
3.84928e-05
0.000914379
0.000600865
0.000462986
0.000342847
0.000253534
0.000166464
7.50956e-05
0.000859234
0.000379465
0.000310647
0.000130156
0.000102872
3.35571e-05
2.49068e-05
1.36502e-08
0.00115433
8.92763e-06
1.74369e-08
1.03423e-12
9.51818e-06
3.79108e-08
0.000193139
1.47949e-05
0.000288962
0.000131101
2.61971e-06
7.95563e-05
4.9872e-06
0.00382674
0.000923275
0.00171543
0.00109326
0.00211184
0.000842584
0.000390836
0.00333184
0.000571496
0.00137077
0.000807298
0.00190631
0.000720948
0.000254524
0.00494101
0.000832926
0.000979998
0.00114861
0.00202764
0.00231467
0.00246457
0.00551496
0.00125394
0.00128964
0.0024886
0.00253959
0.00101633
0.000487412
1.97723e-12
6.93254e-05
1.14232e-07
7.9176e-11
4.58833e-13
1.03915e-07
1.76773e-11
0.000397585
0.000215289
0.000635848
3.57716e-05
6.74919e-05
1.4886e-05
6.90091e-06
0.0001453
0.000125601
0.000354972
3.37894e-05
1.95869e-06
8.00113e-06
9.91631e-06
3.34376e-07
1.72642e-10
3.46515e-13
1.68971e-11
1.12179e-13
5.8561e-14
1.48634e-12
2.96227e-05
7.9797e-07
3.27879e-06
9.63472e-05
8.54372e-07
3.48688e-06
3.11315e-05
9.69804e-05
8.63558e-07
3.03227e-05
3.39756e-06
9.49192e-05
3.52684e-06
3.13577e-05
0.000108615
1.49211e-06
5.00024e-05
1.11535e-06
3.97177e-05
1.59579e-05
3.82012e-07
0.000147686
0.000367882
0.000131952
3.5613e-05
1.01543e-05
8.60534e-06
2.06095e-06
2.67652e-05
2.96581e-06
8.65381e-05
6.92734e-05
5.05816e-07
2.20276e-06
2.02234e-05
0.000491409
6.02923e-05
0.000165011
3.84913e-05
0.000114869
2.74847e-05
7.00644e-06
0.00156307
0.00044724
0.00139932
0.000499944
0.000155454
0.000133421
0.000566599
4.65498e-05
6.51065e-07
2.90987e-07
6.12773e-06
2.54653e-05
1.33636e-06
1.24681e-05
0.000183783
0.000250274
0.000572567
0.000255236
1.62593e-05
7.03561e-05
9.16133e-05
0.000375364
0.000420208
0.000827365
0.000323489
3.74657e-05
0.000124107
0.000125134
0.00164591
0.000505237
0.00147793
0.000519356
0.000171668
0.000148482
0.000587472
9.36215e-05
5.80436e-05
0.000209944
1.52681e-05
5.13931e-06
2.48792e-06
7.11105e-07
0.00034266
0.000421588
0.000974769
0.00033011
2.95409e-05
9.7032e-05
0.000125761
0.00042675
0.000475757
0.000497483
0.000147781
0.000158042
0.000164264
4.43326e-05
3.67253e-13
1.20476e-07
1.07492e-10
1.33814e-12
1.51973e-13
1.77347e-09
5.60084e-11
5.22449e-06
4.52508e-07
1.84225e-05
5.03269e-06
2.47487e-08
1.05972e-07
1.25413e-06
0.000127075
0.000122471
2.56265e-05
6.8344e-06
7.9624e-07
7.39118e-06
8.76722e-07
0.000123804
2.75433e-05
0.000127461
7.45947e-06
8.25413e-07
8.86959e-07
7.03671e-06
0.000216182
2.23835e-05
0.000104529
9.45477e-06
4.75269e-05
1.55158e-05
1.72833e-06
0.000288832
0.000449075
0.000953646
0.000326463
2.85681e-05
8.02891e-05
0.000141475
0.000332007
0.000491556
0.00101857
0.000341367
3.45051e-05
9.15906e-05
0.000149828
0.000113222
3.80858e-06
4.56019e-05
2.70418e-06
3.0483e-05
8.71494e-06
3.59992e-07
1.2475e-05
1.2298e-05
4.88874e-05
3.7618e-07
2.25991e-06
3.8416e-07
5.6837e-08
8.58489e-05
2.22317e-05
0.000110784
6.61842e-07
5.83612e-06
3.974e-06
4.27404e-07
1.05391e-05
3.69198e-05
7.13965e-06
1.85351e-07
1.47255e-06
3.05755e-07
3.46641e-08
1.48941e-06
6.57971e-06
3.46612e-05
2.86317e-07
1.33727e-06
1.66243e-07
3.2227e-08
0.0214245
0.00244473
9.22555e-05
0.112177
0.0159065
0.00452741
0.0191297
0.00156182
0.00530482
0.00046228
0.0902499
0.0644441
0.0675758
0.0553521
0.0529797
0.0303304
0.03588
0.00941147
0.00190749
0.000413325
0.00226443
0.000156081
0.000168293
8.29271e-07
0.0506413
0.0137477
0.0142068
0.0323552
0.0311717
0.0188647
0.00875076
0.00185548
1.57644e-05
2.71661e-07
0.000134814
3.32944e-09
5.82608e-08
1.78627e-09
0.0334706
0.0138821
0.0283951
0.0152522
0.00790322
0.00703179
0.017507
0.0373932
0.0166125
0.031535
0.0161674
0.00900382
0.00799708
0.0185944
0.00504347
0.00595633
0.00617051
0.00309227
0.0029623
0.00377155
0.00174609
0.00829607
0.00920328
0.0177881
0.010065
0.00245006
0.00483035
0.00493586
0.00901985
0.0108899
0.019525
0.0106241
0.00277914
0.0054762
0.00519163
0.00329781
0.00110734
0.00118481
0.00181715
0.00172163
0.00088366
0.00047295
0.00764766
0.00368016
0.00394729
0.00140185
0.0035485
0.00330802
0.0086012
0.00128909
0.00072003
0.000781846
0.000468497
0.000426253
0.000252811
0.000127126
0.00355745
0.000768908
0.00161948
0.00100111
0.0021031
0.000876723
0.00035867
0.00388686
0.000956704
0.0018051
0.00115783
0.0022216
0.000940834
0.000433185
0.0052468
0.00116539
0.000963618
0.00125924
0.00247647
0.00230525
0.00266632
0.00032821
8.13682e-05
0.000233596
0.000211175
0.000735842
5.33201e-05
1.5656e-05
0.000120495
0.000796593
0.000301188
0.000360722
3.56746e-05
0.000115596
0.000149621
0.000495596
0.000401165
0.000919224
0.000396097
4.7639e-05
0.000145938
0.000167114
0.000442465
0.000485942
0.00110628
0.000409506
4.20336e-05
0.000154324
0.000137291
0.000106272
0.000216745
4.69774e-05
9.16807e-06
6.23201e-05
2.26076e-05
1.73387e-06
2.6856e-05
7.15268e-05
0.000266163
1.36698e-05
7.13974e-05
2.69412e-05
2.88095e-06
2.55769e-07
2.3949e-06
1.1155e-05
3.89951e-06
1.45996e-08
8.17621e-08
7.54551e-07
6.9953e-06
1.56646e-07
2.43189e-08
1.69339e-07
7.47683e-06
1.30907e-06
2.64774e-08
1.7114e-07
7.19491e-06
7.54381e-06
1.32224e-06
2.51425e-08
1.24664e-06
2.67548e-08
6.13319e-06
9.29715e-08
4.36952e-06
2.05834e-08
1.03326e-06
7.04088e-07
1.37031e-08
3.67511e-06
8.69576e-06
5.46356e-05
2.11854e-06
8.10328e-08
8.73141e-07
2.12639e-07
1.56598e-05
1.62179e-05
9.00073e-06
2.36076e-06
1.12367e-06
1.0441e-06
8.41582e-08
3.45255e-08
6.68041e-07
4.04349e-06
1.18557e-05
4.24366e-05
6.25298e-06
1.11539e-06
4.63127e-07
1.4244e-06
7.67335e-06
1.7098e-05
5.7288e-05
7.72626e-06
1.43629e-06
5.07783e-08
1.11551e-06
2.48341e-06
3.76748e-07
2.90033e-09
1.56355e-07
7.13319e-09
9.85223e-05
4.52636e-06
3.12279e-06
5.62361e-06
2.15878e-05
3.12282e-05
2.68596e-05
7.31969e-07
3.33571e-06
1.50172e-05
1.94868e-06
7.09279e-09
5.46039e-08
2.93288e-07
6.12779e-06
1.1521e-05
4.13515e-05
3.91207e-06
3.34636e-08
2.64506e-07
6.41602e-07
0.000146798
3.5407e-05
3.83732e-05
3.0108e-06
2.85186e-05
3.10681e-05
0.000169988
4.50565e-05
4.26962e-05
0.000141358
8.05996e-06
3.88382e-05
8.66551e-06
8.80751e-07
9.33853e-06
7.59856e-06
8.17278e-06
4.17896e-05
3.63898e-05
0.000136534
4.40642e-05
0.000147979
5.98391e-06
3.85782e-05
5.82473e-06
4.09316e-05
8.11375e-06
5.67329e-07
1.09594e-06
4.1594e-08
4.8538e-09
3.59575e-09
2.15359e-08
1.93709e-07
2.55235e-07
1.16863e-06
5.04788e-09
2.63743e-07
3.97456e-09
2.1225e-07
4.41603e-08
8.26397e-10
3.03699e-07
1.08302e-05
1.18959e-06
2.43601e-08
2.83529e-07
7.32276e-08
5.93832e-09
4.5646e-05
0.000167143
4.31845e-05
7.5872e-06
4.4554e-05
9.24644e-06
8.46568e-07
9.01122e-05
1.10601e-06
3.66035e-06
4.21721e-06
1.43501e-05
1.59192e-05
3.35442e-05
3.38676e-07
2.64322e-07
2.24079e-06
5.07219e-08
6.61917e-10
5.28263e-09
6.80701e-09
4.00701e-07
2.10932e-09
1.14832e-07
9.43674e-10
5.15755e-08
1.38342e-08
2.5029e-10
2.17417e-06
2.5396e-07
4.89408e-08
3.35802e-08
6.71048e-09
5.05462e-09
6.46572e-10
2.47174e-07
5.68285e-07
5.77676e-06
9.00743e-07
1.1825e-09
2.30165e-08
5.18612e-08
2.5377e-06
1.26555e-06
1.25091e-05
9.77207e-07
9.06967e-08
4.56189e-08
3.34548e-09
1.20298e-07
4.38142e-08
1.24686e-06
9.03413e-08
9.33206e-07
1.23342e-05
2.54216e-06
6.42548e-08
1.47557e-07
7.7724e-07
1.59756e-08
2.1312e-10
1.25057e-09
2.89795e-09
1.60063e-08
3.008e-10
3.00027e-09
1.72851e-07
3.32788e-10
1.76984e-08
3.29678e-09
1.74819e-07
3.36413e-10
3.10671e-09
1.66179e-08
1.79088e-08
1.6312e-07
3.33108e-09
7.86746e-09
1.9546e-06
1.67158e-07
3.11331e-09
6.60889e-08
4.62539e-09
2.14676e-10
2.00078e-06
6.77282e-09
1.6132e-07
3.00093e-09
7.02684e-08
4.54317e-09
1.92827e-10
4.23318e-07
7.69695e-10
3.26933e-08
6.886e-10
2.96607e-08
2.12037e-09
5.0183e-11
2.49328e-09
1.31742e-08
1.31491e-07
8.56924e-08
1.54294e-10
8.32894e-09
1.6049e-09
7.41894e-09
9.13918e-10
4.8911e-08
7.5927e-09
1.97021e-11
1.07328e-09
1.40144e-10
4.34621e-08
3.11979e-10
1.51687e-09
7.44763e-11
1.71286e-08
4.04647e-09
8.0401e-10
5.55978e-10
3.54698e-09
3.03079e-08
5.97953e-09
1.24757e-11
6.54337e-10
1.13712e-10
5.57494e-09
4.94615e-10
2.71175e-08
3.14696e-09
1.1577e-11
5.69828e-11
6.05812e-10
9.75526e-07
9.02543e-07
9.17351e-06
9.39146e-07
1.16865e-09
3.73566e-08
3.93205e-08
1.49555e-08
5.0441e-08
4.00543e-07
1.3715e-09
1.14185e-08
4.12837e-10
4.97836e-11
5.03766e-11
4.17395e-10
1.50468e-08
1.16287e-08
1.40054e-09
4.06046e-07
5.1253e-08
3.89124e-08
3.01496e-10
3.53204e-09
6.84724e-11
7.4894e-10
6.7837e-11
5.9788e-12
1.35523e-07
1.57336e-10
4.01759e-10
8.32051e-10
3.17445e-09
6.77171e-09
1.72919e-08
4.25192e-07
5.17411e-07
7.25511e-06
7.85081e-07
6.61742e-10
2.29459e-08
2.86568e-08
4.74225e-07
6.07512e-07
6.893e-06
7.61497e-07
7.21337e-10
2.31697e-08
3.02985e-08
0.000614561
0.00100084
0.000108202
6.45968e-08
9.74339e-07
2.29825e-10
2.35035e-09
2.24911e-11
0.000848546
9.83333e-05
0.000127046
0.000302741
0.000375139
3.23344e-05
2.33534e-05
0.000370149
3.12466e-05
6.22702e-05
0.00011154
5.78013e-06
0.000204005
1.33283e-05
2.12434e-05
5.5175e-06
6.18886e-07
8.20406e-05
1.44973e-05
3.62412e-06
3.8405e-07
3.00171e-06
7.10254e-07
2.38497e-05
5.02848e-05
7.63462e-06
1.83855e-06
1.81085e-07
5.81299e-06
1.26973e-07
1.9323e-08
4.00914e-06
8.44161e-08
6.40843e-07
1.23949e-08
1.27154e-07
1.79306e-08
9.2442e-07
2.17973e-06
4.4076e-08
3.26304e-07
6.14349e-09
0.0648021
0.00173466
0.0019922
0.018294
0.0176789
0.00990179
0.000267693
0.000667801
0.0314022
0.0614468
0.0294115
0.0399664
0.0374809
0.0183674
0.0169536
0.0395221
0.0525608
0.0247643
0.0315165
0.0231858
0.0139601
0.0100122
0.0232064
0.00473174
0.0124613
0.0214674
0.0113103
0.00896418
0.00416281
0.00375441
0.00199655
0.00421608
0.00696248
0.0130689
0.0119806
0.00624775
0.0126623
0.00905117
0.00624538
0.00716079
0.00207299
0.00492113
0.00318642
0.00082667
0.00130562
0.00294773
0.00695624
0.00978831
0.0049423
0.00336519
0.00667152
0.00190714
0.00147072
0.00513167
6.95185e-05
5.14818e-06
8.30997e-05
2.46408e-05
0.0100387
0.00613681
0.0093366
0.00262022
0.00237449
0.00159386
0.00141232
0.00802075
0.00381343
0.0062477
0.00142959
0.0019564
0.00111009
0.000752835
0.00216472
0.000299469
0.000364276
0.00402338
0.00364042
0.00083325
0.00071413
0.106633
0.0201182
0.0174618
0.00795159
0.138941
0.0978162
0.141897
0.0281842
0.194732
0.14035
0.245843
0.240363
0.189468
0.136762
0.103269
0.192243
0.106278
0.0753553
0.223093
0.17203
0.125639
0.0928365
0.0952131
0.143821
0.0994194
0.050249
0.0756156
0.0476642
0.0725522
0.0637564
0.123342
0.0828552
0.0409671
0.0310963
0.0498442
0.063721
0.0673232
0.0697698
0.0296901
0.0513165
0.0209322
0.0196778
0.0491413
0.0505205
0.0249178
0.0608839
0.0169548
0.0130837
0.0346234
0.0434571
0.022278
0.0350906
0.0135281
0.0207789
0.00722578
0.0125244
0.0332084
0.00585396
0.0129026
0.00413131
0.0104714
0.00771972
0.0219451
0.0286377
0.000963716
0.00206319
0.00294007
0.000118245
0.000332327
0.000208225
0.000530933
0.00080353
0.00328981
0.00134612
0.000247847
0.000193972
0.00287964
0.00114113
6.42782e-05
0.00142291
0.000492648
0.000467412
0.000124915
0.00219534
0.000824689
0.00040769
1.92385e-05
0.000349447
9.32368e-06
0.000206135
0.000169879
6.9816e-06
0.000170443
2.16734e-06
6.94164e-06
1.27236e-05
0.000264096
0.000119594
4.32598e-06
2.55851e-05
6.63111e-07
2.78077e-06
1.87817e-05
4.58982e-07
6.49729e-05
2.00071e-06
2.18697e-05
1.11e-05
5.36612e-07
1.09282e-07
2.5264e-07
4.21685e-05
1.16395e-06
0.34717
0.171005
0.0285639
0.117996
0.403127
0.1685
0.117389
0.0284083
0.25187
0.405339
0.307101
0.408131
0.347427
0.309028
0.252015
0.407751
0.346442
0.347309
0.305911
0.308854
0.251896
0.25146
0.104382
0.260033
0.17419
0.169039
0.258401
0.173148
0.103329
0.168001
0.258248
0.257697
0.172707
0.103085
0.173182
0.102774
0.581686
0.429887
0.573415
0.490072
0.325723
0.580146
0.544586
0.485674
0.315676
0.506949
0.228449
0.136176
0.497003
0.424447
0.221712
0.135716
0.462497
0.510809
0.467001
0.375008
0.426317
0.429812
0.371589
0.551519
0.554059
0.574891
0.538975
0.49315
0.495915
0.537174
0.552306
0.569963
0.57396
0.537674
0.485178
0.532381
0.493861
0.508439
0.452533
0.464793