/*--------------------------------*- C++ -*----------------------------------*\
  =========                 |
  \\      /  F ield         | OpenFOAM: The Open Source CFD Toolbox
   \\    /   O peration     | Website:  https://openfoam.org
    \\  /    A nd           | Version:  9
     \\/     M anipulation  |
\*---------------------------------------------------------------------------*/
FoamFile
{
    format      ascii;
    class       surfaceScalarField;
    location    "0.00145";
    object      phi;
}
// * * * * * * * * * * * * * * * * * * * * * * * * * * * * * * * * * * * * * //

dimensions      [0 3 -1 0 0 0 0];

internalField   nonuniform List<scalar> 
31609
(
-1.13479
1.78055
1.94603
11.192
3.25937
1.6446
3.1316
-3.24171
-0.816438
3.47874
8.07367
-3.12001
-10.8816
0.824324
-1.00205
10.7681
2.33002
-6.02632
-1.36231
0.0109136
6.43527
0.473197
2.00047
11.4092
0.168143
0.323787
4.41475
9.3609
-3.83533
0.0907112
-11.4801
11.3478
1.46772
0.319818
0.204266
-7.86406
1.50034
-0.126389
-1.23281
8.07821
0.15721
-4.24638
-0.00396239
2.96111
4.75396
-2.96166
2.60488
2.67813
1.11946
-2.95062
-3.11521
-0.164335
3.78639
-3.85434
0.647219
3.33155
2.9127
-1.44204
-2.76906
2.25435
1.15751
-0.564129
-2.25485
-2.87212
-2.64471
3.7692
3.18039
-0.300113
-0.126047
-0.958023
-3.0691
2.44336
2.84638
-0.252761
-0.183646
4.30538
9.08154
0.621656
-3.72051
-0.0633974
5.95157
-0.233076
6.11141
3.98909
-0.0866159
-0.072527
3.10871
0.162155
-2.92801
8.05386
-3.22809
-0.287055
3.03236
5.41608
-0.0546048
-3.02658
8.18855
0.0437243
3.0139
-0.624527
5.45984
3.32627
2.81199
-0.305396
1.06459
0.287557
-2.07639
-0.0518163
2.67206
-0.542156
-0.475822
3.23919
-0.198824
3.24845
-1.02526
3.05705
-0.641808
2.9713
1.43323
-0.318234
-1.34136
2.98981
1.63543
2.45275
1.58227
3.28256
2.9711
-3.54478
0.894582
2.85504
1.20945
3.21496
-2.85766
3.59437
3.23855
-2.96256
3.27997
-1.61225
3.01347
1.97772
3.05495
2.44138
3.97695
8.60988
-3.46574
0.521413
5.58063
5.6914
2.81846
0.260611
-2.65881
7.92637
0.643649
-2.46205
5.63398
5.53423
-2.29217
7.84348
1.97805
11.3232
0.421107
10.8268
0.16162
10.6894
0.962029
-0.303606
-1.75772
0.709565
10.4038
1.78404
0.388984
0.187781
10.5873
0.175573
0.969585
11.3897
1.11274
-0.0823298
-2.1004
-2.13955
-0.639308
-0.481466
-1.00379
-0.591476
-2.55806
-0.721563
1.1935
-0.301659
-0.696736
-0.340293
2.57661
-1.41735
1.2104
-1.38737
1.46177
1.86245
10.957
-1.43781
10.1062
10.4646
1.08701
-1.70475
10.1489
1.5696
-1.53848
11.0347
9.8489
11.2525
2.54079
1.36725
2.43804
0.365246
0.738651
2.68795
-1.71549
1.65037
1.66341
-2.82077
2.33962
1.93024
2.12564
2.10786
-0.0682334
-2.0968
0.099439
5.58315
-0.223339
-0.0124007
-0.100642
2.45072
6.25384
0.0427038
7.84794
2.0687
-2.00182
-0.0760329
-1.46734
-5.67852
2.44536
-0.122374
6.31596
-1.1594
-0.0630685
8.08091
2.66751
-0.339999
3.08769
-0.0432724
4.63987
-0.063549
2.74397
-0.248125
-0.174608
0.0661117
3.07153
3.74649
-0.113191
-3.90497
3.07591
-0.0715022
4.71022
3.18664
-0.5645
2.87601
3.07414
-0.59196
3.05963
0.0401712
3.82597
0.990199
0.207378
11.0148
0.226604
-10.0638
0.0843865
9.85003
0.202831
0.177115
0.178614
9.94063
-1.39995
0.48138
0.961061
-11.224
0.60316
10.9002
0.352813
9.79184
0.808947
2.97542
0.0960109
3.52611
-0.115402
-2.60013
0.0834491
3.60069
-0.092453
-0.284995
-0.164064
2.59143
2.84612
-0.593158
-2.9723
-2.75236
0.0833197
3.71284
0.0897012
3.62408
-0.609074
9.85461
0.823628
-1.29515
1.78675
1.11973
-1.27308
-0.693108
-9.77077
0.927089
9.85096
0.924186
-11.0609
10.8264
1.06633
9.82189
1.50382
7.92044
1.95347
0.0792622
0.336175
-1.76995
2.63116
-0.174518
-8.01615
8.29086
-1.42564
-5.86277
2.41674
6.39774
8.17471
2.6948
0.630451
3.17303
-4.09513
3.04128
4.76522
3.19648
3.04482
-0.704816
3.09425
-0.0818242
-3.21539
3.0001
3.86336
3.04017
3.86994
3.10345
2.7837
2.90516
-0.708775
-0.146967
-2.96769
3.6822
0.689178
-2.9648
-2.97116
-2.95001
3.77396
3.67673
0.601163
-0.853574
10.7292
-1.00497
-6.2905
1.72106
-1.15256
-10.8048
0.183716
-1.14574
-0.564276
-7.58396
-1.22187
1.88816
-1.05183
-0.429446
6.76577
0.102925
0.764776
10.7726
0.269664
2.09655
0.0512483
-1.13212
6.81273
0.0637872
-10.8044
0.196514
0.275785
0.172955
1.03488
-7.67381
-0.589597
0.436423
0.000821817
2.56678
-0.563347
5.23681
-2.47772
-5.62458
-1.09294
-2.79288
-0.700696
4.39831
-0.281967
-2.90601
4.40774
0.48812
0.187446
2.77637
5.30666
-0.0294931
-6.32339
1.73327
0.432491
-0.0304531
-5.4633
-2.46617
0.419186
-0.0441219
0.727632
10.7315
0.455
0.025685
9.88416
0.650151
0.259988
9.86637
0.309182
0.599028
0.463682
0.102414
10.7094
0.280096
0.0578057
0.241996
10.065
0.277676
-0.427515
0.386935
0.208407
10.0568
0.468695
10.7041
2.74906
5.34774
-2.0665
0.353237
0.267603
4.46008
2.92451
-0.0703288
4.52564
2.91324
0.452905
2.33999
0.334728
-1.63689
5.83332
-0.0237342
0.366363
2.66368
5.03797
-0.0541846
-2.31303
2.65907
0.644344
5.10401
-1.59943
0.622999
5.8749
-0.662508
9.94532
0.462216
0.689577
10.7271
9.90478
0.556989
0.766602
-0.403002
0.185492
10.0729
0.34766
-0.873875
10.7308
0.136262
10.0801
10.7179
-1.09579
6.83754
0.198288
-0.0409928
8.45821
0.2018
8.45916
0.150636
-0.86096
0.232436
7.25253
0.0511159
0.100365
8.87702
0.182328
0.832075
0.394624
8.87894
0.515921
7.26837
-2.9109
4.30233
-0.0649692
0.285261
4.26325
-0.0741869
4.35069
0.48287
-2.69936
0.363742
4.87425
-0.0470084
0.368229
4.83439
-0.0545551
2.70058
0.647824
4.92086
0.650144
4.97772
-0.435614
8.55518
-1.0913
6.8219
1.99864
8.51056
0.798872
0.726566
8.87841
-0.821455
-0.749416
1.42952
7.14339
1.52796
7.22467
8.85675
-0.646887
4.45079
2.78465
2.67808
5.31659
4.51047
2.86521
-2.24935
0.904331
2.62129
5.08913
-0.904392
2.15769
5.75579
5.83617
2.553
5.03654
-0.683659
4.30455
-2.86509
4.42896
4.35191
2.66877
0.908747
4.92682
-0.918717
-2.60467
4.9823
5.00462
4.88861
0.24613
0.162709
0.253615
-10.3032
0.31663
0.0941611
0.13707
0.181885
0.066758
0.219169
10.3208
-0.228216
0.564837
0.0470073
0.182046
-10.822
0.703486
0.7415
0.0753679
0.561905
10.3226
0.970434
-0.220465
0.0380628
0.205166
-0.980859
-1.1754
-10.2993
0.0857279
0.180017
-10.8234
0.0746655
0.0277875
-0.641384
0.362516
1.22209
0.0222933
-9.27146
0.378142
0.0706555
0.255101
0.127948
9.28864
0.612799
0.622703
-0.564852
-7.70575
0.8348
1.02023
0.794401
0.723097
1.19317
9.26781
0.587159
1.00517
-1.2124
-9.21109
-1.08099
-0.561323
1.09352
-0.557492
-7.66701
1.00924
1.14852
1.96283
0.399325
-0.0260036
-5.61523
0.42193
2.37954
-0.0441147
0.400788
2.43685
-0.0460319
-1.94949
5.68821
0.718606
2.44383
-6.37843
1.73964
0.799379
0.740335
0.766248
2.39578
-1.91503
5.69259
1.02078
2.42604
-1.06753
1.86092
-1.09639
-5.66794
2.3909
-6.35542
1.736
2.39858
2.38498
-2.53126
0.395318
-0.0422405
-5.3924
0.422187
-0.0485245
0.399294
-0.0485445
5.48356
2.54697
0.712233
-2.48376
-5.56724
0.76392
0.76101
0.714617
5.50994
2.53417
1.00754
-1.08221
-5.50381
-1.01626
-2.48876
-2.4865
-5.61219
0.293152
3.74263
5.3748
-5.37683
-3.7735
-0.0165201
-0.18465
0.0100886
0.0134791
-0.130573
0.0286982
-0.591857
-0.0272741
0.0530512
-0.119316
-1.87278
2.68219
4.06097
-4.73127
2.04187
-2.58612
1.0767
-0.79457
2.90986
4.876
-4.99342
-2.61506
0.000774501
-0.00533332
-0.0294487
-0.000829245
-3.13937
-0.684549
2.92195
0.898095
-4.47398
0.000190143
-0.0515684
-0.00972016
0.20336
-3.23471
3.55475
-4.60583
0.00765737
-0.852764
0.0862784
-0.187518
0.253938
2.87942
4.95188
-5.00439
-2.56068
-0.10337
-0.00964981
0.00499806
0.00456136
-0.0144139
-0.450819
0.0246326
0.0361805
-0.0854908
1.36221
2.89994
4.77542
-4.94829
-2.63181
-0.000334034
-0.000168116
-0.00215943
6.94446e-05
-0.003371
-0.0192024
0.000564934
-2.58711
2.07611
-1.51252
1.60981
-4.09285
1.44415
-2.96828
2.84639
-1.24627
3.32865
1.4238
-4.54829
2.89875
4.95865
0.519996
-5.02376
-2.58235
0.246049
4.7193
3.12494
-4.90797
4.71543
0.51539
3.13597
-4.93336
0.1975
2.34251
3.99343
-2.20705
2.34156
0.414008
3.94011
-2.21229
-0.174474
0.374537
2.29867
2.87952
2.31598
2.96277
-0.521671
0.00515493
0.0536876
-0.424546
-0.0201415
-0.286237
0.0244028
-0.217751
1.27929
-0.963653
3.58472
5.16649
-5.36964
-3.64509
-1.20017
0.0136865
0.0828894
-0.65791
0.0365732
-0.639489
-0.0469967
0.0351672
-0.332105
-0.000393105
-0.000380402
3.38473e-06
5.91955e-06
-0.000164926
-0.000154249
-8.62157e-06
2.90873
4.93735
-5.02343
-2.59964
-0.792859
4.57974
1.07068
3.10244
-4.92422
4.67356
3.12934
-4.94258
-0.638445
2.269
0.853354
3.54116
-2.186
2.31932
3.80319
-2.20627
0.576662
2.24205
2.69773
0.759683
2.13134
2.39291
2.8699
4.62212
1.63776
-4.92179
-2.64599
1.33636
4.43074
3.05342
-4.87799
4.20538
1.57099
-4.79614
1.04335
2.18009
3.10475
-2.14894
2.03236
1.18493
2.56291
-2.08304
0.897904
1.94868
1.9163
0.954239
1.67176
1.3003
-0.00196188
-0.014699
0.000817889
-0.00924057
0.000650546
1.54645
3.41436
4.94129
-5.3102
-3.59047
-1.8015
1.64355
2.53904
-4.64689
-3.1057
1.63054
-0.391563
0.0212314
0.0187903
-0.195136
-0.0290553
-0.00352263
0.000924271
-0.0118903
0.00108506
-8.81485e-05
-8.03002e-05
3.58421e-06
-7.66112e-06
-6.09815e-06
-1.34715e-06
1.19844e-06
2.80484
4.39771
-4.8536
-2.63772
-1.74977
3.13402
-4.48361
1.83642
3.83261
2.82421
-4.66908
-1.23642
1.41975
1.09515
1.13405
-1.7483
1.79055
1.83863
-1.961
0.880533
1.27863
0.844508
0.792415
0.470645
0.65574
-0.76152
4.09061
1.01795
-4.77208
-3.20562
3.28108
-0.446275
-4.56156
4.24092
-0.493669
-4.82504
1.7953
0.465952
-0.303725
1.33166
-0.289633
-1.59653
0.331929
0.407809
-0.195349
0.520283
0.589188
1.09935
-3.23498
3.47794
-4.60313
0.229912
4.33708
-4.83131
4.31662
-4.84211
1.90805
-0.135489
1.48146
0.0781567
-1.9523
0.646922
0.605526
1.58612
-1.06141
1.73414
1.13667
-4.14184
3.02668
3.81115
-4.68233
2.41406
-4.33809
-1.30736
0.304709
0.293319
0.638596
0.818578
0.928942
0.587861
0.54175
0.209041
0.189984
5.36945
3.73509
0.630022
-5.3948
-3.76721
0.22016
3.97339
2.8007
-4.96259
0.2383
2.89538
4.37568
-3.48223
2.81155
0.521312
4.27783
-3.47283
3.88002
0.486567
2.71516
-4.95172
-0.10122
0.261678
0.661159
1.01777
0.719434
1.10747
-0.80855
0.0805443
0.0194609
-0.175189
0.0896012
1.10575
-1.33246
1.07326
0.19874
-1.31139
-0.0530598
0.392813
0.128264
0.626392
-0.414532
0.00279687
0.0323586
0.664174
0.00773604
0.0299594
-0.302769
0.871123
0.373749
-1.17178
-0.718977
0.068883
-0.151314
0.997627
-1.2615
0.190411
0.347023
0.54498
-0.283022
-0.0108032
0.0108481
0.0185356
0.216148
0.425871
0.0250147
5.30055
3.68424
-5.39461
-3.69192
-0.733829
3.16898
0.931716
2.12226
-4.74291
-0.78203
2.28997
0.993445
3.52905
-3.3291
2.62246
4.01388
-3.42243
3.62883
2.49683
-4.88261
0.375287
0.541468
0.831932
0.397976
0.388525
0.592797
0.392779
0.696508
-1.03486
-0.317489
0.0215602
0.0172042
-0.0548579
0.478369
0.345372
-0.845252
-0.210961
0.00846179
0.0120736
0.192087
0.292155
0.133137
0.130643
0.171532
0.00538964
0.00689514
-1.06626
0.571997
-3.27742
0.797951
2.55378
2.56218
-4.35983
1.05849
-3.84429
0.525838
0.430217
0.325558
-0.106845
-0.234965
0.0442785
0.0465696
0.0992238
0.175666
0.217125
4.53522
3.10756
1.73742
-5.20152
-3.49749
1.03298
2.45472
1.57346
-4.49543
1.10929
1.77885
2.76036
-3.17045
1.06361
1.06616
1.69091
-2.89091
1.51448
0.97825
0.909709
-4.05957
0.309803
0.24135
0.36338
0.16616
0.130328
0.193451
-0.229817
0.126493
0.113886
-0.339632
-0.202215
0.0111368
-0.0305589
0.271659
-0.604561
0.0730718
0.0724368
0.0882294
-0.0348869
-0.00291687
0.00146818
0.00132474
0.0385254
0.0349533
0.00342787
0.219357
-0.0210602
0.163062
0.0565518
-0.0476707
-0.00895453
0.000616548
0.00517589
-0.238083
-0.17528
0.000811278
0.015261
0.00242686
3.79395
2.51621
-5.00574
-3.34495
-0.707517
0.304319
0.207677
-2.1323
0.31371
-0.794698
0.225059
0.35291
-1.57303
0.362966
0.543003
0.842004
-2.37516
0.730669
0.47805
-3.31388
0.0664812
0.0538983
0.0792317
0.0185152
0.0269961
0.0213655
0.181812
0.076484
0.137995
-0.104265
-0.00326538
0.0031074
-0.0203625
-0.133684
0.0195009
-0.0396861
-0.00736483
0.0745547
-0.069748
0.00235039
-0.0861399
0.0144925
0.0574565
0.0478134
0.041548
0.0371959
-0.0107313
-0.00180756
0.000333843
0.00857248
0.00145376
0.0763928
0.7914
-3.21715
-0.479447
0.0481156
0.0165686
-0.387243
0.724949
0.206321
-3.11346
-0.00967911
0.064562
0.0302491
0.0879809
-0.0721037
0.000412813
0.00491329
0.0985259
0.00141283
0.00437567
0.110062
0.773561
-2.66206
-1.10201
0.0733553
0.0410771
-0.599657
0.709596
0.280261
-2.59626
0.120077
-0.0134733
0.041218
0.0794861
0.000776065
-0.134851
0.00615055
0.00256835
0.00541465
0.0893214
-0.393587
0.03717
-0.312259
-0.290729
0.416145
0.294401
-2.39105
0.587946
-2.8481
0.035858
0.0499616
0.0675505
-0.0330813
-0.00167255
0.00131087
0.00213004
0.0290043
0.0441329
0.00332683
-0.400903
0.409263
0.425532
-2.11471
-0.899259
0.0552852
-0.481122
0.578141
-2.42369
0.0916811
0.0478135
0.0606586
-0.00292135
-0.0594537
0.00220123
0.00250864
0.00402795
0.0378357
0.0393183
0.214691
0.254558
-1.76057
-0.0968434
0.00625806
0.00490966
-0.0642239
0.130383
0.112437
-0.944622
-0.0184926
0.000773559
0.0011466
0.0174471
0.0242918
0.00849022
0.00817264
0.0110636
0.000364526
0.000519819
0.0220688
0.0197484
0.0219086
-0.00963092
-0.000751471
0.000318355
-0.00516078
-0.000833901
-0.0042404
-0.0087872
0.00178364
0.00845238
0.331155
0.247453
-1.63663
-0.209231
0.00823643
0.00953834
-0.0969559
0.129874
0.17569
-1.01634
-0.0326056
0.0012425
0.00130457
0.0224088
0.0215177
0.0147465
0.0102428
0.0096825
0.000558674
0.000562818
-0.0413237
0.0024705
-0.0267772
-0.0464326
0.0183361
-0.193786
0.0153809
0.0535419
-0.471268
0.00314851
0.00325608
0.00423603
-0.00105059
-0.000141988
6.52661e-05
4.62773e-05
0.00136719
0.00100755
0.000200188
-0.0689143
0.0172134
-0.187321
0.0217122
-0.0855659
0.00300379
-0.0373117
0.0520409
-0.47211
0.00553181
0.00383673
0.003597
-0.000207817
-0.00175487
6.37771e-05
6.48144e-05
0.000205239
0.00112941
0.00119737
2.33107
0.205482
4.37806
-3.72032
-2.76096
-5.14807
0.307009
3.97575
-3.76773
-3.17712
-3.84282
-1.57494
2.21586
1.45637
-1.97234
1.86061
0.276873
4.56614
-4.01781
-0.428967
2.36622
0.646009
4.428
-3.79062
-2.76739
-2.00412
-0.533009
1.89738
0.790111
4.65689
-4.08644
-5.60558
0.336911
2.15903
-2.44465
-5.77178
-1.01345
2.17123
-2.44749
1.34983
-6.33541
-2.13985
0.343835
2.3779
-6.4007
-2.14089
-1.06611
2.37494
1.43317
0.253043
4.48175
-3.88829
2.35896
4.41496
-3.75912
-2.78312
4.52415
0.492657
1.99533
-3.92308
0.290123
2.31284
4.95637
-2.64833
2.33288
0.573733
5.00823
-2.66442
0.305472
2.02357
5.0609
0.592826
2.04151
5.11798
0.729063
4.55505
-3.95639
-2.35142
4.57127
1.99489
-3.98111
0.980841
4.43304
-3.81623
-2.72255
0.878661
-0.838177
2.29501
5.04048
-2.60411
1.09927
2.32625
5.03079
-2.64617
0.869422
2.04161
5.15598
2.02188
5.18095
1.14621
0.276275
3.66144
3.45544
-3.21179
-2.80909
1.0969
-0.825634
-4.5016
3.7875
-3.86966
-4.54879
0.24637
3.93786
-3.91683
1.08495
-0.814301
3.63541
3.81402
-3.36051
-2.94565
-2.29037
-2.14959
0.044546
0.157056
-1.40169
-0.17072
-1.46436
1.33321
-0.984861
-5.24979
3.9392
-3.82095
0.288248
4.66984
-4.12603
1.88278
1.88441
4.61859
-4.0544
4.72945
0.559353
-4.17668
1.90803
-1.97136
0.315957
5.31751
2.02006
0.311043
5.16335
1.99177
0.603455
5.2277
0.614054
5.3915
2.04564
0.831448
4.77149
-4.21694
1.9232
-1.89593
4.80341
-4.24428
1.9261
1.11159
4.68099
-4.10579
1.05933
0.891964
1.99677
5.27558
-1.98484
-0.908522
5.55051
2.06331
1.20785
5.32017
1.18277
5.46036
2.05867
-4.4185
1.33063
3.62073
-3.79902
-1.98511
4.03243
4.36638
-3.65649
-3.1856
2.35024
1.3691
3.73005
3.87604
-3.40808
-2.98238
-0.893177
-1.00798
0.105881
-0.0871092
-0.0238931
-0.145396
0.0082234
-5.24799
1.67605
3.87029
-3.80687
-5.00512
-2.24211
3.31216
-3.51868
2.37821
0.32103
2.22475
-2.51824
-5.67296
2.17765
0.680819
-2.46093
2.24298
0.635866
-2.53425
-5.8216
0.342397
2.09656
0.328198
2.03548
5.90409
0.64431
2.05436
0.692263
2.11348
-0.933393
2.20626
-2.49367
1.22623
-5.72415
2.18055
-2.45972
2.23675
-2.52433
5.98423
0.949899
2.0569
-1.04117
-6.08502
2.10861
1.40582
2.11649
2.04728
1.2553
3.71951
3.50799
0.546797
-3.27031
-2.85743
0.290152
3.90808
4.23894
-3.00832
0.288275
4.15298
4.3956
-3.51539
3.97903
0.577402
4.30097
-3.05577
4.21417
0.5796
4.42308
-3.56869
-0.295537
0.610741
4.9163
4.38571
4.88756
4.37525
3.76949
3.56671
-3.3218
-2.90586
-0.869614
4.37342
1.17149
4.43765
-3.67226
-0.859382
4.04437
1.14873
4.46146
-3.13902
4.01644
4.36967
-3.09965
4.28475
4.43869
-3.61886
0.928882
4.36571
4.92791
1.26206
4.29809
4.92377
-2.02806
0.333785
2.20907
-6.20975
0.345617
0.330901
6.28709
2.04821
0.649895
-2.14788
-6.38595
0.704012
2.37033
0.704726
0.660671
2.24007
6.33747
0.964436
2.05404
-2.05203
-0.986932
2.31407
1.3312
-1.06564
-6.37699
1.43463
-2.14925
-6.40849
2.37491
1.28528
2.27052
3.96476
3.8967
1.66769
-3.46456
-3.02264
1.49924
4.48296
4.40905
-3.75213
1.45797
4.06806
4.59873
-3.18796
4.07788
1.79733
4.79781
-3.26752
4.60246
1.85732
4.34358
-3.88269
1.61096
4.25607
4.86463
1.9599
4.19113
4.77628
4.11689
3.98947
-3.54115
-3.08139
-2.23599
4.52226
-4.23844
4.17174
2.58436
-2.18928
3.97947
4.95015
-3.62663
2.61697
4.05988
4.92768
-3.40464
4.61927
-4.06643
4.23615
2.275
4.08469
4.70629
3.90767
4.56973
2.52172
0.30103
4.12123
-3.31254
-5.19182
3.98831
0.64459
-3.79605
4.1463
0.610864
-3.36483
5.03839
-0.294862
0.626741
4.22885
0.276489
-5.02129
3.89811
0.600463
3.88613
4.21887
-4.54581
3.88554
-0.536666
-3.91136
-0.919365
4.40778
1.2461
-4.16952
4.44225
-0.601444
-4.14083
0.914444
4.27491
-0.594225
4.5321
-4.18232
-0.710043
0.920236
3.14294
1.22783
4.46917
-0.465557
3.37879
0.286738
4.4859
-4.06965
-4.55981
3.93251
-3.92667
4.48602
-4.10603
-0.276189
4.32205
4.55943
-4.3252
0.209454
3.54782
4.55608
3.50417
-5.22681
3.97757
-3.81403
-0.92072
4.12652
1.25021
-3.4974
4.14941
-3.42379
5.02944
0.961716
4.20502
-0.919575
-4.99387
1.21488
3.67842
3.82027
1.29729
4.14346
1.57209
4.37839
-4.18053
-4.28993
3.35309
-3.68593
1.50501
4.30722
-4.20489
1.88018
-4.03991
1.06326
2.74419
1.51401
4.36055
3.80937
1.74636
4.17727
1.09171
2.14882
1.61052
4.0748
-3.59538
-5.20976
3.75839
1.99641
-3.75953
3.96599
1.98668
-3.70223
-4.91333
1.46017
3.4382
1.62353
4.04143
4.7747
1.91003
3.89626
1.62939
2.98343
2.25283
0.229767
2.70557
-2.05866
-2.04554
3.95161
-3.13051
-1.73675
2.68898
2.01774
-2.37415
-2.50578
2.82747
0.250594
3.04274
-2.45129
0.8576
-0.638758
2.37175
2.93293
-2.33852
-2.14707
1.10535
-4.65102
-0.820846
2.99462
-2.61352
1.17297
-3.73226
-0.869547
-4.60387
-4.66858
0.26653
-3.6858
1.02978
-2.97266
-0.771659
3.36579
-2.78493
0.274638
-4.49862
2.89775
-2.50985
1.08761
2.38294
2.99694
-2.41007
-2.15023
4.71062
-1.90682
3.0335
2.26338
-2.60879
-4.69326
1.40746
3.03913
-2.65955
-3.42392
-1.89174
-4.26504
1.98096
-3.70276
-4.57679
1.46016
-3.19699
-1.86587
3.81861
-2.96572
2.17703
-3.00994
1.29886
3.4199
-2.82561
0.239603
2.87832
-2.26018
2.30015
2.77189
0.432181
-2.12606
-2.0928
2.93654
0.459363
2.5571
-2.31908
0.25644
2.41911
3.38125
-2.18967
2.46581
0.491276
3.44509
-2.23368
-0.262843
0.510474
2.76196
3.62158
2.71115
3.56255
2.34817
2.85823
-2.23827
-2.1328
-0.682802
3.06767
0.915692
2.64151
-2.48434
3.00667
2.60955
-2.40587
-0.726051
2.53658
0.963995
3.57755
-2.28828
2.50998
3.51447
-2.26927
0.755252
2.80915
3.6864
1.00138
2.84139
3.75019
2.39586
3.04219
1.3322
-2.45339
-2.14849
1.16096
3.11693
2.66671
-2.54218
1.21065
2.56077
3.64347
-2.3024
3.15602
1.41683
2.69841
-2.57802
2.59066
1.46965
3.71627
-2.31823
1.25924
2.87713
3.826
1.53103
2.9204
3.92513
-1.58691
2.46871
-2.53197
1.8503
-2.17683
2.4227
3.08055
-2.48824
-2.1547
-1.67719
3.25881
2.80825
-2.66218
1.94728
3.19856
2.74406
-2.6123
2.63218
3.80858
-2.34002
1.81312
4.05944
2.9817
4.24894
3.06765
2.11459
0.26306
3.21624
-2.62874
-2.8836
3.26593
0.517435
-2.67935
3.09506
0.488201
-2.50404
3.12581
-0.271547
0.531862
3.86694
0.279915
-3.07304
4.22644
0.553769
4.26782
3.80784
-0.728092
3.20364
0.974434
-2.63228
-2.93686
3.31702
-2.73517
3.15251
-2.57117
3.17267
0.787223
3.93539
-0.823474
-3.21017
1.09858
4.33957
4.30685
1.04567
4.01143
-4.55674
2.93225
0.547353
-2.54437
0.270931
2.60151
-2.30493
2.64441
0.525587
-2.34409
-0.276728
4.69824
0.543739
3.02307
-4.65699
0.275168
3.31702
2.97468
0.560192
3.34807
-0.776767
2.71653
1.02956
-2.40317
-4.60767
2.96411
-2.57919
2.68429
-2.37874
0.806075
4.73307
3.07023
-4.75334
-0.847426
1.14478
3.39333
1.07413
3.11754
3.37317
1.23276
3.24933
-2.67945
-3.05417
3.49521
1.57677
-2.86114
3.29075
1.49835
-2.71386
-3.25882
1.39132
4.36935
1.31823
4.1081
3.32114
1.60566
4.26465
1.71019
4.38922
1.29705
2.76058
-2.43159
-4.73027
3.08793
1.72566
-2.70596
2.82435
1.58785
-2.46934
-4.76222
1.45916
3.41803
1.3634
3.18343
4.74767
1.68118
3.2755
1.78583
3.44084
-2.06199
3.16028
2.38337
-2.83067
-4.74222
3.1382
-2.76688
2.91471
-2.52481
2.0285
4.69072
3.39662
-4.59041
-2.09752
3.37128
2.3657
3.51066
2.39312
3.43569
-1.76769
3.45518
-2.80697
2.05351
-3.11558
3.61329
-2.9036
3.34985
-2.75206
3.41842
1.9117
4.31826
-2.06337
-3.57888
4.31046
2.46233
4.38053
4.35425
2.26059
3.51901
-0.282115
4.76554
0.563923
0.286803
-3.46789
-4.67853
-3.71098
0.565513
-4.73925
0.274114
0.586594
0.568934
3.57199
0.844393
4.77444
-4.7567
-0.868486
1.17781
-4.66132
-3.72491
-0.88675
-3.63887
1.19976
1.13516
-4.71185
1.49148
-3.72008
1.53033
1.45007
3.80151
4.63799
1.78827
-4.52464
-3.65548
1.70721
1.87677
1.79328
3.86837
2.14166
4.54911
-4.48688
-2.05346
2.2372
-4.42751
-3.56925
3.49589
-2.20203
-3.88549
4.03788
2.4773
4.12656
2.49339
-2.13757
3.97965
2.30773
-4.10722
2.92607
4.18408
1.90143
3.4198
3.86276
-2.67275
-0.94481
0.569824
0.597622
3.31599
1.92127
1.37389
-2.33992
3.77996
-3.73694
2.64089
-5.08572
3.58862
-3.60854
3.88574
-3.74054
4.5427
2.11806
3.66475
-1.663
-4.12651
1.25339
1.45538
2.28266
3.24076
2.2172
4.34533
-0.248176
3.78247
0.546258
0.185077
-4.37009
-3.81608
0.135112
-2.18722
-2.04187
0.127994
0.418076
0.322025
4.25359
0.835656
3.67542
-3.44914
-0.484564
0.578973
-1.94832
-1.79247
-0.633855
-4.0717
0.792521
1.09577
-3.05555
0.567532
-3.76518
0.846103
1.30186
3.25118
2.41799
1.41794
-0.617233
-0.469539
0.0561662
0.748118
0.432631
-1.62855
2.61575
4.04721
-2.87731
0.311141
-8.07608
-1.86255
0.844568
0.185166
-1.65183
0.546897
-3.39488
-0.841677
3.8207
8.71931
1.42291
-3.55314
-8.99515
-3.28018
0.329841
-0.180338
1.13073
-5.75129
-0.186244
2.9484
0.917289
0.8453
-1.82476
-2.82393
-0.220314
-1.79214
-0.307286
-0.308011
-0.56271
-1.7812
-0.685014
0.514446
0.932275
2.32075
-0.412533
-1.32222
-0.0263649
-0.326315
0.532347
2.07464
3.91051
9.04929
-3.58258
-9.09842
0.428087
6.52468
-8.28582
5.59658
0.628321
2.79256
-8.15024
0.0939082
2.24929
5.7893
-2.80249
1.87475
-0.296634
3.97489
-2.63913
-0.417756
-0.0935618
1.27886
-1.33126
-0.199781
0.918433
3.49414
7.5563
-3.2122
-8.50751
-0.0416818
1.32611
0.712163
-1.48276
-5.89134
3.52903
-7.65991
1.76115
0.578396
0.458685
-2.06397
-3.11066
1.17321
1.53105
-2.31317
-2.27154
-0.148772
0.624588
0.0932537
0.611898
-2.67738
-0.563249
0.180827
-0.107611
-0.621105
0.191966
0.755895
-5.00226
0.0315719
-1.26462
-0.0915409
-0.337815
0.42931
-0.553415
0.511861
-0.239008
-0.816628
0.479663
-0.420656
-1.58953
0.312435
-1.01464
0.713063
0.00490394
-1.20454
-0.374957
-1.40476
-0.00714426
-0.0464065
-2.67562
-0.221904
-0.997452
-0.327309
-2.61059
-1.30428
-0.504189
-1.0021
-0.353699
0.631614
-1.16933
-0.692368
0.398273
-2.0095
-0.54738
-1.6457
-0.138741
0.878625
-1.57799
0.0966149
0.0868989
-0.16379
0.269175
0.509579
-2.15449
-1.15127
0.326743
0.322214
-1.66682
-0.168805
-1.9391
-0.21759
0.377991
-0.104497
1.33055
1.08581
0.551683
-1.37562
0.616344
-2.02345
0.888122
0.282607
3.3303
0.525823
-1.63317
-3.40425
-0.0590141
0.417118
0.134754
-1.39963
0.0300029
-1.35479
0.437117
-2.40925
-0.209037
1.98219
-0.70495
0.608067
1.48729
-1.98527
0.209182
1.15477
0.230529
-2.48157
0.467984
-0.498507
0.157936
-0.635502
-0.622972
1.52129
-0.755296
0.878369
-0.20993
-1.30603
-0.19377
-1.47818
-0.508557
0.640607
2.15267
-0.993096
1.69691
-0.808671
0.322577
1.11529
-1.62445
0.0787438
-0.404737
0.949408
0.773033
-0.913582
1.17872
-1.35165
2.03941
-1.15408
-0.441986
-1.66781
0.804595
2.26674
1.90711
-1.64711
0.566242
-0.352207
0.0866232
0.421721
0.0373714
0.746339
-1.02574
0.575458
0.686329
0.0919966
-1.79256
-0.455851
2.14699
0.647307
-1.88193
2.02631
-1.42463
0.165773
-1.73295
-2.74651
-0.702921
-2.26345
0.950415
3.11922
-2.29083
-1.878
2.59722
0.219945
-2.05485
-0.0380668
1.31038
0.215387
2.49188
-1.6789
2.1271
-0.743312
0.0239726
1.30344
0.311179
0.547852
0.138355
-0.163126
1.11041
0.792051
-0.517718
-0.336133
0.431198
1.14432
1.20451
-0.367743
0.913178
-0.547862
0.57891
-0.59878
1.28419
0.0771404
-0.18695
1.13831
1.74829
1.03997
0.824727
0.873762
-1.07017
-0.19001
0.461631
1.40849
1.30789
-0.411107
-0.832728
1.31394
1.11787
-0.634673
0.72133
1.00866
1.53698
-0.686362
0.808017
1.45646
-0.15952
1.30277
1.83171
1.44709
1.86786
-0.0347246
-1.64344
0.199751
1.66592
0.0208432
-1.19276
0.0898646
2.02293
-1.50745
2.07245
0.302277
-1.78597
1.7065
0.0095442
-1.24667
1.71532
0.180471
2.06799
0.372722
2.34066
-1.0328
0.120272
1.55693
2.52551
1.81966
-0.210793
-0.0292946
2.35832
-1.90242
1.11219
-0.0477853
2.40405
0.851142
-0.363607
2.17869
0.062243
1.3796
0.248231
1.61772
2.57576
-0.0638876
1.82368
0.212169
-1.45938
-1.65592
2.12598
-1.85291
1.77282
-1.35427
0.299959
1.83079
2.12045
-1.93428
-0.556154
2.42225
0.765586
2.14919
0.47787
2.3947
0.341334
1.16007
-0.21986
-2.02353
1.22915
2.47997
1.02428
2.24314
0.166882
1.50323
-0.401646
-2.26071
1.76686
0.60167
2.65825
1.70441
2.63859
1.59719
0.340858
2.35381
0.159663
-2.08945
0.236086
2.96554
0.197906
2.72498
2.40806
1.93638
0.30847
-2.14186
-2.654
0.464749
3.02551
0.388524
2.78402
0.423155
2.4674
0.476224
2.02272
-2.097
-0.636157
0.866797
-2.20828
-2.7119
3.08163
-0.593885
-2.49703
0.821277
2.87959
2.84635
0.679683
2.22375
1.34369
1.72849
-2.12231
-2.08649
-1.32256
0.34072
0.646723
-1.2326
-0.931452
0.0679362
2.76197
1.11598
0.0942448
-0.812428
0.917639
-2.33236
-0.126885
2.95923
-2.28774
0.54183
-0.506583
3.08746
1.90598
-2.52899
-1.8522
-0.404514
2.8892
1.63022
-2.31806
-1.76787
-3.48643
1.67325
0.211637
-1.85197
-0.408171
1.72957
0.615298
-3.53552
0.559532
0.913011
-1.98607
-1.49205
-0.762811
1.63477
0.224981
1.8027
-1.2254
0.392668
-0.873025
1.00698
-1.79646
1.16003
-1.2814
2.04434
-1.93852
0.47212
-0.713221
0.921199
2.62287
2.53237
0.952666
1.26518
-1.84007
1.42489
2.23222
0.971248
-1.34917
2.0129
0.67703
1.38973
1.75032
2.51881
-2.43382
-1.23238
1.45789
-2.20601
-0.755582
1.11893
2.73519
1.31917
2.83497
-0.599547
2.66346
-0.482143
-0.0785181
0.842506
0.0756505
3.13832
1.15577
-0.412779
-0.593652
2.69613
-0.131509
0.919739
2.42337
-0.637889
0.999784
-0.194065
2.99608
0.174873
3.16297
1.21462
0.677825
2.58186
-0.571538
-0.770524
2.74744
1.0314
2.53364
-0.139699
1.1171
3.03681
-1.22183
-0.303632
3.2083
1.34475
0.497776
3.04592
0.0338211
3.19613
1.28605
2.97489
1.72833
-2.38385
-0.0221139
2.12323
-2.66373
2.17559
0.0619126
-2.69805
-3.25
0.113881
-0.116557
1.34999
3.29565
-0.157602
1.42368
0.261407
1.80926
3.18041
2.07409
-2.65169
-0.323528
-0.214048
2.2902
-2.75932
0.426493
2.2424
-2.73565
3.35052
-0.0739095
1.53544
-0.43747
-3.39542
1.87969
0.666854
1.64065
0.129489
1.34625
0.071618
-3.60989
0.248638
1.70095
0.189659
1.45591
3.51035
1.40057
0.175119
-1.70359
-3.64724
0.480702
1.73166
0.366595
1.49786
-3.68497
0.719032
1.75759
0.554501
-1.46351
1.54149
-1.7436
-3.70815
1.77124
0.978506
-3.54823
0.85905
-1.51514
1.57466
0.782048
-0.312993
0.527468
-0.901251
1.03348
1.09344
-0.63503
-0.399185
0.14217
1.23571
1.19524
0.326495
-1.07801
-0.784345
-1.98874
-1.34222
2.21043
1.61811
-1.90136
-1.87523
0.85653
2.14396
-1.88637
-2.94196
-2.42832
-1.73606
3.35364
2.01545
-2.065
-0.98843
1.51644
2.53878
-1.23207
1.31512
-2.7747
-2.30586
1.20823
3.15843
-2.04589
0.431239
1.36418
2.46971
-1.01508
1.15167
1.16635
-0.590915
-0.89458
-0.613175
-0.230091
1.46998
1.43042
-0.994492
-0.49898
1.13864
1.61207
-0.786694
1.21054
-0.153565
1.58636
-0.961471
1.4696
0.0781724
1.48862
-1.07263
0.182558
1.53709
1.86199
0.465217
1.57689
1.84001
1.16506
1.21131
-1.0329
-0.732193
-0.447591
1.51934
1.54316
0.831639
-1.14393
-0.24773
1.27307
1.6171
0.661846
-1.06963
1.24356
1.56953
-1.02844
1.46927
1.51561
-1.10553
0.778564
1.60517
1.85521
1.6427
1.9264
1.11438
0.425714
1.81835
-1.495
-1.91805
2.14233
1.0867
-1.87647
1.80929
0.674715
-1.49747
-2.00651
0.991901
2.43298
0.689415
2.14459
2.04366
0.929634
2.15008
1.23472
2.45251
-0.0044023
1.23937
-0.910866
-1.99991
1.40232
0.69062
2.44003
-1.08334
1.27758
0.296403
-0.994696
-2.25136
0.822808
1.81396
2.66534
0.550746
1.66359
2.24269
0.800742
1.69427
1.06975
1.84237
2.67442
-0.961374
1.88078
1.27659
-1.53792
-1.95011
2.16034
-1.87645
1.82386
-1.50303
1.19813
2.07508
2.18702
-2.12112
-1.49198
2.56128
1.76244
2.26276
1.4902
2.4926
-0.63555
1.36667
-1.11296
0.998874
-1.99981
1.44928
2.46107
-1.15556
1.31429
-1.05235
2.27506
1.07879
1.72723
-1.3363
-2.35625
1.9409
2.80755
1.62401
1.88047
2.72042
1.77833
1.38249
-2.15321
1.11185
-2.51074
1.0642
2.90806
0.903046
2.53272
2.18499
1.14692
-2.336
-2.80954
1.47107
3.20243
1.31842
2.94255
1.36628
2.58326
1.40691
2.21876
-2.27181
-1.62469
1.89401
-1.57839
-2.66716
3.08901
1.85237
-2.37329
-2.86371
3.26607
3.00151
1.68375
-3.72736
0.264428
1.9624
4.23614
-2.58679
-1.84188
3.82118
2.14712
-2.90784
-4.42334
0.306306
5.38392
-2.28562
0.254149
3.38172
-1.29985
0.181892
2.94098
1.78469
1.01802
-0.759148
-2.42864
3.53502
-0.334451
1.49334
2.9167
0.534086
1.24596
-0.920078
-4.64321
-3.05206
5.51059
-0.518556
-3.82795
0.777749
2.02348
4.34006
-1.2919
1.68605
3.03959
-1.39798
1.59693
-2.46155
1.28525
3.58086
-0.756777
-2.91417
1.00039
1.71673
3.38858
-1.39514
-4.77949
-3.13795
1.60773
5.52234
-5.23238
-2.37064
-3.4161
5.30384
2.6805
-1.04805
-3.8895
1.32707
2.05779
4.41182
-1.78717
-4.07735
-1.90195
2.17029
4.68527
-1.87308
2.21918
2.80696
0.0853513
0.173753
1.55019
3.24744
2.84496
1.36024
0.194261
1.59736
0.345939
3.29184
2.9964
0.359972
1.83569
-0.219659
0.436199
3.4568
2.04165
3.39649
1.99793
2.90236
1.43958
-0.554818
3.08382
0.781028
1.94469
-0.534192
1.68673
3.36811
1.64987
3.34398
3.05753
1.90057
0.666124
2.088
3.51298
0.914569
2.11961
3.5449
0.758656
1.53521
-1.18663
2.91156
1.5705
1.01231
-1.24986
1.02329
3.10699
1.97927
1.75004
1.26151
3.41167
-1.4457
3.13321
1.27891
2.00801
1.17399
2.14441
3.57688
1.43868
2.17317
3.61327
0.22542