/*--------------------------------*- C++ -*----------------------------------*\
  =========                 |
  \\      /  F ield         | OpenFOAM: The Open Source CFD Toolbox
   \\    /   O peration     | Website:  https://openfoam.org
    \\  /    A nd           | Version:  9
     \\/     M anipulation  |
\*---------------------------------------------------------------------------*/
FoamFile
{
    format      ascii;
    class       volScalarField;
    location    "0.00145";
    object      rho.c4;
}
// * * * * * * * * * * * * * * * * * * * * * * * * * * * * * * * * * * * * * //

dimensions      [1 -3 0 0 0 0 0];

internalField   nonuniform List<scalar> 
11043
(
0.413825
1.28509
0.642796
0.763658
1.62418
0.397562
0.481259
0.529328
1.17673
1.96401
1.24418
2.18843
1.11121
1.18951
1.63507
1.69819
0.503414
0.777414
0.718853
0.705488
1.10231
0.674271
1.14261
1.06367
1.20934
1.20555
1.46422
1.4703
1.48628
1.48279
1.29026
1.1965
1.24473
1.49081
1.46572
1.48611
1.53535
0.556693
1.02934
0.895251
0.771454
1.26424
1.20239
0.855159
0.40348
0.396713
0.406269
0.496508
0.445226
0.480402
0.453304
1.18904
1.18067
1.18825
1.42565
1.44552
1.44643
1.43126
0.432374
0.465584
0.427373
0.530686
0.497143
0.582479
0.469212
1.23437
1.20681
1.1962
1.46426
1.51676
1.45802
1.52437
0.932599
1.36948
1.53264
0.959389
1.5486
1.19622
1.3816
1.81603
1.70545
1.96097
1.83349
1.63892
1.71184
1.98112
0.66944
0.825962
0.625868
0.6462
0.687774
0.847191
0.542631
1.97482
1.96907
1.68682
1.70799
1.98642
1.9935
1.69784
0.684898
0.606563
0.935202
0.718496
0.883041
0.738471
0.567797
1.00417
1.43112
1.26923
1.57459
1.2236
1.4009
1.06102
1.69489
1.8733
1.64662
1.73178
2.17517
2.03756
1.82461
1.7367
2.19941
1.8376
2.04354
2.0523
1.73402
1.84078
0.971684
3.91389
2.07793
3.28664
1.89425
0.865329
1.73998
1.8857
2.95887
2.29908
4.95698
2.58565
2.33141
2.06532
3.4832
4.38297
0.885554
1.07272
1.09352
1.11963
1.36209
1.38482
1.14195
2.0944
2.28379
2.31207
2.40442
2.69603
2.73216
2.44075
1.18673
0.919481
1.12951
1.42783
1.24455
1.49832
1.18143
1.76247
1.41152
1.4295
2.02829
1.6758
1.69722
2.05786
2.31067
2.31983
2.34494
2.75179
2.77085
2.80414
2.77896
1.51568
1.80925
1.4596
1.74258
2.2424
2.12456
1.82219
2.57495
2.16464
2.39727
2.83626
2.69843
2.53077
3.0475
2.61578
2.40798
2.42968
2.90846
3.08066
2.87237
3.12999
1.44633
2.17886
1.71405
1.73889
1.91368
2.20722
1.4705
1.79225
1.59871
2.38954
1.97426
2.27337
1.88181
1.51886
2.42036
2.50175
2.0204
2.04727
2.99944
2.53382
2.45556
2.10896
2.75356
2.68887
3.10009
2.61196
2.53893
2.21699
2.8549
4.04199
3.24892
3.29381
3.53303
2.89726
4.10005
3.41861
3.20698
4.59256
3.66181
3.0037
4.26027
3.67457
3.37278
4.35281
3.39662
3.43801
4.42574
4.4056
3.40727
3.56478
4.94634
3.77869
4.58296
4.57352
3.5218
3.83721
15.8745
51.0347
30.0242
17.4403
9.4608
39.1053
22.6557
38.333
20.5104
29.6796
8.80244
39.9404
31.3052
10.3351
52.3892
41.1139
32.633
21.2505
8.84977
11.1029
11.1661
16.0397
16.1167
20.3722
20.2896
48.103
48.6475
18.6156
48.0022
48.723
32.8069
10.4776
9.01567
12.0432
11.4035
17.2138
16.4077
20.7371
21.7683
11.7901
13.3116
15.4462
18.7918
21.3329
23.7935
26.9463
63.9981
21.9183
48.3752
51.1629
63.9295
3.82368
0.31379
14.0406
23.755
18.7771
29.8948
25.0297
31.2814
36.6256
16.1419
21.2281
15.1774
26.4693
33.8156
32.8172
27.6084
20.6596
14.718
14.8118
26.1018
32.6188
32.5733
26.0559
29.6594
18.0527
25.3613
35.9345
29.8934
33.4056
39.1662
16.1107
29.7934
28.0724
28.4878
30.1649
44.79
44.7782
29.5924
25.7549
25.7197
29.276
32.2551
29.3707
32.1682
26.4473
29.5733
25.8307
29.3107
32.75
29.8946
32.1769
16.8683
34.2946
32.8075
29.8254
31.4203
45.3971
47.2012
27.8534
33.4513
30.0867
34.3102
31.3905
33.9094
36.8672
42.7734
26.0395
35.568
37.8696
48.3266
43.3892
42.7972
27.4506
39.3988
38.1047
45.779
46.6623
50.3975
54.4383
36.8109
36.3542
33.0586
37.3202
44.1469
41.4582
40.2109
32.825
38.2636
36.6006
35.1962
36.4817
32.9494
35.1198
36.051
62.6784
62.8751
54.6789
55.0242
59.3078
64.4004
32.8369
35.866
37.2021
38.3249
36.4952
33.4815
35.1658
37.6825
39.1149
35.2205
38.0782
44.2181
42.2146
40.563
45.4839
47.8734
45.3734
48.7068
49.1963
48.9701
49.0522
43.8191
47.763
43.88
48.7246
49.044
48.8685
48.9971
47.7997
47.066
45.6807
48.6479
50.0054
49.4885
49.0613
46.5652
47.7615
44.5917
48.6769
49.8762
48.8848
49.5533
49.8106
54.7598
53.765
52.4886
51.8826
55.5815
56.2201
41.7998
48.3992
48.0652
50.8217
46.2067
46.181
44.2211
49.9162
54.8269
54.0157
52.3954
51.9602
55.6261
56.1068
59.2548
63.7313
58.5998
60.0393
66.612
64.7452
60.7065
63.9971
59.2367
58.9023
60.0404
65.8793
60.5042
64.7578
2.27959
9.50805
39.2921
2.38299
2.40184
2.51219
4.40443
5.11959
6.98207
8.29205
2.26694
2.3094
2.30196
2.723
2.76313
2.72476
2.76745
2.3964
2.57312
2.584
3.08577
2.87216
2.87538
3.08124
3.50801
17.8166
15.9325
3.84208
45.2373
45.9484
10.9444
2.7075
2.41926
2.74884
3.34852
2.8929
2.93954
3.40416
2.8481
3.03511
2.68617
3.0503
3.77478
3.26039
3.53103
20.2409
6.83884
4.19237
48.3931
62.1295
12.6516
27.9078
3.34031
4.48458
3.39331
4.57889
3.35466
3.41003
4.67043
3.79803
4.69177
3.52855
3.54613
5.36517
4.89907
3.81531
3.54669
4.42426
5.02873
4.47885
5.08729
7.14066
7.05097
3.64293
5.58322
4.90482
4.61519
5.24245
7.38946
7.94674
4.48716
5.33307
3.66458
3.73311
7.13262
5.44566
4.57892
3.89378
5.21716
6.27085
7.50945
5.71874
4.20926
4.7925
4.74782
6.21943
5.43851
6.33137
7.28254
8.99834
10.772
5.58771
11.5202
9.99952
7.76044
8.95085
13.6035
18.0562
6.1166
9.64307
6.20502
10.8714
17.4799
17.7018
10.7427
16.5706
9.59039
8.94752
13.378
27.15
14.4589
25.1782
8.58785
16.0693
8.67579
12.9316
24.1392
12.8018
24.3619
10.0411
6.94894
6.43903
11.2791
20.2247
18.4504
12.2394
10.8326
24.3232
12.9391
30.8164
16.5379
20.0476
36.4564
7.90194
15.5572
9.50599
23.6096
14.0803
17.2087
29.2754
1.85016
3.97647
2.46972
2.0213
5.47687
12.2007
11.016
3.17702
5.07362
2.18801
5.7698
5.94877
26.4305
13.7229
5.21798
3.44694
2.12816
1.86886
2.14997
2.39355
2.41536
2.77433
2.74902
1.91926
2.32759
2.20875
2.59414
2.47329
2.8422
2.98463
2.42274
2.5207
2.7947
2.79403
3.08257
3.2246
3.57955
3.10094
2.72645
3.60349
3.15236
3.4691
4.07387
4.75645
2.90746
2.93789
2.49498
3.25185
3.90721
3.949
3.22118
2.69952
3.01658
2.56253
3.3336
4.28799
4.05706
3.50697
5.11244
3.23245
3.26164
3.86448
6.2276
3.82887
6.27264
3.50283
5.22114
3.33808
3.96027
6.76067
4.1715
6.41311
2.9241
3.85272
3.24968
4.70267
3.8079
4.27685
5.3723
3.78921
6.71151
4.22745
7.4278
4.55001
5.14952
8.53756
9.61833
7.87304
4.86197
6.04145
12.8507
7.33775
10.2584
4.26175
4.42502
3.68853
4.96272
7.94408
6.39673
5.94639
4.7757
6.1737
11.1053
8.03968
6.23575
4.72913
8.10092
4.90281
8.81571
11.4188
6.82333
6.41406
5.18855
8.30443
9.81219
7.59619
5.71634
6.57313
16.2841
8.89386
11.4836
7.87395
17.9874
20.2985
14.0769
10.9364
9.8299
14.0756
21.4007
30.5677
16.2685
25.6362
52.2073
34.253
43.8713
16.0648
20.2955
12.0482
22.2444
49.8343
37.9174
30.2164
20.3987
32.7193
36.1431
45.0196
33.0202
20.178
36.2779
21.1757
39.0137
45.039
36.7285
34.1308
23.0525
37.0369
42.5825
41.2622
26.6471
32.5119
52.2563
47.5688
47.4045
0.104291
0.332457
0.0555085
0.197034
0.980566
0.716076
1.15173
1.0183
0.0527703
0.0778823
0.0926191
0.0918249
0.119079
0.213962
0.268179
0.0645724
0.223621
0.128862
0.345012
0.191147
0.369668
0.504134
0.448731
0.239939
0.499734
0.692077
0.453158
0.504749
0.711559
0.308395
0.785812
0.392455
0.817313
0.511104
0.566789
0.842753
0.574983
0.447982
0.65767
0.582218
0.789707
0.672714
0.739604
0.692642
0.884527
0.531249
0.654462
0.960284
0.887278
0.760024
0.843985
0.897106
0.722008
0.741289
1.03699
0.91269
0.863937
0.772312
0.946853
1.00959
1.07678
0.944639
0.830293
0.893012
0.701835
0.754727
1.5867
1.43906
2.51513
1.95189
1.37183
1.24521
0.724143
0.88576
0.844564
0.90815
0.867354
1.06712
1.04459
0.803929
0.990861
0.938486
0.946263
0.895292
1.10279
1.16887
1.67291
1.12453
1.31968
1.45581
1.14148
1.33627
1.69176
1.48848
1.00752
1.21466
1.23496
1.02985
1.26411
1.50773
1.24823
1.50082
1.17987
1.3814
1.84554
1.46662
1.74386
1.13445
1.28339
1.06697
1.3098
1.66449
1.56207
1.39482
1.5555
2.28979
1.83861
1.57416
2.31481
1.85996
1.97336
1.62642
2.14871
2.38164
2.03556
1.91932
1.72743
2.03218
1.21691
1.0995
1.40923
1.33348
1.69463
1.62013
1.97827
2.09027
1.10658
1.03923
1.05782
1.35454
1.36074
1.29925
1.28051
1.1429
1.18764
1.10454
1.49369
1.4022
1.35904
1.46953
1.23586
1.50991
1.0885
1.25705
1.10591
1.3557
1.53223
1.24427
1.30892
1.15296
1.41714
1.71909
1.53351
1.5967
1.63408
1.923
1.94344
1.88801
1.55997
1.58625
1.91733
1.81852
2.177
2.02079
1.65946
2.15896
2.00226
1.79551
1.63241
2.23177
1.84046
1.65717
2.26369
2.0079
1.86641
2.34765
1.94069
2.50567
2.24246
2.08033
1.86585
1.73069
0.869283
1.29339
2.4847
1.7264
4.00555
2.28209
2.73278
1.51764
0.968171
1.07701
1.03542
1.16597
1.20576
1.28142
1.44514
1.10504
1.60953
1.57486
1.34516
1.38265
1.65904
1.91871
1.36026
1.9242
1.52404
2.00878
1.60425
1.7992
2.23688
1.25164
1.72212
1.41983
1.82853
1.53369
1.72923
2.05675
2.00233
2.17842
1.73951
2.04734
2.88121
2.34342
2.52796
1.90435
1.97935
1.63933
1.97765
2.69177
2.34526
2.27343
2.33602
2.22194
1.88893
2.11398
3.04632
2.48338
2.59975
2.39964
3.36831
3.2399
3.46537
2.82119
2.74395
2.94206
2.59965
4.90088
5.63799
2.71788
1.78004
2.98378
1.65704
6.44927
2.72997
2.72434
3.24555
2.1982
7.35742
15.2378
3.19204
4.93434
1.46928
1.7751
1.48948
1.79875
1.80184
2.15712
2.13043
1.54796
1.98335
1.99482
1.86624
1.86405
2.22896
2.36785
1.83141
2.07122
2.17445
2.478
2.44171
2.59312
2.91439
2.14386
2.63741
2.17327
2.59984
3.13654
3.18388
2.56495
2.18116
2.74872
2.20642
2.64122
3.29259
3.33262
2.60919
2.36951
3.20809
3.26595
2.83196
2.78474
3.33782
3.8778
2.82707
2.40862
2.2746
2.72219
3.62298
2.88079
3.42915
2.25131
2.90556
2.40012
2.68622
3.50103
3.293
2.85187
2.62639
3.63494
2.93893
3.95714
3.14419
3.53384
4.47459
2.63787
3.60917
2.97225
3.85259
3.12518
3.52642
4.38789
3.88728
4.1744
3.3545
4.06993
6.33017
4.7857
5.22912
3.96337
4.17657
3.4085
4.07426
6.27056
5.15709
4.80352
3.2168
3.99115
4.13196
5.72938
4.05094
4.18613
3.17378
3.31839
5.96033
4.58484
4.46196
4.18869
3.51637
4.31621
5.07224
4.95044
3.85383
4.37157
8.89723
5.75698
5.88467
5.11606
9.23914
11.3607
9.10577
7.04768
6.18375
7.18093
41.0063
58.697
56.9671
61.0906
54.5599
51.6441
52.8276
3.19876
3.95789
3.36579
8.88493
10.3649
10.2245
12.3091
42.8621
45.3592
12.0603
27.239
6.61134
14.5945
33.5289
48.4571
62.423
3.24952
3.97332
4.03948
4.11195
4.18695
5.7019
5.58794
3.58693
4.48405
4.18926
4.70254
4.36014
5.98064
6.54765
4.52457
5.00963
5.3079
5.88043
6.30768
7.57225
9.27597
5.35646
9.49342
7.26801
10.4137
7.90345
12.0122
16.3783
5.46676
9.0366
5.56762
8.94987
15.2213
8.78016
15.4803
6.07237
10.4446
6.2036
9.39132
16.5215
16.8531
9.20111
9.45563
6.32475
5.81498
9.40832
18.0878
10.3825
16.283
7.16604
11.0429
6.52244
9.90237
19.9162
17.8233
10.9867
7.26007
14.9435
8.83895
21.4476
12.1726
15.201
27.0514
8.32095
18.3622
10.2538
23.7094
12.972
16.3101
29.8771
19.6496
15.388
11.3752
20.1325
48.1381
27.9934
35.7407
18.3553
24.336
13.3712
21.6466
49.5929
38.7697
30.0382
15.721
27.5825
28.2091
42.92
28.6759
15.4275
28.0292
16.6025
32.5099
33.1764
43.5743
30.1191
18.5279
29.4374
37.8188
38.2555
22.0464
27.8761
52.4791
45.1044
45.3577
36.7912
61.6691
59.1279
57.3346
52.5563
48.8888
53.9476
49.2863
49.7469
49.5944
28.7377
49.5386
49.4467
49.703
49.2878
50.9858
50.8598
19.6784
49.6726
50.252
49.8293
53.7821
53.6716
52.7605
56.4923
0.65162
52.9764
43.624
60.909
1.69622
2.21117
0.33029
13.4617
66.555
10.8702
69.1743
62.7313
69.0749
0.107922
85.3882
0.0889721
0.00178933
0.0813127
74.0653
68.9981
69.2398
74.8994
74.7268
69.6085
74.7141
80.559
84.4734
84.5075
80.0222
79.9472
79.8649
36.3035
69.0527
53.5332
74.3261
12.5212
69.861
76.8126
0.641958
69.233
75.1877
74.4326
17.3883
69.8207
76.4639
1.14031
7.56082
33.0974
79.7997
9.61107
0.0504653
0.0563532
0.136514
5.28949
29.2913
79.9189
8.53343
0.0418946
0.116337
0.045707
39.992
8.26962
8.21047
68.15
17.084
23.3711
7.49483
22.6654
15.8969
76.981
85.071
145.782
77.2201
57.4165
75.9847
12.6454
27.8389
27.342
12.6379
34.1947
6.96775
27.3164
29.0274
12.7857
34.0654
38.1516
16.6607
7.00641
27.1565
10.8774
13.2719
39.8362
30.7059
53.5022
41.2457
19.9383
15.2518
3.8767
7.12424
10.8954
26.9318
6.03224
10.4139
41.4598
38.5007
41.8957
16.8306
37.3004
41.2883
46.3882
4.2545
4.8061
5.18762
4.92215
5.30159
6.34811
5.96598
7.03742
7.02525
8.21105
12.6562
12.6448
14.8662
14.861
37.1871
41.9097
31.6892
41.0181
14.5651
41.8737
46.3223
46.4211
7.76769
14.1577
77.3923
165.029
14.6776
56.4444
6.9985
8.16022
8.19194
12.5166
12.588
14.8274
14.7624
7.19125
8.21644
8.47152
12.5729
12.8969
14.8561
15.3164
14.8768
7.59564
9.9936
9.03469
13.632
16.357
18.1292
4.89139
7.22144
5.89667
7.31114
6.00334
7.16096
8.72309
138.519
15.7819
69.0819
71.2041
15.8009
27.7278
82.5935
39.4902
44.1275
59.1157
0.00977631
38.4245
70.2898
57.1351
102.033
8.64041
21.5117
43.4026
123.876
12.7317
40.4663
5.88155
7.53137
6.26553
7.58689
8.68713
9.13482
7.18252
50.1415
0.00966953
58.9342
45.3362
44.0865
51.5927
3.82677
6.105
7.8747
6.4799
7.69975
9.04305
9.46913
7.3045
22.8568
9.96425
12.6584
9.97232
18.1748
18.1616
22.9134
12.659
9.93402
9.96233
18.1577
22.8748
18.1094
22.9281
10.0244
13.3484
10.3982
23.0696
18.2652
18.9236
23.9107
9.30463
16.8053
11.4806
13.7335
19.6975
20.7912
24.5835
14.5652
12.6182
11.2162
20.3571
28.6518
22.7417
25.7338
8.84998
8.85015
7.28778
8.6626
13.6671
10.7367
10.6097
8.4977
8.65442
7.08373
8.5492
12.8016
10.3096
10.4692
10.2465
9.40287
9.54489
12.9452
13.4808
11.6136
17.5551
16.9267
22.3333
17.141
29.3073
23.8275
29.6065
35.6958
13.0094
21.855
17.7498
24.4069
19.3397
27.9921
38.1015
21.9025
27.5038
21.9291
24.71
29.0493
24.596
29.2673
27.51
21.7323
21.8628
24.6978
29.1211
24.5458
29.3111
14.8008
24.7914
18.1026
32.6933
26.2148
30.7788
37.658
9.2498
11.2936
10.9056
16.1328
11.8827
11.4616
8.81614
9.09722
10.7204
10.6872
11.2667
11.2378
15.0401
14.213
16.8153
28.8351
16.8241
23.378
29.0018
35.5413
35.1805
21.744
27.2834
22.1005
28.9649
24.5162
24.8972
29.1621
16.8356
23.4184
23.4039
28.9558
29.0635
35.6634
35.4339
17.0488
24.739
27.6644
27.3554
30.5557
44.7904
50.0086
17.9592
23.8084
25.0501
29.1011
29.9725
35.3924
36.0264
141.216
18.3261
134.189
170.761
0.190175
152.132
180.681
24.4185
27.892
22.9764
25.9284
31.5134
27.6698
29.9897
11.4544
22.7428
16.7433
18.7374
14.3702
23.9233
34.1635
11.9019
28.7689
18.9457
21.3652
14.8828
25.9218
40.2902
10.4418
19.1598
18.4211
17.3105
13.7682
13.1626
13.0726
10.2759
16.7309
16.5777
12.8882
12.8363
17.7275
24.3566
0.323874
43.277
88.4448
71.8162
0.0847121
89.847
16.339
22.952
27.5899
19.8163
35.1736
31.9795
37.7783
40.7202
30.1328
31.52
23.0655
36.3537
48.5319
42.9816
42.3625
64.3956
79.9536
0.0581304
10.0471
0.00266503
0.000105203
0.163032
31.3285
33.9726
31.271
28.0505
34.2744
31.5361
31.6503
28.0938
34.3757
31.5203
31.4252
27.9112
31.6113
31.747
26.4733
33.032
29.2196
33.6734
30.0813
33.1198
36.5124
29.8611
22.5567
30.7054
35.8103
42.1453
42.3622
48.1884
31.3717
31.2786
27.8369
28.2278
34.4519
31.5659
31.7266
20.1982
45.8898
32.9101
50.7672
36.7912
58.5779
71.8574
14.5378
24.0613
15.3848
22.8912
37.8585
40.3574
21.5714
29.3804
34.5945
35.8059
35.2989
31.3497
32.6507
32.9957
52.096
43.2529
31.3233
45.9665
117.009
76.8214
68.1346
38.9045
34.521
25.6724
41.6666
99.521
63.4094
61.132
14.2222
22.8371
15.0536
22.5214
36.2099
38.6362
21.2169
33.9578
37.3089
27.6104
39.2377
43.7899
44.6748
49.3205
30.3083
27.9417
19.702
36.5524
91.676
59.1856
53.7981
32.9115
26.6236
26.1693
50.7192
49.5925
41.0059
81.2392
0.065035
102.047
101.795
0.148708
0.00184548
84.2275
49.0889
36.594
36.0669
32.6133
36.84
44.2133
40.0579
41.2897
32.4807
32.339
40.9571
39.9851
43.7216
40.5169
44.3109
32.4822
41.6186
32.5495
40.6867
44.1364
44.4919
40.3488
40.712
75.4204
45.9624
115.048
73.8815
77.194
95.1894
29.4565
25.1713
18.1703
27.862
75.0325
50.4801
40.7935
27.7446
24.335
17.7375
27.3453
72.0294
48.2959
39.8644
50.3678
73.7476
54.8881
110.952
80.0939
77.3496
81.8451
49.1992
49.3837
39.1924
54.4356
48.2496
54.2979
60.3544
34.1135
41.1857
32.8173
43.8518
40.1106
40.5686
44.3151
49.6116
40.8047
50.2464
53.8106
48.2647
54.1206
59.5801
57.6109
51.0553
41.7693
54.5425
48.9414
54.5164
60.0472
6.02241
13.1976
40.5856
3.8298
7.43211
10.8987
7.1203
14.5418
10.4311
25.0643
4.20378
4.85795
4.77096
5.15242
5.24001
6.31935
5.93329
7.73031
15.1036
34.7334
14.1316
42.2882
54.1406
180.175
4.85132
7.32624
7.22817
5.87436
5.96437
7.15618
8.76703
13.7304
76.3466
81.2384
42.4664
98.97
84.7898
84.2447
6.05048
7.84735
6.43761
7.68851
8.94068
9.4046
7.27466
5.86489
7.52956
6.24986
7.58249
8.66885
9.13108
7.1711
9.9199
9.52043
9.37884
12.5674
12.8518
11.5796
16.6073
8.91133
8.85795
7.28206
8.68276
13.3012
10.639
10.6682
8.67638
8.50325
7.08029
8.56518
12.7919
10.3201
10.5149
12.1095
20.2658
19.425
16.4331
16.9829
24.6063
32.4827
9.23251
10.9949
10.7762
15.3989
11.3351
11.5705
8.76704
14.5817
22.7374
21.7623
24.072
25.0881
38.1312
43.23
11.8289
25.2892
17.2955
19.7053
14.5664
23.4818
35.921
11.4373
22.2915
16.3075
18.3485
14.2644
22.5254
32.7627
10.4378
17.3654
18.1821
16.7814
12.963
13.2805
12.97
23.0909
42.2955
28.9006
30.1413
17.0884
52.4778
69.9423
61.8156
26.25
43.1907
39.7354
100.65
65.6906
56.8384
31.6911
37.6341
23.9873
37.9005
92.9122
59.7105
54.2699
27.7939
26.5528
18.7804
33.7469
83.5248
50.2914
52.8908
45.6238
40.5672
73.4324
113.718
68.8876
74.9497
93.7687
73.8927
66.5184
37.3258
111.977
66.4682
73.7471
99.0187
37.2586
38.4424
34.0436
37.5171
44.9121
40.5854
42.2887
34.8565
37.0256
40.1952
37.3575
35.2361
38.9335
40.5679
37.476
35.125
35.3622
39.0773
40.5196
38.8281
40.7026
34.9634
37.659
35.3851
40.3966
38.6457
39.0964
40.9126
47.287
43.8603
36.8488
42.3145
49.5081
45.4401
46.1817
68.647
69.4652
71.2551
87.5448
83.6687
82.2017
88.0411
82.5732
79.8978
76.4026
71.2091
54.8854
78.193
82.7191
84.5665
84.2545
78.8474
69.366
51.672
78.7848
84.2952
39.2398
39.5126
36.8864
40.7451
45.5874
43.6403
42.6631
68.862
157.154
152.836
155.9
114.392
105.217
107.735
68.1357
70.0621
61.1361
72.9054
75.4281
73.0727
75.8251
78.354
71.2452
55.176
76.6038
82.431
81.3374
79.6924
38.7556
68.0644
66.8511
102.438
71.5714
70.4945
36.3293
94.4576
96.4663
60.3764
154.21
99.0757
153.116
180.379
152.491
155.024
155.639
97.4263
102.076
61.4342
95.0317
42.7871
136.942
84.8594
119.965
72.3539
134.231
157.149
41.6642
51.6398
48.8834
49.1385
44.5106
46.6997
46.372
41.2426
48.6977
46.1896
48.6298
46.1579
51.3118
53.186
56.9355
46.1627
51.7859
53.7531
49.5354
54.26
58.5031
80.7993
40.8611
71.5652
119.076
70.5455
132.798
163.184
48.4749
109.499
111.641
112.167
85.8679
85.1884
72.3114
64.3091
63.9024
57.3188
60.1219
71.0291
65.4605
66.0539
42.9728
49.2521
47.0863
49.2117
47.4067
51.7529
53.4213
57.5531
64.1722
60.3426
70.4283
66.1416
65.7435
71.1843
127.487
136.646
115.169
89.5127
91.9888
88.0315
94.7696
98.2978
145.098
113.132
142.604
99.6024
151.624
99.9591
101.562
150.265
144.52
98.1726
140.648
112.626
97.6
62.4423
63.5416
57.4446
59.4717
69.2039
63.5033
64.8354
44.9387
45.9931
43.1941
42.3632
46.3904
45.4316
43.5894
42.5188
46.5441
43.5539
45.3406
45.5957
42.2647
43.7337
92.5925
85.7336
91.6933
87.1306
85.7357
90.3373
92.2576
87.8329
92.3961
92.1596
88.363
87.7167
90.6457
92.1802
77.6782
82.159
83.3616
80.836
81.8662
86.7464
44.6494
43.4298
45.145
42.0748
42.5832
47.1226
45.6987
43.9817
56.8809
53.5524
51.4683
56.7437
12.003
61.999
58.9118
44.4055
49.1232
50.9984
37.2353
47.5487
47.6469
45.9072
53.1722
55.8524
51.155
56.4021
6.59347
61.0126
58.3997
56.8158
53.7903
51.7942
56.5332
6.02094
34.3533
61.4926
182.489
183.813
152.779
183.307
177.802
181.092
180.615
83.9355
84.2413
83.7475
83.4403
82.906
82.998
43.3551
43.9432
82.9333
83.9078
82.8261
83.5306
83.6741
84.2967
70.6628
81.3686
76.0452
54.0555
71.4452
53.6066
3.16025
77.6434
79.8673
78.7854
81.5746
76.9039
80.4993
79.393
137.92
140.059
118.874
161.395
158.908
159.701
162.133
172.145
174.092
155.64
179.311
171.852
174.335
177.311
20.0577
17.0982
32.6371
48.9989
38.2071
45.777
45.319
11.4063
18.0446
29.8344
28.9601
25.0782
23.7779
35.0435
35.6103
23.4781
35.2554
31.9098
32.1215
40.5041
27.7702
37.3719
40.7117
39.6114
43.2853
33.926
41.2832
39.9957
43.663
46.8185
45.0654
41.009
36.7153
43.2359
41.7656
45.5317
34.6108
36.8296
39.9692
34.9996
37.2771
38.6057
40.4475
43.371
41.7525
39.3565
36.5553
38.9089
40.2935
42.2203
2.69976
13.5936
12.7007
4.56189
4.42423
5.74596
26.788
19.7903
3.56952
2.83129
3.73748
3.19306
3.34373
4.39386
4.61717
3.39891
3.05811
4.05227
3.61648
4.04636
5.05348
5.79107
3.87999
8.16174
4.96969
4.06519
5.24387
6.07809
8.69733
9.81676
12.8317
9.31325
7.12436
5.40674
5.68721
7.52041
5.03044
5.80563
6.79931
6.75387
11.7705
7.92996
9.80968
18.0171
15.2041
10.874
7.17656
6.24276
8.34198
9.78067
8.30299
13.4447
14.7789
9.25712
28.0112
35.2704
27.7546
27.209
7.11916
8.61439
7.36132
12.7867
13.2142
15.019
15.5801
7.83463
10.3365
8.60309
15.4884
14.0742
16.7594
18.725
12.8226
23.9768
23.0803
10.0868
10.5166
18.3712
19.1117
2.29026
5.08255
4.92794
7.14121
2.10821
2.52144
2.18968
4.35105
1.74955
2.03692
1.54412
1.6211
1.83814
2.12709
2.39362
1.91141
2.47767
2.81521
1.74081
1.98256
2.27181
2.56628
2.43401
2.00594
2.31759
3.01934
2.61091
3.15762
2.72955
2.91433
2.2777
2.62953
3.40362
3.78102
3.23576
2.93397
2.8573
2.74792
4.19056
3.10295
4.83855
5.03303
3.23477
3.31463
4.6389
3.0417
5.40036
5.98747
3.82306
3.46846
4.32171
3.6031
5.76416
4.52961
7.48101
6.00882
3.76559
8.18696
5.57986
9.40083
6.50112
7.32538
4.53636
4.06465
17.101
12.9891
11.427
29.0147
23.2728
25.897
20.6746
18.5752
9.98353
14.9259
27.9641
29.76
10.6123
15.9738
38.9731
14.2615
22.0352
22.3589
33.3722
11.9377
18.1706
21.9912
27.3897
22.4429
28.885
24.6036
25.0427
29.1104
24.9804
31.6738
29.322
28.0798
23.424
26.1581
30.0184
31.1213
33.7822
31.0872
31.452
34.1597
28.1563
31.3789
31.4509
32.7926
34.6411
38.1083
35.5865
29.3615
32.5355
1.60889
1.92224
3.52314
2.78935
1.68652
1.92032
2.81371
3.52396
1.95061
1.67158
1.99118
1.65999
1.58701
1.97753
1.93279
1.66708
1.62019
1.5923
1.99613
1.97744
1.93451
1.95844
2.33868
1.69252
2.05693
1.90383
1.67352
2.03654
2.3168
1.90336
1.69328
1.67394
2.0367
2.33779
2.05764
2.31676
0.590296
1.74882
1.01322
1.19989
2.16149
0.574593
1.36644
1.19606
2.12389
1.69604
2.56524
2.87021
1.60337
1.73081
2.52154
2.85168
1.76474
1.67356
1.74924
2.0208
1.90443
1.87459
2.05063
1.45204
1.41568
0.976395
1.22879
1.62348
1.59104
1.25926
1.38901
0.986879
0.969432
1.21595
1.54499
1.21755
1.56472
1.63847
1.70111
1.72337
2.00524
1.83229
1.84699
2.00036
0.692418
0.573432
0.667903
0.871266
0.733954
0.712061
0.896712
0.567903
0.681463
0.664748
0.867247
0.720523
0.882401
0.707762
1.73298
1.7194
1.73182
2.03103
2.03394
2.02929
2.02904
1.76241
1.73953
1.74976
2.03956
2.05282
2.03341
2.0644
1.12426
0.936277
1.45232
1.17654
1.42726
0.913342
1.14896
1.47371
1.84516
1.78461
2.12757
1.75854
1.81305
1.50045
1.12034
1.17564
0.926666
1.44303
1.13561
1.42502
0.910382
1.46136
2.11607
1.78778
1.75643
1.45985
1.75014
1.79433
2.36775
2.18894
2.8516
2.5231
2.15173
2.8067
2.40435
2.3559
2.5097
2.13462
2.81288
2.13435
2.36387
2.79411
2.39626
2.4114
2.90241
2.83368
2.8589
2.38475
2.42947
2.38856
2.82687
2.39378
2.87472
2.40089
2.84978
2.37909
2.34261
2.8181
2.36304
2.34649
2.81946
2.32448
2.79163
2.36235
2.78692
2.34101
2.32515
2.82038
2.35099
2.79136
2.84367
2.48244
3.01775
2.45743
3.49252
2.98744
2.81717
2.45722
3.49299
2.84357
3.01599
2.48209
2.98689
2.81733
44.6031
41.5784
42.9559
42.0207
46.6145
43.4541
45.0814
50.4731
48.809
47.1598
43.8604
31.4013
45.3512
47.042
0.964441
1.46433
1.71426
2.20121
2.94341
5.23103
3.717
5.17367
72.7714
81.2897
7.8587
1.80475
0.863221
1.73031
1.88481
2.05986
2.94962
3.18008
2.05411
2.60387
2.30903
3.47092
3.78257
4.39363
5.04858
2.08567
1.03869
1.91934
2.21145
3.18367
3.42614
4.85755
2.3794
3.75338
2.8873
4.11993
6.07243
5.74298
11.2124
1.07144
0.879341
1.08776
1.37527
1.11741
1.35964
1.13512
1.17203
0.911997
1.11966
1.41157
1.23559
1.4754
1.17285
2.8418
3.33741
5.21384
5.87151
11.9017
9.70676
21.7651
1.72854
1.40659
1.40983
1.67371
2.01848
1.6693
2.02399
2.05719
2.27692
2.28885
2.71094
2.39397
2.40533
2.68921
2.31633
2.33145
2.33549
2.80094
2.7529
2.76891
2.78788
2.09586
2.51739
2.35734
2.79596
2.59524
2.46187
2.98212
1.7461
1.46193
1.42267
1.69913
2.14878
1.76015
2.05959
1.25092
1.1407
1.36615
1.32722
1.57305
1.71266
1.45513
2.41388
3.75514
6.29787
3.11077
5.60457
9.05864
5.05157
2.60199
2.41861
2.41864
2.90486
3.11267
3.12132
2.89476
1.5373
1.65961
2.0929
2.30421
1.86841
2.03335
2.53073
1.27871
1.72896
1.52198
1.90542
1.8741
2.16722
1.63209
1.72764
1.44483
1.90893
2.17638
2.19527
1.71152
1.4647
2.76817
2.62472
3.09897
2.81551
3.28077
3.68973
3.12307
2.8889
3.26804
3.27005
3.45832
3.46633
3.94653
3.94169
4.72007
7.11345
12.463
6.45378
15.4126
50.2163
10.5983
1.77021
1.58521
1.96364
2.34646
2.24715
1.84856
1.50897
2.02371
2.41068
2.49585
2.96731
2.51124
2.01387
2.42289
1.83869
2.3342
2.65622
2.26696
3.23751
2.58197
2.83733
1.70192
2.50753
1.97186
2.15162
2.4346
2.74566
1.86911
2.00159
2.05177
2.36382
2.20617
2.52167
2.99821
2.65929
3.51495
4.04121
3.35492
4.21984
4.04598
3.52603
4.90268
6.446
16.6664
57.2307
10.8368
31.0742
65.8183
17.5467
2.06356
2.59182
2.67847
3.03437
2.56502
2.14952
2.47489
3.27109
2.84378
3.49425
4.03138
2.86184
4.06908
3.241
2.86206
3.23653
3.20755
3.42219
3.89468
3.4057
3.86684
3.37431
3.09715
3.58422
4.47682
2.93458
4.19812
3.59574
3.43996
3.37746
4.35381
4.4621
4.41251
3.39614
3.4261
2.40425
2.43049
2.75059
3.53181
3.07986
2.7517
2.10421
3.75657
4.3867
4.37889
4.58096
5.46691
5.42749
4.58712
4.3399
4.29337
3.67995
5.40658
4.5313
4.50064
5.39751
3.56924
3.83269
4.94538
4.65167
4.58493
3.83529
3.56039
2.79055
2.86945
2.2956
2.51343
3.78338
3.1516
3.07885
3.07306
3.59923
2.83905
3.74584
2.99542
3.52734
4.3821
3.37057
4.95236
3.96202
4.48451
4.60738
3.76019
5.65688
4.28356
5.56385
4.27469
4.91817
6.85495
6.51506
4.95377
2.50724
3.46954
2.84368
3.6202
4.01675
4.39228
3.25923
2.81593
3.95704
4.03958
4.25695
3.53745
3.21901
3.46329
2.95809
3.77712
3.33871
4.18895
3.60148
4.10627
4.84406
2.87711
4.11587
3.22089
3.83176
4.46694
4.83245
3.46833
3.88631
4.56161
5.59959
4.70955
5.79707
5.54364
6.97955
5.20191
6.40151
6.31299
6.71822
6.58487
8.19623
8.55785
5.18255
4.92714
5.25126
7.93708
4.27296
6.6262
6.10563
4.24349
7.07796
4.91115
6.18134
4.27091
4.98301
7.48727
4.25033
4.05704
3.37976
4.19752
6.13959
5.01975
5.17142
5.11837
6.33635
6.66996
6.29337
6.76769
8.66053
9.00375
5.80757
7.30008
9.98159
8.56505
7.91062
7.03919
5.91062
4.50818
4.38081
3.84259
4.83449
7.39945
5.92739
5.84492
4.57823
4.67026
3.74132
4.3984
6.5245
5.44021
5.35004
17.3628
58.1205
36.7007
54.828
54.4601
90.5378
29.4957
4.5833
5.30943
5.09042
6.66095
5.67258
5.46448
4.21179
49.3445
60.08
8.78425
67.5471
39.7893
85.4538
17.8212
7.41918
8.95449
5.89542
6.0687
12.8334
9.54581
7.76869
5.40394
8.25026
6.74688
7.90261
6.58958
8.54126
10.6312
5.96691
7.24938
4.75363
5.62525
12.0681
8.86213
7.18487
5.75309
9.72511
7.3319
8.43914
6.79354
8.97879
12.2318
5.20096
7.46945
7.65497
7.44855
6.36038
6.15706
6.29766
8.08206
9.9409
7.82897
10.5024
16.2413
13.9348
11.4393
5.42698
8.41951
6.81506
9.87958
7.64337
10.4526
13.8851
9.45341
13.1105
8.80254
11.4152
22.1133
17.8833
12.9259
8.0492
11.321
8.13306
17.7379
11.9955
12.7799
19.2669
6.98318
12.1414
15.556
15.8396
11.445
9.07908
9.09823
9.8475
18.1397
10.4712
24.4559
13.8403
14.9281
26.7681
11.1761
13.3917
10.6912
16.1759
19.331
20.3282
30.3041
10.1481
9.76952
8.10825
11.2183
21.1076
15.8419
14.3515
11.7921
13.1456
9.11728
15.0953
31.9622
23.0573
20.6116
11.9452
15.5203
13.5104
19.1643
21.8942
25.0526
36.2844
15.4508
35.8454
32.9194
27.972
25.0792
21.7263
18.639
17.062
22.0884
12.436
17.9615
44.1741
32.5161
24.9758
37.1315
31.7217
20.5132
22.399
58.5872
40.4639
34.9416
2.69526
2.64189
12.5961
5.62692
18.1894
2.6414
9.16665
4.87966
27.4193
4.00297
9.3066
12.4039
21.482
4.97006
4.98013
27.9989
3.50378
3.1308
2.62503
3.1141
3.48855
4.29236
4.31001
2.62483
3.13299
3.11489
3.50639
3.48984
4.29516
4.31608
2.8198
3.19409
3.56869
3.34003
3.72632
4.39817
4.61049
3.35669
3.03661
3.60115
4.49036
4.0211
5.01927
5.69451
9.15775
6.99052
5.30615
9.15701
5.28995
6.97614
12.5949
3.80952
7.97569
4.87063
4.85066
3.79312
5.60604
7.95105
9.16341
5.30953
5.2927
6.9828
12.6191
7.00354
12.6073
4.85464
3.81552
3.79544
5.61108
7.99035
7.95871
5.63704
5.40219
9.77162
5.66282
12.8408
7.13179
7.50413
13.5527
3.88763
5.24581
4.06864
8.17168
5.75402
6.07065
8.68129
7.03062
10.7446
6.1778
8.26494
17.5982
9.57218
15.0413
6.68173
5.77424
4.41044
6.70162
11.5071
7.77533
9.7184
2.99615
22.9932
3.66723
6.34093
4.97236
4.04201
4.64662
7.04366
2.35196
2.07909
2.66965
2.39755
2.71209
3.06238
3.45622
3.55461
3.94005
3.07912
3.40922
2.68343
3.09182
3.96451
3.22276
2.7734
3.14048
4.21005
3.55555
4.05232
4.88719
3.56266
6.30393
5.47463
6.58913
4.17782
4.81642
7.74894
4.22933
7.2343
5.66819
4.15713
3.59061
4.72081
5.83636
1.52724
7.03447
2.26402
2.24173
3.04657
2.26126
7.03151
1.49379
4.09029
1.70634
2.30939
2.8702
7.12215
5.45764
3.21717
4.13144
1.59621
1.7356
2.01781
1.81596
2.09671
2.27575
2.36755
1.70511
1.9915
1.50324
1.48671
1.68882
1.97417
2.22488
1.48314
1.69766
1.68595
1.98133
1.97046
2.22223
2.23458
1.86499
2.14352
1.94999
2.41589
2.22728
2.5253
2.75564
2.96179
2.55873
1.95708
2.24711
1.94052
2.54241
2.94612
2.24609
1.95208
1.93862
2.541
2.96098
2.55471
2.94613
1.99496
2.41731
2.08842
3.01286
2.60023
2.70758
3.14057
2.69659
4.76482
4.12241
4.10141
2.67865
3.0298
4.74902
4.09094
2.68299
2.67431
3.02675
4.74083
3.0369
4.74123
2.60261
2.476
2.24729
2.89744
3.7208
3.17759
3.3715
2.72045
4.25928
2.81201
4.79223
3.08133
3.19414
4.95583
4.90064
4.50821
2.97418
3.40236
5.80568
3.72215
5.28085
4.24286
3.53749
5.68166
3.52056
7.03143
5.67318
4.22668
3.51879
7.03222
4.24081
5.66738
3.5309
5.66916
4.22692
4.30987
5.73234
3.58547
3.72954
7.42929
5.94701
4.49898
4.42871
7.12863
9.16743
4.00139
8.07261
6.38938
4.86513
5.6693
4.71162
7.52535
9.37893
12.1445
5.72352
9.4903
5.0505
8.26234
10.8678
5.93787
13.4165
9.96306
7.61949
12.3948
9.10423
16.3827
7.2162
17.2224
12.5203
9.50148
19.5505
16.9783
6.03595
5.62992
9.02302
36.5498
16.0873
12.8198