/*--------------------------------*- C++ -*----------------------------------*\
  =========                 |
  \\      /  F ield         | OpenFOAM: The Open Source CFD Toolbox
   \\    /   O peration     | Website:  https://openfoam.org
    \\  /    A nd           | Version:  9
     \\/     M anipulation  |
\*---------------------------------------------------------------------------*/
FoamFile
{
    format      ascii;
    class       volScalarField;
    location    "0.00145";
    object      T;
}
// * * * * * * * * * * * * * * * * * * * * * * * * * * * * * * * * * * * * * //

dimensions      [0 0 0 1 0 0 0];

internalField   nonuniform List<scalar> 
11043
(
604.343
617.235
620.936
735.475
749.163
596.333
570.838
663.032
766.237
759.59
630.326
784.914
600.144
667.887
740.156
754.251
578.181
568.961
556.711
650.77
661.528
643.778
663.455
595.53
645.302
656.276
693.196
686.581
714.715
703.845
624.716
608.149
632.756
669.524
676.11
687.368
675.935
595.438
615.758
592.1
663.865
671.187
666.163
678.598
598.884
585.075
589.221
632.853
623.922
626.702
627.023
674.016
688.334
682.404
729.41
725.135
713.589
717.792
614.577
616.38
599.119
646.383
648.386
665.932
634.505
634.619
645.645
650.237
693.618
683.091
696.928
679.935
717.644
727.764
764.158
718.897
759.553
763.219
723.637
771.708
750.82
788.503
765.977
731.937
741.46
781.719
714.851
744.85
685.958
691.298
719.419
747.165
667.704
793.569
795.415
756.784
745.703
790.686
787.652
748.48
701.253
692.367
754.912
726.586
750.158
713.898
677.614
718.82
712.535
755.787
752.672
757.74
717.111
720.907
714.551
759.223
720.29
728.511
777.859
774.249
725.473
732.446
781.61
729.795
783.195
779.48
734.59
728.035
773.366
1007.99
911.522
998.074
789.365
767.18
797.592
914.474
985.962
815.056
946.932
853.495
848.146
815.076
1002.63
947.156
768.563
794.699
793.904
815.148
839.741
837.165
813.842
810.919
840.955
837.073
873.97
904.233
902.947
871.772
793.163
770.157
792.689
834.186
811.668
833.114
811.901
792.995
800.889
797.045
841.354
836.765
833.036
837.995
850.427
847.63
844.457
910.002
909.897
909.442
910.09
789.914
788.581
792.056
829.715
842.229
836.663
829.755
843.823
808.314
835.019
904.514
883.036
872.91
913.88
850.076
846.406
842.223
910.921
917.975
911.253
918.995
863.805
939.534
887.073
883.953
912.741
937.58
860.967
880.998
856.298
938.968
911.055
936.599
880.293
857.666
903.669
949.486
883.392
880.822
984.902
948.182
901.852
879.935
957.594
912.861
987.809
949.845
903.542
883.676
940.39
991.704
959.713
960.051
1002.05
939.456
992.785
961.961
949.781
994.409
1003.39
941.604
993.855
966.669
946.592
972.532
957.143
958.362
949.326
974.448
948.327
960.1
973.693
951.127
949.708
975.235
949.571
963.19
733.4
290.757
297.637
634.758
740.316
288.178
568.494
288.395
600.79
303.585
755.688
288.934
294.727
725.006
287.942
288.083
504.723
586.602
753.999
718.166
715.669
605.587
602.45
552.28
555.874
299.476
293.113
702.546
315.436
299.267
287.93
287.928
749.55
696.845
709.264
581.295
594.836
543.419
527.966
702.705
677.319
650.469
561.464
535.109
505.983
476.88
288.085
675.215
529.147
293.879
288.197
287.927
287.926
672.726
575.278
616.431
461.007
502.072
440.033
395.886
639.417
586.416
654.926
480.595
385.896
404.088
463.018
596.715
666.842
663.452
490.956
420.547
415.568
495.198
510.171
616.533
542.989
362.63
438.188
406.433
336.561
729.983
598.521
613.982
608.373
593.033
443.188
450.363
302.524
432.074
428.192
375.862
293.988
379.6
293.564
404.87
300.429
419.393
367.524
291.523
354.425
292.696
720.49
554.501
569.396
594.018
578.896
426.638
400.293
385.092
292.151
361.436
290.296
337.559
319.058
289.279
418.414
549.571
468.854
369.695
298.367
312.791
333.017
638.181
519.694
533.981
487.819
474.618
365.775
330.343
311.856
290.167
335.47
304.346
288.225
295.43
288.604
326.392
288.356
299.373
289.802
298.432
329.328
289.648
590.393
357.438
366.066
431.047
419.289
304.822
293.356
320.292
288.949
294.211
288.277
296.558
312.079
289.339
288.578
291.94
303.692
296.972
288.011
290.115
288.292
420.523
298.231
413.805
306.535
288.877
308.907
288.767
457.29
312.149
449.856
312.776
289.622
289.408
316.041
295.86
374.156
398.278
302.07
288.328
297.02
288.56
405.486
306.037
432.713
306.655
288.598
289.018
299.781
344.812
289.207
317.069
288.139
292.841
290.099
288.02
292.521
288
287.966
288.337
288.942
289.877
288.105
369.647
290.484
332.436
288.271
294.225
290.676
288.072
288.419
291.799
299.607
288.725
287.937
288.175
287.961
293.454
288.828
305.448
288.908
287.942
287.978
288.224
854.536
803.275
508.161
881.894
868.021
893.538
918.864
918.666
800.21
778.487
860.847
859.285
866.52
911.705
916.461
910.492
914.939
875.423
889.872
883.91
935.078
924.118
920.904
927.76
855.872
659.33
689.66
864.766
373.602
336.684
789.868
896.266
886.693
899.534
890.685
908.805
911.917
892.577
903.539
907.625
903.451
915.061
890.693
916.621
893.382
633.934
835.237
864.025
317.204
289.947
773.105
667.385
934.647
920.762
937.815
885.47
914.335
916.77
886.518
943.705
921.711
941.454
918.612
878.927
885.588
917.307
859.241
842.459
839.529
845.094
841.736
824.924
824.053
862.928
843.563
847.856
847.704
843.899
824.513
819.951
857.739
848.692
890.702
892.5
798.746
848.389
858.87
893.036
852.126
833.365
792.614
844.577
889.335
858.074
858.566
839.34
844.471
836.902
830.059
809.423
792.088
848.624
793.026
811.013
826.08
814.898
767.115
733.01
828.572
802.592
830.267
786.731
713.765
710.11
788.177
676.583
789.288
798.049
742.034
567.147
727.567
587.95
802.102
686.047
801.389
749.457
604.693
752.117
600.004
799.082
829.735
831.537
781.608
681.295
700.043
770.015
773.677
600.668
750.66
537.68
704.983
673.921
499.673
822.946
747.818
810.096
653.275
750.486
722.741
615.915
763.1
877.512
840.191
779.26
834.976
729.888
751.589
870.845
832.761
795.597
853.708
830.59
600.951
709.467
859.18
875.506
806.194
766.214
810.206
815.482
819.142
844.471
840.415
771.274
824.282
816.125
832.811
825.202
850.026
855.862
822.402
839.171
844.662
860.143
860.121
863.786
871.11
879.372
853.693
889.538
879.691
873.082
873.384
868.276
857.179
861.284
844.607
854.948
848.975
852.186
851.163
857.386
866.272
850.441
859.528
857.672
855.811
863.226
834.135
835.564
839.101
848.439
820.305
845.194
820.598
850.167
835.61
844.605
852.639
815.402
855.811
819.801
868.028
876.637
879.166
857.071
866.516
866.707
852.053
856.301
820.834
861.334
805.661
857.659
855.605
789.289
778.512
803.88
861.371
847.38
733.31
831.33
765.347
880.682
871.34
884.841
861.67
827.663
842.212
850.795
846.071
830.533
749.255
793.976
831.425
843.75
793.009
848.512
781.044
742.806
827.413
831.316
848.727
789.559
765.783
817.903
845.319
836.13
681.339
802.067
743.185
820.091
675.204
645.355
749.222
779.501
797.173
713.257
679.843
559.237
719.842
633.809
395.772
583.513
452.127
761.605
713.187
790.095
686.023
507.26
568.105
638.005
667.047
558.564
496.994
367.79
552.848
671.271
491.076
655.774
453.106
355.106
513.902
538.361
635.627
476.732
420.779
479.784
606.528
568.364
302.322
436.359
381.342
196.276
400.407
88.5702
340.741
605.33
578.745
646.241
634.197
83.7536
143.811
164.901
174.19
222.085
347.879
377.857
111.301
322.39
224.997
409.125
314.873
418.11
453.191
489.796
369.152
499.449
564.052
485.395
495.701
564.474
420.959
590.034
459.568
598.229
504.465
513.78
598.919
506.256
435.632
517.273
503.693
562.301
515.776
560.892
525.722
598.862
494.625
524.065
601.599
597.771
539.175
598.637
612.808
571.574
570.831
635.893
612.477
599.614
566.933
603.241
617.061
637.788
611.592
569.291
598.693
565.533
565.778
710.551
697.604
854.924
794.92
686.415
672.277
567.021
602.582
596.808
604.809
598.605
635.635
632.727
567.885
609.008
605.139
602.353
598.041
637.483
643.766
744.631
642.341
681.462
700.299
644.652
684.333
748.127
722.233
629.191
669.785
672.992
631.948
675.306
726.152
652.623
703.957
647.189
687.853
761.662
695.186
753.225
640.676
676.809
633.636
678.387
741.52
731.175
686.641
730.676
836.898
785.387
734.272
841.353
789.721
799.129
739.261
814.018
847.18
805.406
795.541
748.466
805.05
657.803
669.019
695.625
694.377
744.05
746.923
818.794
832.957
665.196
647.859
647.817
713.338
708.205
689.268
688.607
659.515
652.356
647.532
703.061
701.816
691.505
699.952
676.166
729.335
651.577
679.385
652.903
697.615
733.619
664.916
683.987
655.509
703.309
755.407
716.101
740.802
745.35
793.531
795.792
792.287
732.258
735.202
797.068
751.135
813.835
800.538
740.127
820.996
805.064
752.659
749.844
859.766
795.482
754.264
864.391
824.178
800.582
871.53
809.005
882.866
848.344
824.199
777.934
762.264
576.556
668.454
842.253
726.852
888.178
838.898
867.682
708.583
597.825
620.554
616.285
641.189
643.1
659.461
687.652
629.36
720.737
722.316
676.626
676.759
728.392
778.18
666.543
757.034
693.129
780.18
713.445
745.719
810.972
658.334
744.325
688.363
764.696
707.023
741.286
800.488
781.983
798.494
732.865
789.547
878.723
835.801
847.56
781.486
791.007
731.184
786.531
876.795
841.678
833.914
831.451
825.267
769.242
802.828
881.725
852.958
856.271
842.364
894.316
895.652
890.283
879.651
876.457
880.351
879.29
865.448
828.822
860.153
780.366
874.444
742.892
830.684
886.964
883.253
880.268
831.207
824.537
769.048
896.556
868.032
720.613
782.285
724.624
786.932
784.819
838.874
834.63
730.557
802.283
807.491
794.132
791.047
844.92
854.559
768.335
806.107
824.148
861.76
853.634
869.85
886.064
842.038
882.55
846.402
871.851
872.485
874.987
868.449
834.142
864.272
838.539
867.105
861.73
865.106
863.302
848.149
897.616
904.51
889.204
881.296
895.45
893.063
869.306
852.922
844.373
871.925
870.905
877.375
868.816
853.068
892.44
864.041
876.402
878.716
877.544
882.125
867.208
882.756
882.923
870.16
883.394
885.829
864
879.713
895.362
895.102
875.733
887.695
888.985
866.536
891.021
878.195
892.634
880.868
836.313
867.648
851.94
897.909
885.818
902.604
882.406
832.295
851.139
867.622
869.717
850.551
846.924
830.666
852.6
849.311
866.771
872.94
832.115
850.844
852.659
854.055
874.822
851.404
846.191
846.435
873.402
866.293
813.07
835.977
837.601
852.873
813.647
795.248
809.953
823.769
835.303
826.698
519.922
308.269
293.902
333.313
384.824
459.824
339.9
881.268
879.259
885.33
805.146
792.623
745.842
717.11
442.116
390.018
776.232
671.175
829.63
690.812
554.858
355.821
292.047
883.5
852.635
854.377
855.028
856.531
826.907
825.741
884.898
852.504
855.047
853.11
856.735
826.726
822.285
866.995
844.854
843.745
833.03
829.379
811.591
794.052
849.284
802.085
818.706
786.058
810.762
769.584
736.021
827.831
804.722
829.46
796.862
732.662
797.591
729.162
820.461
743.007
820.627
777.934
677.05
672.531
779.533
801.535
828.067
830.371
792.809
701.02
782.341
719.404
808.946
734.338
817.957
771.85
638.431
660.311
758.291
820.557
751.403
807.451
673.091
763.823
736.693
635.237
792.216
655.32
768.087
606.925
736.119
705.526
565.902
717.001
760.035
788.035
700.417
523.982
652.277
586.406
694.943
610.284
736.056
665.252
449.977
513.952
613.3
710.019
605.929
576.933
434.549
570.751
713.863
600.112
699.37
559.675
528.662
417.213
555.051
679.482
585.221
523.331
492.114
649.836
610.457
322.568
445.207
476.591
560.131
356.002
333.036
301.11
388.94
496.655
419.45
289.206
287.993
288.014
287.93
288.003
289.383
287.985
288.878
287.953
287.961
287.929
287.983
288.519
287.97
287.94
287.944
288.235
288.059
287.926
287.934
287.932
287.974
287.926
287.927
287.926
287.929
287.941
287.928
287.969
453.669
287.994
287.926
291.13
287.926
287.926
287.926
368.644
310.569
313.971
293.957
293.279
289.315
288.237
307.776
288.095
288.084
289.027
288.93
287.984
287.935
288.947
287.936
288.161
287.929
287.991
287.941
287.926
289.318
287.941
288.233
287.93
288.002
287.943
287.927
287.929
287.934
287.982
287.929
287.926
287.926
287.926
287.928
287.933
287.972
287.929
287.926
287.926
287.926
464.973
764.405
766.316
288.46
641.35
579.429
1389.26
1028.65
1104.95
793.373
531.441
288.097
288.792
330.227
288.208
700.091
408.787
332.022
702.05
292.098
783.631
334.029
307.359
696.342
291.528
289.041
641.437
783.367
330.3
722.312
687.574
289.133
300.007
287.96
288.51
609.26
1144.91
1163.29
1411.29
1206.73
1040.62
1200.57
1244.26
402.59
295.383
289.568
649.044
289.168
398.652
287.938
1204.59
1274.91
1300.44
1287.3
1311.27
1380.29
1375.57
781.866
782.655
767.755
657.865
660.656
628.697
625.601
288.972
288.228
500.162
406.309
287.928
368.202
287.935
952.438
1091.04
1121.41
723.884
330.939
892.612
853.752
783.16
768.145
768.265
660.484
661.436
629.447
628.09
780.775
766.276
760.917
656.454
647.932
622.964
612.69
615.729
774.828
735.198
750.953
634.447
596.926
575.372
1241.61
1230.98
1306.16
1232.48
1312.42
1347.46
1245.18
290.07
851.509
701.108
293.119
287.931
688.513
333.355
467.472
288.326
287.936
287.926
287.931
289.532
315.946
473.793
1379.31
1057.15
913.779
307.826
1211.57
954.828
1370.42
1404.31
1376.5
1400.29
1372.71
1361
1408.34
382.59
287.926
287.934
288.078
411.368
327.409
287.927
1382.49
1375.81
1384.48
1391.69
1334.16
1318.9
1401.92
533.764
739.303
703.205
741.532
588.065
584.581
537.89
703.775
741.163
742.068
588.789
536.184
586.956
538.655
737.435
684.822
729.144
528.507
580.644
568.528
514.542
747.486
590.847
712.472
681.356
558.754
547.262
511.934
666.606
694.401
715.117
550.42
466.764
526.049
494.201
1314.28
1238.81
1345.02
1334.23
1171.62
1260.97
1224.73
1352.63
1248.58
1347.63
1346.34
1203.77
1303.03
1237.14
1000.35
1108.08
1106.74
1011.72
1011.26
1115.98
1025.13
642.863
592.921
641.253
470.188
518.743
468.433
415.521
940.32
891.109
948.124
881.712
947.965
957.901
866.057
490.967
334.56
494.128
458.099
311.324
454.35
313.041
335.317
493.754
495.014
459.023
312.489
457.119
313.5
666.222
569.862
630.162
431.853
495.064
455.858
389.976
1344.71
1244.05
1268.83
1137.22
1234.27
1259.11
1358.25
1368.67
1283.77
1289.16
1274.42
1280.28
1172.84
1178.46
646.811
471.44
650.948
584.526
476.504
401.75
396.004
488.804
323.89
478.955
309.903
450.957
439.427
305.902
651.614
581.963
585.304
474.057
477.388
402.745
398.689
801.652
827.659
801.138
748.082
707.441
746.447
619.774
626.908
572.534
555.696
464.822
448.605
388.739
372.777
290.614
1113.08
665.451
291.628
287.927
630.181
296.065
443.4
315.763
463.945
422.406
296.88
399.845
301.265
1119.36
1042.28
1025.52
1110.06
1116.3
1040.44
1037.94
1111.03
1021.09
1026.79
1092.41
1110.35
1034.91
992.152
1285.89
1101.05
1122.27
1143.13
1190.51
1213.17
1190.17
1311.73
1154.57
1159.13
1227.46
1233.08
1139.21
1082.66
287.927
612.497
295.723
287.943
287.926
295.064
287.932
577.19
531.52
605.48
395.942
425.506
352.288
329.109
534.618
522.417
586.485
408.265
311.018
346.712
357.15
297.124
287.95
287.926
287.928
287.926
287.926
287.926
359.015
291.914
298.323
413.047
292.263
299.145
362.937
413.996
292.339
361.166
298.809
411.43
299.344
363.75
416.579
294.597
383.804
293.297
372.765
343.221
290.681
535.956
589.336
526.286
411.473
358.342
350.017
312.087
354.503
297.521
404.277
391.785
290.699
295.62
343.557
748.013
593.907
670.856
544.979
624.649
517.696
424.284
1167.55
1018.26
1161.35
1042.41
888.602
872.428
1051.76
374.683
291.492
289.802
314.032
353.779
293.496
329.068
893.802
834.024
946.804
931.937
627.416
833.389
784.32
967.093
884.974
962.587
954.849
747.772
919.891
826.821
1179.73
1048.3
1174.35
1051.88
911.963
896.939
1060.72
498.408
460.215
541.75
362.274
328.434
309.207
297.155
1047.4
1074.13
1104.47
1021.97
792.893
921.867
965.98
1045.32
1087.91
1093.02
991.789
1002.97
1010.55
874.801
287.926
296.94
287.952
287.926
287.926
288.153
287.939
316.133
291.084
348.679
315.278
288.358
289.093
298.577
502.578
496.263
395.592
325.761
295.102
329.767
295.992
499.246
403.762
503.558
330.508
295.477
296.154
327.52
781.839
541.726
663.208
537.677
663.155
501.402
358.721
981.701
1068.51
1126.48
1007.58
728.209
823.034
945.182
1014.57
1085.47
1141.22
1018.07
764.274
851.253
958.309
694.831
376.856
560.589
405.737
606.399
444.358
303.921
397.378
396.285
472.306
294.815
314.228
294.944
289.646
468.519
386.677
487.877
294.077
320.992
312.223
292.298
385.696
449.882
362.542
291.722
305.672
293.712
289.03
314.26
358.18
445.007
293.401
304.172
291.383
288.957
1197.32
898.302
645.556
1166.1
1406.6
1227.17
1412.45
1171.98
1246.79
1077.67
1206.12
1286.47
1275.12
1299.45
1308.49
1379.61
1375.57
1088.99
1109.13
881.746
1123.49
1005.22
866.436
395.228
1241.49
1229.15
1229.26
1304.36
1308.8
1348.11
1247.77
863.383
498.869
301.02
699.2
288.367
292.093
288.154
1383.51
1396.32
1385.14
1403.01
1361.81
1350.26
1411.46
1370.2
1405.65
1375.83
1405.44
1379.75
1369.42
1412.76
1000.61
1106.11
1108.84
1012.72
1010.42
1118.81
1024.81
1243.74
1338
1348.39
1348.31
1195.17
1292.4
1238.61
1249.61
1354.65
1347.51
1353.34
1212.69
1312.77
1244.93
943.712
894.503
896.784
950.364
947.927
962.928
893.353
1363.7
1273.02
1285.57
1166.64
1276.95
1264.6
1374.24
828.382
841.633
848.451
786.592
773.796
801.016
689.486
1114.19
1035.83
1021.88
1105.37
1116.8
1039.78
1032.37
1121.16
1042.63
1026.67
1113.35
1121.9
1041.82
1046.85
1306.55
1148.94
1133.49
1157.23
1230.35
1219.36
1207.13
741.562
629.001
718.273
702.816
790.36
590.191
495.954
818.768
959.717
948.325
963.698
738.899
912.144
849.412
897.484
972.373
964.347
971.317
784.518
942.645
865.102
1083
1091.5
1110.59
1042.84
868.586
1000.87
985.252
661.743
778.439
655.65
530.196
696.856
540.21
357.107
562.622
719.872
808.864
582.935
718.51
562.064
393.933
289.876
302.109
330.44
309.758
288.194
288.841
294.676
315.526
289.11
288.226
289.232
318.095
296.158
288.258
289.256
316.771
318.606
296.306
288.241
295.732
288.265
312.571
288.708
306.658
288.189
294.492
292.826
288.119
320.963
345.116
441.237
303.432
289.299
296.518
290.586
497.522
502.764
446.175
375.498
335.702
332.227
293.865
290.455
316.417
387.051
468.602
562.525
421.364
334.059
310.107
345.351
440.136
505.176
599.646
440.404
345.643
288.443
295.437
300.509
291.125
287.995
289.713
288.05
886.053
558.786
482.7
556.847
725.722
788.87
698.469
311.313
371.493
460.097
344.989
288.529
290.917
301.239
420.677
466.909
561.567
386.119
290.405
300.876
315.697
893.087
707.875
722.164
439.248
680.877
695.757
908.325
776.287
847.026
937.972
606.368
828.762
659.344
400.137
627.493
598.101
652.802
844.463
820.771
934.465
772.102
990.49
595.763
845.544
568.795
835.255
645.906
368.149
297.291
288.831
288.06
288.03
288.304
290.683
291.441
297.835
288.063
291.533
288.039
290.907
288.875
287.962
294.058
366.203
303.438
288.537
292.071
289.573
288.16
882.324
1015.22
849.98
612.463
853.73
669.273
403.042
846.577
367.899
486.826
505.892
609.343
626.103
757.708
297.262
295.278
326.533
289.486
287.986
288.202
288.28
291.87
287.992
289.645
287.96
288.787
288.288
287.94
325.399
294.976
289.435
289.491
288.274
288.19
287.984
309.175
337.093
481.043
327.155
288.095
289.74
291.914
384.463
388.996
572.346
369.372
294.791
294.644
288.375
296.86
294.321
387.244
294.615
364.842
568.558
383.428
289.924
292.217
302.277
288.479
287.946
288.001
288.085
288.211
287.937
287.991
289.768
287.939
288.248
287.998
289.805
287.939
287.994
288.227
288.254
289.654
288
288.815
362.738
299.183
288.307
292.634
288.474
287.97
365.089
288.687
298.817
288.285
292.923
288.461
287.965
307.057
288.035
290.386
288.025
290.167
288.197
287.938
287.982
288.169
289.337
288.933
287.933
288.096
287.966
288.186
287.966
288.965
288.19
287.928
287.989
287.936
288.552
287.939
287.979
287.93
288.266
288.029
287.951
287.953
288.069
288.623
288.145
287.927
287.968
287.934
288.133
287.951
288.564
288.056
287.927
287.931
287.965
410.111
416.001
669.627
419.17
288.311
296.547
296.331
289.188
291.569
307.217
288.106
288.91
287.991
287.938
287.938
287.991
289.191
288.916
288.109
307.334
291.608
289.741
287.967
288.205
287.937
287.994
287.936
287.927
294.85
287.954
287.987
288.042
288.233
288.535
289.273
341.686
353.65
603.648
395.204
288.149
292.9
294.182
359.904
369.487
622.18
397.862
288.165
293.205
294.391
597.124
637.145
482.578
289.018
293.994
287.935
287.983
287.927
620.673
441.894
460.151
548.844
567.845
384.23
366.857
566.562
385.386
416.714
488.378
322.161
522.468
345.318
381.645
318.435
293.561
460.889
361.533
309.449
291.766
314.717
294.907
393.998
431.171
337.495
301.087
290.146
310.732
288.89
288.168
304.648
288.622
292.294
288.098
289.375
288.174
294.157
298.759
288.37
290.651
288.032
839.036
714.29
726.506
853.449
852.036
837.277
580.002
641.54
847.532
843.863
850.4
853.704
856.884
846.244
847.587
862.37
852.27
853.133
860.405
861.181
846.626
841.572
851.774
818.367
840.64
853.028
840.578
836.312
812.261
766.843
728.758
776.749
822.215
839.453
838.693
816.948
847.069
837.127
829.604
831.267
780.498
820.8
799.981
662.775
692.355
750.228
823.615
833.993
806.166
789.129
762.824
679.087
658.775
743.909
389.933
309.664
399.816
327.104
780.008
755.723
775.693
651.789
641.408
618.54
606.464
768.007
726.23
755.613
605.781
626.259
588.995
565.542
692.578
508.321
524.185
733.94
723.842
576.384
562.429
785.509
831.521
846.219
807.728
771.171
808.932
764.766
824.901
723.4
752.842
687.507
691.891
728.376
759.479
792.141
722.409
789.789
821.579
702.156
740.407
770.787
803.301
813.192
765.812
807.672
838.621
816.75
843.016
822.477
844.273
784.187
824.969
849.132
855.778
845.524
831.736
804.177
797.2
820.978
818.653
828.107
829.584
824.88
826.641
828.85
813.692
829.251
825.515
842.719
832.747
843.125
835.473
824.438
845.403
802.142
822.559
840.038
791.288
843.466
773.904
817.094
806.556
849.303
844.974
631.403
684.954
707.827
456.029
516.037
485.829
542.444
660.498
788.173
729.967
569.814
547.249
777.747
713.404
476.365
735.486
655.283
614.714
516.269
760.416
688.632
483.957
320.052
472.206
308.179
446.207
432.845
303.961
432.856
295.429
304.078
311.944
455.368
414.041
299.465
351.018
291.255
296.812
338.926
290.393
385.836
294.84
345.835
323.872
290.881
288.843
289.53
367.541
292.757
712.013
783.634
885.763
900.084
732.252
787.529
904.48
887.032
771.664
722.959
772.243
730.549
714.571
777.076
774.11
734.031
719.131
717.575
779.825
779.528
776.577
778.116
849.12
733.764
803.412
783.955
735.25
804.367
848.611
785.13
738.258
736.665
805.722
852.116
807.538
849.433
652.523
735.219
695.222
801.846
841.164
658.961
719.588
821.037
858.227
720.464
876.023
900.852
732.707
742.666
888.612
906.524
733.123
727.416
742.261
782.01
761.484
767.69
775.027
705.489
710.238
695.5
752.258
750.447
756.403
747.038
713.899
708.907
698.797
756.147
765.61
762.637
760.477
730.178
742.476
743.614
783.901
774.228
770.745
784.485
671.097
650.859
668.303
726.941
700.122
698.318
726.722
652.269
681.058
670.746
730.034
709.169
739.062
700.511
746.118
742.698
745.638
786.74
785.335
785.29
786.256
735.587
744.273
744.621
785.044
778.254
784.306
777.905
781.519
751.084
828.882
805.993
834.356
752.351
777.954
794.789
791.492
832.168
846.188
838.077
797.328
788.518
786.155
811.49
765.197
849.418
794.899
840.327
756.104
799.534
850.885
807.545
850.684
805.917
843.188
801.721
837.243
810.049
901.536
879.529
815.247
903.797
832.479
839.514
882.963
823.399
910.079
818.767
841.97
906.171
839.987
836.849
902.32
901.896
903.91
840.403
835.51
841.931
903.845
843.33
909.492
843.095
906.17
842.22
839.301
899.713
836.874
843.243
899.089
844.365
898.803
842.971
901.921
841.392
846.374
902.96
848.428
900.361
888.074
869.588
901.72
869.4
884.055
900.484
886.652
870.503
884.395
889.948
903.908
872.771
901.298
887.083
288.148
289.218
287.977
288.813
287.932
287.961
288.075
287.968
287.937
288.201
288.456
287.929
287.947
288.012
797.775
883.921
912.772
835.553
945.715
963.625
955.992
944.755
387.399
311.911
829.462
814.659
768.412
799.509
917.617
944.15
988.04
1016.57
816.443
879.728
852.119
1004.01
1023.25
946.761
950.012
919.275
815.42
833.87
959.864
1064.14
1044.45
1163.53
862.781
968.702
903.708
1038.84
1082.2
943.779
899.813
796.764
774.12
801.537
847.87
817.753
842.807
823.469
820.801
783.839
809.142
855.779
844.686
867.665
832.171
910.078
908.95
867.885
908.881
837.246
755.252
632.954
800.55
803.154
805.241
842.405
843.203
839.358
845.051
816.933
842.326
843.334
908.356
875.153
876.749
905.63
849.238
855.532
851.588
915.456
911.153
911.429
915.554
821.441
865.74
849.256
915.879
899.694
883.411
931.754
804.462
818.472
809.368
848.713
865.08
860.004
851.104
837.411
836.059
858.853
861.016
883.967
904.149
880.714
966.292
1137.96
1388.13
1067.69
1196.87
1228.14
1161.68
875.09
863.453
858.506
923.81
937.093
938.944
923.748
833.837
855.524
864.101
889.864
877.789
902.881
926.22
858.906
910.404
883.254
928.026
929.619
957.28
903.281
895.513
867.381
923.646
942.522
947.676
890.549
873.15
895.383
901.832
933.367
927.196
955.096
979.051
961.781
906.372
939.028
938.048
953.174
958.901
977.078
965.867
992.309
1091.53
1106.16
1071.42
879.901
785.274
903.09
903.324
893.112
932.309
967.721
955.754
914.886
881.398
890.069
905.538
952.08
991.604
956.724
886.076
908.333
883.292
905.624
955.654
936.93
1024.37
982.082
972.533
908.69
985.109
930.82
951.602
981.609
1010.98
927.926
941.77
948.767
982.248
963.562
996.398
1051.48
1011.67
967.927
988.201
983.207
994.51
1020.36
994.974
997.215
843.404
800.141
626.075
869.774
572.043
322.719
752.61
897.86
932.638
981.232
999.808
965.635
911.356
916.075
963.883
941.607
1006.59
992.187
943.906
994.756
960.828
908.661
936.601
930.485
946.715
953.312
932.638
930.882
969.784
965.04
1012.27
1003.83
950.643
998.706
979.912
961.618
946.789
972.526
949.018
975.225
957.926
950.371
979.089
984.197
1014.12
1106.2
1049.84
1017.54
951.972
962.585
971.251
983.214
985.127
957.65
980.259
967.987
958.598
935.067
940.846
931.859
948.707
918.604
896.836
967.418
960.722
979.876
950.867
978.2
975.311
955.333
960.525
1006.6
932.513
963.419
1081.9
1044.38
999.799
1009.46
1063.58
1024.78
1076.91
1038.81
1106
1126.39
987.063
1007.72
991.424
999.754
1055.81
1012.51
1008.86
962.868
977.33
981.671
982.63
932.533
970.292
958.407
998.122
1112.22
1037.7
1126.5
1178.31
1218.51
1082.05
1005.92
1096.57
1157.78
1123.69
1095.49
1060.7
1047.12
914.972
903.835
922.932
882.066
913.582
903.357
867.459
1032.28
1181.5
1072.75
1148.73
1233.92
1268.53
1104.13
1009.13
1028.83
987.522
1039.55
992.287
1057.4
989.418
980.872
945.17
967.592
938.281
966.163
950.173
915.851
1001.61
1053.82
1070.61
1005.02
1035.64
1007.22
998.502
940.886
891.82
930.733
863.66
910.126
896.349
839.045
1115.37
1167.69
1093.29
1179.67
1205.92
1251.99
1169.87
914.932
920.527
907.156
886.991
871.289
882.079
844.468
975.815
927.833
952.139
917.526
960.706
963.056
946.018
905.297
889.72
920.573
885.478
825.334
862.793
848.051
1142.53
1224.97
1126.52
1198.5
1220.54
1285.93
1181.9
774.123
480.596
603.951
287.938
513.751
394.166
685.876
1239.57
1329.03
1305.7
1385.58
1345.3
1327.3
1201.12
579.152
374.418
820.271
288.49
607.282
336.588
287.931
892.194
867.88
913.489
876.134
765.236
806.275
850.046
1049.59
990.578
985.301
1092.89
1075.83
993.12
1001.39
838.969
812.918
879.047
861.705
723.401
783.524
817.999
1068.79
1006.24
995.825
1099.29
1082.71
998.244
1011.22
1267.25
1337.63
1232
1233.39
1326.53
1319.87
1213.18
922.773
940.91
951.447
939.875
888.741
939.72
898.172
880.6
819.517
853.635
797.901
837.004
806.335
761.011
909.278
946.147
949.574
941.78
856.375
942.287
893.636
893.121
833.866
859.29
835.654
859.715
813.102
770.244
837.46
753.744
698.973
683.177
745.498
805.059
789.572
868.052
714.827
816.849
754.36
840.098
775.359
653.674
809.139
787.848
810.969
782.978
747.317
738.514
679.378
1104.4
1105.89
1095.63
1004.44
1025.98
1019.34
1013.44
793.291
797.204
827.883
764.426
639.777
705.866
710.527
802.163
762.429
788.608
754.47
719.708
687.477
626.738
942.222
923.836
826.809
862.208
936.836
946.633
879.74
708.587
642.189
764.594
713.343
497.621
573.789
650.201
697.544
758.548
805.282
721.146
486.786
579.152
650.991
841.234
833.874
736.733
835.565
671.813
834.584
782.827
838.07
586.864
868.092
779.619
735.819
667.57
853.33
841.474
575.357
843.203
849.127
830.024
844.936
839.351
839.538
842.88
830.249
849.341
844.899
843.368
839.303
839.415
842.955
848.148
854.985
848.816
859.705
853.073
847.1
849.556
869.833
857.984
864.972
859.415
857.155
850.34
847.373
781.46
823.419
837.692
783.113
835.618
822.968
740.036
848.191
819.94
838.008
834.861
844.373
833.351
819.608
783.478
837.97
835.583
823.127
738.61
824.159
740.584
834.691
848.274
844.227
833.293
820.727
819.776
835.794
840.647
771.583
841.207
732.491
824.108
820.505
720.176
852.662
842.464
855.063
820.41
838.323
838.594
816.127
830.422
757.191
838.44
811.834
673.5
797.181
700.579
835.371
840.892
856.064
835.531
789.488
827.421
806.217
852.689
641.046
884.274
842.702
870.463
860.659
872.21
838.6
806.01
764.932
825.247
809.798
847.357
852.549
870.303
891.123
878.71
878.411
872.409
847.588
876.957
877.238
872.746
848.942
875.077
866.978
867.011
873.247
864.487
848.869
830.902
838.314
824.732
858.277
861.336
808.666
883.162
839.064
858.064
887.154
888.77
869.728
854.642
689.762
809.508
802.731
780.296
812.925
804.124
810.537
685.79
817.782
709.658
810.871
852.789
810.028
849.276
833.538
822.703
696.699
726.36
754.651
734.287
763.694
787.973
797.294
720.371
748.393
685.24
684.286
719.173
746.263
777.764
684.186
721.564
719.395
748.672
746.11
777.924
781.174
731.844
774.937
749.409
798.546
777.792
810.857
830.137
833.381
811.16
761.874
799.875
760.117
807.91
829.544
800.375
763.526
760.627
808.174
833.927
812.108
829.688
769.375
819.145
778.024
840.585
819.306
827.487
846.894
791.669
825.55
817.22
815.131
788.81
809.82
823.82
815.157
791.971
788.698
809.884
826.338
813.516
823.957
832.59
818.58
793.444
838.501
862.669
853.392
854.416
798.806
828.043
807.836
830.026
820.508
828.588
832.995
837.986
833.544
819.446
837.969
832.473
848.848
834.387
839.345
830.274
823.866
826.872
809.687
823.007
836.246
826.907
809.944
839.589
824.775
830.682
823.215
836.209
844.347
826.554
837.073
843.143
806.084
826.208
847.873
855.019
813.909
782.088
849.292
797.198
822.485
850.119
856.125
863.869
813.063
784.159
746.854
855.026
782.869
856.513
798.558
759.617
850.573
729.03
774.815
828.246
775.273
811.392
699.885
835.62
689.992
741.881
805.713
755.165
734.64
850.989
858.618
812
604.432
782.496
766.89
843.069
561.049
764.962
848.266
875.997
707.195
501.809
835.056
888.177
871.791
891.491
886.172
871.58
856.245
839.359
856.569
865.648
877.456
856.909
848.467
839.703
826.663
818.69
840.637
872.582
830.289
851.066
818.674
790.525