/*--------------------------------*- C++ -*----------------------------------*\
  =========                 |
  \\      /  F ield         | OpenFOAM: The Open Source CFD Toolbox
   \\    /   O peration     | Website:  https://openfoam.org
    \\  /    A nd           | Version:  9
     \\/     M anipulation  |
\*---------------------------------------------------------------------------*/
FoamFile
{
    format      ascii;
    class       volVectorField;
    location    "0.00105";
    object      U;
}
// * * * * * * * * * * * * * * * * * * * * * * * * * * * * * * * * * * * * * //

dimensions      [0 1 -1 0 0 0 0];

internalField   nonuniform List<vector> 
9007
(
(0 0 3.17468e-16)
(-1.49889e-28 4.56472e-17 4.56911e-19)
(-1.95546e-30 -3.05376e-17 0)
(-2.92821e-32 0 0)
(-1.03723e-34 0 0)
(0 0 2.2479e-16)
(-4.31054e-26 5.28498e-17 -5.57906e-17)
(-4.59048e-28 -4.73703e-17 -2.99017e-19)
(-4.18931e-30 0 1.77214e-15)
(-3.04563e-32 0 0)
(-7.10275e-21 0 -2.41155e-16)
(-7.79182e-23 -9.35513e-17 4.89454e-17)
(-1.25065e-24 -6.15776e-19 3.20936e-19)
(-1.55757e-26 0 -1.59489e-15)
(-1.61725e-28 0 -3.142e-22)
(-1.3078e-19 0 1.12745e-18)
(-1.20893e-21 -1.02963e-23 4.29571e-21)
(-9.02913e-24 0 0)
(-5.61744e-26 0 0)
(-2.99555e-28 0 0)
(-6.40402e-21 0 0)
(-6.49082e-23 -7.58963e-28 0)
(-5.10773e-25 0 0)
(-3.27585e-27 0 0)
(-1.77611e-29 0 0)
(-8.22842e-23 0 0)
(-8.16054e-25 0 0)
(-6.3912e-27 0 0)
(-4.09381e-29 0 0)
(-2.21556e-31 0 0)
(-7.27786e-25 0 0)
(-7.11516e-27 0 0)
(-5.51005e-29 0 0)
(-3.49683e-31 0 0)
(-1.87605e-33 0 0)
(-1.08497e-10 2.17654e-10 5.66928e-11)
(0 -1.79438e-54 -1.37479e-17)
(-5.5992e-12 1.55432e-11 -2.59654e-12)
(-2.2352e-11 5.69395e-11 9.48069e-12)
(-3.83906e-12 1.10856e-11 1.415e-14)
(-2.6527e-12 7.47457e-12 -2.81793e-12)
(-1.1988e-12 4.13069e-12 -9.06276e-14)
(-9.66373e-11 2.1932e-10 1.74922e-11)
(-2.47483e-11 7.81556e-11 3.14895e-12)
(-9.07889e-11 2.02646e-10 9.91452e-12)
(-2.69301e-11 8.13178e-11 3.9752e-12)
(-1.73088e-08 3.12824e-08 7.97316e-09)
(-7.97667e-07 1.01207e-06 3.50013e-07)
(-3.82794e-08 4.8874e-08 1.34901e-08)
(-1.72657e-08 3.10431e-08 1.12339e-08)
(-3.84427e-08 4.83343e-08 1.90803e-08)
(-3.70488e-07 6.64204e-07 1.90063e-07)
(-5.2611e-07 8.04471e-07 3.29489e-07)
(-3.61785e-07 6.56819e-07 2.47915e-07)
(-8.04451e-10 1.30181e-09 6.7728e-10)
(-1.07981e-08 1.3462e-08 1.17839e-08)
(-2.45909e-09 3.79822e-09 6.9219e-10)
(-5.87961e-10 1.53113e-09 1.64019e-10)
(-2.09216e-09 3.44589e-09 3.98023e-10)
(-6.19891e-10 1.57459e-09 2.42201e-10)
(-9.23756e-09 2.86048e-08 5.73149e-09)
(-2.33396e-08 4.87907e-08 7.45333e-09)
(-1.00999e-08 2.92179e-08 3.95589e-09)
(-1.73405e-08 4.15658e-08 8.96221e-09)
(-2.62502e-12 7.98518e-12 -1.11884e-13)
(-3.39753e-11 6.57403e-11 7.1118e-12)
(-3.14832e-12 8.94461e-12 -2.00405e-13)
(-2.66379e-12 8.02766e-12 7.56855e-13)
(-3.20413e-12 9.06578e-12 8.94194e-13)
(-3.21019e-11 4.6122e-11 6.46182e-12)
(-1.62501e-11 3.04522e-11 3.52791e-12)
(-1.88405e-09 1.42754e-10 3.92004e-10)
(-2.25124e-09 2.49795e-09 6.58118e-10)
(-6.72761e-08 7.85358e-08 4.1463e-08)
(-1.15781e-10 3.57587e-10 1.21339e-11)
(-3.1339e-11 4.5868e-11 -9.0604e-13)
(-4.48603e-09 3.78101e-09 1.40408e-09)
(-1.99914e-10 2.05448e-10 3.46509e-11)
(-2.24933e-09 2.48345e-09 8.22998e-10)
(-5.4595e-09 4.47701e-09 1.92909e-09)
(-1.38836e-09 2.6228e-09 6.73294e-10)
(-5.74363e-08 7.71413e-08 4.04255e-08)
(-1.37638e-10 4.00167e-10 1.67767e-11)
(-1.21592e-10 3.70416e-10 4.66142e-11)
(-1.42304e-10 4.13508e-10 5.90302e-11)
(-1.59965e-11 3.02381e-11 -2.62614e-13)
(-1.31059e-19 0 1.60506e-14)
(-7.36134e-12 7.91593e-12 6.96255e-13)
(-2.94857e-13 3.96197e-13 1.78627e-14)
(-4.64171e-18 3.90146e-15 -1.69097e-15)
(-9.31245e-19 0 -7.81981e-15)
(-9.58931e-23 0 -2.1696e-14)
(0 0 -2.68983e-15)
(-7.82125e-18 7.60756e-15 2.92456e-15)
(-2.82179e-17 0 -2.15786e-14)
(0 1.2154e-16 -4.10188e-16)
(-1.96989e-14 4.59432e-14 0)
(-2.86452e-14 5.40036e-14 6.93385e-16)
(-2.28037e-14 4.76816e-14 -2.60468e-17)
(-1.32624e-14 3.94526e-14 2.65159e-16)
(-1.6676e-10 1.30374e-10 3.97249e-11)
(-2.76587e-12 3.61123e-12 -5.22158e-14)
(-9.04337e-11 8.92221e-11 2.08794e-11)
(-9.79924e-11 9.42333e-11 2.20601e-11)
(-2.4026e-12 3.95045e-12 5.94977e-13)
(-2.31841e-11 4.56257e-12 4.80208e-12)
(-1.78319e-12 1.53001e-12 2.2856e-13)
(-1.30185e-12 1.28373e-12 3.17134e-13)
(-2.98382e-16 0 -1.21176e-14)
(0 3.53083e-15 -2.68899e-15)
(-5.54276e-18 0 2.33168e-14)
(-4.23228e-21 3.31803e-15 1.50696e-14)
(-6.68654e-14 8.07932e-14 2.72279e-14)
(-3.206e-14 1.45029e-14 4.4988e-15)
(-2.84369e-14 2.71583e-14 1.73901e-14)
(0 2.97581e-16 1.1913e-14)
(0 1.508e-17 0)
(0 1.17893e-17 -1.72219e-14)
(0 7.36585e-16 -2.20188e-18)
(-1.77031e-17 -3.69333e-19 2.01763e-16)
(0 0 6.27276e-19)
(0 0 0)
(0 -1.19526e-16 1.61186e-19)
(0 0 2.33143e-24)
(0 0 0)
(-8.21727e-13 2.04632e-12 1.12083e-13)
(-4.13635e-12 7.26848e-12 9.27123e-13)
(-3.87074e-11 6.93153e-11 9.49049e-12)
(-1.90496e-13 6.18881e-13 -4.35831e-14)
(-8.90934e-14 4.04498e-13 -1.08715e-14)
(-1.49163e-13 5.23423e-13 -1.24635e-14)
(-1.29928e-13 4.89831e-13 -5.6803e-14)
(-9.25263e-13 2.15468e-12 -1.26095e-13)
(-2.28938e-12 4.05011e-12 -8.91779e-14)
(-7.37397e-13 1.85081e-12 -5.433e-14)
(-2.69454e-12 4.53826e-12 -4.20006e-14)
(-3.36196e-14 1.15079e-13 -5.83405e-15)
(-3.00024e-13 5.46227e-13 1.18199e-14)
(-6.37861e-13 1.01303e-12 9.50987e-14)
(-4.12953e-12 4.04334e-12 2.58319e-13)
(-5.16043e-14 1.27276e-13 -8.43747e-15)
(-3.82006e-14 1.11576e-13 2.51664e-14)
(-4.92604e-14 1.23678e-13 4.16815e-14)
(-6.0866e-13 8.29947e-13 8.36999e-14)
(-2.84711e-13 5.34293e-13 -9.33511e-15)
(-5.93389e-13 8.27354e-13 -3.05843e-14)
(-3.2296e-13 4.34032e-13 3.77473e-14)
(-2.50617e-12 2.63647e-12 3.75382e-13)
(-7.34456e-14 6.90739e-14 8.06518e-14)
(-1.92841e-12 1.96266e-12 2.29413e-12)
(-6.10461e-16 -4.62902e-15 -1.46949e-16)
(-1.37732e-10 4.87879e-11 6.35509e-11)
(-2.95407e-09 1.3826e-09 1.98721e-09)
(-9.26095e-12 9.86762e-12 3.01926e-12)
(-1.18221e-10 1.77971e-10 6.5383e-11)
(0 5.30318e-16 3.20957e-17)
(-4.21912e-15 1.06064e-14 -5.69768e-15)
(-1.05054e-14 5.60026e-14 -2.42586e-14)
(-1.08715e-13 2.4007e-13 -1.06507e-14)
(-4.05937e-16 5.30318e-16 -1.6256e-15)
(0 0 0)
(0 0 0)
(-3.71222e-15 2.80219e-14 4.61552e-16)
(0 1.19564e-14 0)
(-1.59095e-15 2.07941e-14 0)
(-1.59095e-15 2.13463e-14 -2.64295e-16)
(-5.30318e-15 2.38463e-14 -2.48831e-15)
(-5.30318e-16 1.04177e-14 0)
(-3.4822e-16 0 0)
(-3.12887e-14 1.21073e-13 -2.40399e-15)
(-1.11897e-13 2.82357e-13 -4.0584e-15)
(-2.12127e-14 1.032e-13 -2.65159e-16)
(-1.45307e-13 3.18281e-13 -6.3902e-15)
(-9.1379e-12 9.64943e-12 3.71269e-12)
(-5.26738e-12 6.95854e-12 1.91581e-12)
(-5.24166e-12 6.90494e-12 2.39442e-12)
(-2.8608e-13 4.16299e-13 9.72769e-14)
(-2.61165e-13 3.97208e-13 5.16798e-14)
(-7.75506e-14 2.00195e-13 3.33516e-14)
(-7.69493e-14 1.98339e-13 2.19031e-14)
(-1.17507e-10 1.76292e-10 7.64766e-11)
(-6.47099e-12 1.05135e-11 2.64273e-12)
(-6.05747e-12 1.03094e-11 1.71635e-12)
(-2.15523e-12 5.54341e-12 1.27932e-12)
(-2.13481e-12 5.46439e-12 8.5985e-13)
(-1.99055e-10 2.41052e-10 9.59261e-11)
(-1.96002e-10 2.34608e-10 1.09867e-10)
(-8.24644e-14 9.83296e-14 2.63762e-14)
(-7.13675e-20 0 0)
(1.45067e-14 4.22104e-14 1.79706e-14)
(-9.76989e-14 1.07934e-13 5.21211e-15)
(0 -3.1225e-16 -5.42471e-15)
(0 0 -2.06958e-16)
(-3.01631e-16 0 0)
(0 0 0)
(-4.89142e-18 0 6.5761e-17)
(0 0 1.25334e-16)
(0 0 1.72942e-17)
(-5.39525e-16 0 6.89051e-18)
(0 5.30318e-16 -1.41475e-14)
(0 5.30318e-16 9.61212e-15)
(0 5.30318e-16 2.92364e-14)
(0 5.30318e-16 -1.93493e-27)
(-9.54572e-15 2.46401e-14 -4.55558e-16)
(-2.22408e-14 5.15751e-14 0)
(-4.77286e-15 1.89318e-14 4.68246e-15)
(-3.87458e-14 5.81777e-14 0)
(-2.37901e-12 6.88724e-13 8.04145e-13)
(-2.6498e-13 1.98604e-13 5.20455e-14)
(-2.2634e-13 1.43186e-13 4.32203e-14)
(-1.98869e-14 2.12606e-14 1.66659e-16)
(1.2625e-16 -7.81135e-15 0)
(-2.85668e-15 5.02197e-15 -8.61043e-16)
(0 -7.38782e-18 -1.06296e-14)
(-2.37114e-15 3.9768e-15 -2.74674e-14)
(-4.44736e-14 1.05932e-14 3.55993e-14)
(-1.69999e-12 6.70587e-13 1.7029e-12)
(-2.24046e-14 7.42445e-15 2.84237e-14)
(-3.2162e-18 0 1.14022e-16)
(0 0 0)
(-4.21034e-11 2.04725e-11 4.81486e-11)
(-6.65534e-13 3.37547e-13 9.36905e-13)
(2.88867e-22 0 1.98716e-16)
(-2.85171e-14 2.49362e-14 4.26262e-14)
(-6.77626e-15 1.72353e-15 1.62221e-14)
(0 0 1.2806e-22)
(-9.5207e-20 2.55557e-17 1.21047e-16)
(-2.49273e-19 0 5.4678e-25)
(0 0 0)
(-5.65649e-22 2.11539e-21 0)
(-2.74524e-11 7.98263e-11 1.31177e-11)
(-1.7099e-10 2.03697e-10 4.16943e-11)
(-1.15074e-09 2.54664e-09 6.23642e-10)
(-8.33707e-12 3.07303e-11 -9.63634e-13)
(-5.05582e-12 2.12721e-11 -7.34969e-14)
(-6.64554e-12 2.67391e-11 7.47748e-14)
(-6.46256e-12 2.4909e-11 -1.48987e-12)
(-9.29373e-10 1.60286e-10 2.21581e-10)
(-3.02631e-11 3.31154e-11 5.78353e-12)
(-9.02823e-11 6.8257e-11 1.33799e-11)
(-1.1366e-11 1.13425e-11 3.53874e-12)
(-7.77806e-11 5.09944e-11 1.67414e-11)
(-2.48189e-13 1.24908e-12 -1.72353e-14)
(-3.341e-13 1.50394e-12 -1.57239e-13)
(0 4.88499e-15 -3.96513e-16)
(0 -2.66622e-15 9.92842e-15)
(0 -1.6601e-17 3.71222e-15)
(0 -3.87796e-14 -2.09344e-15)
(0 6.81944e-16 0)
(0 -1.08774e-14 5.2364e-17)
(1.0108e-14 -4.0626e-14 -2.12182e-15)
(0 -2.53644e-15 0)
(0 -7.75374e-15 0)
(-8.4763e-15 -3.41141e-15 1.70765e-14)
(-5.71956e-13 9.17013e-14 1.01314e-13)
(-6.32542e-15 -4.02556e-14 4.90631e-15)
(-2.73923e-21 -4.71936e-14 2.19419e-14)
(6.30082e-18 -2.53644e-15 0)
(-2.45806e-19 -5.26395e-15 0)
(-1.81464e-14 -3.41259e-14 2.15442e-14)
(-7.30278e-15 8.64147e-16 -6.64554e-15)
(-4.74673e-14 2.07974e-14 1.19156e-14)
(-3.73298e-14 1.45771e-14 5.56833e-15)
(-9.71859e-13 1.06104e-12 1.6344e-13)
(-8.80257e-13 1.00464e-12 2.1146e-13)
(0 -2.23442e-17 6.30371e-24)
(4.31052e-15 -5.38461e-15 1.3522e-21)
(0 0 1.92589e-14)
(0 0 1.53773e-15)
(-1.20426e-14 0 1.62924e-14)
(0 0 4.51107e-15)
(-2.20458e-15 0 -9.38458e-15)
(0 0 -1.54198e-14)
(0 0 -1.5716e-14)
(1.80271e-14 0 2.04504e-14)
(0 3.28029e-14 2.22835e-14)
(9.0932e-20 0 -2.57248e-14)
(0 0 -1.14928e-14)
(-7.70993e-15 0 2.73895e-17)
(0 -1.08677e-14 4.5077e-15)
(0 -7.68961e-15 1.17874e-14)
(0 0 -9.88403e-15)
(0 0 7.73439e-15)
(0 0 8.31327e-16)
(0 0 0)
(0 0 2.25043e-14)
(0 0 -5.55458e-15)
(0 0 3.29521e-15)
(0 0 5.32527e-15)
(0 0 4.64028e-16)
(0 0 -3.31464e-14)
(0 0 -2.48607e-16)
(0 0 -2.27617e-14)
(0 0 0)
(0 0 1.2272e-14)
(0 0 -1.55468e-14)
(0 0 4.48317e-15)
(0 0 0)
(0 5.36529e-15 1.15656e-14)
(0 -1.68244e-14 3.35657e-14)
(0 6.16269e-16 3.57964e-15)
(0 1.45275e-15 0)
(0 -5.03802e-14 1.05558e-14)
(2.60872e-14 3.47685e-15 -9.80038e-15)
(0 -9.45376e-15 1.19651e-14)
(0 0 -1.03452e-14)
(0 0 2.35915e-15)
(0 -2.2485e-18 3.94988e-15)
(0 0 1.21033e-14)
(0 0 2.04564e-14)
(0 0 -2.69722e-14)
(0 0 -6.63958e-15)
(0 0 -3.01424e-14)
(1.39803e-18 0 5.19589e-15)
(0 0 -3.07379e-15)
(0 0 6.40629e-15)
(0 0 -1.08459e-14)
(0 0 -1.00264e-14)
(-1.79027e-14 0 2.17736e-14)
(-1.79517e-14 0 7.86034e-15)
(0 0 1.07675e-14)
(-1.7916e-14 0 -6.24998e-15)
(-1.79466e-14 0 7.45868e-15)
(0 0 1.10927e-14)
(-2.24722e-14 0 -9.74308e-15)
(0 0 -4.10689e-15)
(0 0 -2.65159e-15)
(0 0 2.80308e-14)
(0 0 5.35366e-15)
(0 0 -2.80505e-14)
(0 0 -1.51985e-15)
(0 0 6.62897e-15)
(0 0 -5.95843e-15)
(0 0 -1.50042e-16)
(0 0 1.07009e-14)
(0 0 -3.98659e-15)
(0 0 1.95346e-16)
(0 0 -3.06806e-14)
(0 0 -1.6764e-14)
(0 0 -1.04568e-14)
(0 0 -3.666e-16)
(0 0 1.99605e-14)
(0 0 -6.35956e-15)
(0 0 4.82386e-15)
(0 0 -3.44855e-14)
(0 0 -1.57024e-14)
(0 0 2.91273e-15)
(0 0 3.04796e-15)
(0 0 3.26962e-14)
(0 0 -5.20966e-16)
(0 0 0)
(0 0 1.64518e-14)
(0 0 1.01075e-14)
(0 0 2.28816e-15)
(0 0 1.87286e-15)
(0 0 3.27572e-14)
(0 0 8.62637e-16)
(0 0 0)
(0 0 9.83814e-15)
(0 0 1.04399e-14)
(-1.44391e-14 -7.63643e-18 -9.27968e-15)
(0 6.8514e-17 6.71768e-15)
(0 0 4.33205e-14)
(0 -3.58257e-17 1.53987e-14)
(0 0 1.75221e-14)
(0 0 -2.95063e-14)
(0 0 -7.70613e-15)
(0 0 1.34747e-14)
(-1.17903e-14 0 -2.19172e-14)
(0 0 -1.34682e-14)
(-1.01211e-14 0 -2.20112e-14)
(0 0 1.30318e-15)
(0 0 5.57263e-15)
(-2.4723e-20 -3.55386e-15 1.20482e-14)
(0 -1.91816e-15 -2.81731e-16)
(-3.82982e-21 0 -2.07554e-14)
(0 0 6.87855e-15)
(0 0 6.36801e-15)
(-6.81931e-15 0 -1.4063e-14)
(3.60189e-17 -3.00292e-14 1.25514e-14)
(-9.89778e-15 -3.44175e-14 6.33067e-15)
(-7.29092e-15 0 1.25375e-15)
(-5.75202e-15 0 6.32751e-15)
(-6.83471e-15 0 3.80276e-16)
(-1.78286e-14 3.60789e-15 7.72034e-15)
(-2.20175e-19 -4.81177e-14 0)
(-1.11871e-15 0 -9.47364e-19)
(-5.96267e-16 2.97795e-15 0)
(-5.68553e-16 3.52637e-15 0)
(1.25496e-18 0 1.5338e-20)
(-3.92508e-16 0 8.74324e-19)
(-2.11489e-15 -6.49556e-17 1.19018e-14)
(-5.72754e-17 0 3.5224e-19)
(-1.10421e-15 0 -2.92075e-14)
(6.69095e-15 0 -1.21693e-15)
(-1.06104e-15 0 -2.90469e-14)
(8.72896e-21 0 -1.29671e-15)
(-6.18878e-16 0 3.54302e-15)
(2.17169e-15 -1.50904e-14 2.61072e-15)
(-1.38696e-14 2.77783e-14 -2.29174e-16)
(4.78207e-15 0 -1.77365e-14)
(7.90242e-46 0 0)
(1.56246e-20 0 9.53695e-17)
(-1.14579e-14 -6.2567e-15 2.39238e-15)
(8.17011e-15 0 1.26999e-14)
(7.92673e-18 9.73187e-15 -2.73384e-16)
(0 -4.57553e-24 1.09387e-14)
(0 -4.87037e-33 -6.36236e-15)
(0 3.41236e-14 -5.38501e-17)
(0 4.79522e-20 -3.45526e-15)
(0 3.50599e-14 1.54345e-14)
(0 1.82346e-20 -4.54677e-15)
(0 -6.37457e-36 1.20893e-14)
(0 3.81632e-14 -1.17867e-14)
(0 3.67772e-22 0)
(0 0 0)
(0 0 -1.33688e-14)
(0 0 -1.01711e-14)
(0 -2.4271e-22 -1.79223e-14)
(0 0 2.14686e-15)
(0 -3.64142e-24 9.87143e-16)
(0 0 1.25605e-14)
(0 0 1.17249e-14)
(0 3.69414e-26 9.38578e-15)
(0 0 -3.54591e-14)
(0 5.55893e-41 -6.57507e-15)
(0 0 3.83625e-14)
(0 3.88414e-28 3.30252e-14)
(0 0 -8.74747e-15)
(6.90259e-25 0 -1.47664e-14)
(0 0 -2.65306e-15)
(0 2.6064e-39 0)
(0 -1.10156e-34 -1.52537e-14)
(0 0 -4.56933e-16)
(0 0 7.36655e-15)
(2.40004e-24 -3.54948e-36 2.32014e-16)
(0 3.89783e-14 0)
(0 -1.45547e-17 -2.53506e-14)
(0 3.89783e-14 0)
(0 2.24995e-18 -2.80783e-18)
(0 3.89783e-14 8.30275e-16)
(0 -7.10986e-18 4.57147e-16)
(0 3.78392e-14 -5.11077e-15)
(0 -3.38191e-16 3.5354e-15)
(0 3.67834e-14 -3.49616e-15)
(0 -2.54426e-52 0)
(0 -6.10656e-51 0)
(0 -9.11327e-51 0)
(0 -1.27485e-45 0)
(0 3.89131e-14 0)
(0 0 0)
(0 3.75683e-14 -9.22622e-16)
(0 0 5.7376e-15)
(0 -5.0133e-27 -1.85611e-15)
(0 3.89783e-14 4.1493e-16)
(0 -1.44222e-25 -1.06064e-15)
(0 -3.71625e-45 0)
(0 5.82525e-56 0)
(0 -7.32999e-43 0)
(0 1.01384e-46 0)
(0 2.74928e-39 -6.15088e-15)
(0 3.77391e-14 0)
(0 0 9.52056e-18)
(0 3.75615e-14 4.00776e-17)
(0 0 1.01673e-17)
(0 -3.98521e-24 0)
(0 3.89783e-14 4.6349e-15)
(0 3.89783e-14 1.57532e-14)
(0 -8.88453e-23 0)
(0 -8.96855e-24 0)
(0 3.47078e-49 0)
(0 0 0)
(0 1.75319e-45 0)
(0 -6.38779e-35 0)
(0 0 -2.22432e-15)
(0 3.75615e-14 0)
(0 0 0)
(0 3.75615e-14 1.38209e-17)
(0 0 0)
(1.00045e-22 3.83146e-14 -7.20517e-15)
(0 -2.17588e-21 0)
(0 -1.24164e-22 0)
(0 3.80886e-14 -1.83614e-16)
(0 -4.22256e-20 0)
(1.24282e-22 6.93255e-27 7.10579e-16)
(0 0 0)
(0 0 0)
(0 0 0)
(0 0 -1.56032e-15)
(0 3.76519e-14 0)
(0 0 -8.82245e-20)
(0 3.82065e-14 0)
(0 0 -9.18902e-20)
(0 -6.72797e-19 0)
(1.00006e-18 0 -5.44618e-15)
(0 3.77431e-14 3.16799e-15)
(0 -9.74077e-18 0)
(7.62539e-18 0 4.8327e-15)
(0 0 0)
(-5.12343e-16 -5.14601e-15 2.30957e-14)
(0 0 0)
(0 0 0)
(0 -1.62068e-14 2.42876e-14)
(-1.67529e-14 2.71637e-14 3.01414e-14)
(0 0 0)
(2.72706e-14 -1.66384e-14 1.85482e-14)
(0 0 0)
(0 0 0)
(0 0 0)
(0 -2.03093e-50 0)
(0 0 0)
(0 -3.02618e-52 0)
(0 0 0)
(0 0 0)
(0 -2.63091e-49 1.08547e-16)
(0 0 0)
(0 -4.63194e-49 0)
(0 0 0)
(0 -4.62717e-51 0)
(0 0 0)
(0 0 0)
(0 0 0)
(0 0 0)
(0 -1.50244e-48 0)
(0 0 0)
(0 -9.89644e-47 0)
(0 0 0)
(0 0 0)
(0 -5.18504e-47 1.09876e-15)
(0 0 0)
(0 -4.05035e-43 0)
(0 0 0)
(0 -6.75849e-45 5.99922e-15)
(0 0 0)
(0 0 0)
(0 0 0)
(0 -6.77076e-47 0)
(0 -6.46615e-43 0)
(0 0 0)
(0 0 0)
(0 -1.02337e-44 0)
(0 0 0)
(0 -6.36643e-42 7.23866e-16)
(0 0 0)
(0 3.63696e-53 0)
(0 0 0)
(0 -6.07955e-44 0)
(0 0 0)
(0 0 0)
(0 0 0)
(0 -2.12339e-41 0)
(0 -2.54068e-41 0)
(0 0 0)
(0 0 0)
(0 -9.85671e-40 0)
(0 0 1.56099e-14)
(0 -5.7729e-40 4.33752e-15)
(0 0 0)
(0 4.3667e-45 0)
(0 0 0)
(0 -4.20467e-38 1.89441e-14)
(0 0 0)
(6.00336e-24 0 2.2355e-14)
(0 -1.12962e-34 1.17727e-14)
(0 0 -3.88657e-14)
(1.47674e-22 -1.10804e-41 -1.14362e-14)
(0 0 -2.89095e-17)
(2.03945e-23 -2.89387e-36 2.99919e-14)
(3.49322e-23 0 -1.08655e-14)
(0 0 0)
(0 0 0)
(0 6.05818e-51 0)
(0 6.94567e-47 0)
(0 0 0)
(0 0 0)
(0 4.1251e-49 0)
(0 0 0)
(0 3.80518e-52 2.21346e-16)
(0 0 0)
(0 0 0)
(0 0 0)
(0 4.38421e-54 0)
(0 0 0)
(0 0 2.6248e-15)
(0 0 0)
(0 -1.23177e-41 7.36616e-15)
(0 -3.38792e-42 0)
(0 0 -4.81594e-15)
(0 0 0)
(0 -8.34718e-39 0)
(2.40586e-21 0 2.57637e-14)
(0 0 -7.89653e-15)
(1.22398e-21 -1.36615e-38 1.17651e-14)
(0 -2.8201e-33 2.10682e-14)
(2.24294e-22 0 -2.09696e-14)
(0 0 2.59595e-15)
(8.38543e-21 -8.34968e-36 4.67089e-16)
(0 0 3.15227e-15)
(0 -5.48195e-46 1.25854e-15)
(0 0 0)
(0 0 -1.12161e-14)
(0 0 0)
(0 -1.1867e-42 5.49763e-15)
(0 0 -2.28479e-15)
(0 0 0)
(0 0 0)
(0 0 0)
(0 0 0)
(0 0 0)
(0 0 0)
(0 0 0)
(0 0 0)
(0 0 3.96209e-16)
(0 0 0)
(0 0 0)
(0 0 0)
(0 0 0)
(0 0 0)
(0 0 9.26584e-15)
(0 0 0)
(0 0 6.01206e-15)
(0 0 0)
(0 0 -4.25389e-15)
(0 0 0)
(0 0 -5.85696e-15)
(0 0 2.27864e-15)
(0 0 2.25429e-15)
(0 0 0)
(0 0 -7.2571e-15)
(0 0 0)
(0 0 1.03182e-14)
(0 0 -2.00323e-15)
(0 0 -2.16762e-15)
(0 0 0)
(0 0 0)
(0 0 -1.11254e-16)
(0 0 -2.17419e-15)
(0 0 -1.54788e-17)
(0 0 -9.21271e-16)
(0 0 -4.60481e-15)
(0 0 1.1373e-15)
(0 0 9.24038e-16)
(0 0 -1.45553e-17)
(0 0 2.34031e-14)
(0 0 -1.74055e-16)
(0 0 4.44363e-16)
(0 3.03827e-14 0)
(0 0 0)
(0 -1.05216e-16 0)
(4.14545e-17 0 0)
(0 2.68555e-14 -4.60332e-17)
(0 -9.295e-16 4.12573e-18)
(0 0 3.1392e-15)
(0 0 0)
(0 0 0)
(0 0 3.09447e-15)
(0 0 1.58425e-15)
(0 0 3.10345e-15)
(0 0 3.1541e-15)
(0 0 6.08141e-16)
(0 0 0)
(0 0 9.64581e-15)
(0 0 4.06945e-17)
(0 0 -3.53281e-15)
(0 0 -4.25577e-17)
(0 0 -2.64989e-15)
(0 3.81683e-14 0)
(0 3.05467e-15 2.38717e-14)
(0 3.04601e-14 0)
(0 3.77024e-15 1.58681e-16)
(0 2.72782e-14 0)
(0 3.60298e-15 0)
(0 2.77277e-14 0)
(0 -1.70282e-15 -1.58024e-18)
(0 0 -2.77519e-15)
(0 0 0)
(0 0 0)
(0 1.61415e-14 -2.60605e-14)
(0 0 1.06064e-15)
(0 2.94658e-14 -6.3616e-15)
(0 0 1.2837e-15)
(0 0 0)
(0 0 0)
(0 0 0)
(0 0 0)
(0 1.58764e-14 0)
(0 1.17001e-14 0)
(0 0 0)
(0 2.72782e-14 0)
(0 0 0)
(0 0 0)
(0 0 0)
(0 0 0)
(0 0 0)
(0 1.17001e-14 0)
(0 1.17001e-14 0)
(0 0 0)
(0 2.72782e-14 0)
(0 0 0)
(0 0 0)
(0 0 0)
(0 1.21412e-14 0)
(0 0 0)
(0 0 0)
(0 0 -4.24254e-15)
(0 0 0)
(0 0 -3.87325e-15)
(0 0 0)
(0 0 -3.38618e-15)
(0 0 0)
(0 0 0)
(0 0 0)
(0 0 0)
(0 0 0)
(0 0 0)
(0 0 0)
(0 0 0)
(0 0 0)
(0 0 0)
(0 0 0)
(0 0 0)
(0 0 0)
(0 0 0)
(0 0 0)
(0 0 0)
(0 0 0)
(0 0 0)
(0 0 0)
(0 0 0)
(0 0 0)
(0 0 0)
(0 0 0)
(0 0 0)
(0 0 0)
(0 0 0)
(0 0 0)
(0 0 0)
(0 0 0)
(0 0 0)
(0 0 0)
(0 0 0)
(0 0 0)
(0 0 0)
(0 0 0)
(0 0 0)
(0 0 0)
(0 0 0)
(0 0 0)
(0 0 0)
(0 0 0)
(0 0 0)
(0 0 0)
(0 0 0)
(0 0 0)
(0 0 0)
(0 0 0)
(0 0 0)
(0 0 0)
(0 0 0)
(0 0 0)
(0 0 0)
(0 0 0)
(0 0 0)
(0 0 0)
(0 0 0)
(0 0 0)
(0 0 0)
(0 0 0)
(0 0 0)
(0 0 0)
(0 0 0)
(0 0 0)
(0 0 0)
(0 0 0)
(0 0 0)
(0 0 0)
(0 0 0)
(0 0 0)
(0 0 0)
(0 0 0)
(0 0 0)
(0 0 0)
(0 0 0)
(0 0 0)
(0 0 0)
(0 0 0)
(0 0 0)
(0 0 0)
(0 0 0)
(0 0 0)
(0 0 0)
(0 0 0)
(0 0 0)
(0 0 0)
(0 0 -5.26103e-17)
(-3.40871e-16 0 -3.09915e-16)
(0 0 -8.9689e-16)
(0 0 -3.32499e-15)
(-1.07943e-19 -2.78666e-16 0)
(-8.2164e-19 -2.98373e-16 0)
(-7.96878e-16 -2.96348e-16 2.00619e-14)
(0 0 0)
(0 0 0)
(0 0 0)
(0 0 0)
(0 0 3.50214e-15)
(0 0 -3.97321e-15)
(-6.03999e-17 -5.04879e-22 8.53333e-20)
(0 0 0)
(0 0 0)
(0 0 0)
(0 0 0)
(0 0 0)
(0 0 0)
(0 0 1.72034e-22)
(0 0 0)
(0 0 0)
(0 0 0)
(0 0 0)
(0 0 0)
(0 0 0)
(0 0 0)
(0 0 0)
(0 0 0)
(0 -5.26125e-15 0)
(0 0 0)
(0 -9.18342e-25 1.44108e-14)
(0 -4.92543e-18 -1.84544e-14)
(-6.28656e-16 -7.23208e-17 0)
(0 0 0)
(0 0 0)
(0 0 -8.49399e-16)
(0 0 0)
(0 0 1.07147e-14)
(0 0 -1.82339e-14)
(-2.20511e-25 6.89918e-17 2.9433e-22)
(0 0 0)
(0 0 0)
(0 0 0)
(0 0 0)
(0 0 0)
(0 0 0)
(0 0 0)
(0 0 0)
(0 0 0)
(0 0 0)
(0 0 0)
(0 0 0)
(0 0 0)
(0 2.89777e-18 1.66046e-24)
(0 0 0)
(0 0 0)
(0 0 0)
(0 0 0)
(0 0 0)
(0 0 0)
(0 0 0)
(0 0 0)
(0 0 0)
(0 0 0)
(0 0 0)
(0 0 0)
(0 0 0)
(0 8.80584e-20 0)
(0 0 -1.43951e-17)
(-3.32184e-15 1.3047e-14 3.96746e-16)
(0 4.0587e-15 -6.25656e-15)
(0 -5.80639e-15 9.96773e-15)
(0 5.76983e-17 -2.07954e-16)
(0 2.6324e-19 2.39221e-14)
(0 -1.33661e-18 1.5088e-15)
(0 0 -3.70759e-17)
(0 0 0)
(0 3.24263e-19 -1.22672e-17)
(0 3.94138e-19 -3.10279e-22)
(0 -1.25351e-18 -3.28716e-23)
(0 0 0)
(0 0 0)
(0 0 4.5242e-16)
(0 2.07288e-18 -6.07042e-20)
(0 -1.46745e-18 -1.00394e-22)
(0 0 -8.89758e-25)
(0 0 -1.58172e-27)
(0 0 3.877e-15)
(0 1.34544e-18 1.69867e-20)
(0 -9.0138e-19 0)
(0 0 0)
(0 0 0)
(6.10008e-25 0 -4.36915e-16)
(0 1.53614e-18 -1.27164e-18)
(0 -8.38738e-19 -1.43759e-21)
(0 0 6.38661e-17)
(0 0 0)
(1.44685e-21 0 -2.75674e-17)
(0 -1.75428e-18 8.9782e-19)
(0 -1.02719e-20 1.43751e-21)
(0 0 -5.16991e-17)
(0 0 -1.63487e-23)
(2.96793e-17 9.308e-21 4.94197e-15)
(0 0 2.62728e-17)
(0 -9.56206e-25 2.17036e-23)
(0 0 0)
(0 0 0)
(0 0 0)
(2.33632e-17 -4.82309e-23 4.82485e-20)
(0 1.22464e-21 0)
(0 0 0)
(0 -1.90853e-29 0)
(0 0 0)
(0 0 0)
(0 0 0)
(0 0 3.31936e-22)
(0 0 0)
(0 0 0)
(0 0 0)
(0 0 0)
(0 0 0)
(0 0 0)
(0 0 0)
(0 0 0)
(0 0 0)
(0 0 0)
(0 0 0)
(0 0 0)
(0 0 0)
(0 0 0)
(-1.54336e-20 1.94892e-14 0)
(0 0 0)
(0 0 0)
(0 0 1.72353e-15)
(0 0 2.49995e-14)
(2.75694e-24 0 2.96315e-14)
(0 0 1.04572e-14)
(0 0 2.47675e-14)
(8.92841e-27 0 9.28056e-16)
(0 0 0)
(0 0 0)
(0 0 0)
(0 0 6.34724e-15)
(0 0 2.23155e-14)
(0 0 -1.12765e-14)
(0 0 2.34592e-14)
(0 0 2.61596e-14)
(0 0 0)
(0 0 0)
(0 0 0)
(0 0 0)
(0 0 0)
(0 0 0)
(0 0 1.19321e-15)
(0 0 2.38643e-15)
(0 0 0)
(0 0 0)
(0 0 0)
(0 0 0)
(0 0 0)
(0 0 0)
(0 0 0)
(0 0 0)
(0 0 0)
(0 0 0)
(0 0 0)
(0 0 0)
(0 0 0)
(0 0 0)
(0 0 0)
(0 0 0)
(0 0 -3.11062e-15)
(-3.00198e-18 1.94892e-14 2.62287e-16)
(0 0 0)
(0 0 0)
(0 0 9.1577e-18)
(0 0 0)
(6.46676e-23 0 2.28515e-15)
(0 0 1.68888e-16)
(0 0 0)
(2.49015e-25 0 0)
(0 0 0)
(0 0 0)
(0 0 0)
(0 0 0)
(0 0 0)
(0 0 0)
(0 0 0)
(0 0 0)
(0 0 0)
(0 0 0)
(0 0 0)
(0 0 0)
(0 0 0)
(0 0 0)
(0 0 0)
(0 0 0)
(0 0 0)
(0 0 0)
(0 0 0)
(0 0 0)
(0 0 0)
(0 0 0)
(0 0 0)
(0 0 0)
(0 0 0)
(0 0 0)
(0 0 0)
(0 0 0)
(0 0 0)
(0 0 0)
(0 0 0)
(0 0 0)
(0 0 0)
(-1.45147e-26 0 -1.49549e-15)
(0 0 1.0495e-14)
(0 0 4.39169e-15)
(0 0 0)
(-4.24521e-17 1.94892e-14 -1.47648e-18)
(0 1.94892e-14 -3.62952e-15)
(0 0 0)
(0 0 0)
(0 0 0)
(0 0 -4.20847e-15)
(3.97901e-21 0 0)
(0 0 0)
(0 0 0)
(1.36527e-23 0 0)
(0 0 0)
(0 0 0)
(0 0 0)
(0 0 0)
(0 0 0)
(0 0 0)
(0 0 0)
(0 0 0)
(0 0 0)
(0 0 0)
(0 0 0)
(0 0 0)
(0 0 0)
(0 0 0)
(0 0 0)
(0 0 0)
(0 0 0)
(0 0 0)
(0 0 0)
(0 0 0)
(0 0 0)
(0 0 0)
(0 0 0)
(0 0 0)
(0 0 0)
(0 0 0)
(0 0 0)
(0 0 0)
(0 0 0)
(0 0 0)
(0 0 0)
(0 0 0)
(0 0 -2.61585e-16)
(-1.78892e-22 0 -6.06615e-17)
(0 0 0)
(0 0 -1.09473e-15)
(0 0 1.26945e-14)
(0 3.86641e-14 2.2128e-14)
(0 3.89783e-14 1.92317e-14)
(0 0 0)
(0 1.94892e-14 0)
(0 1.94892e-14 9.8165e-18)
(0 1.94892e-14 1.18965e-14)
(0 0 0)
(0 0 0)
(0 0 0)
(0 0 0)
(1.92256e-19 0 -2.52097e-17)
(0 0 -1.59285e-18)
(0 0 0)
(6.42007e-22 0 0)
(0 0 0)
(0 0 0)
(0 0 0)
(0 0 0)
(0 0 0)
(0 0 0)
(0 0 0)
(0 0 0)
(0 0 0)
(0 0 0)
(0 0 0)
(0 0 0)
(0 0 0)
(0 0 0)
(0 0 0)
(0 0 0)
(0 0 0)
(0 0 0)
(0 0 0)
(0 0 0)
(0 0 0)
(0 0 0)
(0 0 0)
(0 0 0)
(0 0 0)
(0 0 0)
(0 0 0)
(0 0 0)
(0 0 0)
(0 0 0)
(0 0 0)
(0 0 0)
(0 -9.81226e-24 -4.19065e-24)
(-2.59895e-14 0 3.33727e-16)
(0 0 -2.43842e-16)
(0 0 0)
(0 0 0)
(0 0 0)
(0 0 -1.20231e-15)
(0 0 1.24625e-14)
(0 2.70952e-14 1.93272e-14)
(0 2.70462e-14 1.93154e-14)
(0 0 0)
(0 1.94892e-14 -3.16788e-16)
(0 1.94892e-14 -3.33268e-16)
(0 1.94892e-14 -2.68344e-16)
(6.35881e-17 1.94892e-14 5.31587e-17)
(0 1.94892e-14 2.87434e-17)
(0 1.17996e-14 9.43213e-17)
(0 0 0)
(0 0 0)
(0 0 0)
(0 0 0)
(0 0 0)
(0 0 0)
(0 0 0)
(2.5112e-20 0 0)
(0 0 0)
(0 0 0)
(0 0 0)
(0 0 0)
(0 0 0)
(0 0 0)
(0 0 0)
(0 0 0)
(0 0 0)
(0 0 0)
(0 0 0)
(0 0 0)
(0 0 0)
(0 0 0)
(0 0 0)
(0 0 0)
(0 0 0)
(0 0 0)
(0 0 0)
(0 0 0)
(0 0 0)
(0 0 0)
(0 0 0)
(0 0 0)
(0 0 0)
(0 0 0)
(0 0 0)
(0 0 0)
(0 0 0)
(0 0 0)
(0 0 0)
(0 0 0)
(0 0 0)
(-1.94892e-14 0 -4.2272e-15)
(0 0 8.17162e-16)
(0 0 1.55765e-15)
(0 0 0)
(0 3.07527e-16 5.58658e-15)
(0 0 1.98869e-15)
(0 0 5.1706e-15)
(0 0 -1.94892e-14)
(0 0 0)
(0 -1.19321e-14 -8.01121e-15)
(0 1.94892e-14 -1.43501e-15)
(1.88991e-16 1.94892e-14 9.3742e-15)
(0 1.94892e-14 5.19364e-15)
(0 1.49514e-14 1.15273e-14)
(0 0 0)
(0 0 0)
(0 3.14649e-14 -1.98869e-15)
(0 0 -2.3798e-14)
(0 0 -1.98869e-15)
(0 0 -2.36489e-14)
(0 3.17748e-35 -1.88553e-15)
(0 0 0)
(0 0 0)
(0 0 0)
(0 0 -1.98869e-15)
(0 0 0)
(0 0 -1.85611e-15)
(0 0 0)
(3.06062e-19 0 -1.99042e-16)
(0 0 0)
(0 0 0)
(0 0 0)
(0 0 0)
(0 0 0)
(0 0 0)
(0 0 0)
(0 0 0)
(0 0 0)
(0 0 0)
(0 0 0)
(0 0 0)
(0 0 0)
(0 0 0)
(0 0 0)
(0 0 0)
(0 0 0)
(0 0 0)
(0 0 0)
(0 0 0)
(0 0 0)
(0 0 0)
(0 0 0)
(0 0 0)
(0 0 0)
(0 0 0)
(0 0 0)
(0 0 0)
(0 0 0)
(0 0 0)
(0 0 0)
(0 0 0)
(0 0 -1.12175e-15)
(0 0 -4.74025e-15)
(0 -3.27757e-14 -4.87229e-15)
(0 0 -1.94892e-14)
(0 -2.49468e-23 -1.40203e-14)
(0 -3.46975e-17 8.94417e-15)
(0 0 -3.87504e-15)
(0 0 -2.17507e-14)
(0 0 -2.81566e-14)
(0 0 -1.94892e-14)
(0 -5.83489e-21 -1.66387e-14)
(0 -7.54069e-20 1.02749e-15)
(-3.89545e-14 3.62359e-16 6.76732e-15)
(0 0 0)
(0 0 0)
(0 3.27757e-14 -4.30883e-15)
(0 0 -2.60519e-14)
(0 0 -4.30883e-15)
(0 0 -2.3798e-14)
(0 4.27206e-19 2.68556e-15)
(0 0 0)
(0 0 0)
(0 0 0)
(0 0 -4.30883e-15)
(0 0 0)
(0 0 -2.12127e-15)
(0 0 1.52466e-15)
(-3.55529e-17 0 2.33747e-14)
(0 0 0)
(0 0 0)
(0 0 0)
(0 0 0)
(0 0 0)
(0 0 0)
(0 0 0)
(0 0 1.52466e-15)
(0 0 0)
(0 0 0)
(0 0 0)
(0 0 0)
(0 0 0)
(0 0 0)
(0 0 0)
(0 0 0)
(0 0 0)
(0 0 0)
(0 0 0)
(0 0 0)
(0 0 0)
(0 0 0)
(0 0 0)
(0 0 0)
(0 0 0)
(0 0 0)
(0 0 0)
(0 0 0)
(0 0 0)
(0 0 0)
(0 0 0)
(0 0 0)
(0 0 0)
(0 0 0)
(0 0 0)
(0 0 0)
(0 0 0)
(0 0 0)
(0 0 0)
(0 0 0)
(0 0 0)
(0 0 0)
(0 0 0)
(0 0 0)
(0 0 0)
(0 0 0)
(0 0 0)
(-7.85099e-17 2.6045e-21 3.44055e-22)
(0 0 0)
(0 0 0)
(0 0 0)
(0 0 0)
(0 0 0)
(0 0 0)
(0 0 0)
(0 0 0)
(0 0 0)
(0 0 0)
(0 0 0)
(0 0 0)
(0 0 0)
(0 0 0)
(0 0 0)
(0 0 0)
(0 0 0)
(0 0 0)
(0 0 0)
(0 0 0)
(0 0 0)
(0 0 0)
(0 0 0)
(0 0 0)
(0 0 0)
(0 0 0)
(0 0 0)
(0 0 0)
(0 0 0)
(0 0 0)
(0 0 0)
(0 0 0)
(0 0 0)
(0 0 0)
(0 0 0)
(0 0 0)
(0 0 0)
(0 0 0)
(0 0 0)
(0 0 0)
(0 0 0)
(0 0 0)
(0 0 0)
(0 0 0)
(0 0 0)
(0 0 0)
(0 0 0)
(0 0 0)
(0 0 0)
(0 0 0)
(0 0 0)
(0 0 0)
(0 0 0)
(0 0 0)
(0 0 0)
(0 0 1.68072e-24)
(0 0 0)
(0 0 0)
(0 0 0)
(0 0 0)
(0 0 0)
(0 0 0)
(0 0 0)
(0 0 0)
(0 0 0)
(0 0 0)
(0 0 0)
(0 0 0)
(0 0 0)
(0 0 0)
(0 0 0)
(0 0 0)
(0 0 0)
(0 0 0)
(0 0 0)
(0 0 0)
(0 0 0)
(0 0 0)
(0 0 0)
(0 0 0)
(0 0 0)
(0 0 0)
(0 0 0)
(0 0 0)
(0 0 0)
(0 0 0)
(0 0 0)
(0 0 0)
(0 0 0)
(0 0 0)
(0 0 0)
(0 0 0)
(0 0 0)
(0 0 0)
(0 0 0)
(0 0 0)
(0 0 0)
(0 0 0)
(0 0 0)
(0 0 0)
(0 0 0)
(0 0 0)
(0 0 0)
(0 0 0)
(0 0 0)
(0 0 0)
(0 0 0)
(0 0 0)
(0 0 0)
(0 0 0)
(0 0 0)
(0 0 0)
(0 0 0)
(0 0 0)
(0 0 0)
(0 0 0)
(0 0 0)
(0 0 0)
(0 0 0)
(0 0 0)
(0 0 0)
(0 0 0)
(0 0 0)
(0 0 0)
(0 0 0)
(0 0 0)
(0 0 0)
(0 0 0)
(0 0 0)
(0 0 0)
(0 0 0)
(0 0 0)
(0 0 0)
(0 0 0)
(0 0 0)
(0 0 0)
(0 0 0)
(0 0 0)
(0 0 0)
(0 0 0)
(0 0 0)
(0 0 0)
(0 0 0)
(0 0 0)
(0 0 0)
(0 0 0)
(0 0 0)
(0 0 0)
(0 0 0)
(0 0 0)
(0 0 0)
(0 0 0)
(0 0 0)
(0 0 0)
(0 0 0)
(0 0 0)
(0 0 0)
(0 0 0)
(0 0 0)
(0 0 0)
(0 0 -7.23051e-15)
(-5.53707e-24 0 -1.50711e-15)
(-3.89783e-14 0 -4.75684e-15)
(0 0 -4.69712e-15)
(-2.6726e-14 0 7.09082e-15)
(0 0 1.26532e-14)
(0 0 -1.32579e-15)
(0 0 0)
(-1.59928e-14 0 1.78932e-14)
(0 0 -1.04805e-15)
(-3.89783e-14 0 -3.14098e-17)
(0 0 0)
(-2.76673e-14 0 -1.00261e-14)
(7.56367e-22 0 -6.23279e-16)
(-3.85142e-14 0 0)
(0 0 -5.21398e-15)
(-2.60588e-14 0 1.65432e-14)
(0 0 1.78076e-14)
(0 0 0)
(0 0 -1.0262e-15)
(0 0 -1.07262e-14)
(0 0 0)
(0 0 0)
(0 0 0)
(0 0 -1.61913e-15)
(0 0 3.74905e-15)
(0 0 0)
(0 3.89783e-14 -8.21365e-15)
(0 3.86025e-14 -1.2881e-14)
(0 0 0)
(0 0 -1.98733e-15)
(0 0 -2.11243e-14)
(0 0 0)
(0 0 2.52564e-14)
(0 0 2.86372e-14)
(0 0 0)
(0 0 0)
(0 0 3.21312e-14)
(0 1.09973e-15 2.86892e-14)
(0 0 3.16865e-14)
(0 2.3813e-14 1.54632e-14)
(0 0 -1.38042e-14)
(0 0 0)
(0 0 0)
(0 -8.92515e-15 3.21836e-14)
(0 -1.90798e-14 2.0006e-14)
(0 1.43398e-17 2.59762e-14)
(-3.62936e-14 2.38335e-14 2.85823e-14)
(0 3.86641e-14 0)
(0 3.89783e-14 -4.40264e-15)
(0 0 0)
(0 0 -2.85269e-15)
(0 0 0)
(0 0 0)
(0 0 1.46262e-14)
(0 0 0)
(0 0 5.47441e-16)
(0 0 -1.09751e-14)
(0 0 -1.30442e-14)
(0 3.89783e-14 8.77911e-15)
(0 0 2.30701e-16)
(0 0 0)
(0 2.71707e-14 -7.97879e-15)
(0 3.87952e-14 0)
(0 0 0)
(0 0 0)
(0 0 4.89069e-15)
(0 0 0)
(0 0 0)
(0 0 3.78379e-15)
(0 0 -1.15862e-15)
(0 0 1.61344e-14)
(0 0 0)
(0 -1.95995e-14 2.89649e-14)
(0 -2.18901e-14 2.1325e-14)
(0 2.40803e-14 1.52362e-14)
(0 2.20989e-14 2.60699e-14)
(0 0 4.02717e-15)
(0 0 0)
(0 0 0)
(0 0 6.423e-15)
(0 0 6.84659e-16)
(0 0 5.22947e-15)
(0 0 1.01199e-14)
(0 0 -8.27819e-15)
(0 0 -8.05659e-15)
(0 0 3.01454e-14)
(0 0 3.01425e-15)
(0 0 0)
(0 0 -2.95689e-14)
(0 0 1.09191e-14)
(0 0 0)
(0 0 -2.10731e-15)
(0 0 0)
(0 0 0)
(0 0 0)
(0 0 0)
(0 0 0)
(0 0 1.39504e-14)
(0 0 5.42364e-16)
(0 0 -3.18421e-15)
(0 0 0)
(0 0 0)
(0 0 0)
(0 0 -1.33577e-14)
(0 0 0)
(0 0 0)
(0 0 2.24003e-15)
(0 0 0)
(0 0 1.0169e-15)
(0 0 0)
(0 0 1.53262e-16)
(0 0 2.63958e-15)
(0 0 2.50125e-15)
(0 0 0)
(0 0 -3.60141e-15)
(0 0 0)
(0 0 1.40495e-14)
(0 0 0)
(0 0 1.47026e-15)
(0 0 0)
(0 0 0)
(0 0 0)
(0 0 0)
(0 0 0)
(0 0 0)
(0 0 0)
(0 0 0)
(0 0 0)
(0 0 0)
(0 0 0)
(0 0 0)
(0 0 0)
(0 0 0)
(0 0 0)
(0 0 0)
(0 0 0)
(0 0 0)
(0 0 0)
(0 0 0)
(0 0 0)
(0 0 -3.31612e-15)
(0 0 0)
(0 0 0)
(0 0 0)
(0 0 0)
(0 0 0)
(0 0 1.14039e-14)
(0 0 0)
(0 0 0)
(0 0 7.10204e-15)
(0 0 -3.71222e-15)
(0 0 9.95458e-16)
(0 0 1.29521e-14)
(0 0 4.11208e-15)
(0 0 0)
(0 0 0)
(0 0 4.84952e-15)
(0 0 0)
(0 0 4.56339e-15)
(0 0 4.65104e-15)
(0 0 -1.29889e-15)
(0 0 0)
(0 0 0)
(0 0 6.20813e-15)
(0 0 0)
(0 0 -3.14776e-15)
(0 0 5.31525e-15)
(0 0 -7.15571e-15)
(0 0 0)
(0 0 0)
(0 0 1.93885e-14)
(0 0 2.15292e-14)
(0 0 1.14874e-14)
(0 0 6.44248e-15)
(0 0 -3.25183e-15)
(0 0 1.65841e-14)
(0 0 0)
(0 0 -1.10231e-14)
(0 0 -8.49244e-15)
(0 0 -1.29966e-14)
(0 0 1.72519e-14)
(0 0 -1.57714e-15)
(0 0 2.89613e-14)
(0 0 2.90796e-14)
(0 0 1.50714e-14)
(0 0 0)
(0 0 1.32579e-16)
(0 0 9.74459e-15)
(0 0 0)
(0 3.7653e-14 2.25993e-14)
(0 1.94892e-14 6.03236e-15)
(0 0 -2.5257e-15)
(0 0 0)
(0 0 -1.49634e-14)
(0 0 -2.27374e-14)
(0 3.76531e-14 1.53414e-14)
(0 1.94892e-14 8.56828e-17)
(0 2.77368e-14 -6.58684e-15)
(0 0 0)
(-2.57761e-14 0 1.32579e-16)
(0 0 0)
(0 0 0)
(-2.57761e-14 0 1.58454e-14)
(0 0 1.6541e-14)
(0 0 -1.13807e-14)
(0 0 2.25385e-15)
(0 0 0)
(0 2.88734e-14 -1.17542e-14)
(0 0 0)
(0 0 2.6468e-16)