/*--------------------------------*- C++ -*----------------------------------*\
  =========                 |
  \\      /  F ield         | OpenFOAM: The Open Source CFD Toolbox
   \\    /   O peration     | Website:  https://openfoam.org
    \\  /    A nd           | Version:  9
     \\/     M anipulation  |
\*---------------------------------------------------------------------------*/
FoamFile
{
    format      ascii;
    class       volScalarField;
    location    "0.0021";
    object      overpressure;
}
// * * * * * * * * * * * * * * * * * * * * * * * * * * * * * * * * * * * * * //

dimensions      [1 -1 -2 0 0 0 0];

internalField   nonuniform List<scalar> 
17081
(
101247
0.00401839
0.00138087
4.72995e-05
1.48591e-06
0.00371667
0.000353056
1.20695e-05
0.0123382
184831
0.469039
2.49932
8.91821
0.0100915
0.0422132
114.206
0.135374
0.0574499
0.0129175
32.1612
0.652284
0.150553
207607
6648.5
196144
103216
11697.4
374614
1.24084
202240
118808
139470
151729
130949
115050
168340
5.05396
0.0967049
0.128793
0.622124
0.311086
1.68678
2.04531
79.0944
9.13978
443.92
315.217
28.7003
27.5128
1133.47
191728
150384
142083
118676
54843.3
88862.9
68919.2
0.0950662
4.90024
1.06181
0.178906
62.8016
125.165
215.097
0.832434
5773.14
429.039
44.3456
24619.6
36.5576
508.913
507.385
5967.31
20577.1
1398.89
15701.3
1665.86
332543
3120.57
233146
36.4678
356543
108370
138027
1009.58
0.0418457
0.017725
7.00914e-05
2.13845e-06
0.00432059
0.0179831
0.000152841
0.00263705
0.000114046
4.15755e-06
6.23129e-06
6.42167e-06
3.16133e-06
0.0004608
2.13907e-05
8.3934e-07
9.20263e-08
8.83156e-08
5.27361e-08
3.26654e-05
1.45695e-06
5.63741e-08
2.51748e-09
1.17871e-09
7.567e-10
1.69994e-06
7.58737e-08
2.86673e-09
4.36557e-11
0
0
7.3429e-08
3.15777e-09
5.82077e-11
0
0
0
2.50293e-09
4.36557e-11
0
0
0
0
169.975
0.00141318
0.00524618
1.96153e-05
2.64175e-07
0.000469752
0.00396103
4.071e-05
0.000948167
4.04558e-05
1.35222e-06
4.75091e-07
7.13553e-07
5.80781e-07
0.000147357
6.95042e-06
2.6109e-07
1.31549e-08
1.05792e-08
8.42556e-09
9.96122e-06
4.41869e-07
1.68657e-08
5.96629e-10
1.30967e-10
7.27596e-11
5.09011e-07
2.23663e-08
8.29459e-10
0
0
0
2.14495e-08
8.87667e-10
0
0
0
0
6.8394e-10
0
0
0
0
0
0.11348
6.98019e-05
2.70751e-06
1.50758e-08
1.21711e-06
8.12389e-05
1.11524e-06
0.000274802
1.0053e-05
3.23256e-07
1.23546e-08
1.29803e-08
1.79425e-08
3.60839e-05
1.54234e-06
5.60394e-08
1.76078e-09
1.74623e-10
2.32831e-10
1.88677e-06
8.3659e-08
3.09956e-09
1.45519e-11
0
0
8.30187e-08
3.62343e-09
8.73115e-11
0
0
0
3.11411e-09
8.73115e-11
0
0
0
0
1.45519e-11
0
0
0
0
0
0.000153495
9.60819e-07
5.42555e-05
5.72472e-08
3.49246e-10
9.94187e-08
2.06055e-08
0.000466759
8.46796e-06
1.63956e-07
3.14321e-09
1.01863e-10
3.63798e-10
1.59644e-05
4.57672e-07
1.43627e-08
3.0559e-10
0
0
5.2106e-07
1.81899e-08
5.52973e-10
0
0
0
1.6109e-08
5.67525e-10
0
0
0
0
4.36557e-10
0
0
0
0
0
0
0
0
0
0
0
515.503
0.0342045
7.65678e-06
3.06754e-08
2.64554e-08
0.867548
0.0104779
7.7458e-06
8.16362e-09
2.76486e-10
6.54836e-10
0.00193306
3.17751e-05
5.3292e-07
8.96398e-09
1.16415e-10
0
4.91649e-05
1.1645e-06
3.12284e-08
6.8394e-10
0
0
1.24671e-06
3.66563e-08
9.74978e-10
0
0
0
3.18541e-08
1.03319e-09
0
0
0
0
7.27596e-10
0
0
0
0
0
0
0
0
0
0
0
2632.26
0.0107756
7.24755e-05
2.54446e-06
1.56535e-07
7.989e-09
0.00376982
0.000393274
7.98881e-06
1.48008e-07
6.53381e-09
2.32831e-10
0.000358016
1.36491e-05
3.49944e-07
9.37143e-09
2.61934e-10
0
1.1398e-05
4.34651e-07
1.27911e-08
3.0559e-10
0
0
3.18585e-07
1.28493e-08
3.7835e-10
0
0
0
8.49832e-09
2.76486e-10
0
0
0
0
1.74623e-10
0
0
0
0
0
0
0
0
0
0
0
0.00264268
0.000355546
1.27983e-05
5.61966e-07
2.91184e-08
1.04774e-09
0.00045137
1.97795e-05
7.33824e-07
2.93949e-08
1.29512e-09
0
1.77739e-05
8.24904e-07
3.43716e-08
1.35333e-09
0
0
6.13261e-07
2.99478e-08
1.20781e-09
0
0
0
1.95432e-08
9.31323e-10
0
0
0
0
5.23869e-10
0
0
0
0
0
0
0
0
0
0
0
0
0
0
0
0
0
0.000226501
1.29715e-05
6.82776e-07
3.55212e-08
1.62981e-09
0
1.46911e-05
7.6172e-07
3.78932e-08
1.80444e-09
0
0
6.54181e-07
3.59578e-08
1.71713e-09
0
0
0
2.56114e-08
1.36788e-09
0
0
0
0
9.02219e-10
0
0
0
0
0
0
0
0
0
0
0
0
0
0
0
0
0
0
0
0
0
0
0
6.65148e-06
4.4021e-07
2.71102e-08
1.45519e-09
0
0
4.4734e-07
2.77068e-08
1.52795e-09
0
0
0
2.23954e-08
1.30967e-09
0
0
0
0
9.02219e-10
0
0
0
0
0
0
0
0
0
0
0
0
0
0
0
0
0
0
0
0
0
0
0
0
0
0
0
0
0
1.84402e-07
1.39989e-08
8.73115e-10
0
0
0
1.30676e-08
8.87667e-10
0
0
0
0
6.69388e-10
0
0
0
0
0
0
0
0
0
0
0
0
0
0
0
0
0
0
0
0
0
0
0
0
0
0
0
0
0
0
0
0
0
0
0
0.00811197
0.000138614
0.00472895
0.000121645
2.26559e-05
3.30154e-07
1.83241e-05
4.42145e-07
2.25555e-07
0.000770835
1.41779e-07
0.000259799
3287.68
0.0129769
0.639903
2462.56
0.0046266
0.23114
10.6649
0.265376
0.0445537
638.551
5.41389
0.135265
0.0322269
0.00114391
0.0116099
0.000887209
0.0116058
0.000754042
0.00710707
0.000630293
4.4336e-06
6.26458e-05
1.23262e-05
4.60143e-05
2.87208e-06
4.71115e-05
9.95368e-06
8.40846e-05
1.13688e-06
3.5858e-06
1.047e-06
3.98483e-05
9.06308e-07
1.75199e-06
0.0315513
0.000120026
0.000766711
0.00214043
0.0161941
5.6589e-05
0.000375872
0.00267128
5.58284e-05
1.58064e-05
8.29596e-06
1.33761e-07
2.33845e-06
5.93136e-08
4.68281e-08
0.000108714
8.70205e-09
1.68088e-06
1137.79
0.00207989
0.107694
274.596
3.96124e-05
0.00358283
0.173823
0.103984
0.0108593
1.28388
0.0510015
0.0224498
0.0019587
0.000340113
0.00301219
0.000260383
0.000109627
0.00102922
0.000119611
1.2494e-06
1.81349e-05
4.06335e-06
6.21194e-06
3.94211e-07
8.99337e-06
1.64639e-06
7.9499e-06
3.2525e-07
3.80882e-07
4.76866e-08
6.36937e-07
1.68642e-07
7.62666e-08
0.00381434
1.13698e-05
8.13486e-05
4.19725e-05
0.000390237
1.09874e-06
8.81526e-06
6.30728e-06
1.00023e-05
9.95409e-07
1.95723e-08
1.14148e-06
1.67202e-08
4.01633e-09
2.12342e-07
1.96451e-09
1.30967e-10
6.78351
5.41276e-06
0.000495172
0.0611565
2.54659e-09
6.18974e-06
0.00597913
0.00379887
0.000252508
0.00802967
0.000309863
0.000164229
1.0698e-05
4.8068e-05
0.000371614
4.23559e-05
5.55412e-05
0.000261792
2.67962e-05
1.86948e-07
3.27098e-06
9.13278e-07
2.73598e-06
1.33557e-07
2.09216e-06
3.81071e-07
2.08238e-08
7.21338e-08
2.62662e-08
7.13044e-09
1.16415e-09
4.07163e-08
9.90985e-09
1.53597e-05
3.4488e-08
3.4312e-07
1.86992e-08
3.61179e-07
1.68802e-09
9.72068e-09
0.000115217
0.305305
1.31276e-05
5.0888e-08
0.0436573
4.12382e-05
5.80621e-09
1.45519e-11
3.1348e-06
5.58794e-09
0.000204419
1.60071e-10
3.15325e-07
4.7253e-07
8.44011e-10
1.04046e-08
1.09573e-05
4.02395e-06
4.22704e-07
4.96594e-06
3.37299e-07
2.4194e-07
2.91329e-08
0.00130456
0.0022002
0.000134872
0.0498166
0.0344533
0.00212695
1.8579e-06
8.29558e-06
5.37126e-07
0.00174871
4.8268e-05
8.80606e-05
3.23515e-06
1.8772e-09
2.75031e-08
6.28643e-09
1.18728e-06
3.069e-08
1.31287e-07
9.41509e-09
8.28004e-09
3.7835e-10
3.0559e-10
8.00355e-10
3.49246e-10
3.63798e-10
4.36557e-11
5.96717
0.280353
0.000276856
7.82646
0.198039
0.16022
0.00988855
0.000246355
2.17016e-05
6.12345e-08
0.00845137
0.000366029
0.000486109
2.21312e-05
2.13593e-07
1.0361e-08
1.01863e-09
1.63464e-05
9.46049e-07
1.00904e-06
5.73928e-08
245.084
0.0203496
0.00082109
0.0467647
2.77302e-05
10740.3
0.271862
4.4606e-07
8.07006e-07
355696
0.0806042
0.000654284
3.2978e-05
6.27278e-06
2.32321e-07
22.7891
0.0179596
0.000224722
1.24121e-05
6.16797e-07
2.11439e-08
0.00140931
0.000159394
9.70891e-06
5.51372e-07
2.72266e-08
1.00408e-09
4.92026e-05
5.1986e-06
3.61659e-07
2.11585e-08
1.00408e-09
0
1.57891e-06
1.60144e-07
1.18744e-08
6.40284e-10
0
0
28425.8
23862.6
31612.1
158309
2690.47
17540
23113
1469.74
14219.9
4515.9
613.88
21888.8
286.608
7.61817
1490.67
4.04337
160.24
326.154
1.61473
0.991063
27.297
0.15095
202.433
0.0404991
1.57753
0.00890886
14.3753
0.0049215
0.00729509
5.73217e-06
0.00247525
0.00612295
0.000230973
0.00149442
6.40475e-05
0.000112964
6.10111e-06
141219
242322
7191.96
88.0253
200714
239.596
14300.1
0.815191
4.3143
0.492815
0.00282129
16.9533
0.0480285
0.142162
0.00503509
0.00117134
6.88867e-05
1.76945e-06
0.00234822
0.000144147
0.00021942
1.23753e-05
629.15
17675.5
6.18205
3.45417
61.8338
1089.06
162.706
4.0945
76.0998
10.2325
35.1575
0.00290535
0.108777
0.00729094
0.000482339
0.00628373
0.00043812
0.00311207
2.47754e-06
5.82226e-06
1.30731e-06
5.95945e-07
5.90429e-07
1.39305e-07
2.04031e-06
0.000517596
0.00245262
0.00264964
0.00772309
0.00226919
0.00243936
0.000566502
9.26042e-05
2.41646e-05
0.000439395
0.000127535
2.23088e-05
0.000413235
0.000100805
0.00039645
0.00561955
0.0012556
0.00142594
0.00166866
0.00196263
0.000279632
6.90861e-05
0.000131779
1.74749e-05
0.000234578
2.06569e-05
0.000301074
4.94129e-05
9.90083e-07
4.38861e-06
6.98703e-06
2.15115e-05
4.1024e-06
6.38596e-06
1.07892e-06
1.87792e-07
6.62112e-08
1.26685e-06
3.08457e-07
6.19184e-08
1.1778e-06
2.06448e-07
8.17818e-07
1.88471e-05
3.1723e-06
3.99396e-06
3.61507e-06
5.23022e-06
6.40066e-07
1.44573e-07
4.52521e-07
5.77129e-08
7.24074e-07
6.80448e-08
8.47664e-07
1.16866e-07
5.75969e-06
2.7506e-07
1.98389e-06
2.1678e-07
2.4942e-07
1.78728e-06
6.36099e-06
0.00013349
0.00314706
3.96584e-05
0.000686432
0.00286634
3.55671e-05
0.000146996
3.99737e-06
1.71131e-07
9.20991e-08
6.22516e-07
1.73532e-07
1.17124e-06
2.05102e-06
9.44779e-05
0.000481818
0.00116397
1.28158e-05
0.00206725
2.42693e-05
5.0664e-05
3005.89
2798.38
2520.87
240.299
193.001
172.03
265.118
0.960576
0.0628931
0.179239
0.0115243
0.0572937
0.156181
1.08985
1976.07
1788.63
1318.86
191.588
82.8969
130.763
131.519
0.718153
0.00823996
0.0248759
0.0664236
0.0420132
0.113007
0.44551
0.000104065
0.000700923
0.000978434
0.000174646
0.00057819
1.83736e-05
8.65244e-06
0.000142397
2.58222e-05
2.96863e-05
4.22036e-06
9.7418e-05
9.36084e-06
1.81847e-05
2.04078e-06
2.78692e-05
2.65874e-06
4.66568e-05
5.46413e-06
1.98517e-07
1.58035e-06
2.74727e-06
4.73103e-06
3.97864e-07
8.06205e-07
1.34688e-06
3.9945e-08
2.30211e-08
4.25105e-07
7.29924e-08
7.03149e-08
1.06957e-08
2.741e-07
1.25525e-07
2.44929e-06
3.73155e-07
5.0533e-07
4.56814e-07
9.16058e-07
7.7096e-08
2.21626e-08
6.55273e-08
6.60657e-09
9.33069e-08
8.03266e-09
1.36308e-07
1.45374e-08
2.44137e-07
3.35276e-08
2.25671e-07
2.42726e-08
7.98216e-07
1.08994e-08
7.95553e-08
6.85743e-06
0.000519427
4.98971e-06
3.62227e-05
2.10542e-05
0.000182242
1.61429e-06
5.82513e-08
1.02009e-08
1.61526e-09
5.38421e-09
3.37604e-09
1.74332e-08
1.02591e-08
1.72845e-06
9.04813e-06
1.01454e-05
7.15663e-08
4.93543e-05
3.69997e-07
3.26501e-07
743.236
615.851
346.124
36.9638
43.3547
76.4484
18.4019
0.0905181
0.0119147
0.0309488
0.00071989
0.221895
0.00452768
0.0118329
127.068
34.9235
94.2208
14.4069
1.53566
6.11561
4.26412
0.0288687
0.000196885
0.000298949
0.00076029
0.00133467
0.00338381
0.00697727
2.30459e-06
9.56832e-07
1.79933e-05
3.41212e-06
3.47599e-06
5.40589e-07
1.26121e-05
3.91869e-06
2.72883e-06
9.66364e-06
3.48764e-05
7.73493e-07
9.09636e-06
5.99095e-05
2.45054e-08
1.78421e-07
2.85581e-07
6.3474e-07
4.24916e-08
1.04541e-07
1.73197e-07
4.32192e-09
2.663e-09
5.23723e-08
9.45874e-09
8.06176e-09
1.16415e-09
2.95404e-08
2.0751e-08
4.83138e-07
1.22089e-06
3.48213e-07
1.18351e-07
1.24739e-07
1.47644e-07
3.4197e-09
6.73754e-09
2.34286e-09
3.80242e-08
8.14907e-10
2.30939e-08
1.4712e-08
1.89175e-10
5.52973e-10
1.68802e-09
2.2992e-09
1.32422e-09
2.32831e-10
8.29459e-10
3.82715e-09
1.38306e-06
8.23638e-09
2.01835e-08
4.1473e-08
1.31622e-07
1.17871e-09
0
1.22236e-09
2.18279e-10
4.94765e-10
1.01863e-10
3.0559e-10
0
2.47383e-10
1.5134e-09
5.09317e-10
1.45519e-11
9.79344e-09
1.01863e-10
0
0.795185
22.9844
3.37516
0.11245
0.264665
0.894109
0.0315245
0.000125248
4.46865e-05
0.000108941
5.20507e-07
0.00114607
4.43686e-06
1.13521e-05
0.00395766
0.278012
0.016739
0.00890357
0.000329222
0.00240551
0.000553359
9.74833e-06
3.94357e-08
1.89757e-08
5.68689e-08
3.34403e-07
8.6092e-07
6.32383e-07
0.0251004
0.000201994
0.000491731
0.00127057
0.00123864
0.00427434
0.00781377
0.498512
0.0211558
1.75913
1.72852
0.0903641
0.125238
9.10637
6.59141e-05
2.62121e-05
2.56732e-06
0.0001684
2.9685e-06
0.000584408
2.09999e-05
6.19868e-06
2.54367e-08
2.4747e-07
2.79237e-07
2.76268e-07
5.22195e-07
1.93076e-06
0.00152121
0.00292766
0.267132
0.00507652
0.0130278
0.00035834
0.0326728
0.000145811
4.36456e-06
0.000279977
0.000485262
1.22866e-05
3.35576e-05
0.00324083
2.85218e-09
1.92085e-09
1.41154e-09
2.20316e-08
1.60071e-10
3.80533e-08
5.10772e-09
2.32831e-10
1.45519e-11
1.30967e-10
1.30967e-10
0
0
3.92902e-10
5.79894e-08
3.28931e-07
2.10382e-05
2.75002e-07
8.98319e-07
4.73665e-08
1.14919e-06
4.75848e-09
1.84809e-09
1.34023e-08
2.52185e-08
7.567e-10
4.16185e-09
8.50123e-08
1.76785e-05
3.87863e-05
0.000839096
1.47204e-06
1.60995e-05
2.83476e-05
2.49434e-06
1.45519e-09
9.16771e-10
3.09956e-09
0
3.35858e-08
2.91038e-11
2.47383e-10
1.19164e-06
2.73809e-07
1.75493e-06
8.99163e-08
2.08747e-07
2.84985e-07
2.78524e-08
1.30967e-10
1.45519e-10
2.34286e-09
2.32831e-10
8.73115e-11
2.91038e-11
6.8394e-10
0.477743
17.778
1.51295
0.387411
0.0877232
1.05188
0.0385082
5.57286e-05
0.000481991
4.47307e-05
5.09764e-05
3.76873e-06
3.17494e-05
1.2767e-05
112454
290328
218578
287835
279101
6.39507
864.414
741.093
405.923
53.1259
30.2329
92.0322
0.00155384
0.0286557
0.0127091
0.034863
0.00190929
0.0163516
0.00491788
26806.8
35976.4
32936.6
108701
197649
191730
109787
26937.2
19550
18817.2
107439
155433
178426
104589
11350.6
8740.29
5870.95
80502.9
121494
96765.7
80813.1
2424.39
740.391
1841.05
57611.3
14708.7
41797.3
31299.9
20.7343
537.916
97.0772
2610.65
3530.03
11323.5
503.391
8765.49
6153.88
9214.36
49.3681
153553
917.068
445.746
0.0969149
8.63337
0.510057
266.329
2.30283
39.9352
15.2921
0.000340953
0.00110609
0.0249555
0.0307394
0.111427
0.722011
0.00508493
1.87316e-05
3.98174e-06
4.19909e-05
0.00100645
3.76862e-05
0.000239546
6.34988e-05
43398.6
130457
59801.5
285135
192769
195777
214449
16101.8
10058.8
5343.94
81830.5
62491
1296.24
904.88
14362.5
2481.16
12774.6
122638
35763.7
84202.8
7.02607
303.043
26.8015
1259.8
490.583
5107.82
100.768
0.44309
64.1709
0.256569
0.25363
3.68499
2.20016
0.0437064
0.0365338
1.96618
0.13328
0.473108
36.8786
2.57232
7.03968
0.000513152
0.0086235
0.000677005
0.0324496
0.0120986
0.171152
0.0036471
1.94784e-05
6.79899e-05
1.43047e-05
0.000142579
0.000858986
0.000160006
0.000507551
0.813149
388.428
2.29261
0.590319
19.9087
14.7127
0.0987472
0.0224937
0.0283342
0.0248565
0.000538117
0.538705
0.0042252
0.00114457
3334.52
24623
5567.34
431.576
1975.47
239.761
1322.08
0.000747986
0.0226499
104556
0.000669339
0.00189511
0.000348701
0.000751055
0.000884446
0.0103589
33.9312
1.16076
248515
263541
145324
134.438
10.6812
0.00205781
0.000475075
5.56353e-05
0.00095074
0.000145023
0.000170786
0.000219544
0.000341835
3.09529e-05
1.21193e-05
7.71615e-05
0.000123645
0.000214839
2.00804e-05
4.90839e-05
7.06861e-05
2.2252e-05
0.000169271
0.00137618
0.000228826
9.48002e-05
4.90065e-05
0.00032217
0.118183
0.0260037
0.00289119
0.168363
0.00616714
0.478181
0.0396437
2.22972
2.50944
144.043
8.69427
8.66999
0.604489
39.0215
222875
166927
161663
278860
108300
155390
233651
24624.4
24554.5
112543
70822.9
67325.1
7608.97
6129.13
2.16678e-08
8.58417e-08
1.63156e-07
7.88714e-09
2.99769e-09
1.23691e-08
4.08909e-09
1.15206
0.0453428
0.10911
0.281823
0.0114693
0.0990485
0.00474525
0.000289991
0.000513769
1.83686e-05
0.00792108
0.000498817
0.000368744
3.33386e-05
2.35246e-07
6.34798e-07
4.25935e-08
2.59328e-05
1.45014e-06
1.86228e-06
3.34301e-07
5.09317e-10
2.08092e-09
4.07454e-10
7.01111e-08
8.62929e-09
1.81171e-08
3.59432e-09
1.46595
0.0922285
0.874528
0.113087
50.843
0.161977
0.0101807
0.2033
0.000835921
0.0136053
0.0140993
0.0011539
0.000893729
8.1841e-05
0.0009544
1.50263e-05
6.52437e-05
7.26388e-05
4.85037e-06
6.86591e-06
1.57735e-06
4.96581e-06
9.60179e-07
8.74032e-07
3.61761e-07
6.21512e-08
2.13447e-07
7.07805e-08
15.6832
11.7739
1.04441
0.556207
10.3775
0.921912
17.5122
12.0685
0.398828
4.60579
0.421957
7.65252
0.687837
7.81021
1.82716
2.2856
0.209997
0.0423047
4.15815
0.886636
0.0853432
0.635174
0.0119262
0.0642428
0.00681369
0.27789
0.0264961
0.167265
0.00349493
0.00996271
0.00102374
0.0001132
0.0306798
0.00129395
0.000127107
0.00026935
1.00559e-05
1.69428e-05
7.37418e-07
9.60244e-05
8.73611e-06
1.74317e-05
5.77857e-08
8.91858e-07
4.18513e-08
6.56582e-08
9.16989e-07
2.45593e-07
5.64614e-09
5.12227e-09
1.18307e-08
1.79571e-08
5.09317e-10
2.54076e-08
6.98492e-10
2.34286e-09
0.267465
4.65243
0.0335915
0.14351
0.581651
2.308
0.0237437
0.0254025
0.00476934
0.00323556
0.000446859
0.0572337
0.0029385
0.00241122
5.56176e-05
0.00034689
2.45706e-06
5.51914e-05
2.62757e-05
0.000252495
1.45074e-05
6.01598e-06
3.4766e-07
2.68745e-07
6.3589e-07
2.17486e-06
2.13119e-06
2.17972e-06
1.35551e-07
4.37998e-07
2.90922e-07
1.24404e-07
2.77214e-08
3.37022e-08
4.70609e-08
1.03828e-07
5.81786e-08
2.77942e-09
1.03304e-07
1.5425e-08
2.6694e-07
3.0559e-08
1.66183e-08
3.01225e-09
6.8394e-10
2.24099e-09
3.71074e-09
7.94535e-09
6.43195e-09
2.53975e-07
1.21834e-06
3.43405e-06
6.30618e-05
5.73744e-06
1.15095e-05
1.77631e-06
29945.2
6.19391
0.113051
5158.73
72078.7
459.515
208.831
57.3654
0.00736902
0.145547
1004.95
0.604554
0.247951
0.0421471
0.00849132
0.000168278
0.000641893
0.0545586
0.00438231
0.00422474
0.00136581
5.64468e-05
1.48591e-05
1.41091e-05
0.000453021
0.000220239
0.000352117
0.000222145
0.000239333
0.00261969
0.000117975
0.000923403
0.000281402
0.00193237
8.85537e-05
1.37601e-06
3.74735e-06
2.97606e-06
2.66345e-05
1.21542e-05
2.89264e-05
9.26292e-06
93.9875
9.91114
142.032
1.86318
29.1334
1.03918
16.256
31.6379
452.383
42.3707
584.976
159.496
1863.99
2053.15
0.00221414
0.000653356
9.40325e-05
0.0110011
0.00133946
0.000350208
4.99212e-05
0.000391131
9.20743e-05
1.37351e-05
0.000726793
8.43961e-05
2.11337e-05
3.41836e-06
8.34954e-06
1.89313e-06
2.64365e-07
3.53338e-06
4.00833e-07
7.99337e-08
2.38506e-08
1.48866e-08
2.47383e-09
1.06229e-09
5.22414e-09
1.4843e-09
1.30967e-10
1.89175e-10
1.16415e-10
0
0
1.01863e-09
4.65661e-10
3.7835e-10
4.36557e-11
0.000697108
3.27686e-05
0.000185483
9.64136e-06
3.47778e-05
1.53325e-06
1.22445e-05
3.49581e-07
2.62206e-05
6.53745e-07
0.0116251
0.00272466
0.000749328
0.00040725
0.00104374
0.00285807
0.00011839
4.06658e-06
1.22775e-07
0.000164815
6.79515e-06
2.44429e-07
7.78527e-09
0.000125861
6.62774e-06
2.93381e-07
1.09867e-08
3.0559e-10
4.18587e-06
2.37313e-07
1.0783e-08
3.34694e-10
0
1.26791e-07
7.40692e-09
3.0559e-10
0
0
282205
474530
427791
6770.91
652051
668623
273.26
639179
430322
435585
318644
44.3294
2.26887
799861
350020
0.0179857
735574
198807
411241
385479
496957
23.2119
0.015069
944066
810.614
0.0014567
976256
2767.4
22535.2
7277.23
288511
98670.9
0.126028
0.00115834
981672
2891.55
0.0711175
0.000167697
1.03139e+06
167107
3.29688
0.30117
0.00602397
0.000210051
306647
61959.1
0.866813
0.00211802
1.57165e-05
672330
0.719403
0.0119998
0.000608383
1.92307e-05
70368.1
6.26467
0.00209156
7.99735e-05
2.95474e-06
0.0101868
0.000724055
2.71798e-05
1.09311e-06
0.098177
0.00204447
0.00011204
5.14364e-06
1.98488e-07
0.000917955
8.39525e-05
4.98095e-06
2.40398e-07
9.56061e-09
560606
618544
888888
643080
943515
677710
809257
706638
930264
559164
618846
671791
696524
697502
183633
654670
842339
656390
810164
714057
925696
591771
29438.8
1.03534e+06
965587
1.21162e+06
1.16772e+06
1.0683e+06
910271
16511.6
1.03774e+06
478123
35675
8.43748
568212
5267.8
902873
968583
910673
341202
665477
1.03912e+06
1.09355e+06
364106
621068
836972
447919
36643.3
1.11483e+06
499246
171411
182.545
117967
69.9469
0.983651
102311
8.21944
12.5513
0.19911
4.17959
0.0989098
1.01123e+06
874831
578970
603944
215742
138.498
7.99525
576023
325218
115271
768651
653916
781921
728028
749675
918041
1.00739e+06
126306
982819
634341
877492
789616
915770
976381
984410
910706
974157
963253
805658
9760.36
7349.06
357.952
229935
722649
65241.6
224052
100318
258870
236.98
27.4047
5588.83
35.5883
88.0454
0.581101
17.5543
0.236339
0.0337052
0.124228
0.00711496
0.0725328
0.004458
0.0142123
0.000952661
629651
486600
554710
574836
569157
591215
616631
586918
809804
645498
760258
657329
661344
775950
793361
837944
675260
720262
843136
682849
800635
888681
574135
590264
669433
836634
802575
180128
683201
743359
353178
723561
344211
192748
658723
698157
713564
755710
903638
787685
698595
746740
227811
768158
355859
726026
209897
794766
338008
855071
976816
951879
1.0803e+06
1.05784e+06
830100
1.04947e+06
895440
1.14665e+06
980411
1.12965e+06
889658
1.17215e+06
1.1054e+06
985626
1.02005e+06
1.18955e+06
1.17485e+06
1.04727e+06
814935
1.054e+06
1.09859e+06
1.0762e+06
1.08724e+06
811351
1.1229e+06
1.00883e+06
1.03322e+06
1.03484e+06
1.08129e+06
898266
358049
926551
353840
118709
846756
567546
37023.5
792412
979748
906766
810068
1.01085e+06
931258
984371
984248
994350
68267.1
786576
71014.9
79472.9
166463
543045
12048.7
923839
188449
665092
1.07407e+06
1.16166e+06
963308
1.07119e+06
1.02332e+06
1.07571e+06
1.05329e+06
933651
789622
867536
963141
779857
927746
871675
283952
753431
757415
980343
615894
567847
1.16258e+06
1.03741e+06
980166
1.03668e+06
921151
751154
176210
281359
854826
65888.4
718713
16770.4
380179
86104.3
596485
45802.1
12147.1
397573
231563
4252.84
7814.85
2164.46
25.711
1002.15
568.906
31143.7
351.133
49.499
29580.9
5286.21
3870.57
1393.98
986.036
188.397
2.0283
126.284
1.80461
0.238232
35.0228
6.45454
0.223728
908745
1.04239e+06
1.03192e+06
913787
986564
921905
824805
1.00232e+06
869247
117892
499030
710623
27353.8
357230
4355.04
2099.2
64866.1
246.434
0.416432
12.3047
351641
436718
283483
528464
223451
463712
361660
413769
173667
703654
337555
675045
711867
338828
171870
238692
703798
839510
183914
825849
282935
229897
368872
634330
669538
385743
385691
647078
599676
2179.08
607839
166664
497428
412.279
532969
102934
125.399
296618
650.821
7150.53
1.08723
34831.7
5.91518
405426
489815
269862
426693
431956
483154
52176.1
537462
37926.9
279197
377.236
72816.7
23.5655
0.212046
1841.65
0.725891
0.611906
0.0374709
124.313
0.0364853
280697
387217
89666.6
242135
10994.9
234719
624.69
7.52828
8200.78
2.78139
819.601
0.75964
43.1667
0.621216
0.00506424
0.0720116
0.00331289
0.0128691
0.00133196
0.00394179
0.000243282
775276
900460
810260
957711
851773
962860
1.03727e+06
891994
1.06977e+06
1.02817e+06
956255
1.00933e+06
1.09787e+06
1.09274e+06
445881
573183
549209
405760
407277
503986
195375
0.000589697
0.000409814
5.51448e-05
0.000733909
0.000205008
9.41114e-05
1.86723e-05
6214.8
407.138
0.0760007
0.000803017
3.09998e-05
154849
207752
414002
368924
375414
96248.1
268825
270591
452828
258935
444508
449339
200174
462975
240796
388374
856486
644984
265851
239614
778104
56857.1
138193
397487
0.474458
53.3829
0.00384363
0.000432493
2.31106e-05
1.1615e-06
5.15429e-08
0.0138233
0.000132214
1.28591e-05
8.3253e-07
4.54893e-08
2.06637e-09
0.000396208
3.63305e-05
3.09665e-06
1.88156e-07
9.28412e-09
3.20142e-10
4.37959e-06
4.03641e-07
2.73867e-08
1.49885e-09
0
1.06443e-05
1.16981e-06
9.81236e-08
6.0536e-09
2.47383e-10
0
282757
328948
261524
301747
370271
559768
377136
415029
578775
423212
328242
367685
419162
391176
396106
308560
554871
518193
671099
452940
699811
975490
586547
393589
514534
588561
748091
576949
639866
942762
943660
649287
567683
853657
428091
384067
438540
300549
323477
513878
488653
557989
416060
462229
715746
708576
792500
758973
909874
379787
292291
326192
285439
338039
335199
294101
283957
263099
280691
264500
279235
303003
350420
367395
323076
347245
305127
321029
437569
372948
431206
387211
383045
442939
426125
499053
492390
505682
486265
452772
400952
419363
482956
396760
457951
477985
515296
547886
521501
542150
285194
336109
293315
280217
264660
348530
321726
304568
488936
501969
397439
477946
452921
546058
517739
324227
301459
299833
325073
373065
393899
346211
429123
344508
427650
373619
352990
388172
353028
387748
408078
470072
516963
451057
468564
407675
450250
553415
449867
516165
490680
511614
487832
556386
624614
582731
578597
623537
602606
535268
587350
655527
533409
601724
663493
680636
733125
671329
760938
344441
426210
371356
379667
349429
466612
442889
403379
584545
628950
536578
659252
607299
727732
676027
494996
432699
432698
487638
584149
581998
504183
653951
505481
679465
570705
584740
660297
560191
705511
698539
767690
1.03716e+06
793668
830729
661534
858083
926034
663368
727476
741292
762625
789830
847121
488985
628615
544141
622874
526712
711147
737099
619750
935648
785368
838987
913288
362549
242532
280508
218101
381822
259938
299773
504453
367077
567093
427172
465394
414278
585610
410894
258259
390601
352426
360694
319097
591960
383490
444680
640975
272107
320112
592341
558085
290535
427550
796698
477582
223587
598968
784172
522674
218368
584182
424563
167195
282826
221816
286683
113936
36771.7
23.3444
0.0985064
0.0529295
0.00453998
0.00122053
0.00013164
4.51419e-05
355429
122798
193684
252910
337071
156207
42227.9
67222.1
100216
743.496
15130.5
75267
230202
97472.5
132213
134622
67224.8
36028
179866
816405
818252
834478
285001
439913
216351
249889
99876
287955
326845
153035
370332
244382
210849
261088
351919
620783
210977
242708
242711
261439
332713
325187
366626
546899
517565
652166
531255
619137
683653
641376
510728
706376
246057
220546
254959
281784
387839
735577
288123
571759
332652
253602
210520
246151
219428
218553
254792
245379
227889
241451
226991
228174
259759
282746
281266
305785
332545
305116
302843
367869
409434
416674
467369
580250
487024
440084
519792
559525
446521
598154
464755
628169
497884
553903
646569
694293
526118
675975
523895
569548
681503
734111
766991
428429
590698
484241
658622
536091
521152
176460
179664
191216
208569
179484
208948
222812
225673
265912
285901
225782
279383
327839
311142
516698
454698
298479
431136
157425
178971
151492
187559
186568
158281
150390
164666
194965
207353
178158
194214
165593
176748
151661
188979
159468
195440
178964
166164
209789
223976
193668
245444
191922
243375
212319
227949
265126
285806
246517
263786
230151
246201
194281
245286
212904
263124
241641
229304
297259
313302
265523
343758
267812
350983
290794
339680
389864
478037
382871
404956
328082
398713
255573
325613
276504
367924
363953
310801
336930
122193
63874.6
220188
38028.1
173561
161778
104297
131144
93099
276503
348724
198910
378817
131940
158912
125864
398163
318585
188769
215505
87638.5
210033
198796
86169.4
75825.7
198231
156707
82832.8
149624
172878
98583.9
82377.2
120667
114685
212251
216134
217778
250959
260211
261071
246460
117331
191332
193929
306467
400141
418382
399408
185886
186680
177795
157395
147731
156162
149267
309375
313704
346543
262359
283408
285555
282879
381577
355213
363161
286228
292888
249208
206616
111002
140960
139253
120794
128017
141039
144568
223685
246653
240180
256822
288693
266155
279948
253183
207223
216834
206131
213828
250732
242405
192601
205654
206143
162519
173924
160746
174983
383510
329828
277839
264217
221941
178302
167449
260555
305539
291731
341819
314009
302745
356472
235373
191355
143892
127657
149798
146999
205217
333451
409107
390192
397065
448634
407609
469130
293089
309613
333611
360561
309116
339727
288286
223020
220008
240515
239953
278821
257218
278299
131208
132831
136351
151755
150172
151382
152550
243490
254778
254483
208431
218648
218961
209466
138625
280226
251261
154157
145488
215465
239474
83039.9
100399
83715.2
137736
167571
118950
114015
116645
201760
155415
252302
300645
184123
376100
460603
494197
533440
578380
468690
540150
452975
223238
243295
243065
208795
208924
189931
190739
111613
111796
94149
106364
133768
117915
117315
292701
321350
335483
290535
323214
333911
281379
300085
363941
334608
374411
313700
348707
324535
264149
292652
288069
250470
228654
247304
227587
217082
173928
214535
144845
174724
160525
155469
262119
224719
225737
240627
240673
278930
278689
258084
285077
282820
297810
326827
330645
297938
352213
345131
364498
272720
293863
248005
191350
443175
402511
427461
383265
359001
349329
375131
328697
232676
184857
379810
202988
258258
403259
312432
365982
351792
416134
364111
375562
440448
361589
319121
374440
314738
278170
305229
271875
262757
277161
332928
180740
144373
144540
148797
137200
160646
139792
187246
162113
163347
190389
272084
234034
256472
207260
258056
214194
143515
122816
166738
212545
139597
138966
184547
160344
446270
459379
384820
409930
454128
390631
442719
365007
343112
320147
297657
366265
342035
320009
401252
361880
405812
442881
351633
408653
464638
404277
506699
472404
490018
590522
626109
528326
572701
392475
545179
558651
263318
382131
457380
204144
227560
204158
165960
152863
169793
193790
127368
114724
116243
146718
148370
133856
136502
281574
294374
293621
322917
325185
337001
335942
467722
423678
433526
523308
438503
516128
526468
395488
403607
418189
303610
338365
317003
263460
259237
281899
281279
324625
298738
299268
325174
498396
420998
436503
426649
413956
363891
352108
119426
152420
141140
128520
116888
149169
139286
340409
360748
344975
214388
226759
269403
331457
174381
200004
173425
175312
204961
204490
177390
458111
411709
468103
427122
454695
401996
481281
251536
410134
533322
402412
487768
553151
339128
169431
187987
164599
194186
205620
200560
207438
302039
365686
345242
320606
366247
345858
320456
419044
381146
431031
433364
370136
380782
424332
121859
134200
129967
140871
150896
148320
153774
306198
342443
336125
354674
402174
358148
392353
341738
433841
376764
384648
394558
343058
447279
666415
636170
564392
758683
711659
679065
637631
214440
185022
192261
178623
210419
208740
180006
139512
226877
422743
171487
176562
279034
146027
422230
450498
432975
310227
280325
261215
335858
134742
158115
138543
184615
162424
166078
189122
338161
290588
236653
227474
161407
193963
169050
431032
375751
450290
516207
463161
443715
549048
390606
469187
443667
447322
417811
391526
474527
498563
497926
426138
446110
605926
524864
532251
654140
598844
581150
545579
489166
478581
534433
164919
187958
161868
180440
199985
197521
175656
513806
554332
553891
505772
497228
490574
503651
233644
255694
316134
448603
208937
260283
307471
139509
119346
115598
108286
111433
129611
133330
434889
420859
371807
382380
433119
382409
424026
541502
471805
463025
443469
520759
405610
516819
373331
342716
392724
428652
343775
374092
426994
633191
710804
602888
729702
681729