/*--------------------------------*- C++ -*----------------------------------*\
  =========                 |
  \\      /  F ield         | OpenFOAM: The Open Source CFD Toolbox
   \\    /   O peration     | Website:  https://openfoam.org
    \\  /    A nd           | Version:  9
     \\/     M anipulation  |
\*---------------------------------------------------------------------------*/
FoamFile
{
    format      ascii;
    class       volScalarField;
    location    "0.0021";
    object      rho.c4;
}
// * * * * * * * * * * * * * * * * * * * * * * * * * * * * * * * * * * * * * //

dimensions      [1 -3 0 0 0 0 0];

internalField   nonuniform List<scalar> 
17081
(
27.3058
5.34036e-12
5.5762e-14
2.22045e-16
2.22045e-16
2.49239e-09
1.03752e-15
2.22045e-16
3.3397e-08
10.5639
0.000492431
0.0357814
1.65405
1.21816e-09
1.26001e-08
79.5368
1.85239e-05
7.33312e-07
1.43457e-10
35.5195
0.0117031
1.27233e-05
22.2134
74.3478
28.2173
57.1218
72.7997
33.6473
0.0243407
14.9712
8.13534
11.7228
28.9398
17.4583
24.4211
20.3415
4.44309
6.54457e-06
5.53143e-06
0.001697
0.00138457
0.179494
0.115791
66.7572
4.86904
72.453
65.5395
48.4885
36.9229
57.9428
34.4278
17.412
26.6051
41.4029
47.7719
34.34
57.6826
5.08927e-06
1.35874
0.0121843
3.90615e-06
52.3598
78.8566
75.0788
0.0140829
92.0321
94.1209
37.5559
80.2628
21.3973
84.7387
79.0108
65.9825
59.2669
65.2717
51.3664
71.4147
43.5336
81.2087
54.1324
20.4726
29.852
68.6328
83.2025
131.856
9.08205e-09
1.02114e-05
2.22045e-16
2.22045e-16
2.05242e-11
1.35984e-09
2.22045e-16
3.65469e-09
8.16524e-16
2.22045e-16
2.22045e-16
2.22045e-16
2.22045e-16
2.83181e-13
2.22045e-16
2.22045e-16
2.22045e-16
2.22045e-16
2.22045e-16
2.22045e-16
2.22045e-16
2.22045e-16
2.22045e-16
2.22045e-16
2.22045e-16
2.22045e-16
2.22045e-16
2.22045e-16
2.22045e-16
2.22045e-16
2.22045e-16
2.22045e-16
2.22045e-16
2.22045e-16
2.22045e-16
2.22045e-16
2.22045e-16
2.22045e-16
2.22045e-16
2.22045e-16
2.22045e-16
2.22045e-16
2.22045e-16
143.945
2.88699e-12
5.63884e-09
2.22045e-16
2.22045e-16
2.22045e-16
2.65953e-11
2.22045e-16
5.88403e-11
2.22045e-16
2.22045e-16
2.22045e-16
2.22045e-16
2.22045e-16
2.22045e-16
2.22045e-16
2.22045e-16
2.22045e-16
2.22045e-16
2.22045e-16
2.22045e-16
2.22045e-16
2.22045e-16
2.22045e-16
2.22045e-16
2.22045e-16
2.22045e-16
2.22045e-16
2.22045e-16
2.22045e-16
2.22045e-16
2.22045e-16
2.22045e-16
2.22045e-16
2.22045e-16
2.22045e-16
2.22045e-16
2.22045e-16
2.22045e-16
2.22045e-16
2.22045e-16
2.22045e-16
2.22045e-16
2.22045e-16
8.3323e-06
2.22045e-16
2.22045e-16
2.22045e-16
2.22045e-16
2.22045e-16
2.22045e-16
6.87364e-15
2.22045e-16
2.22045e-16
2.22045e-16
2.22045e-16
2.22045e-16
2.22045e-16
2.22045e-16
2.22045e-16
2.22045e-16
2.22045e-16
2.22045e-16
2.22045e-16
2.22045e-16
2.22045e-16
2.22045e-16
2.22045e-16
2.22045e-16
2.22045e-16
2.22045e-16
2.22045e-16
2.22045e-16
2.22045e-16
2.22045e-16
2.22045e-16
2.22045e-16
2.22045e-16
2.22045e-16
2.22045e-16
2.22045e-16
2.22045e-16
2.22045e-16
2.22045e-16
2.22045e-16
2.22045e-16
2.22045e-16
2.22045e-16
2.22045e-16
2.22045e-16
2.22045e-16
2.22045e-16
2.22045e-16
2.22045e-16
6.01969e-15
2.22045e-16
2.22045e-16
2.22045e-16
2.22045e-16
2.22045e-16
2.22045e-16
2.22045e-16
2.22045e-16
2.22045e-16
2.22045e-16
2.22045e-16
2.22045e-16
2.22045e-16
2.22045e-16
2.22045e-16
2.22045e-16
2.22045e-16
2.22045e-16
2.22045e-16
2.22045e-16
2.22045e-16
2.22045e-16
2.22045e-16
2.22045e-16
2.22045e-16
2.22045e-16
2.22045e-16
2.22045e-16
2.22045e-16
2.22045e-16
2.22045e-16
2.22045e-16
2.22045e-16
2.22045e-16
2.22045e-16
147.945
1.15922e-11
2.22045e-16
2.22045e-16
2.22045e-16
0.00217398
2.04862e-11
2.22045e-16
2.22045e-16
2.22045e-16
2.22045e-16
2.36402e-13
2.22045e-16
2.22045e-16
2.22045e-16
2.22045e-16
2.22045e-16
2.22045e-16
2.22045e-16
2.22045e-16
2.22045e-16
2.22045e-16
2.22045e-16
2.22045e-16
2.22045e-16
2.22045e-16
2.22045e-16
2.22045e-16
2.22045e-16
2.22045e-16
2.22045e-16
2.22045e-16
2.22045e-16
2.22045e-16
2.22045e-16
2.22045e-16
2.22045e-16
2.22045e-16
2.22045e-16
2.22045e-16
2.22045e-16
2.22045e-16
2.22045e-16
2.22045e-16
2.22045e-16
2.22045e-16
2.22045e-16
112.426
3.63734e-13
2.22045e-16
2.22045e-16
2.22045e-16
2.22045e-16
4.73045e-11
2.22045e-16
2.22045e-16
2.22045e-16
2.22045e-16
2.22045e-16
2.22045e-16
2.22045e-16
2.22045e-16
2.22045e-16
2.22045e-16
2.22045e-16
2.22045e-16
2.22045e-16
2.22045e-16
2.22045e-16
2.22045e-16
2.22045e-16
2.22045e-16
2.22045e-16
2.22045e-16
2.22045e-16
2.22045e-16
2.22045e-16
2.22045e-16
2.22045e-16
2.22045e-16
2.22045e-16
2.22045e-16
2.22045e-16
2.22045e-16
2.22045e-16
2.22045e-16
2.22045e-16
2.22045e-16
2.22045e-16
2.22045e-16
2.22045e-16
2.22045e-16
2.22045e-16
2.22045e-16
2.22045e-16
1.66096e-11
2.22045e-16
2.22045e-16
2.22045e-16
2.22045e-16
2.22045e-16
2.22045e-16
2.22045e-16
2.22045e-16
2.22045e-16
2.22045e-16
2.22045e-16
2.22045e-16
2.22045e-16
2.22045e-16
2.22045e-16
2.22045e-16
2.22045e-16
2.22045e-16
2.22045e-16
2.22045e-16
2.22045e-16
2.22045e-16
2.22045e-16
2.22045e-16
2.22045e-16
2.22045e-16
2.22045e-16
2.22045e-16
2.22045e-16
2.22045e-16
2.22045e-16
2.22045e-16
2.22045e-16
2.22045e-16
2.22045e-16
2.22045e-16
2.22045e-16
2.22045e-16
2.22045e-16
2.22045e-16
2.22045e-16
2.22045e-16
2.22045e-16
2.22045e-16
2.22045e-16
2.22045e-16
2.22045e-16
2.22045e-16
2.22045e-16
2.22045e-16
2.22045e-16
2.22045e-16
2.22045e-16
2.22045e-16
2.22045e-16
2.22045e-16
2.22045e-16
2.22045e-16
2.22045e-16
2.22045e-16
2.22045e-16
2.22045e-16
2.22045e-16
2.22045e-16
2.22045e-16
2.22045e-16
2.22045e-16
2.22045e-16
2.22045e-16
2.22045e-16
2.22045e-16
2.22045e-16
2.22045e-16
2.22045e-16
2.22045e-16
2.22045e-16
2.22045e-16
2.22045e-16
2.22045e-16
2.22045e-16
2.22045e-16
2.22045e-16
2.22045e-16
2.22045e-16
2.22045e-16
2.22045e-16
2.22045e-16
2.22045e-16
2.22045e-16
2.22045e-16
2.22045e-16
2.22045e-16
2.22045e-16
2.22045e-16
2.22045e-16
2.22045e-16
2.22045e-16
2.22045e-16
2.22045e-16
2.22045e-16
2.22045e-16
2.22045e-16
2.22045e-16
2.22045e-16
2.22045e-16
2.22045e-16
2.22045e-16
2.22045e-16
2.22045e-16
2.22045e-16
2.22045e-16
2.22045e-16
2.22045e-16
2.22045e-16
2.22045e-16
2.22045e-16
2.22045e-16
2.22045e-16
2.22045e-16
2.22045e-16
2.22045e-16
2.22045e-16
2.22045e-16
2.22045e-16
2.22045e-16
2.22045e-16
2.22045e-16
2.22045e-16
2.22045e-16
2.22045e-16
2.22045e-16
2.22045e-16
2.22045e-16
2.22045e-16
2.22045e-16
2.22045e-16
2.22045e-16
2.22045e-16
2.22045e-16
2.22045e-16
2.22045e-16
2.22045e-16
2.22045e-16
2.22045e-16
2.22045e-16
2.22045e-16
2.22045e-16
2.22045e-16
2.22045e-16
2.22045e-16
2.22045e-16
2.22045e-16
2.22045e-16
2.22045e-16
2.22045e-16
2.22045e-16
2.22045e-16
2.22045e-16
2.22045e-16
2.22045e-16
2.22045e-16
2.22045e-16
2.22045e-16
2.22045e-16
2.22045e-16
2.22045e-16
2.22045e-16
2.22045e-16
2.22045e-16
2.22045e-16
2.22045e-16
2.22045e-16
2.22045e-16
2.22045e-16
2.22045e-16
2.22045e-16
2.22045e-16
2.22045e-16
2.22045e-16
2.22045e-16
2.22045e-16
2.22045e-16
2.22045e-16
2.22045e-16
2.22045e-16
2.22045e-16
2.22045e-16
2.22045e-16
2.22045e-16
2.22045e-16
2.22045e-16
7.04713e-10
2.22045e-16
2.6686e-11
2.22045e-16
2.22045e-16
2.22045e-16
2.22045e-16
2.22045e-16
2.22045e-16
2.22045e-16
2.22045e-16
2.22045e-16
81.8573
6.14822e-11
0.00389902
82.8904
2.17555e-13
0.000111478
4.846
0.000109766
8.78765e-09
129.112
1.01668
5.72262e-05
2.4592e-08
1.13645e-11
2.23785e-06
9.55477e-13
7.39405e-07
6.37329e-13
9.29568e-08
2.8734e-14
2.22045e-16
2.22045e-16
2.22045e-16
2.22045e-16
2.22045e-16
2.22045e-16
2.22045e-16
2.22045e-16
2.22045e-16
2.22045e-16
2.22045e-16
2.22045e-16
2.22045e-16
2.22045e-16
2.25288e-07
2.22045e-16
1.17685e-14
1.40077e-12
2.80438e-08
2.22045e-16
7.2972e-16
1.91748e-13
2.22045e-16
2.22045e-16
2.22045e-16
2.22045e-16
2.22045e-16
2.22045e-16
2.22045e-16
2.22045e-16
2.22045e-16
2.22045e-16
105.55
6.30302e-16
1.97056e-06
167.165
2.22045e-16
5.11675e-15
5.42775e-05
2.3469e-05
2.55684e-10
0.00476232
4.87028e-08
2.86517e-09
8.99974e-15
3.63844e-15
1.38671e-10
2.22045e-16
2.22045e-16
4.24798e-13
2.22045e-16
2.22045e-16
2.22045e-16
2.22045e-16
2.22045e-16
2.22045e-16
2.22045e-16
2.22045e-16
2.22045e-16
2.22045e-16
2.22045e-16
2.22045e-16
2.22045e-16
2.22045e-16
2.22045e-16
2.76079e-11
2.22045e-16
2.22045e-16
2.22045e-16
2.22045e-16
2.22045e-16
2.22045e-16
2.22045e-16
2.22045e-16
2.22045e-16
2.22045e-16
2.22045e-16
2.22045e-16
2.22045e-16
2.22045e-16
2.22045e-16
2.22045e-16
0.632013
2.22045e-16
2.22045e-16
1.73604e-08
2.22045e-16
2.22045e-16
9.20932e-12
6.15679e-12
2.22045e-16
1.26475e-10
2.22045e-16
2.22045e-16
2.22045e-16
2.22045e-16
2.22045e-16
2.22045e-16
2.22045e-16
2.22045e-16
2.22045e-16
2.22045e-16
2.22045e-16
2.22045e-16
2.22045e-16
2.22045e-16
2.22045e-16
2.22045e-16
2.22045e-16
2.22045e-16
2.22045e-16
2.22045e-16
2.22045e-16
2.22045e-16
2.22045e-16
2.22045e-16
2.22045e-16
2.22045e-16
2.22045e-16
2.22045e-16
2.22045e-16
2.22045e-16
2.22045e-16
2.60575e-06
2.22045e-16
2.22045e-16
4.34098e-11
2.22045e-16
2.22045e-16
2.22045e-16
2.22045e-16
2.22045e-16
2.22045e-16
2.22045e-16
2.22045e-16
2.22045e-16
2.22045e-16
2.22045e-16
2.22045e-16
2.22045e-16
2.22045e-16
2.22045e-16
2.22045e-16
2.22045e-16
2.22045e-16
2.38599e-14
7.61741e-14
2.22045e-16
2.87972e-07
2.53579e-07
7.76221e-14
2.22045e-16
2.22045e-16
2.22045e-16
1.86948e-14
2.22045e-16
2.22045e-16
2.22045e-16
2.22045e-16
2.22045e-16
2.22045e-16
2.22045e-16
2.22045e-16
2.22045e-16
2.22045e-16
2.22045e-16
2.22045e-16
2.22045e-16
2.22045e-16
2.22045e-16
2.22045e-16
2.22045e-16
0.0939547
1.78997e-06
2.22045e-16
0.138761
5.06981e-06
5.56626e-07
1.18648e-12
2.22045e-16
2.22045e-16
2.22045e-16
1.46373e-12
2.22045e-16
2.22045e-16
2.22045e-16
2.22045e-16
2.22045e-16
2.22045e-16
2.22045e-16
2.22045e-16
2.22045e-16
2.22045e-16
160.064
7.56862e-09
2.86308e-14
2.83571e-07
2.22045e-16
249.551
7.39126e-06
2.22045e-16
2.22045e-16
68.2948
5.62574e-08
2.22045e-16
2.22045e-16
2.22045e-16
2.22045e-16
13.6484
8.79438e-11
2.22045e-16
2.22045e-16
2.22045e-16
2.22045e-16
1.73457e-14
2.22045e-16
2.22045e-16
2.22045e-16
2.22045e-16
2.22045e-16
2.22045e-16
2.22045e-16
2.22045e-16
2.22045e-16
2.22045e-16
2.22045e-16
2.22045e-16
2.22045e-16
2.22045e-16
2.22045e-16
2.22045e-16
2.22045e-16
51.892
53.8228
144.519
87.6914
151.858
142.229
128.848
148.286
73.3706
131.697
168.67
138.03
163.967
1.29774
209.933
0.100221
185.739
366.353
0.0068338
0.00238258
15.2546
3.52155e-05
200.95
2.63697e-07
0.0109619
1.23694e-10
3.82118
9.79419e-15
1.62967e-12
2.22045e-16
1.27748e-13
9.81773e-11
2.22045e-16
7.91243e-14
2.22045e-16
2.22045e-16
2.22045e-16
80.1582
84.602
143.606
58.5854
145.158
190.113
150.444
7.62302e-05
0.118978
1.15236e-05
2.22045e-16
6.09966
2.10465e-08
4.46068e-06
4.28005e-13
2.22045e-16
2.22045e-16
2.22045e-16
5.02792e-16
2.22045e-16
2.22045e-16
2.22045e-16
130.746
105.421
0.216782
0.0151881
32.7155
143.675
136.305
0.0295654
50.5654
0.862046
13.39
2.22045e-16
7.90211e-08
4.88027e-14
2.22045e-16
7.21084e-15
2.22045e-16
2.22045e-16
2.22045e-16
2.22045e-16
2.22045e-16
2.22045e-16
2.22045e-16
2.22045e-16
2.22045e-16
2.22045e-16
1.41519e-15
6.95091e-11
5.29786e-10
1.05194e-15
4.29298e-11
2.22045e-16
2.22045e-16
2.22045e-16
2.22045e-16
2.22045e-16
2.22045e-16
2.22045e-16
2.22045e-16
2.22045e-16
7.40666e-11
2.22045e-16
1.05337e-12
2.22045e-16
6.7882e-12
2.22045e-16
2.22045e-16
2.22045e-16
2.22045e-16
2.22045e-16
2.22045e-16
2.22045e-16
2.22045e-16
2.22045e-16
2.22045e-16
2.22045e-16
2.22045e-16
2.22045e-16
2.22045e-16
2.22045e-16
2.22045e-16
2.22045e-16
2.22045e-16
2.22045e-16
2.22045e-16
2.22045e-16
2.22045e-16
2.22045e-16
2.22045e-16
2.22045e-16
2.22045e-16
2.22045e-16
2.22045e-16
2.22045e-16
2.22045e-16
2.22045e-16
2.22045e-16
2.22045e-16
2.22045e-16
2.22045e-16
2.22045e-16
2.22045e-16
2.22045e-16
2.22045e-16
2.22045e-16
2.22045e-16
2.22045e-16
2.22045e-16
2.22045e-16
2.57336e-12
2.22045e-16
2.22045e-16
1.47644e-12
2.22045e-16
2.22045e-16
2.22045e-16
2.22045e-16
2.22045e-16
2.22045e-16
2.22045e-16
2.22045e-16
2.22045e-16
2.22045e-16
2.22045e-16
9.04149e-15
2.22045e-16
2.66681e-13
2.22045e-16
2.22045e-16
81.3962
103.01
102.069
110.507
124.618
123.014
111.747
0.13111
5.58122e-06
3.43239e-05
3.52322e-11
3.73194e-06
2.2957e-05
0.170275
102.824
90.417
108.687
110.69
126.077
121.902
116.04
0.0594771
6.38093e-12
9.40289e-08
5.79633e-07
1.08655e-06
6.68929e-06
0.0124179
2.22045e-16
2.22045e-16
1.74221e-14
2.22045e-16
5.59419e-15
2.22045e-16
2.22045e-16
2.22045e-16
2.22045e-16
2.22045e-16
2.22045e-16
2.22045e-16
2.22045e-16
2.22045e-16
2.22045e-16
2.22045e-16
2.22045e-16
2.22045e-16
2.22045e-16
2.22045e-16
2.22045e-16
2.22045e-16
2.22045e-16
2.22045e-16
2.22045e-16
2.22045e-16
2.22045e-16
2.22045e-16
2.22045e-16
2.22045e-16
2.22045e-16
2.22045e-16
2.22045e-16
2.22045e-16
2.22045e-16
2.22045e-16
2.22045e-16
2.22045e-16
2.22045e-16
2.22045e-16
2.22045e-16
2.22045e-16
2.22045e-16
2.22045e-16
2.22045e-16
2.22045e-16
2.22045e-16
2.22045e-16
2.22045e-16
2.22045e-16
2.22045e-16
2.22045e-16
2.22045e-16
2.22045e-16
2.22045e-16
2.22045e-16
2.22045e-16
2.22045e-16
2.22045e-16
2.22045e-16
2.22045e-16
2.22045e-16
2.22045e-16
2.22045e-16
2.22045e-16
2.22045e-16
2.22045e-16
2.22045e-16
2.22045e-16
2.22045e-16
2.22045e-16
2.22045e-16
2.22045e-16
2.22045e-16
2.22045e-16
122.293
131.138
145.336
51.6107
58.7471
127.786
14.1568
6.50186e-06
1.19152e-09
7.35348e-09
2.22045e-16
0.000696812
2.88491e-12
1.78317e-11
177.465
26.4696
132.319
11.1605
0.0109646
1.3208
0.404673
3.72239e-08
2.22045e-16
2.22045e-16
2.22045e-16
2.43767e-15
1.50709e-14
1.14946e-11
2.22045e-16
2.22045e-16
2.22045e-16
2.22045e-16
2.22045e-16
2.22045e-16
2.22045e-16
2.22045e-16
2.22045e-16
2.22045e-16
2.22045e-16
2.22045e-16
2.22045e-16
2.22045e-16
2.22045e-16
2.22045e-16
2.22045e-16
2.22045e-16
2.22045e-16
2.22045e-16
2.22045e-16
2.22045e-16
2.22045e-16
2.22045e-16
2.22045e-16
2.22045e-16
2.22045e-16
2.22045e-16
2.22045e-16
2.22045e-16
2.22045e-16
2.22045e-16
2.22045e-16
2.22045e-16
2.22045e-16
2.22045e-16
2.22045e-16
2.22045e-16
2.22045e-16
2.22045e-16
2.22045e-16
2.22045e-16
2.22045e-16
2.22045e-16
2.22045e-16
2.22045e-16
2.22045e-16
2.22045e-16
2.22045e-16
2.22045e-16
2.22045e-16
2.22045e-16
2.22045e-16
2.22045e-16
2.22045e-16
2.22045e-16
2.22045e-16
2.22045e-16
2.22045e-16
2.22045e-16
2.22045e-16
2.22045e-16
2.22045e-16
2.22045e-16
2.22045e-16
2.22045e-16
2.22045e-16
2.22045e-16
2.22045e-16
2.22045e-16
0.000812577
16.3836
0.112201
1.00993e-06
1.19962e-05
0.00325923
8.33309e-10
2.22045e-16
2.22045e-16
2.22045e-16
2.22045e-16
6.9866e-16
2.22045e-16
2.22045e-16
5.00543e-15
5.11583e-05
3.15485e-10
1.09828e-11
2.22045e-16
5.38691e-16
2.22045e-16
2.22045e-16
2.22045e-16
2.22045e-16
2.22045e-16
2.22045e-16
2.22045e-16
2.22045e-16
1.71639e-09
2.22045e-16
2.22045e-16
2.22045e-16
2.22045e-16
5.38441e-14
1.88789e-14
0.000716343
4.51921e-12
0.0294706
0.00577432
3.3159e-07
6.67455e-08
4.31932
2.22045e-16
2.22045e-16
2.22045e-16
2.22045e-16
2.22045e-16
2.22045e-16
2.22045e-16
2.22045e-16
2.22045e-16
2.22045e-16
2.22045e-16
2.22045e-16
2.22045e-16
2.22045e-16
2.22045e-16
2.22045e-16
8.84076e-06
2.22045e-16
5.44193e-12
2.22045e-16
1.68407e-10
2.22045e-16
2.22045e-16
2.22045e-16
2.22045e-16
2.22045e-16
2.22045e-16
2.22045e-16
2.22045e-16
2.22045e-16
2.22045e-16
2.22045e-16
2.22045e-16
2.22045e-16
2.22045e-16
2.22045e-16
2.22045e-16
2.22045e-16
2.22045e-16
2.22045e-16
2.22045e-16
2.22045e-16
2.22045e-16
2.22045e-16
2.22045e-16
2.22045e-16
2.22045e-16
2.22045e-16
2.22045e-16
2.22045e-16
2.22045e-16
2.22045e-16
2.22045e-16
2.22045e-16
2.22045e-16
2.22045e-16
2.22045e-16
2.22045e-16
2.22045e-16
2.22045e-16
2.22045e-16
2.22045e-16
2.22045e-16
2.22045e-16
2.22045e-16
2.22045e-16
2.22045e-16
2.22045e-16
2.22045e-16
2.22045e-16
2.22045e-16
2.22045e-16
2.22045e-16
2.22045e-16
2.22045e-16
2.22045e-16
2.22045e-16
2.22045e-16
2.22045e-16
2.22045e-16
2.22045e-16
2.22045e-16
2.22045e-16
2.22045e-16
7.09662e-06
4.86181
0.00351224
2.4534e-06
1.23643e-08
0.000565221
6.68971e-12
2.22045e-16
2.22045e-16
2.22045e-16
2.22045e-16
2.22045e-16
2.22045e-16
2.22045e-16
156.116
67.1728
123.406
152.189
102.283
0.258362
291.396
235.304
228.22
57.7727
17.679
80.3685
2.22045e-16
1.11561e-11
3.27516e-12
2.78279e-12
2.22045e-16
6.71373e-13
2.22045e-16
51.9327
74.9828
74.7579
30.34
48.2838
48.6257
30.0318
76.7649
60.5161
83.7441
32.0672
58.1437
51.219
36.8392
97.6309
95.2493
120.98
62.1976
71.1437
46.0814
92.5902
155.891
200.463
185.788
90.153
173.939
126.429
138.532
8.63498
249.116
109.294
289.662
232.876
212.528
295.85
335.779
340.066
370.751
37.1471
331.672
337.984
370.6
7.73633e-08
2.34018
0.000590276
344.857
0.0169754
28.7373
9.33318
2.22045e-16
2.22045e-16
1.57464e-09
2.45235e-09
1.02653e-07
0.00157734
7.00102e-15
2.22045e-16
2.22045e-16
2.22045e-16
2.22045e-16
2.22045e-16
2.22045e-16
2.22045e-16
115.834
59.5927
95.7795
47.2505
58.7589
30.9814
84.6797
183.107
208.823
204.605
180.988
185.727
197.733
161.155
133.318
159.753
161.749
104.619
153.037
130.992
0.184863
178.735
13.5739
176.814
197.758
181.103
78.8575
1.4399e-05
53.5988
7.69696e-06
1.07741e-06
0.15928
0.0197833
1.74739e-11
1.91518e-11
0.0132337
3.76941e-07
1.29361e-05
28.4062
0.0422573
0.239487
2.22045e-16
3.69654e-13
2.22045e-16
1.53986e-11
2.23539e-12
2.10418e-06
2.22045e-16
2.22045e-16
2.22045e-16
2.22045e-16
2.22045e-16
2.22045e-16
2.22045e-16
2.22045e-16
0.0015081
395.536
0.0145084
0.000171519
13.711
4.06471
4.46972e-08
1.13748e-09
8.90961e-11
4.34997e-11
2.22045e-16
0.000121381
1.64857e-15
2.22045e-16
129.095
90.5763
119.9
130.788
109.889
136.308
117.292
1.31217e-13
1.93485e-07
78.4394
2.22045e-16
6.36258e-11
2.22045e-16
2.22045e-16
7.67098e-15
2.28161e-12
35.3836
0.0412288
28.8176
48.6059
53.5029
99.7001
0.79955
5.51972e-14
2.22045e-16
2.22045e-16
6.61889e-16
2.22045e-16
2.22045e-16
2.22045e-16
2.22045e-16
2.22045e-16
2.22045e-16
2.22045e-16
2.22045e-16
2.22045e-16
2.22045e-16
2.22045e-16
2.22045e-16
2.22045e-16
2.22045e-16
1.15152e-15
2.22045e-16
2.22045e-16
2.22045e-16
2.22045e-16
4.83526e-06
1.42328e-08
1.06167e-13
2.8227e-06
2.25602e-12
0.00276674
7.92967e-10
0.169012
0.0767877
88.6179
1.36098
7.63046
0.00021919
60.5203
48.567
34.3419
20.2673
27.0036
10.8218
17.4914
16.5417
76.7081
65.3818
41.1904
78.5594
62.8482
86.9288
97.516
2.22045e-16
2.22045e-16
2.22045e-16
2.22045e-16
2.22045e-16
2.22045e-16
2.22045e-16
0.00867881
3.7769e-08
7.32477e-07
5.20425e-05
2.18919e-11
1.18009e-07
4.3964e-14
2.22045e-16
2.22045e-16
2.22045e-16
1.47192e-13
2.22045e-16
2.22045e-16
2.22045e-16
2.22045e-16
2.22045e-16
2.22045e-16
2.22045e-16
2.22045e-16
2.22045e-16
2.22045e-16
2.22045e-16
2.22045e-16
2.22045e-16
2.22045e-16
2.22045e-16
2.22045e-16
2.22045e-16
0.00114195
2.29154e-08
0.000297367
1.02596e-07
24.1552
2.95619e-07
1.09495e-13
2.40953e-06
2.22045e-16
1.19767e-12
6.1783e-13
2.22045e-16
2.22045e-16
2.22045e-16
2.22045e-16
2.22045e-16
2.22045e-16
2.22045e-16
2.22045e-16
2.22045e-16
2.22045e-16
2.22045e-16
2.22045e-16
2.22045e-16
2.22045e-16
2.22045e-16
2.22045e-16
2.22045e-16
24.1508
10.8097
0.0281268
0.00284604
9.20861
0.0216454
27.5156
16.5382
0.00103168
1.79463
0.00204424
5.54805
0.00980672
7.89896
0.0716683
0.103418
0.000114491
2.13523e-08
1.9198
0.00495172
1.06899e-06
0.0025667
1.99851e-11
5.13213e-08
1.88712e-12
4.52401e-05
6.10031e-09
7.85693e-06
8.97043e-14
3.21565e-12
2.22045e-16
2.22045e-16
6.18082e-09
2.22045e-16
2.22045e-16
2.22045e-16
2.22045e-16
2.22045e-16
2.22045e-16
2.22045e-16
2.22045e-16
2.22045e-16
2.22045e-16
2.22045e-16
2.22045e-16
2.22045e-16
2.22045e-16
2.22045e-16
2.22045e-16
2.22045e-16
2.22045e-16
2.22045e-16
2.22045e-16
2.22045e-16
2.22045e-16
2.22045e-16
4.38792e-07
0.0784162
3.53656e-11
3.4609e-08
3.8981e-05
0.00527587
1.20393e-12
1.23765e-12
7.12975e-16
2.22045e-16
2.22045e-16
1.02135e-09
2.22045e-16
2.22045e-16
2.22045e-16
2.22045e-16
2.22045e-16
2.22045e-16
2.22045e-16
2.22045e-16
2.22045e-16
2.22045e-16
2.22045e-16
2.22045e-16
2.22045e-16
2.22045e-16
2.22045e-16
2.22045e-16
2.22045e-16
2.22045e-16
2.22045e-16
2.22045e-16
2.22045e-16
2.22045e-16
2.22045e-16
2.22045e-16
2.22045e-16
2.22045e-16
2.22045e-16
2.22045e-16
2.22045e-16
2.22045e-16
2.22045e-16
2.22045e-16
2.22045e-16
2.22045e-16
2.22045e-16
2.22045e-16
2.22045e-16
2.22045e-16
2.22045e-16
2.22045e-16
2.22045e-16
2.22045e-16
2.22045e-16
2.22045e-16
111.089
0.283241
5.57983e-06
133.271
131.114
108.798
130.23
28.2477
1.2056e-13
1.26924e-06
150.788
0.000166519
4.54349e-06
1.93922e-09
4.96984e-13
2.22045e-16
2.22045e-16
2.84587e-09
1.16771e-14
1.22675e-14
1.64179e-14
2.22045e-16
2.22045e-16
2.22045e-16
2.22045e-16
2.22045e-16
2.22045e-16
2.22045e-16
2.22045e-16
2.22045e-16
2.22045e-16
2.22045e-16
2.22045e-16
2.22045e-16
2.22045e-16
2.22045e-16
2.22045e-16
2.22045e-16
2.22045e-16
2.22045e-16
2.22045e-16
2.22045e-16
69.134
1.84645
121.533
0.0061058
13.6138
0.000420639
3.26224
16.3227
107.68
31.6736
101.24
93.8437
90.9392
83.0985
2.05861e-15
2.22045e-16
2.22045e-16
4.2444e-10
3.36384e-15
2.22045e-16
2.22045e-16
2.22045e-16
2.22045e-16
2.22045e-16
2.22045e-16
2.22045e-16
2.22045e-16
2.22045e-16
2.22045e-16
2.22045e-16
2.22045e-16
2.22045e-16
2.22045e-16
2.22045e-16
2.22045e-16
2.22045e-16
2.22045e-16
2.22045e-16
2.22045e-16
2.22045e-16
2.22045e-16
2.22045e-16
2.22045e-16
2.22045e-16
2.22045e-16
2.22045e-16
2.22045e-16
2.22045e-16
2.22045e-16
1.18918e-12
2.22045e-16
2.70189e-16
2.22045e-16
2.22045e-16
2.22045e-16
2.22045e-16
2.22045e-16
2.22045e-16
2.22045e-16
1.05051e-06
1.21657e-09
1.70449e-12
1.99513e-15
6.6339e-14
3.18091e-13
2.22045e-16
2.22045e-16
2.22045e-16
2.22045e-16
2.22045e-16
2.22045e-16
2.22045e-16
2.22045e-16
2.22045e-16
2.22045e-16
2.22045e-16
2.22045e-16
2.22045e-16
2.22045e-16
2.22045e-16
2.22045e-16
2.22045e-16
2.22045e-16
2.22045e-16
2.22045e-16
2.22045e-16
2.22045e-16
3.77269
4.77421
7.79007
37.465
8.07353
23.0043
138.258
13.2497
60.2742
40.5951
5.27238
65.7242
0.394768
11.5295
44.5448
5.89755e-09
17.4579
120.616
12.5971
49.1003
17.8264
26.5822
2.2537e-08
65.154
121.71
2.96993e-13
53.7485
304.003
48.0025
45.6592
8.50071
41.9889
7.95004e-06
6.7672e-14
46.9603
80.4972
3.18516e-08
2.22045e-16
72.884
382.665
0.165077
0.000396167
2.44014e-10
2.22045e-16
21.3065
82.3766
0.00614796
8.11794e-16
2.22045e-16
55.1014
0.010674
2.04422e-08
6.37307e-15
2.22045e-16
85.0135
0.607929
8.38868e-14
2.22045e-16
2.22045e-16
1.01182e-08
7.64828e-15
2.22045e-16
2.22045e-16
4.35324e-07
4.29532e-14
2.22045e-16
2.22045e-16
2.22045e-16
5.21225e-15
2.22045e-16
2.22045e-16
2.22045e-16
2.22045e-16
10.1199
11.8201
15.8035
12.3176
32.5119
8.51969
21.3729
14.3248
39.8806
10.8043
12.5665
31.1473
15.2256
37.3919
112.566
13.5988
28.2494
14.4067
28.1532
45.6109
36.9135
138.853
204.739
43.587
41.3247
51.5924
84.4917
51.8107
184.702
132.471
58.4891
256.4
119.543
2.77835
298.463
366.959
39.3379
50.7673
163.624
219.76
270.642
30.0191
47.8401
11.9696
27.411
34.1516
153.351
79.5638
74.4723
312.669
65.5315
73.0424
207.313
60.0237
0.00194772
377.923
0.640886
3.37729
7.89073e-06
0.107507
3.21309e-06
48.6448
39.0118
174.652
294.464
253.367
137.773
0.613693
31.9781
98.3753
214.828
17.1513
13.4767
17.398
29.0703
16.5981
49.5623
36.8644
109.125
38.3509
156.25
23.322
21.1664
28.7008
80.063
84.3956
136.03
110.833
109.87
182.055
389.38
394.388
400.558
62.9139
50.0899
162.305
64.4736
86.8424
87.591
126.424
13.0461
187.063
21.908
65.8855
0.00348388
4.60202
3.18792e-06
1.62594e-08
3.52718e-07
2.53367e-13
1.80757e-07
2.39171e-13
5.71743e-12
2.22045e-16
96.9516
92.2604
8.86965
10.3278
9.06205
10.8038
10.4407
9.50149
13.4455
10.5071
15.5884
12.5375
10.7284
15.8598
13.164
14.2843
13.0908
12.4853
18.5653
11.2707
16.6724
16.2464
11.0218
11.5068
14.0077
20.0049
18.1767
21.7805
33.1219
26.0046
39.6549
23.4181
34.453
24.8366
12.14
16.4551
14.9818
20.9413
28.2243
19.7102
17.2571
21.5417
41.4897
30.8256
49.8338
60.3482
30.8903
38.8884
67.778
27.1186
52.4295
37.4773
50.6552
45.0625
31.4322
64.8995
31.945
76.4963
46.6844
53.3271
37.0121
49.8016
77.1171
35.3596
51.455
80.5957
82.7369
106.655
221.628
116.421
130.272
73.2402
132.448
199.295
68.6736
89.9297
95.3928
111.569
120.111
156.441
322.673
168.892
336.738
367.298
213.147
277.159
357.365
31.0028
59.3076
44.1147
36.5904
72.8868
49.1105
94.4801
105.597
67.2366
259.989
132.466
215.943
294.146
162.924
231.101
285.962
146.625
362.927
247.923
34.6523
41.889
31.2156
67.7169
27.1038
55.963
42.2073
29.9967
27.0353
55.6439
37.5323
40.8951
46.5166
101.798
98.5064
93.7754
76.9813
60.8257
65.1686
169.542
69.19
117.512
111.044
118.395
96.5812
188.532
256.595
318.936
193.217
365.384
207.607
309.891
304.754
172.997
172.418
117.309
257.882
125.576
265.047
133.942
224.571
359.54
10.6711
307.734
259.002
325.171
149.857
38.7828
349.911
379.403
378.203
349.695
328.328
206.385
0.0130051
128.52
0.00586957
3.91613e-06
22.8939
0.329089
2.24327e-06
32.6138
70.1993
45.4177
63.7449
42.0247
108.134
105.515
67.1319
177.97
381.624
302.883
179.95
304.669
287.114
382.139
348.761
354.635
274.659
4.19874e-05
2.25198
31.9993
19.7329
35.89
51.0778
20.5244
29.4256
56.4847
163.021
20.5565
22.0971
32.0507
31.4528
22.3743
32.4385
20.2774
60.6195
87.6551
79.6007
149.546
53.0478
98.7158
96.3085
5.47208
6.60001
11.1438
5.01178
6.08412
6.96086
14.0166
47.2529
92.1031
128.555
32.3982
52.2788
98.3411
128.311
59.6882
133.718
156.561
106.058
0.0105647
193.205
0.713796
11.1099
13.2414
5.54523
10.6849
11.4091
18.6813
81.8982
29.0032
108.112
39.0526
57.9722
81.3107
19.7362
4.33573e-05
302.758
0.000984843
0.000518717
5.47489e-09
116.726
4.83963e-08
29.6498
14.1364
60.6547
34.4322
51.644
48.8719
67.1771
3.32296
64.6979
0.0927651
50.8222
0.0253945
28.9211
0.0095469
3.33105e-14
8.17301e-07
2.27221e-13
9.07874e-12
1.01263e-14
3.22596e-13
2.22045e-16
14.7868
22.1334
20.4773
20.109
18.9004
28.2326
27.236
26.9913
40.8394
56.5272
26.3738
38.4979
64.7512
40.2094
9.80942
10.2031
18.5192
11.8033
47.9142
12.352
86.4556
2.22045e-16
2.22045e-16
2.22045e-16
2.22045e-16
2.22045e-16
2.22045e-16
2.22045e-16
55.8595
55.2979
1.01792e-05
3.1845e-13
2.22045e-16
1.51588
1.80306
3.00876
4.40942
5.8981
1.75051
5.69816
2.87148
4.61384
3.82222
6.66746
8.50577
3.23679
4.666
4.67656
7.54521
24.47
22.3481
9.53917
3.79603
14.3168
63.1271
72.5772
56.7476
0.00393444
49.8763
4.55936e-11
2.35565e-15
2.22045e-16
2.22045e-16
2.22045e-16
8.73764e-09
2.22045e-16
2.22045e-16
2.22045e-16
2.22045e-16
2.22045e-16
3.45615e-15
2.22045e-16
2.22045e-16
2.22045e-16
2.22045e-16
2.22045e-16
2.22045e-16
2.22045e-16
2.22045e-16
2.22045e-16
2.22045e-16
2.22045e-16
2.22045e-16
2.22045e-16
2.22045e-16
2.22045e-16
2.22045e-16
3.47097
4.73206
3.09861
3.62314
5.90521
7.03981
5.72504
5.60481
7.40316
7.02166
4.85495
6.02063
7.18238
5.8876
7.08291
5.84374
11.1208
14.5463
9.66986
8.32831
17.2591
26.49
16.8991
7.20785
14.8974
17.4019
18.2456
18.353
9.74778
22.0222
35.2016
21.7355
18.8282
35.4442
7.1813
6.04479
7.3469
5.16689
6.55482
10.0917
10.5599
12.398
12.6378
14.4442
26.1682
28.3445
34.5961
22.4118
29.4859
57.8171
3.8521
4.45271
3.92149
4.87506
4.59212
4.05292
3.72511
3.49418
4.17405
3.6423
4.01692
4.14571
5.2115
5.6093
4.9663
4.92339
4.35093
4.75357
6.53174
5.32891
6.93132
5.88145
5.48064
7.10559
6.36857
7.72663
8.38289
8.57498
7.55271
6.92179
6.25328
6.59787
8.35304
5.84599
7.51046
7.72507
8.13322
9.92382
9.01081
8.97722
4.0076
4.99103
4.13816
4.24625
3.71072
5.32944
5.05562
4.44094
8.78024
8.97459
6.41456
8.60376
7.74958
10.3779
9.41987
6.21703
5.08435
4.90255
6.45495
7.27462
6.75692
6.01193
8.85601
5.77361
8.44732
7.57231
7.91474
10.4123
8.28524
9.78027
9.25404
11.3365
13.5591
12.386
10.7233
9.7145
11.5724
11.1097
7.85682
9.78418
10.3248
9.06937
9.72021
11.9818
12.7401
11.4912
10.4293
13.9267
14.0844
13.1364
15.7636
19.5558
12.312
15.143
18.3663
16.3146
22.912
17.5643
21.9725
6.10963
9.00401
7.68845
10.563
8.41717
11.5529
12.6083
9.87523
12.0315
14.573
13.4911
20.1666
15.6961
23.4399
18.2509
13.003
12.5003
11.5104
14.2857
16.2698
16.8299
15.2766
22.5822
13.9606
20.485
18.078
14.4934
18.059
15.9593
16.3901
18.7378
27.6112
31.9729
24.7216
25.0242
20.944
22.0907
35.1878
20.2495
25.7311
27.9983
24.7805
26.2469
35.2313
15.5578
23.0983
18.4193
18.5249
16.2054
27.9782
25.4114
21.3869
23.1463
21.3481
19.084
27.1595
2.61723
2.48816
2.89589
2.09213
3.43469
2.86909
3.32219
4.52493
3.93406
5.78316
3.87963
5.08427
5.09191
6.14803
4.10229
3.62063
5.39061
3.88223
4.98786
4.80168
10.0051
5.3552
6.06603
9.76499
4.84736
8.37308
10.9115
11.4375
4.54403
5.90932
12.5992
4.78947
4.35743
7.00513
12.6075
11.041
5.7563
9.43646
10.8305
5.49718
11.698
7.98085
16.03
3.28603
43.8123
27.1535
5.71052e-05
3.36907e-06
4.19282e-09
1.89878e-12
2.22045e-16
2.22045e-16
12.7522
6.11458
11.8435
11.2616
22.815
8.31131
4.18077
5.74041
5.79796
2.90965
3.79728
4.46496
17.8948
8.27991
12.6207
7.78902
7.22871
5.1247
10.9551
24.1456
20.5812
26.7635
12.7074
36.4586
12.8829
9.5887
8.60807
19.5571
13.3207
12.7777
18.5923
2.9314
2.77637
4.35526
10.1666
16.145
2.7344
3.50715
3.5654
4.28373
8.66154
8.76869
10.1021
13.5766
13.7618
11.2982
11.923
15.0973
21.8063
15.6031
12.1696
24.4247
3.32456
2.89312
3.44942
5.55982
11.2556
20.0413
10.7143
28.9393
35.6628
3.24067
2.63165
3.2646
2.84149
2.73514
3.38514
3.12468
3.0574
3.38835
2.94882
3.10826
4.13831
5.46716
5.26609
7.00978
8.18928
6.70441
7.1232
9.43902
11.2116
10.4223
12.2337
12.6241
11.3894
12.3014
9.97513
11.1236
9.35006
13.9059
8.81279
12.7314
10.7255
11.4959
16.775
18.7958
15.0473
15.0493
12.4757
13.7623
14.3199
18.6978
16.7076
9.48092
14.5649
11.0484
18.1749
16.3929
13.1298
1.97598
2.30631
2.25455
2.9491
2.33659
2.9962
3.24165
3.59388
4.9887
7.13862
3.65608
7.21752
6.37893
8.1245
7.98128
10.4646
8.14484
10.5208
1.97156
2.22703
1.95991
2.39745
2.31634
2.03344
1.89616
2.11855
2.57539
2.85736
2.4866
2.49412
2.18168
2.41376
1.98425
2.43829
2.06361
2.61434
2.5254
2.21138
3.6752
3.47559
3.00676
4.58881
2.91169
4.41583
3.81985
4.65241
5.86592
6.79557
5.83999
5.61327
4.85941
5.59165
3.0601
4.6765
3.89917
5.97036
5.90564
4.9548
6.736
7.70638
6.53512
8.82535
6.26834
8.36807
7.01282
7.20935
9.49851
9.89891
8.25187
9.01789
7.50469
7.88446
6.54438
8.80609
6.98709
9.48384
8.26751
7.47588
18.2189
6.70181
6.14288
9.16443
4.55054
6.87315
9.08286
1.39069
2.32686
1.58715
2.60942
3.39821
3.33063
3.6029
2.10982
2.56437
1.8607
3.79973
3.48425
3.30412
3.87085
1.43287
1.9418
2.04269
1.41056
1.48605
2.00824
1.98775
1.48964
1.96993
2.02435