/*--------------------------------*- C++ -*----------------------------------*\
  =========                 |
  \\      /  F ield         | OpenFOAM: The Open Source CFD Toolbox
   \\    /   O peration     | Website:  https://openfoam.org
    \\  /    A nd           | Version:  9
     \\/     M anipulation  |
\*---------------------------------------------------------------------------*/
FoamFile
{
    format      ascii;
    class       volScalarField;
    location    "0.0019";
    object      rho.c4;
}
// * * * * * * * * * * * * * * * * * * * * * * * * * * * * * * * * * * * * * //

dimensions      [1 -3 0 0 0 0 0];

internalField   nonuniform List<scalar> 
16212
(
28.6927
85.4891
31.0387
14.5481
63.8791
51.1722
90.5563
71.1473
20.3268
14.8398
10.9024
19.1769
26.0768
26.6625
36.7237
41.5368
20.0991
28.6751
51.2653
36.2861
51.2343
69.1876
43.9568
29.4291
21.0678
54.5526
38.1044
52.3599
70.4621
34.3486
58.8014
45.684
58.3394
46.4168
58.8923
64.7821
3.53953
2.20469
1.27428
5.17376
2.81481
3.26941
0.499426
1.76944
2.69723
4.35771
1.04174
1.45713
0.928023
1.30547
1.9617
0.740981
1.1246
1.48641
2.50298
1.98847
2.46606
1.85711
2.49246
3.74654
2.14357
2.99863
2.19102
2.72336
2.86012
4.06745
4.43034
0.585963
0.543334
0.623451
0.659801
0.724016
0.768529
0.709251
0.828234
1.44045
2.20099
1.1822
1.94255
2.09272
3.18598
0.869429
0.742601
0.707913
1.02405
0.835861
0.886112
1.10582
0.673839
0.678043
0.602047
0.829697
0.860393
0.911014
0.775243
1.35774
1.19633
1.10281
1.28069
1.53555
1.69678
1.40365
1.76239
1.60209
1.79253
1.97711
1.7684
1.96188
2.20221
2.11184
2.78711
4.42317
4.3489
2.58285
4.08712
7.81253
0.841619
1.07435
0.884766
0.941463
1.10914
1.14575
0.899232
2.09189
1.92897
1.87852
2.09357
2.14902
2.33834
2.39258
7.41112
1.89067
2.91955
2.76958
1.79156
3.3547
6.8527
1.01012
0.868426
0.794133
0.956445
1.35974
1.05291
1.2155
3.1016
4.83569
5.32368
5.26115
4.75062
8.98773
11.433
1.65097
1.48594
1.32133
1.90046
1.76582
2.15274
1.56344
0.772694
0.887092
0.938501
0.967048
1.01611
1.14715
1.09527
1.19438
1.21777
0.995975
1.06529
1.59032
1.28409
1.32552
1.01769
1.19677
1.35704
1.07053
1.11634
1.2384
0.975241
2.22128
2.1942
1.95779
2.2028
2.8109
2.49629
2.47942
3.79029
15.4335
8.21051
2.02041
3.12463
2.88605
4.74268
3.43948
1.36725
2.24702
3.98337
2.43134
5.41188
3.63131
0.969508
1.46042
1.10039
1.54009
1.17907
1.33734
1.75657
1.50017
2.0322
1.75537
1.94986
1.95502
2.26474
1.65437
2.65626
2.40893
2.35082
3.01922
2.64652
2.70697
3.09396
1.15801
1.75832
1.54637
1.63901
1.27904
1.40023
1.46483
2.26538
2.20392
1.98293
2.21057
2.8042
2.53609
2.46096
2.24876
2.04278
1.97956
2.29796
2.21107
2.44853
2.52784
1.02294
1.24101
1.07522
1.30738
1.42559
1.50047
1.24607
1.50452
1.18855
1.24042
1.39466
1.61046
1.68669
1.33167
1.69455
1.94802
2.42461
2.01272
2.46159
2.30114
2.83611
2.48409
3.21038
2.84562
3.21409
2.85858
3.31167
3.72024
2.35776
2.78434
2.42529
3.02184
2.63617
2.7022
3.10816
2.19971
2.18876
2.09257
2.93988
2.50809
2.56835
1.85181
1.6824
1.46163
1.26379
1.52942
2.30553
1.7589
2.01002
1.78558
2.036
2.14501
2.15264
2.04266
2.47806
2.46961
2.50562
3.21564
3.36291
3.20996
2.8735
2.9004
2.79459
2.78424
2.46084
2.52313
2.76519
3.25925
3.16196
2.84785
1.72612
1.84912
1.43112
1.61696
2.47908
1.9435
2.09559
1.81983
2.26724
2.15215
2.18517
2.07362
2.51369
2.60548
1.58219
1.82411
1.7212
2.19925
1.91398
1.81045
1.50577
3.02181
3.46971
3.47437
3.57092
3.5729
4.04627
4.18122
1.43963
1.58913
1.67637
1.64435
1.73257
2.01724
1.91545
9.21204
4.5153
2.98223
6.80139
4.64911
17.7739
9.60339
3.47441
3.46836
3.00506
3.07876
4.19195
3.56295
3.57102
2.22661
2.42001
2.29928
2.53877
2.66747
2.78214
3.07604
2.8679
2.60623
2.49692
2.76782
3.3104
3.18627
2.8702
1.84006
2.80471
2.71526
2.52603
2.2066
2.10618
2.38176
2.24261
3.25919
2.80514
3.0234
2.63376
3.28314
3.81144
1.69734
2.59709
1.97443
2.64723
2.03002
2.35134
3.03661
3.17398
3.77763
3.65798
3.77652
3.6567
4.28594
4.43304
2.37488
3.37915
2.8796
3.15789
2.70039
3.32078
3.89328
3.70832
3.86096
3.29903
3.87435
5.20777
4.56525
4.3701
2.32205
1.8633
1.96334
2.37327
2.67817
2.81816
2.25362
3.93324
3.72823
3.33
3.89456
5.2913
4.62802
4.38947
2.51578
3.48942
3.33959
2.88426
3.02282
3.50928
4.09394
3.14699
3.7784
3.76331
4.28731
3.64329
3.65193
3.25248
2.77807
2.35366
2.36111
2.90308
3.46781
3.47842
2.8936
4.03168
4.94335
4.16855
5.7373
4.78131
4.97116
6.01581
1.99049
2.55722
2.09442
2.45084
2.85783
2.99823
2.32837
2.782
3.41414
2.68394
3.13392
4.26328
4.10301
3.24658
2.48426
2.81673
2.39536
2.94278
3.65094
3.52427
3.04835
3.36663
2.63563
2.64551
3.09108
4.03084
3.08021
4.04443
4.0521
5.01356
4.18194
5.84146
4.80316
4.98777
6.11463
2.69054
2.9925
2.29973
2.73927
4.00046
3.21263
3.48106
3.0998
2.91481
2.42549
2.81316
4.15019
3.38347
3.54404
3.79548
3.44579
3.47772
4.42773
4.4376
3.98721
5.15806
3.58959
3.52369
3.0802
3.84095
5.20651
4.49875
4.45743
2.96996
4.22036
3.2814
4.59603
3.47071
3.85334
5.18757
2.65549
3.47561
2.94123
3.91363
3.25903
3.61914
4.37519
4.42432
5.07761
4.27532
5.10405
6.41515
6.19031
5.28322
4.55119
6.22539
6.27618
5.39067
5.40694
6.42113
7.62444
2.89303
3.2786
3.38016
4.12707
3.52469
3.42483
2.75272
4.58605
6.40047
6.32984
6.49024
5.46989
5.42833
5.2411
4.42561
5.13847
4.2822
5.11718
6.58024
6.30015
5.29298
2.12548
4.01016
3.04926
3.03235
1.67696
1.43599
1.13115
1.4122
2.87419
2.02818
4.76862
2.43982
3.23708
1.79392
1.53056
1.77562
2.52989
1.26187
1.12572
1.25716
1.35486
1.35878
1.50868
1.5041
1.20299
1.33994
1.15287
1.28472
1.38111
1.53347
1.59491
1.28875
1.43636
1.41581
1.58092
1.67233
1.70245
1.86589
5.69629
1.99797
2.90238
2.89935
5.08498
4.59274
7.56997
1.40748
1.58611
1.58081
1.68457
1.88825
1.89496
1.67893
1.49628
1.43633
1.61207
1.71192
1.9993
1.92483
1.77984
2.03222
1.64637
1.64995
1.82523
2.2418
2.24785
1.82012
1.58062
1.99306
1.76947
2.0895
1.86077
2.08477
2.352
1.73379
2.05714
1.67315
1.85249
2.35843
2.27833
1.92193
1.60272
1.97554
1.76481
2.13443
1.90054
2.08699
2.34767
2.24899
1.84029
2.00175
2.50459
2.04513
2.23535
2.73554
2.24971
2.25137
2.35643
2.54695
2.66768
2.66683
3.03941
2.23962
2.22285
1.97987
2.34119
3.02646
2.6576
2.64574
2.7057
2.49639
2.2214
2.49681
3.48679
3.06176
2.82618
2.03932
2.8847
2.29742
2.5159
2.30598
2.52427
2.03243
2.07044
2.6526
2.42797
2.926
2.34069
2.56017
2.14868
2.82512
2.59
2.29
2.51244
3.57689
3.104
2.85111
2.54605
3.33513
2.90074
3.48862
3.03746
3.49063
4.0529
2.54332
3.34281
2.89808
3.49384
3.03718
3.4946
4.06871
3.22364
2.82715
3.47751
4.02155
3.22574
3.7111
4.69922
2.82366
4.03765
4.07917
3.71617
3.50517
3.22264
3.22509
5.73089
4.77629
3.88462
3.89331
3.33875
4.05907
4.79209
6.84092
5.58709
4.3108
4.68723
3.70677
4.31375
5.59159
4.7249
4.33671
3.71499
4.3242
6.98278
5.12318
5.62755
5.83094
3.7393
4.87954
4.43179
7.52175
6.12336
5.24068
4.00638
3.93492
3.36376
4.1633
6.12417
4.91855
5.09149
3.95938
5.92695
5.14753
5.16536
4.54401
5.94445
6.78841
3.69942
6.87869
4.56892
5.07449
4.5822
3.68777
5.09273
7.18231
7.08058
5.78494
6.05877
9.75506
7.62587
7.50775
3.28379
4.66231
4.55174
4.74436
3.93178
3.83916
4.06282
4.0277
6.00329
5.1741
5.2827
4.58702
5.9677
6.87697
3.74869
5.41284
4.83053
7.02273
4.6462
5.17843
3.88426
11.6205
8.82932
6.15113
8.70226
6.87853
6.11425
5.09695
6.23515
8.44549
8.14918
10.3632
7.93725
7.77784
6.47176
5.90405
5.22795
4.16577
4.66222
9.62544
6.7874
5.95427
7.55075
7.57058
6.39796
7.606
11.3935
8.92914
9.31478
5.92766
5.99876
5.21389
6.8257
8.92806
7.84311
7.77485
7.70855
7.70171
6.44775
7.64765
11.8287
9.07863
9.44427
1.72783
1.60569
2.42073
1.63657
2.29071
1.5175
1.1389
1.13079
1.04569
1.21916
1.04893
1.22225
1.14311
1.31322
1.30903
1.07142
1.22322
1.30608
1.24419
1.16467
1.33723
1.40043
1.41714
1.63311
1.41435
1.50924
1.73323
1.73901
1.50434
1.51276
1.30024
1.30415
1.48605
1.71793
1.4816
1.7233
1.5043
1.66188
1.44003
1.53637
1.84155
1.76894
1.60433
1.54246
1.38575
1.3266
1.51132
1.82064
1.75096
1.57605
1.70223
2.29781
1.95901
1.97015
1.96548
1.6968
1.97627
1.73097
2.07674
2.085
2.33231
1.99761
2.00711
1.80228
3.47337
9.31428
13.9997
5.52727
2.24902
3.83394
5.2856
2.18017
3.41804
1.30325
2.17559
1.37094
1.55214
1.53571
1.62069
1.63776
1.92974
1.83125
4.5341
6.68175
16.9187
9.15294
5.13549
2.93341
5.11485
3.42757
8.78578
5.44346
15.3065
11.9153
6.58801
8.20902
1.62492
2.55977
2.5444
1.9174
1.93481
2.26674
2.96274
10.8603
33.1714
23.9295
9.81686
11.5631
5.58479
7.72956
2.36837
1.86042
1.96021
2.31907
2.67345
2.81323
2.2019
2.29618
1.82211
1.92017
2.29517
2.61755
2.75755
2.17921
3.77905
3.41968
3.4105
4.41596
4.41771
3.93814
5.13611
2.73346
2.98711
2.29584
2.68698
3.9932
3.4347
3.20699
2.66579
2.95552
2.25771
2.66459
3.94801
3.41642
3.15427
3.8539
3.98537
4.00746
4.54705
4.72445
4.57491
5.47571
4.52929
6.18391
6.15657
5.3668
5.37537
6.3778
7.49789
2.77073
3.20469
3.97943
3.17158
3.32046
3.35233
2.63087
5.86886
6.83278
6.78623
7.19354
7.24292
8.42667
9.04359
2.08654
1.98208
2.38424
2.14949
2.449
4.39842
3.41361
2.52179
2.78004
1.55817
1.2861
2.1301
1.92324
2.18657
1.22112
1.53331
1.96735
1.21717
1.22874
1.37432
1.32339
1.40021
1.47744
1.52312
1.40225
1.6171
1.4521
1.79994
1.61826
1.67826
1.86801
1.22827
1.3626
1.34775
1.4063
1.40721
1.5491
1.56626
1.6972
1.74414
1.57374
1.87462
1.67275
1.72547
1.92789
1.81249
2.0124
1.74546
1.96136
2.03487
2.26128
2.33979
1.97254
1.67085
1.72259
1.75802
1.53191
1.49416
1.72191
2.41067
2.34172
2.05909
2.15154
2.09009
1.84785
1.9116
2.00597
1.78124
1.81724
1.77912
1.60586
1.59155
1.75704
2.44174
2.58325
4.50957
4.51308
2.93884
6.58118
4.50157
2.21016
1.87305
1.93396
2.17209
2.10203
2.41007
2.48299
2.71646
2.64085
2.3079
3.00292
2.60582
2.6859
3.0871
2.21411
2.60308
2.29289
2.92766
2.56062
2.64201
3.01378
2.23874
2.52925
2.46847
2.19929
2.2464
1.99523
1.95709
2.17041
2.26116
2.25052
2.56927
2.47333
2.47857
2.83821
2.51484
2.86034
2.78343
2.75818
3.2604
2.83929
3.16412
2.44879
2.68479
2.36756
2.71955
3.20591
3.09912
2.80768
0.907687
0.823106
0.612287
0.616961
1.05091
1.10523
1.43317
1.13388
0.657677
0.656274
0.622005
0.784541
0.75283
0.751709
0.795613
0.810644
0.958324
0.7263
0.719337
0.85907
0.982069
0.873771
0.671195
0.705624
0.634923
0.756812
0.746711
0.812888
0.842803
0.938112
1.06117
0.902908
1.064
0.90335
0.955703
1.13291
0.851823
0.749097
0.795094
1.01993
1.0789
0.901433
0.947226
1.33446
1.20244
1.02
1.38196
1.16938
1.04535
1.24
0.896013
1.0583
0.896826
0.975862
1.17309
1.15597
0.99947
1.48869
1.21544
1.27327
1.07966
1.31911
1.27887
1.12332
0.372695
1.64892
1.14846
0.998236
0.775213
1.56594
1.31104
2.16419
1.09357
1.53099
1.07666
0.492796
0.552147
0.878558
0.971018
1.62504
0.501256
0.93997
1.15603
1.56159
2.4828
3.68653
2.19727
1.31125
2.38391
0.697579
0.799267
0.807124
0.904164
0.887772
0.90787
1.01444
1.7705
1.4822
2.46503
1.73638
2.17609
1.9825
2.79989
0.874052
1.16692
1.13434
1.02302
0.998666
1.14668
1.30223
0.291922
0.3485
0.429636
0.370433
0.452942
0.51766
0.438339
1.22258
0.932756
1.20792
1.03424
1.0488
1.16668
1.35297
0.933186
1.21413
1.05048
1.17097
1.03074
1.15654
1.31609
0.633741
0.71061
0.546478
0.741469
0.571919
0.635928
0.838627
0.860111
0.976459
1.30903
1.0105
1.34264
1.52569
1.1548
1.46837
1.85817
1.64467
1.90687
1.68008
1.88062
2.14446
1.3344
1.29266
1.32247
1.52388
1.47336
1.4798
1.67999
0.416017
0.575595
0.495995
0.595447
0.62695
0.692393
0.522054
0.319081
1.31447
0.442179
0.147265
0.339409
0.526254
0.934367
0.368102
0.601292
1.0345
0.673733
1.1079
1.25133
2.21552
0.958263
1.46419
0.891928
0.655403
0.876796
0.74514
0.976333
1.01026
0.770526
0.288339
0.505027
0.471958
0.565707
0.393337
0.434015
0.581459
0.16907
0.21781
0.180218
0.187786
0.25269
0.298181
0.221338
1.22132
1.07607
1.16946
1.31213
1.2014
1.26265
1.39974
0.243474
0.201766
0.266569
0.346876
0.313473
0.397378
0.263846
0.576107
0.39138
0.534333
0.476759
0.667644
0.521275
0.615054
0.77395
0.712744
0.943321
1.08228
0.898286
1.19473
0.820982
1.47109
1.32475
1.18812
1.36492
1.70138
1.5093
1.52771
0.260319
0.46095
0.351507
0.392203
0.410107
0.498352
0.302031
0.499462
0.747136
0.648488
0.530225
0.786379
0.627441
0.673002
0.843459
1.21093
1.08525
1.14661
1.0235
1.30484
0.882642
1.33224
1.46444
1.627
1.4255
1.79012
1.58985
1.59123
0.437216
0.406206
0.602548
0.461905
0.490041
0.544733
0.350504
0.564467
0.784848
0.723194
0.846457
0.610273
0.666599
0.717684
1.24551
1.05636
1.60392
1.12009
1.38426
1.43467
0.954418
1.5522
1.95439
1.94013
1.98687
1.71583
1.74676
1.75359
1.38061
1.35676
1.19251
1.312
1.69772
1.48975
1.49535
1.52217
1.35268
1.16109
1.31379
1.71146
1.4845
1.51869
0.674859
0.473666
0.606625
0.627667
0.705877
0.766557
0.55647
1.3671
1.325
1.17805
1.31244
1.69299
1.47606
1.51289
1.0537
0.671324
0.80172
0.753138
1.2079
1.00148
0.90653
0.811257
0.699564
0.61325
0.719891
1.1241
0.829662
0.964187
1.8161
1.19664
1.42287
1.78031
1.6374
1.37341
2.07694
1.12504
1.72842
1.49728
1.75015
1.56094
1.33618
2.02371
0.722287
0.827727
1.02255
0.78458
0.84053
0.881454
0.658749
2.18612
1.91206
2.17555
2.15105
2.80169
2.45515
2.46731
2.10161
2.10073
1.8505
2.12341
2.74132
2.42452
2.41727
1.54155
1.92354
1.99961
1.74861
1.68902
1.91355
2.18034
1.71399
1.9292
1.92973
1.67488
1.67693
1.89441
2.177
1.51813
1.90633
1.97633
1.73656
1.67649
1.90675
2.16761
0.662471
0.535205
0.569115
0.612938
0.960881
1.07273
1.04241
0.885057
0.651106
0.616719
0.595174
0.941895
0.926623
0.821153
0.849148
0.602055
0.594096
0.586281
0.772754
0.849558
0.775448
0.745379
0.540261
0.540606
0.540446
0.67016
0.632437
0.633142
0.681354
1.05428
1.12546
1.13266
0.968623
1.09033
1.07904
0.987771
0.583183
0.543675
0.551777
0.672651
0.691924
0.64978
0.698819
0.926585
0.990529
1.10354
0.931257
1.04795
1.06388
0.898663
0.821709
0.745522
0.886344
0.984159
0.974145
0.748381
0.833428
0.819474
0.819196
0.996015
0.90812
0.974042
0.769951
0.842773
0.642525
0.597547
1.0151
1.42528
0.97895
0.950022
1.19433
0.868325
0.596955
0.684803
0.674577
0.677712
0.686522
0.77096
0.766906
0.609148
0.73716
0.737192
0.695015
0.700708
0.788896
0.831897
1.06303
0.942217
1.05704
0.799203
0.895186
0.803798
0.901504
0.992518
0.772761
0.895807
0.90011
0.777454
0.873339
0.997105
1.13428
0.969971
1.08411
0.861349
0.821027
0.921456
0.967256
0.849068
0.923546
0.799389
0.893913
1.07143
1.01762
0.94272
1.18981
1.01033
1.34429
1.33999
1.14491
1.01628
1.1493
1.27012
1.21606
1.36714
1.03669
1.22453
1.1701
1.08698
1.48166
1.89338
1.92215
1.90699
1.67661
1.66894
1.70109
0.860904
1.39831
1.20849
1.35253
0.998552
1.15872
1.04112
2.44598
3.19246
3.28579
3.16442
2.81387
2.7738
2.83104
2.04726
1.89655
2.78253
1.85724
1.59324
2.37259
2.39566
2.14962
2.17494
1.8965
2.14796
2.82206
2.44776
2.46833
1.89268
2.46583
2.14407
2.14473
2.8167
2.44058
2.46679
2.26191
2.25075
2.56984
2.17141
2.83966
2.48038
2.47393
2.96715
3.44764
4.00259
3.05316
4.13918
3.51401
3.54932
2.81709
2.79895
3.2508
3.25387
2.80207
3.24148
3.80069
2.94758
3.40851
2.96411
3.29306
2.8455
3.28281
3.83766
2.56468
2.83606
3.39064
3.27826
2.93917
3.27739
3.82306
3.25213
3.80382
3.24372
2.4433
3.25778
2.80485
2.81933
3.13456
3.75996
4.2473
3.73153
3.60706
3.23498
3.63936
1.83269
4.3218
7.72957
2.62131
2.04892
1.72136
2.591
2.04037
2.31308
2.45296
3.86922
1.59462
2.96551
1.13613
1.89138
1.09127
0.609168
1.83775
1.10335
1.39619
1.42206
1.23968
1.3324
1.49499
1.51747
1.69549
7.49642
3.9417
2.54539
2.5061
1.54089
4.28311
2.71785
2.30245
2.81945
4.60916
8.51762
3.98807
2.94865
4.5151
0.675129
0.756844
0.743368
0.814
0.800855
0.96433
0.912742
4.21275
4.70921
9.04089
4.64947
2.90072
5.16947
3.18569
1.79314
1.80518
1.58516
1.92896
1.69795
1.92377
2.19035
0.811565
1.32188
1.30611
0.970593
0.956499
1.14646
1.55838
1.81043
1.85294
1.62537
1.97518
1.72918
1.92305
2.18819
1.49529
1.90213
1.66302
1.94915
1.69535
1.88158
2.15415
1.19307
0.934667
0.985929
1.16162
1.32733
1.39716
1.10645
0.905225
1.14548
0.956981
1.14585
1.29614
1.36318
1.0916
2.00938
1.83002
1.81564
2.35652
2.34855
2.14366
2.75672
2.4105
3.13893
3.12543
2.79946
2.79231
3.26359
3.64168
2.02233
2.1894
2.28155
2.49024
2.60472
2.4972
2.85877
2.62269
2.30852
2.0437
2.18107
2.85804
2.49374
2.48395
2.14404
2.14797
1.88243
2.13301
2.8108
2.44261
2.44188
1.41143
1.58365
1.1696
1.37751
2.20402
1.85648
1.65308
1.35984
1.54955
1.13851
1.36034
2.16791
1.61684
1.8385
2.98565
3.38204
3.36514
3.46361
3.48123
3.94099
4.07887
1.37191
1.93132
1.55382
1.53628
1.62132
1.63962
1.30412
2.22452
2.23105
1.93379
2.14336
2.87574
2.46582
2.46938
3.24329
2.16421
2.76632
2.95362
2.52025
3.23332
3.7863
2.13624
3.2278
2.75342
2.92882
2.50705
3.22846
3.77839
2.5845
3.28543
2.84839
3.41027
2.96601
3.29736
3.84185
3.07354
3.69168
3.55923
3.70589
3.57638
4.1866
4.34361
3.8483
3.66061
3.27247
3.83762
5.13904
4.29628
4.53855
2.9955
3.44759
2.98525
3.31526
2.86394
3.30962
3.87772
1.62621
2.26872
2.56322
2.54557
1.91821
2.17748
1.93722
3.83225
3.6357
3.26082
3.83208
5.10405
4.52604
4.28213
2.44909
3.26392
2.81103
3.26619
2.81316
3.2617
3.82932
3.96756
4.90448
4.10394
5.62446
4.66999
4.86887
5.90871
3.93225
4.84957
4.07088
5.56737
4.64819
4.8485
5.85161
2.43609
3.29768
3.27279
3.26872
2.80924
2.81404
2.81385
3.80922
4.529
5.43935
3.81019
3.24769
3.798
4.51107
5.40552
4.6748
3.95447
3.39506
3.96554
3.82644
4.52507
3.79827
4.49971
5.40735
4.49135
3.79318
3.2399
3.79183
3.42405
3.41198
2.93578
3.78082
5.13947
4.4172
4.4214
3.85164
3.84403
3.26817
3.8342
5.56128
4.56834
4.5788
3.43029
4.72847
4.01125
3.85996
5.48467
4.5533
4.5832
3.80201
3.81532
3.25207
3.81666
5.44809
4.51744
4.53791
4.36712
5.03814
5.22546
5.0003
6.31197
5.19043
6.08196
4.33527
4.97901
4.1776
4.97823
6.25629
6.02331
5.16926
4.52921
6.18133
6.37918
6.1556
5.367
5.11292
5.37615
3.1667
4.59921
4.41452
4.57329
3.95842
3.74164
3.77103
3.95248
5.93377
5.14089
5.1559
4.5091
5.92037
6.77746
5.91622
3.93439
4.49968
5.12344
4.49757
5.91401
6.75317
7.19226
8.42357
6.78471
6.82859
5.58208
5.86658
7.23942
6.69274
5.48137
4.5355
6.79447
5.49344
6.7015
8.49869
6.87109
4.74963
5.73458
7.04979
5.69185
6.74008
8.66477
5.61387
5.43392
4.69628
6.87203
5.65033
6.65017
8.23595
6.27181
7.43471
6.04068
7.77819
7.4847
9.41378
9.87012
8.24625
5.40993
6.63317
5.4144
6.60481
5.39295
4.49572
9.8706
9.41229
7.43392
6.03914
7.77844
6.27163
7.4826
4.54464
6.81171
6.71524
6.70578
5.45299
5.49389
5.50603
7.59849
7.55298
6.39488
7.56634
11.3899
9.21249
8.91975
7.4767
6.37161
7.54879
7.54743
11.2201
9.15321
8.8637
5.86989
5.84849
5.13021
6.75795
8.79036
7.69661
7.7164
8.52393
11.9761
9.15833
13.8389
10.6644
11.7104
15.8828
9.00055
10.5524
8.38935
13.4767
10.5539
11.5646
15.3148
5.44102
10.4256
11.9136
8.97991
8.22408
6.58981
7.13941
10.6856
6.62576
8.33399
8.33046
15.0975
10.6597
10.9748
8.93287
8.70229
6.94743
8.39972
16.2698
10.8514
11.4406
6.81723
12.612
8.87837
8.53332
18.067
11.5386
11.7873
8.9952
14.1453
12.3138
14.5173
10.6026
10.4775
11.5819
12.7845
10.026
9.54116
12.428
20.7158
13.4356
17.7389
8.8777
13.8856
12.0325
13.7554
11.2653
10.3335
10.377
13.1692
12.2427
9.36712
12.2434
19.3611
13.1686
16.8753
1.97666
13.4376
3.45174
2.9893
1.87892
3.0352
2.85972
2.71012
5.77903
2.90434
5.389
2.31949
3.22403
3.06333
6.37767
4.6799
12.464
4.84799
1.90715
2.12309
2.04516
2.26
2.185
2.38299
2.4683
1.87438
2.00652
2.01299
2.14893
2.15427
2.34887
2.34184
2.108
2.26896
2.40314
2.50859
2.6402
2.63299
2.91196
5.66508
17.2326
5.94303
11.5659
5.69769
14.3064
32.8528
6.36429
5.68144
10.6604
19.5985
11.4457
28.6351
16.4327
2.61429
3.31243
2.85541
3.44269
2.98504
3.32968
3.89958
2.71864
2.28937
2.2969
2.72713
3.27515
2.71851
3.28539
2.60128
2.9437
2.51898
2.81412
3.51069
3.3972
2.90986
2.42081
2.75754
2.33229
2.76597
3.45196
3.33018
2.86659
2.91051
2.4809
2.48671
2.77796
3.34966
3.35752
2.77039
4.0265
3.88873
4.02588
4.61301
4.76959
4.64161
5.60425
2.76296
3.55776
3.03839
3.75185
3.10296
3.4402
4.18831
2.59083
3.4128
2.87614
3.70483
3.06755
3.41457
4.15182
4.77362
6.77523
17.1595
8.69586
10.9061
6.7141
19.0625
13.1395
3.88275
4.58838
4.0545
3.88779
3.33557
4.78422
5.72466
3.94275
3.87493
3.30008
3.94401
5.85694
4.68442
4.84943
4.08227
4.02261
3.4523
3.96115
5.96125
4.69963
4.89236
5.96423
6.9048
6.99291
7.31906
7.41213
8.65134
9.31338
3.30351
4.0802
5.4069
4.12254
4.13324
3.29369
4.09227
3.34686
4.34332
4.3064
5.50369
4.1868
4.14802
3.4654
4.75483
6.75265
5.53838
7.05827
5.74161
6.88585
8.68242
6.13812
7.8659
7.56576
7.98374
7.66559
9.72828
10.2878
8.9523
7.11649
5.55294
5.51681
4.60319
5.75653
7.02882
11.6051
8.81065
6.86802
6.11029
5.09021
6.13952
7.56069
8.78648
6.99401
5.50224
5.71595
4.58421
5.49966
6.99033
4.68707
4.64805
3.71348
4.15613
7.49884
5.32886
5.27337
4.61898
6.98319
5.57639
7.27728
5.67884
7.01851
9.35722
4.78244
7.564
5.80285
7.58716
5.70859
7.10577
10.1231
60.442
21.8962
10.6741
14.4623
4.69889
8.11092
4.51436
14.3579
5.41884
3.82856
3.95497
3.39589
3.9671
4.52889
4.67605
5.4086
14.4964
10.3963
15.6912
116.153
64.5935
17.2327
44.3485
6.55511
6.80382
5.59211
5.39601
4.66729
5.59288
6.55697
6.60748
5.39491
4.49896
6.64115
5.41579
6.58594
8.25272
5.65448
6.65947
5.44006
6.87617
5.61627
6.59362
8.24515
4.85479
9.40509
7.92242
8.15275
5.87828
6.41485
6.30123
8.5186
11.7064
9.15373
13.836
10.8552
11.9709
15.8783
8.80446
12.8636
9.50597
14.8375
11.1149
12.3431
17.6426
15.1177
10.6976
10.9948
8.34487
8.3469
6.6352
8.21771
11.1096
10.5453
8.56236
10.3991
8.48878
6.82362
8.14587
10.5615
10.5655
8.22035
10.4014
8.15179
6.56735
8.15468
8.14133
8.48754
6.82163
8.55844
10.5368
11.1062
14.455
8.39118
11.5934
16.6423
8.45125
11.7852
6.72741
8.82201
9.69748
15.9843
22.8952
11.5031
15.9746
7.5321
9.69188
8.55283
8.80945
6.8343
8.9015
18.1096
11.8154
12.645
10.1159
9.34666
7.22256
9.17343
20.6606
14.1909
12.5066
10.1409
13.7361
24.1781
16.346
11.9476
7.66213
9.82774
10.0275
12.426
9.5388
12.7825
20.722
17.7375
14.0043
10.7001
14.2004
9.98326
13.3351
24.915
20.6134
14.9642
10.4609
10.9093
7.35504
9.58418
24.6652
15.2337
14.4895
1.20202
1.19397
1.11828
1.435
1.69415
1.26444
1.34456
1.55748
1.19659
1.17914
1.1735
1.26307
1.26451
1.26829
1.26974
1.19887
1.18784
1.17888
1.31891
1.28583
1.2872
1.32238
1.04808
1.23066
1.1252
1.04657
1.11717
1.25879
1.22721
1.33936
1.44501
1.43718
1.49935
1.49443
1.37446
1.37734
1.15056
1.06508
1.12291
1.27077
1.29514
1.24184
1.30937
1.37569
1.56429
1.48349
1.60977
1.53305
1.40498
1.46265
1.55468
1.40705
1.61304
1.61211
1.41985
1.40599
1.41831
1.64977
1.48984
1.63279
1.58221
1.43315
1.42285
1.47634
2.49047
1.77564
2.81548
1.91099
1.65327
1.81772
2.30972
2.68189
1.58701
1.57624
1.64589
1.76441
1.7778
1.8514
1.84205
1.72155
1.68801
1.62787
1.9215
1.82179
1.88943
1.98286
1.73007
1.72531
1.81476
1.93831
2.04505
1.93194
2.04966
1.83637
1.84283
1.75901
1.9713
2.15437
2.07945
2.05551
2.00541
2.3254
2.01998
2.10383
2.4145
2.427
2.09284
2.17189
2.37683
2.06712
2.1465
2.583
2.47445
2.24539
2.19767
2.68783
2.32463
2.52341
2.53218
2.1901
2.33004
2.23507
2.67489
2.44613
2.7231
2.57371
2.36315
2.32639
17.9572
17.6372
13.5718
15.4597
33.0168
21.5175
22.13
22.7245
10.4618
14.528
36.1085
21.9281
14.1368
21.8843
24.9402
15.6938
11.0203
36.8426
22.2417
14.2602
22.2367
25.1778
16.7388
24.3699
41.7784
26.9827
11.0496
16.2095
26.4996
18.5945
14.2542
16.581
37.8936
25.3752
23.3824
36.127
21.9345
14.5099
22.7447
14.5378
14.1411
10.4689
26.8759
16.1893
11.3825
15.0872
24.7594
39.7425
23.065
29.0833
19.59
34.1693
52.7423
35.2103
23.1991
13.2748
10.9508
2.67695
16.5611
10.9149
20.4987
4.54017
7.59921
72.7694
116.773
36.7353
80.8528
18.2795
13.5156
4.03991
9.9254
19.3371
18.1421
3.8107
9.54196
2.56508
3.88874
35.634
6.96752
3.06882
4.89925
10.6432
21.2402
6.62374
43.2744
11.2224
10.8166
42.134
14.8735
64.871
2.5694
2.85324
2.85967
3.48298
3.48732
4.00254
3.99553
3.50873
3.33082
8.78477
43.6291
10.0572
7.99666
41.0769
2.59711
2.9911
2.89432
3.643
3.52645
4.05563
4.20893
6.0596
7.64405
8.25653
2.63332
3.96212
4.65326
6.16727
2.82774
3.17743
3.48399
3.87446
4.26111
4.51745
5.0418
12.2526
3.76399
9.90903
66.602
47.5869
5.91185
20.5915
3.82359
3.24747
3.2566
4.76442
5.89689
5.91143
4.75354
3.41682
4.56763
3.93713
5.67461
4.84378
5.84221
6.99023
2.77326
3.1731
3.20909
3.32199
3.35682
3.98293
3.83732
3.42034
3.88229
3.30044
4.83798
6.29324
6.01224
5.0449
16.507
20.3529
10.0479
11.2667
5.13508
7.70825
21.993
3.16956
4.57543
4.60556
3.74333
3.77606
4.41843
5.29051
9.50428
5.53747
5.52968
6.50451
11.3925
11.3542
6.513
4.05747
4.35575
3.65684
6.86747
5.46428
6.18266
7.86033
3.34081
4.28713
4.12852
4.14017
4.29869
5.6031
5.58647
22.9424
35.2578
28.6537
115.36
62.8632
49.8172
27.7709
5.77481
9.59613
5.58704
6.58273
11.9433
11.4881
6.83798
5.4306
4.51808
5.37814
6.83642
8.45517
8.5945
10.8689
3.38554
4.52084
4.35569
4.19592
4.35574
5.6981
5.9737
16.2406
23.0811
10.8661
47.6621
21.213
112.654
50.1832
4.68928
3.81702
3.96301
4.69129
5.33177
5.49395
4.54205
73.5997
7.31625
23.8431
37.0666
20.8511
52.8293
94.3622
5.53507
5.74073
4.66829
7.28418
11.724
9.41676
8.88211
6.16969
11.8855
6.84847
12.9263
7.37949
8.31943
14.6375
3.89389
4.80334
4.0385
4.7302
5.40931
5.57401
4.58084
4.21315
4.87614
4.69886
5.321
5.52125
6.573
7.68014
6.76353
5.85134
5.87828
7.70008
7.72666
6.68827
8.79869
51.7517
195.999
70.484
25.7181
13.5698
24.8566
45.7669
5.13784
5.2726
4.39978
5.14011
6.96728
5.96981
6.06246
5.33773
5.24863
4.46969
5.17782
7.05377
6.05298
6.09937
9.4028
13.7927
7.88958
9.77629
21.1514
17.2873
11.9074
7.9561
18.1227
10.1602
14.1098
10.1595
14.0779
7.96182
8.32582
8.31808
6.57909
14.1501
10.7627
14.1644
18.9909
4.91041
8.20554
7.90396
6.33225
6.57214
9.53631
12.4851
8.39482
8.46219
6.73351
11.5986
8.83078
11.8011
16.6554
8.06994
10.8457
14.9211
18.4202
10.3279
14.2763
8.43087
8.45587
8.72116
6.74498
15.0654
11.1709
14.4598
19.8511
8.70923
8.41347
6.95384
8.94295
11.4615
11.9275
16.2948
11.9215
16.2922
9.1901
10.5091
24.4566
13.7805
18.6762
10.0878
6.02693
6.04777
8.88541
15.6319
8.85015
15.665
5.39233
8.0326
5.40826
8.22917
13.358
13.3998
8.19161
7.42893
6.44727
6.262
5.51555
6.30617
6.49253
5.35259
6.47564
10.3184
6.1605
9.10144
17.1425
16.0522
9.6772
8.68036
11.5036
10.0255
6.67047
8.77851
7.60298
10.0304
5.76277
8.23832
5.49884
8.43418
14.7505
13.7589
8.98108
8.88228
13.7574
13.8921
10.3369
10.3872
12.0419
16.9269
6.73267
10.1656
8.84925
8.77493
7.64035
10.0778
11.6441
11.5635
26.0246
14.6422
26.5505
14.944
19.2344
33.6274
9.35915
10.7296
10.3529
14.6827
14.2259
17.0099
24.0257
9.09974
11.7966
3.34191
5.72525
22.6663
11.6414
7.03978
9.84433
3.90408
4.07702
3.91439
4.63792
4.81631
4.85044
5.82946
5.52446
5.76864
4.61168
6.78727
5.56526
7.1341
8.96962
6.22167
5.16287
7.1723
9.58058
6.34314
7.88863
12.6292
4.67389
7.03998
5.62664
7.58878
5.92923
7.29586
9.75504
8.6066
8.86799
6.88214
9.24349
18.7501
12.2728
13.1646
16.3747
11.9775
7.68009
10.1675
24.2268
13.7632
17.2058
6.9749
8.08957
9.57641
5.99248
8.14439
7.02362
6.99106
7.14851
14.5632
8.37112
19.3715
10.8493
12.9279
23.3014
6.34341
11.9226
7.42583
16.7876
10.1038
12.0937
20.4346
16.0861
28.8451
20.7729
18.5901
13.7033
8.261
10.758
12.5624
27.5754
20.9301
29.2313
16.6752
22.3643
15.5661
20.3551
14.5597
10.921
19.2113
36.7743
26.7239
26.098
15.4568
17.6372
17.9578
21.5164
22.1276
23.934
33.0178
116.917
42.7035
98.7967
20.8909
157.534
78.8534
112.339
41.3896
101.993
112.148
111.685
78.8403
11.3907
109.08
15.046
15.0514
10.8407
16.4243
25.1844
25.1932
39.8152
17.3903
16.356
11.1517
24.5814
15.4539
26.0197
42.7779
15.33
24.4061
11.0712
27.0366
16.7728
25.219
41.8428
16.1974
15.1028
11.3899
26.8932
17.2477
24.7886
39.7751
24.1883
18.3313
10.3849
16.3478
39.4576
29.6821
21.7332
33.33
25.2906
19.0227
25.3168
51.1547
34.0167
42.1765
15.26
12.1951
9.25642
15.382
35.9143
20.6182
26.4781
13.9966
26.8032
20.8598
16.8184
12.0028
14.0027
20.8665
13.4711
16.7504
11.991
10.1175
8.70675
11.5411
13.5942
19.6166
23.2236
13.2885
19.0713
34.185
29.1066
52.7834
12.8468
31.2704
18.1197
32.8536
18.893
27.4599
48.7234
34.4169
27.0235
19.8379
25.8757
51.356
35.5166
42.6008
17.2413
14.3216
12.1465
14.111
28.2296
16.8708
21.2302
12.5815
30.6649
17.9425
30.103
20.3533
35.1245
52.7807
41.1217
33.0623
59.7647
26.0241
37.4901
20.7626
14.6513
18.9606
30.8951
20.8282
22.0019
36.3623
54.5883
13.1454
31.9046
17.0886
19.7006
26.6959
33.1781
43.2399
55.8702
26.6961
43.2397
55.865
25.7184
31.9025
19.698
17.0897
35.6758
22.4492
49.929
64.1311
39.3743
31.5248
18.8798
33.1073
25.6179
46.527
53.3411
30.1083
43.004
70.5336
14.1323
40.9687
25.4586
23.6579
23.736
14.0933
25.521
41.9412
28.9696
16.7603
49.7968
28.8267
41.5626
68.2185
14.4943
28.0904
26.2705
41.6395
24.4249
26.2106
15.5012
98.4662
35.3696
60.3635
35.4583
60.3508
21.4917
35.3614
62.4991
23.1165
38.1849
39.5835
101.559
64.6459
66.8376
37.0772
38.4616
23.3525
40.5325
103.502
65.6703
68.0185
32.4098
33.3787
23.631
48.3386
81.5403
33.3849
51.755
101.477
66.7629
39.5355
62.4582
38.1451
23.091
36.709
31.8149
29.9291
17.575
21.2809
53.2919
38.1155
36.16
36.9586
53.4824
27.9918
16.5986
38.074
20.7649
27.1578
34.8494
57.5257
36.7575
51.55
34.5006
53.6867
87.4313
64.3762
37.561
25.4271
44.3663
66.452
75.5989
102.069
26.7467
46.1335
46.8124
72.5495
71.77
78.822
106.681
75.5848
102.046
66.4198
42.6981
64.3664
25.4193
37.5463
34.4098
58.4693
58.8473
58.9738
46.5222
45.7205
51.261
44.9187
51.906
79.3387
44.9339
105.414
71.3326
79.3652
84.2982
55.4052
30.519
46.5076
104.57
81.2488
75.8832
29.3502
83.447
52.4538
43.5126
101.147
75.789
70.4988
28.3621
47.3267
80.2108
44.0558
102.891
76.2458
73.1414
61.2913
42.125
62.9219
69.5685
91.9674
84.2033
83.5046
27.3808
59.4638
59.9734
58.2936
47.5006
36.8554
45.67
65.3446
55.0429
86.8983
61.8829
95.7523
85.801
86.2319
35.0364
61.0065
84.8951
60.4555
97.2881
86.5393
85.0017
70.0876
58.6674
65.1064
70.0435
77.373
77.746
71.1031
97.1252
42.3917
54.812
124.428
156.31
72.77
97.1274
59.0479
81.078
105.476
75.5406
156.605
132.385
100.076
59.4241
68.3721
68.6695
69.5669
75.4069
75.9347
70.2773
128.463
106.553
194.742
72.8026
49.1453
83.0063
132.897
71.4917
71.4573
50.692
68.9315
80.7414
81.6479
80.7967
121.827
61.5016
99.3578
119.831
100.07
116.184
119.868
66.2451
121.571
105.483
120.479
104.605
117.189
119.455
100.019
98.7807
121.805
119.829
119.766
99.3195
61.4778
115.487
74.4587
101.78
140.649
116.776
115.492
116.022
101.425
108.406
106.649
102.965
104.227
111.091
107.813
72.5217
113.675
118.954
111.935
105.451
105.512
106.321
69.8263
115.697
108.446
110.095
101.322