/*--------------------------------*- C++ -*----------------------------------*\
  =========                 |
  \\      /  F ield         | OpenFOAM: The Open Source CFD Toolbox
   \\    /   O peration     | Website:  https://openfoam.org
    \\  /    A nd           | Version:  9
     \\/     M anipulation  |
\*---------------------------------------------------------------------------*/
FoamFile
{
    format      ascii;
    class       volScalarField;
    location    "0.00305";
    object      rho.c4;
}
// * * * * * * * * * * * * * * * * * * * * * * * * * * * * * * * * * * * * * //

dimensions      [1 -3 0 0 0 0 0];

internalField   nonuniform List<scalar> 
26360
(
5.42475
6.20352
17.2009
8.64396
61.1218
25.8736
3.2326
4.38623
2.96549
2.46207
2.25765
3.73738
3.15041
3.99546
3.98009
3.00691
11.2624
6.86351
6.23173
4.09086
2.22642
1.97252
2.00331
2.60782
2.29176
2.32508
2.64284
2.32784
2.18838
2.06832
2.53891
2.39884
2.72445
2.88389
2.68338
2.66077
2.38221
2.7683
3.10126
3.14958
3.54091
2.57166
2.93108
2.53942
3.54821
3.5071
3.00405
3.04137
35.9
30.4682
7.52407
4.27302
8.66704
4.47199
9.87914
2.74303
3.91777
3.37501
3.41916
2.78055
3.19151
3.96878
3.43835
3.47762
3.02618
4.09353
3.54241
4.06712
4.73406
2.80221
3.05356
2.64909
3.8748
3.65534
3.13352
3.31834
3.03698
3.52607
2.86767
3.29071
4.34644
3.48729
4.09481
3.30093
1.54396
1.77303
2.79502
2.09865
2.57123
1.70757
1.83008
1.78506
2.67983
3.57042
2.81354
3.43508
2.53842
2.13214
2.64469
1.55838
1.63993
1.63637
1.65826
1.65197
1.77754
1.79677
1.61031
1.82
1.78808
1.71536
1.69867
1.8482
1.94617
1.93129
2.04776
2.19343
1.85395
1.97917
2.10477
2.33015
1.90869
1.74983
1.87964
2.13287
1.94086
1.96345
2.15813
1.6887
1.75759
1.66814
1.97247
1.85311
1.87387
1.99929
1.94851
1.83604
1.97747
2.01951
2.33913
2.2194
2.12737
1.94802
1.84258
1.73738
1.92533
2.17593
2.02656
2.05998
2.38433
2.53749
2.27852
2.45472
2.75439
2.61826
2.96189
2.8304
2.55245
2.28736
2.35896
2.12142
2.30426
2.55932
2.36668
2.3601
2.11751
2.19761
1.98107
2.19471
2.43976
2.25664
2.54337
2.22994
2.31966
2.06714
2.34166
2.08821
2.89247
3.00473
2.6561
3.69501
3.29461
3.21711
2.89139
2.47722
2.67589
3.06126
3.15551
3.46997
3.01289
2.76156
2.45279
2.64469
2.32235
2.40291
2.53093
2.14374
2.25651
2.99547
3.05144
2.67172
2.7507
3.07933
2.44704
2.72852
4.08269
3.52303
3.97874
4.62156
3.95651
3.43051
3.10371
3.44117
3.05951
3.53785
4.25011
3.63117
4.09777
4.81455
9.7228
69.4149
40.6627
6.91
15.7132
5.22475
13.0398
3.31759
4.61361
3.72865
4.77112
3.81717
4.30617
5.40621
4.61413
4.62073
3.9573
4.7328
6.595
5.54722
5.58987
4.33364
3.66802
5.54743
5.62359
4.62009
3.71365
4.68063
4.97328
5.32225
4.27865
4.96908
7.41378
5.81757
6.27819
4.80451
4.52364
5.81642
3.82863
5.14017
4.06072
4.83317
39.0182
5.82054
12.299
9.57975
4.33801
4.46645
3.0635
10.2719
8.95146
3.38004
3.42251
3.8088
3.85795
4.27262
4.35721
4.87542
4.9838
6.52284
5.57153
3.80364
4.32701
4.8383
5.5881
3.88089
5.03921
4.35019
5.9164
5.0202
5.67392
6.75833
3.07201
1.33795
2.15032
1.96377
1.48372
1.76437
3.25942
2.33709
2.4199
5.3177
2.45349
3.52265
2.37872
1.60293
3.55739
2.51315
1.36027
1.45246
1.4783
1.53434
1.5568
1.66634
1.69268
1.40574
1.6176
1.52932
1.68752
1.60405
1.74662
1.84305
1.76634
1.75369
1.8181
1.94132
2.00081
1.99514
2.20885
1.59302
1.79446
1.62152
2.03727
1.83167
1.86108
2.06891
1.85513
1.77603
1.67766
1.92171
2.26013
2.03161
2.13599
1.79723
2.17452
1.82034
2.35549
1.95875
1.98583
2.38382
2.20834
1.97002
2.17652
2.51191
2.23351
2.48194
2.81003
2.23017
1.96344
1.87072
2.04433
2.57716
2.15335
2.44954
2.13572
1.92937
2.14297
2.46019
2.20655
2.45424
2.74665
2.11241
2.76855
2.32497
2.7883
2.32965
2.58207
3.09546
2.9504
2.61712
2.16289
2.19367
2.98878
2.45412
2.65023
2.69187
2.73701
2.4138
2.77347
3.5805
3.16078
3.12055
2.26114
2.67786
2.87966
3.08016
2.38815
2.53103
2.728
2.93732
3.10511
2.60082
2.91046
4.00562
3.31198
3.50128
1.49357
1.05154
1.05849
1.42624
1.29289
1.3552
1.19583
1.17376
1.52334
1.34163
1.40381
1.21006
1.20063
1.06967
1.22493
1.23548
1.13651
1.83199
1.69019
2.19917
1.33136
1.27725
1.66446
1.45632
1.2366
1.32
1.06226
1.58086
1.71202
1.32135
1.25539
1.12433
1.17756
1.2532
1.07651
1.18585
1.16029
1.27
1.09107
1.0172
1.02261
1.14195
1.16036
1.11376
1.12696
1.382
1.22171
1.22465
1.27522
1.25514
1.19626
1.26133
1.36635
1.30132
1.37166
1.40102
1.47057
1.40077
1.51038
1.07553
1.1887
1.07041
1.16921
1.3064
1.28911
1.18813
1.25185
1.3106
1.2245
1.23959
1.4058
1.34993
1.31001
0.946107
0.924336
1.06332
1.18785
1.02572
1.02246
1.13674
1.43186
1.62078
1.5581
1.48179
1.54756
1.60223
1.69004
1.318
1.45763
1.43035
1.44507
1.42337
1.54557
1.58041
1.43383
1.57529
1.54476
1.52875
1.48065
1.60467
1.66326
1.23997
1.3047
1.22457
1.21131
1.36609
1.24579
1.31285
1.18854
1.45308
1.31922
1.26533
1.14043
1.26447
1.40141
1.19223
1.4466
1.31835
1.2518
1.13158
1.25734
1.38653
1.13765
0.964199
1.05197
1.13639
1.0494
1.15319
1.23298
1.27086
1.4207
1.41639
1.46529
1.38353
1.3054
1.36642
1.74566
1.70031
1.64597
1.71985
1.95055
1.83243
1.80494
1.62332
1.57478
1.52869
1.65521
1.83721
1.76184
1.70915
0.565737
0.601039
1.36184
0.720835
0.618474
0.510597
0.62247
0.429906
0.297489
0.657751
0.553267
0.58018
0.621318
0.537509
0.555252
0.494852
0.4132
0.264608
0.95718
0.759297
1.12402
0.760441
0.668228
1.07759
1.06779
0.513022
0.54029
0.556008
0.348642
0.388265
0.395431
0.364775
0.5752
0.510908
0.535893
0.368115
0.450052
0.40343
0.507935
0.53651
0.546735
0.563408
0.55876
0.502822
0.537407
0.578345
0.673917
0.728331
0.63293
0.564921
0.463938
0.46619
0.554063
0.289289
0.36169
0.347371
0.371479
0.331412
0.318534
0.393993
0.26779
0.271573
0.335925
0.305323
0.309487
0.404755
0.329436
0.52107
0.44989
0.426673
0.450576
0.587446
0.483746
0.542568
0.839073
0.972042
0.685287
0.827456
0.649746
0.861686
0.754237
0.602978
0.550497
0.557065
0.428661
0.48786
0.412183
0.480343
0.682061
0.664786
0.589359
0.582214
0.482588
0.588978
0.672934
0.561224
0.366375
0.457329
0.512561
0.523377
0.419176
0.597158
0.92309
1.17008
1.55215
0.858668
0.73333
1.20742
1.16007
0.665359
0.599389
0.656932
0.489346
0.587326
0.522654
0.56558
0.582973
0.633572
0.632879
0.592723
0.677925
0.657108
0.621613
0.629642
0.794173
0.755418
0.699787
0.640757
0.744994
0.816366
0.404534
0.41641
0.375493
0.482997
0.361135
0.434022
0.448117
1.29234
1.13534
0.984957
1.1132
0.98188
0.867535
0.982147
0.480104
0.596592
0.562738
0.621999
0.520724
0.515496
0.568704
0.572209
0.66921
0.542568
0.498345
0.464289
0.624099
0.63533
0.447728
0.354235
0.370692
0.49125
0.456817
0.394508
0.575598
0.725487
0.657977
0.645687
0.787012
0.804971
0.729367
0.731921
0.87302
0.795342
0.776645
0.947736
0.909619
0.849812
0.994371
0.681996
0.730437
0.660498
0.753611
0.862973
0.840092
0.76821
1.02992
0.930532
0.894328
0.857363
1.06604
0.938125
0.974765
0.866039
1.00083
0.897942
0.821275
0.910229
0.81395
0.923454
1.01643
1.24351
1.09653
1.1812
1.04288
1.13281
1.27508
0.85791
1.07763
1.01319
1.00396
0.926402
1.0744
1.15287
0.817834
0.976128
0.943252
0.958136
0.903797
1.04014
1.08627
0.852847
0.962444
0.965842
1.07253
0.952045
0.859001
0.962154
1.21945
1.30493
1.16024
1.21178
1.42416
1.28676
1.3522
1.08896
1.19481
1.06581
1.16833
1.32805
1.20523
1.30138
0.188264
0.355654
0.505245
0.793669
0.218795
0.252291
0.322598
0.550421
0.493074
0.440652
0.23362
0.272079
0.611916
0.525695
0.805498
0.517718
0.272194
0.52101
0.388182
0.346731
0.399363
0.431642
0.415139
0.351124
0.36329
0.497806
0.403514
0.442648
0.479622
0.566777
0.410533
0.501501
0.314764
0.323358
0.377302
0.421457
0.414569
0.366315
0.390274
0.811925
0.647937
0.635855
0.833699
0.687436
0.634419
0.805656
0.292579
0.199929
0.29269
0.0706743
0.132411
0.298311
0.242111
0.683561
0.229134
0.339379
0.220529
0.466699
0.281588
0.554776
0.345062
0.44009
0.346455
0.251077
0.309799
0.38618
0.311249
0.180948
0.225088
0.289815
0.272712
0.213564
0.195095
0.274798
0.50785
0.586082
0.591519
0.364899
0.394034
0.468053
0.415003
0.465205
0.498496
0.454521
0.384564
0.367439
0.414586
0.36972
0.233935
0.115139
0.142403
0.288794
0.212571
0.204659
0.307679
0.452163
0.783382
0.583434
0.498477
0.510752
0.393597
0.657654
0.845693
0.682749
0.704848
0.577191
0.6221
0.500527
0.728218
0.496657
0.513084
0.465723
0.421318
0.531171
0.470528
0.471953
0.286518
0.216129
0.250134
0.231714
0.209123
0.300907
0.25602
0.254802
0.27443
0.279638
0.342041
0.335653
0.316005
0.334507
0.174963
0.158815
0.190395
0.126113
0.156941
0.151394
0.180749
0.277158
0.202228
0.232145
0.258189
0.289466
0.281683
0.22312
0.428615
0.502118
0.515412
0.41912
0.39615
0.413905
0.548109
0.353939
0.435133
0.331829
0.477678
0.368411
0.363316
0.477187
0.352516
0.346085
0.508538
0.315846
0.265031
0.409864
0.419986
0.0960703
0.0991984
0.155379
0.104759
0.141926
0.146405
0.15978
0.166015
0.165821
0.138973
0.165855
0.211218
0.197025
0.187843
0.213001
0.22145
0.184943
0.186427
0.250181
0.231141
0.212305
0.289955
0.20793
0.265271
0.289341
0.250187
0.315646
0.228543
0.253699
0.347292
0.315225
0.316174
0.29072
0.253554
0.358726
0.457007
0.381346
0.345235
0.38076
0.553477
0.420308
0.504568
0.177335
0.15241
0.137772
0.1766
0.235026
0.211688
0.198742
0.235329
0.24419
0.191627
0.193461
0.264449
0.242414
0.214797
0.510627
0.440478
0.400331
0.408811
0.589637
0.461574
0.53156
0.204755
0.247089
0.287073
0.263818
0.239405
0.253505
0.221726
0.328546
0.420522
0.288254
0.30665
0.360468
0.262545
0.380055
0.217362
0.283471
0.264569
0.274794
0.247247
0.259071
0.23899
0.431659
0.612975
0.540784
0.63101
0.474347
0.492568
0.564626
1.555
1.84294
1.66057
1.63719
0.942375
1.28913
0.860243
1.25059
0.9386
0.64214
1.10707
1.01717
1.07505
0.99057
1.21038
1.00591
1.13977
1.21732
1.10843
1.29883
0.785375
0.845124
0.776042
0.686608
1.13857
1.03978
1.21152
1.31307
0.684623
0.885459
1.17725
0.943821
1.59562
1.95861
1.62077
1.5185
1.61108
1.21006
1.26761
1.44193
1.29779
1.19157
1.50448
1.36952
1.41003
1.59725
1.08761
0.993501
1.1492
0.781295
0.916351
1.12982
0.974162
1.56569
1.72589
1.53653
1.46167
1.55632
1.27042
1.7055
0.642098
0.645838
0.720347
0.961899
0.788809
0.822389
0.811578
0.906998
0.5823
0.643202
0.625442
0.816694
0.624112
0.800342
1.43034
1.31231
1.48986
1.3427
1.37495
1.17876
1.55199
1.37716
1.56742
1.46803
1.72121
1.65993
1.66071
1.7751
1.17521
0.989468
1.25185
1.22864
1.03253
0.981299
1.13465
1.28894
1.38
1.14668
1.42946
1.71495
1.25279
1.37408
0.830065
0.659727
0.607217
0.71065
0.658011
0.827716
0.876213
0.645623
0.833239
0.80895
0.738927
0.67998
0.845012
0.897654
1.2365
1.22932
1.18254
0.954183
1.03362
1.00562
1.47689
1.8301
1.90642
1.67165
1.82925
1.85885
1.82633
1.59348
1.70869
1.56757
1.62762
1.47802
1.67803
1.7151
1.46271
1.61931
1.70279
1.55739
1.52777
1.66532
1.73984
1.51542
1.27652
1.27805
1.55116
1.3327
1.24662
1.3295
1.30089
0.960285
1.13803
0.994849
0.993616
1.17876
1.03635
1.1373
0.773337
0.78911
0.721818
0.888545
1.00481
0.937294
0.951097
1.15006
0.989725
0.990867
1.01241
1.2025
1.05576
1.15864
1.13949
1.40997
1.75711
1.6402
1.10903
1.36046
1.24872
1.33045
1.26767
1.58451
1.53795
1.26456
1.33147
1.27296
1.43641
1.61332
1.73613
1.62251
1.21951
1.35714
1.34119
1.35253
1.22546
1.26175
1.30876
1.26059
1.34993
1.41842
1.26006
1.32355
1.27668
1.33341
1.30961
1.35867
1.42088
1.05089
1.23851
1.15468
1.2516
1.09425
1.1068
1.19377
1.2269
1.05963
1.29182
1.15945
1.25829
1.3048
1.26848
1.36645
1.18412
1.20064
1.27865
1.27345
1.24252
1.16572
1.36858
1.37743
1.31924
1.42276
1.55278
1.48626
1.48823
1.08619
1.06241
0.994349
1.13525
1.3066
1.2292
1.19615
1.26648
1.30038
1.39334
1.39164
1.48916
1.48049
1.37903
1.27451
1.3763
1.31089
1.39457
1.48243
1.47545
1.38109
1.26351
1.48699
1.42769
1.44086
1.35617
1.31659
1.39625
1.48104
1.60075
1.65828
1.59519
1.5694
1.56605
1.48828
0.911046
1.10602
0.913858
1.21067
0.953334
0.871992
1.21449
1.15144
1.33281
1.30835
1.13091
1.04565
0.813954
0.89827
0.849434
0.845858
0.921017
0.962985
0.925264
0.804869
0.869218
0.929934
1.1555
1.109
1.02669
1.01406
0.92654
0.923172
1.02805
0.832368
0.923579
0.829621
0.96474
0.876843
0.882483
0.981589
1.08455
1.1393
1.01954
0.958948
1.14356
1.02949
1.06958
0.998266
0.896332
0.849607
0.913295
1.0643
0.969225
1.0141
1.02987
1.01901
0.937848
0.952076
1.12644
1.03893
1.04852
1.55784
1.59757
1.51987
1.6577
1.83081
1.70886
1.74825
1.45136
1.72164
1.58632
1.39694
1.69642
1.54526
1.53674
1.23324
1.14203
1.05393
0.990349
1.16642
1.08102
1.08411
1.35358
1.27646
1.15722
1.27545
1.49076
1.41102
1.3524
1.33343
1.22799
1.14663
1.26611
1.46728
1.38896
1.34325
1.79025
2.07177
2.01348
2.01125
1.92089
1.86085
1.90783
1.81306
1.64401
1.55625
1.40459
1.62911
1.54314
1.48362
1.86297
1.19555
1.21464
1.45802
1.60774
1.32841
1.75779
1.33865
1.57806
2.17187
2.72693
1.99978
1.74253
1.43746
1.99154
1.45242
1.21339
1.29782
1.30357
1.13942
1.15691
1.27218
1.28469
1.24992
1.42534
1.34434
1.26991
1.19703
1.32339
1.39802
1.56628
1.54025
1.38063
1.68044
1.52195
1.51212
1.66011
1.37675
1.46973
1.38655
1.51092
1.39275
1.40409
1.52365
1.1202
1.21814
1.1419
1.30258
1.23728
1.25815
1.32723
1.70857
2.01232
1.83952
1.85542
1.68214
1.83324
2.0286
1.517
1.51581
1.43054
1.44357
1.6481
1.52109
1.56585
1.26292
1.26148
1.18591
1.30306
1.45939
1.38234
1.37602
1.64
1.91672
1.7962
1.7784
1.64141
1.8018
1.95767
1.37428
1.60456
1.52046
1.58573
1.50253
1.66107
1.75642
1.42922
1.50744
1.36744
1.38665
1.60529
1.52713
1.45518
1.43166
1.66045
1.59735
1.66038
1.51381
1.57385
1.50713
2.3454
1.97585
2.12073
1.99703
2.43595
2.22091
2.17962
1.88051
1.789
1.69089
1.85056
2.20881
2.06807
1.96608
2.12515
1.79825
1.9107
1.73627
1.64123
1.81452
1.92728
2.52663
2.23668
2.39892
2.02982
2.44764
2.28134
2.16628
2.91853
3.13102
2.59473
2.89194
3.994
3.26737
3.49784
3.28083
4.30296
4.593
4.57835
3.75992
3.72844
3.98456
0.466612
0.818641
1.77018
0.666803
0.609455
0.903603
1.12512
0.740702
0.554251
0.845678
1.13009
1.65265
1.25065
2.43726
1.46368
1.09532
1.74884
0.479465
0.488328
0.505199
0.508575
0.525598
0.555144
0.533766
1.39097
2.12404
1.76244
3.06127
2.6177
1.89947
2.29893
0.549621
0.720383
0.584164
0.742216
0.604728
0.642577
0.798635
0.555988
0.635553
0.57751
0.611817
0.644639
0.674706
0.585801
0.517529
0.5795
0.538621
0.5926
0.607767
0.638228
0.56694
0.972241
0.902677
1.08628
0.918775
1.08982
1.00827
1.21633
1.11094
1.39562
1.24482
1.37216
1.23558
1.38891
1.54049
0.821063
0.730262
0.66485
0.707122
0.96874
0.881466
0.777735
0.779494
0.673796
0.625407
0.687714
0.932633
0.740925
0.861491
1.52302
1.53912
1.5046
1.67371
1.63146
1.67834
1.80949
0.653868
0.688022
0.777936
0.669879
0.704308
0.721919
0.623575
0.994603
1.35622
1.21422
1.21275
1.10571
1.35643
1.51019
0.757124
1.04186
0.897062
1.02606
0.815267
0.949148
0.833219
1.02262
1.34619
1.21428
1.23134
1.11801
1.3535
1.49755
1.64024
1.91766
1.79295
1.86647
1.7456
1.92715
2.0524
1.51751
1.50449
1.37016
1.54558
1.88115
1.70056
1.71591
1.56009
1.57082
1.39725
1.56269
1.95283
1.75892
1.7322
1.70664
2.04014
1.84401
2.10466
1.87623
2.0121
2.24562
1.62913
1.88799
1.75138
2.0109
1.83327
1.96164
2.13612
1.34151
1.33587
1.22154
1.50576
1.84175
1.67256
1.66205
1.99973
1.98511
1.86363
2.07937
2.3891
2.20737
2.25561
2.09428
2.16593
1.966
2.13454
2.51237
2.37432
2.26534
1.74258
2.14258
2.17748
2.18235
1.96163
1.92531
1.93565
2.29124
2.34173
2.06838
2.20301
2.76512
2.48352
2.42499
0.452009
0.820126
0.741515
0.94203
1.56097
0.847194
1.1212
0.927198
0.692792
0.74068
0.616931
0.680827
0.565006
0.480794
0.842745
0.702805
0.664197
0.853906
0.726585
0.493626
0.696746
1.01349
0.734617
0.948509
1.18154
0.921465
0.79193
1.08699
0.743751
0.682099
0.745588
0.81386
0.794967
0.800823
0.769366
0.68793
0.726869
0.716121
0.73888
0.747774
0.763617
0.765567
0.66739
0.581885
0.547095
0.788735
0.743055
0.624607
0.682443
0.618351
0.58226
0.844376
0.555304
0.696937
0.465372
0.49657
1.03516
1.45303
1.12067
0.978864
0.784571
0.541665
0.791107
0.690132
0.614748
0.564852
0.729591
0.720323
0.617055
0.648704
0.695821
0.52605
0.664733
0.696831
0.577885
0.553001
0.718224
0.535814
0.511743
0.646058
0.699028
0.549241
0.558422
0.622249
0.483797
0.541548
0.502458
0.567703
0.565654
0.562034
0.608736
1.25689
1.89303
1.62229
1.3309
1.05647
0.900821
1.22411
0.627353
0.611704
0.556893
0.606391
0.741084
0.668115
0.664378
0.677986
0.791541
0.745424
0.761848
0.703935
0.810084
0.767082
0.833181
0.782534
0.794211
0.800826
0.824607
0.832208
0.796869
0.457369
0.446678
0.447172
0.492679
0.489435
0.4822
0.479121
0.881971
0.873001
0.841838
0.839514
0.893119
0.872133
0.837941
0.706248
0.887539
0.786771
0.82734
0.73595
0.81145
0.916262
0.913675
0.868536
0.826037
0.708402
0.864961
0.796722
0.778716
0.483628
0.533237
0.486959
0.563741
0.526968
0.531679
0.601295
1.04596
1.4105
1.63456
1.74084
1.30094
1.20433
1.58533
0.724119
0.757238
0.609376
0.5955
0.749809
0.580057
0.737624
0.867055
0.781545
0.788825
0.679415
0.749364
0.750805
0.693085
0.611098
0.60409
0.689965
0.619562
0.687053
0.775796
0.687631
0.694176
0.892301
0.784444
0.846774
0.762027
0.86444
0.961144
0.4615
0.445195
0.450566
0.489022
0.491324
0.503879
0.480888
0.738844
0.76074
0.639272
0.616972
0.771228
0.59969
0.69743
0.862822
0.914841
0.821894
0.955786
0.874301
0.840477
0.93156
0.79923
0.785088
0.738265
0.87752
0.839121
0.798593
0.843765
0.665415
0.768116
0.803266
0.792704
0.734438
0.731706
0.710604
0.64145
0.731965
0.763294
0.644858
0.721354
0.64664
0.683158
0.560889
0.522856
0.523398
0.52035
0.551672
0.562812
0.513829
1.01005
1.01357
0.946059
1.13322
1.04695
1.07166
1.18268
0.97019
0.98302
0.871998
0.892638
1.10482
1.00603
0.987801
0.522044
0.574534
0.501034
0.549095
0.69108
0.573601
0.644687
0.869153
0.670623
0.775862
0.871054
0.835963
0.975036
0.759476
0.82277
0.869256
0.773619
0.845264
0.999692
0.891919
0.952033
0.615234
0.63052
0.569744
0.578026
0.740014
0.628469
0.669988
0.531554
0.53434
0.603718
0.562179
0.551019
0.579056
0.519466
0.991106
1.00161
0.882514
0.975681
1.22189
1.09873
1.08604
0.854348
0.701164
0.768282
0.86626
0.862908
0.961568
0.774016
0.933242
0.976399
0.897849
0.871496
1.01117
0.917961
0.962823
0.915737
0.908485
0.835467
0.949692
1.11977
1.04221
1.03593
1.02576
1.05561
1.15274
1.14972
1.04484
1.17604
1.17854
1.13228
1.3865
1.25834
1.34871
1.20599
1.32404
1.47157
1.11455
1.35852
1.24422
1.2476
1.14445
1.28695
1.3953
0.600698
0.766225
0.690003
0.789961
0.629434
0.656661
0.716113
0.996594
1.14282
1.08965
1.20762
1.13507
1.23795
1.30302
1.08535
1.32592
1.20999
1.22117
1.10397
1.23843
1.35252
0.924675
1.06829
1.08405
1.13477
0.971709
1.03801
1.01934
0.971162
0.93374
1.20633
0.946223
1.08695
1.07788
0.851205
1.0753
1.34035
1.33136
1.27775
1.21428
1.1833
1.1771
1.50239
1.48945
1.37219
1.43229
1.69961
1.58282
1.54494
1.4486
1.37605
1.28608
1.39628
1.67163
1.56512
1.47911
1.07891
1.12838
1.07806
1.26114
1.21051
1.21843
1.27357
1.23161
1.28193
1.18202
1.33672
1.50111
1.39749
1.44155
1.27568
1.42278
1.28393
1.47158
1.31673
1.32692
1.48715
1.18842
1.2519
1.13709
1.27884
1.4463
1.33526
1.39125
1.47923
1.45302
1.34257
1.38657
1.65651
1.49729
1.54684
0.347976
0.762302
0.321531
0.415778
0.547762
0.440483
0.350022
0.432051
0.278861
0.403866
0.650531
1.02511
0.471213
0.31653
0.740152
0.60116
0.269234
0.294056
0.284196
0.322658
0.325605
0.340378
0.345071
0.384881
0.335886
0.409197
0.358833
0.428491
0.467955
0.38989
0.298376
0.307878
0.291046
0.386843
0.347328
0.335872
0.346688
0.483999
0.647363
0.517365
0.646644
0.528985
0.576505
0.705824
0.317951
0.309269
0.300593
0.339945
0.351323
0.351958
0.343749
0.49486
0.361724
0.443257
0.516756
0.479613
0.580274
0.428096
0.33519
0.313971
0.306649
0.358856
0.411419
0.381675
0.372848
0.41562
0.424676
0.388819
0.375734
0.414848
0.412352
0.382143
0.373524
0.436684
0.383456
0.393509
0.466886
0.441801
0.403357
0.410219
0.541862
0.480657
0.534954
0.525166
0.453265
0.60937
0.61702
0.700918
0.559691
0.632496
0.846019
0.70168
0.772695
0.632607
0.692537
0.577839
0.640174
0.827506
0.709563
0.765495
0.377317
0.382324
0.423042
0.411384
0.386892
0.413794
0.377903
0.408113
0.478842
0.473701
0.505663
0.427429
0.454803
0.437973
0.598172
0.562878
0.768399
0.584954
0.672062
0.503538
0.684821
0.711062
0.933713
0.889548
0.922043
0.792938
0.794564
0.846101
0.253734
0.564545
1.19592
0.335705
0.275526
0.313404
0.359145
0.340196
0.383475
0.510218
0.746893
0.37975
0.389991
0.700445
0.443027
0.614542
1.0212
0.204918
0.263608
0.221873
0.24704
0.239368
0.287009
0.292483
0.889313
0.857245
1.21086
1.35764
0.836993
1.18034
1.59321
0.328652
0.306395
0.262683
0.2882
0.360397
0.420454
0.3393
0.630426
0.492145
0.431632
0.612795
0.474229
0.540691
0.683331
0.259836
0.240425
0.218206
0.264996
0.2473
0.283466
0.292929
0.722041
0.788476
0.950546
0.773028
0.936838
0.844746
1.00414
0.285937
0.324266
0.28123
0.324232
0.388531
0.361645
0.335711
0.308753
0.288911
0.278795
0.308656
0.334934
0.334621
0.313354
0.306917
0.372738
0.313735
0.335086
0.411379
0.381527
0.347889
0.343512
0.30923
0.301168
0.317891
0.351187
0.351828
0.321572
0.479567
0.331504
0.412017
0.4796
0.455021
0.390015
0.554199
0.516759
0.428023
0.36149
0.494895
0.479706
0.403849
0.580447
0.67353
0.599983
0.530216
0.599986
0.823834
0.675029
0.746844
0.559391
0.772399
0.632416
0.616979
0.845864
0.701718
0.762124
1.05227
1.10667
1.25175
1.23803
1.09368
1.15392
1.29818
0.911155
1.06907
0.998112
0.98784
0.911025
1.06893
1.14408
0.925862
1.07358
1.01228
1.00359
0.922757
1.07699
1.15229
0.338342
0.357649
0.364953
0.391706
0.369526
0.362232
0.338541
0.366184
0.447355
0.458101
0.439789
0.408319
0.39976
0.39419
0.561962
0.530571
0.542767
0.74075
0.461551
0.654965
0.642004
0.683879
0.916034
0.927543
0.871031
0.779758
0.766095
0.832491
1.35143
1.1593
1.30408
1.21873
1.4238
1.28614
1.3613
1.29424
1.21311
1.14854
1.21293
1.42689
1.28432
1.35753
1.07851
1.08711
0.995416
1.14936
1.32872
1.23636
1.23128
1.28667
1.50309
1.50538
1.45933
1.3676
1.36676
1.42782
0.394156
0.832549
1.42789
0.338648
0.428691
0.594466
0.508281
0.407178
0.766472
0.567055
0.461466
0.722337
1.13693
0.984382
0.695028
1.56788
1.13179
0.995596
1.28478
1.58366
1.7188
1.2892
1.81295
1.59413
0.338501
0.365119
0.357718
0.362291
0.369723
0.391791
0.383577
0.366251
0.458033
0.447323
0.399771
0.408418
0.439794
0.510133
0.56186
0.542595
0.530517
0.641941
0.654765
0.740605
0.614404
0.683838
0.927623
0.916058
0.766078
0.779668
0.870981
1.02126
0.394758
0.438804
0.402808
0.424217
0.448755
0.461593
0.413905
0.380122
0.417504
0.388433
0.417517
0.435703
0.448144
0.407206
1.1496
1.08737
1.07857
1.23139
1.23673
1.18053
1.32897
0.525004
0.499108
0.45229
0.483232
0.646443
0.531214
0.576441
0.505181
0.475582
0.435891
0.475563
0.628391
0.516376
0.567001
0.630205
0.860735
0.754914
0.848284
0.801533
0.705178
0.963612
1.02947
0.994109
0.883756
0.9866
1.26188
1.11121
1.13712
0.60842
0.839697
0.734631
0.839612
0.783944
0.694942
0.951605
1.01601
0.979009
0.864883
0.978986
1.2602
1.10337
1.13184
1.28689
1.50315
1.50538
1.36685
1.3679
1.45954
1.59324
0.451323
0.475325
0.469234
0.528737
0.485031
0.491517
0.438869
1.18395
1.42265
1.32776
1.41112
1.29178
1.43541
1.54995
1.17679
1.43612
1.32717
1.41499
1.28933
1.43627
1.55937
0.519987
0.703508
0.614578
0.6944
0.562368
0.569686
0.632955
0.955147
0.888768
0.880525
1.2109
0.788693
1.07562
1.08012
1.10629
1.40424
1.39918
1.40562
1.24358
1.24554
1.26179
1.45402
1.54404
1.66939
1.56141
1.79816
1.67203
1.69078
1.69623
1.56451
1.45892
1.56464
1.81623
1.68601
1.69627
1.55418
1.55815
1.41549
1.55865
1.85975
1.70036
1.69398
1.95515
2.11489
1.94483
1.684
1.9845
1.82555
1.81709
1.49951
1.77682
1.78827
1.68771
1.67275
1.57852
1.60944
1.43351
1.54427
1.3673
1.38093
1.65879
1.45067
1.56382
1.74294
1.76142
2.37687
2.33719
2.12001
1.45164
1.34601
1.73452
1.48637
1.46905
1.36721
1.61755
1.52106
1.4991
1.66043
1.62314
1.91791
1.76636
1.84001
1.67802
1.82976
2.00687
1.40102
1.62758
1.56664
1.59791
1.54052
1.71352
1.78198
1.59867
1.91691
1.76275
1.81354
1.64677
1.82321
2.01148
1.55308
1.84302
1.62445
1.44239
1.72626
1.51355
1.6278
2.1201
1.93524
2.11299
2.01704
2.49127
2.22385
2.23996
1.93116
1.82347
2.04046
1.90341
2.23141
2.10917
1.99347
2.24957
2.01629
1.90544
1.70612
1.78172
1.89488
1.98365
2.3278
2.69806
2.90369
2.76292
2.61673
2.46382
2.55356
2.66833
2.35156
2.53906
2.87823
2.5039
2.11164
2.22578
4.33062
5.7779
5.68236
5.04021
5.1129
6.93261
7.07619
5.28477
5.66167
4.45462
5.04483
7.87111
6.44851
6.01015
6.83238
5.79518
4.98413
7.94947
9.56037
7.79547
6.58381
4.75238
6.43646
6.00197
5.6401
5.28985
7.39358
7.98979
26.8359
44.0622
57.745
20.2369
14.4741
46.9704
37.0175
10.7555
7.88018
9.36849
5.17292
5.80149
6.00465
6.8309
5.93223
8.28898
7.17148
6.23225
7.12923
8.98122
10.4876
5.85439
8.34397
9.30317
8.9993
6.90434
7.54378
7.0169
7.88723
12.4673
15.3369
10.4519
12.706
6.68908
7.99963
7.66826
6.07283
6.16993
11.494
8.76788
8.98196
11.8119
8.20118
9.87761
12.047
10.1068
8.39261
12.641
15.5993
16.602
8.83223
14.2319
13.2233
11.4117
7.1783
8.26889
8.00277
6.86004
6.40293
9.43524
13.6188
10.264
12.4604
42.8487
44.1051
22.7431
51.757
46.3719
48.1696
38.1348
8.46241
14.003
13.6537
17.5372
10.7776
11.0596
18.0097
16.0228
9.09783
14.7293
11.6424
20.6873
12.6823
18.9781
7.63502
11.3862
8.82684
15.4968
11.6251
13.6868
18.3371
15.0331
19.9287
24.4116
11.8905
19.2046
15.7728
9.80949
13.8055
12.9211
10.5443
16.6316
28.0933
20.6869
22.4223
33.952
49.6084
66.7129
78.3396
56.445
10.1884
71.7404
21.2083
11.1455
18.1028
23.4245
14.3652
16.8899
27.4961
19.3492
25.5722
31.4357
20.4727
40.9192
25.3641
33.214
17.4603
12.7208
15.1882
20.5487
23.3117
24.3817
27.9185
18.7488
22.9679
14.0549
14.4441
31.2873
23.5979
19.2907
24.8853
16.9325
20.6418
32.2583
27.1597
32.7952
39.0551
15.2391
22.3071
32.9494
27.1024
16.6469
24.8696
20.3831
23.086
35.8319
21.4855
18.5578
29.48
33.8752
40.9853
25.4019
30.6881
18.9168
22.3238
47.7173
36.0576
30.0522
35.1764
22.2004
34.5477
28.2632
28.9645
41.8811
42.3878
3.57067
5.46104
3.52162
2.78945
5.33375
4.02591
8.12733
6.24352
3.13857
2.77175
2.47979
2.83573
3.21146
3.19389
3.6426
4.08035
3.14796
3.56801
4.17713
3.65212
4.17374
4.8132
4.05299
3.55257
3.11344
4.13146
3.61863
4.15938
4.78981
3.33598
4.62819
3.80579
4.61454
3.78929
4.35504
5.34688
1.64544
1.97241
1.45294
1.86586
1.87208
2.10014
2.40565
2.59141
1.58333
1.58719
1.39877
1.72348
1.54627
1.53959
1.69848
1.72523
2.0343
1.87306
1.86578
1.70132
1.86688
2.05202
1.71199
2.01624
1.84387
1.83799
1.68593
1.85862
2.0331
1.55744
1.40672
1.48614
1.63296
1.54639
1.71445
1.81602
2.49101
2.25908
2.21082
2.20183
2.031
2.04844
2.2501
2.24539
2.01748
1.89575
1.82208
1.71963
1.89707
2.0191
1.79412
1.85594
1.69521
1.88426
2.21499
2.07329
2.00432
2.79975
2.4889
2.31762
2.50311
2.23916
2.33007
2.09464
2.33521
1.90713
2.99286
2.50438
3.63812
3.27219
2.68081
3.00007
2.07753
2.06795
2.01421
2.25261
2.20793
2.19714
2.40774
1.56462
1.84783
1.72453
2.42826
2.29423
1.84265
2.75668
2.44228
1.70076
1.6421
1.64599
1.73625
1.78987
1.784
1.88776
1.32169
1.48148
1.48233
1.80851
1.49248
1.71847
1.56482
1.95726
1.3779
1.42476
1.36842
1.42921
1.48643
1.48898
1.55316
1.43141
1.60297
1.55826
1.4935
1.54797
1.62146
1.69103
1.48959
1.59714
1.60145
1.56991
1.5673
1.65934
1.71649
1.42701
1.62407
1.56497
1.49251
1.55343
1.62435
1.7026
1.72208
1.70311
1.64765
1.74726
1.9537
1.83451
1.83438
1.6607
1.84108
1.75281
1.75337
1.97293
1.85136
1.84189
1.6424
1.64611
1.73645
1.70135
1.88831
1.78484
1.79016
1.96778
1.95671
2.11178
2.10064
1.94792
2.07234
2.26248
1.8357
1.94523
1.81202
1.97108
1.87399
1.99635
2.11698
1.73781
1.89028
1.96598
2.00502
1.84273
2.00476
2.13962
2.11261
2.26418
2.07341
1.84893
2.1031
1.94953
1.96941
2.24263
2.39738
2.61363
2.17136
2.05504
2.19998
2.34263
2.47282
2.27291
2.10834
1.9617
2.09681
2.13454
2.28207
2.26844
2.44141
2.64293
2.36883
2.21152
2.0767
2.21098
2.82444
2.56944
2.30017
2.7651
2.44609
2.69108
3.0686
2.49954
2.13789
2.28458
2.56402
2.37079
2.58888
2.80546
2.46401
2.45111
2.25123
2.68784
2.4298
2.64759
2.92616
3.13457
2.53521
2.85649
2.63552
2.87125
2.54872
2.36247
3.44299
2.73465
3.11199
2.96841
3.81045
3.28915
3.41257
2.88926
2.95313
2.63935
2.88002
3.57745
3.21994
3.16016
2.6157
3.26475
2.81817
2.91075
3.70491
3.35693
3.17497
2.2578
2.86389
3.10904
2.50125
3.53006
2.89156
3.69934
3.26789
2.20975
2.40342
2.04607
2.19867
2.02897
2.24634
2.48829
3.05124
2.72436
2.59099
2.61957
2.38455
2.47038
2.74994
2.79582
2.48359
2.23576
2.32853
2.09182
2.31318
2.58816
3.07575
2.76294
2.63332
2.49436
2.40949
2.63214
2.76147
3.18743
3.4404
3.86994
3.1734
3.42825
2.8844
3.06927
2.9038
3.15915
3.58334
2.8049
3.157
2.59595
2.90203
2.85902
3.24096
3.55431
3.14136
2.77031
2.56581
2.88824
4.06685
3.58575
4.25626
4.80858
4.21248
3.24712
3.77255
4.21706
3.68704
4.09307
4.71441
4.08087
3.57538
3.26066
4.69915
4.07249
4.68873
4.80601
6.55443
5.59114
5.58407
5.03656
4.3641
5.35425
5.03217
7.33958
5.85432
6.23774
4.33431
4.99953
6.22938
5.02081
7.34961
5.84023
6.23398
7.66104
19.2174
5.43854
11.1142
29.9833
13.9276
7.60237
8.7852
9.74537
4.41229
4.84559
3.62218
3.35971
3.77519
6.44356
9.18505
5.71847
3.09033
3.0169
2.82358
3.14375
3.4031
3.46956
3.82017
3.93227
4.38176
3.50887
3.85208
3.90463
4.35954
5.00015
4.01987
3.51762
3.20553
3.6621
4.05664
4.17264
4.67757
4.26489
3.76837
3.40226
4.93904
4.32302
3.85577
4.32262
4.20075
5.48071
4.70054
4.82799
6.43617
5.61797
5.47008
4.99551
4.96183
4.3799
6.70724
5.74144
4.97698
5.75926
5.45581
5.44208
4.64742
4.13154
4.76443
5.58626
4.80101
4.64016
4.6689
4.01995
4.76297
5.57135
5.55408
6.55338
7.64165
7.66942
6.43754
7.7944
6.58059
5.60476
6.57978
6.40934
6.40918
5.45219
7.76109
6.55361
7.77737
9.29803
8.07402
23.4298
11.6693
6.80068
11.8282
9.67281
38.2313
29.2807
5.79655
5.80204
4.99518
7.73052
6.50661
7.70807
9.30834
6.86293
8.72215
10.513
7.33968
8.74191
6.86328
5.84903
6.41233
6.42625
5.42387
7.86061
6.55934
7.80625
9.44506
12.0999
50.3977
30.5991
49.1476
21.864
118.887
83.1812
7.36841
6.86573
5.82594
8.85831
6.87238
8.17543
10.7019
9.12525
9.19087
7.62363
9.3536
14.0512
11.3092
11.4508
8.05653
8.06437
6.80245
11.4166
9.28782
11.4052
14.2448
9.75731
8.11615
6.80832
14.5464
11.7006
9.39302
11.4982
12.9321
10.5803
8.14461
9.80242
16.4039
11.8798
13.1134
10.0544
10.9036
8.22956
9.89694
17.5773
13.4198
12.2649
14.8557
9.68987
11.9142
23.5092
18.3611
14.3138
18.1356
9.47641
15.1304
18.8034
18.6286
11.5752
14.4137
23.3274
9.88162
18.8298
14.9543
12.4092
15.5076
19.5693
24.8793
12.0269