/*--------------------------------*- C++ -*----------------------------------*\
  =========                 |
  \\      /  F ield         | OpenFOAM: The Open Source CFD Toolbox
   \\    /   O peration     | Website:  https://openfoam.org
    \\  /    A nd           | Version:  9
     \\/     M anipulation  |
\*---------------------------------------------------------------------------*/
FoamFile
{
    format      ascii;
    class       volScalarField;
    location    "0.00305";
    object      rhoE;
}
// * * * * * * * * * * * * * * * * * * * * * * * * * * * * * * * * * * * * * //

dimensions      [1 -1 -2 0 0 0 0];

internalField   nonuniform List<scalar> 
26360
(
421445
513137
755832
621342
566526
769069
375325
430371
364525
328898
320403
413232
372411
393635
365238
343107
607291
529733
467901
423003
317643
300094
302643
338341
319838
322985
341815
324038
310367
305979
332569
327122
346399
352487
335167
323084
315983
339469
348030
360233
369851
340885
361135
337858
389672
385305
360002
363869
754070
783339
574854
450908
692330
464737
728267
352007
418698
394975
399526
355789
376661
423907
353037
342919
331976
371195
358522
381623
395794
350388
369094
344925
403314
395499
369008
375870
367294
405460
360761
382245
439617
389585
430691
416453
368150
384450
362080
400182
354547
358345
310041
295310
341146
369586
326723
376527
390981
335211
329741
364514
376149
345475
373712
343299
359189
357774
361675
370431
337900
372165
340746
355949
354002
335725
352912
368253
354909
368766
352813
353159
397482
385532
396958
390698
374088
373325
390493
310074
293567
310267
311221
328151
327961
312980
384221
384429
398897
372198
389944
390023
371172
300725
297583
309790
327733
318758
328195
315350
336882
355503
352957
369647
373430
355627
360653
393746
404615
401783
385294
384192
371036
372474
323452
310689
304993
314420
311415
329902
333328
332598
352428
330734
366449
346702
366587
346617
409370
393557
388271
406514
382257
398783
376072
319442
318137
327572
346860
348384
337964
338884
339066
357586
335216
367035
368637
346648
347569
351522
368293
344403
371873
377172
349893
354078
395412
384931
372470
400274
387110
360787
360537
366456
357479
383421
413280
384636
395513
425579
647199
592011
732783
525335
791809
488296
771796
375513
435001
385575
451019
398813
410127
465272
391286
406248
377638
408743
458034
424544
440419
424877
396426
483196
490455
447364
401229
453472
412239
449840
397724
423824
503805
440247
482694
447231
437608
500156
407524
472193
415837
461512
735221
488461
749300
677556
428362
457167
393497
720760
727894
402933
410927
421456
453300
466283
477272
492151
450320
533053
501810
414447
434410
482270
510466
431726
471228
443854
543874
506775
524096
565439
323859
252650
330604
294441
260071
284957
391066
342393
334714
438587
293710
377429
305937
263763
399768
348667
254488
261367
263380
271421
273467
280230
282559
257012
269474
266111
279765
276283
285682
289594
268444
273623
284034
278876
289424
294451
300550
272087
287326
274284
304162
291044
293637
307022
290435
280876
277202
297069
315671
301450
310783
297524
333515
299928
343152
307863
310557
346362
281883
274422
285514
304568
296211
308135
317388
337401
307285
303173
314133
356112
318732
350601
299519
285477
291295
321833
306941
313792
329496
312431
356459
318900
363066
324524
331766
371679
374848
357741
320123
323138
378876
338090
361324
313977
307594
298604
322244
350272
332493
338901
327120
348361
372175
384146
332299
342538
366027
336675
365976
326931
340655
394663
351333
382164
282315
398412
227862
629214
418633
376869
314356
323455
357868
342435
668979
472517
518624
387409
449925
487953
390527
311489
289400
342881
306510
311775
351394
329664
233630
261719
246367
283978
255564
287277
240686
360315
317789
341926
333848
372327
352273
338682
436041
344721
355553
397761
425080
367743
362096
529915
371639
412327
387217
435250
381683
367677
301294
309728
329763
300038
317119
328536
317039
323835
316153
326357
347569
337548
337758
346887
354705
351392
370815
362780
349239
352053
358876
242083
224600
254387
256993
228179
231756
234858
290369
297897
283931
290767
305462
307157
300827
307769
298993
299033
328269
327654
317596
319596
338464
318783
325354
337922
340488
329012
328181
387097
377916
399216
371954
368726
370326
367856
253046
268590
261753
239523
232788
239566
246478
270187
283722
269694
253550
241134
243918
255639
230304
222172
224786
231964
226854
229371
234596
361119
363422
353107
353672
352167
360971
361396
310394
312930
315536
320521
320968
316054
322633
286216
293092
291494
309635
309931
304821
313312
537283
281203
260457
300536
318628
290002
275945
154771
120032
174292
169167
437583
419236
388251
336327
359335
170400
114406
381094
339681
549268
194760
190354
282059
295760
275469
267486
293482
163772
169401
163960
163883
398524
322050
320882
198099
301310
208971
330416
458606
435132
483327
522211
416534
415193
485107
304144
350289
314917
221569
190514
181577
205902
121318
134944
137163
140379
129318
129764
139032
121474
129366
187279
130205
138140
224048
157879
176777
152100
156464
156481
169099
153015
175142
401440
469868
264189
322401
236509
388374
275434
283838
286242
266038
172586
215547
181960
190466
451597
385873
343989
305527
249603
377456
426002
488621
217646
338149
356161
349841
242201
466795
175282
192191
264741
192556
186751
276430
286467
283537
270583
285515
184520
208007
193285
203844
461854
457265
474727
433824
498767
461203
482718
202321
219319
238513
190033
197923
226958
217148
146531
161576
140950
152343
143382
144534
156337
633616
455823
391740
501816
445446
320754
364508
159337
181012
159750
170683
155163
165325
176936
379989
461196
342428
276307
262512
400218
461049
200147
148691
164901
273210
220534
190445
320009
310099
229104
228324
324759
343836
257724
254487
215454
182163
187124
211098
214273
183588
210692
201949
191465
198826
225422
219811
217491
227301
332075
256296
284921
263211
287830
250445
303169
353437
419135
382617
291979
315962
283654
328429
250267
278407
244505
282340
246620
241584
275037
178199
201809
205964
180032
181520
207618
205245
188915
217309
214790
191081
186475
212086
215418
257364
290985
248912
284303
248604
256942
293964
230738
268594
237139
236479
260883
232250
267289
245297
278458
244744
240683
271271
242161
272143
76665.9
426065
145932
518322
271193
202825
292173
570420
333097
359275
102435
134325
270306
378736
418281
316769
113030
170673
361315
270535
329280
332002
365098
296094
258290
336010
289179
338003
338332
376711
264331
303012
395793
360365
412201
497101
437351
390522
486467
496345
443862
407667
501807
432431
361893
439454
113114
101482
151033
36783.5
59019.9
175175
103475
147985
88672.9
112872
95160.8
177194
112582
164656
163879
255483
211892
112154
162904
192537
133696
107608
118839
194606
196437
101340
104893
159692
334031
335741
365867
186940
226517
251276
197817
336391
385092
376707
300771
214646
297516
239597
249006
118382
115191
291762
224300
157731
381111
208691
417451
324228
237850
197475
162853
299411
473204
367450
410465
291427
267211
224373
352366
556842
474866
463764
419464
554656
427002
547521
185275
97123.4
118171
111985
105198
176773
131634
108850
119356
130236
151569
131663
129428
138584
77463.5
66021.7
82785.8
52770.4
70346.9
64609.9
75039.7
116042
82204.7
97234.7
102158
116866
107670
89343.8
180890
177655
186768
151608
152984
161427
217704
143469
150681
125047
167074
140847
128615
152376
325076
326409
502933
198706
185035
334451
477933
43918.3
42399.7
96876.4
43467.7
69690.6
65999.4
78631
70465.7
67713.2
58106.5
70393.8
85006
84653.2
76487
91725
100423
83148.6
81317.2
103731
103171
88361.5
104268
82313.7
100561
104042
93322.7
105467
88432.8
103822
128467
122380
114966
110711
99436.1
122445
145103
123876
121511
123680
144207
124073
145706
81856.4
73550.8
60771.9
81534.4
121062
99853.6
100859
144649
123222
95546.3
91558.6
140520
118217
111600
164501
146608
143336
133865
157303
138842
154856
89045.3
97829.1
126518
105908
104640
112454
89991.6
110344
117741
102178
109791
110508
98355.2
117837
103344
137261
136678
143366
118501
125587
123835
127889
144731
130860
151299
126427
132859
147985
505905
762941
522747
806389
594878
754462
359197
651927
482716
194002
318863
601021
669999
580939
706716
535243
662574
643844
283473
260304
214307
171433
229822
187073
292310
532936
492564
662419
245648
387023
509780
326292
994889
803261
595279
878577
689577
345093
332844
860940
844138
751552
915058
808351
750235
865123
561981
546323
630306
331488
436205
540779
419258
639649
898413
780325
638225
537141
437052
756036
208794
221031
272839
361291
229149
256174
273554
303318
183502
225392
199195
245570
181128
219434
750784
724411
832756
651157
612530
518357
762426
919333
952725
994622
940794
1.03987e+06
1.00896e+06
954544
326087
282890
411904
353480
303282
261656
293639
308487
287360
277647
281192
303039
315852
319105
208237
173403
175036
169460
172867
207488
200914
189665
217980
225978
181409
180814
214739
212472
471537
377172
407917
275090
318580
342925
570927
967487
758630
566868
809385
974095
785889
522117
930707
812303
911176
645138
818369
803802
601252
816616
990521
1.02951e+06
777542
996974
876488
648027
341618
330550
467382
372982
312114
360439
316992
254165
273555
245290
244494
264288
235884
272802
169096
175501
173508
205595
199474
198949
205275
309325
256115
271306
253502
281226
248488
284529
365692
582846
862400
652927
319995
422022
432028
402693
432594
605244
565565
356645
393932
421736
521851
706551
875635
689170
393027
500804
484155
303623
302059
292555
284051
291939
303076
297648
331186
302428
304448
330887
337626
315738
316730
241443
261652
230485
269471
232225
238780
270796
306977
286507
368467
293016
329928
308478
287386
467883
323367
353013
353557
365272
393222
361747
281720
289928
290302
303220
296021
295902
304064
185599
191228
185764
210541
214923
209603
214806
281455
301451
303308
303119
290433
301664
287324
306142
334646
329621
315002
308666
320903
298017
237384
262147
239121
267246
235054
240054
266498
306634
295837
305815
303599
302720
310834
294900
216077
234250
280325
398664
222254
246180
293950
238300
583844
501638
424747
341002
233518
253909
229917
221716
291812
255359
267959
221950
227020
229046
341135
311283
303341
254134
243826
237322
253201
216240
218751
213658
221369
218321
218080
224240
273679
301838
281234
237790
253114
239341
253266
225456
218952
215064
221055
229736
224350
227258
227325
231907
223278
224825
236340
233910
229919
344715
344721
342047
332643
345969
337246
337002
272223
287278
277215
248659
266050
255404
259867
241031
234726
230439
227812
238602
236204
232426
238406
233219
228117
233246
243745
238949
238420
243853
237159
232751
235740
247555
244110
240308
326012
331391
330400
343181
322702
332466
332600
258998
250608
246426
240226
252539
249034
244710
298523
242264
337592
361221
347510
311643
284739
248989
277681
324536
309578
268932
342325
303380
297077
252202
327156
346123
339465
274648
273653
296549
294437
319793
325706
333384
269892
272045
291396
287906
297895
317515
268684
311665
269560
285394
285032
354230
356597
348891
331700
315893
313028
328952
243906
244060
245417
251947
258692
259477
253701
296508
310955
309651
278232
272829
287264
291892
352421
337077
343611
309427
322063
305492
325669
246343
248610
246979
260335
258850
261479
256032
330170
338700
325144
319161
302409
301338
318070
250935
256412
254514
262385
263519
266941
267015
263746
292625
275257
275473
279436
292543
265505
275765
292780
270764
281730
276436
292446
267833
339326
323342
337719
302856
323326
306935
319405
266319
261932
259615
271987
280543
278741
273016
294020
294144
288729
274538
278073
281202
279508
308815
301911
300905
286099
294010
292875
285943
355688
379951
338829
346910
410373
364688
389533
356727
388602
414709
423141
368478
375582
401049
229687
177766
236494
190818
275350
233380
250763
288506
246889
207978
220054
223980
186867
250852
242986
199239
208060
220533
233579
225065
244668
236042
239947
248015
203055
297129
269564
323065
262934
221780
283214
209949
194873
213522
204458
223920
226850
208166
259847
267851
251795
255297
278234
270799
262915
239478
239198
231477
245581
259851
252719
253272
173307
183284
179214
190984
185685
196494
191888
176105
192372
181866
197961
187981
194174
203978
218594
252870
238202
240775
237112
222188
255369
200587
225583
218817
231599
221142
238078
213714
223583
207629
212838
227364
232198
218111
236787
260245
282574
281060
273769
266637
275212
267573
190507
196027
186852
212545
203721
199849
209444
245276
242992
265918
235417
251446
227834
259813
205038
214084
199208
225929
210646
205849
221126
245838
272091
248990
276820
253610
257695
280544
215536
210293
201070
207737
231179
216856
222755
199421
198445
189337
202149
220774
211612
211561
213829
240014
232777
233725
225075
243139
251328
223936
253873
242223
243372
229943
247729
260410
233633
227086
218062
214224
240267
224109
229927
274067
285950
262952
268085
303482
290940
280366
276608
260637
253860
263665
294264
271549
286366
216171
240117
242655
234952
226329
225068
231812
252186
247370
237728
255114
279628
264434
268973
227988
553141
173996
477098
231413
310199
349114
524599
483418
482079
340930
254183
332528
194133
323458
364531
290982
211965
223656
170347
180372
332926
300460
363440
296820
227015
200082
282430
433104
362395
465266
473248
508978
490884
409259
495997
514242
486891
518043
509222
506846
527008
313445
260044
215845
411393
349084
245602
307558
188577
274160
231684
288277
238751
251654
187980
216107
218389
182838
211230
216257
169994
178969
289846
215220
206372
300755
312544
222904
224032
462441
286992
414840
425237
332658
297526
464627
240400
245171
355836
378958
216524
264163
277812
183764
163114
169958
187221
187589
209335
176463
199985
292971
269036
293554
225910
198217
277237
187240
167526
174184
185942
188989
178262
195892
233047
318419
255622
304345
238213
316355
258286
548659
537150
531128
521239
544730
532015
536790
233291
234799
222320
263486
247594
237181
249275
547076
502713
530480
504566
459038
513118
440624
207055
224193
231217
207453
214073
236920
230506
413201
450085
384319
275366
378391
300973
349111
219359
188042
212366
206068
235008
227116
203796
380133
377777
391614
380931
323327
313521
363480
433334
467729
318556
336057
439889
308021
466336
356605
313259
335895
240748
244488
257453
234092
163307
171033
164097
185230
175644
176225
184906
166940
178708
167166
187902
177639
178090
188098
218434
229268
218774
234194
243686
234175
244558
392799
326902
292506
236954
401071
279419
306834
340966
311382
282060
351827
333533
282547
309286
308344
250358
244016
310045
314260
261802
266064
199768
218593
204738
199734
214532
190899
206591
206177
259354
206904
205922
224526
235804
191402
276534
275989
261865
252382
277757
268120
263574
221845
197402
205836
220467
228228
205362
227101
290650
251748
259222
263323
285430
256753
292403
208615
188085
209469
223965
202577
222860
202633
168781
171997
165844
177899
187190
181004
185318
232066
216605
222587
243972
247328
251733
238345
264003
222955
249438
241502
234347
256366
219184
249995
258923
266257
274435
250084
266153
259493
171715
180044
168626
179928
193359
183264
190141
203945
200798
189314
189583
214309
203875
199345
318967
341625
326733
284366
310376
287129
309081
203688
198799
190045
190438
211819
204027
199192
339269
367277
385640
359275
335458
376997
356840
198199
221389
220499
209076
206723
227671
229206
248286
272942
245744
280596
253355
251174
277014
238779
216915
252321
231975
237463
253866
217176
215158
245645
236255
225863
214895
235343
245008
322128
338349
346491
314741
321853
346927
340474
268942
300988
271109
290333
275375
263320
296035
191063
201218
208864
214166
194326
205393
199373
192578
210066
205202
214528
196049
206372
201690
244474
270111
244480
250598
275031
251270
275186
219538
228067
216721
236322
249250
238465
246429
356430
333710
333628
366305
370145
355744
356447
268591
286242
260286
258379
291281
267107
283219
383452
371000
369683
380030
380802
369915
375067
326968
318054
323520
348798
349765
352367
344230
367088
355730
361935
364338
371095
360112
372802
129750
152838
165687
211880
174923
240919
201168
169458
117790
124891
161600
173587
156119
122533
172318
164980
123647
120204
128935
133858
150961
155052
137614
133790
122409
129451
132833
138640
136404
133973
152776
164591
144655
218041
179243
168318
185257
148781
159167
142453
165741
150264
145988
161628
154473
161565
147365
167351
180689
170918
179532
126765
121967
126049
134975
137261
136809
134498
147062
123130
136996
159455
146160
164717
140992
230392
217983
200526
188523
219760
206354
203548
151164
200989
177962
177911
172045
196541
155223
143855
152925
144754
144209
157935
145690
153402
136637
155064
137719
143290
158664
143742
159402
158615
168010
153133
150901
171142
157994
165447
185711
195956
202896
213552
187152
202791
197026
178521
161118
194556
173472
180197
194678
158036
144584
149506
157550
159311
147012
146975
154785
150284
165550
161342
171551
152007
158756
164737
112545
148048
271397
124050
143632
160731
159566
167445
192748
158927
147700
117719
119413
154969
125935
148197
163390
89111.3
105796
90039.4
97805.1
104619
126472
113059
205926
178127
236436
255566
168568
182510
256392
110363
109677
98396.8
102149
110472
117695
112825
151187
132736
127885
144707
126389
130823
147941
125898
124470
103694
136933
118534
137257
151153
173697
175446
205298
169065
198919
171397
199406
109778
141317
123303
141291
136201
154445
124037
149222
148731
134585
149166
170749
161003
160702
137101
140893
123007
146985
146064
164598
129676
179345
161447
147601
154432
180589
170833
165680
121506
109620
114645
121494
128212
119399
128132
134897
134393
121846
126724
137185
124831
136767
144719
131138
127270
131127
150487
135098
147690
137617
159351
143227
136597
158642
143705
152807
241943
238910
269599
261645
232208
230420
260246
170548
197326
196669
172093
170534
197338
197936
181491
207585
205892
180031
175268
201771
205261
163114
181131
185498
184970
177148
172972
172920
156719
147798
152159
177117
170363
166131
138582
130504
137874
141997
146148
130481
140514
136562
137592
155996
159954
150422
145918
141820
153045
267205
237065
268469
230695
260915
232270
260422
257288
226100
227433
226113
253804
225376
255584
176419
180323
174717
200375
205950
204813
201096
227388
257367
254201
230687
230381
227134
255868
138613
153049
255813
172988
214475
177685
234539
201992
196015
166571
130507
165357
176895
186901
155887
196645
169217
174714
194449
260086
211149
187073
262259
254785
163207
185608
181176
173010
177271
185039
192823
156777
152220
147815
166155
170466
177168
158968
130522
142039
137890
136570
140538
146165
148229
137603
159951
155993
141827
145928
150429
163381
199441
205592
191311
197411
219598
210731
205891
190780
193624
183117
193649
212252
203370
202020
200345
180304
176403
201075
204770
182487
205906
165019
196499
183458
188465
182212
200642
170269
156984
184645
175217
184667
175327
193456
166591
153605
161810
150977
156543
170873
159212
167525
167955
165268
155255
160132
181814
170602
172128
146251
153674
144378
153681
165038
155901
162677
161581
157206
148612
157209
177022
165668
169212
227342
257276
254164
227106
230308
230628
256321
205117
226446
223076
226459
214401
217815
214055
186905
216258
210054
198283
189888
212032
219177
180783
209484
204386
193599
187063
209464
214808
195187
188342
214098
185111
203340
206657
176996
163950
178119
175438
183895
166554
172806
174959
167006
188392
186403
186282
175483
177690
178313
234477
239537
264104
235570
265321
241671
260115
257585
233096
229090
233067
261088
237494
257551
203819
201749
194887
216047
230232
221836
223810
266659
274043
268618
238673
251387
243680
245596
258259
269824
282992
291042
259697
267562
282126
381992
384379
379988
372118
390553
376793
381301
307691
293880
383251
355762
380999
319904
306682
359216
300455
330369
308824
323125
303855
333920
328237
296061
316259
318359
299937
300907
324942
324101
313326
317278
309473
346626
339288
335165
344196
348997
355995
343358
368890
355090
351071
367484
366262
393400
374512
368765
391904
375345
380994
354725
340157
339319
349349
370512
349999
367901
308092
316747
318590
333314
346286
333954
343963
397120
394759
380529
362971
373070
360660
372602
275221
312120
299494
307438
284378
298104
288808
387636
362908
401340
407741
378602
360584
374367
456874
543355
534582
482469
489492
584075
595321
459528
485821
426346
439295
550419
502781
474709
509496
476904
458798
592955
626993
573890
545966
475096
571851
555496
511235
498825
610917
631593
774618
265276
256276
798977
798355
283569
352032
761814
706108
743910
547531
568462
586656
611517
504821
620328
593336
527356
547742
657726
688181
455091
515095
575929
548796
474053
523522
493057
627434
771223
794097
750307
778818
594871
641983
585729
522294
530876
725326
649712
663327
738716
550831
653391
691515
604449
573062
722391
758521
807063
693429
799373
788722
775846
636143
664217
600976
558287
542591
681420
774754
703843
755590
267441
260443
782919
523630
612784
255340
253679
679932
797786
793251
807758
740413
751015
809171
807662
708662
802970
764354
810175
778966
810186
578564
678560
604207
794085
730216
758785
811861
776395
811777
812761
729877
809493
800539
695990
715008
674644
636053
786513
835245
810397
826404
738606
255155
258260
321635
475752
253451
254887
811923
749865
810779
807937
793591
807208
802154
808889
809980
802788
818218
772650
824816
791232
799536
794345
799396
768299
756819
745080
728040
815009
806301
788076
795020
777373
804611
818126
790951
800023
797173
716334
740269
703719
668730
803286
822933
768056
795185
811806
801182
821066
784660
647437
793089
797085
707671
681877
609459
822913
785474
818934
823676
701265
770151
819322
645461
786486
660060
759624
752848
568140
547750
329096
386128
335782
301669
430951
390965
468798
447489
315308
303590
290926
314624
326539
328466
341558
345252
314299
329091
356926
340533
356923
374912
349971
331270
318418
363831
344726
359171
379844
348240
406714
361808
409325
363973
378838
426598
250604
273024
272140
298488
292916
273252
322013
297335
283893
277189
248609
287243
255388
259823
266023
284163
300709
292900
273946
263873
273932
283503
296444
310923
309608
287235
272792
278199
291863
246419
240204
244698
252531
249018
255553
258993
307613
294705
310409
315110
303201
285524
298683
276448
266958
263643
258024
254253
263638
266957
261930
271985
259605
266308
280552
278737
268932
300494
289675
287175
287566
277456
284441
274583
337120
293755
394330
344774
397129
350629
331781
360526
316537
295853
301235
319150
304755
325737
329752
278172
308930
283799
337406
311733
280636
346823
333333
294471
280432
276893
279495
294052
298062
298007
290828
290623
306680
322578
277166
299564
278224
310341
290002
303498
281720
281149
295892
304034
295998
290188
307019
283961
282291
305269
297893
300858
294836
303487
295811
302712
310723
305799
303007
278083
292569
276041
277181
292911
292585
292156
320431
312839
315390
310397
320957
316075
311468
302402
305489
304659
304666
310474
306354
305482
280514
276928
279558
294516
298053
298125
294079
313091
310327
317498
322280
314836
316332
326515
283521
288874
288120
309098
303014
303534
310524
277715
296002
284134
300265
280666
300244
304937
317496
326513
316356
308954
322277
314870
313085
332952
345205
350304
330689
322101
324024
333448
320643
297341
289719
285394
291905
306376
314330
324269
333335
342703
326851
320331
314170
320321
365377
359241
340843
375452
352980
358381
382981
351216
310851
322896
329615
315911
342769
358751
307038
324194
300255
318963
310658
336271
345452
368890
338774
358178
344603
354516
335663
328506
386104
351282
374279
366353
406563
377131
393266
338839
333370
323411
351036
382167
362079
369008
367599
416486
385273
374737
427832
403587
394453
294714
351042
320185
287563
373933
343075
339760
323386
310420
322031
285547
315137
303225
298707
307627
339010
329863
343766
335527
328623
313448
322339
300486
289666
277453
284442
274589
287177
297334
331760
318611
331346
305710
319810
331356
318617
357223
347217
365205
361086
350757
345069
333567
309335
313198
328057
299398
313193
295963
309334
317839
329072
332907
315484
303808
301528
312125
421149
406307
430814
459662
442076
384491
415639
358767
342645
345413
365641
347965
329255
324796
364139
346410
366662
376128
420225
395897
398564
396228
377680
425181
396230
472656
416526
447497
382404
404010
457424
398772
480022
422154
450741
460380
727404
397286
513069
808828
646497
440743
515715
502618
416311
380764
357422
368456
426139
435083
482533
473968
379784
348102
360711
368744
357859
388948
379209
393493
386040
379630
370460
401047
393035
410136
361229
339181
336361
348482
353161
370721
376687
417269
391319
401404
431318
438733
412084
403496
363222
389101
369726
386894
416149
406138
394921
442904
454536
425817
470339
448919
418987
438039
403874
416216
386782
381428
408864
425428
396212
379926
371840
356136
386290
404028
412564
432116
447158
457084
423923
468758
445320
414109
435334
411546
417471
390234
448317
424607
454732
481098
525690
816758
715841
492762
601126
556426
825884
812577
469529
465936
445388
562068
525694
556374
598792
440380
502987
540034
474481
507163
443485
417918
426669
439427
407577
478879
443095
464752
503441
621585
808609
826698
850448
795763
287918
509722
489625
449879
429473
529264
459911
483164
560377
474212
484663
448764
490144
567661
520008
532573
521004
520986
490741
644358
595427
644392
698110
567583
535392
498901
713910
667989
609133
652197
586796
547432
474077
510696
647277
543701
598804
541587
579806
496554
523383
694636
618051
573828
658565
559175
607792
801792
761304
702107
754368
666277
789682
806410
804480
708633
754189
813093
582262
774472
733165
643440
690550
791859
818483
555760
664187
750849
724909
595676
666411
613785
812827
787223
751040
787256
802656
811860
812595
670454
832004
808548
796368
743713
835358
839876
799158
796825
808702
763161
813373
791540
811495
719118
827737
767584
837753
828641
837931
832745
826102
729939
773061
813176
778088
825549
801276
821352
761859
788106
742031
826101
819738
693129
594310
777344
624063
727008
742470
519596
483498
846541
841292
811250
838164
771443
825523
813295
771524
759105
785236
646127
498003
559531
596166
791227
821956
708957
825157
656148
746228
809530
756878
555651
704525
672946
507398
440662
393871
824224
645525
717068
800704
513276
763251
617942
671748
711295
628037
390989
450777
348760
311332
760208
809970
653642
785981
417103
573315
708233
617470
325885
580000
308299
546623
503372
291290
707639
591675
694790
340136
448728
427266
326530
562244
649426
675932
399992
294924
368949
310752
477053
302212
533205
452677
268359
277874
398431
611965
421506
562572
281342
338109
310046
270998
742809
370546
512030
337774
669230
472032
626008
374270
279799
460917
417378
261415
340896
271321
265242
373424
390389
259016
316777
306703
258055
262821
331315
353019
295325
256010
284293
257007
431269
367118
501159
287451
259134
263848
272322
372031
287776
258413
260380
311307
264944
331437
482848
496991
329594
613573
487678
953770
665544
821253
693663
364593
388151
367525
395160
440516
461218
530055
466792
418364
421423
552803
431187
585121
440694
347742
353858
334032
349881
356004
368589
376568
424695
484592
426313
529361
495731
565469
718460
343019
379320
356026
381631
366789
389277
406117
577315
463598
434516
605556
489024
716469
567074
375492
398800
388743
410486
388732
398786
422768
371791
405506
379830
414895
390881
401028
427406
414200
400350
396437
412055
416180
436856
432333
400760
403883
426975
424753
419256
441864
449399
291120
236186
250791
244841
305195
360890
298096
302506
237794
282454
343687
249045
301877
340910
267193
303706
350965
322822
283931
293851
286546
307184
300309
302780
309871
239203
275294
291981
268801
260243
319591
336435
256232
238230
256174
250878
268263
252072
268990
268213
253057
270826
265638
284343
287117
270097
310687
371751
285864
348944
297233
350350
422495
298060
296238
290635
306771
319278
312324
313928
323791
334942
317259
319717
343173
337472
326343
240845
261807
258203
260160
255332
271902
276415
278183
301274
277458
313353
289335
289646
313439
230326
242450
253513
237837
247970
260244
256141
259208
281502
275296
291676
284648
298031
276538
265589
298642
282157
285924
267865
284192
301826
283240
318977
301232
304238
307170
322248
288130
281884
302075
278681
291933
320115
296250
315568
323715
346491
335042
346940
329266
341468
330099
231432
247151
239342
256200
248947
257634
265072
250493
257954
247162
278794
268730
265932
277181
267403
258698
267100
275136
283187
276201
292296
309016
314140
303179
333960
315559
327279
294849
326813
318912
302644
304295
347129
321997
328446
272113
288222
267235
299637
279299
275980
297402
277707
290968
271873
287834
313942
293562
306743
287242
318559
294878
327135
302951
312167
336709
256975
260647
249098
268126
288922
280482
275992
289764
557652
231929
503008
297569
602799
566656
540424
346463
269731
368837
311434
313338
494291
328414
225146
240085
284748
270688
247116
298521
339621
300985
253993
344809
300386
336814
307559
327480
304470
238237
279608
341032
563368
551148
539980
579209
577003
546100
557148
233003
288003
286175
224767
231739
280203
272888
467359
328703
443809
446594
352848
338435
466517
560423
469430
519375
550936
571073
523927
474984
340439
304478
406554
410171
284054
316436
349673
431470
395289
318875
503501
439165
403005
328145
370862
253663
270610
326397
375780
278690
261220
291600
292127
284211
314568
307252
300713
307097
601717
591089
589878
551409
565196
555357
561550
230923
219130
229070
242393
238978
233774
243120
277766
222296
241012
255355
291942
255090
237389
278886
249595
271757
269184
293750
287381
265133
256762
303951
270694
302265
263340
298540
276149
282615
289792
282715
299432
305788
299147
305726
448176
464335
359802
360344
348911
448602
465728
588161
556005
580370
526654
473381
527242
476228
242005
257069
260034
250258
252323
269017
267888
412415
360302
297790
340619
328520
413149
355980
267590
247191
268966
284495
263360
283465
263064
329204
339385
323226
317577
339994
334882
322986
218145
225774
218707
239448
233419
234472
240932
219202