/*--------------------------------*- C++ -*----------------------------------*\
  =========                 |
  \\      /  F ield         | OpenFOAM: The Open Source CFD Toolbox
   \\    /   O peration     | Website:  https://openfoam.org
    \\  /    A nd           | Version:  9
     \\/     M anipulation  |
\*---------------------------------------------------------------------------*/
FoamFile
{
    format      ascii;
    class       volScalarField;
    location    "0.00255";
    object      alpha.c4;
}
// * * * * * * * * * * * * * * * * * * * * * * * * * * * * * * * * * * * * * //

dimensions      [0 0 0 0 0 0 0];

internalField   nonuniform List<scalar> 
20523
(
1.45134e-05
2.37056e-06
4.56156e-11
1.21163e-07
5.18502e-14
3.87265e-14
1.96903e-15
9.6076e-16
0.000199184
0.00243282
3.71733e-05
8.90648e-06
3.71955e-13
1.33307e-13
1.0769e-14
5.48308e-15
0.00497341
3.36604e-05
0.00156863
4.13714e-05
0.00168982
0.000221227
0.00516398
6.65126e-05
0.000139588
0.00462476
6.78197e-06
0.000592627
2.72222e-05
0.00140802
0.000946416
1.86144e-05
0.0010387
5.93077e-07
3.83087e-07
0.000319049
0.000278405
0.000326282
1.13264e-05
0.000674226
2.58e-07
0.000182473
2.86078e-08
0.000126205
0.00511841
0.00359393
0.00371106
0.00211254
0.00219904
0.00153151
0.00146438
0.00515507
0.0037544
0.00374336
0.00224103
0.00222926
0.00155632
0.00156726
0.00403179
0.0033148
0.00284112
0.00193202
0.00164839
0.0013256
0.00110851
0.00325562
0.00161385
0.0022331
0.000937566
0.00129628
0.000845081
0.000588576
0.00167709
0.00259014
0.00257638
0.00102004
0.000631815
0.000624263
0.00102993
0.0024453
0.00164742
0.00254365
0.000998374
0.000568332
0.000607101
0.000945604
0.00222787
0.00116077
0.00187419
0.000497881
0.000843048
0.000689558
0.000397839
0.00225546
0.00087171
0.015403
0.00241968
0.0160941
0.000468878
0.000415393
0.00444537
0.00412251
0.00202898
0.00674072
0.0120396
0.000356958
0.000391513
0.00369975
0.00268313
0.0161689
0.0108587
0.0107898
0.00924447
0.00920198
0.00602451
0.00606194
0.015927
0.0102383
0.0106452
0.00877548
0.00909818
0.00593809
0.00569342
0.0141617
0.0093368
0.00803311
0.00786072
0.0067935
0.00516411
0.00431789
0.00935769
0.00431923
0.00605088
0.00375154
0.00524913
0.00329721
0.00232956
0.00706397
0.00440845
0.00701095
0.00380477
0.00233254
0.00231354
0.0038327
0.00240378
0.00493751
0.00491208
0.00312675
0.00148389
0.00314754
0.00147185
0.00660367
0.00432905
0.00689993
0.00374003
0.00214951
0.00226805
0.00356585
0.00465692
0.00236446
0.00484823
0.00307553
0.00136242
0.00293393
0.00144122
0.00597596
0.0030525
0.00498319
0.00191366
0.00320561
0.00265039
0.00156267
0.00423449
0.001678
0.00355093
0.00120898
0.00263954
0.00218422
0.000982786
0.00160503
0.00379744
0.0022994
0.00199944
0.000798731
0.00116256
0.00139482
0.00126204
0.00191841
0.00271707
0.00164746
0.000490275
0.00114599
0.000725046
0.00190767
0.000860907
0.000463501
0.001121
0.00111104
0.00192256
0.000852593
0.00187012
0.000777751
0.000448862
0.00101963
0.00108498
0.00177167
0.000830681
0.000680257
0.000896131
0.00157671
0.00128683
0.000278162
0.000719492
0.000542722
0.000867916
0.00100782
0.00143626
0.000510561
0.000187432
0.000286544
0.00034386
0.000257822
0.000653063
0.000350221
0.000523963
0.000124303
0.000194993
0.000955472
0.000724328
0.000214071
0.000766102
0.000505145
0.00012277
0.000475132
0.000133171
4.38774e-05
4.78387e-09
1.71968e-10
3.73184e-06
7.16997e-09
2.74625e-10
5.10532e-06
0.000784219
0.000224353
0.00079204
0.00051855
0.000140645
0.00052473
0.000138312
0.00102884
0.000597853
0.000590996
0.000360381
0.000355329
0.000187355
0.000190369
0.000533516
0.00100486
0.000573498
0.000317261
0.000343205
0.000179767
0.000164178
2.29417e-05
5.31175e-10
2.1113e-09
4.6734e-07
1.44527e-11
1.15998e-10
2.78459e-06
0.000173954
0.000537239
0.00064775
0.000105377
0.000420426
0.000341969
8.20366e-05
0.000364619
0.000835581
0.000462463
0.000272892
0.000213155
0.000138845
0.000106167
0.000320062
4.03552e-05
0.000187117
8.06193e-05
0.000184162
0.000324604
7.90007e-05
0.000101507
0.000285072
0.00040872
0.000252653
3.5157e-05
0.000169715
5.69479e-05
0.000310211
6.83433e-05
0.00016336
3.79925e-05
0.000177385
0.000289213
7.53738e-05
0.000491462
0.00025897
0.000167237
9.54722e-05
0.000149735
7.25755e-05
4.46462e-05
0.034802
0.0112847
0.092647
0.0254738
0.0267002
0.0875142
0.00792101
0.00736323
0.0318799
0.0234804
0.0372242
0.0800867
0.00664125
0.00295696
0.028629
0.0128496
0.0917199
0.0683055
0.0634307
0.0674764
0.0629387
0.0450261
0.0454711
0.0905701
0.0603267
0.0638105
0.0663977
0.0622634
0.0443921
0.0427803
0.0672476
0.0555369
0.0580272
0.0484874
0.0471023
0.0391192
0.0329753
0.0515842
0.0263981
0.0267166
0.0371006
0.0364844
0.0254371
0.0183483
0.0493088
0.0342768
0.0486291
0.0314971
0.021769
0.0215031
0.031854
0.0262956
0.0400524
0.0413133
0.0287995
0.0173006
0.0277727
0.0179542
0.0419946
0.0265612
0.0417329
0.0291869
0.0183212
0.0294271
0.0181924
0.0335203
0.0455969
0.0476977
0.0309655
0.0201286
0.0210881
0.0296952
0.0369433
0.0200112
0.0314701
0.015829
0.0254388
0.0215175
0.0133794
0.0412057
0.0236687
0.0342576
0.0181682
0.0269796
0.0225987
0.0151118
0.0177559
0.0155938
0.0245012
0.0166572
0.00743736
0.0120144
0.0103474
0.0187661
0.0179792
0.0261345
0.0173478
0.00822899
0.0115278
0.0124602
0.0199231
0.013383
0.0122257
0.00784942
0.0132453
0.020113
0.012125
0.0196079
0.0114494
0.0077117
0.0124296
0.0130074
0.018821
0.011937
0.0104035
0.0112336
0.0171271
0.014383
0.00551604
0.00935721
0.00872145
0.419497
0.536173
0.341271
0.448168
0.428169
0.479015
0.373679
0.332149
0.51918
0.509154
0.491348
0.510157
0.493803
0.464968
0.481781
0.480215
0.390839
0.451498
0.395352
0.455755
0.427081
0.368321
0.430004
0.399062
0.476993
0.416772
0.460594
0.432498
0.38599
0.368404
0.387861
0.424293
0.398149
0.314699
0.344797
0.35846
0.463897
0.440655
0.426999
0.409645
0.44931
0.433935
0.395851
0.370192
0.34073
0.394488
0.399028
0.314204
0.364569
0.343748
0.414376
0.322737
0.363801
0.399843
0.311035
0.360459
0.351293
0.287922
0.325735
0.252057
0.28747
0.285555
0.318652
0.368242
0.249327
0.0506484
0.0566899
0.132506
0.270802
0.123563
0.298078
0.0510288
0.224673
0.117495
0.111781
0.224776
0.0453893
0.0199905
0.167442
0.0672791
0.359113
0.325257
0.34984
0.315752
0.265021
0.228794
0.234693
0.330865
0.236437
0.267229
0.297432
0.255079
0.219115
0.202281
0.251491
0.199826
0.204635
0.176922
0.163795
0.17476
0.139369
0.288884
0.240385
0.279522
0.193561
0.16462
0.159267
0.199287
0.190061
0.130779
0.186834
0.151819
0.101853
0.100277
0.154937
0.15371
0.0932547
0.0994307
0.133487
0.124507
0.104788
0.0771092
0.128653
0.172949
0.182353
0.147495
0.0938598
0.139168
0.0982658
0.262296
0.200492
0.234942
0.184467
0.137984
0.151024
0.169481
0.153566
0.0923852
0.124636
0.0844615
0.123171
0.0998008
0.0695921
0.196974
0.129766
0.153776
0.118344
0.145985
0.116032
0.0937095
0.0688328
0.0700732
0.0940522
0.075009
0.0379612
0.0544234
0.0526939
0.0828195
0.0947882
0.114028
0.0864401
0.0493326
0.0692515
0.0625382
0.121021
0.0967011
0.0768106
0.0555822
0.0941899
0.0754565
0.123882
0.117031
0.0540505
0.0699434
0.0845234
0.0906634
0.109781
0.0736553
0.062584
0.0741059
0.0967488
0.078256
0.037129
0.0597794
0.0513987
0.0586371
0.0278896
0.0279866
0.0318571
0.0446441
0.0421944
0.038852
0.0110615
0.00476928
0.00418966
0.00507554
0.00713815
0.00792938
0.00668965
0.649482
0.623882
0.633856
0.465062
0.56361
0.538109
0.581873
0.374559
0.544624
0.638559
0.651102
0.64207
0.618561
0.580672
0.63666
0.603586
0.617032
0.63325
0.614022
0.594731
0.620686
0.618968
0.599662
0.642061
0.646306
0.646349
0.632275
0.638578
0.631792
0.63842
0.630929
0.58738
0.605721
0.581517
0.601285
0.613806
0.55479
0.592021
0.550087
0.583965
0.561002
0.539462
0.570754
0.525471
0.644567
0.641403
0.646041
0.624425
0.62992
0.637543
0.634717
0.650969
0.649354
0.649317
0.645215
0.643038
0.642858
0.644896
0.647963
0.650545
0.649008
0.642112
0.641849
0.640082
0.64396
0.527309
0.51802
0.563905
0.536448
0.435392
0.492352
0.491692
0.571375
0.603819
0.57734
0.550143
0.542304
0.600716
0.577974
0.619768
0.601367
0.616546
0.628826
0.618512
0.62825
0.615391
0.553638
0.572415
0.564557
0.480293
0.521033
0.591851
0.518997
0.511645
0.473782
0.510199
0.533989
0.461015
0.500797
0.496576
0.605237
0.594914
0.614654
0.62634
0.604553
0.612027
0.621479
0.625931
0.623793
0.634531
0.634046
0.624996
0.622907
0.636036
0.632576
0.631236
0.61575
0.622746
0.620552
0.629231
0.634433
0.506735
0.406341
0.421651
0.429163
0.472533
0.457789
0.463046
0.628412
0.493445
0.571295
0.647198
0.631855
0.57825
0.423219
0.612097
0.556281
0.609116
0.201257
0.397941
0.305599
0.495787
0.119671
0.390656
0.641012
0.61989
0.634591
0.613199
0.628798
0.618841
0.59439
0.555899
0.584367
0.510487
0.578053
0.512203
0.454827
0.541847
0.645574
0.6431
0.641219
0.637964
0.636018
0.629416
0.63203
0.474871
0.326638
0.410955
0.364181
0.430981
0.359901
0.290367
0.624573
0.636892
0.634376
0.619976
0.613815
0.607406
0.623995
0.546456
0.379021
0.450378
0.385514
0.427387
0.311679
0.491049
0.608957
0.600622
0.624341
0.603856
0.525915
0.582804
0.565868
0.625977
0.607876
0.623278
0.614402
0.603283
0.596785
0.618552
0.587862
0.591651
0.612335
0.598057
0.521062
0.57286
0.560802
0.270342
0.259295
0.340404
0.287196
0.168672
0.220782
0.2236
0.539401
0.420506
0.466405
0.399828
0.43915
0.348734
0.49181
0.352347
0.334002
0.303933
0.315713
0.231257
0.276772
0.259687
0.602468
0.597158
0.564717
0.592082
0.582448
0.587304
0.608986
0.577964
0.474675
0.517594
0.475779
0.548097
0.551649
0.522881
0.326206
0.362783
0.373211
0.209127
0.275155
0.254941
0.431083
0.243572
0.142278
0.150421
0.168292
0.207153
0.181812
0.194267
0.133679
0.167743
0.347887
0.282739
0.16878
0.273097
0.205794
0.0800882
0.2778
0.32074
0.322949
0.253756
0.251965
0.2989
0.231703
0.216856
0.152445
0.197091
0.143532
0.191218
0.175047
0.13123
0.302531
0.223726
0.238959
0.259165
0.280674
0.217698
0.202046
0.29906
0.205075
0.22859
0.251454
0.276679
0.210613
0.188403
0.143377
0.173215
0.185353
0.164392
0.114313
0.123245
0.152629
0.122806
0.147494
0.104045
0.154912
0.0951314
0.135113
0.112506
0.231424
0.234059
0.25771
0.196689
0.156634
0.174182
0.180133
0.144767
0.0966781
0.0882424
0.113288
0.125191
0.105168
0.13299
5.70962e-05
0.00013972
0.000252374
0.000200907
1.95519e-05
0.000108076
4.26951e-05
0.000314677
0.00015422
0.000156713
9.14616e-05
4.12115e-05
4.03446e-05
9.31009e-05
0.000133615
0.000303173
0.000147479
8.71434e-05
3.35149e-05
3.80047e-05
7.849e-05
0.000143772
1.65021e-05
4.60968e-05
1.22934e-05
7.45871e-05
9.27511e-05
2.82093e-05
8.39524e-05
0.000236894
0.000111542
2.68457e-05
6.49239e-05
4.81178e-05
1.90211e-05
1.24235e-06
7.35707e-11
1.80482e-06
2.4501e-08
1.35857e-12
9.14048e-13
1.46146e-08
1.80777e-05
9.93209e-05
9.74982e-05
4.65013e-05
7.22184e-06
4.75323e-05
6.97347e-06
8.42732e-05
1.67876e-05
9.30674e-05
4.38791e-05
5.33975e-06
3.88832e-05
6.36539e-06
7.92351e-05
3.43394e-05
5.65523e-05
3.16062e-05
6.42068e-06
1.17733e-05
1.84836e-05
2.50801e-11
3.02981e-11
8.83022e-07
6.84028e-13
9.36147e-09
2.7578e-11
2.90782e-13
7.02718e-05
7.76271e-06
5.25399e-05
3.98932e-06
3.13634e-05
2.24063e-05
2.58032e-06
4.49374e-05
2.47976e-05
2.4111e-05
4.77039e-06
4.5849e-06
2.08734e-06
2.18541e-06
2.03196e-05
4.60679e-06
3.47272e-05
1.40393e-05
6.7583e-07
7.75575e-06
1.4253e-06
4.14914e-05
1.99418e-05
2.26008e-05
3.5476e-06
4.18669e-06
1.8804e-06
1.55769e-06
1.92888e-05
2.31839e-06
5.63207e-07
6.97391e-06
6.74423e-06
1.98224e-05
2.22007e-06
1.79073e-05
1.59888e-06
4.91828e-07
5.13202e-06
6.14925e-06
1.54271e-05
1.98078e-06
3.07449e-05
1.60742e-05
1.15177e-05
2.7121e-06
1.82498e-06
1.15049e-06
7.38195e-07
1.52123e-05
3.94039e-06
7.21847e-06
5.37544e-07
1.06495e-06
4.06687e-07
1.93334e-07
1.13395e-06
3.80105e-06
1.19702e-05
8.15608e-06
1.46691e-07
2.43684e-06
6.88952e-07
9.34107e-06
4.46034e-06
1.08343e-05
7.15271e-07
1.81543e-07
2.30177e-07
5.77265e-07
4.90697e-06
1.21106e-05
1.17136e-05
8.06787e-07
2.78618e-07
2.63212e-07
8.50133e-07
4.8207e-06
1.55716e-07
6.99812e-08
6.315e-07
1.33726e-06
2.47787e-06
3.54922e-07
7.27033e-06
1.80063e-06
4.96021e-06
1.2553e-07
4.11473e-07
2.52845e-07
7.43676e-08
1.48694e-06
9.92845e-07
2.92198e-06
1.32912e-07
1.62489e-08
3.74911e-08
6.0242e-08
1.72283e-06
5.18256e-07
4.90617e-07
7.78528e-08
7.33403e-08
1.76907e-08
1.88197e-08
1.53582e-06
3.3366e-07
4.27683e-07
4.89688e-08
6.34086e-08
1.51639e-08
1.15351e-08
5.3638e-07
2.26479e-07
1.31149e-07
3.28768e-08
1.88122e-08
7.60019e-09
4.26914e-09
2.75684e-07
2.74169e-08
6.46002e-08
3.86346e-09
9.16139e-09
2.04502e-09
8.47492e-10
6.5173e-12
4.01341e-13
1.73174e-13
1.46734e-13
5.92739e-12
8.21125e-12
8.96859e-12
2.22699e-07
6.78072e-09
2.11099e-07
8.35875e-08
2.748e-09
8.84358e-08
2.59451e-09
1.51763e-07
5.97062e-09
1.87165e-07
7.35584e-08
1.79996e-09
5.88329e-08
2.27202e-09
1.21771e-07
2.30147e-08
1.14709e-07
3.8475e-09
7.86395e-10
7.3785e-10
4.0959e-09
0.00129977
4.08677e-08
1.30836e-09
5.53073e-15
2.65546e-16
0.00169692
4.59238e-06
5.4033e-14
1.00589e-15
0.00308858
0.000115439
0.000564722
0.000157743
0.00106359
0.000254061
1.02921e-05
0.000417512
4.33777e-06
3.92007e-05
1.72501e-07
3.30958e-06
0.000134357
0.000376282
0.00462555
0.00293543
0.00254412
0.00193727
0.00167039
0.00156068
0.00101006
0.00202317
0.00078886
0.00125053
0.000668606
0.00107015
0.000635696
0.00038839
0.00180276
0.000680544
0.00117321
0.000518129
0.000921152
0.000585793
0.00032215
1.06331e-06
3.37079e-05
0.000117024
1.02006e-08
4.60537e-05
1.80478e-06
2.16763e-10
0.00127948
0.000348567
0.000821002
0.000309821
0.000751734
0.000472706
0.000185425
0.00111704
0.00108758
0.000693347
0.000628114
0.000393512
0.000379256
0.000229238
0.000459364
0.000422642
0.000744189
0.000360581
0.000110112
0.000192571
0.000214103
0.000205755
0.000306055
0.000510111
0.000286254
5.6578e-05
0.000166326
0.000105307
0.000699431
0.000243546
0.000421202
0.000129796
0.000232297
0.00013112
7.12107e-05
0.000419476
0.000219026
7.33802e-05
0.000257045
4.06389e-05
0.000129693
9.09259e-05
0.000658935
0.000225714
0.000407654
0.000113559
0.000214295
0.000125622
6.46963e-05
0.00386382
0.0060539
0.0052896
0.0262357
0.00198971
0.00890319
0.00275362
0.000514233
0.0184272
0.0184825
0.0187482
0.0130691
0.0128048
0.0127879
0.00879319
0.00883227
0.0090809
0.0129506
0.00628267
0.00908603
0.00599985
0.00405461
0.00847568
0.00781237
0.0123707
0.00511015
0.00832234
0.00565419
0.00342608
0.0130993
0.0060845
0.00905079
0.0056561
0.00863345
0.0058832
0.00381135
0.362548
0.0697077
0.0485724
0.570786
0.61767
0.529832
0.561358
0.42005
0.484413
0.219212
0.229082
0.427417
0.15471
0.19391
0.103682
0.115435
0.031697
0.0602962
0.103576
0.129778
0.0893562
0.056517
0.027178
0.0206347
0.611462
0.604697
0.594935
0.60142
0.59154
0.57236
0.586539
0.587189
0.477603
0.558679
0.47546
0.555282
0.522109
0.419207
0.304926
0.355945
0.237424
0.357417
0.242878
0.185375
0.289962
0.208636
0.118749
0.158903
0.126406
0.166311
0.124564
0.0949377
0.551815
0.589235
0.575047
0.549822
0.546997
0.523414
0.568673
0.582802
0.543457
0.568815
0.546919
0.540738
0.518266
0.565448
0.118321
0.100649
0.107816
0.0921824
0.0987319
0.0814217
0.0747685
0.486185
0.419811
0.524413
0.484824
0.309687
0.444497
0.362813
0.519662
0.482295
0.368181
0.483321
0.31471
0.443247
0.364352
0.137805
0.287878
0.181506
0.140379
0.182474
0.231084
0.106202
0.295357
0.155877
0.243818
0.145794
0.191606
0.235474
0.115551
0.0910378
0.0910846
0.120383
0.0933055
0.0539401
0.070004
0.0715267
0.521151
0.518386
0.515456
0.453101
0.488424
0.490639
0.544334
0.133781
0.0847472
0.108101
0.0983642
0.0604509
0.0779114
0.0759384
0.111353
0.0805699
0.0868105
0.0859155
0.0927589
0.0702645
0.0649684
0.0780356
0.0557212
0.0718142
0.0467743
0.0617121
0.0568305
0.0431644
0.0733265
0.0669963
0.0818867
0.0521482
0.0655104
0.0601071
0.0476315
0.443661
0.261969
0.26481
0.356385
0.401104
0.401077
0.311235
0.109444
0.14523
0.149226
0.063935
0.185641
0.0858141
0.0822901
0.0726396
0.0415064
0.0435762
0.0414517
0.0566024
0.0538986
0.0560062
0.0525248
0.0626898
0.067671
0.0534059
0.037302
0.0405369
0.0492769
0.0703819
0.0621912
0.0765788
0.0562215
0.0401804
0.0442212
0.0516196
0.0358892
0.0374952
0.0483924
0.0444451
0.0247298
0.0342135
0.0329565
0.0415492
0.0280811
0.0287646
0.0228587
0.031725
0.0307565
0.0380665
0.0134731
0.0415379
0.0361799
0.0902118
0.0139564
0.0475343
0.023691
0.00456995
0.0696414
0.07017
0.0742827
0.0532398
0.0558586
0.0568331
0.0422058
0.0538638
0.0309486
0.0405973
0.0317392
0.0421453
0.0314855
0.0234677
0.0503444
0.0259371
0.0371319
0.0269419
0.03932
0.0285817
0.0191307
0.0601433
0.0337653
0.0439689
0.0348383
0.0451111
0.0327291
0.0246705
0.0205196
0.0275764
0.0186852
0.0208746
0.00966449
0.015242
0.0136104
0.0171878
0.0322885
0.024096
0.0238361
0.0123946
0.0175104
0.017332
0.0196492
0.0223988
0.0300863
0.0215135
0.00967428
0.0157297
0.013799
0.015419
0.00675537
0.00667533
0.00771276
0.0110411
0.0110242
0.00967821
0.00232208
0.00353077
0.00575278
0.00379333
0.00146068
0.00250966
0.00225757
0.00423071
0.00621496
0.00411809
0.00396426
0.00165213
0.00253049
0.00263643
0.00324646
0.00345626
0.00545194
0.00366624
0.0012994
0.0022952
0.00215079
0.00242621
0.00088612
0.000828208
0.000952608
0.00149456
0.0015777
0.00139578
0.000150664
2.54205e-05
2.12088e-05
3.83211e-05
7.26871e-05
8.38791e-05
4.95263e-05
6.96294e-05
0.000239933
0.000128699
6.98511e-05
1.71234e-05
3.45753e-05
3.65224e-05
2.20231e-10
8.48066e-12
2.78307e-07
5.95725e-09
4.08913e-13
1.89878e-07
5.71005e-12
0.000183544
2.09013e-05
0.000109546
1.95156e-05
0.000104548
5.95954e-05
9.78614e-06
0.000201225
0.000100107
5.60852e-05
5.64027e-05
3.06254e-05
2.50624e-05
1.28891e-05
3.10472e-05
1.00761e-05
6.07041e-05
3.14248e-05
1.74897e-06
1.50943e-05
4.40535e-06
8.62462e-06
2.57937e-05
5.4641e-05
2.96243e-05
1.42661e-06
1.31203e-05
4.03809e-06
6.45204e-05
1.48934e-05
3.00341e-05
7.08303e-06
1.54755e-05
6.0018e-06
2.5029e-06
1.90456e-05
9.68031e-06
2.49698e-05
3.11713e-06
9.69785e-06
4.59788e-06
1.34592e-06
1.46642e-05
6.02554e-07
5.36673e-07
2.51365e-06
6.07213e-06
6.57735e-06
1.67582e-06
5.72724e-06
4.43808e-06
1.25489e-05
1.95366e-06
1.65339e-07
5.10699e-07
7.25498e-07
4.15132e-13
3.09347e-10
9.27672e-12
3.05425e-12
2.50497e-13
2.99006e-13
8.8011e-14
1.06925e-05
4.16285e-07
5.09195e-06
2.77219e-07
3.81434e-06
1.66874e-06
9.89415e-08
2.08055e-06
1.88327e-06
7.86454e-07
2.36071e-07
9.11597e-08
8.04067e-08
2.95055e-08
1.40543e-07
8.09126e-07
2.17108e-06
6.38232e-07
8.3452e-09
2.09298e-07
3.06664e-08
5.87227e-08
2.58912e-07
1.11479e-06
4.38613e-07
3.1864e-09
9.03509e-08
1.93631e-08
8.21916e-07
8.8536e-08
2.84024e-07
9.37338e-09
3.11004e-08
9.58534e-09
2.77144e-09
6.55642e-07
6.7473e-08
2.50826e-07
6.16419e-09
2.38721e-08
8.35459e-09
2.08441e-09
1.50065e-07
1.44371e-09
8.79833e-10
6.88182e-09
2.67725e-08
4.28907e-08
5.65318e-09
2.45095e-08
2.12734e-08
8.35646e-08
2.60712e-09
1.73793e-10
6.34559e-10
7.29969e-10
1.70704e-12
5.24688e-14
1.21336e-09
6.58965e-14
1.69334e-12
4.15434e-14
1.32349e-12
2.38208e-14
1.67947e-12
1.04563e-13
1.43877e-12
4.99692e-14
1.74102e-12
4.23481e-09
2.65875e-09
3.86493e-09
1.76249e-12
1.69333e-12
5.59767e-09
1.60999e-12
4.3023e-09
5.19356e-09
1.4874e-12
4.40435e-09
1.67719e-12
5.61336e-09
1.62562e-12
1.22135e-12
3.55656e-09
2.08472e-09
5.5901e-10
1.53248e-12
1.18446e-09
1.56469e-12
1.68814e-12
3.63578e-09
1.73403e-12
3.74368e-09
1.61819e-12
1.2735e-09
1.91107e-09
2.82343e-09
1.7227e-12
8.65851e-13
1.2851e-11
1.01158e-12
1.68631e-11
6.81998e-13
3.1796e-13
1.45636e-09
3.4905e-10
4.09765e-11
6.33819e-13
1.51865e-10
2.73747e-13
1.52289e-11
6.15127e-11
1.13633e-12
5.00561e-14
1.03091e-13
3.99245e-12
3.40409e-09
1.09717e-07
6.93132e-08
1.25624e-09
4.15981e-08
2.54407e-08
7.57638e-10
7.53164e-08
1.95624e-08
9.86294e-08
3.28047e-09
4.60812e-10
6.23619e-10
2.46913e-09
1.13544e-09
6.10648e-09
1.76943e-10
1.805e-08
3.79437e-08
1.33807e-08
3.92566e-10
1.01998e-08
1.43839e-09
4.65741e-08
1.59182e-08
3.35678e-09
4.78484e-10
1.00514e-10
4.98055e-08
5.06183e-09
2.79868e-08
2.91209e-10
1.60162e-09
8.80066e-10
1.5544e-10
2.88069e-08
2.58631e-10
9.26336e-10
9.19565e-09
8.65751e-09
3.0558e-08
8.73241e-10
5.51385e-12
3.31472e-13
1.37309e-14
1.35269e-14
3.91534e-13
6.74419e-14
4.86672e-15
2.44989e-09
7.09396e-11
7.54124e-09
8.03841e-11
2.79279e-09
8.72215e-10
2.52475e-11
2.51249e-08
5.93422e-10
5.8099e-09
2.23056e-10
7.49436e-09
1.97716e-08
7.59455e-10
1.63771e-10
9.1512e-10
5.41729e-09
2.31792e-09
1.33122e-08
4.09356e-10
7.04783e-11
4.06753e-10
3.92666e-09
1.36604e-08
8.11669e-09
6.64317e-11
2.26796e-09
2.38386e-10
4.83629e-09
2.56506e-10
9.82414e-10
3.83059e-11
1.42968e-10
2.92673e-11
7.64254e-12
4.7455e-10
1.81627e-09
5.31947e-11
4.12833e-09
3.35377e-11
1.11591e-09
1.21504e-10
9.58754e-12
5.80288e-11
9.7041e-11
3.16636e-10
1.92977e-09
6.11611e-10
1.8434e-11
3.88973e-09
4.77149e-09
4.4619e-09
1.38849e-10
1.31723e-10
1.21561e-10
1.47781e-10
5.34639e-09
5.20765e-09
4.9402e-09
1.73195e-10
1.53901e-10
1.6629e-10
1.61291e-10
4.76491e-09
4.43261e-09
4.89301e-09
1.50751e-10
1.33e-10
1.46716e-10
1.37074e-10
5.38782e-09
5.04262e-09
5.19333e-09
1.59099e-10
1.65349e-10
1.59615e-10
1.54779e-10
4.45926e-09
4.89544e-09
4.92734e-09
1.5194e-10
1.36538e-10
1.37969e-10
1.51255e-10
5.52721e-09
5.27537e-09
5.26322e-09
1.73133e-10
1.70046e-10
1.62067e-10
1.62844e-10
4.18876e-14
1.04944e-12
1.55352e-12
1.79417e-13
1.37497e-13
1.58054e-14
1.78396e-14
6.91097e-11
2.42465e-09
2.28016e-09
5.39382e-10
1.78733e-11
5.7387e-10
1.68114e-11
3.34891e-09
3.16438e-09
3.91245e-09
1.2258e-10
8.3987e-11
1.0528e-10
9.95328e-11
4.75337e-09
3.57753e-09
4.3848e-09
1.37653e-10
1.21751e-10
1.12923e-10
1.48927e-10
3.77419e-09
2.8188e-09
2.94973e-09
1.13028e-10
1.17332e-10
9.20407e-11
8.80065e-11
3.80467e-09
2.92723e-09
2.98166e-09
1.16763e-10
1.18342e-10
9.3093e-11
9.17017e-11
1.49437e-09
5.96569e-11
1.95834e-09
4.61271e-10
1.10883e-11
3.4907e-10
1.44697e-11
3.20616e-09
2.75543e-09
2.44035e-09
1.1169e-10
1.01282e-10
7.7791e-11
8.71429e-11
6.70552e-15
1.74257e-13
1.29738e-14
2.34825e-14
5.15642e-13
7.9695e-14
9.87873e-15
9.88109e-10
1.73233e-11
5.57408e-10
7.27231e-12
2.28261e-10
1.2731e-10
4.24154e-12
2.6966e-11
2.70967e-10
9.20645e-10
2.77223e-10
2.7968e-12
7.92462e-11
8.66077e-12
1.96524e-09
1.28237e-09
2.06973e-09
6.52704e-11
3.9355e-11
6.21322e-11
4.14009e-11
2.69754e-09
1.4963e-09
2.00032e-09
6.68301e-11
8.57655e-11
6.43118e-11
4.88229e-11
1.30036e-09
2.05527e-09
2.09656e-09
6.61941e-11
4.14005e-11
6.51236e-11
4.2063e-11
2.31558e-09
1.2214e-09
1.50035e-09
6.1077e-11
7.35218e-11
4.85722e-11
4.00311e-11
1.81702e-09
2.63134e-09
1.70667e-09
8.98303e-11
8.38088e-11
5.8685e-11
5.51805e-11
1.77833e-10
7.0196e-10
2.11173e-11
2.41316e-10
2.16975e-12
5.98054e-11
7.62496e-12
1.92127e-09
1.02005e-09
1.67517e-09
5.42124e-11
3.91383e-11
6.15609e-11
3.425e-11
9.67705e-10
7.97142e-10
1.33814e-09
4.37039e-11
1.998e-11
3.24691e-11
2.72676e-11
1.76539e-11
4.72599e-10
4.99339e-10
1.01887e-09
9.62362e-10
3.35603e-11
3.18269e-11
1.00911e-09
9.07601e-10
6.08278e-10
4.74933e-11
3.39933e-11
3.08118e-11
2.17747e-11
1.0778e-12
3.87237e-12
1.12645e-10
8.60026e-12
2.68961e-10
6.06001e-11
2.13169e-12
9.34936e-13
6.58708e-12
2.65828e-11
4.34261e-11
1.72732e-10
5.33036e-12
1.41239e-12
1.52411e-11
3.34302e-10
4.1615e-10
6.83991e-10
8.47096e-10
2.825e-11
2.34035e-11
6.27984e-10
1.93747e-10
3.63824e-10
1.30412e-11
2.15923e-11
1.35719e-11
8.20925e-12
7.30788e-12
1.00604e-11
2.39728e-10
4.98188e-10
3.23892e-10
1.78615e-11
1.2624e-11
1.17857e-10
4.62578e-12
2.45052e-11
1.29071e-12
2.30029e-11
1.25395e-10
4.36973e-12
1.00305e-10
2.89064e-12
1.09038e-12
1.42877e-11
1.93472e-11
7.51091e-11
3.69372e-12
8.53024e-12
2.02794e-10
2.14364e-10
8.15222e-11
7.71259e-11
4.49284e-12
4.37953e-12
7.43341e-11
9.25648e-13
5.13633e-12
8.36597e-13
1.82182e-11
2.06898e-11
2.60396e-12
7.55033e-12
1.4188e-10
1.77977e-10
5.35384e-11
6.75186e-11
4.1503e-12
3.7335e-12
8.36817e-11
4.42648e-12
2.93088e-12
9.43608e-11
1.85727e-10
7.56256e-12
4.68457e-12
1.93926e-12
9.00933e-12
4.81175e-11
2.61525e-11
5.39727e-13
4.9649e-12
1.25817e-12
1.66218e-14
3.6695e-15
2.97729e-15
5.06828e-14
5.6034e-15
2.00667e-14
3.672e-15
5.95109e-13
1.64497e-12
4.16123e-11
7.82747e-13
1.38813e-11
3.16683e-12
3.93454e-13
3.93556e-12
5.12084e-12
9.96327e-11
3.70733e-11
2.27332e-11
3.11561e-12
2.53162e-12
0.0024985
0.00630496
0.00316973
0.000110452
0.00321724
0.000265315
0.00316173
0.000111303
0.000372678
0.0071306
0.000280102
0.00316557
7.20247e-05
0.00257214
0.000109041
0.000368467
0.00715379
0.00549102
0.000678963
9.46157e-06
0.000447703
0.000224807
5.13158e-05
0.00206997
0.00705553
0.00252679
0.00571114
0.00704889
0.00569957
0.00322698
0.0025308
0.00707672
0.00576287
0.00571989
0.00325915
0.00324316
0.00254229
0.00255558
0.0070885
0.00578109
0.00571838
0.00325618
0.00320232
0.00255303
0.00250498
0.00683871
0.00497169
0.00547721
0.00275348
0.00304485
0.00236348
0.00210265
0.00129848
0.00186515
0.00436478
0.0031509
0.00434547
0.00186361
0.00129584
0.00314855
0.00437896
0.00435171
0.0018683
0.00129973
0.00187659
0.00129634
0.00449756
0.00421896
0.00333443
0.00234528
0.00187275
0.00174238
0.00133914
0.00439232
0.00311227
0.00433631
0.00129452
0.00187354
0.00183264
0.0012586
0.00368657
0.00293044
0.00412464
0.00171478
0.000996044
0.0014994
0.00116328
0.00345997
0.00170582
0.00246077
0.000970925
0.00139735
0.000954804
0.000633862
0.00304705
0.0015281
0.00232411
0.000777753
0.00120688
0.000891657
0.000553873
0.00091537
0.000366169
0.00121647
0.000370542
0.00122613
0.000921377
0.000268164
0.000372566
0.00123542
0.00123261
0.000925887
0.000269624
0.000928245
0.000269528
0.000354198
0.00122764
0.00119294
0.00026628
0.000921905
0.000893073
0.000254872
0.00110331
0.00104881
0.00165038
0.000608967
0.000223807
0.000364016
0.000388057
0.00098101
0.000324911
0.00111262
0.000825872
0.000195329
0.0007157
0.000231321
0.000423904
0.00017808
0.000643444
0.000646104
0.000111373
0.000179656
0.000425021
0.000648178
0.000111621
0.000425682
0.000180193
0.000649378
0.000180317
0.000425569
0.000420991
0.000177474
0.000644086
0.000621468
0.000102597
0.000168799
0.000403507
0.000810608
0.000624808
0.000166874
0.000151552
0.000574795
0.000426227
0.000107306
0.000569451
0.00012465
0.000304722
9.01597e-05
0.000484707
0.000151217
0.000365239
0.000113719
7.04602e-05
0.000297575
0.000292189
4.00146e-05
6.90035e-05
0.000185867
9.30449e-05
0.000230983
0.000378138
0.000269944
3.25032e-05
6.24726e-05
0.000158838
0.0106307
0.068189
0.0595919
0.00487308
0.0374696
0.0166887
0.0137996
0.0370885
0.0066013
0.0695095
0.0139138
0.0127074
0.0373582
0.00662785
0.00556873
0.0328316
0.0707815
0.0140045
0.0527004
0.0417151
0.00539227
0.0112362
0.00162585
0.00456452
0.0274874
0.0690945
0.0683467
0.0589983
0.0426583
0.0423265
0.0361147
0.0363877
0.0684997
0.0598929
0.0591244
0.0429325
0.0424017
0.0361737
0.0365748
0.0712565
0.060613
0.0606297
0.0435178
0.0436332
0.0369241
0.0368558
0.0412511
0.0707405
0.0563621
0.0596821
0.0431324
0.0361237
0.0338934
0.0107774
0.00376743
0.00104725
0.000218024
0.000972005
0.00207105
0.00478706
0.0224532
0.0483089
0.0369183
0.047725
0.0289279
0.0292298
0.0221547
0.0368104
0.0482052
0.04772
0.0289099
0.0222306
0.0291676
0.0220821
0.0486617
0.0371708
0.0485503
0.0223711
0.0294069
0.0292965
0.0222273
0.0621403
0.0372973
0.0497186
0.040532
0.0315196
0.0297444
0.0242203
0.0359952
0.0440007
0.0474242
0.0285037
0.0194663
0.0263073
0.0214434
0.0312494
0.0223786
0.030857
0.0187003
0.0249616
0.0184548
0.0133599
0.025022
0.0137432
0.0248581
0.0208951
0.011404
0.021034
0.0113503
0.0137823
0.0251804
0.0249064
0.0209331
0.011483
0.0211424
0.0113805
0.0377469
0.0211162
0.0297702
0.0162434
0.0224868
0.0177224
0.0124568
0.0254262
0.0139381
0.0254
0.0115496
0.0213054
0.0212194
0.0114716
0.0236261
0.0135864
0.0249577
0.0206798
0.0102147
0.0192378
0.011098
0.0155705
0.0152476
0.0219786
0.0130748
0.00620022
0.00896543
0.00921779
0.0126554
0.00663912
0.00890769
0.016533
0.00657608
0.0088422
0.0125043
0.0165282
0.00656499
0.0125491
0.00891364
0.0166643
0.008847
0.0124713
0.0211452
0.00934288
0.0177538
0.0088005
0.016751
0.0135738
0.00706716
0.0157111
0.0224622
0.0156543
0.0133825
0.00930899
0.00922722
0.00629678
0.0126175
0.00896448
0.0167842
0.0166911
0.00655292
0.00889097
0.0125123
0.0161557
0.00774948
0.00624337
0.0108226
0.0147992
0.00854568
0.012009
0.0104472
0.00730876
0.0140094
0.0103046
0.00377648
0.00531559
0.00741282
0.00729488
0.00725919
0.0107571
0.00417505
0.0062989
0.00419927
0.0027482
0.00725261
0.0106519
0.00709768
0.00401763
0.00617144
0.00415262
0.00267094
0.0065109
0.00896827
0.0125635
0.00985295
0.00344124
0.00505733
0.00683638
0.0072312
0.00333741
0.0025264
0.00242506
0.00367128
0.00488355
0.00505278
0.00741092
0.00255507
0.00510643
0.00250644
0.00503659
0.00339439
0.00165628
0.0032119
0.00317464
0.00486068
0.00273498
0.00110489
0.00173664
0.00176656
0.00220807
0.00166479
0.00340313
0.00222256
0.000649076
0.0014193
0.00105509
0.00159526
0.00209088
0.00329998
0.0021861
0.000614684
0.00136401
0.001031
0.164029
0.0169834
0.0913436
0.0655635
0.0477603
0.121544
0.0693603
0.0510667
0.202317
0.246246
0.196707
0.199912
0.157722
0.15844
0.126538
0.0877943
0.0957533
0.119075
0.127969
0.157515
0.118781
0.0950901
0.121724
0.15746
0.120556
0.0923403
0.122575
0.0947364
0.0698295
0.144127
0.0829016
0.0977738
0.0783327
0.115641
0.093376
0.0636878
0.0662559
0.0358715
0.0498881
0.0646633
0.0887689
0.0694393
0.0504082
0.294291
0.0596067
0.237862
0.227952
0.144813
0.174939
0.058605
0.295474
0.107185
0.292695
0.174178
0.150184
0.0591249
0.0787507
0.15794
0.109669
0.295392
0.256302
0.224106
0.256804
0.227015
0.194264
0.195641
0.328991
0.260481
0.368647
0.341311
0.300687
0.23133
0.201335
0.309649
0.257453
0.269908
0.21958
0.219357
0.191082
0.19132
0.27829
0.234419
0.25241
0.217956
0.226196
0.193278
0.182123
0.151684
0.190072
0.284426
0.20839
0.255016
0.166525
0.132446
0.183297
0.215632
0.226207
0.158085
0.126145
0.158195
0.126109
0.214591
0.17376
0.214639
0.127285
0.160076
0.160671
0.127257
0.166413
0.0934733
0.107638
0.105363
0.156475
0.136357
0.091603
0.105417
0.157322
0.154995
0.135144
0.0930268
0.136959
0.0916586
0.167874
0.190243
0.209189
0.157443
0.112074
0.145343
0.123588
0.161357
0.110845
0.163521