/*--------------------------------*- C++ -*----------------------------------*\
  =========                 |
  \\      /  F ield         | OpenFOAM: The Open Source CFD Toolbox
   \\    /   O peration     | Website:  https://openfoam.org
    \\  /    A nd           | Version:  9
     \\/     M anipulation  |
\*---------------------------------------------------------------------------*/
FoamFile
{
    format      ascii;
    class       volScalarField;
    location    "0.00255";
    object      overpressureMax;
}
// * * * * * * * * * * * * * * * * * * * * * * * * * * * * * * * * * * * * * //

dimensions      [1 -1 -2 0 0 0 0];

internalField   nonuniform List<scalar> 
20523
(
156171
98448.7
25.9022
12986.2
0.107264
0.159673
0.00503857
0.00311509
206172
258029
159663
113977
0.370352
0.201481
0.0171875
0.0104928
268768
178203
254066
186124
258102
208870
273659
191100
200863
266371
136130
244940
172231
252119
248708
167748
252445
47669
33628.4
240824
237651
240030
147603
244815
25909.3
234288
7003.27
232245
270890
264084
266032
244650
246422
242097
240462
272514
268697
267559
248687
247748
243311
244231
263730
261854
259379
242586
240299
238569
236457
260951
253971
256749
235272
237844
234161
231718
257063
263509
262429
238833
235058
234236
239695
259174
255757
261017
237703
231805
233196
236199
257098
249912
254801
230187
234459
232485
228361
273861
263409
380103
278554
386800
257490
253807
348016
340424
271631
360425
371278
252001
253996
336854
336142
389268
376304
374002
345971
344072
333894
335639
383787
367647
371165
338634
341661
331660
328797
375934
363639
335287
359125
331523
325623
321982
366095
348553
354081
322962
327434
318008
313624
362524
346058
360421
323189
313622
312067
324885
277310
309397
307894
299635
271625
301075
270475
354373
343585
357757
321112
307681
310136
318474
303519
275795
305973
297880
267322
295631
269097
350593
332764
346258
304818
315452
312009
301535
300820
269148
297755
265251
293050
290146
262891
323043
341474
328151
308149
293737
297836
303901
266380
290826
294444
286942
257389
283408
260256
291140
264653
256504
283567
282305
292445
263568
289517
260662
255332
278847
280811
287407
262303
258722
276624
285010
282235
249892
273989
256510
247529
249619
252293
230330
224109
226314
228018
251224
275767
267730
271028
244806
247481
279168
224222
207813
225731
221793
200295
220420
202379
167697
451.527
59.8795
82142.1
626.124
86.7463
98867.9
226803
209559
227573
222782
204533
223503
203702
251478
246631
245721
230276
229478
224612
225355
243166
250278
244631
227251
228521
223735
222573
143451
125.841
271.348
30154.9
14.0798
46.2493
71274.6
203917
220445
222448
197373
218811
216970
193366
239548
246893
241497
225743
224030
221194
219581
218788
184747
215444
197236
214772
219490
196190
196749
215996
218267
214961
180025
212840
187840
217878
191670
212797
182245
213933
216629
194440
242528
237398
235008
219985
222092
217774
215338
528495
404186
648414
428956
440323
627260
386893
377470
512213
423744
576407
617232
372988
355995
504467
473496
643071
608314
569281
603410
565221
535783
539710
635909
552239
589027
596850
559371
530286
523518
605218
544031
579740
568851
534700
515902
507140
591496
512069
542606
556534
523940
497151
486003
568383
524591
563928
505216
477810
474321
509028
433577
486179
491964
470307
412826
464766
417275
500305
437397
496669
474788
423670
478172
420883
519113
550553
557865
500119
463969
469690
493986
479722
417921
472258
407802
458518
451403
402104
541987
495416
532050
457443
486923
478739
449976
454607
411422
463912
443388
388828
434563
395836
507933
484988
520704
469595
431821
441319
459187
451479
430198
405767
384445
427350
454524
403157
447278
395573
381320
418732
423540
442009
399774
390792
413369
436226
429542
367950
407191
385394
1.21784e+06
1.30099e+06
1.06911e+06
1.05232e+06
946118
976725
803064
784600
1.28788e+06
1.25947e+06
1.24837e+06
1.13133e+06
1.11789e+06
1.0863e+06
1.09694e+06
1.25865e+06
1.18925e+06
1.22324e+06
1.05983e+06
1.09394e+06
1.06675e+06
1.03861e+06
1.11475e+06
991273
1.19784e+06
1.10563e+06
1.18726e+06
1.04421e+06
983291
1.14094e+06
1.09037e+06
1.16845e+06
1.02757e+06
951957
1.00479e+06
970244
964958
843808
834961
824251
951043
942053
816202
920802
804196
821393
925631
787466
803989
904189
921165
773778
877337
912446
767107
795813
869921
756745
858162
743051
769371
841980
879662
898547
733779
646474
581366
735653
923778
710811
984720
562356
717945
863454
698268
864106
553212
516060
691097
628296
1.02117e+06
917630
1.01386e+06
910136
916406
831577
838236
1.00142e+06
891391
884617
899189
905690
821965
809689
961156
931418
872015
838816
848362
793412
772674
821770
727092
814721
752830
685921
679827
759445
828675
729487
821803
754058
682673
676871
760100
898625
792036
778444
809314
821217
748970
723136
721036
800424
812281
745417
660084
734756
669188
804672
706191
791378
744144
661560
671702
732828
784953
682956
765150
648894
721156
704232
635310
773667
672230
751402
648596
718414
700774
633212
719153
665392
743127
684969
602475
663576
619836
699820
651120
726653
680172
595466
615207
657281
689911
634503
631407
576718
629041
626148
695666
682007
570324
610663
612762
621709
672092
619199
600424
601925
660023
645253
542446
589165
588247
628416
558744
529989
557238
573948
609295
574381
422110
372633
362304
392454
400229
413731
379308
3.05046e+06
1.36084e+06
1.37221e+06
1.23382e+06
1.31371e+06
1.2223e+06
1.22135e+06
832154
1.03523e+06
1.57895e+06
3.2745e+06
1.56018e+06
2.11455e+06
1.51036e+06
2.53633e+06
1.52955e+06
1.32105e+06
1.37697e+06
1.31797e+06
1.19487e+06
1.30258e+06
1.30081e+06
1.19946e+06
1.57051e+06
1.99624e+06
2.00779e+06
1.54833e+06
1.97211e+06
1.55325e+06
1.97106e+06
1.37422e+06
1.27343e+06
1.30218e+06
1.18195e+06
1.2772e+06
1.29359e+06
1.15852e+06
1.31422e+06
1.3016e+06
1.30566e+06
1.15879e+06
1.15173e+06
1.16732e+06
1.13778e+06
2.02185e+06
1.57668e+06
2.01864e+06
1.55306e+06
1.55438e+06
1.96226e+06
1.94856e+06
3.22892e+06
2.47266e+06
2.46239e+06
2.88047e+06
2.32327e+06
2.31003e+06
2.84281e+06
2.41198e+06
3.15494e+06
2.44064e+06
2.28565e+06
2.70127e+06
2.25404e+06
2.78521e+06
1.24766e+06
1.27461e+06
1.2838e+06
1.13768e+06
1.0801e+06
1.10638e+06
1.11406e+06
1.09547e+06
1.24194e+06
1.22041e+06
1.01672e+06
1.01143e+06
1.23815e+06
1.10391e+06
1.54403e+06
1.52419e+06
1.81019e+06
1.90131e+06
1.54286e+06
1.89519e+06
1.80178e+06
1.08101e+06
1.22614e+06
1.21857e+06
996642
1.00308e+06
1.23279e+06
1.06111e+06
919857
872796
1.00276e+06
1.02316e+06
862880
910973
989584
1.53745e+06
1.51586e+06
1.53861e+06
1.88043e+06
1.76707e+06
1.78399e+06
1.86528e+06
2.23139e+06
2.0232e+06
2.16879e+06
2.15293e+06
2.2041e+06
2.00725e+06
2.50627e+06
2.13271e+06
2.39464e+06
1.96358e+06
2.16644e+06
1.98777e+06
2.10911e+06
2.45813e+06
1.00506e+06
943195
887799
849358
900607
982162
969482
2.55571e+06
1.32174e+06
1.66723e+06
2.93707e+06
1.57577e+06
1.82388e+06
1.48926e+06
2.05214e+06
1.50596e+06
1.33322e+06
1.02215e+06
1.18072e+06
1.2989e+06
1.23177e+06
759249
952005
2.01793e+06
1.58222e+06
2.01702e+06
1.55047e+06
1.93464e+06
1.92612e+06
1.56245e+06
1.23212e+06
1.30413e+06
1.1857e+06
1.25274e+06
1.12491e+06
1.09026e+06
1.24433e+06
2.38025e+06
2.82064e+06
2.35082e+06
2.60579e+06
2.22139e+06
2.19545e+06
2.50058e+06
1.19687e+06
1.12374e+06
1.13956e+06
1.03642e+06
1.06393e+06
1.01759e+06
990023
2.29816e+06
2.69612e+06
2.32812e+06
2.16669e+06
2.26431e+06
2.12364e+06
2.38646e+06
1.29601e+06
1.13355e+06
1.15409e+06
1.06719e+06
1.30941e+06
1.0673e+06
1.26478e+06
2.02805e+06
1.61698e+06
2.02366e+06
1.91899e+06
1.62357e+06
1.90435e+06
1.59293e+06
2.31212e+06
1.93088e+06
2.08313e+06
2.04818e+06
1.98088e+06
1.88376e+06
2.21962e+06
1.5376e+06
1.74552e+06
1.84823e+06
1.82963e+06
1.50301e+06
1.71909e+06
1.54459e+06
1.04987e+06
1.07075e+06
1.08836e+06
979779
907609
956990
945980
1.22409e+06
993608
1.03769e+06
1.02106e+06
1.2503e+06
1.00203e+06
1.23886e+06
872724
911669
810845
923434
788976
857921
877881
2.00182e+06
2.0227e+06
1.7682e+06
1.90219e+06
1.83025e+06
1.93985e+06
2.11873e+06
1.80633e+06
1.56431e+06
1.64934e+06
1.49949e+06
1.68695e+06
1.77627e+06
1.55539e+06
1.02217e+06
1.30979e+06
1.27484e+06
1.05883e+06
1.02492e+06
1.04813e+06
1.26856e+06
903351
819036
858663
770416
850976
891324
845235
926363
1.0127e+06
1.16727e+06
1.04034e+06
820190
781950
725245
653559
1.11545e+06
1.14565e+06
1.01934e+06
1.09823e+06
976367
1.00295e+06
962766
1.06409e+06
1.00048e+06
1.05074e+06
888369
931434
919998
876796
1.10509e+06
1.00622e+06
1.06372e+06
926870
974358
937878
895417
890222
757249
856050
765950
875873
842804
740740
972790
967194
1.01921e+06
897987
824867
857155
860985
787710
732641
710736
807654
686919
714016
772680
749471
820360
854414
824019
703640
725575
793992
790388
733721
671761
679396
699312
756874
764416
187698
211450
215157
213471
163827
209608
182075
239976
234155
234964
219755
214368
213409
220447
232020
238983
233242
218962
209633
211960
217906
211606
162665
202237
152347
206708
209224
174023
228862
236106
230584
206122
216557
214200
200952
48240.4
37.9603
63323.2
4127.95
2.48105
1.76657
2736.85
165785
211242
210526
202310
138239
203399
135532
207917
162056
209523
200557
121902
197775
130221
229961
224759
226911
210385
181441
193305
204437
27.6449
19.8307
39154.6
1.46009
2043.73
38.1756
0.908529
205509
135356
201977
110097
193711
187889
94696.2
169393
153049
151013
69883.8
67440.9
45243
47387
189522
119202
196894
179167
55756
166231
76128.8
164555
140966
147144
56180.8
62855.5
41247.1
35768.3
186881
95007.8
45154
159826
157326
188446
91859.6
183965
76215.5
40265.9
144105
152309
179141
85595
152816
132087
120318
47643.4
37926
29354.2
22417.8
130547
86403.2
105045
19421.6
28360.9
15924.3
10550.5
64106
132341
171892
161517
18197.4
116342
49939.4
114869
90455.5
122472
23472.7
9609.48
11531.9
19783
96007.7
129907
127368
26213.4
13796.5
13001.3
27680.7
146754
22515
11722.3
71776.1
95796.8
126418
35407.2
104292
58263.7
90728.8
7530.35
15656.4
11614.3
5553.52
56624.2
43813.2
74545.2
8103.98
2478.73
3846.72
5328.61
60727.3
31505.5
29790.7
6239.93
5884.69
2452.6
2607.31
55647.7
21885.3
26457.9
4333.49
5215.42
2154.06
1760.19
29711.9
16832.7
12018.4
3371.92
2444.41
1338.46
948.207
20532.2
5005.25
8005.54
1021.4
1639.54
625.694
383.353
3.53676
0.405152
0.253212
0.21479
4.66323
4.29466
6.48352
7524.81
593.135
7130.61
4144.97
355.11
4376.38
335.911
5478.83
532.403
6419.19
3719.65
252.128
3152.35
300.009
12082.6
3873.46
11328.9
896.232
316.004
296.04
954.531
331893
12726.9
954.757
0.0409281
0.00177843
255010
93266.2
0.124616
0.00344814
347452
248842
260193
248210
317498
298029
231555
244617
128703
183102
32211.2
114660
236792
242176
354278
342582
318043
335991
312688
308817
303620
339943
321078
328808
300400
306813
297977
291826
330306
311471
323999
289218
299289
294235
284424
74106.5
227970
234455
3908.94
227455
179358
380.048
286921
256713
282645
254254
279593
275430
250869
251822
251047
247903
232608
229824
229171
226488
309954
305086
317071
288787
273736
279406
283150
252949
272857
277952
270899
243388
266028
247229
248358
240847
244527
223720
226879
223628
220567
272000
264095
241935
267947
238979
260333
244909
246768
239184
243700
221737
225559
222969
219221
407922
452538
387420
559779
349040
460563
414967
324618
541607
498955
527023
509891
484587
473786
460221
469037
500885
521786
472116
491605
445517
429862
433123
396157
444381
381098
424812
414117
372725
493757
446464
478091
421251
447723
435070
409713
1.66867e+06
868909
737974
1.98109e+06
2.4061e+06
1.7091e+06
1.74449e+06
1.56009e+06
1.50103e+06
1.35702e+06
1.4881e+06
1.37497e+06
975456
1.09063e+06
801767
1.27119e+06
810555
808119
883419
959609
758778
626879
680657
546404
2.24938e+06
2.2579e+06
2.15857e+06
2.14477e+06
2.05225e+06
1.96971e+06
2.03022e+06
2.01135e+06
1.72562e+06
1.97095e+06
1.64028e+06
1.87376e+06
1.82699e+06
1.63712e+06
1.13076e+06
1.43281e+06
1.15026e+06
1.36452e+06
1.09237e+06
1.13823e+06
1.41164e+06
1.02063e+06
931553
1.00115e+06
875168
944562
941466
849798
1.93821e+06
2.11692e+06
2.05396e+06
1.87801e+06
1.80543e+06
1.7759e+06
1.91885e+06
1.92811e+06
1.70299e+06
1.87217e+06
1.79575e+06
1.66575e+06
1.63008e+06
1.83548e+06
948003
906069
846938
892664
833370
808410
789418
1.82528e+06
1.71081e+06
1.90736e+06
1.76375e+06
1.56549e+06
1.69229e+06
1.60983e+06
1.7366e+06
1.60725e+06
1.47018e+06
1.68829e+06
1.44147e+06
1.56043e+06
1.54066e+06
1.23259e+06
1.47593e+06
1.19097e+06
1.18633e+06
1.42559e+06
1.43438e+06
1.22287e+06
1.34926e+06
1.09747e+06
1.31368e+06
1.13738e+06
1.31274e+06
1.37161e+06
1.132e+06
996300
894809
989806
957678
826998
990003
834623
1.7105e+06
1.64607e+06
1.58472e+06
1.46862e+06
1.55206e+06
1.6169e+06
1.74179e+06
894315
754668
884301
916631
760698
921644
793728
924135
837370
872293
787427
815804
773029
748392
854459
780855
836434
746705
774455
746893
708045
692494
661293
737786
681095
733754
704902
639754
1.63167e+06
1.46061e+06
1.40314e+06
1.43853e+06
1.5035e+06
1.56469e+06
1.50651e+06
1.17605e+06
1.34952e+06
1.29782e+06
1.15032e+06
1.37076e+06
1.15107e+06
1.19531e+06
953758
808304
781106
986203
958927
992005
793569
763425
788632
818428
729924
665713
686675
707687
701801
644402
722678
688170
599326
617523
668719
704813
676100
714928
675662
610193
622300
651438
654394
601015
572449
570592
592008
621721
635063
551976
700287
625395
826557
500352
603932
578099
446180
786706
760908
746085
727473
711521
695319
665352
744590
654319
691798
636910
675134
633843
600614
693033
602439
665096
583237
640274
614823
562171
671568
578229
641438
573902
632717
605954
550952
603930
635238
577818
587943
515825
559599
539563
525443
610135
551745
578286
502403
526927
549694
541431
538714
588418
565666
483427
518812
522282
541705
480606
465293
475665
497608
516679
501950
367655
377919
420957
402610
353891
390281
363596
443279
461263
431210
421402
383647
397122
406772
365344
383804
404599
394522
341559
374423
357364
383702
339592
333400
353320
364170
371958
348733
263649
237929
235605
251650
256303
259211
241535
232471
240396
235977
220177
210034
216276
217122
77.0075
11.4205
25260.7
2540.58
1.587
18495.6
8.26959
213619
171293
211146
168651
210538
206823
152558
237346
232444
217705
229639
214344
210779
203078
200360
154062
207338
200404
98145.2
189862
129216
146919
195523
205269
198896
87784.6
185180
124704
231331
222840
226635
195953
207617
190389
168885
221088
213828
224822
163473
195242
180370
136825
188811
63268.4
58482.2
143089
168606
172003
95848.7
209278
201343
219696
156844
60452.7
100926
121576
2.04635
215.507
15.2308
10.1322
1.05139
2.25173
0.583913
178194
48823.3
161037
35931.8
147656
121532
20081.5
69669.1
65476.1
43880.3
12266.1
7237.7
6572.47
3841.64
27276.6
100637
135487
88179.6
4434.27
52705
9799.14
12718
47004.4
100045
69558.7
1988.23
26248.1
6601.27
45464.1
12802.4
25596.9
2029.81
4006.89
2059.48
999.394
38400.5
10250.4
23122.1
1464.03
3279.97
1848.63
799.403
40158.6
1383.16
908.588
5211.39
12280.4
18756.5
3198.64
5920.62
5299.55
12191.3
951.5
185.766
403.745
453.037
0.957246
0.0500613
139.192
0.0640268
0.937721
0.0421183
0.803543
0.0287211
1.00772
0.102696
0.926273
0.0445434
0.94607
372.309
232.891
310.9
0.967611
1.06285
491.611
1.10927
380.377
502.46
0.962506
397.174
1.13277
523.746
0.888978
0.765634
310.696
192.322
79.1766
0.893583
134.53
0.927485
0.969044
317.938
1.0022
332.07
0.95891
144.927
180.181
242.095
0.939564
0.623511
5.33363
0.713135
6.62928
0.528945
0.338941
147.923
59.1483
16.5035
0.506191
35.1583
0.305558
8.94065
20.0043
1.56716
0.114192
0.175215
3.49568
360.839
4427.33
3379.73
198.878
2512.65
1876.2
147.263
8069.96
3382.82
9906.47
782.907
205.665
256.776
634.949
191.03
860.621
65.9858
1613.01
2419.79
1312.5
101.846
2911.15
591.329
7615.27
4191.33
1533.12
316.481
111.158
6138
1409.21
4361.43
151.889
478.092
334.009
103.905
2210.33
81.8802
183.899
1128.01
1063.99
2340.81
173.714
4.61292
0.748752
0.047967
0.050243
0.861344
0.298232
0.0248357
527.035
39.6053
1003.37
43.8958
582.426
298.737
22.1013
1966.57
128.638
782.844
72.4062
942.799
1643.71
154.392
128.138
531.794
1742.18
899.61
2881.27
215.541
65.4845
100.401
608.751
1289.54
949.787
33.2864
442.816
73.2965
2113.31
324.854
736.418
68.2811
154.596
52.3852
22.4872
188.561
422.877
31.9185
655.815
22.3578
300.059
50.0321
20.3735
70.3884
142.936
288.946
966.267
494.973
35.6354
333.793
426.314
382.953
30.0622
29.1822
26.2981
33.2992
441.942
467.489
420.325
38.3739
33.0354
34.7064
36.5259
435.19
400.861
458.23
35.5778
29.5961
33.7227
31.2357
528.741
477.245
502.267
38.7245
40.8607
38.8966
36.869
407.691
454.159
465.958
36.1834
31.0228
31.7655
35.3605
537.498
497.79
510.691
40.6496
41.5706
39.5681
38.6938
0.0856014
1.3236
1.8121
0.412445
0.329757
0.0375814
0.0430111
35.703
498.494
469.797
187.269
14.7626
199.133
13.89
285.587
268.578
328.378
25.9106
18.5754
22.6131
21.3228
379.418
295.543
360.822
28.5197
24.7334
23.5267
29.9772
335.375
253.781
267.858
24.8135
26.1889
21.0482
19.9461
341.152
264.964
272.465
26.0088
26.6314
21.4045
20.8968
340.894
31.5335
414.336
163.942
10.0075
133.347
12.2141
277.877
247.411
220.609
24.5041
22.0498
17.6823
19.6823
0.0218408
0.445641
0.0395576
0.0585316
0.828263
0.235337
0.0282356
261.224
14.2143
186.215
7.61741
100.696
70.7166
5.47897
23.0769
152.453
311.814
154.76
5.76098
73.7043
11.6329
192.814
147.038
203.601
16.1004
11.2995
15.2775
11.8971
236.93
151.14
187.266
15.5188
18.9236
15.1446
12.392
149.454
201.087
207.044
16.3592
11.7798
15.9555
12.0835
208.568
131.888
153.314
14.4814
16.656
12.4907
10.8526
178.474
229.988
169.452
19.3951
18.4235
14.5272
13.8004
109.329
252.313
18.8497
138.535
4.74513
58.6999
10.62
187.264
118.925
166.331
13.4669
11.0987
15.0304
9.93021
112.493
99.6891
140.395
11.4864
6.92304
9.40127
8.4639
6.95534
76.1634
80.3524
123.725
117.373
10.1821
9.68438
115.397
107.547
83.1861
12.0825
9.65532
9.07866
7.25313
2.50814
6.06026
75.6131
9.47428
123.139
45.9279
3.71912
4.81466
26.4147
64.279
97.459
231.105
16.8292
7.16328
6.07873
58.1442
68.3983
90.5218
105.823
8.81571
7.68479
85.0368
41.5795
60.582
5.36617
7.27219
5.47447
4.06759
3.69292
4.53234
46.4785
73.118
55.9261
6.44419
5.18408
66.2739
5.88601
22.9404
2.35205
21.5039
70.5612
5.56224
57.6881
4.02695
2.04449
14.8751
18.5835
46.4632
4.84967
4.48197
45.5267
48.0975
26.7275
25.299
3.00954
2.90749
69.5631
2.91983
13.0378
2.65308
28.7443
32.2847
5.56146
3.97945
34.2245
40.6157
18.8837
22.4989
2.73874
2.48783
24.7789
2.80882
2.20607
26.9874
40.0515
3.86683
2.94048
3.09912
10.9431
34.3711
23.6464
1.23469
7.58731
2.35634
0.102397
0.01808
0.0161433
0.219512
0.0265496
0.131613
0.020173
1.76657
3.65919
42.3703
2.31029
22.141
7.94396
1.31042
2.55334
3.02646
26.847
14.6912
10.9139
2.21004
1.92516
258735
272590
267604
203262
257972
214439
268129
203744
218902
283193
210808
266671
192815
260017
202337
217538
281286
269175
248116
151741
219502
207730
187121
257303
282821
253100
277703
284266
279112
259215
254281
284457
278155
279299
258252
259366
254432
253442
278744
276378
274067
256550
254230
251903
249838
275816
268503
271446
248527
251518
247447
244764
243822
248414
272658
268861
274009
249524
244856
269087
273160
274214
249688
244221
248801
245044
265733
265367
262151
245397
242240
241930
239012
271558
264742
269445
243020
247427
245585
241348
264348
262532
267046
243449
237211
241032
239426
262259
255467
258878
235874
239062
236031
233002
261456
254409
258427
234800
238422
235702
232237
232220
218796
236826
219707
237925
233210
215286
219787
237048
238036
233342
214621
232472
215382
215633
235518
233410
213429
231155
229306
211673
251930
251350
255273
232873
226708
229549
229955
228193
213374
230940
227128
206590
224692
209419
223628
209567
227854
228771
204326
210499
224497
228914
204526
223954
209901
228131
210650
224641
222930
208660
226984
225354
200104
206771
221491
225319
222406
203971
203072
222116
219454
198544
223441
200918
217821
197001
221268
204232
219781
199134
192568
216584
216736
183955
192483
213973
196592
215659
218906
216440
179152
190795
213380
378353
424858
430519
361563
415524
335252
312129
416853
296362
437749
312639
301158
413937
294605
286963
402103
435011
310484
415226
409371
285909
297504
273226
283865
397206
436512
438831
432940
387781
389814
384148
381911
439298
431783
433424
388607
390179
384557
382947
432064
428879
425682
386113
383119
380324
377288
375999
428757
418172
422197
379758
373978
370232
378507
281582
269043
254270
266044
342290
358347
368342
423446
418269
426117
377716
375471
370603
418848
424819
426667
378169
369419
376510
371079
421919
410390
418565
366953
374014
370981
363878
420355
371789
413504
408399
367282
366113
361707
406558
410638
414855
367628
356760
363891
360567
402569
395480
402448
356801
362402
356793
351148
346779
313802
348672
343074
306802
341202
308415
314035
347454
348945
343405
307348
341896
308640
405877
391791
400567
352648
359766
355346
348214
345048
307724
342163
305331
339649
336820
302771
335219
304621
338829
333639
296654
330178
299872
387331
385503
394421
350391
337516
343212
344709
328903
295682
301330
337149
297220
302925
330772
337470
297497
329765
301967
336058
303177
331159
331323
293752
327242
293245
326477
322547
289698
387432
394696
385804
350436
344709
343228
337516
327680
300063
333867
331150
292369
297674
325047
328166
291980
289819
318855
324794
294995
322143
318280
289892
322937
318352
282090
286027
313688
370365
370339
379228
331110
338224
331127
324107
368769
375992
365421
326944
335396
329737
321409
288758
315299
321186
317336
280602
285362
311546
313173
302791
277885
277076
281779
307406
308553
313090
277777
308511
276825
307245
302679
273093
352203
350666
360844
323457
308660
315309
316594
297682
273642
303368
297646
264457
292044
268972
271601
294050
300890
296373
262479
289641
267945
625294
426419
665518
514181
627871
541470
584737
510357
728798
743012
635667
726372
710628
623155
611732
674167
599819
694293
613605
712617
693458
599168
682367
706263
689716
590519
608192
596334
578325
549292
472561
478709
470461
539325
531125
464219
647634
549528
567997
652132
671746
582880
564698
781660
472383
733072
653286
561278
735534
474001
786497
497096
766089
729044
697776
470559
522074
555680
494293
774838
768333
662102
761787
657974
651576
646889
770733
663423
783799
786478
774067
665857
656574
787665
773422
775244
665566
666809
657534
655644
755282
740820
752847
644634
652176
640844
632950
626889
642075
754671
737621
758706
645895
631355
738868
757265
759850
646803
629054
644308
632360
751433
721403
744061
623772
639423
633787
617597
569000
489084
495634
498018
571736
564312
491608
498557
570972
572484
565095
490543
563256
492259
711056
721598
734299
627117
601348
618633
610205
567709
491424
564578
487514
559823
556146
484130
483720
487832
560657
551655
475943
546317
480303
541640
552717
481508
556051
475606
484494
545268
556834
476298
543455
483168
554688
485145
546087
539329
479805
550776
546405
466428
476067
534291
535291
467018
456504
541320
461902
471833
528763
521993
532422
465403
457063
448000
521375
456740
527786
461244
450431
518874
443510
454484
505018
483066
497411
437709
508900
435539
446739
494719
470019
605848
568531
497691
440836
529148
479844
591366
652638
584149
673254
648884
628461
565930
550192
532890
551360
630305
582031
606088
533082
514602
621510
572199
601336
523163
545480
530028
508147
509651
447210
437907
436061
495562
483473
426685
556456
579822
551390
513006
474334
491641
495020
484442
416352
427628
470225
405238
455885
416446
462801
423773
410426
467862
401367
451092
414516
424759
380879
393376
391483
404315
438462
454893
722739
877405
1.1893e+06
781116
649346
766392
667413
867157
1.12516e+06
1.04361e+06
1.0975e+06
1.04018e+06
992623
973884
927550
1.31467e+06
1.3276e+06
1.2877e+06
1.58409e+06
1.62089e+06
1.30007e+06
1.14455e+06
1.4454e+06
1.77634e+06
2.34808e+06
1.72613e+06
1.31442e+06
1.22685e+06
998338
813633
1.50935e+06
1.08398e+06
1.12042e+06
2.18435e+06
2.16625e+06
2.10096e+06
2.03507e+06
1.97271e+06
1.94787e+06
1.85078e+06
1.56615e+06
1.50962e+06
1.34024e+06
1.48446e+06
1.32066e+06
1.29085e+06
1.2722e+06
1.06597e+06
1.33009e+06
1.58938e+06
814922
975781
987589
1.02174e+06
791993
752813
1.0414e+06
1.27854e+06
1.47274e+06
1.0417e+06
811038
1.97186e+06
1.71219e+06
1.87322e+06
1.61119e+06
1.77807e+06
1.71342e+06
1.56967e+06
1.97331e+06
1.64906e+06
1.86086e+06
1.5924e+06
1.79404e+06
1.70226e+06
1.52823e+06
1.8546e+06
1.56e+06
1.76258e+06
1.52262e+06
1.72907e+06
1.663e+06
1.4792e+06
1.54023e+06
1.42087e+06
1.45496e+06
1.26828e+06
1.29511e+06
1.24616e+06
1.21678e+06
1.41695e+06
1.29106e+06
1.39269e+06
1.15294e+06
1.22753e+06
1.20947e+06
1.13615e+06
1.10483e+06
934096
923025
914376
1.09072e+06
1.07609e+06
904216
1.54448e+06
1.45076e+06
1.40841e+06
1.38036e+06
1.42247e+06
1.29709e+06
1.27866e+06
1.45773e+06
1.45945e+06
1.62184e+06
1.54814e+06
1.27626e+06
1.40113e+06
1.39306e+06
1.41365e+06
1.45239e+06
1.59305e+06
1.54721e+06
1.28156e+06
1.42359e+06
1.38428e+06
1.59437e+06
1.5537e+06
1.72952e+06
1.5949e+06
1.35079e+06
1.47643e+06
1.44525e+06
1.24081e+06
1.42575e+06
1.38401e+06
1.33805e+06
1.20838e+06
1.18534e+06
1.15109e+06
1.26144e+06
1.32593e+06
1.36139e+06
1.18334e+06
1.08125e+06
1.15312e+06
1.11123e+06
1.06236e+06
908222
892489
1.05565e+06
874159
1.03274e+06
890666
2.59892e+06
2.42967e+06
1.69664e+06
2.49224e+06
1.77604e+06
2.45773e+06
1.78645e+06
1.90738e+06
2.46815e+06
2.64096e+06
2.6388e+06
2.19871e+06
2.29937e+06
2.32082e+06
2.23295e+06
2.78404e+06
2.80167e+06
2.79706e+06
2.79386e+06
2.43185e+06
2.4386e+06
2.4618e+06
2.34691e+06
2.44314e+06
2.5606e+06
2.26964e+06
2.11924e+06
2.16791e+06
2.19988e+06
1.77086e+06
1.81485e+06
1.80142e+06
1.97493e+06
2.035e+06
2.04237e+06
1.99236e+06
2.55841e+06
2.71118e+06
2.73479e+06
2.37014e+06
2.30047e+06
2.2511e+06
2.4094e+06
2.16537e+06
1.87203e+06
1.84135e+06
1.87062e+06
2.12862e+06
2.11252e+06
2.14979e+06
1.74275e+06
1.7565e+06
1.68963e+06
2.00405e+06
1.9018e+06
1.92269e+06
1.96489e+06
1.81423e+06
1.72982e+06
1.70825e+06
2.0611e+06
2.00606e+06
1.96759e+06
2.09963e+06
5.79387e+06
2.68977e+06
5.62343e+06
2.52428e+06
2.49307e+06
4.4849e+06
1.71554e+06
4.43213e+06
1.72111e+06
2.40911e+06
2.72202e+06
2.40158e+06
1.74646e+06
1.91489e+06
1.76049e+06
1.92835e+06
2.52359e+06
2.36496e+06
2.40322e+06
2.24933e+06
2.09057e+06
2.11528e+06
2.24619e+06
2.50788e+06
2.37162e+06
2.32593e+06
2.25194e+06
2.08049e+06
2.11178e+06
2.2378e+06
2.549e+06
2.52333e+06
2.35657e+06
2.24564e+06
2.11304e+06
2.14468e+06
2.2221e+06
2.44731e+06
2.56504e+06
2.579e+06
2.2634e+06
2.14243e+06
2.16715e+06
2.25095e+06
2.97727e+06
5.66723e+06
2.92832e+06
2.78321e+06
5.38881e+06
2.82844e+06
5.332e+06
2.68852e+06
2.69229e+06
2.68288e+06
2.39353e+06
2.41381e+06
2.43189e+06
2.36852e+06
2.92594e+06
5.70207e+06
2.98715e+06
2.76896e+06
5.30119e+06
5.29042e+06
2.8263e+06
2.71056e+06
2.71499e+06
2.70134e+06
2.40743e+06
2.43376e+06
2.43935e+06
2.39961e+06
2.06937e+06
1.87744e+06
1.97289e+06
1.72178e+06
1.89325e+06
2.07102e+06
1.95911e+06
2.05242e+06
1.88032e+06
1.71266e+06
1.97256e+06
1.88351e+06
2.06971e+06
1.94353e+06
2.00428e+06
1.91553e+06
1.79608e+06
1.75768e+06
1.93175e+06
1.9865e+06
1.80847e+06
2.0127e+06
1.93833e+06
1.7613e+06
1.80818e+06
1.94098e+06
2.00667e+06
1.81244e+06
2.70189e+06
4.87806e+06
4.47747e+06
2.70998e+06
4.90052e+06
2.75296e+06
2.67854e+06
2.12364e+06
2.15224e+06
1.86752e+06
1.93675e+06
2.177e+06
2.10022e+06
1.88495e+06
2.13223e+06
2.17127e+06
1.94042e+06
1.88223e+06
2.18413e+06
2.12289e+06
1.88968e+06
2.71629e+06
4.94614e+06
2.70645e+06
4.50784e+06
2.75462e+06
4.9339e+06
2.68639e+06
2.28766e+06
3.55883e+06
2.22481e+06
4.02051e+06
2.43957e+06
2.08081e+06
5.8323e+06
4.24754e+06
2.42e+06
2.60848e+06
2.62833e+06
2.14165e+06
2.31695e+06
2.37811e+06
2.17029e+06
6.00311e+06
3.16356e+06
3.34041e+06
5.325e+06
2.9609e+06
3.13894e+06
5.37461e+06
2.59255e+06
2.38222e+06
2.6026e+06
2.42095e+06
2.10958e+06
2.44594e+06
2.14629e+06
2.02559e+06
1.75525e+06
1.7974e+06
1.91765e+06
2.12872e+06
2.20347e+06
1.94963e+06
5.92469e+06
6.05519e+06
3.47678e+06
3.28263e+06
5.2452e+06
3.36234e+06
5.37007e+06
2.8141e+06
4.35052e+06
2.75733e+06
4.83184e+06
2.84715e+06
2.96988e+06
4.78577e+06
1.84106e+06
2.15145e+06
1.82898e+06
2.26742e+06
1.9756e+06
2.31921e+06
1.96352e+06
2.90434e+06
4.14303e+06
2.86736e+06
3.07456e+06
4.60181e+06
3.13751e+06
4.7206e+06
1.47976e+06
1.32405e+06
1.84933e+06
1.87667e+06
2.35098e+06
1.37119e+06
1.78267e+06
2.50301e+06
1.78072e+06
2.61955e+06
2.3843e+06
2.6488e+06
2.40587e+06
2.35696e+06
2.18261e+06
2.17083e+06
859843
938239
1.3441e+06
1.59851e+06
1.32974e+06
862900
941622
2.60659e+06
2.30635e+06
2.37936e+06
2.22913e+06
2.31926e+06
2.13921e+06
2.07129e+06
2.11955e+06
1.83581e+06
2.11759e+06
1.73981e+06
1.96932e+06
1.94759e+06
1.71614e+06
2.10773e+06
1.8393e+06
2.08505e+06
1.77953e+06
1.97521e+06
1.94812e+06
1.74133e+06
1.7071e+06
1.96163e+06
2.0434e+06
1.90547e+06
1.62844e+06
1.84298e+06
1.69136e+06
2.0536e+06
1.81574e+06
2.1007e+06
1.91591e+06
1.64303e+06
1.8631e+06
1.68303e+06
1.51725e+06
1.58701e+06
1.59502e+06
1.34936e+06
1.52603e+06
1.30497e+06
1.29732e+06
1.59523e+06
1.52443e+06
1.35091e+06
1.35238e+06
1.52917e+06
1.30779e+06
1.30281e+06
1.6152e+06
1.63661e+06
1.80487e+06
1.77146e+06
1.45001e+06
1.58487e+06
1.59998e+06
1.72971e+06
1.41145e+06
1.50947e+06
1.50618e+06
1.67995e+06
1.54777e+06
1.55866e+06
1.42593e+06
1.33279e+06
1.43584e+06
1.24156e+06
1.15974e+06
1.16813e+06
1.2342e+06
1.12534e+06
941504
1.12993e+06
1.10036e+06
917684
921690
1.09534e+06
1.33542e+06
1.43238e+06
1.43869e+06
1.24415e+06
1.16451e+06
1.23943e+06
1.17044e+06
1.12972e+06
942990
1.13226e+06
1.10246e+06
921002
1.09988e+06
923219
1.65373e+06
1.5008e+06
1.86254e+06
1.7488e+06
1.90152e+06
2.34604e+06
1.88872e+06
2.5607e+06
2.57696e+06
2.37e+06
2.57353e+06
2.37278e+06
2.35589e+06
2.20114e+06
2.1902e+06
2.56959e+06
2.35915e+06
2.37063e+06
2.33343e+06
2.35262e+06
2.19865e+06
2.1799e+06
2.12684e+06
1.85951e+06
2.12298e+06
1.99416e+06
1.75755e+06
1.98472e+06
1.7651e+06
1.85069e+06
1.97573e+06
2.11337e+06
1.85922e+06
2.12418e+06
1.99142e+06
1.76197e+06
2.12279e+06
1.91345e+06
2.13572e+06
2.01174e+06
1.80683e+06
2.00008e+06
1.81899e+06
1.79743e+06
1.98939e+06
2.1089e+06
1.90968e+06
2.13194e+06
2.00865e+06
1.81605e+06
1.49356e+06
1.62809e+06
1.82002e+06
1.83688e+06