/*--------------------------------*- C++ -*----------------------------------*\
  =========                 |
  \\      /  F ield         | OpenFOAM: The Open Source CFD Toolbox
   \\    /   O peration     | Website:  https://openfoam.org
    \\  /    A nd           | Version:  9
     \\/     M anipulation  |
\*---------------------------------------------------------------------------*/
FoamFile
{
    format      ascii;
    class       volVectorField;
    location    "0.0033";
    object      U;
}
// * * * * * * * * * * * * * * * * * * * * * * * * * * * * * * * * * * * * * //

dimensions      [0 1 -1 0 0 0 0];

internalField   nonuniform List<vector> 
29580
(
(-88.8995 -46.6275 112.819)
(-106.946 -31.9776 131.756)
(-127.99 -65.58 168.392)
(-116.553 -34.951 153.363)
(-127.957 -71.6213 231.65)
(-124.747 -43.7182 252.75)
(-75.9954 -25.9522 108.976)
(-95.7243 -18.7107 113.794)
(-73.0902 -16.7655 110.68)
(-52.0687 -21.1312 88.608)
(-48.9542 -13.3514 89.4558)
(-78.541 -27.2484 111.037)
(-75.4307 -11.7728 96.0979)
(-81.585 -35.4288 109.903)
(-65.979 -38.3132 96.2704)
(-58.2342 -28.8085 91.2479)
(-116.624 -59.668 142.861)
(-108.676 -38.2268 133.783)
(-85.672 -50.6315 123.013)
(-79.9366 -32.5892 113.492)
(-48.0926 -9.16972 89.9957)
(-38.1534 -7.83175 77.1298)
(-38.8481 -11.5524 76.8489)
(-64.2578 -10.5119 86.1511)
(-55.2301 -9.46128 75.158)
(-55.6289 -13.2131 75.6821)
(-64.8196 -14.6372 86.4903)
(-50.0811 -17.344 88.6554)
(-41.879 -18.6553 76.6405)
(-39.9595 -15.186 76.3202)
(-57.4208 -21.2827 77.5371)
(-56.2021 -17.2308 76.1603)
(-65.4808 -18.993 86.7568)
(-66.8476 -23.345 87.8371)
(-54.8772 -24.8389 89.5479)
(-48.0166 -25.5892 80.4479)
(-44.6335 -22.0006 78.0994)
(-59.2935 -25.4122 79.9248)
(-61.6659 -29.8289 83.0706)
(-68.8247 -27.7885 89.8107)
(-71.24 -32.5268 92.4318)
(-60.4945 -15.1137 100.745)
(-72.1977 -11.9726 111.505)
(-59.5712 -10.6019 101.47)
(-86.0995 -17.5616 106.003)
(-85.3812 -12.7541 105.938)
(-74.3843 -11.6377 96.4436)
(-75.0336 -16.1117 96.6406)
(-150.563 -45.4938 239.513)
(-149.928 -20.9466 242.893)
(-113.113 -15.9623 148.971)
(-84.7814 -13.7294 129.965)
(-101.762 -22.7943 183.667)
(-85.7473 -24.4719 131.89)
(-104.274 -36.4193 188.314)
(-66.7044 -10.9297 87.2166)
(-85.2752 -13.1001 114.36)
(-76.6975 -12.3864 107.257)
(-77.0684 -17.038 108.173)
(-67.0516 -15.0274 88.0903)
(-75.9169 -16.2 96.8803)
(-85.7843 -18.0278 115.239)
(-61.9716 -33.244 93.5298)
(-55.8184 -34.3668 86.9694)
(-51.8173 -29.6566 83.4465)
(-67.4145 -40.0427 90.8599)
(-64.3975 -34.6756 86.7572)
(-73.971 -37.6811 95.5846)
(-77.0112 -43.3669 99.1686)
(-63.5829 -23.5519 99.3659)
(-74.131 -21.419 109.538)
(-61.6009 -19.4258 99.7348)
(-88.3553 -27.5565 106.587)
(-86.904 -22.5593 105.947)
(-75.797 -20.7845 96.6941)
(-77.25 -25.4444 97.5025)
(-68.6719 -24.1383 90.9097)
(-77.5781 -22.0942 109.212)
(-67.5921 -19.5301 89.0462)
(-76.5239 -21.0054 97.7603)
(-87.4062 -28.7435 117.955)
(-77.7243 -25.8812 99.4383)
(-86.362 -23.3446 116.264)
(-31.5528 -33.9991 153.927)
(34.7585 -65.1889 192.623)
(3.43093 -25.6303 174.088)
(-60.9057 -26.2545 124.956)
(-12.3355 -26.7291 166.066)
(-57.6267 -17.5354 132.095)
(42.6345 -23.1865 149.919)
(2.90636 -20.6985 127.309)
(-15.5546 -12.2615 100.496)
(-3.04541 -21.174 131.857)
(-48.5287 -35.6845 133.113)
(-21.9201 -24.4705 115.73)
(-67.8692 -33.9131 120.926)
(-31.8104 -31.6367 162.2)
(13.1049 -22.4279 136.588)
(-40.9477 -26.4701 102.507)
(41.5797 -30.7496 167.248)
(16.2603 -53.4874 192.108)
(26.5218 -30.2373 174.533)
(22.434 -28.1555 171.588)
(29.2624 -22.1229 159.392)
(8.45972 -26.2156 177.314)
(11.6671 -21.8 165.979)
(43.4333 -23.6425 156.437)
(25.2556 -24.5336 156.791)
(25.298 -22.9953 145.578)
(25.2971 -24.4972 162.474)
(28.651 -22.0361 151.653)
(11.5361 -23.2234 159.529)
(8.82066 -25.1027 154.017)
(19.9607 -23.1248 140.545)
(33.3084 -20.8555 140.845)
(16.5034 -25.03 148.544)
(39.0814 -22.4762 144.892)
(22.0359 -25.3322 152.359)
(3.99439 -26.5565 149.278)
(-2.39495 -26.707 145.378)
(-15.2281 -23.5318 175.641)
(-3.01281 -41.9022 190.575)
(-21.4153 -31.6503 187.289)
(-28.6638 -19.4009 180.166)
(-9.90311 -22.5153 178.627)
(-7.09444 -21.3044 171.011)
(-26.6421 -21.275 174.947)
(7.64693 -16.4213 139.361)
(-14.8306 -8.83056 103.086)
(7.55754 -14.9448 145.275)
(-27.5495 -9.98404 116.544)
(-8.6367 -14.8673 153.866)
(-8.10833 -17.5558 148.55)
(-28.3237 -14.1874 113.666)
(6.86571 -25.7024 162.027)
(6.88757 -24.8258 166.96)
(-12.1422 -24.6852 170.121)
(-6.95061 -24.3076 165.828)
(-28.0909 -28.5065 166.307)
(-26.3286 -24.7624 170.573)
(-9.10631 -26.9005 160.943)
(-20.0798 -18.2923 93.0891)
(-17.2261 -15.5738 96.5464)
(6.13613 -18.8655 133.179)
(-9.31688 -20.7956 142.822)
(-32.4739 -21.182 106.001)
(-12.2215 -23.3984 137.517)
(-29.8399 -18.0216 109.625)
(5.23111 -21.4193 133.6)
(16.7759 -16.7797 135.71)
(25.5928 -18.7165 137.674)
(9.50776 -24.1706 145.362)
(1.62965 -23.407 143.075)
(-9.50059 -26.9178 142.25)
(-17.0064 -27.5092 140.141)
(-36.7143 -33.7688 158.535)
(-19.7797 -31.4166 159.168)
(-15.1392 -29.6723 162.52)
(-1.2876 -28.5071 154.521)
(3.8289 -27.6352 158.075)
(-13.4198 -29.209 156.519)
(-19.0946 -30.5144 152.699)
(-36.3073 -23.8182 103.6)
(-29.1207 -22.4993 90.6134)
(-24.1618 -20.3878 91.0911)
(-8.01956 -22.2716 118.951)
(-1.94112 -21.73 122.506)
(-16.6353 -25.456 133.074)
(-22.1624 -26.6145 129.513)
(-42.514 -15.9319 124.02)
(-56.8114 -12.2899 134.887)
(-41.6512 -11.139 126.987)
(-42.3539 -14.5299 163.976)
(-25.311 -14.6638 159.891)
(-42.0129 -19.452 159.875)
(-24.7611 -18.4057 155.094)
(-25.3568 -32.6309 156.269)
(-14.5664 -29.1002 149.067)
(-7.56519 -28.7201 151.464)
(-48.1199 -38.0804 153.085)
(-32.1096 -33.1117 147.231)
(-42.2151 -35.7415 155.485)
(-25.4065 -31.5871 149.548)
(-14.8367 -22.9034 116.636)
(-34.6207 -25.127 91.4813)
(-40.2505 -28.5905 93.6458)
(-34.7573 -30.3135 125.258)
(-51.516 -33.4824 103.837)
(-46.1029 -29.5943 102.606)
(-28.2722 -28.1378 126.843)
(-46.2362 -23.8061 116.516)
(-58.7493 -22.2047 128.412)
(-43.8337 -20.2092 120.121)
(-42.9329 -24.1669 155.58)
(-45.2032 -28.1438 151.503)
(-25.7475 -22.4999 150.081)
(-28.3248 -26.0099 145.473)
(-53.9858 -30.278 112.537)
(-64.0408 -30.0453 122.446)
(-49.7294 -27.0181 113.977)
(-48.685 -31.3385 147.728)
(-52.9795 -34.1203 144.336)
(-32.3422 -28.5039 141.351)
(-37.2503 -30.5926 137.848)
(-63.0223 -40.6217 139.507)
(-57.7801 -37.1171 141.573)
(-63.758 -38.3367 112.893)
(-76.8249 -43.0689 120.83)
(-72.1652 -38.1846 120.427)
(-58.7472 -33.9565 112.151)
(-42.7038 -32.8293 135.02)
(-69.4871 -32.0979 101.079)
(-66.2688 -27.6877 99.9184)
(-78.5442 -30.5549 109.15)
(-90.3235 -32.7129 107.911)
(-79.2117 -30.2157 99.1531)
(-81.581 -35.3071 101.368)
(-92.6863 -38.1966 109.79)
(-118.636 -41.9285 155.942)
(-146.661 -74.626 225.533)
(-150.362 -53.3613 237.262)
(-91.3204 -48.5764 141.044)
(-111.686 -59.7448 201.604)
(-87.8677 -35.9032 135.639)
(-108.753 -51.5162 196.388)
(-70.2995 -28.9171 93.5916)
(-81.5988 -38.2441 116.346)
(-72.3077 -34.0128 96.8356)
(-88.8136 -34.3273 120.223)
(-79.3977 -30.9209 101.847)
(-81.4101 -36.281 104.729)
(-90.5054 -40.2187 122.87)
(-77.0165 -42.4169 104.924)
(-85.0518 -40.7421 111.137)
(-73.1137 -36.9564 102.736)
(-84.3237 -40.8305 104.053)
(-98.645 -50.5552 114.936)
(-87.4231 -46.8702 107.217)
(-95.4632 -44.1142 112.136)
(-95.0381 -13.6226 113.157)
(-84.9063 -12.69 104.795)
(-104.121 -14.7179 128.363)
(-104.837 -20.2234 129.269)
(-94.3727 -13.8685 121.387)
(-85.4822 -17.4447 105.523)
(-94.9756 -19.089 122.287)
(-77.1055 -45.4535 104.426)
(-83.4934 -44.2436 119.541)
(-74.5856 -39.5062 100.482)
(-83.7393 -42.0557 107.957)
(-94.9486 -53.219 129.169)
(-86.375 -48.3027 111.509)
(-92.5488 -46.49 125.831)
(-97.8354 -29.5366 115.756)
(-96.5009 -24.1049 114.455)
(-105.657 -26.0565 130.22)
(-86.1869 -22.5399 106.269)
(-96.7781 -30.3006 124.831)
(-87.4481 -27.6766 107.749)
(-95.6523 -24.6749 123.248)
(-118.228 -74.1382 247.997)
(-82.5544 -46.4991 135.39)
(-100.119 -56.7345 191.524)
(-82.8917 -59.4205 180.099)
(-61.6602 -47.3741 123.112)
(-79.4701 -34.4293 129.844)
(-57.7839 -30.7433 112.567)
(-97.573 -48.9282 186.667)
(-78.9775 -48.3675 200.156)
(-58.8417 -35.9573 115.741)
(-64.3936 -31.8535 118.287)
(-65.6079 -37.2555 121.276)
(-64.1844 -34.0616 137.499)
(-65.0996 -39.7295 140.321)
(-70.9562 -35.0534 142.734)
(-72.1228 -40.9759 145.381)
(-68.7272 -49.11 128.218)
(-75.3164 -53.9431 151.698)
(-67.7422 -52.111 146.837)
(-60.1261 -41.4732 119.296)
(-67.0648 -42.995 124.613)
(-66.2583 -45.7168 143.453)
(-73.5679 -47.2676 148.35)
(-71.6284 -33.0657 124.066)
(-80.8835 -40.2869 132.461)
(-72.9712 -38.699 126.868)
(-86.8547 -37.7414 153.625)
(-78.5023 -36.2951 148.073)
(-79.8969 -42.506 150.612)
(-88.4172 -44.1952 156.268)
(-46.6417 -30.5774 77.0294)
(-15.233 -3.86768 17.3857)
(-48.9035 -10.2828 79.1328)
(-33.2615 -16.2111 63.6489)
(-17.1511 -10.0789 22.3108)
(-30.1048 -6.71001 62.9547)
(-70.2283 -25.8702 104.073)
(-49.5193 -22.4235 83.6739)
(-58.9059 -10.1857 78.2856)
(-77.1386 -48.3023 116.987)
(-31.4479 -23.6618 55.6144)
(-54.7251 -41.9935 99.1221)
(-39.0801 -22.4563 68.7382)
(-18.4475 -12.3674 25.7643)
(-71.5309 -30.9533 106.732)
(-50.3587 -26.9019 86.6157)
(-15.689 -5.55646 18.3967)
(-19.42 -4.8652 32.2687)
(-19.5617 -6.9694 33.2772)
(-29.6718 -5.99216 29.4567)
(-29.6751 -8.88534 31.3861)
(-35.0985 -6.99416 40.401)
(-34.9153 -9.82361 41.7928)
(-16.1422 -7.74593 20.1665)
(-21.2405 -11.8833 35.923)
(-20.1302 -9.36002 34.2738)
(-30.4136 -14.5825 35.6105)
(-29.7974 -11.5883 33.2685)
(-35.0799 -12.7801 43.1456)
(-35.6813 -16.0082 45.3559)
(-20.175 -14.6515 30.8554)
(-22.9697 -14.3735 38.9658)
(-31.376 -17.7345 39.171)
(-25.2713 -16.9383 43.553)
(-32.8025 -20.9779 44.0338)
(-36.8656 -19.3556 48.8177)
(-38.5958 -22.8363 53.4832)
(-24.0546 -5.78746 47.7779)
(-30.5935 -9.85911 63.0103)
(-24.2657 -8.35996 48.3253)
(-47.4389 -8.55681 63.6409)
(-40.8577 -7.77006 51.8958)
(-40.7983 -10.8179 52.9184)
(-47.6473 -11.9422 64.3581)
(-31.5597 -13.0647 62.877)
(-26.448 -13.9107 49.8951)
(-25.0632 -11.1102 48.663)
(-41.0789 -14.1117 53.9396)
(-49.0641 -19.3523 66.8058)
(-41.8329 -17.5895 55.9372)
(-48.0595 -15.5958 65.1163)
(-40.4351 -8.42489 52.7893)
(-48.7655 -14.0457 80.3613)
(-40.2418 -11.6578 54.3067)
(-54.9403 -10.7044 86.0726)
(-46.0672 -8.97673 60.9112)
(-45.9101 -12.3099 62.1467)
(-54.9153 -14.6568 87.1551)
(-25.4163 -20.6555 44.5395)
(-22.5578 -17.3316 37.2628)
(-28.1802 -19.9543 49.237)
(-36.9987 -28.7386 56.1819)
(-34.6984 -24.5787 49.8236)
(-40.7982 -26.7335 58.9439)
(-43.3669 -31.2164 64.87)
(-48.9585 -18.0928 81.6399)
(-40.9103 -18.7096 57.9089)
(-40.3299 -15.0183 55.7647)
(-46.0884 -15.9437 63.4067)
(-55.7404 -23.4629 90.3014)
(-46.6698 -19.8442 65.5882)
(-55.182 -18.9614 88.2935)
(-35.8338 -19.2328 65.6522)
(-28.6538 -16.6464 52.4509)
(-31.5196 -19.5451 56.3206)
(-50.7377 -23.1725 69.6311)
(-43.2708 -21.1503 59.1345)
(-45.3221 -24.934 63.3526)
(-52.9962 -27.2586 73.3308)
(-41.8032 -22.5873 61.1419)
(-51.5287 -31.5454 90.3166)
(-43.0492 -26.5885 65.4046)
(-56.7153 -28.1062 93.1733)
(-47.7175 -23.9037 68.8329)
(-49.2015 -28.1389 72.9969)
(-58.0554 -32.9697 96.7504)
(-68.7361 -11.7613 100.155)
(-61.5084 -11.2002 93.069)
(-52.1212 -9.54311 69.4208)
(-52.1169 -13.0857 70.5011)
(-68.9923 -16.1567 101.08)
(-59.1241 -13.9927 79.2192)
(-61.6217 -15.3603 94.0585)
(-42.7647 -26.1778 72.6008)
(-38.5334 -26.9788 66.5148)
(-34.8828 -22.9047 61.1307)
(-47.7766 -29.1434 68.2967)
(-58.5837 -36.9099 82.3388)
(-50.5776 -33.954 73.6299)
(-55.6617 -31.8097 77.618)
(-52.4073 -16.9963 71.6693)
(-60.4344 -22.5221 82.3179)
(-62.617 -24.6034 97.1312)
(-69.3953 -20.9542 102.162)
(-53.1143 -21.0997 73.8116)
(-59.5181 -18.1837 80.3097)
(-61.9375 -19.9069 95.1645)
(-46.6192 -35.7938 75.7543)
(-52.98 -36.534 94.5492)
(-44.6588 -30.9277 70.3657)
(-51.0644 -32.7703 77.755)
(-61.6538 -43.9585 105.089)
(-53.2632 -37.9511 82.8544)
(-59.7292 -38.2352 100.773)
(130.928 67.228 24.6493)
(-33.3066 -186.567 114.297)
(7.17582 5.25809 -29.4413)
(-65.2056 -223.796 166.917)
(-51.6282 -222.354 259.122)
(33.7797 -131.789 201.783)
(86.5605 0.968646 59.4311)
(60.1777 -89.0664 52.1666)
(73.8352 -19.5209 128.056)
(103.216 -29.0312 116.69)
(-63.5765 -218.527 105.523)
(-57.8986 -210.771 95.5688)
(-70.4674 -215.409 110.161)
(-47.0706 -200.507 98.4725)
(-56.1975 -217.947 156.323)
(-64.0229 -218.793 166.28)
(-36.3817 -203.101 150.643)
(82.5731 34.3187 88.1171)
(88.2196 17.9651 46.4091)
(49.5839 -3.09118 112.801)
(96.5716 12.152 53.5244)
(136.436 15.9653 32.7637)
(71.7222 -15.4757 122.703)
(119.189 5.21989 97.0305)
(3.05662 2.86178 -13.3351)
(64.4447 83.6028 48.6661)
(56.166 19.0113 72.3088)
(80.2902 31.817 78.6554)
(17.8394 8.93682 42.5288)
(104.316 12.0326 87.6416)
(35.4727 6.84141 23.379)
(-21.6736 -185.962 77.9165)
(97.2863 -24.9432 50.0906)
(71.1657 -83.9387 87.0909)
(14.4279 -139.322 75.5315)
(-14.4526 -187.748 128.064)
(29.7673 -132.62 113.754)
(102.929 -28.4284 78.061)
(-59.2301 -205.105 113.565)
(10.6065 -136.172 94.9204)
(-16.9055 -171.267 97.2903)
(-15.6679 -181.475 157.124)
(-45.2306 -205.643 164.025)
(0.909564 -166.244 139.998)
(25.8819 -127.257 132.08)
(-62.5162 -227.55 222.459)
(-20.556 -191.144 227.893)
(-46.7492 -217.587 203.5)
(-23.5545 -201.962 241.182)
(-49.9451 -219.947 214.564)
(-14.5813 -187.255 184.241)
(22.4105 -140.02 197.391)
(156.197 52.8014 25.3091)
(135.611 29.2441 39.0671)
(133.546 6.37103 58.3085)
(138.837 40.9331 33.7776)
(144.826 37.3986 46.7457)
(130.429 13.781 62.8981)
(128.331 24.4544 56.2101)
(57.1632 -51.0505 73.3459)
(100.911 0.603821 53.6984)
(50.2984 -81.1153 71.4837)
(63.2274 -75.0687 103.378)
(86.5156 -10.8669 85.5865)
(102.238 -10.3539 80.2323)
(64.9043 -49.2263 101.895)
(46.8501 -109.406 169.691)
(90.1581 -58.2838 108.572)
(7.78826 -164.184 160.799)
(55.0319 -99.0872 135.628)
(103.903 -15.8042 115.963)
(106.001 -22.92 98.6747)
(79.119 -56.4627 141.619)
(-12.0345 -101.42 168.064)
(31.2872 -5.28211 29.3996)
(58.1962 -26.7799 105.095)
(88.5537 43.1662 55.6624)
(51.0853 37.1524 0.000793166)
(58.1737 19.4992 20.6416)
(61.7442 37.1545 15.6593)
(147.3 60.9868 23.3932)
(116.364 54.2873 45.1331)
(117.788 48.8642 32.3119)
(130.34 43.5034 32.1774)
(132.804 46.1527 44.2022)
(117.912 29.4463 53.9808)
(104.834 36.7191 53.6851)
(118.052 23.279 46.248)
(98.6133 12.7556 49.6387)
(118.193 26.8613 41.9035)
(92.1316 -2.08802 79.202)
(112.87 6.93418 70.9362)
(109.487 11.3341 65.7334)
(90.7719 -0.371039 73.9103)
(129.77 5.33075 80.1614)
(112.362 18.0436 90.2572)
(131.135 27.4242 69.9049)
(106.402 -1.87573 105.877)
(120.545 4.42215 83.6233)
(114.315 13.5674 78.2736)
(98.0547 5.10585 102.071)
(10.1523 -166.361 185.784)
(14.3726 -165.645 218.674)
(-19.0343 -197.188 199.006)
(26.8108 -138.241 163.63)
(56.6521 -63.1946 163.541)
(43.5623 -100.697 152.317)
(53.9381 -90.5451 172.455)
(74.372 70.7463 42.9966)
(67.9968 67.8285 57.6306)
(83.6584 63.3341 49.0188)
(42.3501 53.3735 25.3136)
(50.9376 51.1297 8.20477)
(53.7563 42.7988 24.933)
(44.1155 43.9042 38.0337)
(96.6221 9.81022 82.6718)
(95.0525 25.6467 79.5375)
(98.3384 39.3314 63.7518)
(73.7776 12.4166 62.4605)
(72.6641 20.4856 38.1017)
(64.3098 28.8349 37.8414)
(63.4219 17.6199 60.5949)
(4.77255 4.0845 -22.3427)
(23.884 13.6799 -28.6427)
(24.6343 21.0593 -25.8835)
(5.76595 2.97084 -18.6455)
(28.8329 15.1295 -18.8601)
(27.2211 18.2635 -12.3037)
(4.01695 1.61092 -11.5992)
(75.5742 -54.9626 122.461)
(69.7659 -28.7269 138.474)
(81.5955 -17.4267 107.37)
(91.3088 -16.0111 120.672)
(99.0115 -14.9346 100.669)
(70.1557 -38.6397 122.328)
(82.0062 -34.141 135.65)
(100.464 43.8834 66.4219)
(97.8359 26.1907 87.8397)
(117.08 35.7038 67.356)
(103.144 19.6489 75.285)
(73.9634 19.8461 97.678)
(89.9419 27.4225 74.1306)
(86.8602 12.259 98.9944)
(103.635 32.575 39.4469)
(96.0069 14.5723 47.481)
(113.129 28.0288 39.9597)
(102.055 15.5481 62.903)
(76.6031 8.72769 68.962)
(91.4176 21.9287 61.6274)
(85.7118 3.927 71.0474)
(225.649 -577.371 -62.4754)
(46.1063 -292.56 -156.423)
(140.686 79.1551 -4.38967)
(8.29716 -217.099 -40.1571)
(131.273 -301.982 -76.2476)
(101.854 -381.468 -233.828)
(53.7086 -259.68 -78.9918)
(155.583 3.32074 -62.2223)
(122.081 -15.5336 -167.565)
(119.412 41.6504 -90.1492)
(155.395 48.6891 -121.393)
(208.234 -395.951 -38.7785)
(186.395 -368.495 -72.4002)
(147.449 -456.443 -125.811)
(165.298 -222.361 4.40936)
(244.649 -387.683 5.23943)
(169.625 -89.1698 22.7773)
(144.484 -170.805 -57.7071)
(-37.9944 -189.016 69.2923)
(-12.916 -246.96 -87.9285)
(-48.3435 -226.319 -18.4267)
(107.584 32.6259 -61.3819)
(141.338 22.3469 -96.4571)
(86.4647 11.8228 29.8709)
(66.6292 -71.1437 -0.615179)
(108.711 -358.303 -182.15)
(78.478 -325.843 -179.663)
(80.7795 -340.65 -228.313)
(101.161 -348.677 -212.389)
(73.5836 -287.844 -206.729)
(90.2242 -255.513 -167.608)
(116.127 -306.979 -146.569)
(166.443 -414.016 -98.4916)
(124.786 -420.339 -192.653)
(130.967 -380.792 -137.56)
(134.19 -404.084 -140.849)
(185.684 -462.893 -74.0438)
(153.442 -348.246 -76.6212)
(212.58 -402.846 -48.7589)
(182.105 -533.026 -61.9903)
(200.361 -468.727 -50.9386)
(215.22 -494.852 -44.0216)
(272.398 -556.28 -37.9096)
(237.643 -530.549 -19.458)
(244.271 -441.659 -14.2044)
(242.706 -455.922 -18.6373)
(17.4827 -268.267 -120.526)
(26.1318 -274.22 -156.891)
(58.1994 -307.657 -195.944)
(38.6306 -225.017 -148.675)
(57.2897 -243.86 -185.442)
(71.0319 -219.002 -148.588)
(50.6662 -205.305 -119.812)
(97.4531 -236.199 -171.47)
(133.415 50.7537 -172.033)
(88.4694 -145.783 -181.004)
(106.266 -94.9587 -155.321)
(139.877 25.4858 -139.67)
(118.751 -181.6 -115.664)
(136.729 72.4357 -154.19)
(132.966 -333.227 -67.9344)
(202.601 -310.578 32.9367)
(209.668 -419.023 -6.47514)
(169.755 -109.712 -24.4201)
(164.56 -266.631 -10.7611)
(226.235 -345.472 9.49102)
(208.758 -240.13 35.9168)
(86.3143 -109.838 -136.153)
(150.794 61.0303 -151.413)
(91.1905 -107.78 -162.828)
(110.192 -63.2884 -139.604)
(146.779 60.8144 -110.612)
(144.093 73.2396 -139.653)
(103.706 -65.8986 -116.808)
(-4.56533 -250.888 -116.319)
(-30.7767 -235.68 -71.7161)
(10.8013 -217.998 -118.043)
(-18.619 -212.306 -82.1884)
(22.8452 -198.792 -91.2825)
(-39.9154 -231.877 -49.7383)
(-6.50277 -196.257 -58.8096)
(91.4646 -282.866 -85.9746)
(120.359 -327.038 -126.659)
(82.0413 -302.955 -135.653)
(101.648 -229.027 -124.005)
(153.583 -245.78 -41.1454)
(141.505 -266.933 -88.906)
(120.002 -218.3 -77.5634)
(189.639 -322.704 -47.5327)
(158.391 -312.897 -57.281)
(149.411 -344.181 -93.3145)
(177.609 -279.186 -9.03952)
(177.613 -306.331 -36.2072)
(219.886 -348.781 -25.9777)
(202.102 -304.051 -10.2824)
(283.207 -489.025 -7.81347)
(240.844 -373.454 62.5688)
(269.701 -473.554 28.7443)
(254.666 -380.055 29.1738)
(224.997 -294.441 8.17426)
(223.983 -288.744 53.5516)
(254.724 -384.07 5.31502)
(169.225 109.841 -87.6872)
(123.69 57.7516 -56.242)
(96.8578 28.3167 20.5422)
(121.823 52.765 -63.3848)
(179.679 89.184 -89.8)
(100.45 25.245 24.8527)
(141.593 34.7387 -3.47855)
(30.3319 -236.692 -59.9788)
(54.8682 -275.27 -114.758)
(24.9101 -252.468 -89.9921)
(81.5628 -198.875 -115.36)
(58.8425 -175.329 -67.6709)
(84.1225 -193.945 -85.0159)
(63.4964 -183.326 -93.5111)
(224.903 -405.683 -26.632)
(212.577 -331.785 -27.0274)
(222.64 -328.084 -15.3947)
(244.54 -362.188 -4.95025)
(222.454 -297.755 -0.53298)
(219.346 -303.854 -0.948232)
(248.861 -362.142 -6.7272)
(62.4836 -130.188 -113.065)
(114.444 -10.6169 -74.54)
(29.7747 -151.05 -86.256)
(138.463 45.285 -80.8058)
(84.4295 -79.5975 -88.115)
(57.8506 -98.0412 -59.5522)
(124.11 27.6883 -53.6607)
(122.125 -78.9307 -121.204)
(161.463 -155.961 -23.9716)
(152.122 28.8026 -102.612)
(138.155 53.4082 -106.155)
(152.35 -155.393 -66.3524)
(138.787 72.2583 -132.014)
(134.999 -95.7628 -83.5215)
(-58.6697 -219.123 41.4591)
(-52.9724 -206.761 29.1013)
(-40.5621 -208.049 -31.6368)
(-68.3824 -214.636 51.8395)
(-58.8108 -221.161 -2.18609)
(-30.0901 -194.764 -15.4992)
(-45.0904 -196.697 38.2027)
(109.931 -49.0352 -117.81)
(94.3857 -54.3264 -80.3973)
(130.43 52.4086 -106.645)
(133.719 55.4689 -101.378)
(138.814 67.994 -124.809)
(114.098 -62.8959 -96.3671)
(102.586 -47.4959 -99.2637)
(237.28 -311.737 27.8316)
(196.268 -272.023 8.12127)
(199.936 -243.575 6.41666)
(169.113 -219.001 35.0624)
(200.657 -240.651 43.068)
(197.937 -274.369 23.6481)
(236.544 -310.54 8.11622)
(176.382 -208.309 35.3756)
(178.935 -86.0303 2.84894)
(182.891 -227.234 19.2001)
(219.77 -290.473 17.5203)
(170.251 -181.933 31.4355)
(197.608 -198.57 33.6166)
(189.766 -257.684 20.1195)
(-4.05749 -233.248 -62.6801)
(41.7481 -158.621 -46.9464)
(39.0803 -173.484 -67.4785)
(-14.3505 -203.511 -10.8282)
(-29.7985 -219.911 -29.5308)
(14.3716 -168.616 -35.975)
(24.3527 -148.17 -17.3155)
(167.035 73.881 -64.5257)
(186.675 103.32 -91.2885)
(160.516 80.5242 -80.6853)
(176.315 92.741 -64.1775)
(150.994 70.0472 -52.3023)
(164.851 87.5539 -82.0042)
(156.046 77.9676 -53.7102)
(78.2695 -49.6211 -56.0249)
(123.532 43.8793 -70.4083)
(89.7214 -52.02 -70.2432)
(72.1567 -59.2775 -39.2001)
(97.7413 26.0804 -30.2835)
(113.249 34.3297 -40.0137)
(66.6089 -47.2746 -24.4779)
(-15.6515 -177.232 11.9542)
(86.6155 -43.3814 -44.4232)
(2.1537 -165.85 -44.5461)
(33.4638 -115.263 -24.4068)
(98.8504 -10.1386 11.0895)
(109.346 8.2633 -24.2589)
(16.9603 -130.053 20.8549)
(-31.0655 -193.572 26.2595)
(-59.0672 -205.84 60.6618)
(-48.5354 -210.476 11.8808)
(-4.84426 -167.324 1.77667)
(6.02775 -138.785 55.254)
(10.7955 -141.814 16.9866)
(-17.0637 -168.812 46.3244)
(152.64 54.4623 -37.5291)
(162.326 68.7852 -5.39671)
(168.139 81.4912 -36.487)
(138.523 45.7209 7.42074)
(143.641 58.6283 -23.6757)
(148.815 67.6409 -25.3943)
(143.169 56.0146 3.97114)
(181.339 108.41 -91.1365)
(158.504 98.4596 -61.1778)
(171.172 97.6067 -64.0553)
(155.572 91.4192 -77.6191)
(163.388 89.6606 -81.06)
(153.539 78.697 -53.5719)
(144.955 79.737 -51.2582)
(140.426 67.3418 -72.4025)
(112.837 43.8229 -33.8264)
(132.133 57.8948 -42.6853)
(127.437 56.2456 -62.6067)
(145.23 71.6362 -72.4846)
(136.181 61.8961 -43.9041)
(117.9 46.3997 -34.457)
(57.864 -67.7505 -6.14886)
(54.7021 -48.7319 40.1657)
(90.3304 19.7336 -0.0390701)
(101.192 13.2115 21.3745)
(105.608 24.4277 -9.97545)
(57.8737 -47.1203 7.31802)
(49.3753 -75.7166 30.7422)
(149.071 89.4224 -33.6583)
(155.687 74.7689 -6.31341)
(162.366 86.1059 -36.566)
(145.015 67.9063 -25.8879)
(126.753 60.6402 4.30711)
(135.428 70.2064 -23.9512)
(137.651 56.816 3.02713)
(105.948 35.1739 -4.32654)
(119.911 38.042 16.255)
(124.87 48.5807 -13.3015)
(128.888 52.1231 -15.3329)
(104.163 25.7066 22.1518)
(110.444 36.5744 -5.98386)
(122.936 41.1295 13.3843)
(151.966 196.151 -199.181)
(281.926 -795.09 -150.78)
(183.375 219.225 -139.203)
(155.935 -237.091 -318.877)
(385.174 -960.69 -152.876)
(210.786 -636.019 -377.534)
(198.276 -637.237 -400.827)
(237.051 -647.151 -79.6395)
(124.87 -455.668 -257.232)
(300.872 -512.754 -8.73342)
(118.781 -260.38 -110.752)
(38.4134 -346.127 -392.798)
(-8.01637 -160.954 -252.589)
(175.047 -360.282 -441.352)
(50.0716 -272.509 -195.305)
(110.137 -395.869 -281.854)
(100.359 -97.0557 -195.618)
(141.918 3.50327 -137.652)
(163.483 -613.31 -393.961)
(171.119 -530.867 -469.615)
(161.724 -524.59 -455.644)
(139.849 -496.492 -399.455)
(149.461 -585.562 -336.28)
(178.743 -608.602 -313.123)
(143.838 -510.881 -395.347)
(153.564 -357.157 -451.184)
(158.255 -437.287 -476.331)
(170.933 -436.289 -461.561)
(146.821 -413.558 -404.42)
(153.687 -346.045 -385.136)
(135.174 -418.575 -401.548)
(132.307 -341.431 -385.162)
(328.713 -882.873 -160.45)
(249.762 -771.475 -293.628)
(209.416 -715.742 -295.465)
(278.065 -760.88 -123.767)
(205.184 -686.918 -236.719)
(246.266 -733.6 -198.793)
(327.549 -831.928 -122.137)
(110.003 -209.492 -329.313)
(170.025 -297.816 -383.977)
(134.812 -282.369 -394.178)
(126.463 -241.924 -272.825)
(145.735 -293.338 -330.833)
(110.257 -280.769 -331.29)
(81.8478 -226.163 -276.655)
(216.789 197.667 -127.323)
(270.902 218.032 -58.6985)
(239.921 210.977 -32.2916)
(488.262 -888.973 -98.5188)
(168.883 -458.724 -228.228)
(232.343 -368.987 -10.715)
(164.405 -13.8092 -151.734)
(192.97 145.551 -121.135)
(148.613 185.758 -207.385)
(211.827 187.138 -150.278)
(-1.70739 -205.403 -301.042)
(7.96883 -102.783 -207.296)
(160.207 76.2897 -195.107)
(200.641 100.667 -125.807)
(11.5933 -266.442 -351.537)
(95.0032 -332.505 -428.639)
(116.607 -416.003 -463.146)
(51.8643 -286.879 -286.031)
(93.9395 -391.063 -367.718)
(78.1529 -303.889 -346.953)
(48.5701 -200.211 -264.493)
(202.032 -598.097 -321.973)
(101.783 -446.725 -400.195)
(152.644 -514.045 -458.363)
(197.459 -610.764 -259.098)
(98.5741 -405.267 -299.075)
(202.969 -559.039 -177.64)
(130.563 -495.095 -370.437)
(127.877 -403.278 -339.506)
(102.049 -345.754 -279.043)
(128.687 -344.785 -330.715)
(96.1766 -382.158 -267.611)
(114.13 -402.722 -327.405)
(103.163 -329.824 -323.487)
(80.5316 -315.313 -261.276)
(127.138 -477.961 -330.325)
(158.173 -499.513 -176.577)
(152.838 -546.091 -253.52)
(181.515 -572.635 -210.804)
(128.476 -457.998 -223.813)
(187.134 -523.761 -124.386)
(130.18 -491.716 -312.066)
(291.121 -815.403 -239.316)
(455.059 -964.339 -130.554)
(335.461 -818.936 -152.246)
(295.311 -773.3 -125.322)
(431.652 -825.909 -79.0439)
(334.813 -746.149 -33.7878)
(391.362 -861.841 -105.461)
(-1.26355 -203.017 -297.61)
(44.1085 -195.362 -305.7)
(67.8795 -257.688 -369.701)
(58.3155 -239.081 -292.397)
(46.1027 -134.843 -200.384)
(50.4049 -152.136 -223.53)
(40.7054 -193.569 -246.37)
(85.3162 -262.156 -234.955)
(81.6246 -311.999 -237.723)
(113.419 -305.031 -282.905)
(80.9201 -275.951 -274.981)
(39.5317 -232.285 -185.197)
(63.2083 -265.023 -225.982)
(54.0764 -231.626 -229.562)
(277.616 -705.752 -92.9645)
(197.213 -588.265 -95.0362)
(207.53 -637.307 -157.86)
(254.23 -684.478 -107.369)
(270.62 -654.491 -60.5321)
(235.6 -613.494 -44.7119)
(326.087 -742.667 -85.7262)
(200.989 -574.097 -137.979)
(105.47 -345.487 -193.954)
(116.93 -408.849 -160.433)
(193.651 -407.242 12.5612)
(202.118 -501.23 -56.7862)
(201.643 -503.527 -49.6605)
(118.076 -464.915 -267.568)
(74.1945 -199.086 -230.756)
(74.6791 -299.791 -227.139)
(77.8791 -354.023 -285.831)
(64.9276 -266.067 -272.503)
(120.608 -9.73777 -186.772)
(88.3312 -107.783 -211.292)
(67.1882 -211.659 -213.762)
(51.6704 -286.935 -311.657)
(86.9289 -41.2755 -261.253)
(116.23 -200.342 -233.969)
(159.394 -169.803 -169.331)
(199.47 -396.344 -95.91)
(208.173 -88.151 -99.4818)
(170.194 49.7417 -221.373)
(-4.52901 -150.449 -258.946)
(68.6856 -6.65352 -249.486)
(97.9527 -91.65 -231.959)
(89.5246 24.7024 -210.412)
(115.27 -29.8999 -209.682)
(182.991 109.191 -194.259)
(163.423 84.0892 -220.984)
(57.0534 -211 -230.805)
(100.84 -72.6418 -164.066)
(63.7994 -157.949 -162.111)
(138.473 16.1055 -164.791)
(102.348 -69.7504 -187.472)
(69.9098 -166.219 -192.424)
(46.4251 -184.643 -197.361)
(7.83494 -113.748 -222.025)
(106.59 43.1657 -172.816)
(110.711 49.8378 -184.159)
(125.395 -6.38351 -166.877)
(130.799 -1.44123 -182.431)
(202.955 128.527 -168.169)
(204.887 126.6 -147.14)
(297.537 -691.188 -30.9324)
(351.747 -674.143 -36.7663)
(298.932 -613.189 -32.3158)
(266.127 -491.542 62.6195)
(305.751 -629.33 41.681)
(269.778 -585.175 15.716)
(359.322 -728.996 -62.7115)
(350.657 -727.924 -56.0679)
(418.342 -668.291 -63.6023)
(401.476 -734.77 -53.419)
(295.001 -461.137 26.8181)
(317.067 -620.97 50.0937)
(257.07 -338.055 72.3713)
(316.295 -495.847 -33.9617)
(192.834 229.505 -154.403)
(139.397 136.892 -227.888)
(181.728 138.117 -175.075)
(233.363 162.146 -136.441)
(199.911 202.006 -174.231)
(230.555 227.277 -125.07)
(194.503 153.939 -197.773)
(144.819 -103.175 -179.077)
(191.52 -198.544 -4.04666)
(191.903 -312.241 -18.8052)
(220.312 3.06015 -85.0583)
(205.48 125.539 -170.711)
(223.784 76.24 -84.8467)
(202.138 95.5736 -195.486)
(164.179 197.206 -186.982)
(137.427 138.028 -224.298)
(157.944 157.056 -193.822)
(196.646 166.362 -187.219)
(188.775 190.927 -189.087)
(194.224 195.521 -180.961)
(184.653 152.189 -206.237)
(145.008 17.3214 -209.001)
(176.612 102.739 -181.823)
(170.969 64.2329 -191.629)
(202.277 129.305 -187.64)
(195.778 131.073 -184.51)
(191.557 113.132 -203.472)
(203.288 134.657 -176.81)
(182.943 178.671 -148.585)
(181.877 215.519 -167.374)
(180.91 178.584 -169.918)
(214.487 182.98 -167.138)
(195.389 197.206 -135.134)
(201.166 202.788 -163.222)
(217.68 182.474 -138.966)
(229.229 234.081 -70.5032)
(316.417 -213.724 -48.5599)
(245.071 -20.7956 -16.3282)
(247.456 60.0729 -16.2603)
(269.39 220.04 -46.4129)
(249.756 228.766 -58.7395)
(257.199 -85.5034 -40.5297)
(308.236 -536.968 -20.6818)
(217.552 -326.628 70.0196)
(257.597 -471.474 83.1906)
(215.52 -188.345 50.0247)
(218.988 -145.189 -29.1605)
(219.744 -55.805 14.726)
(226.395 -305.706 -26.5446)
(191.637 75.587 -139.308)
(195.016 108.965 -155.977)
(189.263 81.8056 -164.284)
(221.2 140.902 -162.308)
(215.149 128.172 -126.332)
(213.724 134.452 -155.351)
(226.316 137.373 -134.049)
(242.415 177.415 -115.274)
(218.398 202.372 -149.443)
(223.047 205.389 -90.4914)
(216.031 173.569 -149.199)
(236.111 218.665 -103.524)
(232.741 180.325 -101.299)
(218.946 165.194 -173.327)
(214.058 162.584 -180.386)
(210.547 176.13 -156.921)
(210.166 191.075 -169.541)
(208.377 164.768 -167.715)
(211.127 188.351 -172.146)
(208.603 158.163 -187.282)
(212.111 159.142 -168.724)
(247.366 130.779 -34.9763)
(229.02 206.216 -48.6544)
(257.364 221.889 -39.3505)
(250.627 128.397 -38.0275)
(246.13 219.164 -52.3705)
(241.695 159.652 -43.4774)
(248.612 59.5539 -40.4708)
(223.414 167.018 -160.919)
(199.607 169.749 -128.933)
(205.297 161.616 -142.613)
(209.124 140.451 -125.498)
(209.372 181.486 -154.107)
(214.508 150.6 -151.452)
(220.885 162.073 -132.02)
(-75.5407 -157.009 -34.0315)
(-52.5553 -157.213 -20.8911)
(-83.2868 -173.638 54.5431)
(-51.5278 -215.846 166.113)
(132.329 -187.355 -248.168)
(54.9449 -161.556 -65.8293)
(-18.3809 -138.53 -214.528)
(-22.7465 -217.006 -33.6305)
(18.8132 -248.409 -145.71)
(119.209 -35.295 -121.366)
(20.4346 -139.429 -10.9661)
(83.4785 -152.133 -257.211)
(112.416 -163.554 -165.001)
(96.442 -202.589 -209.018)
(65.4202 -129.656 -172.654)
(52.8348 -188.163 -214.896)
(72.9724 -177.726 -138.943)
(34.2621 -162.632 -147.528)
(29.4201 -5.77088 -38.7409)
(150.737 101.352 -13.3452)
(115.623 98.2359 -126.005)
(179.806 130.789 -97.2902)
(15.2075 -57.5306 -169.768)