# vtk DataFile Version 2.0
sampleSurface
ASCII
DATASET POLYDATA
POINTS 9018 float
-0.5 0 0.304564 -0.5 0.1 0.292025 -0.5 -0.1 0.296198 -0.459026 0
0.375 -0.44869 0.1 0.375 -0.453438 -0.1 0.375 -0.542274 0 0.25
-0.535048 0.1 0.25 -0.536532 -0.1 0.25 -0.5 0.2 0.266791 -0.425554
0.2 0.375 -0.5 -0.2 0.270925 -0.433162 -0.2 0.375 -0.515754 0.2
0.25 -0.518385 -0.2 0.25 -0.4 0.274442 0.375 -0.4 0.3 0.355298
-0.5 0.253305 0.25 -0.5 -0.260418 0.25 -0.388608 0.3 0.375 -0.4
0.2 0.42798 -0.48225 0.3 0.25 -0.6 0 0.159039 -0.484226 -0.3
0.25 -0.5 0.3 0.222502 -0.5 -0.3 0.223797 -0.4 -0.3 0.374442
-0.4 -0.299369 0.375 -0.399717 -0.3 0.375 -0.6 -0.1 0.151422 -0.6
0.1 0.151845 -0.4 0.4 0.289619 -0.4 -0.4 0.290612 -0.626247 0
0.125 -0.4 -0.2 0.458104 -0.620619 -0.1 0.125 -0.621575 0.1 0.125
-0.436122 -0.4 0.25 -0.438444 0.4 0.25 -0.33888 0.4 0.375 -0.6
-0.2 0.13155 -0.6 0.2 0.13331 -0.412171 0 0.5 -0.346238 -0.4
0.375 -0.401126 0.1 0.5 -0.4 0.104717 0.5 -0.605427 -0.2 0.125
-0.607143 0.2 0.125 -0.6 -0.222166 0.125 -0.4 0.1 0.505 -0.408202
-0.1 0.5 -0.371042 0.2 0.5 -0.6 0.230688 0.125 -0.4 -0.143409
0.5 -0.574131 -0.3 0.125 -0.5 -0.4 0.161231 -0.660488 0 0
-0.653749 -0.1 0 -0.4 -0.464177 0.25 -0.5 0.4 0.168785 -0.385407
-0.2 0.5 -0.578316 0.3 0.125 -0.656404 0.1 0 -0.638054 -0.2
0 -0.4 0.475581 0.25 -0.3 0.467693 0.375 -0.33441 0.3 0.5
-0.6 -0.3 0.0492189 -0.642511 0.2 0 -0.376076 -0.5 0.25 -0.6
0.3 0.0654562 -0.4 -0.5 0.214448 -0.3 0.5 0.342103 -0.3 -0.476094
0.375 -0.3 0.4 0.456874 -0.3 -0.5 0.344962 -0.532864 -0.4 0.125
-0.385007 0.5 0.25 -0.349265 -0.3 0.5 -0.4 0.5 0.229354 -0.4
-0.1 0.541194 -0.539917 0.4 0.125 -0.614455 -0.3 0 -0.278304 0.5
0.375 -0.283115 -0.5 0.375 -0.4 -1.79476e-18 0.55912 -0.620191 0.3 0
-0.3 0.371707 0.5 -0.6 -0.345511 0 -0.5 -0.468052 0.125 -0.283423
0.4 0.5 -0.576312 -0.4 0 -0.6 0.366674 0 -0.480563 -0.5
0.125 -0.302504 -0.4 0.5 -0.3 -0.404493 0.5 -0.586359 0.4 0
-0.5 -0.5 0.0757243 -0.5 0.492271 0.125 -0.49576 0.5 0.125 -0.5
0.5 0.114536 -0.3 -0.6 0.255285 -0.305653 -0.6 0.25 -0.3 -0.607506
0.25 -0.3 0.6 0.269127 -0.321326 0.6 0.25 -0.3 -0.4 0.525864
-0.526815 -0.5 0 -0.385451 -3.51866e-18 0.625 -0.4 -0.6 0.139792 -0.372808
0.1 0.625 -0.5392 0.5 0 -0.20901 0.6 0.375 -0.209467 -0.6
0.375 -0.4 0.6 0.161459 -0.382334 -0.1 0.625 -0.416097 -0.6 0.125
-0.223088 0.5 0.5 -0.3 0.63174 0.25 -0.5 -0.549251 0 -0.2
0.6 0.390713 -0.349371 0.2 0.625 -0.2 -0.611921 0.375 -0.2 0.612365
0.375 -0.239977 -0.5 0.5 -0.2 -0.6 0.39788 -0.364224 -0.2 0.625
-0.4 -0.623695 0.125 -0.436903 0.6 0.125 -0.2 0.534937 0.5 -0.465438
-0.6 0 -0.315429 0.3 0.625 -0.5 0.58085 0 -0.3 0.334867
0.625 -0.335258 -0.3 0.625 -0.488307 0.6 0 -0.2 -0.557032 0.5
-0.223931 -0.7 0.25 -0.2 -0.7 0.272668 -0.3 -0.7 0.160202 -0.4
0.660942 0.125 -0.248319 0.7 0.25 -0.2 0.7 0.292635 -0.3 0.7
0.192294 -0.340108 -0.7 0.125 -0.266005 0.4 0.625 -0.3 -0.382234 0.625
-0.2 -0.727956 0.25 -0.152508 0.6 0.5 -0.290477 -0.4 0.625 -0.166733
-0.6 0.5 -0.372036 0.7 0.125 -0.4 -0.696217 0 -0.125616 -0.7
0.375 -0.396955 -0.7 0 -0.1306 0.7 0.375 -0.4 0.7 0.0629383
-0.3 -0.750202 0.125 -0.423514 0.7 0 -0.2 0.758801 0.25 -0.1
-0.728956 0.375 -0.207909 0.5 0.625 -0.1 0.7 0.432311 -0.1 0.735395
0.375 -0.2 0.513139 0.625 -0.4 0.730974 0 -0.234634 -0.5 0.625
-0.1 -0.7 0.445253 -0.37735 -6.7299e-18 0.75 -0.1 0.667568 0.5 -0.36725
0.1 0.75 -0.2 -0.8 0.172811 -0.375665 -0.1 0.75 -0.13468 -0.8
0.25 -0.25636 -0.8 0.125 -0.347999 0.2 0.75 -0.2 0.8 0.209938
-0.1 -0.681868 0.5 -0.164229 0.8 0.25 -0.1 -0.8 0.283002 -0.3
-0.8 0.0321849 -0.3 0.791235 0.125 -0.362572 -0.2 0.75 -0.2 -0.553257
0.625 -0.314768 -0.8 0 -0.292536 0.8 0.125 -0.3 0.8 0.108668
-0.1 0.8 0.305907 -0.0729221 0.7 0.5 -0.0841594 -0.7 0.5 -0.317027
0.3 0.75 -0.342148 0.8 0 -0.3 -0.817959 0 -0.339468 -0.3
0.75 -0.3 0.341829 0.75 -0.14214 0.6 0.625 -0.1 -0.837314 0.25
-0.166209 -0.6 0.625 -0.0344671 -0.8 0.375 -0.042174 0.8 0.375 -0.3
0.834563 0 -0.3 -0.4 0.733033 -0.272166 0.4 0.75 -0.2 -0.863486
0.125 -0.301502 -0.4 0.75 -0.3 -0.403432 0.75 -0.1 0.862308 0.25
-0.1 0.657047 0.625 -0.2 0.883648 0.125 -9.00409e-19 -0.83631 0.375 0
0.8 0.45696 0 0.841955 0.375 -0.1 -0.9 0.179066 -0.2 -0.9
0.0535117 -0.165616 -0.9 0.125 -0.2 0.9 0.0866515 -0.183416 0.9 0.125
-0.220177 0.5 0.75 -0.22598 -0.9 0 0 0.781982 0.5 -0.1
0.9 0.20718 -0.230299 0.9 0 -2.86635e-18 -0.8 0.476607 -0.1 -0.684523
0.625 -0.0397049 -0.9 0.25 -0.251024 -0.5 0.75 -0.0629118 0.9 0.25
-0.2 0.914619 0 -3.05639e-18 -0.793305 0.5 -0.066018 0.7 0.625 -0.0868992
-0.7 0.625 -0.2 0.535019 0.75 0.00632753 -0.8 0.5 0.0166341 0.8
0.5 1.60453e-18 -0.9 0.287597 -0.2 -0.92873 0 0 0.9 0.306428
-0.375651 -3.33272e-18 0.875 -0.36677 0.1 0.875 -0.373619 -0.1 0.875 -0.349178
0.2 0.875 -0.1 0.949757 0.125 -0.362036 -0.2 0.875 -0.2 -0.582704
0.75 3.04756e-18 -0.940544 0.25 -0.158021 0.6 0.75 0.0570549 0.9 0.375
0.0622056 -0.9 0.375 -0.187817 -0.6 0.75 -0.319795 0.3 0.875 0
0.947616 0.25 -0.1 -0.968893 0.125 -0.341666 -0.3 0.875 -0.1 -0.7
0.691058 -0.3 0.350765 0.875 -0.1 0.986629 0 0 0.775237 0.625
-0.277813 0.4 0.875 -0.08461 1 0 -0.1 -1 0.0624157 -0.131637
-1 0 -0.0423088 1 0.125 -0.307232 -0.4 0.875 -0.06938 -1
0.125 -3.38369e-18 -0.798213 0.625 0.1 0.93762 0.375 0.1 -0.937786 0.375
-0.3 -0.417773 0.875 0.00167602 -0.8 0.625 0.1 0.9 0.459415 0.0223641
0.8 0.625 0 1 0.179042 3.13714e-18 -1 0.180844 -0.1 0.680498
0.75 -3.40266e-18 -0.8 0.633038 0.1 0.884017 0.5 0.1 -0.9 0.487526
0 1.02132 0.125 -0.0847953 0.7 0.75 0.1 -0.89665 0.5 0.0557599
1 0.25 -0.115469 -0.7 0.75 0.0594658 -1 0.25 -0.229739 0.5
0.875 0.103352 -0.9 0.5 0.115897 0.9 0.5 -0.1 -1.03264 0
-0.260987 -0.5 0.875 0 1.04197 0 -0.1 -0.720938 0.75 0.1
-1 0.287577 0.1 1 0.295659 -0.2 0.552741 0.875 0.1 1.03024
0.25 -0.371772 0 1 -0.2 -0.6 0.85985 -0.363607 0.1 1
-0.368704 -0.1 1 0.1 -1.03968 0.25 -0.169946 0.6 0.875 0.1
-0.9 0.581082 2.82643e-18 -1.06936 0.125 -0.345763 0.2 1 -0.201995 -0.6
0.875 -0.356229 -0.2 1 0.16374 -1 0.375 0.164421 1 0.375
-0.2 -0.603395 0.875 0.1 0.877288 0.625 -0.31578 0.3 1 0
0.797904 0.75 -0.334918 -0.3 1 0.00188228 0.8 0.75 -0.0342645 -0.8
0.75 -0.3 0.341297 1 0.0975393 -0.9 0.625 -0.0326227 -1.1 0
3.59239e-18 -1.1 0.0623715 0.0669479 1.1 0 0.1 -0.90246 0.625 0.122634
0.9 0.625 0 0.8 0.764483 0.0311251 -1.1 0.125 0.0913128 1.1
0.125 -0.275348 0.4 1 0.1 1.1 0.140933 0.2 1 0.447468
0.2 1.03028 0.375 0.1 1.1053 0.125 0.2 0.979302 0.5 -0.300504
-0.4 1 0.2 -1.0344 0.375 -0.3 -0.401335 1 0.1 -1.1
0.179042 -0.3 -0.4 1.00428 -0.1 0.698749 0.875 0.1 1.11992 0
-0.0990297 0.7 0.875 -2.05536e-18 -0.839207 0.75 0.2 -1 0.476327 -0.134244
-0.7 0.875 0.2 -0.993592 0.5 5.34982e-18 -1.13158 0 0.206787 -1
0.5 0.162744 -1.1 0.25 0.22179 1 0.5 -0.227868 0.5 1
0.174476 1.1 0.25 -0.257624 -0.5 1 0.2 1.1 0.282933 0.2
-1.1 0.282933 -0.1 -0.74664 0.875 -0.2 0.551009 1 0.2 1.11951
0.25 -0.1 0.7 0.926802 0.2 0.971355 0.625 0.0579889 -0.9 0.75
0.1 0.897622 0.75 0.102375 0.9 0.75 0.1 -1.16556 0.125 -0.170243
0.6 1 0.2 -1.13461 0.25 -0.355977 2.91246e-18 1.125 -0.348834 0.1
1.125 -0.351177 -0.1 1.125 -0.20116 -0.6 1 -0.2 -0.602006 1
-0.0187175 0.8 0.875 0.1 0.9 0.766867 -0.0553929 -0.8 0.875 -0.331606
0.2 1.125 -0.33725 -0.2 1.125 0.271165 -1.1 0.375 0.2 -0.998209
0.625 0.276885 1.1 0.375 -0.2 -0.6 1.01359 0.201912 -1 0.625
0 0.818492 0.875 0.2 -1 0.633603 0.231146 1 0.625 0.0713621
-1.2 0 -0.30287 0.3 1.125 -0.3 0.308182 1.125 0.1 -1.2
0.0533577 -0.315139 -0.3 1.125 0.1 -0.941989 0.75 0.2 1.19006 0.125
0.3 1.1 0.416657 0.136586 -1.2 0.125 0.3 1.06526 0.5 0.187381
1.2 0 0.3 1.11592 0.375 -0.3 0.3 1.13845 -0.3 -0.349773
1.125 0.2 1.2 0.0898854 -0.266596 0.4 1.125 0.3 -1.1255 0.375
0.3 -1.1 0.44484 -0.101725 0.7 1 0.211968 1.2 0.125 -0.1
0.702492 1 0.2 1.21056 0 -0.283314 -0.4 1.125 -0.134195 -0.7
1 0.2 -1.2 0.172746 -1.6246e-18 -0.863476 0.875 0.1 -1.22586 0
0.3 -1.08402 0.5 0.318303 -1.1 0.5 -0.219496 0.5 1.125 -0.3
-0.3 1.17687 -0.1 -0.7462 1 -0.2429 -0.5 1.125 0.272174 -1.2
0.25 0.0349085 -0.9 0.875 0.2 0.98915 0.75 0.0805121 0.9 0.875
0.160965 -1 0.75 0.3 1.05271 0.625 0.296772 1.2 0.25 0.4
1.13614 0.375 -0.2 0.537156 1.125 0.3 1.2 0.25376 0.4 1.1
0.476012 0.3 1.20198 0.25 0.4 1.09083 0.5 0.3 -1.2 0.27255
0.211993 1 0.75 -0.1 0.7 1.05271 0.6 1.05388 0.375 0.5
1.0552 0.5 0.1 0.915836 0.875 0.5 1.1 0.397324 0.5 1.10918
0.375 0.520616 1.1 0.375 -0.3 0.2 1.2259 0.2 -1.25625 0.125
-0.3 -0.2 1.22739 0.6 1.01373 0.5 -0.0250264 0.8 1 -0.0552686
-0.8 1 0.7 1.00681 0.375 -0.2 -0.582268 1.125 0.7 1
0.394821 0.630436 1 0.5 0.3 -1.2238 0.25 0.6 1.1 0.283207
0.714389 1 0.375 -0.163911 0.6 1.125 0.7 0.958267 0.5 -0.310023
4.10876e-18 1.25 -0.189456 -0.6 1.125 0.3 -1.08672 0.625 0.7 1.05403
0.25 -0.302306 -0.1 1.25 -0.303542 0.1 1.25 -0.3 -0.116219 1.25
0.6 1.11538 0.25 -0.3 0.124967 1.25 0.629226 1.1 0.25 0.2
-1.03407 0.75 0.4 1.2 0.268551 -0.3 -0.1 1.25497 0.5 1.16764
0.25 0.3 1.25313 0.125 0.4 1.06168 0.625 -0.3 0.1 1.25772
0 0.826381 1 0.8 0.951485 0.375 -0.289378 -0.2 1.25 0.6
1 0.571706 -0.290435 0.2 1.25 0.430219 1.2 0.25 0.4 1.21058
0.25 0.5 1.02877 0.625 0.31571 -1.1 0.625 -0.3 3.41537e-18 1.27136
0.1 -0.965043 0.875 0.6 1.15407 0.125 0.8 1 0.273787 0.7
1.1 0.130119 0.7 1.10152 0.125 0.703048 1.1 0.125 0.8 0.911546
0.5 0.8 1.00951 0.25 0.5 1.2 0.177893 0.576106 1 0.625
0.6 0.985995 0.625 0.182234 -1.3 0 0.7 1.11138 0 -0.270364
0.3 1.25 -0.27267 -0.3 1.25 0.6 1.16959 0 0.2 -1.3
0.031867 0.388277 -1.2 0.375 0.2 1 0.832077 0.3 1.28176 0
0.72343 1.1 0 0.8 1.04019 0.125 0.822794 1 0.25 0.824924
0.9 0.5 0.533918 1.2 0.125 -2.15788e-18 -0.863523 1 0.8 1.05167
0 0.557146 1.2 0 0.5 1.21984 0.125 0.7 0.934858 0.625
0.8 0.9 0.554386 0.4 -1.2 0.397478 -0.1 0.696706 1.125 0.4
-1.2093 0.375 -0.0976129 0.7 1.125 0.249958 -1.3 0.125 0.2 -1.31458
0 -0.122028 -0.7 1.125 0.4 1.26304 0.125 0.4 -1.16657 0.5
0.5 1.23441 0 0.3 -1.1 0.692142 -0.237992 0.4 1.25 0.9
0.912003 0.375 -0.245287 -0.4 1.25 0.136674 -1 0.875 0.3 1.06479
0.75 0.9 0.9 0.409682 0.9 0.957837 0.25 0.768586 0.9 0.625
-0.2 0.5 1.22677 0.192869 1 0.875 0.9 0.862606 0.5 0.3
[...]
CELL_DATA 8768
FIELD attributes 1
p 1 8768 float
105448 102472 107359 101481 101570 102026 101780 103703 101425 101568 101402
101733 101786 103258 109965 109777 102203 101689 117397 102108 106531
105143 101775 106428 105656 133438 103296 101767 101382 101461 101479
101312 101463 112246 108688 103861 105196 105120 108948 101681 101644
102235 102344 108715 101633 109679 101677 102330 101980 107014 105079
101553 101463 126482 117245 102924 103876 106861 127875 101850 104022
102195 101483 106623 101565 107347 102222 101602 107313 102090 102215
101560 101601 105906 103124 103349 101485 101466 106321 103050 103320
101481 101456 101531 102280 103398 107036 122997 102033 101588 101487
102419 103621 101872 101641 104476 117555 102357 106901 101845 101402
123963 104521 137568 102585 102096 101413 105035 101562 106581 104220
101507 101446 101309 103304 102891 109184 101561 102451 101466 102342
113298 106856 101488 101720 101606 107822 105466 101438 101520 102551
101670 101537 101675 102148 101840 101428 101689 103461 102003 101357
101591 101667 101424 101326 101442 101533 101678 101640 101618 101669
101399 101562 102688 101344 101481 101728 101498 101373 101569 101311
101309 101310 101405 101365 101328 101315 103149 139176 103440 101612
119794 101662 101449 101490 105357 110845 119647 101404 101782 102202
103340 101383 104512 101343 101453 101702 101337 101584 101503 130823
103907 102095 138851 101685 101509 130638 103707 101524 114834 106641
101809 102011 101330 111670 108193 102156 101446 126984 102766 108191
102253 105893 110907 101372 101677 101646 103024 103437 113664 101807
103854 123035 101325 101349 101594 102068 103013 106420 109551 122112
101449 101353 101615 101393 102762 111596 103686 116225 138398 104013
109899 101499 101746 119796 128030 102093 101504 102103 105983 101401
117694 120384 103500 128930 127370 102285 103109 101454 101343 101862
104159 101619 110437 102108 101420 105645 101531 103825 112672 102440
107972 120639 108547 101869 127820 104025 101708 102014 129842 101488
101488 120319 134258 117158 111846 101899 123562 108356 130408 112993
108658 113712 129976 109336 109239 118937 129057 107668 108064 133245
129635 106104 136474 122503 104202 107314 116147 107846 103262 116891
105704 102691 101561 107824 122331 108716 102993 135079 127116 105206
101468 145457 115098 128739 109787 102027 115988 102279 105243 113446
103787 101912 121365 117348 135746 114441 139968 101739 103172 103224
109151 141305 102027 116164 101531 121396 102231 106234 111015 129795
107737 111785 108226 106584 102711 101547 108331 102620 130431 130086
126346 103544 107804 101914 113746 105264 102651 129243 101487 112784
104252 107829 127156 102595 101620 104758 104850 137360 103436 103516
101514 101431 102216 108150 124425 104317 101444 102430 109501 113463
104149 105616 109614 114955 133149 103517 128014 101429 102698 102851
117887 102161 102944 108916 117147 104896 111140 101798 104971 145111
103545 101485 101880 114450 101676 105739 110006 101429 134509 102887
122916 102326 103026 119762 107673 101940 104393 102314 101515 104226
103836 101821 116433 102398 101773 109688 101802 102451 109032 102638
101671 101606 101640 101488 105148 109973 101742 105751 102377 101637
102702 108524 101939 101459 105957 119455 101392 130043 103578 101503
103755 106186 106838 101555 113134 101860 102216 105298 103798 101670
101612 107353 110411 124573 102106 102532 101361 102752 107173 101560
102651 103016 102326 101654 108708 103494 101937 102703 101704 104864
126589 103620 102196 101426 101381 101659 101424 103190 104472 150072
101907 110747 107884 105686 104153 105648 101883 101525 115101 102561
101789 104436 101481 102249 101353 103497 109944 101748 103141 101593
101638 102051 101757 113037 102198 105499 101604 101863 102593 101489
103187 101391 101595 101486 101333 102305 101368 112517 103382 102688
101723 102872 101645 102319 101523 102374 102842 103654 102159 101375
101531 101386 101673 102596 103312 101667 101538 101631 101727 101612
101355 101612 102524 101386 101505 101562 101862 101416 101414 101352
101543 101426 101763 101395 101469 101358 101545 101406 101367 101391
101579 119942 119006 101503 101753 121438 106575 122815 105516 120104
123465 115794 104775 107161 102470 102608 125614 106723 128786 144914
109866 108479 109308 102294 105212 102090 117660 101988 116302 104046
101426 104901 101465 104711 101470 110930 107598 111293 104756 121733
124186 121035 123883 117044 119331 116688 119181 127190 101377 112463
108102 123722 115634 104367 106690 114145 124331 102710 129700 104749
101925 105994 103611 101587 130849 116151 110832 107795 116390 123563
103698 106533 138431 109551 135736 103145 122610 107508 101823 101971
113237 141800 135204 111587 102205 104370 110209 121375 107762 102288
121893 101780 111082 104199 101435 101472 103375 101494 105364 103633
103300 104767 101491 105305 103600 101475 103193 101501 105189 103465
101498 103145 104610 136132 105145 103444 102627 103679 126640 116474
102088 102705 102220 101420 102779 103836 132316 102841 120685 112141
113808 105375 102947 101837 101914 101378 102740 106340 105293 128581
135174 102352 110535 106043 141528 103297 101528 101463 102368 101512
105818 102004 131387 101812 103780 102814 101615 101424 104307 111839
150301 101868 101464 103958 120922 102151 101502 101688 101374 103026
108902 101578 101454 104485 101686 101987 102386 101542 106427 101998
101445 101508 101780 102082 101631 111489 105856 101403 101621 103701
101685 101345 101391 102374 101604 101477 102936 101506 101374 101414
102958 101801 101359 101371 102846 101407 103169 109758 104610 112928
127218 126850 119982 101573 103809 115035 101852 103870 101542 102773
101947 142932 102163 102155 101361 105884 101322 101552 105847 101547
101403 102283 101404 117658 119833 101611 134327 119786 117470 102194
101332 102337 101639 127395 113355 108884 134682 107200 114771 105280
102958 119016 102617 106512 107197 102804 107187 102599 106462 102798
148953 116421 106395 101437 112695 102247 105135 103643 101874 113889
115440 113570 115326 128479 119289 138708 112281 108425 110519 127722
107210 131369 121659 104625 105916 101535 122669 135719 105927 106015
106637 106556 101629 101589 107196 111162 124688 102468 101786 101587
110395 149354 122092 106442 149211 103011 113031 115192 104924 103439
101873 101946 101466 105774 106562 106487 101624 101578 152593 122590
105351 103281 133773 104538 103220 101499 101417 110021 115631 102727
108101 104492 134405 115423 132548 102772 134803 123357 101649 107029
102722 104181 102143 104536 102253 104104 104502 102251 102134 114132
101767 103766 115246 150763 152868 104894 109678 112119 124347 102119
101826 109842 102012 103034 140825 114224 129993 102053 118247 102139
110792 120205 102121 109312 117293 110553 119747 107275 113216 101624
105070 108827 102577 103379 101919 101680 116920 104279 109052 141965
145346 107295 115008 101417 104802 101781 101707 108163 117607 101684
102241 134189 126887 108517 102631 123509 102179 101369 101465 105286
103275 135300 103095 108602 101453 106025 102435 107610 109620 106869
110711 109755 106971 107639 110745 107594 105491 103920 105308 104878
101547 102329 103850 119605 102395 109396 101936 101385 102245 101346
110019 101736 101878 101328 101950 112821 101371 101601 102890 101683
103563 110086 101639 104318 101409 101506 103617 101737 101801 103317
103368 101750 103636 101806 102678 102246 101930 103402 105085 101497
102200 101466 103483 103087 102134 101497 101403 101380 101981 103695
101427 101624 102792 102234 101502 133701 101655 107683 101373 102551
101538 110588 101355 103032 102040 101437 102979 125281 139967 102338
101372 102980 102230 101450 101400 103196 101579 103100 102195 127137
103208 101430 101366 101504 104193 103988 101307 101487 101423 101904
101769 113473 102541 101345 101359 125534 101860 116441 102143 102658
101386 101461 102405 101353 101801 101529 101400 101771 101554 101585
101556 101592 101588 101542 101581 101475 102252 101483 106484 101576
101349 109357 102790 101360 101639 101360 101472 101492 102150 101511
101355 101476 101445 101355 102348 101336 101392 101425 101463 101334
101570 101371 101447 101309 101384 101332 101402 101344 101365 101334
129865 108206 103568 103912 104798 103001 110192 105637 106345 102437
121582 110240 117413 107084 104353 105089 120185 103001 102536 110822
103590 120291 113826 103802 105291 107752 102561 102031 111807 135389
112729 104642 114198 110330 101400 101436 101741 104039 138210 101432
104136 101747 101511 135165 106359 120774 102867 105774 102140 128303
120870 109120 102853 110912 119182 103922 101397 101830 103689 101811
102401 107049 122475 101510 102231 101721 103959 109344 101601 118173
111172 102181 104393 106878 101853 103367 127314 105109 101443 102687
101489 101979 101434 151454 111318 102080 103582 105378 104378 70578.9
82669.8 95190 117800 98849 128814 118175 111778 144432 101957 105532
103742 101511 109714 101364 102046 102254 106470 101547 105332 106463
101607 104135 109395 107447 105201 102589 102270 104405 101658 105611
103259 103117 115979 110652 118383 113635 102056 104670 106409 101775
103012 122172 104369 135142 102343 101451 113311 143947 143811 170411
111652 101411 101564 127426 104314 101940 101379 141266 109194 102128
148227 102293 101543 103758 108500 123054 104502 101624 117528 101827
103286 101890 102576 104964 105651 113335 101473 101670 101553 102118
102443 102010 121563 111659 104225 109898 113714 102190 101345 101678
106453 112905 101324 101462 118490 134400 101454 101332 102301 102055
109564 106150 102928 105546 123200 103429 110213 102243 101736 118112
120375 106308 108135 129661 124748 106263 101644 102743 102476 115694
109988 104857 105262 101671 102352 101458 101776 101405 103060 133425
113904 137218 105831 101512 102919 101932 101522 101686 101408 102595
101485 111039 101622 105153 101783 134846 104763 101478 121507 101726
114159 103270 143065 114388 114973 104996 101741 101967 101363 116223
116296 102790 102154 101392 101344 136675 106238 109121 103545 101932
101993 101762 102356 123186 112997 125925 103546 104856 101367 102323
104864 102603 101456 101367 103107 138198 101455 102876 129348 102479
101370 105460 102924 101523 101303 101528 101380 104800 129947 155109
81122.1 101759 144461 111741 103116 110465 104005 101696 102074 102217
105764 102550 132432 104515 105041 104044 103817 102400 122524 103257
116463 103670 109404 108532 103500 101914 101762 101875 101466 103978
122404 121966 127098 102968 112112 102008 104364 106076 105508 104713
103700 115608 103223 104479 102845 109747 105517 104938 102904 102942
127624 101907 109953 132964 112288 105105 115431 130691 135785 104237
106777 105961 104902 110721 112774 102184 104347 113805 117140 107557
117268 108138 123406 112827 103078 102908 104477 102033 103448 101682
126431 114644 106180 103526 121010 101644 113058 119377 101975 103170
102477 102454 107478 101364 104073 111565 106622 112497 104006 102338
101518 133079 103543 120107 113452 103876 146519 115678 102110 105028
115021 108484 103327 101615 103121 103605 101554 142018 138562 106007
103471 113543 101951 109009 126939 117656 112348 125413 104993 110610
101635 102267 122693 108782 109175 101796 102029 112654 109068 124103
131196 102401 102768 104204 104929 106263 104920 117241 102252 102557
106153 102979 129923 104924 125535 114786 105824 102361 128300 109794
104914 102126 101839 107949 104034 102233 101622 101434 141831 103668
101536 105378 105295 101674 122926 102563 104623 102241 101439 101676
101871 102073 110303 101802 113522 101863 115239 105689 103025 102017
109844 104281 101767 101791 111229 104288 114588 107348 127378 119386
114496 112387 102864 103188 112138 104726 108632 114908 112123 101522
116325 78399.6 124633 97430 51377.4 217806 83296.2 60578.8 138709 77919.8
53454.9 138686 73740.2 164299 104748 80806.4 69850 200468 71751.4 125346
158075 99430.4 167025 155300 84323.9 134520 105042 60906.3 51567.5 153731
91682.1 105360 128890 65838.2 118822 128416 112516 106586 86101.7 128897
121627 115343 129529 77354.2 123885 67580.5 70527.8 118793 102173 140936
106078 81470.9 101568 102939 119415 111491 122781 122521 135094 116494
118417 116582 110400 102321 123055 101839 112846 108406 101626 103492
124181 111273 106405 103608 111142 103263 106229 122836 103663 135418
102322 107177 124533 109408 102808 101860 107246 113343 105195 103093
136216 121382 102207 102941 104186 101429 103430 138034 105129 104320
101450 101473 102209 102476 101919 118510 102500 101680 110044 110170
102066 102133 101681 102109 104744 103310 101755 101689 107593 102662
101422 101897 102091 111349 105914 101509 101642 120055 102375 101735
108885 101727 101789 101967 109278 101546 107323 101636 102256 102207
101659 109694 108505 101607 102112 101501 101347 104532 102073 117717
101358 101537 102397 105133 120117 102109 101466 104591 101337 101703
111008 102151 110924 101466 103699 105802 101961 101700 104698 106604
101525 101353 101960 106763 101636 101598 101465 101316 108361 105239
101705 102110 101487 101737 102305 101809 101521 107291 101555 101946
101740 101949 102160 101862 125545 116723 101515 103213 101401 102250
102158 101496 101381 101895 101427 104041 101447 102136 105712 102279
101448 102333 101659 101789 101745 101428 103739 101605 101841 101477
101354 101509 106762 101346 102479 101697 101390 101427 101561 101664
102320 101604 103706 102190 101576 101518 101562 101515 101837 101667
101543 101388 102599 101709 101447 101412 101498 101424 101516 101357
101334 101922 101347 101466 101449 101326 101908 101347 101332 101400
101376 101440 101397 101475 101316 101337 101506 101305 101467 151317
106821 101387 115640 101382 101356 101413 102066 102865 102359 101488
102302 141472 108391 108375 131459 105545 123272 101408 103631 102189
109290 117803 103262 128445 119354 101535 105095 111868 138977 120499
101788 101597 101450 102176 116289 113739 106432 129754 122008 115951
144985 158586 136850 86281.2 89116 106282 121926 85964.6 101134 100550
131224 128743 85686.1 84719.9 125620 101707 143567 130809 138162 131170
113729 115770 112127 134453 117289 124298 86733.3 76574.4 91153.2 117575
91351.6 137067 129046 121402 128676 78060.9 117143 119472 111522 134471
108630 82627.4 116077 116327 107760 132445 107562 101286 123357 115175
131434 86199 72616.6 121614 82981.7 150374 115132 110484 83323 151399
132785 78700.3 81220.3 120247 124241 152816 150262 76621.1 75519 121927
119222 146581 146987 143582 121612 119247 134274 110338 110476 88775.3
94527.9 92012.5 61104.9 85405.3 70419.4 82509.5 118786 125319 133212 94570
72670.9 102237 151700 158437 151538 101908 120692 91359.2 78307.7 103509
78248.8 87242.2 94944 115021 141142 114851 116667 100081 104234 128441
85652.7 80642.1 107412 107011 103048 99223.6 88863.9 90009.4 87706.8 100478
94155.1 78436 111777 87734.2 88749.3 87917.5 127309 110472 118144 97435.6
99710 112377 105328 126829 102453 109926 101687 104319 144623 117811
115355 102230 104175 137534 107106 109354 101745 133306 103814 149628
109223 101708 102490 108141 128692 101884 103777 101407 117641 101353
102279 105717 105171 101542 102071 103040 116798 101415 102360 101353
104472 101482 101795 101551 101362 102754 101416 101470 103446 101396
101986 106581 128948 136004 101425 101603 101595 103022 124732 103986
116816 108810 101439 140467 121842 103204 106878 117281 106783 122431
104031 110845 146254 136304 102941 107543 101687 110485 139630 102908
131041 119488 102076 101534 105201 102557 102406 104740 127139 106422
101985 118187 102187 103856 101993 101532 106031 132421 117909 121581
134839 132947 126858 130992 131582 102662 137600 117340 116870 101867
102895 120367 102080 101519 106610 101378 101916 104172 126026 98774.6
119014 119163 104455 102409 101418 142268 101435 102962 101432 101401
102662 132404 128221 124633 125710 131229 85383.4 136194 107744 147306
133671 99621.6 101409 122805 81886.1 84533.8 98805.8 111770 138022 136327
77607.3 126883 103042 79719.3 84912.7 71647.7 82585.7 126428 119684 118636
125468 106152 130137 109749 69543.6 108686 105448 96033.7 99354.5 95878.2
112033 103479 123128 125558 103298 103336 110389 128812 110106 93713.9
110744 127169 130457 144601 81692.5 67113 112157 149225 107537 81673.7
112298 81823.5 109109 154577 155709 88168.8 103310 166460 82664 90987.6
107799 137570 144815 144852 68478.1 135041 108960 147107 101652 101664
123642 111852 110546 123709 112896 101492 133279 105818 102648 109869
132894 104096 101940 116091 106602 102366 126327 87744.7 78267.9 99701.1
87087.8 88756.4 125780 70707 81988.9 110692 158948 112797 89986.6 87467.4
128903 123038 33299.5 50145.4 29656.6 47417.1 83382 78606.8 111640 70638.4
73724.1 109424 113853 130391 77218.1 83517.3 87597.8 88693.1 95157.6 108805
135988 167096 106410 78879.6 106885 119973 113844 99539.9 111967 95552.3
96167 129608 102317 78567.3 94510.5 114724 123037 89931.3 119433 130599
104143 90137.9 106626 119504 97564.8 95537.9 114087 117637 129187 132803
140512 116706 119714 130399 113786 138777 121882 134993 118146 106460
132667 67679.6 109341 101617 102764 101639 109647 103242 102824 101625
108290 102374 126139 101396 101956 103546 104352 102176 101411 101708
101565 101491 106051 101360 101944 101349 101717 101472 105372 101826
101559 101365 102903 101419 101464 101513 101522 101341 101483 101366
101363 101334 101334 102678 102301 101880 102120 107272 105242 112630
128289 107299 103808 121460 132983 102638 105561 102159 101551 127003
101467 102420 102757 111227 101730 105463 102086 120847 112755 117360
114263 109035 105598 108729 104065 107353 109951 107040 122432 118664
102882 118182 103312 105082 105383 103075 102144 103392 119448 101640
104224 108754 101652 102202 120679 108993 105802 115106 101941 103316
101595 107811 101544 102212 102050 104013 101958 101417 101753 102235
104681 101439 101796 102486 101563 131240 94202.1 80973.3 95375.6 94070.2
106837 119642 125068 78516.1 122968 111556 102745 115475 130320 110361
134679 115071 137935 134757 140090 129336 120799 110097 101709 124390
113814 130351 103201 111939 108824 102603 118590 101688 102067 103798
105976 110130 101599 107858 103624 102958 101858 103764 105622 102329
101782 101639 101479 101505 104261 101887 102311 101500 101377 101979
101732 101445 111789 109172 105169 102096 101653 136585 102809 118774
107467 122633 101450 101438 101622 101406 102782 106019 101397 113807
101673 113290 105057 103700 120040 107311 124369 105549 101464 102135
102117 108551 105956 114675 101589 102874 105003 101867 106186 110613
114189 101519 101994 103245 104104 107326 101350 101395 101400 101321
101670 110985 114506 101513 107665 107137 128607 102064 101610 101359
101534 102636 103099 101494 101719 101384 101661 101371 131058 101517
102074 105019 117782 102386 101425 101732 102894 101754 101494 101354
107091 101774 102055 101392 101301 102195 101418 131220 104335 101520
101455 101697 111559 101387 115886 105148 109758 137265 102029 131140
101684 105118 108336 108098 101335 101349 101661 101975 101801 102806
101489 110155 101343 102249 101377 117787 103970 118152 101375 101349
101364 102116 102211 123199 112251 102562 118966 103635 121253 101856
121236 106230 121392 137517 117992 114470 125766 123027 112683 108384
119208 105323 138408 108786 102910 111342 107409 104524 121903 114528
122017 104096 114279 105940 110133 126761 122425 104384 106115 132096
102826 112380 104987 105592 101436 101478 102880 102101 101909 103985
105285 144552 110407 104216 137718 101561 106778 102519 106365 123807
126926 127291 131015 110000 106820 120031 101756 112002 102192 104969
103513 101837 105017 113910 102141 104092 101840 101453 104471 101421
102209 103917 120219 110112 102802 104216 120572 128109 105360 154172
107584 115054 114378 110165 119936 102994 101800 111977 101823 104586
111959 111204 112834 101870 101372 105080 101793 128574 104631 106488
101983 103933 103598 101738 110692 115301 129583 123656 106861 110581
101755 106822 123356 102397 101568 105786 120913 114050 104162 102940
122889 110421 146654 103736 102081 110991 123236 102490 103308 102454