/*--------------------------------*- C++ -*----------------------------------*\
  =========                 |
  \\      /  F ield         | OpenFOAM: The Open Source CFD Toolbox
   \\    /   O peration     | Website:  https://openfoam.org
    \\  /    A nd           | Version:  9
     \\/     M anipulation  |
\*---------------------------------------------------------------------------*/
FoamFile
{
    format      ascii;
    class       volScalarField;
    location    "0.00315";
    object      rho.air;
}
// * * * * * * * * * * * * * * * * * * * * * * * * * * * * * * * * * * * * * //

dimensions      [1 -3 0 0 0 0 0];

internalField   nonuniform List<scalar> 
26967
(
1.00804
0.853339
1.0278
0.951947
0.865124
1.18264
1.1391
0.916747
1.31381
2.12704
1.50355
2.18827
0.33587
0.508517
0.400321
0.523786
0.570761
0.806841
0.660653
0.840412
0.9289
1.50309
1.14108
1.59385
1.70762
1.50489
0.3581
0.332116
0.312613
0.389541
0.303945
0.385504
0.367644
0.413677
0.448181
0.503842
0.478861
0.443727
0.423949
0.466958
0.57128
0.566155
0.532576
0.637413
0.518418
0.632158
0.588169
0.631419
0.713215
0.797902
0.728035
0.706334
0.651332
0.704737
0.907562
0.917531
0.822437
1.08761
0.794342
1.08242
0.936797
1.04805
1.27784
1.53739
1.19713
1.29051
1.05873
1.2151
0.773652
1.04864
1.06409
1.3471
1.51403
1.34127
1.84896
1.17432
1.6188
1.53679
0.295737
0.255232
0.412412
0.270197
0.621614
0.33358
0.776508
0.440866
1.44116
1.72092
0.220978
0.307633
0.325627
0.228527
0.343179
0.330844
0.260818
0.343523
0.236446
0.394005
0.524196
0.25881
0.585329
0.401415
0.315673
0.523629
0.267398
0.724346
0.721334
0.314121
0.87568
0.741612
0.404007
0.901132
0.83145
1.02112
0.338088
1.11413
1.02815
0.553594
1.6075
1.16356
0.745977
1.67176
0.318983
0.297419
0.317622
0.255522
0.298751
0.318218
0.317384
0.392719
0.331819
0.341554
0.282977
0.358411
0.358372
0.364006
0.593802
0.452016
0.462576
0.353113
0.535911
0.484823
0.5041
0.955014
0.62204
0.682967
0.495051
0.829119
0.702735
0.782898
1.05761
0.626311
1.47497
1.59277
1.67291
1.53986
2.2362
1.79799
1.88895
0.299059
0.289407
0.283457
0.221399
0.290704
0.284845
0.297389
0.305789
0.223378
0.310485
0.301327
0.295877
0.289613
0.323117
0.323201
0.25643
0.312844
0.326576
0.302447
0.319536
0.335263
0.394866
0.33571
0.320301
0.244569
0.353743
0.369106
0.344489
0.439767
0.252486
0.440213
0.393179
0.404831
0.370172
0.483022
0.435296
0.2988
0.420762
0.42535
0.389393
0.392246
0.483218
0.56201
0.475015
0.414927
0.279254
0.523244
0.509488
0.43661
0.602561
0.294978
0.587152
0.490543
0.546281
0.461123
0.647831
0.658933
0.376168
0.565411
0.610182
0.521602
0.552258
0.735103
0.74924
0.779067
0.740151
0.891043
0.700027
0.831897
0.788826
0.693859
0.662356
0.644515
0.715143
0.799089
0.950249
0.957021
0.922317
0.884999
0.842598
0.868467
0.73916
0.86014
0.771853
0.812392
0.76222
0.631419
0.528979
0.371628
0.699577
0.679604
0.585518
0.847083
0.432672
0.841219
0.858164
0.738914
0.682661
0.983567
1.13106
0.588167
1.03055
1.13586
0.830332
0.933028
1.35499
0.858483
0.529822
1.00198
0.77443
0.847061
0.948076
1.06281
2.00765
2.18561
1.73885
1.81692
2.12227
1.65291
2.28198
1.21602
0.859145
0.998108
1.19161
1.28117
1.26648
1.59858
1.26385
1.16998
2.21368
0.208447
0.25847
0.310148
0.497897
0.551124
0.723413
0.833454
1.02403
0.797898
1.01771
1.08325
1.35353
1.0561
1.06581
1.34971
1.36427
0.197939
0.177741
0.212385
0.212533
0.182214
0.216805
0.193043
0.210784
0.226338
0.22638
0.260038
0.195292
0.229851
0.240635
0.344944
0.274914
0.307829
0.374119
0.287438
0.334381
0.366804
0.402562
0.438775
0.447265
0.480901
0.393844
0.426276
0.455139
0.550285
0.495244
0.531165
0.602803
0.502774
0.542412
0.581955
0.603459
0.658725
0.652548
0.707685
0.593567
0.639076
0.666366
0.82681
0.720596
0.789487
0.876184
0.739798
0.797947
0.881262
0.926041
0.946164
0.956888
1.06158
0.875641
0.968405
1.04321
0.833895
0.748974
0.836876
0.905502
0.77691
0.812829
0.895644
0.883196
0.970089
0.928996
1.00021
0.871512
0.947586
0.929347
1.1311
0.939461
1.15399
1.19267
0.997956
1.03931
1.29734
0.951851
1.04274
1.15245
0.970436
1.03551
1.0527
1.11972
0.982159
1.46697
1.56362
1.08892
0.904778
1.41609
1.37918
0.689744
1.6536
0.745498
1.67372
0.976659
1.52454
1.51474
1.30301
1.0447
1.93
1.22503
1.22558
0.520117
0.490119
0.537759
0.503881
0.867767
1.40215
0.882637
1.43011
0.567217
0.601544
0.730743
0.867724
0.903676
1.49993
0.808359
0.920216
1.1585
1.16034
1.3502
1.51605
1.95773
2.01753
0.78759
1.9211
1.8515
2.14783
0.670548
1.3032
1.10201
0.713596
0.683288
1.33244
1.12813
0.780728
1.41885
1.22336
0.904745
1.03858
1.28338
1.38157
1.2794
1.46393
1.80224
1.34424
1.62437
1.65035
1.90924
1.99188
1.73314
1.68671
1.86675
2.05344
1.50541
1.23731
2.26626
2.01447
2.26663
2.13988
2.1249
0.379445
0.402688
0.483429
0.522707
0.404086
0.487327
0.376652
0.385067
0.525297
0.414647
0.515471
0.406009
0.49443
0.401951
1.25865
1.13927
1.03256
0.868901
1.14279
1.03721
1.25352
1.26953
0.872399
1.16261
1.06695
1.14997
1.04674
1.28854
0.475319
0.435093
0.55247
0.611471
0.432668
0.465994
0.603251
0.527882
0.665907
0.555645
0.737152
0.505705
0.664678
0.591244
1.34817
1.18172
1.09892
0.932593
1.31558
1.20665
1.14092
0.747987
0.616712
0.820897
0.901856
0.664297
0.689272
0.9179
0.844935
1.01453
0.879121
1.17993
0.775535
1.03432
0.959127
1.27342
1.00458
1.36754
1.57906
1.09806
1.16111
1.60195
1.49354
1.79786
1.59852
1.98633
1.36513
1.82782
1.73723
1.28975
0.637429
1.13204
1.1597
0.946495
0.984028
1.46181
1.69445
1.60608
1.86091
1.99858
1.45309
1.81496
1.96067
0.637597
0.888691
0.693891
0.642764
0.893672
0.830399
0.824266
0.710497
0.956271
0.790677
0.763707
1.00353
0.956004
0.901916
0.979472
1.20303
1.06718
1.08396
1.30938
1.31661
1.19002
1.62289
1.68253
1.65499
1.78259
1.75294
1.86453
1.78123
1.34133
1.3959
1.42632
1.60608
1.67579
1.87492
1.71174
1.63908
1.30885
1.22615
1.81783
1.32111
1.24414
1.22627
2.27407
2.294
2.30428
1.27844
0.698338
0.671469
0.921149
0.649979
0.901265
0.838571
0.86139
0.84362
0.896082
1.12294
0.825063
1.05816
1.01941
1.09508
1.18862
1.41139
1.57748
1.22334
1.44394
1.47932
1.64866
1.78121
1.96412
1.67905
1.89281
1.75351
1.87903
1.79336
1.8038
2.05371
2.04093
1.90991
1.93812
2.03916
2.0789
1.59342
1.43252
1.56698
1.66191
1.62155
1.39879
1.52326
1.69924
1.32955
1.41439
1.64928
1.79941
1.26562
1.29679
1.68129
1.23566
1.24138
1.31407
1.36292
1.22558
1.22562
1.23748
1.22518
1.22505
1.23279
1.22657
1.22502
1.22504
1.22514
1.22506
1.22501
1.225
2.08915
1.6737
2.15381
1.72276
2.26916
1.63848
1.44233
2.09335
2.19317
1.73836
2.24436
1.46948
1.05185
0.811394
1.2235
0.910237
1.13263
1.57243
2.10501
1.22505
2.242
2.30253
2.18117
1.33779
1.20604
1.90768
0.926746
1.35292
1.23519
1.9547
1.44038
1.33804
1.98378
1.22112
1.60664
1.50309
2.00857
1.87937
1.88935
1.88301
1.77639
2.12791
1.93692
1.26998
1.65346
1.55626
1.23529
1.95611
1.24884
1.23013
1.22542
1.25949
2.25052
2.25934
1.77678
1.73204
2.0829
1.41948
1.4305
1.23707
1.22541
1.22502
1.225
1.225
1.225
1.225
1.225
1.225
1.225
1.225
1.225
1.225
1.225
1.22501
1.225
1.225
1.225
1.96923
1.8793
1.55678
1.22694
1.68861
1.22511
1.225
1.225
1.225
1.225
0.61944
0.62861
0.602422
0.58421
0.56455
0.715592
0.681017
0.668141
0.733343
1.225
1.22501
1.225
1.225
1.225
1.225
1.225
1.225
1.225
1.225
1.225
1.23024
1.22502
1.225
1.225
1.225
0.643823
2.64447
2.34265
1.87978
1.43372
2.25489
1.60918
1.92751
2.39358
2.26857
1.22579
0.269227
0.284312
0.441334
0.578065
0.735999
0.935717
1.32426
1.83402
2.73814
2.78687
1.3022
1.17439
1.11313
1.24204
1.33224
1.2139
1.53226
1.72321
1.44817
0.336522
0.461715
0.305926
0.442156
0.564959
0.488194
0.349031
0.3053
0.30628
0.348173
0.310739
0.348983
0.34223
0.34343
0.300111
0.306825
0.335064
0.395716
0.395392
0.44751
0.431691
0.398212
0.386118
0.443763
0.388512
0.423111
0.378452
0.434085
0.534217
0.494954
0.476316
0.535832
0.489495
0.542704
0.521846
0.520917
0.46685
0.477891
0.510403
0.24733
0.315343
0.495259
0.714689
1.06044
0.26674
0.282692
0.312542
0.361129
0.449695
0.547354
0.602893
0.653793
0.77032
0.879675
0.282232
0.260922
0.264549
0.250971
0.264472
0.267025
0.27987
0.357476
0.337411
0.309455
0.357853
0.32496
0.384694
0.343302
0.525626
0.52797
0.471893
0.542543
0.48181
0.574541
0.517112
0.741313
0.740082
0.687354
0.769851
0.68883
0.794405
0.741491
0.851744
1.51042
0.296951
0.268652
0.301661
0.270094
0.27205
0.303906
0.294606
0.270758
0.259844
0.261653
0.268957
0.291483
0.312429
0.313869
0.289934
0.288305
0.261468
0.299719
0.286338
0.275743
0.273455
0.30141
0.304144
0.283023
0.312827
0.332102
0.284656
0.31249
0.320465
0.274613
0.276845
0.265982
0.284201
0.294325
0.328865
0.317739
0.302522
0.385958
0.357278
0.365626
0.423051
0.348929
0.412315
0.4118
0.331778
0.29757
0.301966
0.330272
0.343979
0.34866
0.317779
0.376203
0.396872
0.40404
0.481656
0.428307
0.433996
0.384731
0.439189
0.425701
0.487032
0.52367
0.508217
0.469815
0.460889
0.466386
0.369531
0.414987
0.371259
0.411059
0.377738
0.443042
0.408179
0.415239
0.549692
0.57336
0.553373
0.655953
0.507503
0.620908
0.597089
0.496675
0.458799
0.453321
0.503172
0.493968
0.479881
0.453908
0.518351
0.57469
0.594932
0.681219
0.626529
0.624959
0.567987
0.630791
0.59597
0.710955
0.724131
0.690971
0.670425
0.642496
0.647338
0.544799
0.608527
0.552147
0.59913
0.539085
0.610125
0.561453
0.590456
0.70396
0.667521
0.65564
0.716154
0.7879
0.818535
0.910449
0.835757
0.844284
0.78601
0.845372
0.741106
0.787773
0.747086
0.794937
0.707523
0.716492
0.447536
0.476838
0.7399
0.758533
0.889066
0.0765384
0.0977715
0.187772
0.345015
0.463626
0.202405
0.173565
0.356346
0.488567
0.591226
0.732679
0.790565
0.897381
0.0887936
0.275485
0.213501
0.137419
0.269383
0.326284
0.532462
0.591235
0.764376
0.152889
0.173559
0.178864
0.147515
0.168822
0.229269
0.194426
0.204835
0.330497
0.283409
0.261766
0.347816
0.395664
0.408394
0.58527
0.177289
0.180011
0.218115
0.217985
0.184636
0.222965
0.172012
0.194588
0.233686
0.233393
0.277969
0.198714
0.239947
0.233731
0.371035
0.289295
0.336223
0.396068
0.295617
0.357481
0.407174
0.444329
0.467116
0.484266
0.544199
0.425022
0.479119
0.507778
0.610664
0.534874
0.601525
0.646
0.561373
0.582037
0.656056
0.661733
0.702231
0.687616
0.773803
0.631874
0.712566
0.717618
2.39115
1.23186
1.25864
1.22502
1.22504
1.73401
1.89394
1.95116
1.86012
2.28543
1.50536
1.25456
1.22501
1.22822
1.22501
1.22811
1.22502
1.2254
0.200381
0.223632
0.269552
0.591894
1.28976
1.84095
1.3073
1.22609
1.22503
0.282994
0.315459
0.300199
0.631891
1.31978
1.78925
1.22559
1.22543
1.22501
0.57653
0.54173
0.405773
0.820389
1.40575
1.43373
1.22505
1.22502
1.225
0.819465
0.758332
0.528129
1.32474
1.43247
1.27381
1.2263
1.225
1.225
1.97117
1.05925
1.28737
0.449335
1.88486
1.82668
1.2251
1.22652
2.33246
1.73556
1.81186
2.32925
1.2252
1.24229
0.124724
0.190696
0.151749
0.163789
0.21393
0.199313
0.220053
0.267007
0.21111
0.237882
0.274073
0.274098
0.374358
0.276422
0.379306
1.02957
0.983997
1.41803
0.599891
1.03297
0.994849
1.47091
1.48307
1.55832
1.47375
1.30784
1.45101
1.58971
1.37243
0.249311
0.386862
0.310645
0.246227
0.389761
0.492124
0.298895
0.485155
0.401319
0.346468
0.455823
1.03987
1.05787
1.50735
0.706751
1.10065
1.26484
1.64962
1.42835
1.60925
1.32636
1.37871
1.33195
1.64381
1.25861
0.508768
0.623679
0.672828
0.555117
0.459957
0.705191
0.734584
0.542343
0.702539
0.649294
0.546625
0.479289
0.690707
1.13783
1.51271
1.68747
1.00962
1.32483
1.8087
1.67363
1.29967
1.63297
1.23519
1.45475
1.24007
1.41228
1.22693
0.792782
0.729822
0.886012
0.878182
0.789297
0.617888
0.94716
0.924207
0.613822
0.712103
0.901614
0.87357
0.902663
0.744796
1.71355
1.40055
1.98415
1.55608
2.07298
1.52715
1.58198
1.24616
1.23345
1.31339
1.22561
1.39708
1.35133
1.23537
1.23425
0.489687
1.95068
1.84826
2.1262
1.62417
2.38507
2.29127
0.464033
1.75616
1.71727
1.55978
1.57799
2.25595
2.05106
0.386283
0.966088
0.476802
1.04574
0.741266
1.62612
1.11338
1.63178
2.38124
1.58672
0.246224
0.261024
0.313477
0.459503
0.364517
0.40656
0.329081
0.468729
0.372062
0.330764
0.506998
0.378196
0.575874
0.400975
0.598422
0.461584
0.635015
0.462928
0.631441
0.760761
0.585481
0.835849
0.561618
0.89819
0.677494
0.962788
0.719918
0.893207
1.15959
0.841786
1.43166
0.956563
1.49433
1.19604
2.38483
1.76039
0.263465
0.226637
0.262181
0.230021
0.232093
0.26609
0.260125
0.272463
0.237784
0.241918
0.241029
0.188576
0.191995
0.238025
1.48441
1.43848
1.37384
1.29354
1.43968
1.37768
1.4826
0.360466
0.309441
0.329751
0.367381
0.319389
0.357096
0.374127
0.279
0.321107
0.303121
0.27805
0.218534
0.262501
0.234913
1.499
1.4475
1.41237
1.33525
1.49526
1.45139
1.433
0.551218
0.513969
0.529041
0.594985
0.506307
0.562534
0.574629
0.439917
0.377845
0.398026
0.358666
0.279197
0.337027
0.28909
1.46445
1.44044
1.50767
1.43275
1.48566
1.42283
1.53072
0.759009
0.732571
0.72267
0.80883
0.708058
0.787635
0.766916
0.679881
0.478323
0.590863
0.520233
0.331168
0.456339
0.362096
1.26525
1.31003
1.49426
1.39495
1.29999
1.27561
1.41056
2.00841
1.25401
1.18191
1.11739
0.425249
1.59865
1.55031
1.05151
0.409647
0.829495
1.5419
1.473
1.48781
1.47263
0.954632
0.439947
0.660094
0.735868
0.635659
0.722389
0.983233
1.22604
1.2455
2.30107
1.93554
1.24546
2.2175
1.22959
1.99113
1.2459
1.46511
2.24248
2.23016
1.23708
1.23897
0.254495
0.200578
0.257851
0.221008
0.208218
0.262058
0.249508
0.203299
0.216163
0.220971
0.226056
0.148806
0.151494
0.221951
0.274595
0.275876
0.278452
0.27145
0.266699
0.237162
0.256406
0.294827
0.22512
0.273276
0.289648
0.231807
0.225286
0.251741
0.235261
0.165873
0.156505
0.253261
0.283828
0.302377
0.286615
0.300616
0.261552
0.2312
0.259139
0.241635
0.23532
0.26197
0.258165
0.272497
0.275869
0.278007
0.270494
0.26514
0.257968
0.259724
0.263261
0.272731
0.245379
0.271931
0.297544
0.245863
0.276847
0.290606
0.269462
0.252617
0.27124
0.282429
0.247757
0.268902
0.284836
0.278621
0.298625
0.284908
0.291421
0.270548
0.277189
0.265038
0.282833
0.377243
0.312364
0.314828
0.317718
0.403398
0.405729
0.315602
0.248331
0.285194
0.260465
0.24403
0.205367
0.196534
0.251008
0.317534
0.386517
0.32504
0.319589
0.409348
0.405343
0.325218
0.8667
0.741703
1.13227
1.03031
0.741394
1.13579
0.863529
0.867104
1.03013
0.734211
1.15195
0.736765
1.1406
0.873967
1.50833
1.49409
1.49195
1.47762
1.49061
1.48556
1.51214
1.48743
1.29899
1.44407
1.39651
1.44155
1.3849
1.49122
1.5012
1.46748
1.47276
1.45543
1.48379
1.47374
1.49036
0.374229
0.302564
0.328547
0.365509
0.325596
0.360407
0.374797
0.282684
0.271812
0.3235
0.32023
0.180022
0.281845
0.19745
0.370174
0.329512
0.328961
0.369048
0.431
0.42755
0.490559
0.486167
0.424459
0.429125
0.490588
0.36928
0.415568
0.323434
0.363704
0.229609
0.214968
0.406942
0.418751
0.461038
0.415495
0.466831
0.353513
0.324628
0.316044
0.363548
0.409679
0.425377
0.463502
0.479639
0.409996
0.426205
0.459554
0.398996
0.455978
0.410015
0.444514
0.339021
0.424544
0.360265
0.354131
0.420716
0.336527
0.441008
0.330036
0.374981
0.355803
0.29661
0.267368
0.252287
0.316576
0.495979
0.3885
0.423774
0.377609
0.506132
0.469452
0.406457
0.909859
0.736736
1.16973
1.053
0.887368
0.745207
1.19536
0.939837
1.07292
0.780981
1.27447
0.759555
1.23001
0.979383
1.4548
1.45737
1.43036
1.4
1.4757
1.43774
1.39834
1.50011
1.35466
1.44996
1.48084
1.45297
1.45608
1.49605
1.42657
1.36704
1.38311
1.32499
1.41293
1.36184
1.39192
0.603616
0.556894
0.539991
0.615914
0.548442
0.623795
0.589997
0.502023
0.343634
0.360694
0.483946
0.240821
0.447227
0.249843
0.549971
0.502383
0.510483
0.540172
0.65712
0.675659
0.761191
0.687802
0.692164
0.638307
0.709396
0.581171
0.37785
0.398414
0.518503
0.271979
0.259371
0.552303
0.589011
0.62452
0.579823
0.629341
0.529532
0.498879
0.487549
0.539179
0.598811
0.647536
0.671413
0.671873
0.613795
0.621273
0.652055
0.583095
0.588963
0.655599
0.631332
0.595335
0.572639
0.64017
0.575052
0.630717
0.581994
0.627206
0.567743
0.61391
0.558307
0.620865
0.610454
0.466619
0.518756
0.480935
0.551256
0.440522
0.605478
0.418844
0.444032
0.527396
0.382932
0.311319
0.298908
0.41339
0.792229
0.582838
0.662832
0.530107
0.754348
0.671757
0.592879
1.10312
0.81261
1.32804
1.18539
1.03214
0.857773
1.39256
1.19754
1.24762
1.01506
1.54905
0.922992
1.46893
1.31853
1.30991
1.34933
1.29217
1.27298
1.35158
1.31328
1.26651
1.4247
1.45304
1.35564
1.53709
1.39478
1.54386
1.36382
1.27393
1.25316
1.25495
1.23685
1.27997
1.24833
1.2505
0.791749
0.825876
0.73641
0.834756
0.755783
0.877669
0.777237
0.653167
0.458096
0.424272
0.612153
0.288469
0.584102
0.309141
0.703738
0.670228
0.670125
0.705337
0.817147
0.871845
0.970816
0.842601
0.917557
0.807515
0.856718
0.768824
0.692752
0.510599
0.636854
0.402775
0.33902
0.692832
0.72382
0.75973
0.721466
0.768206
0.753529
0.718763
0.692822
0.768434
0.700576
0.775186
0.747186
0.72017
0.681082
0.680037
0.718948
0.720911
0.672338
0.67598
0.720124
0.797339
0.849937
0.883801
0.838829
0.831437
0.801985
0.834513
0.793761
0.815854
0.875499
0.834399
0.821001
0.789774
0.834334
0.739682
0.766107
0.733167
0.771853
0.745273
0.782653
0.747909
0.777727
1.10234
0.92383
0.765766
0.793855
0.865414
0.675743
1.03116
0.610811
1.00951
0.814629
0.626877
0.518119
0.416254
0.799511
1.3404
1.08825
1.35924
0.967845
1.69084
1.2984
1.2152
1.60394
1.13342
1.60412
1.45518
1.46673
1.27244
1.61074
1.70658
1.49838
1.61712
1.54468
1.41384
1.57013
1.78809
1.23477
1.24149
1.23121
1.2339
1.23824
1.23783
1.23151
1.2683
1.36387
1.36262
1.41703
1.27692
1.34085
1.39751
1.25885
1.26016
1.35432
1.38536
1.26275
1.25682
1.39403
1.1838
0.568052
0.726412
0.788775
0.854569
0.889672
1.06141
1.66252
1.24249
1.95547
1.97913
1.36724
1.51793
2.11615
0.961228
0.445116
0.667769
0.750663
0.641181
0.728366
0.99141
1.37771
1.15716
1.70008
1.88581
1.11314
1.42107
1.84502
1.37954
1.14415
1.69325
1.86167
1.11004
1.41448
1.84301
1.42768
1.52074
1.22509
1.41687
1.22662
1.22505
1.35064
1.22508
1.225
1.24425
1.22625
1.225
0.499054
1.97838
1.2261
2.32102
1.23858
1.51214
1.42169
1.51419
1.51648
1.37451
1.01101
1.4913
1.49527
1.06747
1.25298
1.52302
1.26094
1.29712
1.23086
1.61372
1.36054
1.22618
1.56983
1.35216
1.50776
1.2336
1.357
1.76044
1.63965
2.12242
1.40266
1.33636
1.45608
1.42636
1.33845
1.45447
1.40028
1.43881
1.36241
1.44076
1.40718
1.42655
1.37411
1.43169
1.44599
1.39831
1.36171
1.32186
1.4559
1.3916
1.31952
1.26632
1.30747
1.24019
1.23944
1.29781
1.27597
1.23585
1.14637
0.550986
0.718509
0.793016
0.806437
0.864941
1.0501
1.84245
1.42474
1.30509
2.11352
2.03298
1.23438
1.25893
1.40776
1.42425
1.3518
1.44749
1.34358
1.45175
1.41587
1.44898
1.39288
1.39495
1.39513
1.38564
1.41766
1.45499
1.3837
0.967535
1.26715
1.24548
1.23493
1.18932
1.42221
1.49804
1.30585
1.31235
1.13902
1.46267
1.34802
1.39349
1.41122
1.28952
1.34597
1.2543
1.37523
1.28172
1.35496
1.51609
1.21947
1.40519
1.53943
1.38205
1.47699
1.5065
1.38429
1.40142
1.57854
1.4159
1.45969
1.37236
1.57259
1.26532
1.2607
1.35944
1.37349
1.27554
1.25624
1.36412
1.33087
1.46024
1.39184
1.47421
1.34816
1.51831
1.376
1.57647
1.21139
1.80787
1.8933
1.31375
1.48175
1.92468
0.69613
0.469716
0.690786
0.731946
0.772705
0.892615
0.83791
0.686876
0.410623
0.658355
0.686535
0.653372
0.811007
0.81746
0.677001
0.703009
0.428844
0.416402
0.692505
0.659341
0.816321
0.596743
0.464303
0.468091
0.694701
0.539976
0.542364
0.691145
1.8289
1.62082
1.63942
1.65007
1.42815
1.68332
1.3674
1.22645
1.22585
1.29297
1.66554
1.28345
1.66982
1.26258
0.665258
0.49779
0.526203
0.743593
0.556478
0.718191
0.577106
1.76506
1.66461
1.63224
1.70418
1.33269
1.74168
1.25076
1.2667
1.22514
1.23589
1.66971
1.25254
1.60509
1.23143
0.902069
0.663072
0.733385
0.939485
0.687316
0.870681
0.745223
1.91312
1.24024
1.94307
1.73516
1.23823
1.4644
1.22586
1.22547
1.22511
1.22781
1.53699
1.22825
1.27953
1.22522
1.64304
1.36542
1.0919
1.58797
1.03983
1.34773
1.24802
1.22506
1.22955
1.7305
1.32925
1.22527
1.22797
1.22503
1.22502
1.22502
1.22514
1.24523
1.22508
1.22641
1.22503
0.977982
1.53662
1.24785
1.36496
0.754514
1.07914
1.07756
1.78432
1.72757
2.01968
1.72225
1.99808
1.91619
1.90913
2.45335
1.97252
2.41302
1.8301
1.95721
2.02834
2.48253
2.0154
2.23315
1.7849
1.80039
1.90057
1.95049
2.4743
1.2282
2.58686
1.47535
2.06394
2.36696
1.88644
1.27619
2.44532
2.3413
1.34819
2.00177
2.3805
2.30325
1.30748
0.470553
0.610507
0.47945
0.695643
0.545027
0.541646
0.702402
0.757142
0.562618
0.607541
0.776179
0.640878
0.604832
0.817451
1.15613
0.821504
0.935252
1.03124
0.906328
0.814813
1.15952
1.9696
1.65903
1.90204
1.80225
1.86767
1.54891
1.97077
2.28106
2.04805
1.62082
1.82237
2.04896
1.54477
2.2336
0.977468
0.567883
0.577828
0.599476
1.16141
0.605692
1.18882
1.27038
0.61621
0.702277
0.66401
1.29268
0.783186
1.48646
1.97378
0.834482
1.05331
0.966602
1.77046
1.25086
2.09406
2.18163
2.13984
1.42066
1.66772
2.23294
2.4326
1.2891
2.27016
1.86045
2.12574
2.25028
2.53682
2.54609
1.27493
1.22516
1.2336
2.32803
2.29687
1.23322
1.2321
1.2251
0.8451
0.921843
0.612276
0.792731
0.949545
1.00589
1.18776
2.14513
2.18591
2.16407
2.0687
2.26462
1.98794
2.00388
2.09651
1.77469
2.07944
1.92866
2.18393
1.93619
1.91261
1.88283
1.69473
1.76745
1.77027
1.71416
1.99381
1.90768
1.22904
1.22736
1.50967
1.63166
1.34181
1.6282
1.31851
1.47539
1.22531
1.39852
1.61337
1.27673
1.54922
1.24478
1.22641
1.22518
1.2332
1.39977
1.2301
1.26479
1.22529
1.22502
1.22504
1.22525
1.25872
1.2251
1.22883
1.22503
1.83584
1.66037
1.76799
1.77022
1.61569
1.95381
1.77124
2.39914
2.35367
2.2084
1.78843
1.58259
1.93462
1.58337
1.94027
1.70655
1.6429
1.2314
0.0913307
0.198194
0.504804
0.694363
0.929025
1.26974
0.11596
0.156493
0.158826
0.164011
0.180545
0.22193
0.101045
0.275373
0.245878
0.274665
0.414043
0.364994
0.474388
0.398504
0.526122
0.492531
0.540886
0.653664
0.632548
0.74977
0.605585
0.591545
0.780385
0.825555
0.818291
1.10791
0.974059
0.62686
0.74124
2.3005
0.169987
0.192296
0.197661
0.218642
0.263982
0.38245
0.344698
0.471295
0.512216
0.660376
0.622451
0.825746
0.881202
1.24814
1.11001
1.48377
0.110103
0.103098
0.1088
0.127569
0.111826
0.118317
0.120883
0.163917
0.14196
0.148912
0.135139
0.150322
0.157907
0.128635
0.131751
0.124314
0.156368
0.144254
0.168688
0.134786
0.178314
0.165754
0.199217
0.213018
0.151325
0.207297
0.174488
0.184617
0.212936
0.267457
0.205397
0.29256
0.219887
0.22888
0.283633
0.302989
0.259871
0.317015
0.289337
0.255349
0.231819
0.314429
0.344455
0.40228
0.335335
0.361878
0.417181
0.35141
0.430794
0.428601
0.37932
0.443744
0.351726
0.443765
0.378287
0.415382
0.547316
0.480974
0.465245
0.564066
0.479444
0.497567
0.540638
0.558622
0.509187
0.577809
0.544362
0.509879
0.478997
0.578598
0.588826
0.691613
0.617302
0.634474
0.673771
0.605062
0.710814
0.720317
0.654173
0.741373
0.616946
0.738216
0.654137
0.70115
0.717068
0.839911
0.765898
0.868522
0.742211
0.789197
0.80828
0.954125
0.838793
0.942967
0.902452
0.826079
0.796409
0.91147
1.29748
1.05177
1.19571
1.02094
1.09137
0.993814
1.15174
0.176665
0.164186
0.170659
0.186781
0.218334
0.223267
0.320615
0.268519
0.324424
0.446673
0.386281
0.450743
0.581308
0.516937
0.587658
0.757834
0.668341
0.764695
1.04236
0.881323
1.01952
1.51338
1.1719
1.36172
1.08965
1.05614
1.38363
0.132995
0.124631
0.150746
0.166999
0.132129
0.158901
0.126278
0.149077
0.18571
0.185986
0.211964
0.149915
0.176881
0.183081
0.295443
0.239647
0.263303
0.338596
0.233503
0.304958
0.325982
0.361477
0.406681
0.439361
0.46121
0.37307
0.393145
0.427704
0.557933
0.503537
0.528633
0.608169
0.49266
0.568481
0.597461
0.628259
0.677864
0.711994
0.748814
0.637728
0.670808
0.707315
0.88233
0.785916
0.83082
0.876943
0.793748
0.85211
0.908617
0.96328
0.921888
0.968806
1.03759
0.906934
0.972486
2.17795
1.42504
1.22705
1.22502
1.22501
1.2274
1.22503
1.22505
1.22501
1.22502
1.22907
1.22502
1.22749
1.22503
1.22511
1.22502
1.22501
1.22539
1.2554
1.23163
2.05795
1.22618
1.22502
1.23596
2.14386
1.22605
1.22504
2.14555
1.22848
1.22503
1.22502
1.22864
1.22502
1.22663
1.22503
1.2255
1.22501
1.23213
1.59463
1.22578
1.22504
1.41438
1.228
1.22511
1.225
1.225
1.225
1.22501
1.22502
1.225
1.225
1.225
1.22502
1.225
1.225
1.225
1.225
1.225
1.225
1.225
1.225
1.225
1.225
1.225
1.225
1.225
1.225
1.225
1.225
1.225
1.225
1.225
1.225
1.225
1.225
1.225
1.225
1.225
1.225
1.225
1.225
1.225
1.225
1.225
1.225
1.225
1.225
1.225
1.225
1.225
1.225
1.225
1.225
1.225
1.225
1.225
1.225
1.225
1.225
1.225
1.225
1.225
1.225
1.225
1.225
1.225
1.225
2.02907
1.19158
1.71525
0.919377
0.795756
1.0553
1.25765
1.04319
1.10189
1.13503
1.92642
1.54504
0.920983
1.02166
1.34437
0.780677
1.06257
1.21065
0.918794
0.845179
1.02547
0.924317
0.954838
0.944683
0.871598
1.05655
1.07928
0.988113
1.08836
1.45062
1.27489
2.17188
1.74967
1.1291
1.54984
1.41646
1.8481
1.05229
0.979912
0.973173
1.06208
1.17406
1.0183
1.04714
1.14663
1.43721
1.28407
1.44227
1.30156
1.16481
1.15042
1.31105
1.2475
1.04547
1.10324
1.17293
1.11328
1.18798
1.23398
1.45973
1.74437
1.71436
1.65861
1.48418
1.67412
1.98819
2.26221
0.741454
0.892156
0.458123
0.129875
0.14881
0.231842
0.417841
0.406053
0.476153
0.585579
0.545687
0.134659
0.156992
0.162031
0.176534
0.180716
0.208638
0.257558
0.313106
0.292614
0.39471
0.364013
0.349115
0.458608
0.44911
0.465054
0.441919
0.431372
0.533593
0.501384
0.492936
0.542284
0.530563
0.510463
0.498067
0.575668
0.631593
0.620872
0.0837093
0.100875
0.105846
0.107146
0.113231
0.129153
0.123295
0.195919
0.322813
0.289311
0.336762
0.213558
0.239405
0.255218
0.103679
0.120831
0.155099
0.131336
0.172084
0.188073
0.147108
0.0817071
0.0829227
0.0777348
0.099311
0.105569
0.0958945
0.102285
0.354543
0.466514
0.40162
0.359981
0.412928
0.475111
0.41513
2.79281
1.95167
2.83877
2.30905
2.74558
2.25421
2.69966
2.2432
2.33375
2.45132
1.22651
1.22557
1.22502
1.225
0.197767
0.193416
0.199674
0.191547
0.212476
0.243599
0.214185
0.242116
0.340066
0.287012
0.285472
0.341258
0.400769
0.467102
0.401916
0.465987
0.614305
0.537323
0.536142
0.616007
0.707341
0.824293
0.709346
0.825284
1.1875
0.971472
0.979907
1.15658
1.46852
1.61201
1.3719
1.80342
1.225
1.225
1.225
1.225
1.225
1.225
1.225
1.225
1.225
1.225
1.225
1.225
1.225
1.225
1.225
1.225
1.225
1.7913
1.77304
2.02692
1.81736
1.23623
1.25927
1.22845
1.22605
1.2251
1.22833
1.225
1.225
1.225
1.225
1.225
1.225
1.225
1.225
1.225
0.130943
0.0966572
0.129816
0.123436
0.119961
0.162607
0.158101
0.264892
0.185753
0.306017
0.260542
0.22646
0.219096
0.294443
0.466411
0.508264
0.566878
0.519282
0.525275
0.570693
0.496046
0.411925
0.447647
0.382937
0.404057
0.337609
0.368469
0.433015
0.146882
0.153556
0.208155
0.214666
0.220052
0.166253
0.160028
0.0802191
0.0855991
0.096939
0.0959606
0.102455
0.10232
0.108809
0.112617
0.145912
0.134666
0.120059
0.157462
0.126095
0.162237
0.50835
0.550763
0.501508
0.505695
0.458077
0.488639
0.540004
0.225168
0.216455
0.259764
0.237402
0.274511
0.229633
0.186017
0.137121
0.144049
0.19679
0.129139
0.136409
0.180208
0.186807
0.189473
0.260229
0.264269
0.216195
0.288035
0.218205
0.286817
0.37537
0.281602
0.309271
0.366947
0.329182
0.394615
0.296635
0.33338
0.399882
0.334425
0.35982
0.424293
0.35742
0.423073
0.426953
0.450987
0.516101
0.424333
0.477565
0.459553
0.51862
0.213869
0.15605
0.204674
0.247435
0.19582
0.238857
0.204599
0.132203
0.167464
0.124114
0.131797
0.175358
0.17265
0.179822
0.566576
0.665173
0.664205
0.548299
0.61464
0.616699
0.53223
0.266014
0.295092
0.255113
0.323959
0.34392
0.287609
0.349789
0.402656
0.390086
0.449212
0.45418
0.400449
0.405184
0.457119
0.454129
0.514847
0.458882
0.482106
0.537145
0.483632
0.542586
0.541674
0.571126
0.62149
0.576372
0.527292
0.572073
0.623085
0.19087
0.234031
0.150909
0.194469
0.189253
0.230885
0.198415
0.651753
0.551346
0.600431
0.595689
0.551667
0.591171
0.643453
0.230094
0.374356
0.671363
1.60163
0.288446
0.330589
0.249664
0.370622
0.576066
0.49635
0.672067
1.13582
0.931177
1.38931
0.236529
0.289807
0.2309
0.294109
0.2954
0.236881
0.230609
0.249595
0.305346
0.331605
0.277697
0.30661
0.249985
0.277319
0.37365
0.371524
0.319701
0.426685
0.319142
0.427661
0.374196
0.436731
0.495278
0.577958
0.508022
0.496478
0.437255
0.507968
0.68354
0.675529
0.588195
0.791256
0.589315
0.798547
0.68092
0.798253
0.942042
1.16567
0.939091
0.956883
0.793268
0.948706
1.43256
1.4516
1.1311
1.71845
1.15394
1.86096
1.37359
2.6782
2.02716
1.82416
2.17697
2.9627
2.0157
2.43753
1.67562
2.27159
0.491791
1.23248
1.70908
1.90289
1.225
1.225
1.225
0.367415
0.454714
1.11621
1.80321
2.30787
0.628581
0.383532
0.649265
0.789227
0.609505
1.33224
1.50579
1.3835
1.96235
2.14611
2.46134
2.45639
1.71194
2.29892
2.52515
0.67402
0.896351
0.695656
0.929839
0.959684
1.31079
1.07423
1.46299
1.38766
1.67521
1.33395
2.14043
1.73374
2.03267
2.22667
1.34703
1.2404
1.36021
2.28263
2.0038
1.54142
1.22502
1.225
1.225
1.225
1.225
2.04465
1.22502
1.225
1.25151
1.225
1.225
1.22507
1.225
1.225
1.22918
1.225
1.225
2.32638
1.22502
1.225
1.22567
1.225
1.225
1.225
1.225
1.225
1.225
1.225
1.225
1.225
1.225
1.225
1.225
1.225
1.225
1.225
1.225
1.225
1.225
1.22501
1.225
1.225
1.225
1.225
1.225
1.225
1.225
1.225
1.225
1.225
1.225
1.225
1.225
1.225
1.225
1.225
1.225
1.225
1.225
1.225
1.225
1.225
1.225
1.225
1.225
1.225
1.225
1.225
1.225
1.225
1.225
1.225
1.225
1.225
1.225
1.225
1.225
1.225
1.225
1.225
1.225
1.225
1.225
2.28494
1.22561
1.2284
1.22501
1.225
1.22501
1.225
1.225
1.225
1.76696
1.22504
1.225
2.29356
1.22505
1.225
2.24357
1.2331
1.225
1.225
1.225
1.225
1.225
1.225
1.225
1.225
1.225
1.225
1.22528
1.225
1.225
2.3152
1.22502
1.225
1.22521
1.225
1.225
1.225
1.225
1.225
1.225
1.225
1.225
1.225
1.225
1.225
1.225
1.225
1.225
1.225
1.225
1.225
1.22503
1.225
1.225
1.225
1.225
1.225
1.225
1.225
1.225
1.225
1.225
1.225
1.225
1.225
1.225
1.225
1.225
1.225
1.225
1.225
1.225
1.225
1.225
1.225
0.293555
0.25615
0.259432
0.283644
0.286297
0.246425
0.250102
0.51453
0.502915
0.554835
0.55501
0.55502
0.504679
0.505947
0.555468
0.630982
0.57246
0.59312
0.649973
0.604201
0.668244
0.599761
0.652247
0.714022
0.712422
0.755473
0.759836
0.63416
0.31826
0.345828
0.285335
0.246415
0.314799
0.28349
0.346495
0.450162
0.467057
0.407724
0.384715
0.450827
0.413188
0.478368
0.304605
0.271929
0.301278
0.296255
0.262234
0.319275
0.290573
0.728233
0.696408
0.641902
0.672771
0.685507
0.628422
0.675835
0.565659
0.575685
0.522364
0.513826
0.57662
0.541115
0.602733
0.659707
0.700925
0.743672
0.670415
0.634678
0.73708
0.693384
0.617016
0.608706
0.666967
0.608116
0.609082
0.666339
0.668831
0.361835
0.349673
0.412158
0.358278
0.336749
0.396117
0.410394