/*--------------------------------*- C++ -*----------------------------------*\
  =========                 |
  \\      /  F ield         | OpenFOAM: The Open Source CFD Toolbox
   \\    /   O peration     | Website:  https://openfoam.org
    \\  /    A nd           | Version:  9
     \\/     M anipulation  |
\*---------------------------------------------------------------------------*/
FoamFile
{
    format      ascii;
    class       volScalarField;
    location    "0.00315";
    object      T;
}
// * * * * * * * * * * * * * * * * * * * * * * * * * * * * * * * * * * * * * //

dimensions      [0 0 0 1 0 0 0];

internalField   nonuniform List<scalar> 
26967
(
697.009
681.412
809.536
670.783
761.265
777.434
650.868
742.339
664.24
528.256
421.369
435.922
918.409
839.562
888.449
825.29
819.709
811.892
787.173
777.439
819.681
775.743
703.151
644.233
713.41
712.107
870.644
917.209
887.316
896.621
888.22
896.265
868.987
846.984
867.006
843.487
820.601
868.853
843.111
826.801
812.536
826.239
806.358
808.927
815.137
818.657
800.654
817.114
807.005
824.476
810.976
817.132
802.645
827.534
860.404
836.421
823.642
822.878
844.248
845.881
834.782
864.019
808.569
818.796
824.761
837.277
833.391
875.137
557.717
485.719
506.377
778.384
737.304
792.766
635.454
827.277
668.659
735.894
813.352
970.889
757.828
881.768
602.297
598.428
567.799
483.007
702.235
546.063
843.67
887.363
807.49
825.147
965.182
1003.14
928.251
999.307
796.846
914.954
660.041
592.433
794.623
964.509
653.909
839.798
539.62
722.981
576.426
465.609
626.816
644.374
503.085
566.617
597.488
612.296
452.564
579.934
734.034
464.406
530.773
517.048
454.81
473.648
989.259
1024.84
932.873
967.208
1022.3
927.353
993.665
802.995
952.123
812.109
810.009
882.234
883.874
735.947
551.378
662.296
547.005
558.236
592.655
618.25
509.352
459.966
535.133
437.917
467.562
474.444
517.859
426.244
566.674
459.745
631.607
611.2
566.419
577.184
454.964
591.497
549.069
846.471
809.803
919.394
841.467
808.889
918.134
847.144
844.631
836.346
796.248
906.748
804.941
914.729
840.198
973.544
955.013
993.698
871.981
1013.04
908.911
940.362
787.587
775.652
883.37
740.166
825.072
734.07
833.479
731.115
664.697
620.699
694.555
675.581
763.443
676.196
719.522
727.609
722.838
596.102
800.824
659.843
647.673
609.409
582.146
640.599
505.149
635.9
558.231
601.652
591.843
482.363
533.225
554.182
543.547
574.278
579.868
519.483
527.833
557.307
456.18
584.541
479.805
494.157
499.671
555.721
530.06
594.324
506.319
551
523.275
477.167
502.023
483.377
496.387
496.567
597.177
563.201
533.544
551.423
521.464
505.381
471.952
508.001
493.402
485.728
568.559
524.696
539.735
444.413
571.83
518.579
531.246
570.475
445.537
532.599
533.78
517.385
529.81
578.962
447.55
457.896
493.238
413.818
504.908
418.378
436.299
521.743
430.366
522.974
492.007
501.607
531.652
559.537
497.539
432.08
435.735
583.745
449.824
419.837
414.389
586.261
512.607
560.263
537.777
535.165
578.097
528.752
292.083
470.105
434.344
842.527
843.035
839.201
766.668
749.889
746.607
702.103
739.66
757.229
803.321
805.88
805.578
740.231
758.263
792.409
805.607
870.801
846.478
863.554
843.72
847.801
865.033
869.01
869.338
843.577
844.444
864.274
846.385
864.809
866.686
843.325
839.725
858.58
822.786
859.467
826.472
841.606
820.369
793.47
785.378
793.178
804.232
815.671
802.078
791.598
776.012
779.981
742.446
792.695
775.162
775.781
796.771
741.854
790.679
786.439
779.894
778.179
808.593
854.842
810.207
802.146
772.31
830.097
834.496
820.178
864.529
786.544
874.644
830.043
852.124
826.908
882.015
758.323
813.313
643.954
707.417
748.809
828.788
643.899
772.563
718.803
866.333
666.919
844.402
649.406
794.263
844.922
869.446
815.097
794.698
863.346
864.233
785.824
863.993
694.691
773.495
808.191
863.967
826.771
728.653
575.289
427.4
439.391
471.686
571.757
706.335
687.439
455.347
330.863
417.488
331.115
356.598
315.971
358.066
295.562
473.385
352.207
287.929
287.982
603.835
845.833
564.615
823.111
360.4
327.576
354.223
329.391
527.082
694.142
425.458
482.352
346.957
331.206
404.178
480.628
374.273
428.25
374.011
407.907
376.15
401.422
448.067
374.032
489.089
424.789
631.408
331.076
387.034
437.264
614.62
332.729
386.741
526.681
333.85
375.265
366.129
416.221
337.639
366.028
388.614
340.884
360.929
353.729
381.285
343.787
360.912
380.652
339.349
332.96
353.483
364.147
314.052
289.148
428.719
376.467
392.011
423.385
377.628
856.995
780.414
681.711
602.133
775.777
678.422
862.106
837.108
590.27
719.974
627.504
757.604
662.13
795.994
327.538
322.58
351.118
360.635
323.013
351.779
327.022
327.842
358.904
322.545
349.072
323.054
351.215
327.825
655.251
664.029
576.465
487.471
731.116
601.42
523.261
585.848
453.01
498.629
443.998
544.563
478.486
531.17
327.048
321.381
345.24
339.533
327.438
320.234
341.572
458.359
462.682
417.791
388.856
489.596
434.648
398.525
435.185
378.912
396.91
378.949
413.029
385.685
418.541
401.543
386.236
377.6
375.155
407.723
380.621
379.812
398.989
375.6
386.254
379.253
381.528
380.48
399.267
454.67
427.967
414.674
490.351
412.743
485.584
447.323
419.869
390.839
377.927
382.152
394.775
410.041
389.499
530.844
387.236
455.775
530.385
387.983
424.853
424.052
467.299
369.942
397.046
435.948
360.728
380.23
394.859
376.019
345.899
351.466
366.883
345.63
355.514
356.687
366.857
348.619
358.734
366.316
346.496
355.962
358.402
483.25
423.89
486.995
427.891
436.398
425.032
473.757
327.817
296.221
288.035
342.826
298.381
289.841
288.047
432.758
397.018
399.125
293.528
450.388
498.751
379.43
520.722
385.583
420.454
409.996
379.57
390.412
348.565
410.062
353.436
368.869
361.102
350.729
363.982
348.649
363.02
347.236
356.707
358.244
356.644
358.842
329.819
363.067
339.505
349.149
337.251
395.468
376.215
377.213
396.547
401.564
395.263
373.778
348.212
307.463
320.344
331.156
349.326
304.414
316.24
350.36
298.056
306.614
327.907
344.379
291.904
295.225
331.836
288.956
289.554
296.621
302.161
287.98
287.985
289.174
287.943
287.93
288.679
288.077
287.928
287.929
287.939
287.932
287.926
287.926
374.414
411.798
401.337
410.927
408.79
397.519
425.555
416.12
401.042
412.014
411.783
420.083
477.432
554.408
565.454
588.398
453.375
390.377
386.788
287.93
392.035
401.525
376
447.645
387.088
371.639
573.829
442.517
387
372.479
413.6
377.049
372.703
423.641
395.099
370.145
370.312
395.492
366.575
352.03
387.411
389.819
362.274
292.602
332.076
321.583
288.957
354.793
290.346
288.428
287.966
291.505
410.89
395.35
341.556
338.871
371.31
309.189
308.468
289.114
287.965
287.928
287.926
287.926
287.926
287.926
287.926
287.926
287.926
287.926
287.926
287.926
287.926
287.927
287.926
287.926
287.926
360.355
349.526
320.958
288.113
335.026
287.936
287.926
287.926
287.926
287.926
766.117
921.586
870.901
906.487
854.994
838.777
896.125
821.253
915.422
287.926
287.926
287.926
287.926
287.926
287.926
287.926
287.926
287.926
287.926
287.926
288.434
287.928
287.926
287.926
287.926
697.747
433.173
429.606
428.758
449.089
432.827
443.77
417.993
417.687
393.307
288.002
879.695
882.416
936.613
869.988
762.199
687.904
583.275
529.263
496.678
435.007
698.472
505.992
674.177
617.509
621.4
677.835
702.298
636.933
631.366
743.544
675.713
723.591
595.161
632.79
559.628
670.789
721.725
701.767
690.927
703.491
691.033
667.339
658.301
687.769
691.485
654.031
623.316
642.944
598.051
570.672
645.013
618.778
575.286
610.014
557.248
605.363
561.218
514.35
561.876
535
537.309
538.427
538.27
512.877
501.121
522.183
524.595
500.611
761.002
734.104
563.527
516.883
573.37
816.617
751.526
816.698
806.898
599.028
680.336
646.716
522.811
603.858
515.774
757.559
781.596
739.41
760.989
781.664
738.962
758.1
679.973
757.373
705.657
698.458
720.515
720.383
668.548
520.399
580.805
534.739
541.824
541.604
558.601
513.585
488.764
531.73
489.257
511.888
495.162
526.971
482.403
492.627
545.29
777.387
801.332
797.693
817.274
801.623
797.389
777.877
730.455
720.72
720.022
731.212
751.927
787.87
786.939
753.006
753.557
758.486
773.813
725.885
779.637
735.569
742.98
773.91
817.825
798.274
787.824
801.172
795.073
764.609
725.417
706.314
715.706
714.487
745.416
767.829
780.753
732.036
702.107
784.591
768.914
775.961
743.269
748.667
730.317
653.914
686.887
692.322
651.092
664.792
742.673
706.534
698.408
626.608
647.839
617.005
569.663
667.33
618.015
577.008
646.109
727.034
645.623
623.729
695.815
675.628
594.031
602.5
554.217
601.363
555.21
610.673
586.871
639.846
561.671
535.02
609.359
586.608
625.451
557.13
586.437
563.536
502.401
520.772
522.011
500.684
507.459
550.403
527.57
528.774
508.903
529.986
538.013
495.495
545.99
502.314
501.661
522.476
612.478
563.146
539.105
572.534
549.412
513.946
491.838
483.009
489.82
484.798
496.662
508.747
516.775
489.634
471.028
476.599
478.353
468.276
484.417
509.646
534.195
480.705
525.712
476.725
490.611
464.693
467.17
459.699
475.456
463.624
462.289
395.99
410.547
475.598
481.441
510.242
743.725
762.886
749.593
742.047
725.428
773.006
777.873
761.252
693.302
650.266
600.905
596.152
669.414
797.428
767.663
833.382
783.47
837.203
834.282
746.221
723.119
700.064
863.759
908.87
909.882
862.748
861.088
905.497
907.598
856.715
836.22
898.428
849.296
885.78
816.698
868.169
860.694
839.389
865.907
817.852
835.085
867.299
819.235
838.12
839.31
836.214
864.148
821.983
866.225
820.569
838.752
821.49
860.692
816.766
815.073
835.291
848.214
793.014
795.406
779.825
805.859
711.753
825.787
752.165
769.806
742.921
794.441
682.105
709.321
752.325
790.643
663.607
740.041
702.227
800.007
646.977
792.658
652.964
742.293
423.158
288.632
291.55
287.927
287.929
443.193
357.464
447.552
351.327
409.474
316.037
291.147
287.927
288.257
287.926
288.232
287.927
287.964
730.727
733.337
934.563
543.715
322.146
349.392
295.652
288.03
287.928
735.924
733.952
863.741
519.076
323.805
342.212
287.981
287.966
287.927
584.381
584.392
648.496
447.699
323.454
308.667
287.93
287.927
287.926
523.992
515.877
486.901
420.642
312.537
293.191
288.049
287.926
287.926
547.608
538.208
479.899
356.986
358.582
382.676
287.935
288.073
434.54
537.066
347.105
458.797
287.945
289.731
727.874
755.444
733.293
757.121
731.706
764.184
735.618
742.668
771.308
748.004
740.006
739.754
745.802
920.951
735.511
349.773
404.946
340.928
542.549
350.731
405.175
344.49
310.336
330.886
309.71
323.6
307.605
332.868
301.372
744.181
706.669
740.477
757.66
678.675
636.871
672.138
621.248
689.148
756.335
615.713
349.768
400.178
346.033
481.558
345.502
393.449
350.844
305.644
333.733
297.341
323.786
297.497
332.464
291.116
651.878
630.43
619.082
601.612
570.57
553.093
543.549
521.203
527.316
517.121
544.786
566.589
486.39
343.892
394.717
350.66
421.099
338.667
394.546
334.749
294.722
329.377
288.895
317.847
289.353
305.939
288.109
621.1
617.721
632.435
641.589
529.899
490.221
516.636
507.879
456.607
510.965
499.342
505.808
466.279
477.957
440.051
336.534
383.228
320.963
412.076
337.412
326.025
290.027
288.733
296.717
287.983
321.256
312.658
288.931
288.812
367.531
451.146
410.298
474.945
461.209
420.402
439.767
374.616
403.618
392.512
458.592
477.461
437.504
444.43
961.504
431.066
950.897
422.81
746.178
419.5
541.799
332.582
472.947
329.093
822.862
824.785
904.795
983.932
844.452
964.404
907.697
974.91
827.887
822.003
708.92
886.619
833.369
763.062
868.895
797.156
794.992
665.453
638.143
596.296
643.577
596.155
575.998
631.868
572.658
557.619
507.191
561.507
545.955
520.168
472.049
471.206
489.226
492.006
470.638
446.977
730.291
734.124
733.768
735.431
735.469
734.207
730.293
932.529
899.047
901.753
882.665
847.939
851.091
883.791
316.975
313.4
328.329
322.662
313.468
328.83
316.855
676.524
724.699
718.362
708.946
708.526
696.608
687.147
861.778
813.981
817.76
770.502
806.524
817.309
762.39
316.687
313.188
330.643
323.896
316.991
312.906
331.139
516.941
569.22
551.137
558.293
542.561
544.096
523.957
604.414
642.67
596.48
570.296
592.904
614.164
546.751
310.06
309.461
331.07
322.68
312.907
306.915
330.139
468.69
509.032
479.923
505.443
479.033
500.88
466.874
489.102
503.315
508.361
452.037
447.553
472.179
429.863
291.963
295.605
316.085
306.347
295.137
292.918
306.597
492.093
584.332
499.159
545.556
360.908
576.126
476.473
555.787
359.151
478.661
575.827
610.648
474.59
530.679
427.285
356.62
377.672
425.031
375.511
425.476
428.577
288.027
290.095
418.245
390.383
290.011
408.028
288.389
385.003
290.061
311.096
411.295
397.244
289.199
289.354
745.012
732.099
736.98
734.696
735.88
737.577
743.812
768.678
735.181
737.365
735.07
687.719
691.267
733.93
759.853
742.786
742.181
760.298
745.857
738.212
747.127
736.297
740.497
737.944
745.64
739.681
770.44
740.318
735.165
689.402
692.448
732.513
758.195
733.109
740.155
752.144
729.495
739.238
731.725
747.976
739.681
731.502
729.544
725.72
733.136
732.351
726.421
719.711
716.909
716.145
720.463
728.886
737.841
735.161
731.195
736.29
734.046
723.644
727.291
745.872
735.342
720.139
739.205
728.688
720.225
722.711
721.132
729.56
714.49
716.191
704.938
712.836
708.075
744.88
865.062
862.224
814.782
681.499
681.963
816.613
898.072
899.119
887.348
871.934
833.5
847.179
851.297
849.541
717.378
826.842
804.795
664.115
675.95
786.327
407.324
424.742
352.823
350.555
425.772
353.832
405.724
407.402
350.864
421.717
355.318
424.692
354.684
406.542
312.81
311.809
311.1
309.876
311.476
310.561
313.173
317.089
323.178
313.359
330.083
313.454
329.457
317.111
312.117
309.017
309.743
307.982
310.81
309.549
311.046
709.771
748.89
725.602
719.567
737.122
731.91
696.305
731.885
723.956
704
690.134
675.526
720.539
642.908
701.552
716.015
735.95
681.104
663.814
679.927
653.55
600.335
694.719
649.156
615.74
658.202
609.922
615.698
642.88
539.584
593.283
593.819
651.14
578.757
630.313
599.683
663.036
703.621
697.19
669.186
629.131
666.331
606.093
590.141
652.289
639.307
580.533
613.448
568.313
618.995
563.506
791.864
653.763
747.425
717.111
643.512
756.607
615.788
759.44
699.495
698.046
717.097
646.894
705.986
663.711
578.882
698.615
650.893
672.138
553.403
584.663
626.809
398.32
415.606
355.35
348.378
403.075
407.038
355.335
393.211
346.93
388.074
355.662
397.571
355.464
388.386
307.604
308.275
305.847
303.218
309.586
306.371
303.175
316.053
323.883
311.248
331.421
312.333
331.417
314.845
305.062
300.43
301.41
296.998
304.062
300.131
302.101
549.293
620.427
561.147
576.334
577.055
597.366
533.251
541.854
565.701
526.692
525.212
493.531
554.145
457.969
528.157
538.013
558.327
508.874
529.27
558.152
567.39
498.743
581.023
513.727
513.229
504.977
497.845
476.627
504.38
411.772
431.519
487.935
506.531
474.203
489.034
489.449
500.187
529.283
525.419
502.327
500.673
540.462
517.719
492.566
528.275
505.913
489.205
499.802
524.67
515.749
492.903
524.331
500.42
490.554
484.504
471.631
484.527
473.776
487.229
481.007
488.563
477.857
513.901
607.145
568.667
545.332
522.978
584.121
493.83
558.589
527.712
534.459
532.05
474.201
507.583
499.215
462.914
535.285
506.688
510.893
443.853
466.925
481.382
379.749
378.625
355.514
342.004
383.856
369.541
354.693
376.581
340.166
358.367
352.475
362.305
353.634
375.129
295.46
298.524
294.133
292.361
298.824
295.577
291.816
305.969
321.032
299.706
323.741
303.653
328.141
300.465
292.443
290.566
290.716
289.053
292.829
290.134
290.376
481.676
553.672
484.974
516.807
497.821
539.151
470.967
476.149
449.494
460.408
456.972
396.152
472.732
383.846
458.03
460.328
474.096
445.12
468.126
507.388
527.806
458.152
527.986
459.437
467.183
470.774
466.316
446.801
443.553
387.753
377.929
445.913
443.178
435.989
430.943
446.78
473.777
508.605
486.139
505.253
482.614
501.719
478.363
450.914
459.683
463.492
445.772
458.384
473.898
469.091
464.492
459.688
498.052
496.709
456.663
494.817
456.689
459.854
465.535
501.602
499.48
473.387
496.721
471.214
466.488
438.13
436.736
431.706
443.068
446.814
459.382
454.039
451.488
435.581
445.253
483.385
440.558
427.76
457.479
420.882
480.157
470.845
477.597
440.68
427.839
423.687
437.368
449.722
455.202
433.951
430.396
431.482
422.634
426.995
373.662
357.544
348.877
332.534
375.359
359.233
340.323
367.427
329.424
368.601
326.008
361.631
329.28
361.473
288.894
289.518
288.518
288.84
289.214
289.244
288.566
292.601
303.499
316.764
311.402
294.526
300.311
309.243
291.609
292.54
314.85
306.915
293.022
291.333
308.532
445.306
394.269
386.416
432.95
405.393
450.289
435.081
439.819
399.824
419.575
426.828
410.496
431.83
434.038
432.477
362.777
389.62
444.953
380.308
433.124
440.546
422.132
392.455
397.935
420.479
387.727
425.164
415.83
423.294
390.209
394.664
410.137
387.229
426.32
413.006
307.802
315.175
287.934
306.057
288.079
287.931
298.967
287.933
287.926
289.792
288.044
287.926
389.068
376.286
288.031
455.773
289.298
317.311
306.864
317.115
316.145
301.288
328.837
315.552
326.166
325.788
290.627
335.728
291.272
325.076
288.485
334.686
324.397
288.038
323.366
310.043
321.476
288.746
300.9
390.076
485.916
435.466
314.469
310.277
309.897
307.662
310.363
309.716
314.338
314.508
310.045
307.79
304.843
314.556
309.902
306.599
309.987
308.321
299.948
296.347
312.546
306.417
296.524
292.062
295.686
289.407
289.379
295.19
293.092
288.986
453.976
406.671
399.202
458.287
406.986
472.834
448.169
348.599
306.778
295.76
374.1
363.205
288.851
291.35
314.551
307.353
310.235
308.709
310.37
309.335
314.56
314.316
303.248
309.305
302.861
309.725
305.027
313.771
326.82
333.463
318.624
337.292
319.337
338.901
326.74
326.41
318.113
336.563
324.462
326.772
317.591
336.767
305.744
293.669
299.635
290.767
303.442
293.249
300.349
324.407
324.454
314.002
336.229
316.356
337.316
319.969
304.582
309.938
333.02
321.876
312.979
304.952
326.68
292.02
292.314
308.338
304.713
293.58
291.189
303.025
298.785
319.869
310.073
313.252
301.791
318.301
303.748
426.526
394.796
384.753
405.63
397.217
428.272
398.156
428.086
376.88
425.851
438.954
443.768
465.042
453.753
428.184
365.912
421.575
433.822
426.718
457.507
452.527
449.05
451.961
384.506
374.686
442.562
436.789
467.214
545.516
643.485
644.205
479.306
551.802
553.316
477.42
347.697
368.172
368.87
343.936
306.855
345.618
301.409
288.063
288.005
294.329
332.903
293.547
332.269
291.546
500.388
603.638
576.122
453.611
530.395
465.349
512.171
369.74
329.825
381.398
346.053
298.206
343.468
290.418
291.876
287.938
288.959
331.484
290.578
322.988
288.541
432.971
493.091
468.9
406.897
452.049
417.688
432.84
365.65
289.463
376.937
339.912
289.2
310.508
288.007
287.97
287.936
288.192
316.568
288.236
293.245
287.946
415.974
412.974
421.087
398.272
397.499
394.472
401.066
287.931
288.375
340.931
298.054
287.951
288.212
287.928
287.928
287.928
287.939
289.902
287.933
288.06
287.928
480.217
459.814
464.053
455.823
449.268
444.925
471.496
378.65
345.13
400.58
344.521
396.63
362.896
362.961
416.184
457.723
457.841
489.707
473.081
432.209
428.946
494.518
434.778
435.971
498.048
472.202
431.4
431.214
288.247
446.537
317.92
460.986
432.098
357.895
293.839
414.29
443.347
301.808
458.721
433.976
394.787
297.754
638.411
534.511
625.578
478.213
543.889
550.706
474.352
464.022
547.122
519.261
441.291
471.819
491.967
429.284
413.972
447.355
430.507
398.373
402.855
415.382
393.653
431.502
427.577
417.558
399.007
419.239
411.618
395.516
442.309
443.534
446.723
446.885
436.371
434.385
440.012
430.804
599.035
595.944
792.813
448.781
780.542
450.479
410.054
562.283
512.89
708.667
441.346
610.245
431.14
418.925
471.084
439.488
533.654
429.804
483.068
430.854
424.326
403.661
434.862
460.169
418.005
455.595
295.368
398.902
476.232
456.407
480.524
454.527
418.25
293.737
287.941
288.825
418.947
415.984
288.789
288.672
287.936
480.491
490.407
428.855
457.198
475.479
488.109
517.873
397.716
428.968
422.116
385.903
416.035
368.054
370.241
405.756
348.966
404.958
365.47
410.612
363.335
362.384
352.009
337.09
369.391
374.628
342.02
391.886
359.086
288.307
288.149
314.032
326.282
299.012
325.602
296.821
310.847
287.955
303.944
323.514
292.9
317.269
289.822
288.059
287.942
288.709
304.086
288.411
291.75
287.953
287.928
287.929
287.949
291.182
287.935
288.291
287.928
343.677
330.816
362.048
353.783
324.94
366.909
335.889
408.917
407.828
378.307
348.502
320.471
354.53
321.138
359.478
329.608
324.206
288.568
729.452
752.024
714.421
747.796
851.947
463.36
742.765
754.816
728.029
757.249
766.276
745.735
731.458
771.476
787.637
751.845
740.224
756.294
677.798
724.448
720.908
708.167
650.572
734.883
702.378
612.429
722.774
731.772
763.222
723.492
603.217
760.713
588.575
744.217
799.117
509.147
790.536
799.47
826.393
833.569
818.842
782.879
828.408
764.884
733.312
723.111
717.753
697.764
742.369
773.823
686.419
662.179
739.805
734.065
736.86
756.356
737.361
741.349
752
760.049
753.654
758.497
733.135
734.265
739.877
727.923
747.19
740.551
749.674
762.392
756.584
746.177
774.119
765.938
779.441
776.507
740.473
756.904
746.45
754.118
768.558
763.033
760.478
788.817
767.825
786.276
768.201
780.623
782.843
773.94
761.309
764.897
764.609
758.022
758.614
732.41
750.472
773.584
729.222
751.535
751.284
727.965
748.227
718.598
740.321
702.319
732.602
713.729
729.874
729.804
721.713
731.079
714.091
735.664
709.292
700.835
697.034
687.045
687.22
679.562
694.482
667.865
725.951
748.036
736.644
734.163
717.533
711.607
743.059
709.401
685.987
689.91
688.832
664.626
664.315
695.389
748.537
780.322
764.277
769.433
726.386
756.509
735.715
743.349
696.444
703.068
723.065
665.86
707.424
665.844
786.162
705.927
716.466
737.681
673.423
665.779
757.256
794.683
794.003
797.966
804.137
813.999
807.646
808.943
811.706
801.182
753.973
775.15
745.937
723.964
724.518
713.877
728.798
711.477
714.93
762.181
722.721
731.559
794.348
731.72
733.455
797.463
712.059
739.409
739.822
730.023
729.438
732.599
735.249
734.902
735.245
745.263
737.089
750.491
750.711
740.162
740.182
757.197
769.151
760.643
759.847
741.442
769.343
757.567
753.146
750.034
711.922
708.855
694.615
735.756
726.568
724.275
696.633
689.271
669.516
632.873
704.931
680.068
654.698
697.358
621.44
679.012
641.078
678.16
646.851
701.602
718.458
680.19
635.924
593.836
709.464
680.126
630.248
721.843
586.843
682.354
627.016
678.291
625.255
515.113
539.342
288.128
287.928
287.926
288.159
287.928
287.93
287.926
287.928
288.321
287.927
288.168
287.929
287.936
287.927
287.927
287.963
291.292
288.616
383.347
288.042
287.927
289.094
381.942
288.028
287.93
392.198
288.278
287.928
287.928
288.276
287.928
288.081
287.928
287.973
287.927
288.631
326.336
288.001
287.93
308.201
288.218
287.936
287.926
287.926
287.926
287.927
287.927
287.926
287.926
287.926
287.927
287.926
287.926
287.926
287.926
287.926
287.926
287.926
287.926
287.926
287.926
287.926
287.926
287.926
287.926
287.926
287.926
287.926
287.926
287.926
287.926
287.926
287.926
287.926
287.926
287.926
287.926
287.926
287.926
287.926
287.926
287.926
287.926
287.926
287.926
287.926
287.926
287.926
287.926
287.926
287.926
287.926
287.926
287.926
287.926
287.926
287.926
287.926
287.926
287.926
287.926
287.926
287.926
287.926
287.926
432.515
752.717
434.551
790.251
777.083
795.181
756.618
599.882
591.646
699.676
608.476
679.078
708.013
698.735
739.284
721.48
771.535
754.177
710.675
775.061
818.889
794.031
777.871
753.258
742.491
794.326
809.079
813.536
688.542
699.856
474.762
433.656
454.476
495.7
439.889
486.795
429.926
729.326
796.689
800.568
790.224
766.166
756.95
772.331
763.666
735.348
705.302
684.048
730.601
670.738
740.837
668.579
722.829
689.708
631.559
623.949
723.656
705.546
644.953
753.111
495.01
639.146
715.329
713.915
677.916
661.643
432.24
676.548
561.845
771.153
872.209
867.621
848.503
746.927
857.946
863.202
750.794
886.925
872.387
912.306
912.672
908.192
859.099
900.096
888.446
875.595
836.682
815.482
863.71
823.578
855.357
800.587
817.383
858.806
814.287
791.719
851.611
792.771
853.858
836.966
871.527
824.01
795.45
874.999
805.087
796.894
832.519
832.854
785.731
786.549
820.837
819.941
774.271
769.999
801.406
799.824
810.381
776.928
810.312
792.244
828.06
819.587
783.471
779.822
814.688
818.291
744.476
767.553
766.82
759.717
760.719
739.082
740.713
757.976
729.393
751.442
787.51
779.684
759.609
775.864
563.278
416.381
505.33
580.997
574.236
638.146
501.066
655.168
499.191
575.607
288.07
287.98
287.927
287.926
840.045
833.38
837.575
835.875
846.081
851.975
843.398
855.241
846.902
855.35
858.653
843.32
818.67
782.264
814.932
786.292
742.764
755.417
759.788
737.709
736.002
727.14
728.825
737.858
761.528
731.628
747.527
737.075
768.018
725.186
734.005
776.868
287.926
287.926
287.926
287.926
287.926
287.926
287.926
287.926
287.926
287.926
287.926
287.926
287.926
287.926
287.926
287.926
287.926
693.684
720.225
642.124
348.364
289.085
291.605
288.27
288.028
287.935
288.26
287.926
287.926
287.926
287.926
287.926
287.926
287.926
287.926
287.926
755.83
741.408
738.257
757.991
739.483
755.495
739.974
747.089
737.738
751.518
740.21
755.051
743.158
742.077
740.518
739.494
705.361
713.432
746.658
741.438
771.87
732.453
711.848
734.565
725.465
735.916
726.203
704.292
777.163
778.334
773.98
795.994
796.999
806.511
805.253
729.965
731.589
731.903
727.731
730.409
729.262
732.78
734.249
741.667
734.255
731.766
736.847
736.508
745.511
723.665
686.2
695.098
716.345
718.092
688.512
680.508
773.738
778.308
772.103
797.303
797.021
806.978
806.439
756.149
757.343
756.528
737.9
739.72
740.585
742.219
740.563
745.195
756.121
744.288
744.027
756.297
755.809
789.802
776.456
762.598
734.933
789.144
762.481
804.648
738.057
728.855
745.592
726.816
704.509
737.958
715.485
728.778
759.622
727.435
689.821
644.441
717.923
673.466
756.67
740.527
758.206
755.688
743.624
745.125
743.581
730.774
729.195
726.888
731.209
732.511
731.825
734.056
786.644
747.271
705.888
742.46
703.175
741.775
776.26
757.668
747.118
746.095
734.931
716.547
740.074
720.659
711.097
704.574
670.426
632.48
675.23
677.438
633.215
715.922
718.028
718.954
689.571
683.109
700.923
695.703
666.615
703.669
689.326
590.116
610.957
640.839
620.361
739.073
740.703
735.404
736.28
743.88
742.484
736.652
684.103
725.648
682.992
723.215
718.026
677.613
678.1
872.591
876.252
771.923
657.267
929.087
931.121
880.895
924.152
815.925
860.265
773.51
697.353
711.48
683.725
885.015
930.684
879.468
931.676
933.359
883.311
881.145
889.604
931.054
932.2
895.797
932.851
887.823
897.075
885.217
925.295
898.26
901.323
899.141
902.136
884.49
853.197
861.825
815.939
813.076
862.111
852.445
814.334
752.483
773.577
776.809
740
779.106
740.787
748.749
737.928
715.182
701.958
724.839
717.234
731.905
733.246
740.538
691.293
723.783
666.655
736.995
681.255
721.079
619.702
565.606
735.495
646.129
649.197
684.644
670.329
707.845
725.156
974.924
566.861
475.735
367.272
287.926
287.926
287.926
1010.01
969.496
592.673
446.57
393.803
925.295
1006.7
917.048
836.409
839.222
571.21
499.99
492.977
413.348
407.407
429.413
397.745
333.269
373.953
402.198
803.697
761.437
782.566
741.81
570.506
484.375
502.313
417.49
405.66
398.549
418.163
401.087
405.119
369.913
403.567
301.001
289.457
302.081
385.459
360.301
319.462
287.927
287.926
287.926
287.926
287.926
370.426
287.928
287.926
290.774
287.926
287.926
287.932
287.926
287.926
288.342
287.926
287.926
422.81
287.927
287.926
287.99
287.926
287.926
287.926
287.926
287.926
287.926
287.926
287.926
287.926
287.926
287.926
287.926
287.926
287.926
287.926
287.926
287.926
287.926
287.927
287.926
287.926
287.926
287.926
287.926
287.926
287.926
287.926
287.926
287.926
287.926
287.926
287.926
287.926
287.926
287.926
287.926
287.926
287.926
287.926
287.926
287.926
287.926
287.926
287.926
287.926
287.926
287.926
287.926
287.926
287.926
287.926
287.926
287.926
287.926
287.926
287.926
287.926
287.926
287.926
287.926
287.926
287.926
397.608
287.985
288.265
287.926
287.926
287.926
287.926
287.926
287.926
345.572
287.93
287.926
429.935
287.93
287.926
434.791
288.76
287.926
287.926
287.926
287.926
287.926
287.926
287.926
287.926
287.926
287.926
287.952
287.926
287.926
422.252
287.927
287.926
287.946
287.926
287.926
287.926
287.926
287.926
287.926
287.926
287.926
287.926
287.926
287.926
287.926
287.926
287.926
287.926
287.926
287.926
287.928
287.926
287.926
287.926
287.926
287.926
287.926
287.926
287.926
287.926
287.926
287.926
287.926
287.926
287.926
287.926
287.926
287.926
287.926
287.926
287.926
287.926
287.926
287.926
813.345
828.749
829.626
835.289
835.669
848.666
849.919
649.14
644.918
629.356
578.582
578.476
599.672
599.738
716.865
729.973
722.187
681.955
683.541
696.438
700.041
803.606
785.153
759.107
714.036
727.211
775.161
821.935
735.037
720.21
739.572
751.285
743.981
744.488
729.08
674.993
641.283
682.021
718.113
688.897
695.17
657.734
812.143
830.331
830.544
835.399
850.445
832.983
850.573
679.943
637.65
641.393
682.017
571.249
578.254
608.313
638.192
587.94
609.276
668.277
657.308
628.01
607.94
761.243
689.493
699.445
748.681
733.948
688.88
681.768
623.689
620.67
559.365
566.521
565.995
615.897
558.259
792.24
824.162
799.822
822.045
844.766
823.907
792.47
733.827
756.861
742.548
693.587
712.799
687.349
705.627
707.893
759.12
719.825
790.389
759.393
747.166
703.93
428.283
430.893
287.926
287.926
287.926
287.926
288.143
287.928
287.926
287.926
287.926
287.926
287.926
287.926
287.926
287.926
287.926
287.926
287.926
287.926
287.926
287.926
287.926
287.926
287.926
287.926
287.926
287.926
287.926
287.926
287.926
287.926
287.926
287.926
936.261
929.901
925.113
922.988
903.112
936.654
897.548
937.259
937.614
898.92
901.483
901.345
935.339
929.424
895.12
935.386
897.828
897.364
956.008
899.303
775.82
678.95
958.649
658.851
948.258
658.552
727.799
964.963
926.179
953.836
829.75
984.11
918.534
929.748
637.625
831.412
539.959
784.842
942.287
850.571
825.366
613.129
810.494
621.666
804.643
520.293
777.596
491.11
541.964
727.125
551.736
756.659
502.111
563.279
484.226
773.183
496.416
437.158
449.089
947.165
960.134
949.472
959.345
960.748
950.736
945.971
824.59
637.35
836.852
663.013
641.642
839.89
821.139
941.949
955.166
948.778
930.731
956.464
945.523
926.609
822.61
664.736
637.887
825.159
643.464
837.754
810.209
857.062
929.515
903.112
901.105
897.958
900.663
863.059
736.361
618.645
795.36
604.76
780.185
588.726
751.208
810.663
865.563
833.784
772.976
866.411
816.939
767.508
688.013
569.43
532.436
655.035
557.373
701.307
643.901
708.014
808.334
736.669
787.51
732.325
792.37
710.385
587.649
517.736
618.1
508.255
609.788
510.945
592.45
694.016
779.702
787.422
681.261
787.505
693.342
684.6
577.488
499.739
500.618
569.47