/*--------------------------------*- C++ -*----------------------------------*\
  =========                 |
  \\      /  F ield         | OpenFOAM: The Open Source CFD Toolbox
   \\    /   O peration     | Website:  https://openfoam.org
    \\  /    A nd           | Version:  9
     \\/     M anipulation  |
\*---------------------------------------------------------------------------*/
FoamFile
{
    format      ascii;
    class       volScalarField;
    location    "0.003";
    object      overpressureMax;
}
// * * * * * * * * * * * * * * * * * * * * * * * * * * * * * * * * * * * * * //

dimensions      [1 -1 -2 0 0 0 0];

internalField   nonuniform List<scalar> 
25707
(
227286
281624
250156
146023
164753
229243
150010
175792
194231
185843
214418
192529
285519
294550
193484
204586
300435
329727
220450
238287
346783
371835
222336
264983
283078
236418
418595
432357
261268
287825
421045
432150
264240
416526
290784
430134
274261
430982
268729
414865
418689
431693
282356
309197
415314
435430
293534
420436
319249
437522
316224
436667
305389
422397
447360
447022
330100
375741
429487
465249
355977
463417
396591
415638
385202
464783
387232
438526
302869
264162
261562
236739
279303
310074
180810
307495
181085
256997
628377
303688
530573
302011
394132
246067
319324
152315
268896
240006
496245
418345
596541
495525
390769
389717
304498
384126
491697
346467
437465
425345
335096
372530
266458
354776
384529
299299
344267
249743
272684
304018
173911
257125
387886
342379
214737
221316
294217
161850
202880
210320
116542
184462
324687
406533
229136
302745
404856
228537
326219
312347
393719
225368
295385
316095
385925
224369
257031
330156
203091
223035
275932
301659
189799
172837
212413
141714
135049
192875
187996
126993
286541
167157
278156
231965
219409
211328
192058
227799
197417
579427
898792
504837
492471
894013
502463
580158
579648
492611
888245
499594
885714
500403
582578
321017
303139
398226
225440
401163
225841
318066
574461
888439
496221
479831
582789
872584
489621
553363
457371
776777
447490
834165
473413
520229
304186
283067
354274
213456
372709
220612
291806
428561
702952
411759
338630
477485
620811
370220
378152
292228
463456
285495
538846
326891
330151
236213
198232
240519
157838
270951
174327
214312
503702
475517
419061
378273
534345
457134
396251
704522
676735
811527
592754
449641
362832
389865
310771
428608
357007
382704
630222
476912
534012
558929
253791
399928
248730
189307
287751
353219
218646
232181
172390
294846
183734
322020
196297
220286
155931
122202
156692
112403
167990
115964
145688
291965
179401
187871
327370
200396
244098
225438
209424
189987
213257
213906
183650
209483
168250
206664
182532
239081
184251
185585
209315
185744
470.923
267607
195136
539095
513931
482442
301164
290096
316123
364551
345113
320537
351978
330950
272034
407696
334441
323910
293931
427930
396380
279911
533447
385681
284083
438526
417054
529453
361743
299131
372253
292482
405237
390991
354269
294426
430318
395724
353051
276244
389099
363165
357956
268928
355291
261094
387806
385642
360285
278808
300743
386736
362357
290545
385276
309931
362205
310793
363228
301771
384551
398506
363449
319717
327525
388281
367535
334891
416427
342639
377333
375150
376210
360538
418628
508284
450838
445455
350079
529714
433509
427750
483453
346573
388839
383968
413683
408035
452769
264615
315120
325801
292043
320037
277017
280397
336444
347861
302885
403256
307519
358893
314678
320187
225565
227169
271088
320964
298210
285416
114890
58166
114407
51261.7
112456
13452.8
94036.8
1797.33
145788
64894.4
1.22499
6.53982
166862
235504
166170
232393
31365.2
57295.8
32354.2
56931
165998
224774
163521
211191
32915.9
56780.4
159624
232867
137340
202644
128247
170950
112424
151564
117742
98758.6
181900
159550
189650
71746.3
127824
114438
187153
71161.4
126065
181929
70613.2
123920
114058
173672
78586
121695
163156
76829
100915
99951
147560
73295.7
80849.6
130174
51968
14490.3
71739.6
64702.8
9008.72
196.902
184153
106908
132167
159097
93472.6
260899
187011
207908
166466
186708
206957
262099
257613
166146
187684
201638
186412
204494
254420
39357.9
22699.6
54439.6
31307.1
22651.3
54418.7
39403.6
39514.7
31676.9
23350.6
54848.4
22931.4
54529.2
39828.6
249039
188826
198745
165910
251613
189224
196326
244637
165428
185449
189627
188517
193745
237152
40330.9
23737.2
55036.6
33406.4
40115.6
24024.2
55134.1
213587
179376
183315
153592
226818
170488
174827
198210
145935
147647
153287
159644
164532
181802
149717
135440
141866
119283
165427
123581
130776
136729
113826
113316
119011
115641
122258
130377
142944
118288
105158
157256
101007
162268
140595
127772
102707
99828.2
109698
99380.7
125566
114798
157615
95611.2
114467
156897
95486.3
122517
122843
151711
94170.1
114449
150062
93614.5
118882
119845
142387
90678.8
109531
137022
88495.8
111341
114482
114658
78010.1
88117.1
106854
67796.2
88087.5
97032.9
161147
129291
162056
144314
144874
149627
165489
10034.4
2249.92
17.3123
24509.8
1363.66
335.917
15.8732
179186
117452
128803
718.821
114287
153564
94665.4
155314
94981.5
121625
120810
114528
146144
92119.3
148489
93004.3
117907
116575
105229
122641
82007.4
130265
85553
107240
102364
83405.7
85457.6
23092.8
100596
44455.3
61650.5
28873
120128
110664
107971
128503
128650
133115
105325
92205.2
8399.32
16046
56615.7
91234.2
6360.97
12002
90235.1
3248.96
5629.69
36261.6
58350.6
1120.8
1728.36
22021.8
246.052
312.877
2242.22
2765.51
10.9052
9.13217
188.739
3.94876
2.2718
159.091
23.4177
1.79983
1.38277
6.32672
4.40193
0.240109
0.0618981
40496.5
207795
170299
183396
159682
187380
223704
176249
163781
198567
168246
224043
270150
319243
279333
189946
181174
165678
128656
3.67302
105938
164748
74496.9
165787
134687
116896
187720
162968
132562
114934
160596
130256
111743
178442
157316
127845
87874.5
151729
105895
28313.1
153173
95005.8
66448.2
511.527
7191.64
6538.08
103.306
30749
275.929
68.914
6.04451
428.688
166843
139454
14164.2
10614.6
43192.3
2668.08
4229.9
181.787
5.35696
0.681005
0.0298086
0.251483
0.0255248
0.156249
0.0113519
0.038577
0.00192398
0.00893061
0.000432959
0.00154205
7.10288e-05
0.348794
0.00746029
0.000407002
1.735e-05
59298.9
30875.3
5517.73
17.0863
8379.26
1.11204
0.0160316
0.00103391
5.36277e-05
2.30465e-06
681926
650653
677853
682164
711539
602174
610463
628543
585631
0.105272
0.189344
0.0110709
0.0710845
0.00334942
0.0129425
0.000754865
0.00420003
0.000180176
0.000914156
4.26681e-05
82.155
0.692482
0.105047
0.0495279
0.0159439
402013
197510
196426
223945
253693
210300
238053
210051
140054
55513.4
6.84164
457727
463660
478674
467999
450389
405061
358265
329677
319933
125353
257951
270884
182641
169961
231957
176143
237890
215113
175698
1.09468e+06
735052
1.11111e+06
900802
595222
881890
1.51674e+06
1.10625e+06
1.29104e+06
1.02048e+06
1.50247e+06
1.03928e+06
1.29469e+06
3.10017e+06
2.75979e+06
3.07522e+06
2.74875e+06
1.51935e+06
914053
1.0025e+06
1.27102e+06
1.02032e+06
1.29062e+06
1.4933e+06
3.05669e+06
2.5169e+06
2.67072e+06
2.92317e+06
1.37135e+06
973479
1.23648e+06
853722
1.4426e+06
933937
1.18539e+06
2.50758e+06
2.32662e+06
2.73575e+06
2.10992e+06
1.28864e+06
1.10278e+06
747933
655619
349800
924840
1.17487e+06
834674
772841
754255
490764
412947
688044
392681
497509
1.03498e+06
1.25314e+06
1.1132e+06
1.2553e+06
1.22474e+06
1.08091e+06
1.06523e+06
884510
1.06406e+06
1.05404e+06
1.00649e+06
947591
965608
1.05266e+06
777312
613891
1.00747e+06
734420
802318
613699
972882
635774
571898
825447
616471
679660
543123
763682
304380
237997
914848
1.1413e+06
779293
902440
1.11344e+06
758380
942815
2.38575e+06
2.73972e+06
2.66973e+06
2.44091e+06
2.02324e+06
1.65233e+06
1.62946e+06
2.06054e+06
1.00786e+06
1.22561e+06
1.1395e+06
1.05793e+06
1.19509e+06
1.06028e+06
983369
887256
878595
1.02801e+06
713799
1.08371e+06
738450
854966
2.30689e+06
2.54024e+06
2.58472e+06
2.27063e+06
1.95946e+06
1.57601e+06
1.59021e+06
1.92712e+06
748184
953757
673368
692025
810948
857607
621053
2.21711e+06
2.53976e+06
2.26885e+06
2.49695e+06
1.875e+06
1.56953e+06
1.9208e+06
1.53262e+06
844321
880513
695489
1.02961e+06
835564
1.04494e+06
822761
693998
591517
606869
563958
733515
591125
661474
2.09404e+06
2.20433e+06
2.38122e+06
1.9224e+06
1.76907e+06
1.34104e+06
1.45309e+06
1.62364e+06
606152
508083
531267
388787
632897
490785
497736
1.52102e+06
2.00066e+06
1.72805e+06
1.77999e+06
1.27906e+06
1.20679e+06
1.45691e+06
1.06115e+06
748334
714529
593062
880922
606831
930235
716330
581687
393231
486585
439986
491636
466326
558390
1.3201e+06
1.3693e+06
1.56507e+06
1.1373e+06
1.10535e+06
786958
917572
947057
850506
1.19996e+06
980201
1.05782e+06
565198
565053
449570
563401
502874
675913
473963
741579
742975
901272
653916
249444
424254
225504
202024
376783
222993
274299
1.70658e+06
1.64437e+06
1.28225e+06
852903
724453
1.41534e+06
1.48308e+06
1.09372e+06
730851
602935
497853
479435
475099
1.81506e+06
1.05785e+06
1.08159e+06
1.54973e+06
966250
879776
521846
451559
378608
1.69353e+06
1.6189e+06
1.61235e+06
1.70627e+06
1.63442e+06
1.45722e+06
1.56417e+06
1.51302e+06
1.07454e+06
1.27025e+06
1.31771e+06
1.03304e+06
864939
832049
642971
1.48785e+06
1.27575e+06
1.31668e+06
1.06239e+06
1.26602e+06
1.29562e+06
1.50206e+06
1.44657e+06
1.03142e+06
1.14445e+06
1.18664e+06
1.22649e+06
1.26311e+06
1.35236e+06
1.02837e+06
1.01894e+06
1.08772e+06
765767
1.21525e+06
857408
954576
833055
633835
577505
645062
693218
789465
688377
580806
522002
552998
414792
616266
493736
505972
563222
393765
465559
462306
479010
480113
547474
177175
64.9852
410.657
1.10121
2.93267
218769
73984.2
212431
51244.5
64304.1
6328.67
142.166
0.9947
12.2105
0.176897
24.3204
0.44863
3.332
695628
1.2944e+06
483413
194993
28583.4
59944
2951.78
19.9922
1.01354
667188
1.30346e+06
491071
194462
30003.3
38628.3
17.4919
7.71051
0.49282
600618
935933
466408
190192
31720.9
4556.89
2.17747
0.474883
0.123953
484574
750032
392921
198515
16036
564.088
25.5904
0.0380549
0.0746764
247669
379678
293914
201340
10537.1
90718.5
1.5838
21.2499
205931
249133
8373.88
223932
2.12824
184.629
1.37968e+06
1.3965e+06
1.32178e+06
1.44509e+06
1.32233e+06
755791
679104
1.31856e+06
748508
1.2854e+06
1.30212e+06
1.17773e+06
330887
482163
329200
32436.5
134253
69370.3
194701
33576.8
134189
69971.3
17721.1
54729.2
13974.8
29493.3
14144.5
54930.3
6408.58
1.21368e+06
929833
1.31435e+06
761449
623378
1.08605e+06
766358
1.06638e+06
328226
490732
324805
34211.3
134233
70396.6
193000
35737.8
132053
70544.6
11950.9
54484.6
4034.16
31361
5017.25
43860.9
1077.48
653284
533559
554907
959913
825598
556679
716616
734673
802058
777976
316441
421742
296138
36173.6
129273
68150.3
183130
37271.9
124775
28816.9
3277.85
34858
262.04
22911.9
504.711
5578.06
40.8415
486855
537974
454301
467692
675409
618799
398975
489392
383918
733052
543318
544645
291876
318591
215445
37005.3
79864.7
12147.5
135178
21662.7
5752.6
319.333
254.383
2012.01
13.524
14897.5
13421
193.581
234.058
191647
230079
140300
263257
283877
84919.1
180436
153697
133396
119180
295415
247650
188461
203081
500235
158842
490868
158273
449357
166065
369149
5535.44
260014
3361.93
526512
531448
626563
449051
375963
498828
623484
446486
372426
548816
556772
620530
388990
365643
473971
603819
419253
356131
528856
484290
538932
352548
341533
412706
477074
362412
315696
427038
370079
410157
293250
311295
323664
342730
234306
224929
1.65656e+06
1.2141e+06
1.64688e+06
1.27184e+06
1.18287e+06
1.63801e+06
1.66007e+06
480946
599065
594546
322060
446380
443854
322988
33254.4
27415.9
40836.2
28707.2
27449.8
40889.2
33294.2
1.66159e+06
1.15492e+06
1.62993e+06
1.26755e+06
1.64426e+06
1.10753e+06
1.64294e+06
604290
492993
606498
343405
459892
337812
462417
31349.4
26751.6
42274.7
30500.3
32394.8
25770.7
42798.2
1.48647e+06
1.00428e+06
1.55331e+06
897938
1.57415e+06
960222
1.46164e+06
445873
571762
544084
322948
430890
335393
406916
16505.8
18908.1
43497.1
30819.9
22355.4
15105
41433.1
1.0378e+06
793270
1.11933e+06
694660
1.15232e+06
734157
1.00555e+06
337802
433648
366884
247152
317447
267947
286595
1180.46
3211.6
15731.8
9234.24
2509.15
1726.8
7147.52
279502
312096
325094
386202
335462
313738
307960
363950
364284
356547
332361
290223
322984
259736
225946
194300
155608
291466
153150
283655
229544
8.05201
189.103
116142
93038.8
359.25
83287.6
45.084
110179
425.012
6190.33
101850
98710.7
140.473
217.169
1.13374e+06
1.20439e+06
1.39755e+06
1.30015e+06
1.17942e+06
1.39401e+06
1.13687e+06
750198
858216
853289
1.40696e+06
756397
749173
1.42333e+06
2.74151e+06
3.41679e+06
3.35469e+06
2.78743e+06
1.13307e+06
1.29899e+06
1.1769e+06
1.3961e+06
1.17156e+06
1.39286e+06
1.13369e+06
851734
753981
856579
1.38525e+06
748255
744874
1.37223e+06
2.68055e+06
3.26421e+06
3.28961e+06
2.64227e+06
1.51346e+06
1.24769e+06
1.29291e+06
1.24737e+06
1.20657e+06
1.30246e+06
1.50894e+06
3.56867e+06
3.77644e+06
3.70378e+06
3.63406e+06
3.18643e+06
2.94757e+06
2.88584e+06
3.23766e+06
1.64155e+06
1.27637e+06
1.17293e+06
1.62421e+06
1.17278e+06
1.62658e+06
1.63727e+06
1.50315e+06
1.22038e+06
1.15588e+06
1.29329e+06
1.18329e+06
1.29663e+06
1.49879e+06
3.47396e+06
3.57348e+06
3.61038e+06
3.42705e+06
3.10216e+06
2.75417e+06
2.80301e+06
3.0546e+06
329666
404401
402721
273130
251044
250898
273385
594640
486786
599438
323309
453750
446194
329901
402113
329102
402794
276918
257290
253468
283613
80745.1
49370.4
57025.2
32451.4
49352.9
57087.7
80686.1
81410.4
32943.7
51658.1
58265
50301.4
57581.8
82383.5
22856
21905.8
17654.6
17072.2
21345.3
16927.8
23504.3
33188.4
29066.6
27257.5
41716.9
27448.6
41244.7
32942.8
21677.7
15878.8
18745.6
13701.5
20311.6
15592.7
19891.6
1.13738e+06
1.15381e+06
1.40093e+06
1.272e+06
1.13456e+06
1.10034e+06
1.40916e+06
866307
767963
875569
1.38612e+06
754464
1.37635e+06
756384
2.6492e+06
3.28522e+06
2.64104e+06
3.31663e+06
1.1377e+06
1.19193e+06
929331
1.3829e+06
1.02519e+06
1.40973e+06
1.1228e+06
874152
856753
752080
1.38179e+06
731457
749888
1.35206e+06
2.62502e+06
3.17345e+06
3.28698e+06
2.54336e+06
3.48615e+06
3.59804e+06
3.44922e+06
3.63829e+06
1.66542e+06
1.18563e+06
1.03825e+06
1.61694e+06
1.06146e+06
1.64528e+06
1.63653e+06
3.44995e+06
3.48532e+06
3.60709e+06
3.32359e+06
403564
326812
403589
294771
260431
289883
262881
602170
481801
590197
345614
448885
459692
343141
321763
401991
397506
298063
265678
264880
298536
84112
52919.2
58982.6
34776.1
83309.7
54108.3
59596.8
84709.6
35283.4
56232.3
60392.4
55234.6
60073.4
85074.8
14531.8
16676.5
11382.3
9528.94
17495.5
14151.2
8868.13
29616.9
30948.7
21936.3
43588
24189.7
43236.3
26703.9
11175.7
7144.5
8338.26
4397.81
11297.2
6462.88
7889.78
1.03831e+06
819588
1.33042e+06
824431
1.08867e+06
704540
1.25662e+06
783962
724942
687691
1.21322e+06
699904
1.29314e+06
656926
2.21146e+06
2.97913e+06
2.39893e+06
2.72747e+06
977149
753144
623399
1.07683e+06
650063
1.16967e+06
907667
679296
642554
591852
1.12073e+06
548872
605494
1.01904e+06
2.00414e+06
2.17213e+06
2.45028e+06
1.7913e+06
2.86455e+06
3.27271e+06
3.11985e+06
2.99817e+06
1.38171e+06
851876
851051
1.23555e+06
907819
1.35189e+06
1.26761e+06
1.28592e+06
818926
836611
1.05082e+06
887520
1.12247e+06
1.19048e+06
2.57836e+06
2.38328e+06
2.69067e+06
2.28745e+06
2.26018e+06
1.67812e+06
1.88951e+06
2.01202e+06
307948
388521
375138
288171
264022
295327
259206
510456
473179
395085
306763
348588
378832
288030
281811
357686
337196
277694
241691
251688
264721
84936.5
56937.2
60588.2
36614.8
85181.1
57236.8
60651.8
84257.5
37004.3
57059
59574.5
57397.6
60538.1
83088.1
2999.39
5616.94
2762.86
1959.91
5046.26
3456.53
1573.3
10126.2
27866.7
6325.3
27094.8
10706.2
36388
5357.8
1663.97
1051.07
1038.2
359.625
1985.42
798.429
818.858
753384
590853
980879
626889
832287
550101
883441
556746
483766
538055
805879
490287
911629
433419
1.38346e+06
1.90305e+06
1.58074e+06
1.65656e+06
666911
566779
439801
648655
500435
776554
563132
442853
497919
431377
704519
331062
379570
603620
1.1931e+06
1.17296e+06
1.41758e+06
996723
988540
782952
972560
684111
1.09033e+06
727853
890095
1.7512e+06
2.08779e+06
2.00636e+06
1.81935e+06
1.56e+06
1.4835e+06
1.77625e+06
1.31005e+06
912430
630078
575932
737770
667330
883326
761393
871922
624454
575321
656197
663227
787018
727110
1.4944e+06
1.29097e+06
1.55469e+06
1.23546e+06
1.33214e+06
914402
1.11778e+06
1.09838e+06
247835
265477
315073
233534
229920
249779
216891
353057
283704
308457
226983
232976
256841
213877
248568
267993
229653
216917
198454
203785
209069
78991.4
56092.5
52073.3
32006.1
81380.9
54632.3
36201.9
65880
22967
56949.7
11954.8
54519.5
18919.1
42047.9
262.372
517.294
166.027
306.42
373.014
412.534
188.654
1398.58
5539.38
14341.8
8040.62
2299.04
3597.62
8291.62
1225.94
1905.27
14321.1
8267.14
1981.87
1215.6
8565.42
227659
191834
154967
276671
166237
266186
224777
201511
147758
157230
167399
161101
195016
178896
210747
174707
127041
223377
142233
257272
188812
193282
141599
129856
162100
139674
194704
160938
183807
121170
126087
145629
132732
168342
155265
20391
26324.4
6.35981
17470.5
42.4423
2.32845
7942.06
4.78783
0.154138
731.155
26.3155
0.0658345
139293
99060
18.1144
207618
167.894
35062
18679.2
33655.4
29622.3
10877.9
34231.4
28988.8
44840.6
34353
891.55
56762
1453.63
32891.5
144.503
51781.3
31680.4
26.5287
24847.2
12103.5
21413.8
229.67
3890.68
110940
220158
172603
28596.4
20961.4
23506.1
20070.7
20983.7
23178.7
28649.5
29257.9
21727.8
20251.4
15766.8
29187.5
21992.8
18007.1
18404.1
18717.1
7355.99
5050.57
23860.9
15794.6
4276.08
1489.35
3916.78
517.234
526.894
3040.94
2244.8
337.124
151166
126648
113247
194700
103175
175054
166932
59499.6
5463.03
2376.33
71243.6
56303.8
171.828
675.287
28698.7
19522.5
21413.4
21712.9
21150.8
22626
28919.9
28811.1
13543.7
20690.7
11016.2
21757.7
14871.1
27353.8
40458.4
33874.1
24452.3
54999.2
24241.1
55143.6
40509
39374.6
24712.4
54622.5
34199
40473.5
25052.2
53958.7
11691.5
2803.84
7436.65
1125.3
11862.8
2297.04
6328.18
34861.6
33718.8
21894.9
51551.2
24925.9
52955.2
26134
7791.21
15757.2
45072.1
30039.5
15625
9805.23
31123.1
1466.94
1856.74
11103.2
7547.77
2338.88
1204.15
6778.53
4086.59
25366.9
11671.2
11226.8
6608.69
17064.1
6777.73
135891
108922
103308
134436
99983.9
150870
123173
668397
301150
367370
582272
335541
393475
439881
734545
347154
395959
706840
384365
470343
481790
288960
506431
252215
300430
617064
343270
420629
194798
254018
253086
147354
178997
179046
147407
54015.1
104703
104554
70177.3
5680.21
70311.7
3467.86
37.6481
22.7132
2362.05
52514.3
1399.85
48282.1
850.424
193794
251861
250669
149249
184997
148966
186585
104161
17583.9
115430
70034.4
2454.43
57701.9
495.739
1339.26
6.33543
291.161
44495.4
597.549
21775.9
117.019
187402
244162
239033
146656
188041
148451
185609
75561.9
210.346
85848.7
45937.7
236.021
6084.83
12.2261
11.846
7.06911
61.6703
13150.8
53.9616
1082.56
5.27497
162241
170386
211001
128040
168770
134010
160405
1.40317
54.5183
14364.4
1947.27
4.16177
38.998
2.10982
0.856501
0.51982
4.88871
342.522
2.34962
21.2314
0.913689
307802
261802
271796
248103
266308
230310
283482
90307.8
28852.7
121705
31824.3
123307
49307.3
44051.1
134086
226858
226489
261835
276740
222539
177224
223733
197270
218239
274174
285929
227818
191878
21.0709
185146
1996.19
263504
131454
11004.2
431.637
147954
203295
1521.03
270782
152325
53297.4
761.98
252732
194791
252603
147786
182994
180603
148487
191866
249200
247318
149409
188613
187943
149223
177441
231584
222155
143528
175759
181445
139227
175652
185496
153711
122225
148967
151872
100975
198592
204421
236326
221199
192527
210264
193988
158504
235846
234198
344817
201941
342294
199918
154948
231622
227036
335452
197421
323101
193213
158748
221550
211808
307047
187198
286020
179054
148090
87617.5
221009
260746
93777.2
151064
386.75
33529.7
293791
238263
283796
118640
48623.2
272.485
1.78291
54.8772
93519.7
36437.9
41.6255
35.3947
1.11604
355042
381951
347757
456310
329225
354745
328826
76760
164122
146792
57337
119101
24522.7
21126.4
110217
26101.2
119073
32273.9
115061
26841.9
35021.5
44209.6
29787.6
81686.9
87773.8
32181.4
118974
48703.2
113.885
63.6659
23399.1
46284.9
3958.49
43380.3
3024.38
16497.6
9.39689
7796.77
35174.1
1548.99
19899.6
526.01
31.193
8.52264
212.268
5851.06
114.637
967.41
6.30303
1.10796
1.28823
7.05549
768.359
2.6035
80.3429
1.37317
37680
26071.1
73590.4
65725.1
21962.7
87780.2
30697.7
142941
133363
57670
60980.2
15884.1
68878.8
18267.5
78223.4
24031.1
17458.3
68.8621
1.57477e+06
1.31025e+06
639339
563929
470303
265378
2.83338e+06
506102
1.44798e+06
2.72871e+06
503069
1.4595e+06
1.51322e+06
2.30466e+06
322339
1.44924e+06
1.63827e+06
352790
1.15102e+06
715462
800048
369902
990057
737096
379444
638077
609975
678169
703583
382255
591246
388037
503201
654341
549448
213163
323550
328743
336275
343697
360430
391924
357670
360609
414436
426359
365378
364167
431649
444233
345752
346649
2.90367e+06
1.82817e+06
1.82178e+06
2.57874e+06
1.77872e+06
1.76493e+06
2.64167e+06
500281
299494
298582
637962
856756
840251
647172
2.82648e+06
1.85141e+06
1.83883e+06
2.56172e+06
1.81866e+06
1.801e+06
2.53257e+06
305151
311949
510167
640409
834648
834885
648183
2.54466e+06
1.54666e+06
1.73631e+06
2.22334e+06
1.76596e+06
2.40726e+06
1.6318e+06
338670
510199
495208
605394
819934
638694
784019
1.99159e+06
1.06171e+06
1.29963e+06
1.98221e+06
1.19657e+06
1.42738e+06
1.68631e+06
363123
465569
426377
550531
653935
729334
479882
1.1984e+06
1.35582e+06
886941
1.18196e+06
989545
1.39102e+06
849869
375060
378948
358503
342411
563571
401865
474988
757754
1.04415e+06
1.10262e+06
1.05645e+06
737546
776715
977438
381651
362469
363493
347477
402515
404808
350077
722636
941842
996370
871486
714756
921239
693238
383930
360380
353354
345621
394639
348259
379251
389875
346754
344700
343116
343417
361271
338191
323107
320437
327021
335979
347853
338730
375809
347375
347157
405162
336298
338678
421173
343202
348058
429242
352373
355216
434961
355769
355567
454952
362592
376079
391205
408206
343217
1.87039e+06
1.61828e+06
1.44168e+06
1.42699e+06
1.59694e+06
1.41364e+06
1.90778e+06
1.87226e+06
1.43951e+06
1.64038e+06
1.41818e+06
1.61894e+06
1.40871e+06
1.88135e+06
1.70041e+06
1.61616e+06
1.38495e+06
1.39254e+06
1.81781e+06
1.52948e+06
1.30938e+06
1.53477e+06
1.28857e+06
1.1985e+06
1.05603e+06
1.38485e+06
1.20124e+06
1.31979e+06
914464
1.00594e+06
895528
836801
1.093e+06
845714
752636
802467
715972
681694
578296
740008
646483
734114
651089
646803
536010
560053
688424
620217
505281
612272
533614
557303
444784
593231
476765
296371
348855
17.0209
0.65648
0.166655
35.7924
0.705455
1.31836
0.268305
0.616884
78.799
0.874868
43.0863
0.805742
2.31157
0.437593
0.52511
3.14982
205.284
47.7859
27963.8
9.98111
1.5948
84.9742
47807.8
11.5323
2.6776
41880.3
32.3874
2.10888
0.687496
76.5221
0.979058
34.1786
0.962483
8.62749
0.561067
85.1278
7246.79
10.4608
3.06663
3173.61
40.3859
3.32009
0.0274223
0.0412116
0.0531208
0.358827
0.561446
0.0181675
0.127762
0.0277907
0.460561
0.0326243
0.0290651
0.154456
0.152446
0.0160715
0.00886909
0.069244
0.0627963
0.00798048
0.00393944
0.0484264
0.0181601
0.00225126
0.00114486
0.00641921
0.00345314
0.000325104
0.000150286
0.00102395
0.00148751
3.74678e-05
4.76539e-05
0.275751
0.0138906
0.098194
0.00553352
0.0224597
0.00138972
0.00701019
0.000289432
0.00209608
7.34248e-05
0.0118342
0.000639674
2.62804e-05
0.0270589
0.00157087
8.17505e-05
3.39132e-06
0.00379615
0.00676522
0.000186137
0.000346551
6.84899e-06
1.42328e-05
0.00691588
0.0181922
0.000414675
0.000970825
1.95267e-05
4.91466e-05
7.36909e-07
2.02256e-06
0.00267817
219638
272808
235676
638728
502591
462867
325893
457670
303350
362485
253885
345018
191015
176893
249988
262929
317544
297236
247284
677571
799829
878766
814608
626575
666667
743522
407888
439868
414803
357976
270843
215879
239151
286259
246132
284334
233112
563549
540117
558254
422208
405663
531015
530036
455226
290246
337895
312438
294012
325303
286020
296344
378635
494593
394613
413008
450819
436866
351877
367288
237774
346010
303632
359596
322330
269945
196495
380352
297219
769450
1.91344e+06
1.77825e+06
1.32718e+06
791341
756372
724865
708016
705440
1.87818e+06
1.79046e+06
1.76089e+06
1.67189e+06
1.59592e+06
1.50685e+06
1.24272e+06
983504
1.05779e+06
804861
827626
887455
724117
750121
760169
730907
771642
673034
674024
696257
653298
736817
719323
752543
662248
629319
648348
1.85675e+06
1.90532e+06
1.86883e+06
1.68869e+06
1.66434e+06
1.68899e+06
1.7068e+06
1.31372e+06
1.08176e+06
1.06531e+06
1.07766e+06
1.33102e+06
1.31001e+06
1.31489e+06
1.71403e+06
1.76673e+06
1.58838e+06
1.60051e+06
1.4845e+06
1.50403e+06
1.62608e+06
1.66697e+06
1.74163e+06
1.78234e+06
1.63753e+06
1.60902e+06
1.56795e+06
1.53548e+06
876414
747191
869156
889486
865734
748504
805636
328763
190934
272309
188674
268181
367031
195221
352865
166704
264241
26.0738
9.65792
0.490119
0.0164881
397438
313037
315872
395046
401869
323041
318654
408097
429985
329534
417720
337537
443568
350484
344797
455523
473112
355864
465140
361802
479836
372584
367999
483433
489929
374793
485053
379124
501297
409167
394827
497893
0.0115903
0.151659
0.0133024
0.0628864
0.00657413
0.039704
0.00209676
0.00477328
0.000228047
0.000540628
2.41849e-05
0.00149226
7.08925e-05
2.95482e-06
0.000130994
6.35824e-06
2.65994e-07
369609
376791
315937
11497.4
102.692
299.213
26.1873
6.32554
1.00858
14.1454
0.0136355
0.0970044
0.00465474
0.0453762
0.00232092
0.00830716
0.000389193
0.00157865
6.81018e-05
1.49294e+06
1.5759e+06
1.43753e+06
1.54801e+06
1.48022e+06
1.44198e+06
1.38289e+06
1.03978e+06
1.25244e+06
1.07749e+06
1.02272e+06
1.2891e+06
1.24999e+06
1.06035e+06
752229
735932
659280
687435
691697
666945
754908
765335
737786
869178
738830
831950
860866
720160
1.54656e+06
1.5235e+06
1.38791e+06
1.39507e+06
1.37344e+06
1.52908e+06
1.54495e+06
1.63467e+06
1.59547e+06
1.54922e+06
1.49162e+06
1.45733e+06
1.44243e+06
1.42581e+06
1.5005e+06
1.42805e+06
1.39013e+06
1.41121e+06
1.33266e+06
1.42044e+06
1.4196e+06
705477
642487
674049
672373
694325
652023
617246
1.35678e+06
1.39767e+06
1.29106e+06
1.34195e+06
1.27078e+06
1.39742e+06
1.48749e+06
1.51153e+06
1.48199e+06
1.36199e+06
1.45224e+06
1.41671e+06
1.34742e+06
1.30757e+06
1.23102e+06
1.01693e+06
1.11969e+06
1.22647e+06
1.0622e+06
1.37387e+06
1.24189e+06
1.0757e+06
1.27135e+06
1.19927e+06
1.07134e+06
1.17382e+06
1.03971e+06
1.26209e+06
819143
744395
917780
869980
707892
1.06323e+06
890741
894499
875193
718736
902619
740221
868192
709950
1.33438e+06
1.38242e+06
1.36764e+06
1.27728e+06
1.31333e+06
1.23598e+06
1.28242e+06
1.34303e+06
1.35405e+06
1.37798e+06
1.36133e+06
1.33459e+06
1.29001e+06
1.25461e+06
727800
641811
631999
724983
646243
655688
744645
1.25625e+06
1.19459e+06
1.21838e+06
1.07924e+06
1.06973e+06
1.16965e+06
1.07737e+06
901550
898334
731521
766471
924358
916600
754998
665105
620776
655169
629768
589747
740979
636701
645717
639825
600760
561123
622151
601924
547578
1.27797e+06
1.22647e+06
1.38663e+06
1.3505e+06
1.42705e+06
1.38537e+06
1.24451e+06
613224
693974
627210
644487
659839
599679
585832
331775
346227
345915
334928
388682
388515
337247
388962
387525
350886
389049
399299
346307
400416
479886
521846
356762
388705
517759
357629
482328
478152
388148
510354
358905
514172
357466
477984
485081
508557
361538
388866
479599
509226
364842
491980
387903
511466
370607
510716
367771
498132
509503
512658
374677
392635
503800
515343
380563
513687
396932
517496
391059
518070
386893
514120
517835
515247
392642
410651
512936
521814
399643
433557
343023
528833
436613
466864
428540
531970
420326
503640
371771
263702
246678
6924.93
0.0340479
0.0088441
0.000491721
332299
319643
235983
187323
151449
196259
328616
194947
190950
308127
183786
180645
211807
166520
161704
201944
121923
20137.5
63075.1
163282
219278
190256
216747
187950
208454
174400
205031
170938
187680
165089
199552
142916
172228
37227
153287
1594.69
307.057
2579.73
93618
32576.5
7776.76
0.635158
0.0531405
0.00313312
0.000176135
8.43327e-06
35258.6
0.906113
0.0276372
297.26
0.0322751
0.00213989
0.93426
0.00776995
0.000388947
45.1678
0.116108
0.00570881
164853
0.509989
0.0213381
5.63144
0.0267322
0.00199606
0.000124372
6.44856e-06
2.73241e-07
0.0149839
0.0015682
0.000121837
7.58657e-06
3.99887e-07
1.75642e-08
0.000764201
7.76668e-05
6.02106e-06
3.82264e-07
2.08383e-08
8.29459e-10
0.0867489
0.345745
0.00706506
0.0166307
0.000523644
0.00123213
2.96335e-05
7.57501e-05
1.40232e-06
3.90051e-06
5.60394e-08
1.64568e-07
0.00428278
0.00864588
0.000406242
0.000945462
2.89938e-05
7.37979e-05
1.67143e-06
4.58752e-06
8.34116e-08
2.40922e-07
3.47791e-09
1.05501e-08
0.000194173
0.000444167
1.84799e-05
4.63536e-05
1.34759e-06
3.61961e-06
8.16217e-08
2.29877e-07
4.2055e-09
1.24855e-08
1.01863e-10
4.80213e-10
0.0242317
0.00237209
0.000149019
0.00114452
0.000111978
8.064e-06
5.32421e-05
5.13105e-06
3.81522e-07
94613.5
5.55623
36.7505
0.232636
0.0351588
0.190872
0.0126792
0.0015076
0.00353912
12187.4
0.667287
0.005626
192060
2.11088
0.052689
198580
136.662
0.0629649
8.59683e-06
4.36907e-07
1.86992e-08
4.86572e-07
2.54076e-08
1.03319e-09
2.35159e-08
1.1496e-09
0
4.12889
0.0636305
0.00545382
160690
0.535982
0.0222353
1.53619
0.019465
0.00148234
8.94652e-05
4.62886e-06
2.05429e-07
0.013655
0.00131678
9.56698e-05
5.7912e-06
3.11091e-07
1.42172e-08
0.000709274
6.63331e-05
4.89218e-06
3.0901e-07
1.73168e-08
7.567e-10
0.73781
0.0380458
0.00808086
0.000512539
2.70881e-05
1.23383e-06
0.0481271
0.0125996
0.00085772
4.8801e-05
2.54715e-06
1.17609e-07
0.0102228
0.000835737
5.54783e-05
3.29125e-06
1.79803e-07
8.48377e-09
0.000481205
4.05614e-05
2.87911e-06
1.81579e-07
1.02882e-08
4.22006e-10
641037
646303
635243
459132
456825
405077
404847
642325
629937
578536
589108
609786
632659
630897
625134
592516
604705
569432
555491
586038
565251
700492
648631
621934
612357
586304
595169
665640
1.09643e+06
1.12065e+06
1.19768e+06
1.42123e+06
1.33573e+06
1.38578e+06
1.33111e+06
760626
843021
994219
1.1852e+06
1.0145e+06
1.21693e+06
1.06926e+06
614203
622984
599452
453885
405345
450889
404826
566210
566065
582055
582132
520992
536230
517694
578535
609580
709858
852203
718922
908769
767457
623463
594742
570254
594320
622797
546264
568703
571016
550771
556501
575752
595958
534060
575793
568092
563922
517865
440323
395021
374455
422475
589916
562795
579167
522358
552033
540920
558294
481546
455381
386245
342082
300545
393850
355426
209375
231952
0.0182042