/*--------------------------------*- C++ -*----------------------------------*\
  =========                 |
  \\      /  F ield         | OpenFOAM: The Open Source CFD Toolbox
   \\    /   O peration     | Website:  https://openfoam.org
    \\  /    A nd           | Version:  9
     \\/     M anipulation  |
\*---------------------------------------------------------------------------*/
FoamFile
{
    format      ascii;
    class       volScalarField;
    location    "0.00045";
    object      lambda.c4;
}
// * * * * * * * * * * * * * * * * * * * * * * * * * * * * * * * * * * * * * //

dimensions      [0 0 0 0 0 0 0];

internalField   nonuniform List<scalar> 
5989
(
1
1
1
1.5943e-15
8.59813e-31
1
1
1
1.02573e-15
3.27236e-48
1
1.39694e-15
3.27107e-31
1.7967e-15
1.2088e-30
1.65447e-15
1.31351e-48
5.177e-84
1
1
0.5
2.21764e-32
1.81448e-80
1
1.15276e-15
6.64946e-50
3.97621e-33
1.28398e-67
8.78446e-105
1
1
1
1
0.5
6.74646e-16
1.14249e-63
1
1
1.20982e-15
5.95399e-49
6.51038e-85
1
1
1.08167e-15
1.81631e-48
1
1
7.23206e-15
6.35194e-47
2.74977e-81
1
1
1.74944e-33
2.43081e-68
7.14536e-106
1
1
5.55909e-16
7.05885e-50
4.75618e-86
1
1
1
1
1
1
1
1
1
1
1
1
1
1
1
1
1
1
1
1
1
1
1
1
1
1
1
1
1
1
1
1
1
1
1
1
1
1
1
1
1
1
1
1
1
1
1
1
1
1
1
1
1
1
1
1
1
1
1
1
1
1
1
1
1
1
1
1
1
1
1
1
1
1
1
1
1
1
1
1
1
1
1
1
1
1
1
1
1
1
1
1
1
1
1
1
1
1
1
1
1
1
1
1
1
1
1
1
1
1
1
1
1
1
1
1
1
1
1
1
1
1
1
1
1
1
1
1
1
1
1
1
1
1
1
1
1
1
1
1
1
1
1
1
1
1
1
1
1
1
1
1
1
1
1
1
1
1
1
1
1
1
1
1
1
1
1
1
1
1
1
1
1
1
1
1
1
1
1
1
1
1
1
1
1
1
1
1
1
1
1
1
1
1
1
1
1
1
1
1
1
1
1
1
1
1
1
1
1
1
1
1
1
1
1
1
1
1
1
1
1
1
1
1
1
1
1
1
1
1
1
1
1
1
1
1
1
1
1
1
1
1
1
1
1
1
1
1
1
1
1
1
1
1
1
1
1
1
1
1
1
1
1
1
1
1
1
1
1
1
1
1
1
1
1
1
1
1
1
1
1
1
1
1
1
1
1
1
1
1
1
1
1
1
1
1
1
1
1
1
1
1
1
1
1
1
1
1
1
1
1
1
1
1
1
1
1
1
1
1
1
1
1
1
1
1
1
1
1
1
1
1
1
1
1
1
1
1
1
1
1
1
1
1
1
1
1
1
1
1
1
1
1
1
1
1
1
1
1
1
1
1
1
1
1
1
1
1
1
1
1
1
1
1
1
1
1
1
1
1
1
1
1
1
1
1
1
1
1
1
1
1
1
1
1
1
1
1
1
1
1
1
1
1
1
1
1
1
1
1
1
1
1
1
1
1
1
1
1
1
1
1
1
1
1
1
1
1
1
1
1
1
1
1
1
1
1
1
1
1
1
1
1
1
1
1
1
1
1
1
1
1
1
1
1
1
1
1
1
1
1
1
1
1
1
1
1
1
1
1
1
1
1
1
1
1
1
1
1
1
1
1
1
1
1
1
1
1
1
1
1
1
1
1
1
1
1
1
1
1
1
1
1
1
1
1
1
1
1
1
1
1
1
1
1
1
1
1
1
1
1
1
1
1
1
1
1
1
1
1
1
1
1
1
1
1
1
1
1
1
1
1
1
1
1
1
1
1
1
1
1
1
1
1
1
1
1
1
1
1
1
1
1
1
1
1
1
1
1
1
1
1
1
1
1
1
1
1
1
1
1
1
1
1
1
1
1
1
1
1
1
1
1
1
1
1
1
1
1
1
1
1
1
1
1
1
1
1
1
1
1
1
1
1
1
1
1
1
1
1
1
1
1
1
1
1
1
1
1
1
1
1
1
1
1
1
1
1
1
1
1
1
1
1
1
1
1
1
1
1
1
1
1
1
1
1
1
1
1
1
1
1
1
1
1
1
1
1
1
1
1
1
1
1
1
1.48726e-15
9.86927e-16
2.0118e-47
4.92189e-50
1
1
1
1
1
1
1
4.94066e-314
1.27597e-250
3.29116e-205
1.98016e-162
9.65582e-122
3.7243e-84
0
1.23022e-311
1.61963e-248
6.61136e-204
1.80146e-161
3.44945e-107
7.29657e-70
0
0
1.98712e-271
1.06941e-225
2.46511e-182
1.04103e-141
2.5071e-103
0
0
6.7934e-311
4.43122e-248
1.55574e-203
4.58395e-161
1.34245e-106
0
0
0
2.46738e-271
1.63459e-225
7.69203e-183
5.6169e-142
0
0
0
2.47873e-310
7.69021e-248
4.68765e-203
3.79524e-161
0
0
0
0
1.39411e-271
5.09538e-226
1.58755e-183
0
0
0
0
2.91598e-310
1.15483e-247
1.40459e-203
0
0
0
0
0
4.28714e-272
6.74236e-227
0
0
0
0
0
2.24405e-310
1.76211e-248
0
0
0
0
0
0
3.55345e-273
6.04853e-34
2.26418e-69
7.92986e-107
1.27207e-142
1.03817e-161
5.25749e-184
3.18368e-204
1.23533e-227
0.5
1.23266e-33
1
1
2.79991e-35
0.5
1
5.99024e-34
9.61317e-16
8.96413e-104
2.24371e-35
4.69648e-33
4.38854e-70
3.48822e-49
3.71988e-104
7.60215e-68
1.28269e-107
6.62939e-85
1.45089e-143
3.41232e-105
7.93681e-163
2.8174e-123
8.20624e-185
3.41223e-144
1
1
1
1
1
1
1
1
1
1
1
1
1
1
1
1
1
1
1
1
1
1
1
1
1
1
1
1
1
1
1
1
1
1
1
1
1
1
1
1
1
1
1
1
1
1
1
1
1
1
1
1
1
1
1
1
1
1
1
1
1
1
1
1
1
1
1
1
1
1
1
1
1
1
1
1
1
1
1
1
1
1
1
1
1
1
1
1
1
1
1
1
1
1
1
1
1
1
1
1
1
1
1
1
1
1
1
1
1
1
1
1
1
1
1
1
1
1
1
1
1
1
1
1
1
1
1
1
1
1
1
1
1
1
1
1
1
1
1
1
1
1
1
1
1
1
1
1
1
1
1
1
1
1
1
1
1
1
1
1
1
1
1
1
1
1
1
1
1
1
1
1
1
1
1
1
1
1
1
1
1
1
1
1
1
1
1
1
1
1
1
1
1
1
1
1
1
1
1
1
1
1
1
1
1
1
1
1
1
1
1
1
1
1
1
1
1
1
1
1
1
1
1
1
1
1
1
1
1
1
1
1
1
1
1
1
1
1
1
1
1
1
1
1
1
1
1
1
1
1
1
1
1
1
1
1
1
1
1
1
1
1
1
1
1
1
1
1
1
1
1
1
1
1
1
1
1
1
1
1
1
1
1
1
1
1
1
1
1
1
1
1
1
1
1
1
1
1
1
1
1
1
1
1
1
1
1
1
1
1
1
1
1
1
1
1
1
1
1
1
1
1
1
1
1
1
1
1
1
1
1
1
1
1
1
1
1
1
1
1
1
1
1
1
1
1
1
1
1
1
1
1
1
1
1
1
1
1
1
1
1
1
1
1
1
1
1
1
1
1
1
1
1
1
1
1
1
1
1
1
1
1
1
1
1
1
1
1
1
1
1
1
1
1.67942e-15
1.80876e-15
8.82015e-31
1.11783e-30
1
1
1
1
1
1
2.46755e-15
1.7759e-30
1.7747e-122
4.5789e-119
4.37749e-120
1.75751e-122
1.5587e-143
1.71094e-182
7.38053e-193
1.17899e-235
2.45028e-281
0
0
0
1.41938e-84
1.51042e-82
3.23371e-83
1.61288e-84
5.01293e-104
3.12205e-141
1.82394e-149
8.50849e-191
2.67062e-234
2.56634e-280
0
0
7.23344e-49
4.16548e-48
2.22823e-48
4.90099e-49
4.92764e-67
4.25932e-102
1.00143e-108
8.90107e-148
2.1549e-189
9.52498e-234
1.05883e-279
0
5.60557e-16
4.47153e-16
5.60279e-16
8.92992e-33
1.43966e-34
3.84341e-70
2.04499e-107
6.64465e-147
6.8133e-189
2.60212e-233
1.14953e-279
1
1
1
1
0.5
4.66334e-34
2.24301e-69
8.9892e-107
1.21802e-146
8.08761e-189
1.44723e-233
1
1
1
1
1
1
7.56254e-34
6.28363e-69
1.04365e-106
8.98488e-147
3.60202e-189
1
1
1
1
1
1
1
7.95027e-34
4.14511e-69
3.0324e-107
2.81013e-147
1
1
1
1
1
1
1
1
5.47963e-34
1.87846e-69
6.79237e-108
1
1
1
1
1
1
1.86907e-34
1.26864e-70
6.2715e-122
8.61638e-119
6.66606e-120
8.50556e-123
6.92849e-144
7.69557e-183
1.22427e-192
2.15031e-236
1.78313e-282
0
0
0
2.97125e-84
2.38873e-82
6.26937e-83
8.06725e-85
3.08797e-104
3.61997e-141
4.0284e-149
3.83472e-191
1.21144e-234
5.82142e-281
0
0
6.36215e-49
5.03281e-48
2.40463e-48
3.40039e-49
3.82701e-67
1.60539e-102
1.40008e-108
2.74867e-148
8.36788e-190
9.35988e-234
2.24101e-280
0
5.55259e-16
4.77678e-16
6.44926e-16
8.09131e-33
1.31064e-34
3.19727e-70
8.1078e-108
2.92016e-147
3.69687e-189
1.67639e-233
2.224e-280
1
1
1
1
0.5
4.32611e-34
1.57943e-69
5.06901e-107
1.12807e-146
5.27381e-189
1.07594e-233
1
1
1
1
1
1
7.13666e-34
3.96583e-69
4.32873e-107
8.10799e-147
2.56143e-189
1
1
1
1
1
1
1
7.57387e-34
2.15132e-69
2.37948e-107
1.71923e-147
1
1
1
1
1
1
1
1
5.22951e-34
8.13809e-70
2.59507e-108
1
1
1
1
1
1
1.77769e-34
1.08644e-70
8.87797e-142
2.18568e-122
1.40171e-122
5.55393e-143
3.14321e-164
9.8114e-188
2.18363e-197
2.07557e-242
4.03843e-289
0
0
0
6.45165e-103
1.47519e-84
1.144e-84
8.2271e-104
4.15705e-108
1.81247e-145
1.35171e-153
1.67848e-195
2.68208e-241
7.3461e-288
0
0
1.67243e-66
4.78905e-49
5.43365e-49
7.82222e-67
2.664e-70
9.19358e-106
1.43979e-111
8.50347e-152
1.1211e-194
4.67981e-240
1.74367e-287
0
7.70164e-16
7.76446e-16
1.54644e-32
5.67908e-34
2.03678e-68
2.79831e-72
1.85478e-110
2.11555e-151
4.92265e-194
1.10784e-239
3.36714e-287
1
1
1
1
3.10061e-33
2.63771e-35
1.75152e-71
4.44094e-110
1.396e-150
5.73551e-194
1.06003e-239
1
1
1
1
1
1
6.4995e-35
3.91693e-71
1.02057e-109
1.49122e-150
4.43824e-194
1
1
1
1
1
1
1
7.37928e-35
3.68393e-71
5.66466e-110
5.55003e-151
1
1
1
1
1
1
1
1
5.46504e-35
1.31092e-71
8.27071e-111
1
1
1
1
1
1
1.95709e-35
3.63022e-73
1.61658e-163
4.25365e-159
2.77443e-160
6.2413e-165
6.76304e-188
1.93086e-196
4.46119e-240
4.19306e-286
0
0
0
0
2.50439e-123
8.55561e-105
3.08869e-105
6.41003e-124
9.92025e-146
1.34964e-152
5.22241e-194
3.30422e-238
7.95504e-285
0
0
0
2.85417e-85
3.72918e-68
1.59316e-68
2.78812e-85
7.66407e-106
4.05336e-111
2.01091e-150
1.14591e-192
4.50314e-237
5.04893e-284
0
0
5.09082e-33
4.93385e-33
3.88811e-34
2.91456e-68
8.89591e-72
2.30112e-109
2.26353e-149
7.9695e-192
2.46922e-236
2.86909e-283
0
1
1
0.5
3.64998e-33
4.75892e-35
9.36442e-71
1.04074e-108
8.85102e-149
2.43337e-191
3.55164e-236
4.14346e-283
1
1
1
1
1
1.64192e-34
8.22263e-37
3.87273e-108
1.28107e-148
1.47499e-191
2.34361e-236
1
1
1
1
1
1
0.5
1.56767e-36
2.56893e-108
6.54141e-149
8.60853e-192
1
1
1
1
1
1
1
0.5
7.47422e-37
1.09406e-108
7.96708e-150
1
1
1
1
1
1.21153e-34
5.83489e-71
6.99955e-110
3.31744e-189
5.98563e-185
8.9242e-185
4.43893e-189
3.31955e-229
2.81409e-240
2.30359e-285
0
0
0
0
0
3.53759e-146
4.84792e-143
1.98097e-143
1.33384e-146
8.63196e-185
2.58199e-194
1.57421e-237
2.13822e-283
0
0
0
0
2.05959e-106
7.35266e-104
6.02533e-104
8.76342e-107
2.96864e-111
1.03095e-150
1.40169e-191
7.45676e-236
3.56663e-282
0
0
0
5.88862e-67
5.52526e-67
4.30054e-69
1.109e-72
1.26023e-109
1.12465e-115
8.05584e-191
6.60155e-235
1.27997e-281
0
0
1.69128e-32
1.66665e-32
1.34476e-33
3.30096e-35
8.12191e-71
1.66238e-75
1.53314e-114
6.43326e-190
1.02682e-234
1.8974e-281
0
1
1
1
1
1.70344e-34
1.14396e-36
1.16927e-74
4.45396e-114
7.21309e-190
7.64049e-235
1.07117e-281
1
1
1
1
1
1
3.10721e-36
7.42667e-75
2.28316e-114
3.3855e-190
3.70223e-235
1
1
1
1
1
1
1
2.80715e-36
4.8413e-75
8.89205e-115
5.0797e-191
1
1
1
1
0.5
9.03659e-37
6.71222e-109
1.99523e-149
1.12236e-232
2.23455e-226
2.61175e-227
1.07338e-232
3.5881e-274
2.46632e-286
0
0
0
0
0
0
1.31446e-187
3.15515e-183
1.61088e-183
1.51196e-187
7.23002e-228
2.03625e-238
1.66576e-283
0
0
0
0
0
3.15859e-145
4.95327e-142
4.09294e-142
3.19574e-145
9.60205e-184
6.52297e-193
6.01696e-236
7.36568e-282
0
0
0
0
9.12285e-106
4.542e-103
3.68235e-103
9.83902e-106
1.72064e-110
1.05804e-149
1.03343e-190
1.16696e-234
6.85333e-281
0
0
0
1.85102e-68
2.18556e-66
2.08644e-66
2.29109e-68
5.82024e-72
8.17139e-109
5.14173e-115
4.18397e-190
5.52854e-234
2.07716e-280
0
0
2.14669e-33
2.70957e-32
2.68496e-32
2.28173e-33
7.26518e-35
2.38122e-70
3.1115e-75
3.17942e-114
1.06076e-189
9.201e-234
2.20076e-280
0
1
1
1
1
1
2.36008e-34
2.16054e-36
1.2109e-74
7.36171e-114
1.52165e-189
3.82816e-234
3.08169e-281
1
1
1
1
1
0.5
3.37381e-36
4.24794e-75
1.17692e-114
1.86029e-190
3.15479e-235
1
1
1
0.5
1.80316e-36
2.70465e-108
9.19037e-149
8.69972e-192
7.4398e-278
1.13043e-271
3.98442e-272
5.24468e-278
0
0
0
0
0
0
0
0
1.6557e-231
6.23617e-226
4.69473e-226
1.04467e-231
1.84762e-272
3.69804e-285
0
0
0
0
0
0
5.50061e-187
1.81214e-182
1.11377e-182
5.80765e-187
5.12451e-227
1.76086e-237
3.29413e-282
0
0
0
0
0
5.41055e-145
2.62111e-141
2.09387e-141
5.97226e-145
2.20038e-183
2.71828e-192
3.11382e-235
4.33067e-281
0
0
0
0
1.21236e-105
1.3323e-102
1.26461e-102
1.40813e-105
2.85082e-110
3.45821e-149
2.04555e-190
3.79422e-234
3.12843e-280
0
0
0
2.91515e-68
4.3534e-66
4.23764e-66
3.61635e-68
5.35358e-72
1.6701e-108
5.77836e-115
1.08285e-189
1.19472e-233
4.97919e-280
0
0
2.03945e-33
2.54585e-32
2.5319e-32
2.32681e-33
3.70571e-35
2.54912e-70
2.85868e-75
3.95321e-114
2.00147e-189
1.19629e-233
2.72203e-280
0
1
1
1
1.09068e-32
1.5504e-34
9.99181e-37
3.71217e-75
1.76624e-114
8.4017e-190
1.85897e-234
1.07389e-281
1
1
2.23429e-34
8.66168e-37
4.55962e-108
2.0892e-148
2.7922e-191
6.09989e-236
0
0
0
0
0
0
0
0
0
0
0
0
2.1967e-277
3.14259e-271
2.73051e-271
2.49627e-277
0
0
0
0
0
0
0
0
2.15957e-231
2.04158e-225
2.18695e-225
3.19804e-231
4.07523e-272
1.29306e-284
0
0
0
0
0
0
8.12324e-187
4.94509e-182
3.00535e-182
7.55671e-187
2.40345e-226
4.16385e-237
5.80317e-282
0
0
0
0
0
3.63896e-145
4.96214e-141
2.39302e-141
6.21646e-145
5.42145e-183
3.70086e-192
7.12015e-235
6.60215e-281
0
0
0
0
2.06913e-105
1.05071e-102
8.57728e-103
2.10528e-105
3.51702e-110
3.10474e-149
2.99735e-190
4.17262e-234
3.79416e-280
0
0
0
1.53999e-68
3.18209e-66
1.89656e-66
1.05441e-68
3.39061e-72
1.26853e-108
4.97273e-115
8.97548e-190
1.32092e-233
4.17026e-280
0
0
9.62048e-33
9.60421e-33
9.32598e-34
5.11277e-67
9.17635e-71
4.44945e-108
7.2188e-115
5.6784e-190
4.15716e-234
3.66256e-281
0
3.3182e-33
5.35376e-35
1.16615e-70
1.31801e-108
1.46384e-148
4.46106e-191
9.06678e-236
7.97527e-283
0
0
0
0
0
0
0
0
0
0
0
0
0
0
0
0
0
0
0
0
0
0
0
0
4.424e-277
9.08558e-271
1.02689e-270
7.30192e-277
0
0
0
0
0
0
0
0
2.43112e-231
2.61725e-225
3.0844e-225
3.93138e-231
7.74449e-272
1.82017e-284
0
0
0
0
0
0
4.19423e-187
6.08685e-182
3.4551e-182
1.11069e-186
3.39545e-226
4.25704e-237
4.72183e-282
0
0
0
0
0
1.99505e-145
1.91422e-141
1.94598e-141
5.79288e-145
3.05403e-183
4.69243e-192
5.46548e-235
8.25986e-281
0
0
0
0
5.72436e-106
7.24276e-103
4.49599e-103
4.19535e-106
1.36365e-110
2.62277e-149
8.51791e-191
3.35948e-234
2.16612e-280
0
0
0
5.42689e-67
5.42919e-67
1.71943e-69
6.59107e-104
1.86022e-109
1.57794e-148
8.90996e-191
8.9724e-235
4.55042e-281
0
0
3.6425e-68
5.30917e-72
2.51246e-109
5.21168e-149
1.61327e-191
6.91716e-236
1.00443e-282
0
0
0
0
0
0
0
0
0
0
0
0
0
0
0
0
0
0
0
0
0
0
0
0
0
0
0
0
0
0
0
0
0
0
0
0
0
3.76112e-277
5.5171e-271
9.40519e-271
5.16905e-277
0
0
0
0
0
0
0
0
1.5974e-231
1.30374e-225
1.35833e-225
2.01186e-231
6.60319e-272
2.50598e-284
0
0
0
0
0
0
1.93843e-187
2.61815e-182
2.87022e-182
2.82896e-187
6.70583e-227
2.28645e-237
3.91165e-282
0
0
0
0
0
7.14192e-146
5.90089e-142
1.69198e-142
5.19975e-146
1.04641e-183
1.35065e-192
1.37213e-235
3.0375e-281
0
0
0
0
5.68871e-104
2.88222e-104
1.14229e-106
4.83175e-143
1.2203e-150
1.76528e-191
2.30176e-235
8.77498e-282
0
0
0
1.67027e-105
1.86083e-110
4.30162e-150
4.32703e-192
2.34446e-236
4.27398e-283
0
0
1
1
1
1
1
1
1
1
1
1
1
1
1
1
1
1.61203e-15
4.30697e-15
1.45502e-15
1
4.82562e-48
4.9808e-48
3.90355e-49
1.109e-15
2.88012e-83
5.77697e-83
5.44699e-85
1.2065e-49
1
1
1
1
1
1
1
1
1
1
1
1
1
1
1
1
1
1
1
8.7128e-35
1
1
1.47489e-34
6.56188e-71
0.5
1.14075e-34
1.02299e-70
2.25891e-109
4.24734e-35
3.4667e-71
2.88863e-109
5.62225e-150
9.59778e-104
2.58384e-110
6.03071e-150
6.60006e-193
1.04612e-142
5.74883e-151
1.30781e-193
6.8998e-239
1
1
1
1
1
1
1
1
1
1
1
1
1
1
1
1
1
1
1
1
1
1
1
1
1
1
0.5
1.36355e-15
4.06459e-33
1
1
1.1537e-15
2.64466e-32
1.23085e-48
1.05533e-67
1.38515e-15
1.31668e-15
1.3012e-49
8.1687e-81
3.47474e-84
5.61423e-105
1.7542e-47
1.66823e-47
1
1
7.83863e-34
1.22796e-69
6.959e-107
1
1
1.08259e-15
2.20407e-49
2.3674e-85
1
1
0.5
1.6743e-32
4.00452e-81
1
1
1
1.00874e-15
1.26011e-48
1.45744e-32
1.14476e-66
1.40357e-32
5.14032e-67
1.37738e-33
6.75144e-69
2.92239e-35
7.99207e-73
2.03212e-71
2.1346e-110
1.14265e-109
9.16738e-151
6.46524e-150
2.7163e-193
6.15696e-193
8.08337e-239
9.93192e-239
9.12615e-286
1.17182e-285
0
1
1
1
1
1.04145e-15
2.62867e-48
1
1
1
1
1
1
1.89684e-15
1.85855e-15
1.35423e-30
1.25306e-30
1
1
1
1
1
1
1.8115e-15
2.14719e-15
1.20831e-30
1.5362e-30
1
1
1
1
1
1
1
1
1
1
1
1
1
1
1
1
1
1
1
1
1
1
1
1
1
1
1
1
1
1
1
1
1
1
1
1
1
1
1
1
1
1
1
1
1
1
1
1
1
1
1
1
1
1
1
1
1
1
1
1
1
1
1
1
1
1
1
1
1
1
2.57431e-85
2.13238e-49
5.69078e-16
1
1
1.90992e-85
2.60871e-49
5.047e-16
1
1
5.84273e-104
9.22935e-68
9.91305e-33
1
1
1
1
1
1
1
1
1
1
1
1
1
1
1
1
1
1
1
1
0
0
0
0
0
0
0
0
4.75216e-282
4.50004e-236
0
0
0
0
0
0
0
3.34468e-281
5.53559e-235
7.23692e-191
0
0
0
0
0
0
9.66943e-281
3.97768e-234
7.1613e-190
6.59478e-148
0
0
0
0
0
1.0953e-280
1.57188e-233
2.58197e-189
4.03766e-147
1.35397e-107
0
0
0
0
4.82413e-281
1.53949e-233
2.87106e-189
8.15046e-147
5.25828e-107
2.51234e-69
0
0
0
2.22916e-281
2.71417e-234
2.00612e-189
3.20506e-147
3.90674e-107
4.81394e-69
6.35261e-34
0
0
6.25729e-283
1.63914e-235
1.37211e-190
1.03069e-147
1.30958e-107
1.98816e-69
6.94591e-34
1
0
3.80921e-285
2.72155e-237
4.33164e-192
4.44854e-149
2.83942e-108
8.13451e-70
5.09759e-34
1
1
0
0
0
0
0
0
0
0
1.75489e-281
1.48632e-235
0
0
0
0
0
0
0
1.23115e-280
3.70292e-234
1.99847e-190
0
0
0
0
0
0
2.13566e-280
1.21648e-233
1.07908e-189
8.96253e-148
0
0
0
0
0
3.57634e-280
2.52987e-233
5.96692e-189
5.29193e-147
1.66551e-107
0
0
0
0
1.15247e-280
1.65198e-233
2.83491e-189
1.0529e-146
6.35789e-107
2.856e-69
0
0
0
1.4158e-281
1.7986e-234
1.39536e-189
5.14388e-147
4.65768e-107
5.40831e-69
6.75954e-34
0
0
1.14921e-282
4.75223e-235
3.34325e-190
2.384e-147
2.83347e-107
2.21039e-69
7.3264e-34
1
0
1.34279e-284
2.2004e-237
1.32089e-191
6.31205e-149
3.89143e-108
1.03944e-69
5.34004e-34
1
1
0
0
0
0
0
0
0
0
1.59512e-288
6.11921e-242
0
0
0
0
0
0
0
2.77256e-287
4.42278e-241
9.57301e-195
0
0
0
0
0
0
9.20799e-287
1.2166e-239
2.74176e-194
1.80169e-151
0
0
0
0
0
2.18428e-286
2.70024e-239
1.88712e-193
5.23664e-151
3.50877e-110
0
0
0
0
9.49462e-287
1.94996e-239
2.13687e-193
2.20322e-150
6.74207e-110
2.34377e-71
0
0
0
9.17071e-288
5.32543e-240
7.11911e-194
2.55109e-150
1.36336e-109
4.80434e-71
7.05841e-35
0
0
8.83716e-289
1.05819e-240
2.06113e-194
7.14631e-151
6.55013e-110
4.13813e-71
7.5853e-35
1
0
1.60388e-291
2.4138e-243
5.3949e-197
1.55817e-152
1.05974e-110
7.2937e-72
5.45641e-35
1
1
0
0
0
0
0
0
0
0
0
2.68453e-285
0
0
0
0
0
0
0
0
4.45363e-284
1.80893e-237
0
0
0
0
0
0
0
2.10509e-283
1.40038e-236
6.54326e-192
0
0
0
0
0
0
6.58318e-283
4.21356e-236
3.49646e-191
5.53459e-149
0
0
0
0
0
3.45614e-283
4.37061e-236
3.85713e-191
1.72929e-148
1.37624e-108
0
0
0
0
2.86839e-284
1.17018e-236
1.3918e-191
1.18767e-148
1.74193e-108
8.57028e-37
0
0
0
4.2417e-285
1.78063e-237
4.23514e-192
6.27525e-149
2.54539e-108
1.5903e-36
0.5
0
0
1.86912e-287
3.89039e-239
1.76952e-193
4.472e-150
7.12227e-109
7.35267e-37
0.5
1
0
0
0
0
0
0
0
0
0
0
0
0
0
0
0
0
0
0
0
1.90183e-283
0
0
0
0
0
0
0
0
2.12925e-282
9.33384e-236
0
0
0
0
0
0
0
5.98913e-282
4.29947e-235
1.30232e-190
0
0
0
0
0
0
7.81702e-282
9.53123e-235
4.76532e-190
1.24372e-114
0
0
0
0
0
4.69057e-282
7.60943e-235
5.1108e-190
2.75613e-114
8.71326e-75
0
0
0
0
1.12553e-282
1.76705e-235
3.57766e-190
3.93353e-114
9.63504e-75
3.12381e-36
0
0
0
1.41729e-284
8.90496e-237
4.85766e-191
3.89387e-115
2.27715e-75
2.69043e-36
1
0
0
0
0
0
0
0
0
0
0
0
0
0
0
0
0
0
0
0
0
0
0
0
0
0
0
0
0
0
8.89235e-282
0
0
0
0
0
0
0
0
3.91043e-281
1.56228e-234
0
0
0
0
0
0
0
8.90922e-281
4.1243e-234
7.81035e-190
0
0
0
0
0
0
6.82084e-281
6.23815e-234
1.08736e-189
3.03436e-114
0
0
0
0
0
1.55691e-281
1.98365e-234
1.11383e-189
4.95739e-114
1.43156e-74
0
0
0
0
6.7261e-283
2.38054e-235
2.36378e-190
1.59944e-114
7.98137e-75
3.21615e-36
0
0
0
0
0
0
0
0
0
0
0
0
0
0
0
0
0
0
0
0
0
0
0
0
0
0
0
0
0
0
0
0
0
0
0
0
0
0
0
5.28297e-281
0
0
0
0
0
0
0
0
1.52213e-280
4.05206e-234
0
0
0
0
0
0
0
2.69879e-280
9.99196e-234
1.21104e-189
0
0
0
0
0
0
1.09608e-280
9.54059e-234
1.71509e-189
2.3836e-114
0
0
0
0
0
1.26488e-281
1.17698e-234
5.88256e-190
1.75826e-114
3.47825e-75
0
0
0
0
0
0
0
0
0
0
0
0
0
0
0
0
0
0
0
0
0
0
0
0
0
0
0
0
0
0
0
0
0
0
0
0
0
0
0
0
0
0
0
0
0
0
0
0
0
6.50549e-281
0
0
0
0
0
0
0
0
2.38579e-280
4.6852e-234
0
0
0
0
0
0
0
2.18331e-280
7.06972e-234
3.63005e-190
0
0
0
0
0
0
1.64503e-281
1.78675e-234
3.07751e-190
3.09913e-115
0
0
0
0
0
0
0
0
0
0
0
0
0
0
0
0
0
0
0
0
0
0
0
0
0
0
0
0
0
0
0
0
0
0
0
0
0
0
0
0
0
0
0
0
0
0
0
0
0
0
0
0
0
0
0
0
0
0
0
6.28375e-281
0
0
0
0
0
0
0
0
1.06714e-280
6.40752e-235
0
0
0
0
0
0
0
2.17673e-281
4.86597e-235
6.14877e-191
0
0
0
0
0
0
0
0
0
0
0
0
0
0
0
0
0
0
0
0
0
0
0
0
0
0
0
0
0
0
0
0
0
0
0
0
0
0
0
0
0
0
0
0
0
0
0
0
0
0
0
0
0
0
0
0
0
0
0
0
0
0
0
0
0
0
0
0
0
9.15206e-282
0
0
0
0
0
0
0
0
5.31882e-282
6.97867e-236
1
1
1
1
1
1
1
1
1
1
1
1
1
1
1
1
1
1
1
1
1
1
1
1
1
1
1
1
1
1
1
1
1
1.96215e-34
1
1
0.5
1
1
4.97514e-71
4.67576e-35
2.57868e-33
3.70342e-35
3.22944e-33
1.41576e-15
1.89801e-109
4.26842e-72
4.8512e-68
5.65407e-104
7.29411e-68
6.4534e-49
1.4675e-150
1.34715e-110
1.93518e-105
1.06817e-142
3.40364e-105
1.4562e-84
2.67629e-192
3.05231e-182
1.6362e-143
6.18313e-149
9.17039e-141
2.19849e-104
1.56135e-108
2.89057e-102
1.94548e-67
5.86985e-70
1.21992e-34
7.42405e-33
3.88562e-34
0.5
1
1
1
1
1
1
1
1
1
1
8.72998e-192
1.01519e-181
2.74692e-143
1.76732e-148
6.56069e-141
3.0295e-104
1.98711e-108
3.60865e-102
2.32179e-67
3.39268e-70
1.31797e-34
7.93422e-33
4.16986e-34
0.5
1
1
1
1
1
1
1
1
1
1
7.72875e-197
9.16214e-187
1.74219e-162
7.16275e-153
5.53543e-145
5.06298e-107
5.5897e-111
3.71369e-105
9.82465e-70
8.13852e-72
5.68615e-68
6.97505e-34
2.99298e-35
3.3803e-33
1
1
1
1
1
1
1
1
1
1
9.0651e-240
3.53454e-195
3.60388e-187
1.26017e-193
2.10839e-151
8.12801e-145
2.1221e-150
1.29548e-110
2.42019e-105
1.77494e-109
2.32174e-71
7.019e-68
1.14555e-70
5.12855e-35
3.78283e-33
1.71111e-34
1
1
1
1
1
1
1
1
2.9437e-285
1.64363e-239
6.1306e-229
1.91687e-237
7.46176e-194
7.48902e-185
9.26973e-192
2.89989e-150
3.85286e-111
2.57586e-115
3.36297e-109
2.55693e-72
1.8161e-75
9.40492e-71
3.3872e-35
1.17069e-36
1.71797e-34
1
1
1
1
1
1
1
0
3.49781e-286
1.36464e-273
6.33433e-283
2.5606e-238
2.77799e-227
2.57868e-235
9.04468e-193
1.15034e-183
1.24886e-190
1.7682e-149
6.10725e-110
1.30305e-114
8.13147e-109
1.02773e-71
5.13743e-75
2.45738e-70
7.09171e-35
2.13828e-36
2.22322e-34
1
0.5
1
1
0
0
0
0
6.55199e-285
1.05213e-272
4.1696e-282
1.51211e-237
8.92418e-227
8.7255e-235
3.39501e-192
3.61673e-183
4.89089e-190
4.43918e-149
4.84234e-110
7.42803e-115
1.51028e-108
8.55183e-72
1.47499e-75
1.47539e-70
3.51231e-35
9.64289e-37
1.39065e-34
8.79145e-33
0
0
0
0
0
0
0
1.21675e-284
4.77074e-272
8.07509e-282
4.45301e-237
2.77185e-226
1.42104e-234
5.10602e-192
4.03148e-183
2.84903e-190
4.63811e-149
2.87312e-110
2.43805e-115
5.22972e-109
3.15223e-72
3.03245e-108
4.29387e-71
4.01676e-67
0
0
0
0
0
0
0
0
0
0
3.07771e-284
4.68231e-272
9.80762e-282
6.03042e-237
1.97406e-226
5.88724e-235
5.24728e-192
2.1534e-183
6.91687e-191
1.50121e-149
1.20729e-110
4.74362e-149
9.38719e-110
4.88245e-104
0
0
0
0
0
0
0
0
0
0
0
0
0
1.64726e-284
3.58138e-272
1.56123e-282
1.69433e-237
1.09905e-226
4.95203e-236
9.95425e-193
1.11328e-183
4.43208e-192
2.37532e-151
3.39346e-143
6.19462e-124
3.94026e-124
2.05792e-158
9.83414e-165
6.10145e-124
1.27128e-85
1.79742e-49
6.81517e-16
1
0
3.96919e-271
2.61212e-193
8.38388e-151
1.74318e-109
1.21742e-70
1.83938e-34
1
1
1
1.00256e-274
7.58988e-228
1.2384e-184
3.84011e-142
2.88457e-103
7.05164e-67
1.68124e-32
1
1
1
2.66641e-248
1.09281e-203
9.1979e-161
3.75555e-121
1.96199e-83
2.73745e-33
0.5
1
2.69684e-241
4.68113e-166
1.27093e-125
1.04214e-86
3.32621e-50
3.08599e-16
1
1
5.97206e-222
2.21591e-164
0
2.18812e-271
5.64894e-194
1.23491e-150
4.41542e-109
1.37141e-70
1.92196e-34
1
1
1
3.25484e-274
4.93967e-228
5.02671e-184
3.03764e-142
3.69281e-103
7.81479e-67
1.74582e-32
1
1
1
5.44622e-248
2.52334e-202
9.81607e-161
1.09713e-120
2.24359e-83
2.97242e-33
0.5
1
2.01143e-224
2.90976e-165
3.35635e-125
4.63687e-86
5.90138e-50
4.24753e-16
1
1
1.33706e-222
1.24762e-164
0
1.16894e-277
4.30859e-231
2.43291e-186
2.69899e-112
3.78982e-73
1.94665e-35
1
1
1
2.14973e-281
7.46497e-234
4.31848e-189
1.43618e-146
1.82134e-106
1.52683e-68
1.41026e-33
1
1
1
2.21176e-269
9.33656e-224
1.24992e-180
9.246e-140
9.44453e-86
1.56912e-49
6.91084e-16
1
1.71539e-245
1.7366e-201
1.76919e-159
1.22999e-119
7.14611e-83
6.71461e-33
0.5
1
1.0391e-244
1.79708e-200
0
2.06112e-289
1.45991e-240
9.50602e-195
9.76887e-152
3.42325e-110
2.6208e-71
1.11768e-34
1
1
0
1.9352e-277
3.85422e-230
9.9921e-186
2.62209e-111
1.41095e-72
2.70146e-35
1
1
1
4.77413e-282
5.50616e-235
6.75033e-189
1.44998e-146
2.3021e-106
5.73287e-69
1.25036e-33
1
4.65338e-272
5.35942e-226
9.72904e-183
3.86624e-141
1.32797e-102
2.87052e-66
3.15659e-32
1
1.53935e-253
1.96774e-207
0
0
3.39173e-287
5.54669e-239
2.70967e-193
6.5501e-150
9.11762e-109
8.34581e-37
0.5
1
0
9.87293e-291
1.11784e-242
7.48936e-196
3.94503e-152
1.68975e-110
1.64625e-71
7.78027e-35
1
1
0
2.87665e-279
4.9254e-232
3.12481e-187
8.61366e-145
2.24491e-105
7.88413e-68
3.82039e-33
0
3.23088e-269
1.92933e-223
3.86041e-180
1.22781e-139
2.81543e-101
3.09719e-34
0.5
2.04852e-297
2.93713e-250
8.06687e-205
7.13277e-162
7.86323e-107
1.66943e-69
1.24839e-33
1
0
0
0
3.52936e-285
2.30724e-237
5.51567e-192
7.33401e-149
2.79071e-108
1.66449e-36
0.5
0
0
1.60335e-288
1.13189e-240
3.2063e-194
7.1308e-151
9.74817e-110
6.44527e-71
1.30665e-34
1
0
0
6.86107e-277
5.39241e-230
1.19138e-185
4.49071e-144
2.20259e-104
1.91559e-35
0
4.94066e-314
3.61123e-267
1.57484e-221
6.60308e-179
9.01668e-108
4.39954e-70
6.72411e-34
0
9.43857e-295
1.58388e-247
1.46422e-202
2.40901e-160
1.27183e-105
1.08426e-68
3.10591e-33
0
0
0
0
5.2943e-284
1.7223e-236
2.61663e-191
2.12872e-148
5.95334e-108
7.99244e-37
0
0
0
1.23344e-287
8.95259e-240
1.26711e-193
3.26132e-150
1.51203e-109
4.90725e-71
9.96543e-35
0
0
0
9.57074e-276
3.31063e-229
3.28532e-185
1.82449e-143
3.63296e-104
0
0
1.4822e-313
2.34855e-266
3.69495e-221
1.35635e-178
2.20237e-107
7.20221e-70
0
0
1.4614e-292
7.79296e-246
5.74455e-201
4.68193e-159
7.75669e-105
2.34834e-68
0
0
0
0
0
2.38842e-283
5.53714e-236
5.1126e-191
3.01598e-148
1.16941e-108
0
0
0
0
1.20846e-286
4.80648e-239
2.4792e-193
5.13305e-150
1.70139e-109
2.74428e-71
0
0
0
0
4.25543e-275
1.06142e-228
7.55852e-185
2.81459e-143
0
0
0
5.92879e-313
1.20795e-265
2.06388e-220
5.41551e-178
4.22218e-107
0
0
0
1.97285e-291
8.44888e-245
2.21119e-200
1.51595e-158
7.62653e-105
0
0
0
0
0
0
4.09781e-283
6.52807e-236
4.14594e-191
6.77098e-149
0
0
0
0
0
3.5377e-286
5.10518e-239
1.68835e-193
1.75014e-150
1.80048e-110
0
0
0
0
0
8.58643e-275
1.05433e-228
3.81354e-185
0
0
0
0
2.12448e-312
3.42698e-265
2.50109e-220
4.33553e-178
0
0
0
0
7.74848e-291
3.12346e-244
4.98393e-200
1.10841e-158
0
0
0
0
0
0
0
1.43903e-283
2.62889e-236
4.68427e-192
0
0
0
0
0
0
2.00317e-286
2.54746e-239
1.13511e-193
1.69772e-151
0
0
0
0
0
0
8.04263e-275
2.26066e-229
0
0
0
0
0
2.2233e-312
2.51218e-265
1.14591e-220
0
0
0
0
0
1.63434e-290
3.74968e-244
1.84908e-200
1
1
1
1
1
1
1
1
1
1
1
1
1
1
1
1
1
1
1
1
1
1
0.5
1
1
1
1
1
1.5319e-35
4.23259e-33
3.40202e-34
7.00675e-16
3.70766e-33
0.5
1.17e-104
9.81395e-68
2.95196e-70
4.42696e-65
8.32989e-69
1.61888e-33
9.13671e-144
5.24303e-105
1.01991e-107
5.38224e-101
1.72656e-105
3.76163e-83
7.07193e-186
1.93351e-144
9.15441e-179
4.31619e-139
2.86123e-159
2.4442e-120
1
1
1
1.21321e-15
1.11674e-47
1
1
1
1
1
1
1
1
1
1
1
1
1
1
1
1
1
1
1
1
1
1
1
1
1
1
1
1
1
1
1
1
1
1
1
1
1
1
1
1
1.53035e-33
1.02901e-15
0.5
3.04259e-32
7.82283e-15
1
1.30766e-15
7.25571e-15
1.69936e-68
7.10005e-49
2.46266e-32
7.62444e-66
6.75964e-47
1.16491e-15
7.81756e-49
5.89956e-30
3.91934e-106
1.20948e-84
1.62691e-80
3.86896e-102
2.65968e-81
1.95533e-48
2.42317e-84
6.3926e-64
1
1
1
1
1
1
1
1
1
1
1
1
1
1
1
1
1
1
1
1
1
1
1
1
1
1
1
1
1
1
1
1
1
1
1
1
1
1
1
1
1
1
1
1
1
1
1
1
1
1
1
1
1
1
1
1
1
1
1
1
1
1
1
1
1
1
1
1
1
1
1
1
1
1
1
1
1
1
1
1
1
1
1
1
1
1
1
1
1
1
1
1
1
1
1
1
1
1
1
1
1
1
1
1
1
1
1
1
1
1
1
1
1
1
1
1
1
1
1
1
1
1
1
1
1
1
1
1
1
1
1
1
1
1
1
1
1
1
7.1473e-16
1
1
1
6.0744e-16
1
1
1
2.04099e-32
1
1
1
4.39722e-34
0.5
1
1
9.14033e-69
1.37534e-33
1
1
1
1
1
1
1
1
1
1
1
1
1
1
1
1
1
1
1
1
1
1
1
1
1
1
1
1
1
1
1
1
1
1
1
1
1
1
1
1
1
1
1
1
1
1
1
1
1
1
1
1
1
1
1
1
1
1
1
1
1
1
1
1
1
1
1
1
1
1
1
1
1
1
1
1
1
1
1
1
1
1
1
1
1
1
1
1
1
1
1
1
1
1
1
1
1
1
1
1
1
1
1
1
1
1
1
1
1
1
1
1
1
1
1
1
1
1
1
1
1
1
1
1
1
1
1
1
1
1
1
1
1
1
1
1
1
1
1
1
1
1
1
1
1
1
1
1
1
1
1
1
1
1
1
1
1
1
1
1
1
1
1
1
1
1
1
1
1
1
1
1
1
1
1
1
1
1
1
1
1
1
1
1
1
1
1
1
1
1
1
1
1
1
1
1
1
1
1
1
1
1
1
1
1
1
1
1
1
1
1
1
1
1
1
1
1
1
1
1
1
1
1
1
1
1
1
1
1
1
1
1
1
1
1
1
1
1
1
1
1
1
1
1
1
1
1
1
1
1
1
1
1
1
1
1
1
1
1
1
1
1
1
1
1
1
1
1
1
1
1
1
1
1
1
1
1
1
1
1
1
1
1
1
1
1
1
1
1
1
1
1
1
1
1
1
1
1
1
1
1
1
1
1
1
1
1
1
1
1
1
1
1
1
1
1
1
1
1
1
1
1
1
1
1
1
1
1
1
1
1
1
1
1
1
1
1
1
1
1
1
1
1
1
1
1
1
1
1
1
1
1
1
1
1
1
1
1
1
1
1
1
1
1
1
1
1
1
1
1
1
1
1
1
1
1
1
1
1
1
1
1
1
1
1
1
1
1
1
1
1
1
1
1
1
1
1
1
1
1
1
1
1
1
1
1
1
1
1
1
1
1
1
1
1
1
1
1
1
1
1
1
1
1
1
1
1
1
1
1
1
1
1
1
1
1
1
1
1
1
1
1
1
1
1
1
1
1
1
1
1
1
1
1
1
1
1
1
1
1
1
1
1
1
1
1
1
1
1
1
1
1
1
1
1
1
1
1
1
1
1
1
1
1
1
1
1
1
1
1
1
1
1
1
1
1
1
1
1
1
1
1
1
1
1
1
1
1
1
1
1
1
1
1
1
1
1
1
1
1
1
1
1
1
1
1
1
1
1
1
1
1
1
1
1
1
1
1
1
1
1
1
1
1
1
1
1
1
1
1
1
1
1
1
1
1
1
1
1
1
1
1
1
1
1
1
1
1
1
1
1
1
1
1
1
1
1
1
1
1
1
1
1
1
1
1
1
1
1
1
1
1
1
1
1
1
1
1
1
1
1
1
1
1
1
1
1
1
1
1
1
1
1
1
1
1
1
1
1
1
1
1
1
1
1
1
1
1
1
1
1
1
1
1
1
1
1
1
1
1
1
1
1
1
1
1
1
1
1
1
1
1
1
1
1
1
1
1
1
1
1
1
1
1
1
1
1
1
1
1
1
1
1
1
1
1
1
1
1
1
1
1
1
1
1
1
1
1
1
1
1
1
1
1
1
1
1
1
1
1
1
1
1
1
1
1
1
1
1
1
1
1
1
1
1
1
1
1
1
1
1
1
1
1
1
1
1
1
1
1
1
1
1
1
1
1
1
1
1
1
1
1
1
1
1
1
1
1
1
1
1
1
1
1
1
1
1
1
1
1
1
1
1
1
1
1
1
1
1
1
1
1
1
1
1
1
1
1
1
1
1
1
1
1
1
1
1
1
1
1
1
1
1
1
1
1
1
1
1
1
1
1
1
1
1
1
1
1
1
1
1
1
1
1
1
1
1
1
1
1
1
1
1
1
1
1
1
1
1
1
1
1
1
1
1
1
1
1
1
1
1
1
1
1
1
1
1
1
1
1
1
1
1
1
1
1
1
1
1
1
1
1
1
1
1
1
1
1
1
1
1
1
1
1
1
1
1
1
1
1
1
1
1
1
1
1
1
1
1
1
1
1
1
1
1
1
1
1
1
1
1
1
1
1
1
1
1
1
1
1
1
1
1
1
1
1
1
1
1
1
1
1
1
1
1
1
1
1
1
1
1
1
1
1
1
1
1
1
1
1
1
1
1
1
1
1
1
1
1
1
1
1
1
1
1
1
1
1
1
1
1
1
1
1
1
1
1
1
1
1
1
1
1
1
1
1
1
1
1
1
1
1
1
1
1
1
1
1
1
1
1
1
1
1
1
1
1
1
1
1
1
1
1
1
1
1
1
1
1
1
1
1
1
1
1
1
1
1
1
1
1
1
1
1
1
1
1
1
1
1
1
1
1
1
1
1
1
1
1
1
1
1
1
1
1
1
1
1
1
1
1
1
1
1
1
1
1
1
1
1
1
1
1
1
1
1
1
1
1
1
1
1
1
1
1
1
1
1
1
1
1
1
1
1
1
1
1
1
1
1
1
1
1
1
1
1
1
1
1
1
1
1
1
1
1
1
1
1
1
1
1
1
1
1
1
1
1
1
1
1
1
1
1
1
1
1
1
1
1
1
1
1
1
1
1
1
1
1
1
1
1
1
1
1
1
1
1
1
1
1
1
1
1
1
1
1
1
1
1
1
1
1
1
1
1
1
1
1
1
1
1
1
1
1
1
1
1
1
1
1
1
1
1
1
1
1
1
1
1
1
1
1
1
1
1
1
1
1
1
1
1
1
1
1
1
1
1
1
1
1
1
1
1
1
1
1
1
1
1
1
1
1
1
1
1
1
1
1
1
1
1
1
1
1
1
1
1
1
1
1
1
1
1
1
1
1
1
1
1
1
1
1
1
1
1
1
1
1
1
1
1
1
1
1
1
1
1
1
1
1
1
1
1
1
1
1
1
1
1
1
1
1
1
1
1
1
1
1
1
1
1
1
1
1
1
1
1
1
1
1
1
1
1
1
1
1
1
1
1
1
1
1
1
1
1
1
1
1
1
1
1
1
1
1
1
1
1
1
1
1
1
1
1
1
1
1
1
1
1
1
1
1
1
1
1
1
1
1
1
1
1
1
1
1
1
1
1
1
1
1
1
1
1
1
1
1
1
1
1
1
1
1
1
1
1
1
1
1
1
1
1
1
1
1
1
1
1
1
1
1
1
1
1
1
1
1
1
1
1
1
1
1
1
1
1
1
1
1
1
1
1
1
1
1
1
1
1
1
1
1
1
1
1
1
1
1
1
1
1
1
1
1
1
1
1
1
1
1
1
1
1
1
1
1
1
1
1
1
1
1
1
1
1
1
1
1
1
1
1
1
1
1
1
1
1
1
1
1
1
1
1
1
1
1
1
1
1
1
1
1
1
1
1
1
1
1
1
1
1
1
1
1
1
1
1
1
1
1
1
1
1
1
1
1
1
1
1
1
1
1
1
1
1
1
1
1
1
1
1
1
1
1
1
1
1
1
1
1
1
1
1
1
1
1
1
1
1
1
1
1
1
1
1
1
1
1
1
1
1
1
1
1
1
1
1
1
1
1
1
1
1
1
1
1
1
1
1
1
1
1
1
1
1
1
1
1
1
1
1
1
1
1
1
1
1
1
1
1
1
1
1
1
1
1
1
1
1
1
1
1
1
1
1
1
1
1
1
1
1
1
1
1
1
1
1
1
1
1
1
1
1
1
1
1
1
1
1
1
1
1
1
1
1
1
1
1
1
1
1
1
1
1
)
;

boundaryField
{
    ground
    {
        type            zeroGradient;
    }
    outlet
    {
        type            zeroGradient;
    }
    wall
    {
        type            zeroGradient;
    }
    wall2
    {
        type            zeroGradient;
    }
    wall3
    {
        type            zeroGradient;
    }
    internalPatch
    {
        type            internal;
    }
    procBoundary1to0
    {
        type            processor;
        value           nonuniform List<scalar> 
303
(
9.83025e-16
5.99077e-49
5.01607e-84
4.39782e-84
1.20916e-101
4.02626e-105
2.48639e-110
1.06212e-71
8.14091e-35
1
1
1
1
1
1
1
1
1
1
1
1
1
1
1
1
1
1
1
1
1
1
1
1
1
1
1
1
1
1
1
1
1
1
1
1
1
1
1
1
1
1
1
1
1
1
1
1
1
1
1
1
1
1
1
1
1
1
1
1
1
1
1
1
1
1
1
1
1
1
1
1
1
1
1
1
1
1
1
1
1
1.03636e-15
1.01266e-48
2.00812e-65
7.55167e-68
3.01281e-33
1
1
1
1
1
1
1
1
1
1
1
1
1
1
1
1
1
1
1
1
1
1
1
1
1
1
1
1
1
1
1
1
1
1
1
1
1
1
1
1
1
1
1
1
1
1
1
1
1
1
1
1
1
1
1
1
1
1
1
1
1
1
1
1
1
1
1
1
1
1
1
1
1
1
1
1
1
1
1
1
1
6.90045e-32
1
1
1
1
1
1
1
1
1
1
1
1
1