/*--------------------------------*- C++ -*----------------------------------*\
  =========                 |
  \\      /  F ield         | OpenFOAM: The Open Source CFD Toolbox
   \\    /   O peration     | Website:  https://openfoam.org
    \\  /    A nd           | Version:  9
     \\/     M anipulation  |
\*---------------------------------------------------------------------------*/
FoamFile
{
    format      ascii;
    class       volScalarField;
    location    "0.00115";
    object      overpressureMax;
}
// * * * * * * * * * * * * * * * * * * * * * * * * * * * * * * * * * * * * * //

dimensions      [1 -1 -2 0 0 0 0];

internalField   nonuniform List<scalar> 
9532
(
1.25707e+06
909881
3512.17
25794.4
371.03
0.042191
1.50584
54921.2
426258
224.971
3.31294
1.14352e+06
11309
353088
363926
1.01279e+06
965.728
14.5277
1.21633e+06
1.20093e+06
1.16367e+06
1.14619e+06
1.1107e+06
1.01944e+06
1.07962e+06
9821.48
14.4645
731.693
9.72212
42447.9
0.968134
0.0360471
322230
291686
175940
114787
48315.1
33185.6
11006.2
1.1888e+06
1.03319e+06
1.13993e+06
856203
1.07082e+06
886301
543965
46.5564
0.0403441
5.13926
0.10696
0.949499
0.0249236
0.00916599
1.14293e+06
935477
1.10943e+06
771859
472826
363364
868005
934109
259259
846531
539267
93597.8
53901.8
649398
126284
8491.56
53647.5
1033.99
6421.81
2184.52
341.058
184749
12523.1
68982.4
2204.23
11905.4
2855.23
498.591
408159
641936
379304
131809
36178.7
109427
5228.96
779328
751196
1.03889e+06
544636
20121.5
156328
181953
5678.1
73.7745
1939.14
51.7108
1330.07
442.905
17.0099
268777
96039.9
645482
291337
1499.78
12777
55964.2
2147.49
2431.21
13371.4
532.869
14.204
82.5168
93.8223
179387
10505.7
35896.8
535.076
19857.6
5983.34
259990
58036.7
1170.59
7937.07
386.822
2167.89
283.237
44.4779
277677
1761.38
17989
1219.51
13251.8
592.965
55.5
1136.56
391.185
137.565
124.845
43.9509
15.2063
4.78423
54055.5
162.744
542.214
128.289
4900.85
1418.91
6098.59
83.9587
17.6823
473.094
109.398
0.820498
4.26635
19.1407
25591.1
37.3938
1197.54
97.5457
3493.63
164.111
4.97181
40.1967
9.80375
258.498
84.4248
0.505308
12.9916
3.21902
276.201
4.88212
29.4454
1.82699
10.4436
1.13567
0.226586
115.799
81.7813
886.638
30.6898
0.436215
2.84098
4.36152
2162.72
1.14033e+06
1.3895e+06
71643.4
724987
364953
1.85943e+06
1.12593e+06
332477
1201.27
1.3878e+06
1.21504e+06
1.44987e+06
1.29085e+06
1.14885e+06
1.64231e+06
1.41666e+06
1.01225e+06
443643
722842
1.01487e+06
1.07463e+06
712778
79793.8
653869
22234.6
639689
611973
506063
33059.9
500.173
1.77753e+06
1.81004e+06
1.73899e+06
1.68066e+06
1.62656e+06
1.59123e+06
1.64334e+06
1.58799e+06
1.24491e+06
1.12074e+06
1.43489e+06
1.27908e+06
1.07872e+06
542250
1.45813e+06
1.6111e+06
1.63819e+06
1.38848e+06
1.52277e+06
1.49569e+06
1.37297e+06
1.69298e+06
1.69736e+06
1.75634e+06
1.54853e+06
1.55039e+06
1.5001e+06
1.59996e+06
991748
1.25285e+06
1.23835e+06
1.22639e+06
1.01389e+06
1.03331e+06
1.22887e+06
815138
814968
733510
689231
810910
828552
687163
1.10718e+06
883772
16715
315469
1.20787e+06
108629
44.0586
1.5254e+06
1.34548e+06
1.48142e+06
1.44926e+06
1.36197e+06
1.31685e+06
1.49442e+06
677447
673871
694261
630661
600300
621785
587479
1.44265
621382
24843.4
70400.9
641854
5360.66
4.33779
1.43616e+06
1.5429e+06
1.57858e+06
1.46457e+06
1.32753e+06
1.43008e+06
1.35249e+06
574735
6388.94
93.9661
3237.65
165075
15.0807
0.212852
1.04082e+06
1.27534e+06
1.26713e+06
1.0556e+06
1.22125e+06
1.07499e+06
1.22804e+06
1.63672e+06
1.57248e+06
1.52741e+06
1.49521e+06
1.44665e+06
1.39003e+06
1.43591e+06
1.29454e+06
1.30446e+06
1.40885e+06
1.38323e+06
1.1958e+06
1.26969e+06
1.28633e+06
1.40927e+06
1.3295e+06
1.24242e+06
1.41447e+06
1.36428e+06
1.28155e+06
1.45813e+06
714764
859648
829332
853941
663441
871508
691424
1082.34
0.0590659
0.659992
594184
11251.6
328498
278.985
659471
1.36339e+06
1.23594e+06
6474.33
866865
91.228
180963
1.50405e+06
1.35619e+06
1.45994e+06
1.29716e+06
1.39002e+06
1.34514e+06
1.26419e+06
1.18428e+06
954026
1.02556e+06
1.0368e+06
1.11607e+06
893202
1.17869e+06
646107
632643
660075
557117
610395
555132
476444
1.35191e+06
1.17358e+06
1.20569e+06
1.23623e+06
1.31705e+06
1.23996e+06
1.26283e+06
652700
652967
830890
817384
343991
556955
615020
622159
640545
659424
527893
584063
552454
458467
1.50502e+06
1.39332e+06
1.46183e+06
1.33231e+06
1.31333e+06
1.2734e+06
1.37543e+06
1.19954e+06
1.36477e+06
1.31673e+06
1.26653e+06
1.19685e+06
1.15548e+06
1.31147e+06
1.27247e+06
1.25895e+06
1.12582e+06
1.20734e+06
1.08482e+06
1.18687e+06
1.03659e+06
900541
688207
924969
575759
825159
697352
412194
562678
223373
494785
230466
512975
427946
128099
1.03444e+06
1.08697e+06
1.15567e+06
631290
986529
791951
1.16975e+06
1.3196e+06
1.35419e+06
1.4102e+06
1.29687e+06
1.1921e+06
1.24386e+06
1.22959e+06
647967
555896
458113
445554
544486
217205
233390
764332
207211
222660
417331
659788
409364
540839
586961
617247
588154
484310
193458
368856
349024
1.16935e+06
1.20714e+06
1.27691e+06
1.23475e+06
1.0366e+06
1.12986e+06
1.17743e+06
634454
372719
479668
418313
520636
183739
134891
1.21565e+06
1.14553e+06
1.20027e+06
1.01848e+06
1.11004e+06
1.16315e+06
1.25641e+06
633547
559854
448478
468308
340329
269171
151997
1.324e+06
1.29054e+06
1.25377e+06
1.24917e+06
1.21218e+06
1.15118e+06
1.18438e+06
27.8501
163651
1.1556e+06
5.67988
13150.8
0.0624077
4.28857
114656
291240
426075
322380
10999.3
175848
48394.9
543871
303289
415136
318931
208315
80282.2
34163.1
103169
246556
403197
312241
7744.76
43455.4
142929
1.18817e+06
854747
1.03226e+06
885014
1.06995e+06
1.13943e+06
1.14294e+06
1.23698e+06
1.04413e+06
1.12506e+06
1.06251e+06
1.15883e+06
903287
650849
1.29247e+06
1.18693e+06
1.22688e+06
1.13505e+06
1.1866e+06
1.12173e+06
939288
502093
164464
348320
59804.9
198335
53385.9
9304.26
1.13411e+06
403544
879781
673033
1.06279e+06
690800
167283
560960
657160
853352
458125
29476
167729
175629
1.09299e+06
1.21825e+06
1.18283e+06
1.0373e+06
787059
681436
1.09744e+06
72593.3
232902
479735
235087
2819.36
13561.8
68202.5
459761
34646
74871.1
191925
107553
10896.3
2882.93
185156
2216.57
12563.5
2859.52
69067.3
11952
55216.8
60966.3
331094
313056
34975.8
3054.52
2601.34
40729.7
404697
74079.8
278798
9516.51
78997.2
28383.4
3187.63
1.14236e+06
770649
1.10888e+06
934672
471667
362314
1.012e+06
58263.7
3525.12
86988.3
10460.8
230.847
388.135
6339.14
214650
43644.7
274622
24978.5
1019.4
1816.14
14488.1
4713.99
119383
108533
14327.7
614.381
16543.7
533.519
125802
2179.02
53507.7
1027.46
25625.9
8460.34
339.835
981166
1.03908e+06
1.15801e+06
893766
108226
428270
537380
778141
543206
1.03808e+06
750191
19990.1
155629
362836
838875
980008
844329
468129
294853
466459
51232.3
377537
640450
908647
406442
5183.04
35806.7
130931
30267.3
449.168
12540.6
110.956
3145.91
1230.88
43.1643
139128
4161.99
65970.6
460.6
6897.05
2634.63
165.462
30415.7
18814.8
135819
6953.71
126.897
755.881
1204.71
324407
6352.97
2999.98
59398.7
23843.9
2295.38
252.374
545407
183785
96678.2
3575.44
55419.5
116290
657526
57446.4
383.225
1160.38
280.501
2144.37
7865.22
9731.02
2434.1
532.454
13364.6
2143.58
14.1449
82.3171
370.948
339333
6477.93
79944.9
15822.7
664118
643253
770081
715487
37523.2
388138
393.504
235508
8349.72
653566
635767
695156
544806
745896
773620
750160
656649
653817
636892
640358
755889
730800
763667
739141
648810
631560
625313
744514
718986
729881
704452
626041
617583
607564
94.8643
675960
482496
507516
959.106
8605.46
10.6369
720946
680545
686478
616142
582857
575575
620551
699648
708383
673116
610524
536640
561371
604073
381906
564183
561710
533317
287037
277656
538297
712988
670011
687731
601741
614595
591257
546770
551887
366211
557910
522924
217779
255248
504690
688554
640619
674315
495512
591490
561653
431592
297319
539193
513055
166034
473886
424829
106571
650772
655052
565513
613625
483528
463767
326885
640931
611683
658266
506496
201074
417736
334702
156740
394041
466873
351054
18010.7
52964.3
242992
452266
33119.4
315396
145711
302318
135706
460839
433007
85560.5
225511
25066
273071
114878
400056
52607.2
161979
349260
273663
3768.31
24627.8
94024.6
619722
313442
507564
144323
342016
144350
28363.8
591382
241376
426107
77236.1
279549
118935
15756.2
142678
283277
26434.3
5054.13
119978
34336
1174.5
175296
3045.48
1350.36
11273.8
9338.95
81061.3
38816.5
508942
693161
516983
837035
418851
669689
788655
450790
836325
821837
819943
705068
704657
691267
692260
680693
820024
802736
830239
812658
699416
686531
791368
806079
803919
678609
669046
666939
680054
789521
657825
775354
782615
797675
674211
662489
516068
600465
599883
589256
506800
590441
505305
591683
494181
582317
512877
595929
585698
500707
580130
486980
447209
573275
571586
581526
484643
466904
573574
564493
576782
436869
568013
477867
307.886
3339.3
88869
69145
295272
24460.1
2510.01
32.2435
220.431
6368.13
1352.34
39478.7
6369.3
220.454
774.312
2808.17
22690.1
4855.08
18.7008
548.664
166.809
40.9814
4392.12
152.044
393.715
3.479
13.6294
101.031
1184.18
5061.03
20463.5
786.604
11.2261
192.869
47.3324
620452
7511.73
105655
6462.45
99132.4
4180.75
263.888
1334.06
3.70464
117.173
56.6878
100.067
1553.27
48.7385
136.633
388.79
3489.35
1131.84
4.73692
43.7415
124.349
295579
3314.43
827.137
1486.65
13272.7
29884.9
54559
276519
588.469
17855.1
1211.77
42189.3
1750.63
55.1536
950.101
19.8132
39.158
2.59559
69.9529
34.613
550.538
0.366448
2.87416
85.8294
3.75558
28.0492
113.278
833.185
275.592
1.85922
4.86025
1.10649
10.3171
29.4026
46.529
9.16314
17.4687
257.212
95.7782
0.259589
3.42013
6.26837
454.471
303.228
4770.97
176.879
1.23273
11.4015
18.0881
194.218
91.0363
3191.36
135.525
0.28428
4.23658
8.63413
114.968
30.3759
879.773
81.2565
0.392671
2.78038
9.64646
704358
709208
259242
725772
380101
728107
923511
981022
1.02111e+06
917544
1.01225e+06
908915
914846
830145
837864
998958
889516
882282
897456
904106
819833
807024
813217
733457
821500
751250
685447
678271
759033
735152
828246
820269
752389
682084
759536
675278
789196
716354
802876
742091
659151
669589
730597
719424
798520
810629
743348
658050
667299
732261
688215
362152
615548
605351
605257
695077
594811
679700
549112
537178
323329
585197
573917
669591
1.33405e+06
679444
413821
538223
1.79826e+06
18.1284
1.38417e+06
0.178011
79445.3
291.916
1.31221e+06
1.03868e+06
1.06358e+06
743288
8929.45
1.17558e+06
1.05509e+06
1.56175e+06
1.05651e+06
1.18267e+06
1.5691e+06
1.33601e+06
1.01411e+06
795213
30086.3
787176
29488.9
1.19135e+06
675160
1.17711e+06
1.5596e+06
1.32831e+06
1.49546e+06
1.28686e+06
1.13007e+06
850434
20919.1
1.18763e+06
671801
615378
1.17871e+06
413866
1963.14
1.51642e+06
1.37598e+06
1.23e+06
940021
1.18476e+06
1.52744e+06
1.35894e+06
564808
12531.2
226.646
12434.5
223.412
604682
413140
1.17795e+06
71799.1
674683
1.45916e+06
1.26337e+06
1.10261e+06
704782
152.864
598840
381592
142177
512950
793.226
11.7262
1.52732e+06
1.57609e+06
1.53998e+06
1.39702e+06
1.41634e+06
1.38506e+06
1.42984e+06
1.53342e+06
1.57804e+06
1.54142e+06
1.39916e+06
1.42306e+06
1.39204e+06
1.43167e+06
1.15918e+06
176685
783468
253.91
467465
1.28424e+06
541019
1.52288e+06
1.54787e+06
1.50682e+06
1.41569e+06
1.38258e+06
1.36831e+06
1.40712e+06
1.74917e+06
1.71226e+06
1.66901e+06
1.64633e+06
1.6033e+06
1.5268e+06
1.56742e+06
1.45049e+06
1.34203e+06
1.46152e+06
1.34219e+06
1.24423e+06
1.33171e+06
1.25326e+06
700958
1205.86
583707
0.87251
75.1318
334574
11704.7
68780.9
3.98882
4639.46
541421
1.16984e+06
243401
550.833
1.45391e+06
1.34198e+06
1.46146e+06
1.34335e+06
1.24765e+06
1.25373e+06
1.33626e+06
1.52654e+06
1.45022e+06
1.48228e+06
1.34622e+06
1.36297e+06
1.31773e+06
1.38887e+06
1.19234e+06
1.19842e+06
1.01753e+06
1.14108e+06
1.14795e+06
1.01723e+06
1.01131e+06
1.00909e+06
1.19754e+06
1.01484e+06
1.14184e+06
1.14779e+06
1.01567e+06
1.00793e+06
1.44336e+06
1.3185e+06
1.42945e+06
1.23948e+06
1.32692e+06
1.31401e+06
1.22991e+06
826072
681634
827525
786592
574640
778889
583284
819697
679741
824398
782976
570666
581851
770041
1.6472e+06
1.47203e+06
1.58697e+06
1.41588e+06
1.52712e+06
1.46886e+06
1.37268e+06
1.30499e+06
1.384e+06
1.40977e+06
1.29518e+06
1.19636e+06
1.27045e+06
1.21546e+06
1.00849e+06
1.18629e+06
1.01479e+06
1.13664e+06
999196
1.1318e+06
985082
819245
667119
825081
548058
748428
712799
508314
1.41019e+06
1.41536e+06
1.36506e+06
1.33049e+06
1.28244e+06
1.24323e+06
1.29181e+06
1.0979e+06
17653.1
240.34
1.15776e+06
719146
1.43453e+06
1.29635e+06
1.26753e+06
1.1409e+06
1.29135e+06
1.18636e+06
1.25704e+06
1.15031e+06
1.30273e+06
1.27001e+06
1.18867e+06
1.14749e+06
1.29817e+06
1.15286e+06
1.26357e+06
1.30482e+06
1.5055e+06
1.33293e+06
1.46238e+06
1.39377e+06
1.31384e+06
1.27384e+06
1.43535e+06
1.61941e+06
1.48537e+06
1.57903e+06
1.44654e+06
1.40545e+06
1.36582e+06
1.48742e+06
1.19069e+06
1.36426e+06
1.21425e+06
1.31192e+06
1.16875e+06
1.28666e+06
1.17028e+06
1.14054e+06
1.29174e+06
1.2554e+06
1.24364e+06
1.16874e+06
1.1299e+06
1.2832e+06
606805
609878
570068
469591
479411
392241
380190
608916
563997
569767
468911
479369
392553
380140
959633
808261
1.00598e+06
763042
971079
960084
674453
653208
817677
830936
653500
344413
558064
443823
1.18411e+06
1.03646e+06
1.02511e+06
1.11614e+06
1.12589e+06
954411
893997
1.35264e+06
1.23679e+06
1.3178e+06
1.17413e+06
1.24072e+06
1.20643e+06
1.14935e+06
587727
553361
532902
444596
400852
351011
300480
1.26727e+06
1.36561e+06
1.31747e+06
1.20034e+06
1.19768e+06
1.15617e+06
1.24583e+06
1.22569e+06
1.15358e+06
1.10659e+06
1.06531e+06
1.21622e+06
1.11573e+06
1.16196e+06
1.22443e+06
1.15226e+06
1.24273e+06
1.08954e+06
1.19875e+06
1.113e+06
1.2667e+06
1.32002e+06
1.29739e+06
1.41072e+06
1.35457e+06
1.19249e+06
1.27945e+06
1.24428e+06
1.41815e+06
1.44121e+06
1.51742e+06
1.4035e+06
1.27208e+06
1.33241e+06
1.32489e+06
1.10455e+06
1.14971e+06
1.21303e+06
1.20095e+06
1.00493e+06
1.0939e+06
1.1398e+06
1.22748e+06
1.06563e+06
1.11209e+06
1.15695e+06
1.11769e+06
1.16278e+06
1.22146e+06
661327
688080
638249
619317
558541
509852
389030
1.32436e+06
1.24964e+06
1.15154e+06
1.29085e+06
1.25407e+06
1.21258e+06
1.36376e+06
562603
427604
494385
230383
332133
222625
127739
1.39395e+06
1.32334e+06
1.34076e+06
1.30208e+06
1.28455e+06
1.20482e+06
1.24068e+06
517185
427223
525642
276762
108812
120651
261262
1.18361e+06
945614
1.10974e+06
1.04733e+06
1.16047e+06
1.07744e+06
1.12681e+06
517296
427400
525908
276962
107805
260619
120529
1.23537e+06
1.20777e+06
1.27753e+06
1.17009e+06
1.03771e+06
1.1305e+06
1.12143e+06
1.21283e+06
1.05726e+06
1.16766e+06
1.13235e+06
1.04383e+06
974912
1.17736e+06
765020
418210
660866
207852
410837
224126
80289.5
1.03441e+06
1.15583e+06
987026
1.08752e+06
793208
1.01588e+06
633076
99491.4
14.3036
0.117157
34.6799
176695
1.23015e+06
180207
412154
1.04822
969.441
0.0620756
0.186359
95.9986
5.75108
1.07013e+06
811054
1.07893e+06
827299
362836
813984
381253
808249
1.07012e+06
1.07862e+06
823675
348531
375466
805023
498088
328092
462202
82534
224522
168479
49736.4
1.33048e+06
1.18001e+06
1.20953e+06
1.20625e+06
1.25132e+06
1.13161e+06
961900
1.05505e+06
295712
671216
768419
1.02843e+06
707675
218960
494504
282026
89845.4
34358.9
479368
99047.9
296730
490757
34182.3
85801.7
279288
97322.8
295989
469936
1.2928e+06
1.13557e+06
1.12214e+06
1.18718e+06
1.22713e+06
1.23627e+06
1.187e+06
1.23718e+06
904185
1.12502e+06
1.06321e+06
1.20808e+06
1.04457e+06
652233
641215
400221
544172
293910
463198
237768
75378.5
1.35932e+06
1.21386e+06
1.22914e+06
1.27288e+06
1.25685e+06
1.17929e+06
1.0921e+06
63755.8
241924
425946
352413
11885.2
37278.2
182799
562322
903612
981653
612568
58835
474885
131432
178661
14382.1
192396
103755
4626.78
5316.02
93649.9
14384.8
178047
192467
103888
4594.98
5320.51
93285.8
1.0943e+06
1.08224e+06
569743
905402
1.02433e+06
817744
1.13511e+06
1.07116e+06
970220
1.13307e+06
1.1022e+06
496187
831804
984102
245339
311535
402392
102473
7684.02
43163.1
21985.7
459694
561917
853966
658289
29741.8
316654
168811
755787
898689
1.02852e+06
804513
129641
471216
446048
5.18325
0.0300039
0.124331
2.03766
2.80943
63428.1
40.2043
147408
5188.68
103268
3248.3
71609.3
42863.5
1787.75
249544
5499.81
48391.3
6321.63
136615
16798.1
111710
583084
194079
467752
42727.6
259799
135884
13382.4
405516
28509.3
279346
9576.23
165756
74356.8
3200.96
692377
1.13448e+06
880798
674845
885247
405539
168612
1.03779e+06
1.2185e+06
1.18308e+06
1.09324e+06
787594
682023
1.14055e+06
1.11607e+06
1.24776e+06
1.21289e+06
1.11614e+06
884671
786112
1.15783e+06
1.04881e+06
583347
327586
252597
904454
615064
829861
236594
233969
481350
73354.6
2846.16
13714.9
16866
2322.41
19513.2
54947.2
18941
271.662
6766.84
775.428
845309
980561
1.15595e+06
839719
51516.3
469054
296012
780263
19314.2
301550
96903.2
600149
134528
5383.05
1.02919e+06
1.06148e+06
1.09884e+06
668295
599510
714096
156377
894420
1.03948e+06
1.15823e+06
981506
108528
659938
428901
32855.4
5500.52
1180.81
263.742
1374.36
6360.6
28258.2
32846.5
263.12
1168.62
5426.75
1373.65
27979.6
6347.51
1.02058e+06
1.10825e+06
1.18687e+06
1.02068e+06
174907
719302
548735
130917
156426
80985
16237.6
8819.99
6983.15
709.467
808.496
3794.22
19416
10797
82.0403
447.519
2074.37
6970.32
30444.3
136052
18864.6
127.034
3241.62
757.845
131735
70320
324862
41659.5
510.164
3209.36
6901.74
13878.8
1908
50821.9
12895.2
131.132
474.16
3438.95
325569
3022.98
2309.64
6389.86
59730.5
72117
24030.6
568835
10802.8
14228
141014
107288
7478.8
657.265
135508
23850.1
362978
36559.5
235.634
7292.42
1213.92
761249
266725
9691.31
314922
220009
180098
861856
4930.81
34.8079
308.268
65.7753
1720.77
195.481
889.534
926.115
1837.56
22327
7234.83
23.1004
571.564
294.775
19979.4
2984.63
3836.22
1144.88
903.813
175.773
52.4455
1.7413e+06
1.21886e+06
655670
1.884e+06
1.72872e+06
1.38261e+06
1.2175e+06
269955
648743
491793
75881.7
1.41527e+06
2.14888e+06
1.88803e+06
1.54296e+06
2.50777e+06
1.41579e+06
1.73433e+06
704068
1.23198e+06
1.02293e+06
1.2381e+06
997902
989282
706053
1.40772e+06
2.1355e+06
1.87882e+06
1.64453e+06
1.3735e+06
2.25449e+06
1.54393e+06
698847
1.22667e+06
1.00408e+06
687259
1.22861e+06
1.22885e+06
869259
598018
598537
967830
868942
766976
816037
630153
587923
948723
857125
457734
621863
850761
790761
1.53348e+06
1.53851e+06
1.89741e+06
1.80714e+06
1.51692e+06
1.52495e+06
1.79693e+06
1.89562e+06
1.54402e+06
1.9016e+06
1.8106e+06
1.52434e+06
1.80221e+06
1.52939e+06
1.09323e+06
1.2391e+06
1.10294e+06
1.01507e+06
1.21252e+06
1.217e+06
1.00771e+06
1.24193e+06
1.09527e+06
1.10367e+06
1.01669e+06
1.22048e+06
1.01139e+06
1.22118e+06
2.5158e+06
2.54034e+06
2.16523e+06
2.02076e+06
2.21541e+06
2.00679e+06
2.23623e+06
2.15431e+06
2.53863e+06
2.17043e+06
2.02472e+06
2.20549e+06
2.0082e+06
2.23303e+06
991807
1.0035e+06
1.03526e+06
919541
864605
873308
911431
1.02304e+06
1.00234e+06
1.03497e+06
919621
862676
910841
872543
1.53189e+06
1.53178e+06
1.86695e+06
1.51276e+06
1.78586e+06
1.77179e+06
1.50943e+06
2.48043e+06
2.42227e+06
2.11541e+06
2.18687e+06
1.99387e+06
1.97482e+06
2.14193e+06
1.07864e+06
1.21853e+06
1.05686e+06
1.21231e+06
998665
989624
1.21601e+06
1.54853e+06
1.43653e+06
1.26474e+06
1.60108e+06
1.35304e+06
2.15792e+06
1.55864e+06
1.18711e+06
413366
779628
691571
1.22796e+06
1.26199e+06
833133
970984
942776
980000
850325
899966
885593
831114
2.34339e+06
2.06169e+06
2.08964e+06
1.94599e+06
2.00997e+06
1.90125e+06
2.07941e+06
1.53438e+06
1.83264e+06
1.84983e+06
1.75193e+06
1.50811e+06
1.72634e+06
1.50732e+06
1.21424e+06
1.00786e+06
1.02839e+06
983161
1.24577e+06
1.22573e+06
990385
977888
943817
951774
836970
844623
824875
817909
834777
941819
964661
976307
950716
843544
823958
1.86049e+06
1.68596e+06
1.95325e+06
1.7536e+06
1.69686e+06
1.84833e+06
1.96863e+06
718749
9305.76
659657
348404
610540
812169
759643
1.6807e+06
1.94492e+06
1.84525e+06
1.86099e+06
1.75128e+06
1.69622e+06
1.96556e+06
907846
912758
946053
867555
783428
850604
807518
921654
927738
905384
823698
805147
806137
788685
1.69875e+06
1.57288e+06
1.47601e+06
1.42199e+06
1.58193e+06
1.48482e+06
1.6895e+06
1.48104e+06
1.57138e+06
1.69056e+06
1.70128e+06
1.42369e+06
1.583e+06
1.48759e+06
982127
992029
1.21867e+06
1.22502e+06
996991
1.22409e+06
976471
1.67305e+06
1.93393e+06
1.83246e+06
1.80985e+06
1.71146e+06
1.65564e+06
1.9049e+06
983062
1.22305e+06
1.22569e+06
985676
1.22739e+06
1.00052e+06
1.22808e+06
2.01942e+06
2.06153e+06
1.95885e+06
1.93722e+06
1.84826e+06
1.79254e+06
1.86464e+06
1.56083e+06
1.46935e+06
1.67735e+06
1.66084e+06
1.40002e+06
1.54548e+06
1.46481e+06
887775
839554
874643
753811
780356
765410
738635
992146
1.21896e+06
974929
980162
1.22125e+06
999511
1.22633e+06
596900
519401
727048
518411
813001
594412
3993.56
842087
801412
766251
709115
806452
772954
835707
766172
806592
836739
842722
710095
808922
772863
1.81147e+06
1.56964e+06
1.78293e+06
1.50775e+06
1.69699e+06
1.66123e+06
1.49925e+06
802543
573291
2730.44
4703.43
262057
747739
382138
1.77911e+06
1.68198e+06
1.59232e+06
1.81142e+06
1.62787e+06
1.74028e+06
1.86108e+06
799225
757549
828908
821760
694046
801910
746178
913013
877166
921362
803297
766424
796268
773581
869796
795637
912225
877212
920921
802839
773677
1.00769e+06
1.30976e+06
1.03695e+06
1.27506e+06
1.01566e+06
1.05637e+06
1.30547e+06
889693
804864
877212
760824
839531
847055
747796
732748
660705
738799
719443
630081
634871
713896
1.82209e+06
1.97184e+06
1.89213e+06
1.7341e+06
1.72099e+06
1.67046e+06
1.79256e+06
1.63921e+06
1.38902e+06
1.49656e+06
1.45035e+06
1.52385e+06
1.61212e+06
1.45857e+06
712981
656224
731874
661006
738288
718901
634895
899446
840587
880153
756078
785516
769982
742243
723172
640256
709935
622342
704449
690835
612262
815004
689327
828369
722940
810831
815151
733572
991446
1.22615e+06
1.03288e+06
1.25248e+06
1.01349e+06
1.2379e+06
1.01179e+06
1.54948e+06
1.75762e+06
1.69415e+06
1.64329e+06
1.55129e+06
1.50098e+06
1.69849e+06
801867
776632
725712
763650
708836
701380
678874
818423
820805
853188
748841
701140
723349
723934
1.6999e+06
1.56645e+06
1.74669e+06
1.62084e+06
1.45306e+06
1.57748e+06
1.4811e+06
1.14454e+06
1.35453e+06
1.0885e+06
1.10305e+06
1.32668e+06
1.14502e+06
1.32495e+06
630735
677499
694240
673758
587494
600282
653803
1.46536e+06
1.43666e+06
1.57946e+06
1.54373e+06
1.32808e+06
1.43088e+06
1.4172e+06
703653
614976
603850
676656
620465
697659
682956
677166
615114
697383
703381
603982
620443
682993
1.58882e+06
1.57302e+06
1.39061e+06
1.49601e+06
1.52801e+06
1.44739e+06
1.63749e+06
911272
787371
881250
878471
751777
925173
743324
1.05511e+06
1.26698e+06
1.0403e+06
1.07413e+06
1.22135e+06
1.07464e+06
1.27523e+06
814671
752876
821759
733789
759474
685970
679868
821242
725607
751233
733313
758851
685369
678232
607221
667580
688603
675916
567402
596872
655584
853585
714897
829150
859366
663909
871534
712857
788768
716154
741915
730315
704047
669414
658912
745127
691523
726055
669751
681057
651550
628869
785386
727306
749369
675373
694859
665479
648185
1.5047e+06
1.35674e+06
1.34585e+06
1.29779e+06
1.46042e+06
1.39078e+06
1.38998e+06
660244
555125
632698
557444
646293
612102
476576
770328
696953
715347
669222
688269
644949
608207
659215
527166
552117
621910
583907
639512
640248
1.10672e+06
1.25902e+06
1.03703e+06
1.20748e+06
1.12549e+06
1.08465e+06
1.27247e+06
900085
698456
688800
576563
924925
825731
725074
676691
693797
712883
636037
494157
590580
606144
365346
689969
605745
695715
615826
607050
380590
648397
530884
654047
592629
313487
582932
330389
530852
647232
653672
592237
310768
581252
329739
604984
688219
695015
615156
361091
604863
379267
560438
449053
633825
575002
152386
468746
340661
638510
445067
627658
269445
558730
518462
205013
484025
587828
617195
586947
193123
368732
505809
679578
536369
669407
322013
584542
548234
257907
370689
553917
605558
451863
53772.2
125676
349712
475900
624420
656537
486998
85631.2
390841
173421
818362
881731
938708
897066
370058
676881
716732
782507
908432
910130
1.1018e+06
1.10129e+06
831546
675355
299659
751274
429901
684282
489309
417640
663220
1.07927e+06
822614
667284
834066
1.11954e+06
605502
775865
1.09497e+06
1.23491e+06
1.2434e+06
1.12236e+06
1.13084e+06
1.01253e+06
1.00588e+06
1.09295e+06
1.24273e+06
1.231e+06
1.11951e+06
1.13035e+06
1.012e+06
1.00402e+06
1.21406e+06
1.18958e+06
1.10506e+06
1.08423e+06
1.05998e+06
991635
975017
680324
703426
65811.5
804126
1.07964e+06
532189
754482
673372
804329
790121
788642
674663
776970
664900
725746
803726
712772
75300
687778
784515
722589
200279
698231
735395
650650
34324.3
687545
350907
1.15706e+06
1.02165e+06
1.00186e+06
1.05589e+06
1.03372e+06
951881
923112
764627
655357
775580
665218
764626
655352
644377
832227
892010
959428
837957
965845
898559
788553
917217
1.01175e+06
1.02078e+06
923110
829910
914643
837640
831661
916433
1.01385e+06
917669
1.02125e+06
923766
838275
837789
965557
957986
898131
781391
890645
788127
778443
650948
764465
750439
765722
654490
641488
998369
881785
980501
819472
903721
889006
806683
947339
811187
932193
772381
880675
867074
761196
1.03715e+06
984239
968320
944182
932373
891112
857656
989603
1.1023e+06
763446
847461
749375
1.03545e+06
887889
723609
1.16083e+06
1.14075e+06
1.01646e+06
1.08891e+06
1.00108e+06
967403
957385
1.04556e+06
983413
1.03682e+06
873106
918608
911633
865518
1.09849e+06
998510
1.05446e+06
923294
971904
932988
890655
780466
765632
875018
753771
850693
839690
738759
926756
829564
934244
879769
869790
789484
771723
816916
958548
915761
854747
958143
1.00738e+06
890698
462829
501825
586201
482681
577914
579990
572471
678701
701102
776256
708800
725512
811891
801814
735425
734342
751568
643909
618165
632076
630462
860525
925279
955743
868531
768165
843354
789448
795697
886892
911758
848332
729597
825246
747034
751537
643895
734259
716667
632064
630424
618127
701455
791147
724294
749192
818885
853738
821109
727426
733894
15950.8
40066.8
700539
118.138
21687.7
990003
851816
855458
901698
893461
822493
784738
377607
467196
429865
565596
573296
565588
557368
754124
729525
821886
828672
682707
735671
760127
828008
682020
752344
728129
820133
735037
759417
345052
389578
448205
569435
559839
563795
552821
891797
772384
855525
744215
815309
785846
717744
859252
731435
829982
709943
799748
772563
688879
777756
907260
870556
822817
853599
758889
737043
743141
719306
810444
798199
657906
731963
709034
651315
680751
744705
669526
718372
691229
628643
829185
758484
812709
730522
754757
728468
690270
717851
677713
698195
604286
618927
604264
570716
727459
648294
665463
694979
675586
759909
785525
712855
669850
695044
591133
614518
601673
546643
299684
556636
538782
279635
531710
487508
189428
189399
370010
279602
556644
487509
538782
531713
781979
643064
700869
681084
761821
717894
696404
806211
805971
820927
753701
757192
743976
699910
764161
706990
798292
743197
582447
712208
662811
776905
738768
817559
754222
627994
720475
689640
693841
606198
635952
676524
494123
659625
590369
773725
743890
798958
714285
639811
670682
695385
839734
846958
613521
610725
829256
832554
531099
532237
835534
717251
718344
838556
832743
718057
718164
841573
840174
835052
721187
723901
724685
721096
831101
827987
829259
717886
717899
720943
713225
717620
716469
831851
831274
830899
716647
713842
612793
530380
612809
532073
614442
610123
531082
528236
528185
614519
614192
529853
616052
529569
611864
527883
527105
529818
612383
612858
530009
532003
612566
611646
612037
532287
610013
532005
1.60813e+06
1.11912e+06
1.30077e+06
1.69502e+06
1.13753e+06
1.46812e+06
1.29448e+06
1.59842e+06
1.1548e+06
1.82171e+06
4.08356e+06
1.10904e+06
1.44212e+06
1.01444e+06
1.09484e+06
850039
1.28564e+06
1.59295e+06
1.13207e+06
1.23022e+06
1.50873e+06
977608
1.4472e+06
2.44731e+06
2.01781e+06
2.0256e+06
2.53704e+06
3.68723e+06
1.55523e+06
1.69731e+06
1.63063e+06
1.60799e+06
1.63412e+06
1.47329e+06
1.4666e+06
1.46869e+06
1.46637e+06
982114
983202
1.37474e+06
1.47253e+06
1.50415e+06
1.68266e+06
1.11761e+06
1.46468e+06
1.45817e+06
1.62259e+06
1.60933e+06
1.63569e+06
1.46839e+06
1.46869e+06
1.66517e+06
1.71023e+06
1.67398e+06
1.48227e+06
1.48614e+06
1.47482e+06
1.49983e+06
1.48188e+06
1.68922e+06
1.65672e+06
1.71105e+06
1.67412e+06
1.48218e+06
1.50034e+06
968515
1.44143e+06
1.47576e+06
967609
1.44389e+06
890167
1.23311e+06
1.46296e+06
1.43851e+06
1.60953e+06
1.57134e+06
1.56941e+06
1.39872e+06
1.44928e+06
2.02549e+06
1.69306e+06
1.62288e+06
1.70595e+06
2.07004e+06
1.62034e+06
2.05696e+06
2.73898e+06
2.60239e+06
3.6073e+06
3.97204e+06
2.74371e+06
2.58412e+06
3.5016e+06
1.44854e+06
1.65624e+06
1.63093e+06
1.60293e+06
1.58473e+06
1.39629e+06
1.40086e+06
524520
709422
512376
777015
482777
686838
513035
1.37686e+06
1.30269e+06
1.37244e+06
1.3213e+06
1.19488e+06
1.31803e+06
1.1994e+06
1.18939e+06
1.37232e+06
1.30971e+06
1.30101e+06
1.3741e+06
1.31974e+06
1.19799e+06
2.86503e+06
2.0746e+06
1.64059e+06
2.42455e+06
3.50897e+06
1.58968e+06
1.6923e+06
1.43387e+06
1.41647e+06
830554
1.25082e+06
1.46445e+06
929345
1.36186e+06
1.67839e+06
1.61687e+06
1.70173e+06
1.6366e+06
1.49168e+06
1.44184e+06
1.42468e+06
1.70043e+06
1.62124e+06
1.63551e+06
1.4754e+06
1.49084e+06
1.44105e+06
1.42688e+06
1.54121e+06
1.4469e+06
1.5134e+06
1.34618e+06
1.38097e+06
1.41729e+06
1.28908e+06
1.70492e+06
2.17365e+06
2.12458e+06
1.61254e+06
1.61509e+06
2.08122e+06
2.10123e+06
1.31398e+06
1.15873e+06
1.30124e+06
1.15139e+06
1.30552e+06
1.16726e+06
1.31312e+06
1.13721e+06
1.2993e+06
1.29809e+06
1.31269e+06
1.15159e+06
1.16612e+06
1.31317e+06
1.53224e+06
1.43872e+06
1.51712e+06
1.33309e+06
1.26149e+06
1.26265e+06
1.33507e+06
1.64599e+06
1.58403e+06
1.59523e+06
1.53595e+06
1.39251e+06
1.39586e+06
1.35263e+06
1.17442e+06
1.36651e+06
1.29188e+06
1.25904e+06
1.26904e+06
1.34767e+06
1.14954e+06
1.9625e+06
1.54705e+06
1.56886e+06
1.54532e+06
1.56957e+06
2.02364e+06
1.95129e+06
3.83855e+06
2.73669e+06
2.74281e+06
2.56255e+06
3.24306e+06
2.5414e+06
3.37814e+06
1.10689e+06
790005
737065
918990
1.36504e+06
854422
1.18495e+06
1.11305e+06
1.27428e+06
1.26912e+06
1.23545e+06
1.07722e+06
1.09968e+06
1.22824e+06
3.18129e+06
2.28826e+06
2.80584e+06
2.42052e+06
2.73025e+06
2.26188e+06
3.08886e+06
1.28659e+06
1.13242e+06
1.30115e+06
1.26005e+06
1.08686e+06
1.09775e+06
1.24774e+06
1.3858e+06
1.50873e+06
1.52062e+06
1.3539e+06
1.23735e+06
1.34402e+06
1.2473e+06
1.37056e+06
1.38554e+06
1.52077e+06
1.3545e+06
1.23505e+06
1.34135e+06
1.24726e+06
1.2875e+06
1.13084e+06
1.30049e+06