/*--------------------------------*- C++ -*----------------------------------*\
  =========                 |
  \\      /  F ield         | OpenFOAM: The Open Source CFD Toolbox
   \\    /   O peration     | Website:  https://openfoam.org
    \\  /    A nd           | Version:  9
     \\/     M anipulation  |
\*---------------------------------------------------------------------------*/
FoamFile
{
    format      ascii;
    class       volScalarField;
    location    "0.00115";
    object      T;
}
// * * * * * * * * * * * * * * * * * * * * * * * * * * * * * * * * * * * * * //

dimensions      [0 0 0 1 0 0 0];

internalField   nonuniform List<scalar> 
9532
(
1516.54
1020.08
291.984
319.839
288.303
287.926
287.927
354.642
665.582
288.145
287.929
1293.9
305.057
677.305
675.567
1166.19
289.139
287.94
1490.01
1461.34
1428.96
1394.52
1355.26
1209.75
1258.82
300.179
287.939
288.827
287.934
352.967
287.927
287.926
582.469
552.849
466.108
413.685
346.325
328.848
301.469
1421.01
1175.09
1350.19
1031.03
1255.47
1076.32
804.104
287.969
287.926
287.93
287.926
287.926
287.926
287.926
1350.66
1113.1
1311.9
986.108
756.589
682.04
1048.87
1118.91
601.596
1057.68
816.775
424.239
370.974
888.393
422.834
298.225
352.257
289.024
295.635
290.37
288.266
475.5
303.611
369.503
290.416
302.639
291.245
288.445
659.086
846.012
673.372
456.782
341.117
440.5
295.24
969.975
963.363
1207.38
815.309
318.986
496.816
521.261
294.673
287.994
290.066
287.974
289.375
288.378
287.941
601.016
428.063
893.168
625.797
289.893
307.521
372.934
290.358
290.707
304.551
288.478
287.938
288.004
288.015
522.041
303.811
343.34
288.57
318.71
296.711
595.67
363.795
289.209
298.502
288.321
290.554
288.231
287.967
600.754
290.235
314.766
289.504
308.004
288.64
287.984
289.144
288.321
288.058
288.045
287.966
287.939
287.93
370.82
288.107
288.584
288.067
295.038
289.789
296.858
288.005
287.942
288.411
288.032
287.926
287.929
287.943
327.225
287.964
289.422
288.031
292.809
288.107
287.93
287.962
287.934
288.18
288.005
287.926
287.937
287.928
288.203
287.93
287.953
287.927
287.935
287.927
287.926
288.038
288.01
288.963
287.956
287.926
287.928
287.929
290.422
1293.72
1280.46
373.967
946.091
609.587
974.497
1216.42
596.248
289.261
1379.89
1361.43
1143.87
1511.2
1329.02
1127.7
1238.45
1092.95
676.886
1039.78
1090.86
1121.49
1002.69
381.266
1005.71
315.892
970.79
906.274
736.474
328.695
288.447
1004.13
990.565
1028.78
1058.39
1099.87
1135.78
1088.41
1206.14
1512
1278.47
1476.53
1387.92
1258.13
802.998
1097.88
1085.32
1043.45
1206.22
1161.9
1208.31
1240.38
1069.33
1070.38
1020.94
1192.19
1214.51
1269.35
1138.77
1070.04
1137.3
1106.66
1184.55
1129.11
1133.24
1202.36
1063.72
1046.34
1029.8
1030.84
1079.99
1065.51
1000.41
1126.66
997.85
308.984
559.407
1257.3
439.576
287.967
1191.06
1408.82
1238.4
1288.41
1429.56
1446.71
1241.07
1024.07
1024.59
1025.9
990.374
945.185
947.407
891.341
287.927
883.367
319.364
371.893
924.155
294.5
287.929
1192.08
1209.96
1142.36
1265.71
1309.17
1326.79
1275.53
815.926
295.592
288.015
291.71
455.186
287.939
287.926
1110.46
1191.53
1165.48
1128.97
1233.35
1113.33
1219.23
1144.83
1247
1303.51
1314.09
1358.86
1442.9
1420.36
1409.5
1300.52
1297.36
1336.59
1361.43
1425.83
1322.12
1354.17
1478.61
1497.68
1397.28
1423.97
1480.72
1313.02
1032.8
1062.42
1070.68
1034.26
867.861
980.512
947.459
289.117
287.926
287.926
840.001
302.026
584.918
288.213
881.3
1532.24
1390.11
297.382
1048.18
288.025
520.3
1282.28
1320.2
1352.4
1341.7
1383.17
1425.77
1368.42
1236.79
1005.49
1124.46
1099.83
1191.38
949.423
1238.04
955.145
967.753
1001.45
789.63
881.705
814.576
713.256
1378.34
1352.98
1437.48
1359.99
1414.75
1438.36
1343.49
803.968
906.975
1005.32
952.793
594.539
724.864
839.16
906.479
954.145
1003.32
778.754
880.983
815.878
701.361
1368.09
1482.76
1404.64
1497.81
1530.94
1509.77
1502.91
1486.82
1474.89
1479.5
1504.52
1474.93
1441.77
1519.53
1217.35
1243.02
1120.94
1241.2
1081.79
1237.08
1026.59
1035.13
855.287
981.578
759.516
899.817
790.391
624.91
833.211
509.532
756.966
512.271
759.596
679.434
427.246
1060.46
1152.04
1218.59
775.421
1003.22
874.521
1233.1
1358.29
1447.71
1411.06
1449.84
1356.34
1449.28
1379.51
928.969
789.997
704.78
695.567
781.403
505.659
517.166
878.096
491.925
506.431
637.983
781.432
626.04
748.6
841.181
918.681
835.498
727.572
481.908
616.928
602.38
1415.16
1365.51
1439.1
1445.09
1184.55
1359.96
1348.95
910.44
631.135
718.1
671.828
758.569
478.87
436.507
1489.17
1393.73
1460.61
1209.04
1354.49
1428.29
1515.65
880.337
770.986
672.31
693.175
589.67
532.184
444.879
1515.22
1521.77
1497.13
1500.17
1472.6
1376.76
1409.51
287.952
499.812
1209.76
287.931
307.846
287.926
287.929
413.56
552.482
665.41
582.594
301.461
466.017
346.415
777.719
572.95
658.866
579.674
497.981
383.354
331.191
404.986
527.3
660.036
578.35
297.414
341.362
441.481
1420.35
1029.98
1174.39
1075.43
1254.64
1349.6
1293.29
1259.87
1030.96
1094.34
1133.33
1209.02
938.355
799.811
1460.55
1332.06
1436.72
1271.3
1405.26
1292.46
1091.8
732.996
457.705
595.235
360.081
484.188
352.545
299.424
1187.78
648.811
923.438
860.541
1127.62
811.883
486.563
725.693
760.997
892.247
649.804
325.466
470.966
464.55
1253.15
1446.33
1416.79
1199.79
972.928
906.817
1245.21
378.566
507.361
662.324
516.496
291.182
306.015
369.237
693.55
331.791
376.89
482.011
410.527
301.639
291.324
475.845
290.432
303.665
291.25
369.592
302.697
354.981
362.097
588.24
576.414
332.27
291.503
290.948
339.069
627.377
373.861
540.393
299.57
379.075
323.02
291.592
1350.14
985.385
1311.39
1112.61
755.894
681.31
1165.74
359.83
292.145
391.193
301.155
288.159
288.328
295.766
501.302
342.392
547.993
319.786
289.04
289.986
306.308
293.678
422.667
412.793
306.186
288.578
308.995
288.489
422.381
290.363
352.095
289.017
319.626
298.184
288.265
1138.95
1172.93
1344.05
1070.92
440.298
727.194
797.758
969.193
814.406
1206.79
962.726
318.781
496.092
674.801
910.109
1079.43
981.464
708.278
595.321
737.06
363.663
672.194
845.174
1019.36
658.154
295.172
340.593
455.922
326.483
288.395
303.813
288.034
291.648
289.293
287.966
438.437
292.89
367.412
288.407
296.444
290.993
288.09
326.094
311.496
432.54
296.393
288.049
288.731
289.242
580.806
295.77
291.446
368.241
321.172
290.828
288.182
812.012
521.622
426.422
292.957
372.49
451.039
882.254
363.103
288.317
289.196
288.228
290.524
298.402
300.059
290.71
288.478
304.539
290.353
287.938
288.004
288.303
621.425
295.997
382.536
308.093
977.896
992.438
960.211
1014.55
335.303
666.744
288.334
526.172
298.384
953.398
985.868
1005.26
773.46
999.011
956.815
995.743
992.141
993.784
981.783
981.833
976.586
1008.46
965.66
1002.88
994.132
978.234
968.374
992.415
1013.17
1007.28
1011.87
970.375
948.927
916.823
288.019
981.286
710.338
733.657
288.983
298.687
287.935
1012.46
996.075
996.625
935.61
848.75
842.831
938.263
1012.5
1015.01
990.976
926.1
794.207
825.92
906.043
662.467
895.468
893.643
823.75
569.891
563.346
827.85
1013.55
973.172
999.772
892.706
940.651
868.16
798.771
867.997
648.111
885.56
810.409
512.806
544.994
784.307
1004.15
914.809
986.342
746.089
872.413
822.564
680.44
581.197
838.077
793.367
467
743.771
687.817
410.501
926.467
936.352
822.351
851.114
725.602
706.083
587.396
903.01
856.683
954.339
753.911
491.444
664.332
595.741
457.21
653.622
732.063
616.122
310.786
353.155
526.538
718.155
330.089
586.596
448.067
577.54
439.581
724.619
699.579
389.802
515.608
320.016
554.483
419.766
666.168
353.085
462.028
617.724
552.843
292.448
319.26
397.93
859.384
573.348
733.698
444.587
599.186
444.618
324.218
823.993
519.995
661.656
380.282
551.731
421.539
308.06
443.326
557.469
321.317
294.1
422.634
331.521
289.243
472.471
291.525
289.434
302.152
299.641
384.246
336.869
837.507
897.126
849.98
773.535
706.002
965.139
908.911
740.486
776.386
811.552
814.331
876.338
879.828
916.027
912.499
931.673
791.862
829.184
781.2
818.657
885.834
921.28
905.914
856.048
858.548
951.955
978.892
981.488
948.709
875.082
988.931
927.714
914.457
862.979
956.389
984.393
849.972
934.731
936.839
947.06
828.391
945.486
827.707
942.291
810.79
948.655
846.166
939.158
948.002
822.413
947.897
793.236
737.89
932.77
932.51
947.062
791.716
768.385
943.512
918.834
946.971
727.35
928.563
784.257
288.244
291.919
391.82
371.274
559.95
319.261
290.869
287.956
288.149
295.845
289.454
337.727
295.847
288.149
288.766
291.263
316.845
293.907
287.943
288.511
288.093
287.964
293.247
288.076
288.335
287.929
287.938
288.025
289.228
294.082
313.813
288.774
287.936
288.121
287.97
837.622
298.834
432.009
297.379
428.567
293.783
288.232
289.415
287.929
288.04
287.979
288.023
289.673
287.972
288.057
288.318
291.955
289.138
287.93
287.966
288.045
626.05
292.575
288.968
289.883
308.257
334.301
370.86
599.873
288.634
314.564
289.493
352.59
290.22
287.984
288.964
287.944
287.962
287.928
287.993
287.958
288.508
287.926
287.928
288.009
287.929
287.952
288.037
288.836
288.203
287.927
287.93
287.927
287.935
287.953
287.969
287.934
287.942
288.187
288.019
287.926
287.929
287.931
288.404
288.267
294.307
288.118
287.927
287.937
287.942
288.148
288.025
292.382
288.076
287.926
287.93
287.934
288.037
287.955
288.955
288.01
287.926
287.928
287.934
1010
1010.76
533.668
1020.66
623.671
1019.21
973.148
927.704
903.011
976.757
904.81
980.169
976.61
1010.9
1006.93
910.315
990.957
994.274
984.747
981.325
1014.25
1018.14
1015.44
1019.05
1011.55
1024.19
976.674
973.478
1021.84
1017.21
1005.9
1010.05
1024.43
969.449
1021.88
966.132
1020.89
1018.91
1018.46
1024.53
938.382
962.532
1019.49
1018.05
1018.3
1013.87
1024.92
931.483
955.036
1020.57
980.147
611.736
846.564
835.972
838.447
982.903
827.765
970.191
775.797
765.929
582.34
816.402
805.801
947.822
1273.06
990.572
666.809
798.279
1064.21
287.942
1189.38
287.926
379.544
288.222
1520.36
1218.81
1128.18
906.85
298.885
1525.74
1237.06
1154.12
1237.42
1526
1143.9
1268.31
1151.56
940.285
325.821
935.375
325.166
1229.86
989.663
1518.18
1148.19
1272.34
1241.26
1322.6
1415.88
1039.51
314.407
1231.5
978.074
839.46
1238.43
690.049
290.112
1242.84
1503.52
1379.84
1092.3
1409.88
1431.32
1386.82
865.6
303.421
288.149
303.336
288.145
929.575
666.976
1349.48
395.201
917.202
1313.15
1343.92
1345.67
925.229
288.073
915.252
640.01
440.787
759.517
288.751
287.936
1199.42
1147.84
1192.86
1363.74
1329.94
1370.59
1322.11
1188.57
1144.81
1189.63
1360.26
1317.79
1359.32
1318.37
1209.28
465.398
1014.48
288.183
737.666
1302.11
697.831
1192.69
1162.1
1207.62
1324.36
1364.03
1379.97
1343.97
1133.93
1167.76
1234.61
1199.71
1262.29
1372.46
1325.89
1255.78
1270.15
1251.07
1387.1
1353.98
1391
1351.83
976.936
289.243
799.178
287.926
287.997
575.239
302.543
369.864
287.929
294.524
749.131
1233.51
566.567
288.49
1247.17
1268.75
1248.39
1385.09
1352.07
1351.38
1384.21
1191.33
1288.74
1238.77
1409.38
1430.04
1447.34
1380.31
1233.38
1230.57
1150.21
1246.84
1246.7
1086.58
1084.09
1149.03
1229.46
1149.51
1244.65
1246.07
1085.76
1081.22
1252.12
1283.31
1268.44
1354.43
1386.75
1395.52
1358.22
1068.11
993.157
1068.72
927.35
802.785
922.364
809.588
1065.77
992.868
1067.9
926.428
802.51
809.588
919.581
1226.05
1294.04
1308.71
1304.59
1327.12
1396.78
1348.85
1301.03
1337.17
1297.89
1410.16
1362.03
1426.52
1361.95
1146.46
1234.18
1139.2
1240.94
1069.11
1232.44
1045.07
1057.91
952.086
1039.41
780.994
900.169
862.655
739.521
1354.51
1397.51
1424.44
1479.24
1481.46
1498.56
1512.06
1245.46
314.927
288.204
1316.55
923.122
1522.76
1413.63
1504.89
1494
1509.47
1526.3
1508.95
1495.57
1503.64
1503.22
1526.99
1494.98
1501.28
1496.48
1502.58
1501.4
1368.11
1498.51
1404.88
1483.26
1531.68
1510.48
1476.88
1296.44
1454.33
1348.94
1467.21
1528.28
1515.39
1451.57
1116.94
1229.66
1144.08
1236.37
1137.43
1271.75
1135.72
1485.87
1503.33
1502.25
1502.88
1498.74
1464.3
1509.21
929.327
933.481
871.495
721.812
729.705
650.627
641.596
933.583
866.535
871.873
722.886
730.205
651.213
642.689
1063.42
973.69
1062.47
925.473
1032.97
968.298
808.717
907.038
953.36
1005.72
804.507
594.817
725.625
676.896
1237.25
1100.32
1124.9
1191.99
1217
1006.16
950.218
1378.97
1360.43
1415.42
1353.61
1439.08
1438.25
1329.7
884.295
848.988
813.04
700.586
658.434
618.213
574.023
1505.39
1475.44
1480.21
1487.77
1475.87
1442.67
1512.98
1457.24
1362.61
1403.74
1242.53
1458.89
1406.91
1363.37
1502.58
1465.41
1516.32
1375
1495.07
1428.07
1516.15
1358.47
1450.44
1411.53
1448.19
1356.7
1388.09
1449.8
1343.67
1442.81
1384.86
1445.42
1406.39
1464.86
1388.31
1395.63
1357.95
1455.25
1450.84
1181.75
1371.23
1346.12
1456.94
1243.19
1406.18
1362.55
1408.25
1363.55
1456.81
938.557
904.273
848.657
840.284
777.53
707.572
620.954
1515.75
1500.76
1377.1
1522.19
1497.51
1473.14
1532.78
832.887
679.039
756.3
512.188
595.855
508.852
426.901
1513.65
1531.35
1534.31
1512.93
1509.03
1438.35
1466.03
783.497
676.714
791.339
551.247
410.817
421.332
540.326
1441.68
1123.09
1288.66
1268.54
1424.52
1330.18
1324.22
784.492
677.068
791.833
551.624
410.102
540.53
421.332
1445.79
1365.99
1439.79
1415.96
1185.48
1360.75
1279.26
1501.38
1299.23
1472.66
1427.73
1244.76
1191.29
1463.36
878.857
638.67
782.335
492.421
626.961
507.466
381.777
1061.04
1219
1003.89
1152.73
875.442
1091.67
776.458
428.992
287.94
287.926
287.958
505.773
1283.05
470.677
641.769
287.927
288.983
287.926
287.926
288.019
287.931
1160.42
947.856
1163.54
906.544
617.835
900.727
627.439
946.721
1158.19
1163.11
905.136
609.636
624.644
896.013
762.537
593.494
720.989
385.043
512.251
465.042
349.12
1276.8
1134.7
1159.28
1257.31
1285.28
1095.23
988.236
1144.59
576.111
857.189
872.933
1118.09
831.495
521.242
684.935
551.757
395.798
330.937
677.017
404.485
561.143
683.625
330.773
391.903
551.102
403.005
561.149
673.219
1460.93
1271.72
1292.82
1332.29
1436.99
1390.31
1405.68
1259.86
938.905
1094.54
1133.72
1257.36
1031.25
800.462
887.715
633.046
759.581
554.627
688.024
512.615
376.688
1466.77
1366.55
1381.89
1459.07
1452.79
1371.4
1218.7
368.382
524.12
646.213
598.164
302.78
336.609
476.918
785.439
1013.93
1075.77
769.331
368.918
686.673
447.034
472.149
305.712
482.609
404.682
293.377
294.229
395.269
305.731
472.4
482.92
404.928
293.347
294.239
395.24
1351.85
1283.75
847.548
1104.16
1233.42
1043.18
1393.91
1231.94
1177.78
1392.95
1338.13
774.415
1049.61
1144.29
526.257
577.715
659.128
404.277
297.335
341.016
315.573
650.677
726.527
892.898
761.687
325.804
560.2
471.814
870.516
909.622
1020.25
849.227
429.507
666.372
639.675
287.93
287.926
287.926
287.927
287.928
363.687
287.963
446.558
294.102
405.144
291.664
373.044
340.601
289.889
528.134
294.534
347.694
295.857
439.874
309.922
413.965
768.155
477.804
682.538
340.596
524.548
431.279
304.498
628.043
323.178
540.829
299.648
455.755
374.151
291.609
812.728
1188.23
924.183
861.639
998.794
649.944
487.709
1200.07
1446.56
1417
1253.29
973.198
907.134
1293.84
1278.05
1472.03
1444.9
1278.09
1043.57
981.781
1316.59
1246.4
832.897
658.734
587.839
1101.14
877.602
1014.73
517.523
508.157
663.324
379.382
291.216
306.225
309.182
290.527
312.139
354.424
311.431
288.193
296.067
288.731
982.01
1079.73
1209.93
910.508
364.045
708.747
596.059
927.35
315.547
581.795
423.64
810.312
452.471
295.234
1034.31
1141.95
1172.02
825.781
786.14
899.156
486.033
1071.31
1173.19
1344.24
1139.14
440.645
881.587
727.595
328.761
294.563
289.199
288.187
289.419
295.641
323.238
328.778
288.186
289.186
294.476
289.419
322.959
295.629
1171.42
1233.26
1379.87
1171.48
512.829
923.216
811.256
428.882
450.844
382.469
308.397
298.853
296.481
288.684
288.779
292.397
312.253
301.294
288.003
288.382
290.258
296.416
326.129
432.757
311.561
288.049
291.715
288.733
429.748
370.99
575.332
339.415
288.458
291.679
296.363
305.229
290.133
353.142
304.824
288.052
288.432
291.951
581.472
291.475
290.847
295.819
368.636
374.471
321.428
720.516
301.684
306.282
455.005
421.838
298.213
288.636
468.464
324.365
658.845
340.787
288.188
298.208
289.432
963.684
596.522
302.461
635.29
557.615
519.902
1026.29
293.815
287.957
288.234
287.987
289.837
288.117
288.87
288.911
289.972
315.835
296.672
287.947
288.519
288.22
312.83
291.363
292.421
289.165
288.89
288.098
287.975
1040.15
1156.25
1031.01
992.392
1039.66
1155.83
1159.87
532.798
1026.83
734.583
377.416
1156.18
882.891
870.5
878.018
896.893
1162.62
1049.83
1053.02
859.522
829.588
871.314
1118.37
826.36
1055.23
1162.02
882.643
869.048
1088.7
1240.85
898.631
932.249
1051.66
856.603
827.519
1000.73
1202.77
952.417
917.73
886.231
885.821
829.417
990.407
1023.09
974.074
1004.58
868.708
829.372
994.422
700.567
947.497
931.839
1015.91
864.666
867.547
871.768
937.887
938.72
941.855
934.53
883.753
872.02
875.558
941.228
948.592
945.833
944.897
842.093
863.244
845.685
933.731
946.275
949.557
930.677
867.044
853.436
849.056
936.945
956.874
941.664
952.775
890.714
891.419
882.934
932.958
924.797
930.329
927.016
891.471
893.103
885.181
936.014
934.035
941.103
929.563
817.186
818.039
831.418
922.676
910.866
911.975
921.084
839.938
820.64
834.564
925.563
920.46
930.9
914.389
861.898
867.564
871.975
939.941
932.094
935.736
953.767
891.105
892.432
883.907
922.955
927.775
927.998
922.272
838.666
866.328
848.26
948.469
931.913
948.532
967.143
1189.85
1420.61
1368.71
1138.87
1275.99
906.587
993.258
1237.25
625.781
1021.78
947.925
1219.51
1018.05
974.169
816.779
828.247
837.93
912.739
922.592
937.974
927.689
894.401
897.4
888.158
934.114
931.685
949.502
924.236
889.728
903.943
882.629
950.944
1036.76
981.743
986.225
898.187
935.325
880.992
984.428
1056.59
1006.25
1028.98
830.774
870.353
871.072
927.312
928.303
967.497
968.198
935.885
878.407
837.953
832.783
872.859
930.249
968.748
993.618
1072.18
972.656
1042.45
1073.69
990.583
976.152
1004.26
299.426
908.865
601.853
881.945
981.659
1011.54
1081.55
983.405
1001.69
996.806
1044.96
1076.26
979.002
862.174
925.532
870.958
971.433
997.246
1011.61
959.644
842.335
872.406
888.331
929.011
942.491
970.744
981.698
1007.98
1109.23
1037.39
1157.17
1110.28
1039
1005.9
1045.4
1117.53
1014.79
1010.62
1159.19
1112.88
1041.5
1033.02
1113.94
1056.18
1156.43
1112.87
1057.86
1032.04
1073.35
969.267
989.078
992.433
1044.12
1081.04
968.942
1040.32
1162.26
1064.71
1035.46
1158.32
1114.24
1060.41
913.951
920.86
941.463
947.856
976.855
1019.94
976.647
1114.41
1042.98
1007.76
1018.67
1178.97
1130.93
1062.57
877.898
969.72
924.094
1001.14
970.474
1000.79
1017.37
1116.75
1061
1035.34
1048.49
1169.63
1122.47
1078.56
828.984
760.369
1020.13
760.002
1015.49
827.052
292.658
1015.66
1082.36
1002.47
1052.26
1081.14
1001.65
1015.48
1008.26
1085.65
1022.29
1017.64
1052.82
1082.14
1003.06
939.097
1063.17
991.481
1097.36
1029.9
1094.3
1156.27
1018.54
804.894
291.078
293.553
535.945
1014.48
624.997
1004.61
1058.79
1136.06
991.069
1100.25
1029.21
975.005
1083.56
1005.28
1018.01
1028.54
1045.86
1084.04
1015.12
933.612
987.414
932.362
1004.27
1023.4
1006.98
1020.12
992.534
1008.85
939.622
987.598
933.631
1004.36
1019.69
995.967
1076.05
1043.05
1102.95
1065.6
1087.93
1139.11
983.654
1008.37
1023.77
1022.55
1040.99
1055.28
1030.33
1010.75
1031.12
1009.34
1025.73
1004.59
1005.59
1027.91
1048.99
947.181
985.071
1082.49
1096.97
1163.41
1024.01
1043.83
1206.79
1208.67
1144.32
1162.27
1085.6
1098.34
1029.61
1032.16
1014.89
1031.34
1010.12
1025.89
1005.5
938.064
1002.5
953.445
1025.53
1010.11
1016.26
1025.57
1012.89
1014.9
1019.04
997.6
1029.26
1029.76
979.302
1046.77
1031.07
1065.93
1040.13
1080.35
1064.11
1030.2
1070.61
1185.07
1133.62
1137.87
1129.56
1107.27
1093.45
1192.33
1021.31
1069.58
1127.74
1214.44
1269.42
1070.49
1003.13
1006.88
1018
1013.24
1018.68
1015.11
1000.7
1011.54
1004.81
979.757
1022.02
1003.88
1020.87
1019.87
1140.54
1130.34
1060.25
1170.01
1259.14
1249.54
1210.65
1093.73
1119.54
1072.29
1104.4
1200.68
1122.17
1171.02
990.381
1024.38
1026.29
1024.75
891.121
944.845
1005.81
1266.07
1192.46
1142.52
1210.09
1309.52
1327.22
1238.83
1027.64
960.864
891.867
1004.68
963.648
1029.58
1004.94
1004.24
960.255
1029.38
1027.35
891.622
963.393
1004.73
1206.05
1246.81
1443.38
1314.04
1303.48
1359.05
1144.71
1052.18
1019.41
1042
1060.8
991.376
1057.28
1021.78
1129.31
1165.82
1110.8
1121.68
1233.52
1113.65
1191.74
1015.21
1023.78
1011.33
1018.74
1021.55
976.432
973.664
1011.77
1020.5
1024.12
1019
1021.87
976.338
973.079
949.607
999.189
1028.63
1021.26
833.476
923.987
983.501
1034.75
1033.16
1071.03
1062.74
868.508
981.137
1003.11
1020.98
1018.69
1024.41
1019.3
1009.69
961.963
937.679
1010.85
987.535
1007.09
940.257
991.373
959.831
889.547
1014.73
998.727
1009.91
973.379
1006.09
972.856
921.781
1282.5
1320.49
1426.39
1342.01
1352.76
1383.71
1280.81
1001.76
814.539
967.894
790.049
955.526
906.505
713.413
1020.36
977.559
1004.87
955.062
989.713
897.059
835.653
1003.08
777.745
815.319
905.96
880.268
970.589
953.575
1126.76
1242.99
1027.05
1241.36
1121.06
1082.17
1217.42
1035.49
791.239
856.032
760.321
982.09
900.581
946.654
960.554
969.358
995.273
915.86
716.345
823.74
838.988
613.516
980.545
835.804
982.711
846.234
839.287
623.601
944.996
769.252
949.066
824.937
574.986
817.282
586.167
769.377
944.739
949.085
824.828
573.44
816.232
585.928
835.443
979.797
982.64
845.946
610.809
837.695
622.966
771.626
672.867
880.844
816.277
445.231
693.609
589.974
931.105
689.042
902.817
542.884
792.655
749.709
492.622
727.246
835.087
918.558
841.175
481.633
616.835
736.225
969.681
764.945
947.181
581.254
815.444
774.736
532.587
622.575
786.714
855.983
685.836
353.486
425.464
599.744
705.767
851.443
909.021
713.851
387.174
630.675
466.158
1008.5
1000.12
1005.14
985.266
649.139
966.653
1013.4
1014.49
980.65
982.893
826.256
825.367
985.515
965.743
580.06
968.423
717.118
915.78
800.401
702.968
978.185
831.026
990.362
954.495
1012.01
846.458
833.556
1016.47
830.556
747.419
744.212
822.441
817.834
907.577
912.961
826.225
743.471
743.944
817.394
816.648
906.833
908.694
747.593
762.308
822.223
840.634
848.808
914.125
930.431
926.157
951.887
366.83
1011.62
909.214
751.516
1016.98
948.819
810.791
850.872
839.557
940.366
884.028
970.246
1006.88
1007.83
995.08
376.608
903.864
1008.69
971.932
494.099
1007.36
999.983
926.461
331.503
999.937
615.988
794.725
928.682
931.677
878.074
884.141
958.105
987.859
926.34
988.92
879.084
967.533
926.384
988.875
995.503
986.812
980.329
923.85
981.62
918.574
974.955
1010.3
977.411
905.674
903.973
973.698
1010.92
976.979
1007.15
1010.97
979.148
910.679
977.639
905.056
973.726
1006.61
981.963
918.182
920.435
975.173
1014.42
978.516
1010.9
899.542
993.093
950.836
978.777
934.023
990.584
992.337
911.211
994.68
928.387
1014.33
981.744
991.29
1018.25
925.73
998.512
940.212
1017.84
982.991
991.576
1021.1
963.979
974.934
975.596
1001.55
1001.54
1006.13
1009.02
884.208
749.948
1012.98
1008.8
1009.67
880.353
877.378
1020.72
711.993
745.534
784.992
791.334
825.794
835.575
881.843
810.404
926.718
856.468
964.86
903.766
945.034
990.853
802.562
932.773
857.335
964.279
894.157
946.024
994.577
969.888
1000.26
923.428
1000.74
931.49
969.339
1017.04
979.813
998.805
951.154
991.95
1005.25
1006.95
1006.99
1008
976.101
1003.86
1009.54
979.176
922.576
989.46
760.851
822.727
945.72
790.974
947.367
947.499
941.157
1000.43
1014.8
1006.6
1018.4
1017.66
981.357
1002.84
999.906
1002.36
970.906
994.795
952.2
984.64
980.507
1005.73
989.185
957.858
1002.83
1018.07
1010.76
1020.32
1008.64
990.018
964.346
1002.43
1013.99
1011.62
1021.35
970.938
994.939
1002.54
1013.59
984.733
980.7
952.33
1003.93
1015.7
1019.9
1021.81
1011.3
979.234
1004.53
972.291
976.255
308.102
337.644
920.59
288.042
315.451
996.231
1002.96
1001.04
1007.42
1007.64
1005.63
1001.08
656.775
766.672
717.051
924.107
942.811
924.032
890.175
1023.95
1018.69
1010.09
1005.45
969.308
1016.65
1021.42
1006.07
969.206
1024.32
1018.98
1010.04
1017.18
1021.9
624.975
672.21
742.015
934.779
900.376
917.027
869.474
1007.39
1006.13
1008.56
1007.51
1012.78
1009.89
980.968
1006.44
1005.4
1011.36
994.998
1014.85
1010.98
958.682
1001.06
1003.68
1007.2
1000.24
1007.91
1000.29
989.262
1024.78
1017.82
1013.92
1018.37
930.846
1020.38
1010.5
959.536
991.038
1010.64
939.826
1004.09
987.317
889.167
1006.46
1004.24
1007.87
997.476
1007.31
999.432
968.502
1013.32
983.575
1007.44
903.339
955.685
903.38
829.626
998.544
921.844
972.719
1005.95
973.436
1011.3
1014.48
1013.79
973.264
1005.46
868.102
940.771
892.77
798.691
580.097
885.462
834.815
562.925
822.028
755.866
485.119
485.091
649.052
562.873
885.333
755.809
834.752
821.922
1021.12
891.935
980.834
963.224
1019.07
1006.66
993.386
1000.46
997.971
997.105
985.594
987.691
981.526
914.895
999.817
978.501
1008.72
995.501
793.866
958.259
896.267
997.928
990.996
1003.3
998.33
833.159
965.374
927.993
969.254
839.02
915.696
960.37
716.313
908.798
823.509
995.224
994.389
1001.9
984.039
855.898
928.626
950.914
717.289
712.449
897.473
899.305
700.784
706.174
852.636
846.562
710.397
822.093
812.832
714.49
708.371
810.399
819.096
712.042
705.367
704.762
807.576
817.061
808.134
816.386
700.364
702.254
700.718
802.661
802.726
802.674
802.627
807.181
806.024
705.726
704.809
704.62
804.989
803.546
878.346
857.763
878.374
847.774
882.064
875.975
852.664
865.947
868.606
900.496
886.372
864.228
890.279
859.693
897.624
863.907
862.585
856.559
887.855
886.122
857.281
849.961
880.393
878.273
878.554
845.797
876.282
849.947
190.727
756.227
788.681
202.679
757.469
373.77
771.264
179.634
762.789
835.687
806.596
842.345
447.614
993.489
753.694
739.236
774.479
219.212
758.331
849.604
560.654
819.453
557.338
797.089
694.207
516.77
879.723
853.252
838.577
562.464
169.944
171.935
150.306
413.607
362.538
348.999
407.165
912.993
918.449
689.48
534.39
620.679
326.616
761.911
383.197
371.874
158.052
169.168
147.375
353.7
338.298
169.355
173.234
149.701
351.013
457.262
407.333
409.021
430.488
184.583
157.538
169.683
146.873
341.108
399.789
918.242
562.798
629.745
835.78
589.567
994.861
766.156
453.413
449.268
196.985
330.074
315.937
532.361
533.432
598.585
309.04
466.927
369.705
545.045
536.707
632.178
709.439
752.173
831.199
818.168
726.858
771.3
842.76
484.965
245.481
197.888
352.919
312.238
528.741
547.412
867.84
859.984
842.654
883.889
791.086
921.237
846.332
636.229
774.389
599.507
600.234
785.869
640.107
776.004
771.896
608.407
609.967
767.547
589.892
589.927
769.313
875.459
927.99
1111.64
884.546
866.02
891.888
638.988
862.947
1105.23
1013.45
916.057
635.031
887.548
623.152
307.779
481.47
280.741
461.818
517.017
630.72
638.807
287.053
493.756
466.415
549.367
522.836
633.165
644.953
462.798
556.561
457.748
608.862
666.304
609.56
660.229
469.892
643.762
590.05
668.203
605.519
675.555
717.848
598.191
773.26
654.027
752.639
637.154
765.998
628.776
750.656
610.765
636.862
589.184
750.077
760.774
622.113
466.61
548.676
449.268
603.625
654.288
653.368
609.779
373.41
514.314
450.654
561.623
600.851
645.804
657.668
768.105
644.174
646.608
683.599
784.769
686.77
771.79
791.282
773.873
633.177
786.322
677.857
722.432
804.548
835.381
784.306
753.038
796.321
863.684
817.284
853.936
859.964
1007.03
989.392
903.917
645.328
1009.84
827.651
747.674
644.252
657.505
677.11
751.655
761.523
677.784
850.27
841.61
867.258
813.514
871.194
849.066
856.836
681.556
755.998
674.681
716.918
781.188
781.955
718.75
685.513
625.513
613.768
693.848
748.158
698.49
744.883
686.569
684.635
611.727
692.694
744.227
694.991
743.846
689.965
757.586
677.619
718.19
786.852
722.743
783.161
525.552
641.026
602.481
672.75
637.104
677.504
712.857
696.222
698.451
739.551
719.22
755.537
790.969
775.547
628.776
699.509
691.725
720.044
711.222
779.641
789.641
729.53
751.86
762.118
834.819
843.522
855.991
866.24
711.614
805.736
754.792
835.551
719.704
745.083
791.268
688.515
698.011
642.232
746.888
695.747
703.735
760.634
810.856
872.986
827.175
870.066
831.684
842.784
873.92
622.56
685.595
685.93
702.498
703.943
772.692
771.377
814.337
945.868
910.845
747.233
724.691
908.728
915.885
850.231
728.084
833.868
724.509
743.339
830.247
848.196
851.864
722.757
746.083
742.833
829.596
827.94
847.509
850.45
703.73
772.347
825.915
733.201
737.265
780.861
698.427
829.017
875.322
869.586
864.171
840.253
856.449
863.723
805.134
753.89
718.572
753.224
841.013
781.678
820.552
684.352
759.858
693.692
781.194
716.58
722.313
792.863
885.004
755.914
779.455
804.944
910.509
779.396
884.952
776.029
810.999
772.819
875.869
915.6
879.445
911.949
814.221
879.626
776.211
811.446
773.339
876.144
912.38
850.884
875.987
839.058
854.457
876.598
871.039
874.442
851.173
775.633
766.635
861.619
957.825
941.361
873.575
691.144
707.342
723.158
754.154
769.254
792.344
839.779
822.55
761.089
779.091
831.433
928.222
879.503
846.244
756.23
835.418
911.479
819.567
835.34
756.485
819.199
757.444
912.721
825.285
842.148
761.007
836.856
820.576
785.316
750.05
712.19
745.81
882.108
791.452
826.265
721.919
698.674
662.39
727.116
847.186
772.007
793.566
818.614
885.695
781.071
829.073
791.759
897.028
931.618
873.153
874.725
849.946
861.568
891.079
891.643
875.96
800.462
869.888
810.891
846.502
963.173
910.587
863.923
812.998
901.073
802.577
877.722
990.264
890.608
970.726
844.189
759.76
760.688
854.49
928.193
931.172
852.447
892.471
791.444
794.571
869.662
954.485
960.29
866.536
697.747
503.115
783.633
867.912
799.169
785.964
673.367
500.899
289.912
276.889
494.508
565.928
432.413
579.682
398.859
575.963
283.76
415.643
275.449
494.022
565.058
394.689
796.109
793.901
693.631
734.087
821.401
739.531
819.114
699.276
740.366
823.653
795.094
694.507
734.693
820.172
664.361
621.226
793.919
764.425
680.805
779.202
588.967
781.979
764.94
600.355
662.614
758.626
776.327
582.888
780.389
845.253
841.033
865.126
787.166
833.408
843.383
845.711
836.136
864.815
780.497
864.535
832.401
843.854
838.834
823.996
757.63
769.908
935.283
856.411
842.338
970.249
839.48
940.345
850.714
810.671
915.707
948.775
752.868
897.166
821.041
911.783
835.518
906.258
967.046
864.19
859.23
922.626
909.079
865.965
861.284
920.949
867.567
862.612
868.809
862.788
911.248
923.835
921.285
859.884
915.546
926.978
853.654
863.32
920.287
931.179
878.514
894.033
961.984
904.063
905.383
919.022
881.909
780.767
902.442
827.081
940.648
870.228
912.625
970.871
810.455
945.215
856.5
965.016
884.227
926.75
991.039
802.902
964.748
946.305
932.985
857.467
894.713
880.77
891.626
1023.9
1037.23
1039.85
949.438
966.098
941.888
953.05
1040.92
1062.7
1055.7
1014.57
971.563
1025.96
855.096
928.015
825.926
842.573
937.533
944.114
937.554
943.02
988.082
1033.33
996.918
996.891
1008.22
939.13