/*--------------------------------*- C++ -*----------------------------------*\
  =========                 |
  \\      /  F ield         | OpenFOAM: The Open Source CFD Toolbox
   \\    /   O peration     | Website:  https://openfoam.org
    \\  /    A nd           | Version:  9
     \\/     M anipulation  |
\*---------------------------------------------------------------------------*/
FoamFile
{
    format      ascii;
    class       volScalarField;
    location    "0.0027";
    object      overpressureMax;
}
// * * * * * * * * * * * * * * * * * * * * * * * * * * * * * * * * * * * * * //

dimensions      [1 -1 -2 0 0 0 0];

internalField   nonuniform List<scalar> 
23825
(
1.99361e-09
5.4657e-08
1.26331e-06
2.73132e-05
0.000523389
0.00830931
0.144116
8.73115e-11
4.5402e-09
1.06767e-07
2.28852e-06
4.50557e-05
0.000774563
0.0116812
0
2.32831e-10
6.97037e-09
1.48153e-07
2.87894e-06
5.0627e-05
0.000768618
0
0
2.76486e-10
8.04721e-09
1.53392e-07
2.63276e-06
3.98589e-05
0
0
0
2.76486e-10
6.92671e-09
1.15891e-07
1.69709e-06
0.140066
0.00947768
0.000496639
2.09196e-05
29.2568
238190
6.53223
0.0534997
0.00466767
0.000201926
282568
44325.6
312.63
0.0187683
0.00138154
11.9201
189279
366486
420991
0.955201
66453.2
227193
412071
521595
0.0385908
481.397
334679
376861
469810
0
0
0
0
2.03727e-10
4.97676e-09
8.65402e-08
1.22463e-06
1.34551e-05
0
0
0
1.89175e-10
6.24277e-09
1.25699e-07
2.19177e-06
3.16982e-05
0.000337412
0
0
1.74623e-10
5.80621e-09
1.3379e-07
2.74667e-06
5.09989e-05
0.000851366
0.00836418
0
8.73115e-11
4.19095e-09
1.0927e-07
2.54923e-06
5.6177e-05
0.00131283
0.0146726
0.045061
0
2.38651e-09
6.76373e-08
1.73849e-06
4.26299e-05
0.00111911
0.0151116
0.0946355
2.56512
9.45874e-10
3.11265e-08
8.52524e-07
2.16277e-05
0.000521974
0.0139633
0.0728395
4.09653
59877.5
1.00263e-08
3.03145e-07
8.04182e-06
0.000193654
0.00453377
0.0265593
1.38738
36300.5
501934
7.51606e-08
2.14431e-06
5.23289e-05
0.00105909
0.265273
25891.1
366468
469111
611175
0
0
0
0
0
1.73168e-09
3.02243e-08
4.2349e-07
4.62233e-06
0
0
0
0
2.16824e-09
4.3714e-08
7.48551e-07
1.0404e-05
0.000108721
0
0
0
2.06637e-09
4.64934e-08
9.33331e-07
1.59626e-05
0.000219513
0.00214623
0
0
1.5134e-09
3.81406e-08
8.68429e-07
1.74688e-05
0.000307729
0.00463735
0.0127031
0
8.44011e-10
2.38215e-08
5.98375e-07
1.36322e-05
0.000279774
0.00566921
0.0205893
0.773449
2.76486e-10
1.10886e-08
2.98984e-07
7.44096e-06
0.000164564
0.00340027
0.0178579
0.917723
6900.31
3.55067e-09
1.07029e-07
2.85063e-06
6.85336e-05
0.00137282
0.00913979
0.496076
3997.97
487415
2.68192e-08
7.62942e-07
1.98299e-05
0.000453226
0.0496744
3155.53
356537
455293
584356
0
0
0
0
0
2.32831e-10
4.72937e-09
6.90779e-08
7.90547e-07
0
0
0
0
2.76486e-10
6.8685e-09
1.2081e-07
1.79859e-06
2.11676e-05
0
0
0
2.47383e-10
7.40692e-09
1.50874e-07
2.76239e-06
4.3872e-05
0.000536194
0
0
2.03727e-10
6.09725e-09
1.41954e-07
3.03761e-06
6.07671e-05
0.00100128
0.0054115
0
8.73115e-11
3.94357e-09
1.00146e-07
2.40158e-06
5.57644e-05
0.00118067
0.006737
0.111419
0
1.8772e-09
5.19503e-08
1.33862e-06
3.3676e-05
0.000835602
0.00703619
0.141295
23.6025
5.67525e-10
1.94559e-08
5.1879e-07
1.30983e-05
0.000346351
0.00816447
0.07493
14.1985
185588
4.9331e-09
1.45563e-07
3.79112e-06
9.14164e-05
0.0020103
0.168995
0.828523
22843.2
441647
0
0
0
0
0
0
4.80213e-10
7.85803e-09
9.23756e-08
0
0
0
0
0
7.13044e-10
1.32859e-08
1.97761e-07
2.36832e-06
0
0
0
0
7.71252e-10
1.64e-08
2.91984e-07
4.55626e-06
5.764e-05
0
0
0
6.40284e-10
1.53523e-08
3.17596e-07
6.03547e-06
0.000102879
0.00136844
0
0
3.7835e-10
1.10886e-08
2.54993e-07
5.57538e-06
0.00011698
0.00201208
0.00918069
0
1.45519e-10
5.99539e-09
1.49215e-07
3.56165e-06
8.38761e-05
0.00179972
0.00986279
0.287055
0
2.40107e-09
6.24568e-08
1.54572e-06
3.74327e-05
0.00089916
0.0075541
0.210506
66.5658
5.67525e-10
1.88884e-08
4.81785e-07
1.14358e-05
0.000253372
0.00584435
0.407289
1.52324
302519
0
0
0
0
0
0
0
7.13044e-10
9.4733e-09
0
0
0
0
0
0
1.20781e-09
1.91067e-08
2.32307e-07
0
0
0
0
0
1.5134e-09
2.6921e-08
4.06057e-07
5.03115e-06
0
0
0
0
1.36788e-09
2.88564e-08
5.13523e-07
8.04765e-06
0.000104235
0
0
0
9.74978e-10
2.33267e-08
4.74451e-07
8.83662e-06
0.000148005
0.00191929
0
0
5.23869e-10
1.42754e-08
3.18643e-07
6.66446e-06
0.000132103
0.00219858
0.00976532
0
1.74623e-10
6.37374e-09
1.53275e-07
3.41373e-06
7.29649e-05
0.00146805
0.00970363
0.178644
0
2.05182e-09
5.35074e-08
1.24132e-06
2.66132e-05
0.000523754
0.0102133
0.373486
179673
0
0
0
0
0
0
0
0
7.567e-10
8.25094e-09
0
0
0
0
0
0
0
1.5425e-09
1.99361e-08
1.97761e-07
0
0
0
0
0
4.36557e-11
2.09548e-09
3.31638e-08
4.16709e-07
4.12588e-06
0
0
0
0
1.45519e-11
2.28465e-09
4.08909e-08
6.24103e-07
7.98221e-06
7.94395e-05
0
0
0
0
1.84809e-09
3.76167e-08
6.71193e-07
1.05636e-05
0.000138689
0.00143394
0
0
0
1.1205e-09
2.60479e-08
5.20653e-07
9.51937e-06
0.000155406
0.00216177
0.0192476
0
0
4.80213e-10
1.32422e-08
2.88535e-07
5.81636e-06
0.000108874
0.00191211
0.0198824
102.871
0
1.01863e-10
4.9331e-09
1.14538e-07
2.47041e-06
4.90678e-05
0.000875355
0.0140632
56.3893
118263
0
0
0
0
0
0
0
0
0
5.09317e-10
0
0
0
0
0
0
0
0
1.35333e-09
1.42318e-08
0
0
0
0
0
0
5.82077e-11
2.22644e-09
2.87546e-08
2.91999e-07
0
0
0
0
0
8.73115e-11
2.6921e-09
4.18659e-08
5.33866e-07
5.43117e-06
0
0
0
0
4.36557e-11
2.50293e-09
4.4558e-08
6.83183e-07
8.83001e-06
8.97066e-05
0
0
0
0
1.76078e-09
3.50119e-08
6.18122e-07
9.6314e-06
0.000125409
0.00128834
0
0
0
8.58563e-10
2.01835e-08
3.9443e-07
7.01891e-06
0.000110491
0.00151421
0.0149686
0
0
2.76486e-10
8.36735e-09
1.77301e-07
3.46471e-06
6.10782e-05
0.000927414
0.0118601
0.0330839
0
0
0
0
0
0
0
0
0
0
0
0
0
0
0
0
0
0
0
7.71252e-10
0
0
0
0
0
0
0
4.36557e-11
1.64437e-09
1.70694e-08
0
0
0
0
0
0
8.73115e-11
2.38651e-09
3.04717e-08
3.10858e-07
0
0
0
0
0
5.82077e-11
2.47383e-09
3.8388e-08
4.89948e-07
4.98272e-06
0
0
0
0
0
1.97906e-09
3.48664e-08
5.28758e-07
6.75235e-06
6.75712e-05
0
0
0
0
1.1205e-09
2.27155e-08
3.92436e-07
5.94919e-06
7.49979e-05
0.000715145
0
0
0
4.36557e-10
1.05501e-08
2.00438e-07
3.43185e-06
5.10162e-05
0.000604724
0.00495074
0
0
0
0
0
0
0
0
0
0
0
0
0
0
0
0
0
0
0
0
0
0
0
0
0
0
0
0
0
7.71252e-10
0
0
0
0
0
0
0
1.45519e-11
1.46974e-09
1.54832e-08
0
0
0
0
0
0
4.36557e-11
1.81899e-09
2.40398e-08
2.4261e-07
0
0
0
0
0
0
1.67347e-09
2.57569e-08
3.23853e-07
3.21967e-06
0
0
0
0
0
1.06229e-09
1.93832e-08
2.86163e-07
3.53497e-06
3.36591e-05
0
0
0
0
4.80213e-10
1.01136e-08
1.68453e-07
2.43621e-06
2.87547e-05
0.000245567
0
0
0
0
0
0
0
0
0
0
0
0
0
0
0
0
0
0
0
0
0
0
0
0
0
0
0
0
0
0
0
0
0
0
0
0
0
0
0
5.67525e-10
0
0
0
0
0
0
0
0
9.45874e-10
1.02591e-08
0
0
0
0
0
0
0
1.01863e-09
1.34896e-08
1.32452e-07
0
0
0
0
0
0
7.27596e-10
1.19326e-08
1.44821e-07
1.36887e-06
0
0
0
0
0
3.34694e-10
7.11589e-09
1.00918e-07
1.17152e-06
1.02129e-05
0.00760988
0.00217326
0.000750757
0.000104442
0.00248476
0.219098
6.31379
226038
314399
4.35495e-07
1.20896e-05
0.000312368
0.00850661
2.16524
92723.2
376645
486179
640622
1.97654e-06
5.99874e-05
0.00147895
0.0148062
0.662194
5744.83
341743
606209
5.89181e-06
0.000148296
0.00298814
0.0323238
5.01177
139713
366056
623355
1.08735e-05
0.000270946
0.00637931
3.03756
107246
358009
484968
1.1321e-05
0.000289155
1.56346e-07
4.125e-06
9.60948e-05
0.00214398
0.377009
14207.5
366339
471822
619328
6.23215e-07
1.838e-05
0.000581466
0.00888154
0.254433
684.84
332981
589105
2.19521e-06
5.91986e-05
0.00122241
0.0127965
0.847828
31434.6
357191
604053
4.43836e-06
0.000112056
0.00218075
0.671814
1858.01
342581
455359
592142
4.6995e-06
0.000112371
2.80706e-08
8.0443e-07
2.22019e-05
0.000597697
0.00773661
0.48527
2.68859
412441
405376
1.15804e-07
3.22858e-06
7.81063e-05
0.00168677
0.0191858
3.31526
128474
426779
3.59505e-07
9.33073e-06
0.000216171
0.00520312
0.101467
166.057
324545
504445
7.58024e-07
2.01235e-05
0.000550501
0.0135696
1.62413
53351.7
376649
507425
9.10077e-07
2.55729e-05
3.82715e-09
1.08281e-07
2.76174e-06
6.71186e-05
0.00140377
0.0141555
0.893967
386994
319499
1.65019e-08
4.49392e-07
1.07223e-05
0.000235849
0.00522402
0.0764764
47.1321
395838
292361
5.34783e-08
1.39677e-06
3.39049e-05
0.000926385
0.0136034
0.611157
2223.68
395747
1.156e-07
3.02994e-06
7.29876e-05
0.00159775
0.148821
5849.49
353488
380248
1.56288e-07
4.14361e-06
3.7835e-10
1.33441e-08
3.28873e-07
7.67077e-06
0.00016535
0.00296521
0.0247699
1.52683
251548
2.12458e-09
5.93282e-08
1.41212e-06
3.09344e-05
0.000627834
0.0126249
0.170437
2935.35
182491
7.567e-09
1.99856e-07
4.65394e-06
0.000108632
0.00255676
0.0236817
1.21373
7410.57
1.75642e-08
4.57716e-07
1.09655e-05
0.000255116
0.00512155
0.0590888
7.3098
141392
2.45927e-08
6.38596e-07
1.50404e-05
0.000331079
0.00600003
0.522452
10900.2
151377
0
1.26602e-09
3.24362e-08
7.47183e-07
1.63021e-05
0.000327308
0.00552967
0.0373784
318.04
190943
1.45519e-10
6.18456e-09
1.49128e-07
3.30883e-06
6.84882e-05
0.00135651
0.0282085
1.15916
80554
180553
7.567e-10
2.28756e-08
5.36835e-07
1.21928e-05
0.000271682
0.00527843
0.0433953
2.49189
2.02272e-09
5.44969e-08
1.28975e-06
2.91779e-05
0.000603603
0.0103312
0.116903
87.5578
2.80852e-09
7.55972e-08
1.74988e-06
3.77296e-05
0.000720812
0.0116763
5.45949
59107.2
0
0
2.44472e-09
5.61995e-08
1.18509e-06
2.3438e-05
0.000418821
0.00623398
0.0241677
4967.88
0
4.22006e-10
1.18889e-08
2.62866e-07
5.37345e-06
0.000104215
0.00210865
0.0255368
0.731675
16310.2
0
1.84809e-09
4.50964e-08
9.85165e-07
2.07484e-05
0.00040736
0.0064679
0.0433826
8.73115e-11
4.5402e-09
1.09329e-07
2.40392e-06
4.92503e-05
0.000884438
0.0132899
6.95886
1.45519e-10
6.37374e-09
1.50118e-07
3.23378e-06
6.36708e-05
0.00109479
0.0171473
9.30472
0
0
5.82077e-11
3.4197e-09
7.07805e-08
1.33042e-06
2.27429e-05
0.000333413
0.00338084
0.00928276
0
0
6.8394e-10
1.67056e-08
3.31638e-07
6.03382e-06
0.000101096
0.00164111
0.0164717
0.720414
0
1.45519e-11
2.91038e-09
6.31844e-08
1.25551e-06
2.34005e-05
0.000391551
0.00512353
0
2.32831e-10
7.18865e-09
1.54512e-07
3.06442e-06
5.50496e-05
0.000838939
0.0098897
0
3.20142e-10
9.93896e-09
2.11498e-07
4.11019e-06
7.12152e-05
0.00104058
0.0121568
0
0
0
1.01863e-10
3.56522e-09
6.66623e-08
1.08435e-06
1.52756e-05
0.000166318
0.00117746
0
0
0
8.58563e-10
1.75496e-08
3.09374e-07
4.84182e-06
6.57325e-05
0.000658496
0.00434252
0
0
8.73115e-11
3.33239e-09
6.62549e-08
1.15772e-06
1.83049e-05
0.000245367
0
0
2.91038e-10
8.30914e-09
1.61046e-07
2.79557e-06
4.23881e-05
0.000514302
0
0
4.65661e-10
1.1496e-08
2.20069e-07
3.74841e-06
5.49692e-05
0.000639817
0
0
0
0
8.73115e-11
2.83762e-09
4.58385e-08
6.18573e-07
6.71053e-06
5.18255e-05
0
0
0
0
6.8394e-10
1.36351e-08
2.07423e-07
2.67016e-06
2.68003e-05
0.000193925
0
0
0
5.82077e-11
2.92493e-09
5.06261e-08
7.51548e-07
9.5437e-06
0
0
0
2.76486e-10
7.15954e-09
1.21174e-07
1.77264e-06
2.14555e-05
0
0
0
4.36557e-10
9.92441e-09
1.65601e-07
2.37853e-06
2.794e-05
289551
374003
232366
205694
268291
218807
272043
232193
274207
239310
284239
1.30037
163632
72.9051
210013
32052.5
215798
0.0270456
26.1998
0.0272296
293.723
0.0739922
897.916
0.00255549
0.0151971
0.00466275
0.0319674
0.00524408
0.0242698
9.53143e-05
0.000559705
0.000197206
0.0014674
0.000244054
0.00187662
311397
609864
668945
650378
488476
515292
479671
505923
343230
278360
375486
373843
364579
272802
310401
362733
275467
382531
272503
308077
361540
299278
504344
659638
600836
598388
490181
523265
657179
624629
519750
508354
578764
732435
566940
712576
488322
520808
649057
636126
613215
507544
478547
594337
445580
554272
478340
436892
543806
469460
386212
292762
401647
278178
392502
363957
293181
627822
555778
605990
476147
501069
455343
473849
663310
654979
649493
610638
606874
595589
599082
559759
468267
405629
557331
469273
392546
469575
504109
578093
483115
562960
706400
566195
636985
555046
466479
392106
468097
425562
460200
390614
725100
701308
694847
675850
670323
643936
649118
415137
495302
488922
490681
386245
394691
496871
656751
638174
643407
597276
601894
590815
586634
366454
361381
367352
344441
361527
330577
330012
366629
341829
343900
359250
360689
329936
328370
676365
655178
671723
616404
620349
608549
604658
674036
660321
677181
618458
621088
609195
606473
619024
639769
634919
583094
572932
569740
586392
384649
392933
494481
384517
481811
376668
475465
361384
339598
337447
358409
358679
327275
326674
717314
682795
687658
659731
663946
637911
633582
665292
653748
670428
615331
610729
603381
599253
536598
434584
534705
466384
419419
513088
447557
613504
624579
629094
578345
561962
565111
574746
360830
334001
335446
363670
360244
326773
327890
643417
659033
650765
598113
605214
594115
587621
573768
500373
489436
443689
527876
434390
520245
635765
670755
665153
618197
596571
592509
622797
475473
400660
391937
434569
537332
425601
529341
602606
588789
585427
558500
555625
540968
543825
452945
380656
475675
358771
444526
372942
469309
559800
512555
556967
547293
506944
504290
550180
624747
574965
620228
597652
559119
555345
601909
641218
630045
618127
589566
580008
579930
571063
252551
192039
252286
248580
277815
228341
206414
224433
297142
248362
208209
252879
283800
254605
282004
228478
250764
245477
251770
162668
191190
253799
195313
253582
285383
253598
254466
194830
693550
677074
654623
667197
645402
628644
621062
624421
595499
628585
558872
584486
580869
555656
429808
497662
428370
441139
456203
383284
389484
361030
299130
412559
413529
379675
292438
302687
184247
253306
252410
280100
272035
245442
251726
326147
312799
327536
308602
291170
307820
292136
549252
508788
552759
543250
498041
500501
540011
312412
325005
327093
308114
290158
306559
291735
634387
597453
630273
589384
560399
585915
563379
631788
601150
634889
589865
561354
563734
587322
629532
653331
658318
612316
582716
587157
607864
570197
611236
614961
592229
547049
550519
588354
597500
577966
580691
548309
550954
536521
534169
368616
333503
368979
334609
376303
330386
334711
481106
401405
432627
457005
484134
368523
383740
566649
524515
569889
560869
514027
557407
517037
617697
595009
607169
556962
568937
561101
550062
477243
367277
382222
374552
468728
360712
446414
536718
528160
497944
485820
525380
495309
539533
322637
305416
320022
288489
305092
303806
286772
568480
525157
570559
561474
515550
517582
559085
565657
517313
561709
513137
556367
552604
509799
311541
381288
374034
381082
364769
274743
209074
366446
375494
366390
327925
333342
327908
333183
374751
364413
365541
327249
331785
332542
326207
583477
588150
619447
576317
547221
570771
551907
571438
551062
568315
526125
514314
511265
529012
485379
556545
465351
431134
512182
413111
487789
364564
280675
385860
274973
200024
364824
139156
364340
375631
365767
332005
325878
326576
333432
532603
518642
481850
489189
521279
491522
529745
512882
550433
556796
548060
500522
542100
505740
606933
582514
578665
571227
567467
542670
546195
648064
612001
639829
577791
603010
596244
571281
451444
518911
469103
509872
547307
444592
466644
302442
314607
317325
302791
283388
302278
285014
575225
556569
516303
539445
552857
535838
579198
376011
343128
337704
395862
385581
341087
349353
577787
571226
597842
541584
564285
556896
535447
492742
497331
494897
456784
457682
459569
454772
494327
498070
495644
457381
459075
456170
460164
415879
360439
444356
334785
407551
353168
435775
389553
453554
376108
423376
517759
408959
499577
581487
573474
544134
566787
530480
537777
524723
441619
370940
463113
344852
424476
357473
442012
267152
217394
226436
46018.9
245017
253096
142153
378503
373208
368711
328369
339964
336111
331420
516220
475644
513469
500841
467588
464857
503642
560959
546539
563604
521912
504744
507153
519614
543121
493647
534603
494420
535326
527338
487428
557032
512857
514695
528660
531157
494218
492328
559794
512627
514598
529116
531317
494180
492381
606696
557070
599753
543038
583974
577730
537541
668998
618280
647166
600999
627388
606828
583564
491875
491210
488680
456848
454037
451040
453817
488428
569820
503170
381865
391455
412205
400763
218065
455759
541210
419668
625021
137540
278186
522399
45355.1
5342.93
26616.6
32404.2
278822
313752
544419
237229
273000
518913
189139
156921
472066
15284.1
17944.9
477.555
153.495
16503
4812.15
6.99461
3348.51
0.728396
92.9454
1198.26
2091.39
27791.7
21151.3
3.34919
14.7693
22.3713
2207.69
169.79
285.088
0.00157741
6.36235e-05
2.64704e-06
0.000299701
1.35892e-05
5.71337e-07
243588
246765
323763
263182
191269
194916
241668
266862
213336
202585
273196
12491.2
243500
169140
503597
88323.2
188507
385489
352119
459981
474042
11.2831
165289
0.0256368
0.00567049
220211
97049.4
9971.06
9751.19
34864.4
43951.6
16992.2
161733
98720.4
132927
87617.1
109.059
11520.6
0.671631
11.2069
4275.94
0.591585
16.7979
3.28933
6004.44
1289.36
7818.64
398.736
8611.8
56312.4
1835.93
2814.31
23475.4
663.449
32735.3
21808.6
22113.7
86404
3063.07
81069.8
186283
153741
171034
449.701
24.289
0.315192
0.0352858
0.179846
2.7422
0.00962463
0.0990047
0.0254412
105.262
0.0158318
0.000628105
2.63179e-05
27580.9
1.53818
0.00315617
0.00436769
0.000155986
0.000195024
6.54481e-06
440979
66337.2
39909.3
510563
36.8277
3519.76
4.14849e-06
0.000103645
4.48461e-07
6.91492e-07
6.45698e-07
5.07846e-06
2.09048e-05
4.33401e-06
1.84573e-05
0.00214773
0.0333489
0.000179551
0.000702507
0.000119722
0.00055551
0.00647249
0.00331323
0.0661482
0.00883717
15.2878
0.0861501
6.0536e-09
1.64742e-07
9.15315e-09
1.11337e-07
0
0
0
0
2.91038e-08
2.95404e-09
8.54197e-09
4.44212e-07
2.47383e-10
5.3551e-09
7.37928e-08
5.05504e-07
1.58252e-07
1.33165e-07
5.79894e-08
0
0
0
0
0
0
0
0
0
0
0
0
0
0
7.19301e-08
3.17086e-08
3.83443e-08
4.49931e-07
2.0491e-06
3.04125e-06
5.12111e-07
1.45228e-08
1.69093e-08
7.43603e-09
2.76486e-09
3.25963e-09
1.39698e-09
5.26779e-09
9.83724e-07
2.49871e-07
5.50208e-07
0
0
0
0
0
0
0
0
0
0
0
0
0
0
0
0
0
0
0
0
0
0
0
0
0
0
0
0
0
0
0
0
0
0
0
0
0
0
0
0
0
0
0
0
0
4.22006e-10
7.9599e-09
8.06176e-09
4.67116e-09
1.49885e-09
5.38421e-10
1.06229e-09
1.07684e-09
0.000361441
2.60295e-05
0.000718021
0.00041308
0.0018902
0.000150973
0.00341266
4.95929e-05
2.39572e-05
4.70927e-05
3.14573e-06
1.39472e-05
0.000591007
4.38765e-06
1.50314e-06
3.14273e-06
1.63139e-05
6.81414e-05
8.44011e-10
4.96802e-08
7.53789e-09
8.58563e-09
4.83124e-08
4.40923e-09
6.8394e-10
0.403587
0.0082894
6.2145
8.1112
136.511
0.116695
103.796
0.0304006
0.0309002
0.46871
0.099664
0.00563701
0.00015611
0.115483
0.079379
0.262779
0.254273
0.185756
0.196435
0.057848
0.143567
0.120717
0.0129387
0.0492109
0.058301
0.111506
0.0464165
0.0571695
0.0135399
0.0106511
0.0906395
0.0316119
0.0403499
0.0391705
0.0434346
0.00903225
0.00476296
0.0226466
0.0263846
0.042394
0.00617827
0.0157295
0.0228525
0.0198487
0.157818
0.00846607
0.077885
0.0013208
0.00364857
9.11812e-05
0.00063744
0.000259967
0.000634927
0.000447001
0.00412555
0.00298273
0.00133845
0.0015979
0.00101166
0.00124231
0.0214865
0.0147711
0.0166474
0.00028887
0.000111117
0.00182856
0.00064641
0.017744
0.000567829
0.00067199
0.000246214
0.000343908
0.00972115
0.00365451
0.049975
0.00483473
0.0606981
4.6428e-05
9.2011e-06
0.00027836
0.00952414
5.31681e-05
8.95471e-05
9.8656e-05
2.16871e-05
4.25229e-05
0.0191154
0.00135566
0.0175878
0.000318188
0.000495296
0.0038735
3.27498e-06
6.51552e-06
1.924e-05
6.53628e-05
6.41431e-06
1.02684e-05
3.05338e-06
6.30334e-06
0.000115424
0.000897015
6.64729e-05
6.99292e-05
0.000332249
6.04774
0.59806
0.31512
4.51525e-05
0.0142664
0.00069692
0.000459642
0.0109491
5.34578e-05
0.000174799
0.000271055
0.00061898
0.000166717
0.000266282
5.57324e-05
4.24879e-05
0.000492556
0.000113463
0.000193846
0.000134229
0.000207614
3.64892e-05
0.00266793
0.000875275
0.0100574
0.00405539
0.00083969
0.00984161
0.00279596
0.00217551
0.00318409
0.000584587
0.00713666
0.000677316
0.00775239
0.00184814
1.94453e-05
7.73116e-05
0.000120276
0.000243926
2.42554e-05
6.05255e-05
0.000107593
1.04785e-05
0.000132699
2.3145e-05
4.54428e-05
3.34763e-05
5.42453e-05
7.5687e-06
0.000993428
0.000392483
0.00443477
0.00159608
0.0012636
0.00031232
0.00389032
0.000520092
0.000831032
0.00010946
0.00110232
0.000169225
0.00188098
0.000277379
0.00251894
0.0265225
0.00550099
0.00526813
0.00956379
0.0103662
0.00131073
2.30988e-06
1.02769e-05
1.90452e-05
3.0959e-05
3.39384e-06
6.25772e-06
1.52348e-05
9.04241e-07
1.15666e-05
1.74559e-06
3.94639e-06
2.58333e-06
5.13466e-06
6.0437e-07
7.95484e-05
4.96835e-05
0.000596594
0.000183749
0.000145355
2.92601e-05
0.000364535
0.000375721
0.00278912
0.00367869
0.00584387
0.000754501
0.00147756
0.00181167
3.6147e-05
7.03166e-05
7.97397e-06
8.67849e-05
1.24326e-05
0.000157126
1.82459e-05
1.49957e-07
6.61763e-07
1.39067e-06
1.72875e-06
2.28785e-07
3.93091e-07
1.04425e-06
1.93817e-07
1.24743e-06
4.25841e-05
9.09335e-07
1.92467e-06
4.92713e-07
3.11848e-06
1.15698e-05
3.15248e-06
3.8786e-05
9.33716e-06
8.87491e-06
2.22509e-06
2.52818e-05
0.000168354
1.02213e-05
0.000433606
0.000554755
1.94019e-05
4.63913e-05
0.00369477
1.72185
114.659
0.495097
1.40334
9.23327
21.3282
0.11908
0.00108097
0.0261007
0.016489
0.0880316
0.00141811
0.00794827
0.00617459
9.4311e-06
2.21246e-06
3.27538e-05
0.000473202
0.000596812
6.93595e-05
0.000104942
0.000819609
6.55152e-06
8.21745e-05
7.47552e-05
0.000441693
4.92827e-05
0.0293494
0.00858455
0.00392491
0.000580735
0.0734863
0.00430375
0.00264316
9.9665e-05
0.00183361
4.20661e-05
0.00108205
6.82037e-06
0.000144986
6.17962e-07
2.5893e-05
2.45741e-06
2.08057e-05
1.52795e-05
5.77276e-06
0.000278205
7.7639e-05
0.00025261
1.50183e-06
6.06451e-07
9.13929e-06
3.72647e-06
3.0142e-06
1.51123e-06
0.000115527
1.98335e-05
9.03538e-05
2.78087e-07
7.66886e-08
1.58651e-06
3.60611e-07
5.2547e-07
2.14772e-07
2.07074e-05
2.24683e-06
1.51898e-05
3.19706e-08
1.51806e-07
6.16274e-08
3.18413e-06
2.08936e-07
2.32099e-06
5.52347e-07
1.19678e-06
5.63508e-07
1.19567e-06
2.06011e-07
1.09484e-05
3.9834e-06
4.47523e-05
2.02938e-05
3.75259e-06
4.37915e-05
1.14243e-05
8.84497e-06
1.35418e-05
2.66256e-06
3.18214e-05
2.65898e-06
3.5344e-05
7.44473e-06
9.18517e-08
3.51865e-07
6.89455e-07
9.96995e-07
1.29134e-07
2.12967e-07
5.79501e-07
5.51227e-08
5.71614e-07
1.1969e-07
3.15544e-07
1.21319e-07
3.37328e-07
4.97239e-08
3.87309e-06
1.69336e-06
1.98756e-05
5.3336e-06
4.91587e-06
1.00514e-06
1.75682e-05
2.16582e-06
3.15638e-06
5.6687e-07
7.40506e-06
5.73331e-07
9.5346e-06
1.52372e-06
1.429e-08
6.02595e-08
1.31738e-07
1.52271e-07
2.38215e-08
2.89583e-08
9.93023e-08
6.4465e-09
7.44767e-08
1.39553e-08
4.82105e-08
1.43191e-08
4.3452e-08
6.91216e-09
4.75411e-07
2.71306e-07
3.19735e-06
7.00704e-07
6.97037e-07
1.218e-07
2.58075e-06
1.97921e-07
2.71786e-07
5.27361e-08
7.67148e-07
5.10772e-08
1.00926e-06
1.35464e-07
1.42609e-09
6.66478e-09
1.81462e-08
1.84664e-08
3.08501e-09
3.27418e-09
1.17579e-08
3.62488e-08
2.45054e-08
2.68468e-07
6.755e-08
5.36529e-08
1.08703e-08
2.20127e-07
0
4.36557e-10
1.23837e-08
2.60887e-07
5.51587e-06
0.000109288
0.00212712
0
0
7.85803e-10
1.73313e-08
3.46903e-07
6.35475e-06
0.000105883
0
0
0
8.29459e-10
1.82918e-08
3.22878e-07
5.00375e-06
0
0
0
0
7.85803e-10
1.40426e-08
2.12851e-07
0
0
0
2.28465e-09
5.00149e-08
9.77132e-07
1.77456e-05
0
0
0
2.03727e-10
6.17001e-09
1.26674e-07
2.28564e-06
0
0
0
4.36557e-11
2.80852e-09
5.41622e-08
9.21384e-07
0
0
0
0
2.47383e-10
6.62112e-09
1.16226e-07
0
0
0
0
4.36557e-11
2.37196e-09
4.05271e-08
0
0
0
0
0
2.32831e-10
5.02041e-09
1.01863e-10
5.18048e-09
1.23429e-07
2.517e-06
6.59712
0.092572
0.00207209
9.09236e-05
3.91714e-06
1.50045
0.00913861
0.000551662
3.05192e-05
1.45998e-06
0.0109761
0.00170827
0.000115255
5.90897e-06
2.58864e-07
0.0023611
0.000223851
1.361e-05
6.95654e-07
3.04572e-08
0.000381861
2.4661e-05
1.33485e-06
6.43195e-08
2.64845e-09
6.22988e-05
3.2846e-06
1.57961e-07
6.88306e-09
1.89175e-10
8.22659e-05
4.91313e-06
2.60261e-07
1.24419e-08
4.80213e-10
0
6.07892e-05
4.5849e-06
2.87488e-07
1.56433e-08
7.13044e-10
0
0
2.76453e-06
2.19123e-07
1.41881e-08
7.567e-10
0
0
0
1.10682e-07
9.02219e-09
5.38421e-10
0
0
0
0
0
0
0
0
9.8953e-10
2.98605e-08
7.75195e-07
1.9001e-05
0.000429206
0.0108408
0
0
1.45519e-11
3.46336e-09
9.28121e-08
2.28039e-06
5.49946e-05
0.00144036
0
0
0
2.32831e-10
7.52334e-09
1.82685e-07
4.10536e-06
9.05244e-05
0
0
0
0
4.36557e-10
1.15979e-08
2.52418e-07
4.98118e-06
0
0
0
0
0
5.09317e-10
1.28493e-08
2.40645e-07
0
0
0
0
3.7835e-10
1.218e-08
3.10916e-07
7.37055e-06
0.000156909
0.00333626
0
0
0
1.38243e-09
3.68018e-08
8.80478e-07
1.94228e-05
0.000410525
0
0
0
1.45519e-11
2.95404e-09
7.09842e-08
1.54582e-06
3.05821e-05
0
0
0
0
1.01863e-10
4.45289e-09
9.70322e-08
1.85669e-06
0
0
0
0
0
1.74623e-10
4.91855e-09
9.22155e-08
0
0
0
0
0
0
2.03727e-10
0
0
0
2.15368e-09
5.83095e-08
1.51152e-06
3.38949e-05
0.000708933
0
0
0
1.74623e-10
6.37374e-09
1.63098e-07
3.87052e-06
8.79104e-05
0
0
0
0
4.36557e-10
1.21654e-08
2.77927e-07
5.96562e-06
0
0
0
0
0
6.98492e-10
1.63127e-08
3.2931e-07
0
0
0
0
0
0
7.567e-10
1.54687e-08
0
0
0
0
0
0
0
0
0
0
1.10595e-09
0
0
0
2.03727e-10
8.29459e-09
2.04935e-07
5.08534e-06
0.00011871
0
0
0
0
7.567e-10
2.05036e-08
4.9088e-07
1.10987e-05
0
0
0
0
0
1.39698e-09
3.39787e-08
7.17671e-07
0
0
0
0
0
0
1.89175e-09
3.91301e-08
0
0
0
0
0
0
0
1.77533e-09
0
3.49246e-10
0
0
0
0
0
0
0
0
0
0
0
8.73115e-11
4.99131e-09
1.58499e-07
4.973e-06
0
0
0
0
1.04774e-09
2.92639e-08
7.364e-07
1.63353e-05
0
0
0
0
0
2.25555e-09
5.43077e-08
1.18272e-06
0
0
0
0
0
8.73115e-11
3.27418e-09
7.00384e-08
0
0
0
0
0
0
1.01863e-10
3.60887e-09
0
0
0
0
0
0
0
8.73115e-11
0
1.74623e-10
2.70084e-08
5.35452e-07
0
0
0
1.16415e-09
0
0
0
2.03727e-10
1.18162e-08
4.62765e-07
1.80159e-05
0
0
0
0
2.09548e-09
6.99656e-08
1.91446e-06
0
0
0
0
1.01863e-10
4.91855e-09
1.3008e-07
2.95977e-06
0
0
0
0
0
2.03727e-10
7.43603e-09
1.66998e-07
0
0
0
0
0
0
3.20142e-10
8.33825e-09
0
0
0
0
0
0
0
3.20142e-10
0
0
0
0
0
0
0
0
0
0
1.22236e-09
2.97296e-08
6.61646e-07
1.37054e-05
0
0
0
1.92085e-09
4.64497e-08
1.05528e-06
2.47612e-05
0
0
0
8.73115e-11
4.10364e-09
1.08135e-07
2.69065e-06
0
0
0
0
2.47383e-10
8.04721e-09
1.94195e-07
4.19856e-06
0
0
0
0
0
4.36557e-10
1.22673e-08
2.61498e-07
0
0
0
0
0
0
6.40284e-10
1.42027e-08
0
0
0
0
0
0
0
6.40284e-10
0
0
0
0
0
0
0
0
0
0
0
0
0
0
0
0
0
0
0
0
3.63798e-10
9.26957e-09
1.90747e-07
3.48222e-06
0
0
0
0
0
5.67525e-10
1.3606e-08
2.63564e-07
0
0
0
0
0
0
8.00355e-10
1.66328e-08
0
0
0
0
0
0
0
8.73115e-10
0
0
0
0
0
0
0
0
0
0
0
0
0
0
0
0
0
0
0
0
0
0
0
0
0
0
0
0
0
4.80213e-10
1.02154e-08
1.76369e-07
0
0
0
0
0
0
6.98492e-10
1.35769e-08
0
0
0
0
0
0
0
8.00355e-10
0
0
0
0
0
0
0
0
0
0
0
0
0
0
0
0
0
0
0
0
0
0
0
0
0
0
0
0
0
0
0
0
0
0
0
0
0
0
3.7835e-10
7.5961e-09
0
0
0
0
0
0
0
5.38421e-10
0
0
0
0
0
0
0
0
0
0
0
0
0
0
0
0
0
0
0
0
0
0
0
0
0
0
0
0
0
0
0
0
0
0
0
0
0
0
0
0
0
0
0
0
0
0
0
0
0
0
0
0
0
0
0
0
0
0
0
0
0
0
0
0
0
1.45519e-11
2.61934e-10
0
0
0
1.01863e-10
0
0
1.45519e-10
7.71252e-10
1.16415e-10
2.88128e-09
5.51372e-08
2.31827e-07
5.326e-09
2.25846e-08
3.7835e-10
0
0
3.34694e-10
1.84809e-09
0
5.82077e-11
0
0
0
0
0
0
0
0
0
0
0
0
0
0
0
0
0
0
2.96859e-08
9.8662e-09
2.24827e-08
1.65746e-08
0
0
0
0
0
0
0
0
0
0
1.45519e-11
0
1.16415e-10
0
0
0
0
0
0
0
0
0
0
0
0
0
0
0
0
0
0
0
0
0
0
0
0
0
0
0
0
0
0
0
0
0
0
0
0
0
0
0
0
0
0
0
0
0
0
0
0
0
0
0
0
0
0
0
0
0
0
0
0
0
0
0
0
3.49246e-10
4.36557e-10
0
1.16415e-10
1.16415e-10
7.71252e-10
0
4.71482e-09
1.42609e-09
4.65661e-10
5.09317e-10
3.34694e-09
2.60479e-09
1.28057e-09
1.18889e-08
1.68948e-08
1.1496e-09
6.54836e-09
7.27596e-09
2.65136e-08
2.67755e-09
1.01863e-10
1.01863e-10
0
1.01863e-09
0
4.65661e-10
3.20142e-10
7.00238e-08
1.03275e-07
4.49654e-08
1.62792e-07
0
0
0
0
0
0
0
0
0
0
0
0
3.21597e-09
0
0
0
0
0
1.32422e-09
0
0
0
0
0
0
0
0
1.45519e-10
6.54836e-10
0
1.01863e-10
5.52973e-10
0
0
0
0
0
0
0
0
4.36557e-11
2.47383e-10
0
0
0
1.16415e-10
0
0
0
0
0
0
0
0
0
0
0
0
0
0
0
0
0
0
0
0
0
0
0
0
0
0
0
0
0
0
0
0
0
0
0
0
0
0
0
0
0
0
0
0
0
0
0
0
0
0
0
0
0
0
1.84664e-08
4.71482e-09
9.02219e-09
5.38421e-10
2.41562e-09
2.61934e-10
1.52795e-09
2.53756e-07
1.015e-07
3.25745e-07
1.81608e-08
5.01896e-08
9.12405e-09
3.22907e-08
1.01863e-10
0
0
0
4.36557e-11
0
0
4.10364e-09
0
2.47383e-10
6.8394e-10
2.93949e-09
0
2.91038e-10
0
0
0
0
0
0
0
0
0
0
0
0
0
0
0
0
0
0
0
0
0
1.01863e-10
0
0
0
5.82077e-11
8.73115e-11
0
0
0
0
0
0
0
0
0
0
0
0
0
0
0
0
0
0
0
0
0
0
0
0
0
0
0
0
0
0
0
0
0
0
0
0
0
0
0
0
0
0
0
0
0
0
0
0
0
0
0
0
0
0
0
0
0
0
0
0
0
0
0
0
6.1118e-10
2.04163e-08
8.9845e-07
9.73669e-08
2.85787e-06
7.95784e-05
2.76486e-10
9.99717e-09
3.81959e-07
3.91447e-08
1.09986e-06
3.28249e-05
0
2.03727e-09
7.6936e-08
2.25642e-07
5.82742e-06
1.0783e-08
9.77452e-07
5.14265e-08
0.000133599
2.54513e-08
4.43571e-07
0.00020279
4.39511e-07
7.05196e-05
0
0
0
9.45874e-10
2.91038e-11
8.73115e-10
2.50293e-09
3.78059e-08
3.15777e-09
3.05736e-08
1.63811e-07
3.50263e-06
1.49899e-07
0
0
3.71074e-09
7.79983e-09
2.27446e-08
4.94765e-10
3.18687e-09
6.4756e-09
2.02563e-08
9.91713e-08
2.35232e-07
6.89673e-07
1.6953e-08
8.89268e-08
1.95971e-07
6.15648e-07
7.56561e-06
7.30224e-06
2.49804e-05
7.08416e-07
6.17506e-06
2.29275e-05
0
0
4.36557e-10
0
1.16415e-10
1.30967e-09
1.83209e-08
5.38421e-10
7.10133e-09
7.2454e-08
3.40515e-08
0
1.74623e-09
3.98722e-09
1.06811e-08
8.73115e-11
7.71252e-10
1.77533e-09
6.43195e-09
4.70609e-08
1.14596e-07
3.04586e-07
4.36557e-09
2.30939e-08
5.23287e-08
1.92565e-07
3.21925e-06
9.93333e-06
1.83281e-07
1.61205e-06
7.71825e-06
0
0
1.45519e-10
3.63798e-09
2.18279e-10
9.74978e-10
1.2762e-08
4.83124e-09
2.47383e-10
7.13044e-10
2.05182e-09
1.01718e-08
2.37051e-08
6.54836e-08
1.22236e-09
3.75439e-09
2.02854e-08
3.48809e-08
6.84042e-07
2.09117e-06
3.01952e-08
2.89569e-07
1.49762e-06
3.92902e-10
3.0559e-10
1.61526e-09
1.35333e-09
1.07102e-08
5.40604e-08
1.45519e-09
9.58971e-09
1.07684e-09
8.06176e-09
1.03682e-07
3.24304e-07
6.94126e-09
3.45754e-08
9.10077e-08
2.25074e-07
2.78713e-07
2.44046e-06
1.27431e-07
8.5998e-06
8.58403e-07
3.80664e-07
0.000140964
0.000104442
1.18818e-05
0.000284957
9.00711e-06
5.38421e-10
2.01544e-08
9.62071e-07
2.04219e-05
7.45058e-08
1.44407e-06
1.3446e-07
0.000526552
3.27156e-05
8.34659e-05
3.52908e-05
0.000142845
3.66464e-05
1.86701e-08
1.16415e-10
7.28323e-08
5.82077e-09
1.31593e-07
1.46523e-07
9.16771e-09
1.51413e-07
2.57132e-08
3.40107e-07
4.45434e-08
9.94536e-05
0.00190959
8.5154e-06
8.28581e-05
0.00010749
0.000624181
1.78835e-05
0
0
0
0
0
0
0
0
0
0
0
0
0
0
0
0
1.45519e-11
0
0
0
0
0
8.73115e-11
3.34694e-10
5.67525e-10
0