/*--------------------------------*- C++ -*----------------------------------*\
  =========                 |
  \\      /  F ield         | OpenFOAM: The Open Source CFD Toolbox
   \\    /   O peration     | Website:  https://openfoam.org
    \\  /    A nd           | Version:  9
     \\/     M anipulation  |
\*---------------------------------------------------------------------------*/
FoamFile
{
    format      ascii;
    class       volScalarField;
    location    "0.0027";
    object      rho;
}
// * * * * * * * * * * * * * * * * * * * * * * * * * * * * * * * * * * * * * //

dimensions      [1 -3 0 0 0 0 0];

internalField   nonuniform List<scalar> 
23825
(
1.225
1.225
1.225
1.225
1.225
1.225
1.225
1.225
1.225
1.225
1.225
1.225
1.225
1.225
1.225
1.225
1.225
1.225
1.225
1.225
1.225
1.225
1.225
1.225
1.225
1.225
1.225
1.225
1.225
1.225
1.225
1.225
1.225
1.225
1.225
1.225
1.225
1.225
1.225
1.22525
2.26227
1.22506
1.225
1.225
1.225
1.47991
1.55508
1.22764
1.225
1.225
1.2251
2.37746
1.82721
1.12783
1.22501
1.67393
2.5554
1.38498
0.878956
1.225
1.22896
2.83047
2.84726
1.59861
1.225
1.225
1.225
1.225
1.225
1.225
1.225
1.225
1.225
1.225
1.225
1.225
1.225
1.225
1.225
1.225
1.225
1.225
1.225
1.225
1.225
1.225
1.225
1.225
1.225
1.225
1.225
1.225
1.225
1.225
1.225
1.225
1.225
1.225
1.225
1.225
1.225
1.225
1.225
1.225
1.225
1.225
1.225
1.225
1.22502
1.225
1.225
1.225
1.225
1.225
1.225
1.225
1.22504
1.62833
1.225
1.225
1.225
1.225
1.225
1.225
1.22501
1.47687
1.059
1.225
1.225
1.225
1.225
1.225
1.40703
2.65011
1.21771
0.650127
1.225
1.225
1.225
1.225
1.225
1.225
1.225
1.225
1.225
1.225
1.225
1.225
1.225
1.225
1.225
1.225
1.225
1.225
1.225
1.225
1.225
1.225
1.225
1.225
1.225
1.225
1.225
1.225
1.225
1.225
1.225
1.225
1.225
1.225
1.225
1.225
1.225
1.225
1.225
1.225
1.225
1.225
1.225
1.225
1.22501
1.225
1.225
1.225
1.225
1.225
1.225
1.225
1.22501
1.27778
1.225
1.225
1.225
1.225
1.225
1.225
1.225
1.2562
1.27777
1.225
1.225
1.225
1.225
1.225
1.24966
2.85909
1.45848
0.962187
1.225
1.225
1.225
1.225
1.225
1.225
1.225
1.225
1.225
1.225
1.225
1.225
1.225
1.225
1.225
1.225
1.225
1.225
1.225
1.225
1.225
1.225
1.225
1.225
1.225
1.225
1.225
1.225
1.225
1.225
1.225
1.225
1.225
1.225
1.225
1.225
1.225
1.225
1.225
1.225
1.225
1.225
1.225
1.225
1.225
1.225
1.225
1.225
1.225
1.225
1.225
1.225
1.225
1.2252
1.225
1.225
1.225
1.225
1.225
1.225
1.225
1.22512
2.34765
1.225
1.225
1.225
1.225
1.225
1.225
1.22501
1.38572
2.16691
1.225
1.225
1.225
1.225
1.225
1.225
1.225
1.225
1.225
1.225
1.225
1.225
1.225
1.225
1.225
1.225
1.225
1.225
1.225
1.225
1.225
1.225
1.225
1.225
1.225
1.225
1.225
1.225
1.225
1.225
1.225
1.225
1.225
1.225
1.225
1.225
1.225
1.225
1.225
1.225
1.225
1.225
1.225
1.225
1.225
1.225
1.225
1.225
1.225
1.225
1.225
1.225
1.225
1.225
1.225
1.225
1.225
1.225
1.225
1.225
1.225
1.225
1.22556
1.225
1.225
1.225
1.225
1.225
1.225
1.225
1.22501
2.93721
1.225
1.225
1.225
1.225
1.225
1.225
1.225
1.225
1.225
1.225
1.225
1.225
1.225
1.225
1.225
1.225
1.225
1.225
1.225
1.225
1.225
1.225
1.225
1.225
1.225
1.225
1.225
1.225
1.225
1.225
1.225
1.225
1.225
1.225
1.225
1.225
1.225
1.225
1.225
1.225
1.225
1.225
1.225
1.225
1.225
1.225
1.225
1.225
1.225
1.225
1.225
1.225
1.225
1.225
1.225
1.225
1.225
1.225
1.225
1.225
1.225
1.225
1.225
1.225
1.225
1.225
1.225
1.225
1.225
1.225
1.225
2.37162
1.225
1.225
1.225
1.225
1.225
1.225
1.225
1.225
1.225
1.225
1.225
1.225
1.225
1.225
1.225
1.225
1.225
1.225
1.225
1.225
1.225
1.225
1.225
1.225
1.225
1.225
1.225
1.225
1.225
1.225
1.225
1.225
1.225
1.225
1.225
1.225
1.225
1.225
1.225
1.225
1.225
1.225
1.225
1.225
1.225
1.225
1.225
1.225
1.225
1.225
1.225
1.225
1.225
1.225
1.225
1.225
1.225
1.225
1.225
1.225
1.225
1.225
1.225
1.225
1.225
1.225
1.225
1.225
1.225
1.22588
1.225
1.225
1.225
1.225
1.225
1.225
1.225
1.225
1.22548
2.04346
1.225
1.225
1.225
1.225
1.225
1.225
1.225
1.225
1.225
1.225
1.225
1.225
1.225
1.225
1.225
1.225
1.225
1.225
1.225
1.225
1.225
1.225
1.225
1.225
1.225
1.225
1.225
1.225
1.225
1.225
1.225
1.225
1.225
1.225
1.225
1.225
1.225
1.225
1.225
1.225
1.225
1.225
1.225
1.225
1.225
1.225
1.225
1.225
1.225
1.225
1.225
1.225
1.225
1.225
1.225
1.225
1.225
1.225
1.225
1.225
1.225
1.225
1.225
1.225
1.225
1.225
1.225
1.225
1.225
1.225
1.225
1.225
1.225
1.225
1.225
1.225
1.225
1.225
1.225
1.225
1.225
1.225
1.225
1.225
1.225
1.225
1.225
1.225
1.225
1.225
1.225
1.225
1.225
1.225
1.225
1.225
1.225
1.225
1.225
1.225
1.225
1.225
1.225
1.225
1.225
1.225
1.225
1.225
1.225
1.225
1.225
1.225
1.225
1.225
1.225
1.225
1.225
1.225
1.225
1.225
1.225
1.225
1.225
1.225
1.225
1.225
1.225
1.225
1.225
1.225
1.225
1.225
1.225
1.225
1.225
1.225
1.225
1.225
1.225
1.225
1.225
1.225
1.225
1.225
1.225
1.225
1.225
1.225
1.225
1.225
1.225
1.225
1.225
1.225
1.225
1.225
1.225
1.225
1.225
1.225
1.225
1.225
1.225
1.225
1.225
1.225
1.225
1.225
1.225
1.225
1.225
1.225
1.225
1.225
1.225
1.225
1.225
1.225
1.225
1.225
1.225
1.225
1.225
1.225
1.225
1.225
1.225
1.225
1.225
1.225
1.225
1.225
1.225
1.225
1.225
1.225
1.225
1.225
1.225
1.225
1.225
1.225
1.225
1.225
1.225
1.225
1.225
1.225
1.225
1.225
1.225
1.225
1.225
1.225
1.225
1.225
1.225
1.225
1.225
1.225
1.225
1.225
1.225
1.225
1.225
1.225
1.225
1.225
1.225
1.225
1.225
1.225
1.225
1.225
1.225
1.225
1.225
1.225
1.225
1.225
1.225
1.225
1.225
1.225
1.225
1.225
1.225
1.225
1.225
1.225
1.225
1.225
1.225
1.225
1.225
1.225
1.225
1.225
1.225
1.225
1.225
1.225
1.225
1.225
1.225
1.225
1.225
1.225
1.225
1.225
1.225
1.225
1.225
1.225
1.225
1.225
1.225
1.225
1.225
1.225
1.225
1.225
1.225
1.225
1.225
1.225
1.225
1.225
1.225
1.225
1.225
1.225
1.225
1.225
1.225
1.225
1.225
1.225
1.225
1.225
1.225
1.225
1.225
1.225
1.225
1.225
1.225
1.225
1.225
1.225
1.225
1.225
1.225
1.225
1.225
1.225
1.225
1.225
1.225
1.225
1.225
1.225
1.225
1.225
1.225
1.225
1.22505
2.60592
2.95256
1.225
1.225
1.225
1.225
1.22502
1.82943
2.37716
1.06213
0.604963
1.225
1.225
1.225
1.225
1.22501
1.2692
2.72478
0.604281
1.225
1.225
1.225
1.225
1.22504
2.10981
2.05346
0.58987
1.225
1.225
1.225
1.22503
1.92415
2.04338
0.787002
1.225
1.225
1.225
1.225
1.225
1.225
1.225
1.3289
2.70055
1.29822
0.789433
1.225
1.225
1.225
1.225
1.225
1.23062
2.85504
0.800941
1.225
1.225
1.225
1.225
1.22501
1.44598
2.43334
0.774682
1.225
1.225
1.225
1.22501
1.23986
2.77991
1.54318
1.02261
1.225
1.225
1.225
1.225
1.225
1.225
1.225
1.225
1.22502
2.68806
2.83119
1.225
1.225
1.225
1.225
1.225
1.22503
2.02955
2.30722
1.225
1.225
1.225
1.225
1.225
1.22639
2.84609
1.46275
1.225
1.225
1.225
1.225
1.22501
1.58043
2.866
1.36374
1.225
1.225
1.225
1.225
1.225
1.225
1.225
1.225
1.22501
2.99276
2.99469
1.225
1.225
1.225
1.225
1.225
1.225
1.2254
2.74297
2.06694
1.225
1.225
1.225
1.225
1.225
1.22501
1.24252
2.48957
1.225
1.225
1.225
1.225
1.225
1.26958
2.99683
1.90482
1.225
1.225
1.225
1.225
1.225
1.225
1.225
1.225
1.225
1.22501
2.74965
1.225
1.225
1.225
1.225
1.225
1.225
1.225
1.24904
2.39789
1.225
1.225
1.225
1.225
1.225
1.225
1.22501
1.28421
1.225
1.225
1.225
1.225
1.225
1.225
1.22506
2.18285
1.225
1.225
1.225
1.225
1.225
1.225
1.30922
2.23856
1.225
1.225
1.225
1.225
1.225
1.225
1.225
1.225
1.22769
2.43154
1.225
1.225
1.225
1.225
1.225
1.225
1.225
1.22501
1.80156
2.38225
1.225
1.225
1.225
1.225
1.225
1.225
1.225
1.22502
1.225
1.225
1.225
1.225
1.225
1.225
1.225
1.22575
1.225
1.225
1.225
1.225
1.225
1.225
1.22505
1.65857
1.225
1.225
1.225
1.225
1.225
1.225
1.225
1.225
1.225
1.26514
1.225
1.225
1.225
1.225
1.225
1.225
1.225
1.225
1.22501
1.3514
1.225
1.225
1.225
1.225
1.225
1.225
1.225
1.225
1.225
1.225
1.225
1.225
1.225
1.225
1.225
1.22506
1.225
1.225
1.225
1.225
1.225
1.225
1.225
1.22508
1.225
1.225
1.225
1.225
1.225
1.225
1.225
1.225
1.225
1.225
1.225
1.225
1.225
1.225
1.225
1.225
1.225
1.225
1.225
1.22501
1.225
1.225
1.225
1.225
1.225
1.225
1.225
1.225
1.225
1.225
1.225
1.225
1.225
1.225
1.225
1.225
1.225
1.225
1.225
1.225
1.225
1.225
1.225
1.225
1.225
1.225
1.225
1.225
1.225
1.225
1.225
1.225
1.225
1.225
1.225
1.225
1.225
1.225
1.225
1.225
1.225
1.225
1.225
1.225
1.225
1.225
1.225
1.225
1.225
1.225
1.225
1.225
1.225
1.225
1.225
1.225
1.225
1.225
1.225
1.225
1.225
1.225
1.225
1.225
1.225
1.225
1.225
1.225
1.225
1.225
1.225
1.225
1.225
1.225
1.225
1.225
1.225
1.225
1.225
1.225
1.225
1.225
1.225
1.225
1.225
1.225
1.225
1.225
1.225
1.225
1.225
1.225
1.225
1.225
1.225
1.225
1.225
1.225
1.225
1.225
1.225
1.225
1.225
1.225
1.225
1.225
1.225
1.225
1.225
1.225
1.225
1.225
1.80605
1.62055
2.47361
2.47607
1.68822
2.50717
1.7339
2.4032
1.6055
2.23925
1.46579
1.22501
2.29053
1.22562
2.45803
1.46781
2.43193
1.225
1.22522
1.225
1.22748
1.225
1.23251
1.225
1.225
1.225
1.225
1.225
1.225
1.225
1.225
1.225
1.225
1.225
1.225
1.33785
0.678014
0.560848
0.629796
0.822246
0.702455
0.950347
0.81274
1.08618
1.78586
1.60198
1.60538
0.964398
2.09341
1.33664
0.971096
2.32191
1.77125
2.11916
1.34575
1.05872
1.45579
1.17649
0.789517
1.0008
1.00269
1.3674
0.842955
0.769435
0.699555
0.884181
0.997188
0.663203
0.533207
0.771781
0.611786
1.37562
0.848986
0.783963
0.812412
0.934719
0.896325
1.44533
0.700643
1.19388
0.695849
0.887071
1.33613
0.810475
1.02056
1.42037
2.7886
2.17557
2.43069
1.9627
1.12409
1.60742
0.831637
1.21247
0.960017
1.07303
0.926323
1.65116
1.48406
0.570551
0.569217
0.579307
0.59322
0.602438
0.613397
0.603738
1.12259
1.43074
2.16272
1.12866
1.43099
2.53323
1.56874
1.10345
1.20307
1.61079
0.87328
0.694271
1.23361
1.05463
1.13684
1.44778
2.5625
1.57943
1.78686
1.66412
2.73488
0.543844
0.550464
0.562381
0.563566
0.575822
0.599202
0.586628
1.24569
0.806503
0.825093
0.770443
1.57022
1.41147
0.725422
0.586615
0.643383
0.596924
0.671973
0.62227
0.635643
0.688993
0.962335
1.1307
0.960595
1.08688
1.13214
1.28344
1.28429
0.962071
1.08855
1.08726
1.13543
1.13319
1.28324
1.28542
0.721808
0.870161
0.828227
0.832774
0.740945
0.84166
0.889477
0.665907
0.772535
0.67442
0.710395
0.715537
0.831323
0.831154
0.600855
0.578646
0.589003
0.62687
0.633116
0.645091
0.61617
1.58332
1.42336
0.729585
1.56657
0.785777
1.7379
0.833851
0.985461
1.09547
1.11248
1.14397
1.16283
1.29498
1.31741
0.563229
0.635352
0.584114
0.65279
0.599086
0.625397
0.681183
0.675031
0.77449
0.667124
0.71413
0.722707
0.837138
0.846767
1.3043
1.46956
1.06106
1.14613
2.07224
1.41863
1.72833
0.623572
0.659238
0.608901
0.652242
0.735106
0.673713
0.709648
1.01312
1.19788
1.14508
1.2541
1.19791
1.35812
1.42127
0.796537
0.686022
0.698974
0.748351
0.734186
0.859564
0.876173
0.754452
1.00587
1.12072
1.5459
0.911838
1.67458
0.953984
0.617234
0.573278
0.585442
0.632054
0.666112
0.678699
0.619334
1.18283
1.92637
2.09133
1.34087
0.754092
1.4834
0.803274
0.616222
0.624463
0.637378
0.657385
0.670473
0.705845
0.691956
1.00664
1.65771
0.822608
2.25746
1.14541
1.83677
0.872373
0.633952
0.714539
0.644275
0.661886
0.732245
0.745076
0.650568
0.603711
0.676798
0.616744
0.651546
0.716402
0.729979
0.638374
0.714042
0.731558
0.853744
0.765699
0.786558
0.897107
0.922154
1.86917
2.41288
1.94053
2.04337
1.5422
2.38028
2.46085
2.45089
1.42904
2.07242
2.48121
2.25231
1.52955
1.9016
1.4832
2.38887
1.91658
2.1385
1.94775
2.29208
2.41063
1.84701
2.42391
1.91668
1.46032
1.84993
1.9084
2.42251
0.801757
0.720159
0.741733
0.830647
0.858034
0.772529
0.892746
0.89962
1.01018
0.888771
1.11811
0.973185
0.984128
1.13111
2.10959
1.5743
1.93739
1.89572
1.70887
2.94934
2.8045
1.84607
2.88589
2.12711
2.36158
2.11618
2.92512
2.42637
2.40564
2.46953
2.28208
1.55214
1.67828
2.13008
1.93993
1.21692
1.3342
1.21565
1.42219
1.5441
1.42576
1.53846
0.727791
0.746324
0.670128
0.69032
0.848425
0.778878
0.751554
1.33355
1.21652
1.21503
1.42164
1.54388
1.42515
1.53822
0.889299
1.01512
0.921344
0.967793
1.11549
0.986562
1.10595
0.881924
0.998996
0.880327
0.962946
1.11067
1.10655
0.96622
0.644339
0.663691
0.61016
0.660441
0.76667
0.708357
0.717683
0.708747
0.703104
0.644688
0.681583
0.827178
0.762956
0.741454
0.642251
0.728537
0.666718
0.767108
0.702133
0.740051
0.808056
1.2084
1.27157
1.33239
1.36345
1.43007
1.50602
1.60822
0.974102
1.79434
1.51623
1.53347
0.956946
2.49018
1.72993
0.840606
0.849698
0.780877
0.907549
1.00822
0.932044
0.994722
0.751713
0.90563
0.878391
0.840351
0.811232
0.950974
0.983874
0.97845
2.50998
1.74522
1.9155
1.02985
2.65547
1.62709
0.68529
0.703738
0.771434
0.836503
0.717026
0.785025
0.672962
1.22429
1.36636
1.24386
1.5568
1.4363
1.46131
1.5828
0.765757
0.841957
0.767893
0.900852
0.995385
0.992352
0.903053
0.77105
0.859271
0.780283
1.00212
0.909526
0.91949
1.01315
2.72152
1.88045
2.56642
1.87653
2.89398
2.48589
2.5543
1.34782
1.59897
1.34776
1.52156
1.80261
1.52521
1.7964
1.59969
1.35156
1.34826
1.52142
1.80493
1.79701
1.52595
1.066
1.04081
0.914577
0.999475
1.17571
1.02002
1.15014
0.6538
0.709879
0.66746
0.754331
0.804597
0.819217
0.7399
1.23088
1.2724
1.74441
1.79871
1.11781
2.39155
1.60276
2.9093
2.69505
2.06894
2.51366
2.50527
2.98993
2.14558
1.36304
1.65043
1.38741
1.82327
1.53941
1.56792
1.85839
0.716521
0.819469
0.87427
0.893696
0.75089
0.820866
0.781543
0.87439
0.809553
0.792849
0.933227
1.05308
0.95203
1.02941
0.662301
0.713113
0.725106
0.730906
0.743246
0.829888
0.817865
0.75134
0.908857
0.865989
0.860688
0.810681
0.934901
0.988229
2.04199
1.55827
1.82234
1.60159
1.41285
2.11913
1.83436
1.40229
1.33532
1.27975
1.50438
1.68502
1.56811
1.62499
0.700865
0.75574
0.897014
0.788802
0.768545
0.802142
0.687798
1.30841
1.58758
1.4699
1.65903
1.5415
1.72374
1.84871
1.09775
1.13379
0.988868
1.20772
1.04614
1.07692
1.2447
0.808728
0.746875
0.756341
0.895635
0.912223
0.884194
0.920692
0.737378
0.730624
0.741577
0.886138
0.872453
0.885798
0.873593
1.48801
2.22828
1.09784
2.80452
1.63859
2.41781
1.2402
2.25515
1.82663
2.85612
1.61933
1.12513
2.24989
1.49139
0.93594
0.831769
0.87534
0.970386
0.918586
1.02214
1.06809
1.27789
2.01985
1.07288
2.85291
1.89205
2.71625
1.67502
1.75621
2.48386
2.42588
1.5657
2.26946
2.0195
2.18208
1.69965
1.49648
1.43049
1.61638
1.9939
1.91453
1.68822
0.745486
0.901818
0.759611
0.81574
0.968726
0.983707
0.801025
0.764068
0.743898
0.699551
0.790413
0.929198
0.856461
0.860927
0.831272
0.965046
0.858508
1.08534
0.976745
1.00743
1.12653
1.12861
1.26429
1.26308
1.25868
1.25573
1.42414
1.42598
1.12445
1.26947
1.26521
1.26208
1.25766
1.42573
1.43086
0.798769
1.00986
0.925514
0.929503
0.838361
0.968307
1.06816
0.9231
1.09713
0.957827
1.13734
0.991525
1.0323
1.18532
0.741905
0.740401
0.752893
0.878689
0.892231
0.907147
0.893528
2.7688
3.25962
2.62082
2.74248
2.70275
2.3636
2.57553
2.56343
3.70395
2.162
3.22648
2.94478
2.16495
2.81594
2.41346
1.47823
1.26633
1.37873
1.41028
2.4785
2.60567
3.21977
2.30969
2.44872
3.15834
2.10776
1.9716
3.08
1.31895
1.35672
1.22891
1.22629
1.34333
1.26148
1.22506
1.24824
1.22501
1.22574
1.23381
1.23997
1.3856
1.35065
1.22503
1.22512
1.22518
1.23937
1.22629
1.22717
1.225
1.225
1.225
1.225
1.225
1.225
2.38733
2.51831
2.74682
2.28435
1.83249
1.72324
2.24692
2.18318
1.44846
1.60484
2.02932
1.30278
2.29406
2.02749
3.15646
1.66641
2.10039
2.75738
2.66175
2.91917
2.88085
1.22509
2.04093
1.225
1.225
2.59248
1.83745
1.29656
1.29732
1.46068
1.51253
1.34043
2.05381
1.69444
1.8293
1.70915
1.22592
1.3055
1.22501
1.2251
1.25869
1.225
1.22514
1.22503
1.26682
1.23442
1.27828
1.22824
1.28292
1.50592
1.2385
1.24613
1.35729
1.23016
1.42339
1.34886
1.33874
1.60964
1.24556
1.63609
1.87192
1.82082
2.00794
1.2288
1.2252
1.225
1.225
1.225
1.22502
1.225
1.225
1.225
1.2259
1.225
1.225
1.225
1.43399
1.22501
1.225
1.225
1.225
1.225
1.225
3.14222
1.70566
1.44356
3.88951
1.22531
1.25359
1.225
1.225
1.225
1.225
1.225
1.225
1.225
1.225
1.225
1.225
1.225
1.225
1.225
1.225
1.225
1.225
1.225
1.225
1.225
1.22513
1.225
1.225
1.225
1.225
1.225
1.225
1.225
1.225
1.225
1.225
1.225
1.225
1.225
1.225
1.225
1.225
1.225
1.225
1.225
1.225
1.225
1.225
1.225
1.225
1.225
1.225
1.225
1.225
1.225
1.225
1.225
1.225
1.225
1.225
1.225
1.225
1.225
1.225
1.225
1.225
1.225
1.225
1.225
1.225
1.225
1.225
1.225
1.225
1.225
1.225
1.225
1.225
1.225
1.225
1.225
1.225
1.225
1.225
1.225
1.225
1.225
1.225
1.225
1.225
1.225
1.225
1.225
1.225
1.225
1.225
1.225
1.225
1.225
1.225
1.225
1.225
1.225
1.225
1.225
1.225
1.225
1.225
1.225
1.225
1.225
1.225
1.225
1.225
1.225
1.225
1.225
1.225
1.225
1.225
1.225
1.225
1.225
1.225
1.225
1.225
1.225
1.225
1.225
1.225
1.225
1.225
1.225
1.225
1.225
1.225
1.225
1.225
1.225
1.225
1.225
1.225
1.225
1.225
1.225
1.225
1.225
1.225
1.225
1.225
1.225
1.225
1.225
1.225
1.225
1.225
1.225
1.22505
1.22507
1.22609
1.225
1.22583
1.225
1.225
1.225
1.225
1.225
1.225
1.225
1.225
1.225
1.225
1.225
1.225
1.225
1.225
1.225
1.225
1.225
1.225
1.225
1.225
1.225
1.225
1.225
1.225
1.225
1.225
1.225
1.225
1.225
1.225
1.225
1.225
1.225
1.225
1.225
1.225
1.225
1.225
1.225
1.225
1.225
1.225
1.225
1.225
1.225
1.225
1.225
1.225
1.225
1.225
1.225
1.225
1.225
1.225
1.225
1.225
1.225
1.225
1.225
1.225
1.225
1.225
1.225
1.225
1.225
1.225
1.225
1.225
1.225
1.225
1.225
1.225
1.225
1.225
1.225
1.225
1.225
1.225
1.225
1.225
1.225
1.225
1.225
1.225
1.225
1.225
1.225
1.225
1.225
1.225
1.225
1.225
1.225
1.225
1.225
1.225
1.225
1.225
1.22505
1.22501
1.225
1.225
1.225
1.225
1.225
1.225
1.225
1.225
1.225
1.225
1.225
1.225
1.225
1.225
1.225
1.225
1.225
1.225
1.225
1.225
1.225
1.225
1.225
1.225
1.225
1.225
1.225
1.225
1.225
1.225
1.225
1.225
1.225
1.225
1.225
1.225
1.225
1.225
1.225
1.225
1.225
1.225
1.225
1.225
1.225
1.225
1.225
1.225
1.225
1.225
1.225
1.225
1.225
1.225
1.225
1.225
1.225
1.225
1.225
1.225
1.225
1.225
1.225
1.225
1.225
1.225
1.225
1.225
1.225
1.225
1.225
1.225
1.225
1.225
1.225
1.225
1.225
1.225
1.225
1.225
1.225
1.225
1.225
1.225
1.225
1.225
1.225
1.225
1.225
1.225
1.225
1.225
1.225
1.225
1.225
1.225
1.225
1.225
1.225
1.225
1.225
1.225
1.225
1.225
1.225
1.225
1.225
1.225
1.225
1.225
1.225
1.225
1.225
1.225
1.225
1.225
1.225
1.225
1.225
1.225
1.225
1.225
1.225
1.225
1.225
1.225
1.225
1.225
1.225
1.225
1.225
1.225
1.22501
1.22589
1.225
1.22501
1.22508
1.22517
1.225
1.225
1.225
1.225
1.225
1.225
1.225
1.225
1.225
1.225
1.225
1.225
1.225
1.225
1.225
1.225
1.225
1.225
1.225
1.225
1.225
1.225
1.225
1.225
1.225
1.225
1.225
1.225
1.225
1.225
1.225
1.225
1.225
1.225
1.225
1.225
1.225
1.225
1.225
1.225
1.225
1.225
1.225
1.225
1.225
1.225
1.225
1.225
1.225
1.225
1.225
1.225
1.225
1.225
1.225
1.225
1.225
1.225
1.225
1.225
1.225
1.225
1.225
1.225
1.225
1.225
1.225
1.225
1.225
1.225
1.225
1.225
1.225
1.225
1.225
1.225
1.225
1.225
1.225
1.225
1.225
1.225
1.225
1.225
1.225
1.225
1.225
1.225
1.225
1.225
1.225
1.225
1.225
1.225
1.225
1.225
1.225
1.225
1.225
1.225
1.225
1.225
1.225
1.225
1.225
1.225
1.225
1.225
1.225
1.225
1.225
1.225
1.225
1.225
1.225
1.225
1.225
1.225
1.225
1.225
1.225
1.225
1.225
1.225
1.225
1.225
1.225
1.225
1.225
1.225
1.225
1.225
1.225
1.225
1.225
1.225
1.225
1.225
1.225
1.225
1.225
1.225
1.225
1.225
1.225
1.225
1.225
1.225
1.225
1.225
1.225
1.225
1.225
1.225
1.225
1.225
1.225
1.225
1.225
1.225
1.225
1.225
1.225
1.225
1.225
1.225
1.225
1.225
1.225
1.225
1.225
1.225
1.225
1.225
1.225
1.225
1.225
1.225
1.225
1.225
1.225
1.225
1.225
1.225
1.225
1.225
1.225
1.225
1.225
1.225
1.225
1.225
1.225
1.225
1.225
1.225
1.225
1.225
1.225
1.225
1.225
1.225
1.225
1.225
1.225
1.225
1.225
1.225
1.225
1.225
1.225
1.225
1.225
1.225
1.225
1.225
1.225
1.225
1.225
1.225
1.225
1.225
1.225
1.225
1.225
1.225
1.225
1.225
1.225
1.225
1.22506
1.225
1.225
1.225
1.225
1.22501
1.225
1.225
1.225
1.225
1.225
1.225
1.225
1.225
1.225
1.225
1.225
1.225
1.225
1.225
1.225
1.225
1.225
1.225
1.225
1.225
1.225
1.225
1.225
1.225
1.225
1.225
1.225
1.225
1.225
1.225
1.225
1.225
1.225
1.225
1.225
1.225
1.225
1.225
1.225
1.225
1.225
1.225
1.225
1.225
1.225
1.225
1.225
1.225
1.225
1.225
1.225
1.225
1.225
1.225
1.225
1.225
1.225
1.225
1.225
1.225
1.225
1.225
1.225
1.225
1.225
1.225
1.225
1.225
1.225
1.225
1.225
1.225
1.225
1.225
1.225
1.225
1.225
1.225
1.225
1.225
1.225
1.225
1.225
1.225
1.225
1.225
1.225
1.225
1.225
1.225
1.225
1.225
1.225
1.225
1.225
1.225
1.225
1.225
1.225
1.225
1.225
1.225
1.225
1.225
1.225
1.225
1.225
1.225
1.225
1.225
1.225
1.225
1.225
1.225
1.225
1.225
1.225
1.225
1.225
1.225
1.225
1.225
1.225
1.225
1.225
1.225
1.225
1.225
1.225
1.225
1.225
1.225
1.225
1.225
1.225
1.225
1.225
1.225
1.225
1.225
1.225
1.225
1.225
1.225
1.225
1.225
1.225
1.225
1.225
1.225
1.225
1.225
1.225
1.225
1.225
1.225
1.225
1.225
1.225
1.225
1.225
1.225
1.225
1.225
1.225
1.225
1.225
1.225
1.225
1.225
1.225
1.225
1.225
1.225
1.225
1.225
1.225
1.225
1.225
1.225
1.225
1.225
1.225
1.225
1.225
1.225
1.225
1.225
1.225
1.225
1.225
1.225
1.225
1.225
1.225
1.225
1.225
1.225
1.225
1.225
1.225
1.225
1.225
1.225
1.225
1.225
1.225
1.225
1.225
1.225
1.225
1.225
1.225
1.225
1.225
1.225
1.225
1.225
1.225
1.225
1.225
1.225
1.225
1.225
1.225
1.225
1.225
1.225
1.225
1.225
1.225
1.225
1.225
1.225
1.225
1.225
1.225
1.225
1.225
1.225
1.225
1.225
1.225
1.225
1.225
1.225
1.225
1.225
1.225
1.225
1.225
1.225
1.225
1.225
1.225
1.225
1.225
1.225
1.225
1.225
1.225
1.225
1.225
1.225
1.225
1.225
1.225
1.225
1.225
1.225
1.225
1.225
1.225
1.225
1.225
1.225
1.225
1.225
1.225
1.225
1.225
1.225
1.225
1.225
1.225
1.225
1.225
1.225
1.225
1.225
1.225
1.225
1.225
1.225
1.225
1.225
1.225
1.225
1.225
1.225
1.225
1.225
1.225
1.225
1.225
1.225
1.225
1.225
1.225
1.225
1.225
1.225
1.225
1.225
1.225
1.225
1.225
1.225
1.225
1.225
1.225
1.225
1.225
1.225
1.225
1.225
1.225
1.225
1.225
1.225
1.225
1.225
1.225
1.225
1.225
1.225
1.225
1.225
1.225
1.225
1.225
1.225
1.225
1.225
1.225
1.225
1.225
1.225
1.225
1.225
1.225
1.225
1.225
1.225
1.225
1.225
1.225
1.225
1.225
1.225
1.225
1.225
1.225
1.225
1.225
1.225
1.225
1.225
1.225
1.225
1.225
1.225
1.225
1.225
1.225
1.225
1.225
1.225
1.225
1.225
1.225
1.225
1.225
1.225
1.225
1.225
1.225
1.225
1.225
1.225
1.225
1.225
1.225
1.225
1.225
1.225
1.225
1.225
1.225
1.225
1.225
1.225
1.225
1.225
1.225
1.225
1.225
1.225
1.225
1.225
1.225
1.225
1.225
1.225
1.225
1.225
1.225
1.225
1.225
1.225
1.225
1.225
1.225
1.225
1.225
1.225
1.225
1.225
1.225
1.225
1.225
1.225
1.225
1.225
1.225
1.225
1.225
1.225
1.225
1.225
1.225
1.225
1.225
1.225
1.225
1.225
1.225
1.225
1.225
1.225
1.225
1.225
1.225
1.225
1.225
1.225
1.225
1.225
1.225
1.225
1.225
1.225
1.225
1.225
1.225
1.225
1.225
1.225
1.225
1.225
1.225
1.225
1.225
1.225
1.225
1.225
1.225
1.225
1.225
1.225
1.225
1.225
1.225
1.225
1.225
1.225
1.225
1.225
1.225
1.225
1.225
1.225
1.225
1.225
1.225
1.225
1.225
1.225
1.225
1.225
1.225
1.225
1.225
1.225
1.225
1.225
1.225
1.225
1.225
1.225
1.225
1.225
1.225
1.225
1.225
1.225
1.225
1.225
1.225
1.225
1.225
1.225
1.225
1.225
1.225
1.225
1.225
1.225
1.225
1.225
1.225
1.225
1.225
1.225
1.225
1.225
1.225
1.225
1.225
1.225
1.225
1.225
1.225
1.225
1.225
1.225
1.225
1.225
1.225
1.225
1.225
1.225
1.225
1.225
1.225
1.225
1.225
1.225
1.225
1.225
1.225
1.225
1.225
1.225
1.225
1.225
1.225
1.225
1.225
1.225
1.225
1.225
1.225
1.225
1.225
1.225
1.225
1.225
1.225
1.225
1.225
1.225
1.225
1.225
1.225
1.225
1.225
1.225
1.225
1.225
1.225
1.225
1.225
1.225
1.225
1.225
1.225
1.225
1.225
1.225
1.225
1.225
1.225
1.225
1.225
1.225
1.225
1.225
1.225
1.225
1.225
1.225
1.225
1.225
1.225
1.225
1.225
1.225
1.225
1.225
1.225
1.225
1.225
1.225
1.225
1.225
1.225
1.225
1.225
1.225
1.225
1.225
1.225
1.225
1.225
1.225
1.225
1.225
1.225
1.225
1.225
1.225
1.225
1.225
1.225
1.225
1.225
1.225
1.225
1.225
1.225
1.225
1.225
1.225
1.225
1.225
1.225
1.225
1.225
1.225
1.225
1.225
1.225
1.225
1.225
1.225
1.225
1.225
1.225
1.225
1.225
1.225
1.225
1.225
1.225
1.225
1.225
1.225
1.225
1.225
1.225
1.225
1.225
1.225
1.225
1.225
1.225
1.225
1.225
1.225
1.225
1.225
1.225
1.225
1.225
1.225
1.225
1.225
1.225
1.225
1.225
1.225
1.225
1.225
1.225
1.225
1.225
1.225
1.225
1.225
1.225
1.225
1.225
1.225
1.225
1.225
1.225
1.225
1.225
1.225
1.225
1.225
1.225
1.225
1.225
1.225
1.225
1.225
1.225
1.225
1.225
1.225
1.225
1.225
1.225
1.225
1.225
1.225
1.225
1.225
1.225
1.225
1.225
1.225
1.225
1.225
1.225
1.225
1.225
1.225
1.225
1.225
1.225
1.225
1.225
1.225
1.225
1.225
1.225
1.225
1.225
1.225
1.225
1.225
1.225
1.225
1.225
1.225
1.225
1.225
1.225
1.225
1.225
1.225
1.225
1.225
1.225
1.225
1.225
1.225
1.225
1.225
1.225
1.225
1.225
1.225
1.225
1.225
1.225
1.225
1.225
1.225
1.225
1.225
1.225
1.225
1.225
1.225
1.225
1.225
1.225
1.225
1.225
1.225
1.225
1.225
1.225
1.225
1.225
1.225
1.225
1.225
1.225
1.225
1.225
1.225
1.225
1.225
1.225
1.225
1.225
1.225
1.225
1.225
1.225
1.225
1.225
1.225
1.225
1.225
1.225
1.225
1.225
1.225
1.225
1.225
1.225
1.225
1.225
1.225
1.225
1.225
1.225
1.225
1.225
1.225
1.225
1.225
1.225
1.225
1.225
1.225
1.225
1.225
1.225
1.225
1.225
1.225
1.225
1.225
1.225
1.225
1.225
1.225
1.225
1.225
1.225
1.225
1.225
1.225
1.225
1.225
1.225
1.225
1.225
1.225
1.225
1.225
1.225
1.225
1.225
1.225
1.225
1.225
1.225
1.225
1.225
1.225
1.225
1.225
1.225
1.225
1.225
1.225
1.225
1.225
1.225
1.225
1.225
1.225
1.225
1.225
1.225
1.225
1.225
1.225
1.225
1.225
1.225
1.225
1.225
1.225
1.225
1.225
1.225
1.225
1.225
1.225
1.225
1.225
1.225
1.225
1.225
1.225
1.225
1.225
1.225
1.225
1.225
1.225
1.225
1.225
1.225
1.225
1.225
1.225
1.225
1.225
1.225
1.225
1.225
1.225
1.225
1.225
1.225
1.225
1.225
1.225
1.225
1.225
1.225
1.225
1.225
1.225
1.225
1.225
1.225
1.225
1.225
1.225
1.225
1.225
1.225
1.225
1.225
1.225
1.225
1.225
1.225
1.225
1.225
1.225
1.225
1.225
1.225
1.225
1.225
1.225
1.225
1.225
1.225
1.225
1.225
1.225
1.225
1.225
1.225
1.225
1.225
1.225
1.225
1.225
1.225
1.225
1.225
1.225
1.225
1.225
1.225
1.225
1.225
1.225
1.225
1.225
1.225
1.225
1.225
1.225
1.225
1.225
1.225
1.225
1.225
1.225
1.225
1.225
1.225
1.225
1.225
1.225
1.225
1.225
1.225
1.225
1.225
1.225
1.225
1.225
1.225
1.225
1.225
1.225
1.225
1.225
1.225
1.225
1.225
1.225
1.225
1.225
1.225
1.225
1.225
1.225
1.225
1.225
1.225
1.225
1.225
1.225
1.225
1.225
1.225
1.225
1.225
1.225
1.225
1.225
1.225
1.225
1.225
1.225
1.225
1.225
1.225
1.225
1.225
1.225
1.225
1.225
1.225
1.225
1.225
1.225
1.225
1.225
1.225
1.225
1.225
1.225
1.225
1.225
1.225
1.225
1.225
1.225
1.225
1.225
1.225
1.225
1.225
1.225
1.225
1.225
1.225
1.225
1.225
1.225
1.225
1.225
1.225
1.225
1.225
1.225
1.225
1.225
1.225
1.225
1.225
1.225
1.225
1.225
1.225
1.225
1.225
1.225
1.225
1.225
1.225
1.225
1.225
1.225
1.225
1.225
1.225
1.225
1.225
1.225
1.225
1.225
1.225
1.225
1.225
1.225
1.225
1.225
1.225
1.225
1.225
1.225
1.225
1.225
1.225
1.225
1.225
1.225
1.225
1.225
1.225
1.225
1.225
1.225
1.225
1.225
1.225
1.225
1.225
1.225
1.225
1.225
1.225
1.225
1.225
1.225
1.225
1.225
1.225
1.225
1.225
1.225
1.225
1.225
1.225
1.225
1.225
1.225
1.225
1.225
1.225
1.225
1.225
1.225
1.225
1.225
1.225
1.225
1.225
1.225
1.225
1.225
1.225
1.225
1.225
1.225
1.225
1.225
1.225
1.225
1.225
1.225
1.225
1.225
1.225
1.225
1.225
1.225
1.225
1.225
1.225
1.225
1.225
1.225
1.225
1.225
1.225
1.225
1.225
1.225
1.225
1.225
1.225
1.225
1.225
1.225
1.225
1.225
1.225
1.225
1.225
1.225
1.225
1.225
1.225
1.225
1.225
1.225
1.225
1.225
1.225
1.225
1.225
1.225
1.225
1.225
1.225
1.225
1.225
1.225
1.225
1.225
1.225
1.225
1.225
1.225
1.225
1.225
1.225
1.225
1.225
1.225
1.225
1.225
1.225
1.225
1.225
1.225
1.225
1.225
1.225
1.225
1.225
1.225
1.225
1.225
1.225
1.225
1.225
1.225
1.225
1.225
1.225
1.225
1.225
1.225
1.225
1.225
1.225
1.225
1.225
1.225
1.225
1.225
1.225
1.225
1.225
1.225
1.225
1.225
1.225
1.225
1.225
1.225
1.225
1.225
1.225
1.225
1.225
1.225
1.225
1.225
1.225
1.225
1.225
1.225
1.225
1.225
1.225
1.225
1.225
1.225
1.225
1.225
1.225
1.225
1.225
1.225
1.225
1.225
1.225
1.225
1.225
1.225
1.225
1.225
1.225
1.225
1.225
1.225
1.225
1.225
1.225
1.225
1.225
1.225
1.225
1.225
1.225
1.225
1.225
1.225
1.225
1.225
1.225
1.225
1.225
1.225
1.225
1.225
1.225
1.225
1.225
1.225
1.225
1.225
1.225
1.225
1.225
1.225
1.225
1.225
1.225
1.225
1.225
1.225
1.225
1.225
1.225
1.225
1.225
1.225
1.225
1.225
1.225
1.225
1.225
1.225
1.225
1.225
1.225
1.225
1.225
1.225
1.225
1.225
1.225
1.225
1.225
1.225
1.225
1.225
1.225
1.225
1.225
1.225
1.225
1.225
1.225
1.225
1.225
1.225
1.225
1.225
1.225
1.225
1.225
1.225
1.225
1.225
1.225
1.225
1.225
1.225
1.225
1.225
1.225
1.225
1.225
1.225
1.225
1.225
1.225
1.225
1.225
1.225
1.225
1.225
1.225
1.225
1.225
1.225
1.225
1.225
1.225
1.225
1.225
1.225
1.225
1.225
1.225
1.225
1.225
1.225
1.225
1.225
1.225
1.225
1.225
1.225
1.225
1.225
1.225
1.225
1.225
1.225
1.225
1.225
1.225
1.225
1.225
1.225
1.225
1.225
1.225
1.225
1.225
1.225
1.225
1.225
1.225
1.225
1.225
1.225
1.225
1.225
1.225
1.225
1.225
1.225
1.225
1.225
1.225
1.225
1.225
1.225
1.225
1.225
1.225
1.225
1.225
1.225
1.225
1.225
1.225
1.225
1.225
1.225
1.225
1.225
1.225
1.225
1.225
1.225
1.225
1.225
1.225
1.225
1.225
1.225
1.225
1.225
1.225
1.225
1.225
1.225
1.225
1.225
1.225
1.225
1.225
1.225
1.225
1.225
1.225
1.225
1.225
1.225
1.225
1.225
1.225
1.225
1.225
1.225
1.225
1.225
1.225
1.225
1.225
1.225
1.225
1.225
1.225
1.225
1.225
1.225
1.225
1.225
1.225
1.225
1.225
1.225
1.225
1.225
1.225
1.225
1.225
1.225
1.225
1.225
1.225
1.225
1.225
1.225
1.225
1.225
1.225
1.225
1.225
1.225
1.225
1.225
1.225
1.225
1.225
1.225
1.225
1.225
1.225
1.225
1.225
1.225
1.225
1.225
1.225
1.225
1.225
1.225
1.225
1.225
1.225
1.225
1.225
1.225
1.225
1.225
1.225
1.225
1.225
1.225
1.225
1.225
1.225
1.225
1.225
1.225
1.225
1.225
1.225
1.225
1.225
1.225
1.225
1.225
1.225
1.225
1.225
1.225
1.225
1.225
1.225
1.225
1.225
1.225
1.225
1.225
1.225
1.225
1.225
1.225
1.225
1.225
1.225
1.225
1.225
1.225
1.225
1.225
1.225
1.225
1.225
1.225
1.225
1.225
1.225
1.225
1.225
1.225
1.225
1.225
1.225
1.225
1.225
1.225
1.225
1.225
1.225
1.225
1.225
1.225
1.225
1.225
1.225
1.225
1.225
1.22501
1.22501
1.2251
1.225
1.225
1.225
1.225
1.225
1.22501
1.225
1.225
1.225
1.225
1.225
1.225
1.225
1.225
1.225
1.225
1.225
1.225
1.225
1.225
1.225
1.225
1.225
1.225
1.225
1.225
1.225
1.225
1.225
1.22503
1.225
1.225
1.225
1.225
1.225
1.225
1.225
1.225
1.225
1.225
1.225
1.2252
1.225
1.22501
1.22501
1.22506
1.225
1.225
1.225
1.225
1.225
1.225
1.225
1.225
1.225
1.225
1.225
1.225
1.225
1.225
1.225
1.225
1.225
1.225
1.225
1.225
1.225
1.225
1.225
1.225
1.225
1.225
1.225
1.225
1.225
1.225
1.225
1.225
1.225
1.22502
1.225
1.225
1.225
1.22501
1.225
1.225
1.225
1.225
1.225
1.22501
1.22505
1.225
1.22501
1.225
1.22501
1.225
1.225
1.22549
1.22509
1.229
1.22528
1.23718
1.23294
1.2282
1.22512
1.26624
1.22673
1.22594
1.22503
1.22605
1.22532
1.22682
1.22507
1.22539
1.22514
1.225
1.225
1.225
1.84831
2.51928
2.82821
3.0422
2.6243