/*--------------------------------*- C++ -*----------------------------------*\
  =========                 |
  \\      /  F ield         | OpenFOAM: The Open Source CFD Toolbox
   \\    /   O peration     | Website:  https://openfoam.org
    \\  /    A nd           | Version:  9
     \\/     M anipulation  |
\*---------------------------------------------------------------------------*/
FoamFile
{
    format      ascii;
    class       volScalarField;
    location    "0.00095";
    object      overpressureMax;
}
// * * * * * * * * * * * * * * * * * * * * * * * * * * * * * * * * * * * * * //

dimensions      [1 -1 -2 0 0 0 0];

internalField   nonuniform List<scalar> 
8547
(
0
0
0
0
0
0
0
0
0
0
0
0
0
0
0
0
0
0
0
0
0
0
0
0
0
0
0
0
0
0
0
0
0
0
0
9.76434e-09
0
4.65661e-10
3.46336e-09
2.32831e-10
2.61934e-10
1.01863e-10
5.28235e-09
2.2992e-09
4.65661e-09
2.57569e-09
8.0929e-07
2.03778e-05
1.29922e-06
8.30507e-07
1.35558e-06
1.44265e-05
1.78899e-05
1.45979e-05
9.90112e-08
4.05227e-07
9.83709e-08
4.35539e-08
8.39354e-08
4.73665e-08
6.27333e-07
1.17533e-06
6.47968e-07
9.08694e-07
2.61934e-10
2.38651e-09
3.20142e-10
2.47383e-10
3.20142e-10
2.28465e-09
1.38243e-09
1.21305e-07
7.66595e-08
3.7897e-06
1.66037e-08
2.22644e-09
1.80313e-07
1.11177e-08
7.76636e-08
1.78537e-07
1.20708e-07
3.78399e-06
1.87574e-08
1.74041e-08
1.96742e-08
1.32422e-09
0
6.8394e-10
0
0
0
0
0
0
0
0
0
0
0
0
1.429e-08
2.18279e-10
7.05768e-09
7.49424e-09
2.32831e-10
1.10595e-09
4.36557e-11
1.45519e-11
0
0
0
0
0
0
0
0
0
0
0
0
0
0
0
0
0
2.91038e-11
2.61934e-10
2.50293e-09
0
0
0
0
5.82077e-11
1.45519e-10
4.36557e-11
1.60071e-10
0
0
0
1.45519e-10
0
0
0
0
0
0
0
1.01863e-10
0
1.01863e-10
0
6.54836e-09
1.54454e-07
4.51109e-10
8.73115e-09
0
0
0
0
0
0
0
0
0
0
0
0
0
0
0
0
0
0
4.51109e-10
2.61934e-10
2.61934e-10
0
0
0
0
8.92032e-09
5.23869e-10
4.80213e-10
2.32831e-10
2.32831e-10
1.30531e-08
1.30531e-08
0
0
0
0
0
0
0
0
0
0
0
0
0
0
0
0
0
0
0
0
4.36557e-11
0
0
0
0
0
0
0
0
5.82077e-11
0
0
0
2.72121e-09
0
0
0
0
0
0
0
0
0
4.1764e-09
8.22183e-09
1.27155e-07
1.36788e-09
9.74978e-10
1.17871e-09
1.10595e-09
2.78669e-08
1.38243e-09
3.37604e-09
9.02219e-10
2.75031e-09
0
1.45519e-11
0
0
0
0
0
0
0
0
0
0
0
0
0
0
0
0
0
0
0
0
0
0
0
0
0
0
0
0
0
0
0
0
0
0
0
0
0
0
0
0
0
0
0
0
0
0
0
0
0
0
0
0
0
0
0
0
0
0
0
0
0
0
0
0
0
0
0
0
0
0
0
0
0
0
0
0
0
0
0
0
0
0
0
0
0
0
0
0
0
0
0
0
0
0
0
0
0
0
0
0
0
0
0
0
0
0
0
0
0
0
0
0
0
0
0
0
0
0
0
0
0
0
0
0
0
0
0
0
0
0
0
0
0
0
0
0
0
0
0
0
0
0
0
0
0
0
0
0
0
0
0
0
0
0
0
0
0
0
0
0
0
0
0
0
0
0
0
0
0
0
0
0
0
0
0
0
0
0
0
0
0
0
0
0
0
0
0
0
0
0
0
0
0
0
0
0
0
0
0
0
0
0
0
0
0
0
0
0
0
0
0
0
0
0
0
0
0
0
0
0
0
0
0
0
0
0
0
0
0
0
0
0
0
0
0
0
0
0
0
0
0
0
0
0
0
0
0
0
0
0
0
0
0
0
0
0
0
0
0
0
0
0
0
0
0
0
0
0
0
0
0
0
0
0
0
0
0
0
0
0
0
0
0
0
0
0
0
0
0
0
0
0
0
0
0
0
0
0
0
0
0
0
0
0
0
0
0
0
0
0
0
0
0
0
0
0
0
0
0
0
0
0
0
0
0
0
0
0
0
0
0
0
0
0
0
0
0
0
0
0
0
0
0
0
0
0
0
0
0
0
0
0
0
0
0
0
0
0
0
0
0
0
0
0
0
0
0
0
0
0
0
0
0
0
0
0
0
0
0
0
0
0
0
0
0
0
0
0
0
0
0
0
0
0
0
0
0
0
0
0
0
0
0
0
0
0
0
0
0
0
0
0
0
0
0
0
0
0
0
0
0
0
0
0
0
0
0
0
0
0
0
0
0
0
0
0
0
0
0
0
0
0
0
0
0
0
0
0
0
0
0
0
0
0
0
0
0
0
0
0
0
0
0
0
0
0
0
0
0
0
0
0
0
0
0
0
0
0
0
0
0
0
0
0
0
0
0
0
0
0
0
0
0
0
0
0
0
0
0
0
0
0
0
0
0
0
0
0
0
0
0
0
0
0
0
0
0
0
0
0
0
0
0
0
0
0
0
0
0
0
0
0
0
0
0
0
0
0
0
0
0
0
0
0
0
0
0
0
0
0
0
0
0
0
0
0
0
0
0
0
0
0
0
0
0
0
0
0
0
0
0
0
0
0
0
0
0
0
0
0
0
0
0
0
0
0
0
0
0
0
0
0
0
0
0
0
0
0
0
0
0
0
0
0
0
0
0
0
0
0
0
0
0
0
0
0
0
0
0
0
0
0
0
0
0
0
0
0
0
0
0
0
0
0
0
0
0
0
0
0
0
0
0
0
0
0
0
0
0
0
0
0
0
0
0
0
0
0
0
0
0
0
0
0
0
0
0
0
0
0
0
0
0
0
0
0
0
0
0
0
0
0
0
0
0
0
0
0
0
0
0
0
0
0
0
0
0
0
0
0
0
0
0
0
0
0
0
0
0
0
0
0
0
0
0
0
0
0
0
0
0
0
0
0
0
0
0
0
0
0
0
0
0
0
0
0
0
0
0
0
0
0
0
0
0
0
0
0
0
0
0
0
0
0
0
0
0
0
0
0
0
0
0
0
0
0
0
0
0
0
0
0
0
0
0
0
0
0
0
0
0
0
0
0
0
0
0
0
0
0
0
0
0
0
0
0
0
0
0
0
0
0
0
0
0
0
0
0
0
0
0
0
0
0
0
0
0
0
0
0
0
0
0
0
0
0
0
0
0
0
0
0
0
0
0
0
0
0
0
0
0
0
0
0
0
0
0
0
0
0
0
0
0
0
0
0
0
0
0
0
0
0
0
0
0
0
0
0
0
0
0
0
0
0
0
0
0
0
0
0
0
0
0
0
0
0
0
0
0
0
0
0
0
0
0
0
0
0
0
0
0
0
0
0
0
0
0
0
0
0
0
0
0
0
0
0
0
0
0
0
0
0
0
0
0
0
0
0
0
0
0
0
0
0
0
0
0
0
0
0
0
0
0
0
0
0
0
0
0
0
0
0
0
0
0
0
0
0
0
0
0
0
0
0
0
0
0
0
0
0
0
0
0
0
0
0
0
0
0
0
0
0
0
0
0
0
0
0
0
0
0
0
0
0
0
0
0
0
0
0
0
0
0
0
0
0
0
0
0
0
0
0
0
0
0
0
0
0
0
0
0
0
0
0
0
0
0
0
0
0
0
0
0
0
0
0
0
0
0
0
0
0
0
0
0
0
0
0
0
0
0
0
0
0
0
0
0
0
0
0
0
0
0
0
0
0
0
0
0
0
0
0
0
0
0
0
0
0
0
0
0
0
0
0
0
0
0
0
0
0
0
0
0
0
0
0
0
0
0
0
0
0
0
0
0
0
0
0
0
0
0
0
0
0
0
0
0
0
0
0
0
0
0
0
0
0
0
0
0
0
0
0
0
0
0
0
0
0
0
0
0
0
0
0
0
0
0
0
0
0
0
0
0
0
0
0
0
0
0
0
0
0
0
0
0
0
0
0
0
0
0
0
0
0
0
0
0
0
0
0
0
0
0
0
0
0
0
0
0
0
0
0
0
0
0
0
0
0
0
0
0
0
0
0
0
0
0
0
0
0
0
0
0
0
0
0
0
0
0
0
0
0
0
0
0
0
0
0
0
0
0
0
0
0
0
0
0
0
0
0
0
0
0
0
0
0
0
0
0
0
0
0
0
0
0
0
0
0
0
0
0
0
0
0
0
0
0
0
0
0
0
0
0
0
0
0
0
0
0
0
0
0
0
0
0
0
0
0
0
0
0
0
0
0
0
0
0
0
0
0
0
0
0
0
0
0
0
0
0
0
0
0
0
0
0
0
0
0
0
0
0
0
0
0
0
0
0
0
0
0
0
0
0
0
0
0
0
0
0
0
0
0
0
0
0
0
0
0
0
0
0
0
0
0
0
0
0
0
0
0
0
0
0
0
0
0
0
0
0
0
0
0
0
0
0
0
0
0
0
0
0
0
0
0
0
0
0
0
0
0
0
0
0
0
0
0
0
0
0
0
0
0
0
0
0
0
0
0
0
0
0
0
0
0
0
0
0
0
0
0
0
0
0
0
0
0
0
0
0
0
0
0
0
0
0
0
0
0
0
0
0
0
0
0
0
0
0
0
0
0
0
0
0
0
0
0
0
0
0
0
0
0
0
0
0
0
0
0
0
0
0
0
0
0
0
0
0
0
0
0
0
0
0
0
0
0
0
0
0
0
0
0
0
0
0
0
0
0
0
0
0
0
0
0
0
0
0
0
0
0
0
0
0
0
0
0
0
0
0
0
0
0
0
0
0
0
0
0
0
0
0
0
0
0
0
0
0
0
0
0
0
0
0
0
0
0
0
0
0
0
0
0
0
0
0
0
0
0
0
0
0
0
0
0
0
0
0
0
0
0
0
0
0
0
0
0
0
0
0
0
0
0
0
0
0
0
0
0
0
0
0
0
0
0
0
0
0
0
0
0
0
0
0
0
0
0
0
0
0
0
0
0
0
0
0
0
0
0
0
0
0
0
0
0
0
0
0
0
0
0
0
0
0
0
0
0
0
0
0
0
0
0
0
0
0
0
0
0
0
0
0
0
0
0
0
0
0
0
0
0
0
0
0
0
0
0
0
0
0
0
0
0
0
0
0
0
0
0
0
0
0
0
0
0
0
0
0
0
0
0
0
0
0
0
0
0
0
0
0
0
0
0
0
0
0
0
0
0
0
0
0
0
0
0
0
0
0
0
0
0
0
0
0
0
0
0
0
0
0
0
0
0
0
0
0
0
0
0
0
0
0
0
0
0
0
0
0
0
0
0
0
0
0
0
0
0
0
0
0
0
0
0
0
0
0
0
0
0
0
0
0
0
0
0
0
0
0
0
0
0
0
0
0
0
0
0
0
0
0
0
0
0
0
0
0
0
0
0
0
0
0
0
0
0
0
0
0
0
0
0
0
0
0
0
0
0
0
0
0
0
0
0
0
0
0
0
0
0
0
0
0
0
0
0
0
0
0
0
0
0
0
0
0
0
0
0
0
0
0
0
0
0
0
0
0
0
0
0
0
0
0
0
0
0
0
0
0
0
0
0
0
0
0
0
0
0
0
0
0
0
0
0
0
0
0
0
0
0
0
0
0
0
0
0
0
0
0
0
0
0
0
0
0
0
0
0
0
0
0
0
0
0
0
0
0
0
0
0
0
0
0
0
0
0
0
0
0
0
0
0
0
0
0
0
0
0
0
0
0
0
0
0
0
0
0
0
0
0
0
0
0
0
0
0
0
0
0
0
0
0
0
0
0
0
0
0
0
0
0
0
0
0
0
0
0
0
0
0
0
0
0
0
0
0
0
0
0
0
0
0
0
0
0
0
0
0
0
0
0
0
0
0
0
0
0
0
0
0
0
0
0
0
0
0
0
0
0
0
0
0
0
0
0
0
0
0
0
0
0
0
0
0
0
0
0
0
0
0
0
0
0
0
0
0
0
0
0
0
0
0
0
0
0
0
0
0
0
0
0
0
0
0
0
0
0
0
0
0
0
0
0
0
0
0
0
0
0
0
0
0
0
0
0
0
0
0
0
0
0
0
0
0
0
0
0
0
0
0
0
0
0
0
0
0
0
0
0
0
0
0
0
0
0
0
0
0
0
0
0
0
0
0
0
0
0
0
0
0
0
0
0
0
0
0
0
0
0
0
0
0
0
0
0
0
0
0
0
0
0
0
0
0
0
0
0
0
0
0
0
0
0
0
0
0
0
0
0
0
0
0
0
0
0
0
0
0
0
0
0
0
0
0
0
0
0
0
0
0
0
0
0
0
0
0
0
0
0
0
0
0
0
0
0
0
0
0
0
0
0
0
0
0
0
0
0
0
0
0
0
0
0
0
0
0
0
0
0
0
0
0
0
0
0
0
0
0
0
0
0
0
0
0
0
0
0
0
0
0
0
0
0
0
0
0
0
0
0
0
0
0
0
0
0
0
0
0
0
0
0
0
0
0
0
0
0
0
0
0
0
0
0
0
0
0
0
0
0
0
0
0
0
0
0
0
0
0
0
0
0
0
0
0
0
0
0
0
0
0
0
0
0
0
0
0
0
0
0
0
0
0
0
0
0
0
0
0
0
0
0
0
0
0
0
0
0
0
0
0
0
0
0
0
0
0
0
0
0
0
0
0
0
0
0
0
0
0
0
0
0
0
0
0
0
0
0
0
0
0
0
0
0
0
0
0
0
0
0
0
0
0
0
0
0
0
0
0
0
0
0
0
0
0
0
0
0
0
0
0
0
0
0
0
0
0
0
0
0
0
0
0
0
0
0
0
0
0
0
0
0
0
0
0
0
0
0
0
0
0
0
0
0
0
0
0
0
0
0
0
0
0
0
0
0
0
0
0
0
0
0
0
0
0
0
0
0
0
0
0
0
0
0
0
0
0
0
0
0
0
0
0
0
0
0
0
0
0
0
0
0
0
0
0
0
0
0
0
0
0
0
0
0
0
0
0
0
0
0
0
0
0
0
0
0
0
0
0
0
0
0
0
3.63987e-07
1.12806e-07
2.53349e-08
0
0
0
0
0
0
0
0
0
0
0
1.60362e-08
0
5.76256e-09
0
0
0
0
0
0
0
0
0
0
0
0
0
0
0
0
0
0
0
0
0
0
0
0
0
0
0
0
0
0
0
0
0
0
0
0
0
0
0
0
0
0
0
0
0
0
0
0
0
0
0
0
0
0
0
0
0
0
0
0
0
0
0
0
0
0
0
0
0
0
0
0
0
0
0
0
0
0
0
0
0
0
0
0
0
0
0
0
0
0
0
0
0
0
0
0
0
0
0
0
0
0
0
0
0
2.60625e-08
4.07454e-10
9.02219e-10
1.58761e-08
2.38797e-08
4.07454e-10
8.44011e-10
1.22527e-08
1.74623e-10
4.51109e-10
5.57338e-09
8.22183e-09
1.45519e-10
2.76486e-10
1.22236e-09
1.38243e-09
3.62343e-09
0
1.16415e-10
1.96451e-09
1.45519e-11
0
0
0
0
0
0
0
0
0
0
0
0
0
0
0
0
0
0
0
0
0
0
0
0
0
0
0
0
0
0
0
0
0
0
0
0
0
0
0
0
0
0
0
0
0
0
0
0
0
0
0
0
0
0
0
0
0
0
0
0
0
0
0
0
0
0
0
0
0
0
0
0
0
0
0
0
0
0
0
0
0
0
0
0
0
0
0
0
0
0
0
0
0
0
0
0
0
0
0
0
0
0
4.36557e-11
5.87897e-09
0
0
0
0
0
0
2.02272e-09
0
0
0
0
0
0
4.65661e-10
0
0
0
0
0
0
0
0
0
0
0
0
0
0
0
0
0
0
0
0
0
0
0
0
0
0
0
0
0
0
0
0
0
0
0
0
0
0
0
0
0
0
0
0
0
0
0
0
0
0
0
0
0
0
0
0
0
0
0
0
0
0
0
0
0
0
0
0
0
0
0
0
0
0
0
0
0
0
0
0
0
0
0
0
0
0
0
0
0
0
0
0
0
0
0
0
0
0
0
0
0
0
0
0
0
0
0
0
0
0
0
0
0
0
0
0
0
0
0
0
0
0
0
0
0
0
0
0
0
0
0
0
0
0
0
0
0
0
0
0
0
0
0
0
0
0
0
0
0
0
0
0
0
0
0
0
0
0
0
0
0
0
0
0
0
0
0
0
0
0
0
0
0
0
0
0
0
0
0
0
0
0
0
0
0
0
0
0
0
0
0
0
0
2.91038e-11
0
0
0
0
0
0
0
0
0
0
0
0
0
0
0
0
0
0
0
0
0
0
0
0
0
0
0
0
0
0
0
0
0
0
0
0
0
0
0
0
0
0
0
0
0
0
0
0
0
0
0
0
0
0
0
0
0
0
0
0
0
0
0
0
0
0
0
0
0
0
0
0
0
0
0
0
0
0
0
0
0
0
0
0
0
0
0
0
0
0
0
0
0
0
0
0
0
0
0
0
0
0
0
0
0
0
0
0
0
0
0
0
0
0
0
0
0
0
0
0
0
0
0
0
0
0
0
0
0
0
0
0
0
0
0
0
0
0
0
0
0
0
0
0
0
0
0
0
0
0
0
0
0
0
0
0
0
0
0
0
0
0
0
0
0
0
0
0
0
0
0
0
0
0
0
0
0
0
0
0
0
0
0
0
0
0
0
0
0
0
0
0
0
0
0
0
0
0
0
0
0
0
0
0
0
0
0
0
0
0
0
0
0
0
0
0
0
0
0
0
0
0
0
0
0
0
0
0
0
0
0
0
0
0
0
0
0
0
0
0
0
0
0
0
0
0
0
0
0
0
0
0
0
0
0
0
0
0
0
0
0
0
0
0
0
0
0
0
0
0
0
0
0
0
0
0
0
0
0
0
0
0
0
0
0
0
0
0
0
0
0
0
0
0
0
0
0
0
0
0
0
0
0
0
0
0
0
0
0
6.1118e-10
0
0
4.36557e-11
6.1118e-10
0
0
0
0
0
0
0
0
0
0
0
0
0
0
0
0
0
0
2.61934e-10
0
0
2.61934e-10
0
0
0
0
0
0
0
0
0
0
0
0
0
0
0
0
0
0
0
0
0
0
0
0
0
0
0
0
0
0
0
0
0
0
0
0
0
0
0
0
0
0
0
0
0
0
0
0
0
0
0
0
0
0
0
0
0
0
0
0
0
0
0
0
0
0
0
0
0
0
0
0
0
0
0
0
0
0
0
0
0
0
0
0
0
0
0
0
0
0
0
0
0
0
0
0
0
0
0
0
0
0
0
0
0
0
0
0
0
0
0
0
0
0
0
0
0
0
0
0
0
0
0
0
0
0
0
0
0
0
0
0
0
0
0
0
0
0
0
0
0
0
0
0
0
0
0
0
0
0
0
0
0
0
0
0
0
0
0
0
0
0
0
0
0
0
0
0
0
0
0
0
0
0
0
0
0
0
0
0
2.93949e-09
0
0
0
0
0
0
0
0
0
0
0
0
0
0
0
0
0
0
0
0
0
0
0
0
0
0
0
0
0
0
0
0
0
0
0
0
0
0
0
0
0
0
0
0
0
0
0
0
0
0
0
0
0
0
0
0
0
0
0
0
0
0
0
0
0
0
0
0
0
0
0
0
0
0
0
0
0
0
0
0
0
0
0
0
0
0
0
0
0
0
0
0
0
0
0
0
0
0
0
0
0
0
0
0
0
0
0
0
0
0
0
0
0
0
0
0
0
0
0
0
0
0
0
0
0
0
0
0
3.34694e-10
0
8.73115e-11
0
1.16415e-10
3.63798e-10
0
1.68896e-05
0.00374108
6.75002e-06
0.000177923
1.1434e-06
3.92098e-05
5.31913e-06
3.58425e-06
5.23869e-10
8.5347e-08
0.000104044
0
7.6252e-09
1.12324e-05
3.40951e-08
1.5425e-09
1.23546e-08
6.02799e-07
2.16902e-05
2.09548e-09
7.52916e-08
0.000586251
0.0178202
4.63784e-07
0.000108019
8.73115e-11
3.59432e-09
2.18279e-08
5.65346e-06
2.34273e-06
4.22006e-10
1.67202e-08
1.92085e-08
2.13564e-07
2.18279e-10
1.81899e-09
0.00171981
1.84242e-07
1.63355e-05
4.9434e-06
0.000170104
1.06957e-08
5.25339e-07
8.00355e-10
0
1.74623e-10
9.70555e-07
1.20781e-09
2.78524e-08
8.28586e-08
9.16771e-10
4.51109e-10
7.42148e-10
0
0
0
2.17988e-08
3.25963e-09
1.3606e-08
9.61647e-06
4.43746e-07
5.75458e-06
2.86964e-08
1.27235e-06
7.08693e-07
4.44852e-08
7.62695e-07
7.26286e-08
9.17877e-07
1.23691e-09
2.19734e-09
3.89991e-09
3.16504e-07
2.63986e-07
1.78698e-08
1.11031e-08
3.32933e-07
2.54644e-07
1.60653e-08
9.49367e-08
2.80852e-09
4.64643e-08
3.12866e-09
5.26052e-08
5.95173e-09
5.92845e-08
1.28309e-06
1.10173e-07
1.61487e-06
1.9485e-08
1.9515e-06
5.35947e-08
4.44328e-07
9.16173e-05
8.71049e-07
1.03913e-05
1.95982e-06
1.53752e-05
5.94952e-06
3.31532e-05
0.00160989
0.000153335
0.00178579
2.35223e-05
0.00224833
7.36624e-05
0.000479544
1.30967e-10
1.45519e-10
3.20142e-10
6.19912e-09
8.73115e-10
2.37196e-09
4.77594e-08
1.06447e-07
3.2442e-07
9.46522e-06
1.1129e-06
3.27882e-06
8.06176e-09
7.87259e-09
5.67525e-10
2.76486e-10
9.76434e-09
6.95582e-09
4.22006e-10
3.68309e-08
2.94996e-07
2.96859e-09
6.79574e-09
6.19766e-08
1.3641e-07
1.55705e-09
3.49246e-09
4.36557e-11
2.22644e-09
2.76486e-10
1.73168e-09
2.18279e-10
2.89583e-09
1.63127e-08
1.4843e-09
1.78843e-08
5.52973e-10
2.30211e-08
8.73115e-10
5.64614e-09
7.38702e-06
4.6385e-06
4.14773e-07
7.83039e-08
8.21443e-06
1.95896e-06
3.11062e-07
3.40677e-05
0.000228422
2.71566e-06
6.24628e-06
4.61586e-05
0.00011123
1.54962e-06
6.47458e-07
8.67294e-09
8.70932e-08
2.04163e-08
1.41139e-07
4.50091e-08
2.37749e-07
1.06789e-05
9.32007e-07
1.17798e-05
1.46843e-07
1.62906e-05
4.39963e-07
3.27401e-06
1.16415e-10
2.91038e-10
2.91038e-11
0
0
0
8.73115e-11
5.82077e-11
0
1.53523e-07
3.53291e-07
7.34726e-08
5.52973e-10
1.96451e-09
2.56114e-09
5.34201e-08
8.57108e-09
1.88302e-08
5.40458e-08
8.52015e-08
5.64178e-08
0
0
0
0
0
0
0
0
0
0
1.45519e-11
0
0
0
0
0
0
0
0
0
3.94823e-07
3.02986e-05
5.83619e-07
2.5543e-07
9.98161e-06
3.49683e-08
7.27596e-08
3.00568e-06
9.21136e-09
2.94676e-08
5.52973e-10
1.29367e-08
0
3.63798e-09
0
3.92902e-10
1.0505e-07
7.27596e-11
1.57161e-09
0
8.87667e-10
0
1.45519e-11
1.38825e-08
2.80037e-07
0
9.8953e-10
4.36557e-10
0
1.45519e-10
0
9.66829e-08
0
1.60071e-10
2.48838e-09
2.32831e-08
0
0
0
0
3.23053e-09
0
0
3.34694e-10
1.44064e-09
0
0
0
4.36557e-11
2.91038e-11
0
0
0
0
0
0
0
0
0
0
0
0
0
0
0
0
0
0
0
0
0
0
0
0
0
0
0
0
1.30967e-10
1.45519e-10
0
0
0
0
0
0
0
2.91038e-11
1.45519e-11
0
0
0
0
0
0
0
0
0
0
0
0
0
0
0
0
0
0
0
1.45519e-11
0
7.42148e-10
1.01863e-09
9.45874e-10
7.13044e-10
0
0
0
2.61934e-10
3.20142e-10
3.34694e-10
2.47383e-10
2.91038e-10
1.73168e-09
1.60071e-09
3.48809e-08
1.15542e-08
8.45466e-09
4.13274e-08
6.1118e-10
2.91038e-11
3.0559e-10
1.24273e-08
1.73168e-09
2.40107e-09
6.06815e-09
0
0
0
1.45519e-10
1.30967e-10
1.16415e-10
1.74623e-10
0
0
0
8.73115e-11
1.01863e-10
1.01863e-10
8.73115e-11
1.89175e-10
0
1.89175e-10
3.72529e-09
1.28057e-09
3.7835e-09
9.02219e-10
1.16415e-10
0
8.73115e-11
2.19734e-09
4.36557e-10
4.80213e-10
1.67347e-09
4.22006e-10
3.15777e-09
2.85218e-09
1.96014e-08
4.17494e-08
4.85306e-08
7.24685e-09
0
0
0
0
1.45519e-11
0
0
0
0
0
0
0
0
0
1.45519e-11
0
1.45519e-11
1.09139e-09
2.76486e-10
1.04774e-09
2.61934e-10
1.30967e-10
1.28057e-09
1.16415e-09
2.83762e-09
1.60944e-08
2.44472e-09
1.59052e-08
0
0
0
3.7835e-10
8.73115e-11
1.16415e-10
2.76486e-10
2.18279e-10
1.01863e-10
3.34694e-10
2.35741e-09
3.60887e-09
4.45289e-09
8.00355e-10
0
0
0
0
0
0
0
0
0
0
1.45519e-11
0
4.36557e-11
0
0
0
1.45519e-11
1.16415e-10
5.82077e-10
1.01863e-10
5.09317e-10
0
0
0
0
0
0
0
0
0
0
1.45519e-10
1.01863e-10
2.18279e-10
1.45519e-11
1.91591e-06
1.38098e-08
1.18496e-07
3.05532e-07
1.65575e-06
1.09139e-08
6.9107e-08
0.000642487
3.56976e-06
0.000135664
2.2052e-05
0.000122621
1.35832e-06
3.99122e-05
6.07542e-07
7.93079e-09
2.80852e-08
1.02504e-07
4.52419e-07
3.87081e-09
2.06928e-08
3.35675e-05
4.26633e-07
5.32808e-06
3.88513e-06
2.48863e-05
2.18148e-07
2.51482e-06
1.92551e-07
2.75031e-09
1.01718e-08
2.45345e-08
1.08965e-07
9.31323e-10
4.94765e-09
9.2932e-06
1.48153e-07
8.04182e-07
1.11014e-06
5.41197e-06
5.38275e-08
3.39132e-07
1.68802e-08
8.44011e-10
9.63337e-09
2.20156e-07
5.33939e-07
2.83791e-07
7.87652e-07
1.12486e-08
4.79777e-08
1.23109e-08
2.93221e-07
3.79805e-09
6.51926e-09
3.37604e-09
7.04313e-09
0
0
0
0
0
0
0
4.80213e-10
1.74623e-10
2.91038e-11
0
3.34694e-10
0
0
1.01863e-10
0
0
0
0
0
0
0
0
0
0
0
0
0
0
0
0
0
0
0
0
0
0
0
2.91038e-11
0
0
2.91038e-11
0
0
0
0
0
0
0
0
0
0
0
0
0
0
0
0
0
0
0
0
0
0
0
0
0
0
0
0
0
0
0
0
0
0
0
0
0
0
0
0
0
0
0
0
0
0
0
0
0
0
0
0
0
0
0
0
0
0
0
0
0
0
0
0
0
0
0
0
0
0
0
0
0
0
0
0
0
0
0
1.01863e-10
3.63798e-10
0
0
0
5.82077e-11
4.36557e-11
0
0
0
1.89175e-10
4.07454e-10
1.60071e-10
4.51109e-10
0
0
0
0
0
0
0
0
0
0
0
0
0
0
0
0
0
0
0
0
0
0
0
0
0
0
0
0
0
0
0
0
0
0
0
0
0
0
0
0
0
0
0
0
0
0
0
0
0
0
0
0
0
0
0
0
0
0
0
0
0
0
0
0
0
0
0
0
0
0
0
0
0
0
0
0
0
0
0
0
0
0
0
0
0
0
0
0
0
0
0
0
0
0
0
0
0
0
0
0
0
0
0
0
0
0
0
0
0
0
0
0
0
0
0
0
0
0
0
0
0
0
0
0
0
0
0
0
0
0
0
0
0
0
0
0
0
0
0
0
0
0
0
0
0
0
0
0
0
0
0
0
0
0
0
0
0
0
0
0
0
0
0
0
0
0
0
0
0
0
0
0
0
0
0
0.000221321
0.00386594
3.13173e-06
1.60988e-07
0.00397127
8.05629e-06
0.000170573
3.02535e-05
0.000115033
0.000763611
8.68802e-06
7.18642e-05
1.24401e-05
0.000158319
5.68732e-05
0.000247158
4.71991e-07
6.62898e-07
3.38077e-06
1.97417e-06
7.20265e-06
22658.8
0.21197
8.90353
0.000690362
0.0241915
8.56552e-06
1.50014e+06
1.581e+06
1.50343e+06
785820
2.37387e+06
277679
362914
3.95991
156922
92.8193
80580.9
0.0326054
813.497
12258.2
0.00184146
42.3872
8588.43
0.0120678
304.509
0.201845
3528.31
0.000633301
1.12257
15.3808
3.79377e-05
0.0536659
17.7841
0.000162856
0.0775187
0.0630864
0.000353229
0.00379905
2.01889e-05
8.36387
0.0140912
0.483856
0.0185504
0.000217761
0.00441861
2.56233e-05
3.88203e-06
1.72454e-05
1.35034e+06
1.53166e+06
1.1346e+06
1.5145e+06
1.50169e+06
996100
1.39569e+06
1.16938e+06
1.32026e+06
1.24765e+06
126222
1.4729e+06
622730
632419
833702
2.07439e+06
550905
1.25152e+06
8544.13
136819
154.076
67.0746
152.48
0.262642
2607.34
4.42889
9.07132
5175
668554
5636.69
9516.5
89335
140575
303.581
36.2981
0.0695428
0.539674
0.975004
1.16014
2.13836
16.5724
1102.8
1882.7
13902.9
28.7905
32257.6
64.4258
493.336
324.822
534.768
16.3379
0.00385864
0.0524634
0.114927
97.6537
1.52159
3.40552
1.48747
0.198711
0.351387
0.00343711
6.09021
0.0520216
0.0843938
45.712
5413.59
10.5356
74.1594
185.19
1360.79
2.54156
0.236874
0.0011143
0.00742407
0.00203208
0.0140194
0.0134519
0.0295224
7.2788
11.5711
21.6784
0.0396566
219.884
0.392961
0.728542
0.544262
3.66742
0.128961
7.28414e-05
0.00013162
0.000720813
0.556349
0.00205761
0.0195329
0.00387382
0.00284375
0.000378073
8.8153e-05
0.00477011
0.00216957
0.000281727
0.0101791
1.48386
0.00353604
0.0051343
0.0569679
0.0850056
0.00102214
0.0058189
0.000625513
0.00561506
0.000143053
0.00820594
0.000364695
0.00382313
0.000212744
0.000306678
7.62511e-05
4.19845e-05
5.94168e-06
2.02898e-05
1.23305e+06
32194.6
5.20032
1.55629e+06
903897
679612
0.0928228
0.163827
48700.5
21783.3
819327
378281
238043
978194
435145
3515.14
52629
62162.2
194.458
3190.62
2.00152e+06
1.66516e+06
1.56021e+06
240948
1.26968e+06
1.22862e+06
163602
731782
901.495
325977
507.246
820760
81026.8
90.7353
83576.5
1.67496
1681.18
95.5944
11514.9
2.52627
0.0387588
0.065441
198.774
2.8093
872708
969238
585161
1.22487e+06
1.25051e+06
923751
544623
719044
803908
370582
55248.2
779724
856482
335629
1.08095e+06
1.22663e+06
1.0612e+06
1.21898e+06
1.00319e+06
996951
1.22299e+06
1.00485e+06
943125
982101
849221
900587
887922
832163
1.84297e-06
1.53919e+06
1.26881e+06
207235
1093.32
0.000813234
0.0599132
0.00463798
0.000821448
0.00029233
8.19775e-05
29.641
810012
0.00136073
10.0273
1.33979e+06
7.91479e-08
0.000244301
1044.4
0.015264
13741.5
4.48762e-05
0.0449283
4.30737e-09
3.90601e-06
0.000984492
16.0566
0.00537337
3.60276e-07
1.84169e-05
0.008381
0.161364
2.26805e-06
0.000130809
0.000184331
0.00680918
4.98389e-07
2.98303e-05
428239
0.00427503
370.586
0.0858362
5108.15
0.00024487
1.94644
15933.3
1.31582e+06
83.0413
7.88063e-06
2.06783e-08
1.41595e-06
22.5019
1.29526e-05
0.102593
4.46967
0.000897669
1.06214e-07
6.76319e-06
0.000397496
1.28405e-06
19.8741
7.95317e-05
0.0999218
0.0118517
2.85579
1.3063e-05
0.00170285
3.76443e-07
6.26169e-08
0.00530113
5.62097e-07
0.000104106
0.000138432
6.43282e-07
0.0692339
8.47448e-06
0.00059451
3.35713e-08
3.86175e-05
7.70378e-08
1.3478e-07
1.68337e-07
0.0104666
0.000116762
0.00456756
462.984
3.53612e-09
7.71252e-09
5.93718e-09
1.42772e-05
2.11118e-06
1.26036e-05
1.17882e-06
2.28654e-07
1.19636e-06
2.2576e-06
0.000140126
7.09064e-05
3.28476e-06
7.16388e-05
4.59592e-06
9.5095e-05
0.001814
0.00216422
2.98632e-05
0.000113867
0.00220231
5.62167e-05
0.00121136
3.80809e-07
2.42923e-05
1.05856e-05
6.49714e-07
1.17714e-05
1.24901e-06
1.43747e-05
0.000437976
4.29904e-05
0.000548053
6.01853e-06
0.000709767
1.64145e-05
0.000142985
1.37055
0.0680813
0.186413
0.00201174
0.0313836
0.0827753
3.05175
62.279
6142.38
8.41537
168.661
2818.94
3.76425
137.866
0.226578
0.000524271
0.00330391
0.00136376
0.00752754
0.0134059
0.0204175
10.3726
27.2199
33.6138
0.0456374
466.455
0.604508
0.773556
212922
7404.2
117500
1204.88
1456.07
20825.8
1.02345e-06
5.94197e-06
1.7133e-06
1.41154e-08
2.88856e-08
5.97938e-08
2.33225e-06
2.52316e-07
6.29821e-07
0.485765
9.90475
0.212043
2.98314e-05
8.0094e-05
0.000714768
1.47221
0.00242644
0.0319834
67.8108
9.15024e-08
2.96986e-06
2.69922e-06
1.59227e-07
3.31625e-06
2.5537e-06
1.28537e-07
1.60169e-05
9.27349e-05
1.11076e-06
3.32152e-06
2.01268e-05
5.05067e-05
7.55026e-07
1.63213e-05
1.84531e-06
2.57264e-05
3.25672e-07
3.68093e-05
7.00777e-07
7.45736e-06
0.00368563
0.00145798
0.000249178
4.29343e-05
0.00402602
0.000876417
0.000226223
0.0143074
1.68698
0.00326728
0.00821491
0.0496729
0.1309
0.00123412
0.00186242
1.67864e-05
0.000291096
7.0654e-05
0.000325966
0.00012235
0.00147525
0.0153654
0.00296218
0.0250973
0.000686599
0.0443117
0.001046
0.0126784
5.60831e-08
1.8756e-07
3.59287e-08
9.27248e-08
1.48575e-08
3.16941e-08
0.000185117
0.000471309
7.79474e-05
8.18298e-07
3.03077e-06
6.35617e-06
0.000178657
2.85886e-05
5.29129e-05
2.2873e-06
1.22552e-05
1.17623e-07
4.46074e-07
2.53423e-06
8.97012e-06
1.01136e-07
0.000764112
0.000202774
2.57261e-05
5.24143e-06
0.000634621
0.0001225
3.0709e-05
0.00696089
0.00909412
0.000203829
0.000420119
0.00575542
0.00695107
0.00027961
5.6898e-09
2.27737e-08
4.68572e-09
7.75688e-06
2.43673e-05
9.94536e-06
335.152
0.0118109
0.00566156
1.96762
0.00523572
0.0021352
0.0478032
1.42133e+06
57931
355744
89.0532
896200
0.579013
44329.7
1.52612e+06
1.65215e+06
1.51245e+06
1.43472e+06
0.0253489
0.00101686
0.000205922
0.00767516
0.000567979
7.87474e-05
0.00361794
234019
0.521989
254.803
0.0938981
184.987
0.0863908
29.2671
0.00584508
0.000212183
2.16439e-05
0.000744764
5.89373e-05
5.63155e-06
0.000145773
2885.79
0.0417342
0.136004
0.0304556
0.11639
0.0051246
0.0484448
1.422e-06
0.000105198
7.21602e-06
3.72122e-07
1.32093e-05
8.07107e-07
1.35124e-05
0.110727
0.00117594
0.000248824
3.41373e-05
0.00363759
0.000511044
0.0172457
7.567e-10
1.84809e-09
4.65661e-10
1.67056e-08
3.70928e-08
9.58971e-09
8.16362e-09
7.13044e-09
7.71252e-10
3.34694e-10
1.36788e-09
1.01863e-10
1.45519e-11
3.7835e-10
1.45519e-11
1.77053e-07
1.55313e-07
1.91067e-08
4.54122e-07
2.81478e-06
2.95402e-06
3.57846e-07
9.02219e-09
3.16068e-08
3.63798e-09
2.32511e-07
5.85569e-07
6.22749e-07
8.30041e-08
1.06229e-09
8.22183e-09
1.01863e-09
1.77242e-08
1.41241e-07
2.01107e-08
1.24288e-07
2.38778e-05
4.02065e-06
9.34568e-07
2.45925e+06
1.40483e+06
1.71185e+06
2.04837e+06
1.78205e+06
1.53868e+06
1.6005e+06
1.88096e+06
1.53833e+06
1.866e+06
1.51639e+06
1.7844e+06
1.76751e+06
1.51106e+06
2.13374e+06
2.39492e+06
2.11e+06
2.16722e+06
1.98871e+06
1.96428e+06
2.115e+06
1.23983e+06
1.25142e+06
1.2327e+06
1.02161e+06
1.0029e+06
1.03797e+06
994182
2.21941e+06
2.08366e+06
2.31224e+06
1.98071e+06
1.88381e+06
1.93105e+06
2.052e+06
1.54564e+06
1.82973e+06
1.84876e+06
1.71918e+06
1.50388e+06
1.5068e+06
1.74573e+06
858310
878149
789308
911760
952119
872969
810999
821290
925516
945925
920799
904296
804220
787530
2.11831e+06
1.82329e+06
1.76763e+06
1.9018e+06
1.82998e+06
2.02226e+06
1.93953e+06
354574
4722.59
1.54339e+06
1.14017e+06
1.4656e+06
623653
177406
1.66124e+06
1.91549e+06
1.82364e+06
1.79833e+06
1.68697e+06
1.63738e+06
1.88051e+06
1.80618e+06
1.6492e+06
1.68688e+06
1.50019e+06
1.48967e+06
1.56494e+06
1.776e+06
1.27596e+06
1.29997e+06
1.02304e+06
1.02597e+06
1.03518e+06
1.31094e+06
1.04923e+06
983339
1.1927e+06
1.22508e+06
1.23099e+06
1.16787e+06
826820
989654
448761
304.728
13.9769
626940
129080
918.49
1.87008
1.47093e+06
1.55525e+06
1.67338e+06
1.46263e+06
1.39323e+06
1.65377e+06
1.5355e+06
851579
845744
770906
814542
819733
892053
712854
757601
739001
843341
890518
876218
782159
766194
1.72132e+06
1.61307e+06
1.56551e+06
1.76441e+06
1.65523e+06
1.6068e+06
1.83514e+06
129.223
2851.89
470827
0.10318
563.373
386.709
8862.29
758126
677967
831288
628414
530191
826195
748358
1.62961e+06
1.83478e+06
1.79535e+06
1.74385e+06
1.70251e+06
1.92755e+06
1.87168e+06
726354
668160
808275
527353
788413
635898
773410
1.2401e+06
1.11481e+06
745183
1.01721e+06
612273
966482
993048
858155
784526
898464
842185
879809
769454
668803
1.44197e+06
1.4539e+06
1.37997e+06
1.35678e+06
1.48162e+06
1.6304e+06
1.51206e+06
1.68803e+06
1.44171e+06
1.54094e+06
1.60699e+06
1.4705e+06
1.56048e+06
1.73621e+06
1.60835e+06
1.72039e+06
1.6676e+06
1.5613e+06
1.51497e+06
1.50289e+06
1.45883e+06
1.09602e+06
1.18222e+06
1.37248e+06
1.29801e+06
948934
1.35034e+06
1.09184e+06
441296
415508
310705
759124
663993
808974
723412
686340
497577
722573
434138
293768
705092
649535
446606
661349
824595
820791
854821
736169
581958
44752.2
5.71629
0.0864987
1840.05
33966.8
0.417607
0.0801963
708738
455961
831948
691168
801187
894865
570313
1.50883e+06
1.52469e+06
1.48851e+06
1.40198e+06
1.369e+06
1.34762e+06
1.38646e+06
1.58441e+06
1.55177e+06
1.46739e+06
1.74147e+06
1.71007e+06
1.64554e+06
1.61629e+06
1.13753e+06
857503
610262
415464
189913
885169
729060
1.56481e+06
1.42569e+06
1.40391e+06
1.28943e+06
1.15174e+06
1.44696e+06
1.40652e+06
260594
529653
790867
328063
504482
709038
88824.4
155179
84403.6
43355.4
661222
553301
495478
378411
204722
483185
614077
304320
749610
460979
683983
189718
201657
88586
585136
469141
664259
581513
1.47696e+06
1.58224e+06
1.54477e+06
1.37444e+06
1.31076e+06
1.43998e+06
1.40012e+06
1.42081e+06
1.28717e+06
1.17965e+06
1.49929e+06
1.45964e+06
1.29376e+06
1.3626e+06
1.43101e+06
1.63158e+06
1.35871e+06
1.10856e+06
1.5068e+06
1.45423e+06
1.56346e+06
346573
176933
581232
116389
16475.2
516520
261118
1.43542e+06
1.22141e+06
1.41681e+06
793872
1.24143e+06
1.17571e+06
691894
792704
527977
755782
446695
384583
117787
68555.8
23525.6
4769.73
16934.3
451775
303163
122452
258860
1.37386e+06
1.12285e+06
984415
691902
1.36548e+06
1.29106e+06
855602
1.18861e+06
556358
1.48379e+06
1.35042e+06
915942
1.10039e+06
1.32291e+06
844226
759568
359806
244219
168936
28150.8
50659.2
933784
913741
466416
1.33362e+06
67641.2
1.11665e+06
568473
293715
218272
144872
12249.7
11964.9
6637.31
22724.4
1.00925e+06
1.3551e+06
887269
344727
1.39449e+06
1.0637e+06
538266
178217
561254
129903
683911
323785
261704
28170.9
481880
150343
626679
15564.8
159259
269952
7082.16
6678.36
2106.59
17224.5
63150
267454
414681
155297
1.44126e+06
1.4076e+06
1.25092e+06
1.17763e+06
740776
1.04525e+06
564584
6209.42
626519
75589.5
948696
302726
44149.9
464604
27021.7
57917.7
1926.44
14430.6
6988.98
252772
157699
51274.5
15171.9
259701
112128
249455
535403
13977.4
0.05168
0.0581022
0.254273
15162.9
116.657
1202.83
112.157
229701
1.10563e+06
968893
858688
249871
150555
1.00749e+06
239363
441350
117798
32986
4299.65
88727.9
12122.1
32523
186109
351879
693.219
76929.4
2739.42
20667.2
529059
1.25491e+06
633955
155220
331210
1.06636e+06
40779.5
156311
728633
81041.1
333887
1.21163e+06
1.0853e+06
485680
464903
50637.9
25107.5
690233
137072
71806.9
850539
78237.2
53035.4
26716.7
1800.44
900.864
5388.41
2859.57
123045
77806.6
23369.7
5298.77
2866.81
1518.55
784.745
6362.01
4409.76
98.5812
855.264
15525.6
116965
26482.8
3092.73
59148
163953
377723
2183.45
37429.5
417.107
7225.99
984737
877255
406000
178631
19893.5
698633
224520
74970.3
36454.8
7924.02
9405.77
1136.59
244.538
2143.52
2881.06
348.702
10423.3
734.778
2814.48
22716.6
79898.7
0.00261758
0.0220906
0.219536
95.5927
0.0374724
18.3158
0.0127435
236001
14194
7257.87
69927.1
3372.34
1604.26
133855
155910
58547.2
625075
502742
2636.96
98177.2
32372.1
2948.65
250.015
5512.77
125803
75397.4
6323.44
3320.41
77602.1
1435.38
41377.3
181.652
5102.18
2615.79
91.1629
9527.98
10778.6
3167.38
366.462
99.9493
1147.6
320.107
224370
352977
1028.36
13817.7
97194.6
757686
7200.3
687.605
61.4425
240058
33422.7
9415.37
896.21
2113.43
6972.38
3010.82
1456.9
459.427
234.258
96.9151
47.7153
4932.74
15676
380.899
342051
1120.51
45884.9
13875.2
10.5641
172.677
314.495
5233.18
16438.5
1020.86
35.2597
10349.9
15.9668
51.5004
1201.92
410.026
32182.9
1314.3
2860.43
7.73246
6134.9
198.685
16.6095
519.539
239.274
356.974
4834.45
45202.6
156.833
1480.53
114.752
11.7059
1733.21
3763.98
31836.3
6.85441
124.394
60.6115
1074.25
8574.49
4592
556.747
36.0736
293.38
150.69
18.1312
835.672
19589
80102.6
280894
9246.08
37529
1835.13
15.4526
53.5125
492.697
14.5465
131.14
4133.29
457.649
0.00954828
0.00238063
0.00694903
8.16356
0.121104
0.0659202
0.0808768
1323.73
4425.59
104.435
12604.3
22.7128
289.464
960.704
762.739
154.091
567.8
91.97
24.1612
4.83662
18.5025
10694.8
168.787
6121.03
911.526
52.4514
28.1932
1687.74
7453.31
8427.38
4131.49
378.447
178.924
95.9793
204.466
3.36149e-09
1.00845e-08
5.93718e-09
5.89353e-09
1.82234e-07
2.35785e-07
1.86701e-07
2.40339e-07
0
0
0
3.01367e-06
7.19156e-08
1.38243e-09
0
0
5.33257e-05
1.07565e-06
2.06055e-08
2.76486e-10
0
1.37133e-05
0
0
0
0
0
8.73115e-11
0
0
0
0
0
0
1.16415e-10
0
0
0
0
0
0
0
0
0
0
0
0
0
0
0
0
0
0
0
0
0
0
0
0
0
0
0
0
0
0
0
0
0
0
0
0
0
0
0
0
0
0
0
0
0
0
0
0
0
0
0
0
0
0
0
0
0
0
0
0
0
0
0
6.24277e-09
1.01863e-10
0
0
0
0
0
0
2.20971e-07
6.12636e-09
2.5898e-07
8.58563e-10
4.55038e-08
2.03503e-06
5.70435e-09
0
9.8953e-10
4.04107e-08
4.36557e-11
0
7.27596e-10
0
0
0
0
0
0
4022.68
40.6684
1836.15
12604.4
604.131
289.927
26153
423.748
423.478
25.9136
7.3116
227.754
13.7034
785.541
24.4637
3.86868
131.157
72.1774
2699.86
389.672
11.7874
220.935
66.7856
565.017
17.8703
2.12905
58.5169
7.08342
0.723368
281.68
34.8584
1080.5
2.85994
22.4575
89.5732
0.00113065
0.000191111
0.000400146
0.00465798
0.0365029
0.00819007
0.00152948
2618.94
18.8946
505.957
3.87328
98.7968
19.1631
0.782714
461.436
144.082
70786.7
117.853
1591.28
6505.72
10.6558
2129.9
14139.8
1364.28
54.6608
5.34033
40.4131
382.984
588.331
28.1148
13.5759
3648.51
1728.97
40.0023
84.6148
40.9663
0.514399
7.90157
74.9645
1257.49
14.285
242.694
0.00173944
0.000385621
0.00055499
0.0739903
0.0087583
0.0187229
0.00544301
61.0466
479.069
234.966
0.950101
1.91794
15.2435
7.49048
179.844
2.95359
93.4878
1.63565
49.4256
25.4413
0.852745
0.42609
0.229008
10.2412
9.13158
248.882
126.354
4.5745
18.6819
447.929
0.906658
4.55007
208.366
0.411587
40.9969
165.124
7.64897
3.65676
0.816452
75.7815
36.1367
1.71737
7.01838
23.8889
313.606
2273
4.05191
50.3828
171.277
6.55829
0.99607
33.9356
7.21491
1.4718
55.9589
0.233413
1.0115
57.3581
29.3319
178.834
2.9913
92.8468
5.6269
1405.18
63.6868
760.569
2.91721
32.7954
17.6888
1.58978
0.000375487
5.02061e-06
8.45757e-08
1.44064e-09
0
0.0171509
1.17101e-05
1.89146e-07
3.56522e-09
0
0
0.00218686
186.192
0.0659579
0.00272555
0.0631362
1.82206
0.000917523
0.0256182
8.82125
5.9131
4.56494
98.6131
3.14646
0.32075
0.180202
1.31325
24.6306
339.481
0.637111
11.2537
0.0724367
0.851283
140.482
3.08224
27.1239
4.19005
0.587248
0.91054
0.150282
2.83031
11.0649
23.2449
90.1552
0.364258
0.762237
2.80559
2.48739
0.263019
9.08643
26.9739
327.43