/*--------------------------------*- C++ -*----------------------------------*\
  =========                 |
  \\      /  F ield         | OpenFOAM: The Open Source CFD Toolbox
   \\    /   O peration     | Website:  https://openfoam.org
    \\  /    A nd           | Version:  9
     \\/     M anipulation  |
\*---------------------------------------------------------------------------*/
FoamFile
{
    format      ascii;
    class       volScalarField;
    location    "0.0002";
    object      overpressure;
}
// * * * * * * * * * * * * * * * * * * * * * * * * * * * * * * * * * * * * * //

dimensions      [1 -1 -2 0 0 0 0];

internalField   nonuniform List<scalar> 
4818
(
2.76486e-10
0
0
0
0
1.29934e-07
3.07366e-07
1.56288e-08
1.04774e-09
2.06637e-09
4.36557e-11
0
0
0
0
0
0
0
0
0
7.03876e-08
6.1118e-10
0.00165938
2.22748e-06
8.14907e-10
0.0010734
8.04721e-09
7.05311e-05
1.23691e-09
1.11395e-07
0
0
0
0
0
0
7.66886e-09
0
0
0
0
0
0
0
0
0
0
0
0
0
0
0
0
0
0
1.74623e-10
0
0
1.74623e-10
0
0
0
1.74623e-10
0
0
0
0
0
0
0
0
0
0
0
0
0
0
0
0
0
0
0
0
0
0
0
0
0
2.39976e-07
3.89118e-08
7.87259e-09
1.84314e-05
3.97558e-07
3.32933e-07
1.00117e-08
2.07367e-05
4.39104e-07
3.21801e-07
1.04192e-08
3.16986e-06
2.52301e-07
4.88071e-08
5.82077e-10
1.45112e-07
1.01601e-07
2.31375e-09
9.207e-08
8.32661e-08
1.1496e-09
0
2.89583e-09
1.8772e-09
1.45519e-11
1.61526e-09
3.20142e-10
0
0.000100483
0.000806585
0.0171892
0.000323505
2.31857e-05
4.23484e-06
1.43757e-05
0.230585
0.00018201
0.00256709
2.33998e-05
0.000214255
1.76085e-05
4.77195e-06
0
0
0
0
0
0
0
0
0
0
0
0
0
0
0
0
0
0
0
0
0
0
0
0
0
0
0
0
0
0
0
0
0
0
0
0
0
0
0
0
0
0
0
0
0
0
0
0
0
0
0
0
0
0
0
0
0
0
0
0
0
0
0
0
0
0
0
0
0
0
0
0
5.82077e-11
2.663e-09
6.03904e-09
1.60071e-10
0
0
0
0
0
0
0
0
2.65907e-07
7.41056e-07
2.56696e-08
4.07454e-10
0
0
0
0
0
0
0
6.41594e-08
5.38421e-10
0
0
0
0
0
0
0
0
0
0
0
0
0
0
0
0
0
0
0
0
0
0
0
0
0
0
0
0
0
0
0
0
0
0
0
0
0
0
0
0
0
0
0
0
0
0
0
0
0
0
0
0
0
0
0
0
0
0
0
0
0
0
0
0
0
0
0
0
0
0
0
0
0
0
0
0
0
0
1.30967e-10
5.82077e-09
2.70666e-09
7.27596e-11
0
0
0
0
0
0
0
0
7.36371e-07
2.82205e-07
1.6269e-08
2.76486e-10
0
0
0
0
0
0
0
4.51255e-08
3.49246e-10
0
0
0
0
0
0
0
0
0
0
0
0
0
0
0
0
0
0
0
0
0
0
0
0
0
0
0
0
0
0
0
0
0
0
0
0
0
0
0
0
0
0
0
0
0
0
0
0
0
0
0
0
0
0
0
0
0
0
0
0
0
0
0
0
0
0
0
0
0
0
0
0
0
0
0
0
0
0
0
7.27596e-11
8.73115e-11
0
0
0
0
0
0
0
0
0
1.39262e-08
1.71131e-08
1.44064e-09
0
0
0
0
0
0
0
0
3.17232e-09
0
0
0
0
0
0
0
0
0
0
0
0
0
0
0
0
0
0
0
0
0
0
0
0
0
0
0
0
0
0
0
0
0
0
0
0
0
0
0
0
0
0
0
0
0
0
0
0
0
0
0
0
0
0
0
0
0
0
0
0
0
0
0
0
0
0
0
0
0
0
0
0
0
0
0
0
0
0
0
0
0
0
0
0
0
0
0
0
0
0
0
1.01863e-10
1.89175e-10
0
0
0
0
0
0
0
0
0
0
0
0
0
0
0
0
0
0
0
0
0
0
0
0
0
0
0
0
0
0
0
0
0
0
0
0
0
0
0
0
0
0
0
0
0
0
0
0
0
0
0
0
0
0
0
0
0
0
0
0
0
0
0
0
0
0
0
0
0
0
0
0
0
0
0
0
0
0
0
0
0
0
0
0
0
0
0
0
0
0
0
0
0
0
0
0
0
0
0
0
0
0
0
0
0
0
0
0
0
0
0
0
0
0
0
0
0
0
0
0
0
0
0
0
0
0
0
0
0
0
0
0
0
0
0
0
0
0
0
0
0
0
0
0
0
0
0
0
0
0
0
0
0
0
0
0
0
0
0
0
0
0
0
0
0
0
0
0
0
0
0
0
0
0
0
0
0
0
0
0
0
0
0
0
0
0
0
0
0
0
0
0
0
0
0
0
0
0
0
0
0
0
0
0
0
0
0
0
0
0
0
0
0
0
0
0
0
0
0
0
0
0
0
0
0
0
0
0
0
0
0
0
0
0
0
0
0
0
0
0
0
0
0
0
0
0
0
0
0
0
0
0
0
0
0
0
0
0
0
0
0
0
0
0
0
0
0
0
0
0
0
0
0
0
0
0
0
0
0
0
0
0
0
0
0
0
0
0
0
0
0
0
0
0
0
0
0
0
0
0
0
0
0
0
0
0
0
0
0
0
0
0
0
0
0
0
0
0
0
0
0
0
0
0
0
0
0
0
0
0
0
0
0
0
0
0
0
0
0
0
0
0
0
0
0
0
0
0
0
0
0
0
0
0
0
0
0
0
0
0
0
0
0
0
0
0
0
0
0
0
0
0
0
0
0
0
0
0
0
0
0
0
0
0
0
0
0
0
0
0
0
0
0
0
0
0
0
0
0
0
0
0
0
0
0
0
0
0
0
0
0
0
0
0
0
0
0
0
0
0
0
0
0
0
0
0
0
0
0
0
0
0
0
0
0
0
0
0
0
0
0
0
0
0
0
0
0
0
0
0
0
0
0
0
0
0
0
0
0
0
0
0
0
0
0
0
0
0
0
0
0
0
0
0
0
0
0
0
0
0
0
0
0
0
0
0
0
0
0
0
0
0
0
0
0
0
0
0
0
0
0
0
0
0
0
0
0
0
0
0
0
0
0
0
0
0
0
0
0
0
0
0
0
0
0
0
0
0
0
0
0
0
0
0
0
0
0
0
0
0
0
0
0
0
0
0
0
0
0
0
0
0
0
0
0
0
0
0
0
0
0
0
0
0
0
0
0
0
0
0
0
0
0
0
0
0
0
0
0
0
0
0
0
0
0
0
0
0
0
0
0
0
0
0
0
0
0
0
0
0
0
0
0
0
0
0
0
0
0
0
0
0
0
0
0
0
0
0
0
0
0
0
0
0
0
0
0
0
0
0
0
0
0
0
0
2.36847e-05
4.49892e-05
2.95784e-06
0.000396189
0.000246092
2.44405e-06
2.10402e-06
2.00822e-06
2.44137e-07
2.43881
1.75496e-08
2.37778e-08
1.94996e-09
2.65666e-06
8.73115e-11
1.30967e-10
0
1.23982e-08
0
0
0
2.91038e-11
0
0
0
0
0
0
0
0
0
0
0
0
0
0
0
0
4.65661e-10
0
0
0
3.20142e-10
0
0
0
0
0
0
0
0
0
0
0
0
0
0
0
0
0
0
0
0
0
0
0
0
0
0
0
0
0
0
0
0
0
0
0
0.00209645
9.1962e-06
7.04167e-08
0.0142985
7.79904e-06
4.68135e-08
0.00936904
0.00041297
5.04209e-07
3.4488e-09
3.02038e-06
2.58471e-07
3.49246e-09
0
1.59926e-08
1.42609e-09
0
0
7.00238e-07
7.41362e-07
4.36557e-11
0
0
0
4.36557e-09
4.29281e-09
0
0
0
0
0
0
0
0
0
0
0
0
0
0
0
0
0
0
0
0
0
0
0
0
4.09828e-05
0.000150644
1.15833e-08
1.43627e-08
9.31323e-10
0
0
0
0
0
0
0
2.09235e-06
2.04878e-06
1.61104e-07
7.86324e-06
1.35333e-09
1.90834e-07
0
0
0
0
0
0
7.53063e-06
1.07684e-09
0
0
0
0
0
1.00903e-07
4.80213e-10
0
0
0
0
0
0
0
0
0
0
0
0
0
0
0
0
0
0
0
0
0
0
0
0
1.23007e-07
1.96451e-09
5.67525e-10
0
0
0
0
0
0
0
0
0
9.53402e-06
2.96921e-05
1.98784e-05
1.21324e-05
3.79398e-07
0.00287767
0.102069
0.000101587
0.000281366
1.49637e-07
1.53203e-07
1.23691e-09
1.22236e-09
0
0
0
0
0
0
1.06847
0.000149383
0.00746163
8.37425e-05
0.479757
3.08789e-05
2.38632e-06
8.3237e-08
0.000307956
0.000887357
1.12409e-05
4.70725e-07
1.27329e-08
3.34694e-10
3.64802e-07
7.13044e-07
1.01063e-07
2.57569e-09
5.82077e-11
0
3.52156e-09
6.30098e-09
4.22006e-10
0
0
0
0
0
0
0
0
0
0
0
0
0
0
0
0
0
0
0
0.0211285
0.203637
1479.17
0.00610608
1660.47
3324.54
0.059674
20301.4
0.0555017
19999.7
0.0582253
21943.2
0.0570701
0.00548609
0.00524313
1404.52
20257.7
335.318
0.00343655
659544
28.7828
341.32
0.00351145
0.0451626
0.000902207
346.989
1.88599
19.634
0.0276333
3303.67
0.00405654
20.9993
46.873
0.0267572
1824.09
0.00301448
0.00114723
0.0043892
0
0
0
0
0
0
0
0
0
0
3.20579e-08
1.60071e-10
0
0
0
0
1.97906e-08
1.16415e-10
0
0
0
0
2.05182e-09
0
0
0
0
0
0
0
0
0
0
0
0
0
0
0
0
0
0
0
0
0
0
0
0
0
0
0
0
0
0
0
0
0
0
0
0
0
0
0
0
0
0
0
4.60788e-06
3.08271e-06
4.02782e-07
2.72121e-09
8.20233e-07
6.76664e-09
1.45519e-11
0
0
0
6.42701e-06
4.26371e-08
1.74623e-10
0
0
0
7.05753e-07
5.38421e-09
0
0
0
0
6.54024e-06
3.64089e-08
1.45519e-10
0
0
0
6.97764e-08
3.20142e-10
0
0
0
0
4.51459e-07
2.99769e-09
0
0
0
0
6.1118e-10
0
0
0
0
0
5.54428e-09
0
0
0
0
0
0
0
0
0
0
0
1.45519e-11
0
0
0
0
0
0
0
0
0
0
0
0
0
0
0
0
0
0
0
0
0
0
0
0
0
0
0
0
0
0
0
0
0
0
0
0
0
0
0
0
0
0
0
0
0
0
0
0
0
0
0
0
0
0
0
0
0
0
0
0
0
0
0
0
0
0.00021254
0.0103381
0.0024955
0.00895143
6.45104e-06
0.000552244
1.23488e-07
6.89746e-07
5.67525e-10
5.03496e-09
0
0
0
0
0
0
0
0
0
0
0.000696576
0.0117346
135.773
0.00326563
0.00330982
128.817
0.000379433
0.000367512
17787
18142.7
19711.2
258.586
288.884
230.313
237.651
1.75395e+06
390260
1.44845e+06
213754
93735.4
5370.46
14159.3
0.000669366
0.0313999
0.00924621
0.0150727
55.5621
0.0154448
4718.47
24816.5
21425.8
24278.3
314.245
323.425
260.191
276.134
17659
17966.9
21334.4
279.464
266.352
235.478
230.557
16785.7
18749.7
20155.5
269.077
271.464
247.684
221.863
0.000483805
1.27532e-05
0.00096563
0.0427421
0.000704305
0.0144693
80.8871
2553.38
7858.88
10907.6
136.912
15.9115
92.8231
28.2488
3321.57
8741.7
13549.2
167.976
17.7682
102.916
36.5412
1822.41
8665.97
12786.6
159.142
19.2644
36.4627
102.165
2521.63
7476.97
10629.4
133.525
15.2948
28.2658
89.6374
1644.57
8696.51
13376.6
166.008
102.64
17.5909
36.4089
3305.58
12681.3
8717.44
158.053
103.142
19.2875
36.2115
0.00579438
0.00433696
6.71601
7.44757e-06
0.000353924
0.0281293
0.000449226
0.975886
0.00121967
0.585558
0.000358381
0.0177766
0.000209777
0.000797308
0.0821577
2.74708
0.000429645
0.00133269
2.22251
0.000744431
0.000195693
0.00030553
0.00887749
28.2665
0.000978001
4.62927e-06
0.000121275
4.81855e-05
36142.5
56267.8
1788.09
600766
10242.5
512.897
17.8488
3.69458e-05
0.000332039
0.00145293
0.00254372
21.4902
0.000640669
0.586671
0.00107403
0.000219703
7.77605e-06
0.000574583
0.00216797
0.0235772
6.31779
964.645
42600.4
15755.8
166.405
12.2119
4.01579
473.39
0.000862089
0.00013327
0.0585513
3.5032e-06
9.41203e-05
0.000618913
1.55338e-05
6.05902
0.000659246
0.156258
1.11519e-05
3.43371e-05
0.000212581
0.000699306
0.000607101
0.00180964
2.02266
2.86673e-05
0.00062641
8.97395e-06
0.000202501
0.00639078
0.00059416
0.68982
0.00010215
0.000214905
2.34101e-06
8.43794e-06
0.00065723
0.00885578
0.739646
4.97196e-05
0.00023273
2.53921e-06
9.06833e-06
35.6752
343.349
2698.55
3.60434
28.29
3.56127
0.33187
381.053
423.238
2861.41
3.93327
30.0191
4.3369
0.428408
4852.19
61.8191
12204.4
160.517
148.398
2.3007
0.830373
12028.4
60.923
159.608
54.6645
146.513
2.29629
0.826595
0.000202836
0.874571
0.000787946
0.000142839
0.000377912
1.26903e-05
2.20183e-05
1.77627
10.0674
0.576156
2601.37
925.297
54.206
153.789
0.000711309
0.00287091
0.0147794
6.03621e-06
1.59111e-05
2.71982e-05
0.000274893
0.000407202
0.302075
8.29952e-05
1.06025e-05
4.62758e-06
0.000237965
2.4069e-05
7.53196
331.011
147.135
1.53356
0.205814
0.0809011
3.6231
9.1401
173.308
348.604
1.79896
0.220094
0.0963713
3.81941
252.677
6.77831
14.6908
1.41302
2.77792
0.155695
0.0720264
257.635
6.5739
14.7797
1.34833
2.85324
0.157535
0.0704787
7737.24
137.614
92.3948
1.70647
1.85424
1.18074
0.0273582
32.2606
1553.84
51.2466
15.9208
0.0175027
0.356675
0.543993
0.000298748
1.30301e-05
1.32257e-05
0.000745047
0.000916761
1.76139e-05
2.13478e-05
4.28588
0.0457425
4.44814
0.0512075
3.45556
0.0581167
3.75825
587.171
7.82469
30.9091
0.41318
0.353404
0.100431
0.00796698
0.000926381
0.000277293
0.000271538
3.42257e-05
2.64964e-05
3.49245e-05
2.68579e-05
3.81357
0.0465085
0.0493314
3.66866
0.0570593
3.2009
3.06811
3.51953
3.9687
0.0493303
0.0456706
3.04953
0.0533085
3.22865
3.7209
0.0522829
0.0459297
3.76009
0.0563981
3.4007
2.97705
3.59251
0.971071
0.0618555
0.0056114
98.6019
5.23843
0.184934
7.67919e-06
1.42144e-05
2.57519e-06
3.98009e+06
20156.4
33382.7
0.00774581
2.94701e+06
34029.4
576744
0.17675
2838.18
62.9953
0.0116319
4.27349
661715
2.19817
17207.8
0.0345398
353.267
11697.1
310055
39.3989
0.010565
0.0387933
2.53305e+06
7.27296e+06
1.69817e+06
2.14109e+06
29.4303
2.71479e+06
29990.4
1.41507e+06
3.03281e+06
2.61362e+06
3.27806e+06
44401.3
2.11012e+06
4491.25
0.852524
2.49298e-05
15223.6
0.000997451
0.220349
0.0169109
0.626141
1.2503e-06
4.27687e-05
1.53361e-06
1.17741e-05
3.0559e-10
8.33927e-07
5.86442e-09
0
1.68275
0.000488603
4.28654e-05
171.899
75.034
0.0772872
0.000150086
1.20347e-06
0.000954593
2.8639e-06
43.6147
0.0818074
0.000203598
712.174
4.79217
0.000408185
2.84141e-05
3.80872e-06
2.04752e-05
9.65971e-07
0.00674228
3.41304e-05
5.77277e-06
0.000724776
0.000153147
5.28657e-07
6.70116e-08
1.28552e-07
1.1627e-08
1.09139e-09
1.58255e-06
1.36934e-08
1.97906e-09
2.30633e-07
2.93076e-08
2.61934e-10
0
1.45519e-11
0
0
0
0
0
5.05531e-06
4.42298e-05
9.15331e-06
0.000289128
0.000359909
0.000102151
0.653411
0.000171125
0.000698858
6.39571e-07
8.82952e-07
6.08226e-07
1.16961e-05
1.13869e-07
1.91008e-07
2.47383e-10
1.30967e-10
7.27596e-11
4.40923e-09
2.91038e-11
1.45519e-11
4.62751e-09
4.32192e-09
1.45519e-11
1.45519e-11
0.0521198
0.0108468
0.000138493
0.00242018
0.188085
0.000621972
0.00402024
0.00494
0.000975401
4.22563e-05
3.96179e-05
0.000963556
7.89019e-05
0.00102368
0.559996
0.0239971
6.43761
0.0219378
2.04848
0.0064029
1.89247
0.0525871
6.40026e-05
0.0107371
0.00217542
0.00309316
0.00060145
0.187673
1.30724e-06
1.22575e-06
1.63597e-06
0.000328915
0.000250484
7.43561e-05
1.91409e-06
2.51915e-05
7.54195e-06
0.812943
6.85071
0.0255141
0.028212
2.20248
2.44868
0.0091376
0.09331
0.0148031
0.00280097
0.000102966
0.242141
0.00587745
0.0010398
0.0853093
0.00291181
0.0105575
7.58718e-05
0.240976
0.000925317
0.00391435
0.00979595
3.14748e-05
0.000540602
2.94727e-05
0.000960331
0.000117593
0.000822447
3.22916e-05
2.79286e-06
1.24209e-05
4.62575e-05
2.21968e-06
1.09815e-05
1.06268e-06
9.8208e-07
1.87558e-06
0.000888172
0.000711287
2.45047e-05
3.51301e-05
0.000706292
0.000719467
2.80323e-05
0.000221888
0.000247477
6.19453e-06
3.91153e-06
0.000222094
0.000226306
4.35197e-06
7.08569e-05
1.70538e-06
1.86365e-05
3.81478e-07
6.03922e-05
1.9041e-06
1.5778e-05
8.89426e-06
1.47673e-07
3.5448e-06
8.41974e-08
8.34824e-06
2.01471e-07
5.28606e-06
1.52912e-07
6.26605e-08
8.42847e-08
4.40341e-08
7.61065e-09
3.97558e-08
2.61934e-09
1.45519e-09
4.26371e-09
4.39803e-07
3.63812e-07
1.34751e-08
1.01136e-08
6.33707e-07
4.3599e-07
6.57747e-09
5.66506e-08
8.84611e-08
2.34286e-09
8.00355e-10
9.82836e-08
5.34201e-08
9.16771e-10
1.07393e-08
4.07454e-10
2.40107e-09
1.45519e-11
1.07539e-08
1.60071e-10
1.92085e-09
1.41154e-09
0
3.63798e-10
0
1.03319e-09
1.45519e-11
8.44011e-10
2.91038e-11
0
0
0
0
0
0
0
0
0
0
0
0
0
0
0
0
0
0
0
0
0
0
53.3045
0.385812
0.714971
0.00874169
0.000637897
0.000114272
0.000353164
4.70807e-05
7.08707e-06
9.5951e-07
0.0108429
3.04266e-06
1.27577e-07
7.27596e-11
0
1.49728
2.40291e-05
7.40692e-09
6.89339e-07
3.63798e-10
0
561.778
0.000758621
0.000389634
1.5476e-07
1.45519e-11
9.28412e-09
0
0
0.000110786
7.39559e-06
0.000271922
2.08514e-07
7.37782e-08
2.91038e-11
0
0
1.56724e-08
5.23869e-10
3.34694e-10
0
0
0
0.000204033
4.70197e-06
7.34144e-08
2.58862
0.0011844
2.52307e-05
5.32469e-07
6.77101e-08
3.49246e-09
0
2.53305e-05
7.16303e-07
1.97761e-08
1.01863e-10
0
0
1.32422e-09
5.59492e-07
9.64792e-09
0
3.7835e-10
0
0
0.00142604
3.34523e-05
5.67336e-07
0.124097
0.000310248
5.73041e-06
7.08387e-08
6.6917e-07
1.80153e-08
1.01863e-10
4.67421e-06
1.01179e-07
2.6339e-09
0
0
9.8953e-10
0
9.69158e-09
1.27387e-07
1.1205e-09
0
2.91038e-11
0
0
1.24532e-05
3.53059e-07
3.69619e-09
8.20271e-06
2.54469e-07
3.68163e-09
1.45519e-11
3.04135e-09
7.27596e-11
0
3.37604e-09
2.18279e-10
0
0
0
0
0
1.45519e-11
4.36557e-11
0
0
0
0
0
2.35741e-09
7.27596e-11
0
1.19326e-09
4.36557e-11
0
0
0
0
0
0
0
0
0
0
0
0
0
0
0
0
0
0
0
0
0
2.77651e-08
1.79716e-07
7.48987e-08
0
5.82077e-11
1.45519e-11
0
6.66361e-07
1.11152e-06
1.06334e-06
1.74623e-10
5.82077e-10
2.32831e-10
0
0
2.86673e-09
4.97676e-09
2.34286e-09
0
0
0
0
0
0
0
0
0
0
0
0
3.0559e-10
0
0
3.34694e-10
3.0559e-10
0
0
0
0
0
0
0
0
0
0
0
0
0
0
0
0
0.000127826
0.000138887
1.35912e-06
6.09961e-06
0.00016102
3.19016e-06
8.60065e-05
8.97271e-06
3.45704e-06
1.19719e-07
1.03144e-07
6.40232e-06
2.20592e-07
7.22869e-06
0.0012681
3.25045e-05
0.0010293
3.03383e-05
0.000970515
3.76909e-05
0.00101154
0.00011834
6.3733e-07
2.46002e-05
2.81974e-06
2.63478e-05
3.16477e-06
0.000108035
1.03973e-07
1.44399e-07
1.44064e-09
4.11819e-09
1.648e-07
1.76078e-09
9.73669e-08
3.20142e-09
8.87667e-10
2.91038e-11
1.45519e-11
2.09548e-09
4.36557e-11
2.96859e-09
1.09729e-06
3.3222e-08
7.825e-07
1.49885e-08
1.49809e-06
1.7928e-08
7.28207e-07
3.52884e-08
2.18279e-10
7.10133e-09
7.42148e-10
1.28202e-08
6.1118e-10
3.33384e-08
1.45519e-11
0
2.91038e-11
0
2.91038e-10
3.7835e-10
2.28465e-09
1.89175e-09
5.00586e-09
8.11662e-07
6.09303e-07
7.67541e-07
1.3446e-08
5.55738e-08
6.26605e-08
0
0
0
6.25732e-10
2.18279e-10
2.32831e-10
0
0
0
0
0.00187495
0.00146075
3.84397e-05
4.6954e-05
0.00141999
0.0014985
5.51978e-05
0.000146382
2.67975e-05
3.00343e-06
5.59958e-07
0.000123176
2.67234e-05
3.94195e-06
0.000497549
1.0355e-05
0.000321346
3.23553e-06
0.000410607
9.26456e-06
0.000300314
2.27898e-05
1.929e-07
4.01431e-06
2.24682e-07
1.14916e-05
4.85656e-07
1.56718e-05
9.62697e-07
7.11458e-07
9.74978e-09
2.92493e-08
4.5239e-07
1.31487e-06
1.63127e-08
3.31347e-08
6.31553e-09
5.82077e-10
1.74623e-10
2.83326e-08
9.56061e-09
6.25732e-10
1.55327e-07
6.00994e-09
1.42987e-07
1.58616e-09
2.78582e-07
2.31375e-09
1.2177e-07
4.32192e-09
1.45519e-11
8.87667e-10
2.91038e-11
2.80852e-09
5.82077e-11
3.7835e-09
1.74623e-10
2.47383e-10
0
3.34694e-10
0
1.45519e-11
0
1.45519e-11
0
4.36557e-11
0
1.45519e-11
5.17757e-08
1.14378e-08
7.42148e-08
2.38433e-07
3.82715e-08
1.5313e-07
2.93949e-09
3.4197e-09
8.67294e-09
0
0
0
1.01863e-10
0
1.45519e-11
0
0
0
0
0
0
1.51735e-05
1.31736e-05
1.84533e-07
3.07729e-07
1.08523e-05
1.88928e-05
1.93497e-07
4.7982e-07
2.51675e-07
1.01718e-08
4.29281e-09
5.52638e-07
3.65137e-07
7.61065e-09
3.32671e-07
1.05938e-08
1.73764e-07
1.9354e-09
4.13507e-07
6.4465e-09
1.42914e-07
1.16561e-08
1.30967e-10
2.2992e-09
7.27596e-11
8.67294e-09
2.32831e-10
7.74162e-09
4.04543e-09
5.50062e-09
4.36557e-11
1.16415e-10
4.75848e-09
6.94126e-09
2.91038e-11
1.01863e-10
1.45519e-11
0
0
1.16415e-10
1.45519e-11
0
1.01863e-10
0
5.82077e-11
0
1.60071e-10
0
1.45519e-11
0
0
0
0
0
0
0
0
0
0
0
0
0
0
0
0
0
0
0
0
1.60071e-10
1.45519e-11
7.27596e-11
1.60071e-10
1.45519e-11
7.27596e-11
0
0
0
0
0
0
0
0
0
0
0
0
0
0
0
1.97906e-09
2.86673e-09
2.91038e-11
2.91038e-11
3.01225e-09
2.41562e-09
1.45519e-11
5.82077e-11
1.45519e-11
0
0
1.16415e-10
0
0
2.91038e-11
0
1.45519e-11
0
2.91038e-11
0
0
0
0
0
0
0
0
0
0
0
0
0
0
0
0
0
0
0
0
0
0
0
0
0
0
0
0
0
0
0
0
0
0
0
0
0
0
0
0
0
0
0
0
0
0
0
0
0
0
0
0
0
0
0
0
0
0
0
0
0
0
0
0
0
0
0
0
0
0
0
0
0
0
0
0
0.00713844
0.040349
0.000210731
0.000275838
3.02243e-06
0.00117808
0.00131013
2.40333e-05
0.17359
45.8901
0.0103958
0.00140333
0.0013126
2.2072e-05
0.000282857
0.000298434
4.29263e-06
0.0190522
0.000742324
0.0127005
0.000664464
0.000417858
1.06208e-05
9.42779e-06
1.15107e-05
1.30007e-07
1.10178e-05
2.67886e-07
1.53712e-07
8.26549e-09
8.06627e-06
4.60225e-06
1.07699e-07
2.49089e-06
1.13709e-07
4.09927e-08
3.23053e-09
1.03944e-07
2.92493e-09
1.16415e-09
1.0943e-07
1.00932e-07
1.1205e-09
8.73115e-10
12973
28.2712
5.46433e+06
0.0692323
787665
2.76237e+06
1.10416e+06
0.595022
1.05763e+06
287654
0.0435677
0.00966016
0.47828
8.62217
1.93483
229.742
83.6374
0.189905
30.4813
688534
8044.18
153.345
1.09022e+06
2.05243e+06
640236
398744
2.08816e+06
625873
314632
1.88175e+06
1.75363e+06
71456.7
1599.5
1987.02
49.4115
0.205552
0.00713531
3.01889e+06
2.71574e+06
5737.2
5.53377e+06
10463.8
1.07538e+06
712668
1.67644e+06
974797
1.48393e+06
946958
2.36474e+06
2.38401e+06
3.54221e+06
14392.3
1.87703e+06
1838.18
1.11526e+06
1.07797e+06
3.31611e+06
245941
468136
2.88273e+06
37017.8
1.68854e+06
1.07594e+06
1422.63
237.697
671998
1.03973e+06
670575
829893
768812
788128
819540
788206
1.36128e+06
1.2827e+06
1.18865e+06
1.06476e+06
995867
953220
799269
963482
941521
1.08737e+06
832212
858725
1.13537e+06
952167
986984
1.0412e+06
801844
939138
869065
857070
1.40913e+06
1.59158e+06
1.55578e+06
1.535e+06
1.45169e+06
1.47149e+06
1.46364e+06
1.23651e+06
1.46472e+06
1.32449e+06
1.22749e+06
1.01611e+06
1.36348e+06
1.33836e+06
1.21628e+06
1.38894e+06
1.26378e+06
1.13759e+06
1.29261e+06
1.31738e+06
976595
1.25975e+06
1.33974e+06
1.10445e+06
1.1044e+06
1.29089e+06
1.29598e+06
995279
1.07645e+06
1.63976e+06
1.20247e+06
1.18661e+06
896947
2.57488e+06
1.84237e+06
874904
1.38197e+06
1.15499e+06
1.16186e+06
856394
2.36415e+06
1.81578e+06
2.5605e+06
850470
1.31716e+06
851392
1.00585e+06
731722
1.48448e+06
1.81395e+06
1.38178e+06
1.15404e+06
1.16094e+06
1.4163e+06
876467
856392
2.55219e+06
1.86961e+06
0.474295
300421
0.477304
2.81429e+06
684605
2.55879e+06
1.51043e+06
1.12715e+06
1.51535e+06
1.72848e+06
1.7441e+06
2.30511e+06
1.46977e+06
2.76679e+06
1.69027e+06
1.06548e+06
1.60575e+06
1.01417e+06
1.83155e+06
2.64919e+06
1.40216e+06
1.24287e+06
1.71732e+06
1.68987e+06
2.2877e+06
2.08676e+06
1.3785e+06
1.69916e+06
2.25733e+06
2.59207e+06
1.21082e+06
1.60448e+06
2.03037e+06
1.72931e+06
1.35961e+06
2.26697e+06
2.61667e+06
1.2492e+06
2.06604e+06
1.59066e+06
2.604e+06
1.24399e+06
1.72558e+06
1.34466e+06
2.08467e+06
1.57399e+06
2.25674e+06
2.15221e+06
1.06495e+06
0.0630742
11.2449
148400
0.021925
1.44367
3.57547e+06
7.38619e+06
2.5527e+06
6.62855e+06
3.37906e+06
3.82364e+06
4.86719e+06
3.5788e+06
3.70333e+06
2.46431e+06
1.40609e+06
2.46206e+06
3.52651e+06
3.54822e+06
3.70331e+06
3.52711e+06
2.46267e+06
3.5792e+06
2.46633e+06
1.4074e+06
2.61471e+06
1.03648e+06
0.00825195
0.0118599
0.012381
16.5647
0.0161355
1.33518
2.76559e+06
2.60436e+06
1.81791e+06
3.06307e+06
2.07136e+06
1.66609e+06
2.67079e+06
3.16875e+06
2.62215e+06
1.87808e+06
2.38649e+06
1.99349e+06
3.17302e+06
2.71646e+06
2.69943e+06
2.38694e+06
1.84718e+06
2.55363e+06
2.53742e+06
3.27916e+06
2.70024e+06
2.66763e+06
1.64281e+06
3.05367e+06
2.75493e+06
1.81904e+06
2.53585e+06
2.60206e+06
2.99666e+06
3.26561e+06
2.4774e+06
1.77102e+06
2.38816e+06
2.67294e+06
2.276e+06
2.53933e+06
2.39416e+06
3.54983e+06
2.8824e+06
1.49107e+06
2.38986e+06
2.53962e+06
2.37028e+06
2.64159e+06
1.80349e+06
3.19596e+06
2.22685e+06
2.67257e+06
2.10604e+06
1.33289e+06
0.020576
21.2882
0.00789479
0.0453816
0.330391
8.23775
21.2865
2305.46
31.5999
206509
4903.16
0.0204128
0.0316916
2.94762e+06
5.20693e+06
3.16256e+06
2.78238e+06
3.17379e+06
3.12136e+06
2.36691e+06
3.04948e+06
2.48955e+06
3.33102e+06
1.81127e+06
2.71446e+06
2.41039e+06
2.29695e+06
3.19359e+06
2.21406e+06
2.67157e+06
2.94097e+06
1.8051e+06
2.64117e+06
2.37395e+06
3.13222e+06
2.2634e+06
3.0046e+06
2.23245e+06
3.26867e+06
2.62207e+06
3.0096e+06
3.3332e+06
2.7682e+06
3.15633e+06
3.15001e+06
5.60305e+06
3.12547e+06
2.92662e+06
1.93897e+06
3.14041e+06
2.28915e+06
2.24376e+06
3.0333e+06
3.06848e+06
2.64911e+06
3.05141e+06
3.12517e+06
1.38309e+06
2.5517e+06
2.43561e+06
2.79149e+06
2.60875e+06
2.79339e+06
3.12912e+06
2.43747e+06
3.05443e+06
2.60931e+06
1.69057e+06
1.38641e+06
2.58724e+06
2.44275e+06
3.16554e+06
3.05596e+06
2.61296e+06
1.69381e+06
1.41585e+06
0.0219521
0.00102842
0.00751599
340.277
2.22044
14.6608
10699.5
1.47426e+06
1.74465e+06
397782
209242
1.76267e+06
1.59923e+06
135553
0.000977701
0.00333393
0.0157221
0.0922446
6.7119
423.645
7847.94
311426
575916
985078
1.89924e+06
2.36437e+06
2.30193e+06
2.13368e+06
406521
1.02123e+06
716026
2.09271e+06
2.39873e+06
2.19967e+06
2.40336e+06
1.05289e+06
707838
442900
2.40338e+06
2.38226e+06
2.14572e+06
2.26689e+06
748234
716103
454046
2.44687e+06
2.44751e+06
2.181e+06
2.29981e+06
2.86494e+06
5.12561e+06
3.91578e+06
195009
1.02137e+06
2.8746e+06
2.15384e+06
1.03058e+06
2.5543e+06
3.39855e+06
160944
3.2045e+06
1.22392e+06
1.76699e+06
3.69291e+06
3.44881e+06
3.58108e+06
376665
1.74866e+06
3.45352e+06
2.11526e+06
75411.8
1.69827e+06
2.67148e+06
2.10151e+06
3.94609e+06
3.57255e+06
937431
156067
1.20631e+06
3.19347e+06
1.01678e+06
2.5403e+06
3.02241e+06
3.39956e+06
2.70388e+06
315661
3.44953e+06
5.02118e+06
3.77334e+06
1.70134e+06
1.35207e+06
104433
1.67009e+06
3.26799e+06
2.84396e+06
705831
2.15079e+06
3.47442e+06
3.47767e+06
2.85033e+06
1.07742e+06
3.27101e+06
1.67725e+06
709390
105569
3.57958e+06
963170
2.12238e+06
2.69311e+06
79217.4
707431
1.72804e+06
2.44276e+06
808544
2.49102e+06
20358.2
43285.4
964313
718513
2.31741e+06
299923
1.92901e+06
7600.75
29073.5
796628
379441
3.13497e+06
180646
1.08638e+06
2.66585e+06
3.37551e+06
3.49525e+06
1.32682e+06
1.05931e+06
4417.14
382151
1.06126e+06
213886
1.6506e+06
37226
7850.58
804660
384560
1.94735e+06
677450
310704
2.33425e+06
971261
20829.6
724144
2.45554e+06
822867
2.50285e+06
588118
4087.18
369036
10133.7
2.19988e+06
526159
1.86158e+06
196872
494566
4141.22
9104.71
152749
74927.7
1.32008e+06
1.55509e+06
14871.4
216365
96174
1.44414e+06
672447
1.75204e+06
399728
1.562e+06
503898
323263
155085
77304.5
9382.94
4307.13
1.90778e+06
302489
372379
10330
2.21261e+06
535015
4313.11
663422
24967.8
870760
145133
641.937
71555.1
1429.83
141300
2118.34
40789.8
1.07254e+06
541007
1.61495e+06
202137
6582.74
1789.67
159524
38818.6
122858
1.02136e+06
1.42808e+06
2725.11
231751
450674
7430.81
181456
1.31277e+06
1.7377e+06
176884
4360.73
77563
638603
1.73817e+06
1.37329e+06
361099
5547.33
215580
95452.4
1.45773e+06
666037
1.75991e+06
398743
2925.69
462102
7702.86
189159
79046.3
1.77274e+06
1.37232e+06
144704
638.258
71149.4
664772
25075.2
872527
13028.1
291926
528904
2.20418e+06
371380
4167.5
10231.8
199379
533809
1.90445e+06
2.21253e+06
372384
4278.95
10291.4
205844
13588.7
25172.4
875839
145340
661.906
1426.03
74558.2
1.43823e+06
409351
167216
125365
40251.7
1890.15
6845.66
4375.52
125445
1.62766e+06
2458.07
82.5923
7003.46
184976
3747.96
309978
1.88325e+06
81.1683
7647.33
311938
3774.14
7457.67
2528.47
1409.38
133.673
88.5262
15.3177
28.1051
10772
2549.76
1473.86
133.633
92.6279
28.1551
15.8068
1664.42
155708
943363
28.7949
608.934
2563.62
47386
276419
238.475
28643.3
113.378
12699.1
897.522
8.26846
83.853
2508.81
7070.47
186945
1.64014e+06
129115
314658
6550.75
207.088
546.099
47099.7
18455.7
72.1439
179.993
15091.5
4417.22
13123.5
510.55
43742.4
49.1623
155.077
0.0048381
0.000437588
0.000413149
0.00449637
0.00851779
0.000140527
7.78829e-06
0.00102223
0.0168874
0.00685875
0.0829105
4.49732e-05
3.39153e-06
0.000279572
84.4663
213.203
18536.5
597.722
51102.8
19493.2
7567.43
227.016
223.039
610.954
52997.1
19923
19575.8
7687.23
182921
29.1283
2485.2
47920.2
526.532
1.05495e+06
33269.1
28570.7
8.17966
888.316
112.383
12592.4
276592
2840.16
49278.7
2556.61
186538
539.715
33908.4
2025.71
29.835
37097.4
212543
1.12197e+06
2865.19
53576.9
576.941
32.6682
318611
726.784
15826.9
182.548
4008.38
161.866
7.34441
564581
1658.65
50366.2
328.48
9516.67
475.368
17.0664
2600.31
626.513
48239.8
958815
1729.34
34930.2
160102
556.688
546.926
10833.7
620328
3245.63
64091
60249.9
14976.5
6.98692
690.388
173.4
3810.7
307179
19110.9
48363.2
456.414
9177.45
16.4734
317.186
32861
553429
36919.9
18.3119
348.393
529.197
10472.4
608582
58162.5
132.98
9.51753
543.378
550.349
134.833
34589.4
8955.14
14.3086
814.497
5.7287
823.12
51593.4
356.728
24325.7
25030.2
129.923
302.618
8.01318
3.1943
254.538
588.169
3.29069
604.452
261.502
25951.3
12122.9
313.13
134.89
209.676
53.366
4614.15
98.2711
1.28321
5.41214
397.019
0.000348462
0.00709605
0.208908
0.000127502
2.12941e-06
0.000636494
8.36543e-06
43.0415
0.461004
1.18194
4960.06
109.257
20.5961
2073.83
5.60925
410.655
102.03
17984.6
4859.47
56.1366
218.895
49.875
2169.37
1.20005
5013.12
111.076
44.8098
0.475172
39.3497
2485.16
341.816
3.55656
26.28
3.5727
0.369329
2853.34
47.0821
380.789
4.34426
29.8723
3.92584
0.430379
20.0111
404.572
1380.88
0.876229
0.229253
4.68864
16.1283
104.215
1793.75
753.177
0.477603
1.21739
8.47575
20.874
28.7574
79.6837
0.889037
21.9968
2035.03
7.88471
0.316933
4610.17
59.5465
157.997
11930.4
145.289
2.28209
0.814796
10.2685
1.80182
29.1095
156.182
55.9758
2630.57
944.283
0.435631
1.12183
21.947
104.357
1997.35
41.9455
778.723
30.5047
0.651174
10.9067
59.6568
164.498
2705.34
980.069
0.335516
8.46156
82.4576
0.926851
22.9749
2135.69
776.051
5006.86
20.8696
43.8323
1.20274
110.455
2103.03
49.9266
5002.82
1.19433
44.4719
21.2098
110.338
49.6286
2160.97
1417.38
4.86724
419.588
21.053
0.935171
78.1919
0.245026
1829.39
8.79575
779.158
1.26313
107.418
45.4697
0.502895
56.1626
161.728
12271.4
149.558
2.33483
0.847558
62.3937
5821.24
0.900279
71.1724
1.52907
0.02367
1.42401
111.172
1.38245
0.56541
0.0228144
1.39132
39.723
100.706
3006.72
16.8735
79.668
1520.46
21.1735
412.945
4.67207
0.231368
0.155991
0.0700348
6.55109
255.205
129.963
1.35708
2.81669
14.5988
0.155275
253.564
133.511
2.79196
1.38861
0.0714576
0.160094
0.452605
10.3749
0.456922
34.3899
10.4977
721.802
369.932
0.207944
17.1464
0.332346
7.76412
0.00715762
0.0950354
3.24518
21.6267
334.633
6.13151
0.00638377
0.0641374
0.381006
28.3051
0.332526
6.35267
544.646
7.38976
0.00816816
0.0976689
29.1694
7.59804
6.56105
0.39614
0.343028
0.0997452
0.00825878
1337.23
14.2185
0.516713
0.322031
28.1353
0.965225
0.0176027
3.07076
5.87452
311.506
19.5222
0.00592696
0.330988
0.202277
1262.22
0.321424
33.987
0.822768
0.0137458
34.2025
0.323516
0.034166
72.6614
1.5592
112
5915.57
63.8586
0.926569
47.1742
0.982955
0.0181365
28.806
1385.03
14.7242
0.531684
90.3242
0.17504
3.39975
0.00532417
0.0525128
0.920345
0.038918
1.05592
0.00765315
0.0607366
0.268724
5.74429
5.25974
105.667
3.65751
0.00591382
0.0461694
0.0634755
0.991482
5.38936
100.751
19.1891
0.330499
5.7468
0.0129747
0.0686474
3.02513
306.238
0.106952
0.349881
8.03157
17.8406
387.903
4.49062
0.225184
3.52369
0.940912
93.851
4.99232
0.00593139
0.0607328
0.181202
597.856
0.404797
6.78742
0.0177661
0.11107
7.93221
0.430616
0.000269205
7.22284e-06
9.35614e-06
0.000301986
0.000542344
9.82737e-06
1.42057e-05
0.000754336
3.02619e-05
0.000243677
1.02993e-05
1.69671e-05
7.48485e-06
1.04456e-05
1.43809
2.7438
33.9123
0.31247
0.00860849
0.0210656
0.0342556
6.17068e-06
1.38874e-05
4.84154e-06
0.00027455
5.45153e-06
7.74074e-05
8.45622e-06
0.00010421
5.45103e-06
4.85913e-06
1.57075e-05
8.29157e-05
8.92952e-06
6.83736e-06
0.00624328
0.017486
1.20173
1.99967
0.00855138
0.0270985
0.401558
2.11117
0.00863436
0.190965
0.0173499
1.21194
0.0281406
0.40507
0.0157813
0.166589
1.05544
1.67225
0.00715379
0.317416
0.0230087
1.71793
0.170763
0.0156422
0.00695637
1.09061
0.312517
0.0233592
0.0662835
0.0214619
0.00187141
1.85373
0.149297
0.0469736
5.6401
0.0679201
0.990909
24.8264
0.234188
0.00675244
0.0160642
0.0248755
0.017217
2.07198
1.20801
0.188595
0.00854853
0.402508
0.00601765
1.97246
0.0175477
1.21446
0.203488
0.00847831
0.397243
0.00616709
2.8476
7.52262
2.59381
0.0367286
0.0394501
0.0176355
0.0961451
0.932089
7.54923
2.61459
0.0357784
0.0371977
0.0947265
0.0162485
1.12263
2.53973
0.264652
0.0913178
0.0312466
0.0174708
0.00746295
7.21263
0.371974
0.121128
0.290266
0.0951321
0.00608388
0.00991083
19.1008
0.328071
0.104925
0.253763
0.0810462
0.00493005
0.00832404
4.97731e-06
5.47931e-06
4.21022e-06
9.96544e-05
0.000251875
1.3582e-05
6.27051e-05
0.0676821
0.00700603
0.224594
0.0853877
0.0045153
12.5277
5.00703
0.0781393
1.76629
38.3329
0.0250189
0.00791506
0.405141
0.0257131
0.06639
4.92922
0.223193
12.3369
0.0848157
0.00693912
0.00447515
0.0270628
0.0292731
0.419751
1.85804
40.2769
1.77728
0.0820678
0.0824135
0.0073747
0.016896
1.0451
25.8942
0.245502
0.028716
1.08857
0.0228451
1.65651
0.00744706
0.311203
0.16852
0.00528089
1.12461
2.55483
28.262
0.264211
0.0074356
0.0174825
0.0312621
0.246105
1.05639
25.965
2.23467
0.083597
0.0287855
0.00730347
0.000279694
0.000225008
0.00129984
2.40307e-05
2.63051e-05
2.63306e-05
3.99995e-05
2.62045e-05
4.21774e-05
2.33613e-05
0.00131232
0.000261167
4.03258e-05
2.61719e-05
1.90093
0.0248998
0.0402993
6.38042
2.06574
0.0414699
0.0920059
0.840262
0.0454697
0.0293265
6.82465
2.45612
0.047201
0.0985696
2.11635
0.168935
0.0594071
0.076077
0.0297174
0.00711481
0.00866542
5.68691
0.154742
0.054491
0.0704394
0.0275428
0.00621974
0.0076496
2.53638
0.0470939
0.0185537
0.0332654
0.0134383
0.00420443
0.00335243
1.18601e-05
1.78753e-05
1.23361e-05
0.000209942
0.000473668