/*--------------------------------*- C++ -*----------------------------------*\
  =========                 |
  \\      /  F ield         | OpenFOAM: The Open Source CFD Toolbox
   \\    /   O peration     | Website:  https://openfoam.org
    \\  /    A nd           | Version:  9
     \\/     M anipulation  |
\*---------------------------------------------------------------------------*/
FoamFile
{
    format      ascii;
    class       volScalarField;
    location    "0.0024";
    object      overpressureMax;
}
// * * * * * * * * * * * * * * * * * * * * * * * * * * * * * * * * * * * * * //

dimensions      [1 -1 -2 0 0 0 0];

internalField   nonuniform List<scalar> 
19646
(
0
2.93949e-09
7.91915e-08
1.94219e-06
4.36073e-05
0.000918627
0.020717
0
1.16415e-10
5.70435e-09
1.39204e-07
3.09008e-06
6.2611e-05
0.00125925
0
0
2.47383e-10
7.81438e-09
1.73197e-07
3.40003e-06
5.92176e-05
0
0
0
3.0559e-10
8.20728e-09
1.59693e-07
2.69625e-06
0
0
0
0
2.47383e-10
6.31553e-09
1.06418e-07
0.0211062
0.000957742
3.82793e-05
1.47938e-06
0.504533
218503
0.296637
0.0115628
0.000420507
1.59438e-05
282568
316.485
1.34912
0.00292692
0.000121429
0.0479059
1181.23
366486
420991
0.00670609
101.745
1742.98
412071
521595
0.000890303
0.179643
21878.7
279339
469810
0
0
0
0
0
1.45519e-11
2.22644e-09
4.00469e-08
5.48142e-07
0
0
0
0
4.36557e-11
3.15777e-09
6.71862e-08
1.20889e-06
1.71433e-05
0
0
0
5.82077e-11
3.27418e-09
8.14616e-08
1.8032e-06
3.56005e-05
0.000545414
0
0
0
2.73576e-09
7.4986e-08
1.92861e-06
4.82552e-05
0.00102385
0.00732145
0
0
1.73168e-09
5.21686e-08
1.48476e-06
4.29419e-05
0.00117563
0.00850195
0.0978511
0
8.14907e-10
2.68628e-08
8.06802e-07
2.4667e-05
0.000790641
0.00878984
0.131779
16.2479
2.47383e-10
1.02591e-08
3.11557e-07
9.00446e-06
0.000292077
0.0082987
0.0621418
9.96795
501934
2.77942e-09
9.24338e-08
2.70698e-06
7.34269e-05
0.00196945
12.9814
265700
469111
611175
0
0
0
0
0
0
7.27596e-10
1.26311e-08
1.69806e-07
0
0
0
0
0
9.74978e-10
2.10421e-08
3.57628e-07
4.73704e-06
0
0
0
0
1.04774e-09
2.56259e-08
5.22705e-07
9.07012e-06
0.00011893
0
0
0
8.29459e-10
2.37778e-08
5.61951e-07
1.19498e-05
0.000242
0.00318677
0
0
5.09317e-10
1.67493e-08
4.44794e-07
1.08911e-05
0.000271927
0.00550849
0.0200932
0
2.03727e-10
8.84756e-09
2.5495e-07
6.77622e-06
0.000173931
0.00490124
0.0251387
1.46349
0
3.31784e-09
1.03624e-07
2.86386e-06
7.20576e-05
0.00182515
0.0121788
0.905503
487415
8.73115e-10
3.07045e-08
8.89428e-07
2.28551e-05
0.000498444
0.480917
84725.9
455293
584356
0
0
0
0
0
0
1.45519e-11
1.71713e-09
2.44472e-08
0
0
0
0
0
8.73115e-11
2.88128e-09
5.16739e-08
7.27377e-07
0
0
0
0
1.01863e-10
3.55067e-09
7.58155e-08
1.38642e-06
2.04119e-05
0
0
0
5.82077e-11
3.34694e-09
8.24512e-08
1.82916e-06
3.59603e-05
0.000544838
0
0
0
2.41562e-09
6.66332e-08
1.70372e-06
4.10451e-05
0.000809499
0.0040728
0
0
1.29512e-09
3.94648e-08
1.11049e-06
3.04361e-05
0.00074972
0.00448275
0.149699
0
4.94765e-10
1.66037e-08
4.90836e-07
1.42887e-05
0.000416176
0.00461335
0.125318
50.1965
8.73115e-11
5.03496e-09
1.51602e-07
4.21816e-06
0.000109527
0.00306895
0.0293433
3.30526
441647
0
0
0
0
0
0
0
1.16415e-10
2.67755e-09
0
0
0
0
0
0
2.61934e-10
5.41331e-09
7.82311e-08
0
0
0
0
0
3.20142e-10
7.71252e-09
1.37516e-07
2.0337e-06
0
0
0
0
3.0559e-10
8.3237e-09
1.74943e-07
3.28907e-06
5.17076e-05
0
0
0
1.89175e-10
6.8394e-09
1.63054e-07
3.63754e-06
7.38902e-05
0.00116139
0
0
8.73115e-11
4.22006e-09
1.10798e-07
2.77557e-06
6.63269e-05
0.00131271
0.00672766
0
0
1.89175e-09
5.37402e-08
1.42732e-06
3.69029e-05
0.00088276
0.00520002
0.23664
0
5.67525e-10
1.85391e-08
5.076e-07
1.324e-05
0.000367382
0.00638729
0.057358
3426.21
0
0
0
0
0
0
0
0
2.32831e-10
0
0
0
0
0
0
0
4.80213e-10
7.91624e-09
0
0
0
0
0
0
7.13044e-10
1.31113e-08
1.96145e-07
0
0
0
0
0
7.27596e-10
1.61963e-08
2.92755e-07
4.51917e-06
0
0
0
0
5.67525e-10
1.50176e-08
3.147e-07
5.96496e-06
9.8299e-05
0
0
0
3.34694e-10
1.04919e-08
2.45345e-07
5.36013e-06
0.000108814
0.00185968
0
0
1.16415e-10
5.38421e-09
1.36773e-07
3.2558e-06
7.42534e-05
0.00155247
0.00989294
0
0
1.96451e-09
5.41768e-08
1.35062e-06
3.20371e-05
0.000802127
0.011603
322.662
0
0
0
0
0
0
0
0
0
2.32831e-10
0
0
0
0
0
0
0
0
5.67525e-10
7.63976e-09
0
0
0
0
0
0
0
9.8953e-10
1.53523e-08
1.85872e-07
0
0
0
0
0
0
1.23691e-09
2.22353e-08
3.38114e-07
4.15045e-06
0
0
0
0
0
1.10595e-09
2.36178e-08
4.30024e-07
6.74032e-06
8.64565e-05
0
0
0
0
7.71252e-10
1.86119e-08
3.89176e-07
7.29407e-06
0.000122028
0.00180905
0
0
0
3.7835e-10
1.08703e-08
2.49609e-07
5.27596e-06
0.00010433
0.00206978
0.110158
0
0
1.01863e-10
4.49654e-09
1.12414e-07
2.55607e-06
5.44907e-05
0.00122008
0.0595963
352.331
0
0
0
0
0
0
0
0
0
0
0
0
0
0
0
0
0
0
0
4.36557e-10
0
0
0
0
0
0
0
0
8.87667e-10
1.15833e-08
0
0
0
0
0
0
0
1.29512e-09
2.05473e-08
2.51137e-07
0
0
0
0
0
0
1.38243e-09
2.57278e-08
3.92974e-07
4.86901e-06
0
0
0
0
0
1.10595e-09
2.33995e-08
4.22195e-07
6.5512e-06
8.42605e-05
0
0
0
0
6.40284e-10
1.53959e-08
3.14147e-07
5.71691e-06
9.24523e-05
0.00138469
0
0
0
2.03727e-10
7.18865e-09
1.60697e-07
3.24508e-06
5.94528e-05
0.00108516
0.0100163
0
0
0
0
0
0
0
0
0
0
0
0
0
0
0
0
0
0
0
0
0
0
0
0
0
0
0
0
0
5.38421e-10
0
0
0
0
0
0
0
0
9.8953e-10
1.26456e-08
0
0
0
0
0
0
0
1.23691e-09
1.94414e-08
2.37953e-07
0
0
0
0
0
0
1.13505e-09
2.08966e-08
3.15849e-07
3.85527e-06
0
0
0
0
0
7.567e-10
1.5847e-08
2.78902e-07
4.19604e-06
5.1697e-05
0
0
0
0
3.0559e-10
8.26549e-09
1.64058e-07
2.8428e-06
4.23166e-05
0.000542412
0
0
0
0
0
0
0
0
0
0
0
0
0
0
0
0
0
0
0
0
0
0
0
0
0
0
0
0
0
0
0
0
0
0
0
0
0
0
0
4.80213e-10
0
0
0
0
0
0
0
0
8.00355e-10
1.01863e-08
0
0
0
0
0
0
0
8.58563e-10
1.3446e-08
1.61017e-07
0
0
0
0
0
0
6.40284e-10
1.18889e-08
1.75482e-07
2.06806e-06
0
0
0
0
0
2.76486e-10
7.18865e-09
1.21829e-07
1.73907e-06
1.96421e-05
0
0
0
0
0
0
0
0
0
0
0
0
0
0
0
0
0
0
0
0
0
0
0
0
0
0
0
0
0
0
0
0
0
0
0
0
0
0
0
0
0
0
0
0
0
0
0
0
0
3.0559e-10
0
0
0
0
0
0
0
0
4.36557e-10
5.80621e-09
0
0
0
0
0
0
0
3.7835e-10
6.30098e-09
7.36472e-08
0
0
0
0
0
0
1.89175e-10
4.45289e-09
6.29079e-08
6.95101e-07
0.000773276
0.000211579
4.06138e-05
7.10929e-06
0.000175508
0.00368279
0.117605
1156.16
108785
2.01544e-08
6.9855e-07
2.23706e-05
0.000613074
0.025985
74.4363
345570
486179
640622
9.41945e-08
2.91236e-06
7.75471e-05
0.00201497
0.0236035
4.58534
184786
606209
2.94851e-07
8.97494e-06
0.000263027
0.00827813
0.146638
345.908
362976
623355
6.6169e-07
2.31515e-05
0.000809312
0.0387111
244.308
351434
484968
8.067e-07
2.69941e-05
6.31553e-09
2.03479e-07
6.10232e-06
0.000207746
0.00503554
5.61212
212956
471822
619328
3.11265e-08
9.91931e-07
2.63248e-05
0.000555693
0.00598477
0.524216
34796.6
589105
1.05676e-07
3.06794e-06
7.63585e-05
0.00184003
0.0391309
26.9502
297595
604053
2.18977e-07
6.4606e-06
0.000178372
0.0050609
1.49152
89880.8
455359
592142
2.52883e-07
7.41315e-06
9.8953e-10
3.34112e-08
9.93925e-07
2.71031e-05
0.000628685
0.00945624
0.133496
354516
247056
4.52565e-09
1.41619e-07
3.96481e-06
0.00010662
0.00309385
0.0547557
68.8119
426729
1.64437e-08
5.16084e-07
1.54245e-05
0.000436356
0.0052681
0.433104
5535.42
504445
4.00032e-08
1.25004e-06
3.51452e-05
0.000830745
0.0237496
26.3123
264659
507425
5.28526e-08
1.56325e-06
5.82077e-11
4.48199e-09
1.30996e-07
3.48286e-06
8.32529e-05
0.00177333
0.0215753
161658
17938.2
6.1118e-10
2.1173e-08
5.86486e-07
1.58167e-05
0.000465057
0.00673235
0.188968
362198
292361
2.45927e-09
7.6092e-08
2.12147e-06
5.75953e-05
0.00135739
0.0142868
0.961366
391383
6.09725e-09
1.82758e-07
4.89551e-06
0.000118233
0.00238427
2.00915
79104.8
380248
8.92032e-09
2.64685e-07
0
4.80213e-10
1.54105e-08
4.08036e-07
1.00047e-05
0.000221236
0.0044122
0.0476364
1919.54
0
2.75031e-09
7.73871e-08
2.01802e-06
5.28372e-05
0.00142482
0.0147121
5.90574
2108.62
2.76486e-10
1.12923e-08
3.07627e-07
7.90169e-06
0.000180714
0.00337267
0.0353147
17.1355
8.44011e-10
2.79542e-08
7.48711e-07
1.83106e-05
0.00039887
0.00826052
0.249721
1760.81
1.25146e-09
4.05125e-08
1.08412e-06
2.66625e-05
0.000585871
0.0120486
29.8332
2265.25
0
0
1.33878e-09
3.5725e-08
8.73595e-07
1.96794e-05
0.000399914
0.00765916
0.625023
2335.49
0
2.03727e-10
7.46513e-09
1.92216e-07
4.74614e-06
0.000113451
0.00237369
0.0391984
211.288
2154.32
0
1.04774e-09
3.08937e-08
7.87171e-07
1.82506e-05
0.000372445
0.00705418
0.140797
0
2.88128e-09
7.90169e-08
1.97043e-06
4.49807e-05
0.000960754
0.021618
0.925117
4.36557e-11
4.13274e-09
1.12152e-07
2.77949e-06
6.43154e-05
0.00156886
0.0531586
269.706
0
0
0
2.2992e-09
5.6898e-08
1.25023e-06
2.48693e-05
0.000435371
0.00663099
10.0505
0
0
4.36557e-10
1.3184e-08
3.12342e-07
6.98838e-06
0.000146133
0.00249838
0.0253434
42.6209
0
0
2.16824e-09
5.56174e-08
1.28319e-06
2.63986e-05
0.000476395
0.00837886
0
1.16415e-10
5.7189e-09
1.43831e-07
3.2597e-06
6.74548e-05
0.00139497
0.0352478
0
2.32831e-10
8.22183e-09
2.0329e-07
4.56393e-06
9.56848e-05
0.00216307
0.0653932
0
0
0
4.36557e-11
2.95404e-09
6.4756e-08
1.24655e-06
2.08941e-05
0.00028379
0.00260974
0
0
0
6.69388e-10
1.67638e-08
3.52593e-07
6.85875e-06
0.000119136
0.00160429
0.0196552
0
0
4.36557e-11
3.0268e-09
7.04604e-08
1.43565e-06
2.53922e-05
0.000376391
0
0
2.47383e-10
8.09086e-09
1.81943e-07
3.62952e-06
6.40017e-05
0.0010503
0
0
3.7835e-10
1.1627e-08
2.57045e-07
5.07382e-06
9.0243e-05
0.00154401
0
0
0
0
5.82077e-11
2.80852e-09
5.4526e-08
8.8934e-07
1.1881e-05
0.000114661
0
0
0
0
6.98492e-10
1.57452e-08
2.87764e-07
4.66955e-06
6.26706e-05
0.000644428
0
0
0
8.73115e-11
3.24508e-09
6.55709e-08
1.15109e-06
1.68407e-05
0
0
0
3.0559e-10
8.45466e-09
1.67827e-07
2.8522e-06
4.03582e-05
0
0
0
4.80213e-10
1.22236e-08
2.37706e-07
3.99089e-06
5.64744e-05
0
0
0
0
0
0
2.02272e-09
3.28873e-08
4.32803e-07
4.29137e-06
0
0
0
0
0
5.23869e-10
1.08121e-08
1.65397e-07
2.10063e-06
2.00415e-05
0
0
0
0
4.36557e-11
2.48838e-09
4.39177e-08
6.39367e-07
0
0
0
0
2.47383e-10
6.51926e-09
1.10216e-07
1.52248e-06
0
0
0
0
3.7835e-10
9.41509e-09
1.56506e-07
2.13248e-06
289551
374003
134046
18960
268291
27460.3
272043
174371
274207
223301
284239
0.0726139
3574.29
0.798179
48585.1
142.154
110506
0.00418366
0.174703
0.0113894
1.0296
0.0164386
4.40723
0.000186544
0.0014117
0.000417662
0.00276502
0.000584159
0.00403108
7.27556e-06
6.07129e-05
1.57849e-05
0.00011385
2.19256e-05
0.000156646
311397
609864
668945
650378
488476
515292
479671
505923
343230
278360
375486
373843
364579
272802
310401
362733
267156
382531
272503
308077
361540
299278
504344
659638
600836
598388
490181
523265
657179
624629
519750
508354
578764
732435
566940
712576
488322
520808
649057
636126
613215
507544
478547
594337
445580
554272
478340
436892
543806
469460
386212
169201
401647
258646
392502
363957
293181
627822
555778
605990
476147
501069
455343
473849
663310
654979
649493
610638
606874
595589
599082
559759
468267
405629
557331
469273
377964
469575
504109
578093
483115
562960
706400
566195
636985
555046
466479
374000
468097
425562
460200
343049
725100
701308
694847
675850
670323
643936
649118
415137
495302
488922
490681
386245
394691
496871
656751
638174
643407
597276
601894
590815
586634
366454
361381
367352
344441
361527
330577
330012
366629
341829
343900
359250
360689
329936
328370
676365
655178
671723
616404
620349
608549
604658
674036
660321
677181
618458
621088
609195
606473
619024
639769
634919
583094
572932
569740
586392
384649
392933
494481
384517
481811
376668
475465
361384
339598
337447
358409
358679
327275
326674
717314
682795
687658
659731
663946
637911
633582
665292
653748
670428
615331
610729
603381
599253
536598
434584
534705
466384
416418
513088
447557
613504
624579
629094
578345
561962
565111
574746
360830
334001
335446
363670
360244
326773
327890
643417
659033
650765
598113
605214
594115
587621
573768
500373
489436
443689
527876
434390
520245
635765
670755
665153
618197
596571
592509
622797
475473
400660
385136
434569
537332
425601
529341
602606
588789
585427
558500
555625
540968
543825
452945
380656
475675
333211
444526
372942
469309
559800
512555
556967
547293
506944
504290
550180
624747
574965
620228
597652
559119
555345
601909
641218
630045
618127
589566
580008
579930
571063
252551
10818.2
252286
247011
277815
181146
23649.5
129931
297142
247987
23505.1
246514
283800
254605
282004
178173
250764
239084
251770
3175.06
10317.4
253799
12939.5
253582
285383
253598
254466
12573
693550
677074
654623
667197
645402
628644
621062
624421
595499
628585
558872
584486
580869
555656
429808
497662
428370
441139
456203
176481
320974
361030
108842
412559
413529
379675
5088.71
287451
5225.79
215001
243412
280100
272035
240053
251726
326147
312799
327536
308602
291170
307820
292136
549252
508788
552759
543250
498041
500501
540011
312412
325005
327093
308114
290158
306559
291735
634387
597453
630273
589384
560399
585915
563379
631788
601150
634889
589865
561354
563734
587322
629532
653331
658318
612316
582716
587157
607864
570197
611236
614961
592229
547049
550519
588354
597500
577966
580691
548309
550954
536521
534169
368616
333503
368979
334609
376303
330386
334711
481106
401405
432627
457005
484134
299073
383740
566649
524515
569889
560869
514027
557407
517037
617697
595009
607169
556962
568937
561101
550062
477243
289143
382222
372948
468728
215699
446414
536718
528160
497944
485820
525380
495309
539533
322637
305416
320022
288489
305092
303806
286772
568480
525157
570559
561474
515550
517582
559085
565657
517313
561709
513137
556367
552604
509799
251669
381288
361236
381082
271897
246208
2021.28
366446
375494
366390
327925
333342
327908
333183
374751
364413
365541
327249
331785
332542
326207
583477
588150
619447
576317
547221
570771
551907
571438
551062
568315
526125
514314
511265
529012
485379
556545
465351
431134
512182
356026
487789
259898
194283
385860
240588
1641.43
180084
463.433
364340
375631
365767
332005
325878
326576
333432
532603
518642
481850
489189
521279
491522
529745
512882
550433
556796
548060
500522
542100
505740
606933
582514
578665
571227
567467
542670
546195
648064
612001
639829
577791
603010
596244
571281
451444
518911
469103
509872
547307
444592
466644
302442
314607
317325
302791
283388
302278
285014
575225
556569
516303
539445
552857
535838
579198
376011
343128
337704
395862
385581
341087
349353
577787
571226
597842
541584
564285
556896
535447
492742
497331
494897
456784
457682
459569
454772
494327
498070
495644
457381
459075
456170
460164
415879
346208
444356
83689
407551
299751
435775
364726
453554
96604.3
423376
517759
385371
499577
581487
573474
544134
566787
530480
537777
524723
441619
364649
463113
34829.9
424476
172377
442012
267152
45222.4
154302
149.691
224514
252418
1734.9
378503
373208
368711
328369
339964
336111
331420
516220
475644
513469
500841
467588
464857
503642
560959
546539
563604
521912
504744
507153
519614
543121
493647
534603
494420
535326
527338
487428
557032
512857
514695
528660
531157
494218
492328
559794
512627
514598
529116
531317
494180
492381
606696
557070
599753
543038
583974
577730
537541
668998
618280
647166
600999
627388
606828
583564
491875
491210
488680
456848
454037
451040
453817
158981
117953
380962
8000.67
60610
367073
212911
967.394
49225.4
541210
260102
544001
1018.83
85477.7
508362
0.638983
5.17007
0.848951
0.426047
12.2695
13.8683
278.54
7.85738
8.9281
177.884
3.47629
3.05366
67.3675
0.248899
23.1707
0.16465
0.457456
6.66061
1.60382
0.180726
0.1282
0.0219172
0.0101032
0.0299286
0.0343135
0.496627
0.188255
0.00795047
0.00211427
0.000976131
0.0294198
0.00195429
0.00531908
0.000119614
4.87879e-06
1.72644e-07
1.73738e-05
7.43428e-07
2.79397e-08
314.434
2313.58
227.601
13827.3
14680.7
68787.2
1788.17
65365.4
207786
149903
174383
0.350326
67.965
5.68911
1194.14
4.92936
8.42637
132.135
808.978
1832.52
21974.9
0.116025
21.3866
0.00671692
0.000340627
11923.7
133.735
7.42914
5.77454
65.6164
249.788
32.7922
987.01
670.467
4275.51
119.373
0.420151
4.60422
0.0450586
0.0922437
2.98722
0.00850958
0.136719
0.00474577
3.20754
0.0572276
0.686716
0.186274
0.941718
67.8673
0.268334
0.693034
5.67917
0.0610864
11.2963
1.04247
0.584056
8.78341
0.0754794
14.1721
1460.26
119.654
170.605
0.399263
0.0476905
0.00461462
0.00234019
0.000692487
0.00922366
0.000274175
0.000826657
0.00228331
0.297436
0.00142278
6.21207e-05
2.19489e-06
118.889
0.0552994
0.000281562
0.000606578
1.06089e-05
2.14834e-05
3.87008e-07
111404
282.05
1.18986
2756.51
0.274717
7.65964
2.67377e-07
7.17748e-06
2.61643e-08
4.00469e-08
3.7282e-08
3.07249e-07
1.24391e-06
2.6483e-07
1.14484e-06
0.000175782
0.00312293
9.24601e-06
4.21108e-05
7.46465e-06
3.29878e-05
0.000423664
0.000219254
0.00123988
0.00081937
0.0117439
0.00397703
2.03727e-10
9.63337e-09
3.34694e-10
5.6898e-09
0
0
0
0
1.32422e-09
5.82077e-11
2.61934e-10
2.44181e-08
0
1.60071e-10
3.60887e-09
2.75177e-08
8.09086e-09
6.49015e-09
2.77942e-09
0
0
0
0
0
0
0
0
0
0
0
0
0
0
3.65253e-09
1.55705e-09
1.92085e-09
2.61643e-08
1.13403e-07
1.62996e-07
2.83908e-08
6.25732e-10
7.42148e-10
2.61934e-10
2.91038e-11
5.82077e-11
0
1.16415e-10
5.36529e-08
1.24419e-08
2.7052e-08
0
0
0
0
0
0
0
0
0
0
0
0
0
0
0
0
0
0
0
0
0
0
0
0
0
0
0
0
0
0
0
0
0
0
0
0
0
0
0
0
0
0
0
0
0
0
2.61934e-10
2.76486e-10
1.60071e-10
0
0
0
0
6.66948e-06
9.15621e-07
8.06261e-06
2.95653e-06
4.04341e-06
6.56946e-06
3.8853e-05
2.01189e-06
5.34055e-07
1.42799e-06
1.72411e-07
8.10003e-07
2.42414e-05
2.02563e-07
8.07922e-08
1.07713e-07
8.71762e-07
3.47673e-06
0
2.45927e-09
2.47383e-10
3.34694e-10
2.45927e-09
1.16415e-10
0
0.000545828
1.84535e-05
0.00114814
0.000590164
0.00232087
0.000235856
0.00435235
6.34109e-05
1.5653e-05
5.91586e-05
0.000886057
0.000116771
5.85259e-06
0.00755923
0.00473163
0.016663
0.0150895
0.0115641
0.0102346
0.00303686
0.00651109
0.00521988
0.000566075
0.0020809
0.00307699
0.00733321
0.00195311
0.00300712
0.000596861
0.000423489
0.0052063
0.0011917
0.00194987
0.00148831
0.00211599
0.000350441
0.00017756
0.000795896
0.00122787
0.00259468
0.000226464
0.000600124
0.00109729
0.00103833
0.00357489
0.000400544
0.00122099
4.46012e-05
0.000377861
2.4959e-06
4.58622e-05
4.63901e-07
2.89666e-05
1.80475e-05
0.000195953
0.000124919
6.50464e-05
7.1779e-05
4.38287e-05
5.60279e-05
0.0010549
0.000698764
0.000778188
1.06734e-05
3.27463e-06
7.55539e-05
2.22162e-05
0.00105393
2.38996e-05
2.78246e-05
8.55983e-06
1.63749e-05
0.000387193
0.000151594
0.0025385
0.000202737
0.0017791
1.13195e-06
2.18643e-07
7.758e-06
0.000377033
1.4293e-06
2.56985e-06
3.87477e-06
5.88683e-07
2.34252e-06
0.000775054
5.21634e-05
0.000475348
9.93894e-06
3.0208e-05
0.000126037
6.85541e-08
1.66619e-08
4.54311e-07
1.03231e-07
1.53479e-07
4.5156e-07
4.39613e-08
3.17552e-07
5.32881e-06
2.70286e-05
6.66594e-07
3.81838e-06
1.1242e-05
8.93822e-05
0.000216144
5.84415e-06
1.90339e-08
1.70843e-05
1.51301e-06
1.11424e-07
2.60425e-05
1.94937e-06
6.57683e-06
1.21845e-05
2.80857e-05
6.23704e-06
1.19387e-05
2.03766e-06
1.43687e-06
2.03419e-05
3.81673e-06
7.80253e-06
4.65476e-06
8.47847e-06
1.212e-06
0.000107317
3.57653e-05
0.000460867
0.000191602
3.40829e-05
0.000445429
0.00011368
8.07748e-05
0.000136349
2.10974e-05
0.000285856
2.52885e-05
0.000323595
6.56082e-05
5.32236e-07
2.25402e-06
4.37492e-06
9.01116e-06
6.888e-07
1.68761e-06
3.88378e-06
2.4031e-07
3.94115e-06
5.27798e-07
1.3509e-06
7.75341e-07
1.61934e-06
1.72455e-07
3.12854e-05
1.27137e-05
0.000182947
6.74366e-05
4.12877e-05
9.91565e-06
0.000156133
1.42071e-05
2.90301e-05
2.7933e-06
3.78128e-05
4.46138e-06
7.02741e-05
6.8006e-06
8.08054e-05
0.00127364
0.000185806
0.00022964
0.000293272
0.000490335
3.81181e-05
4.50236e-08
1.98168e-07
4.65938e-07
8.95234e-07
6.53818e-08
1.32044e-07
3.82948e-07
1.61381e-08
2.79717e-07
3.3062e-08
9.62464e-08
4.66243e-08
1.20112e-07
1.15979e-08
1.64392e-06
1.05801e-06
1.70492e-05
6.1457e-06
3.01923e-06
7.03309e-07
1.02222e-05
9.44777e-06
7.11736e-05
0.000129632
0.000298081
1.83866e-05
4.66612e-05
6.29359e-05
6.7128e-07
1.88928e-06
1.65135e-07
2.2805e-06
2.51719e-07
3.94006e-06
3.53888e-07
2.35741e-09
1.14378e-08
2.97878e-08
3.52447e-08
4.01633e-09
4.88944e-09
2.23226e-08
1.03319e-09
1.30094e-08
5.31145e-09
8.29459e-09
2.12458e-09
8.44011e-09
2.02272e-09
8.32515e-08
5.75383e-08
9.02393e-07
2.03931e-07
1.46785e-07
2.42144e-08
5.66492e-07
4.22006e-08
8.30332e-08
2.87837e-08
1.72789e-07
1.06375e-08
2.34591e-07
1.38942e-07
9.01779e-05
0.00153208
1.11274e-05
5.67993e-05
0.000137511
0.000436903
2.03025e-05
1.29685e-06
1.01341e-06
5.56422e-07
6.65056e-06
1.63694e-07
2.54117e-06
2.09165e-06
2.3414e-08
4.64061e-08
5.7822e-07
2.59593e-06
2.42195e-06
1.20464e-06
1.86265e-07
6.44068e-08
9.29867e-09
1.5345e-07
2.26428e-08
3.43134e-07
1.11104e-07
7.66176e-06
4.36019e-07
4.32046e-07
8.41901e-07
3.19385e-06
2.64481e-06
2.96098e-06
4.72507e-06
0.00012982
1.65842e-06
5.27956e-05
2.05328e-07
1.15671e-05
1.70257e-08
1.60358e-06
9.80071e-08
9.20743e-07
6.388e-07
2.55663e-07
1.57844e-05
3.4515e-06
1.47477e-05
5.08735e-08
2.11148e-08
3.33806e-07
1.2567e-07
1.10711e-07
6.07397e-08
6.43772e-06
7.24831e-07
5.41766e-06
7.58155e-09
2.79397e-09
4.46453e-08
1.2602e-08
1.61526e-08
9.15315e-09
1.12387e-06
7.28614e-08
8.88322e-07
8.58563e-10
4.13274e-09
2.18279e-09
1.54338e-07
6.75209e-09
8.37172e-08
1.71276e-08
5.05679e-08
1.5847e-08
4.96366e-08
6.82485e-09
3.66752e-07
1.38854e-07
1.91256e-06
8.90461e-07
1.29628e-07
1.87039e-06
3.83196e-07
2.8011e-07
4.4168e-07
8.80391e-08
1.27238e-06
7.5961e-08
1.43168e-06
2.3366e-07
2.2992e-09
9.29867e-09
2.37342e-08
2.94094e-08
3.53612e-09
4.83124e-09
1.91503e-08
1.38243e-09
1.82772e-08
3.17232e-09
1.23109e-08
2.89583e-09
1.16561e-08
1.46974e-09
9.68867e-08
4.75557e-08
6.75995e-07
1.52533e-07
1.29454e-07
2.31812e-08
5.8522e-07
4.65225e-08
7.48405e-08
1.45228e-08
2.24987e-07
1.17434e-08
2.74362e-07
3.41097e-08
2.76486e-10
1.28057e-09
4.00178e-09
3.92902e-09
5.52973e-10
5.38421e-10
2.85218e-09
1.01863e-10
2.50293e-09
3.49246e-10
1.60071e-09
2.91038e-10
1.03319e-09
1.16415e-10
8.52742e-09
5.73345e-09
7.85076e-08
1.59926e-08
1.33587e-08
2.19734e-09
6.138e-08
3.0268e-09
7.47968e-09
1.39698e-09
2.01544e-08
1.10595e-09
1.88884e-08
2.6339e-09
0
8.73115e-11
4.94765e-10
4.94765e-10
0
0
1.45519e-10
5.09317e-10
4.94765e-10
6.33008e-09
1.81899e-09
9.8953e-10
1.45519e-10
4.40923e-09
0
0
5.09317e-10
1.4028e-08
3.50206e-07
7.79331e-06
0.000160161
0
0
0
7.13044e-10
1.83354e-08
3.91054e-07
7.36718e-06
0
0
0
0
7.567e-10
1.66183e-08
3.02709e-07
0
0
0
0
0
5.38421e-10
1.10449e-08
0
0
0
0
2.00816e-09
4.58822e-08
9.53209e-07
0
0
0
0
1.16415e-10
4.39468e-09
8.76898e-08
0
0
0
0
0
2.19734e-09
4.34084e-08
0
0
0
0
0
1.45519e-10
4.05998e-09
0
0
0
0
0
0
1.64437e-09
0
0
0
0
0
0
1.01863e-10
0
2.03727e-10
7.79983e-09
1.5751e-07
0.112425
0.00186705
0.000103701
4.48378e-06
1.69137e-07
0.0232581
0.000684878
3.21411e-05
1.41992e-06
5.65051e-08
0.00107875
8.54687e-05
4.56421e-06
2.06041e-07
7.88714e-09
0.000142326
9.45425e-06
4.77623e-07
2.05182e-08
6.98492e-10
1.43802e-05
7.86182e-07
3.56813e-08
1.42609e-09
0
2.03814e-06
8.93633e-08
3.40515e-09
5.82077e-11
0
2.74273e-06
1.38229e-07
6.00994e-09
1.74623e-10
0
0
2.19047e-06
1.39888e-07
7.2032e-09
2.61934e-10
0
0
0
9.48348e-08
6.1118e-09
2.61934e-10
0
0
0
0
3.56522e-09
1.60071e-10
0
0
0
0
0
0
0
0
0
0
1.41154e-09
4.40486e-08
1.21954e-06
3.31146e-05
0.000916315
0
0
0
4.36557e-11
3.79805e-09
1.08543e-07
2.95369e-06
8.03346e-05
0
0
0
0
2.03727e-10
6.95582e-09
1.80793e-07
4.50786e-06
0
0
0
0
0
3.0559e-10
9.26957e-09
2.13142e-07
0
0
0
0
0
0
3.20142e-10
8.73115e-09
0
0
0
0
0
4.80213e-10
1.54687e-08
4.21496e-07
1.06073e-05
0.000332834
0
0
0
0
1.30967e-09
3.70492e-08
9.56701e-07
2.53029e-05
0
0
0
0
0
2.37196e-09
6.07688e-08
1.43446e-06
0
0
0
0
0
5.82077e-11
3.17232e-09
7.12753e-08
0
0
0
0
0
0
8.73115e-11
2.96859e-09
0
0
0
0
0
0
0
0
0
0
0
2.25555e-09
6.83794e-08
1.75578e-06
4.64074e-05
0
0
0
0
1.16415e-10
5.42786e-09
1.4613e-07
3.7148e-06
0
0
0
0
0
2.76486e-10
8.80391e-09
2.11774e-07
0
0
0
0
0
0
3.7835e-10
1.00554e-08
0
0
0
0
0
0
0
3.34694e-10
0
0
0
0
0
0
0
0
0
0
0
0
0
0
0
1.89175e-10
7.5961e-09
2.1774e-07
5.90718e-06
0
0
0
0
0
5.38421e-10
1.61672e-08
4.12634e-07
0
0
0
0
0
0
8.73115e-10
2.21917e-08
0
0
0
0
0
0
0
9.31323e-10
0
0
0
0
0
0
0
0
0
0
0
0
0
0
0
0
0
0
0
0
0
0
4.36557e-11
4.78758e-09
1.73255e-07
0
0
0
0
0
6.69388e-10
2.13477e-08
5.42073e-07
0
0
0
0
0
0
1.26602e-09
3.26836e-08
0
0
0
0
0
0
0
1.57161e-09
0
0
0
0
0
0
0
0
0
0
0
0
0
0
0
0
0
0
1.38243e-09
2.95113e-08
0
0
0
0
0
0
0
0
1.45519e-10
8.36735e-09
3.87809e-07
0
0
0
0
0
1.17871e-09
4.3583e-08
0
0
0
0
0
0
2.47383e-09
7.37637e-08
0
0
0
0
0
0
4.36557e-11
3.4197e-09
0
0
0
0
0
0
0
1.01863e-10
0
0
0
0
0
0
0
0
0
0
0
0
0
0
0
0
0
0
0
1.22236e-09
3.18396e-08
7.46004e-07
0
0
0
0
1.71713e-09
4.15748e-08
9.89152e-07
0
0
0
0
1.45519e-11
2.67755e-09
7.36618e-08
0
0
0
0
0
1.01863e-10
4.36557e-09
1.12588e-07
0
0
0
0
0
0
1.60071e-10
5.80621e-09
0
0
0
0
0
0
0
2.03727e-10
0
0
0
0
0
0
0
0
0
0
0
0
0
0
0
0
0
0
0
0
0
0
0
0
0
0
0
0
0
2.03727e-10
5.45697e-09
1.12137e-07
0
0
0
0
0
0
2.61934e-10
6.8394e-09
0
0
0
0
0
0
0
3.0559e-10
0
0
0
0
0
0
0
0
0
0
0
0
0
0
0
0
0
0
0
0
0
0
0
0
0
0
0
0
0
0
0
0
0
0
0
0
0
0
2.32831e-10
5.3551e-09
0
0
0
0
0
0
0
2.61934e-10
0
0
0
0
0
0
0
0
0
0
0
0
0
0
0
0
0
0
0
0
0
0
0
0
0
0
0
0
0
0
0
0
0
0
0
0
0
0
0
0
0
0
0
0
0
0
0
1.45519e-10
0
0
0
0
0
0
0
0
0
0
0
0
0
0
0
0
0
0
0
0
0
0
0
0
0
0
0
0
0
0
0
0
0
0
0
0
0
0
0
0
0
0
0
0
0
0
0
0
0
0
0
0
0
0
0
0
0
0
0
0
0
0
0
0
0
0
0
0
0
0
0
0
0
0
0
0
0
0
0
0
0
0
0
0
1.45519e-11
2.47383e-09
1.08848e-08
1.16415e-10
8.58563e-10
0
0
0
0
0
0
0
0
0
0
0
0
0
0
0
0
0
0
0
0
0
0
0
0
0
1.22236e-09
3.34694e-10
8.73115e-10
6.25732e-10
0
0
0
0
0
0
0
0
0
0
0
0
0
0
0
0
0
0
0
0
0
0
0
0
0
0
0
0
0
0
0
0
0
0
0
0
0
0
0
0
0
0
0
0
0
0
0
0
0
0
0
0
0
0
0
0
0
0
0
0
0
0
0
0
0
0
0
0
0
0
0
0
0
0
0
0
0
0
0
0
0
0
0
0
1.01863e-10
0
0
0
4.36557e-11
0
0
3.92902e-10
6.25732e-10
0
1.45519e-10
1.74623e-10
1.07684e-09
0
0
0
0
0
0
0
0
3.31784e-09
4.904e-09
2.02272e-09
8.16362e-09
0
0
0
0
0
0
0
0
0
0
0
0
1.01863e-10
0
0
0
0
0
0
0
0
0
0
0
0
0
0
0
0
0
0
0
0
0
0
0
0
0
0
0
0
0
0
0
0
0
0
0
0
0
0
0
0
0
0
0
0
0
0
0
0
0
0
0
0
0
0
0
0
0
0
0
0
0
0
0
0
0
0
0
0
0
0
0
0
0
0
0
0
0
0
0
0
0
0
0
0
0
0
0
8.58563e-10
2.03727e-10
4.36557e-10
0
0
0
0
1.46101e-08
5.15138e-09
1.55269e-08
8.00355e-10
2.2701e-09
3.20142e-10
1.26602e-09
0
0
0
0
0
0
0
1.01863e-10
0
0
0
0
0
0
0
0
0
0
0
0
0
0
0
0
0
0
0
0
0
0
0
0
0
0
0
0
0
0
0
0
0
0
0
0
0
0
0
0
0
0
0
0
0
0
0
0
0
0
0
0
0
0
0
0
0
0
0
0
0
0
0
0
0
0
0
0
0
0
0
0
0
0
0
0
0
0
0
0
0
0
0
0
0
0
0
0
0
0
0
0
0
0
0
0
0
0
1.04774e-09
4.6246e-08
5.82077e-09
1.80677e-07
4.99077e-06
0
3.7835e-10
1.67347e-08
2.05182e-09
6.89033e-08
2.04257e-06
0
0
2.54659e-09
1.0943e-08
3.52811e-07
2.61934e-10
5.03496e-08
1.46974e-09
8.4241e-08
2.61934e-10
2.6339e-09
1.17197e-05
1.56142e-08
8.42425e-07
0
0
0
0
0
0
1.45519e-11
1.57161e-09
1.01863e-10
1.46974e-09
5.28235e-09
1.38913e-07
7.14499e-09
0
0
1.01863e-10
3.34694e-10
1.1496e-09
0
5.82077e-11
2.47383e-10
1.06229e-09
5.92263e-09
1.44501e-08
4.28699e-08
8.00355e-10
5.12227e-09
1.18744e-08
3.80242e-08
3.44997e-07
4.64337e-07
1.47747e-06
3.48373e-08
3.93469e-07
1.383e-06
0
0
0
0
0
0
6.54836e-10
0
1.74623e-10
2.21189e-09
1.42609e-09
0
0
1.01863e-10
4.07454e-10
0
0
0
1.89175e-10
2.40107e-09
6.03904e-09
1.64873e-08
1.01863e-10
9.16771e-10
2.45927e-09
9.80799e-09
1.96931e-07
5.76169e-07
7.71252e-09
9.629e-08
4.79791e-07
0
0
0
1.45519e-11
0
0
3.20142e-10
1.30967e-10
0
0
0
3.20142e-10
8.73115e-10
2.53203e-09
0
4.36557e-11
7.27596e-10
1.33878e-09
3.19269e-08
9.86038e-08
1.09139e-09
1.28784e-08
7.33417e-08
0
0
0
0
2.47383e-10
1.52795e-09
0
2.32831e-10
0
1.89175e-10
4.1473e-09
1.31549e-08
1.60071e-10
1.13505e-09
3.71074e-09
9.64792e-09
7.82893e-09
1.24681e-07
4.38013e-09
3.26254e-07
2.58442e-08
1.01718e-08
1.80255e-07
2.15835e-06
1.6838e-07
1.10081e-06
2.61061e-08
0
1.16415e-10
1.22236e-08
8.54925e-08
8.14907e-10
6.46105e-09
6.54836e-10
9.84466e-07
7.86531e-08
1.19675e-06
4.56319e-07
7.47677e-07
7.85702e-07
5.09317e-10
0
1.81899e-09
4.36557e-11
2.21189e-09
3.43425e-09
1.74623e-10
3.4488e-09
5.23869e-10
6.82485e-09
8.44011e-10
2.04949e-07
2.3593e-07
1.3315e-08
1.95578e-07
3.92465e-08
4.81741e-07
5.6345e-08
0
0
0
0
0
0
0
0
0
0
0
0
0
0
0
0
0
0
0
0
0
0
0
0
0
0
0
0
0
0
0
0
0
0
0
0
0
0
0
0
0
0
0
0
8.73115e-11
0
0
0
0
0
1.45519e-10
6.8394e-10
1.07684e-09
5.82077e-11
4.22006e-10
0
0
0
0
1.01863e-10
0
0
0
0
9.02219e-10
1.60071e-10
3.92902e-10
1.01863e-10
3.20142e-10
0
1.17871e-09
5.23869e-10
1.09139e-08
3.34694e-09
3.92902e-10
8.04721e-09
1.45519e-09
5.36966e-09
2.56841e-08
3.58705e-08
1.21581e-07
2.257e-08
3.07336e-08
6.06815e-09
1.38243e-09
3.25963e-09
8.29459e-10
1.1074e-08
4.80213e-10
8.64384e-09
1.61526e-09
0
0
0
0
0
0
0
0
0
0
0
0
0
0
0
0
0
0
0
0
0
0
0
0
0
0
0
0
0
0
0
0
0
0
0
0
0
0
0
0
0
0
0
4.36557e-11
2.03727e-10
3.49246e-10
0
0
1.01863e-10
0
0
0
0
0
0
0
0
1.16415e-10
0
0
0
0
0
4.80213e-10
2.76486e-10
4.35102e-09
1.1496e-09
7.42148e-10
1.01863e-10
3.36149e-09
2.61934e-10
6.54836e-10
1.01863e-10
2.43017e-09
4.36557e-11
1.94996e-09
2.47383e-10
0
0
0
0
0
0
0
0
0
0
0
0
0
0
0
0
0
0
0
0
0
0
0
0
0
0
0
0
0
0
0
0
0
0
0
0
0
0
0
0
0
0
0
0
7.27596e-10
1.16415e-10
5.82077e-11
0
4.51109e-10
0
1.45519e-11
0
2.47383e-10
0
1.89175e-10
0
0
0
0
0
0
0
0
0
0
0
0
0
0
0
0
0
1.45519e-11
0
0
0
0
0
0
0
0
0
0
0
0
1.89175e-10
0
0
0
0
0
2.03727e-10
1.25146e-09
2.18279e-10
1.92085e-09
1.01863e-10
1.49885e-09
4.94765e-10
1.76369e-08
3.00206e-08
1.77533e-09
7.88714e-09
1.22091e-08
3.97995e-08
3.87081e-09
1.84416e-07
6.59784e-08
2.17697e-08
1.97761e-08
1.25292e-07
1.04395e-07
4.40632e-08
5.46977e-07
1.26254e-06
6.23259e-08
3.24158e-07
3.84127e-07
1.58335e-06
1.16648e-07
5.74801e-09
9.85165e-09
4.49654e-09
4.96511e-08
1.64437e-09
2.16241e-08
1.58761e-08
1.29236e-07
2.13317e-07
8.5478e-08
2.83879e-07
1.45519e-10
1.45519e-11
1.10595e-09
0
5.09317e-10
2.76486e-10
1.16415e-10
3.90496e-06
8.51869e-05
2.47383e-10
0
1.44064e-09
0
0
5.42423e-07
2.80852e-09
0
0
0
0
0
0
0
0
0
0
5.82077e-11
0
0
1.89175e-10
7.03731e-08
5.77711e-09
3.7413e-08
1.35187e-08
2.19006e-08
2.32249e-08
0
3.34694e-10
0
0
0
0
0
0
0
0
0
0
0
0
0
0
0
0
0
0
0
0
0
0
0
0
0
0
0
0
0
0
0
0
0
0
0
0
5.64614e-09
1.89175e-09
5.09317e-10
5.52973e-10
3.59432e-09
3.23053e-09
1.38243e-09
0
0
1.45519e-11
0
1.16415e-10
0
0
2.61934e-10
4.07454e-10
0
1.74623e-10
1.16415e-09
1.35333e-09
1.22236e-09
1.59052e-08
2.07947e-08
1.66765e-08
1.61e-05
2.91446e-06
5.21415e-06
2.17973e-07
2.858e-07
1.26753e-06
9.5756e-07
2.28465e-09
1.45519e-09