/*--------------------------------*- C++ -*----------------------------------*\
  =========                 |
  \\      /  F ield         | OpenFOAM: The Open Source CFD Toolbox
   \\    /   O peration     | Website:  https://openfoam.org
    \\  /    A nd           | Version:  9
     \\/     M anipulation  |
\*---------------------------------------------------------------------------*/
FoamFile
{
    format      ascii;
    class       volScalarField;
    location    "0.0024";
    object      rho.c4;
}
// * * * * * * * * * * * * * * * * * * * * * * * * * * * * * * * * * * * * * //

dimensions      [1 -3 0 0 0 0 0];

internalField   nonuniform List<scalar> 
19646
(
2.22045e-16
2.22045e-16
2.22045e-16
2.22045e-16
2.22045e-16
2.22045e-16
6.85683e-10
2.22045e-16
2.22045e-16
2.22045e-16
2.22045e-16
2.22045e-16
2.22045e-16
2.22045e-16
2.22045e-16
2.22045e-16
2.22045e-16
2.22045e-16
2.22045e-16
2.22045e-16
2.22045e-16
2.22045e-16
2.22045e-16
2.22045e-16
2.22045e-16
2.22045e-16
2.22045e-16
2.22045e-16
2.22045e-16
2.22045e-16
2.22045e-16
2.22045e-16
2.22045e-16
2.22045e-16
2.22045e-16
1.41849e-09
2.22045e-16
2.22045e-16
2.22045e-16
7.17599e-05
41.2898
5.16256e-06
5.24476e-11
2.22045e-16
2.22045e-16
10.3328
54.0723
0.00748938
1.07722e-13
2.22045e-16
2.86124e-07
34.0582
10.4094
4.73375
6.17465e-10
38.9961
38.115
7.30028
3.75272
2.22045e-16
1.33591e-05
73.8942
56.6424
10.6414
2.22045e-16
2.22045e-16
2.22045e-16
2.22045e-16
2.22045e-16
2.22045e-16
2.22045e-16
2.22045e-16
2.22045e-16
2.22045e-16
2.22045e-16
2.22045e-16
2.22045e-16
2.22045e-16
2.22045e-16
2.22045e-16
2.22045e-16
2.22045e-16
2.22045e-16
2.22045e-16
2.22045e-16
2.22045e-16
2.22045e-16
2.22045e-16
2.22045e-16
2.22045e-16
2.22045e-16
2.22045e-16
2.22045e-16
2.22045e-16
2.22045e-16
2.22045e-16
2.22045e-16
2.22045e-16
2.22045e-16
1.77395e-11
2.22045e-16
2.22045e-16
2.22045e-16
2.22045e-16
2.22045e-16
2.22045e-16
2.22045e-16
1.36831e-11
3.71792e-09
2.22045e-16
2.22045e-16
2.22045e-16
2.22045e-16
2.22045e-16
2.22045e-16
5.01311e-11
1.14563e-08
1.13842
2.22045e-16
2.22045e-16
2.22045e-16
2.22045e-16
2.22045e-16
9.25938e-11
2.55081e-09
0.228571
7.77584
2.22045e-16
2.22045e-16
2.22045e-16
2.22045e-16
3.86689e-15
2.30683
56.0023
8.48842
4.23452
2.22045e-16
2.22045e-16
2.22045e-16
2.22045e-16
2.22045e-16
2.22045e-16
2.22045e-16
2.22045e-16
2.22045e-16
2.22045e-16
2.22045e-16
2.22045e-16
2.22045e-16
2.22045e-16
2.22045e-16
2.22045e-16
2.22045e-16
2.22045e-16
2.22045e-16
2.22045e-16
2.22045e-16
2.22045e-16
2.22045e-16
2.22045e-16
2.22045e-16
2.22045e-16
2.22045e-16
2.22045e-16
2.22045e-16
2.22045e-16
2.22045e-16
2.22045e-16
2.22045e-16
2.22045e-16
2.22045e-16
1.12917e-14
2.22045e-16
2.22045e-16
2.22045e-16
2.22045e-16
2.22045e-16
2.22045e-16
2.22045e-16
3.76486e-13
6.85898e-12
2.22045e-16
2.22045e-16
2.22045e-16
2.22045e-16
2.22045e-16
2.22045e-16
2.74813e-13
3.07026e-11
0.000994815
2.22045e-16
2.22045e-16
2.22045e-16
2.22045e-16
2.22045e-16
2.22045e-16
3.53129e-11
0.000178641
10.9898
2.22045e-16
2.22045e-16
2.22045e-16
2.22045e-16
2.22045e-16
0.000258432
80.1107
12.8583
7.48829
2.22045e-16
2.22045e-16
2.22045e-16
2.22045e-16
2.22045e-16
2.22045e-16
2.22045e-16
2.22045e-16
2.22045e-16
2.22045e-16
2.22045e-16
2.22045e-16
2.22045e-16
2.22045e-16
2.22045e-16
2.22045e-16
2.22045e-16
2.22045e-16
2.22045e-16
2.22045e-16
2.22045e-16
2.22045e-16
2.22045e-16
2.22045e-16
2.22045e-16
2.22045e-16
2.22045e-16
2.22045e-16
2.22045e-16
2.22045e-16
2.22045e-16
2.22045e-16
2.22045e-16
2.22045e-16
2.22045e-16
2.22045e-16
2.22045e-16
2.22045e-16
2.22045e-16
2.22045e-16
2.22045e-16
2.22045e-16
2.22045e-16
2.22045e-16
8.41229e-14
2.22045e-16
2.22045e-16
2.22045e-16
2.22045e-16
2.22045e-16
2.22045e-16
2.22045e-16
3.41792e-14
1.21956e-09
2.22045e-16
2.22045e-16
2.22045e-16
2.22045e-16
2.22045e-16
2.22045e-16
4.01103e-13
5.44225e-10
3.57368
2.22045e-16
2.22045e-16
2.22045e-16
2.22045e-16
2.22045e-16
8.73835e-15
1.80532e-11
0.000541603
88.7797
2.22045e-16
2.22045e-16
2.22045e-16
2.22045e-16
2.22045e-16
2.22045e-16
2.22045e-16
2.22045e-16
2.22045e-16
2.22045e-16
2.22045e-16
2.22045e-16
2.22045e-16
2.22045e-16
2.22045e-16
2.22045e-16
2.22045e-16
2.22045e-16
2.22045e-16
2.22045e-16
2.22045e-16
2.22045e-16
2.22045e-16
2.22045e-16
2.22045e-16
2.22045e-16
2.22045e-16
2.22045e-16
2.22045e-16
2.22045e-16
2.22045e-16
2.22045e-16
2.22045e-16
2.22045e-16
2.22045e-16
2.22045e-16
2.22045e-16
2.22045e-16
2.22045e-16
2.22045e-16
2.22045e-16
2.22045e-16
2.22045e-16
2.22045e-16
2.22045e-16
2.22045e-16
2.22045e-16
2.22045e-16
2.22045e-16
2.22045e-16
2.22045e-16
2.22045e-16
2.22045e-16
1.25554e-13
2.22045e-16
2.22045e-16
2.22045e-16
2.22045e-16
2.22045e-16
2.22045e-16
2.22045e-16
1.26144e-14
6.85898e-09
2.22045e-16
2.22045e-16
2.22045e-16
2.22045e-16
2.22045e-16
2.22045e-16
3.42446e-14
7.14702e-12
198.433
2.22045e-16
2.22045e-16
2.22045e-16
2.22045e-16
2.22045e-16
2.22045e-16
2.22045e-16
2.22045e-16
2.22045e-16
2.22045e-16
2.22045e-16
2.22045e-16
2.22045e-16
2.22045e-16
2.22045e-16
2.22045e-16
2.22045e-16
2.22045e-16
2.22045e-16
2.22045e-16
2.22045e-16
2.22045e-16
2.22045e-16
2.22045e-16
2.22045e-16
2.22045e-16
2.22045e-16
2.22045e-16
2.22045e-16
2.22045e-16
2.22045e-16
2.22045e-16
2.22045e-16
2.22045e-16
2.22045e-16
2.22045e-16
2.22045e-16
2.22045e-16
2.22045e-16
2.22045e-16
2.22045e-16
2.22045e-16
2.22045e-16
2.22045e-16
2.22045e-16
2.22045e-16
2.22045e-16
2.22045e-16
2.22045e-16
2.22045e-16
2.22045e-16
2.22045e-16
2.22045e-16
2.22045e-16
2.22045e-16
2.22045e-16
2.22045e-16
2.22045e-16
2.22045e-16
2.22045e-16
2.22045e-16
2.22045e-16
8.06505e-14
2.22045e-16
2.22045e-16
2.22045e-16
2.22045e-16
2.22045e-16
2.22045e-16
2.22045e-16
3.10845e-14
88.1512
2.22045e-16
2.22045e-16
2.22045e-16
2.22045e-16
2.22045e-16
2.22045e-16
2.22045e-16
2.22045e-16
2.22045e-16
2.22045e-16
2.22045e-16
2.22045e-16
2.22045e-16
2.22045e-16
2.22045e-16
2.22045e-16
2.22045e-16
2.22045e-16
2.22045e-16
2.22045e-16
2.22045e-16
2.22045e-16
2.22045e-16
2.22045e-16
2.22045e-16
2.22045e-16
2.22045e-16
2.22045e-16
2.22045e-16
2.22045e-16
2.22045e-16
2.22045e-16
2.22045e-16
2.22045e-16
2.22045e-16
2.22045e-16
2.22045e-16
2.22045e-16
2.22045e-16
2.22045e-16
2.22045e-16
2.22045e-16
2.22045e-16
2.22045e-16
2.22045e-16
2.22045e-16
2.22045e-16
2.22045e-16
2.22045e-16
2.22045e-16
2.22045e-16
2.22045e-16
2.22045e-16
2.22045e-16
2.22045e-16
2.22045e-16
2.22045e-16
2.22045e-16
2.22045e-16
2.22045e-16
2.22045e-16
2.22045e-16
2.22045e-16
2.22045e-16
2.22045e-16
2.22045e-16
2.22045e-16
2.22045e-16
2.22045e-16
1.09964e-10
2.22045e-16
2.22045e-16
2.22045e-16
2.22045e-16
2.22045e-16
2.22045e-16
2.22045e-16
2.22045e-16
3.94405e-11
88.6213
2.22045e-16
2.22045e-16
2.22045e-16
2.22045e-16
2.22045e-16
2.22045e-16
2.22045e-16
2.22045e-16
2.22045e-16
2.22045e-16
2.22045e-16
2.22045e-16
2.22045e-16
2.22045e-16
2.22045e-16
2.22045e-16
2.22045e-16
2.22045e-16
2.22045e-16
2.22045e-16
2.22045e-16
2.22045e-16
2.22045e-16
2.22045e-16
2.22045e-16
2.22045e-16
2.22045e-16
2.22045e-16
2.22045e-16
2.22045e-16
2.22045e-16
2.22045e-16
2.22045e-16
2.22045e-16
2.22045e-16
2.22045e-16
2.22045e-16
2.22045e-16
2.22045e-16
2.22045e-16
2.22045e-16
2.22045e-16
2.22045e-16
2.22045e-16
2.22045e-16
2.22045e-16
2.22045e-16
2.22045e-16
2.22045e-16
2.22045e-16
2.22045e-16
2.22045e-16
2.22045e-16
2.22045e-16
2.22045e-16
2.22045e-16
2.22045e-16
2.22045e-16
2.22045e-16
2.22045e-16
2.22045e-16
2.22045e-16
2.22045e-16
2.22045e-16
2.22045e-16
2.22045e-16
2.22045e-16
2.22045e-16
2.22045e-16
2.22045e-16
2.22045e-16
2.22045e-16
2.22045e-16
2.22045e-16
2.22045e-16
2.22045e-16
2.22045e-16
2.22045e-16
2.22045e-16
5.30235e-14
2.22045e-16
2.22045e-16
2.22045e-16
2.22045e-16
2.22045e-16
2.22045e-16
2.22045e-16
2.22045e-16
2.22045e-16
2.22045e-16
2.22045e-16
2.22045e-16
2.22045e-16
2.22045e-16
2.22045e-16
2.22045e-16
2.22045e-16
2.22045e-16
2.22045e-16
2.22045e-16
2.22045e-16
2.22045e-16
2.22045e-16
2.22045e-16
2.22045e-16
2.22045e-16
2.22045e-16
2.22045e-16
2.22045e-16
2.22045e-16
2.22045e-16
2.22045e-16
2.22045e-16
2.22045e-16
2.22045e-16
2.22045e-16
2.22045e-16
2.22045e-16
2.22045e-16
2.22045e-16
2.22045e-16
2.22045e-16
2.22045e-16
2.22045e-16
2.22045e-16
2.22045e-16
2.22045e-16
2.22045e-16
2.22045e-16
2.22045e-16
2.22045e-16
2.22045e-16
2.22045e-16
2.22045e-16
2.22045e-16
2.22045e-16
2.22045e-16
2.22045e-16
2.22045e-16
2.22045e-16
2.22045e-16
2.22045e-16
2.22045e-16
2.22045e-16
2.22045e-16
2.22045e-16
2.22045e-16
2.22045e-16
2.22045e-16
2.22045e-16
2.22045e-16
2.22045e-16
2.22045e-16
2.22045e-16
2.22045e-16
2.22045e-16
2.22045e-16
2.22045e-16
2.22045e-16
2.22045e-16
2.22045e-16
2.22045e-16
2.22045e-16
2.22045e-16
2.22045e-16
2.22045e-16
2.22045e-16
2.22045e-16
2.22045e-16
2.22045e-16
2.22045e-16
2.22045e-16
2.22045e-16
2.22045e-16
2.22045e-16
2.22045e-16
2.22045e-16
2.22045e-16
2.22045e-16
2.22045e-16
2.22045e-16
2.22045e-16
2.22045e-16
2.22045e-16
2.22045e-16
2.22045e-16
2.22045e-16
2.22045e-16
2.22045e-16
2.22045e-16
2.22045e-16
2.22045e-16
2.22045e-16
2.22045e-16
2.22045e-16
2.22045e-16
2.22045e-16
2.22045e-16
2.22045e-16
2.22045e-16
2.22045e-16
2.22045e-16
2.22045e-16
2.22045e-16
2.22045e-16
2.22045e-16
2.22045e-16
2.22045e-16
2.22045e-16
2.22045e-16
2.22045e-16
2.22045e-16
2.22045e-16
2.22045e-16
2.22045e-16
2.22045e-16
2.22045e-16
2.22045e-16
2.22045e-16
2.22045e-16
2.22045e-16
2.22045e-16
2.22045e-16
2.22045e-16
2.22045e-16
2.22045e-16
2.22045e-16
2.22045e-16
2.22045e-16
2.22045e-16
2.22045e-16
2.22045e-16
2.22045e-16
2.22045e-16
2.22045e-16
2.22045e-16
2.22045e-16
2.22045e-16
2.22045e-16
2.22045e-16
2.22045e-16
2.22045e-16
2.22045e-16
2.22045e-16
2.22045e-16
2.22045e-16
2.22045e-16
2.22045e-16
2.22045e-16
2.22045e-16
2.22045e-16
2.22045e-16
2.22045e-16
2.22045e-16
2.22045e-16
2.22045e-16
2.22045e-16
2.22045e-16
2.22045e-16
2.22045e-16
2.22045e-16
2.22045e-16
2.22045e-16
2.22045e-16
2.22045e-16
2.22045e-16
2.22045e-16
2.22045e-16
2.22045e-16
2.22045e-16
2.22045e-16
2.22045e-16
2.22045e-16
2.22045e-16
2.22045e-16
2.22045e-16
2.22045e-16
2.22045e-16
2.22045e-16
2.22045e-16
2.22045e-16
2.22045e-16
2.22045e-16
2.22045e-16
2.22045e-16
2.22045e-16
2.22045e-16
2.22045e-16
2.22045e-16
2.22045e-16
2.22045e-16
2.22045e-16
2.22045e-16
2.22045e-16
2.22045e-16
2.22045e-16
2.22045e-16
2.22045e-16
2.22045e-16
2.22045e-16
2.22045e-16
2.22045e-16
2.22045e-16
2.22045e-16
2.22045e-16
2.22045e-16
2.22045e-16
2.22045e-16
2.22045e-16
2.22045e-16
2.22045e-16
2.22045e-16
2.22045e-16
2.22045e-16
2.22045e-16
2.22045e-16
2.22045e-16
2.22045e-16
2.22045e-16
2.22045e-16
5.66146e-15
2.22045e-16
2.22045e-16
2.22045e-16
2.22045e-16
5.5621e-13
3.03099e-07
46.6677
44.7867
2.22045e-16
2.22045e-16
2.22045e-16
2.22045e-16
4.29905e-09
36.6843
37.6915
7.03259
3.74164
2.22045e-16
2.22045e-16
2.22045e-16
4.00196e-13
1.98396e-08
0.583331
44.9034
2.97557
2.22045e-16
2.22045e-16
2.22045e-16
5.26904e-09
1.8576e-05
43.1106
16.0209
2.70506
2.22045e-16
2.22045e-16
7.98581e-14
1.85532e-06
34.9815
14.1977
3.48768
2.22045e-16
2.22045e-16
2.22045e-16
2.22045e-16
2.22045e-16
2.22045e-16
4.53626e-11
0.105331
65.0184
10.1388
5.39002
2.22045e-16
2.22045e-16
2.22045e-16
2.22045e-16
5.17261e-10
0.000548577
59.1683
4.26059
2.22045e-16
2.22045e-16
2.22045e-16
4.67629e-13
9.38255e-08
15.7232
29.7414
3.91248
2.22045e-16
2.22045e-16
2.22045e-16
1.23481e-10
0.0151119
61.3594
11.1571
4.28102
2.22045e-16
2.22045e-16
2.22045e-16
2.22045e-16
2.22045e-16
2.22045e-16
2.22045e-16
7.64403e-12
5.40678e-09
143.462
226.755
2.22045e-16
2.22045e-16
2.22045e-16
2.22045e-16
1.26025e-13
2.94331e-09
21.9034
52.7292
2.22045e-16
2.22045e-16
2.22045e-16
2.22045e-16
2.03677e-10
0.000739016
95.8532
9.25015
2.22045e-16
2.22045e-16
2.22045e-16
8.15967e-16
4.98782e-09
15.2212
56.7905
6.58726
2.22045e-16
2.22045e-16
2.22045e-16
2.22045e-16
2.22045e-16
2.22045e-16
2.22045e-16
2.22045e-16
2.21372e-12
200.323
174.948
2.22045e-16
2.22045e-16
2.22045e-16
2.22045e-16
2.22045e-16
5.36785e-12
2.36228e-07
75.5368
27.0928
2.22045e-16
2.22045e-16
2.22045e-16
2.22045e-16
3.41729e-15
4.95964e-09
0.00120459
36.0717
2.22045e-16
2.22045e-16
2.22045e-16
2.22045e-16
1.07913e-14
0.0440198
60.6294
9.40384
2.22045e-16
2.22045e-16
2.22045e-16
2.22045e-16
2.22045e-16
2.22045e-16
2.22045e-16
2.22045e-16
6.31249e-16
2.22892e-10
151.464
2.22045e-16
2.22045e-16
2.22045e-16
2.22045e-16
2.22045e-16
2.22045e-16
4.76951e-10
0.0168004
126.058
2.22045e-16
2.22045e-16
2.22045e-16
2.22045e-16
2.22045e-16
2.96161e-14
1.30932e-08
0.781286
2.22045e-16
2.22045e-16
2.22045e-16
2.22045e-16
2.22045e-16
7.67967e-12
6.01005e-06
57.4954
2.22045e-16
2.22045e-16
2.22045e-16
2.22045e-16
2.22045e-16
2.0245e-11
11.1739
60.0334
2.22045e-16
2.22045e-16
2.22045e-16
2.22045e-16
2.22045e-16
2.22045e-16
2.22045e-16
8.33036e-15
1.88809e-06
151.7
2.22045e-16
2.22045e-16
2.22045e-16
2.22045e-16
2.22045e-16
2.22045e-16
3.05194e-16
3.30874e-10
60.8991
126.965
2.22045e-16
2.22045e-16
2.22045e-16
2.22045e-16
2.22045e-16
2.22045e-16
3.6528e-13
7.96058e-08
2.22045e-16
2.22045e-16
2.22045e-16
2.22045e-16
2.22045e-16
2.22045e-16
7.14273e-10
0.0014544
2.22045e-16
2.22045e-16
2.22045e-16
2.22045e-16
2.22045e-16
3.68778e-16
1.5253e-08
60.161
2.22045e-16
2.22045e-16
2.22045e-16
2.22045e-16
2.22045e-16
2.22045e-16
2.22045e-16
2.22045e-16
1.23728e-14
0.0664865
2.22045e-16
2.22045e-16
2.22045e-16
2.22045e-16
2.22045e-16
2.22045e-16
2.22045e-16
2.84451e-16
2.13589e-10
6.00659
2.22045e-16
2.22045e-16
2.22045e-16
2.22045e-16
2.22045e-16
2.22045e-16
2.22045e-16
4.05957e-12
2.22045e-16
2.22045e-16
2.22045e-16
2.22045e-16
2.22045e-16
2.22045e-16
4.19829e-16
2.13472e-08
2.22045e-16
2.22045e-16
2.22045e-16
2.22045e-16
2.22045e-16
2.22045e-16
2.36895e-15
8.25018e-08
2.22045e-16
2.22045e-16
2.22045e-16
2.22045e-16
2.22045e-16
2.22045e-16
2.22045e-16
2.22045e-16
2.22045e-16
2.22045e-16
2.22045e-16
2.22045e-16
2.22045e-16
2.22045e-16
2.22045e-16
2.22045e-16
2.22045e-16
2.22045e-16
2.22045e-16
6.72546e-11
2.22045e-16
2.22045e-16
2.22045e-16
2.22045e-16
2.22045e-16
2.22045e-16
2.22045e-16
2.22045e-16
2.22045e-16
2.22045e-16
2.22045e-16
2.22045e-16
2.22045e-16
2.22045e-16
2.22045e-16
3.22993e-16
2.22045e-16
2.22045e-16
2.22045e-16
2.22045e-16
2.22045e-16
2.22045e-16
2.22045e-16
1.71756e-15
2.22045e-16
2.22045e-16
2.22045e-16
2.22045e-16
2.22045e-16
2.22045e-16
2.22045e-16
2.22045e-16
2.22045e-16
2.22045e-16
2.22045e-16
2.22045e-16
2.22045e-16
2.22045e-16
2.22045e-16
2.22045e-16
2.22045e-16
2.22045e-16
2.22045e-16
2.22045e-16
2.22045e-16
2.22045e-16
2.22045e-16
2.22045e-16
2.22045e-16
2.22045e-16
2.22045e-16
2.22045e-16
2.22045e-16
2.22045e-16
2.22045e-16
2.22045e-16
2.22045e-16
2.22045e-16
2.22045e-16
2.22045e-16
2.22045e-16
2.22045e-16
2.22045e-16
2.22045e-16
2.22045e-16
2.22045e-16
2.22045e-16
2.22045e-16
2.22045e-16
2.22045e-16
2.22045e-16
2.22045e-16
2.22045e-16
2.22045e-16
2.22045e-16
2.22045e-16
2.22045e-16
2.22045e-16
2.22045e-16
2.22045e-16
2.22045e-16
2.22045e-16
2.22045e-16
2.22045e-16
2.22045e-16
2.22045e-16
2.22045e-16
2.22045e-16
2.22045e-16
2.22045e-16
2.22045e-16
2.22045e-16
2.22045e-16
2.22045e-16
2.22045e-16
2.22045e-16
2.22045e-16
2.22045e-16
2.22045e-16
2.22045e-16
2.22045e-16
2.22045e-16
2.22045e-16
2.22045e-16
2.22045e-16
2.22045e-16
2.22045e-16
2.22045e-16
2.22045e-16
2.22045e-16
2.22045e-16
2.22045e-16
14.1148
6.1947
84.2006
59.2656
14.4816
91.359
22.6691
52.7434
13.2777
40.2832
10.1023
6.69559e-09
80.4025
0.00109544
54.9472
60.8393
51.0371
9.9202e-14
4.98487e-07
5.19337e-11
0.00920666
2.90601e-10
0.594829
2.22045e-16
4.58963e-15
2.22045e-16
2.95313e-13
2.22045e-16
4.38601e-12
2.22045e-16
2.22045e-16
2.22045e-16
2.22045e-16
2.22045e-16
2.22045e-16
5.07746
3.32268
2.10428
2.64471
4.12892
3.25681
4.90353
3.82169
3.52323
10.2841
6.26578
6.14133
3.01943
16.6322
4.99571
3.03863
22.5075
7.66358
16.9169
5.02108
3.52673
5.93302
5.95976
2.96596
4.05844
4.07576
8.04213
3.76548
2.99205
4.55973
5.8386
6.94713
3.95608
2.56416
4.75725
3.34519
8.13464
3.80132
3.12346
3.47602
4.18016
4.1834
9.53284
3.62056
6.94747
4.05408
4.57545
8.69045
4.86001
5.46011
6.90678
61.9435
21.1435
27.5586
11.5653
3.97994
8.34726
3.74581
8.09259
4.57703
5.80138
4.45093
16.3743
10.5803
2.16324
2.26946
2.33151
2.46721
2.52308
2.70558
2.64689
4.62338
6.11316
19.5577
4.63619
6.02843
33.1174
11.4365
8.21009
12.111
21.2889
5.59579
4.03229
11.0364
8.61356
4.70277
6.11858
33.773
11.6453
9.45766
14.6001
45.6497
2.65423
2.91916
3.00826
2.9974
3.08234
3.46304
3.37813
5.78429
3.16328
3.37621
3.38834
8.44639
6.46756
3.17976
2.33588
2.83802
2.51109
2.98495
2.68234
2.8717
3.19407
3.06882
3.71619
3.03339
3.48029
3.66886
4.25479
4.3126
3.01929
3.45973
3.46177
3.65196
3.6512
4.23091
4.22897
2.50845
2.97062
2.52039
2.87288
2.87
3.43598
3.43839
2.53651
2.97278
2.51716
2.89636
2.87796
3.44154
3.4604
2.77244
2.46992
2.53473
2.92344
3.11408
3.17872
2.86213
8.56364
6.54906
3.21232
8.0035
3.5436
10.6102
3.77217
3.1038
3.47361
3.53597
3.67251
3.74903
4.24462
4.32206
2.8963
3.70486
3.24832
3.75478
3.31287
3.69523
4.1526
2.64171
3.03632
2.5739
2.93331
3.0011
3.50429
3.59092
10.3182
10.9974
7.11548
6.51967
40.8205
13.2941
19.7082
2.96144
3.06354
2.71948
3.09748
3.73556
3.36297
3.4428
3.25059
3.99282
3.69041
4.28127
3.93027
4.52273
4.92704
3.26736
2.75003
2.90397
3.26821
3.11027
3.7341
3.94477
5.19239
6.83886
8.13174
13.8665
6.51743
17.7823
6.96225
3.82985
3.30971
3.3979
3.88841
4.29168
4.38194
3.80193
8.40649
21.3971
28.587
8.53527
4.5594
10.9259
4.90713
3.04508
3.28382
3.35595
3.40842
3.47777
3.83212
3.75679
4.93512
9.11236
3.76855
21.7888
5.97551
12.1731
4.0145
2.84611
3.31269
2.89944
3.09828
3.48574
3.54659
3.04126
3.4552
4.03929
3.53674
3.95808
4.45227
4.54202
3.87343
3.10165
3.33726
4.065
3.47568
3.72956
4.224
4.56418
20.1502
60.5253
25.3991
29.5991
11.7421
43.7056
61.7101
58.1551
6.59444
25.0286
60.665
26.2574
9.1382
23.6296
10.2118
43.7901
20.9036
33.8439
25.0837
61.16
59.1443
19.7229
61.2636
24.7229
9.99394
19.6013
24.4611
60.3991
5.05652
4.43397
4.47007
5.54937
5.57548
4.91802
6.13062
3.68275
4.13629
3.56876
5.1298
4.24718
4.36524
5.29377
26.7505
14.2678
14.6282
28.6032
16.8092
118.203
56.3338
13.4572
78.1773
25.5108
54.3721
26.193
117.824
57.3021
61.0673
35.5775
26.7644
9.33162
12.2503
32.9888
24.2546
4.14721
5.01782
4.09645
5.14499
6.78913
5.21446
6.70085
3.36491
3.47514
3.05282
3.26287
4.1055
3.72414
3.60156
4.99475
4.07332
4.07524
5.11576
6.67389
5.11296
6.66793
3.49485
4.07665
3.5034
4.17092
5.05935
4.17913
5.04125
3.51661
4.05797
3.49796
4.1739
5.06218
5.04157
4.19353
4.07261
4.10394
3.63688
4.12783
5.15963
4.63535
4.61128
4.27432
4.21105
3.76231
4.1947
5.33314
4.79758
4.67623
3.23933
3.96612
3.55875
4.08146
3.67562
4.04733
4.49437
4.65622
4.50146
4.87199
5.2769
5.7812
5.62796
6.74363
4.36914
15.9874
10.3067
10.991
4.35924
45.4621
11.218
3.27414
3.75079
3.27387
3.96915
4.61401
3.97229
4.60857
3.60707
4.82424
4.42456
4.37825
4.02885
4.95996
5.41521
4.4892
46.2053
11.3916
14.287
4.87706
56.0322
13.4664
3.3404
3.56492
3.77218
4.20226
3.63275
3.83906
3.27845
4.0855
5.12819
4.1529
6.73765
5.13413
5.23851
6.94933
3.29558
3.7521
3.27918
3.97245
4.6227
4.60857
3.98941
3.33178
3.87236
3.39985
4.66414
4.0317
4.11735
4.75287
31.9235
9.46836
26.7388
9.26262
44.5313
28.2837
44.9466
4.67175
6.17204
4.60691
5.4835
8.0054
5.56537
7.8764
6.13797
4.58463
4.58325
5.45001
7.82657
7.82492
5.44802
4.9685
4.54766
3.88132
4.57098
6.07249
4.88111
5.59704
3.63763
4.13665
3.71405
4.25929
4.69403
4.7841
4.17699
9.69327
13.6471
28.2939
23.3272
9.11106
95.3423
23.1717
45.1165
37.086
12.1471
28.731
43.7681
57.1621
44.5829
4.6109
6.37965
4.71283
7.9118
5.47742
5.60515
8.19181
3.51894
4.23864
4.42092
4.46131
3.82815
4.03522
3.8902
3.99389
3.67929
3.51179
4.26197
5.16052
4.48196
4.91014
4.325
4.82515
4.92036
4.88517
4.98116
5.73443
5.63078
4.87828
6.7246
6.0954
6.07347
5.43971
6.77755
7.56549
62.253
25.2314
36.878
22.9966
17.3097
55.0647
30.6634
5.39705
4.69983
4.3332
5.51263
8.3932
6.0716
7.44122
4.45402
4.96508
5.94504
5.06508
5.0619
5.16267
4.36407
5.60679
7.96691
6.39393
9.02304
7.11173
8.4487
11.0299
5.55446
6.28774
5.0522
6.72907
5.29611
5.80113
7.54882
3.21779
3.16598
3.22013
3.776
3.71756
3.71528
3.77979
3.23288
3.16876
3.22212
3.77233
3.72093
3.78125
3.71223
9.82489
20.3932
5.59214
51.7059
12.8904
27.7067
6.89961
38.8012
31.9263
126.7
14.1321
8.02012
55.4277
15.4438
5.27259
4.66392
4.78937
5.7859
5.28048
5.94489
6.57583
7.32738
16.4795
5.23145
78.7401
25.1818
61.8744
15.1791
20.1779
81.3684
51.1707
57.9658
57.9332
32.3369
65.4031
6.81532
5.45627
4.96221
5.92934
10.0376
8.82731
6.58751
3.91289
4.65547
3.98739
4.42265
5.14282
5.23072
4.34085
4.37294
4.37177
3.93048
4.49563
5.6094
5.04552
4.99411
3.90716
4.80187
4.19562
5.51879
4.78447
5.1679
5.99389
4.65477
5.2847
5.23766
6.03738
6.00307
7.14806
7.20748
4.61907
5.2439
5.2284
6.02154
5.99934
7.13752
7.16238
4.97045
6.96089
6.18415
6.27313
5.50678
6.85347
7.81506
6.54564
9.67073
7.22531
9.72074
7.24909
8.01473
10.9009
3.26549
3.27617
3.32987
3.75683
3.81728
3.89735
3.83619
320.249
301.442
223.511
327.004
279.689
140.562
217.025
46.5436
90.3075
83.4569
44.773
136.546
92.4549
95.264
136.838
1.19844e-06
0.0366698
1.00315e-05
2.43772e-07
0.0739349
0.0933881
91.1316
0.0249305
0.0325662
53.0798
0.00205369
0.00141236
12.6609
4.58357e-09
5.69265
7.87248e-08
0.000152118
0.402509
0.00154514
4.62158e-07
4.95292e-10
1.84747e-13
3.43995e-15
6.84872e-14
1.96581e-13
6.22079e-07
1.01144e-07
8.57677e-16
2.22045e-16
2.22045e-16
6.44235e-13
2.22045e-16
2.22045e-16
2.22045e-16
2.22045e-16
2.22045e-16
2.22045e-16
2.22045e-16
2.22045e-16
128.477
200.423
85.9731
277.767
327.851
259.361
324.73
220.383
103.236
172.491
155.372
1.64486e-07
13.9079
0.0111916
383.444
0.00916937
0.0346572
38.3554
374.179
403.258
371.592
1.33706e-09
0.83942
1.4448e-13
2.22045e-16
96.3808
31.2192
0.0152263
0.00418159
10.4009
111.013
3.83391
278.681
332.946
277.945
34.4059
3.13012e-06
0.011228
1.70648e-11
2.62533e-11
7.6219e-05
2.22045e-16
2.25655e-09
2.22045e-16
0.00366894
1.49326e-09
1.59477e-06
3.37189e-07
2.95031e-06
20.0593
1.1435e-07
8.32137e-07
0.0221711
1.35628e-12
0.0604894
4.96963e-06
1.70126e-06
0.0773435
3.25806e-12
0.13036
369.394
50.7859
59.6204
1.25325e-06
2.80024e-11
2.22045e-16
2.22045e-16
2.22045e-16
1.01209e-14
2.22045e-16
2.22045e-16
2.22045e-16
5.01448e-07
2.22045e-16
2.22045e-16
2.22045e-16
44.6456
9.85035e-10
2.22045e-16
2.22045e-16
2.22045e-16
2.22045e-16
2.22045e-16
175.342
66.1703
1.94829e-05
83.7558
1.43333e-07
0.0333947
2.22045e-16
2.22045e-16
2.22045e-16
2.22045e-16
2.22045e-16
2.22045e-16
2.22045e-16
2.22045e-16
2.22045e-16
2.22045e-16
2.89112e-14
2.22045e-16
2.22045e-16
2.22045e-16
2.22045e-16
2.22045e-16
2.22045e-16
2.22045e-16
2.22045e-16
5.07086e-14
6.31279e-14
2.22045e-16
2.22045e-16
2.22045e-16
2.22045e-16
2.22045e-16
2.22045e-16
2.22045e-16
2.22045e-16
2.22045e-16
2.22045e-16
2.22045e-16
2.22045e-16
2.22045e-16
2.22045e-16
2.22045e-16
2.22045e-16
2.22045e-16
2.22045e-16
2.22045e-16
2.22045e-16
2.22045e-16
2.22045e-16
2.22045e-16
2.22045e-16
2.22045e-16
2.22045e-16
2.22045e-16
2.22045e-16
2.22045e-16
2.22045e-16
2.22045e-16
2.22045e-16
2.22045e-16
2.22045e-16
2.22045e-16
2.22045e-16
2.22045e-16
2.22045e-16
2.22045e-16
2.22045e-16
2.22045e-16
2.22045e-16
2.22045e-16
2.22045e-16
2.22045e-16
2.22045e-16
2.22045e-16
2.22045e-16
2.22045e-16
2.22045e-16
2.22045e-16
2.22045e-16
2.22045e-16
2.22045e-16
2.22045e-16
2.22045e-16
2.22045e-16
2.22045e-16
2.22045e-16
2.22045e-16
2.22045e-16
2.22045e-16
2.22045e-16
2.22045e-16
2.22045e-16
2.22045e-16
2.22045e-16
2.22045e-16
2.22045e-16
2.22045e-16
2.22045e-16
2.22045e-16
2.22045e-16
2.22045e-16
2.22045e-16
2.22045e-16
2.22045e-16
2.22045e-16
2.22045e-16
2.22045e-16
2.22045e-16
2.22045e-16
2.22045e-16
2.22045e-16
2.22045e-16
2.22045e-16
2.22045e-16
2.22045e-16
2.22045e-16
2.22045e-16
2.22045e-16
2.22045e-16
2.22045e-16
2.22045e-16
2.22045e-16
2.22045e-16
2.22045e-16
2.22045e-16
2.22045e-16
2.22045e-16
2.22045e-16
2.22045e-16
2.22045e-16
2.22045e-16
2.22045e-16
2.22045e-16
2.22045e-16
2.22045e-16
2.22045e-16
2.22045e-16
2.22045e-16
2.22045e-16
2.22045e-16
2.22045e-16
2.22045e-16
2.22045e-16
2.22045e-16
2.22045e-16
2.22045e-16
2.22045e-16
2.22045e-16
2.22045e-16
2.22045e-16
2.22045e-16
2.22045e-16
2.22045e-16
2.22045e-16
2.22045e-16
2.22045e-16
2.22045e-16
2.22045e-16
2.22045e-16
2.22045e-16
2.22045e-16
1.07575e-15
2.22045e-16
2.22045e-16
2.22045e-16
2.22045e-16
2.22045e-16
2.22045e-16
2.11636e-13
3.61871e-14
1.2567e-08
1.30664e-08
4.3065e-09
2.24335e-09
2.22045e-16
1.90317e-11
4.06068e-11
2.22045e-16
2.22045e-16
2.14968e-14
2.1276e-13
2.22045e-16
2.14968e-14
2.22045e-16
2.22045e-16
1.54931e-14
2.22045e-16
3.70154e-15
2.22045e-16
3.70154e-15
2.22045e-16
2.22045e-16
2.22045e-16
2.22045e-16
2.22045e-16
2.22045e-16
2.22045e-16
2.22045e-16
1.77195e-15
1.14852e-10
2.22045e-16
1.24385e-13
2.22045e-16
2.22045e-16
2.22045e-16
2.22045e-16
2.22045e-16
2.22045e-16
2.22045e-16
2.22045e-16
2.22045e-16
2.22045e-16
2.22045e-16
2.22045e-16
2.22045e-16
2.37384e-15
3.04391e-16
2.22045e-16
2.22045e-16
2.22045e-16
2.22045e-16
2.22045e-16
2.22045e-16
2.22045e-16
2.22045e-16
2.22045e-16
2.22045e-16
2.22045e-16
2.22045e-16
5.80538e-16
2.22045e-16
5.20384e-16
2.22045e-16
2.22045e-16
2.22045e-16
2.22045e-16
2.22045e-16
2.22045e-16
2.22045e-16
2.22045e-16
2.22045e-16
2.22045e-16
2.22045e-16
2.22045e-16
2.22045e-16
2.22045e-16
2.22045e-16
2.22045e-16
2.22045e-16
2.22045e-16
2.22045e-16
2.22045e-16
2.22045e-16
2.22045e-16
2.22045e-16
2.22045e-16
2.22045e-16
2.22045e-16
2.22045e-16
2.22045e-16
2.22045e-16
2.22045e-16
2.22045e-16
2.22045e-16
2.22045e-16
2.22045e-16
2.22045e-16
2.22045e-16
2.22045e-16
2.22045e-16
2.22045e-16
2.22045e-16
2.22045e-16
2.22045e-16
2.22045e-16
2.22045e-16
2.22045e-16
2.22045e-16
2.22045e-16
2.22045e-16
2.22045e-16
2.22045e-16
2.22045e-16
2.22045e-16
2.22045e-16
2.22045e-16
2.22045e-16
2.22045e-16
2.22045e-16
2.22045e-16
2.22045e-16
2.22045e-16
2.22045e-16
2.22045e-16
2.22045e-16
2.22045e-16
2.22045e-16
2.22045e-16
2.22045e-16
2.22045e-16
2.22045e-16
2.22045e-16
2.22045e-16
2.22045e-16
2.22045e-16
2.22045e-16
2.22045e-16
2.22045e-16
2.22045e-16
2.22045e-16
2.22045e-16
2.22045e-16
2.22045e-16
2.22045e-16
2.22045e-16
2.22045e-16
2.22045e-16
2.22045e-16
2.22045e-16
2.22045e-16
2.22045e-16
2.22045e-16
2.22045e-16
2.22045e-16
2.22045e-16
2.22045e-16
2.22045e-16
2.22045e-16
2.22045e-16
2.22045e-16
2.22045e-16
2.22045e-16
2.22045e-16
2.22045e-16
2.22045e-16
2.22045e-16
2.22045e-16
2.22045e-16
2.22045e-16
2.22045e-16
2.22045e-16
2.22045e-16
2.22045e-16
2.22045e-16
2.22045e-16
2.22045e-16
2.22045e-16
2.22045e-16
2.22045e-16
2.22045e-16
2.22045e-16
2.22045e-16
2.22045e-16
2.22045e-16
2.22045e-16
2.22045e-16
2.22045e-16
2.22045e-16
2.22045e-16
2.22045e-16
2.22045e-16
2.22045e-16
2.22045e-16
2.22045e-16
2.22045e-16
2.22045e-16
2.22045e-16
2.22045e-16
2.22045e-16
2.22045e-16
2.22045e-16
2.22045e-16
2.22045e-16
2.22045e-16
2.22045e-16
2.22045e-16
2.22045e-16
2.22045e-16
2.22045e-16
2.22045e-16
2.22045e-16
2.22045e-16
2.22045e-16
2.22045e-16
2.22045e-16
2.22045e-16
2.22045e-16
2.22045e-16
2.22045e-16
2.22045e-16
2.22045e-16
2.22045e-16
2.22045e-16
2.22045e-16
2.22045e-16
2.22045e-16
2.22045e-16
2.22045e-16
2.22045e-16
2.22045e-16
2.22045e-16
2.22045e-16
2.22045e-16
2.22045e-16
2.22045e-16
2.22045e-16
2.22045e-16
2.22045e-16
2.22045e-16
2.22045e-16
2.22045e-16
2.22045e-16
2.22045e-16
2.22045e-16
2.22045e-16
2.22045e-16
2.22045e-16
2.22045e-16
2.22045e-16
2.22045e-16
2.22045e-16
2.22045e-16
2.22045e-16
2.22045e-16
2.22045e-16
2.22045e-16
2.22045e-16
2.22045e-16
2.22045e-16
2.22045e-16
2.22045e-16
2.22045e-16
2.22045e-16
2.22045e-16
2.22045e-16
2.22045e-16
2.22045e-16
2.22045e-16
2.22045e-16
2.22045e-16
2.22045e-16
2.22045e-16
2.22045e-16
2.22045e-16
2.22045e-16
2.22045e-16
2.22045e-16
2.22045e-16
2.22045e-16
2.22045e-16
2.22045e-16
2.22045e-16
2.22045e-16
2.22045e-16
2.22045e-16
2.22045e-16
2.22045e-16
2.22045e-16
2.22045e-16
2.22045e-16
2.22045e-16
2.22045e-16
2.22045e-16
2.22045e-16
2.22045e-16
2.22045e-16
2.22045e-16
2.22045e-16
2.22045e-16
2.22045e-16
2.22045e-16
2.22045e-16
2.22045e-16
2.22045e-16
2.22045e-16
2.22045e-16
2.22045e-16
2.22045e-16
2.22045e-16
2.22045e-16
2.22045e-16
2.22045e-16
2.22045e-16
2.22045e-16
2.22045e-16
2.22045e-16
2.22045e-16
2.22045e-16
2.22045e-16
2.22045e-16
2.22045e-16
2.22045e-16
2.22045e-16
2.22045e-16
2.22045e-16
2.22045e-16
2.22045e-16
2.22045e-16
2.22045e-16
2.22045e-16
2.22045e-16
2.22045e-16
2.22045e-16
2.22045e-16
2.22045e-16
2.22045e-16
2.22045e-16
2.22045e-16
2.22045e-16
2.22045e-16
2.22045e-16
2.22045e-16
2.22045e-16
2.22045e-16
2.22045e-16
2.22045e-16
2.22045e-16
2.22045e-16
2.22045e-16
2.22045e-16
2.22045e-16
2.22045e-16
2.22045e-16
2.22045e-16
2.22045e-16
2.22045e-16
2.22045e-16
2.22045e-16
2.22045e-16
2.22045e-16
2.22045e-16
2.22045e-16
2.22045e-16
2.22045e-16
2.22045e-16
2.22045e-16
2.22045e-16
2.22045e-16
2.22045e-16
2.22045e-16
2.22045e-16
2.22045e-16
2.22045e-16
2.22045e-16
2.22045e-16
2.22045e-16
2.22045e-16
2.22045e-16
2.22045e-16
2.22045e-16
2.22045e-16
2.22045e-16
2.22045e-16
2.22045e-16
2.22045e-16
2.22045e-16
2.22045e-16
2.22045e-16
2.22045e-16
2.22045e-16
2.22045e-16
2.22045e-16
2.22045e-16
2.22045e-16
2.22045e-16
2.22045e-16
2.22045e-16
2.22045e-16
2.22045e-16
2.22045e-16
2.22045e-16
2.22045e-16
2.22045e-16
2.22045e-16
2.22045e-16
2.22045e-16
2.22045e-16
2.22045e-16
2.22045e-16
2.22045e-16
2.22045e-16
2.22045e-16
2.22045e-16
2.22045e-16
2.22045e-16
2.22045e-16
2.22045e-16
2.22045e-16
2.22045e-16
2.22045e-16
2.22045e-16
2.22045e-16
2.22045e-16
2.22045e-16
2.22045e-16
2.22045e-16
2.22045e-16
2.22045e-16
2.22045e-16
2.22045e-16
2.22045e-16
2.22045e-16
2.22045e-16
2.22045e-16
2.22045e-16
2.22045e-16
2.22045e-16
2.22045e-16
2.22045e-16
2.22045e-16
2.22045e-16
2.22045e-16
2.22045e-16
2.22045e-16
2.22045e-16
2.22045e-16
2.22045e-16
2.22045e-16
2.22045e-16
2.22045e-16
2.22045e-16
2.22045e-16
2.22045e-16
2.22045e-16
2.22045e-16
2.22045e-16
2.22045e-16
2.22045e-16
2.22045e-16
2.22045e-16
2.38439e-06
9.1062e-15
2.22045e-16
2.22045e-16
2.22045e-16
8.3721e-08
2.22289e-16
2.22045e-16
2.22045e-16
2.22045e-16
2.22045e-16
2.22045e-16
2.22045e-16
2.22045e-16
2.22045e-16
2.22045e-16
2.22045e-16
2.22045e-16
2.22045e-16
2.22045e-16
2.22045e-16
2.22045e-16