/*--------------------------------*- C++ -*----------------------------------*\
  =========                 |
  \\      /  F ield         | OpenFOAM: The Open Source CFD Toolbox
   \\    /   O peration     | Website:  https://openfoam.org
    \\  /    A nd           | Version:  9
     \\/     M anipulation  |
\*---------------------------------------------------------------------------*/
FoamFile
{
    format      ascii;
    class       volScalarField;
    location    "0.0006";
    object      impulse;
}
// * * * * * * * * * * * * * * * * * * * * * * * * * * * * * * * * * * * * * //

dimensions      [1 -1 -1 0 0 0 0];

internalField   nonuniform List<scalar> 
6315
(
1613.08
739.705
1878.8
9878.16
1798.21
1608.39
974.655
674.399
917.537
644.115
1679.09
1604.05
688.189
768.44
1700.78
1302.97
633.931
1428.79
788.251
767.316
3533.78
990.305
1126.76
1771.67
1118.06
2828.96
1648.98
972.627
1869.76
1742.02
2141.1
1743.46
151203
4960.66
9877.98
887.198
1064.08
1917.23
1175.25
1147.77
2847.86
1966.69
1903.14
667.908
1692.66
810.531
933.946
1610.4
697.906
1716.21
2025.14
2601.57
9365.77
1980.49
130770
4322.93
8053.91
1104.87
808.344
1514.82
1316.29
778.004
791.832
4139.28
7334.56
5527.91
5063.96
25864.9
15919.6
24694.4
4563.42
3298.54
1379.24
1461.23
1362.09
1976.65
1741.98
1965.07
1064.68
929.88
1835.67
1162.86
846.637
1707.36
1254.04
1061.48
927.262
1880.29
1204
1250.96
1747.75
828.297
951.697
702.641
728.997
1095.23
1089.2
1117.39
670.949
1464.66
3014.53
3107.05
2033.24
1533.46
2081.77
1544.58
891.162
1260.29
1039.27
879.65
830.53
1242.14
922.673
890.711
875.046
1245.48
1034.57
916.57
1237.55
831.256
1072.1
2825.9
971.931
2820.94
1024.99
1032.31
2755.79
891.806
1632.27
1599.75
959.182
897.852
1313.37
897.29
4480.08
2709.65
3428.52
1655.69
2363.39
1981.95
4979.23
5428.78
4118.07
4117.24
1878.52
2503.78
7036.65
2504.16
4478.93
3421.71
2697.35
1651.01
4974.15
1978.9
2360.56
26797.1
88680.6
80106.9
88680.2
32619.5
32620.5
45793
5869.28
3236.02
3217.27
15993.8
11783.1
2989.92
11789.1
7334.46
5064.73
5527.14
25864.7
4563.12
15919.4
24694.3
2516.61
1184.98
1244.06
1184.02
1831.26
1629.13
1830.27
989.308
1175.23
911.144
1439.88
887.502
952.638
1328.26
980.297
1146.69
1404.2
879.241
934.844
878.382
1311.34
1125.86
2842.01
1002
2837.33
1051.69
1046.36
2775.97
942.489
1614.78
1570.46
961.599
990.012
962.994
1648.81
4396.89
1744.27
3299.75
2656.14
3038.31
6665.05
2555.96
5044.1
2035.93
3910.41
3890.92
3345.48
3360.72
11306.8
12612.3
6196.56
8029.56
27398.8
4323.2
13586.5
15226.3
4344.26
1699.58
2535.23
3144.92
6617.96
2528.72
3016.73
16536.6
93190.3
49040.9
72346.2
49344.1
49930.9
81670.3
9745.8
4281.14
4163.69
23998.2
9327.51
8906.95
3063.92
12991.8
8136.75
6726.76
36600.7
11513.8
4322.48
14404.1
1257.58
1402.43
1042.87
2347.4
910.153
1841.01
1316.86
1210.54
1284.69
958.449
2045.25
1244.74
887.478
1751.26
1114
770.691
761.544
1231.29
1073.46
711.04
1110.23
1512.39
3035.15
2806.1
1918.14
1802.95
2729.21
1862.14
170.764
189.493
280.806
291.498
15.6969
27.0035
0.129094
3.44068
291.252
277.832
275.242
220.647
217.174
184.017
188.517
288.537
253.602
267.533
193.497
208.293
173.149
156.133
340.165
242.861
325.894
276.571
327.351
314.553
333.058
323.682
320.046
324.332
326.826
320.714
323.857
328.889
325.217
343.993
345.248
336.428
343.39
333.303
337.645
347.889
317.522
321.692
317.944
331.787
321.278
322.657
328.214
322.972
320.688
323.777
333.899
332.892
334.932
330.529
322.599
329.991
340.321
338.404
319.701
323.19
345.225
332.934
342.809
332.433
340.931
337.15
337.691
348.33
335.384
272.155
323.737
311.096
322.676
309.517
333.242
337.693
306.532
261.097
291.514
317.876
303.711
336.828
243.724
183.934
239.244
136.545
85.2655
81.006
141.233
113.987
25.1567
110.004
76.6403
12.5824
11.4832
80.0907
228.151
150.371
210.048
125.154
55.8222
70.8441
107.695
87.417
21.0879
100.899
68.417
6.0564
9.08246
56.4127
291.72
287.947
279.867
71.6193
263.8
55.9603
27.6226
42.7904
260.12
247.409
251.181
236.571
237.659
241.439
240.792
270.088
270.602
258.872
240.212
239.558
241.464
239.136
289.709
278.281
275.346
242.304
237.786
235.709
242.88
291.826
289.081
283.375
239.648
218.743
229.841
233.129
172.238
68.8221
170.141
165.443
66.4274
168.192
63.4125
157.184
64.0877
165.886
159.415
48.9511
57.719
148.575
154.88
140.634
56.5768
40.2626
136.613
158.407
53.6237
147.084
113.875
39.1913
34.9492
127.63
47.7076
134.292
318.401
299.461
327.933
320.127
337.365
349.95
263.905
288.442
331.867
266.523
274.299
295.114
343.816
344.938
290.292
346.471
344.87
319.007
304.554
288.268
306.665
349.55
315.005
331.565
333.332
310.049
340.699
341.497
306.746
259.096
241.094
246.249
243.188
249.883
270.71
265.617
338.467
347.377
341.579
349.843
330.475
320.079
347.233
273.087
273.824
256.929
298.413
281.115
262.623
282.477
302.987
284.149
279.997
308.581
304.848
291.593
287.357
310.414
305.397
292.992
317.886
329.847
315.556
302.038
1487.26
353.995
1500.65
397.928
1700.88
1563.24
1116.11
453.973
496.541
375.531
409.031
558.348
390.156
540.684
510.203
822.244
1732.67
963.443
682.154
1626.66
722.767
1619.81
1362.3
1522.47
3690.35
687.347
791.698
815.923
814.701
544.908
733.377
458.816
591.737
938.303
546.683
588.041
1223.76
1319.46
2119.45
999.562
1308.2
912.241
1780.16
1250.61
1400.98
2355.78
1056.28
909.889
1336.19
1832.51
1515.66
2986.55
3065.61
2028.43
1705.61
1841.91
2665.89
1096.95
1174.35
764.66
771.882
1119.59
717.709
1125.96
371.058
330.684
351.56
391.403
379.173
437.078
435.448
571.613
1593.95
613.345
1648.72
692.229
618.672
1599.29
1494.09
535.326
540.012
589.654
1553.63
606.302
1556.64
1502.87
534.048
534.594
1528.37
546.333
566.042
1552.22
1436.79
302.68
334.501
1446.5
334.252
565.675
289.95
526.231
263.772
307.024
331.441
342.845
296.393
275.576
328.681
310.617
342.491
307.777
317.913
308.716
282.228
311.981
276.45
319.929
320.812
327.892
290.32
284.083
277.354
293.529
333.57
302.403
305.179
329.13
287.665
316.978
281.013
304.235
317.277
319.797
289.145
302.962
296.292
281.873
1440.22
508.445
507.104
503.188
1386.94
498.65
1390.36
333.813
329.77
330.917
306.954
315.516
307.316
317.307
264.604
313.083
310.093
303.377
267.339
303.293
264.081
275.415
264.648
265.654
277.624
269.098
265.802
279.106
1449.54
533.692
519.862
1371.45
540.689
519.81
1388.02
334.871
334.463
338.523
321.149
334.736
314.05
326.183
273.237
352.645
328.501
335.528
283.802
316.049
271.189
1229.74
1238.93
519.417
510.632
1324.83
505.054
1322.81
283.9
285.639
272.77
284.461
296.938
285.631
272.761
308.121
292.591
291.128
295.211
308.925
294.686
311.064
543.669
1161.53
1205.76
1282.11
552.925
528.669
1310.83
318.646
312.114
300.771
314.569
330.521
303.687
319.965
329.499
400.964
374.361
355.377
1516.77
453.692
700.765
428.526
494.785
372.496
398.813
566.194
381.345
504.794
538.909
4354.92
1154.47
1440.19
700.303
809.114
813.844
840.537
576.951
939.391
451.314
547.944
750.636
555.23
587.502
851.272
468.709
479.6
549.853
436.601
597.427
426.947
1268.21
2343.35
1414.27
1046.55
1324.49
918.659
1865.92
1576.08
3075.99
3016.06
2018.26
1880.79
1874.36
2773.56
1284.06
2289.32
1400.99
1053.52
1361.39
958.727
1889.29
1130.75
1253.87
777.083
815.1
1140.4
1190.28
730.322
348.965
343.551
362.948
376.166
386.145
434.989
433.375
480.502
566.446
388.617
406.936
440.6
483.597
410.608
381.292
353.994
353.367
443.799
390.993
462.377
386.301
356.492
368.115
357.222
387.926
371.138
417.458
382.112
44.0526
15.0549
0.458622
41.3693
0.390222
13.5925
3.0158
34.9681
6.13825
1.16279
0.258045
10.277
2.12938
25.9155
58.167
1.12828e-07
1.32282
8.80153e-06
0.00302531
6.63028e-07
2.69697e-05
1.17201e-06
0.0182441
31.8259
7.59767
13.2285
3.9384
2.06935
0.423483
0.0832957
1.5987e-06
0.0742537
1.35188e-06
1.22378e-08
1.64737e-07
8.6506e-08
1.90473e-06
10.4956
0.0240142
0.0399326
0.517327
0.281432
0.0100357
0.000801671
0.169129
0.000648652
0.0363375
0.000147908
0.00786853
0.00154561
3.02767e-05
0.692185
0.00314854
0.125226
0.000424272
0.014427
0.00263151
7.59611e-05
0.00303311
0.00141421
0.00214035
9.07072e-05
6.45365e-05
4.72439e-05
4.03814e-06
0.000433034
8.7871e-05
0.0049397
0.000190433
1.41103e-06
1.65212e-05
4.64459e-06
0.0010358
0.000341346
0.0138849
0.000300505
2.58253e-06
1.0018e-05
2.48109e-05
311.651
15.638
12.1725
122.627
9.38853
10.4652
219.21
3.81855
10.7083
0.218357
342.836
0.0841883
0.000142471
10.4927
519.144
262.259
40.128
0.00314931
286.84
77.4491
270.05
365.057
253.136
326.525
354.759
284.134
653.895
344.481
90.5901
5.08333
205.9
47.9481
209.463
274.316
229.237
4.2063
1.1288
43.4748
22.2655
353.035
359.859
353.551
363.359
362.136
357.627
362.532
0.355895
6.70293
7.10299
0.000339382
0.000170962
0.000288183
0.000160656
6.14617
5.80165e-05
2.0237e-05
1.42372
3.42909
0.000310247
0.000135068
225.528
23.0282
201.019
0.000924228
4.72333
94.1706
0.696875
176.135
13.8964
0.00343623
28.7752
212.655
349.102
198.808
16.6303
161.789
232.535
8.96339
10.0617
0.000167592
0.0456441
352.675
334.309
357.451
328.35
352.118
346.101
307.858
364.783
355.21
366.196
354.092
364.987
355.387
329.695
350.088
314.986
353.958
308.07
348.185
341.055
286.53
356.34
295.706
285.679
238.576
290.085
265.635
214.131
264.491
273.048
260.171
221.953
215.662
192.067
199.209
33.2441
3.26564
0.0435879
2.39885e-05
145.714
13.2051
28.9695
0.000105632
0.00138803
2.18786
4.64333
9.02892e-05
0.854575
5.52256e-06
233.861
3.92371
180.812
4.80001e-05
0.224983
8.8402
0.00303352
1.12665e-05
2.89552e-06
0.09198
0.750845
6.8019e-05
0.423157
3.9647e-06
0.000184568
159.927
12.216
440.575
234.841
46.8976
0.725188
8.62739
160.983
125.679
3.11868e-05
2.84314
0.576436
0.137271
272.266
255.746
242.15
185.958
206.386
182.133
161.393
453.778
706.589
476.567
533.74
379.823
350.65
487.891
281.357
287.367
256.229
250.76
222.116
214.214
175.244
216.395
271.404
328.149
308.244
179.95
257.364
242.22
309.899
321.31
349.037
324.574
227.604
275.455
287.512
318.873
290.642
345.139
319.422
207.739
282.813
254.299
226.235
320.339
262.719
230.545
134.104
184.864
179.009
243.207
236.34
201.087
159.048
122.951
117.471
166.012
324.272
321.345
309.961
287.335
274.647
270.049
226.961
265.563
241.558
172.556
203.307
144.481
133.066
103.179
202.277
160.531
114.747
141.488
99.2233
62.0093
48.9194
376.013
590.501
419.644
311.949
366.716
263.776
431.618
141.828
77.4004
186.369
158.427
31.8528
57.5172
114.66
213.098
174.535
192.619
149.185
89.4635
108.56
128.874
132.052
41.0052
126.423
101.091
28.1027
26.3563
105.814
211.836
183.839
148.816
160.179
124.819
94.7821
73.4936
9.56921
8.88764
8.02606
0.371749
0.329042
0.258689
0.295831
10.5456
9.95826
9.95567
0.388823
0.38262
0.353185
0.351423
364.341
136.048
260.448
230.694
174.386
111.097
325.331
0.334489
9.55711
10.0062
10.5185
10.0105
0.379861
0.356076
0.208378
0.286688
8.55322
7.28745
9.12928
0.312283
0.23199
8.98173
7.43897
9.22106
0.316237
0.222978
0.303953
0.237863
0.000123183
3.24616
134.331
2.94037e-06
0.000553178
5.43456e-05
0.0122867
3.9412e-06
2.25365e-06
9.13472e-05
2.03461
103.96
1.21691
1.30523e-05
93.398
34.2297
115.129
91.2419
12.965
21.462
71.9775
8.20888
4.6206
6.5556
0.18451
0.267513
0.199108
0.129149
251.84
149.492
208.035
118.291
176.648
125.084
69.0692
275.794
161.223
233.38
139.332
212.576
160.9
87.746
275.368
144.594
228.923
129.202
213.37
156.816
75.8985
184.581
87.7486
150.314
37.2875
84.6948
56.8241
18.4973
91.2294
6.05703e-06
9.52796
8.8601e-05
1.12078e-06
6.06229e-06
0.0254393
276.59
132.35
158.181
145.672
215.565
229.577
201.248
144.458
105.637
187.893
68.6171
147.162
106.837
38.4979
181.244
58.1971
140.679
49.2902
130.354
90.1024
23.3504
251.645
123.403
206.507
117.72
200.66
148.358
67.9441
207.877
112.21
163.445
65.615
108.183
67.0335
30.9511
178.306
82.984
115.622
53.0974
78.5093
32.7849
16.3005
175.832
113.625
170.478
83.0102
129.765
72.337
35.7213
153.574
100.668
95.9221
74.123
70.5819
28.0794
29.9672
122.57
47.3579
15.4021
16.2138
81.6766
35.2999
81.9949
70.7531
41.9433
3.77748
13.8207
39.5564
12.7325
74.3793
6.25469
3.02148
5.58602
0.161831
0.0893462
0.077369
0.186181
4.35672
0.122129
4.82746
2.46942
0.138339
0.0634754
0.0554139
4.94796
2.3315
2.53588
0.130863
0.142214
0.0651318
0.0590502
140.159
88.2714
128.012
57.7562
93.6636
47.7419
22.3563
322.148
353.81
255.666
293.44
205.834
140.414
212.824
144.746
70.7086
88.1792
47.4724
63.3549
23.6465
14.5187
2.69194
1.83531
1.22636
0.103271
0.0687879
0.0452623
0.0292367
111.924
26.9493
90.1337
4.82108
37.2495
24.0499
2.0917
0.10173
7.01342e-05
2.46178e-06
1.86131e-07
3.72617e-06
4.47299e-06
7.19201e-07
191.905
218.943
48.1204
135.026
145.492
80.5508
276.344
62.7921
22.5038
2.69838
5.24089
33.929
9.91568
46.9414
2.88941
2.26288
4.36344
0.119848
0.0338937
0.0560418
0.0742151
70.545
4.80417
50.0622
3.1448
41.4777
24.485
1.04001
283.679
239.896
284.987
281.977
44.7065
0.901866
19.4157
7.02053
289.022
288.167
236.532
289.28
231.322
224.478
214.864
291.153
267.87
283.504
201.137
220.235
199.095
176.292
260.425
247.4
276.552
163.517
200.654
187.417
148.197
142.586
37.818
131.984
31.384
121.187
109.548
25.4789
262.361
200.014
227.704
168.459
99.6483
142.475
127.306
95.9158
29.1231
116.41
93.8639
11.3306
74.2363
18.5573
60.7017
17.8431
93.2227
81.7723
4.77416
50.6103
13.5965
67.0863
22.6975
4.51316
2.56165
48.5879
37.7713
9.01968
92.5396
22.2443
74.9327
2.25542
20.0011
12.8617
1.01925
21.6421
1.45326
0.832553
0.174365
7.62158
4.56963
0.0911271
60.5366
4.2827
43.1818
1.30652
24.4576
14.3191
0.493009
83.2692
64.9962
57.3969
22.6715
27.6621
14.0087
2.34352
59.2967
59.0426
136.021
80.0245
1.59171
21.9159
21.1741
61.7315
81.602
138.622
61.4774
1.76897
22.1469
13.3482
42.6817
24.4982
91.7774
47.3784
0.51401
5.84761
14.1276
57.0277
64.8625
134.033
82.6745
2.28882
27.4975
22.1896
91.7527
82.4057
164.09
91.2399
3.84073
33.4526
28.3539
49.1027
58.4258
106.656
27.945
0.570236
5.17265
7.46932
1.58552
0.315966
0.697123
0.0170015
0.0382928
0.0157942
0.00660792
43.5636
7.70794
40.8622
4.71403
0.280781
0.242969
5.29584
26.3577
57.457
46.5743
15.8171
7.18932
4.57521
0.521761
46.1238
42.2451
24.1491
13.6105
5.50423
4.60085
0.480135
0.805865
0.25202
0.920004
0.0220308
0.00481202
0.00563007
0.0190952
15.4073
12.361
65.9764
35.5569
0.11962
3.2629
4.57865
27.3586
1.30035
0.200231
9.40967
0.0281759
0.213934
1.68654
11.1051
28.7568
52.7668
6.06559
0.0663557
1.65697
0.318804
5.56592
0.361203
0.109292
1.93003
0.00876218
0.505386
0.0341754
0.229462
0.256624
0.941204
0.0224958
0.00505273
0.020182
0.00572788
13.4731
33.4597
62.6544
11.1828
0.100029
2.86919
0.565362
8.606
1.2559
24.1524
5.6231
0.0217411
1.12821
0.12888
98.1277
258.452
177.997
74.8304
54.6305
23.7796
129.294
38.849
52.7153
99.5357
25.8915
0.436594
3.60236
7.2743
154.835
20.0009
94.5908
46.2033
14.5184
4.1199
89.1009
17.8684
3.55477
41.5984
12.5055
0.0619651
0.349124
2.96081
15.1578
0.510131
14.0112
1.97891
0.0481187
0.0426903
2.23036
2.55766
0.468652
15.62
6.47213
0.0108536
0.630545
0.131389
0.654422
0.170056
0.103292
0.00363477
0.0151004
0.00936926
0.00210544
5.93616
24.2223
35.6104
3.4836
0.0662988
0.168933
1.49847
5.79538
0.348208
11.1081
1.3791
0.0108294
0.0287841
0.538335
0.0116446
0.000337682
0.0115152
0.0105581
0.000302927
0.0104334
0.000308901
0.00925832
0.0062395
0.000248241
0.000186006
0.00882442
0.00673201
0.000262421
0.000310406
0.010625
0.00992008
0.000333493
0.0113884
0.0106311
0.00030996
0.000234685
0.00583084
0.00832167
0.00914267
0.000181629
0.00656555
0.000259102
0.0109293
0.00026993
0.00957305
0.00727229
0.000232556
0.00841541
0.000199486
351.675
322.306
272.527
284.249
285.092
318.693
286.706
306.362
272.762
296.875
284.992
273.256
283.57
296.37
285.853
319.547
314.723
330.499
303.418
300.83
312.31
328.775
312.616
297.891
309.434
310.187
316.699
322.071
301.219
290.636
290.266
293.159
278.962
287.481
298.289
290.684
337.55
326.547
342.058
324.43
339.636
332.099
338.141
318.535
299.964
298.596
298.328
302.395
311.156
323.455
288.943
286.901
265.721
307.86
307.667
306.656
303.436
279.391
248.883
261.067
316.144
305.45
308.615
321.328
1316.95
308.139
1445.6
278.996
317.268
1555.09
469.299
1542.5
1366.16
487.149
305.753
478.014
324.087
371.997
501.645
277.28
435.342
305.798
385.152
352.036
460.84
539.599
506.415
385.457
367.15
505.172
398.145
555.109
373.771
383.014
523.625
397.213
386.709
359.939
473.922
542.701
385.822
511.325
368.132
482.442
392.032
557.277
369.413
397.033
375.883
520.956
561.835
1499.9
510.711
512.973
1536.91
572.112
1481.1
576.081
522.481
1535.73
1484.35
523.977
584.39
1475.14
343.596
363.909
427.041
371.83
377.308
447.141
345.986
377.626
373.778
378.43
347.72
368.89
448.733
346.844
1302.15
298.142
292.989
926.477
286.064
916.426
290.505
266.233
295.025
266.499
275.1
305.385
278.32
307.456
295.71
299.371
275.676
266.72
293.536
325.649
309.054
304.87
275.168
280.97
334.612
306.557
329.132
317.178
283.886
288.665
292.115
324.59
306.454
318.279
317.655
288.721
285.013
312.747
273.021
299.951
320.008
312.251
488.096
1387.86
486.544
1377.58
482.489
485.729
1430.13
487.873
1370.28
496.493
493.181
1428.32
499.51
1420.56
312.563
304.328
312.841
302.14
324.54
328.555
325.02
306.463
315.803
314.145
330.583
327.698
328.71
326.196
300.409
262.786
265.403
305.363
262.392
262.393
310.655
293.881
262.377
257.157
303.152
258.792
261.01
304.219
275.898
274.131
262.719
273.539
262.4
264.324
272.961
270.036
276.863
278.431
275.251
265.49
266.811
275.084
496.664
1313.8
492.887
509.896
1219.19
513.062
1225.22
293.265
307.819
292.137
290.4
308.443
307.818
290.177
496.137
1299.82
505.216
511.829
1202.88
1213.88
521.552
295.13
310.885
309.02
291.801
310.794
308.873
292.609
324.19
269.283
351.796
284.611
269.035
326.627
350.394
325.283
272.836
284.833
359.433
269.469
333.366
351.275
277.147
267.823
283.17
274.815
268.281
277.646
282.337
278.169
270.912
275.96
284.841
269.927
279.364
282.901
530.003
1072.91
936.743
533.944
1090.23
538.206
531.006
292.616
310.604
295.023
306.459
309.885
293.163
294.791
293.608
312.828
307.146
296.958
310.817
295.199
295.469
528.603
1086.64
526.81
943.789
529.611
1099.74
530.118
588.929
322.243
320.229
309.872
1414.63
346.045
1523.83
1369
391.379
286.448
310.046
352.901
353.179
373.428
288.402
386.121
321.297
434.071
380.132
436.401
353.163
351.17
368.327
331.033
425.391
383.74
429.106
341.612
345.835
327.282
358.943
544.084
1543.18
559.591
530.845
1490.48
528.069
1478.19
412.978
369.442
377.563
355.119
353.64
365.079
354.01
345.97
308.267
316.994
362.616
342.472
345.677
316.922
317.045
323.233
330.69
339.91
352.253
330.009
316.296
598.137
358.527
671.32
282.451
380.237
1286.7
819.96
279.672
332.968
314.606
304.199
327.426
330.828
301.718
281.189
302.648
295.197
316.403
302.589
301.314
317.758
1458.74
555.199
542.118
1496.39
538.611
540.903
1453.77
530.227
1352.71
1434.27
515.119
537.104
514.225
1423.12
352.173
341.437
347.867
364.589
360.85
347.43
352.932
334.399
324.839
313.284
334.144
336.254
332.992
341.985
308.731
297.811
310.811
307.317
320.101
317.14
303.25
369.845
295.846
353.938
305.411
340.379
345.272
301.638
269.921
314.047
333.97
272.052
327.031
351.63
288.811
1256.54
1349.99
571.801
549.989
1317.38
562.625
1396.87
337.857
329.498
344.016
352.079
338.598
335.902
347.043
1257.08
524.384
549.184
1176.12
539.549
561.102
1131.06
392.222
299.52
360.358
381.937
336.591
409.842
311.793
371.518
301.969
312.448
285.039
351.317
374.543
303.669
1128.96
1206.13
575.916
579.688
980.063
585.516
1065.43
525.956
876.405
533.6
1035.9
549.249
559.005
981.009
295.043
377.812
312.848
395.267
332.815
402.427
323.891
470.936
750.04
505.219
559.137
825.341
542.915
909.567
110.492
40.4363
245.059
1.9599e-06
298.302
295.882
332.347
35.6187
256.138
357.433
238.911
331.648
339.898
342.217
347.535
339.721
336.563
335.955
0.00133611
1.93147
123.427
233.687
41.2595
0.00139683
2.02431
124.533
70.8409
0.0052384
49.7223
247.476
13.0248
0.00562674
352.397
345.694
351.51
334.335
342.694
327.569
307.082
335.496
286.532
334.685
254.048
314.581
303.536
236.396
326.237
280.783
323.708
260.413
312.611
300.9
240.595
196.656
162.047
252.583
204.791
170.781
114.859
107.018
221.903
287.383
311.808
279.931
173.239
249.265
212.113
306.546
267.315
326.07
284.048
175.451
254.795
210.826
253.288
198.948
205.457
164.659
171.556
115.493
109.197
171.266
227.971
233.18
128.426
177.417
74.1909
69.8107
229.557
172.718
124.824
128.863
177.83
74.4702
70.8277
188.731
196.274
267.227
248.789
89.9773
167.577
173.746
221.658
63.9263
103.456
101.17
184.488
138.379
142.802
6.14939
6.64924e-05
0.000166838
7.57671
0.000122855
7.76366e-06
1.7553e-06
48.6219
53.6666
132.183
51.1597
7.19684
45.729
8.85644
12.2588
14.8267
77.8237
35.803
2.14127
31.2344
2.84718
53.9468
126.413
132.679
51.5302
7.56985
47.0556
8.96608
72.959
15.091
78.4573
36.2027
2.32886
2.91889
32.5311
102.938
44.5946
108.758
27.5675
3.37808
4.13697
24.829
33.4077
2.26017
36.0413
11.0825
0.245751
0.293653
9.78518
44.7956
104.164
109.061
27.712
3.52347
25.3956
4.17764
34.1731
2.29503
36.2933
11.1786
0.256173
10.0929
0.297299
286.192
262.795
72.1741
239.077
69.8815
58.0405
59.7602
261.386
238.159
744.864
273.208
208.689
171.509
276.6
34.1867
48.9768
275.108
8.41672
8.76054
242.496
236.093
238.741
231.428
232.226
233.275
231.251
124.089
305.882
262.987
302.968
325.641
300.793
320.841
240.917
235.94
238.118
230.834
230.842
230.929
231.497
259.002
250.543
246.614
234.677
239.119
236.5
237.791
258.332
248.973
245.861
234.019
237.219
237.087
234.648
358.767
87.0654
351.99
222.694
749.689
227.608
60.3562
277.198
275.826
42.5087
145.846
271.973
55.5048
29.9269
323.343
333.097
320.732
330.274
323.147
332.59
334.223
319.929
330.892
329.692
323.383
322.428
331.959
332.054
273.452
286.777
284.883
238.192
237.978
230.598
229.289
272.782
285.158
284.227
236.178
237.175
229.81
227.319
170.048
171.956
71.6955
69.9958
170.334
69.9438
171.897
169.541
71.661
68.2649
169.528
69.8975
171.468
167.885
281.006
302.786
320.803
317.653
322.247
319.274
334.86
288.812
331.057
325.016
331.222
325.087
300.712
310.308
311.69
305.639
331.908
328.367
325.503
301.123
310.683
314.076
286.783
277.582
283.451
301.625
299.695
304.082
297.125
319.61
318.579
320.189
317.106
325.1
323.575
318.631
319.374
323.649
320.836
317.581
327.311
324.118
320.905
282.545
278.29
284.138
302.125
301.234
297.698
305.924
315.813
313.731
328.379
317.683
326.789
317.844
312.078
316.279
318.205
330.211
315.357
327.294
312.607
319.688
65.0279
158.76
165.497
167.605
60.4291
161.432
67.1102
168.255
161.184
66.7609
61.015
167.901
162.22
67.4917
295.968
293.312
356.482
308.777
252.08
304.125
256.557
276.954
275.108
277.56
234.991
234.556
239.266
229.462
291.153
297.865
247.635
293.125
355.899
308.12
256.352
274.738
230.431
226.554
274.212
277.091
234.338
238.34
332.11
304.124
333.666
320.716
264.619
319.42
268.92
302.49
317.561
331.749
305.381
331.573
320.184
268.43
324.55
305.328
323.348
319.176
272.07
317.705
276.889
269.998
315.656
322.389
304.661
322.642
318.557
276.283
269.945
286.066
267.587
211.116
173.169
208.411
176.9
489.187
764.145
492.785
406.364
566.607
398.713
583.051
277.237
279.492
281.534
227.455
201.754
221.27
208.607
206.528
265.966
284.421
285.57
269.378
210.389
176.294
47.4614
126.234
146.108
49.8725
149.486
130.011
36.3361
148.465
50.4758
150.356
130.84
35.3639
128.315
36.8153
483.238
392.644
565.9
768.385
491.948
405.403
584.807
270.705
218.486
198.992
276.487
280.925
226.731
207.824
198.693
156.31
57.8742
211.329
65.8837
96.6902
168.064
212.134
160.255
66.0207
91.4513
97.2668
204.713
168.289
140.485
53.1396
50.47
150.712
60.7599
57.5496
156.774
151.42
149.724
61.1756
52.545
57.9909
157.535
143.687
307.878
228.319
287.32
260.867
323.773
338.374
228.411
268.3
244.472
244.619
313.981
287.371
307.503
228.022
252.027
315.572
248.502
257.082
246.621
291.036
312.244
229.918
332.215
260.475
324.758
331.139
320.722
283.374
267.115
334.434
291.03
272.162
262.615
333.025
323.703
284.602
226.074
226.151
232.579
223.203
216.222
228.269
232.195
229.676
235.186
234.615
227.269
223.551
217.081
229.049
265.918
239.365
243.335
256.69
261.418
238.867
245.229
248.3
245.342
262.535
240.881
257.538
262.401
239.876
362.143
284.486
328.16
319.452
331.718
304.719
348.571
348.306
343.38
329.048
316.834
337.684
345.553
324.396
336.457
352.419
356.476
351.126
339.749
351.818
347.784
357.237
335.709
342.541
333.627
343.568
330.443
342.134
346.551
291.668
314.512
299.787
308.681
315.217
328.233
318.683
353.408
359.924
352.553
353.977
362.162
356.967
363.067
318.512
342.103
329.345
341.462
327.874
327.373
351.614
336.232
320.165
327.641
338.607
316.051
343.364
324.986
349.041
340.059
313.981
305.227
346.865
324.796
353.438
122.546
200.475
276.269
282.031
129.56
207.483
216.376
103.412
67.5078
20.8799
9.47805
100.647
70.088
22.0317
282.572
129.927
202.133
210.627
278.148
207.932
216.903
20.1294
66.2457
98.9279
102.734
9.34242
69.6342
21.7351
147.435
273.708
387.606
287.391
237.194
158.961
405.4
288.437
391.841
236.963
152.834
159.661
280.168
404.915
28.5083
128.653
105.725
138.166
33.0317
48.5318
114.246
138.923
108.347
33.4547
44.3526
49.0071
131.573
114.99
1.36237
0.0685073
0.0212618
0.00169308
0.0261966
0.0864893
1.11335
1.37789
0.00171196
0.0717437
0.0221727
1.16178
0.0264875
0.0874913
6.7859
0.224718
0.133498
0.00710007
5.37125
0.180828
0.300962
6.90426
0.00724382
0.241024
0.144515
0.185064
5.71956
0.306846
7.49927
0.153699
0.231547
0.197804
0.304568
0.00695791
0.00528353
6.41769
0.161837
0.245872
0.200402
0.309406
0.00706084
0.00559069
756.948
8251.98
485.025
406.939
2585.16
792.194
956.129
537.521
1324.67
1456.63
663.074
747.311
3978.44
792.089
1082.35
2007.39
2306.37
2007.14
133147
8251.28
4346.73
976.258
1125.24
1129.35
467.624
380.512
1962.46
483.223
892.055
800.233
523.436
444.701
416.857
562.367
451.977
655.423
8378.89
1036.84
2152.3
1926.09
132589
10218.8
5225.94
1512.59
684.921
1136.67
1388.05
793.18
3684.44
801.737
1230.5
492.449
498.624
1188.19
373.201
1751.59
491.799
696.869
417.713
462.211
814.008
419.084
573.233
462.814
9271.46
6264.7
6598.44
35367.2
12241.2
25561.4
4836.44
5258.69
3929.05
2048.65
3952.65
3362.62
10907.1
3297.76
1149.6
2014.96
975.645
1256.22
1788.94
876.404
1246.2
1145.99
959.794
2033.43
1324.24
873.567
1263.84
1863.32
1040.2
719.259
1192.59
759.382
1014.77
1057.16
675.522
1477.03
2811.43
3088.71
1883.76
1650.78
2359.3
1771.65
4798.65
3204.04
2578.43
1715.5
2768.46
2344.81
6526.49
6078.15
4283.57
4284.2
2083.33
2941.48
7903.93
2941.61
4798.99
3204.83
2580.38
1714.75
6526.89
2344.97
2768.63
28284.6
72495.3
72495.3
58797.1
49290.8
49507.3
49290.9
9271.91
6597.08
6265.01
35367
4836.44
25561.7
12242.1
7848.09
4256.37
4258.78
22494.4
9286.83
3019.15
9287.99
3000.09
1327.32
1427.65
1326.63
2050.17
1747.81
2049.12
770.374
1427.66
706.862
1099.64
1241.67
648.072
783.686
771.423
710.5
1425.32
1099.46
787.292
1242.1
648.043
582.794
386.019
566.92
387.444
386.823
555.632
571.24
850.393
1633.48
1631.99
943.247
924.202
1570.02
920.228
12480
8078.28
6631.45
34404.7
4463.54
15663.1
13133
3384.63
1510.27
1464.1
1441.82
2074.21
2068.27
1843.65
4652.96
3540.77
1843.43
2724.93
3191.94
6617.88
2592.94
4721.96
1825.34
3591.91
2886.13
5618.85
3011.12
2520.33
18704.5
77155.2
104679
80263.7
79108.6
43464.1
29492
11506.8
7533.09
5530.45
23928.2
17504.2
16844.1
4531.06
8638.86
3689.64
3571.3
14683.6
12021
12628.6
3206.74
1225.05
1035.66
1403.71
2281.41
906.808
1315.53
1839.6
1211.19
1335.65
2033.06
976.476
1304.09
1835.78
918.184
1049.84
749.804
1152.86
756.346
1140.88
1147.46
713.92
1528.28
3068.81
3115.35
2105.67
1647.86
1757.63
2569.31
820.084
1201.44
737.546
1443.84
703.232
820.042
1348.22
814.472
1164.86
1381.69
717.218
808.485
1353.11
687.367
601.582
395.653
559.899
392.266
579.058
573.573
398.36
888.042
1699.24
1691.93
925.195
897.743
888.477
1570.19
176.88
10.793
288.275
52.7623
64.5909
587.107
323.78
296.801
347.402
666.264
604.138
239.642
207.511
31.3479
240.619
272.596
352.988
332.989
421.719
360.068
433.405
349.671
422.148
407.864
336.222
327.093
331.944
331.328
323.161
322.457
301.891
309.39
1027.62
910.87
586.086
880.269
570.745
534.095
773.011
343.824
335.392
335.294
325.044
325.763
299.222
291.386
15.5475
226.548
540.835
0.000536295
0.44278
139.863
8.04383
3.82201
167.727
204.78
0.00311282
0.000368827
5.4781
1.51069
259.52
319.241
387.587
352.509
205.875
282.939
271.956
342.612
369.929
415.161
368.638
232.004
305.319
296.112
230.076
294.235
287.315
250.22
187.785
260.854
178.791
260.79
314.669
306.628
260.648
209.943
199.035
272.283
424.967
732.801
509.046
459.931
496.784
366.49
635.799
480.977
789.017
543.59
478.954
547.919
406.455
662.446
222.904
274.857
284.099
243.681
152.162
230.015
170.255
253.956
296.512
304.26
254.012
172.767
190.079
240.72
193.894
119.098
49.4201
128.663
122.042
204.109
113.288
295.988
117.996
135.534
147.153
215.439
224.822
199.632
299.159
148.053
217.08
138.072
204.466
120.904
65.8763
194.2
128.961
122.173
119.95
113.633
49.5797
53.1854
395.385
203.041
397.695
421.9
311.983
291.984
533.753
399.769
424.899
314.287
407.367
298.812
207.469
293.903
185.215
43.7488
87.6959
96.142
113.767
167.744
105.312
185.209
96.1824
113.789
87.7748
105.337
43.7728
31.3949
337.263
337.895
312.76
329.754
781.746
584.304
609.055
1355.79
354.352
291.091
309.854
310.164
359.148
330.025
307.568
347.237
341.293
305.851
302.338
346.431
297.001
370.537
310.635
304.043
320.166
317.547
298.225
310.739
320.124
308.873
1407.35
572.76
552.01
1333.96
565.239
590.691
1268.63
352.078
338.587
335.989
329.11
343.809
337.428
352.631
399.365
374.256
314.872
399.683
351.417
426.013
330.09
320.367
313.579
324.882
329.909
330.765
336.488
320.366
382.64
361.298
300.626
392.753
337.57
411.103
322.966
301.07
297.983
309.302
322.14
316.674
322.076
312.566
1164.51
1276.36
594.087
610.096
1046.63
611.222
1170.54
345.286
356.633
342.032
345.045
356.929
347.462
359.033
324.028
325.953
341.807
337.09
339.178
331.659
351.487
1092.69
1229.12
579.205
600.913
1001.62
590.296
1146.82
422.308
350.769
360.44
410.068
424.405
434.102
347.897
332.9
302.111
323.38
331.99
322.524
331.327
327.08
606.498
537.72
895.115
915.766
575.346
587.619
1038.83
343.531
324.532
299.052
335.21
325.373
335.122
352.773
111.433
299.482
213.008
113.204
76.7856
37.4688
179.156
9.60371
56.0605
52.3503
9.63312
0.505977
10.8669
0.42794
46.8432
69.174
125.262
47.7832
0.889815
7.30192
15.8275
269.626