/*--------------------------------*- C++ -*----------------------------------*\
  =========                 |
  \\      /  F ield         | OpenFOAM: The Open Source CFD Toolbox
   \\    /   O peration     | Website:  https://openfoam.org
    \\  /    A nd           | Version:  9
     \\/     M anipulation  |
\*---------------------------------------------------------------------------*/
FoamFile
{
    format      ascii;
    class       volScalarField;
    location    "0.0006";
    object      T;
}
// * * * * * * * * * * * * * * * * * * * * * * * * * * * * * * * * * * * * * //

dimensions      [0 0 0 1 0 0 0];

internalField   nonuniform List<scalar> 
6315
(
840.647
167.276
839.691
173.873
880.625
888.808
194.958
191.937
431.76
435.879
838.504
850.488
442.381
435.312
846.197
185.535
184.044
169.999
167.859
186.508
172.081
184.405
262.731
842.241
262.661
879.731
196.402
430.364
841.281
180.145
171.592
180.3
175.743
171.182
173.879
185.775
451.21
868.303
272.286
264.444
887.865
197.465
856.037
463.4
883.284
460.549
440.833
868.966
452.645
863.113
184.881
173.929
175.309
180.917
175.981
171.745
173.981
192.557
171.408
172.756
186.795
168.466
189.722
172.224
172.453
173.626
172.346
174.543
173.154
174.089
172.128
173.421
193.935
176.46
192.377
175.94
188.443
174.407
172.067
189.319
171.355
186.349
186.427
171.764
171.836
171
168.784
171.281
170.449
169.875
171.207
167.655
169.814
166.4
168.441
167.735
168.322
168.735
166.402
171.036
170.822
172.013
170.233
170.652
170.9
169.668
489.514
239.157
272.473
517.571
528.253
252.793
480.292
489.248
516.92
239.162
272.526
479.621
252.694
528.049
708.175
883.26
642.212
884.236
682.46
683.822
892.205
374.1
201.278
201.314
345.022
357.651
210.957
358.277
170.442
174.795
169.683
182.156
169.386
177.511
171.382
171.193
172.241
172.233
171.894
171.314
172.674
171.269
170.444
169.67
174.899
182.186
171.385
177.491
169.375
174.146
175.687
174.781
175.691
174.582
174.59
175.324
172.39
170.861
170.905
173.592
173.053
171.718
173.044
172.46
172.352
173.63
174.554
172.137
173.172
174.091
170.962
186.102
169.694
185.835
170.741
184.112
170.405
507.925
283.937
537.36
247.252
551.564
496.387
260.782
501.602
279.028
241.058
523.415
485.669
542.795
257.712
727.101
904.343
648.323
894.698
700.648
691.702
914.397
384.447
205.183
202.632
347.757
367.435
361.805
215.11
172.399
187.27
172.832
177.951
173.039
173.118
180.797
173.233
175.34
174.041
173.592
174.139
173.62
173.701
173.895
174.433
175.122
175.23
174.408
174.337
174.879
171.515
184.545
175.432
170.124
171.619
179.523
170.985
174.592
176.129
175.027
175.739
175.161
174.684
175.655
173.016
172.615
171.386
173.866
173.788
173.2
173.587
173.281
174.186
172.584
174.576
173.278
173.027
174.492
173.42
174.076
172.332
173.012
171.856
173.711
171.854
175.733
190.047
190.719
171.966
172.889
190.823
174.16
172.033
168.762
169.673
168.099
169.617
169.397
169.668
172.411
172.894
171.075
170.481
170.072
171.969
171.712
1476.81
1439.7
1029.83
862.824
856.481
991.304
298.981
523.412
890.634
1069.82
1087.45
1196.22
1209.27
1341.48
1331.19
948.612
1192.62
1126.08
1292.38
1240
1366.29
1407.76
469.811
1336.7
282.145
1191.39
636.703
434.902
174.708
168.675
166.738
152.779
152.329
157.226
158.862
196.91
191.07
189.959
155.929
152.724
178.13
164.232
213.88
257.955
461.307
233.276
225.332
336.681
657.508
691.085
314.868
259.427
181.103
187.294
285.354
482.94
523.571
264.895
525.194
255.381
311.59
394.493
882.687
767.009
507.098
344.65
251.171
205.251
340.79
751.104
612.038
451.398
569.896
1210.33
848.606
940.711
883.479
968.205
534.438
650.637
1055.34
1255.1
1110.45
955.039
1025.06
779.871
1256.7
1450.87
1271.3
1443.89
1439.94
1436.57
1437.75
1331.14
975.765
1334.6
1335.41
792.809
774.03
1337.48
1308.36
1517.17
1376.7
1455.29
1362.88
1416.12
1470
1343.89
931.502
1340.15
1323.47
637.146
722.845
1294.84
858.242
653.435
565.558
1141.96
450.164
1123.4
997.177
1093.74
433.527
398.162
410.506
805.91
826.846
887.173
863.506
494.984
488.61
437.793
939.888
869.526
933.841
1002.71
683.673
533.226
510.078
979.679
1072.07
1088.79
958.487
752.989
689.753
588.558
1021.98
1178.71
1123.92
1083.32
1137.59
1139.04
1149.8
1184.81
1148.38
1172.31
1143.1
1207.94
1136.68
1172.83
1207.69
1108.15
1132.95
1241.01
1233.66
1281.73
1136.99
1082.93
1288.41
1223.21
1129.2
1253.68
1320.52
1071.22
1053.36
1301.61
1109.53
1280.55
158.68
309.398
160.808
444.377
156.298
151.199
235.165
271.938
157.933
154.241
153.538
153.578
155.643
154.324
153.999
151.627
153.728
153.993
152.764
152.676
153.18
152.354
158.105
153.847
153.223
154.86
154.299
153.394
154.965
230.41
220.394
223.576
169.462
169.829
172.745
171.778
166.909
152.619
152.466
151.802
157.993
155.326
152.141
248.15
246.519
231.149
181.398
175.172
171.285
175.129
324.335
261.403
253.757
195.946
192.439
179.788
178.034
363.201
328.208
281.258
205.495
227.943
196.116
184.522
983.435
194.688
937.116
170.923
890.906
922.768
195.312
191.56
195.889
169.132
195.861
173.237
194.898
197.016
171.983
465.768
882.615
454.206
472.755
895.852
471.017
902.413
192.216
173.188
174.244
196.548
173.23
196.778
173.843
192.015
194.368
168.553
170.518
173.127
194.364
171.926
179.752
194.366
175.417
198.287
177.966
196.601
176.83
175.444
174.733
173.948
173.377
173.213
173.593
175.27
175.273
173.725
174.311
173.373
173.777
174.001
174.196
175.275
172.22
174.891
172.487
173.933
173.21
172.969
194.034
164.271
166.466
192.205
165.628
193.561
169.394
480.213
905.095
471.44
896.964
468.544
475.283
910.671
927.511
488.416
484.381
479.038
909.133
476.844
916.293
954.759
510.971
496.677
946.795
492.117
483.635
928.074
1044.44
159.065
198.915
972.384
195.791
777.346
218.514
672.316
179.278
163.447
159.377
153.823
206.935
173.249
293.858
201.445
196.057
166.8
168.175
198.503
164.745
197.647
163.577
165.105
161.419
162.726
157.19
160.35
158.898
158.366
196.258
163.934
164.904
207.724
161.824
201.015
162.017
161.073
157.743
159.389
156.146
155.553
155.717
156.965
958.559
505.975
498.919
538.908
1013.56
527.771
1032.81
160.308
156.944
156.104
155.938
153.594
156.771
153.055
175.961
246.229
237.763
209.381
162.392
205.764
162.547
170.308
171.798
169.14
157.186
157.923
157.618
157.241
999.464
544.035
520.066
1129.43
598.056
560.897
1070.29
156.813
157.919
154.767
155.967
157.781
155.16
153.598
188.995
318.808
267.855
238.427
172.989
218.059
164.488
1209.42
1185.61
652.934
593.731
1093.02
578.562
1116.21
181.552
202.734
179.357
164.872
165.842
158.845
158.668
192.597
179.87
175.761
158.28
160.25
157.722
162.452
712.411
1314.2
1254.71
1225.82
674.07
623.784
1160.46
226.501
227.117
192.379
171.148
188.217
161.401
169.312
161.336
168.761
161.618
156.023
173.674
166.574
169.121
160.653
167.685
166.778
166.108
171.645
164.46
170.002
169.497
174.453
172.644
173.594
170.671
173.486
172.633
172.315
169.18
172.371
164.031
166.719
170.153
167.73
170.241
171.219
164.305
166.27
166.893
163.693
168.809
161.969
174.554
174.266
174.609
173.705
173.942
171.613
174.978
175.874
174.509
174.512
173.642
174.301
174.438
174.789
174.387
174.242
173.906
173.357
174.086
170.882
174.562
174.417
172.471
172.733
172.824
173.12
173.343
171.111
163.964
159.624
161.881
163.573
161.333
164.693
167.137
162.98
166.335
156.69
158.344
161.418
163.996
159.279
162.856
159.211
158.277
164.158
161.184
165.764
159.867
158.164
159.619
156.859
158.836
156.133
161.523
157.757
1219.52
893.281
325.95
1208.53
320.56
869.36
504.256
1167.14
672.005
387.326
309.694
796.855
454.882
1080.88
1413.21
287.926
427.218
287.926
288.139
287.926
287.927
287.926
289.504
1217.75
745.168
910.53
602.328
480.776
330.366
296.218
287.926
295.9
287.926
287.926
287.926
287.926
287.926
854.331
290.226
291.98
343.854
317.435
288.803
287.987
303.86
287.969
291.249
287.935
288.542
288.04
287.927
358.699
288.176
300.775
287.954
289.138
288.132
287.93
288.191
288.04
288.107
287.932
287.93
287.929
287.926
287.957
287.931
288.326
287.939
287.926
287.927
287.926
288.007
287.95
289.183
287.947
287.926
287.926
287.927
975.321
980.355
902.323
1553.13
823.366
658.22
1317.99
494.265
654.248
303.174
657.709
299.92
287.934
861.13
1949.53
1115.24
1271.73
288.155
1188.28
1553.62
1319.2
535.402
1356.23
795.536
228.025
1617.45
1702.53
1259.17
2129.82
638.926
2320.6
1279.96
1410.7
918.244
1248.68
581.555
395.126
1216.36
1045.04
167.812
201.406
215.196
334.681
322.09
369.797
559.204
305.9
577.064
588.889
287.936
287.931
287.935
287.931
566.568
287.928
287.926
382.567
481.999
287.936
287.93
1440.07
1115.85
1552.2
287.997
642.263
1516.94
359.8
1553.88
944.43
288.229
1201.15
1538.79
823.688
1553.36
1002.48
1546.09
1295.62
777.308
751.728
287.937
291.794
371.442
881.796
576.524
925.641
624.172
840.403
1104.17
306.062
797.063
538.85
811.05
537.034
797.763
1036.69
436.328
970.11
627.292
1017.85
673.72
874.523
1168.33
1117.8
985.84
1134.85
1321.51
1456.3
1566.61
1423.3
1073.83
920.005
1060.64
1266.28
1250.65
1341.59
1363.54
1201.24
564.681
291.624
287.927
1546.7
874.633
1096.96
287.93
287.982
422.095
521.093
287.929
345.527
287.926
1273.03
604.544
1470.74
287.929
309.832
780.816
288.146
287.926
287.926
295.082
340.298
287.928
317.691
287.926
287.938
2442.64
902.139
2143.42
1804.94
1811.95
360.617
758.766
1533.65
1540.01
287.927
534.981
341.704
300.825
991.542
1109.17
1207.39
1375.73
1289.94
1370.97
1437.44
1469.9
1642.52
1367.33
1876.52
1659.9
1760.76
1961.51
1191.5
1152.44
1247.17
1367.09
1412.21
1452.41
1574.76
1453.04
1230.33
941.413
1111.21
1571.79
1361.33
1391.12
1095.29
1068.16
828.596
1054.44
1534.93
1307.8
1278.05
1075.46
1148.95
851.924
1075.24
1551.52
1295.39
1355.36
1473.2
1421.96
1295.8
1703.01
1588.39
1814.66
1534.19
1238.64
1214.1
1380.78
1435.07
1502.82
1477.29
1463.91
1051.74
1066.01
1088.22
1277.08
1304.02
1315.83
1532.36
1127.54
1256.13
1364.81
1428.34
1441.97
1457.62
1489.97
1380.76
1469.54
1437.98
1504.13
1448.97
1365.64
1311.19
1783.09
1799.47
1603.56
1902.1
2243.67
2057.37
2090.56
1516.8
1606.74
1710.63
1750.99
1151.59
1518.66
1522.49
1336.47
1472.08
1404.97
1451.42
1486.03
1481.91
1489.51
1440.13
1199.66
1423.19
1426.73
1078.44
1060.37
1445.19
1359.96
1464.16
1482.55
1518.26
1507.23
1512.25
1476.2
641.214
633.733
614.581
307.202
305.063
301.818
303.725
647.319
641.251
637.95
307.633
307.167
305.735
305.795
2184.62
2025.69
1957.66
2026.74
2315.45
1994.1
2252.22
304.97
633.582
639.604
646.911
639.716
307.008
305.91
299.02
302.805
617.493
590.884
627.696
303.995
300.175
627.443
594.756
629.4
304.179
299.838
303.712
300.482
287.934
574.888
1624.89
287.926
287.966
287.929
289.001
287.926
287.926
287.932
489.677
1573.38
405.762
287.926
1447.34
1160.49
1434.15
1427.98
877.81
1010.74
1415
615.742
522.307
579.15
297.976
302.125
298.794
295.1
1353.58
1652.27
1553.3
1606.49
1562.65
1625.68
1519.74
1306.24
1656.07
1524.01
1624.69
1537.73
1655.12
1593.37
1311.45
1645.01
1535.37
1623.43
1542.84
1654.84
1545.19
1469.67
1538.63
1554.81
1245.21
1466.37
1389.87
1012.82
1545.32
287.926
829.973
287.932
287.926
287.926
290.157
1311.78
1632.92
1659.21
1648.12
1547.99
1536.63
1556.89
1580.73
1588.88
1569.4
1469.44
1583.56
1595.34
1285.93
1485.77
1417.4
1560.93
1372.68
1575.23
1557.79
1110.33
1345.54
1617.39
1546.19
1601.92
1547.25
1647.32
1513.44
1412.52
1591.5
1548.32
1432.2
1490.37
1440.29
1198.77
1466.48
1517.77
1535.24
1363.49
1441.3
1194.32
969.365
1613.57
1619.9
1908.26
1516.39
1838.18
1695.72
1236.61
1498.49
1517.15
1492.56
1423.7
1407.8
1107.58
1125.39
1759.27
1312.63
1050.19
941.523
1681.66
1346.12
1472.2
1378.94
1233.15
560.211
862.404
1215.46
839.537
1394.58
572.854
465.491
553.79
296.927
292.976
292.292
298.213
510.048
294.601
524.796
435.192
295.445
291.362
290.923
528.762
430.119
438.457
295.13
295.66
291.462
291.152
1551.49
1546.92
1561.82
1414.88
1508.11
1360.65
1097.86
1991.88
2334.5
2174.49
2376.12
2171.53
2182.12
2436.01
1509.26
1465.72
1488.92
1332.92
1393.73
1066.13
931.854
447.978
404.893
369.492
293.662
291.732
290.388
289.501
1532.98
1140.69
1518.01
639.91
1261.26
1114.41
482.055
298.33
287.93
287.926
287.926
287.926
287.926
287.926
2093.37
2380.95
1688.71
2270.79
2112.62
1900.44
2329.45
1364.58
1069.33
506.748
642.459
1182.4
783.52
1308.88
457.776
429.444
515.27
294.649
289.779
291.053
292.062
1334.3
596.138
1277.77
519.369
1228.65
1074.97
380.525
967.022
1258.06
980.427
603.674
1088.88
368.39
909.296
658.62
774.98
697.807
1030.2
870.528
1086.67
1132.88
1184.23
832.25
1107.31
984.805
1254.19
1160.67
1256.53
1348.98
1138.36
1201.98
1040.24
1366.71
1248.81
1297.36
1403.81
1251.69
1060.05
1278.53
1018.32
1294.82
1314.19
970.117
1132.47
1428.76
1301.18
1365.21
1480.43
1440.2
1450
1338.76
1005.19
1310.4
1333.8
779.643
1337.79
894.157
1284.18
877.632
1322.98
1326.29
586.1
1256.83
813.284
1317.69
1046.8
583.26
485.404
1267.33
1193.71
722.81
1486.15
1070.52
1457.37
484.291
1012.22
882.484
386.523
1016.06
405.972
359.433
302.384
714.453
604.189
295.616
1396.38
608.681
1303.61
413.57
1117.72
942.105
336.823
1580.12
1480.65
1441.98
1115.88
1187.14
945.726
514.844
1458.67
1449.87
1630.75
1565.14
453.22
1099.58
1091.57
1467.63
1573.02
1640.37
1473.5
468.144
1105.93
929.057
1331.62
1120.23
1550.61
1379.7
343.763
697.183
952.02
1440.25
1480.28
1623.04
1577.99
511.354
1185.85
1110.15
1608.63
1575.74
1660.38
1607.1
610.022
1259.01
1195.9
1386.23
1453.22
1582.46
1160.46
349.292
660.364
752.48
391.203
311.094
336.406
288.85
290.011
288.779
288.293
1260.21
729.501
1241.47
614.777
315.189
311.15
640.681
1138.13
1446.29
1364.68
985.972
742.319
632.514
343.971
1370.25
1329.21
1118.94
942.277
684.221
638.473
340.328
342.046
305.302
348.965
289.075
288.177
288.217
288.924
961.517
897.795
1467.46
1267.09
300.219
566.792
637.206
1112.27
402.767
305.951
790.713
290.339
307.282
445.803
858.602
1179.35
1374.29
687.406
294.46
448.297
319.634
656.271
319.501
297.604
458.421
288.589
337.239
290.727
304.006
305.629
350.38
289.102
288.19
288.989
288.223
920.612
1244.3
1444.71
869.707
298.176
543.292
346.557
786
409.221
1111.95
681.64
289.816
403.454
300.374
2124.99
2462.55
2258.39
1979.4
1943.17
1429.07
2354.89
1481.91
1391.93
1836.46
1297.37
335.96
659.951
749.633
2360.03
1295.74
2021.25
1716.24
1234.7
722.574
2173.5
990.179
628.134
1447.71
1008.08
293.828
331.838
542.58
905.165
334.896
884.133
461.237
292.049
291.515
479.635
503.228
329.526
928.646
693.219
288.767
349.836
299.613
332.867
300.139
295.607
288.119
288.725
288.427
288.039
675.672
1105.05
1211.07
561.075
294.366
304.238
434.667
676.064
320.217
830.362
417.402
288.778
290.305
342.078
288.378
287.936
288.37
288.333
287.935
288.331
287.935
288.288
288.176
287.934
287.932
288.273
288.193
287.934
287.935
288.336
288.311
287.936
288.365
288.336
287.935
287.933
288.158
288.253
288.283
287.932
288.186
287.934
288.358
287.934
288.305
288.22
287.933
288.266
287.932
380.029
244.854
1141.93
161.261
490.527
219.973
955.685
758.42
153.928
161.954
154.014
174.73
176.247
202.24
199.425
164.888
166.943
184.167
156.466
186.214
220.686
285.435
240.694
181.599
183.322
275.231
464.318
469.268
268.845
666.877
501.424
672.948
246.051
251.305
343.784
335.256
280.252
195.038
234.256
319.964
671.532
532.932
436.586
405.404
582.155
751.798
907.531
287.827
403.785
549.654
906.546
899.312
1115.84
537.47
810.383
803.63
532.769
1071.57
1245.43
1152.97
606.487
976.085
858.827
753.366
1054.51
154.402
902.175
151.686
177.338
848.075
162.892
899.087
984.371
189.423
186.127
162.403
148.015
154.117
166.7
152.951
161.234
150.719
181.273
158.197
181.167
166.001
184.517
162.359
177.399
167.905
184.824
167.813
163.691
186.907
187.894
164.323
159.788
157.586
160.718
165.721
161.668
164.217
156.135
164.567
161.325
167.361
162.248
163.382
160.278
165.657
438.033
866.211
444.682
451.709
858.53
445.612
875.584
467.249
463.299
878.086
918.94
475.538
456.611
895.423
151.356
153.969
157.745
157.167
157.09
161.096
154.078
157.259
158.545
158.21
154.704
157.742
162.329
155.318
1067.38
195.007
189.707
1390.79
417.002
1436.36
440.806
151.851
152.809
149.369
376.567
650.02
389.718
654.35
179.123
182.187
154.432
150.193
154.452
180.82
158.619
190.117
156.883
156.84
184.616
160.634
187.525
160.817
153.62
151.622
152.184
157.091
157.972
158.9
156.295
150.5
146.948
151.87
147.593
152.976
155.47
157.08
461.461
966.259
495.982
967.316
497.279
466.385
908.236
508.177
1018.08
527.859
478.028
955.312
493.351
927.308
144.998
149.54
147.181
146.632
150.589
153.641
150.684
151.044
148.429
148.469
155.121
151.491
154.587
152.001
202.483
156.547
155.004
228.859
174.439
169.227
242.762
190.414
152.474
149.621
223.058
166.407
166.3
226.386
149.365
146.997
146.594
162.096
160.552
160.559
162.562
151.265
151.606
151.017
163.782
166.084
162.538
167.231
552.931
1052.5
551.039
628.692
1154.11
633.257
1152.92
150.406
154.153
148.891
168.135
192.406
186.393
169.887
561.261
1103.78
584.889
639.39
1200.8
1165.8
668.143
151.844
157.762
155.405
169.535
195.835
187.69
173.738
307.594
222.997
558.589
383.219
214.931
320.392
531.952
317.001
234.658
391.032
605.656
218.942
347.674
548.56
206.55
208.439
394.726
344.151
201.176
214.674
361.27
208.425
215.45
348.45
403.043
203.611
220.01
363.922
759.643
1305.97
1413.27
1001.69
1276.4
795.332
957.822
228.18
323.068
474.404
606.796
296.096
239.697
435.596
229.621
326.743
608.402
479.825
297.503
243.724
437.352
746.65
1259.85
949.61
1400.89
753.122
1264.11
941.611
735.687
274.702
175.46
187.969
1104.53
202.824
943.737
1066.16
190.494
157.829
157.008
213.331
154.687
162.417
152.598
157.793
152.461
189.356
164.254
166.605
191.997
162.596
189.148
162.13
164.903
160.237
162.567
157.461
160.541
159.1
158.603
489.729
919.438
477.37
507.837
945.815
489.59
980.262
159.462
155.206
155.852
156.173
153.971
156.525
154.113
197.739
162.913
164.014
193.237
163.223
196.607
162.973
159.568
156.11
158.284
160.633
158.927
157.279
158.53
859.231
1316.33
1696.22
170.311
888.751
1158.21
1532.36
156.893
195.576
195.595
160.367
205.114
190.804
160.693
152.235
152.027
151.185
154.736
156.696
155.979
155.161
1031.32
577.926
535.833
977.613
507.097
535.149
1031.09
541.991
1130.74
992.942
557.024
598.404
513.912
1043.28
152.751
155.562
157.372
157.452
155.451
156.437
153.726
154.673
149.66
150.774
153.895
150.939
153.931
151.078
174.246
156.855
157.025
156.586
156.7
154.313
155.079
270.885
164.614
220.316
163.841
202.748
225.327
160.88
160.167
214.822
239.138
186.405
270.552
329.581
219.074
1297.4
1198.6
643.896
583.195
1210.2
655.479
1111.35
184.505
159.936
170.18
165.223
158.525
154.027
152.632
1228.88
623.164
678.173
1255.75
717.71
790.023
1321.59
404.112
196.966
289.516
453.414
528.47
664.952
311.978
716.436
552.765
739.452
274.584
415.852
547.136
388.503
1375.11
1307.04
754.886
891.914
1441.11
1024.22
1385.32
1195.26
1477.62
1080.92
1354.78
860.995
955.946
1412.7
1200.12
1104.83
976.913
745.879
878.005
1000.22
600.114
1492.15
1599.23
1333.44
1086.22
1536.47
1241.16
1471.31
1526.49
1258.4
1220.97
287.926
1038.19
989.396
341.281
1256.64
1231.3
570.444
1391.9
203.386
346.162
248.831
453.566
460.847
612.797
746.926
288.009
436.385
1421.79
1271.24
1266.58
288.013
442.935
1526.11
1425.27
288.314
1336.67
1224.55
888.25
288.345
367.461
837.628
622.672
870.613
645.22
918.899
1098.32
663.719
1118.96
788.368
1262.67
960.48
1057.27
1339.52
639.301
1096.37
782.503
1221.69
937.518
1044.63
1312.94
1423.8
1455.76
1204.03
1412.35
1449.05
1518.58
1513.83
1399.81
1140.66
959.125
1182.63
1563.75
1359.58
1440.02
1111.61
1235.88
944.062
1188.84
1563.66
1359.51
1449.8
1205.46
1428.73
1414.42
1460.79
1450.57
1520.49
1520.91
1440.78
1277.23
1268.71
1420.8
1436.15
1391.19
1381.92
1284.01
1447.75
1428.62
1423.14
1438.86
1393.18
1389.01
1461.91
1452.19
1223.75
1310.15
1510.11
1514.21
1509.43
1432.89
1440.53
1580.21
1571.71
1559.8
1565.57
1567.84
689.336
287.929
287.935
736.656
287.933
287.926
287.926
1327.89
1354.19
1527.62
1352.01
734.923
1322.3
785.24
869.137
921.248
1442.16
1237.9
480.197
1196.88
526.7
1355.82
1532.86
1529.76
1354.07
747.856
1332.98
787.886
1435.92
925.536
1444.39
1240.85
494.024
530.713
1211.73
1486.99
1283.67
1491
1103.44
551.604
588.098
1075.51
1128.59
455.678
1144.86
799.678
307.974
311.683
771.671
1285.32
1493.74
1493.13
1105.02
559.46
1083.32
589.839
1137.63
457.815
1147.4
801.972
308.871
780.315
311.985
892.286
461.011
1126.44
385.321
1116.94
1115.39
1125.71
462.07
387.702
1606.56
1052.9
1411.78
1339.04
553.431
1029.26
1100.57
554.556
691.667
702.263
394.379
383.205
389.411
791.803
784.071
800.118
780.878
1528.28
962.589
1214.39
914.35
281.904
910.52
181.902
394.516
382.293
387.662
788.948
788.985
779.228
800.755
448.212
414.975
406.752
821.472
900.985
834.78
884.651
448.132
415.201
405.732
819.93
901.144
884.401
835.014
1007.26
1613.06
956.802
2287.77
1569.03
2315.43
1345.21
894.33
795.18
1220.99
1410.7
774.542
1282.48
1136.73
185.469
292.258
179.36
272.282
260.752
495.032
530.192
178.014
287.306
270.343
277.626
259.058
492.306
523.729
533.979
713.025
686.933
993.855
978.02
1087.91
1101.41
534.356
712.484
686.933
992.815
977.935
1087.38
1098.87
1123.58
1121
1117.1
1125.82
1130.22
1117.99
1118.63
1119.98
1116.02
1117.93
1119.96
1117.04
1114.49
1125.93
266.235
151.078
145.82
712.6
155.864
718.376
151.34
180.263
148.493
147.214
150.85
149.395
152.56
155.516
154.588
153.684
151.888
150.241
150.531
153.534
156.558
157.401
177.944
259.889
177.594
193.105
336.737
195.12
323.588
152.507
152.753
147.773
164.494
194.175
190.331
164.782
153.996
148.995
148.965
165.668
197.797
191.7
167.914
267.516
260.45
178.503
194.079
338.538
324.241
197.718
229.224
481.363
346.779
684.983
328.272
235.424
459.067
230.439
687.199
351.777
485.103
330.172
460.438
238.673
1121.61
1181.61
1146.32
1139.2
1120.03
1174.81
1122.91
1141.76
1186.38
1130.26
1122.93
1151.27
1176.33
1124.97
864.386
796.951
943.657
1348.82
1256.2
1386.15
1222.35
808.939
731.478
752.217
1164.67
1201.95
1169.56
1192.06
831.338
1347.24
1231.72
785.7
926.006
1333.52
1213.06
796.219
1186.62
1182.53
724.64
748.209
1161.32
1164.05
555.826
986.352
587.777
864.307
1221.16
894.877
1204.99
980.045
887.771
580.908
960.088
553.019
861.38
1202.27
544.871
878.966
504.891
831.729
1169.51
864.633
1147.35
1165.14
858.823
539.849
877.352
502.884
829.278
1145.55
1087.41
915.909
1102.65
1209.03
1345.02
1220.53
1335.75
1293.62
1587.82
1248.88
1568.57
1830.32
1600.09
1810.81
1022.17
900.812
855.631
1216.89
1335.22
1238.83
1318.72
1216.23
1097.43
912.543
891.261
1085.58
1207.74
1333.61
1089.28
1275.54
1228.2
1097
1222.62
1272.58
1040.55
1233.01
1100.49
1223.91
1274.37
1041.15
1281.4
1044.46
1239.64
1555.86
1795.95
1577.85
1230.18
1551.96
1799.49
1049.37
1233.06
1331.18
1020.93
853.611
1214.81
1317.4
1637.23
1474.72
1325.1
1636.77
1361.86
1641.48
1474.88
1649.78
1497.47
1363.64
1643.58
1648.1
1672.84
1481.89
1399.28
1265.26
1252.93
1397.33
1299.29
1286.5
1410.36
1400.12
1426.68
1301.57
1268.62
1288.63
1414.77
1410.18
159.222
217.145
150.28
236.401
158.382
152.942
169.417
172.729
154.642
154.647
156.766
161.487
159.217
156.393
152.848
160.194
155.484
154.432
155.266
161.726
159.692
156.661
150.368
152.751
153.41
152.92
156.015
151.976
150.957
155.595
152.694
153.083
153.572
153.849
156.771
152.889
168.732
168.743
218.082
216.533
169.772
217.126
167.704
217.128
169.229
219.162
169.491
217.042
170.219
218.022
170.553
168.622
223.164
233.153
170.977
221.407
167.817
169.754
224.547
237.748
169.5
233.857
171.878
222.281
320.553
1171.05
582.19
789.128
161.676
332.174
182.106
151.114
150.735
157.689
154.588
150.244
151.006
160.014
166.521
153.8
164.102
152.098
164.644
153.162
182.056
220.477
215.16
176.424
150.052
153.999
174.366
189.91
259.914
287.104
196.636
185.113
376.476
207.479
230.033
454.956
214.056
201.203
166.776
228.587
558.969
371.478
335.301
424.388
282.743
221.568
284.854
770.359
587.596
417.135
408.704
545.35
261.416
318.727
897.732
517.826
652.46
442.234
876.587
972.609
1024.42
679.951
804.599
629.823
1521.41
1424.09
1170.05
1153.18
1523.94
1416.76
1402.23
1312.63
1294.68
913.758
715.125
1317.48
1294.82
922.249
1155.7
1526.09
1431.31
1417.96
1175.91
1419.76
1404.81
901.591
1286.1
1310.25
1310.32
711.673
1292.14
918.19
1999.86
1868.14
2106.34
1869.92
2305.84
2019.29
2113.91
1885.63
2142.71
2312.27
2031.02
2027.89
1910.16
2125.67
1119.37
1419.45
1446.3
1419.91
1160.96
1255.56
1451.71
1421.97
1454.5
1164.09
1236.07
1257.96
1427.96
1453.58
406.395
293.847
289.485
288.032
289.859
295.402
387.109
407.568
288.033
294.146
289.559
391.166
289.882
295.488
719.84
309.778
300.546
288.456
665.862
305.005
317.125
723.403
288.468
311.43
301.637
305.398
681.086
317.674
734.521
302.223
310.213
306.232
317.131
288.443
288.316
699.684
303.002
311.637
306.462
317.573
288.451
288.341
167.101
174.082
166.922
157.428
174.354
170.685
170.982
164.975
171.687
170.529
165.332
168.506
172.368
168.318
169.075
172.905
172.05
172.907
175.983
174.08
174.154
167.283
171.733
171.744
164.49
167.736
172.5
166.915
169.007
168.78
161.877
161.067
160.561
165.25
164.092
165.64
175.455
169.937
174.456
173.22
176.121
174.282
174.191
173.35
168.708
171.761
172.045
169.328
172.677
169.544
173.327
166.332
168.094
172.096
167.688
172.521
167.485
168.216
160.264
163.48
169.643
161.548
166.314
164.927
173.557
173.792
173.791
174.691
174.159
174.245
173.383
174
174.33
176.399
173.982
174.981
173.963
174.607
171.126
172.161
170.762
171.636
172.144
167.7
171.318
170.905
169.353
171.664
171.272
167.265
170.355
172.13
170.35
167.107
168.118
168.302
168.719
169.391
166.033
172.502
172.492
172.273
170.607
171.016
172.243
171.446
172.373
172.587
172.811
174.004
172.467
172.871
173.021
172.465
172.572
172.573
173.601
172.699
172.924
172.7
172.372
172.589
172.816
174.001
173.024
172.868
172.462
174.907
175.835
175.834
175.645
175.39
175.397
175.39
173.558
173.79
173.791
174.693
173.38
174.246
174.159
173.186
173.879
173.881
174.404
173.933
173.466
173.935
171.694
171.001
170.869
170.997
171.407
171.755
171.4
170.514
172.151
170.359
171.903
172.224
167.484
171.112
170.512
170.37
172.159
171.902
171.123
172.22
167.489
170.188
167.011
168.978
167.001
165.337
169.602
169.588
172.245
172.274
172.271
171.194
171.708
171.924
171.703
174.551
175.25
175.208
175.356
175.042
175.027
174.974
173.112
173.555
173.09
172.515
173.445
173.064
173.085
173.434
174.063
175.775
173.905
174.11
173.872
174.133
172.956
174.902
172.85
173.119
173.191
173.289
173.641
175.323
176.254
175.914
175.746
175.778
175.788
175.496
174.123
174.435
174.013
174.797
174.664
174.328
174.185
173.718
174.447
174.041
174.464
174.322
174.059
174.166
173.223
172.909
174.265
173.549
170.814
172.568
174.276
172.66
172.739
172.541
171.11
171.773
173.253
169.16
172.216
169.657
168.854
169.022
170.2
170.484
168.345
173.979
173.297
172.863
171.104
172.036
172.355
173.446
171.84
173.719
171.978
173.335
169.343
172.087
173.52
171.604
172.905
172.528
170.687
171.381
173.108
168.598
170.829
167.48
168.928
167.074
170.05
169.707
165.973
172.966
172.859
172.543
171.212
172.268
171.968
172.805
2477.45
818.999
2471.92
1331.62
1477.3
1850.04
1548.49
1381.52
494.249
1740.47
990.702
1361.39
1435.25
1195.84
1401.11
1327.09
628.296
437.312
620.751
812.313
910.063
831.84
940.172
1212.55
1122.02
433.299
749.461
742.105
766.796
761.412
1038.17
1065.7
1427.35
1482.79
1154.57
1501.01
1184.51
1370.24
1593.14
497.704
909.763
795.512
928.88
815.074
1069.31
1157.72
981.823
1621
1996.6
287.964
356.117
2394.48
780.659
592.271
1567.81
1543.93
288.168
287.949
648.95
435.04
1421.39
1144.55
1249.44
1505.04
1616.99
1392.46
1790.27
1116.08
1477.37
1195.16
1484.06
1624.95
1778.06
1383.97
1327.91
1086.78
1059.09
1300.89
1540.27
1335.35
1503.58
1292.38
1061.1
1031.26
1291.46
1544.46
1503.84
1327.3
1692.37
1631.6
1417
1631.91
2065.85
1940.35
1786.01
1587.9
1575.21
1347.36
1597.79
1990.37
1887.62
1749.87
1354.75
1186.6
1094.48
1327.77
1561.88
1413.6
1517.06
1317.47
1150.47
1062.58
1316.1
1562.5
1513.17
1399.58
1504.38
1565.04
1308.59
1585.21
1547.85
1543.35
1533.47
1782.85
1909.16
1672.57
1696.96
1955.91
1622.3
1940.99
1774.29
1698.69
1955.46
1678.5
1940.86
1919.41
1487.31
1506.26
1586.12
1548.32
1568.2
1535.71
1309.93
1335.17
1905.99
2292.56
2301.86
2287.02
2167.45
2169.37
2015.54
1888.76
2280.66
2163.02
2284.92
2157.42
2294.68
2469.3
1515.91
1282.71
1528.88
1548.78
1546.34
1565.56
1532.69
1518.17
1549.23
1546.8
1530.04
1534.37
1282.58
1195.37
1116.33
448.537
305.323
259.731
1577.53
871.393
842.332
1197.67
220.43
1161.86
1065.29
279.543
355.275
234.392
157.347
154.152
204.282
164.606
162.956
225.41
166.802
268.695
188.081
156.947
157.428
156.111
159.271
159.586
176.542
175.059
1110.39
643.242
582.77
1207.45
652.809
731.803
1294.36
165.574
159.215
155.789
162.466
172.212
185.777
214.719
380.833
264.571
185.605
377.413
479.238
601.401
258.402
231.363
173.007
173.996
234.554
423.682
427.393
231.311
432.153
284.224
197.428
392.556
517.096
638.439
271.006
270.1
183.867
186.224
246.744
464.033
473.707
241.238
1370.82
1292.78
728.207
838.333
1420.96
976.245
1368.32
262.991
208.68
181.814
263.483
614.976
484.622
356.392
327.742
198.554
238.504
283.707
684.41
542.091
385.622
1371.92
1301.43
746.903
847.083
1423.81
997.504
1367.47
607.455
821.417
808.346
1198.21
916.263
901.468
487.859
438.457
1039.98
766.509
748.818
764.966
742.904
432.478
977.855
1351.06
1483.23
1477
1158.59
1146.19
1418.97
500.994
937.123
1072.41
912.328
821.795
797.408
633.562
2189.53
2468.69
2302.67
2197.48
2135.15
1670.66
2480.39
785.411
1353.94
1325.65
786.158
338.287
821.084
329.745
1572.61
1507.34
1934.22
1583.63
387.728
873.364
988.721
2462.25
2037.7
2267.37
2153.41
2010.86
1498.37
2460.2
1413.16
1358.2
1861.15
1516.87
341.818
707.044
922.238
1267.35
617.281
1244
731.512
316.186
311.446
764.89
733.461
1219.96
1301
733.406
300.183
317.545
592.386
1103.93
560.407
1210.32
675.428
294.41
304.259
535.312
296.738
301.355
601.928
461.63
291.379
292.972
288.011
288.13
287.933
288.23
288.148
287.929
287.931
288.065
287.978
356.499
288.948
321.425
287.948
288.399
289.465
300.826
295.277
572.907
424.561
288.002
290.405
292.525
304.798
291.624
289.076
288.187
287.942
288.024
287.977
1225.84
303.017
298.059
554.695
627.263
300.78
288.242
1046.04
297.624
291.576
484.243
363.334
291.432
288.064
376.152
289.994
376.626
295.766
545.266
295.86
288.086
335.297
291.496
414.524
288.658
312.808
289.969
287.98
1130.72
289.798
834.202
518.118
440.512