/*--------------------------------*- C++ -*----------------------------------*\
  =========                 |
  \\      /  F ield         | OpenFOAM: The Open Source CFD Toolbox
   \\    /   O peration     | Website:  https://openfoam.org
    \\  /    A nd           | Version:  9
     \\/     M anipulation  |
\*---------------------------------------------------------------------------*/
FoamFile
{
    format      ascii;
    class       volScalarField;
    location    "0.00155";
    object      alpha.c4;
}
// * * * * * * * * * * * * * * * * * * * * * * * * * * * * * * * * * * * * * //

dimensions      [0 0 0 0 0 0 0];

internalField   nonuniform List<scalar> 
12470
(
0.658058
0.670714
0.660888
0.645841
0.648356
0.623603
0.631947
0.62806
0.640595
0.675229
0.673833
0.676878
0.624176
0.648288
0.547709
0.622366
0.661375
0.652442
0.652938
0.655534
0.646729
0.647291
0.65496
0.677337
0.671743
0.67223
0.666509
0.671921
0.671068
0.66592
0.659828
0.649778
0.651431
0.645545
0.65181
0.643627
0.653757
0.646989
0.647459
0.648838
0.6428
0.642042
0.64335
0.641503
0.675676
0.677001
0.677463
0.669474
0.671718
0.670418
0.667857
0.675931
0.668986
0.670731
0.668794
0.662065
0.66464
0.662706
0.674059
0.672996
0.675913
0.666807
0.651197
0.656739
0.663388
0.647393
0.64454
0.646049
0.64165
0.638568
0.639808
0.640376
0.659539
0.644335
0.663079
0.660353
0.645478
0.637314
0.658532
0.64875
0.640024
0.639614
0.632947
0.632258
0.640649
0.648118
0.638696
0.644015
0.627829
0.637229
0.630777
0.636541
0.646706
0.636223
0.635561
0.627419
0.629269
0.628602
0.636825
0.63497
0.65316
0.649073
0.637773
0.592327
0.621038
0.655716
0.637102
0.655437
0.632646
0.66032
0.655495
0.610539
0.6214
0.64929
0.634912
0.631608
0.624618
0.625977
0.627096
0.632786
0.633686
0.642544
0.607289
0.558873
0.585961
0.59725
0.616785
0.634487
0.636856
0.661237
0.655539
0.630574
0.643594
0.601205
0.546852
0.620195
0.62202
0.518121
0.622407
0.668641
0.453226
0.600928
0.270319
0.494654
0.647406
0.652052
0.644255
0.648722
0.640948
0.637355
0.643586
0.666109
0.660326
0.65536
0.656074
0.64831
0.618224
0.642317
0.664967
0.635969
0.642347
0.624323
0.632061
0.587108
0.577672
0.642354
0.63938
0.64055
0.636008
0.637197
0.633704
0.632599
0.646754
0.634447
0.640262
0.631974
0.617247
0.623678
0.633843
0.574295
0.646956
0.625668
0.568663
0.579213
0.61814
0.501905
0.638877
0.622983
0.633299
0.628247
0.606121
0.615326
0.628997
0.63512
0.548876
0.607283
0.560117
0.565174
0.490444
0.611185
0.631569
0.635497
0.636594
0.629196
0.622619
0.623168
0.628203
0.628671
0.621032
0.629761
0.625739
0.61558
0.615847
0.62476
0.58774
0.528706
0.596571
0.522843
0.433098
0.445502
0.511989
0.564268
0.505638
0.57439
0.514847
0.426998
0.438932
0.504077
0.620273
0.58771
0.587528
0.581805
0.603938
0.608536
0.612855
0.496974
0.521393
0.515636
0.342575
0.419811
0.573661
0.422137
0.620141
0.613038
0.598731
0.609401
0.608611
0.61249
0.619681
0.442207
0.348277
0.284862
0.349222
0.362768
0.362096
0.429987
0.671514
0.641841
0.430358
0.58758
0.67542
0.618227
0.667764
0.67963
0.683335
0.681429
0.680519
0.677746
0.678514
0.67679
0.674602
0.677183
0.662342
0.674117
0.663921
0.672908
0.668142
0.648864
0.678998
0.670169
0.675199
0.666955
0.675285
0.669975
0.656376
0.674814
0.662459
0.672623
0.659711
0.67134
0.666987
0.6461
0.597283
0.638508
0.66368
0.650909
0.555319
0.612637
0.610648
0.63713
0.641309
0.665761
0.654445
0.561824
0.615673
0.621091
0.655329
0.648626
0.668055
0.654937
0.570288
0.625102
0.617622
0.621687
0.498734
0.504532
0.505493
0.566115
0.572923
0.56594
0.661319
0.685831
0.667694
0.661841
0.677084
0.660351
0.659147
0.666411
0.665378
0.689519
0.689962
0.693665
0.688486
0.685079
0.695283
0.68904
0.667021
0.677578
0.667865
0.675499
0.666667
0.676492
0.668034
0.675701
0.666556
0.675093
0.676139
0.666542
0.666225
0.676054
0.694257
0.689296
0.695565
0.688986
0.688797
0.695798
0.694193
0.695112
0.694107
0.688673
0.688274
0.688476
0.693716
0.695661
0.663396
0.661782
0.663373
0.662486
0.660947
0.662426
0.660955
0.661914
0.661999
0.660464
0.660287
0.661878
0.661958
0.660458
0.692059
0.694046
0.695583
0.694174
0.693767
0.695759
0.692187
0.693445
0.694065
0.693683
0.691818
0.693715
0.695662
0.692095
0.666517
0.6659
0.675251
0.67591
0.677259
0.666815
0.676324
0.665011
0.67438
0.674739
0.666323
0.675774
0.666181
0.675856
0.685475
0.689253
0.689651
0.692152
0.687179
0.687437
0.691796
0.689831
0.689809
0.692307
0.686145
0.68821
0.692317
0.687777
0.662943
0.660114
0.661746
0.659658
0.661242
0.662198
0.660636
0.660726
0.658714
0.660312
0.66169
0.65984
0.66145
0.660121
0.687322
0.689553
0.687461
0.689441
0.692019
0.69213
0.690102
0.689417
0.687027
0.687352
0.692008
0.689694
0.691656
0.690002
0.655676
0.682827
0.668194
0.658347
0.664649
0.660201
0.658206
0.666648
0.672671
0.684274
0.681346
0.688562
0.688113
0.683027
0.693576
0.686977
0.666657
0.676285
0.676239
0.666426
0.676218
0.666569
0.676073
0.688434
0.693456
0.694395
0.691976
0.687973
0.687353
0.693026
0.661852
0.660315
0.661936
0.661593
0.660167
0.661799
0.659941
0.694599
0.691871
0.692867
0.691922
0.6912
0.693021
0.690156
0.665566
0.673892
0.675126
0.666362
0.676005
0.665894
0.675454
0.685999
0.688392
0.69034
0.687382
0.692151
0.69047
0.686221
0.673775
0.665536
0.664492
0.675579
0.663604
0.665988
0.675013
0.684328
0.6871
0.688441
0.689868
0.686658
0.68569
0.691069
0.659106
0.65995
0.660745
0.659871
0.661526
0.661058
0.659412
0.660743
0.657437
0.659561
0.659803
0.659005
0.661194
0.65911
0.68668
0.688329
0.690262
0.692151
0.69044
0.690369
0.688656
0.68517
0.686336
0.68826
0.689735
0.689039
0.690928
0.687933
0.678403
0.681074
0.685237
0.681713
0.685864
0.688134
0.684061
0.659835
0.670853
0.66277
0.671553
0.664542
0.662109
0.673729
0.654267
0.656798
0.658319
0.659864
0.656193
0.657695
0.658267
0.682901
0.68521
0.683537
0.684253
0.685868
0.688044
0.686341
0.676284
0.686794
0.68683
0.66876
0.683905
0.668559
0.690367
0.681761
0.690587
0.688956
0.690684
0.689061
0.686899
0.685205
0.685105
0.686567
0.690591
0.688726
0.688966
0.686798
0.685105
0.684878
0.681989
0.676388
0.682093
0.680313
0.674402
0.680218
0.6745
0.684162
0.68428
0.686947
0.682991
0.680137
0.680238
0.682882
0.684178
0.686585
0.686848
0.682892
0.679917
0.680141
0.682656
0.676056
0.67628
0.681987
0.680212
0.674194
0.6744
0.680001
0.678027
0.672027
0.675133
0.668971
0.675239
0.677921
0.672141
0.677931
0.668885
0.674946
0.671838
0.67515
0.67205
0.677716
0.678723
0.646792
0.671318
0.667677
0.683308
0.674653
0.682032
0.688921
0.689849
0.685179
0.686067
0.688185
0.687236
0.684373
0.683475
0.685753
0.683896
0.687567
0.683863
0.685847
0.682128
0.680199
0.679418
0.682289
0.686011
0.685014
0.682138
0.681212
0.678514
0.675556
0.680391
0.681266
0.673733
0.679528
0.678679
0.672887
0.680811
0.68153
0.683531
0.679821
0.674841
0.67708
0.677846
0.673329
0.677258
0.679098
0.677357
0.668638
0.671419
0.675413
0.674476
0.671337
0.677244
0.676384
0.665516
0.673573
0.670275
0.675008
0.667352
0.662622
0.660248
0.671683
0.667979
0.672735
0.648598
0.674829
0.661235
0.664711
0.637353
0.649026
0.652799
0.656512
0.66249
0.594171
0.649561
0.67694
0.678137
0.679717
0.681541
0.686151
0.663929
0.671296
0.67315
0.661286
0.670102
0.659351
0.667768
0.683676
0.685751
0.687898
0.680559
0.684915
0.682624
0.678106
0.657665
0.658034
0.659258
0.655351
0.656858
0.655167
0.65375
0.684157
0.685769
0.687841
0.684928
0.683263
0.682718
0.68116
0.656681
0.660096
0.668461
0.656475
0.660463
0.652655
0.664537
0.675005
0.678655
0.683074
0.679626
0.670711
0.674442
0.674881
0.652977
0.657644
0.666129
0.655227
0.658188
0.650176
0.663385
0.672003
0.676702
0.681408
0.678764
0.668694
0.672068
0.673918
0.651504
0.654511
0.655925
0.652577
0.647797
0.648987
0.651276
0.679669
0.681609
0.683157
0.679581
0.670444
0.672713
0.678033
0.67663
0.681505
0.679915
0.678639
0.666708
0.669539
0.677025
0.647715
0.652048
0.65346
0.651295
0.645186
0.646408
0.649984
0.651943
0.654261
0.655409
0.642044
0.64654
0.647777
0.659828
0.673842
0.629865
0.662851
0.664054
0.659523
0.661551
0.670176
0.648239
0.63843
0.641769
0.643089
0.64291
0.644208
0.647036
0.671912
0.643269
0.602283
0.646857
0.648649
0.651685
0.669492
0.0707208
0.0532993
0.065826
0.353245
0.367146
0.228403
0.0333074
0.238343
0.0361709
0.0564075
0.276781
0.33756
0.0525969
0.207211
0.0262012
0.0291509
0.364775
0.333498
0.332317
0.240559
0.238693
0.214694
0.215542
0.361278
0.321161
0.329501
0.231378
0.236701
0.212764
0.206521
0.312546
0.303466
0.219467
0.274179
0.199956
0.193012
0.171282
0.289614
0.238386
0.289408
0.181383
0.143403
0.143479
0.18147
0.279228
0.23701
0.287645
0.180082
0.136731
0.142479
0.17398
0.230408
0.183805
0.233089
0.139965
0.173033
0.142154
0.108918
0.0697558
0.138211
0.136776
0.12115
0.0610537
0.121837
0.0605463
0.259272
0.173176
0.22596
0.122964
0.159859
0.136961
0.10127
0.0685258
0.131423
0.135247
0.119646
0.0565058
0.0594119
0.115174
0.0607335
0.123219
0.110263
0.0511727
0.106089
0.0923532
0.0436544
0.0938385
0.078218
0.135627
0.132522
0.182297
0.10796
0.0759585
0.0995769
0.0486758
0.0360135
0.0763834
0.0763131
0.0997571
0.048449
0.0984985
0.0451012
0.0718919
0.0353838
0.075484
0.0476273
0.0943743
0.0737625
0.0255109
0.0340651
0.0441288
0.0933204
0.0750797
0.0347331
0.0402048
0.0639485
0.0855522
0.0720937
0.0232577
0.0519945
0.0332295
0.0398173
0.0175552
0.0111283
0.055876
0.0168279
0.0384615
0.0252308
0.661369
0.674771
0.654246
0.666217
0.655071
0.659917
0.658434
0.665166
0.659095
0.662762
0.659583
0.660327
0.661601
0.660717
0.658255
0.659128
0.666606
0.673193
0.675575
0.664937
0.669248
0.66367
0.655898
0.656531
0.655799
0.64944
0.650116
0.657346
0.654314
0.656792
0.670969
0.656691
0.660342
0.651002
0.666319
0.660237
0.655833
0.652867
0.654209
0.655727
0.649227
0.649957
0.653926
0.661311
0.658128
0.659247
0.658696
0.659891
0.66117
0.657859
0.65507
0.669307
0.664766
0.656614
0.660235
0.65087
0.666208
0.662156
0.673336
0.671421
0.658907
0.675449
0.664524
0.669125
0.659432
0.667033
0.661264
0.663374
0.658548
0.664266
0.662066
0.657096
0.6568
0.660846
0.65733
0.658828
0.655457
0.659378
0.663857
0.6609
0.66089
0.659648
0.661495
0.661659
0.663156
0.667814
0.675489
0.671181
0.667467
0.673587
0.665922
0.669297
0.668728
0.676399
0.669536
0.673693
0.674381
0.668145
0.670216
0.66707
0.664042
0.669908
0.671794
0.672348
0.664773
0.666466
0.653713
0.653257
0.656668
0.655284
0.655914
0.654194
0.652946
0.65367
0.655187
0.653184
0.656596
0.652876
0.654153
0.655842
0.651866
0.650572
0.64954
0.650603
0.650683
0.650715
0.651763
0.651762
0.651104
0.65107
0.649726
0.650724
0.652078
0.650756
0.656586
0.654081
0.658414
0.657507
0.659158
0.655
0.655714
0.6613
0.668741
0.668774
0.665822
0.663752
0.666212
0.663716
0.656542
0.658312
0.654004
0.657432
0.655636
0.654957
0.659083
0.657442
0.661266
0.655596
0.661304
0.656502
0.656539
0.662214
0.654548
0.651965
0.651929
0.652687
0.653595
0.652911
0.653631
0.659476
0.661366
0.667104
0.663455
0.662139
0.658626
0.664311
0.658386
0.658636
0.662675
0.6586
0.660661
0.656794
0.660625
0.652411
0.6549
0.653626
0.651995
0.65418
0.651704
0.652882
0.65306
0.65595
0.653085
0.655125
0.652775
0.655229
0.653499
0.651171
0.649929
0.649328
0.650438
0.650037
0.650546
0.65107
0.6511
0.650468
0.650942
0.649528
0.650106
0.650585
0.651422
0.655321
0.655693
0.656706
0.652826
0.657359
0.654506
0.653681
0.660123
0.664019
0.667177
0.667721
0.661976
0.662536
0.665226
0.658317
0.659713
0.665539
0.66243
0.660418
0.657496
0.663309
0.655952
0.656819
0.653916
0.658248
0.655562
0.654313
0.65851
0.65692
0.660825
0.655483
0.661197
0.656012
0.656416
0.661773
0.653962
0.651355
0.651816
0.652568
0.65306
0.653495
0.652279
0.65892
0.666623
0.661223
0.663348
0.658493
0.661553
0.663861
0.666573
0.665669
0.673712
0.67004
0.667517
0.664664
0.672417
0.66317
0.65898
0.660732
0.660707
0.662992
0.660816
0.660984
0.668097
0.675777
0.669376
0.67355
0.667985
0.669577
0.673777
0.666446
0.669379
0.663889
0.671656
0.666308
0.66415
0.67179
0.593911
0.608622
0.658455
0.663149
0.470929
0.491722
0.331921
0.404983
0.662761
0.656374
0.655448
0.643288
0.641832
0.621247
0.623668
0.661468
0.645118
0.652456
0.628368
0.637487
0.614401
0.600935
0.674727
0.624443
0.676652
0.649585
0.669999
0.671504
0.681787
0.682226
0.682373
0.68637
0.686173
0.683659
0.683434
0.679437
0.679593
0.680941
0.684739
0.685665
0.681929
0.682885
0.679005
0.67816
0.671393
0.67728
0.677396
0.674467
0.668367
0.668115
0.674594
0.676946
0.680527
0.680287
0.676307
0.672838
0.672538
0.676496
0.670982
0.676894
0.676109
0.674066
0.665097
0.667266
0.67321
0.676011
0.678744
0.679733
0.67582
0.669534
0.671668
0.674882
0.671127
0.647036
0.666007
0.66283
0.66523
0.662
0.671345
0.670372
0.656713
0.639792
0.65317
0.662875
0.659493
0.668488
0.641145
0.604594
0.638493
0.586272
0.54133
0.537871
0.589372
0.588401
0.488617
0.585433
0.551765
0.452871
0.4511
0.554178
0.63138
0.573105
0.617039
0.577963
0.507791
0.528291
0.560686
0.565894
0.482418
0.578356
0.545053
0.435581
0.446668
0.531043
0.664343
0.666751
0.669162
0.534686
0.670455
0.530253
0.498891
0.518705
0.670541
0.671502
0.671437
0.660636
0.660447
0.659218
0.659496
0.670183
0.670062
0.671056
0.658422
0.659878
0.658424
0.656514
0.666565
0.668921
0.669035
0.656645
0.652523
0.651816
0.657109
0.665906
0.667395
0.66847
0.655455
0.64464
0.649723
0.652694
0.62998
0.532736
0.629224
0.627668
0.535314
0.62875
0.532631
0.625422
0.532309
0.628272
0.625878
0.527646
0.531424
0.621037
0.622274
0.612117
0.531448
0.515232
0.609575
0.624064
0.528302
0.618831
0.591995
0.518322
0.509782
0.603476
0.525496
0.610831
0.68451
0.673875
0.684101
0.672683
0.692287
0.690171
0.677165
0.675963
0.692393
0.688678
0.688551
0.687605
0.691497
0.691386
0.687727
0.691074
0.691875
0.686414
0.687312
0.688127
0.687206
0.690979
0.684634
0.688544
0.688385
0.686264
0.69023
0.690098
0.686382
0.677259
0.678238
0.678152
0.683941
0.68383
0.68285
0.68296
0.683292
0.687055
0.687923
0.688831
0.685085
0.685873
0.68967
0.676902
0.676781
0.677752
0.681646
0.682568
0.683409
0.682455
0.673784
0.675715
0.675809
0.679608
0.679708
0.681438
0.681542
0.673426
0.67455
0.675341
0.67924
0.678486
0.680291
0.681061
0.659341
0.665807
0.658833
0.673788
0.65722
0.660141
0.661284
0.666472
0.664825
0.674345
0.664453
0.672864
0.664884
0.664195
0.674
0.658348
0.656264
0.657066
0.660001
0.658131
0.659363
0.658643
0.657169
0.671036
0.667298
0.663795
0.673018
0.662601
0.671924
0.666063
0.664163
0.675983
0.675231
0.672204
0.665469
0.674619
0.661561
0.657564
0.658921
0.658833
0.661041
0.659248
0.659557
0.665316
0.6652
0.669082
0.672932
0.666706
0.671106
0.663723
0.664727
0.662068
0.667894
0.669553
0.664281
0.669997
0.662683
0.666211
0.671261
0.667115
0.673682
0.66582
0.667583
0.671797
0.665546
0.675426
0.675115
0.666367
0.675962
0.665784
0.675295
0.661767
0.660081
0.661631
0.658944
0.660324
0.661081
0.659554
0.658558
0.66037
0.660045
0.660463
0.658618
0.660059
0.658961
0.659232
0.660987
0.660842
0.659945
0.661588
0.661148
0.659562
0.658189
0.685029
0.664574
0.658229
0.664418
0.650873
0.663499
0.652821
0.665826
0.685775
0.691166
0.687662
0.679249
0.681458
0.677677
0.679667
0.664145
0.6739
0.673548
0.663076
0.672336
0.663051
0.672388
0.685705
0.691107
0.691341
0.688527
0.68374
0.683634
0.688824
0.664698
0.674058
0.674234
0.662415
0.671535
0.662945
0.672226
0.685641
0.689496
0.690536
0.682246
0.686651
0.687851
0.683225
0.658104
0.659798
0.659633
0.658461
0.656952
0.658497
0.656894
0.691454
0.689568
0.689304
0.688509
0.686886
0.688841
0.686586
0.666228
0.657119
0.657509
0.660657
0.669895
0.660871
0.669682
0.68186
0.676642
0.677051
0.685324
0.680884
0.680617
0.685689
0.658341
0.65981
0.659957
0.656265
0.657828
0.658299
0.656718
0.689431
0.690524
0.688702
0.686601
0.684821
0.687798
0.685931
0.664981
0.655007
0.65634
0.659237
0.668027
0.660174
0.669141
0.651371
0.651745
0.653202
0.656169
0.654883
0.656399
0.654649
0.680639
0.674292
0.675796
0.678707
0.683278
0.684561
0.679973
0.680021
0.681499
0.681898
0.68529
0.683707
0.685665
0.683377
0.652088
0.649488
0.650657
0.653389
0.654866
0.655707
0.654194
0.67895
0.679344
0.680705
0.683297
0.681566
0.684538
0.682699
0.686831
0.686697
0.693286
0.689976
0.679319
0.688234
0.697029
0.694782
0.694556
0.686914
0.693321
0.686839
0.693079
0.687194
0.694938
0.675313
0.696239
0.697464
0.695634
0.681126
0.686524
0.696102
0.688161
0.686837
0.694449
0.695313
0.695927
0.69511
0.687703
0.697356
0.695306
0.695414
0.696171
0.694576
0.696486
0.694443
0.689445
0.677374
0.689428
0.68082
0.679311
0.690296
0.688047
0.688325
0.675958
0.685577
0.677693
0.67818
0.687821
0.686306
0.695192
0.694082
0.697443
0.697487
0.695039
0.697392
0.694436
0.689846
0.679581
0.681497
0.690686
0.680043
0.689883
0.690527
0.687084
0.691692
0.692569
0.687825
0.693296
0.694045
0.687723
0.695744
0.696527
0.693148
0.694087
0.694889
0.695619
0.693992
0.693557
0.691712
0.691491
0.694935
0.693362
0.695224
0.693186
0.691704
0.692692
0.690941
0.69346
0.691779
0.694364
0.692686
0.508374
0.452585
0.347643
0.506319
0.347034
0.45065
0.404101
0.500474
0.428008
0.389554
0.344306
0.444865
0.40099
0.485448
0.538211
0.384273
0.385486
0.371591
0.311837
0.227271
0.391263
0.38441
0.0645667
0.0707367
0.0672471
0.0727775
0.387747
0.0755453
0.0717231
0.375596
0.386496
0.069888
0.0726968
0.354846
0.560862
0.629915
0.416693
0.452254
0.149065
0.303159
0.10841
0.13741
0.373924
0.38333
0.0716877
0.349152
0.0539726
0.0679051
0.0420447
0.309661
0.362538
0.0728432
0.344841
0.0538856
0.651382
0.635665
0.61211
0.602609
0.58605
0.57814
0.542664
0.38268
0.391699
0.388841
0.239259
0.238508
0.248431
0.250608
0.36408
0.373554
0.369499
0.225151
0.217958
0.222793
0.227354
0.236968
0.385019
0.375668
0.366849
0.375847
0.219454
0.227423
0.249416
0.245533
0.39019
0.386869
0.384018
0.237818
0.244009
0.380004
0.383268
0.378491
0.232945
0.242908
0.23534
0.240984
0.385416
0.389719
0.389718
0.247925
0.243023
0.250167
0.25196
0.591677
0.488703
0.552354
0.471004
0.530245
0.485351
0.418008
0.606449
0.502576
0.560338
0.493204
0.546817
0.493258
0.430102
0.39267
0.383433
0.389494
0.252168
0.252775
0.250228
0.254723
0.387354
0.248975
0.384296
0.372287
0.245091
0.239373
0.241495
0.382077
0.373239
0.371758
0.245249
0.24332
0.238771
0.240619
0.38497
0.374312
0.370829
0.248649
0.250395
0.242795
0.242052
0.386928
0.381318
0.389169
0.252471
0.246558
0.249307
0.252119
0.545844
0.423755
0.515911
0.414094
0.506771
0.469485
0.379307
0.661578
0.635846
0.660886
0.668659
0.522616
0.374391
0.480948
0.433393
0.666104
0.667469
0.655336
0.664461
0.652581
0.649256
0.644261
0.665254
0.653271
0.660944
0.634005
0.646572
0.633774
0.615431
0.652545
0.645407
0.65859
0.612214
0.636347
0.627548
0.599292
0.617464
0.516683
0.60995
0.50411
0.600495
0.589884
0.495008
0.651569
0.603217
0.630396
0.611556
0.54214
0.585785
0.577039
0.574452
0.502804
0.595493
0.57332
0.455871
0.549672
0.478849
0.537637
0.473149
0.57348
0.562324
0.425365
0.525257
0.464294
0.54339
0.466808
0.421387
0.406538
0.514634
0.502496
0.447737
0.426189
0.431647
0.498429
0.426608
0.282357
0.35291
0.356979
0.378403
0.340657
0.360016
0.238104
0.247932
0.235822
0.221657
0.348226
0.31017
0.347158
0.222364
0.196123
0.194814
0.223538
0.473295
0.382596
0.327973
0.417813
0.269581
0.330199
0.353084
0.31242
0.310525
0.347543
0.222788
0.197166
0.224663
0.19533
0.39348
0.364023
0.455757
0.410028
0.257884
0.341541
0.322376
0.349497
0.313067
0.308535
0.198034
0.225844
0.22342
0.195131
0.124654
0.0620066
0.119928
0.12266
0.0650282
0.125902
0.063223
0.129398
0.137135
0.0677293
0.0699163
0.13131
0.135644
0.0666289
0.0641341
0.124859
0.131115
0.06209
0.120403
0.124945
0.0641755
0.0708957
0.141288
0.137851
0.132247
0.0707882
0.13745
0.0679642
0.134489
0.0694218
0.133972
0.141657
0.0745898
0.143207
0.0735346
0.663408
0.670719
0.529216
0.671998
0.53255
0.53471
0.530311
0.670978
0.672316
0.619256
0.669241
0.507669
0.523989
0.669475
0.434774
0.434681
0.671951
0.672214
0.67216
0.66109
0.661
0.660921
0.661068
0.672261
0.672372
0.672315
0.661406
0.661403
0.661305
0.66146
0.670951
0.671585
0.671806
0.660758
0.659285
0.660502
0.659624
0.671077
0.671871
0.671948
0.661034
0.659682
0.659859
0.660972
0.669487
0.666859
0.667154
0.65655
0.65703
0.652007
0.651315
0.669602
0.667072
0.667259
0.656885
0.657225
0.652149
0.651588
0.628957
0.629221
0.524902
0.52971
0.629135
0.52797
0.628355
0.630321
0.527485
0.536962
0.630294
0.53266
0.629188
0.63125
0.537199
0.628272
0.630583
0.630268
0.533391
0.628429
0.535057
0.629195
0.626978
0.531434
0.530784
0.6289
0.627602
0.531419
0.656366
0.662936
0.655421
0.641828
0.618536
0.640472
0.620729
0.640846
0.655772
0.663159
0.663504
0.65647
0.641954
0.620887
0.526466
0.606136
0.621406
0.525925
0.622203
0.607613
0.507892
0.620502
0.524557
0.621648
0.607338
0.507087
0.605665
0.507524
0.69317
0.679073
0.688055
0.677671
0.692837
0.691579
0.684524
0.68309
0.689515
0.689515
0.693044
0.693397
0.693169
0.6897
0.689362
0.692969
0.689286
0.689132
0.689411
0.693315
0.69308
0.689598
0.691792
0.689025
0.692602
0.691882
0.692695
0.68817
0.688901
0.692393
0.687827
0.688672
0.688921
0.691789
0.692603
0.688067
0.684784
0.684784
0.678983
0.67917
0.684921
0.679072
0.684661
0.678782
0.684405
0.678702
0.684663
0.679029
0.684799
0.678936
0.683328
0.684327
0.67856
0.677776
0.683442
0.678658
0.684209
0.683962
0.678296
0.677424
0.68421
0.677659
0.683331
0.678531
0.58055
0.542571
0.475921
0.433819
0.578876
0.543685
0.475945
0.475707
0.543177
0.579202
0.580675
0.433787
0.543799
0.475886
0.688779
0.673855
0.696061
0.69483
0.677544
0.687665
0.697602
0.696413
0.697837
0.681239
0.696472
0.683655
0.677133
0.696839
0.696867
0.697452
0.678915
0.697437
0.667724
0.673958
0.696093
0.69781
0.698167
0.698164
0.695999
0.695695
0.697986
0.69606
0.69779
0.697624
0.696677
0.695601
0.694906
0.696907
0.69567
0.697367
0.672578
0.697513
0.697135
0.697432
0.667621
0.673889
0.696056
0.679693
0.69605
0.696484
0.69781
0.683517
0.677051
0.696714
0.697967
0.695814
0.69589
0.698141
0.695669
0.697959
0.695986
0.697147
0.694626
0.695406
0.697556
0.694828
0.696822
0.695593
0.681987
0.674672
0.684
0.670858
0.681165
0.671759
0.684743
0.683506
0.675241
0.687863
0.675743
0.685683
0.6731
0.686079
0.696084
0.694877
0.69792
0.697825
0.695179
0.697863
0.695933
0.691062
0.683178
0.679224
0.690723
0.691925
0.681619
0.689325
0.691621
0.684104
0.681999
0.692445
0.682516
0.691642
0.692373
0.690001
0.687022
0.677761
0.679867
0.680395
0.687663
0.68953
0.692036
0.693274
0.696874
0.697597
0.69371
0.697085
0.691536
0.683926
0.676496
0.676526
0.688781
0.686548
0.673813
0.686524
0.692011
0.693224
0.696856
0.697587
0.691487
0.697077
0.693679
0.679964
0.668663
0.668703
0.678188
0.679073
0.669621
0.679112
0.682029
0.68409
0.674741
0.670943
0.684802
0.671804
0.681244
0.690707
0.696349
0.69634
0.689499
0.690111
0.69658
0.690136
0.693282
0.697752
0.695625
0.697752
0.694658
0.697512
0.694645
0.697832
0.698128
0.697732
0.698144
0.69814
0.697685
0.697859
0.697832
0.697732
0.698125
0.698149
0.697858
0.698141
0.697687
0.696933
0.695611
0.697013
0.695611
0.695543
0.696972
0.696972
0.697883
0.69804
0.698037
0.697899
0.697892
0.698084
0.697892
0.681497
0.673437
0.683014
0.670057
0.683866
0.671018
0.680554
0.69304
0.695105
0.697473
0.69757
0.694171
0.694385
0.697342
0.691731
0.692646
0.697302
0.69665
0.693181
0.691111
0.696898
0.691955
0.69751
0.693261
0.696856
0.691522
0.693621
0.697006
0.679742
0.66828
0.668617
0.678094
0.669283
0.678763
0.679053
0.681869
0.674415
0.684065
0.67087
0.671496
0.68121
0.684637
0.690578
0.696226
0.696326
0.68943
0.689905
0.690102
0.696493
0.690394
0.681568
0.689723
0.678297
0.690838
0.680593
0.688755
0.695874
0.697736
0.69484
0.697885
0.695882
0.695031
0.697727
0.691245
0.683531
0.68186
0.692351
0.691543
0.68198
0.691963
0.689659
0.677368
0.686979
0.679759
0.689456
0.67992
0.687425
0.697696
0.697935
0.697554
0.697987
0.697483
0.697738
0.698
0.697738
0.698058
0.698104
0.697706
0.697832
0.698059
0.697585
0.696834
0.69552
0.696983
0.695577
0.696894
0.696936
0.695423
0.697803
0.697958
0.698014
0.697873
0.697819
0.697863
0.698004
0.140905
0.0709391
0.137158
0.142732
0.0741784
0.0738422
0.143977
0.331987
0.294355
0.268291
0.214399
0.166323
0.197443
0.185048
0.14476
0.0742615
0.145816
0.0763465
0.1439
0.146646
0.0750593
0.0700878
0.141595
0.0727559
0.071432
0.138908
0.13594
0.069489
0.139312
0.0709516
0.137893
0.135562
0.0699186
0.136814
0.0693427
0.144712
0.0733945
0.141059
0.0740547
0.143038
0.0746741
0.144334
0.350337
0.213355
0.206625
0.203206
0.278537
0.267491
0.282023
0.141757
0.0732937
0.1431
0.0704787
0.138271
0.137847
0.0698303
0.126069
0.0633822
0.0533375
0.125458
0.0532139
0.10785
0.0632395
0.125779
0.0534998
0.0639731
0.109368
0.126944
0.108288
0.0634758
0.135383
0.0719863
0.141619
0.133801
0.0613243
0.124444
0.0669974
0.0640249
0.10967
0.127563
0.125832
0.0523715
0.107556
0.0626555
0.119763
0.0524132
0.0892585
0.0484123
0.108623
0.100912
0.0588147
0.0224177
0.0118432
0.000283893
0.00339298
0.00341082
0.0118923
0.0227763
0.000294558
0.0323087
0.0119552
0.0327911
0.031101
0.03098
0.0111017
0.0110864
0.0324232
0.0117926
0.0321196
0.0311738
0.0309773
0.0111314
0.0111836
0.0274644
0.0224712
0.0275287
0.00954911
0.00742739
0.00947313
0.00748719
0.0226205
0.0278399
0.0276786
0.00961707
0.00758043
0.00965484
0.00754497
0.00340978
0.00065634
0.000652502
0.00310596
0.000557936
0.00308531
0.000568677
0.00338629
0.000661518
0.000658259
0.00312044
0.000573519
0.00313057
0.000573538
0.00257859
0.00189737
0.000423967
0.000292245
0.00254322
0.00192537
0.000435573
0.00260028
0.000295663
0.000439685
0.00194649
0.00260597
0.0019422
0.000440644
0.00225551
0.000141319
0.00867403
0.0166539
0.00334933
0.0118545
0.0226077
0.000282401
0.000558211
0.0094311
0.000697951
0.0119488
0.00311139
0.0342826
0.0112323
0.000756657
0.0324152
0.00354595
0.0123325
0.0308323
0.00346316
0.000671101
0.000702704
0.0299997
0.00348082
0.0119857
0.00260699
0.0313969
0.00974694
8.31038e-05
0.0128177
0.000119813
0.0143971
0.00616794
5.9298e-06
8.63297e-05
0.0071055
0.00176491
5.75511e-05
0.0109285
0.0320421
0.034421
0.0337573
0.0122908
0.0126357
0.0129708
0.0120739
0.0295503
0.028756
0.0295667
0.0111228
0.0108701
0.0111285
0.0115474
0.0287848
0.0300737
0.0292205
0.0113907
0.0109086
0.0110243
0.0113551
0.0322506
0.0121837
0.0330495
0.0323409
0.0311324
0.0116247
0.012016
0.033569
0.012236
0.0330741
0.0325343
0.0336887
0.0125128
0.0121577
0.0322754
0.0118411
0.0319022
0.0311264
0.0306066
0.0114573
0.0116632
0.0335349
0.0350209
0.0342443
0.0127092
0.0126027
0.0122555
0.0130816
0.0316526
0.012069
0.0332334
0.0328576
0.0338273
0.0124509
0.0118708
0.0327917
0.0119996
0.0328455
0.0312507
0.0306551
0.011143
0.0107898
0.0258752
0.0101599
0.0293683
0.0112846
0.0317821
0.0288998
0.00995733
0.0308413
0.0263019
0.0259834
0.0111903
0.0109365
0.00885067
0.00900324
0.0276997
0.0216893
0.026783
0.00747592
0.00954563
0.00909849
0.0070649
0.0283622
0.0300051
0.0236389
0.0252572
0.0105124
0.00850486
0.00780887
0.00515163
0.00694149
0.0214922
0.0196603
0.0246772
0.00819919
0.00625942
0.021916
0.00857697
0.0256172
0.0209454
0.017389
0.00673921
0.00541633
0.0202365
0.0142593
0.0200533
0.00651266
0.00444962
0.00438442
0.00660669
0.013088
0.00390923
0.00549495
0.0176021
0.0133845
0.00401087
0.00269318
0.0181917
0.0138645
0.019529
0.0062711
0.00382444
0.00421586
0.0057329
0.0158414
0.00842743
0.0127083
0.00317092
0.00486287
0.00377338
0.00235085
0.00363077
0.00369714
0.000787543
0.0007304
0.00381646
0.000753336
0.00354782
0.00326448
0.000661577
0.00319827
0.00326609
0.000687939
0.00337778
0.000671407
0.000668441
0.0033654
0.00321601
0.00323989
0.000690416
0.00334031
0.000668389
0.00368825
0.000666632
0.00361213
0.000771603
0.00349332
0.00381729
0.000736135
0.00354315
0.000692971
0.000704139
0.00363588
0.000720623
0.000728275
0.00355088
0.00351682
0.000690037
0.00069524
0.00339164
0.000702302
0.0034926
0.000687863
0.00343753
0.000696263
0.000687871
0.00334766
0.000696398
0.00341239
0.000681401
0.00365693
0.00584081
0.00929683
0.00264433
0.000890976
0.00165255
0.00154164
0.00342538
0.000626923
0.000656646
0.000560422
0.00310096
0.00296287
0.000519324
0.00342461
0.000556285
0.000647137
0.00358337
0.000623179
0.00334697
0.000700667
0.00274073
0.00312951
0.000461723
0.000350479
0.00056136
0.00267375
0.000445838
0.000536159
0.00310707
0.00302091
0.00233728
0.00038866
0.002391
0.00037494
0.000424941
0.0019036
0.00255944
0.00240048
0.000250523
0.00176279
0.000384558
0.000430397
0.00049568
0.0028694
0.00221636
0.000294236
0.000345254
0.00198726
0.00117925
0.00171442
0.00023882
0.00210612
0.000200034
0.00150932
0.000318642
0.00222526
0.00034381
0.000248647
0.000226371
0.00165237
0.00125601
0.000154083
0.00152862
0.000172323
0.000805231
0.00010316
0.000927224
0.000206795
0.00135523
0.00161401
0.000234766
0.00011472
0.00101135
0.000987104
0.0016489
0.000226212
0.000827046
0.00128067
0.000158764
0.000854874
4.42693e-05
0.000509714
9.03125e-05
0.000126534
0.000623885
0.00109342
0.000785925
3.32847e-05
0.000420775
7.97996e-05
0.000495555
0.000119291
1.83293e-05
1.56767e-05
0.000269471
0.000243264
4.23313e-05
0.0221206
0.019014
0.0108456
0.000206809
0.000399651
0.0119657
0.000264953
0.00338515
0.0330725
0.0116682
0.0326762
0.0309963
0.0301293
0.0109441
0.0104565
0.0210904
0.0271426
0.0260303
0.00725031
0.00926332
0.00872544
0.00678802
0.0310812
0.00947548
0.0279762
0.0246328
0.0279862
0.00947888
0.00809748
0.0160008
0.0205111
0.0237738
0.00777521
0.00486969
0.00650704
0.00596877
0.00325242
0.000635403
0.000589947
0.000532395
0.00301461
0.00282942
0.0004802
0.00030361
0.00249663
0.0020552
0.00295278
0.000508181
0.00249757
0.000399819
0.00182595
0.000398907
0.00245751
0.00226763
0.000229363
0.00166669
0.000352066
0.0015653
0.00108053
0.000122432
0.00195818
0.000178722
0.00140787
0.00028446
0.00310345
0.000479631
0.0309493
0.0116637
0.0123279
0.0323232
0.00354116
0.000687313
0.0336298
0.0122186
0.0335981
0.0333474
0.0336198
0.0123094
0.0123245
0.0311032
0.0322203
0.0330229
0.0116144
0.0119379
0.0120097
0.0121738
0.0110922
0.031057
0.032279
0.0327566
0.0118329
0.0119418
0.0110695
0.0326639
0.0104464
0.0301023
0.0309561
0.0330513
0.0119568
0.0109276
0.00347589
0.000690765
0.000660448
0.000707935
0.0035617
0.00354016
0.000690509
0.00338871
0.000689483
0.000701946
0.00346008
0.0034908
0.00351392
0.000694633
0.000568237