/*--------------------------------*- C++ -*----------------------------------*\
  =========                 |
  \\      /  F ield         | OpenFOAM: The Open Source CFD Toolbox
   \\    /   O peration     | Website:  https://openfoam.org
    \\  /    A nd           | Version:  9
     \\/     M anipulation  |
\*---------------------------------------------------------------------------*/
FoamFile
{
    format      ascii;
    class       volScalarField;
    location    "0.00155";
    object      rho;
}
// * * * * * * * * * * * * * * * * * * * * * * * * * * * * * * * * * * * * * //

dimensions      [1 -3 0 0 0 0 0];

internalField   nonuniform List<scalar> 
12470
(
0.172062
0.0919225
0.165308
0.159634
0.158583
0.179134
0.383145
0.176421
0.234885
0.0324406
0.127139
0.0915281
0.585438
0.38097
0.595279
0.617544
0.165219
0.160687
0.160216
0.169427
0.162301
0.162122
0.172559
0.0899613
0.146216
0.145487
0.154513
0.105716
0.123755
0.159615
0.166639
0.161697
0.161089
0.163559
0.190162
0.167444
0.177898
0.166212
0.166041
0.158277
0.161395
0.169548
0.161346
0.169539
0.0298022
0.0435013
0.0412556
0.0625898
0.0663128
0.0919521
0.0927754
0.0978953
0.159884
0.150273
0.172244
0.223173
0.177518
0.281557
0.0431247
0.097833
0.0523924
0.160944
0.275983
0.275693
0.163074
0.158948
0.167147
0.166409
0.161527
0.170297
0.162094
0.169683
0.203332
0.566966
0.234142
0.293897
0.441764
0.584475
0.227615
0.185679
0.169464
0.257227
0.185826
0.19171
0.167395
0.192407
0.175139
0.249244
0.232255
0.307923
0.206402
0.18766
0.209122
0.164149
0.173202
0.176021
0.170407
0.171544
0.164377
0.172881
0.399641
0.406368
0.522473
0.630296
0.611941
0.290206
0.493259
0.269684
0.605392
0.252683
0.311768
0.605689
0.596084
0.32459
0.164894
0.173515
0.18372
0.176604
0.174991
0.16773
0.172886
0.400132
0.481192
0.599912
0.603602
0.602175
0.480194
0.404509
0.383992
0.200759
0.182782
0.178239
0.160677
0.236497
0.520302
0.185019
0.461245
0.463248
0.528219
0.219387
0.58007
0.612726
0.639954
0.58902
0.164485
0.209397
0.174355
0.222311
0.178977
0.202359
0.296721
0.195332
0.293571
0.37091
0.333389
0.417037
0.502551
0.467939
0.208229
0.337267
0.347617
0.393213
0.397385
0.470909
0.461974
0.168472
0.170255
0.162793
0.171428
0.164306
0.170255
0.173772
0.279738
0.236166
0.196914
0.241891
0.467094
0.295545
0.396733
0.51252
0.43924
0.473639
0.52987
0.558757
0.542418
0.544497
0.327295
0.273363
0.212354
0.252995
0.505311
0.322797
0.420871
0.514236
0.618205
0.551554
0.562106
0.607953
0.606118
0.569312
0.182587
0.172852
0.168352
0.184945
0.189056
0.209512
0.179151
0.175914
0.19876
0.174911
0.189726
0.195792
0.223124
0.181169
0.430212
0.47336
0.443915
0.492759
0.517821
0.519362
0.485844
0.516244
0.588209
0.520131
0.528753
0.593553
0.587436
0.527254
0.305126
0.499493
0.403881
0.517145
0.368096
0.353439
0.48133
0.566686
0.566128
0.590386
0.611705
0.604465
0.577632
0.573864
0.214229
0.207464
0.288543
0.212666
0.254661
0.246072
0.191267
0.543752
0.575325
0.625666
0.612828
0.602168
0.568316
0.545734
0.0733461
0.258533
0.418853
0.422658
0.0486336
0.318069
0.0572551
0.0274198
0.0277904
0.0266543
0.026309
0.0285331
0.0297374
0.0293188
0.0379163
0.0311698
0.182384
0.0557664
0.136845
0.0448398
0.100323
0.25672
0.0291283
0.0855455
0.0362981
0.147569
0.0491124
0.0865729
0.224249
0.0302514
0.118995
0.0398547
0.140736
0.0447439
0.0928689
0.235248
0.357529
0.264532
0.119405
0.222502
0.378488
0.333818
0.331088
0.328505
0.313336
0.156003
0.232225
0.419709
0.364418
0.352912
0.204776
0.224908
0.0848389
0.205882
0.363899
0.308875
0.317936
0.315153
0.397271
0.41006
0.39176
0.37893
0.372639
0.366683
0.180648
0.147281
0.174028
0.183983
0.176563
0.178772
0.177254
0.166907
0.170726
0.163849
0.0301096
0.0321055
0.162913
0.148048
0.0483758
0.0395012
0.169817
0.178118
0.170881
0.172823
0.169199
0.176078
0.172476
0.173359
0.168541
0.171881
0.175352
0.168035
0.167969
0.175282
0.0976252
0.155786
0.107793
0.166804
0.158379
0.116761
0.0913299
0.111142
0.0988237
0.166435
0.156479
0.158472
0.0955324
0.117592
0.174816
0.181113
0.172154
0.171269
0.184231
0.174731
0.180233
0.170378
0.169703
0.18262
0.175135
0.167247
0.173383
0.178345
0.0310552
0.0415994
0.0464948
0.0432473
0.0322354
0.0482385
0.0314442
0.0324203
0.0437327
0.0322951
0.031272
0.0429941
0.0488403
0.0314977
0.174911
0.172233
0.174955
0.176511
0.177549
0.171306
0.176005
0.169739
0.173933
0.17429
0.169878
0.175011
0.169073
0.175365
0.147846
0.0843585
0.084281
0.0880875
0.151169
0.151693
0.0872975
0.0830177
0.07976
0.0825519
0.14641
0.14958
0.0867146
0.151158
0.17145
0.181541
0.171836
0.179408
0.169885
0.169807
0.179017
0.168228
0.174738
0.166478
0.168203
0.174221
0.166279
0.176981
0.0301453
0.0393724
0.0304501
0.0384238
0.0389695
0.0400723
0.0304019
0.039647
0.0302469
0.030429
0.0404392
0.03024
0.0401119
0.030418
0.159795
0.084834
0.168812
0.162936
0.16236
0.167968
0.171703
0.164639
0.171578
0.146769
0.0302108
0.0294883
0.154949
0.146798
0.0432381
0.0388004
0.165919
0.17372
0.173953
0.165476
0.174819
0.166812
0.17331
0.158762
0.095178
0.102195
0.087012
0.153736
0.150543
0.0915086
0.161679
0.172878
0.165759
0.16087
0.170838
0.163887
0.167132
0.0458187
0.0313025
0.0319579
0.0401084
0.0308166
0.041693
0.0302948
0.162394
0.16946
0.170035
0.163317
0.17185
0.164274
0.171282
0.14786
0.0845465
0.0851605
0.150209
0.0880874
0.0843267
0.148057
0.172997
0.166038
0.16832
0.173957
0.166545
0.167699
0.172145
0.147554
0.0836063
0.0839346
0.0842906
0.149899
0.148059
0.0858144
0.1623
0.156743
0.156608
0.164351
0.15857
0.158474
0.164395
0.160929
0.169041
0.170614
0.164177
0.161879
0.163595
0.167482
0.0295689
0.0388889
0.0390481
0.0407714
0.0304914
0.0388684
0.029508
0.0295215
0.0300137
0.0391918
0.0391861
0.030049
0.0395965
0.0298836
0.144933
0.146344
0.0830248
0.146003
0.0841037
0.0842004
0.14686
0.163847
0.17036
0.162877
0.169032
0.164099
0.165067
0.170505
0.166888
0.164335
0.157746
0.15881
0.167313
0.160306
0.165397
0.0402218
0.0377565
0.0284254
0.0290778
0.0382733
0.0389647
0.0296279
0.02813
0.0292696
0.0289062
0.039457
0.0284519
0.0400075
0.0293957
0.0292377
0.0294181
0.0290097
0.0296327
0.0291876
0.0293595
0.0291351
0.0291165
0.0291368
0.0295649
0.0289472
0.0291136
0.0292851
0.0290422
0.0289509
0.029502
0.0279812
0.0294231
0.0292203
0.0289162
0.0292449
0.0287185
0.0286466
0.0287721
0.0289795
0.0292042
0.0287747
0.0287922
0.0291988
0.0286521
0.0287785
0.0288874
0.0290896
0.0284448
0.0286686
0.0289534
0.0279214
0.0279115
0.0293242
0.0291059
0.0287046
0.0286501
0.0289598
0.0284274
0.031409
0.0282094
0.0371884
0.0278104
0.0284695
0.0309248
0.0283072
0.0372432
0.028093
0.0312479
0.0277129
0.0308578
0.0281585
0.0297132
0.234066
0.0340494
0.0492141
0.0281781
0.028402
0.0284667
0.0288711
0.0291366
0.0288011
0.0289905
0.0287915
0.0285975
0.0288637
0.0287233
0.0282156
0.0279957
0.0284464
0.0286038
0.0282868
0.0285902
0.0277669
0.0278837
0.0276757
0.0286453
0.0283563
0.028777
0.0285413
0.0271874
0.0280057
0.0288805
0.0291485
0.0290277
0.0287086
0.0281834
0.0304443
0.0265905
0.0267532
0.0279682
0.0276575
0.037415
0.0293437
0.0284999
0.0297026
0.0273668
0.0283522
0.0274391
0.0516037
0.0341308
0.0299613
0.0293873
0.0326052
0.027711
0.0274554
0.0757583
0.0325277
0.0371857
0.0303756
0.0907629
0.11825
0.138347
0.0438353
0.0567937
0.0397032
0.272084
0.061082
0.168966
0.169059
0.172803
0.158388
0.159623
0.162503
0.161329
0.413976
0.425322
0.105491
0.0435985
0.0965992
0.145685
0.0295484
0.160692
0.167915
0.168119
0.160413
0.167134
0.160977
0.166823
0.146406
0.0846924
0.0855616
0.145383
0.0846913
0.0858175
0.144116
0.161615
0.156192
0.155441
0.161685
0.15552
0.156621
0.163097
0.0290434
0.0384035
0.0392492
0.0381543
0.0283449
0.0405182
0.0302312
0.163199
0.162087
0.167448
0.161805
0.17789
0.163856
0.168015
0.151225
0.143994
0.084909
0.0970137
0.17556
0.162329
0.150895
0.161245
0.160503
0.166334
0.161194
0.179057
0.163309
0.167964
0.154177
0.14482
0.0876773
0.0995712
0.182128
0.18341
0.151738
0.166973
0.164372
0.157721
0.158172
0.168037
0.160349
0.165271
0.0550659
0.029993
0.0400944
0.0552378
0.130473
0.14275
0.0438283
0.0706667
0.0412766
0.0308803
0.0595253
0.158805
0.169123
0.0486016
0.165531
0.163088
0.156575
0.157802
0.167382
0.15976
0.164783
0.163258
0.203286
0.201457
0.194605
0.172271
0.172043
0.177761
0.16726
0.457831
0.272994
0.264389
0.344837
0.331947
0.17678
0.159621
0.167732
0.16976
0.170141
0.162029
0.162287
0.167193
0.14891
0.305439
0.428528
0.29096
0.319717
0.307152
0.137315
1.12855
1.21462
1.15805
0.639054
0.613652
0.714482
1.34927
0.68992
1.30294
1.06336
0.687589
0.65245
0.965731
0.730372
1.2171
1.39326
0.61798
0.634865
0.638923
0.733366
0.737246
0.757942
0.753967
0.627828
0.658676
0.647371
0.756057
0.745265
0.765145
0.776165
0.668176
0.673011
0.769485
0.689822
0.786325
0.791141
0.810306
0.659522
0.694247
0.663498
0.784362
0.816297
0.820644
0.780163
0.683377
0.702139
0.671338
0.791728
0.841319
0.828253
0.803781
0.711286
0.733582
0.709797
0.837481
0.808351
0.834843
0.866507
1.13395
0.890593
0.894995
0.920013
1.16512
0.915571
1.17059
0.698599
0.748404
0.716063
0.860276
0.820826
0.842243
0.88467
1.14321
0.91394
0.902713
0.927237
1.19725
1.1802
0.939121
1.18094
0.929391
0.950729
1.22482
0.957076
0.98226
1.26676
0.80234
0.906901
0.762256
0.77078
0.736425
0.869384
0.917759
0.954619
1.22004
1.30921
0.999459
1.00402
0.950034
1.22573
0.962442
1.25809
1.02847
1.32272
1.01252
1.23679
0.976231
1.02113
1.41425
1.33624
1.2642
0.980294
1.0164
1.32725
1.29313
1.05364
0.997488
1.02669
1.4595
1.08921
1.34487
1.12501
1.52968
1.69415
1.06685
1.55661
1.14076
1.4201
0.189726
0.171034
0.206561
0.158217
0.198843
0.185198
0.172861
0.166828
0.188888
0.179574
0.196612
0.190799
0.181209
0.185868
0.19844
0.176867
0.170711
0.163376
0.166697
0.171622
0.159933
0.173703
0.189044
0.20291
0.189423
0.21233
0.19024
0.191905
0.206253
0.179785
0.161894
0.180132
0.155033
0.18211
0.158095
0.177054
0.187714
0.202181
0.184177
0.188402
0.211677
0.189566
0.204994
0.175674
0.192608
0.182174
0.187645
0.18943
0.180011
0.197274
0.175193
0.158736
0.15503
0.179247
0.154683
0.181483
0.157715
0.170006
0.167888
0.160172
0.176345
0.166426
0.170516
0.159593
0.164365
0.15941
0.163445
0.156646
0.163758
0.157836
0.163974
0.169606
0.174027
0.166262
0.175393
0.166684
0.176569
0.168341
0.169562
0.174737
0.169983
0.177544
0.175361
0.170138
0.168808
0.163416
0.165702
0.162139
0.163795
0.164069
0.163526
0.163916
0.16446
0.167923
0.163562
0.164657
0.165536
0.163318
0.165143
0.163938
0.163291
0.160891
0.162601
0.163419
0.163439
0.163368
0.197046
0.19096
0.188924
0.195468
0.196471
0.190246
0.196074
0.197243
0.195846
0.191183
0.18925
0.196334
0.190398
0.196796
0.207467
0.21228
0.209283
0.212183
0.207868
0.207721
0.212966
0.198601
0.190887
0.190963
0.198944
0.19855
0.19097
0.198449
0.172473
0.181905
0.170945
0.179685
0.17109
0.181295
0.172284
0.164755
0.160653
0.160585
0.164038
0.164075
0.15943
0.164156
0.17257
0.171209
0.182091
0.179955
0.172436
0.18142
0.171286
0.164653
0.15587
0.163986
0.155837
0.164229
0.164188
0.156832
0.173485
0.182502
0.182566
0.173322
0.173395
0.182587
0.173342
0.16431
0.163255
0.159307
0.156584
0.163828
0.163655
0.157803
0.172449
0.17837
0.170694
0.178518
0.171124
0.179661
0.171229
0.193751
0.183868
0.190849
0.187727
0.191712
0.192975
0.186788
0.195383
0.186804
0.190403
0.194636
0.195411
0.194691
0.188217
0.205087
0.20994
0.208448
0.211514
0.205524
0.20697
0.210794
0.196879
0.189164
0.190344
0.198209
0.196749
0.19789
0.189164
0.169553
0.175133
0.166785
0.178779
0.166914
0.169403
0.17803
0.162067
0.160104
0.157374
0.158424
0.160179
0.161476
0.157275
0.161642
0.15951
0.156113
0.154613
0.15999
0.161078
0.155738
0.17088
0.178014
0.181339
0.170441
0.17176
0.179476
0.169548
0.163119
0.15478
0.163536
0.155502
0.162795
0.163709
0.1557
0.171903
0.180853
0.181975
0.172849
0.171855
0.17288
0.180828
0.162704
0.158069
0.162695
0.156207
0.163097
0.162249
0.156606
0.160813
0.160047
0.162185
0.160052
0.160439
0.160885
0.161978
0.167914
0.175996
0.174252
0.16955
0.16836
0.174039
0.168378
0.162998
0.1666
0.163134
0.164235
0.162832
0.164022
0.164134
0.162332
0.159718
0.162787
0.162213
0.16286
0.161844
0.162167
0.386645
0.343301
0.115242
0.0539443
0.54329
0.506371
0.615975
0.562986
0.0596136
0.10832
0.1245
0.181229
0.198005
0.301548
0.279935
0.0771268
0.22779
0.165896
0.291675
0.236517
0.339679
0.382056
0.0355627
0.311081
0.0266106
0.188996
0.0369314
0.0300247
0.0283019
0.0284074
0.028469
0.0283614
0.028332
0.0280458
0.0279082
0.0278477
0.0279963
0.0281905
0.0280811
0.0282828
0.0272386
0.0277138
0.0273159
0.0268824
0.0305108
0.02778
0.027909
0.0276071
0.0365091
0.0394652
0.027165
0.0259798
0.0272204
0.0269365
0.0270917
0.0310553
0.0328924
0.0268369
0.0320661
0.0273638
0.0272181
0.0290807
0.0768973
0.0493958
0.0324396
0.0287193
0.0264527
0.0263248
0.0283633
0.0657953
0.0393758
0.0315149
0.0338561
0.217693
0.0642781
0.0751116
0.0765083
0.0878094
0.0321416
0.0401679
0.172079
0.261329
0.187599
0.107407
0.122057
0.0636294
0.223173
0.363695
0.248273
0.399087
0.434051
0.444568
0.380695
0.371375
0.5138
0.387083
0.452252
0.536736
0.543211
0.440403
0.286859
0.400175
0.335559
0.419709
0.463208
0.45553
0.433232
0.450262
0.528712
0.418015
0.466014
0.56419
0.553774
0.480846
0.0576929
0.0369411
0.0343037
0.349037
0.0319363
0.419812
0.518844
0.476023
0.0317484
0.0314913
0.0316203
0.0597604
0.0614213
0.0672418
0.0646885
0.0326823
0.0324431
0.0319194
0.075491
0.0654822
0.0740983
0.0904094
0.0382925
0.0334297
0.0328892
0.082976
0.110713
0.12035
0.0778875
0.0431057
0.0390729
0.0349206
0.0956988
0.198273
0.146569
0.125954
0.167738
0.361943
0.173843
0.194141
0.380659
0.185645
0.393559
0.217046
0.385124
0.188099
0.214108
0.453827
0.418126
0.256414
0.23735
0.295572
0.427125
0.484408
0.311572
0.224551
0.438793
0.269284
0.391754
0.491044
0.499582
0.346865
0.461905
0.322793
0.0285122
0.0280945
0.0285154
0.0301623
0.0297704
0.0291773
0.0277057
0.0277725
0.0297341
0.0291874
0.0291674
0.0290242
0.0295366
0.0295405
0.0290801
0.0294552
0.0296807
0.0289452
0.029099
0.0291233
0.0289843
0.029376
0.0285107
0.0286656
0.0285809
0.0288054
0.0292423
0.0291472
0.0288577
0.0276936
0.0277012
0.027712
0.0291538
0.0291467
0.0290878
0.0291166
0.0284908
0.0284043
0.0284965
0.028758
0.0287001
0.0287696
0.0289494
0.0278342
0.0277586
0.0277471
0.0291148
0.0291792
0.029153
0.0290842
0.0282589
0.0276436
0.0276006
0.0287602
0.0288313
0.028985
0.0290029
0.0287062
0.0282479
0.027769
0.0285464
0.028102
0.0288275
0.0289862
0.162488
0.161338
0.16474
0.166249
0.189211
0.170566
0.167324
0.163814
0.160109
0.168063
0.158256
0.163864
0.159474
0.159247
0.167142
0.179076
0.191374
0.182087
0.16989
0.180457
0.172059
0.178667
0.17146
0.159247
0.155949
0.161901
0.15932
0.163512
0.163466
0.164694
0.164705
0.171801
0.170513
0.164626
0.162258
0.168297
0.163083
0.171945
0.164912
0.168474
0.162517
0.168899
0.164833
0.157709
0.158673
0.15805
0.160073
0.158268
0.158791
0.158611
0.158137
0.158606
0.156847
0.15753
0.157673
0.158284
0.158623
0.157723
0.158371
0.156491
0.160477
0.156839
0.157989
0.159188
0.160264
0.170206
0.169719
0.162453
0.171973
0.161426
0.169954
0.163751
0.177741
0.169545
0.183718
0.174245
0.166588
0.174399
0.165226
0.158086
0.15805
0.162617
0.171234
0.163445
0.170011
0.163134
0.156754
0.157188
0.165411
0.159457
0.160688
0.16709
0.161299
0.147194
0.16052
0.162416
0.158833
0.157369
0.166027
0.156542
0.165397
0.148966
0.041683
0.0297912
0.0909755
0.0872298
0.033059
0.0281273
0.157733
0.16709
0.166052
0.158205
0.164458
0.157196
0.165263
0.149554
0.0919067
0.0941004
0.089362
0.145973
0.145912
0.0906943
0.159657
0.16823
0.167984
0.15963
0.166669
0.158981
0.166136
0.148269
0.0865238
0.089105
0.145689
0.0863062
0.0877222
0.145916
0.162471
0.155933
0.155634
0.155086
0.161562
0.154607
0.161784
0.0425719
0.0304099
0.0302199
0.040982
0.0303333
0.0416021
0.0301233
0.164551
0.159437
0.158792
0.158603
0.16418
0.157746
0.165071
0.0880591
0.145384
0.145025
0.0876841
0.144981
0.145295
0.0885206
0.161435
0.155388
0.155438
0.161237
0.155125
0.15496
0.161156
0.0396825
0.0405911
0.030005
0.0394416
0.0293494
0.0401877
0.029846
0.166034
0.160584
0.160007
0.159954
0.166588
0.159256
0.166005
0.163634
0.163324
0.15612
0.155277
0.161751
0.15483
0.162027
0.0868172
0.146139
0.144874
0.145292
0.0851917
0.0868318
0.145617
0.0284764
0.0390414
0.0394487
0.0399444
0.0296277
0.040442
0.0293287
0.156798
0.164304
0.163679
0.161989
0.155621
0.155247
0.161669
0.0284509
0.0441102
0.0395691
0.0383514
0.0281129
0.0391523
0.0287958
0.149623
0.15514
0.0448753
0.0302867
0.16147
0.158583
0.0631628
0.0474842
0.114184
0.153963
0.104464
0.162167
0.0997663
0.159937
0.120938
0.157844
0.139806
0.131715
0.129121
0.165222
0.164671
0.135787
0.162823
0.165601
0.105398
0.117072
0.130852
0.117919
0.161773
0.0621238
0.0339855
0.0333831
0.0579372
0.0329661
0.0570106
0.0335026
0.166237
0.15988
0.165635
0.163145
0.161923
0.165113
0.163712
0.165726
0.159301
0.160009
0.161573
0.162789
0.16432
0.161667
0.157702
0.153836
0.132004
0.128664
0.157164
0.126614
0.155766
0.1669
0.162241
0.165113
0.166674
0.163082
0.166544
0.165052
0.152252
0.0886892
0.0944865
0.154471
0.0962442
0.10446
0.157171
0.0523432
0.0596089
0.0322337
0.0330397
0.0338739
0.053287
0.0330984
0.0464596
0.0316038
0.0313185
0.0506637
0.032472
0.0522383
0.0325423
0.0406771
0.0428325
0.0308213
0.0436673
0.0313049
0.0469837
0.032013
0.474758
0.50809
0.591655
0.48577
0.596211
0.516579
0.567785
0.496573
0.533615
0.586758
0.604705
0.525267
0.576266
0.50562
0.410625
0.512937
0.583582
0.499631
0.645396
0.662169
0.548483
0.543556
1.12722
1.12568
1.13704
1.13076
0.558187
1.1072
1.1341
0.621453
0.588741
1.11461
1.12106
0.455572
0.388484
0.297064
0.520531
0.556681
0.685304
0.629643
0.948075
0.897982
0.601044
0.570361
1.12757
0.618292
1.21169
1.1536
1.28362
0.669059
0.635312
1.12646
0.639296
1.21562
0.190794
0.276945
0.353012
0.35809
0.406089
0.417747
0.435358
0.521118
0.532341
0.540175
0.666116
0.672557
0.682605
0.676482
0.49246
0.507952
0.501088
0.659081
0.654732
0.661284
0.665393
0.668697
0.512406
0.502801
0.493817
0.502819
0.655671
0.66217
0.692807
0.678441
0.527395
0.53799
0.517577
0.671782
0.685339
0.52232
0.535999
0.515498
0.670573
0.688607
0.675159
0.683831
0.536087
0.578404
0.55648
0.69709
0.682782
0.694111
0.708446
0.377984
0.420982
0.395868
0.469415
0.445889
0.45442
0.48052
0.35109
0.40761
0.387715
0.448009
0.431657
0.447141
0.463645
0.559552
0.59449
0.566872
0.698662
0.712692
0.716934
0.693554
0.575227
0.71028
0.564723
0.591354
0.702453
0.721738
0.729293
0.562861
0.596326
0.589725
0.704883
0.700536
0.719572
0.723372
0.600981
0.607713
0.621143
0.712798
0.723948
0.731191
0.741669
0.600892
0.607636
0.582121
0.709125
0.739443
0.726941
0.722532
0.46935
0.570019
0.486051
0.575402
0.492828
0.504029
0.58903
0.0797367
0.276921
0.0960997
0.0355796
0.462916
0.590429
0.537535
0.551273
0.0448924
0.0395249
0.0991965
0.0591138
0.127781
0.151654
0.200311
0.0535196
0.178766
0.0964973
0.267475
0.185864
0.268168
0.342558
0.165972
0.227119
0.116275
0.339136
0.238732
0.293051
0.38286
0.274735
0.490304
0.324307
0.497632
0.349748
0.392344
0.517388
0.190704
0.358752
0.297037
0.353842
0.436341
0.406487
0.418165
0.436506
0.514272
0.382173
0.436582
0.554087
0.465497
0.537079
0.461237
0.525963
0.417241
0.448524
0.563858
0.479564
0.541528
0.468639
0.505235
0.57033
0.576345
0.486142
0.493094
0.556445
0.435329
0.42786
0.410119
0.467508
0.515859
0.494998
0.485899
0.618751
0.650473
0.635471
0.753234
0.738399
0.754627
0.768673
0.623045
0.638487
0.615165
0.743427
0.772848
0.766987
0.749868
0.500939
0.586387
0.608254
0.519661
0.62893
0.607242
0.538608
0.640583
0.636834
0.613592
0.741446
0.767801
0.744302
0.765174
0.543345
0.59907
0.515144
0.526954
0.644553
0.556056
0.614087
0.62755
0.64895
0.661081
0.773704
0.750635
0.760273
0.783867
0.854564
1.13382
0.854997
0.858895
1.13043
0.858853
1.13609
0.861626
0.86737
1.12891
1.12867
0.862516
0.865863
1.13325
1.13768
0.859509
0.861815
1.13683
0.856425
0.859472
1.13763
1.13288
0.871412
0.864831
0.862245
1.13011
0.867224
1.13411
0.852625
1.11895
0.857656
0.856983
1.10175
0.851569
1.10708
0.0577109
0.0322858
0.328828
0.0314551
0.334177
0.402807
0.397509
0.0324401
0.031566
0.298903
0.0342482
0.486903
0.44193
0.0344262
0.544291
0.539958
0.0315588
0.0315508
0.031598
0.0589184
0.0580833
0.0593295
0.057997
0.031623
0.0315549
0.031565
0.0586934
0.0587002
0.0580361
0.0597164
0.0322251
0.0317713
0.0317783
0.0614476
0.0694255
0.0623269
0.0675736
0.0322345
0.0318741
0.0317608
0.0612754
0.0698778
0.0674694
0.0627638
0.033853
0.0400626
0.0386922
0.0873571
0.0830678
0.118178
0.127423
0.0338783
0.0401308
0.0387195
0.0877028
0.0830614
0.118219
0.127146
0.161534
0.159176
0.320225
0.341064
0.164135
0.331826
0.157233
0.161798
0.322559
0.346958
0.161812
0.334176
0.157841
0.167087
0.370275
0.201704
0.178472
0.172458
0.388457
0.193427
0.356502
0.172111
0.199628
0.363673
0.386621
0.176119
0.192843
0.353802
0.111793
0.0633487
0.12658
0.187207
0.300079
0.202556
0.281961
0.200957
0.123408
0.0625311
0.0575707
0.111229
0.187016
0.281818
0.445878
0.319194
0.247431
0.432451
0.234659
0.303125
0.476909
0.245877
0.431178
0.23397
0.302634
0.483355
0.318047
0.475692
0.0299386
0.0278253
0.0293795
0.0280448
0.0299125
0.0296947
0.029214
0.0292666
0.0295172
0.0295144
0.0299943
0.0297477
0.0299617
0.0295748
0.0294344
0.0297955
0.0293592
0.0293048
0.0294885
0.0296686
0.0299039
0.0295173
0.0297031
0.029462
0.0298799
0.0298527
0.0299677
0.0294678
0.0294137
0.0298501
0.0292451
0.0292864
0.0294217
0.0297829
0.0299007
0.029407
0.0293382
0.0293405
0.0278491
0.0278349
0.0293305
0.0278242
0.02937
0.0277494
0.0292097
0.0277648
0.0292872
0.0278235
0.0292908
0.0278107
0.0295061
0.0293853
0.0279215
0.027978
0.0294588
0.0278791
0.0294314
0.0292311
0.0277864
0.0278518
0.0293132
0.0279145
0.0293682
0.0278407
0.372868
0.445483
0.511719
0.534327
0.387904
0.437364
0.504098
0.515346
0.448897
0.38925
0.373407
0.535808
0.43838
0.505272
0.168949
0.157716
0.0326244
0.032977
0.16204
0.167271
0.0660875
0.055938
0.130105
0.165139
0.126115
0.172349
0.161291
0.133497
0.13872
0.135297
0.164768
0.135291
0.150644
0.157633
0.136011
0.12504
0.0949859
0.0949294
0.0337823
0.0309098
0.108939
0.0326879
0.0640285
0.0589068
0.0537043
0.0335276
0.0327256
0.0529728
0.0331997
0.0593756
0.15522
0.127572
0.136649
0.135631
0.15045
0.157469
0.136349
0.1624
0.127915
0.139774
0.130453
0.171997
0.161099
0.134017
0.0975881
0.0340318
0.0327053
0.0950803
0.0308308
0.109311
0.032668
0.0616985
0.0333565
0.033881
0.0595744
0.032776
0.0536307
0.0332285
0.155604
0.159237
0.158427
0.154033
0.154258
0.155512
0.159764
0.157254
0.158933
0.163929
0.159811
0.160511
0.156691
0.161095
0.159081
0.154423
0.125704
0.129915
0.156588
0.123472
0.15864
0.169485
0.167938
0.163453
0.167967
0.167946
0.166839
0.165855
0.170811
0.171856
0.16803
0.1711
0.168899
0.170267
0.168858
0.168935
0.162597
0.162789
0.166131
0.167391
0.164097
0.167634
0.151067
0.153713
0.135224
0.134329
0.154454
0.134462
0.150398
0.157856
0.161446
0.161394
0.165569
0.161945
0.158025
0.161972
0.151063
0.153712
0.135171
0.134309
0.150375
0.134432
0.154472
0.153434
0.151983
0.151975
0.150881
0.15224
0.153248
0.152246
0.155592
0.158365
0.159159
0.154009
0.1597
0.155496
0.154258
0.14962
0.135905
0.135858
0.148038
0.148941
0.135311
0.148971
0.151091
0.129465
0.156876
0.129238
0.154894
0.130503
0.154818
0.0508892
0.100945
0.0469104
0.0919589
0.0987314
0.0460175
0.0525437
0.0509177
0.046834
0.100974
0.0918737
0.0525837
0.0987586
0.0459495
0.034933
0.0301964
0.0358725
0.0301859
0.029795
0.0353615
0.0353504
0.0572124
0.106992
0.10697
0.063146
0.0601858
0.104629
0.0601749
0.154955
0.156783
0.156742
0.15267
0.158216
0.154224
0.153485
0.151522
0.15651
0.131433
0.130996
0.15467
0.154923
0.131883
0.151465
0.153342
0.136042
0.136342
0.154322
0.15058
0.135782
0.15159
0.135357
0.153963
0.135593
0.150659
0.154889
0.135428
0.153251
0.151354
0.151838
0.150794
0.152688
0.15192
0.152221
0.15546
0.158435
0.158386
0.153868
0.154897
0.154281
0.159493
0.150107
0.136743
0.136234
0.14818
0.149314
0.149166
0.136303
0.168309
0.165013
0.166254
0.161726
0.166201
0.164948
0.164969
0.159049
0.13103
0.154662
0.126095
0.158704
0.156781
0.124737
0.170014
0.170666
0.167697
0.170928
0.170143
0.167734
0.168218
0.168389
0.161918
0.162577
0.165844
0.167503
0.166341
0.163712
0.0518249
0.0947558
0.048443
0.102455
0.0475486
0.0534259
0.100394
0.0513892
0.0930253
0.101107
0.0469098
0.0524173
0.0995913
0.0465455
0.0348813
0.0301113
0.0358025
0.0301256
0.0353116
0.0352402
0.0297472
0.0576452
0.10789
0.10719
0.0634151
0.0607619
0.0600652
0.105539
0.869949
1.12019
0.862785
0.864736
1.11825
1.11214
0.874225
0.653416
0.67585
0.692334
0.773146
0.815262
0.788529
0.797924
0.863362
1.11256
0.871441
1.09887
0.875949
0.858577
1.10423
1.15015
0.88193
1.1355
1.13255
0.876569
0.891876
1.14553
0.8758
1.12987
0.874342
0.889176
1.14087
0.890793
1.14216
0.871556
1.12116
0.896312
1.1216
0.884516
1.11141
0.882691
0.542651
0.593156
0.653807
0.662166
0.572124
0.632292
0.562946
0.879556
1.12863
0.886281
1.14234
0.895474
0.90314
1.14798
0.919728
1.17759
1.22011
0.914099
1.21454
0.94282
1.17234
0.91166
1.21165
1.16849
0.942282
0.913055
0.940772
1.16904
0.911109
1.13707
0.897205
0.914746
1.18157
0.929484
1.16074
1.17119
0.94643
0.917161
0.924996
1.22676
0.955363
1.17945
0.93754
1.22256
0.991246
1.24849
0.955073
0.970109
1.19599
1.72816
2.16454
2.22332
2.48962
2.48174
2.15052
1.715
2.23755
1.58752
2.16089
1.58878
1.61047
1.60615
2.17516
2.17407
1.57591
2.16174
1.58374
1.59572
1.60116
2.17171
2.1626
1.65679
1.72232
1.65106
2.20902
2.26374
2.20916
2.26385
1.71756
1.64227
1.64582
2.2054
2.255
2.19839
2.2609
2.48535
2.41258
2.40247
2.49117
2.36357
2.48793
2.37491
2.489
2.4114
2.41596
2.49069
2.3737
2.48464
2.37901
2.50254
2.51365
2.30869
2.24102
2.49931
2.51794
2.32231
2.50257
2.24681
2.32037
2.51363
2.49735
2.51874
2.32716
2.49464
2.02107
2.20659
1.81999
2.46815
2.13374
1.71958
2.21372
2.36312
1.98707
2.40295
2.17412
2.46923
1.53597
2.13718
2.47694
1.56113
2.46593
2.12384
1.60728
2.50149
2.48798
2.49161
1.58943
2.4924
2.15964
2.4827
1.57263
2.17261
1.8793
1.9078
2.01585
1.85703
2.11657
1.40299
1.89738
2.25063
2.50482
1.78578
1.95964
1.56721
1.53392
1.54167
2.16195
2.12715
2.12221
2.16477
1.61144
1.61284
1.61137
2.22524
2.23467
2.22512
2.21322
1.60646
1.59331
1.60782
2.20346
2.229
2.22428
2.2033
1.58703
2.16613
1.58475
1.59438
1.59944
2.20036
2.1879
1.55289
2.13861
1.56165
1.56466
1.54593
2.12426
2.15198
1.57551
2.17319
1.58472
1.58579
1.59732
2.20077
2.18368
1.54425
1.52421
1.53253
2.10975
2.11039
2.11556
2.10396
1.57705
2.12241
1.55645
1.55659
1.54212
2.11365
2.12262
1.56937
2.13863
1.56888
1.59491
1.60267
2.15645
2.16016
1.66043
2.16516
1.61078
2.14181
1.58176
1.62363
2.17644
1.58076
1.63786
1.64527
2.14142
2.14501
2.19978
2.19813
1.64502
1.73617
1.6576
2.25435
2.19625
2.20455
2.26506
1.62004
1.59521
1.68779
1.6602
2.15375
2.20775
2.22762
2.32896
2.261
1.72926
1.76922
1.68514
2.22627
2.29031
1.71636
2.20517
1.65961
1.73226
1.79503
2.26222
2.31081
1.73193
1.86191
1.73836
2.2746
2.3663
2.36519
2.27452
1.89167
2.38222
2.30927
1.79232
1.8796
2.37358
2.45188
1.78322
1.87671
1.75348
2.28154
2.39241
2.37145
2.30142
1.83193
2.03706
1.90114
2.43055
2.33722
2.38924
2.47986
2.50401
2.4776
2.45582
2.47036
2.47629
2.44882
2.50431
2.54412
2.49803
2.55276
2.54403
2.47716
2.53403
2.4879
2.49859
2.53227
2.54909
2.54426
2.4849
2.53071
2.49035
2.46288
2.39299
2.46344
2.43147
2.46351
2.46176
2.42337
2.47698
2.40927
2.4281
2.47167
2.45325
2.43307
2.4919
2.49448
2.44299
2.43292
2.52418
2.45828
2.51408
2.46883
2.50165
2.44169
2.44613
2.5256
2.46723
2.51388
2.47189
2.27994
2.14377
1.99324
2.45557
2.57919
2.52326
2.53348
2.47212
2.37906
2.39804
2.35883
2.47803
2.47813
2.33736
2.46334
2.34966
2.38464
2.46213
2.3757
2.46457
2.40796
2.48026
2.47102
2.31198
2.25466
2.35226
2.48443
2.30471
2.35062
2.47797
2.47645
2.49767
2.30033
2.50109
2.28474
2.30255
2.50801
2.49221
2.49354
2.17359
2.50776
2.27495
2.29688
2.32917
2.4772
2.49604
2.21283
2.25711
2.49894
2.5122
2.50745
2.16063
2.49981
2.11158
2.51091
2.23151
2.49333
2.24907
2.17114
2.14392
2.50537
2.51002
2.04414
2.51208
2.07348
2.50077
1.94787
2.51244
2.13316
2.50998
2.51689
2.1918
1.99266
2.5297
2.52246
2.52191
2.17137
2.5045
2.51167
2.05449
2.50486
1.74383
2.47508
1.90908
1.98755
2.48287
2.50805
2.49899
1.66951
2.44848
1.87235
2.47006
2.25638
1.57014
1.53592
2.40444
2.38145
1.73069
1.74122
1.80679
2.17783
2.10496
2.27229
2.15764
2.1907
2.47948
1.59179
2.16139
1.60294
1.6191
1.6369
2.1759
2.18622
1.76643
1.66845
1.6906
2.26908
2.21392
2.22819
2.28495
1.62773
2.20966
1.66856
1.71514
1.66822
2.20938
2.24562
1.8649
1.77972
1.72713
2.2549
2.35488
2.29377
2.31364
2.47794
2.38429
2.35873
2.34388
2.48482
2.48612
2.31472
2.20706
2.49283
2.50188
2.48277
2.32361
2.49269
2.27229
2.51004
2.28505
2.49703
2.49869
2.13994
2.50935
2.24854
2.50887
2.50604
1.96236
2.50379
2.06555
2.50978
2.19115
2.49157
2.31478
1.60671
2.1616
2.15572
1.5945
2.4833
2.469
1.58226
2.15261
1.58642
1.58524
1.58243
2.16785
2.15592
1.59961
1.58731
1.58501
2.20062
2.17451
2.18806
2.16649
2.17587
1.61122
1.5879
1.58922
2.16506
2.16145
2.17493
1.60314
2.18676
1.63745
1.61982
1.59216
2.15804
2.17668
2.47666
2.41458
2.39021
2.43911
2.49683
2.48346
2.41466
2.52439
2.44315
2.45838
2.50174
2.51422
2.49476
2.43306
2.37503
2.36377
2.48855
2.41272
2.48992
2.4858
2.40266
2.34405
2.48536
2.48643
2.47806
2.35877
2.47981
2.38443
1.23021
1.225
1.225
1.225
1.225
2.05564
1.22598
1.22501
1.67211
1.22599
1.22651
1.225
2.18193
1.30607
1.33822
1.53488
1.44977
1.24384
1.23819
1.88031
1.2539
1.27642
1.30127
1.36644
1.23301
1.22923
1.22501
1.225
1.225
1.225
1.225
1.225
1.225
1.225
1.225
1.225
1.22583
1.22501
1.22819
1.29094
1.43342
1.22506
1.22593
1.23163
1.225
1.225
1.225
1.225
2.29696
1.22623
1.22502
1.22502
1.23141
1.58897
1.2262
1.22511
1.22601
1.23656
1.225
1.225
1.225
1.22503
2.25918
1.37744
1.36401
1.59768
1.62861
1.25083
1.24845
2.24964
1.24779
1.36056
2.29343
1.37594
1.62501
1.25053
1.52048
2.16398
2.02691
1.24285
1.33292
1.30031
1.23713
1.35132
1.62952
1.84253
1.25028
1.27153
1.23213
1.22862
1.25527
1.30932
1.4314
1.23661
1.22955
1.22657
1.22558
1.27962
1.22534
1.22806
1.23228
1.28643
1.22846
1.22538
1.22527
1.2702
1.2275
1.22852
1.2567
1.22671
1.22518