/*--------------------------------*- C++ -*----------------------------------*\
  =========                 |
  \\      /  F ield         | OpenFOAM: The Open Source CFD Toolbox
   \\    /   O peration     | Website:  https://openfoam.org
    \\  /    A nd           | Version:  9
     \\/     M anipulation  |
\*---------------------------------------------------------------------------*/
FoamFile
{
    format      ascii;
    class       volScalarField;
    location    "0.00155";
    object      rhoE;
}
// * * * * * * * * * * * * * * * * * * * * * * * * * * * * * * * * * * * * * //

dimensions      [1 -1 -2 0 0 0 0];

internalField   nonuniform List<scalar> 
12470
(
164447
46194.6
153374
147490
142543
190508
366787
183761
239558
12715
78440.2
55672.1
517287
332510
524176
575128
152616
149027
147872
166321
159067
158183
170984
54064.8
117687
116720
133822
69931.1
81207.5
137509
155915
153671
150784
161855
186462
168446
176151
147382
146143
141359
153131
157761
152390
158698
11532.4
18575.6
17396.5
29219.5
32514.1
48399.5
48706.6
59892.4
130729
122908
115339
184056
149905
199741
17678.1
49572.3
22868.6
98401.1
201432
200327
102274
144430
152324
149161
154507
163312
157089
160340
177040
487881
170122
218319
383292
509609
195711
189907
176117
257818
200178
206213
173025
194791
183041
242073
247019
301738
221379
196607
209022
164096
170534
184066
179891
182019
163678
171106
312461
340688
454969
563850
541255
245326
406433
204180
565980
185616
244488
558734
551338
259212
166112
175475
198230
185890
187050
171477
172577
331029
405063
536991
544970
548702
408656
334148
342257
129833
174919
179350
151364
271829
517052
199545
437881
367856
431879
143134
548255
548768
554075
511943
159993
197549
174161
212831
182680
207117
274373
156656
231056
267968
270742
319735
407809
382334
133142
250347
259724
309119
315211
386510
372303
156789
162374
156834
167583
162235
172324
173730
255161
235823
198257
244550
425722
294820
358946
418375
348848
369804
442856
482518
454377
468269
307544
286030
221481
259965
481463
333729
389099
435937
553955
468605
485086
553417
545925
492362
185924
169320
167020
191150
198922
220249
183405
180905
215754
182157
200413
215140
244089
189751
335479
384166
352659
408417
428339
438453
394439
433222
520222
444520
450934
514375
517780
441078
309179
472929
428972
500614
382379
359694
447641
496869
513633
547382
559819
549631
510722
512334
229087
227417
324818
238456
281588
266805
204713
467299
490766
551542
532634
532266
494000
460364
32334.1
149073
302084
310306
18921
193534
23457.5
9179.51
8320.59
8497.77
8769.26
10380.3
10840.3
11070.1
14422.8
11832.8
104766
22576.1
65456.1
17523.8
43396.1
147543
10395.5
35255.3
13650
77658.8
19127.5
35776.2
119788
11545.8
54512
15289
68465.1
17577.6
39104.4
130814
236888
156635
54503.1
118123
255614
207761
208546
224353
208766
84128.8
126464
294020
237466
224931
103467
121958
34839.8
104469
235563
181319
194039
188065
276221
285752
268023
249267
240488
240369
126314
95220.2
129046
116245
120853
114205
130477
113049
133067
100699
7262.81
6484.17
101963
96940.8
12948.1
11448.3
118992
126272
114773
118082
113096
124957
121493
119750
118287
117816
125631
119334
112574
124646
43754.4
95414.4
49038.5
103807
98623.6
54112.5
39556.4
52110.4
44704.6
104122
97894.1
99192
42876.7
54936.1
112837
120120
116459
115264
115866
112280
118878
111122
114503
115251
117325
114234
111768
117987
6807.75
10429.2
11957
11037.3
6361.32
12511.9
6775.81
6595.2
11269.5
6370.44
6892.04
11144.8
12814.4
6784.51
136583
134094
135257
135928
130663
126474
129957
133631
135893
135063
125577
130431
126326
129774
96120.2
38503.7
38132.4
38788
95370.2
95629.6
38329.9
37203.9
34905
34815.9
93275.9
92073.2
37796.2
94764.5
122110
134175
129100
131773
127001
120288
124378
125992
130345
126226
119397
122945
119486
123268
8038.34
11152.4
8005.42
10874.9
10126.7
10488.7
7214.6
11294.4
8104.08
7997.72
10664.2
7324.16
10699.3
7216.03
134449
43740.2
143615
123812
129602
112711
130597
116975
138550
96069.1
10040.2
7514.48
97799.3
98865.4
11236.4
11942.6
114434
125020
121943
122889
127297
120697
128370
99445.4
43057.7
47055.9
37818.6
96592
94306.6
40630.6
110473
112468
109991
115143
116625
113985
117555
12028.7
6864.91
6713.17
10566.4
7011.33
10843.9
7235.29
124595
133209
128852
120326
126649
126000
129601
93369.5
38528.5
37075.6
94229.7
38557
36390.9
93022.9
137077
129216
134761
131328
136386
127439
132174
97776.2
39423.3
38827.1
37057.3
94925.7
94447.1
37577.2
118472
121080
116246
114773
112641
117594
119977
121063
131938
122768
126858
128240
119796
123948
8214.91
11482.5
10653.3
10693.7
7127.26
10537.1
7500.77
8465.66
8286.21
11653.4
10959.1
7527.79
10753.1
7814.64
103818
100460
40283.9
98947.2
40066.9
38643.6
96810.1
141647
140434
135285
137737
131836
138745
135015
138718
130506
127171
123464
134564
130835
126613
14262.2
12253.9
8667.63
8653.61
12117.7
11547.6
8191.55
9475.53
7446.04
7625.56
15978.6
8263.86
16183
6368.62
8465.6
6381.14
6917.63
6298.62
6806.72
7321.11
7945.89
8102.36
7400.63
6262.09
6897.23
6769.99
7274.25
7891.28
8045.6
8549.61
9274.77
8378.88
8965.22
10548.7
9120.71
10276.4
8325.72
8215.84
7515
8683.04
9410.72
9272.19
8808.7
8164.47
7579.34
7471.62
8619.21
9297.02
9206.58
8727.76
9400.12
9226.72
8321.93
8903.91
10471.6
10229.8
9028.08
9301.91
12477
10359.8
15003.9
9973.1
9425.48
12160.4
9235.86
15002.2
10356
12396.4
9925.07
12107.7
9312.99
10845.2
129337
13566.6
20200.6
8420.33
10267.8
9138.27
6807.98
6550.33
7962.89
7636.26
7119.59
7447.76
8271.99
8604.79
7983.42
8344.8
7239.96
8493.09
8000.46
9193.32
9158.63
9343.78
8692.68
7774.49
8022.14
8939.99
9209.95
9484.76
9692.58
8942.05
8685.13
10942.7
9192.19
9398.79
12046.7
8885.37
8534.56
8389.67
9260.65
14228.6
11075.1
10357.6
11614
9524.51
9386.78
9556.57
20896.5
13599.1
11270.5
11247.8
13094.4
9379.7
9763.72
32626.3
12741
14912.4
11598.3
37982.4
53999.3
66603.6
17212.6
23220.2
15227.2
245707
25976.8
155654
149960
167379
142273
139265
129009
133969
315631
331427
61943.3
16099.8
52572.7
99092.8
8181.45
129043
136959
133310
134845
138259
139114
142150
97132.3
40604.5
39722.1
100949
41906.8
44773.8
103947
123663
125884
120811
129997
126933
131763
135558
8651.66
12208.4
11723.7
12543.3
8673.43
14486.4
10070.5
146116
139346
141710
144828
163536
152680
149135
114300
102646
43392.7
53067.9
134273
95186.5
114347
148819
140903
144422
145748
167839
155113
150756
121752
107243
47717.7
55939.8
142791
113631
116684
144030
135935
132006
137966
150611
145355
142562
21489.1
9715.64
13939
21617
69522.8
75452
16207.9
31064
15523.4
10862.8
24185
93096
97812.4
18821.3
146853
137698
133841
139064
152571
147274
143524
152812
189474
186215
193935
169524
167957
164168
99690.3
347803
210439
200989
238143
223178
136211
145358
164430
159392
158590
153508
152589
150574
80644.2
216708
332342
201269
228080
213622
75133.1
757326
856007
797854
463122
434198
543935
963170
512176
906835
781376
516787
478694
721419
558940
880786
1.00076e+06
439129
458904
464019
511653
516938
543825
537823
450121
487451
474245
543198
528125
554957
570212
496554
503298
561240
520864
581847
588425
608475
484409
518724
490038
571447
595500
602972
564664
514529
530075
500594
583367
631569
615614
599185
538922
559379
539873
629725
604670
630201
654294
764651
608195
614333
644665
794613
637552
803126
530218
573776
546474
649795
617381
636774
669502
778530
643008
626377
657053
838631
817937
674021
823231
663491
687663
866076
694824
719244
903029
610909
683483
582111
590242
563276
658124
692286
677580
841396
917736
709192
717771
669540
851144
691022
891174
750526
936388
732008
867694
708889
748340
1.01784e+06
956233
898943
715543
747547
952093
923255
773309
730515
755731
1.05254e+06
800509
966134
823119
1.10252e+06
1.21657e+06
785525
1.12254e+06
834489
1.02375e+06
114901
113096
117515
102086
115480
113509
108015
108761
113307
111335
115166
115104
111944
111730
115748
109793
110177
104024
110127
110521
102775
109245
112615
116391
112773
118048
112023
113414
117384
110098
102328
110251
102954
111406
102020
108979
112228
116327
111093
112411
117868
111744
117077
110186
114244
110851
112994
114717
111620
115518
108756
101729
101168
109949
102872
111148
101874
108186
112220
103390
109745
110096
110218
102686
104707
102063
104593
101539
105086
101532
104278
107392
108425
105959
108823
106035
109107
106699
108014
109454
107933
109981
109550
107464
107902
105201
106786
103602
104687
105513
104668
105409
107461
111034
108214
107201
107648
106879
109111
105488
104841
102840
104855
105071
104269
105404
113816
112942
112580
113772
114734
112314
113088
113909
113930
113034
112725
113196
112380
114883
117165
118658
117383
118631
117015
116957
119920
113791
112391
112414
113576
113596
112336
113564
107664
110857
107463
109909
107164
110033
108157
104601
101998
101963
103984
104026
101526
104066
107706
107582
110940
110026
108236
110085
107248
106017
102588
107361
102565
106574
106549
102327
108922
111267
111291
110142
109467
110971
109439
104681
104501
102014
101482
104212
105019
101511
107914
109484
107168
109555
107264
109781
107315
113003
110979
112470
112080
113478
112366
111369
113508
111927
112790
113526
112931
114432
111744
116416
117920
117089
118445
116250
116700
119359
113459
111955
112228
113266
113175
113423
111908
107031
108631
106319
110039
106085
107438
109218
104005
102989
101216
101494
103029
103453
101023
104036
103436
101138
101012
103182
104335
101012
107406
109560
110691
107330
108007
109650
106893
105613
102368
107219
102485
106210
106404
102055
108578
110870
111104
109986
109104
109318
110554
104306
101704
104300
101364
104819
103833
101235
104545
103783
105966
103263
104610
104071
105173
107685
109736
109435
107896
107865
109509
106993
107190
110795
108192
107084
106814
109057
107362
105150
102672
104720
104728
105285
103923
104901
275210
241191
55910.8
22870.5
393577
361572
467739
414298
25584.3
53178.2
62947.6
102047
114028
200171
182844
34481.8
134374
89780.8
187769
143793
231023
265815
13966.7
199907
10055.2
109356
14805.5
11814.8
8780.02
8553.02
8428.7
7331.23
7451.18
7987.21
8096.28
9111.78
9024.47
9104.29
7937.74
7664.51
8554.26
8274.8
9174.08
9415.54
12131.2
9218.73
9148.25
10192.9
14822.1
16063.2
9754.5
9543.98
8856.77
8930.35
9987.5
12597.5
13319.4
9661.59
12900.3
9276.69
9676.62
11148.9
33362.1
20360.9
12673.2
11223.6
9493.41
8959.57
10909.5
27356.1
15876.1
12395.6
13583.7
130665
27867.6
33795.6
34007.6
40742.4
12902.5
16130
89526.9
162287
101869
50410.7
60219.8
26226.2
137573
258312
157421
287431
318927
327971
271742
253375
367952
266641
328419
389385
395477
318088
186689
283396
223879
302993
341617
336228
312199
321979
380800
293410
339529
415342
405350
351371
24470.9
15155.7
14085.1
219209
12557.5
282277
370462
334378
12317.9
11890.1
12130.7
25298.7
26651.9
29946.7
28179.1
13073.3
12986.3
12471.9
34418.8
29110.6
33797.5
42436.9
15795.7
13625.8
13260.1
38324.4
54064.3
59781.8
35344.1
17907.2
16170.9
14391
45433.9
113408
76508.3
63201
93461.7
229947
98643.1
113571
248239
106831
259239
129803
250882
109456
128178
312990
281393
157886
144330
187754
290270
341526
200142
134830
300408
167453
266917
345784
354266
228564
320729
207948
7915.59
9968.7
8169.55
11915.6
5661.43
6441.08
8866.1
9479.63
5500.81
6382.61
6537.94
6856.63
5821.99
5951.46
6731.69
6156.64
5862.83
7483.86
7144.4
6765.57
7108.15
6143.23
7738.83
6680.18
6818.55
7299.78
6211.62
6324.81
7149.47
8707.87
8385.41
8554.54
7531.3
7688.03
7995.76
7859.98
8535.01
7403.25
7051.3
6782
7938.91
7572.38
6512.78
9147.64
9125.92
8787.83
8568.66
8258.31
7910.52
8235.53
10246.4
9310.94
9137.25
8974.85
8847.98
8405.46
8252.99
10766.1
10194.9
9608.5
9145.73
9370.81
8927.98
8648.21
114516
120042
111217
120246
112921
109989
107031
111938
109291
121978
112259
113953
114136
107941
116614
109596
113472
110939
107444
110744
108064
110423
108102
103062
101662
106348
107316
106986
110184
109169
106471
119870
115780
109102
107947
114695
105731
108219
106399
107325
105629
107445
105811
103396
103104
102576
105118
103651
104001
103244
103598
103428
101753
103320
103495
103591
102834
104929
105041
105345
108261
104466
106282
105520
116482
126720
124727
115611
124117
111840
119938
107653
110969
108176
111290
108232
106655
109252
110387
108831
107761
106915
109298
106609
109482
111853
112419
109831
111220
109169
107108
109185
119481
95162.4
125013
115457
119589
138005
148978
133271
144222
97427.6
11665.7
7821.8
52289.4
48112.1
12277.5
9728.79
117756
126434
125226
125410
130024
123665
131124
98493.6
42796.3
44553.2
43314.9
99401.6
99131.3
44234.9
121780
129721
128031
130776
135396
127615
132877
96289.6
38970.4
40711.8
99810.2
41897
42318.2
99113.6
114208
112915
111566
118440
119971
116888
121527
11971.9
7318.17
7398.39
12415
8075.81
12552.7
8150.79
142816
139955
138539
132311
135675
130801
136823
48240.6
108917
108190
44673
102547
102693
45127.7
116550
117008
114229
125908
122959
120076
122901
11279.4
11376.8
7571.69
12386.9
8456.78
12313
8296.91
146192
144833
141906
137192
141122
134266
138663
137431
135915
131889
125267
127148
123816
128710
48491.9
112905
109834
104311
44298.8
44401
103256
9691.95
14664.7
14629.3
13341.6
8905.43
13376.6
8967.84
135030
142364
139160
133185
129729
126861
130159
10216.3
17677.2
15348.3
13493
9192.3
13337.9
9063.54
95057.8
100896
12283
7269.16
102966
100092
19556.9
12790.2
55427.3
99279.1
50420.4
104518
47100.9
102218
59259.7
102125
71020
66318.8
63777.4
109844
104377
67429.5
101869
103436
49626.1
56149.9
64381.3
57211.6
101920
18922.6
6248.33
5882.24
17324.7
6135.24
16286.6
6488.28
102444
102425
100808
106376
104919
100914
101045
102742
102717
100502
104855
105282
102454
101067
89998
88852.8
65682.8
61931.1
89930.5
60086.6
89776.7
102901
105501
110303
102812
106183
102606
101985
97878.9
39508.7
43573.3
98202
44080.7
49332.3
99908.8
14692.7
17993.1
6708.57
6563.77
6463.56
15274.8
6609.29
12918.4
6923.79
6986.76
14324.4
6517.15
14830.1
6699.78
10929.6
11540.5
7067.43
11493.5
6883.31
12737.7
6774.76
348668
376975
440853
358694
446713
385543
419775
367460
401770
439248
456591
394002
428849
374584
291043
325638
394762
309785
456715
398111
357581
352615
662068
697007
676845
704755
368164
727491
764399
440458
405948
671843
705758
339221
261684
186464
385474
406312
523268
480177
649054
590715
409955
380014
717737
430529
818573
789104
910417
495110
456614
727107
457617
831164
104946
167758
238362
235503
282532
295142
309539
331846
347298
353243
412011
417700
437723
432578
301475
316685
309266
396386
388344
396081
402896
407879
321331
311225
302349
311285
389234
398178
443068
423168
336844
347378
326698
413426
433655
330840
345113
324001
410697
437514
417081
431256
345771
390360
368153
450660
430767
450476
468994
257390
301661
272621
346803
322218
330118
358043
227397
283904
261888
320774
304327
321181
339075
375205
411666
381538
462450
483934
488694
457826
383672
465255
373696
400509
456423
480449
489015
372076
407111
399354
460782
454547
478883
485312
414455
420786
437041
473188
490544
498162
514933
415707
425206
396222
474177
517258
500837
491245
338692
420107
353050
426891
361072
370943
440842
35700
167304
44409.7
14600.6
319760
438272
386776
394973
18573.9
16331
47155
25089.8
64175.3
79630.5
114642
22287.7
95725.1
44555.6
167375
104044
167508
228199
88687.9
132417
56153.4
226840
144885
187433
262925
170343
344058
208569
348925
229164
266085
366578
104282
234661
184965
237518
308210
281918
292328
307437
365197
257597
306622
402198
333719
384900
329038
372476
289102
317426
408336
344903
387430
335691
369050
418616
422336
351765
356947
402873
318291
309133
288273
344266
389143
371961
362379
435567
474363
454948
536250
512557
535121
557204
433354
448729
425117
506396
540529
532116
514536
366506
436737
457172
386221
476686
458170
403894
453557
447521
424043
505068
537284
511301
530814
410675
451430
383094
394290
492791
421731
465468
442688
465393
481008
549340
523335
539384
565847
500888
658531
494419
501371
667901
506735
665042
514865
539052
679886
694240
519918
534003
677382
668484
503679
512233
661184
495796
503731
668528
688999
545360
526616
517758
697221
536672
680952
514672
677055
519937
537725
685731
532716
690897
24355.6
12672.6
200630
11581.7
204367
265884
261618
12744.8
11657.6
193116
13892.1
337868
300613
13980.5
385871
383059
11852
11389.5
11614.9
24550.6
24027.7
25170.7
23684.7
11902.7
11453.1
11657.2
24532
24537.5
23867.6
25381.4
12460.7
12174.8
11965.3
26217.3
30973.3
27087.9
29641.4
12503.4
12228.5
12004
26167
31069.4
29640.4
27141.9
13569.9
16444.6
15722.4
40407.5
37818.9
57937.6
63702.4
13620.8
16486
15772.9
40465.6
37888.4
57996.4
63307.6
88008
86352.4
192607
210714
90680.3
202288
84138.1
88655.1
194204
215899
88659
204385
84928.5
93137.4
236894
118005
101569
96901.4
253215
111896
224553
96342.6
116814
231037
251610
99988.9
111349
222074
54358.7
27201.7
63230.9
105640
195020
116933
180460
115163
60941.1
26778
24323.6
53993.3
105427
180181
303236
203151
149650
291626
140496
190914
329415
149049
290655
140021
190677
335823
203058
328561
5326.86
8199.71
6966.16
8978.13
5455.74
5972.68
7302.65
8038.57
6248.48
6247.73
5479.12
5203.63
5331.47
6150.85
6372.2
5284.02
6188.52
6331.44
6214.11
5160.39
5294.48
6101.39
5982.16
6476.02
5682.8
5893.69
5555.24
6862.02
6607.27
5670.76
6923.04
6570.96
6440.05
5855.21
5516.11
6821.15
7359.96
7360.73
8383.45
8055.68
7225.45
8199.1
7535.82
8153.21
7481.51
8350.8
7309.64
8007.28
7170.55
8160.28
8113.52
7612.8
8622.64
8811.77
7965.78
8458.43
7769.65
7707.13
8575.96
8910.02
7559.32
8765.24
7910.41
8416.53
250739
315329
358961
376871
263530
308058
351602
361066
317479
263642
250997
377946
308783
352391
103954
101842
5327.94
6266.84
102499
104597
21106.1
16100.9
64330.5
103690
59762.9
112062
102988
63923.9
68997.6
70275.5
102979
70377.2
100223
101769
76094.2
59380.3
38590.4
38624
5922.02
4895.72
50913
5337.78
20013.9
17041.1
14885
6071.35
6002.71
14039.1
5775.96
17461.6
101140
61372.7
71580.7
70290.3
100227
101669
76388.1
103247
61964.1
70323.8
64415.5
111895
102909
64425
40528.4
6009.31
5362.6
38505
4864.19
51206
5319.99
18673
6389.75
6185.2
17325.9
6004.3
14343.2
5769.74
98947.1
102009
100092
100049
98659.5
100353
100075
98205
101505
99886.8
101619
99678.2
100027
99586.1
89219.5
88061.5
58735.7
63486.6
89203.8
56865
89160.7
102425
107441
103178
100685
100155
106269
101020
102874
112168
107075
102275
107757
102482
101013
102931
100875
103581
106041
106448
101333
102715
90271.2
90449.5
72787.3
68799.8
89929.7
71643.9
90453.8
98310.4
102005
101972
99922.5
99738.6
100306
99770.1
90308.5
90541.6
72833.4
68859.3
90513
71672.1
89999.7
99306.4
100445
100434
98849.3
99240.6
100488
99232.5
98911.1
99995.2
101955
99997.5
100000
100331
98602.9
91308.1
75378.8
75376.8
91643
91675.4
74190.8
91672.9
87933.6
64453.2
88492.6
64358.9
88962.3
67479.9
88927.6
12726.4
43816.6
10838.5
36548.8
42189.5
10500.1
13556.9
12748
10809.9
43896.4
36557.9
13591.5
42236.6
10472.1
5675.49
4718.71
6131.43
4717.01
4637.44
5871.12
5868.43
15633
49099.5
49108.6
19028.7
17319.3
46951.8
17307.8
98833.6
101355
99749.2
99760.6
99789.9
100084
98566.2
88293.4
88976.7
66071.1
65465.4
89405.5
89158.4
68307
90685.4
90870.9
70199.9
73667.7
90407
90899
72476
90560.8
69336.1
90443.9
72901.1
90536.7
90180
72142.4
99343.4
100419
100427
98895.1
100428
99313.5
99214.4
98898
101764
99906.2
99968.6
100226
98595.7
99956.9
91668.5
76037.9
75484.7
91838.9
92109.1
91732.4
74774.5
102511
107009
100850
102913
100820
105946
101045
89379.3
64161.8
88091
58835.5
89043.7
89334.6
57758.5
102939
112068
106913
102113
102330
107580
101475
102937
103439
100806
105852
102530
106268
101275
13203.3
38500.2
11635.7
44832.1
11267.8
14055.1
43219.9
12950.3
37147.8
43810.1
10801.9
13469.9
42658
10719
5659.45
4690.35
6113.1
4682.41
5868.89
5812.06
4612.78
15862.1
49766.7
49120.6
19195.5
17685.9
17222.5
47493.7
550789
688681
532109
549578
719285
702216
567179
475412
499098
518439
558977
607032
580804
585605
560071
733503
580346
704015
585488
555416
709301
749557
566551
724575
717066
558355
582504
741645
561226
714432
556108
580616
743624
586243
739307
571194
745902
614264
738102
597175
720695
588153
408831
450336
497994
506613
434642
480973
425403
572576
741158
588709
754060
598086
614491
769560
618589
782456
823802
610269
814112
640230
773718
608740
812223
777162
645559
614882
638867
771674
635513
761631
610220
635616
820076
659921
791669
788645
657745
626715
642968
849646
674661
805229
663632
859061
720251
875686
687914
695907
828533
1.20006e+06
1.45261e+06
826549
1.46466e+06
1.46229e+06
1.4466e+06
1.19118e+06
839452
1.0459e+06
1.4526e+06
1.0536e+06
1.08664e+06
1.07762e+06
1.46059e+06
1.46119e+06
1.0421e+06
1.45083e+06
1.04214e+06
1.07583e+06
1.07378e+06
1.45903e+06
1.45618e+06
1.13561e+06
1.18981e+06
1.12572e+06
1.47648e+06
1.4976e+06
1.47727e+06
1.4975e+06
1.18646e+06
1.12572e+06
1.12202e+06
1.47509e+06
1.49573e+06
1.47362e+06
1.49665e+06
1.45829e+06
1.05133e+06
1.03978e+06
1.44229e+06
987401
1.43596e+06
999785
1.46619e+06
1.05315e+06
1.05588e+06
1.44405e+06
1.00065e+06
1.44058e+06
1.00449e+06
1.41539e+06
1.37284e+06
917765
841147
1.40904e+06
1.38001e+06
930990
1.41738e+06
845898
930778
1.3793e+06
1.41443e+06
1.38239e+06
935720
1.38121e+06
661262
1.47572e+06
1.29844e+06
1.44158e+06
1.44382e+06
1.20361e+06
819618
988003
1.40998e+06
1.04833e+06
1.44842e+06
1.42509e+06
1.0368e+06
1.44825e+06
1.13525e+06
987206
1.45853e+06
1.43501e+06
1.00964e+06
1.48402e+06
1.12844e+06
1.14267e+06
987890
1.48106e+06
1.44118e+06
1.40135e+06
1.07858e+06
1.465e+06
565330
1.36181e+06
655751
1.31105e+06
1.47564e+06
319653
576140
1.49029e+06
1.34925e+06
508056
1.39533e+06
994000
992838
1.00041e+06
1.42981e+06
1.42604e+06
1.42293e+06
1.43196e+06
1.00371e+06
997595
1.00374e+06
1.45596e+06
1.45831e+06
1.45594e+06
1.45406e+06
991944
994195
998080
1.44272e+06
1.45394e+06
1.45286e+06
1.44339e+06
1.02385e+06
1.44853e+06
1.03085e+06
1.0172e+06
1.01106e+06
1.45032e+06
1.44938e+06
1.03366e+06
1.43624e+06
1.02221e+06
1.00448e+06
1.01318e+06
1.4294e+06
1.43215e+06
1.01849e+06
1.44632e+06
1.01976e+06
1.00325e+06
1.00598e+06
1.44775e+06
1.4405e+06
1.04587e+06
1.009e+06
1.01722e+06
1.4272e+06
1.43237e+06
1.43566e+06
1.42387e+06
1.08663e+06
1.4387e+06
1.05431e+06
1.06218e+06
1.03211e+06
1.43171e+06
1.44078e+06
1.06242e+06
1.44383e+06
1.04844e+06
1.08536e+06
1.10192e+06
1.45542e+06
1.45759e+06
1.16765e+06
1.46001e+06
1.12119e+06
1.44906e+06
1.08567e+06
1.12869e+06
1.46416e+06
1.08894e+06
1.13871e+06
1.14957e+06
1.44954e+06
1.45232e+06
1.47719e+06
1.47558e+06
1.13704e+06
1.22394e+06
1.15539e+06
1.49572e+06
1.47403e+06
1.47629e+06
1.49689e+06
1.13357e+06
1.10736e+06
1.19616e+06
1.16852e+06
1.45764e+06
1.4808e+06
1.4863e+06
1.50788e+06
1.49313e+06
1.22732e+06
1.2557e+06
1.1852e+06
1.48302e+06
1.50163e+06
1.22009e+06
1.47629e+06
1.17063e+06
1.235e+06
1.28484e+06
1.49476e+06
1.50437e+06
1.21668e+06
1.32034e+06
1.2274e+06
1.50349e+06
1.52413e+06
1.5227e+06
1.50326e+06
1.351e+06
1.51301e+06
1.50398e+06
1.28087e+06
1.34478e+06
1.51173e+06
1.51252e+06
1.27384e+06
1.33721e+06
1.24624e+06
1.50457e+06
1.51826e+06
1.5205e+06
1.50648e+06
1.31198e+06
1.43821e+06
1.35958e+06
1.51566e+06
1.50987e+06
1.5132e+06
1.50626e+06
1.50105e+06
1.48151e+06
1.11917e+06
1.12369e+06
1.48644e+06
1.10718e+06
1.4959e+06
1.51191e+06
1.13894e+06
1.5188e+06
1.51189e+06
1.11923e+06
1.50633e+06
1.12839e+06
1.14344e+06
1.51257e+06
1.51879e+06
1.51226e+06
1.13151e+06
1.50721e+06
1.132e+06
1.46519e+06
1.03542e+06
1.45264e+06
1.09111e+06
1.44768e+06
1.46999e+06
1.07869e+06
1.47078e+06
1.05867e+06
1.07953e+06
1.4721e+06
1.10647e+06
1.08832e+06
1.48595e+06
1.47723e+06
1.08764e+06
1.07711e+06
1.50017e+06
1.1028e+06
1.49425e+06
1.11203e+06
1.48557e+06
1.09042e+06
1.09204e+06
1.50139e+06
1.11536e+06
1.49667e+06
1.11604e+06
1.54191e+06
1.48845e+06
1.41412e+06
1.5112e+06
1.43358e+06
1.49073e+06
1.48249e+06
1.45377e+06
1.01638e+06
1.04044e+06
985931
1.43235e+06
1.42015e+06
958916
1.44357e+06
977070
1.02534e+06
1.45679e+06
1.01262e+06
1.439e+06
1.05781e+06
1.40642e+06
1.42614e+06
927171
860544
979494
1.40352e+06
917829
974445
1.43228e+06
1.42676e+06
1.39894e+06
906117
1.40544e+06
891707
913939
1.36938e+06
1.40609e+06
1.39221e+06
783801
1.35209e+06
883349
910405
949424
1.41711e+06
1.38694e+06
820495
864268
1.36754e+06
1.28986e+06
1.34515e+06
771650
1.37263e+06
731058
1.32684e+06
837009
1.37962e+06
855776
781174
758526
1.33989e+06
1.29988e+06
678728
1.33978e+06
701828
1.22707e+06
610463
1.26254e+06
749336
1.31423e+06
1.35524e+06
795646
640524
1.2934e+06
1.28366e+06
1.36287e+06
779957
1.23373e+06
1.30399e+06
686214
1.23961e+06
483704
1.14677e+06
583864
637829
1.17372e+06
1.27647e+06
1.22103e+06
443579
1.09684e+06
560292
1.13803e+06
844960
393749
377717
1.01967e+06
989267
476390
1.21785e+06
1.27971e+06
1.46316e+06
726038
880408
1.45348e+06
798535
1.44718e+06
1.06679e+06
1.45619e+06
1.08709e+06
1.10243e+06
1.12557e+06
1.46311e+06
1.46712e+06
1.24392e+06
1.15273e+06
1.17754e+06
1.49842e+06
1.47935e+06
1.48306e+06
1.50027e+06
1.11724e+06
1.47523e+06
1.15876e+06
1.2031e+06
1.15845e+06
1.47501e+06
1.48648e+06
1.32552e+06
1.25947e+06
1.21286e+06
1.48994e+06
1.50809e+06
1.4988e+06
1.50405e+06
1.43182e+06
1.01879e+06
986429
964705
1.42485e+06
1.40914e+06
929650
813775
1.38853e+06
1.36079e+06
1.41277e+06
941178
1.38846e+06
880428
1.35909e+06
893173
1.39738e+06
1.37965e+06
755017
1.3374e+06
854585
1.32154e+06
1.26183e+06
620204
1.35529e+06
695318
1.30645e+06
799369
1.44256e+06
929628
1.07788e+06
1.45635e+06
1.44843e+06
1.01719e+06
1.4651e+06
1.11214e+06
1.04235e+06
1.45026e+06
1.06004e+06
1.02654e+06
1.04244e+06
1.44701e+06
1.44856e+06
1.01102e+06
1.02384e+06
1.03086e+06
1.45037e+06
1.44854e+06
1.44942e+06
1.44864e+06
1.46101e+06
1.08701e+06
1.04597e+06
1.05373e+06
1.45287e+06
1.45284e+06
1.46163e+06
1.08725e+06
1.4675e+06
1.12603e+06
1.10293e+06
1.06701e+06
1.45374e+06
1.46359e+06
1.4501e+06
1.05787e+06
1.02828e+06
1.08505e+06
1.48135e+06
1.46521e+06
1.05791e+06
1.50028e+06
1.08778e+06
1.10286e+06
1.48419e+06
1.49433e+06
1.47737e+06
1.07717e+06
999865
987366
1.43619e+06
1.05146e+06
1.46488e+06
1.45848e+06
1.0398e+06
964679
1.42509e+06
1.4093e+06
1.43191e+06
986441
1.44736e+06
1.01883e+06
254875
253245
253245
253245
253245
677202
253542
253249
445905
253546
253703
253245
770218
281949
294404
379483
340896
259402
257490
562663
262864
270913
280120
305613
255780
254559
253248
253245
253245
253245
253245
253245
253245
253245
253245
253245
253496
253247
254232
276276
333757
253263
253526
255334
253245
253245
253245
253245
859683
253619
253250
253250
255263
405181
253608
253278
253552
256953
253245
253246
253245
253253
831257
310083
304710
409345
424163
261803
260988
823988
260761
303336
857297
309513
422534
261705
372826
756765
657818
259063
292326
279781
257136
299564
424673
540411
261612
269148
255492
254368
263359
283249
332955
256964
254666
253725
253419
272136
253346
254191
255543
274629
254316
253360
253327
268692
254015
254335
263855
253767
253299
262921
254773
267801
253294
253321
253970
253720
253350
272755
254223
255575
274902
254329
253362
253245
253250
253245
253245
253245
253250
253245
253364
253262
255741
253376
255993
253659
253264
255675
253262
253361
253375
255965
253654
253264
253245
253248
253245
253245
253246
253245
253245
253340
253259
255252
254656
253311
253449
253254
253245
253245
253245
253248
253245
253246
253245
255153
253258
253336
253306
254549
253432
253254
254404
256058
263305
253374
253711
253299
253259
256360
253866
259471
253548
253260
253395
253276
254109
253266
253285
253366
253248
253307
253251
255874
253786
258709
253258
253272
253510
253372
253641
253281
254019
253352
253247
253297
253250
1.01457e+06
1.79475e+06
752853
1.71421e+06
1.01974e+06
1.79184e+06
292236
1.54564e+06
1.27795e+06
1.39613e+06
1.00169e+06
1.37922e+06
1.26079e+06
1.71552e+06
1.72229e+06
1.00369e+06
1.28338e+06
1.4016e+06
1.38111e+06
1.26271e+06
1.71596e+06
1.7236e+06
1.51835e+06
1.67265e+06
1.78343e+06
1.79948e+06
1.66074e+06
1.78963e+06
1.54138e+06
1.74672e+06
1.54899e+06
1.15781e+06
1.56438e+06
1.74628e+06
1.72395e+06
1.18662e+06
1.7983e+06
1.67466e+06
1.66135e+06
1.78873e+06
1.51038e+06
1.53866e+06
1.78072e+06
1.56366e+06
1.74706e+06
1.74649e+06
1.72313e+06
1.14962e+06
1.71134e+06
1.18398e+06
485490
1.04515e+06
1.73914e+06
258224
1.6341e+06
272300
1.23662e+06
1.72283e+06
1.44302e+06
1.67101e+06
264908
918092
253912
719263
1.81637e+06
332239
1.08541e+06
1.3232e+06
1.44162e+06
1.39028e+06
1.5064e+06
1.7401e+06
1.76497e+06
1.14593e+06
1.61276e+06
1.68965e+06
1.48797e+06
1.59247e+06
1.78811e+06
1.79505e+06
1.77201e+06
1.554e+06
1.82376e+06
1.37112e+06
1.73611e+06
1.76858e+06
1.67945e+06
1.76009e+06
1.70049e+06
1.78057e+06
1.45073e+06
1.7657e+06
1.73877e+06
1.3517e+06
1.75159e+06
1.50726e+06
1.74944e+06
1.07891e+06
1.68641e+06
1.64303e+06
966336
1.80791e+06
1.78087e+06
1.71803e+06
1.68796e+06
984958
1.2006e+06
1.59325e+06
1.19212e+06
1.34315e+06
1.74694e+06
1.57011e+06
627476
1.44978e+06
810239
1.79322e+06
1.85543e+06
1.74443e+06
1.83896e+06
1.75365e+06
1.4859e+06
1.14594e+06
468251
1.21384e+06
1.47702e+06
1.73426e+06
1.80194e+06
1.42759e+06
1.16252e+06
455232
705267
976216
1.52227e+06
1.65631e+06
1.25833e+06
977531
293681
1.39478e+06
579305
1.41979e+06
298575
785246
604694
571660
742654
1.38668e+06
1.4172e+06
297925
781364
601791
440321
282632
514910
667430
1.3216e+06
562229
1.21532e+06
844044
1.23871e+06
1.56442e+06
268793
463206
318483
799454
1.2847e+06
460258
314723
389254
259762
277388
645649
306675
263878
364209
446142
349009
1.05842e+06
845816
261087
255218
275167
290629
265953
609440
408406
254128
256854
253833
253292
253434
255559
299519
253625
254332
253344
253250
253297
253263
253247
253245
253245
253245
253245
253245
253245
253245
253418
253248
253310
253246
253267
253253
253245
253273
253255
253357
253250
253245
253247
253246
253246
253292
253247
253297
253246
253251
253248
253290
253245
253247
253296
253246
253251
253248
253245
253281
253247
253269
253245
253246
253248
253249
253279
253245
253245
253247
253267
253246
253251
253246
253265
253248
253245
253246
253245
253246
253259
253245
253246
253252
253246
253247
253246
253246
253245
253257
253246
253251
253246
254461
256217
1.16989e+06
873021
1.22669e+06
1.59744e+06
261444
288145
1.5933e+06
1.58019e+06
1.59626e+06