/*--------------------------------*- C++ -*----------------------------------*\
  =========                 |
  \\      /  F ield         | OpenFOAM: The Open Source CFD Toolbox
   \\    /   O peration     | Website:  https://openfoam.org
    \\  /    A nd           | Version:  9
     \\/     M anipulation  |
\*---------------------------------------------------------------------------*/
FoamFile
{
    format      ascii;
    class       volScalarField;
    location    "0.00145";
    object      overpressure;
}
// * * * * * * * * * * * * * * * * * * * * * * * * * * * * * * * * * * * * * //

dimensions      [1 -1 -2 0 0 0 0];

internalField   nonuniform List<scalar> 
12214
(
0
0
0
0
8.00355e-10
3.0006e-08
9.6127e-07
0
0
0
0
0
9.8953e-10
3.2509e-08
0
0
0
0
0
0
9.02219e-10
0
0
0
0
0
0
0
0
0
0
0
0
0
0
8.70161e-07
2.58005e-08
6.1118e-10
0
2.41529e-05
0.00064579
2.03909e-05
6.08008e-07
1.54978e-08
3.0559e-10
31.2097
0.00264807
0.000105328
3.2052e-06
7.53935e-08
0.273964
0.0003575
1.05913e-05
2.79644e-07
6.18456e-09
16795.3
6.49834
0.163449
5137.04
5.00431
10.0259
0.104021
24545
782.525
1144.49
3227.74
2167.13
147.454
98.4567
9916.97
232.815
461.056
607.582
1240.25
55.9888
27.0821
0.00143063
0.0432476
5.069e-05
0.000273306
9.86169e-07
7.1336e-06
2.19443e-08
1.80851e-07
3.7835e-10
3.94357e-09
0.000130529
2.85788e-06
6.67496e-08
1.5425e-09
0
0.134694
0.0980728
0.000847179
0.00385292
4.44569e-05
9.28009e-05
1.07574e-06
2.8689e-06
2.25118e-08
6.91361e-08
4.16755
0.138373
17.9484
508.585
1964.63
0.398685
6.08914
4.93514e-07
2.26794e-05
0.00118372
0.0761323
1.32379e-07
4.40137e-06
0.000133933
0.00640621
17.8487
3.43425e-08
1.19979e-06
4.31065e-05
0.00177957
0.0756752
0
0
0
0
0
0
0
0
0
0
0
0
0
0
0
0
0
0
0
1.60071e-10
0
0
0
0
0
0
0
0
4.07454e-10
1.07975e-08
0
0
0
0
0
0
0
5.82077e-10
2.05182e-08
5.13377e-07
0
0
0
0
0
0
6.40284e-10
2.64845e-08
9.68095e-07
2.52209e-05
0
0
0
0
0
5.09317e-10
2.42144e-08
1.09401e-06
4.78036e-05
0.00050676
0
0
0
0
2.61934e-10
1.51049e-08
7.74889e-07
4.24729e-05
0.00816385
0.0506827
0
0
0
8.73115e-11
5.93718e-09
2.96437e-07
1.68946e-05
0.00253263
365.917
0
0
0
0
0
0
0
0
0
0
0
0
0
0
0
0
0
0
0
0
0
0
0
0
0
0
0
0
5.82077e-11
2.19734e-09
0
0
0
0
0
0
0
1.01863e-10
4.03088e-09
9.25647e-08
0
0
0
0
0
0
8.73115e-11
5.23869e-09
1.56753e-07
3.46806e-06
0
0
0
0
0
8.73115e-11
4.78758e-09
1.74332e-07
5.31873e-06
0.000122504
0
0
0
0
1.45519e-11
3.09956e-09
1.29206e-07
4.77485e-06
0.000165986
0.00871269
0
0
0
0
1.33878e-09
5.90953e-08
2.31212e-06
8.11125e-05
0.202637
360032
0
0
0
0
0
0
0
0
0
0
0
0
0
0
0
0
0
0
0
0
0
0
0
0
0
0
0
0
0
3.0559e-10
0
0
0
0
0
0
0
0
5.82077e-10
1.50903e-08
0
0
0
0
0
0
0
7.42148e-10
2.3414e-08
5.78118e-07
0
0
0
0
0
0
6.8394e-10
2.5364e-08
7.81278e-07
1.95107e-05
0
0
0
0
0
4.65661e-10
1.9194e-08
6.94665e-07
2.18158e-05
0.000599236
0
0
0
0
1.74623e-10
9.92441e-09
3.96103e-07
1.41082e-05
0.00045385
0.0825324
0
0
0
0
0
0
0
0
0
0
0
0
0
0
0
0
0
0
0
0
0
0
0
0
0
0
0
0
0
0
0
0
0
0
0
0
0
0
1.45519e-11
1.9354e-09
0
0
0
0
0
0
0
5.82077e-11
2.92493e-09
6.93253e-08
0
0
0
0
0
0
2.91038e-11
3.27418e-09
9.3889e-08
2.32442e-06
0
0
0
0
0
0
2.51748e-09
8.73697e-08
2.67995e-06
8.35742e-05
0
0
0
0
0
1.44064e-09
5.50644e-08
1.95547e-06
7.46907e-05
0.002581
0
0
0
0
0
0
0
0
0
0
0
0
0
0
0
0
0
0
0
0
0
0
0
0
0
0
0
0
0
0
0
0
0
0
0
0
0
0
0
1.01863e-10
0
0
0
0
0
0
0
0
1.74623e-10
5.15138e-09
0
0
0
0
0
0
0
2.03727e-10
6.85395e-09
1.68846e-07
0
0
0
0
0
0
1.45519e-10
6.35919e-09
1.92726e-07
5.39278e-06
0
0
0
0
0
5.82077e-11
4.08909e-09
1.45475e-07
4.9501e-06
0.000181538
0
0
0
0
0
0
0
0
0
0
0
0
0
0
0
0
0
0
0
0
0
0
0
0
0
0
0
0
0
0
0
0
0
0
0
0
0
0
0
0
0
0
0
0
0
0
0
0
0
1.60071e-10
0
0
0
0
0
0
0
0
2.61934e-10
7.27596e-09
0
0
0
0
0
0
0
2.61934e-10
8.17818e-09
2.00467e-07
0
0
0
0
0
0
1.45519e-10
6.25732e-09
1.8462e-07
5.06341e-06
0
0
0
0
0
0
0
0
0
0
0
0
0
0
0
0
0
0
0
0
0
0
0
0
0
0
0
0
0
0
0
0
0
0
0
0
0
0
0
0
0
0
0
0
0
0
0
0
0
0
0
0
0
0
0
0
0
0
0
2.03727e-10
0
0
0
0
0
0
0
0
2.32831e-10
6.4465e-09
0
0
0
0
0
0
0
1.74623e-10
5.92263e-09
1.42056e-07
0
0
0
0
0
0
0
0
0
0
0
0
0
0
0
0
0
0
0
0
0
0
0
0
0
0
0
0
0
0
0
0
0
0
0
0
0
0
0
0
0
0
0
0
0
0
0
0
0
0
0
0
0
0
0
0
0
0
0
0
0
0
0
0
0
0
0
0
0
1.45519e-10
0
0
0
0
0
0
0
0
1.16415e-10
3.66708e-09
0
0
0
0
0
0
0
0
0
0
0
0
0
0
0
0
0
0
0
0
0
0
0
0
0
0
0
0
0
0
0
0
0
0
0
0
0
0
0
0
0
0
0
0
0
0
0
0
0
0
0
0
0
0
0
0
0
0
0
0
0
0
0
0
0
0
0
0
0
0
0
0
0
0
0
0
0
0
0
4.36557e-11
0
0
0
0
0
0
0
0
0
0
0
0
0
0
0
0
0
0
0
0
0
0
0
0
0
0
0
0
0
0
0
0
0
0
0
0
0
0
0
0
0
0
0
0
0
0
0
0
0
0
0
0
0
0
0
0
0
0
0
0
0
0
0
0
0
0
0
0
0
0
0
0
0
0
0
0
0
0
0
0
1.15397e-08
3.57977e-09
8.87667e-10
1.01863e-10
6.19912e-09
2.54164e-07
8.89617e-06
0.000245797
0.00207823
0
0
0
1.41154e-09
6.62694e-08
2.92753e-06
0.000147354
0.0385365
5218.39
0
0
2.61934e-10
1.60217e-08
7.24162e-07
2.55971e-05
0.000329004
15126.9
0
0
1.70257e-09
7.13917e-08
2.83103e-06
0.000129535
0.00356186
64649.7
0
8.73115e-11
6.02449e-09
2.5901e-07
1.21187e-05
0.000640037
8.10397
0
2.03727e-10
0
0
0
3.0559e-10
1.61526e-08
6.5357e-07
2.19952e-05
0.00248165
30.4631
0
0
0
3.27418e-09
1.40964e-07
6.64734e-06
0.000240183
104.911
0
0
4.65661e-10
2.09839e-08
8.01607e-07
2.46684e-05
0.000340553
469.872
0
0
1.83354e-09
7.05186e-08
2.31585e-06
6.54985e-05
0.00844204
98.2862
0
0
0
0
0
0
3.20142e-09
1.38418e-07
5.46385e-06
0.000182825
0.00108421
0
0
0
6.98492e-10
3.10538e-08
1.37501e-06
6.70019e-05
0.00280196
0
0
8.73115e-11
5.6898e-09
2.27737e-07
7.81185e-06
0.000230246
0.155875
0
0
4.36557e-10
1.81171e-08
6.33532e-07
2.2292e-05
0.000910542
0.865741
0
0
0
0
0
0
4.94765e-10
2.19297e-08
8.33854e-07
2.93186e-05
0.00108065
0
0
0
8.73115e-11
5.25324e-09
2.15194e-07
7.87471e-06
0.000258475
0.030951
0
0
0
6.98492e-10
3.40951e-08
1.55655e-06
6.84234e-05
0.00272603
0
0
0
3.23053e-09
1.38156e-07
5.1057e-06
0.000148804
0.053234
0
0
0
0
0
0
0
1.76078e-09
6.86414e-08
2.5856e-06
0.000102912
0
0
0
0
4.07454e-10
1.86556e-08
7.1332e-07
2.493e-05
0.000864242
0
0
0
0
2.95404e-09
1.34547e-07
5.74885e-06
0.000202555
0
0
0
2.61934e-10
1.21363e-08
4.83458e-07
1.65207e-05
0.000490702
0
0
0
4.94765e-10
2.23954e-08
8.57181e-07
2.84097e-05
0.000856262
0
0
0
0
0
1.45519e-11
3.01225e-09
1.03391e-07
3.29452e-06
0.000109507
0
0
0
0
0
8.44011e-10
3.25381e-08
1.07584e-06
3.17602e-05
0.000872836
0
0
0
0
1.01863e-10
6.15546e-09
2.44021e-07
8.80726e-06
0
0
0
0
5.52973e-10
2.33849e-08
8.12579e-07
2.39795e-05
0
0
0
0
1.06229e-09
4.26517e-08
1.46292e-06
4.36143e-05
0
0
0
0
0
0
5.82077e-11
3.34694e-09
9.61008e-08
2.40353e-06
0
0
0
0
0
0
1.07684e-09
3.5463e-08
9.6194e-07
2.1075e-05
0
0
0
0
0
1.74623e-10
7.78527e-09
2.6307e-07
0
0
0
0
0
8.00355e-10
2.85072e-08
8.35687e-07
0
0
0
0
0
1.49885e-09
5.16884e-08
1.50483e-06
0
0
0
0
0
0
0
4.36557e-11
2.59024e-09
5.81931e-08
0
0
0
0
0
0
0
9.31323e-10
2.61061e-08
5.42539e-07
0
0
0
0
0
0
1.74623e-10
6.8103e-09
0
0
0
0
0
0
7.567e-10
2.40252e-08
0
0
0
0
0
0
1.44064e-09
4.31901e-08
0
0
0
0
0
0
0
0
0
1.35333e-09
0
0
0
0
0
0
0
0
6.1118e-10
1.29949e-08
0
0
0
0
0
0
0
1.16415e-10
0
0
0
0
0
0
0
5.52973e-10
0
0
0
0
0
0
0
1.00408e-09
0
0
0
0
0
0
0
0
0
0
0
0
0
0
0
0
0
0
0
2.32831e-10
0
0
0
0
0
0
0
0
0
0
0
0
0
0
0
0
0
0
0
0
0
0
0
0
0.221121
1.98829
0.00263294
0.0029162
0.0478582
0.000245656
0.0189701
0.000655223
0.21007
0.00127459
0.400472
7.54774e-06
0.000143327
1.96918e-05
0.000328058
3.60274e-05
0.000624844
1.8609e-07
3.84367e-06
5.69824e-07
9.55655e-06
1.01735e-06
1.69769e-05
4.16185e-09
8.51433e-08
1.43482e-08
2.53422e-07
2.52767e-08
4.39468e-07
1.45519e-11
1.77533e-09
2.61934e-10
5.70435e-09
5.23869e-10
9.66247e-09
40.8319
0.00334798
0.000142143
4.51041e-06
1.10202e-07
45.8095
34069.4
8.33773
0.194126
0.1756
39.3099
3972.77
8.06203
3494.32
440724
111731
2.61845
95.0855
0.155942
5.2727
3618.42
0.234489
2.75937
2.71117
21072.5
0.150689
44.5437
15487.8
0.104822
0.318608
0.0975611
32.1143
2180.36
3.86589
0.236328
40932.4
252.567
213.835
0.0997666
17.1725
34939.8
241.122
0.235546
0.0321455
276.909
580279
12.9628
212067
0.0645592
12.5989
16425.8
4251.48
304.489
1.88217
0.0564143
0.552066
4.49828
66.5995
0.011222
0.029678
0.0867834
0.183954
767.742
0.038345
75.5954
0.600976
0.0323196
3.55407
0.0503004
12.9933
0.0111695
0.0619769
0.0336527
0.119481
775.002
0.487265
1685.92
0.279835
119.27
0.0394792
0.738021
0.0153353
0.0410403
226.548
10.9035
2382.44
55.7932
0.0909811
0.0626923
0.0198414
390032
314337
260862
74770.2
51034.2
18046.4
27134.1
35.6492
2.29543
0.0248298
30.8437
2.58144
0.0244623
0.0741102
0.0352591
0.140922
0.00960894
1.65045
42332.2
0.0625037
12.2805
30823.4
1600.97
1445.87
4102.71
4553.97
209.735
188.683
29943.5
182.498
1402.66
33704.6
1582.93
4498.51
207.151
3033.32
23195.6
15351.1
138.343
1080.01
715.005
89.0837
22.7439
1.52601
0.0182491
0.0512775
0.216585
0.0275374
0.00775647
532290
308491
250154
168936
126167
15632.2
24191
0.0230778
71.346
17.8427
17.4112
0.0224378
0.0746369
70.063
268808
44003.8
153487
4486.66
19318.8
7009.83
1536.47
21469.2
1137.18
24458.8
4109.38
1293.95
211.129
185.384
24306.4
3539.91
4075.39
1117.41
1285.97
209.43
181.457
237706
36680.3
223505
13546.6
15185.4
1558.29
1393.64
220427
40191.5
236760
13125.5
15023.2
1529.11
1324.52
1081.89
4390.29
8782.85
196.869
406.469
48.6784
22.5594
43055.2
174187
133351
5737.25
2310.9
1514.13
8474.56
0.0175123
0.0501733
52.3579
0.0196155
8.03008
0.00822271
1.93747
9580.67
2587.15
1568.65
820.439
503.435
131.742
79.1337
417052
34271.8
136936
11063.7
53742.3
5781.68
1184.26
141273
25995.9
187606
9862.35
6363.17
980.87
618.994
0.0765176
20.3501
6.80647
0.00946162
1.59138
0.00405735
0.203016
49456.1
4021.57
71873.8
38356.4
3129.16
2118.05
170.395
0.0722246
0.00622176
0.0841925
0.0283003
0.000853874
0.018242
0.00478679
15820.8
12969.9
60753.3
2142.39
117.156
549.978
454.506
5041.76
334.89
791.515
107.367
256.349
39.4238
16.3275
8945.32
89359.3
44525
1607.98
3497.44
333.861
153.199
0.231034
0.0078899
0.000657967
0.0022142
0.0919564
0.0196729
0.00365511
4.77149
0.0606445
0.0342659
0.00749985
0.120581
0.00287839
0.0846109
3366.37
62621.5
41042.2
1478.51
186.299
119.215
2302.42
0.0110406
0.00114348
0.000503296
0.0128061
9.0752
0.0062452
1.86107
10001.4
3155.26
2034.82
531.271
350.251
69.1085
106.711
0.119831
0.010653
3.00446
0.000931158
0.027487
0.00507248
0.608996
2795.58
63.4086
1853.24
645.718
32.7592
21.9465
962.859
7914.9
179.415
5222.42
555.897
29.3882
18.9467
856.433
201.579
640.867
1831.99
80.3101
27.7449
8.83908
2.94467
17823.3
6235.39
571.775
634.454
217.706
59.7024
20.1604
0.018407
0.00232057
0.0280014
0.0167826
0.228853
0.0102575
0.00161137
0.00414376
3.62845
0.0290949
0.0040675
0.028598
0.417534
0.0395808
0.301934
0.0101062
0.0190889
0.0154952
0.0323617
0.00152737
0.00218801
0.0289227
0.00368364
0.0475994
0.411574
0.0266489
0.039974
0.00344773
3669.2
4484.86
1470.74
381.983
128.416
154.648
13.4103
1225.25
158.085
1949.47
6.59236
76.0098
47.552
4.08625
0.0208408
0.0546321
0.0544672
0.00324548
0.0100504
0.00166295
0.00339435
0.184508
0.00224175
0.0150475
0.00227967
0.0361846
0.000861451
0.0059402
0.00213151
0.0123463
0.0207849
0.293085
0.217937
0.0164607
0.0338635
455.977
52.105
518.5
26.2482
2.43242
22.9906
2.7609
431.176
1.92665
19.6744
45.133
492.032
22.4781
2.21759
154.747
23.5264
691.258
243.739
1.7891
8.07251
52.2221
51.5505
444.753
513.531
26.0163
2.37747
22.5181
2.73427
3128.23
226.839
2805.56
122.015
9.48786
109.526
10.5556
2638.76
246.774
3055.24
119.217
8.95902
10.3248
103.027
1177.29
3118.2
14786.4
524.806
8.41878
41.3209
107.574
62.6437
384.23
1873.47
198.167
1.35823
6.55339
40.4043
3762.47
151.487
721.081
26.1218
125.771
24.3453
5.06008
233.243
116.941
37.3834
34.0986
11.0551
5.73913
1.74226
1.59701
345.823
15.7732
20.0663
227.509
10.2994
1.06433
204.748
29.0661
323.499
0.955853
1.45383
14.7262
9.25198
0.499995
0.00124328
0.0152838
0.0145746
0.541273
0.00116476
0.00615555
504.717
19.9504
564.393
57.146
1.96577
51.2231
2.17781
1857.24
42.4502
169.023
15.8736
62.9988
5.83482
1.48746
0.187987
0.000674561
0.00395042
0.00150729
0.0497899
0.000483522
0.00545797
2.09009
446.436
20.4228
45.7767
498.442
22.8034
2.3216
0.0118707
0.0787196
0.00115879
0.00110392
0.010681
0.0771199
0.0032832
2.81473
0.407376
65.1269
3.10736
72.017
9.26653
0.445366
63.149
0.393603
2.72748
3.0756
71.2044
9.1555
0.440582
197.83
77.3355
9.76086
1.72827
50.8553
6.45155
296.827
323.043
19.0076
193.598
1.74316
16.2564
9.64624
1.08393
487.378
19.7071
557.737
56.0842
1.8443
2.13284
48.644
364.008
7.84732
230.12
1.43391
35.9444
22.4899
0.888238
0.00868746
0.0572484
0.000958087
0.0018195
0.0305378
0.00409157
0.000814216
2.23081
0.335381
51.4281
34.9254
1.5266
4.31118
0.244269
0.000709311
0.00083863
0.00777749
0.0528442
0.00239941
0.0248623
0.00148516
48.4642
0.3124
2.09715
1.3848
31.8123
3.89247
0.219399
0.146597
0.00614615
0.0299935
0.00506022
0.023018
0.0027357
0.0014803
0.0159554
0.087037
0.00473919
0.0859756
0.00466887
0.0157529
0.00202266
57.4108
3.12382
65.3242
10.4252
0.589141
9.13177
0.652393
3.1101
56.484
64.9391
10.35
0.572761
0.64853
8.97927
22.9365
51.5318
659.128
25.2473
0.983753
11.428
2.14864
18.6018
47.3643
190.031
2.05806
8.12971
0.89574
0.278372
526.615
48.8343
343.515
11.4773
2.52694
1.64047
17.7761
4135.36
11.1056
193.832
8.93553
179.208
10.1351
0.55625
59.1404
10.8316
126.116
5.68354
0.37455
2.73558
0.640042
0.00119236
0.0192483
0.231145
0.000820436
0.0102789
0.000424848
0.00132043
0.00598885
0.0151592
0.000826205
0.000634063
0.00924254
0.000318749
0.00110541
0.00313766
0.00503271
0.022736
0.00990254
0.0014509
0.00208867
0.00121134
41.1856
1.2266
24.8465
0.43354
6.49659
3.87524
0.290014
71.5698
3.85698
0.630097
0.541514
18.3423
2.30702
15.3406
4.12047
55.8585
122.888
11.9353
0.242011
5.37693
0.509087
190.354
8.44889
103.402
4.72488
103.473
8.4543
0.445472
1494.63
4.67653
122.385
3.2503
84.1444
6.92904
0.310225
32.2498
511.206
804.609
38.6769
24.3982
1.04055
1.62684
20.2506
0.489137
0.908439
2.43394
0.119599
1.20486
0.173069
48.6936
9.30847
108.585
0.402206
0.635653
4.93782
2.3343
8.42499
0.779869
17.7568
2.10323
0.0962683
0.998547
0.143346
233.744
22.4837
14.2194
13.0824
8.32024
0.585866
0.88532
398.618
2.60334
33.8711
1.0942
13.7388
1.23454
0.133256
0.00301239
0.0151587
0.00153627
0.0069141
0.0788821
0.00188502
0.0209803
9.36356
39.3029
95.4581
4.73642
0.382623
2.05994
0.651149
51.3404
6.42826
0.157754
2.67633
4.10355
1.72073
79.7913
58.4149
1.92049
8.51554
0.690008
2.76436
0.556921
0.193778
8.7146
2.85945
40.2164
0.394131
4.39376
1.51212
0.168643
47.5983
79.9116
53.2834
1.94102
2.56018
2.84759
1.74945
46.6742
79.5503
52.9996
1.9281
2.50226
1.70608
2.8318
0.00308278
0.000598068
0.0121425
0.000273139
0.00154659
0.000395527
0.0039739
0.000219746
0.000381709
0.000162963
0.000728148
0.0198299
0.000229027
0.00246299
9.50585
20.1344
3.47079
1.85387
0.727227
0.394817
0.117901
0.00328124
0.000575107
0.011781
0.000239608
0.000741566
0.000287255
0.00188626
0.0566242
0.00186056
0.00350759
0.001255
0.00221773
0.00480951
0.00143149
0.636919
5.05581
12.2978
1.92994
0.115282
0.172956
0.815555
17.8732
0.40336
11.7055
2.29322
0.145027
0.10222
3.53299
24.8348
17.0789
121.205
3.96501
0.182059
0.61092
0.898647
21.8563
0.264572
7.30707
0.105373
2.09386
0.69891
0.0488419
31.8526
8.47682
9.54862
1.6239
1.78793
0.698915
0.649887
35.2081
8.36085
9.51523
1.57557
1.76961
0.697182
0.640607
50.064
0.183641
4.4003
0.190918
5.20753
0.476784
0.037177
226.805
1.35282
23.9575
0.527416
8.24236
0.919409
0.111703
34.8993
32.9921
22.0359
1.89546
1.30645
0.865266
1.23503
174.892
34.6908
1.44754
1.72181
8.13571
0.382196
0.124432
4.26697e-06
3.06009e-05
5.37263e-06
4.3014e-06
5.23154e-06
9.41261e-05
2.11774e-05
0.000231128
0.000343582
0.0739675
0.000906765
9.13329e-05
0.00382938
0.000460319
0.000179288
0.000366463
0.00982839
0.00447451
0.0019122
0.000913241
0.00188627
2.5288e-05
6.40284e-10
3.77472e-06
3.68454e-07
6.0536e-09
2.21189e-09
2.61934e-10
5.82077e-10
1.234e-08
3.8126e-09
5.82077e-09
4.91127e-08
5.77274e-08
6.10307e-08
4.95493e-08
4.2792e-05
1.57373e-06
2.46183e-05
2.61415e-05
1.72258e-06
5.62202e-06
7.60658e-07
5.30694e-07
3.63798e-09
1.18598e-08
3.23053e-09
1.14815e-08
6.30534e-08
3.07336e-08
1.76078e-09
4.36557e-10
1.4843e-09
3.34694e-10
1.5425e-09
1.06229e-09
0
0
4.36557e-11
0
0
8.96558e-07
3.73907e-06
1.42745e-05
4.90167e-07
3.49668e-07
4.72952e-07
3.7314e-07
1.74831e-06
7.41995e-06
1.77021e-06
7.8328e-06
8.5347e-08
4.02957e-07
4.9005e-07
2.2577e-06
1.0946e-07
8.10833e-08
9.23174e-08
6.94272e-07
2.6678e-07
7.01111e-07
2.78451e-07
1.70415e-06
7.47241e-08
1.28181e-06
2.98314e-09
4.20477e-05
0.00087741
4.7994e-06
5.65374e-05
6.25732e-09
2.38942e-08
4.70172e-08
1.89917e-07
8.22183e-09
3.98722e-09
2.64845e-09
4.38304e-08
2.88856e-08
4.18659e-08
3.13739e-08
5.83532e-08
4.24188e-08
1.10304e-08
1.41707e-07
5.59085e-07
1.30167e-07
5.79457e-07
4.64986e-06
3.03944e-06
3.09481e-06
2.57118e-07
2.77112e-07
1.343e-07
1.35478e-07
5.61178e-05
3.94451e-06
5.30087e-06
2.21412e-06
2.41284e-06
9.12913e-05
6.58636e-05
8.13016e-08
8.29459e-10
1.63272e-08
1.10216e-07
7.21775e-09
4.00178e-09
8.67294e-09
2.18279e-10
1.64437e-09
2.50293e-09
8.73115e-10
9.4733e-09
1.13359e-08
6.78119e-09
8.92032e-09
7.66886e-09
4.22588e-08
8.57544e-08
2.65863e-08
9.1226e-08
1.095e-06
1.95476e-07
1.99434e-07
7.44476e-08
3.56522e-09
1.22818e-08
3.23053e-09
1.44355e-08
3.90428e-08
1.03678e-06
2.87982e-08
6.98492e-10
0
2.04075e-05
5.59841e-07
2.11003e-09
3.90719e-08
1.45083e-08
0
1.01863e-09
3.0559e-10
0
0
4.84456e-05
5.236e-05
0.000570432
0.000120812
5.29777e-05
0.000142141
5.10513e-05
0.000129408
1.09731e-05
2.63888e-05
4.86075e-06
2.40271e-05
3.24663e-06
3.09861e-06
0
8.73115e-11
0
0
0
0
0
0
0
5.74801e-09
2.20462e-07
1.45519e-10
6.54836e-10
5.82077e-11
4.80213e-10
9.98261e-09
5.3551e-09
2.98169e-08
3.02825e-08
3.90137e-07
3.49974e-07
0
0
0
0
0
0
0
0
0
0
0
0
0
0
0
0
0
0
0
0
0
0
0
0
0
0
0
0
0
0
0
0
0
0
0
0
0
0
0
0
0
0
0
0
0
0
0
0
0
0
0
0
0
0
0
0
0
0
0
0
0
0
0
0
0
0
0
0
0
0
0
0
0
0
0
0
0
0
0
0
0
0
0
0
0
0
0
0
0
0
0
0
0
0
0
0
0
0
0
0
0
0
0
1.45519e-11
0
2.91038e-11
1.45519e-11
1.45519e-11
0
4.80213e-10
0
0
0
0
0
2.18279e-10
0
0
0
0
0
0
0
0
0
0
0
0
2.91038e-09
2.76486e-10
2.99769e-09
2.79397e-09
2.96859e-09
2.18279e-09
1.73168e-08
4.80213e-10
1.74623e-10
3.34694e-10
1.6269e-08
1.80444e-09
0
1.73168e-09
4.94765e-10
1.16561e-08
8.23638e-09
5.06407e-09
6.21367e-09
1.30967e-10
9.8953e-10
6.98492e-10
0
1.01863e-10
7.85803e-10
1.52795e-09
8.73115e-11
7.71252e-10
0
0
8.14907e-10
0
2.91038e-10
4.36557e-11
3.63798e-10
0
0
0
2.91038e-11
4.36557e-11
0
0
1.45519e-11
3.34694e-10
5.49771e-08
0
6.30098e-09
0
1.16415e-10
0
0
0
0
0
0
0
0
4.36557e-11
0
4.36557e-11
2.12458e-09
1.30967e-10
2.08092e-09
0
0
0
0
0
0
0
0
0
1.74623e-10
0
4.36557e-11
1.30967e-10
2.47383e-10
0
0
0
0
0
0
0
0
0
0
0
0
0
0
0
0
0
0
0
0
0
0
0
0
0
0
0
0
0
4.36557e-11
0
0
0
0
0
0
0
0
0
0
0
0
0
0
0
0
0
0
0
0
0
0
1.45519e-11
0
0
1.45519e-11
0
0
0
0
0
0
0
0
0
0
0
0
0
0
0
0
0
0
0
0
0
0
0
0
0
0
0
0
0
0
0
0
0
0
0
0
0
0
0
0
0
0
0
0
0
0
0
0
0
0
0
0
0
0
0
0
0
0
0
0
0
0
0
0
0
0
0
0
0
0
0
0
0
0
0
0
0
0
0
0
0
0
0
0
0
0
0
0
0
0
0
0
0
0
0
0
0
0
0
0
0
0
0
0
0
0
0
1.16415e-10
0
0
0
1.16415e-10
0
0
0
0
0
0
0
0
0
0
0
0
0
0
0
0
0
0
0
0
0
0
0
0
0
0
0
0
0
8.58563e-10
0
5.82077e-11
0
0
0
0
0
0
0
0
0
0
0
0
0
0
0
0
0
0
0
0
0
0
0
0
0
0
0
0
0
0
0
0
0
0
0
0
0
0
0
0
0
0
0
0
0
0
0
0
0
0
0
0
0
0
0
0
0
0
0
0
0
0
0
0
0
0
0
0
0
0
0
0
0
0
0
0
0
0
0
0
0
0
0
0
0
0
0
0
0
0
0
0
0
0
0
0
0
0
0
0
0
0
0
0
0
0
0
0
0
0
0
0
0
0
0
0
0
0
0
0
0
0
0
0
0
0
0
0
0
0
1.61526e-09
0
0
0
0
0
0
0
0
0
0
0
0
0
0
0
0
0
0
0
0
0
0
0
0
0
0
0
0
0
0
0
0
0
0
0
0
0
0
0
0
0
0
0
0
0
0
0
0
0
0
0
0
0
0
0
0
0
0
0
0
0
0
0
0
0
0
0
1.59343e-07
3.72529e-09
2.91038e-11
0
0
2.03581e-08
4.07454e-10
0
0
0
4.51109e-10
0
0
0
0
0
0
0
0
0
0
0
0
0
0
0
0
0
0
0
0
0
0
0
0
0
0
0
0
0
0
0
0
0
0
0
0
0
0
0
0
0
0
0
0
0
0
0
0
0
0
0
0
0
0
0
2.88128e-09
0
0
0
0
0
0
0
2.91038e-11
0
0
0
0
0
0
0
0
0
0
0
0
0
0
0
0
0
0
0
0
0
0
0
0
0
0
0
0
0
0
0
0
0
2.47383e-10
0
0
0
0
0
0
0
0
0
0
0
0
0
0
0
0
0
0
0
0
0
0
0
0
0
0
0
0
0
0
0
0
0
0
0
0
0
0
0
0
0
0
0
0
0
0
0
0
0
0
0
0
0
0
0
0
0
0
0
0
0
0
0
0
0
0
0
0
0
0
0
0
0
0
0
0
0
0
0
0
0
0
0
0
0
0
0
0
0
0
0
0
0
0
0
0
0
0
0
0
0
0
0
0
0
0
0
0
0
0
0
0
0
0
0
0
0
0
0
0
0
0
0
0
0
0
0
0
0
0
0
0
0
0
0
0
0
0
0
0
0
0
0
0
0
0
0
0
0
0
0
0
0
0
0
0
0
0
0
0
0
0
0
0
0
0
0
0
0
0
0
0
0
0
0
0
0
0
0
0
0
0
0
0
0
0
0
0
0
0
0
0
0
0
0
0
0
0
0
0
0
0
0
0
0
0
0
0
0
0
0
0
0
0
0
0
0
0
0
0
0
0
0
0
0
0
0
0
0
0
0
0
0
0
0
0
0
0
0
0
0
0
0
0
0
0
0
0
0
0
0
0
0
0
0
0
0
0
0
0
0
0
0
0
0
0
0
0
0
0
0
0
0
0
0
0
0
0
0
0
0
0
0
0
0
0
0
0
0
0
0
0
0
0
0
0
0
0
0
0
0
0
0
0
0
0
0
0
0
0
0
0
0
0
0
0
0
0
0
0
0
0
0
0
0
0
0
0
0
0
0
0
0
0
0
0
0
0
0
0
0
0
0
0
0
0
0
0
0
0
0
0
0
0
0
0
0
0
0
0
0
0
0
0
0
0
0
0
0
0
0
0
0
0
0
0
0
0
0
0
0
0
0
0
0
0
0
0
0
0
0
0
0
0
0
0
0
0
0
0
0
0
0
0
0
0
0
0
0
0
0
0
0
0
0
0
0
0
0
0
0
0
0
0
0
0
0
0
0
0
0
0
0
0
0
0
0
0
0
0
0
0
0
0
0
0
0
0
0
0
0
0
0
0
0
0
0
0
0
0
0
0
0
0
0
0
0
0
0
0
0
0
0
0
0
0
0
0
0
0
0
0
0
0
0
0
0
0
0
0
0
0
0
0
0
0
0
0
0
0
0
0
0
0
0
0
0
0
0
0
0
0
0
0
0
0
0
0
0
0
0
0
0
0
0
0
0
0
0
0
0
0
0
0
0
0
0
0
0
0
0
0
0
0
0
0
0
0
0
0
0
0
0
0
0
0
0
0
0
0
0
0
0
0
0
0
0
0
0
0
0
0
0
0
0
0
0
0
0
0
0
0
0
0
0
0
0
0
0
0
0
0
0
0
0
0
0
0
0
0
0
0
0
0
0
0
0
0
0
0
0
0
0
0
0
0
0
0
0
0
0
0
0
0
0
0
0
0
0
0
0
0
0
0
0
0
0
0
0
0
0
0
0
0
0
0
0
0
0
0
0
0
0
0
0
0
0
0
0
0
0
0
0
0
0
0
0
0
0
0
0
0
0
0
0
0
0
0
0
0
0
0
0
0
0
0
0
0
0
0
0
0
0
0
0
0
0
0
0
0
0
0
0
0
0
0
0
0
0
0
0
0
0
0
0
0
0
0
0
0
0
0
0
0
0
0
0
0
0
0
0
0
0
0
0
0
0
0
0
0
0
0
0
0
0
0
0
0
0
0
0
0
0
0
0
0
0
0
0
0
0
0
0
0
0
0
0
0
0
0
0
0
0
0
0
0
0
0
0
0
0
0
0
0
0
0
0
0
0
0
0
0
0
0
0
0
0
0
0
0
0
0
0
0
0
0
0
0
0
0
0
0
0
0
0
0
0
0
0
0
0
0
0
0
0
0
0
0
0
0
0
0
0
0
0
0
0
0
0
0
0
0
0
0
0
0
0
0
0
0
0
0
0
0
0
0
0
0
0
0
0
0
0
0
0
0
0
0
0
0
0
0
0
0
0
0
0
0
0
0
0
0
0
0
0
0
0
0
0
0
0
0
0
0
0
0
0
0
0
0
0
0
0
0
0
0
0
0
0
0
0
0
0
0
0
0
0
0
0
0
0
0
0
0
0
0
0
0
0
0
0
0
0
0
0
0
0
0
0
0
0
0
0
0
0
0
0
0
0
0
0
0
0
0
0
0
0
0
0
0
0
0
0
0
0
0
0
0
0
0
0
0
0
0
0
0
0
0
0
0
0
0
0
0
0
0
0
0
0
0
0
0
0
0
0
0
0
0
0
0
0
0
0
0
0
0
0
0
0
0
0
0
0
0
0
0
0
0
0
0
0
0
0
0
0
0
0
0
0
0
0
0
0
0
0
0
0
0
0
0
0
0
0
0
0
0
0
0
0
0
0
0
0
0
0
0
0
0
0
0
0
0
0
0
0
0
0
0
0
0
0
0
0
0
0
0
0
0
0
0
0
0
0
0
0
0
0
0
0
0
0
0
0
0
0
0
0
0
0
0
0
0
0
0
0
0
0
0
0
0
0
0
0
0
0
0
0
0
0
0
0
0
0
0
0
0
0
0
0
0
0
0
0
0
0
0
0
0
0
0
0
0
0
0
0
0
0
0
0
0
0
0
0
0
0
0
0
0
0
0
0
0
0
0
0
0
0
0
0
0
0
0
0
0
0
0
0
0
0
0
0
0
0
0
0
0
0
0
0
0
0
0
0
0
0
0
0
0
0
0
0
0
0
0
0
0
0
0
0
0
0
0
0
0
0
0
0
0
0
0
0
0
0
0
0
0
0
0
0
0
0
0
0
0
0
0
0
0
0
0
0
0
0
0
0
0
0
0
0
0
0
0
0
0
0
0
0
0
0
0
0
0
0
0
0
0
0
0
0
0
0
0
0
0
0
0
0
0
0
0
0
0
0
0
0
0
0
0
0
0
0
0
0
0
0
0
0
0
0
0
0
0
0
0
0
0
0
0
0
0
0
0
0
0
0
0
0
0
0
0
0
0
0
0
0
0
0
0
0
0
0
0
0
0
0
0
0
0
0
0
0
0
0
0
0
0
0
0
0
0
0
0
0
0
0
0
0
0
0
0
0
0
8.00355e-10
0
0
0
0
0
0
0
0
0
0
0
0
0
0
0
0
0
0
0
0
0
0
0
0
0
0
0
0
0
0
0
0
0
0
0
0
0
0
0
0
0
0
0
0
0
0
0
0
0
0
0
0
0
0
0
0
0
0
0
0
0
0
0
0
0
0
0
0
0
0
0
0
0
0
0
0
0
0
0
0
0
0
0
0
0
0
0
0
0
0
0
0
0
0
0
0
0
0
0
0
0
0
0
0
0
0
0
0
0
0
0
0
0
0
0
0
0
0
0
0
0
0
0
0
0
0
0
0
0
0
0
0
0
0
0
0
0
0
0
0
0
0
0
0
0
0
0
0
0
0
0
0
0
0
0
0
0
0
0
0
0
0
0
0
0
0
0
0
0
0
0
0
0
0
0
0
0
0
0
0
0
0
0
0
0
0
0
0
0
0
0
0
0
0
0
0
0
0
0
0
4.36557e-11
0
4.84579e-09
1.45519e-11
0
6.98492e-10
0
2.61934e-10
1.45519e-10
2.03727e-10
1.89175e-10
0
0
0
0
0
0
0
0
0
0
0
2.9715e-08
0
0
4.42378e-09
6.1118e-10
6.1118e-10
0
2.61934e-10
0
1.74623e-10
0
0
0
0
0
0
0
1.45519e-11
4.21729e-07
0
1.30967e-10
0
2.17551e-08
5.20959e-09
1.89131e-07
0
0
0
1.45519e-11
0
0
0
0
0
5.82077e-11
4.36557e-10
5.63159e-09
1.33878e-09
7.93225e-08
1.81608e-08
1.16415e-09
7.10716e-08
6.51926e-09
3.07045e-09
1.16997e-08
2.47383e-10
2.53058e-08
6.54836e-10
3.9392e-08
1.68802e-09
0
0
0
0
0
0
0
0
0
0
0
0
0
0
0
0
0
0
0
0
0
0
0
0
0
0
0
0
1.45519e-11
0
0
0
0
1.16415e-10
0
0
1.16415e-10
0
0
0
0
0
0
0
0
0
0
0
0
0
0
0
0
0
0
0
0
0
0
0
0
0
0
0
0
0
0
0
0
0
0
0
0
0
0
0
0
6.1118e-10
0
0
1.01863e-10
6.98492e-10
0
0
0
0
0
0
0
0
0
0
0
0
1.94996e-09
6.25732e-10
1.21654e-08
2.47383e-09
2.37196e-09
1.03173e-08
8.58563e-10
3.34694e-10
1.89175e-10
2.32831e-10
0
0
1.01863e-10
5.22414e-09
3.15777e-09
9.31323e-10
4.80213e-10
2.61934e-10
5.82077e-11
1.60071e-09
1.43918e-08
5.77711e-09
5.89353e-09
1.74623e-10
6.54836e-10
2.61934e-10
5.67525e-10
0
9.31323e-10
4.36557e-11
3.34694e-10
1.06229e-09
5.23869e-10
1.45519e-11
4.36557e-11
8.00355e-10
6.25732e-10
1.45519e-10
0
0
0
1.16415e-10
0
5.82077e-11
0
0
0
0
0.000822068
0.000137515
3.74641e-05
3.20142e-10
4.36557e-11
0
2.67755e-09
1.30967e-10
1.71713e-09
2.47383e-10
0
4.36557e-11
0
0
5.77343e-05
8.37608e-07
1.44592e-05
9.96515e-08
1.90237e-07
1.76078e-08
2.59678e-05
5.06407e-09
4.19677e-08
4.00963e-07
1.06246e-05
3.09956e-09
2.72121e-08
2.01895e-06
9.74978e-10
5.34055e-09
4.78758e-08
2.87575e-07
5.67525e-10
9.16771e-10
7.47823e-08
4.36557e-11
6.8394e-10
1.08848e-08
0
2.61934e-10
5.52973e-10
5.52973e-10
8.73115e-11
0
2.91038e-11
0
0
0
0
2.76486e-09
3.7835e-10
1.45519e-10
2.61934e-10
8.44011e-10
1.60071e-10
0
0
0
1.16415e-10
0
0
0
0
4.904e-09
7.63976e-09
7.66886e-09
1.06258e-07
8.03993e-08
8.00937e-08
1.04192e-07
4.35975e-08
6.93894e-07
6.54312e-07
5.18048e-09
2.77942e-09
3.88536e-09
6.47997e-08
4.40778e-08
4.60568e-08
5.34346e-08
1.43336e-08
4.42364e-07
2.47644e-07
1.44064e-09
6.8394e-10
1.1205e-09
1.44792e-08
1.34896e-08
1.7244e-08
1.18016e-08
2.93949e-09
4.9622e-08
1.01136e-07
1.45519e-10
2.18279e-10
7.567e-10
9.25502e-09
2.663e-09
2.93949e-09
7.55244e-09
2.06637e-09
3.09956e-08
1.05501e-08
2.91038e-10
2.47383e-10
8.73115e-11
3.55067e-09
1.25146e-09
3.4488e-09
1.01863e-09
5.38421e-10
6.97037e-09
5.06407e-09
1.16415e-10
1.45519e-11
1.89175e-10
2.37196e-09
6.98492e-10
7.42148e-10
1.9354e-09
0
5.52973e-10
0.000372884
5.12034e-06
9.60765e-05
5.12849e-05
0.000186793
3.50208e-06
4.16379e-05
3.91542e-05
1.03928e-06
8.36283e-06
1.28809e-05
2.14228e-05
7.28192e-07
2.0085e-06
3.17527e-06
3.65563e-06
8.31611e-06
2.44589e-07
7.87535e-07
4.85622e-06
4.02797e-07
0
0
0
2.32831e-10
4.67553e-08
1.74623e-10
1.07539e-08
5.82077e-11
8.3528e-09
8.73115e-11
8.19564e-08
1.68802e-09
1.75642e-08
1.60362e-08
7.24685e-09
4.51109e-09
1.70257e-09
8.58563e-10
1.30967e-10
2.47383e-10
2.91038e-11
5.82077e-11
0
0
4.36557e-11
0
0
0
0
0
0
3.0559e-10
0
1.01863e-10
2.43541e-07
2.29571e-07
3.31923e-06
3.25678e-06
1.00335e-07
6.81612e-08
1.04588e-06
2.59606e-08
1.34751e-08
3.64249e-07
2.10115e-07
1.81899e-09
3.79805e-09
2.03872e-08
9.16771e-10
9.31323e-10
8.64384e-09
7.989e-09
6.98492e-10
4.80213e-10
9.02219e-10
5.26779e-09
6.40284e-09
8.96398e-09
2.44472e-09
1.45519e-10
4.36557e-11
2.18279e-10
1.55705e-09
2.38651e-09
9.16771e-10
2.02272e-09
2.61934e-10
8.73115e-11
1.16415e-10
1.30967e-09
1.64437e-09
1.61526e-09
6.25732e-10
1.9063e-09
4.80213e-10
1.45519e-09
1.7244e-08
6.25732e-09
4.94765e-09
1.68802e-08
0
3.0559e-10
1.39291e-07
3.37604e-09
6.1118e-10
1.01863e-10
8.73115e-11
1.89175e-10
3.0559e-10
3.11411e-09
3.10538e-08
2.58733e-08
1.77533e-09
1.07684e-09
2.56114e-09
2.25409e-08
1.06083e-08
2.67173e-08
7.14499e-09
0
1.89175e-10
1.06811e-08
4.34971e-07
1.84512e-05
0
0
0
0
3.3906e-09
1.38563e-07
4.90551e-06
0
0
0
0
9.16771e-10
3.49683e-08
1.18089e-06
0
0
0
0
8.73115e-11
6.89761e-09
2.81128e-07
0
0
0
0
0
0
0
0
1.16415e-10
0
0
0
0
0
0
0
0
0
0
0
0
0
0
0
0
0
0
0
0
0
0
0
0
0
0
0
0
0
0
0
0
0
0
0
0
0
0
0
0
0
0
0
0
0
0
0
0
0
0
0
0
0
0
0
0
0
0
0
0
0
0
0
0
0
0
0
0
0
0
0
0
0
0
0
0
0
0
0
0
5.23869e-10
0
0
0
0
0
0
0
0
0
0
0
0
0
0
0
0
0
0
0
0
0
0
0
0
0
0
0
0
0
0
0
0
0
0
0
0
0
0
0
0
0
1.45519e-10
7.27596e-10
3.92902e-10
1.22236e-09
0
1.45519e-11
0
0
0
0
0
0
0
0
0
0
0
0
0
0
0
0
0
0
0
0
0
0
0
0
0
0
0
0
0
0
0
0
0
0
0
0
0
0
0
0
0
0
0
0
0
0
0
2.61934e-10
1.36206e-08
6.23564e-07
0
0
0
3.30328e-09
1.51194e-08
1.60071e-07
0
1.19326e-09
1.02227e-07
0
3.0559e-10
0
0
0
0
0
0
0
2.03727e-10
0
0
0
1.16415e-10
0
0
0
2.38651e-09
0
4.36557e-11
0
0
0
0
0
0
0
5.67525e-10
0
0
0
0
0
1.45519e-10
0
0
0
0
0
0
0
0
0
0
0
0
0
0
0
0
0
0
0
0
0
0
0
0
0
0
0
0
0
0
0
0
0
0
0
0
0
0
0
0
0
0
0
0
0
0
0
0
0
0
0
0
0
0
0
0
0
0
0
0
0
0
0
0
0
0
0
0
0
0
0
0
0
0
0
0
0
0
0
0
0
0
0
0
0
0
0
0
0
0
0
0
0
0
0
0
0
0
0
0
0
0
0
0
5.67525e-10
1.45519e-10
1.16415e-10
5.52973e-10
0
0
0
4.65661e-10
1.01863e-10
1.01863e-10
4.07454e-10
0
0
0
0
0
0
0
0
0
0
0
0
0
0
0
0
0
0
0
0
0
0
0
0
0
0
0
0
0
0
0
1.45519e-10
4.36557e-11
1.45519e-10
0
0
0
0
1.01863e-10
0
0
5.82077e-11
0
0
0
0
0
0
0
0
0
0
0
0
0
0
0
0
0
0
0
0
0
0
0
0
0
0
0
0
0
0
0
0
0
7.02858e-09
2.663e-09
0
0
0
0
0
0
0
0
0
0
0
0
0
0
0
0
0
0
0
0
0
0
0
0
0
0
0
0
0
0
0
0
0
0
0
0
0
0
0
0
0
0
0
0
0
0
0
0
0
0
0
0
0
0
0
0
0
0
0
0
1.23691e-09
0
0
1.89175e-10
1.1205e-09
0
0
5.67379e-08
6.54836e-10
3.75439e-09
1.15106e-08
5.24742e-08
5.82077e-10
3.33239e-09
3.58008e-06
4.10218e-08
3.17581e-07
5.41011e-07
3.41069e-06
3.50701e-08
2.64947e-07
0
0
0
0
0
0
0
9.02219e-10
1.16415e-10
3.31784e-09
9.03674e-09
2.4811e-08
3.7835e-10
1.58616e-09
9.5024e-09
3.80736e-07
1.11753e-06
2.00816e-08
8.84465e-08
1.08048e-06
7.01111e-08
4.41651e-08
2.80852e-09
5.74801e-09
2.11148e-08
2.8302e-07
2.99435e-07
2.43745e-08
0
0
0
0
0
0
0
4.33647e-09
2.32831e-10
4.65661e-10
8.73115e-11
2.61934e-09
9.16771e-10
0
3.37895e-08
2.04891e-08
1.01863e-09
4.81668e-09
6.32281e-08
6.69388e-10
8.42556e-09
0
0
4.36557e-11
0
0
0
0
1.74623e-10
0
3.0559e-10
0
0
0
0
0
0
0
0
0
0
0
0
0
0
0
0
0
0
0
0
0
0
0
0
0
0
0
0
0
0
0
0
0
0
0
0
0
0
0
0
0
0
0
0
0
0
0
0
0
0
0
0
0
0
0
0
0
0
0
0
0
0
0
0
0
0
0
0
0
0
0
0
0
0
0
0
0
0
0
0
0
0
0
0
0
0
0
0
0
0
0
0
0
0
0
0
0
0
0
0
0
0
0
0
0
0
0
0
0
0
0
0
0
0
0
0
0
0
0
0
0
0
0
0
0
0
0
0
0
0
0
0
0
0
0
0
0
0
0
0
0
9.61316e-06
0
0
0
0
0
0
0
0
0
0
1.50278e-07
2.83762e-09
3.37459e-08
1.16415e-10
2.15514e-08
2.03727e-10
6.25732e-09
0
4.07454e-09
0
1.5425e-09
0
1.16415e-09
0
1.89175e-10
0
1.16415e-10
0
0
1.58616e-09
0
0
0
0
1.45519e-11
1.45519e-11
0
0
0
0
0
0
0
0
0
0
0
0
0
0
0
0
0
0
0
0
0
0
0
0
2.03727e-10
7.13044e-10
7.71252e-10
2.59024e-09
7.33417e-09
8.65839e-09
1.46974e-09
5.09317e-10
8.73115e-11
4.36557e-10
2.85218e-09
4.61296e-09
5.84987e-09
1.13505e-09
1.16415e-10
0
8.73115e-11
4.51109e-10
1.38243e-09
3.0559e-10
1.22236e-09
0
0
1.45519e-11
6.25732e-10
4.36557e-10
8.14907e-10
1.74623e-10
0
0
0
1.01863e-10
1.16415e-10
4.36557e-11
1.89175e-10
0
0
0
1.74623e-10
1.01863e-10
1.89175e-10
1.45519e-11
0
0
0
0
0
0
0
0
0
0
0
0
0
0
0
0
5.52973e-10
2.47383e-10
1.45519e-10
0
0
0
3.34694e-10
1.16415e-10
8.73115e-11
3.0559e-10
2.07475e-06
3.05881e-08
3.4488e-07
5.22705e-08
8.8416e-07
2.15496e-06