/*--------------------------------*- C++ -*----------------------------------*\
  =========                 |
  \\      /  F ield         | OpenFOAM: The Open Source CFD Toolbox
   \\    /   O peration     | Website:  https://openfoam.org
    \\  /    A nd           | Version:  9
     \\/     M anipulation  |
\*---------------------------------------------------------------------------*/
FoamFile
{
    format      ascii;
    class       volScalarField;
    location    "0.00085";
    object      p;
}
// * * * * * * * * * * * * * * * * * * * * * * * * * * * * * * * * * * * * * //

dimensions      [1 -1 -2 0 0 0 0];

internalField   nonuniform List<scalar> 
7831
(
247844
3.1672e+06
15307.9
2.195e+06
6.50722e+06
5.1e+06
8894.95
1.691e+06
9229.13
1.02178e+06
4.23886e+06
2.673e+06
19686.8
1.05633e+06
2.67579e+06
1.09978e+06
1.75323e+06
2.95526e+06
2.78051e+06
1.23131e+06
2.52355e+06
1.65057e+06
784942
2.6119e+06
667727
1.93106e+06
935869
2.32218e+06
550581
6.05665e+06
6.03002e+06
5.52852e+06
5.75295e+06
4.56985e+06
5.20135e+06
271521
458434
1.4818e+06
1.24343e+06
376246
333100
1.09193e+06
244083
1.05875e+06
334906
919957
304190
939300
266666
3.78878e+06
3.28373e+06
2.95121e+06
2.8315e+06
2.46546e+06
2.57932e+06
468235
421186
973706
1.11972e+06
346015
516987
1.05798e+06
2.50269e+06
2.78445e+06
2.63792e+06
45948.4
39438
12969.2
79630.1
162704
128777
58960.3
9509.49
8450.52
8018.57
37613.9
48817.2
28301.1
36261.3
7995.2
11230.2
8574.12
50095.5
38021.7
27511.8
33653.5
817394
771011
223801
416797
978897
365908
926332
12425.8
67724.4
94115.1
200620
137837
57485.3
34299.1
156931
192581
11009
10617
7960.13
7463.05
7692.46
6809.47
10889.7
26556.5
25539
26199.1
11050.9
25263.8
11012.5
8188.34
8183.18
8395.77
8115.92
8576.84
8298.01
8392.98
631957
599889
148660
151838
581603
144747
607404
7563.29
7738.44
7930.63
7731.42
7897.18
7893.68
8138.16
7717.37
6613.17
6817.63
7008.66
6800.17
7806.93
8058.61
10058.9
30203.1
27014.2
28469.3
10080.6
26680.8
10980.3
168882
732959
674542
689982
179559
161227
640400
7247.84
6559.42
6657.53
6702.93
6385.71
7264.42
7575.09
7962.25
20431.4
8778.26
6397.95
15688.9
7735.93
7762.26
7967.71
7431.32
7257.78
8814.89
8822.94
7898.1
8158.25
8716.57
8615.39
8086.95
8556.61
7976.67
8442.46
7544.24
8255.69
7762.8
8613.52
7961.46
8442.97
8107.93
8031.68
7347.43
7636.14
8392.81
8329.36
7716.49
6599.49
6900.6
7720.15
7868.84
6799.64
6689.09
7877.65
6963.61
7715.79
7991.15
7908.09
7198.36
7488.96
8199.38
6475.52
8225.82
6362.38
6475.96
7773.98
6637.78
7968.1
6464.85
8953.18
6416.96
6461.4
8168.94
6534.37
8203.54
7505.03
6092.44
6971.99
7327.96
6053.83
7687.61
6757.69
6333.38
10526
6460.6
9380.6
6387.15
6374.24
8365.24
6100.81
8184.77
6853.82
6246.68
6826.74
17031.8
11120.5
7222.9
9719.6
8179.58
34277.6
22266.6
12425.2
6738.93
13419
98938.6
61094.8
217252
72966
157978
40122.7
9436.79
9686.91
9141.94
8804.93
9035.63
8565.55
8443.07
7987.54
9410.12
9626.45
9410.67
9279.91
9632.61
9431.12
9205.08
9554.14
9816.27
9758.6
9523.96
9794.43
9497.94
9546.71
9299.48
9509.16
9085.11
8972.16
9483.35
9330.65
8920.47
9003.03
9008.72
8932.27
9260.79
9235.54
9245.3
9311.03
10252.5
9804.42
9778.68
9579.41
9838.51
10013.1
9811.72
9845.07
9819.34
9942.37
9542.99
9234.75
10066.1
9708.33
9803.36
9795.29
9778.09
9512.23
9755.14
9956.66
9128.99
9818.54
9388.76
9298.5
9302.78
9605.82
9566.11
9034.58
8611.74
9173.97
8964.47
9174.29
8985.23
9376.86
8805.49
8764.46
8931.88
9064.58
8935.42
8784.9
9134.99
9213.28
8771.06
8355.84
8685.77
9036.33
8746.29
9087.87
8689.18
8348.07
8287.35
8676.76
8203.17
8517.67
8894.81
8555.33
543786
11504.4
459272
9534.54
530219
578288
11381.8
11342.2
24861.8
24831.6
11165.3
11615.7
25250
24890.6
11507
136559
485316
148852
484410
143254
137931
507035
25295.5
9663.39
34740.1
9474.44
26791.3
26198.9
11064
25234.5
11457.3
24933.9
24971.1
11065.6
25387.8
11423.1
10214.3
9647.34
9450.36
9380.87
9834.87
9678.07
9599.63
11165.9
9628.7
11085.9
9566.99
10819.3
11070.4
9559.73
15368.6
13253.8
36309.2
38088.3
14288.2
14349.3
39789.6
10854.8
9277.3
10994
9394.57
10221
10813.8
9523.82
135860
525986
135263
135108
504338
136797
524838
24990.5
24918.2
11649.2
11448.6
24883.1
24867.6
11605.7
547107
138313
138415
136312
508061
136610
527585
142554
561100
138351
562272
139617
136522
544043
1.87295e+06
1.19281e+06
361337
1.90634e+06
1.78964e+06
1.83488e+06
881804
1.63146e+06
1.68381e+06
1.85944e+06
1.84467e+06
199540
1.25761e+06
1.24508e+06
172727
103448
111800
101299
1.53453e+06
101325
101307
101298
101298
3.76743e+06
3.31535e+06
114263
101298
101298
101298
1.77731e+06
2.15618e+06
2.10896e+06
1.65916e+06
1.92192e+06
1.08945e+06
1.8042e+06
1.6342e+06
397428
1.78325e+06
340146
996101
282580
101299
102000
101299
101299
101325
101325
101298
101298
101298
101298
101298
101299
101298
101298
101298
101298
101298
1.08532e+06
1.28103e+06
1.30615e+06
1.01837e+06
686532
1.06726e+06
1.07683e+06
1.00298e+06
700012
107547
147103
101415
290365
979068
6.78558e+06
6.77919e+06
5.11307e+06
12617.4
438413
1.5204e+06
4.59114e+06
4.79927e+06
348199
50694.3
408842
521763
2.75515e+06
2.20657e+06
110213
743510
994215
1.9425e+06
168715
957375
3.2741e+06
3.11465e+06
22655.5
244273
2.38892e+06
2.54657e+06
1.14069e+06
2.99643e+06
2.58186e+06
520274
1.02282e+06
2.52429e+06
2.10515e+06
2.40471e+06
1.68493e+06
6.86272e+06
5.51861e+06
6.16925e+06
6.01796e+06
6.12362e+06
3.43919e+06
1.66081e+06
121453
1.84564e+06
1.96218e+06
13880.6
116735
1.0872e+06
1.1239e+06
957212
1.91737e+06
1.4456e+06
371970
771687
1.11631e+06
803800
986390
1.08155e+06
400491
4.99958e+06
2.782e+06
2.67095e+06
1.4003e+06
2.37293e+06
394282
123542
331719
1.10104e+06
1.11793e+06
399481
602301
1.24247e+06
1.11984e+06
957808
1.10994e+06
714945
728612
828629
971783
113186
283889
113159
101827
2.56796e+06
2.66442e+06
1.29711e+06
256355
629098
101708
101317
805184
1.20162e+06
887867
601748
211672
140418
101773
113820
606368
101902
103296
101462
101357
101298
458191
103678
101321
101320
101301
101298
6.91457e+06
6.38233e+06
6.62421e+06
6.67437e+06
6.76141e+06
6.67273e+06
4.8911e+06
4.83264e+06
3.51387e+06
3.63668e+06
4.15359e+06
3.27295e+06
2.59985e+06
159127
103860
2.76463e+06
2.8314e+06
2.8024e+06
1.63046e+06
1.95649e+06
1.2212e+06
101677
103274
101379
1.51715e+06
878042
514148
107250
104020
101532
1.41751e+06
1.80448e+06
3.27891e+06
2.94501e+06
1.33837e+06
3.03732e+06
1.80544e+06
1.47612e+06
1.71272e+06
3.21405e+06
3.04243e+06
1.51422e+06
3.06701e+06
1.77145e+06
1.2281e+06
2.81854e+06
809862
2.49896e+06
1.0933e+06
2.9385e+06
956731
1.32298e+06
2.98661e+06
1.10368e+06
2.54327e+06
1.37708e+06
2.98782e+06
1.05304e+06
1.50638e+06
1.64671e+06
2.86207e+06
2.9799e+06
1.52461e+06
2.88379e+06
1.57326e+06
1.47592e+06
1.45644e+06
2.72387e+06
2.60867e+06
1.47689e+06
2.75979e+06
1.49756e+06
1.42589e+06
2.94329e+06
1.15204e+06
2.47329e+06
1.39874e+06
2.8672e+06
1.24401e+06
1.47586e+06
2.59478e+06
1.71965e+06
2.37413e+06
1.60609e+06
2.75479e+06
1.44126e+06
1.49889e+06
2.41721e+06
1.57319e+06
2.25687e+06
1.83813e+06
1.81934e+06
6.91939e+06
6.77727e+06
6.74552e+06
6.17477e+06
5.82154e+06
6.48596e+06
6.84583e+06
6.0342e+06
6.70183e+06
6.48302e+06
5.86389e+06
6.41716e+06
6.87414e+06
5.76111e+06
6.72072e+06
5.3563e+06
4.87525e+06
6.32272e+06
3.75994e+06
526349
559708
1.94102e+06
1.35059e+06
685664
417374
1.41467e+06
605748
832060
1.97669e+06
1.41995e+06
774261
661342
1.43262e+06
482117
1.14273e+06
422698
1.11824e+06
389358
1.18749e+06
494579
546858
1.20045e+06
584664
1.12616e+06
593287
1.20258e+06
543820
878933
896124
1.85911e+06
1.39014e+06
1.03287e+06
731181
1.35298e+06
1.12079e+06
1.54008e+06
1.71879e+06
1.00492e+06
1.29876e+06
1.23887e+06
1.23583e+06
794614
1.19111e+06
646593
1.09527e+06
658085
1.17482e+06
777031
1.00752e+06
876245
1.03129e+06
1.00874e+06
1.09613e+06
1.08674e+06
968091
587073
1.45509e+06
583051
1.06036e+06
165675
480150
481134
840697
125712
919041
141911
398860
4.97945e+06
3.58026e+06
3.66886e+06
2.9807e+06
2.81189e+06
3.03907e+06
2.93745e+06
2.78659e+06
3.03576e+06
2.95608e+06
629830
1.60455e+06
2.65467e+06
1.85446e+06
2.10805e+06
499996
1.10169e+06
1.29899e+06
138347
102282
102946
583500
486564
1.11886e+06
1.14793e+06
535001
555127
1.15586e+06
614859
609141
1.123e+06
1.14561e+06
568712
668225
1.15329e+06
646537
1.20504e+06
706517
1.22524e+06
618028
1.20184e+06
763436
694904
1.17196e+06
1.01151e+06
1.19018e+06
791783
1.19147e+06
863493
961914
684201
1.07881e+06
1.12744e+06
832998
778602
1.06741e+06
1.08194e+06
1.01588e+06
968569
521581
1.01003e+06
959211
891686
1.11307e+06
1.12219e+06
1.13097e+06
695966
961222
971607
1.08345e+06
1.06112e+06
240090
329327
280394
736674
670666
798014
155779
745659
111108
156230
551570
103499
108363
108379
115274
101319
259030
101573
101827
2.7187e+06
2.44407e+06
2.69749e+06
2.88534e+06
2.3751e+06
2.78114e+06
2.06517e+06
1.92992e+06
2.52645e+06
841469
142419
489520
1.38454e+06
207242
642631
106701
108866
194368
101546
101299
101308
1.08324e+06
900400
1.14145e+06
986647
987151
1.07757e+06
872886
1.03197e+06
1.11873e+06
1.04264e+06
410072
1.07991e+06
875371
691307
792966
550609
389910
113188
916494
369849
251255
591478
118411
109769
104120
327006
199373
147027
233235
1.02687e+06
246420
170329
743981
577939
107560
111789
117096
112525
101322
316865
101884
101725
105646
103426
102456
101304
145346
101492
101415
101616
101299
101299
101298
101317
101312
101307
970843
124573
239497
183246
101955
124170
102062
101440
106274
101694
101299
101314
101387
101298
101306
101298
101298
101299
13962.2
34855
29808.3
61264.2
78302.6
131067
158020
63226.1
116730
52282.1
121449
222495
344265
225477
434240
976162
415133
520063
1.06295e+06
602301
1.04253e+06
20171.9
35847.1
94560.9
64892.2
140657
63035.5
189505
873092
924310
358700
490828
1.02551e+06
582527
1.05652e+06
163132
348974
516325
424322
566141
673303
404223
105395
283911
263579
455595
244775
309417
393147
137812
170410
286129
362145
129731
272652
236701
278152
263677
245982
161311
384493
370618
300307
304694
362160
243523
358176
410856
460588
494877
457606
975358
684602
1.0802e+06
570573
782158
1.07107e+06
634803
572429
575926
383046
721035
504170
499850
419594
238587
422070
394742
356864
325340
483002
274497
397531
504601
446373
453975
347539
558271
906122
587570
658800
692139
717564
793845
833467
577521
359074
462178
461545
459789
458169
574527
327460
395540
464034
510001
592590
457986
534110
950122
986812
1.07928e+06
677571
776336
869114
1.08533e+06
101340
1.64373e+06
111099
101640
248403
101683
115598
101332
101313
101299
141268
101311
101299
1.72847e+06
319634
297323
344811
1.08362e+06
1.15656e+06
1.05888e+06
110295
113732
383870
157253
110292
113267
101383
317624
103224
103763
136587
101355
102046
102244
102548
102878
122506
101760
101302
101396
101300
101337
101363
103207
101586
101664
101301
109830
101360
101377
101312
101298
101301
728926
822628
101301
1.07637e+06
1.61881e+06
1.17441e+06
1.82349e+06
1.06379e+06
1.18689e+06
863797
139782
1.00778e+06
928151
101387
106657
101433
633867
763150
112118
607222
390837
898080
399724
560167
469969
596224
734465
566736
601584
788928
554558
708118
753002
821521
608353
647290
866824
830090
583654
700973
455355
527056
620872
534133
733442
500396
500571
472298
624785
577323
580687
503028
479145
516028
769905
409712
588188
640361
990380
1.12757e+06
877995
961829
742637
853036
653335
534003
944980
669311
1.02279e+06
591607
755985
827004
1.22529e+06
1.05139e+06
1.35167e+06
1.04224e+06
824370
854476
1.04136e+06
1.30005e+06
849687
845376
731783
948602
647065
1.13839e+06
739202
509052
649041
731205
563878
654213
870462
1.14673e+06
1.15529e+06
1.05061e+06
1.06228e+06
1.01152e+06
1.02979e+06
921713
1.09508e+06
1.40053e+06
1.10446e+06
1.05058e+06
902827
1.06596e+06
852678
805907
801600
982673
778188
597088
597553
768203
1.04131e+06
977855
1.12744e+06
1.02935e+06
1.00768e+06
872897
1.10296e+06
991312
799290
677344
892987
815441
707160
927548
756545
768790
580350
977533
585902
1.0243e+06
754317
1.12601e+06
1.11279e+06
1.03269e+06
1.25529e+06
1.2999e+06
1.19068e+06
1.20454e+06
1.04338e+06
1.1904e+06
994020
1.4686e+06
1.30009e+06
1.5458e+06
1.3357e+06
859948
939524
763010
1.33506e+06
1.17853e+06
1.11116e+06
1.02175e+06
716999
859698
923433
706818
1.00944e+06
934898
972086
101298
101298
101298
101298
101298
101298
101298
101298
101298
101298
101298
101298
101298
101298
101298
101298
101298
101298
101298
101298
101298
101298
101298
101298
101298
101298
101298
101298
101298
101298
101298
101298
101298
101298
101298
101298
101298
101298
101298
101298
101298
101298
101298
101298
101298
101298
101298
101298
101298
101298
101298
101298
101298
101298
101298
101298
101298
101298
101298
128739
101314
101360
101298
101299
101298
101298
101298
101298
101298
102053
101647
101371
101305
101317
101298
101298
101358
101300
101298
101298
101298
101298
101298
101298
101298
101298
101298
101298
101298
101298
101298
101298
101298
101298
101298
101298
101298
101298
101316
101300
101298
101298
101298
101302
101298
101298
101298
101298
101298
101298
101298
101298
101298
101298
101298
101298
101298
101298
101298
101298
101298
101298
101298
101298
101298
101298
101298
101298
101298
101298
101298
101298
101298
101298
101298
101298
101298
101298
101298
101298
101298
101298
101298
101298
101298
101298
101298
101298
101298
101298
101298
101298
101298
101298
101298
101298
101298
101298
101298
101298
101298
101298
101298
101298
101298
101298
101298
101298
101298
101298
101298
101298
101298
101298
101298
101298
101298
101298
101298
101298
101298
101298
101298
101298
101298
101298
101298
101298
101298
101298
101298
101298
101298
101298
101298
101298
101298
101298
101298
101298
101298
101298
101298
101298
101298
101298
101298
101298
101298
101298
101298
101298
101298
101298
101298
101298
101298
101298
101298
101298
101298
101298
101298
101298
101298
101298
101298
101298
101298
101298
101298
101298
101298
101298
101298
101298
101298
101298
101298
101298
101298
101298
101298
101298
101298
101298
101298
101298
101298
101298
101298
101298
101298
101298
101298
101298
101298
101298
101298
101298
101298
101298
101298
101298
101298
101298
101298
101298
101298
101298
101298
101298
101298
101298
101298
101298
101298
101298
101298
101298
101298
101298
101298
101298
101298
101298
101298
101298
101298
101298
101298
101298
101298
101298
101298
101298
101298
101298
101298
101298
101298
101298
101298
101298
101298
101298
101298
101298
101298
101298
101298
101298
101298
101298
101298
101298
101298
101298
101298
101298
101298
101298
101298
101298
101298
101298
101298
101298
101298
101298
101298
101298
101298
101298
101298
101298
101298
101298
101298
101298
101298
101298
101298
101298
101298
101298
101298
101298
101298
101298
101298
101298
101298
101298
101298
101298
101298
101298
101298
101298
101298
101298
101298
101298
101298
101298
101298
101298
101298
101298
101298
101298
101298
101298
101298
101298
101298
101298
101298
101298
101298
101298
101298
101298
101298
101298
101298
101298
101298
101298
101298
101298
101298
101298
101298
101298
101298
101298
101298
101298
101298
101298
101298
101298
101298
101298
101298
101298
101298
101298
101298
101298
101298
101298
101298
101298
101298
101298
101298
101298
101298
101298
101298
101298
101298
101298
101298
101298
101298
101298
101298
101298
101298
101298
101298
101298
101298
101298
101298
101298
101298
101298
101298
101298
101298
101298
101298
101298
101298
101298
101298
101298
101298
101298
101298
101298
101298
101298
101298
101298
101298
101298
101298
101298
101298
101298
101298
101298
101298
101298
101298
101298
101298
101298
101298
101298
101298
101298
101298
101298
101298
101298
101298
101298
101298
101298
101298
101298
101298
101298
101298
101298
101298
101298
101298
101298
101298
101298
101298
101298
101298
101298
101298
101298
101298
101298
101298
101298
101298
101298
101298
101298
101298
101298
101298
101298
101298
101298
101298
101298
101298
101298
101298
101298
101298
101298
101298
101298
101298
101298
101298
101298
101298
101298
101298
101298
101298
101298
101298
101298
101298
101298
101298
101298
101298
101298
101298
101298
101298
101298
101298
101298
101298
101298
101298
101298
101298
101298
101298
101298
101298
101298
101298
101298
101298
101298
101298
101298
101298
101298
101298
101298
101298
101298
101298
101298
101298
101298
101298
101298
101298
101298
101298
101298
101298
101298
101298
101298
101298
101298
101298
101298
101298
101298
101298
101298
101298
101298
101298
101298
101298
101298
101298
101298
101298
101298
101298
101298
101298
101298
101298
101298
101298
101298
101298
101298
101298
101298
101298
101298
101298
101298
101298
101298
101298
101298
101298
101298
101298
101298
101298
101298
101298
101298
101298
101298
101298
101298
101298
101298
101298
101298
101298
101298
101298
101298
101298
101298
101298
101298
101298
101298
101298
101298
101298
101298
101298
101298
101298
101298
101298
101298
101298
101298
101298
101298
101298
101298
101298
101298
101298
101298
101298
101298
101298
101298
101298
101298
101298
101298
101298
101298
101298
101298
101298
101298
101298
101298
101298
101298
101298
101298
101298
101298
101298
101298
101298
101298
101298
101298
101298
101298
101298
101298
101298
101298
101298
101298
101298
101298
101298
101298
101298
101298
101298
101298
101298
101298
101298
101298
101298
101298
101298
101298
101298
101298
101298
101298
101298
101298
101298
101298
101298
101298
101298
101298
101298
101298
101298
101298
101298
101298
101298
101298
101298
101298
101298
101298
101298
101298
101298
101298
101298
101298
101298
101298
101298
101298
101298
101298
101298
101298
101298
101298
101298
101298
101298
101298
101298
101298
101298
101298
101298
101298
101298
101298
101298
101298
101298
101298
101298
101298
101298
101298
101298
101298
101298
101298
101298
101298
101298
101298
101298
101298
101298
101298
101298
101298
101298
101298
101298
101298
101298
101298
101298
101298
101298
101298
101298
101298
101298
101298
101298
101298
101298
101298
101298
101298
101298
101298
101298
101298
101298
101298
101298
101298
101298
101298
101298
101298
101298
101298
101298
101298
101298
101298
101298
101298
101298
101298
101298
101298
101298
101298
101298
101298
101298
101298
101298
101298
101298
101298
101298
101298
101298
101298
101298
101298
101298
101298
101298
101298
101298
101298
101298
101298
101298
101298
101298
101298
101298
101298
101298
101298
101298
101298
101298
101298
101298
101298
101298
101298
101298
101298
101298
101298
101298
101298
101298
101298
101298
101298
101298
101298
101298
101298
101298
101298
101298
101298
101298
101298
101298
101298
101298
101298
101298
101298
101298
101298
101298
101298
101298
101298
101298
101298
101298
101298
101298
101298
101298
101298
101298
101298
101298
101298
101298
101298
101298
101298
101298
101298
101298
101298
101298
101298
101298
101298
101298
101298
101298
101298
101298
101298
101298
101298
101298
101298
101298
101298
101298
101298
101298
101298
101298
101298
101298
101298
101298
101298
101298
101298
101298
101298
101298
101298
101298
101298
101298
101298
101298
101298
101298
101298
101298
101298
101298
101298
101298
101298
101298
101298
101298
101298
101298
101298
101298
101298
101298
101298
101298
101298
101298
101298
101298
101298
101298
101298
101298
101298
101298
101298
101298
101298
101298
101298
101298
101298
101298
101298
101298
101298
101298
101298
101298
101298
101298
101298
101298
101298
101298
101298
101298
101298
101298
101298
101298
101298
101298
101298
101298
101298
101298
101298
101298
101298
101298
101298
101298
101298
101298
101298
101298
101298
101298
101298
101298
101298
101298
101298
101298
101298
101298
101298
101298
101298
101298
101298
101298
101298
101298
101298
101298
101298
101298
101298
101298
101298
101298
101298
101298
101298
101298
101298
101298
101298
101298
101298
101298
101298
101298
101298
101298
101298
101298
101298
101298
101298
101298
101298
101298
101298
101298
101298
101298
101298
101298
101298
101298
101298
101298
101298
101298
101298
101298
101298
101298
101298
101298
101298
101298
101298
101298
101298
101298
101298
101298
101298
101298
101298
101298
101298
101298
101298
101298
101298
101298
101298
101298
101298
101298
101298
101298
101298
101298
101298
101298
101298
101298
101298
101298
101298
101298
101298
101298
101298
101298
101298
101298
101298
101298
101298
101298
101298
101298
101298
101298
101298
101298
101298
101298
101298
101298
101298
101298
101298
101298
101298
101298
101298
101298
101298
101298
101298
101298
101298
101298
101298
101298
101298
101298
101298
101298
101298
101298
101298
101298
101298
101298
101298
101298
101298
101298
101298
101298
101298
101298
101298
101298
101298
101298
101298
101298
101298
101298
101298
101298
101298
101298
101298
101298
101298
101298
101298
101298
101298
101298
101298
101298
101298
101298
101298
101298
101298
101298
101298
101298
101298
101298
101298
101298
101298
101298
101298
101298
101298
101298
101298
101298
101298
101298
101298
101298
101298
101298
101298
101298
101298
101298
101298
101298
101298
101298
101298
101298
101298
101298
101298
101298
101298
101298
101298
101298
101298
101298
101298
101298
101298
101298
101298
101298
101298
101298
101298
101298
101298
101298
101298
101298
101298
101298
101298
101298
101298
101298
101298
101298
101298
101298
101298
101298
101298
101298
101298
101298
101298
101298
101298
101298
101298
101298
101298
101298
101298
101298
101298
101298
101298
101298
101298
101298
101298
101298
101298
101298
101298
101298
101298
101298
101298
101298
101298
101298
101298
101298
101298
101298
101298
101298
101298
101298
101298
101298
101298
101298
101298
101298
101298
101298
101298
101298
101298
101298
101298
101298
101298
101298
101298
101298
101298
101298
101298
101298
101298
101298
101298
101298
101298
101298
101298
101298
101298
101298
101298
101298
101298
101298
101298
101298
101298
101298
101298
101298
101298
101298
101298
101298
101298
101298
101298
101298
101298
101298
101298
101298
101298
101298
101298
101298
101298
101298
101298
101298
101298
101298
101298
101298
101298
101298
101298
101298
101298
101298
101298
101298
101298
101298
101298
101298
101298
101298
101298
101298
101298
101298
101298
101298
101298
101298
101298
101298
101298
101298
101298
101298
101298
101298
101298
101298
101298
101298
101298
101298
101298
101298
101298
101298
101298
101298
101298
101298
101298
101298
101298
101298
101298
101298
101298
101298
101298
101298
101298
101298
101298
101298
101298
101298
101298
101298
101298
101298
101298
101298
101298
101298
101298
101298
101298
101298
101298
101298
101298
101298
101298
101298
101298
101298
101298
101298
101298
101298
101298
101298
101298
101298
101298
101298
101298
101298
101298
101298
101298
101298
101298
101298
101298
101298
101298
101298
101298
101298
101298
101298
101298
101298
101298
101298
101298
101298
101298
101298
101298
101298
101298
101298
101298
101298
101298
101298
101298
101298
101298
101298
101298
101298
101298
101298
101298
101298
101298
101298
101298
101298
101298
101298
101298
101298
101298
101298
101298
101298
101298
101298
101298
101298
101298
101298
101298
101298
101298
101298
101298
101298
101298
101298
101298
101298
101298
101298
101298
101298
101298
101298
101298
101298
101298
101298
101298
101298
101298
101298
101298
101298
101298
101298
101298
101298
101298
101298
101298
101298
101298
101298
101298
101298
101298
101298
101298
101298
101298
101298
101298
101298
101298
101298
101298
101298
101298
101298
101298
101298
101298
101298
101298
101298
101298
101298
101298
101298
101298
101298
101298
101298
101298
101298
101298
101298
101298
101298
101298
101298
101298
101298
101298
101298
101298
101298
101298
101298
101298
101298
101298
101298
101298
101298
101298
101298
101298
101298
101298
101298
101298
101298
101298
101298
101298
101298
101298
101298
101298
101298
101298
101298
101298
101298
101298
101298
101298
101298
101298
101298
101298
101298
101298
101298
101298
101298
101298
101298
101298
101298
101298
101298
101298
101298
101298
101298
101298
101298
101298
101298
101298
101298
101298
101298
101298
101298
101298
101298
101298
101298
101298
101298
101298
101298
101298
101298
101298
101298
101298
101298
101298
101298
101298
101298
101298
101298
101298
101298
101298
101298
101298
101298
101298
101298
101298
101298
101298
101298
101298
101298
101298
101298
101298
101298
101298
101298
101298
101298
101298
101298
101298
101298
101298
101298
101298
101298
101298
101298
101298
101298
101298
101298
101298
101298
101298
101298
101298
101298
101298
101298
101298
101298
101298
101298
101298
101298
101298
101298
101298
101298
101298
101298
101298
101298
101298
101298
101298
101298
101298
101298
101298
101298
101298
101298
101298
101298
101298
101298
101298
101298
101298
101298
101298
101298
101298
101298
101298
101298
101298
101298
101298
101298
101298
101298
101298
101298
101298
101298
101298
101298
101298
101298
101298
101298
101298
101298
101298
101298
101298
101298
101298
101298
101298
101298
101298
101298
101298
101298
101298
101298
101298
101298
101298
101298
101298
101298
101298
101298
101298
101298
101298
101298
101298
101298
101298
101298
101298
101298
101298
101298
101298
101298
101298
101298
101298
101298
101298
101298
101298
101298
101298
101298
101298
101298
101298
101298
101298
101298
101298
101298
101298
101298
101298
101298
101298
101298
101298
101298
101298
101298
101298
101298
101298
101298
101298
101298
101298
101298
101298
101298
101298
101298
101298
101298
101298
101298
101298
101298
101298
101298
101298
101298
101298
101298
101298
101298
101298
101298
101298
101298
101298
101298
101298
101298
101298
101298
101298
101298
101298
101298
101298
101298
101298
101298
101298
101298
101298
101298
101298
101298
101298
101298
101298
101298
101298
101298
101298
101298
101298
101298
101298
101298
101298
101298
101298
101298
101298
101298
101298
101298
101298
101298
101298
101298
101298
101298
101298
101298
101298
101298
101298
101298
101298
101298
101298
101298
101298
101298
101298
101298
101298
101298
101298
101298
101298
101298
101298
101298
101298
101298
101298
101298
101298
101298
101298
101298
101298
101298
101298
101298
101298
101298
101298
101298
101298
101298
101298
101298
101298
101298
101298
101298
101298
101298
101298
101298
101298
101298
101298
101298
101298
101298
101298
101298
101298
101298
101298
101298
101298
101298
101298
101298
101298
101298
101298
101298
101298
101298
101298
101298
101298
101298
101298
101298
101298
101298
101298
101298
101298
101298
101298
101298
101298
101298
101298
101298
101298
101298
101298
101298
101298
101298
101298
101298
101298
101298
101298
101298
101298
101298
101298
101298
101298
101298
101298
101298
101298
101298
101298
101298
101298
101298
101298
101298
101298
101298
101298
101298
101298
101298
101298
101298
101298
101298
101298
101298
101298
101298
101298
101298
101298
101298
101298
101298
101298
101298
101298
101298
101298
101298
101298
101298
101298
101298
101298
101298
101298
101298
101298
101298
101298
101298
101298
101298
101298
101298
101298
101298
101298
101298
101298
101298
101298
101298
101298
101298
101298
101298
101298
101298
101298
101298
101298
101298
101298
101298
101298
101298
101298
101298
101298
101298
101298
101298
101298
101298
101298
101298
101298
101298
101298
101298
101298
101298
101298
101298
101298
101298
101298
101298
101298
101298
101298
101298
101298
101298
101298
101298
101298
101298
101298
101298
101298
101298
101298
101298
101298
101298
101298
101298
101298
101298
101298
101298
101298
101298
101298
101298
101298
101298
101298
101298
101298
101298
101298
101298
101298
101298
101298
101298
101298
101298
101298
101298
101298
101298
101298
101298
101298
101298
101298
101298
101298
101298
101298
101298
101298
101298
101298
101298
101298
101298
101298
101298
101298
101298
101298
101298
101298
101298
101298
101298
101298
101298
101298
101298
101298
101298
101298
101298
101298
101298
101298
101298
101298
101298
101298
101298
101298
101298
101298
101298
101298
101298
101298
101298
101298
101298
101298
101298
101298
101298
101298
101298
101298
101298
101298
101298
101298
101298
101298
101298
101298
101298
101298
101298
101298
101298
101298
101298
101298
101298
101298
101298
101298
101298
101298
101298
101298
101298
101298
101298
101298
101298
101298
101298
101298
101298
101298
101298
101298
101298
101298
101298
101298
101298
101298
101298
101298
101298
101298
101298
101298
101298
101298
101298
101298
101298
101298
101298
101298
101298
101298
101298
101298
101298
101298
101298
101298
101298
101298
101298
101298
101298
101298
101298
101298
101298
101298
101298
101298
101298
101298
101298
101298
101298
101298
101298
101298
101298
101298
101298
101298
101298
101298
101298
101298
101298
101298
101298
101298
101298
101298
101298
101298
101298
101298
101298
101298
101298
101298
101298
101298
101298
101298
101298
101298
101298
101298
101298
101298
101298
101298
101298
101298
101298
101298
101298
101298
101298
101298
101298
101298
101298
101298
101298
101298
101298
101298
101298
101298
101298
101298
101298
101298
101298
101298
101298
101298
101298
101298
101298
101298
101298
101298
101298
101298
101298
101298
101298
101298
101298
101298
101298
101298
101298
101298
101298
101298
101298
101298
101298
101298
101298
101298
101298
101298
101298
101298
101298
101298
101298
101298
101298
101298
101298
101298
101298
101298
101298
101298
101298
101298
101298
101298
101298
101298
101298
101298
101298
101298
101298
101298
101298
101298
101298
101298
101298
101298
101298
101298
101298
101298
101298
101298
101298
101298
101298
101298
101298
101298
101298
101298
101298
101298
101298
101298
101298
101298
101298
101298
101298
101298
101298
101298
101298
101298
101298
101298
101298
101298
101298
101298
101298
101298
101298
101298
101298
101298
101298
101298
101298
101298
101298
101298
101298
101298
101298
101298
101298
101298
101298
101298
101298
101298
101298
101298
101298
101298
101298
101298
101298
101298
101298
101298
101298
101298
101298
101298
101298
101298
101298
101298
101298
101298
101298
101298
101298
101298
101298
101298
101298
101298
101298
101298
101298
101298
101298
101298
101298
101298
101298