/*--------------------------------*- C++ -*----------------------------------*\
  =========                 |
  \\      /  F ield         | OpenFOAM: The Open Source CFD Toolbox
   \\    /   O peration     | Website:  https://openfoam.org
    \\  /    A nd           | Version:  9
     \\/     M anipulation  |
\*---------------------------------------------------------------------------*/
FoamFile
{
    format      ascii;
    class       volScalarField;
    location    "0.0016";
    object      rho.c4;
}
// * * * * * * * * * * * * * * * * * * * * * * * * * * * * * * * * * * * * * //

dimensions      [1 -3 0 0 0 0 0];

internalField   nonuniform List<scalar> 
12750
(
0.2344
0.193261
0.223523
0.215015
0.212987
0.246005
0.531464
0.241034
0.327309
0.0552208
0.221649
0.154841
0.858163
0.570681
0.974543
1.03275
0.223437
0.214462
0.213772
0.229859
0.217956
0.217847
0.234904
0.152273
0.210693
0.208465
0.2236
0.184322
0.216592
0.23306
0.225547
0.216301
0.215297
0.219485
0.259911
0.225103
0.243093
0.221503
0.221198
0.212484
0.218163
0.227236
0.217976
0.227333
0.0473408
0.0793683
0.0726502
0.148649
0.147164
0.200706
0.206301
0.166269
0.233597
0.217435
0.29808
0.3261
0.261026
0.469799
0.0888384
0.200215
0.103836
0.320209
0.490159
0.489704
0.328136
0.21368
0.223198
0.22191
0.218637
0.229135
0.219862
0.227782
0.300546
0.917489
0.416042
0.504324
0.650114
0.924451
0.333994
0.25384
0.22871
0.357127
0.25277
0.261299
0.225858
0.263484
0.236494
0.341879
0.319474
0.426271
0.281931
0.25364
0.287277
0.223561
0.234117
0.24065
0.234
0.235651
0.223827
0.233862
0.652629
0.586961
0.760186
0.986986
0.954243
0.426947
0.771304
0.543262
1.00997
0.512449
0.575628
0.989834
0.972405
0.597798
0.224937
0.235822
0.253745
0.241715
0.241155
0.22925
0.234307
0.673186
0.780974
0.973446
0.966498
0.96585
0.776061
0.687532
0.526217
0.370137
0.24896
0.242414
0.216979
0.340941
0.823667
0.255298
0.650416
0.798439
0.776191
0.372038
1.03514
0.91862
1.48155
1.02621
0.220169
0.285523
0.233555
0.303423
0.240597
0.273321
0.403389
0.285213
0.423794
0.588191
0.481358
0.657783
0.778842
0.672596
0.380319
0.557207
0.573911
0.644311
0.649473
0.756165
0.744107
0.225472
0.228832
0.220628
0.231518
0.223566
0.232854
0.2357
0.379133
0.319739
0.26474
0.329004
0.665197
0.409309
0.546619
0.817239
0.628536
0.730608
0.849432
0.860824
0.80042
0.933893
0.4477
0.379145
0.289084
0.346853
0.734142
0.455415
0.584873
0.744772
1.00651
0.858326
0.908538
0.949841
1.05035
0.845773
0.249567
0.233551
0.229415
0.253622
0.260399
0.289351
0.244407
0.239999
0.275738
0.240184
0.261437
0.272483
0.312123
0.248394
0.686984
0.804374
0.709303
0.841462
0.981179
0.964736
0.842301
0.841509
1.01027
0.842037
0.907392
1.12504
1.09281
0.917987
0.425753
0.747406
0.604126
0.780607
0.533202
0.507487
0.690931
0.976562
0.932818
0.978826
1.26414
1.13715
0.894844
1.07918
0.297377
0.29113
0.42071
0.300368
0.362197
0.347578
0.264582
1.0124
1.20856
1.41264
1.27796
1.22892
1.16689
1.03594
0.149621
0.412359
0.793177
0.673167
0.0973571
0.493518
0.100719
0.0363572
0.036749
0.0357191
0.0358179
0.0400704
0.0439358
0.0412452
0.0627095
0.0480885
0.335276
0.113298
0.250463
0.0785577
0.191552
0.428107
0.0426143
0.161497
0.0578774
0.281427
0.098511
0.163833
0.377697
0.0429463
0.208856
0.0650909
0.241498
0.0767215
0.166229
0.373034
0.558047
0.415722
0.209622
0.357928
0.611651
0.528022
0.515661
0.538596
0.514858
0.295238
0.389644
0.691656
0.587992
0.568345
0.33163
0.357949
0.15098
0.333083
0.578209
0.486675
0.493649
0.496709
0.686642
0.719577
0.671904
0.618346
0.603156
0.58575
0.237103
0.213271
0.228205
0.244026
0.230975
0.238906
0.23352
0.222272
0.224578
0.224099
0.0442061
0.0479426
0.222884
0.213803
0.0885191
0.0644862
0.224883
0.235624
0.226663
0.225901
0.225454
0.232174
0.227231
0.22701
0.223518
0.224777
0.231737
0.22243
0.224147
0.231009
0.163874
0.219622
0.175339
0.225976
0.221276
0.18467
0.156454
0.177947
0.165512
0.225425
0.21948
0.221132
0.160902
0.185479
0.233069
0.238618
0.228539
0.228037
0.245413
0.233838
0.238622
0.228533
0.226452
0.243908
0.23247
0.223248
0.232532
0.236778
0.0460983
0.0732418
0.0865954
0.0754067
0.0461913
0.0895137
0.0443232
0.0468446
0.0769936
0.0466469
0.0443888
0.0745609
0.0912578
0.0447005
0.229115
0.226229
0.235712
0.238441
0.237933
0.225508
0.235081
0.223367
0.234255
0.234547
0.223981
0.233866
0.222862
0.233968
0.213608
0.143826
0.14354
0.150095
0.216195
0.216569
0.148946
0.141306
0.137632
0.142855
0.212677
0.215502
0.147747
0.216348
0.226927
0.237771
0.227241
0.235841
0.22522
0.225419
0.235889
0.223389
0.2303
0.221144
0.223707
0.230153
0.221165
0.233748
0.0436595
0.0634743
0.0422953
0.0634387
0.0656478
0.0659258
0.0423225
0.0646419
0.0423996
0.042578
0.0672832
0.042417
0.0664507
0.0426427
0.212723
0.146078
0.229085
0.214669
0.213539
0.223024
0.226149
0.217987
0.232377
0.211227
0.0458003
0.0414036
0.217412
0.212238
0.0746733
0.0630621
0.220293
0.229406
0.228613
0.217867
0.231806
0.220372
0.231478
0.219728
0.159641
0.167918
0.149076
0.21743
0.215174
0.155164
0.215867
0.230565
0.222028
0.213932
0.226344
0.218449
0.220844
0.0814474
0.0444879
0.0458183
0.0666882
0.0435605
0.0707962
0.0426057
0.213426
0.229151
0.229067
0.215183
0.229016
0.215748
0.231119
0.212262
0.144057
0.146064
0.213963
0.150402
0.144926
0.213143
0.23357
0.218185
0.221387
0.233331
0.219079
0.220729
0.232388
0.213248
0.142583
0.143195
0.144249
0.215148
0.213358
0.146788
0.214127
0.208204
0.208078
0.217367
0.211033
0.210468
0.216802
0.213754
0.222513
0.225204
0.21802
0.214959
0.217425
0.220782
0.0412404
0.0634421
0.0642147
0.0682806
0.0430603
0.0635585
0.0413562
0.0412691
0.0420721
0.0638982
0.0637826
0.0420742
0.0650514
0.0418438
0.209798
0.210998
0.141062
0.210103
0.142079
0.143529
0.211913
0.216601
0.231099
0.214495
0.229166
0.215779
0.217422
0.230712
0.220211
0.216416
0.209575
0.210873
0.220357
0.212999
0.217762
0.0681469
0.0618727
0.0402564
0.0408997
0.0624923
0.063401
0.0413719
0.0381009
0.0384945
0.0392118
0.0613857
0.0378512
0.0628635
0.0392171
0.0387373
0.0401394
0.0396167
0.039161
0.038458
0.0384931
0.0382192
0.0384113
0.0382993
0.039323
0.0384104
0.0386248
0.0385018
0.0382243
0.0381022
0.0388545
0.0379134
0.0389896
0.038662
0.0394758
0.0385166
0.039194
0.0386808
0.0380493
0.0380522
0.038407
0.0377817
0.0379756
0.0385327
0.0381031
0.0380718
0.0381781
0.0383658
0.0375137
0.0378691
0.0381943
0.0378947
0.0378354
0.0388833
0.0385413
0.03928
0.0391132
0.038376
0.0379372
0.0439007
0.0391722
0.0565035
0.0384711
0.0377442
0.0431235
0.0377911
0.05671
0.0392549
0.0437974
0.0383851
0.0430524
0.0375295
0.0436698
0.370983
0.0505165
0.0818166
0.0375236
0.0388073
0.0374531
0.0383291
0.0387916
0.0379142
0.0381162
0.0381283
0.03785
0.0379884
0.0378224
0.0372819
0.0370228
0.0376645
0.0376108
0.0373448
0.0376107
0.0366111
0.0368484
0.0365565
0.0378938
0.0375435
0.0379728
0.0375346
0.0365438
0.0381782
0.0382358
0.0385785
0.0400565
0.0381298
0.0374922
0.0428883
0.035944
0.0357907
0.0369645
0.0366075
0.0609813
0.0411132
0.0400721
0.0417638
0.0371491
0.0376358
0.0372381
0.0900667
0.0505253
0.0423599
0.0412446
0.0467069
0.0371875
0.0379913
0.131001
0.0471608
0.0577469
0.0430227
0.161965
0.207429
0.237316
0.0740598
0.0994756
0.064642
0.367977
0.129784
0.229489
0.229578
0.232854
0.212437
0.213216
0.214209
0.212555
0.658115
0.606693
0.185462
0.0885625
0.166457
0.209247
0.0413633
0.211577
0.227463
0.227065
0.211726
0.226179
0.213029
0.226039
0.210179
0.142762
0.145257
0.208417
0.143029
0.147034
0.208019
0.213125
0.207611
0.206579
0.213567
0.207078
0.208721
0.215494
0.0409087
0.0629433
0.0643967
0.0632098
0.0403507
0.0690392
0.0459961
0.216718
0.214224
0.227072
0.214972
0.24261
0.218238
0.228077
0.21964
0.208051
0.145511
0.166771
0.256532
0.280852
0.218784
0.215097
0.212884
0.225273
0.214532
0.243951
0.217955
0.227942
0.223393
0.208948
0.150037
0.170982
0.265963
0.315685
0.219938
0.221011
0.216922
0.209983
0.211311
0.223241
0.215086
0.218814
0.110242
0.0454214
0.0680356
0.110715
0.256708
0.275655
0.0891956
0.145186
0.0714314
0.0481341
0.120622
0.303654
0.320015
0.101394
0.220122
0.21592
0.20902
0.211104
0.223115
0.214964
0.218484
0.217584
0.277007
0.274426
0.260996
0.230526
0.229907
0.242374
0.288856
0.704944
0.394642
0.382873
0.550116
0.53154
0.258039
0.214286
0.227982
0.227332
0.227377
0.218941
0.218934
0.222302
0.28678
0.507918
0.685003
0.485295
0.52938
0.508233
0.268605
2.2224
2.60159
2.34862
1.06932
0.991427
1.43256
3.02484
1.32614
2.85013
2.57814
1.31905
1.12795
2.59829
1.53509
3.25785
3.20738
1.0021
1.07729
1.08867
1.28537
1.29687
1.39919
1.387
1.02883
1.1611
1.11586
1.371
1.32451
1.42804
1.48083
1.20885
1.2307
1.44094
1.32867
1.53834
1.56364
1.6809
1.18638
1.33914
1.19823
1.53033
1.6827
1.69716
1.51723
1.27978
1.37032
1.22665
1.56153
1.80249
1.73163
1.62267
1.46724
1.63996
1.46315
1.84654
1.67048
1.83987
2.04635
2.24068
1.67281
1.68675
1.81197
2.37927
1.79749
2.39746
1.36417
1.68183
1.48523
1.92112
1.72227
1.86467
2.09141
2.27985
1.77397
1.71851
1.84443
2.51348
2.43735
1.90612
2.45368
1.85793
1.97552
2.63626
2.0046
2.14469
2.81311
2.11269
2.29586
1.85656
1.87491
1.64864
2.05415
2.31608
1.9703
2.5827
2.87177
2.15301
2.17012
1.95462
2.60234
2.00583
2.73266
2.29186
2.92093
2.2097
2.64546
2.0768
2.34426
3.39629
3.07987
2.80358
2.13427
2.33278
3.05714
2.87956
2.4308
2.19387
2.36131
3.48811
2.63195
3.09669
2.87677
3.83991
4.46553
2.585
3.89228
2.90301
3.40483
0.253477
0.223635
0.279709
0.214629
0.269614
0.248959
0.236581
0.224459
0.255757
0.24114
0.264691
0.255765
0.243835
0.251234
0.267644
0.241098
0.228691
0.215967
0.218313
0.23119
0.214642
0.235186
0.257855
0.274332
0.258394
0.288656
0.26168
0.260675
0.279286
0.245799
0.215426
0.246299
0.214667
0.251695
0.21443
0.241557
0.255769
0.274498
0.251965
0.257116
0.287848
0.260871
0.277877
0.237054
0.260367
0.247102
0.254386
0.254479
0.242617
0.266459
0.240351
0.211587
0.210487
0.245218
0.21414
0.250929
0.213847
0.231058
0.219974
0.212334
0.240478
0.217968
0.229989
0.2141
0.226223
0.215579
0.224257
0.214608
0.22587
0.215579
0.2245
0.233428
0.238486
0.227318
0.240146
0.228767
0.242403
0.230773
0.230228
0.23763
0.232474
0.241824
0.238392
0.232274
0.229716
0.219956
0.217948
0.215964
0.220848
0.216465
0.221641
0.219278
0.220063
0.219688
0.217891
0.21647
0.217171
0.219209
0.219355
0.221123
0.222615
0.215214
0.2152
0.21596
0.222287
0.220725
0.26842
0.261527
0.257389
0.265988
0.267055
0.260116
0.267446
0.268667
0.266541
0.261822
0.257833
0.267781
0.260315
0.267522
0.281573
0.288082
0.284667
0.287968
0.282459
0.2823
0.288648
0.27081
0.262113
0.262193
0.271717
0.270994
0.261822
0.270905
0.237281
0.24991
0.234405
0.245527
0.234459
0.248798
0.237231
0.225889
0.215922
0.215815
0.22249
0.223834
0.21621
0.223991
0.237424
0.234782
0.250166
0.245922
0.237445
0.248973
0.234758
0.227529
0.215042
0.227697
0.214984
0.227486
0.227426
0.215691
0.239447
0.251723
0.251803
0.240093
0.239719
0.251401
0.239644
0.226129
0.22398
0.215413
0.214493
0.224279
0.225715
0.215518
0.236778
0.243604
0.232698
0.24384
0.234079
0.246023
0.23429
0.264578
0.251359
0.260363
0.257645
0.261367
0.263793
0.256075
0.266507
0.254833
0.260872
0.264945
0.266694
0.264967
0.257815
0.278813
0.285266
0.283645
0.287112
0.279686
0.28143
0.286092
0.268887
0.26009
0.261457
0.270858
0.268967
0.27027
0.259731
0.23389
0.240186
0.229475
0.246185
0.229511
0.233861
0.244968
0.222746
0.21769
0.211766
0.213012
0.219059
0.220718
0.213312
0.222964
0.219429
0.211313
0.211789
0.219659
0.222625
0.212707
0.235525
0.243639
0.249243
0.233867
0.236638
0.246737
0.232738
0.225765
0.213445
0.227193
0.214441
0.225772
0.226907
0.214011
0.237624
0.249729
0.251067
0.239513
0.237881
0.239091
0.249322
0.224316
0.21371
0.223348
0.213906
0.225064
0.222446
0.213769
0.216865
0.216413
0.213967
0.213309
0.214998
0.218465
0.214113
0.228294
0.240059
0.237063
0.231985
0.229092
0.236898
0.230133
0.218355
0.218006
0.217382
0.216005
0.218609
0.21784
0.215618
0.219228
0.213572
0.222042
0.214703
0.22009
0.220356
0.214478
0.59189
0.536414
0.19884
0.0873959
0.847294
0.763658
1.14403
0.934506
0.098968
0.18383
0.21312
0.285063
0.311954
0.466573
0.432265
0.129235
0.365027
0.277045
0.450206
0.372175
0.521543
0.583187
0.0621291
0.486919
0.0373795
0.318283
0.057951
0.0419742
0.0373659
0.0374984
0.0375898
0.0377215
0.0376562
0.0375188
0.0372993
0.0366304
0.0369379
0.0370528
0.0372541
0.0375463
0.0360622
0.0370207
0.0361479
0.036367
0.0428983
0.0369773
0.0371984
0.0387716
0.0565804
0.0633692
0.0378306
0.0361559
0.0362616
0.0357639
0.0375157
0.0451833
0.0495347
0.036527
0.046298
0.0367166
0.0377898
0.0409946
0.134895
0.0836411
0.0474245
0.0422451
0.0371805
0.0352041
0.0396056
0.121007
0.0666373
0.0459332
0.0512511
0.358073
0.112616
0.1302
0.135311
0.155232
0.047092
0.0670217
0.295349
0.415444
0.310476
0.191016
0.215223
0.111135
0.359841
0.562939
0.395483
0.609223
0.675289
0.694142
0.583813
0.552248
0.77766
0.577846
0.679845
0.845423
0.859589
0.660806
0.451537
0.620709
0.519486
0.636422
0.752894
0.720793
0.668297
0.673715
0.807972
0.625734
0.706655
0.922046
0.885228
0.741632
0.0962457
0.0536665
0.0486266
0.488762
0.0440587
0.597232
0.77789
0.697786
0.0436961
0.0431553
0.0433861
0.0863021
0.0889231
0.0991873
0.0947816
0.0455002
0.0450996
0.0439399
0.112034
0.0958662
0.110284
0.136667
0.0567234
0.0470502
0.0460912
0.124486
0.171948
0.188355
0.116737
0.0667005
0.0582558
0.0497923
0.14613
0.312813
0.233863
0.198917
0.240077
0.506523
0.248877
0.280834
0.541776
0.268739
0.559284
0.314893
0.541569
0.270365
0.311459
0.653378
0.596403
0.378749
0.350803
0.439142
0.617514
0.708518
0.462311
0.330908
0.633539
0.398305
0.581965
0.714576
0.73604
0.514579
0.669652
0.47823
0.0375522
0.0384248
0.0375623
0.0425395
0.0401849
0.0389281
0.0373156
0.0377247
0.0399467
0.0382658
0.0382326
0.0380936
0.0396008
0.0397648
0.0381728
0.0394674
0.0400039
0.0380343
0.0381942
0.0381853
0.0380491
0.039431
0.0375434
0.0383037
0.0381085
0.0378808
0.0391567
0.0390644
0.0379669
0.0372872
0.0372134
0.0372432
0.0385683
0.038546
0.0385074
0.0385661
0.0375336
0.0376694
0.0378635
0.0382219
0.0377855
0.0378341
0.0386539
0.0375507
0.0374408
0.0373307
0.0385571
0.0386294
0.0385612
0.0385046
0.0387199
0.0374568
0.0373298
0.0380458
0.0381417
0.0384059
0.038464
0.0395987
0.0386537
0.0378247
0.0378734
0.0373454
0.038164
0.0383726
0.214958
0.212758
0.219418
0.218489
0.256209
0.227963
0.227736
0.217809
0.213828
0.22134
0.210871
0.214546
0.211978
0.213567
0.218665
0.243329
0.25932
0.247614
0.230008
0.243809
0.233016
0.241028
0.234517
0.211216
0.209592
0.218281
0.209569
0.221415
0.214524
0.220159
0.222613
0.225382
0.222908
0.216435
0.217095
0.219944
0.222134
0.235097
0.226202
0.229974
0.22175
0.230567
0.22575
0.212827
0.214607
0.210951
0.211451
0.212181
0.210325
0.215544
0.213769
0.216722
0.210084
0.209077
0.213593
0.209848
0.216287
0.21164
0.209242
0.209055
0.210691
0.211114
0.210249
0.209845
0.212356
0.226698
0.224162
0.215278
0.226814
0.21465
0.223052
0.219779
0.238645
0.228463
0.24813
0.236346
0.224861
0.234576
0.220708
0.211642
0.212159
0.218942
0.230253
0.220501
0.228104
0.216565
0.208661
0.209812
0.219744
0.212963
0.215605
0.223319
0.212976
0.210474
0.211376
0.215283
0.210487
0.210674
0.224633
0.209346
0.222841
0.209837
0.0710977
0.0419263
0.154893
0.146693
0.0562684
0.0410605
0.209413
0.221988
0.220117
0.209391
0.219687
0.208292
0.221223
0.209633
0.153705
0.156345
0.149475
0.206629
0.207188
0.150984
0.210789
0.226375
0.224268
0.210657
0.224789
0.209976
0.223166
0.210374
0.147151
0.15048
0.20866
0.146024
0.147704
0.208052
0.215861
0.208011
0.208023
0.206678
0.214162
0.206275
0.214108
0.0735275
0.0432398
0.042817
0.0690044
0.0430137
0.0705211
0.0426662
0.221587
0.211959
0.211019
0.210104
0.22034
0.209084
0.221898
0.147257
0.207378
0.206641
0.147473
0.205964
0.206916
0.148239
0.213567
0.206629
0.20701
0.213125
0.206514
0.206327
0.213164
0.0655158
0.0681461
0.0423229
0.0652058
0.0412426
0.0670992
0.0421736
0.224098
0.213742
0.212781
0.211677
0.225194
0.210707
0.223831
0.217171
0.216812
0.208773
0.207237
0.214492
0.206767
0.214646
0.147
0.211359
0.207511
0.208051
0.14423
0.146416
0.208029
0.041071
0.0664357
0.0666885
0.0668952
0.0421969
0.068106
0.0416311
0.209709
0.218162
0.217194
0.214444
0.207608
0.20709
0.214056
0.0431469
0.0795099
0.0684141
0.0648376
0.0411436
0.065153
0.0408366
0.212523
0.214341
0.0795646
0.0427698
0.209799
0.21816
0.119912
0.0850817
0.178805
0.21367
0.169005
0.218477
0.163977
0.217959
0.185733
0.207143
0.196608
0.189411
0.191641
0.211665
0.219246
0.196041
0.221073
0.219978
0.170256
0.181765
0.192968
0.181866
0.219319
0.119644
0.0520413
0.0507022
0.107794
0.0495307
0.111842
0.050153
0.21612
0.20852
0.214985
0.211314
0.209673
0.217018
0.212611
0.214029
0.208583
0.208011
0.209595
0.210763
0.212422
0.209676
0.209259
0.204233
0.190929
0.190816
0.208701
0.18912
0.206103
0.217428
0.209722
0.212777
0.219716
0.210793
0.216521
0.219265
0.213268
0.150801
0.157885
0.216015
0.16053
0.169133
0.216574
0.0959722
0.110243
0.0464849
0.0484122
0.0508592
0.0976171
0.0487268
0.0838107
0.0455653
0.0449347
0.0931012
0.0477111
0.0979264
0.0475421
0.0684161
0.0740629
0.0438705
0.0758564
0.044604
0.0842681
0.0461958
0.741082
0.835372
1.04897
0.76029
1.06202
0.853508
0.947735
0.785353
0.922375
1.01683
1.09105
0.880803
0.97391
0.818918
0.664432
0.743522
0.88811
0.719303
1.10806
1.02913
0.805073
0.800928
2.08096
2.08896
2.07761
2.0798
0.830347
2.11267
2.22826
0.995844
0.917907
2.05512
2.09381
0.933437
0.616568
0.4631
0.931211
0.894152
1.72626
1.23052
1.87993
1.62788
0.937061
0.860616
2.11411
1.0046
2.50192
2.3181
2.85111
1.21074
1.0476
2.12756
1.06959
2.52161
0.308607
0.431538
0.53892
0.553022
0.618685
0.637274
0.689362
0.756628
0.785664
0.798761
1.0481
1.06133
1.09217
1.07919
0.707108
0.731765
0.719491
1.03181
1.023
1.03317
1.04347
1.03611
0.730956
0.718427
0.70665
0.718379
1.02143
1.02902
1.09757
1.05669
0.759529
0.78789
0.744537
1.04756
1.08478
0.757672
0.787042
0.744692
1.05153
1.09832
1.06399
1.08605
0.785138
0.875121
0.829231
1.12224
1.08472
1.11927
1.16016
0.583173
0.723622
0.633477
0.803601
0.712952
0.769633
0.883788
0.541893
0.690228
0.616268
0.752247
0.681005
0.751832
0.844144
0.84741
0.92938
0.859803
1.14395
1.20077
1.21239
1.13202
0.866522
1.15645
0.848668
0.919603
1.14115
1.21417
1.23121
0.847211
0.929144
0.91734
1.1508
1.13996
1.21124
1.22086
0.931289
0.954172
0.993773
1.17446
1.21479
1.24463
1.28616
0.932563
0.956792
0.888839
1.17145
1.28495
1.24084
1.21434
0.715515
0.956283
0.766604
0.975195
0.783936
0.842618
1.05205
0.130824
0.431089
0.164592
0.0507324
0.668211
1.05537
0.828029
0.882847
0.0692601
0.058962
0.150806
0.0980445
0.201014
0.238726
0.313661
0.0873709
0.290629
0.164659
0.413588
0.294843
0.413648
0.523472
0.272942
0.361717
0.198105
0.515911
0.371099
0.449428
0.580808
0.4032
0.712336
0.478709
0.730846
0.514191
0.580814
0.774354
0.307539
0.552835
0.461289
0.538385
0.689472
0.618485
0.635766
0.653337
0.765851
0.565596
0.651986
0.885205
0.706759
0.826713
0.697615
0.802354
0.620023
0.668242
0.9224
0.737968
0.843593
0.713565
0.844014
0.956897
0.977704
0.766492
0.783496
0.89348
0.810924
0.792717
0.698104
0.85456
1.14146
0.99338
0.972745
0.983632
1.11755
1.04735
1.3463
1.27233
1.34748
1.42982
1.01361
1.09367
0.997954
1.30757
1.43746
1.42304
1.32342
0.833593
1.04296
1.16578
0.930225
1.3135
1.16355
1.05013
1.09936
1.09071
0.995069
1.30375
1.42646
1.31125
1.41932
0.990282
1.08433
0.871323
0.94973
1.35533
1.09255
1.18437
1.02884
1.12404
1.16868
1.45005
1.33379
1.3775
1.49894
1.45548
2.09574
1.45435
1.46167
2.08973
1.46672
2.09735
1.46859
1.49782
2.08781
2.08593
1.47786
1.48781
2.08928
2.09096
1.4559
1.45494
2.09789
1.4539
1.4557
2.09062
2.06914
1.49162
1.46261
1.4617
2.0819
1.4848
2.07984
1.45691
2.0726
1.47202
1.48477
2.04015
1.46862
2.06135
0.0923898
0.0445804
0.456507
0.0430188
0.461358
0.568541
0.561748
0.0447668
0.0431576
0.456457
0.0482076
0.708573
0.633964
0.0483881
0.864044
0.85717
0.0431993
0.0431195
0.0432171
0.0841309
0.0830922
0.0850801
0.0825439
0.0432688
0.0431154
0.0431553
0.0838884
0.0838969
0.0826072
0.0857264
0.0443914
0.0435972
0.0435541
0.0884405
0.102246
0.0900836
0.0987584
0.044381
0.0437172
0.0435138
0.0882664
0.102888
0.0985943
0.0907529
0.0474287
0.0595343
0.0565004
0.130257
0.122893
0.18096
0.196623
0.047443
0.0593879
0.0564801
0.130546
0.122941
0.180973
0.195592
0.228046
0.22556
0.441745
0.473668
0.232968
0.458751
0.22119
0.228831
0.444069
0.480126
0.22884
0.461356
0.222074
0.237279
0.51592
0.289877
0.254814
0.245604
0.547097
0.277316
0.495728
0.244805
0.286856
0.508016
0.544956
0.251485
0.276067
0.492482
0.184003
0.103056
0.210844
0.288266
0.458356
0.312697
0.427928
0.309625
0.20511
0.101303
0.092029
0.18299
0.287881
0.427631
0.639513
0.467342
0.361864
0.618725
0.341868
0.443998
0.693096
0.359686
0.617216
0.340759
0.443362
0.703195
0.465781
0.691287
0.0396292
0.0373529
0.0384283
0.0377149
0.040291
0.0398168
0.0386636
0.0387472
0.038656
0.0385248
0.0401501
0.0391448
0.0398517
0.0388124
0.0383357
0.0398061
0.0384753
0.0384013
0.0386377
0.0390819
0.0398619
0.0387489
0.0403545
0.0385701
0.0403713
0.0395532
0.0399056
0.0385921
0.0383143
0.0401916
0.0383739
0.0383818
0.0385592
0.0396914
0.0399991
0.0385876
0.0388272
0.0388053
0.0373718
0.0373689
0.0388555
0.0373514
0.0387531
0.037257
0.0386227
0.0372813
0.0387698
0.0373582
0.0388036
0.0373435
0.0388491
0.0388689
0.0374841
0.0376568
0.0389994
0.0374452
0.0387572
0.0386633
0.0373459
0.0375169
0.0387914
0.0375857
0.0389022
0.0374067
0.550329
0.667052
0.773401
0.846642
0.57339
0.652883
0.760732
0.779178
0.671797
0.57523
0.550991
0.848908
0.654205
0.7626
0.224992
0.208728
0.0495873
0.0497862
0.211084
0.223178
0.124247
0.104323
0.189098
0.213286
0.190716
0.220478
0.211274
0.197614
0.196937
0.192039
0.21446
0.191867
0.203514
0.208556
0.187462
0.186294
0.161296
0.160741
0.0511852
0.043666
0.166788
0.0497743
0.120436
0.11443
0.101783
0.0512198
0.0479153
0.103734
0.049483
0.11438
0.205463
0.188086
0.192562
0.192482
0.203197
0.20826
0.187761
0.210939
0.192288
0.197543
0.189524
0.220112
0.210915
0.198013
0.163288
0.0519062
0.0504418
0.161699
0.0435872
0.167216
0.0500267
0.117869
0.0494448
0.0515202
0.115927
0.0484007
0.105362
0.0499087
0.204539
0.210445
0.207304
0.205967
0.202979
0.207482
0.208841
0.205787
0.208785
0.211877
0.209918
0.208377
0.207662
0.209252
0.212165
0.206445
0.190491
0.190208
0.20811
0.188341
0.211709
0.220405
0.21624
0.212589
0.217544
0.220497
0.214969
0.215588
0.223013
0.221244
0.216632
0.226889
0.217615
0.222245
0.225763
0.218361
0.21138
0.212793
0.215252
0.216465
0.212911
0.216879
0.200933
0.203924
0.188787
0.192253
0.205213
0.189038
0.199578
0.206911
0.21219
0.212085
0.21415
0.210547
0.209701
0.210611
0.200967
0.203946
0.188763
0.192135
0.199622
0.189021
0.20525
0.202285
0.204667
0.204635
0.199354
0.200894
0.205888
0.200889
0.204511
0.207167
0.210284
0.205901
0.208712
0.207444
0.202945
0.198782
0.188082
0.188046
0.196338
0.197679
0.188267
0.197689
0.201622
0.188055
0.207893
0.187781
0.205368
0.186182
0.205294
0.105581
0.161134
0.0985306
0.158866
0.160798
0.0941042
0.109354
0.105614
0.0973867
0.16073
0.158596
0.109162
0.160632
0.0934476
0.0608273
0.0427753
0.0657795
0.0428573
0.0423586
0.063136
0.0631684
0.117446
0.165612
0.165556
0.124925
0.121366
0.164254
0.121356
0.20342
0.207152
0.204893
0.204052
0.206545
0.205576
0.201729
0.201422
0.206889
0.189449
0.189355
0.204433
0.204974
0.187504
0.200626
0.202637
0.193149
0.189567
0.204143
0.199113
0.190116
0.201083
0.19326
0.20403
0.189226
0.199753
0.205239
0.190014
0.201871
0.203674
0.204361
0.199175
0.204914
0.200336
0.20081
0.204092
0.209199
0.20708
0.20562
0.206443
0.202883
0.208195
0.198868
0.188818
0.188421
0.19634
0.197595
0.197766
0.189232
0.218894
0.213399
0.215856
0.210711
0.218745
0.21301
0.21438
0.211922
0.191223
0.206514
0.190805
0.211672
0.208022
0.189361
0.222031
0.219907
0.216258
0.226563
0.222027
0.2163
0.224719
0.217552
0.211578
0.211263
0.214835
0.216651
0.215053
0.212276
0.108024
0.161631
0.101902
0.162864
0.0981021
0.11131
0.162931
0.107096
0.160503
0.161616
0.0986522
0.109425
0.162204
0.0959812
0.0612829
0.0428467
0.0659604
0.0427842
0.0636321
0.0630449
0.0424803
0.118474
0.166722
0.166007
0.125363
0.122455
0.121466
0.165545
1.51509
2.0817
1.48844
1.50896
2.10836
2.08173
1.54479
1.12963
1.23812
1.33533
1.44671
1.69247
1.5424
1.57878
1.52193
2.13228
1.57507
2.05562
1.58914
1.50702
2.07642
2.20608
1.54589
2.12012
2.11086
1.53259
1.61051
2.18882
1.54023
2.10975
1.53123
1.60675
2.1884
1.61452
2.184
1.55057
2.16845
1.67267
2.1484
1.62093
2.10417
1.59557
1.06122
1.40754
1.50236
1.5213
1.23104
1.32335
1.21048
1.56106
2.15832
1.59925
2.20574
1.63671
1.68045
2.24859
1.73893
2.34016
2.52237
1.72181
2.50545
1.86471
2.32123
1.71708
2.4994
2.31797
1.86592
1.72303
1.86025
2.31497
1.74655
2.22032
1.66127
1.75052
2.44366
1.84687
2.32772
2.33602
1.88817
1.7442
1.79141
2.57894
1.94076
2.38644
1.87066
2.61631
2.1645
2.68727
1.9831
2.03178
2.47943
3.78775
5.48154
19.9583
9.76915
9.66315
5.43422
3.74187
19.6704
3.17506
5.46536
3.17702
3.28137
3.26276
5.58434
5.59523
3.16372
5.4772
3.17287
3.24751
3.2523
5.5638
5.53094
3.48345
3.76324
3.45716
5.88043
6.42756
5.91007
6.40048
3.74774
3.43799
3.44243
5.84577
6.33041
5.81789
6.36248
9.72651
17.3201
17.257
9.93183
17.6139
9.93587
17.606
9.76293
17.1492
17.3132
9.89339
17.4128
9.8137
17.5458
10.4474
11.431
18.5043
19.9109
10.4897
11.3901
18.4408
10.3765
19.791
18.2179
11.2402
10.3117
11.3111
18.3263
10.577
21.6428
5.97815
4.26367
9.5288
5.38285
3.76321
19.6911
17.0081
5.18073
16.4392
5.49951
9.63292
3.08272
5.44974
17.1883
3.11474
9.41484
5.31568
3.20412
9.8218
18.4453
18.1277
3.20235
9.7299
5.45901
10.0935
3.22731
5.71437
22.9163
4.59292
22.3503
4.32077
5.96031
30.8031
23.0511
6.38012
11.2995
23.9283
4.89266
3.1403
3.04755
3.08172
5.43278
5.29503
5.23696
5.47074
3.24133
3.26404
3.24067
5.77628
5.85197
5.77471
5.66691
3.25426
3.21117
3.24682
5.67993
5.83099
5.79136
5.67974
3.16141
5.45274
3.14831
3.16159
3.19258
5.61726
5.52552
3.12293
5.37155
3.13153
3.13661
3.10027
5.30259
5.42302
3.15344
5.51093
3.16697
3.1836
3.20476
5.64675
5.57395
3.118
3.03396
3.06985
5.23087
5.20925
5.27338
5.16509
3.24895
5.332
3.15262
3.16728
3.10393
5.27395
5.33907
3.17794
5.38735
3.15787
3.25696
3.30299
5.51737
5.56303
3.58163
5.65311
3.38265
5.45834
3.24704
3.40895
5.70913
3.26011
3.47487
3.50552
5.41017
5.46623
5.8615
5.81591
3.45539
3.84155
3.51977
6.34767
5.82776
5.91079
6.4566
3.42547
3.32037
3.68915
3.56917
5.55366
5.9554
6.14628
7.14041
6.45418
3.8649
4.0044
3.65428
6.11512
6.71298
3.82907
5.98264
3.59054
3.88531
4.17486
6.47119
6.96054
3.82698
4.35328
3.85798
6.47929
7.34786
7.38364
6.44095
4.64029
7.78286
6.95033
4.16473
4.58845
7.67832
8.74703
4.06251
4.42807
3.9252
6.57343
7.7514
7.48621
6.79111
4.30023
5.36605
4.66432
8.26973
7.18969
7.82142
9.12815
9.72333
9.41197
16.5107
17.2937
9.31117
16.6894
9.78277
10.4521
18.7478
10.6276
10.4488
18.0031
10.2041
18.4394
18.6864
10.2648
10.5928
10.493
18.1009
10.2476
18.518
9.28124
16.6496
9.22184
16.3135
9.34049
9.1621
16.5256
9.53397
16.7377
16.9035
9.40675
17.0977
16.6979
9.65977
9.71899
17.372
17.2129
10.0885
17.4589
9.8838
17.8105
9.84663
17.2226
17.4146
10.1564
17.6678
9.99563
17.9305
7.10575
6.06997
5.19473
8.77593
12.4363
10.2124
10.4503
9.55154
16.9491
16.9632
17.3398
9.77085
9.84475
17.4725
9.43764
17.1422
16.807
9.34677
16.8353
9.44786
16.6468
9.99032
9.65213
17.7215
18.6447
17.1683
10.0972
17.8877
17.1827
9.5612
9.66374
10.3701
18.1969
10.2947
18.3076
18.2286
11.2663
10.3215
10.4658
19.9571
11.4591
18.4575
17.8751
17.4248
9.81221
10.5288
19.0543
18.541
10.8703
12.6932
11.4409
19.9296
10.8309
20.6063
11.9205
19.0246
10.5778
18.6362
19.7182
19.9252
11.4616
12.3526
21.1631
11.6688
20.7316
13.8522
22.4603
13.3786
20.2252
12.0567
11.5142
19.9903
22.3534
13.1592
13.2094
11.4586
20.0448
13.8625
12.3357
21.1638
13.6653
24.9944
15.637
22.7934
21.6699
14.8011
12.783
13.9422
25.5772
16.3792
23.0645
15.7001
22.1887
27.6052
27.8779
18.329
18.7728
25.0096
3.84265
4.15317
5.69512
20.8368
18.6591
5.46375
20.0981
9.70375
3.19601
5.52596
3.2582
3.32482
3.41396
5.63733
5.75606
3.95623
3.53808
3.64178
6.49741
5.97792
6.13147
6.66898
3.37946
5.9856
3.56166
3.77057
3.56112
5.98495
6.32865
4.4515
4.05639
3.811
6.40275
7.48222
6.80623
6.98656
9.79129
17.229
17.38
17.6995
9.99072
10.1853
18.0124
19.6102
10.5921
11.2151
10.0734
17.8384
10.5919
18.6603
11.5442
18.6593
10.5956
10.863
20.5058
11.8471
19.0678
12.0814
13.313
22.3953
11.3528
21.2797
12.4192
19.8048
9.9383
18.0157
3.26401
5.5269
5.41711
3.16217
9.63865
17.8208
3.14429
5.43069
3.17211
3.13907
3.14473
5.4428
5.41804
3.19363
3.16244
3.14935
5.61993
5.50216
5.52707
5.45507
5.58756
3.28359
3.17612
3.17853
5.48443
5.46841
5.59995
3.25878
5.75831
3.41529
3.32701
3.19726
5.46578
5.64151
9.64917
17.1004
17.1388
17.1657
9.70041
9.64035
17.1028
10.0942
17.3817
17.4649
9.82746
9.88716
9.72374
17.221
17.6162
17.628
9.9448
17.3301
9.77533
9.73239
17.2667
17.7103
9.99799
10.1885
9.7927
17.3815
9.70701
17.2336
48.4401
0.000594444
9.91697e-10
2.22045e-16
2.22045e-16
33.7041
45.4248
29.47
42.1777
54.5117
48.5991
0.0644687
31.8663
42.0933
41.5762
42.3915
43.4488
44.9429
45.4463
37.0876
47.2756
43.9624
49.4314
45.7942
47.3402
50.6996
9.94958
0.0495731
9.08834e-08
0.000290435
8.70271e-14
8.92711e-10
2.22045e-16
2.22045e-16
2.22045e-16
2.22045e-16
54.2851
16.1817
47.958
49.7863
42.8458
50.3505
44.7391
48.6753
0.000703607
2.9809e-09
2.22045e-16
2.22045e-16
31.0092
45.5376
39.2635
38.3508
47.9231
41.6874
44.9772
64.5852
74.6116
61.5125
0.0158632
0.151536
0.0675614
56.9334
31.1463
42.0366
41.7445
42.175
42.3109
45.4491
45.1557
30.9083
44.5753
41.2827
30.9101
41.835
42.1072
45.2032
41.7615
31.6206
33.6212
44.2164
41.0207
41.6561
44.7798
45.5056
43.1972
37.4188
47.9768
43.946
47.0423
51.0932
55.341
57.5209
50.3332
53.2027
59.0172
56.2313
61.8072
46.2853
47.8132
46.5808
48.693
47.0283
47.2136
48.4746
48.4023
46.7277
47.0688
49.0047
47.2872
47.6536
49.0841
46.3898
47.439
45.8327
48.1582
47.4848
46.2267
46.83
48.5541
46.9657
47.2425
48.9986
47.3116
47.4864
48.7852
0.0106348
44.093
6.24998e-07
6.19962e-07
0.0103999
44.9066
0.000695287
43.7265
45.9465
43.0865
43.8608
43.315
45.717
46.0126
42.6076
45.4108
43.258
43.6554
43.1054
45.481
45.7861