# vtk DataFile Version 2.0
sampleSurface
ASCII
DATASET POLYDATA
POINTS 2150 float
-2.71051e-18 0 0 0.1 0 0 -0.1 0 0 -3.83988e-18 0
0.125 0.1 0 0.125 -0.1 0 0.125 -0.2 0 0
0.2 0 0 -0.2 0 0.125 0.2 0 0.125 -4.96926e-18
0 0.25 0.1 0 0.25 -0.1 0 0.25 -0.3 0
0 0.3 0 0 -0.2 0 0.25 0.2 0 0.25
-0.3 0 0.125 0.3 0 0.125 -3.83988e-18 0 0.375 0.1
0 0.375 -0.1 0 0.375 -0.3 0 0.25 0.3 0
0.25 -0.4 0 0 0.4 0 0 -0.4 0 0.125
0.4 0 0.125 -0.2 0 0.375 0.2 0 0.375 -0.4
0 0.25 0.4 0 0.25 0.3 0 0.375 -0.3 0
0.375 -2.71051e-18 0 0.5 -0.5 0 0 0.5 0 0
0.1 0 0.5 -0.1 0 0.5 -0.5 0 0.125 0.5
0 0.125 -0.2 0 0.5 0.2 0 0.5 -0.4 0
0.375 0.4 0 0.375 -0.5 0 0.25 0.5 0 0.25
-0.3 0 0.5 0.3 0 0.5 0.6 0 0 -0.6
0 0 0.6 0 0.125 -0.6 0 0.125 -4.29163e-18 0
0.625 -0.5 0 0.375 0.5 0 0.375 0.1 0 0.625
-0.1 0 0.625 -0.4 0 0.5 0.4 0 0.5 0.6
0 0.25 -0.6 0 0.25 -0.2 0 0.625 0.2 0
0.625 -0.3 0 0.625 0.3 0 0.625 0.7 0 0
-0.7 0 0 -0.5 0 0.5 0.5 0 0.5 0.6
0 0.375 -0.6 0 0.375 -0.7 0 0.125 0.7 0
0.125 -0.4 -3.79471e-18 0.625 0.4 0 0.625 0.6 0 0.4375
0.7 0 0.25 -0.7 0 0.25 -5.87276e-18 0 0.75 0.65
0 0.375 -0.1 0 0.75 0.1 0 0.75 0.7 0
0.3125 -0.2 0 0.75 0.2 0 0.75 0.6 0 0.5
-0.6 0 0.5 0.65 0 0.4375 0.75 0 0.25 -0.7
0 0.375 0.7 0 0.375 -0.8 0 0 0.8 0
0 -0.5 0 0.625 0.5 0 0.625 -0.3 -3.79471e-18 0.75
0.3 0 0.75 -0.8 0 0.125 0.8 0 0.125 0.75
0 0.3125 0.65 0 0.5 0.8 0 0.1875 0.6 0
0.5625 0.7 0 0.4375 -0.8 0 0.25 0.8 0 0.25
0.75 0 0.375 -0.4 1.54074e-33 0.75 0.4 0 0.75 0.8
0 0.3125 0.85 0 0.125 0.65 0 0.5625 0.7 0
0.5 -0.7 0 0.5 -0.6 0 0.625 0.6 0 0.625
0.75 0 0.4375 0.85 0 0.1875 -4.74338e-18 0 0.875 -0.1
0 0.875 0.1 0 0.875 -0.8 0 0.375 0.8 0
0.375 0.85 0 0.25 -0.2 0 0.875 0.2 0 0.875
0.7 0 0.5625 -0.9 0 0 0.9 0 0 -0.5
-3.79471e-18 0.75 0.75 0 0.5 0.5 0 0.75 0.65 0
0.625 0.9 0 0.0625 0.85 0 0.3125 0.9 0 0.125
-0.9 0 0.125 0.8 0 0.4375 0.9 0 0.1875 0.3
0 0.875 -0.3 0 0.875 0.85 0 0.375 -0.9 0
0.25 0.9 0 0.25 0.75 0 0.5625 0.7 0 0.625
-0.7 0 0.625 -0.8 0 0.5 0.8 0 0.5 0.95
0 0 0.95 0 0.0625 0.9 0 0.3125 0.85 0
0.4375 0.95 0 0.125 -0.6 0 0.75 0.6 0 0.75
-0.4 0 0.875 0.4 0 0.875 0.95 0 0.1875 0.9
0 0.375 -0.9 0 0.375 0.75 0 0.625 0.8 0
0.5625 0.7 0 0.6875 0.95 0 0.25 0.85 0 0.5
-3.61401e-18 0 1 -1 0 0 1 0 0 0.95
0 0.3125 0.9 0 0.4375 1 0 0.0625 0.1 0
1 -0.1 0 1 -0.5 0 0.875 -1 0 0.125
1 0 0.125 0.5 0 0.875 -0.8 0 0.625 0.8
0 0.625 1 0 0.1875 0.75 0 0.6875 0.85 0
0.5625 -0.2 0 1 0.2 0 1 0.95 0 0.375
0.7 0 0.75 -0.7 1.65709e-18 0.75 -0.9 0 0.5 0.9
0 0.5 -1 0 0.25 1 0 0.25 -0.3 0
1 0.3 0 1 0.95 0 0.4375 1 0 0.3125
1.05 0 0 1.05 0 0.0625 0.8 0 0.6875 0.85
0 0.625 1.05 0 0.125 0.75 0 0.75 0.6 0
0.875 -0.6 0 0.875 0.9 0 0.5625 1.05 0 0.1875
-1 0 0.375 1 0 0.375 0.95 0 0.5 -0.4
0 1 0.4 0 1 1.05 0 0.25 1 0
0.4375 0.85 0 0.6875 1.05 0 0.3125 -0.9 9.62965e-35 0.625
0.9 0 0.625 0.8 0 0.75 -0.8 3.85186e-34 0.75 -1.1
0 0 1.1 0 0 1.1 0 0.0625 0.95 0
0.5625 -1.1 0 0.125 1.1 0 0.125 1.05 0 0.375
1.1 0 0.1875 -1 0 0.5 1 0 0.5 -0.5
0 1 0.5 0 1 -0.7 0 0.875 0.7 0
0.875 6.77626e-19 -4.51751e-19 1.125 -1.1 -3.78534e-18 0.25 1.1 0 0.25
-0.1 0 1.125 0.1 0 1.125 0.9 0 0.6875 0.85
0 0.75 0.95 0 0.625 1.05 0 0.4375 0.8 0
0.8125 -0.2 0 1.125 0.2 0 1.125 1.1 0 0.3125
1 0 0.5625 1.15 0 0.125 -1.1 0 0.375 1.1
0 0.375 1.05 0 0.5 0.3 0 1.125 -0.3 0
1.125 1.15 0 0.1875 0.6 0 1 -0.6 0 1
0.9 0 0.75 -0.9 0 0.75 0.95 0 0.6875 0.85
0 0.8125 1.15 0 0.25 -1 0 0.625 1 0
0.625 1.1 0 0.4375 -0.8 1.65709e-18 0.875 0.8 0 0.875
1.05 0 0.5625 1.15 0 0.3125 -0.4 3.73447e-18 1.125 0.4
2.25875e-19 1.125 -1.2 0 0 1.2 0 0 -1.2 -3.78534e-18
0.125 1.2 0 0.125 -1.1 -3.61401e-18 0.5 1.1 0 0.5
1.15 0 0.375 0.95 0 0.75 0.9 0 0.8125 1
0 0.6875 1.2 0 0.1875 0.85 0 0.875 0.7 0
1 -0.7 0 1 1.05 0 0.625 -1.2 0 0.25
1.2 0 0.25 1.15 0 0.4375 -0.5 0 1.125 0.5
0 1.125 1.1 0 0.5625 1.2 0 0.3125 -1 0
0.75 1 0 0.75 4.96926e-18 0 1.25 0.95 0 0.8125
1.15 0 0.5 0.1 -4.51751e-19 1.25 -0.1 -4.51751e-19 1.25 1.05
0 0.6875 0.9 0 0.875 -0.9 0 0.875 -1.2 0
0.375 1.2 0 0.375 -1.1 0 0.625 1.1 0 0.625
-0.2 0 1.25 0.2 0 1.25 1.25 0 0.25 -0.6
0 1.125 0.6 0 1.125 1.2 0 0.4375 1.15 0
0.5625 -0.8 0 1 0.8 0 1 -0.3 0 1.25
0.3 0 1.25 1.25 0 0.3125 1 0 0.8125 1.05
0 0.75 0.95 0 0.875 1.1 0 0.6875 0.9 0
0.9375 -1.2 1.54074e-33 0.5 -1.3 0 0 1.2 0 0.5
1.3 0 0 1.25 0 0.375 -1.3 0 0.125 1.3
0 0.125 1.15 0 0.625 -0.4 0 1.25 0.4 0
1.25 -1.3 -3.78534e-18 0.25 1.3 0 0.25 1.25 0 0.4375
-0.7 0 1.125 0.7 0 1.125 1.2 0 0.5625 1.05
0 0.8125 -1 0 0.875 1 0 0.875 -1.1 -1.03903e-18
0.75 1.1 0 0.75 0.95 0 0.9375 1.3 0 0.3125
1.15 0 0.6875 -0.9 0 1 0.9 0 1 1.25
0 0.5 -0.5 0 1.25 0.5 0 1.25 -1.3 0
0.375 -1.2 0 0.625 1.2 0 0.625 1.3 0 0.375
1.05 0 0.875 1.1 0 0.8125 1.25 0 0.5625 1
0 0.9375 1.3 0 0.4375 1.15 0 0.75 2.71051e-18 -4.51751e-19
1.375 0.1 0 1.375 -0.1 0 1.375 0.95 0 1
-0.8 5.48124e-18 1.125 0.8 0 1.125 1.2 0 0.6875 -0.6
0 1.25 0.6 0 1.25 -0.2 0 1.375 0.2 0
1.375 -1.3 -3.61401e-18 0.5 1.3 0 0.5 1.25 0 0.625
-1.4 0 0 1.4 0 0 1.35 0 0.375 -1.1
0 0.875 -1.4 0 0.125 1.4 0 0.125 1.1 0
0.875 0.3 0 1.375 -0.3 0 1.375 1.05 0 0.9375
1.15 0 0.8125 -1 0 1 1 0 1 -1.2
0 0.75 1.2 0 0.75 1.3 0 0.5625 1.35 0
0.4375 -1.4 0 0.25 1.4 0 0.25 1.25 0 0.6875
-0.4 3.73447e-18 1.375 0.4 2.25875e-19 1.375 -0.7 5.48124e-18 1.25 0.7
0 1.25 1.35 0 0.5 -0.9 0 1.125 0.9 0
1.125 -1.3 0 0.625 1.3 0 0.625 1.15 0 0.875
1.1 0 0.9375 1.2 0 0.8125 -1.4 0 0.375 1.4
0 0.375 1.05 0 1 1.25 0 0.75 1.35 0
0.5625 -0.5 0 1.375 0.5 0 1.375 1.4 0 0.4375
1.3 0 0.6875 -0.8 0 1.25 0.8 0 1.25 -1.2
0 0.875 1.2 0 0.875 -1.1 -3.61401e-18 1 -1.4 0
0.5 1.4 0 0.5 1.1 0 1 1.35 0 0.625
-1.5 0 0 1.5 0 0 4.51751e-19 0 1.5 -0.6
0 1.375 0.6 0 1.375 -1.3 -1.03903e-18 0.75 1.3 0
0.75 0.1 0 1.5 -0.1 0 1.5 -1.5 0 0.125
-1 0 1.125 1.5 0 0.125 1 0 1.125 1.4
0 0.5625 -0.2 0 1.5 0.2 0 1.5 -1.5 0
0.25 1.5 0 0.25 -0.3 0 1.5 0.3 0 1.5
-1.4 0 0.625 1.4 0 0.625 -0.9 0 1.25 0.9
0 1.25 0.7 0 1.375 -0.7 0 1.375 -1.5 0
0.375 1.5 0 0.375 0.4 0 1.5 -0.4 0 1.5
-1.2 1.54074e-33 1 1.2 0 1 -1.3 0 0.875 1.3
0 0.875 -1.1 0 1.125 1.1 0 1.125 -1.5 0
0.5 1.5 0 0.5 -0.5 0 1.5 0.5 0 1.5
-1.4 0 0.75 1.4 0 0.75 -0.8 5.48124e-18 1.375 0.8
0 1.375 -1.6 0 0 1.6 0 0 -1 0
1.25 1 0 1.25 -1.6 0 0.125 1.6 0 0.125
-0.6 0 1.5 0.6 0 1.5 -1.6 0 0.25 1.6
0 0.25 -1.5 0 0.625 1.5 0 0.625 9.03502e-19 0
1.625 0.1 0 1.625 -0.1 0 1.625 -0.2 0 1.625
0.2 0 1.625 -1.3 -3.61401e-18 1 1.3 0 1 -0.9
0 1.375 0.9 0 1.375 -1.6 0 0.375 1.6 0
0.375 -1.2 0 1.125 1.2 0 1.125 -1.4 0 0.875
1.4 0 0.875 -0.3 0 1.625 0.3 0 1.625 0.7
0 1.5 -0.7 0 1.5 -1.1 -9.78794e-19 1.25 1.1 0
1.25 -0.4 0 1.625 0.4 3.87422e-18 1.625 -1.6 0 0.5
1.6 0 0.5 -1.5 -3.67424e-18 0.75 1.5 0 0.75 -0.8
0 1.5 -1.7 0 0 0.8 0 1.5 1.7 0
0 -0.5 0 1.625 0.5 0 1.625 -1 0 1.375
1 0 1.375 -1.7 0 0.125 1.7 0 0.125 -1.6
-3.67424e-18 0.625 1.6 0 0.625 -1.7 0 0.25 1.7 0
0.25 -1.3 0 1.125 1.3 0 1.125 -1.4 0 1
1.4 0 1 -0.6 0 1.625 0.6 0 1.625 -1.2
0 1.25 1.2 0 1.25 -1.5 0 0.875 1.5 0
0.875 -1.7 0 0.375 1.7 0 0.375 -0.9 0 1.5
0.9 0 1.5 1.35525e-18 0 1.75 0.1 0 1.75 -0.1
0 1.75 1.1 0 1.375 -1.1 0 1.375 -0.2 0
1.75 0.2 0 1.75 -1.6 0 0.75 1.6 0 0.75
0.7 0 1.625 -0.7 9.62965e-35 1.625 -1.7 0 0.5 1.7
0 0.5 -0.3 -3.97541e-18 1.75 0.3 3.87422e-18 1.75 -0.4 0
1.75 0.4 3.08149e-33 1.75 -1.4 0 1.125 1.4 0 1.125
-1.8 0 0 1.8 0 0 -1 0 1.5 -1.5
0 1 1.5 0 1 1 0 1.5 -1.3 -9.78794e-19
1.25 1.3 0 1.25 -1.8 0 0.125 1.8 0 0.125
-1.7 0 0.625 0.8 0 1.625 -0.8 1.56607e-18 1.625 1.7
0 0.625 -1.8 0 0.25 1.8 0 0.25 -0.5 -3.97541e-18
1.75 0.5 3.87422e-18 1.75 -1.6 0 0.875 1.6 0 0.875
-1.2 0 1.375 1.2 0 1.375 -1.8 0 0.375 1.8
0 0.375 -0.6 0 1.75 0.6 0 1.75 0.9 0
1.625 -0.9 9.62965e-35 1.625 -1.7 -3.67424e-18 0.75 1.7 0 0.75
-1.1 -3.61401e-18 1.5 1.1 0 1.5 -1.8 0 0.5 1.8
0 0.5 -1.5 0 1.125 1.5 0 1.125 9.03502e-19 0
1.875 -1.4 0 1.25 1.4 0 1.25 -0.1 0 1.875
0.1 0 1.875 0.7 0 1.75 -0.7 1.56607e-18 1.75 -0.2
0 1.875 0.2 0 1.875 1.6 0 1 -1.6 0
1 -1.3 0 1.375 1.3 0 1.375 0.3 0 1.875
-0.3 0 1.875 -1.9 0 0 1.9 0 0 1.9
0 0.125 -1.9 0 0.125 -1.8 0 0.625 1.8 0
0.625 -1 0 1.625 1 0 1.625 -1.7 0 0.875
1.7 0 0.875 -1.9 0 0.25 1.9 -1.71331e-19 0.25 -0.4
0 1.875 0.4 0 1.875 -1.2 1.54074e-33 1.5 1.2 0
1.5 0.8 0 1.75 -0.8 0 1.75 -1.9 0 0.375
1.9 0 0.375 0.5 0 1.875 -0.5 0 1.875 -1.8
0 0.75 1.8 0 0.75 -1.5 3.67424e-18 1.25 1.5 -3.61401e-18
1.25 1.6 -3.61401e-18 1.125 -1.6 3.67424e-18 1.125 -1.1 0 1.625
-1.4 0 1.375 1.1 0 1.625 1.4 0 1.375 -1.9
0 0.5 1.9 0 0.5 0.9 0 1.75 -0.9 1.56607e-18
1.75 -0.6 0 1.875 0.6 0 1.875 -1.7 0 1
1.7 0 1 -1.3 -3.61401e-18 1.5 1.3 0 1.5 -2
0 0 2 0 0 4.51751e-19 0 2 -1.9 0
0.625 1.9 0 0.625 0.7 0 1.875 -1.8 0 0.875
1.8 0 0.875 -0.7 0 1.875 0.1 0 2 -0.1
0 2 -2 0 0.125 2 0 0.125 -0.2 0
2 0.2 0 2 -1 0 1.75 1 0 1.75
-2 0 0.25 2 0 0.25 -1.2 -3.85186e-34 1.625 1.2
0 1.625 -0.3 0 2 0.3 0 2 1.6 1.54074e-33
1.25 -1.6 0 1.25 -1.1 0 1.70864 -1.5 0 1.375
-2 0 0.375 2 -1.71331e-19 0.375 1.5 0 1.375 0.8
0 1.875 1.7 0 1.125 -0.8 1.56607e-18 1.875 -1.7 0
1.125 -0.4 0 2 0.4 0 2 1.9 2.99829e-19 0.75
-1.9 1.9877e-18 0.75 -1.4 0 1.5 1.4 0 1.5 -1.8
0 1 1.8 0 1 -0.5 0 2 0.5 0
2 -2 0 0.5 2 0 0.5 -1.1 9.62965e-35 1.75
1.1 0 1.75 0.9 0 1.875 -0.9 0 1.875 -1.3
-1.92593e-34 1.625 1.3 0 1.625 -1.2 -1.92593e-34 1.70864 -0.6 0
2 0.6 0 2 1.9 0 0.875 -1.9 0 0.875
-2 1.9877e-18 0.625 2 2.99829e-19 0.625 -2.1 0 0 2.1
0 0 -2.1 0 0.125 2.1 0 0.125 -1.6 3.67424e-18
1.375 1.6 -3.61401e-18 1.375 -1.7 3.67424e-18 1.25 1.7 0 1.25
-2.1 0 0.25 2.1 -1.71331e-19 0.25 -0.7 0 2 0.7
0 2 -1.5 0 1.5 1.5 0 1.5 -1.2 1.92593e-34
1.75 1.2 0 1.75 -1.8 0 1.125 1.8 0 1.125
-1 0 1.875 1 0 1.875 -8.80914e-18 3.61401e-18 2.125 -0.1
0 2.125 0.1 0 2.125 -2.1 0 0.375 2.1 0
0.375 0.2 0 2.125 -0.2 0 2.125 2 0 0.75
-2 0 0.75 -1.4 0 1.625 1.4 0 1.625 0.3
0 2.125 -0.3 0 2.125 -1.3 0 1.70864 -1.9 0
1 1.9 0 1 -0.8 0 2 0.8 0 2
-2.1 0 0.5 2.1 0 0.5 0.4 0 2.125 -0.4
-1.20467e-19 2.125 1.1 0 1.875 -1.1 0 1.875 -1.3 0
1.75 1.3 0 1.75 0.5 0 2.125 -2 1.9877e-18 0.875
2 0 0.875 -0.5 0 2.125 1.7 0 1.375 -1.7
0 1.375 -2.1 0 0.625 2.1 0 0.625 -1.8 0
1.25 1.8 0 1.25 -0.9 0 2 0.9 0 2
-1.6 0 1.5 1.6 0 1.5 -2.2 0 0 2.2
0 0 -2.2 0 0.125 2.2 0 0.125 -1.9 0
1.125 1.9 0 1.125 -0.6 0 2.125 0.6 0 2.125
-1.5 0 1.625 1.5 0 1.625 -2.2 0 0.25 2.2
[...]
POINT_DATA 2150
FIELD attributes 1
p 1 2150 float
19637.1 19153.9 20293.3 19253.3 18792.5 19880.5 21079.4 18835.9 20612.5 18478.2 18674.4
18252.4 19189.1 21906.1 18705.6 19863.2 17923.6 21468.2 18344 18327.7 17974.6
18798.7 21335.3 17743.6 23081.5 18844.6 23148.6 18455.6 20104.9 17625.4 25528.9
17734.5 17342.9 24647.3 17427.8 25739.7 19301.7 17171.4 18323.6 27194.6 18852.5
22818.9 16946.9 38707.4 17104.4 36360.5 17921.2 40766 16717.2 20001.5 31790.1
19487.4 36355.6 14090.6 66629.8 16934.1 13837.4 17341 78338.2 16396.1 18364.4
57261.5 37278.9 13874 86754.4 13947.5 20751.3 44488.9 122085 15951.8 16943.4
102077 54085.6 20212.6 144700 13967.5 16119.5 18905.3 85814.7 8813.42 16861.1
21694.6 7929.31 18110.3 70430.2 8089.77 15321.6 153812 16087.6 18956.1 131237
17132.3 67612.6 21384.5 181894 13812.5 144754 8413.47 81190.4 20818.9 18208.2
15073.2 20222.7 14433.9 16116.8 115650 19285.6 17257.8 195904 8897.03 18315
20869.5 14075.8 15003.9 169981 196714 13394.9 16176.9 20331.5 5638.76 30592.9
2961.64 151671 17328.6 19505.7 97756.5 3024.93 13917.4 100905 21889.8 215253
15009.7 9416.46 13280.4 21752.5 18445.7 21069 115352 16238 20389.3 3276.8
171878 17371.7 144684 19634.3 13868.9 12916.2 203018 180693 15053.2 22020.6
21824.6 18610.9 16270.2 21170.5 223398 9733.82 208830 3730.99 20383.9 17489.6
171035 12797.7 13863.9 11781.6 19650.6 15080.2 5494.39 140417 22058.8 18715.4
16338.7 21893.9 1027.72 36000.7 222908 153286 21230.4 4355.42 211015 12761.6
20392.2 11650.9 13848 104629 946.529 17595.9 9954.99 229316 195362 15114.9
174879 19663.9 170414 1023.18 16403.2 18752.7 22123.2 21931.3 11650 12735.4
21261.8 10346.8 4922.02 233403 13836.6 20454.2 193433 17634.9 15146.3 202944
1166.97 19715.1 16426.7 11672.1 18769.3 223412 12683.1 10189.4 238552 183201
22084.7 21936.1 13830.5 193136 21235.2 17637.7 20543 215250 15153.8 220083
1401.92 242005 5353.04 9545.57 207763 19783.7 41267.1 1366.83 11642 10311.7
12643.9 16433.1 8263.84 98146.9 633.501 18731.3 13819.9 21127.9 220783 17575.9
15164.1 624.31 149937 20598.1 1658.36 234358 10357.8 252426 11614.3 8397.75
19755.6 241046 12616.2 16397.8 254035 5756.87 13834.5 18637.3 181131 651.507
228138 21743.6 235203 21173.6 239709 15150.6 17509.3 10406.8 8581.4 11584.4
20571.3 6387.48 1893.08 246283 12638.4 244392 19606.2 16367.9 203719 688.273
13846.6 18577.4 270756 10387.2 24308 8738.65 15144.5 6754.24 54951.9 11602.8
6304 271987 253380 17539 262819 12671.9 89498 1341.56 19323.4 223475
726.158 16396.9 13874.6 259714 2068.8 120662 613.952 18542.9 8739.74 10379
6532.52 11615.8 3695.84 269175 274774 15161.2 21296.2 17550.1 280335 20735.7
12727.7 148882 580.169 286008 19354.5 16403.8 240678 759.063 13917.7 8693.76
295022 6542.43 292944 10300.9 3849.17 18508.3 11639 278699 1968.2 15166.9
175523 591.946 291630 289628 12764.2 17492 6472.5 8489.99 13956.7 3862.22
16402.7 10236.3 48605.6 24283.3 71475.9 2050.77 257545 777.734 11603.4 200149
604.944 89236.4 8127.39 304975 15205.8 12817 324024 20748.9 17271.5 322510
329052 20188.8 6204.33 1935.44 107724 3781.14 8264.15 304030 1899.63 320176
10087.9 14048.2 16432.3 332858 18971.3 11587.7 129481 733.581 222984 613.761
15321.3 277472 758.875 324224 12951.1 6239.61 3603.96 8102.32 336093 17437.6
1999.19 10213.9 14252.8 152606 609.022 16531.2 11693.2 245151 619.135 355885
5597.19 335702 348020 15641.7 1915.59 13369.8 374171 20286 70254.5 176360
594.038 356603 9780.93 51052.4 83387.5 378557 302704 19764.1 736.506 14658.5
96045.6 28874.6 382146 18702.6 111475 12153.5 368578 13463.9 268335 619.402
592.109 200865 385325 17605.9 3998.72 128480 375560 2037.23 400029 5213.13
334676 763.595 397374 16426.5 146954 1467.23 407782 9509.95 225987 593.656
421707 20071.8 294538 618.092 425335 19588.7 167382 920.623 430176 18713.6
423691 13874.2 85307.7 74227.6 95650.4 108386 57773.9 429509 1962.65 251878
597.263 436175 17971 376053 812.026 465861 4884.57 122327 37833.4 789.613
189860 325718 621.759 137120 21120.6 452097 16958.4 481172 9141.48 214295
472043 755.594 20134.2 153663 11030.6 279444 599.345 474705 19667.8 493419
13959.8 480528 18898.5 436324 886.153 514985 2003.59 172518 6271.77 366222
630.396 569385 4522.89 491207 18376.4 240740 751.478 99964 91173.2 110891
597.827 310962 123566 81601.9 584976 8552.09 4527.77 193780 518796 17329.6
136904 68704.1 151130 53176.5 533916 1041.41 534960 20400.9 269806 634927
2159.77 756.752 431723 649.582 537865 19932.8 588894 3870.18 217634 13839.5
547160 19202.5 167029 38064.8 687943 4096.74 355058 596.078 567532 18777
185322 27250.2 3640.93 244502 693765 7996.15 305044 761.571 611617 17617.2
635192 1232.41 117546 524230 687.096 128895 108043 21454.3 206554 141440
100024 2229.75 716235 427741 598.314 92079 154846 614907 20843.2 20365.4
618939 687187 13732.5 276071 3640.85 744642 3656.22 631870 19643.9 169384
82716.9 360450 776.145 18645.2 231166 656628 19239.6 71980 185749 736178
7598.55 579010 727.863 1308.32 648192 319633 500094 3769.81 605.866 691575
17928.8 17370.2 260226 204702 61211.8 681572 2049.25 435896 824.325 674066
21493.8 138213 708806 13716.5 52176.5 680625 3164.31 227015 127886 149847
676114 20983.7 162500 119114 298109 17114.9 680308 20202.8 388528 4102.78
176303 111318 732.733 517255 345421 498748 680361 19728.1 626.853 46187.6
1188.99 253984 521481 191776 104215 7345.56 648827 475724 983.156 511718
1579.13 209588 97246 658561 18292.5 358176 17680.3 42904 289147 452671
4861.09 417527 230565 88918.2 2726.47 481507 578450 13970.3 631540 22312.7
626360 21761.1 380020 745.462 336122 716.429 605425 20852.7 256206 80236.3
422058 1578.04 431870 19170.1 304824 936.211 343439 41949 162043 174060
151162 554657 20294.8 141605 187214 7799.6 422462 447314 6708.28 133257
201937 457759 277954 1128.89 290041 73638.2 459638 19167.8 125801 219035
43220.8 418629 460276 22041.7 118366 244439 3915.62 239520 1728.48 209182
327851 16398.5 166546 1125.52 341907 69748.8 275416 3992.89 435718 23212.5
423104 22607.1 147365 1081.9 265022 110548 343160 11419.2 381362 21593.9
466714 46621.2 16925.4 197736 309233 21548.3 134496 414538 3215.21 68454.5
299669 103520 395596 27696 189711 178278 202482 221148 22952.9 168236
216836 116076 6699.06 145066 11192.1 159395 233621 351998 98385.2 106958
4914.22 22090.1 122091 20749.5 196339 431296 52300 469908 69771.3 151347
254245 146503 32593 104415 6105.78 206848 24073.6 23467.7 198250 253785
37898.1 143851 281373 420773 95312.7 22961.2 172523 110028 58233.5 103180
26274.1 319687 136929 25521.3 137813 452631 73529.9 305372 60479.9 104762
25645.3 102210 20109.9 473117 94194.6 114866 35552.5 112866 38476 373734
131085 101610 18769.3 102286 82112.1 51612.3 138076 223600 238148 211103
101454 31669.8 103739 77677.9 200384 255824 342962 79609.6 435553 126919
461496 95085.5 191107 278992 109253 25090.2 70122.7 169078 24962.3 108178
182822 310558 26719.7 105585 101385 90716.6 101677 130841 101508 45738.2
476080 124411 102152 53420.2 101350 42096.1 175610 352982 37702.5 103096
104192 65297.3 363006 97892.4 199121 87293.1 46218.4 101314 404348 169558
101801 73133 101340 160171 458632 123479 79916.7 109317 101305 87032.6
452505 164830 101403 136791 102608 220573 101311 64535.9 273834 118036
101656 27484 94635.7 101348 69133.8 256930 295185 101606 28599.1 363997
124226 473258 161667 101302 163996 243651 322368 101301 64687.3 101475
77093.8 101486 36282.8 101316 188492 355904 233168 63731.1 101374 81414.1
101299 88622.8 101797 224633 394661 440777 159864 127251 109060 101319
117941 433640 217939 228139 126550 204934 101301 101298 145787 102419
101292 460122 212967 271659 101301 344379 101302 80489.3 178506 159322
101299 78315.7 101308 86715 101298 83672 455300 209610 132931 130511
101327 96291.2 101298 203721 101313 32993.8 103278 116383 101311 36776.2
101299 212269 101307 55500.5 218895 160040 101298 116286 167096 402975
207702 101366 108557 355575 335241 379139 101303 99300.1 318204 405276
304666 429818 101299 153168 222012 104061 136089 101298 182726 101298
294478 91282.2 445621 304626 206876 101299 96024 123756 101424 132215
161968 101298 91640.6 114705 101300 104673 287521 443893 101298 196254
103394 101303 116582 195108 222390 206966 413448 283372 101299 44391.5
101299 52933.9 101485 142905 101298 147428 101298 221444 104291 165284
101298 83394 281828 344741 131500 101306 130707 125137 207802 101298
107419 101298 104418 101298 206364 114747 233399 250472 282257 107391
172085 423225 413095 430589 101519 170074 402504 431991 101299 125743
150602 101312 125766 392983 422949 204577 103780 209376 163685 283519
385906 396091 101299 140201 101298 237269 343884 381860 175150 101298
65845.1 229299 101298 79222.2 284893 101313 176249 115332 101298 114951
101298 120428 270929 380650 126541 118767 101504 211993 101299 158951
154410 101298 136517 124815 101298 226629 193410 382190 242736 101298
185026 285975 102894 150149 149671 101300 183792 133911 385752 101316
215890 214493 404725 414934 386654 249221 101298 168125 420835 356464
101298 200657 286757 101450 134274 311953 424307 139433 107450 389613
134285 101298 240897 148538 99205.6 114483 256318 427147 146821 101300
144158 221267 196527 430561 161468 192404 176406 244121 102111 392240
101311 287997 256189 144050 434944 174542 201222 178565 113371 440348
392961 101388 228615 153283 101298 228483 149237 101298 101298 101298
161564 262961 101300 290832 224461 202040 151781 103477 445993 173896
257044 101298 140828 289862 391871 101308 318808 254891 101298 165658
155228 341196 215211 190467 101298 101298 179938 101634 450480 357726
173903 261170 237599 295906 200664 370234 137475 275727 200209 101298
101298 222481 380332 113956 213236 390267 101299 452686 101342 168487
175838 165969 187451 104398 388790 247846 171596 247285 282328 303766
203734 101303 452173 101298 248888 101964 395931 101298 390073 189100
101298 277482 186431 198644 101416 401364 226344 216183 281064 449133
101299 226165 229795 101298 191946 300334 185627 161007 183780 138808
314801 202696 204795 120281 101316 404540 392052 101298 185057 222837
108706 248260 263281 101298 218652 237694 103738 193692 444387 270576
101298 101301 307909 405286 271238 249499 101995 241744 214205 396434
101298 101465 258377 329051 301699 101298 403597 439229 234164 101298
281495 210532 101333 264528 243782 305886 220515 205356 252395 255452
207019 236184 329362 263952 101304 268212 101298 399634 403380 218186
260684 279047 346525 434394 106613 296336 110977 103924 269718 101299
117115 102432 339593 299583 124293 101715 241044 304331 393451 131277
101431 101298 232407 101298 241970 269319 412073 101298 330920 228441
137172 101334 257936 429963 336955 282972 279837 367063 232331 290930
101308 141594 285633 298610 101298 385212 267218 364255 303357 245554
101301 144452 101298 332896 316062 425627 421198 326508 101299 145909
263519 379268 101298 270314 375166 268820 335651 259126 390554 286936
256300 101298 146261 101613 101884 319309 101448 101360 102277 369204
258013 262118 102777 101320 310834 376986 420220 367070 103324 101305
101298 333596 363218 101298 101298 145785 429159 340577 346165 103841
277585 101300 410022 348760 250250 415436 101299 104258 144653 365451
305577 101298 360252 327784 294509 305614 412145 104531 433303 348602
363342 292668 381732 433690 101298 142895 405399 239907 104663 300894
422912 354085 435727 436904 104681 101298 329761 101315 384108 321581
140338 101331 101306 389899 399084 101354 101302 395199 478786 226925
101384 101300 383722 360451 398490 104622 414576 431613 101418 348598
101299 428959 360788 101451 410884 441939 101298 348672 101298 136683
101298 519899 104507 305450 101298 101477 439806 448327 211294 361991
377557 101494 425289 131794 502326 530765 104337 418369 390515 101298
101501 444672 429578 459993 432619 437104 275523 101298 421953 192982
101298 463414 587077 443452 101502 104099 450343 343957 517206 125834
424317 435385 101299 441471 101300 101299 101301 101298 468206 101303
101298 638158 101498 101305 435606 386629 103770 516568 172446 101307
240532 494522 119340 101491 480485 475011 101308 625450 478246 613024
454059 452443 297509 474521 101309 103355 405134 101298 101480 486131
489222 702626 496332 470247 151140 101310 113301 101298 473787 565205
330688 509372 101298 201808 542413 101466 102888 101310 462419 708965
242144 435347 456351 101298 101299 101298 619530 393767 101299 101298
460825 489964 101309 101299 108536 131175 332212 447647 101298 101445
101299 101298 627728 452561 715495 102428 162920 101299 257322 101309
431312 101299 101298 101298 554520 558274 740723 419404 101419 569468
184637 497394 101299 105259 592389 101308 115613 395434 102033 334329
101308 292455 356284 655523 101298 639444 101299 238073 357381 130329
101391 101308 707867 370857 182650 101299 338940 342439 488262 103248
101734 732067 136677 106772 101299 302704 101306 101363 648068 634220
273535 638844 101298 185910 110858 209935 315147 652346 101299 155659
220425 252299 101305 674914 101531 101305 102131 128402 214769 101298
466165 700326 101298 101340 101299 103125 110652 101298 195209 203599
101299 696160 195594 101303 271826 101299 101298 103652 166943 608183
101408 101604 121484 101322 128388 112613 144382 129761 106101 427509
675082 101298 155325 675920 101818 137235 101299 101302 101298 101298
675710 125043 102994 666131 101298 101298 238508 101343 101299 101312
626705 116810 101805 101299 101396 114640 114682 101298 101298 101300
525429 108876 133221 103340 102583 101424 103823 101938 363730 101299
103700 101298 101307 101559 101314 101298 104675 101299 104095 205171
103071 105479 597010 101325 589663 101388 561438 498540 101299 102328
101298 121313 101298 101324 397101 102135 101298 101301 102117 101421
101468 101299 101303 101370 101485 272943 101767 103192 101332 101298
101461 101305 164718 101312 101298 101502 101411 101468 101299 101529
112189 101303 101298 372942 101299 360576 101298 101360 320489 101308
254250 101306 101298 101313 102305 101347 101300 101302 101298 180115
101311 101345 101326 101298 101298 101298 101300 101298 101310 126616
101298 101391 101299 101299 105459 101305 101310 101308 101310 101298
101782 101298 101302 101299 101299 167721 101298 101299 161005 101299
141849 101298 101299 101298 119756 101298 101343 101301 101301 101300
106713 101299 101298 102472 101298 101298 101302 101299 101298 101298
101298 101479 101299 101299 101298 101299 101298 101299 101298 101298
101298 101319 105037 104537 103307 101298 101300 102130 101298 101298
101299 101298 101532 101347 101298 101298 101298 101298 101298 101307
101298 101298 101298 101298 101299 101463 101440 101298 101298 101298
101384 101298 101333 101308 101298 101298 101298 101298 101298 101298
101300 101298 101298 101298 101298 101299 101298 101298 101298 101298
101298 101298 101305 101304 101302 101298 101298 101298 101298 101300
101298 101299 101298 101298 101298 101298 101298 101298 101298 101298
101298 101298 101298 101298 101298 101298 101298 101298 101298 101298
101298 101298 101298 101298 101298 101298 101298 101298 101298 101298
101298 101298 101298 101298 101298 101298 101298 101298 101298 101298
101298 101298 101298 101298 101298 101298 101298 101298 101298 101298
101298 101298 101298 101298 101298 101298 101298 101298 101298 101298
101298 101298 101298 101298 101298 101298 101298 101298 101298 101298
101298 101298 101298 101298 101298 101298 101298 101298 101298 101298
101298 101298 101298 101298 101298 101298 101298 101298 101298 101298
101298 101298 101298 101298 101298 101298 101298 101298 101298 101298
101298 101298 101298 101298 101298 101298 101298 101298 101298 101298
101298 101298 101298 101298 101298 101298 101298 101298 101298 101298
101298 101298 101298 101298 101298 101298 101298 101298 101298 
