/*--------------------------------*- C++ -*----------------------------------*\
  =========                 |
  \\      /  F ield         | OpenFOAM: The Open Source CFD Toolbox
   \\    /   O peration     | Website:  https://openfoam.org
    \\  /    A nd           | Version:  9
     \\/     M anipulation  |
\*---------------------------------------------------------------------------*/
FoamFile
{
    format      ascii;
    class       surfaceScalarField;
    location    "0.0018";
    object      phi;
}
// * * * * * * * * * * * * * * * * * * * * * * * * * * * * * * * * * * * * * //

dimensions      [0 3 -1 0 0 0 0];

internalField   nonuniform List<scalar> 
38437
(
-1.94278
-4.12714
6.87239
5.24167
2.37671
-6.68833
4.54331
-3.00243
-2.9516
-4.67461
2.58684
-0.620636
-4.03893
7.34182
5.52974
1.28779
-6.48769
2.72933
-1.8023
-1.37495
6.87152
2.39903
-6.24024
2.70326
-1.35103
-0.590788
6.84681
1.19332
-6.2021
-8.13602
1.42971
-1.79353
2.34696
2.17254
-5.86297
-2.74205
-0.285413
0.204968
-8.08536
0.639667
1.47697
-0.108568
3.0278
-7.19791
0.185584
-3.42325
0.0325347
1.85896
-3.52759
-4.30442
-3.40778
-0.688901
-0.788585
-5.29131
2.95825
4.20017
-0.0297931
-5.56914
-0.584062
-5.816
5.88392
5.62458
0.852426
-6.49787
-3.14379
1.07559
2.46313
-1.08564
-4.01209
1.79553
-0.440923
0.206253
1.93357
-2.92899
3.05938
-3.12601
4.36641
-2.20134
-1.56499
0.452416
-4.04202
7.29364
5.54919
-6.43931
-0.00491597
-0.588389
6.94153
1.16714
-6.27683
6.90237
-2.71092
-6.2289
-0.00422744
-4.18574
0.63296
5.32691
7.44769
-0.0250966
-0.596962
4.18603
1.22186
-2.79419
7.77485
-2.7826
7.75202
-0.0297996
5.17225
1.17663
7.46928
-5.91002
6.04041
5.73926
-6.51492
0.0218131
-0.673982
6.95054
1.25039
-6.82314
6.97712
-6.80873
-0.014038
5.25478
0.481172
6.65621
0.0271634
-0.120454
3.46533
1.61545
0.158884
-5.13878
3.58578
-0.325942
1.9062
0.782361
6.45188
-4.04588
7.23505
5.4459
-6.50226
-1.78011
7.0529
2.44158
-6.31328
6.98685
-2.69365
-6.29618
1.86695
4.21934
-2.83282
7.73313
-4.25609
-1.60709
4.47003
6.80196
1.86869
-2.88671
7.44604
2.39007
4.78306
7.29487
-0.588181
6.86991
1.19016
-6.22506
1.35681
6.80776
-6.14781
-0.0097879
6.79464
-6.13379
-0.0150464
-0.591978
-1.41103
1.17162
7.47944
1.41186
0.577031
7.44336
-0.0315644
7.4311
-0.0215029
1.15551
7.49192
-3.5375
-5.25932
-0.997687
0.705771
0.170672
0.201337
-0.517039
-5.60409
-0.0596663
-5.70603
0.206523
-2.04943
-2.58038
-5.63919
0.886588
-1.6058
-3.37765
0.552225
2.35923
-2.85616
-2.47369
-3.98585
-4.63359
-5.64998
4.79186
5.16674
-6.29048
-1.63854
6.16182
1.82188
-6.33892
6.75214
-6.73082
-4.73837
-1.13372
3.42769
1.49821
-0.907569
3.94262
4.6039
0.649759
5.7534
3.31218
1.22111
-1.66692
-3.19445
-3.57797
1.3812
2.13666
-1.03296
-3.16303
-1.49648
-0.532813
-4.48603
-3.53621
2.63413
-1.7443
-2.83424
4.52699
-2.7446
-4.47969
-1.25312
-3.62505
-3.65042
-1.34982
6.85918
-6.22036
-1.80363
6.88868
2.40789
-6.26028
6.87689
-6.239
1.75594
-1.41425
7.49494
1.39365
-1.75087
7.50683
2.35701
7.49824
2.36673
7.49621
3.27606
0.0345029
-4.46503
0.106632
0.514082
-1.15131
2.28686
0.368757
-0.943722
2.239
0.318508
0.0979585
-3.30346
-1.68191
2.64233
2.0857
-3.95918
-2.86045
-0.817122
-1.81463
2.65671
-4.35311
0.0104633
-4.23698
0.482033
-0.00695539
7.93756
-0.654514
4.10703
1.20314
-2.86381
-3.35415
-7.05173
0.291157
0.552349
-7.94908
-2.9302
-0.0690939
0.965602
-2.95534
-2.91169
-0.0573285
0.840467
7.84009
1.64889
3.85416
-2.83153
-3.51611
-1.06087
3.42506
1.0589
-1.26682
-7.52384
-2.40228
1.41517
-3.14142
-6.62888
2.50073
-2.69093
-2.83015
1.99431
4.04521
8.1965
-0.605165
-1.39544
1.18448
1.39388
0.645675
-0.0729731
1.4717
-8.13602
1.21289
0.674235
-8.14321
-0.102297
1.22173
-0.0801922
1.23743
0.580089
-3.05838
-2.09543
2.97076
0.290403
2.8032
-0.586194
2.30099
-3.41489
2.06616
-1.00323
3.17162
-2.04214
2.98055
3.19199
-2.14307
-1.9192
-2.17091
0.711182
3.4179
-1.54341
0.487687
-1.92873
0.65126
-2.57048
2.25224
-2.98947
-2.48354
3.70988
-2.48416
-2.39786
-3.30192
8.23465
1.80692
-1.39071
1.42349
-1.83129
2.41919
-1.70267
-8.08708
2.10124
1.45567
-8.15297
2.38564
-1.75706
-3.43252
2.60439
-2.88788
3.89127
-3.86282
2.87994
1.05983
-2.90505
-2.74298
2.76974
-3.41598
2.5787
-2.38704
-2.82399
3.87275
-4.28604
-3.0596
-4.59843
-2.63615
2.71596
-4.29279
2.64758
6.48901
4.66357
-6.41207
1.45768
-4.19878
6.78766
-6.26306
2.85808
-1.40955
2.98341
6.87139
-6.26459
-7.19968
0.637148
-3.30493
1.38836
-3.93776
-0.603371
-0.657358
-8.10237
1.37214
2.80938
1.87781
-5.04442
-2.10922
0.217313
3.46716
-3.36739
-1.66974
2.19714
2.96492
-0.641414
2.38122
-2.37394
-4.49634
-0.913753
1.63151
3.61123
-3.67432
-2.58275
0.348128
2.382
-3.04033
2.61946
-0.893833
0.730081
-2.97684
2.14858
1.3615
-3.02147
-2.94048
3.05502
7.00154
-6.36961
-3.96104
5.72816
4.19337
2.66905
-5.99558
6.66617
-2.82366
3.42044
-6.49203
-3.79175
1.89323
3.95253
5.96217
2.72146
-2.82101
7.15964
3.31606
-2.83061
2.90626
6.65828
3.09687
1.68321
5.00266
1.56868
4.9285
-5.89984
3.57881
3.47297
0.940297
-4.78735
1.12953
3.50097
-1.23374
-1.68387
3.264
0.187773
3.4994
-1.77128
3.38159
1.16136
-2.93626
3.47946
-1.69048
1.15022
0.00360168
3.02521
-3.28826
-0.997559
0.530475
-3.19615
-2.13106
-4.04408
2.73015
-1.01852
-3.20574
1.03991
-3.05839
-4.12128
-1.95999
-3.46398
-0.957284
3.22477
-3.08856
-0.700406
-3.67581
-1.53409
3.00813
6.88939
-6.26937
1.37465
6.8915
3.61363
-6.2734
6.85605
3.5773
-6.25105
1.37668
2.97813
7.5049
2.97877
7.52007
-1.44868
3.46745
7.30831
3.57702
7.48448
-3.42714
4.70702
3.33599
-5.30051
-3.60332
5.46808
-2.49846
-5.66408
6.20852
-2.80053
-6.11815
2.87261
2.70078
-2.4161
5.91485
-1.90478
-1.53482
1.94774
3.81144
-1.95503
5.17204
2.44805
4.25348
1.18911
0.641351
3.562
-0.481289
3.08395
2.76781
-3.26123
0.906299
3.54799
-0.887973
-2.89817
-1.38501
3.4976
1.00013
-0.0893752
2.83891
2.51171
2.77532
3.42582
0.82922
-3.13371
0.930401
2.71216
-6.96812
1.42917
-2.09617
2.17453
-2.66661
6.22361
2.48317
-2.29177
2.15722
-1.48928
-4.49968
1.62738
0.379153
-1.68619
1.47976
2.23891
0.867111
2.7212
-0.610445
-1.13599
-1.91643
3.24594
-2.01354
3.35107
1.21823
-2.80125
3.39525
-1.75157
2.64319
-2.99838
-0.637911
3.21719
-1.65458
-0.481675
-4.11819
6.44335
-6.1735
1.4366
6.87234
-6.28547
6.75486
-6.23542
3.77773
-1.44694
6.98915
1.29856
-4.10275
7.10667
6.5052
7.38794
1.44839
2.98657
-7.80812
2.39278
2.79987
7.48049
-1.43974
3.09217
1.18101
-7.96409
3.11679
2.5396
3.47528
-3.31663
-1.81238
2.43208
2.7829
-0.927385
1.34418
-0.961155
1.21765
-2.60964
3.28088
-0.576957
-3.25851
3.1274
-1.18946
-0.566865
-1.3169
-3.08699
-3.57685
0.583428
-2.70162
-3.1721
-0.339772
3.1577
-2.79077
-3.05099
1.0309
-2.61961
-2.35926
-3.19684
5.53528
2.1461
1.74235
-1.85362
-1.1923
-0.978087
1.60603
-1.61366
-5.01227
-0.507222
-1.03309
-4.16666
1.49247
-1.12596
-1.28694
1.82542
1.13533
-2.76516
-1.40037
3.33674
0.194948
2.61688
2.51881
-2.85712
1.32817
-0.949795
2.98971
3.10807
3.21365
6.9721
3.25044
-1.30509
0.986088
-3.80157
-2.5733
-6.33893
0.890811
-7.64239
-0.251806
-2.32023
3.16345
-3.13391
2.66119
1.93851
0.238544
-3.03601
0.842436
3.35292
-4.83265
1.44059
-2.27907
4.8234
-0.216981
-0.350587
2.60255
-3.24745
3.18142
2.09662
-0.843566
1.58999
0.340589
3.72512
2.92222
2.20284
-2.89416
3.48974
1.89534
-4.15174
3.99624
-2.60318
0.10061
2.40596
-2.21717
2.45745
-0.269559
0.0256173
-2.48659
-2.46412
1.84349
1.9461
-1.16817
-3.54399
2.11127
2.9209
3.10012
-4.00392
-2.58746
2.8186
3.94388
-4.34501
-3.99082
-2.99591
2.75246
-0.325368
-0.543762
-3.54581
-3.98822
-1.75031
2.42403
-1.13904
-3.88672
-1.76205
-1.86215
-1.96777
1.19834
-2.8666
1.77703
-3.32815
-3.93699
-2.85515
-2.70247
-2.17004
0.638847
-0.482972
-3.14907
-3.66468
0.335609
-4.43797
1.51358
-2.63269
3.19369
3.51507
1.74535
-4.355
-2.57872
1.69683
-4.50892
-2.43219
3.08461
-4.14352
4.10093
-3.99296
-0.0510857
3.43398
-3.15908
0.464401
-3.99744
0.769728
-3.79066
1.8761
-3.56535
0.559826
-2.93572
3.29896
-3.76768
0.611433
3.73654
-3.38749
0.470818
2.01111
4.08624
1.93985
-3.72603
-2.69035
1.86627
-3.76791
-2.57464
-3.69269
-3.42741
0.609007
-3.23294
0.955549
-1.08861
-1.11446
-2.60485
-1.06704
0.593445
-2.47618
-2.54996
2.41197
-0.845128
-2.48449
-2.59823
0.620546
0.809425
-2.58785
-2.46667
2.48186
-0.979082
-2.87786
-2.51562
1.91658
-0.471346
-2.65559
-3.04895
-2.23274
-2.52678
-0.619743
1.99903
-2.41194
2.34807
-0.42562
0.64368
-2.53651
2.49217
-0.719095
-3.22192
2.948
-2.47444
-0.181699
-3.18523
-0.15102
1.74835
-2.32315
-0.107693
-3.0379
-2.41161
-0.317755
3.33859
1.99542
-2.7641
4.06182
2.07152
-2.81714
1.88254
-2.6541
-2.85369
-3.53695
0.90738
3.28684
2.58201
1.495
1.17526
1.25529
2.79094
-3.0003
3.07732
0.416509
-2.3816
2.50255
-0.587109
-2.85115
2.63892
-2.97023
-0.0828418
-2.74049
-0.312969
2.26292
-1.92395
0.0253584
-2.57613
-2.01121
-0.251624
-2.24433
-2.85135
0.276441
-0.555015
1.64476
0.153349
2.69598
2.11743
-0.634835
2.19737
0.215603
-0.00441318
-3.29357
1.36208
3.97242
-0.253524
-5.43831
-0.211033
5.7338
0.361022
-4.78383
-3.3904
4.11082
4.05085
-0.374709
-2.73056
1.34697
2.6715
-0.302362
-2.09658
5.31261
3.01826
-4.03935
-0.642492
-2.33206
1.34405
-0.775014
2.71273
1.35283
-2.15459
-0.317188
1.37339
0.860458
-3.88776
3.96879
2.75225
-0.736959
-2.71844
1.30833
-2.16743
-0.232727
0.798677
4.00747
-3.99747
-2.7338
3.49107
5.40528
-0.815238
-2.71583
-2.2017
3.16444
-4.34951
14.3602
5.69187
1.31806
-4.42915
11.124
5.67703
-0.509323
-5.12258
6.14648
-0.751755
3.48197
1.47998
-2.71277
-5.1812
-0.699492
6.10261
-4.80266
1.40715
-6.38101
6.29368
4.18644
-0.636658
1.63325
-3.51265
-6.19484
-0.787072
5.81152
-5.20696
1.35445
-2.63002
4.00487
0.364997
0.196122
-2.74546
3.29059
-0.709308
-4.02398
5.18172
3.72966
-0.39536
2.72953
-2.74663
-2.13535
-3.99914
2.87377
0.0881423
5.20378
-0.579804
-0.578371
-0.567189
-0.571442
0.173906
-2.74614
-2.00686
0.0916465
5.21582
3.61838
-2.7289
-0.736637
2.99991
1.35386
-2.3247
0.741677
-2.62723
3.98521
-2.73572
3.28014
-3.98725
2.87059
5.17012
-0.58016
-0.578725
-0.569171
-0.573819
-3.93547
-0.729293
5.06796
3.72143
1.36667
-2.70123
3.39469
1.32082
-2.73978
-2.01237
5.13012
3.6022
-5.97033
-3.94796
-0.382902
-0.0400051
5.88809
4.55284
-0.644738
5.16611
4.19637
-0.0227747
3.23317
4.60682
-2.71915
3.39294
6.1416
-0.0687625
-0.644184
-0.638026
-0.69894
-0.695167
-0.142463
4.13799
-0.180073
6.14545
-3.28548
4.14956
3.87768
3.97516
-0.729776
1.61813
-3.27468
-6.12232
0.687192
-3.9813
6.25302
4.58971
3.37933
6.18947
-0.638189
-0.639568
-0.690621
-0.690605
-0.749509
6.07365
4.18685
1.48212
4.12739
6.23681
4.59634
1.59469
6.39609
-3.28634
2.67019
-0.312418
-2.08968
1.3478
-0.269655
-0.276261
3.29218
-2.59267
-1.36508
0.258667
3.22065
1.35716
2.61061
0.233062
-2.0235
0.226622
-2.00015
0.262686
3.23215
2.70241
-0.775736
1.34253
-2.13511
0.798111
-2.58928
-1.36147
3.20794
1.35455
2.61084
-2.03153
1.34403
-0.803059
3.30871
1.37479
3.30349
1.35759
-2.00409
3.22141
-4.36651
13.1107
5.67091
-2.29093
5.27978
3.02653
3.3439
-1.66534
-3.61035
4.93547
0.957028
4.19788
-5.41346
2.54467
2.76707
5.39231
-1.98179
0.64853
-3.14692
4.26368
3.30232
5.45678
-1.27268
4.15309
1.44687
5.05421
-3.50319
0.701786
-4.15289
5.99944
4.70817
-6.25011
3.85068
5.20485
-3.34778
-6.09844
-1.46866
4.69926
1.42689
4.60082
4.74229
1.57424
-3.55434
4.41295
4.9363
-0.371064
4.10408
-2.73186
4.04141
-4.01605
-2.74543
0.719921
-4.37398
0.0929539
-4.44101
5.06176
-0.738673
5.053
4.00268
0.19846
-2.74894
0.0751612
5.28775
3.96307
-4.09599
-2.69353
1.39795
-0.746595
-4.42653
1.3843
-4.34543
5.22076
0.746484
3.97764
-2.73696
-3.92959
-0.712775
5.06831
1.35541
-2.6988
1.33297
5.11565
6.12972
-4.76605
-0.501345
-5.11043
1.4297
-5.10305
-0.285489
6.18173
-6.05459
0.607676
-0.129041
6.14211
-0.715989
6.00481
1.44308
0.233434
6.12364
1.53085
-1.06228
-5.07831
5.63747
-4.61877
-4.96551
3.83597
-4.95962
0.804372
3.86401
-4.82383
-0.433274
-5.78551
5.65254
3.96789
-0.258546
1.36689
-0.228701
-0.234577
1.37736
-3.9083
-3.90172
0.312968
-1.3757
0.272965
0.275727
0.850489
-3.87954
1.35395
-3.96283
1.43301
-3.9566
1.41608
0.802421
-1.37108
1.35393
-0.810246
1.37396
1.36164
14.8427
-4.39592
5.82579
4.5705
-7.72662
-4.87673
1.42447
-4.20537
6.83669
5.66799
-3.84923
6.94088
4.63459
1.29304
6.23407
5.55924
5.61299
-5.19741
-1.6998
-5.19101
1.35877
4.01622
-5.06353
4.69371
0.786663
5.72114
-5.86867
-1.71153
1.45977
4.24975
1.48777
4.81179
2.68847
-1.36906
-4.1167
-3.17024
3.78683
-6.01469
-3.36297
-4.744
5.95426
3.52706
5.31883
-3.97219
-3.28781
-4.4631
3.97349
-2.81543
1.33849
-3.08699
3.45777
3.71219
-2.94454
3.82976
-3.15976
-2.61198
3.60755
3.80845
1.31519
-1.92063
2.74591
2.47541
-2.16901
2.0176
-3.99798
1.34771
-1.88525
3.85209
2.83932
-2.6371
2.48078
-2.21427
5.20127
-2.01993
-3.94411
-4.46944
2.65728
-5.01805
-3.46488
5.9405
-3.49471
4.06573
4.09829
-4.75959
-1.29857
-2.8925
2.89129
-2.497
3.87958
-5.70192
-3.85706
4.0875
4.51151
-3.17838
-4.99155
-2.20143
6.02341
3.52112
2.8828
-2.85435
-2.07843
6.09595
-4.77156
2.72744
-6.19258
-2.49306
6.05761
4.06166
3.25755
-3.39258
-6.17464
5.7402
-2.18004
-5.10398
2.89399
3.90396
2.78752
-2.68221
-2.19037
-1.9929
3.12899
2.63318
-2.46645
3.07824
5.02258
-2.39967
-1.91453
3.87015
-2.63695
2.51861
3.50888
-3.89054
2.00646
5.04136
3.7799
-2.66261
3.45206
5.04998
2.64774
3.81243
6.04442
3.51822
-2.81293
-2.40976
3.91035
3.15053
-3.22896
3.9471
6.25974
-3.2546
-6.04609
-2.37218
6.14699
3.05409
4.50867
2.18013
6.04532
4.19359
2.85613
4.1844
6.17852
4.56338
-1.89916
2.7223
2.448
-2.14521
1.33085
2.71662
-2.1494
2.70298
-2.13728
-1.91619
-1.32568
2.47572
3.3513
1.32906
1.94224
3.33092
3.31843
2.50219
3.37304
6.16133
4.13249
-3.4563
-2.44169
4.03033
3.21353
4.56289
-3.37258
4.10805
4.81596
-3.44976
-2.43176
5.94278
3.14322
4.63547
-6.02051
2.34382
4.67269
4.45442
4.69549
3.10286
4.60575
4.27343
3.81406
-3.10327
-2.61821
3.76601
-2.29192
-3.17895
-3.30061
3.83459
3.95102
-3.28174
4.9563
3.94204
-2.51563
3.8442
2.89191
-2.61086
-2.25309
3.16012
5.03437
-2.50161
3.82277
-2.62495
3.56836
4.96548
3.82716
5.89276
-3.54193
4.16681
-2.82282
-3.68663
-3.65011
6.03897
4.28605
4.2661
-3.79045
6.00479
4.34108
-3.09955
6.05503
3.51376
-2.84608
3.83255
6.163
-3.19439
-5.8864
5.99153
4.35468
4.13044
-3.94419
-4.45528
5.18319
4.19417
-1.95045
3.85419
-2.64004
2.58568
2.00932
-4.14998
-2.6713
-3.89233
2.0142
5.05076
-2.65803
2.61135
-2.66283
5.0164
2.66127
6.10155
-4.80325
-2.13734
-4.99529
2.84859
-5.07957
6.1909
-5.91827
-2.26502
6.01267
2.9042
2.13564
5.9776
2.79034
6.08772
1.33667
-3.04914
3.66589
-2.20399
-2.7982
-3.07154
3.45031
3.70656
-3.02216
3.64761
-2.17976
1.30965
2.77575
-2.17382
2.7528
-2.15216
-1.33977
3.4019
3.42028
4.02248
-1.93733
-1.34439
2.52435
1.34348
-4.04239
2.6023
1.34278
1.94385
1.99695
-3.98434
2.57897
2.52185
-5.6807
-3.84345
3.9938
3.94282
3.95153
-3.77488
-3.71868
4.37683
4.3426
-3.89806
4.41839
-3.21544
5.98024
3.96278
-3.33412
3.91706
4.3235
-3.28758
5.67135
4.44618
4.53879
4.04353
-2.25156
-5.16092
2.40105
3.99496
-5.80692
-5.17427
3.95715
-5.16589
-2.3129
5.66465
2.969
-5.80374
2.28705
4.12791
3.10155
3.97383
-3.43195
-4.71969
3.97293
6.10147
-4.71431
-5.20941
-4.95003
6.15846
6.05207
-3.41711
-5.14995
4.10245
-3.56146
6.11928
4.0853
-5.98549
6.07684
-5.0703
-4.25444
-3.21943
3.83195
-3.98549
-4.47416
3.93099
-3.21285
-2.66302
3.83477
-3.30492
3.93402
4.23926
3.85228
-2.6091
-2.70456
-4.12057
-3.19528
3.80433
1.35255
-3.13495
3.77018
-3.13782
3.76487
4.07634
-1.32831
1.37436
-4.09117
-2.96387
-4.38863
1.79698
5.61112
-4.99014
-4.56745
3.86178
-5.61958
-3.24669
3.97084
2.34107
-3.65143
3.70501
5.68852
3.92298
-8.4218
8.7662
1.42559
7.21559
-0.653976
-6.87321
16.2314
0.919191
7.76874
0.252604
-1.96885
3.13617
17.0771
7.03047
-1.72685
-5.53174
1.96336
-0.697907
-2.88312
-5.04412
3.67922
1.59782
0.403834
-1.39783
-0.384803
-1.10886
-1.52055
4.08631
-2.03211
3.75621
1.45291
-3.14064
-4.09104
4.92617
-1.41942
3.54756
1.25963
-2.83303
0.887375
15.6343
0.148975
16.5326
6.88844
1.65781
6.63221
8.87268
-0.749167
6.72647
11.0499
2.69664
1.61337
9.69007
6.99833
-0.519043
-16.8312
11.2827
7.16975
2.82934
7.89984
2.16494
-2.06258
3.61938
1.38794
-2.91024
2.96362
5.00055
-2.39945
-2.56857
3.97555
4.37257
1.57983
4.95084
3.82021
2.91789
5.03692
-2.13176
2.47264
3.89562
5.25553
4.34633
4.14009
1.50199
14.8888
1.21336
0.0515513
-7.11349
2.68307
1.3864
4.46175
-2.23154
2.11885
5.54159
-0.950582
-15.255
7.04121
6.68366
3.12482
-8.33909
8.1041
2.1041
5.54867
2.47612
1.30591
3.12258
3.23022
17.2417
7.10478
-3.84544
6.24305
12.4493
6.7143
12.402
4.04699
-17.1683
12.0684
7.21279
16.72
-3.52229
7.33325
10.9131
6.74673
7.74922
-4.63515
4.77604
-3.02174
3.85981
1.72094
4.90044
4.75188
2.6586
5.30795
-2.29446
-5.21947
3.63243
1.40899
4.71912
4.20242
1.56686
-0.676974
3.18614
1.31836
4.72432
-2.85159
-5.20203
3.29203
4.87923
-2.78021
3.32989
-2.50951
4.94905
1.56033
4.1919
-0.627859
-4.53618
3.10194
1.00162
3.50756
3.35968
3.93279
4.38058
1.29036
4.0786
-14.6191
6.08704
5.91587
-7.75084
6.00997
2.01119
12.6853
-3.19454
-2.78214
-1.63343
0.312797
-1.31002
3.38848
0.851528
0.755103
4.47649
4.37992
1.43451
-2.26266
-1.29471
-1.44635
-0.994926
-4.36579
0.493691
-0.332701
-4.04543
0.140337
0.146838
0.89391
1.19982
1.63271
0.144898
1.83553
0.513541
2.46349
2.49269
-0.659648
-0.508032
-2.8393
-1.6918
-0.00787021
-0.905721
-0.124012
1.02339
-1.90429
-1.51157
3.57355
1.96598
-5.20421
-1.80361
-4.43077
2.34426
1.88004
-2.45839
3.21641
-3.78727
-3.80942
3.42852
3.86417
-3.06532
-2.16779
3.90697
3.70804
2.93685
-3.06474
4.00116
3.766
-3.13025
-2.09647
3.64028
2.89396
4.14661
-2.92946
3.65645
4.04533
-2.94291
2.11174
3.88763
4.39095
3.79928
2.96408
4.39734
2.09523
4.40003
4.17821
3.04469
4.52041
4.11208
3.76921
-3.63992
-3.00075
-3.74667
3.59665
3.58294
3.8011
3.65173
-2.96792
3.83781
4.09585
-2.92466
3.77111
4.37733
3.43361
4.05394
3.86661
2.95299
3.3154
-5.12249
1.63886
3.31876
-4.9227
3.32687
1.82683
2.03521
3.74318
3.70291
2.98034
2.17988
4.03455
4.57652
2.57589
3.71338
0.759762
2.3533
-4.86348
3.01326
-2.87423
4.34307
-2.11502
3.69711
3.00887
-2.84424
3.60165
-2.84351
-4.379
1.06467
2.07985
2.32034
2.22402
4.18169
4.04362
2.47623
3.75458
0.117544
0.205522
0.243228
-4.04673
2.52465
-2.8136
2.77857
3.54641
3.19705
2.16561
3.16105
2.65376
1.67403
0.351079
0.760313
1.2542
-4.12525
0.523052
-1.86142
0.674467
-3.17776
2.16968
-2.47738
3.20572
-3.02858
2.87809
2.19587
2.73292
1.64879
-0.310892
-2.40857
-1.10945
-1.73563
-0.900431
-0.528356
-3.91875
-0.162376
-3.49468
-0.638335
-0.708581
1.61538
2.18749
1.97743
1.20863
0.700993
2.04294
-2.38327
-1.21965
-1.74951
-1.81897
-1.16476
-0.747044
0.0245169
-0.996522
2.86413
2.36917
2.42508
0.60334
-0.862412
0.844866
2.37691
-1.02805
-1.18637
3.4712
-3.38613
-4.77046
-3.48579
-3.32453
2.04039
-4.37897
4.05888
-4.04764
-5.9203
3.17071
5.34254
-2.59694
-4.01886
-4.49034
4.64553
5.39258
1.4298
-4.25476
-5.68221
2.66949
-1.34279
-5.62588
2.97407
-2.33957
2.66547
-1.34407
-4.15915
4.42321
-2.84432
1.34812
4.35592
3.50266
-2.98601
3.91544
4.4432
-2.6536
3.62492
3.7219
-3.37587
2.84493
3.17136
-1.66002
-2.86687
-5.46858
-5.33477
1.07934
4.72782
-1.90239
-3.6409
1.90103
-3.43291
-5.59895
-4.2208
2.84026
5.21222
-5.13079
-3.38397
6.04367
4.76759
4.05881
3.29427
-5.71433
4.5344
-3.14703
3.8198
4.42207
-2.59317
-2.34138
-3.17464
4.57694
3.81191
4.58825
5.02371
-2.52387
3.95347
2.99741
-2.68348
5.0576
-2.37432
3.16238
5.16963
5.21868
-2.51848
3.95513
-2.676
3.62905
5.07109
5.30094
3.85549
5.24257
5.96264
4.7572
-2.76088
-3.59043
4.74028
6.11523
4.09702
4.95605
6.06455
-2.95309
6.09227
3.39957
5.45337
-2.69671
3.3814
6.16137
5.30417
-2.89067
-6.00958
5.95447
3.5392
4.82662
3.92992
5.26824
1.32405
4.31834
-2.20733
-2.84815
4.35268
3.49955
4.30499
-2.21068
1.36376
2.9163
4.97965
-2.29322
2.89327
4.96418
-2.27718
-1.36348
3.5317
5.00683
3.54885
5.00656
-5.63015
2.83777
2.37494
-3.69398
4.35725
3.74113
4.97027
-3.03853
5.65247
3.00974
4.88713
-2.93102
1.28032
2.72224
-2.46157
4.77183
1.81687
2.82113
-2.46553
-1.81929
-4.25894
4.45762
3.95812
4.45192
-2.67625
4.60353
5.28995
4.27549
4.00903
-2.65791
5.08144
-4.09596
-4.52523
4.88689
4.80621
-2.75937
5.15634
5.38342
5.2537
-4.59365
4.14103
6.01988
4.63898
4.21427
5.9719
2.84008
-5.59091
5.2077
3.41603
5.0375
-4.10338
3.86039
4.04796
1.10996
4.78667
-5.68992
3.04957
-2.41411
3.93952
3.02568
-2.65855
-2.38927
3.22831
5.38546
-2.52932
5.72979
4.00413
-2.64919
3.66895
-4.13963
-5.88166
4.78146
3.38345
-2.78735
3.72381
5.36296
3.85978
-5.84275
2.65942
-2.43914
5.92626
3.2307
-2.76013
2.77605
5.87667
-2.60285
3.74234
-5.54815
5.05618
2.05551
4.82686
-5.3917
2.41658
3.84092
-0.147647
3.41591
-4.16401
4.4328
1.36172
4.40691
4.39831
4.18015
-1.34098
5.03571
1.3922
-4.19238
5.06299
5.04801
5.04574
-2.53054
-0.958089
-4.83104
-1.95137
2.50333
-0.939635
3.63221
-0.534337
-3.34706
3.40241
-3.41419
-1.71103
-3.02378
-2.58073
-2.39466
0.710678
4.53562
0.750247
-2.1523
-3.2699
0.314904
-0.373628
3.52309
-1.6009
-3.21735
2.76482
-4.30872
-2.77466
-3.89579
-5.6346
2.99135
-2.35642
1.35169
2.93523
-2.30069
2.93947
-2.29825
5.64458
-1.33454
3.58773
1.39526
-5.64967
3.62471
3.59152
3.58392
5.79616
4.35951
4.09075
-2.75859
-4.03765
-5.4159
4.30793
-4.08925
-4.05236
4.35368
-4.09617
-5.52429
-2.81611
-2.8329
-2.83504
4.85212
1.50209
0.547929
-4.98587
3.99055
0.633007
-0.476343
3.58457
3.78681
-4.40715
3.88977
-3.16276
3.58041
3.62311
5.65032
4.2172
-1.3898
-4.19186
-5.63066
1.3642
-5.67232
1.36172
-4.22801
-1.29169
-2.21947
3.30891
-3.28994
3.0077
2.7145
1.63777
-3.33578
3.8587
0.171389
-1.60739
1.09951
-0.961184
2.22105
-0.00849012
-0.803643
-2.05064
1.14073
0.97185
-0.976376
2.58781
-0.470388
-1.83178
1.12918
0.633648
-0.969798
2.40377
0.157895
-0.0762696
0.651969
0.672871
-0.0971946
-0.515611
0.02431
0.560862
0.32838
0.374327
-0.41699
0.00485294
0.294724
-0.945376
-0.193276
1.22226
-0.735242
0.657175
-1.43808
-2.26396
-0.492636
2.78777
-0.867172
0.060545
0.963462
-0.419978
-0.00472039
-1.38036
0.172104
-2.08376
2.62754
-0.00578044
-1.85243
-1.07394
2.36053
-1.04902
1.232
-0.411438
0.564306
0.674155
1.13613
-0.544732
-0.681377
0.274851
0.658781
0.83206
-0.317617
-0.532662
1.98839
-1.46569
-1.23582
-0.937591
-0.949866
0.408961
1.3155
-0.834161
-1.393
2.49796
-1.08778
-1.44794
-2.33516
0.825507
2.85169
0.595289
0.386125
0.0489244
0.294176
-0.446878
0.0304446
0.569702
0.712541
0.0495092
-0.00328609
0.625694
0.0610928
0.745102
-0.0194153
0.115334
0.889219
0.971883
-0.750081
0.00268243
0.919011
0.204275
1.02041
-0.769859
-0.115734
0.211201
1.05281
1.22532
1.02119
1.17578
0.000848992
0.638271
0.514247
0.12164
-0.49184
-0.111538
0.874644
0.201556
0.793028
-0.357701
0.737554
0.780126
-0.166928
-0.297701
0.938022
0.41939
1.2505
-0.799236
0.938552
1.12626
-0.793638
0.312853
1.07207
1.31845
0.437098
1.0725
1.42933
0.66023
0.991728
-0.521662
-0.534828
0.314544
1.01759
0.794196
-0.541688
0.560232
0.933986
1.37962
-0.796313
1.15147
0.444769
0.80301
-0.692779
0.932702
0.712891
1.51806
-0.791723
0.580581
1.06965
1.54768
0.730414
1.07632
1.66728
0.0461486
0.777175
-0.209949
-0.00306639
-0.898535
1.02492
0.117114
-0.485835
0.837806
0.091738
-0.276184
1.17273
-0.11558
0.216922
1.41639
0.117892
-1.14141
1.53429
-0.00370126
0.222756
1.59005
1.36092
-0.000653642
-0.15677
1.05951
0.249087
-0.569526
-0.928783
1.12361
-0.610371
0.942027
-0.41098
1.19392
0.329998
1.5019
-0.342489
-1.20381
0.475918
1.74819
1.66889
0.459246
1.59764
0.688733
1.25405
-0.791961
-0.561915
-0.591795
1.33169
0.833698
-0.849884
1.26414
0.81452
-0.802598
-0.870409
0.938856
1.76623
-0.795368
0.938443
1.65027
-0.793238
0.883397
1.08227
1.77592
1.0868
-1.65096
1.11308
0.317441
-0.966265
2.26022
0.151767
1.03537
-0.903183
-0.00538312
1.05353
0.275707
-0.91078
-0.153326
1.82261
0.283512
1.19177
-1.77685
0.173475
1.23951
2.36151
-0.00819669
1.16712
-0.00489335
0.324491
1.25983
2.40364
0.356478
1.18094
-0.712209
-0.957114
1.37887
0.543419
-0.889431
1.27977
0.482966
-0.809988
-1.20863
0.61776
1.831
0.597313
1.70094
1.2185
0.743244
1.79466
0.772678
1.89559
-1.73565
1.1256
-0.974328
2.32831
-0.407025
1.06618
0.554874
-0.916506
1.06638
-0.92192
1.89704
0.418823
1.20944
-0.480491
-1.98488
0.643468
1.28544
2.53558
1.27811
2.4648
0.567651
1.21255
-1.9344
1.13463
-0.968924
2.48815
0.715611
1.06738
-0.910803
1.07255
0.880687
-0.914418
-2.08061
0.810042
1.29128
2.61596
0.728221
1.2151
2.18434
0.888809
1.22243
0.975667
1.29861
2.70833
-0.983924
-0.697648
-0.965862
-1.38815
-0.899381
1.91486
-0.63073
-0.890602
-0.969862
1.42511
-0.92796
1.34461
-0.861682
1.22887
1.86454
1.94487
1.3185
-0.149736
1.98447
0.28251
-1.93299
0.171392
2.49391
-0.00738941
-2.13529
-1.4043
0.328636
2.67517
0.149696
-1.29041
-0.00597556
0.284276
-0.0052612
0.324976
2.54112
1.33906
2.05359
0.425108
-0.485195
-2.13154
0.64749
2.66568
-0.430937
-1.35023
0.58446
-2.19849
-1.42535
2.72993
2.59976
0.576244
2.27524
-1.04246
-0.917129
-1.1464
-1.14482
1.3189
2.88097
-1.13645
-0.979247
2.79595
-2.16776
1.1441
-0.98103
2.69393
1.07604
-0.919623
2.28335
1.22733
1.30703
2.80032
-2.21728
0.811805
2.73959
-1.35802
0.744161
0.731838
1.36853
2.30177
0.891845
-2.39795
-1.46146
1.00304
2.91497
0.91273
0.98191
2.81779
2.42719
-1.05965
1.49908
-1.16103
2.95702
-1.18828
3.03478
1.38179
2.37134
-2.44943
-1.48028
2.97436
2.88995
1.34275
-1.53631
-0.334261
-4.02764
-0.433636
-0.437564
-0.435948
-0.437702
-0.14572
-0.14361
-0.140137
-0.167561
5.41878
0.421297
0.340702
0.335892
0.342214
0.335096
-0.0793354
-0.0928273
-0.0780023
-0.109534
0.160079
0.050973
-1.19465
-0.203389
1.34576
0.0212529
1.34104
-0.491183
-0.755295
1.05383
1.33498
1.33855
-1.60404
-0.754742
1.33846
-0.679648
0.266555
-0.194424
0.852426
-0.256869
0.328005
-2.72744
-1.56636
3.98783
-0.762262
1.34551
1.38652
0.393845
-1.32619
0.688012
-0.203551
0.167202
0.678041
0.686072
0.673925
-0.204438
-0.221043
-0.231733
-0.359556
-1.51452
2.74032
1.32712
-0.366487
-0.983016
1.33316
-1.44639
0.206439
2.73675
0.19355
2.74898
-0.91142
-0.862341
0.182829
-0.232567
0.0380733
0.310206
0.862011
0.0468556
-0.44298
-1.53085
-0.286292
0.363436
-0.207262
-1.17144
1.31381
0.0184933
0.0600629
-1.14581
-0.509811
1.28639
0.154162
-0.371634
-0.370926
-0.379606
-0.370135
1.00647
0.992929
1.00756
0.988874
-0.278486
0.0194267
-1.18691
0.0508058
0.355849
1.33435
-0.25604
-0.107537
-0.107732
-0.123421
-0.0942461
1.00497
1.01413
1.0167
0.999487
-0.238337
-0.242082
-0.232767
0.694354
0.0368809
-0.136627
0.0252388
-0.51505
1.33937
-0.420087
0.694547
-0.515008
-0.136182
0.0255953
0.0368631
0.0429284
0.031049
0.165808
0.0307281
0.0424724
0.726761
0.0386983
0.0167103
0.0165261
-0.546528
0.0380711
0.678569
-0.0978611
-0.0882906
-0.118348
-0.0754471
-0.0981546
-0.0891353
-0.0756334
-0.119528
0.687516
0.687325
0.693776
0.162886
0.340336
0.335972
0.334967
0.341967
-0.0801072
-0.0925785
-0.0786633
-0.109065
0.0374921
-0.151762
0.869356
0.0282251
-0.20596
-0.204194
-1.17462
1.31682
0.86983
-0.151042
0.0283829
0.0374433
0.0203483
0.0552405
-1.25411
0.0553076
1.41126
0.0201442
0.0361523
0.0185328
0.0182128
0.90856
0.0355107
0.0203689
-1.1941
0.0518526
-0.204502
1.3462
-0.181619
0.852821
-0.18333
0.971196
0.688593
0.688185
0.694886
-0.112428
-0.104287
-0.134428
-0.0909869
-0.179292
-0.169521
-0.200513
-0.157814
1.24862
0.340349
0.336404
0.33559
0.342463
-0.164634
-0.173447
-0.161007
-0.184465
1.18266
0.102445
0.698436
0.0391513
-0.517663
-0.213075
0.281302
0.0234317
0.209784
0.693116
0.102417
-0.144477
-0.513895
0.114727
0.166838
0.0411921
0.0338497
0.727075
0.0942473
0.0228947
-0.546777
0.0330554
0.87779
0.340501
0.335337
0.342284
0.335129
-0.0869145
-0.100218
-0.0844764
-0.115593
-1.56569
-0.762364
1.33877
1.32612
-0.741121
1.31681
-0.745844
2.73875
1.33199
1.39745
-1.32476
0.687788
-0.213078
-0.230179
-0.239651
0.686007
0.677509
0.674481
1.32988
-1.45887
2.72934
0.0394989
0.87197
-0.223062
0.302389
0.0237993
0.291961
-1.1746
-0.21408
-0.247598
0.326229
1.31218
-1.19564
0.0595022
-0.247268
0.321322
1.34642
0.0147797
0.239318
0.102152
-0.159057
0.868477
0.096072
-1.25435
0.0576016
1.41121
0.0181296
0.0907933
0.0237038
0.909006
0.0310167
0.280431
0.0929474
-1.19389
-0.206833
1.34569
-0.253896
-0.249136
-0.243053
1.00347
1.00973
0.993734
1.01577
-0.180094
-0.187466
-0.204175
-0.166368
1.28028
-0.434067
-0.4417
-0.445758
-0.438872
-0.18953
-0.179579
-0.210356
-0.176813
1.33373
5.18265
-1.16315
0.369088
-0.244583
0.325286
1.30202
0.124276
0.315589
0.861392
0.0970082
-1.14454
-0.511711
1.28455
-0.376307
-0.375079
-0.373453
-0.383622
1.0057
0.992062
1.0067
0.989312
0.0908533
-1.1867
0.358163
1.33423
-0.0419656
1.199
0.176008
0.113754
-1.03724
-0.10738
-0.194301
-1.18556
0.125764
1.33426
-0.185616
0.0378393
-1.0356
0.0287286
-1.21663
0.0536292
-0.131136
1.36947
0.020142
-1.05485
-0.115177
0.0277324
0.12923
-0.123489
1.35174
0.108414
-1.03003
0.230607
-0.868748
0.174182
-0.110816
1.03478
-0.168143
0.860589
-0.247637
-0.107353
0.311522
-0.186635
-0.241377
1.02238
0.310538
-0.18443
0.860186
-0.170221
-0.114418
1.02509
0.300521
-0.109936
-0.173652
1.02383
-0.168651
-0.846791
-0.304439
-0.0406481
1.01509
0.0565696
0.84982
0.0374447
0.0252998
0.306449
1.02686
-0.241696
0.0340254
0.307506
0.857273
-0.215497
1.01731
-0.229889
1.01604
0.0333983
1.15975
-0.36166
0.231676
-0.128046
-0.217078
-1.15828
1.3001
0.361678
-1.17272
-0.123999
-0.285761
1.32041
-0.225209
0.362985
-0.27431
-0.134575
1.3081
-0.12885
-0.275314
1.16262
-0.0667823
0.496856
-0.404355
-0.504618
-1.14774
1.29137
-0.502981
0.0811439
0.028791
0.0556542
-1.1638
-0.434371
0.0207613
1.30624
-0.424294
1.30618
-0.420175
0.0277807
1.16886
-0.321624
-0.0473205
0.0462864
0.33359
-0.257602
0.0277382
0.346192
-1.17264
-0.270116
1.31872
0.0571695
-1.17195
0.0202992
1.31516
1.30947
-0.24829
0.0289866
0.166001
0.518394
-0.0381101
-0.0805367
0.0101728
-0.521036
-0.0778951
0.69911
0.0398268
-0.515889
-0.136054
0.695533
0.0549992
-0.166106
0.0354138
-0.0725213
0.691547
-0.0966703
0.0407401
-0.038046
0.518588
0.16569
-0.080557
-0.16646
0.0556141
0.0352289
-0.521262
0.0101919
-0.0782035
0.699383
0.0390875
-0.135041
-0.516063
0.695855
-0.0963255
0.0400228
-0.0727163
0.691483
-0.0141927
-0.0133577
-0.168745
0.352686
0.165367
0.0470112
0.0357345
0.0122827
0.0129416
0.357532
0.0430487
0.0422035
0.165462
0.0478287
0.0351323
0.354322
0.0427113
0.35451
0.0432853