/*--------------------------------*- C++ -*----------------------------------*\
  =========                 |
  \\      /  F ield         | OpenFOAM: The Open Source CFD Toolbox
   \\    /   O peration     | Website:  https://openfoam.org
    \\  /    A nd           | Version:  9
     \\/     M anipulation  |
\*---------------------------------------------------------------------------*/
FoamFile
{
    format      ascii;
    class       volScalarField;
    location    "0.0018";
    object      rho;
}
// * * * * * * * * * * * * * * * * * * * * * * * * * * * * * * * * * * * * * //

dimensions      [1 -3 0 0 0 0 0];

internalField   nonuniform List<scalar> 
13191
(
0.0973205
0.341507
0.0926921
0.0892585
0.0891956
0.0957316
0.227281
0.0943817
0.15877
0.234789
0.192728
0.119781
0.400907
0.345887
0.564685
0.723713
0.0925221
0.0900952
0.0900373
0.0961189
0.0899704
0.0901004
0.0973815
0.113866
0.105447
0.10379
0.117212
0.195697
0.211621
0.122445
0.0936403
0.0898263
0.0899834
0.0904927
0.111253
0.0927863
0.101501
0.0902594
0.0903494
0.0892178
0.0900927
0.0914617
0.090198
0.0913286
0.214526
0.168149
0.153327
0.483105
0.392658
0.401201
0.464683
0.141061
0.120552
0.109128
0.265337
0.175121
0.138069
0.346627
0.286173
0.325437
0.230334
0.429468
0.444645
0.450839
0.449781
0.0891401
0.0901937
0.0901179
0.0899355
0.091367
0.089916
0.0912102
0.182621
0.614804
0.415741
0.424705
0.356331
0.589183
0.194706
0.111258
0.0944831
0.167495
0.1058
0.108903
0.0936266
0.115231
0.0972518
0.148287
0.130548
0.189771
0.116305
0.10366
0.126339
0.0908701
0.0928854
0.0940213
0.0939903
0.0944525
0.0909862
0.0926506
0.443594
0.291626
0.377468
0.529667
0.554141
0.234333
0.461914
0.667479
0.737683
0.647474
0.606183
0.673384
0.684658
0.611777
0.0911012
0.092907
0.101281
0.0943241
0.096724
0.0923795
0.092579
0.557558
0.505122
0.564989
0.614632
0.616638
0.522226
0.548824
0.213393
0.38517
0.105265
0.0952399
0.0894312
0.138519
0.3562
0.0993538
0.27233
0.426185
0.353001
0.289209
0.427451
0.414961
0.53721
0.536976
0.0909742
0.122726
0.0960558
0.130904
0.0985155
0.110742
0.167961
0.150497
0.214967
0.37544
0.241311
0.408008
0.43769
0.313914
0.393639
0.398923
0.425477
0.437998
0.460801
0.45508
0.438862
0.0904688
0.0912147
0.0902664
0.0918705
0.0908463
0.0940491
0.0929592
0.157641
0.128213
0.107331
0.132062
0.276904
0.165887
0.222752
0.430799
0.295391
0.41752
0.445169
0.385246
0.363651
0.443668
0.187755
0.155096
0.117094
0.139963
0.311463
0.188938
0.240252
0.346508
0.508826
0.471435
0.470092
0.420681
0.491484
0.383001
0.10022
0.0925373
0.0930047
0.101655
0.101819
0.115252
0.0956574
0.0940297
0.110001
0.0965438
0.104588
0.106498
0.124906
0.0968313
0.409777
0.4357
0.431324
0.452645
0.459099
0.456848
0.44642
0.486601
0.532613
0.495853
0.484113
0.528111
0.516986
0.483184
0.174029
0.322763
0.263862
0.337929
0.226824
0.213744
0.289513
0.462337
0.40666
0.423811
0.47653
0.480788
0.398437
0.458293
0.118703
0.115064
0.17823
0.118912
0.147709
0.1407
0.103238
0.480015
0.495424
0.513305
0.527587
0.510702
0.481652
0.485345
0.291622
0.327721
0.390284
0.399868
0.236026
0.310168
0.165018
0.0236611
0.0243413
0.0412773
0.0494395
0.0551041
0.127891
0.0679598
0.157556
0.152811
0.349838
0.253867
0.3203
0.189243
0.283151
0.363639
0.119747
0.26497
0.147093
0.323537
0.236819
0.26513
0.338094
0.0567005
0.227446
0.125049
0.243718
0.145035
0.222936
0.28352
0.331737
0.298344
0.248103
0.304589
0.348361
0.354577
0.316909
0.37547
0.364548
0.329652
0.343788
0.408515
0.385094
0.374491
0.293147
0.278111
0.214156
0.292684
0.334922
0.337623
0.309658
0.34133
0.368385
0.403413
0.361877
0.378444
0.370405
0.337969
0.0999058
0.110976
0.097777
0.106935
0.0992776
0.105644
0.0980254
0.100333
0.0970864
0.111497
0.221841
0.218144
0.102104
0.109017
0.0966877
0.0879524
0.0994208
0.100715
0.101105
0.0996864
0.101907
0.0996791
0.0989302
0.09948
0.099081
0.0997143
0.099879
0.09827
0.101546
0.0999781
0.11658
0.118336
0.157653
0.100933
0.104957
0.111472
0.181237
0.106021
0.107425
0.100907
0.105099
0.10412
0.107333
0.105441
0.104098
0.102571
0.100294
0.100585
0.10757
0.104576
0.103007
0.102871
0.100281
0.107279
0.101204
0.0991568
0.104247
0.102679
0.220322
0.24605
0.234354
0.136614
0.136435
0.126386
0.140103
0.0663555
0.0998674
0.0770416
0.0593025
0.0941
0.101082
0.0734861
0.0972462
0.097492
0.100008
0.103878
0.102925
0.0982451
0.10001
0.0963373
0.1003
0.100404
0.0978813
0.100214
0.0970381
0.100354
0.108118
0.10783
0.108749
0.108579
0.107902
0.10688
0.108044
0.120037
0.206769
0.199318
0.128119
0.124671
0.119707
0.108794
0.0980815
0.0988613
0.0971271
0.0986349
0.0970051
0.0981343
0.0999779
0.0964835
0.096858
0.0955455
0.0977393
0.0982256
0.0967252
0.099534
0.222363
0.139517
0.132369
0.251163
0.25052
0.141059
0.138396
0.0932755
0.0478822
0.0638194
0.0965519
0.0520329
0.0905588
0.0686377
0.0900539
0.114624
0.0972793
0.0904423
0.0918649
0.098321
0.0951078
0.0964948
0.0992884
0.10871
0.12289
0.048104
0.104673
0.109306
0.0931845
0.0866188
0.09864
0.0986851
0.0993001
0.0949932
0.0993322
0.0967969
0.0987451
0.103297
0.106613
0.10629
0.107991
0.10608
0.107022
0.107631
0.0968696
0.102342
0.100203
0.0943284
0.0984271
0.0969359
0.095319
0.0951698
0.0574472
0.0615479
0.090999
0.0546346
0.0925404
0.051482
0.092236
0.097924
0.0973914
0.0940967
0.0977499
0.0933314
0.0984921
0.10745
0.108046
0.108087
0.105859
0.107267
0.108907
0.108588
0.0998528
0.094297
0.0952928
0.09972
0.0940706
0.0956831
0.0993311
0.109315
0.107651
0.108184
0.109003
0.108544
0.109325
0.108605
0.0912325
0.0899546
0.0906862
0.0943318
0.0934341
0.0918265
0.0924288
0.0928971
0.0932517
0.0960347
0.0940714
0.0924582
0.0949112
0.0936692
0.0460275
0.0871457
0.0896384
0.0912989
0.05306
0.0897317
0.047544
0.0465005
0.0450713
0.0870313
0.0890224
0.0485033
0.0898014
0.0462956
0.109387
0.108509
0.10847
0.108262
0.107908
0.108257
0.109242
0.0919766
0.0986835
0.0917773
0.0979438
0.0928678
0.0928986
0.0986504
0.0906359
0.090205
0.0897333
0.0910552
0.0915679
0.0909851
0.0916388
0.116489
0.090237
0.0569366
0.0537237
0.0898421
0.0870456
0.0460423
0.0831858
0.15175
0.189389
0.166064
0.0249937
0.107623
0.0322201
0.0182192
0.180499
0.185426
0.112287
0.114568
0.0837706
0.0871712
0.158845
0.0213137
0.0496737
0.0292314
0.0510195
0.0335888
0.0354974
0.0207069
0.120188
0.0333516
0.0562378
0.0598698
0.0951931
0.127733
0.0379638
0.193352
0.109087
0.113855
0.0865185
0.170954
0.0822285
0.164483
0.046502
0.026767
0.0504214
0.0352417
0.0201233
0.0326607
0.0196843
0.0197954
0.0206957
0.0230786
0.0240333
0.0235338
0.0237738
0.0182275
0.0603256
0.119511
0.150796
0.0950904
0.0648723
0.135047
0.0510188
0.0250253
0.0892261
0.0300992
0.0429744
0.0302315
0.0374683
0.0200643
0.125122
0.283731
0.0849361
0.143844
0.0227869
0.0241079
0.0183806
0.0272721
0.0290583
0.0194265
0.0199328
0.0260742
0.0248621
0.0189371
0.0183278
0.0232682
0.0239592
0.0254383
0.0184784
0.0231099
0.0183413
0.0224748
0.0204285
0.0251626
0.0238633
0.0227749
0.0181269
0.018844
0.0273021
0.020861
0.0178396
0.0177808
0.0279814
0.018161
0.0194439
0.0426682
0.0466462
0.0405999
0.0240014
0.0232249
0.154589
0.0637225
0.053967
0.0378593
0.0243603
0.0190079
0.0242108
0.154292
0.0838795
0.0495588
0.0423026
0.0620294
0.021327
0.0277808
0.191866
0.0745047
0.102784
0.0545421
0.221676
0.226887
0.241777
0.14045
0.162985
0.123604
0.152857
0.284151
0.0955884
0.0964564
0.0924128
0.0886986
0.0896984
0.0892893
0.090882
0.395689
0.286119
0.160972
0.23646
0.143242
0.107408
0.0470249
0.0909461
0.0970675
0.0967889
0.0903747
0.096071
0.0904525
0.095583
0.107459
0.107345
0.107106
0.105994
0.10701
0.113917
0.10778
0.0895729
0.0888504
0.0891197
0.0889477
0.0885003
0.088579
0.089069
0.0542924
0.0899271
0.0871965
0.0906599
0.0589938
0.117086
0.125206
0.0912692
0.091019
0.0964535
0.0905409
0.102301
0.0911396
0.0957324
0.11423
0.108525
0.113674
0.143041
0.134165
0.234714
0.11351
0.089932
0.0901191
0.0944946
0.0901318
0.102607
0.0903668
0.0953856
0.115143
0.107376
0.115574
0.147624
0.139455
0.255261
0.113629
0.0904118
0.0895384
0.0890616
0.0889533
0.090401
0.0896267
0.0895852
0.216456
0.117813
0.113343
0.217102
0.326771
0.337519
0.237492
0.266443
0.128864
0.147844
0.233381
0.350474
0.360875
0.251818
0.0895035
0.0889584
0.08841
0.088623
0.0898935
0.0890836
0.0892519
0.0906168
0.118989
0.11788
0.105968
0.0949191
0.0948393
0.101945
0.239212
0.408326
0.201291
0.195942
0.357513
0.35
0.134974
0.0891576
0.0926293
0.0908704
0.0910581
0.0899869
0.0901778
0.089876
0.343203
0.378439
0.420126
0.369664
0.404914
0.395471
0.332578
0.81076
0.857101
0.829566
0.518026
0.496445
0.57281
0.917106
0.553683
0.897892
0.776407
0.556024
0.529969
0.71439
0.58272
0.848813
0.934543
0.500339
0.513811
0.517922
0.573375
0.577161
0.59453
0.590633
0.508275
0.534874
0.5253
0.592866
0.583859
0.600806
0.609294
0.542854
0.546303
0.604087
0.557777
0.616831
0.620169
0.632819
0.532028
0.557519
0.536301
0.614193
0.634325
0.637759
0.610341
0.552947
0.563882
0.543459
0.620056
0.651119
0.642902
0.62832
0.569885
0.581769
0.569536
0.648261
0.631306
0.64736
0.664115
0.815183
0.673016
0.677133
0.695554
0.832226
0.691892
0.835992
0.563556
0.592103
0.573723
0.662274
0.639282
0.651917
0.675132
0.821374
0.69147
0.683375
0.700849
0.849422
0.8412
0.708422
0.840884
0.701759
0.715001
0.862413
0.719213
0.733822
0.881231
0.618072
0.68465
0.596736
0.60262
0.584007
0.666154
0.691115
0.71836
0.860696
0.901438
0.743702
0.746934
0.714901
0.864271
0.723172
0.878279
0.759689
0.906685
0.751443
0.86928
0.730818
0.754596
0.94067
0.910151
0.879709
0.732303
0.752589
0.906568
0.893215
0.772792
0.742688
0.758518
0.959391
0.7903
0.914375
0.805995
0.983893
1.04619
0.778503
0.99481
0.814099
0.943078
0.112203
0.0995636
0.121665
0.102155
0.11815
0.110734
0.108507
0.103332
0.114254
0.108757
0.117151
0.112922
0.109272
0.113047
0.117835
0.109787
0.104351
0.0999091
0.0993773
0.105647
0.101462
0.108
0.115409
0.120295
0.115699
0.123303
0.117318
0.11643
0.121461
0.111529
0.100895
0.111807
0.102395
0.114902
0.101962
0.110749
0.114229
0.119381
0.112804
0.115077
0.122949
0.117017
0.120885
0.107254
0.115336
0.111239
0.113736
0.112597
0.108889
0.117407
0.109282
0.0994158
0.0999968
0.111323
0.102211
0.114643
0.101779
0.106404
0.0996624
0.0990372
0.109529
0.0992783
0.105119
0.101215
0.106
0.102184
0.105306
0.102347
0.105892
0.102469
0.10533
0.107912
0.108991
0.105358
0.109715
0.10597
0.110623
0.106772
0.106337
0.108495
0.107537
0.110194
0.109029
0.107344
0.106024
0.102177
0.099533
0.100919
0.102187
0.0999914
0.103273
0.101068
0.101636
0.0992727
0.100425
0.0998131
0.0995589
0.10157
0.100585
0.103037
0.104289
0.101493
0.100485
0.100633
0.104112
0.102891
0.118494
0.116977
0.115298
0.117806
0.118338
0.116424
0.118146
0.118583
0.118094
0.117116
0.115534
0.118256
0.116533
0.118609
0.12185
0.123461
0.122341
0.123428
0.121875
0.121852
0.124088
0.119032
0.117248
0.117261
0.119028
0.118914
0.117066
0.118901
0.109566
0.113402
0.108241
0.11164
0.108306
0.113077
0.109495
0.10567
0.101642
0.101806
0.103735
0.104716
0.102328
0.104651
0.109642
0.10846
0.113549
0.111872
0.109601
0.113179
0.108493
0.106516
0.102489
0.106744
0.10248
0.106565
0.106548
0.102636
0.110545
0.114566
0.114589
0.111179
0.11078
0.11427
0.110756
0.105943
0.105134
0.102071
0.102281
0.105211
0.105818
0.102423
0.10946
0.111323
0.107683
0.111382
0.108288
0.112217
0.108296
0.116796
0.112795
0.115293
0.115203
0.115797
0.116516
0.114703
0.117588
0.114163
0.116674
0.117365
0.117848
0.117314
0.11551
0.12072
0.122245
0.121952
0.122997
0.120819
0.121506
0.122999
0.118186
0.116413
0.11698
0.118714
0.118113
0.118636
0.116226
0.108132
0.109424
0.106165
0.111766
0.106187
0.108082
0.111506
0.104231
0.101959
0.0997973
0.10049
0.102613
0.103328
0.100949
0.104568
0.103097
0.100019
0.101025
0.103088
0.10451
0.101096
0.108865
0.110858
0.11313
0.108048
0.109266
0.112286
0.107608
0.105872
0.101846
0.106542
0.102314
0.105892
0.106366
0.101996
0.109845
0.113752
0.114302
0.110954
0.110033
0.110532
0.113464
0.105265
0.101361
0.104948
0.102098
0.105619
0.104492
0.101749
0.101456
0.101368
0.0989688
0.100001
0.100765
0.102291
0.0994623
0.105373
0.109401
0.108199
0.107287
0.105738
0.108268
0.106444
0.101219
0.0991806
0.100241
0.0995927
0.101324
0.100414
0.0992084
0.102289
0.100718
0.10405
0.100212
0.102625
0.103339
0.0999238
0.347944
0.348418
0.238306
0.143067
0.458104
0.435789
0.508694
0.468223
0.163702
0.237194
0.254389
0.287045
0.305053
0.351392
0.343244
0.197512
0.300189
0.277637
0.342889
0.326223
0.357328
0.360849
0.205176
0.319728
0.0796376
0.301233
0.106443
0.0390074
0.0182095
0.0184146
0.0186142
0.0263578
0.0256845
0.0245291
0.0240311
0.0194476
0.0191485
0.0190047
0.0232914
0.0246045
0.0262235
0.0236774
0.0211319
0.0293609
0.0460188
0.0197606
0.019242
0.0331802
0.10159
0.119127
0.0287076
0.0630421
0.0254598
0.026778
0.0330327
0.0961892
0.119231
0.0282512
0.0658038
0.0216485
0.0288142
0.0471687
0.197016
0.152408
0.0807071
0.12654
0.0716242
0.0345272
0.0511837
0.247343
0.172345
0.101862
0.0989018
0.305462
0.198905
0.207514
0.216318
0.222997
0.0840501
0.132834
0.290129
0.311377
0.275415
0.248744
0.247757
0.186547
0.315036
0.347273
0.319414
0.3698
0.390104
0.389645
0.367628
0.382063
0.442948
0.391083
0.404324
0.451474
0.457861
0.397484
0.324055
0.351316
0.329013
0.37292
0.395237
0.391183
0.376048
0.402817
0.450712
0.398124
0.410386
0.472864
0.46468
0.414686
0.160371
0.0698114
0.0498184
0.348499
0.0304702
0.387766
0.444004
0.414795
0.0288525
0.0261566
0.0270428
0.0847788
0.0897359
0.109232
0.101214
0.0355179
0.0351036
0.0292717
0.132626
0.101903
0.131887
0.181132
0.0816079
0.0419934
0.0376836
0.158023
0.213125
0.233586
0.142892
0.111893
0.0887845
0.0560782
0.194479
0.300664
0.266229
0.242637
0.216444
0.356652
0.225635
0.259978
0.375523
0.248842
0.380446
0.286806
0.371623
0.246517
0.288052
0.404725
0.390941
0.331334
0.313125
0.350847
0.396565
0.420701
0.364664
0.299459
0.400641
0.341631
0.391173
0.424534
0.432434
0.380256
0.410612
0.370145
0.0196016
0.0221641
0.0190723
0.0435238
0.0389857
0.030189
0.0189062
0.020229
0.0398784
0.0219169
0.0218736
0.0213435
0.0372728
0.0359908
0.0214109
0.0326263
0.0362124
0.0202432
0.0207224
0.0214166
0.0209126
0.0333777
0.0198132
0.0296695
0.0286616
0.020579
0.0333896
0.0322803
0.0207146
0.0188052
0.0186152
0.0187041
0.0183552
0.0183088
0.018128
0.0181716
0.0183459
0.0253299
0.027005
0.027599
0.0194743
0.0201328
0.030035
0.0191924
0.0191127
0.0188733
0.0178576
0.0179547
0.0181576
0.0179915
0.0235139
0.0195971
0.0192655
0.0177214
0.0176426
0.0178627
0.0179322
0.0284397
0.0240673
0.0207215
0.0181412
0.0194682
0.0177914
0.0177534
0.0928823
0.0927594
0.0965495
0.0948088
0.113655
0.102064
0.104992
0.0982525
0.0969557
0.0954077
0.0940879
0.0955381
0.0939578
0.0974194
0.0959798
0.109706
0.114449
0.110911
0.104552
0.108715
0.105203
0.107811
0.106944
0.0984511
0.098798
0.100835
0.0955263
0.101613
0.0972098
0.101099
0.103365
0.0982588
0.0987235
0.099076
0.0997995
0.0974104
0.10281
0.107298
0.104655
0.105134
0.102612
0.105604
0.10447
0.0995607
0.100622
0.0986749
0.0976736
0.0994447
0.0974975
0.100936
0.0997492
0.101476
0.0987812
0.0973348
0.0996013
0.0974967
0.101322
0.0982419
0.0962856
0.0966065
0.095795
0.0979887
0.0970219
0.0963943
0.093423
0.0964308
0.0958801
0.0952792
0.0974553
0.0962288
0.0968495
0.100025
0.106916
0.104199
0.111008
0.107657
0.10284
0.105434
0.0973141
0.094813
0.0952778
0.0993123
0.102692
0.0999087
0.101812
0.0948054
0.0920304
0.0935298
0.0970427
0.0956691
0.0977721
0.0997166
0.0902774
0.106207
0.0912278
0.0926952
0.0918535
0.0885854
0.093581
0.0888426
0.0938348
0.102253
0.090659
0.0481397
0.120322
0.104231
0.194669
0.0742176
0.0918925
0.094853
0.0942919
0.0905086
0.0936632
0.0903841
0.0942345
0.101064
0.104486
0.104027
0.104043
0.101824
0.102824
0.103538
0.0915057
0.0962379
0.0953819
0.0903441
0.0955999
0.0903843
0.0948378
0.103951
0.106978
0.105528
0.105698
0.105342
0.10489
0.104267
0.0932412
0.0915255
0.0918461
0.0895928
0.0908511
0.0897671
0.0905195
0.0914453
0.0560033
0.0540885
0.088243
0.0515315
0.0887005
0.0501381
0.0934989
0.0900572
0.0899629
0.0900907
0.0936107
0.0899869
0.0941484
0.103058
0.101469
0.101036
0.102501
0.101976
0.102719
0.102219
0.0914433
0.0897039
0.0905777
0.0892901
0.0887128
0.0890741
0.0897802
0.089115
0.0898732
0.0514475
0.0870833
0.0487608
0.0873529
0.0482159
0.0939998
0.090023
0.0899884
0.0900438
0.094976
0.0899966
0.0946728
0.0897096
0.0898791
0.0889066
0.0888436
0.0899475
0.088944
0.0897294
0.108344
0.107634
0.10297
0.103963
0.106865
0.103328
0.10374
0.0677139
0.0920052
0.0897777
0.0861642
0.0500067
0.0863436
0.0493608
0.0886147
0.0893274
0.0893707
0.0889841
0.0884159
0.0885315
0.0892342
0.113027
0.156236
0.104124
0.0928643
0.0718268
0.087485
0.0517465
0.104581
0.0988762
0.0939446
0.0528406
0.0957226
0.101686
0.0946745
0.095017
0.103499
0.10026
0.103896
0.0968886
0.104213
0.0984618
0.102693
0.0958917
0.0969513
0.0930381
0.101181
0.0936462
0.096487
0.0986938
0.100192
0.0973686
0.104865
0.10418
0.101396
0.103177
0.0989041
0.0930869
0.0758629
0.0766742
0.0965643
0.0757702
0.096231
0.0733798
0.0935431
0.0960157
0.0939849
0.0954255
0.0950561
0.0943374
0.0936193
0.0940173
0.0961606
0.0937902
0.0947142
0.0949278
0.0934699
0.0940194
0.0928285
0.0913131
0.0935341
0.094736
0.092145
0.0950294
0.0919019
0.0935819
0.0939428
0.0941482
0.0942197
0.0941145
0.0932566
0.0944572
0.102334
0.106285
0.104958
0.10338
0.105569
0.104361
0.100679
0.0966283
0.0965635
0.0634604
0.0681667
0.0731541
0.0962667
0.0690764
0.0950552
0.0636962
0.0611056
0.0962016
0.0708438
0.0968845
0.0679737
0.09075
0.0922589
0.0571219
0.0928374
0.0580646
0.0947208
0.0632721
0.41533
0.435781
0.488634
0.418717
0.49389
0.438576
0.474274
0.42364
0.449452
0.489529
0.500465
0.443492
0.481052
0.429588
0.35691
0.415793
0.471393
0.401441
0.518921
0.498976
0.443578
0.442073
0.795336
0.800325
0.798904
0.800568
0.455477
0.79587
0.81685
0.501019
0.480821
0.790863
0.801583
0.396367
0.338844
0.315468
0.436768
0.46704
0.54369
0.516532
0.710768
0.671854
0.481344
0.461757
0.804353
0.495582
0.85637
0.827224
0.888134
0.542482
0.514022
0.807159
0.514708
0.858593
0.278215
0.307914
0.351958
0.326887
0.359123
0.364446
0.371105
0.422454
0.438397
0.444467
0.50855
0.514463
0.527973
0.522187
0.393857
0.408306
0.400857
0.499977
0.494769
0.499875
0.505618
0.504858
0.409009
0.400679
0.3932
0.400689
0.494062
0.498973
0.528095
0.513978
0.423153
0.434501
0.414271
0.507648
0.521322
0.422075
0.434781
0.414412
0.508493
0.52806
0.514621
0.521848
0.437114
0.470761
0.45739
0.537917
0.524073
0.53817
0.550804
0.335432
0.366408
0.344153
0.400384
0.379812
0.387033
0.407765
0.324396
0.353446
0.338556
0.381397
0.368611
0.381142
0.393849
0.463027
0.483574
0.466911
0.545052
0.557578
0.561425
0.540119
0.464539
0.546059
0.457107
0.47512
0.539243
0.558279
0.564527
0.45672
0.477619
0.474
0.544044
0.538947
0.557064
0.56062
0.483227
0.485882
0.498224
0.552581
0.563356
0.567364
0.577047
0.485214
0.490758
0.475496
0.553759
0.577652
0.568408
0.564036
0.407595
0.476987
0.41385
0.481514
0.419048
0.426165
0.490316
0.191351
0.30784
0.216601
0.0565453
0.404674
0.490224
0.454185
0.457859
0.10939
0.0884826
0.19326
0.158349
0.241452
0.261204
0.297863
0.147595
0.270441
0.215749
0.331984
0.29058
0.330891
0.348625
0.270161
0.296928
0.234986
0.350136
0.318731
0.33857
0.356939
0.337411
0.421815
0.367855
0.424929
0.372627
0.38672
0.439653
0.27714
0.327028
0.31473
0.350329
0.371179
0.35885
0.363298
0.398345
0.439845
0.386854
0.396494
0.46458
0.404823
0.452365
0.402676
0.442628
0.389135
0.397242
0.468044
0.409729
0.452781
0.405428
0.426282
0.476471
0.479547
0.413488
0.417344
0.464602
0.379518
0.372638
0.356234
0.396986
0.430559
0.41663
0.409421
0.497541
0.527994
0.51285
0.589341
0.575484
0.58918
0.602735
0.499283
0.513412
0.493333
0.577003
0.601718
0.596761
0.582482
0.423388
0.487925
0.500919
0.436514
0.511757
0.500652
0.448048
0.515157
0.512178
0.492094
0.575521
0.597901
0.578276
0.595405
0.455134
0.497793
0.435156
0.44237
0.523569
0.461824
0.50576
0.503575
0.522159
0.532349
0.603102
0.584135
0.592873
0.610921
0.629562
0.796403
0.627353
0.630398
0.798072
0.633396
0.798311
0.633896
0.644314
0.799119
0.798496
0.637728
0.639972
0.798343
0.798284
0.629422
0.632074
0.79708
0.626921
0.6294
0.798256
0.79859
0.64377
0.636147
0.632814
0.798442
0.639405
0.797826
0.631222
0.794921
0.63609
0.64052
0.786609
0.635201
0.791663
0.134809
0.0311635
0.326309
0.0252744
0.326979
0.377416
0.375218
0.0510222
0.0286568
0.342799
0.0431746
0.414258
0.392772
0.0679016
0.453732
0.449968
0.0258672
0.025065
0.0254407
0.0786524
0.0779353
0.0817496
0.0753038
0.0332513
0.0251633
0.0257894
0.0787159
0.0792776
0.0754823
0.0834176
0.0297774
0.0273226
0.0266352
0.0864198
0.111062
0.0907114
0.103537
0.0312063
0.0406341
0.027454
0.0865501
0.113358
0.104288
0.0927283
0.0391361
0.0801522
0.0695953
0.158287
0.144333
0.208412
0.227302
0.0409058
0.102364
0.0720256
0.158695
0.144942
0.207165
0.224629
0.199678
0.199743
0.314803
0.336509
0.207778
0.325574
0.191372
0.201599
0.315307
0.339218
0.201571
0.327008
0.192668
0.210761
0.357537
0.26008
0.227657
0.218124
0.369553
0.248638
0.347244
0.21681
0.258732
0.355507
0.36883
0.22601
0.247064
0.34614
0.219521
0.15538
0.241883
0.274284
0.340421
0.294536
0.32777
0.292374
0.241912
0.165548
0.134924
0.217856
0.273679
0.327962
0.395609
0.355719
0.309434
0.38838
0.295851
0.341999
0.406374
0.308608
0.38763
0.295127
0.341791
0.411467
0.354496
0.405457
0.127931
0.0366881
0.142628
0.0731424
0.0404796
0.035511
0.0183954
0.0182885
0.0511716
0.0965287
0.149221
0.0559605
0.0741342
0.0369074
0.115941
0.0400722
0.0219295
0.02219
0.0243054
0.0410395
0.042568
0.022624
0.174554
0.0655088
0.164528
0.105858
0.0922
0.0767623
0.130781
0.03871
0.0217229
0.0220682
0.0268063
0.0465047
0.0445706
0.0300723
0.0330159
0.0651192
0.0498255
0.0199584
0.0249768
0.0219301
0.0830486
0.0185768
0.0183683
0.0185867
0.0193684
0.0186294
0.018746
0.0187908
0.110606
0.0420926
0.0624314
0.0293687
0.0503148
0.0252864
0.0982496
0.0183275
0.0187047
0.0190009
0.0203158
0.0197691
0.0216798
0.0191473
0.370415
0.394155
0.433419
0.445589
0.37995
0.385611
0.4279
0.436782
0.397202
0.382288
0.37096
0.446604
0.386257
0.428902
0.105219
0.0989382
0.141495
0.211354
0.0964339
0.0987792
0.0923465
0.0970864
0.0942343
0.0977742
0.131908
0.0966761
0.0983792
0.103759
0.11367
0.0925181
0.0967647
0.0950156
0.0984441
0.0988974
0.0901062
0.113526
0.0923649
0.105715
0.172545
0.0731322
0.0904281
0.0904964
0.137715
0.102198
0.210548
0.197843
0.12438
0.113454
0.106602
0.171587
0.0970324
0.0943286
0.0917249
0.0928126
0.0982326
0.0986716
0.0898983
0.0963704
0.102932
0.0978834
0.0942368
0.0970709
0.0981417
0.100636
0.0918544
0.075953
0.0763188
0.0924572
0.0725949
0.0904441
0.0770835
0.0949125
0.0719353
0.0751075
0.0937908
0.0790194
0.0989229
0.0785534
0.0958278
0.0989199
0.0955332
0.0988239
0.0956303
0.0990036
0.095497
0.0948704
0.0969205
0.0950522
0.0975666
0.0945796
0.097697
0.0951616
0.0950739
0.0923871
0.0965357
0.0960894
0.0935981
0.0993839
0.0929019
0.0963357
0.0986302
0.0974122
0.0985083
0.100565
0.096576
0.0951415
0.0957956
0.0964817
0.0968639
0.096714
0.0960846
0.0953249
0.097341
0.0959163
0.0959725
0.0984065
0.0976208
0.0973255
0.0957615
0.0959095
0.0925422
0.0933709
0.0914267
0.0925304
0.0931604
0.0913126
0.0925375
0.0954789
0.0977866
0.0983045
0.0953375
0.0954292
0.0987196
0.0947289
0.092583
0.0923329
0.0903998
0.097379
0.0924756
0.0910967
0.0933433
0.0955656
0.0987496
0.0987439
0.0945264
0.0951058
0.0990602
0.095043
0.0958281
0.095973
0.0990817
0.0987909
0.0961837
0.0989913
0.0955313
0.0924435
0.0907823
0.0906903
0.0910604
0.091846
0.0910942
0.0917842
0.0922061
0.0990084
0.100023
0.107458
0.093199
0.0953653
0.0975635
0.0964251
0.0905226
0.0909445
0.0971363
0.0950068
0.0998967
0.0887803
0.104098
0.126653
0.0927613
0.115021
0.0966054
0.0966114
0.141951
0.0925392
0.0841458
0.0843476
0.0745208
0.0883879
0.0896715
0.0858021
0.0915793
0.0909474
0.090537
0.0893529
0.0902402
0.0914056
0.0894848
0.0946883
0.0971895
0.0942432
0.0976143
0.0944864
0.0977837
0.0943928
0.091531
0.0927303
0.0930317
0.0934511
0.0918401
0.0923358
0.0921907
0.0919969
0.0920372
0.0923325
0.0909295
0.0924601
0.0916017
0.0913409
0.0924112
0.0931583
0.0933355
0.0916017
0.0923761
0.0934145
0.0917454
0.0948522
0.0980953
0.0985486
0.0943236
0.098394
0.0944209
0.0948282
0.0951579
0.0983983
0.0956955
0.0985783
0.0983118
0.0952763
0.0955481
0.0919185
0.0903409
0.0906433
0.0909137
0.0912891
0.0916221
0.0909817
0.095149
0.0966563
0.0945615
0.0972612
0.0954364
0.0968651
0.0947395
0.0944529
0.0947318
0.0928182
0.0961473
0.0939479
0.0931971
0.0964592
0.0960371
0.0974131
0.0970401
0.0972831
0.0959617
0.0968765
0.0973175
0.0960577
0.0979495
0.0958076
0.0974477
0.0959044
0.0972383
0.0956101
0.089761
0.0923331
0.0899811
0.0906193
0.0901068
0.0890851
0.0913902
0.0898509
0.0928983
0.0909163
0.0898485
0.0888645
0.091671
0.0902404
0.0849242
0.0721033
0.0844051
0.0718939
0.0849848
0.0846525
0.0706128
0.0905707
0.0908975
0.0910964
0.0897574
0.0901714
0.0900996
0.0915512
0.649784
0.797832
0.641622
0.648063
0.803607
0.79727
0.65746
0.528396
0.545251
0.557869
0.604474
0.634253
0.617342
0.621843
0.649604
0.801024
0.65706
0.788214
0.66185
0.644371
0.79351
0.819461
0.655508
0.806804
0.803001
0.650164
0.665827
0.814226
0.653819
0.802209
0.649852
0.664535
0.814734
0.667689
0.812721
0.657479
0.80817
0.678179
0.808576
0.669183
0.800353
0.667026
0.451271
0.482164
0.525408
0.531666
0.469963
0.51454
0.462997
0.659754
0.811386
0.667931
0.818021
0.673125
0.680607
0.823004
0.69035
0.837708
0.861095
0.684976
0.856739
0.70621
0.832693
0.683342
0.855107
0.832398
0.706679
0.685635
0.704753
0.830887
0.688588
0.817996
0.677565
0.689875
0.840886
0.701046
0.830336
0.834986
0.710106
0.68982
0.696017
0.863409
0.715684
0.839606
0.705089
0.860604
0.737642
0.872939
0.716875
0.724909
0.847885
1.07881
1.34847
2.42772
1.91176
1.89949
1.34129
1.07263
2.42337
1.01764
1.3499
1.02002
1.02946
1.02558
1.35894
1.36276
1.01555
1.34585
1.0161
1.02349
1.02354
1.35549
1.35283
1.04892
1.07424
1.04438
1.38964
1.44798
1.39527
1.44157
1.07218
1.04238
1.04214
1.38597
1.43764
1.38474
1.43809
1.91158
2.37011
2.36673
1.92629
2.37405
1.92805
2.37596
1.90834
2.36018
2.36879
1.92227
2.36756
1.91573
2.37453
1.96278
2.02189
2.39533
2.42909
1.9658
2.01897
2.39642
1.95862
2.42823
2.38951
2.01156
1.95422
2.0153
2.39506
1.96374
2.45881
1.39746
1.11546
1.88831
1.33486
1.07465
2.42154
2.35116
1.19533
2.33224
1.35107
1.89238
0.994564
1.33772
2.37143
1.00678
1.87365
1.32516
1.02458
1.91515
2.42077
2.40275
1.01687
1.90117
1.34363
1.92913
1.00946
1.36741
2.48258
1.15623
2.47701
1.12787
1.26537
2.52018
2.48073
1.43914
2.00778
2.49549
1.18305
1.01045
0.995255
1.00025
1.33119
1.31712
1.31099
1.33568
1.02456
1.02355
1.02454
1.36478
1.36463
1.36477
1.36399
1.02141
1.01927
1.02314
1.34911
1.35979
1.36131
1.35198
1.01789
1.35001
1.01825
1.02121
1.02195
1.35914
1.35728
1.00882
1.33388
1.0124
1.01185
1.00465
1.321
1.33585
1.0158
1.34922
1.01713
1.01859
1.02127
1.35679
1.34957
0.999986
0.990679
0.996019
1.30747
1.30532
1.31252
1.30068
1.01642
1.32505
1.0095
1.00717
1.00216
1.31476
1.3226
1.01486
1.33622
1.01473
1.02422
1.02723
1.35238
1.3572
1.04803
1.36168
1.02923
1.34222
1.0193
1.03467
1.3714
1.01442
1.03629
1.04073
1.3295
1.33688
1.38266
1.37555
1.04389
1.08087
1.04851
1.44189
1.3872
1.39634
1.45482
1.03185
1.02149
1.05879
1.0474
1.34862
1.39507
1.41669
1.52138
1.44917
1.07593
1.09394
1.05874
1.41627
1.48055
1.07031
1.39662
1.04742
1.07723
1.10423
1.45107
1.5011
1.07482
1.13236
1.07918
1.45076
1.5398
1.54699
1.44366
1.14786
1.58151
1.49893
1.10268
1.14192
1.57096
1.66687
1.09923
1.14033
1.08617
1.46443
1.59235
1.56255
1.48954
1.12096
1.2231
1.15285
1.64084
1.53014
1.58947
1.71165
1.88651
1.86391
2.34217
2.3715
1.85654
2.34371
1.89191
1.94396
2.42902
1.94772
1.94394
2.41056
1.93852
2.42074
2.42357
1.91763
1.93943
1.93884
2.40084
1.92015
2.41887
1.85243
2.33437
1.85407
2.32865
1.86242
1.84389
2.33097
1.88491
2.34081
2.35156
1.86741
2.36174
2.34135
1.88861
1.91147
2.37926
2.37262
1.93012
2.3908
1.92428
2.40107
1.91238
2.36742
2.37867
1.92694
2.38585
1.91213
2.40081
1.36987
1.28227
1.19865
1.67223
1.93135
1.78377
1.80863
1.89053
2.34708
2.35103
2.36196
1.91257
1.91766
2.36373
1.87517
2.34825
2.33916
1.86146
2.33874
1.87383
2.33335
1.92235
1.89799
2.36633
2.39318
2.35179
1.93429
2.37379
2.35252
1.88716
1.89478
1.94953
2.38617
1.94376
2.38668
2.38664
2.01325
1.95452
1.96321
2.42724
2.02482
2.39161
2.37044
2.35802
1.90753
1.96122
2.40468
2.39205
1.98332
2.09061
2.01888
2.42541
1.98434
2.44042
2.05055
2.40521
1.96206
2.39186
2.41936
2.42476
2.0192
2.06973
2.44927
2.03452
2.44361
2.15489
2.47564
2.13005
2.43403
2.05812
2.0232
2.43166
2.47455
2.11581
2.11889
2.01891
2.43076
2.14626
2.06857
2.44931
2.1362
2.5039
2.21986
2.47673
2.4604
2.19653
2.09714
2.15219
2.51074
2.25519
2.48198
2.22395
2.41583
2.52147
2.52223
2.31173
2.32944
2.50441
1.08563
1.11539
1.37609
2.44259
2.39536
1.35157
2.43021
1.91228
1.0229
1.35857
1.02867
1.03487
1.04315
1.36952
1.38264
1.09698
1.05534
1.06511
1.45968
1.40515
1.42239
1.48045
1.03951
1.40572
1.05556
1.07467
1.05621
1.40583
1.441
1.14216
1.10256
1.08046
1.45052
1.56328
1.49199
1.51408
1.91967
2.36433
2.36601
2.3745
1.9337
1.94717
2.38065
2.41702
1.97219
2.00875
1.93924
2.37566
1.97185
2.39505
2.03062
2.39783
1.9738
1.9903
2.43818
2.04938
2.40641
2.05948
2.12599
2.47002
2.01841
2.45194
2.08091
2.42221
1.92688
2.38123
1.02538
1.35875
1.34742
1.02129
1.9067
2.40115
1.01845
1.34855
1.02111
1.01899
1.01859
1.35167
1.34761
1.02204
1.01808
1.01845
1.35921
1.35129
1.35737
1.35026
1.35915
1.0292
1.01782
1.02022
1.34878
1.35029
1.36305
1.02865
1.38272
1.04254
1.03447
1.02302
1.35191
1.36977
1.9079
2.36478
2.36165
2.37515
1.91316
1.90691
2.36495
1.93021
2.37942
2.39089
1.91539
1.92437
1.91177
2.37287
2.37647
2.37476
1.92885
2.3704
1.91218
1.91213
2.36718
2.37523
1.93452
1.94782
1.91997
2.36625
1.91276
2.36473
2.26581
1.225
1.225
1.225
1.225
2.58209
1.56152
1.23566
2.67215
1.76494
1.67857
1.22515
2.55051
2.62615
2.63752
2.68656
2.6946
2.47415
2.40781
2.62612
2.54913
2.60304
2.6949
2.70168
2.2919
2.10982
1.23988
1.22513
1.225
1.22501
1.225
1.225
1.225
1.225
1.225
1.225
1.71849
1.23208
2.11978
2.69127
2.69635
1.25532
1.55002
2.33666
1.22503
1.225
1.225
1.225
2.53515