/*--------------------------------*- C++ -*----------------------------------*\
  =========                 |
  \\      /  F ield         | OpenFOAM: The Open Source CFD Toolbox
   \\    /   O peration     | Website:  https://openfoam.org
    \\  /    A nd           | Version:  9
     \\/     M anipulation  |
\*---------------------------------------------------------------------------*/
FoamFile
{
    format      ascii;
    class       volScalarField;
    location    "0.0018";
    object      rho.c4;
}
// * * * * * * * * * * * * * * * * * * * * * * * * * * * * * * * * * * * * * //

dimensions      [1 -3 0 0 0 0 0];

internalField   nonuniform List<scalar> 
13191
(
0.146445
0.505953
0.139216
0.135366
0.135025
0.148273
0.349757
0.145592
0.242612
0.341343
0.283719
0.175932
0.617949
0.523363
0.973786
1.11044
0.138907
0.136048
0.135909
0.145038
0.136549
0.136683
0.147009
0.167191
0.156821
0.154311
0.175033
0.2882
0.312087
0.182921
0.140741
0.135904
0.135977
0.137474
0.168328
0.14119
0.153362
0.136758
0.136845
0.135009
0.137057
0.139188
0.137151
0.139049
0.310947
0.245294
0.223474
0.706343
0.574517
0.589414
0.684996
0.207302
0.179556
0.162368
0.392555
0.262286
0.206435
0.51646
0.418546
0.478571
0.336674
0.636467
0.686038
0.679089
0.674509
0.135033
0.136898
0.136634
0.136945
0.13944
0.137123
0.138996
0.274017
0.926968
0.617146
0.633216
0.540633
0.894772
0.292468
0.16888
0.144314
0.256142
0.162723
0.167602
0.142931
0.174981
0.148708
0.225855
0.201662
0.290807
0.179216
0.158814
0.192041
0.139104
0.14222
0.145118
0.14488
0.145677
0.139206
0.141936
0.666796
0.441166
0.576281
0.836037
0.854099
0.352847
0.703786
0.99561
1.11559
0.958689
0.906119
1.05434
1.05214
0.926494
0.139619
0.142753
0.156767
0.145775
0.149376
0.14184
0.141988
0.849899
0.823552
0.93822
1.00115
0.97744
0.821381
0.856468
0.326192
0.586619
0.158681
0.146294
0.135861
0.219163
0.582904
0.154372
0.422135
0.789716
0.542314
0.428201
0.752018
0.649634
1.30526
0.992151
0.137894
0.18546
0.145973
0.198495
0.150245
0.169404
0.255657
0.224594
0.322104
0.563076
0.362953
0.6158
0.676066
0.476646
0.587258
0.637001
0.653873
0.706434
0.715313
0.741531
0.753008
0.137544
0.139017
0.137472
0.140514
0.138848
0.14418
0.142606
0.239197
0.196497
0.163685
0.202934
0.429394
0.256688
0.341481
0.68745
0.446588
0.640869
0.714213
0.609379
0.560846
0.75275
0.287093
0.240553
0.179886
0.215921
0.488118
0.294918
0.369971
0.529356
0.832248
0.735015
0.760497
0.675034
0.846193
0.594329
0.15386
0.141507
0.142129
0.156484
0.157646
0.178405
0.147332
0.144859
0.170826
0.148631
0.161614
0.166192
0.194911
0.14971
0.699218
0.756244
0.697263
0.789375
0.933497
0.867395
0.828629
0.839345
0.938957
0.816098
0.849123
1.06008
0.983027
0.896612
0.270256
0.511414
0.4214
0.538729
0.357387
0.33515
0.450842
0.789459
0.672419
0.706156
0.958067
0.887168
0.633868
0.841199
0.184374
0.179884
0.282592
0.186659
0.23205
0.220096
0.160379
0.913298
1.10475
1.1766
1.16382
1.0628
1.00621
0.983556
0.432601
0.508394
0.777026
0.690556
0.347133
0.494991
0.24136
0.0344511
0.035319
0.0598808
0.0717411
0.0801018
0.185762
0.0988176
0.230185
0.222369
0.535427
0.374476
0.481413
0.277362
0.422234
0.565315
0.173816
0.393367
0.214647
0.491138
0.348413
0.393856
0.52015
0.0825331
0.337908
0.182614
0.363887
0.212275
0.330686
0.434721
0.540133
0.461661
0.370432
0.46714
0.59797
0.573035
0.510255
0.604723
0.584636
0.501556
0.530534
0.717398
0.630634
0.610005
0.44633
0.424789
0.316896
0.446118
0.567353
0.538292
0.49495
0.546515
0.676806
0.741587
0.661085
0.647485
0.629619
0.575168
0.149531
0.163075
0.145825
0.160101
0.147369
0.158459
0.147013
0.149943
0.145083
0.16382
0.290569
0.28781
0.150335
0.160298
0.139041
0.126991
0.148425
0.149355
0.150843
0.148193
0.152233
0.147995
0.147532
0.14789
0.147999
0.148298
0.148347
0.146798
0.151771
0.148508
0.168898
0.173452
0.226964
0.148685
0.154255
0.161791
0.259652
0.153901
0.155773
0.148696
0.154491
0.153088
0.155624
0.153122
0.155704
0.153515
0.149959
0.150558
0.16124
0.156609
0.154332
0.154146
0.150192
0.160898
0.151749
0.14853
0.156204
0.153934
0.28847
0.33902
0.32555
0.194738
0.190708
0.180737
0.194235
0.0953698
0.143612
0.110401
0.0853346
0.135381
0.145327
0.10514
0.145111
0.145604
0.148514
0.154095
0.152625
0.146673
0.148468
0.144001
0.149044
0.149174
0.146212
0.148845
0.144971
0.149049
0.15896
0.156511
0.157819
0.157433
0.15858
0.157085
0.15666
0.173948
0.295648
0.284807
0.187705
0.182609
0.173345
0.15982
0.146659
0.148054
0.145315
0.147835
0.145253
0.146886
0.149787
0.144561
0.145313
0.143203
0.146383
0.147287
0.144894
0.149214
0.293011
0.198763
0.183135
0.345761
0.344174
0.200726
0.191225
0.134557
0.0691994
0.091367
0.138993
0.075008
0.130464
0.0981085
0.13534
0.167166
0.144983
0.13572
0.137326
0.147441
0.14273
0.144144
0.147622
0.159828
0.178215
0.0694508
0.153816
0.16082
0.134088
0.125287
0.147372
0.146542
0.147517
0.1419
0.147506
0.144593
0.146625
0.151898
0.154568
0.154165
0.156562
0.155878
0.157241
0.156034
0.145115
0.153487
0.150126
0.141302
0.147587
0.145204
0.14293
0.136885
0.0826843
0.0885109
0.131074
0.0786756
0.133194
0.0742104
0.137847
0.145505
0.144675
0.140574
0.145158
0.13944
0.146268
0.157929
0.156848
0.156799
0.155551
0.155531
0.157941
0.159555
0.148407
0.140902
0.142475
0.148104
0.140702
0.142954
0.147536
0.160764
0.156425
0.157081
0.158117
0.159506
0.160661
0.157488
0.136874
0.134851
0.135916
0.141468
0.139979
0.13758
0.138624
0.139199
0.140004
0.144019
0.141035
0.138674
0.142192
0.140498
0.0665717
0.125892
0.129289
0.131493
0.0764684
0.129404
0.068634
0.0673463
0.0652019
0.125744
0.128449
0.0699855
0.129448
0.0668745
0.161407
0.159809
0.157839
0.159359
0.156922
0.157169
0.160609
0.13786
0.146845
0.137315
0.145675
0.138821
0.139052
0.146579
0.136345
0.135475
0.134632
0.136495
0.137573
0.136564
0.137509
0.169132
0.130737
0.0825449
0.0778494
0.130078
0.125776
0.0666109
0.111439
0.190065
0.241975
0.236217
0.0361893
0.155552
0.0463897
0.0265006
0.229939
0.235728
0.152621
0.154813
0.112471
0.116596
0.199206
0.0308226
0.0705016
0.0421335
0.072114
0.0476175
0.050161
0.0299845
0.15229
0.0475307
0.0765041
0.081391
0.128904
0.162494
0.0542067
0.249266
0.147698
0.153748
0.115818
0.218697
0.110769
0.207642
0.0658012
0.0386479
0.0711753
0.0498165
0.0292841
0.0464178
0.0285602
0.028915
0.0301996
0.0332067
0.0345655
0.0343184
0.0346633
0.0265541
0.0825382
0.165364
0.200402
0.136992
0.0905577
0.173922
0.0732038
0.0361226
0.128809
0.0438539
0.0622716
0.0438845
0.0543344
0.0292771
0.181672
0.434014
0.123207
0.208857
0.0330645
0.0351441
0.026723
0.0393508
0.041885
0.0281553
0.0288609
0.0376481
0.035937
0.0274675
0.0266089
0.033687
0.0347469
0.0367591
0.0268185
0.0334544
0.0266631
0.0327124
0.0297644
0.0365413
0.0345326
0.0329943
0.0263493
0.0274161
0.0397611
0.0304632
0.0259868
0.0258795
0.0407028
0.0264738
0.0283582
0.0618982
0.0676762
0.0588936
0.034819
0.0338116
0.225696
0.0926245
0.0784444
0.0549779
0.0355192
0.0277165
0.0352977
0.225251
0.12162
0.0721182
0.0615614
0.0898159
0.0311206
0.0404852
0.28114
0.10838
0.148985
0.0793631
0.328345
0.33679
0.359985
0.205277
0.23806
0.180433
0.231486
0.41782
0.14338
0.144114
0.141025
0.134102
0.13509
0.134148
0.136025
0.672408
0.431516
0.236201
0.345664
0.209489
0.158157
0.068049
0.136042
0.144424
0.143916
0.135419
0.143111
0.135674
0.142553
0.158101
0.156142
0.155584
0.156268
0.15583
0.16621
0.159137
0.134503
0.133355
0.133687
0.133781
0.132977
0.133222
0.134087
0.0786829
0.130218
0.126029
0.1314
0.0855557
0.170041
0.181619
0.137109
0.136411
0.143733
0.136061
0.153364
0.137364
0.143078
0.168997
0.160108
0.165742
0.209235
0.199204
0.345291
0.167977
0.135633
0.135399
0.141173
0.135626
0.154232
0.136571
0.142748
0.170969
0.158818
0.168891
0.216171
0.207558
0.376512
0.16836
0.136287
0.134685
0.133839
0.134014
0.136678
0.135398
0.135088
0.31562
0.170813
0.164522
0.316598
0.489925
0.498458
0.347218
0.390105
0.187371
0.214727
0.340802
0.529042
0.535191
0.368806
0.135438
0.134137
0.133185
0.133691
0.136281
0.134945
0.134761
0.136688
0.17938
0.177469
0.161286
0.143885
0.143563
0.152954
0.352152
0.624549
0.300858
0.292474
0.5342
0.522029
0.200551
0.134802
0.141266
0.138141
0.13823
0.136701
0.136797
0.135998
0.507374
0.599784
0.675861
0.583559
0.618227
0.60192
0.499476
1.67615
1.92246
1.75951
0.895061
0.834779
1.16992
2.19259
1.09111
2.09068
1.94275
1.0865
0.941581
1.98034
1.24255
2.39173
2.29776
0.843416
0.902191
0.911987
1.04204
1.05115
1.12899
1.11884
0.863705
0.968337
0.933337
1.10505
1.0712
1.15075
1.18861
1.00468
1.02151
1.15669
1.09407
1.22869
1.24836
1.33275
0.985594
1.10192
0.996324
1.22842
1.34165
1.35237
1.2178
1.05852
1.1256
1.01919
1.25162
1.4245
1.37639
1.29417
1.19281
1.3169
1.19122
1.44903
1.32445
1.4459
1.59131
1.68942
1.31321
1.32401
1.41531
1.78428
1.40449
1.79663
1.12002
1.34726
1.20698
1.50596
1.36387
1.46409
1.62448
1.71559
1.38416
1.34642
1.43807
1.86984
1.82205
1.47958
1.82636
1.44161
1.5238
1.94826
1.54693
1.64447
2.06175
1.65894
1.76824
1.47321
1.48628
1.32369
1.59766
1.78232
1.53221
1.92205
2.10439
1.66432
1.67595
1.52111
1.93474
1.55609
2.01409
1.75402
2.13259
1.70119
1.96101
1.60267
1.78075
2.4095
2.22299
2.05298
1.63547
1.77522
2.21323
2.10483
1.84563
1.68158
1.79624
2.45379
1.97997
2.23696
2.14424
2.64758
2.95254
1.9485
2.66808
2.16034
2.41419
0.168209
0.148202
0.184281
0.153961
0.178788
0.166301
0.163731
0.154709
0.172025
0.162906
0.176183
0.169512
0.163909
0.169886
0.177505
0.165438
0.155964
0.149338
0.147981
0.158171
0.152341
0.162034
0.174545
0.181687
0.175004
0.18783
0.178675
0.175755
0.183958
0.168623
0.151242
0.169064
0.155321
0.174942
0.153651
0.166721
0.172777
0.181163
0.171007
0.174079
0.187343
0.178257
0.183173
0.160938
0.173769
0.167478
0.171328
0.169108
0.163414
0.176941
0.165622
0.149364
0.151017
0.168348
0.155061
0.174582
0.153401
0.159936
0.148589
0.148348
0.165086
0.147861
0.157457
0.151996
0.160403
0.153861
0.158989
0.15476
0.160406
0.154789
0.158876
0.163376
0.164808
0.158785
0.165771
0.160107
0.167569
0.161182
0.159548
0.163084
0.161937
0.165951
0.163787
0.161524
0.159189
0.152963
0.148351
0.151166
0.153108
0.149322
0.154976
0.151083
0.151951
0.147719
0.149963
0.148974
0.148477
0.151932
0.150115
0.154394
0.15687
0.152267
0.150372
0.150492
0.156479
0.154273
0.179638
0.177511
0.17422
0.178222
0.178889
0.176476
0.179287
0.179781
0.178679
0.177736
0.17459
0.179468
0.17665
0.179314
0.185116
0.187836
0.186355
0.18778
0.185413
0.185372
0.188523
0.180894
0.178379
0.178403
0.181304
0.180932
0.177896
0.180908
0.165958
0.172047
0.163563
0.168646
0.163518
0.171368
0.166025
0.159552
0.152754
0.152995
0.155787
0.157638
0.154248
0.157546
0.166082
0.163915
0.172285
0.169012
0.166201
0.17153
0.163815
0.161549
0.155317
0.162225
0.155297
0.161795
0.161761
0.155383
0.167843
0.174245
0.174286
0.169165
0.168385
0.1736
0.168342
0.160308
0.158708
0.153677
0.154645
0.158681
0.16028
0.154711
0.165432
0.167918
0.161909
0.168014
0.1632
0.169684
0.163218
0.17737
0.170852
0.174823
0.175111
0.175461
0.177108
0.174172
0.178418
0.172659
0.17709
0.177589
0.178871
0.177494
0.17525
0.183563
0.18614
0.185815
0.187161
0.18396
0.184885
0.187037
0.17976
0.177244
0.17801
0.180872
0.179851
0.180544
0.176767
0.164068
0.165714
0.160809
0.169849
0.160721
0.16415
0.169284
0.157641
0.153479
0.150328
0.151246
0.154856
0.155802
0.152398
0.158485
0.155993
0.150932
0.152963
0.155859
0.158543
0.152932
0.165036
0.167609
0.171671
0.163306
0.165712
0.170319
0.162596
0.160687
0.154432
0.161941
0.155067
0.160877
0.161512
0.154513
0.16691
0.173136
0.173878
0.168849
0.167365
0.168032
0.172518
0.159405
0.152716
0.158459
0.154393
0.160008
0.157718
0.153799
0.152111
0.152207
0.147815
0.150015
0.150942
0.153752
0.148743
0.158244
0.164887
0.162672
0.161595
0.158794
0.162779
0.160298
0.151436
0.147679
0.149716
0.148671
0.151593
0.149966
0.148059
0.153396
0.151211
0.156541
0.14999
0.153905
0.155438
0.149537
0.55112
0.540121
0.348685
0.205035
0.740779
0.68274
0.968391
0.807152
0.235098
0.345232
0.371704
0.414059
0.441687
0.525007
0.510532
0.28551
0.450731
0.409804
0.511285
0.477638
0.540625
0.557703
0.299737
0.501097
0.115584
0.451371
0.154521
0.0566472
0.0264802
0.0267665
0.027052
0.0381262
0.0371617
0.0355797
0.034867
0.0283418
0.0279029
0.0276579
0.0337526
0.0356198
0.038094
0.0343731
0.0308006
0.0427636
0.0667629
0.0288559
0.0281018
0.0483583
0.147065
0.1727
0.0418702
0.0914429
0.0370364
0.038956
0.0481299
0.139696
0.173471
0.0411836
0.0954016
0.0316021
0.0420031
0.0686856
0.289578
0.221992
0.117519
0.183808
0.103972
0.0501936
0.0745055
0.364951
0.251924
0.148292
0.143847
0.460144
0.291657
0.303717
0.318371
0.327572
0.122097
0.193939
0.438122
0.475828
0.415115
0.369502
0.367367
0.274473
0.470589
0.541462
0.479519
0.57471
0.632091
0.634832
0.568534
0.56758
0.696246
0.583255
0.627935
0.738934
0.751858
0.614878
0.493062
0.573708
0.512603
0.587281
0.673602
0.646485
0.60755
0.620097
0.71565
0.60082
0.645029
0.800108
0.771036
0.665703
0.230566
0.0998748
0.0712821
0.497092
0.0439048
0.565087
0.691146
0.628335
0.0416617
0.0378504
0.0390675
0.116995
0.123539
0.150865
0.139988
0.0510018
0.0504333
0.0421844
0.183413
0.140327
0.182448
0.252252
0.116582
0.0602701
0.0541948
0.22003
0.30073
0.330331
0.198986
0.159847
0.126688
0.0802254
0.271887
0.435427
0.379699
0.343334
0.29528
0.508542
0.307502
0.358395
0.543103
0.343053
0.55052
0.397731
0.533501
0.337597
0.399502
0.598555
0.569813
0.466273
0.440079
0.504611
0.585776
0.638777
0.525956
0.420222
0.592619
0.483874
0.580752
0.641489
0.66198
0.554052
0.611485
0.53302
0.0284278
0.0323824
0.0276722
0.0631773
0.0560679
0.0435032
0.0276126
0.0295446
0.0573441
0.0316441
0.0315847
0.0308517
0.0536398
0.0518012
0.0309459
0.0469712
0.0520972
0.0292994
0.0299632
0.0309388
0.030242
0.0480595
0.0287307
0.0428217
0.0413753
0.0297903
0.0481094
0.0465181
0.029983
0.0274659
0.0271651
0.0272953
0.0266472
0.026582
0.0263459
0.0264071
0.0266404
0.0366204
0.0390048
0.0398268
0.0282275
0.029157
0.0433032
0.028027
0.0279162
0.027549
0.0259822
0.0260998
0.0263731
0.026157
0.0343192
0.0286442
0.0281647
0.0258363
0.0257198
0.0259971
0.0260961
0.0413949
0.0350916
0.0302719
0.0264548
0.0284003
0.0259198
0.0258466
0.139362
0.138648
0.145058
0.141216
0.171469
0.153139
0.158023
0.146853
0.145195
0.142032
0.140904
0.14247
0.140654
0.145975
0.142999
0.165389
0.17288
0.167457
0.157173
0.163672
0.158267
0.162208
0.16159
0.147568
0.14873
0.151252
0.142671
0.152586
0.145199
0.151224
0.155042
0.146031
0.146913
0.147988
0.149407
0.145082
0.154731
0.162055
0.158027
0.158475
0.154501
0.159126
0.157657
0.149532
0.151195
0.148232
0.146039
0.149141
0.14606
0.151927
0.149926
0.153051
0.148611
0.146069
0.149765
0.146242
0.152726
0.147334
0.144127
0.144682
0.143002
0.146997
0.145254
0.144208
0.13974
0.143279
0.142587
0.142387
0.144781
0.143943
0.144064
0.149925
0.160501
0.156271
0.167035
0.161851
0.154362
0.158408
0.146255
0.142311
0.143059
0.149108
0.154393
0.150072
0.153006
0.142334
0.137944
0.14028
0.145581
0.143374
0.146653
0.14972
0.135545
0.156239
0.136449
0.139278
0.137519
0.133768
0.140172
0.134002
0.140363
0.150646
0.130729
0.069563
0.176254
0.152458
0.283388
0.107847
0.137624
0.141205
0.140431
0.135592
0.139549
0.135432
0.140359
0.148971
0.151801
0.15119
0.151313
0.150146
0.151567
0.150605
0.136915
0.143081
0.141878
0.135316
0.142341
0.135371
0.141205
0.153009
0.155322
0.153237
0.155738
0.15324
0.152532
0.153627
0.140135
0.137389
0.137909
0.134578
0.136616
0.134859
0.136101
0.131848
0.0807849
0.0780409
0.127525
0.0745251
0.128161
0.0725302
0.139833
0.135479
0.13531
0.135177
0.139655
0.135021
0.140451
0.150704
0.150267
0.1496
0.149406
0.150584
0.151667
0.148991
0.137332
0.134548
0.135897
0.134244
0.133243
0.133776
0.13497
0.12864
0.129638
0.0742706
0.126027
0.0706521
0.126299
0.0697916
0.140673
0.135588
0.135431
0.135174
0.141753
0.13505
0.141242
0.135437
0.135662
0.134069
0.133661
0.135443
0.133805
0.135123
0.158557
0.159618
0.152562
0.153587
0.155935
0.15065
0.153184
0.0983783
0.133841
0.130556
0.124892
0.0725452
0.125116
0.0716294
0.133714
0.135012
0.134981
0.134075
0.13309
0.133212
0.134399
0.164228
0.227625
0.151551
0.134827
0.104268
0.126882
0.0751282
0.153765
0.145799
0.13528
0.0761878
0.143017
0.149607
0.136431
0.136683
0.150529
0.147735
0.151022
0.143186
0.151402
0.145304
0.149503
0.143918
0.142072
0.136523
0.147581
0.139361
0.142923
0.144194
0.147711
0.144235
0.152173
0.151416
0.147901
0.150062
0.145935
0.134289
0.108944
0.110097
0.139017
0.108852
0.138562
0.105428
0.138897
0.143796
0.139638
0.142184
0.141941
0.139666
0.139518
0.139909
0.144226
0.140115
0.1417
0.141943
0.139186
0.140357
0.137081
0.135458
0.137099
0.138386
0.136191
0.138715
0.136206
0.138781
0.140163
0.140037
0.139355
0.140343
0.138416
0.139606
0.15061
0.154186
0.152352
0.151991
0.153117
0.151536
0.148251
0.138992
0.139002
0.0912508
0.0979492
0.105072
0.138518
0.0992721
0.136878
0.0917061
0.0879914
0.138459
0.101861
0.139456
0.0977462
0.130761
0.132871
0.0822914
0.133617
0.0835843
0.136306
0.0910174
0.673596
0.746309
0.894508
0.681973
0.907511
0.754619
0.820365
0.698032
0.805005
0.874045
0.929357
0.772417
0.840602
0.72486
0.611121
0.642041
0.754067
0.617818
0.922437
0.829432
0.688903
0.689326
1.55693
1.56936
1.55149
1.55588
0.714949
1.5973
1.68023
0.834952
0.783764
1.54472
1.57837
0.855028
0.571016
0.486194
0.814274
0.77722
1.39754
1.03171
1.45837
1.27211
0.785189
0.734277
1.58948
0.838818
1.85603
1.73728
2.07878
1.00448
0.876475
1.60405
0.891291
1.86966
0.414544
0.471518
0.53863
0.523378
0.569577
0.581882
0.620361
0.652139
0.684106
0.693618
0.851125
0.862263
0.891528
0.880574
0.605611
0.627745
0.615475
0.835409
0.826253
0.833757
0.844959
0.835381
0.623349
0.613091
0.603305
0.613038
0.82348
0.829339
0.885449
0.851507
0.647772
0.67518
0.635662
0.844054
0.875159
0.651209
0.676869
0.638129
0.848967
0.890974
0.862089
0.87811
0.67817
0.748789
0.718013
0.91341
0.882373
0.913972
0.946211
0.541827
0.668619
0.584757
0.719039
0.639839
0.691341
0.786481
0.517168
0.63919
0.571597
0.676663
0.613724
0.677381
0.75586
0.736737
0.789602
0.743601
0.936445
0.981732
0.990021
0.926908
0.73719
0.935784
0.72521
0.774397
0.924049
0.983511
0.995169
0.725364
0.779617
0.773087
0.934609
0.924455
0.981996
0.988982
0.783494
0.797861
0.829964
0.954912
0.986225
1.00615
1.03747
0.787279
0.806684
0.761697
0.957613
1.03974
1.009
0.988334
0.645828
0.827158
0.682556
0.842295
0.696123
0.744301
0.901752
0.27564
0.470813
0.315415
0.0808147
0.601979
0.901911
0.725579
0.763517
0.155949
0.12618
0.269819
0.227285
0.341369
0.371562
0.430537
0.211748
0.401643
0.31387
0.491525
0.419074
0.489404
0.531389
0.396942
0.443935
0.34283
0.528064
0.465123
0.50343
0.549788
0.477382
0.637086
0.529402
0.650142
0.542051
0.57347
0.684219
0.412041
0.522026
0.48322
0.534996
0.618786
0.568459
0.578129
0.607181
0.680193
0.5711
0.604111
0.769197
0.638584
0.722725
0.633353
0.70404
0.586676
0.610854
0.794429
0.657471
0.73291
0.641822
0.743435
0.826365
0.839915
0.681562
0.692431
0.773557
0.749041
0.733391
0.646739
0.764087
0.993579
0.875542
0.860193
0.82389
0.932629
0.874795
1.08466
1.02893
1.08411
1.14717
0.845632
0.911581
0.834221
1.05321
1.15322
1.1422
1.06471
0.736836
0.894185
0.985243
0.814651
1.09365
0.98475
0.907499
0.915633
0.909394
0.832192
1.05074
1.14509
1.05638
1.13957
0.858665
0.925365
0.766235
0.829249
1.12341
0.938484
0.999767
0.858108
0.934411
0.968884
1.16235
1.07322
1.10637
1.19755
1.1386
1.56178
1.13453
1.13959
1.56432
1.14759
1.56372
1.14558
1.17338
1.56604
1.56125
1.15717
1.16131
1.56073
1.55839
1.13419
1.13533
1.56149
1.13234
1.13405
1.55814
1.54704
1.16235
1.14065
1.13865
1.55599
1.15677
1.55231
1.14241
1.55854
1.1547
1.16801
1.53883
1.1548
1.55504
0.19236
0.0448455
0.463134
0.036597
0.461951
0.544829
0.542525
0.0723137
0.0413656
0.50997
0.0618596
0.628631
0.579761
0.0960637
0.749927
0.744129
0.0374091
0.0362925
0.0368085
0.108279
0.107453
0.112476
0.103785
0.0477336
0.0364332
0.0373244
0.108435
0.109213
0.103991
0.114933
0.0429018
0.0394437
0.0384829
0.118971
0.153244
0.124793
0.142824
0.044962
0.0579114
0.0396708
0.119249
0.156524
0.14394
0.127774
0.0561442
0.114218
0.0992605
0.219914
0.200267
0.292758
0.320366
0.0586766
0.145068
0.102766
0.220531
0.201163
0.290861
0.316033
0.270633
0.271154
0.446227
0.477103
0.281824
0.461089
0.259417
0.273244
0.446014
0.478783
0.273196
0.461978
0.260923
0.2861
0.508261
0.358648
0.310669
0.29706
0.53261
0.341893
0.493286
0.295133
0.356362
0.506762
0.532173
0.307905
0.339647
0.492584
0.317647
0.222279
0.351646
0.393928
0.507046
0.424881
0.485811
0.421453
0.350537
0.235739
0.192435
0.315011
0.392986
0.485921
0.583355
0.511797
0.434082
0.571568
0.413711
0.490479
0.61521
0.432861
0.57096
0.412712
0.490228
0.624425
0.51024
0.614001
0.175689
0.0517077
0.180097
0.0979986
0.0581879
0.051087
0.0266896
0.0265691
0.0714824
0.130259
0.200209
0.0796717
0.104509
0.0523246
0.152422
0.0575907
0.0316445
0.0320222
0.0349905
0.0589477
0.0611072
0.0326287
0.225073
0.0900991
0.215987
0.145515
0.128404
0.104102
0.167934
0.0556603
0.0313837
0.0318592
0.03844
0.0663513
0.0638566
0.0428747
0.0465748
0.0881269
0.0686485
0.0290524
0.0357811
0.0317846
0.109492
0.0270936
0.0266524
0.0271095
0.0280718
0.0271613
0.0271871
0.0273977
0.140801
0.0584192
0.0844894
0.0419779
0.0689322
0.0363872
0.126788
0.0266042
0.0272902
0.027739
0.0293935
0.0288379
0.0312744
0.0279223
0.550043
0.613391
0.683518
0.73534
0.566429
0.598017
0.673302
0.688963
0.617643
0.569676
0.550764
0.736897
0.598796
0.674859
0.155308
0.14869
0.199386
0.283189
0.144439
0.146045
0.133368
0.139668
0.138055
0.145707
0.191102
0.143436
0.147285
0.151192
0.165986
0.136222
0.144641
0.139933
0.148891
0.148609
0.13356
0.165494
0.134323
0.153526
0.240052
0.104882
0.13236
0.129351
0.197434
0.147209
0.29572
0.270391
0.1755
0.162807
0.1516
0.243575
0.146097
0.137878
0.135215
0.136654
0.148587
0.14829
0.133262
0.143898
0.149893
0.143294
0.138055
0.144038
0.14695
0.146676
0.133699
0.109044
0.109536
0.134453
0.104125
0.132393
0.110609
0.136713
0.103317
0.107839
0.135188
0.113352
0.142291
0.112726
0.143726
0.148529
0.142946
0.149004
0.14356
0.149134
0.142772
0.142148
0.145556
0.141689
0.146414
0.14138
0.147052
0.142152
0.14005
0.13677
0.140719
0.14062
0.138452
0.144752
0.136972
0.142669
0.146513
0.145508
0.146025
0.148443
0.143787
0.141482
0.141643
0.143047
0.144101
0.142612
0.142844
0.141085
0.143416
0.14235
0.143045
0.147213
0.145647
0.145107
0.142629
0.142438
0.137904
0.138782
0.135092
0.136124
0.138364
0.134815
0.138008
0.142913
0.146558
0.147325
0.141883
0.142408
0.148398
0.141372
0.137975
0.137272
0.133595
0.143244
0.137933
0.134508
0.138654
0.14364
0.149217
0.149202
0.142336
0.143082
0.149542
0.142981
0.143719
0.143583
0.148758
0.148941
0.143781
0.149107
0.143397
0.138059
0.134442
0.134313
0.136234
0.13729
0.134793
0.137191
0.137122
0.145119
0.147658
0.157304
0.138139
0.14037
0.144517
0.138912
0.132105
0.130909
0.141094
0.138475
0.143711
0.127997
0.149677
0.18155
0.135364
0.166706
0.139095
0.140761
0.20334
0.132716
0.120518
0.121095
0.106837
0.126514
0.128663
0.123159
0.132189
0.133011
0.13242
0.129124
0.130334
0.133579
0.129236
0.142161
0.146217
0.141244
0.147353
0.141493
0.147479
0.141843
0.136205
0.137167
0.136507
0.137048
0.136291
0.136941
0.135752
0.137202
0.137007
0.135956
0.134456
0.137513
0.136738
0.134923
0.137747
0.137046
0.138738
0.135354
0.137777
0.138775
0.135463
0.14263
0.148303
0.148924
0.142045
0.148616
0.142112
0.142671
0.142777
0.14782
0.143181
0.148639
0.148169
0.143028
0.142896
0.13732
0.133834
0.134243
0.136026
0.136507
0.136959
0.134653
0.141032
0.14386
0.140419
0.145465
0.141141
0.144387
0.141007
0.139181
0.138668
0.137413
0.140145
0.138512
0.137891
0.14054
0.142077
0.14451
0.144383
0.143454
0.142029
0.144106
0.143451
0.142622
0.146618
0.142814
0.145409
0.142445
0.145064
0.142464
0.129385
0.134254
0.129584
0.132311
0.129745
0.128461
0.133277
0.129498
0.134984
0.132671
0.12933
0.128104
0.133645
0.129894
0.121897
0.103429
0.121181
0.10312
0.121999
0.121511
0.101297
0.130735
0.132974
0.133231
0.129714
0.130245
0.13012
0.1338
1.1902
1.56723
1.1689
1.18785
1.59368
1.57189
1.21625
0.939783
1.02248
1.096
1.15823
1.33789
1.23013
1.25534
1.19935
1.61253
1.24089
1.5528
1.25246
1.18667
1.56918
1.65236
1.20665
1.58788
1.58022
1.1963
1.25904
1.63895
1.20716
1.58117
1.19699
1.25714
1.64335
1.26474
1.63654
1.22243
1.6394
1.31223
1.62536
1.27595
1.59203
1.2566
0.915949
1.17865
1.2323
1.2455
1.04427
1.10135
1.02992
1.22603
1.62981
1.2571
1.65908
1.28231
1.31458
1.6901
1.3546
1.7463
1.86957
1.34164
1.8566
1.44655
1.73184
1.33859
1.85256
1.73244
1.44812
1.34399
1.44339
1.72793
1.36249
1.67344
1.30256
1.36386
1.81721
1.43191
1.74185
1.74645
1.46384
1.35968
1.39283
1.90564
1.4994
1.77968
1.44788
1.9292
1.65426
1.97375
1.52748
1.56161
1.83941
2.46304
3.12769
10.3263
5.24794
5.20389
3.11656
2.44261
10.1514
2.1528
3.12311
2.15442
2.20954
2.19838
3.1686
3.1767
2.15655
3.12751
2.15404
2.19844
2.19538
3.16207
3.15472
2.31262
2.44816
2.29714
3.29699
3.55151
3.31647
3.52909
2.44208
2.29332
2.2917
3.28482
3.50827
3.27931
3.51426
5.22846
9.20785
9.15793
5.29818
9.26195
5.2967
9.27899
5.24407
9.10789
9.20181
5.28504
9.17037
5.24949
9.25605
5.49088
5.90441
9.62153
10.2877
5.51069
5.87771
9.59982
5.4634
10.215
9.47711
5.8146
5.43545
5.84255
9.54533
5.49342
11.1593
3.35398
2.6903
5.1157
3.09631
2.45302
10.1619
8.80748
3.10196
8.6255
3.14177
5.12662
2.11893
3.12155
9.22604
2.13204
5.08049
3.07163
2.1666
5.29121
9.94024
9.74056
2.17149
5.25214
3.13364
5.29845
2.19553
3.23828
12.0163
2.83365
11.5208
2.71
3.42765
18.0882
12.0126
3.53871
5.78997
12.6833
2.96461
2.14689
2.09923
2.11946
3.11559
3.05666
3.02773
3.1349
2.18451
2.19409
2.18416
3.24966
3.27387
3.24909
3.21305
2.19111
2.17658
2.18849
3.21063
3.26338
3.2514
3.21396
2.14631
3.12258
2.13896
2.14549
2.16176
3.19173
3.15635
2.14643
3.10078
2.14795
2.14842
2.13329
3.06599
3.12264
2.15193
3.14775
2.15195
2.16558
2.17036
3.20213
3.18015
2.13942
2.09286
2.11399
3.0207
3.00116
3.03389
2.98871
2.2099
3.07298
2.16223
2.16754
2.13539
3.04449
3.0695
2.1725
3.1004
2.1598
2.20707
2.23166
3.15174
3.17159
2.36945
3.21075
2.27424
3.12725
2.20785
2.2841
3.23458
2.21334
2.32201
2.33764
3.08681
3.11779
3.29419
3.26687
2.30332
2.4898
2.33539
3.51987
3.28634
3.32424
3.56981
2.29644
2.24431
2.42665
2.36855
3.16339
3.34375
3.43387
3.87388
3.56808
2.5053
2.56682
2.40124
3.41452
3.68321
2.4929
3.35896
2.37697
2.52157
2.65902
3.58182
3.80165
2.49218
2.72692
2.50781
3.568
3.93085
3.95774
3.54215
2.86488
4.15694
3.7948
2.65157
2.84653
4.11512
4.56285
2.60307
2.76088
2.53928
3.61948
4.13263
4.01348
3.72172
2.71287
3.16766
2.8764
4.35086
3.89881
4.17157
4.70177
5.23464
5.07517
8.7969
9.26889
5.02521
8.87681
5.26618
5.57508
10.0938
5.64072
5.57389
9.72332
5.48223
9.93773
10.0478
5.47164
5.61353
5.57646
9.71884
5.4698
9.95504
4.99165
8.72848
4.94344
8.62019
5.00339
4.93286
8.71938
5.15704
8.85621
9.00641
5.07872
9.14948
8.8659
5.21994
5.24275
9.30026
9.19262
5.42333
9.39446
5.33573
9.59419
5.29991
9.2114
9.32173
5.44295
9.48656
5.37404
9.6438
3.88975
3.4639
3.10621
4.57049
5.98981
5.14754
5.22763
5.14721
8.91204
8.98165
9.09659
5.21955
5.23183
9.10863
5.06812
8.91613
8.82928
5.02641
8.80416
5.05419
8.76838
5.26149
5.14699
9.14321
9.55642
8.95582
5.31289
9.23989
8.90423
5.06076
5.11673
5.39493
9.30737
5.34923
9.38356
9.45968
5.82159
5.43132
5.47655
10.2816
5.88896
9.53561
9.20243
9.01342
5.18541
5.4709
9.76348
9.51059
5.61332
6.37735
5.85195
10.2076
5.60825
10.5987
6.06523
9.76915
5.49163
9.54662
10.0889
10.2062
5.8575
6.22893
10.8786
5.94201
10.6614
6.84025
11.6843
6.65043
10.3723
6.10567
5.86652
10.1949
11.5616
6.54121
6.57293
5.83058
10.2486
6.85325
6.22514
10.8759
6.76878
13.2846
7.557
11.8537
11.1973
7.21033
6.40244
6.87053
13.7991
7.82531
12.0446
7.57005
10.1859
15.202
15.519
8.60746
8.7711
13.3129
2.49192
2.64013
3.2284
10.7798
9.64549
3.12289
10.4135
5.21121
2.16569
3.151
2.19998
2.23415
2.28136
3.19955
3.25613
2.54687
2.34256
2.39532
3.59352
3.3548
3.42892
3.67603
2.26369
3.361
2.35412
2.45718
2.35554
3.3613
3.51925
2.77846
2.5957
2.47833
3.55441
4.04382
3.74008
3.8209
5.23627
9.11369
9.14152
9.27242
5.31336
5.38392
9.37529
10.1103
5.54286
5.7999
5.33683
9.2931
5.5419
9.64398
5.95885
9.686
5.55642
5.6626
10.6322
6.08329
9.86471
6.16929
6.68698
11.7145
5.86182
11.0526
6.31715
10.2237
5.30141
9.37944
2.19812
3.15163
3.10465
2.14584
5.1959
9.59895
2.13718
3.10828
2.15301
2.13401
2.13754
3.11964
3.10529
2.1624
2.14704
2.13966
3.1928
3.14301
3.15708
3.12381
3.16954
2.20943
2.15339
2.15518
3.12901
3.12465
3.17816
2.20012
3.25669
2.28031
2.23378
2.16631
3.1241
3.20089
5.18973
9.09722
9.08085
9.18485
5.23885
5.19698
9.099
5.4256
9.30536
9.39749
5.29375
5.33724
5.24525
9.19734
9.28564
9.26964
5.30076
9.21359
5.25086
5.23152
9.16342
9.27894
5.31708
5.38643
5.23742
9.14321
5.21332
9.11695
43.3796
0.0374262
2.66429e-06
1.60548e-13
2.22045e-16
13.422
43.3425
48.1746
17.3776
52.2072
43.593
43.4102
12.6816
24.529
23.1848
19.1201
20.3211
33.9797
35.6257
14.8798
31.4606
27.1396
26.6798
22.6678
38.6684
43.3455
77.4616
38.1615
0.00237394
0.378105
3.02909e-09
1.96062e-06
2.22045e-16
1.09733e-13
2.22045e-16
2.22045e-16
51.9338
47.4204
44.1674
27.3983
20.2546
46.1266
42.7166
42.8358
6.41238
2.28461e-07
3.69375e-13
2.22045e-16
12.2982
43.6179
48.5447
47.8362
42.36
18.4985
43.1288
63.7408
70.3964
44.7998
0.117364
11.9212
67.5187
50.7348
12.3806
22.514
22.6444
18.6303
18.5023
33.1948
33.323
12.3014
33.067
22.5029
12.267
22.4583
18.4527
33.0916
18.9654
12.5983
13.4133
33.6764
23.0416
24.5232
35.4117
22.8601
17.9272
15.0626
32.399
27.4687
38.7631
44.0213
34.5641
29.4524
22.4923
39.6808
48.9171
50.7718
57.8115
28.6826
48.0255
43.8126
42.6261
28.6222
44.297
48.8796
48.3502
29.7057
44.4246
44.9263
31.6101
45.21
48.5955
31.3932
42.7064
29.4152
47.5639
47.3812
43.7367
44.4866
48.737
28.9103
44.3237
42.8135
28.7066
44.5024
49.1656
10.1144
41.9476
0.000865548
0.000849295
9.91431
41.9773
5.76234
41.4514
44.2481
37.0328
41.738
37.0937
43.9531
44.5378
36.7387
43.7443
41.0488
41.5658
36.9686
43.749
44.33
7.58061
41.7572
0.000533282
0.183712
43.4706
0.270917
0.000145421
41.1937
43.9684
37.2884
38.2341
41.4305
43.5893
44.2137
0.0001117
0.000488477
7.29374
41.2858
2.45261
43.511
0.13118
36.9502
43.3426
40.7155