/*--------------------------------*- C++ -*----------------------------------*\
  =========                 |
  \\      /  F ield         | OpenFOAM: The Open Source CFD Toolbox
   \\    /   O peration     | Website:  https://openfoam.org
    \\  /    A nd           | Version:  9
     \\/     M anipulation  |
\*---------------------------------------------------------------------------*/
FoamFile
{
    format      ascii;
    class       volScalarField;
    location    "0.0009";
    object      impulse;
}
// * * * * * * * * * * * * * * * * * * * * * * * * * * * * * * * * * * * * * //

dimensions      [1 -1 -1 0 0 0 0];

internalField   nonuniform List<scalar> 
8205
(
2.54249
2.05216
0.000204289
7.21091
0.000866411
5.45965
108.289
145.728
176.09
108.944
171.377
104.457
103.88
45.3596
48.6192
161.376
79.8821
79.5601
94.6935
94.4606
38.3188
28.2121
42.7389
8.35396
45.9671
9.087
0.569238
0.464657
10.4245
6.3161
43.0942
40.1354
8.31531
0.425668
9.52648
0.351958
25.706
4.98696
35.7196
6.47795
0.133456
0.289568
3.4796
3.84515
24.7508
33.8015
5.95148
0.109557
0.226554
3.23391
0.486223
0.000708861
0.0236748
0.0203208
0.0193066
0.593049
0.0166603
0.306686
0.00541964
0.00484953
0.000438697
0.0119326
0.0104417
0.144354
281.308
300.468
200.678
178.078
18.0753
212.197
203.423
70.2826
302.908
288.417
285.169
262.357
258.744
238.462
242.264
293.622
264.085
277.054
236.239
250.039
229.277
215.033
228.19
168.009
264.232
223.911
260.398
207.935
163.33
207.638
133.42
137.641
106.141
110.256
182.557
178.236
238.474
214.826
251.715
198.274
136.884
153.036
183.148
193.566
108.029
123.636
81.566
96.6338
168.239
152.366
74.0617
145.969
32.6609
35.4801
97.2591
141.44
92.9354
48.5984
68.4319
26.5506
61.6681
83.2892
131.196
114.957
824.07
343.007
506.38
461.381
266.533
860.068
511.126
617.569
387.431
197.255
298.703
127.285
344.341
309.044
297.688
242.182
512.063
404.101
402.125
494.921
402.647
499.061
399.053
342.592
316.963
316.449
337.468
334.495
305.136
302.326
312.082
346.177
316.961
314.419
327.484
295.549
283.222
512.029
403.621
406.481
486.289
378.138
391.518
471.649
847.981
640.62
635.768
585.378
733.603
592.206
723.073
307.01
308.572
309.598
275.331
286.876
283.659
271.971
788.914
611.164
626.033
573.163
671.986
555.337
702.271
291.513
306.711
302.173
276.255
250.824
263.988
263.558
452.777
365.073
303.578
446.44
296.908
380.503
359.151
233.67
264.678
197.261
227.593
292.568
259.919
191.611
508.685
452.292
527.658
520.316
500.561
445.045
608.291
175.886
158.026
225.569
237.778
153.633
171.068
221.38
507.307
562.849
413.171
484.3
431.906
488.754
589.473
434.714
332.188
350.33
284.367
368.042
348.091
417.976
266.032
215.353
282.057
249.658
161.231
179.534
233.491
227.989
143.091
196.522
143.407
160.079
211.766
212.588
297.689
332.568
320.741
265.005
367.259
328.098
327.275
275.073
293.754
320.487
309.109
335.681
316.505
324.867
351.109
303.264
327.843
314.427
323.584
316.54
320.042
321.719
357.309
337.281
324.055
347.289
325.984
329.175
360.916
353.18
299.351
322.272
319.19
321.671
352.249
289.073
328.988
307.829
299.247
331.745
325.208
318.144
313.609
278.621
303.547
309.813
303.356
253.308
267.709
294.328
287.837
295.676
254.131
309.997
306.199
343.15
273.844
232.277
262.632
216.369
291.391
237.168
252.182
280.484
669.392
453.876
399.399
695.469
896.88
676.563
535.16
487.69
340.143
369.991
486.809
390.408
506.603
522.64
410.147
1086.59
1033.13
676.316
944.874
663.763
657.473
897.676
521.092
425.28
417.706
402.939
518.279
528.256
421.344
416.305
493.488
521.135
517.524
388.323
480.519
415.95
665.433
781.343
623.145
967.462
676.137
643.549
841.79
813.755
576.795
629.605
615.78
662.523
559.675
774.171
441.774
392.393
355.206
505.285
372.918
462.792
406.794
570.628
579.357
510.604
595.828
623.279
537.214
727.67
245.881
556.322
616.588
339.745
298.775
1421.77
1163.08
473.297
295.395
309.284
247.568
257.802
315.016
335.319
264.641
1535.72
581.934
1459
1518.11
584.363
612.242
1428.05
378.639
419.873
324.25
274.665
342.087
371.576
289.656
390.28
292.616
262.573
372.256
320.769
284.67
427.614
1356.11
649.197
1228.84
643.791
1175.49
668.734
1311.45
656.304
1300.83
682.261
1482.39
618.462
647.348
1376.29
518.921
362.178
403.247
417.792
360.373
317.951
474.602
697.849
1024.51
692.41
672.853
1105.19
685.646
1246.77
4.87766e-06
0.0075385
0.00139723
1.8362
7.52794e-06
4.01554e-05
2.03349
0.00047875
12.8278
0.546053
8.95431
1.03844
0.321352
0.0512515
0.0286306
0.158441
4.98544
0.45737
0.0546891
0.150729
0.0125421
0.00425522
0.000225388
0.00371522
0.13264
0.00390528
0.0714436
0.00198918
0.000120775
0.0151396
4.11139e-05
0.000408671
2.44562e-05
0.000236299
0.0088197
0.000776277
6.26944e-06
1.19469e-05
0.000107071
0.00143577
0.0040346
0.000335237
0.000114503
0.00154853
2.66012e-05
0.00946467
0.0295026
0.000826504
5.73321e-05
0.000272751
246.428
351.728
292.543
268.103
307.28
328.544
286.938
315.424
339.421
258.851
257.143
246.045
257.47
270.06
270.047
259.119
334.271
328.232
308.814
367.217
342.588
330.504
363.325
293.074
276.948
274.301
303.809
287.917
286.256
303.852
296.607
303.298
298.067
271.094
282.663
285.349
276.086
262.62
253.078
273.988
275.546
286.292
267.305
288.25
312.192
332.624
315.886
315.85
299.662
300.274
317.44
305.701
316.571
316.779
327.331
320.005
324.383
335.495
297.136
278.118
287.578
289.969
318.512
308.597
299.88
319.771
349.929
331.245
293.198
315.098
288.888
308.494
323.552
341.037
332.43
305.207
331.615
323.021
316.03
356.079
365.494
350.307
329.092
340.429
333.824
350.068
339.332
326.982
348.963
337.937
340.094
350.685
356.757
316.418
338.057
327.766
346.122
335.905
346.739
351.253
363.914
358.69
352.287
352.759
368.855
362.178
358.317
355.598
343.491
347.376
346.322
342.025
357.811
351.474
351.914
350.529
351.952
357.696
326.725
349.314
348.019
353.836
300.631
327.461
359.649
315.384
342.248
340.151
9.78564e-06
9.27969e-05
6.88131e-06
5.97301e-06
4.89246e-06
5.13305e-05
7.45095e-06
3.30566e-06
3.19594e-06
3.46166e-06
3.50044e-06
3.22699e-06
1.67855e-05
3.92801e-06
50.4842
2.02281
0.00413981
2.11686e-06
254.535
2.77583e-07
27.3963
4.27652e-08
2.55046e-05
9.19408e-09
2.63797e-07
3.87818
0.00330176
0.00053037
0.000300277
1.81445e-05
2.27882e-08
0.000315918
1.27437
0.00627324
204.393
0.00541942
1.1782
202.787
47.9625
5.61089
0.000555388
7.71258e-05
0.000489491
7.49718e-05
13.0685
1.96543
0.73393
189.612
40.263
111.686
9.0219
0.0397929
0.000164623
4.8115e-05
9.63351
1.28855
0.0642773
0.741863
1.77371e-05
4.84885e-06
85.0368
12.6155
0.0479257
1.16533e-05
0.00452499
53.0707
0.83369
0.228908
2.91183e-05
3.46688e-06
2.84604e-05
3.39583e-06
0.823128
0.00405445
0.0110185
1.28133e-06
3.75198e-05
77.2024
2.95896
0.00971134
4.21379e-05
2.30309e-06
0.534617
0.00247684
9.40282e-05
0.0249214
3.51312e-06
1.16348e-06
173.691
209.344
178.271
80.1168
100.615
76.6459
104.543
171.422
209.212
177.755
79.6803
99.0365
74.7102
104.385
0.00198112
6.9039e-05
2.10942
2.67411e-06
2.17274e-06
0.0259761
0.000388605
158.654
169.723
139.506
87.3409
64.5617
50.2595
70.403
224.142
190.882
161.724
163.19
134.433
74.907
98.6507
116.087
52.7624
119.707
40.4424
7.82369
38.1613
8.58238
0.830279
1.51272e-06
0.00257613
2.35595e-07
1.08567e-06
0.000141269
4.38159e-06
2.93869e-05
5.69081e-07
9.95845e-07
0.0136599
0.175346
5.52938e-06
2.82544e-06
113.011
51.9207
118.783
39.8517
7.02696
8.29183
36.3216
143.333
86.0314
114.761
33.966
30.2621
18.6322
50.3823
14.1733
15.2774
6.24065
0.70333
0.79563
0.233338
0.204631
5.30093
14.8985
6.14503
0.617436
0.763305
0.228613
0.190253
101.541
29.8458
85.0053
4.86133
29.4539
20.4801
2.59552
3.5125
2.34413
3.97272
0.139473
0.0664684
0.121223
0.0776428
3.37482
2.32776
3.93214
0.137585
0.0643333
0.0769706
0.115243
164.278
40.4511
104.887
25.6566
80.7028
35.2079
5.63982
18.6417
43.304
64.8657
11.5571
0.306727
4.79072
1.02515
3.65717
5.6249
1.87133
0.388996
0.122041
0.188253
0.0577788
2.26355
0.627471
1.1079
0.0414316
0.0737736
0.0349076
0.0199372
55.9931
43.9046
28.7196
13.775
7.37091
1.75867
4.04371
0.000186155
1.21005e-06
2.5348e-07
0.000363084
3.34326e-06
10.7382
0.0314274
15.93
0.543738
24.4666
1.45655
14.5731
0.625266
26.3305
15.7148
1.43707
0.494766
23.5438
0.610373
13.7786
26.2017
71.5172
6.37172
50.964
15.3621
1.50054
0.576784
26.3242
119.864
36.0667
94.4903
26.4739
7.61828
3.47502
41.1567
7.29574
6.17181
0.650389
2.66792
0.289324
0.228369
0.0200546
0.308787
18.0107
10.0608
5.80052
0.352407
0.148373
11.2667
0.839292
0.990941
0.271904
0.0268356
0.0316516
0.0084327
0.00707376
0.98679
0.225178
0.271271
0.0262784
0.0314897
0.00840492
0.00694545
3.71769
0.142252
0.266025
0.0695373
0.131028
0.00865575
0.00458753
0.232639
0.116367
0.406711
0.0126587
0.00193983
0.00350259
0.00720393
2.4267
0.197414
0.690867
0.0201348
0.0700626
0.0207839
0.00581862
23.2852
0.606086
8.67036
0.0738792
1.29127
0.243848
0.0137999
0.262583
0.1446
0.0681906
0.0169496
0.0081298
0.00438009
0.00202934
1.62189
17.6679
9.69145
0.275125
0.0855932
0.0331196
0.679734
4.10368
0.25807
0.0880216
0.00714983
3.63619
0.101275
0.293617
2.48909
0.134218
1.83612
0.0164667
0.775152
0.0553038
5.42241
2.06653
0.976793
19.8566
3.31434
0.00359395
0.16301
0.0719831
10.5221
11.8614
49.4897
7.40835
0.0200411
0.445262
0.426107
0.0471446
0.138502
2.09812
1.01647
0.0015352
0.0219472
0.0657624
5.18709e-07
3.76735e-08
2.7297e-07
5.04873e-08
1.4533e-05
2.11093e-07
4.62526e-07
3.97733
0.00683835
0.0775375
0.223413
0.0975422
0.280419
3.26834
0.201612
0.0540848
0.0261625
0.012662
0.00617216
0.00170527
0.000396914
1.67106
0.0927213
0.00168481
0.214083
0.0808428
0.0346541
4.0627
0.0950474
0.00618198
0.0234993
0.000748754
0.00283469
0.000700402
0.000187828
5.21281
0.378864
0.507051
0.190003
0.142888
0.00458486
0.0123857
0.0385597
0.00499302
0.0463949
0.00140773
0.000137191
0.000163578
0.00117064
0.380015
0.000563127
0.00709396
0.00238782
0.114613
0.00811356
0.024147
0.037896
0.0049801
0.0463187
0.00140507
0.00013438
0.00115077
0.000163069
0.210324
0.0930716
1.77271
0.0365044
0.000245448
0.00426374
0.00207202
0.455813
0.00400336
0.191878
0.036821
0.00191952
0.000772257
0.0915014
0.0249008
0.00217512
0.00404845
0.000416282
0.000755277
0.00012824
7.14568e-05
0.0428777
0.0318905
0.00702503
0.0046181
0.00125683
0.000835065
0.000213496
4.83033e-07
9.29856e-08
8.30593e-08
3.34045e-07
7.52579e-07
0.00105499
1.51372e-05
0.000149835
3.93743e-08
4.04968e-07
2.89503e-08
4.39603e-08
5.81238e-07
5.19474e-08
0.0198966
0.000629583
0.0225795
0.00714302
0.000199815
0.00623566
0.000227046
0.000606787
0.017479
0.0217053
0.00699434
0.000185453
0.000222455
0.00577335
0.0235841
0.00110813
0.0108725
8.41641e-05
0.000709842
0.000324369
4.14284e-05
0.508665
0.00183905
0.037758
0.000717008
0.0142845
0.00116017
6.36772e-05
0.0108383
0.000115871
0.000145445
0.00362715
0.00510274
0.00169574
6.01741e-05
0.00431727
0.00205933
0.0001266
8.74974e-05
0.00374315
0.000143999
0.00240012
0.00425859
8.68852e-05
0.000120797
0.00199342
0.00014237
0.00237984
0.00355328
0.204556
0.000218119
0.00019703
0.000464527
0.00938085
0.00966603
0.00416023
0.0785008
0.000249709
0.00860774
0.000153593
0.00601747
0.000592499
2.15137e-05
0.0290232
0.000158771
0.00177497
8.43304e-05
0.000874522
5.85907e-05
9.70014e-06
0.72129
0.000782345
0.00101078
0.0215758
0.0162966
0.000519404
2.86296e-05
7.63844e-05
0.00127525
0.00224757
0.00105784
2.78675e-05
4.11005e-05
0.000608454
5.19459e-05
0.000525343
0.0018493
0.000603374
8.83784e-06
0.000167451
2.13204e-05
0.000816755
3.3306e-05
0.00096325
0.000251796
1.13801e-05
1.24931e-05
0.000211345
3.31478e-05
0.000799627
0.000958187
0.000250872
1.10583e-05
1.24308e-05
0.000207469
0.00567827
0.00174251
1.535e-05
0.000294132
0.000675155
0.000116569
0.0141496
0.0016639
0.000548122
0.0267784
0.00505408
1.02824e-05
0.000108204
0.000312707
0.000366726
0.000930457
0.00367583
0.000106651
7.44532e-06
3.12875e-05
1.63248e-05
0.000125931
0.0021633
0.00407843
0.000272746
8.59212e-06
0.000146175
1.24701e-05
0.00786197
0.000727185
0.0148508
0.00049373
2.45814e-05
3.59133e-05
0.000266182
8.38393e-08
3.39894e-08
3.71572e-08
4.44543e-08
9.06817e-08
2.49522e-06
3.74342e-07
0.000507464
1.05123e-05
0.000238795
7.32025e-06
0.000129435
6.09262e-05
5.22851e-06
1.84405e-07
1.88374e-08
2.18693e-08
2.01899e-08
4.99406e-08
1.09945e-06
4.40467e-08
0.00037408
9.61089e-06
5.87451e-05
6.17374e-06
0.000103555
1.41122e-05
0.0002125
0.00292722
3.6433e-05
0.000672675
9.25278e-06
9.62968e-05
2.58057e-05
5.33792e-06
0.000791326
8.14214e-06
0.000183745
4.38564e-06
5.34296e-05
1.46862e-05
3.1418e-06
9.125e-05
0.00458936
0.000861474
2.04415e-05
0.000121111
3.15471e-05
1.02365e-05
6.9592e-05
0.00846554
0.00314395
0.000107369
8.73376e-06
4.53994e-06
0.000290463
0.000134247
0.0140464
0.0051927
0.000134359
1.29915e-05
6.72204e-06
0.000363412
0.000147342
1.6415e-05
1.24866e-05
9.36602e-06
7.70467e-06
3.90929e-06
3.66553e-06
0.000738731
6.34911e-06
2.84844e-06
2.35101e-06
8.59433e-05
1.56406e-05
4.59694e-05
5.01741e-05
0.000256361
0.000476574
1.92603e-05
6.52043e-06
7.27175e-06
1.30918e-05
4.96616e-06
2.23751e-05
7.79514e-05
2.12451e-05
3.04883e-06
7.6975e-06
3.48267e-06
1.06286e-05
1.97333e-05
0.000365597
3.45429e-05
1.82675e-06
3.45577e-06
2.74642e-06
0.000115903
3.6419e-06
3.55328e-05
3.24252e-06
2.26373e-05
8.02327e-06
2.87798e-06
7.81898e-05
3.18427e-05
3.95447e-05
5.94707e-06
5.4676e-06
4.05084e-06
3.18325e-06
8.95538e-06
1.97014e-05
0.000354518
1.30701e-05
1.65181e-06
2.3315e-06
1.93401e-06
3.84212e-05
6.54e-06
4.15548e-06
3.46478e-06
4.2774e-06
7.18112e-06
3.23221e-05
3.83285e-05
3.43434e-06
4.07785e-06
6.42782e-06
4.24811e-06
3.18296e-05
7.14821e-06
1.65138e-05
3.0918e-05
0.000575851
1.65252e-05
2.47511e-06
3.33908e-06
2.89295e-06
9.76647e-06
1.15232e-05
7.30043e-06
3.35601e-06
3.24936e-06
3.17132e-06
2.93494e-06
2.63343e-06
3.92211e-06
1.77279e-05
9.0419e-06
2.23584e-06
2.42712e-06
2.99388e-06
2.00433e-06
3.40282e-06
2.27445e-05
2.76186e-06
1.43848e-06
1.58018e-06
1.49552e-06
1.07896e-05
7.4555e-06
8.14936e-05
6.24706e-06
4.05162e-06
4.17386e-06
4.27653e-06
1.14498e-05
2.99314e-06
1.89997e-05
5.18137e-06
2.60317e-06
2.64703e-06
3.9923e-06
4.51314e-05
3.99212e-06
3.90644e-06
5.11608e-06
4.71596e-06
3.6023e-06
3.54504e-06
1.2793e-05
2.84017e-06
2.67918e-06
2.96594e-06
3.18461e-06
7.97316e-06
2.94516e-06
2.52399e-05
4.6992e-06
4.7362e-06
5.08065e-06
4.97703e-06
4.34249e-06
4.3326e-06
1.16315e-06
1.02758e-06
2.41186e-06
1.27693e-06
9.93602e-07
1.04039e-06
1.00787e-06
3.12989e-06
1.30646e-06
1.20175e-06
1.33431e-06
1.25239e-06
1.24217e-06
6.46856e-06
1.44898e-06
1.16479e-06
1.17252e-06
1.16522e-06
1.23634e-06
1.16912e-06
1.19546e-06
1.09186e-06
1.0998e-06
1.41983e-06
1.16266e-06
1.08402e-06
1.08785e-06
1.08601e-06
1.95408e-06
1.8104e-06
1.81513e-06
1.79674e-06
1.79546e-06
1.79511e-06
1.79216e-06
304.309
63.8977
14.6193
309.761
291.316
63.4048
54.9454
0.000305525
11.1886
0.00588575
3.18383e-05
124.685
520.75
446.731
364.123
606.549
128.449
305.607
23.4771
292.684
237.753
295.667
41.2418
221.526
23.704
113.142
507.767
435.037
214.596
53.476
491.658
289.361
18.8486
282.243
228.012
2.03724
14.7572
219.887
148.357
0.131321
0.133965
203.217
92.6075
32.6491
105.695
6.09319
0.0811315
193.378
82.9723
0.00312901
0.814049
129.229
29.8306
359.352
365.297
453.074
387.768
297.201
303.876
380.835
451.231
366.794
454.515
389.086
301.744
385.015
305.338
259.96
297.778
264.673
197.291
227.82
233.846
191.683
298.602
261.716
265.084
197.555
231.006
193.188
234.733
608.805
617.986
528.083
452.68
500.973
445.457
509.036
523.203
616.03
528.748
453.22
500.225
447.764
507.911
221.261
225.456
242.135
175.805
153.472
157.87
171.014
238.711
225.428
242.342
175.791
153.547
171.577
157.725
348.311
332.424
418.313
284.676
368.399
350.699
266.862
590.033
563.406
489.215
484.754
432.339
413.601
461.826
249.76
266.273
233.659
215.635
179.682
161.451
197.587
134.884
42.4124
0.496287
176.286
31.5413
449.722
261.093
0.0209252
0.000838407
14.5738
0.435947
5.39467
188.325
115.377
211.671
196.484
212.667
143.288
160.083
143.162
127.23
530.018
437.664
465.786
389.768
400.062
360.865
433.296
312.73
373.097
397.639
328.091
215.737
300.445
243.912
245.438
183.525
211.489
137.292
144.371
173.872
108.238
207.453
177.949
182.31
133.162
137.405
109.974
105.829
133.011
177.897
203.147
207.27
182.123
137.191
109.776
368.97
270.977
401.113
311.204
277.617
362.042
408.487
7.96311
3.46473e-06
0.0353863
0.000625622
0.172101
96.3973
12.9844
273.234
401.699
364.218
369.47
311.213
278.145
408.07
175.406
164.303
191.42
120.344
78.9229
92.5355
105.397
177.944
167.964
152.141
123.408
107.864
96.3396
81.3333
307.467
208.254
214.793
130.521
214.922
221.557
300.627
219.238
211.873
304.38
308.67
131.744
216.034
222.943
114.592
40.159
144.541
68.1937
43.2174
150.326
109.704
258.029
387.052
349.042
330.262
271.958
239.002
367.029
111.292
66.3606
147.706
114.911
68.9409
43.4941
151.23
404.769
405.51
367.105
362.986
327.017
288.218
322.015
195.269
201.91
287.649
268.831
96.4998
176.192
183.194
156.567
102.416
130.182
61.7351
86.7141
61.7075
39.8753
33.4032
132.584
99.0231
82.9693
42.3253
23.8788
114.891
0.0173006
0.00990713
7.27866
0.00964102
42.5103
0.0164494
6.33707e-06
97.7029
31.1747
79.6162
25.5375
33.6127
83.1662
93.6348
79.7391
31.6731
94.1464
97.6742
25.5648
33.7038
83.07
343.753
225.924
308.871
181.773
267.009
227.596
142.734
35.5017
0.0103028
4.60309e-06
4.26116e-06
0.000221632
5.95784
0.00044792
306.055
246.42
182.612
310.621
213.831
276.476
341.425
25.5488
71.036
84.1007
69.4573
12.4325
17.6081
57.7556
141.1
96.9842
145.683
73.7963
32.4485
69.9816
35.2957
92.9184
70.0263
141.201
96.9239
145.532
73.666
35.2748
149.282
149.996
109.384
109.946
75.6309
43.2023
73.4434
130.987
78.258
92.2779
50.5398
61.9645
32.7615
24.5478
62.4973
16.2332
65.7815
43.7696
6.03123
6.97343
40.874
278.251
359.41
325.253
243.833
223.358
192.396
276.002
244.307
75.9968
121.999
130.084
151.454
214.108
158.992
40.9271
14.7326
62.4916
16.2389
65.6776
43.6981
6.97623
130.863
68.1726
114.674
26.3577
61.3834
48.3759
17.9403
54.7791
6.78362
42.9619
4.21864
34.3525
24.8996
2.18192
51.1131
6.17353
3.51374
23.8918
9.45565
31.6575
41.1305
62.8541
28.035
5.63694
66.6229
13.7261
92.3433
40.9921
145.593
274.333
241.064
199.611
132.162
104.417
231.905
70.7314
61.1071
36.2633
39.4656
19.6853
15.0082
5.93316
49.5382
66.6649
92.7512
32.6631
3.27332
17.2279
9.37278
219.495
183.198
267.666
182.442
59.7873
132.334
100.774
30.4805
106.446
67.4163
16.8448
14.6399
3.24126
39.8087
2.93919
14.6648
28.6002
14.4026
0.207702
0.776238
5.83934
89.3826
97.823
178.472
138.111
13.8113
56.2653
64.6177
20.4008
1.21153
0.160675
3.82004
1.47644
18.3588
4.5365
3.88152
1.2308
18.4622
20.3781
0.161036
1.47788
4.54176
152.021
127.243
27.3113
85.3828
100.213
62.7912
182.607
20.7756
42.1899
52.9688
10.9279
0.863288
1.61687
7.01489
1.43071
40.7205
20.6565
6.48625
1.17261
0.237086
18.8442
42.9403
9.24596
45.8137
8.30646
10.4075
0.567778
0.475398
45.7692
7.13307
9.00071
8.28155
10.3484
0.562823
0.458224
0.75996
2.50095
14.0978
8.62131
0.0366465
0.355132
1.18017
0.802246
9.79438
14.5593
3.89104
0.0714211
0.132583
2.22947
25.5458
4.92514
6.40723
3.44158
2.51087
0.285415
0.131781
29.2375
2.56453
14.7609
0.332217
3.26799
0.846056
0.0808319
39.8657
3.18991
17.0718
0.680582
5.97455
1.08623
0.103224
94.9485
12.1895
7.83752
3.64222
53.1711
27.0665
34.3262
4.90813
0.0419856
1.39525
0.0267423
0.87155
0.213985
0.00641694
14.7097
0.338011
1.27716
0.229311
0.882283
0.0445025
0.0114229
3.8157
0.012347
0.0319656
0.105511
0.124934
1.07283
0.404238
1.01064
0.785684
0.00302856
0.177576
0.104343
0.0300663
5.38203
0.518498
0.0015726
0.0272766
0.00869495
0.0513752
0.0161916
0.278495
0.389533
0.388176
3.89155
0.127966
0.00107495
0.0117579
0.0118088
0.000724638
0.50252
0.0204128
0.594443
0.0236847
0.0198916
0.000859506
0.30606
0.0119235
0.366956
0.0199043
0.000553772
0.0166051
0.00066525
0.0118618
0.297945
0.365139
0.0197426
0.000534931
0.0160259
0.000660149
0.0201361
0.479968
0.587177
0.0234234
0.000690603
0.0190432
0.000848786
0.0102495
0.00321408
0.107296
0.0253982
7.19005e-05
0.00239977
0.000752178
0.184883
0.00261719
0.0840643
0.000324446
0.00982026
0.00440022
0.00014462
0.0063803
0.020651
0.214288
0.032383
9.36606e-05
0.00094988
0.00307469
0.30258
0.00479106
0.142687
0.000425741
0.0117637
0.00534996
0.000195533
0.000860279
0.00713724
0.0280283
0.00146094
1.59151e-05
5.01071e-05
0.000370828
0.00166757
0.0130266
0.0495328
0.00180548
2.37807e-05
0.000471512
7.10957e-05
0.147545
8.91003
29.112
0.000378846
0.774773
15.9129
134.362
36.2398
54.5058
34.4403
105.483
125.546
96.1423
48.1724
28.8095
96.1903
66.235
112.905
82.94
39.5557
21.5003
13.5679
71.8342
38.34
4.22696
31.0597
62.7667
12.0146
2.73006
3.40824
0.344821
0.103703
0.245389
6.89099
2.36122
0.0688677
12.7857
22.0139
50.5487
7.60216
0.530989
1.37016
3.76208
0.0714578
2.43825
4.57434
1.32598
0.016673
0.0375681
0.593384
0.00349937
0.127207
0.0220101
0.494076
0.00209684
0.0139816
0.0773391
0.258562
0.00294048
0.00100047
0.0143313
0.00721096
0.0372957
0.109114
60.1691
27.6085
66.8069
94.392
0.0217464
0.366699
23.7021
29.1513
104.156
104.854
224.143
223.896
69.1388
0.347863
0.00607409
74.774
0.0840889
73.6271
0.508129
0.0610306
38.2407
211.165
61.8257
0.223788
38.4401
215.094
0.0107657
22.5744
220.947
272.693
275.486
228.613
232.032
171.245
167.534
219.761
275.295
271.57
227.559
231.842
171.004
166.345
263.81
252.07
218.809
205.283
197.792
156.647
141.53
0.0432541
0.0692898
8.09553e-06
18.7664
188.152
0.00227492
10.1179
56.9732
157.262
136.672
142.415
61.7839
120.231
45.0551
14.7375
31.8683
3.8879
9.52642e-06
0.0539008
19.5623
0.149334
0.00130166
8.93531
48.1974
0.146645
1.51656e-05
3.98025
0.00289642
236.05
161.012
154.21
186.268
179.009
120.776
94.8308
99.4563
31.3813
123.247
47.3844
99.442
31.3728
17.6494
70.163
92.6986
149.068
72.7323
152.374
95.8302
31.0174
108.692
171.112
175.876
108.059
45.1446
103.614
48.4382
45.7971
104.586
172.075
108.764
176.019
108.236
48.5609
72.4962
152.103
147.843
95.5873
28.4355
91.5896
30.8216
110.796
19.9463
79.9146
62.3075
93.0169
27.3379
11.9274
161.101
79.3066
145.483
38.1115
94.1902
79.6579
28.0587
138.72
50.7737
124.446
23.5038
82.9049
69.6067
16.6212
153.691
129.131
123.304
91.8506
87.6009
65.5386
36.5356
187.943
243.163
39.4398
65.0926
17.0727
180.792
156.638
17.2827
264.14
246.687
217.39
225.166
195.421
193.23
169.942
218.278
165.664
198.739
126.225
162.987
138.018
100.075
220.468
154.512
197.246
114.662
162.062
134.626
87.1323
86.7996
61.8517
130.338
61.7471
129.229
102.49
39.9338
124.662
84.4495
149.919
103.995
78.6733
44.0298
25.8066
28.8869
130.883
83.9495
56.9885
121.654
167.736
101.292
0.206234
0.885844
16.5947
0.394249
9.82365
11.6685
6.03215
5.92665
14.9719
61.0242
19.693
36.2313
96.3395
70.7389
48.1878
42.7716
71.6318
16.1216
1.56895
6.93493
5.35471
59.8672
96.8911
123.936
60.9248
7.32649
40.0547
16.8668
37.0729
81.201
105.037
52.6787
3.82099
34.1028
9.41964
71.6516
16.1312
42.7861
23.7121
6.93821
5.35915
1.57043
3.292
29.9136
9.43833
32.7967
49.7086
92.9507
66.7703
0.123726
0.148694
4.49388e-06
7.51812e-06
0.0112954
7.71917e-07
6.8672e-06
111.755
20.2613
21.2697
53.489
50.9774
13.4636
2.2367
0.0254433
0.2377
0.0840352
2.84269
6.73111
2.84109
0.919181
8.53217
5.65692
40.7321
43.1328
0.428551
6.35657
9.54735
42.9511
0.422164
8.24163
5.41205
39.9548
6.27904
9.46449
0.0134559
0.0321774
0.13364
4.25004
1.14501
2.12926
0.482545
66.3219
5.54956
36.2874
1.90221
20.3907
6.47408
0.29707
54.7711
2.7294
29.2527
0.963916
16.8985
5.17357
0.171405
8.89912
88.4105
46.3712
16.702
46.6267
8.97026
1.1439
5.89038
3.80787
33.6286
24.6263
0.108415
3.2014
2.03355
0.843931
3.25406
29.1703
0.330663
7.93428
2.55765
0.0806004
56.8834
8.57256
36.2759
1.6292
13.9935
5.42912
0.395198
25.7458
1.79902
8.93813
0.307463
1.85329
0.307614
0.0466138
3.1925
0.103305
1.08647
5.98618
0.682793
13.0098
39.9012
18.0967
0.906309
6.96254
0.111766
0.940699
0.219615
0.0235884
0.00607783
0.783925
0.223934
0.00440459
0.163187
0.041555
0.0010927
0.00109155
0.0217231
0.00439918
0.783096
0.0415129
0.223799
0.163006
14.7099
0.0391658
0.337714
0.231347
6.37311
1.22405
0.788609
3.60451
3.76936
5.04357
0.237076
0.233545
0.168886
0.0098762
1.54444
0.401
10.0125
0.769927
0.00223031
0.0754112
0.0223748
2.0319
0.763638
12.9362
0.962671
0.00311994
0.0889617
0.0345827
0.388024
0.0118011
0.127825
0.388919
0.00106778
0.0353475
0.0117331
2.48623
1.71883
14.986
0.937913
0.00489516
0.056725
0.0832049
206.521
209.751
43.5251
41.0295
211.157
208.525
5.8254
5.17363
208.601
119.615
122.082
208.167
209.988
124.083
121.816
209.691
212.167
211.677
126.221
123.464
126.721
123.568
211.61
210.706
211.172
125.807
125.783
126.826
124.429
121.952
121.346
208.529
209.904
209.966
123.639
122.57
44.7549
5.91368
44.7358
5.80822
45.3541
44.122
5.8304
5.49485
5.45615
43.457
44.9661
5.86786
45.2637
5.82739
42.5024
5.28526
4.92174
5.21048
42.3169
43.7333
5.59022
5.21499
42.1578
41.7619
43.4819
5.58576
42.9958
5.59811
4.89324
2.51105
4.39918
1.84022
203.615
207.049
177.875
187.38
120.05
119.793
207.019
203.545
203.48
115.876
115.999
206.474
116.069
119.343
198.276
202.064
114.228
110.184
197.324
186.708
196.986
108.699
98.9083
109.041
98.3977
189.856
183.562
194.693
106.407
90.7859
95.6999
101.784
285.322
250.877
257.162
262.046
304.443
285.483
256.165
232.728
228.449
242.627
247.018
251.032
254.502
262.153
266.014
242.1
269.265
255.988
273.112
262.059
273.342
283.895
281.46
294.619
261.075
265.315
277.25
281.102
298.148
272.988
261.202
270.629
261.976
277.767
280.544
262.917
293.14
285.766
273.528
287.874
311.774
304.007
297.48
264.501
263.765
278.32
285.316
263.193
263.763
291.029
293.758
261.37
286.431
288.947
257.086
261.898
295.531
292.406
258.919
255.099
297.297
261.369
297.008
295.948
4.90931
41.0257
40.8504
38.6658
4.4139
4.37483
38.7587
38.829
4.80774
40.6625
3.65125
37.6677
4.14707
35.3331
29.0498
2.45636
34.4719
3.54998
3.49442
34.673
28.7817
2.75648
2.22927
33.1861
24.7997
3.23709
27.3863
30.607
157.273
16.1493
35.205
188.4
0.857079
61.3776
2.13703
169.338
197.882
109.847
191.513
181.13
103.503
100.448
93.8897
83.5199
73.8692
157.862
181.935
170.955
94.6546
85.0191
174.931
149.046
167.262
72.7723
88.0651
81.5743
66.2843
281.862
258.6
337.762
313.087
272.369
307.349
334.581
278.011
283.678
380.527
1105.38
233.428
311.522
122.959
249.916
194.818
327.631
290.096
276.303
275.676
351.159
209.344
318.566
626.433
512.193
441.211
589.524
930.477
342.194
404.335
282.383
274.356
276.578
321.442
312.341
300.898
307.452
163.025
163.588
309.871
326.279
333.321
331.54
258.752
316.804
303.069
279.15
274.122
276.407
311.829
300.3
293.917
308.067
288.553
306.067
321.531
310.966
318.643
319.205
309.55
290.2
307.579
288.004
305.456
318.406
152.733
324.186
328.519
193.265
315.548
87.0102
257.724
327.581
309.636
287.68
308.682
299.769
315.819
339.853
494.779
331.277
380.011
355.772
467.642
394.981
506.697
662.799
659.223
959.682
1059
666.425
651.793
918.124
320.562
315.762
297.282
321.672
306.64
313.527
317.571
4.05671
98.4864
1.60861
120.257
0.394408
73.217
1.73834
348.636
338.292
343.372
317.217
304.687
320.565
305.725
302.372
344.438
317.053
337.537
342.689
316.553
305.155
630.794
388.274
217.037
540.6
857.782
321.012
409.217
307.631
136.143
59.1499
251.284
353.367
180.564
304.362
328.856
339.611
327.62
339.561
326.646
322.916
320.939
327.901
341.4
339.75
327.517
326.786
322.915
321.594
332.931
324.456
314.671
318.759
343.296
347.668
312.745
383.766
515.183
496.073
401.143
404.244
512.714
507.411
310.078
285.055
307.899
275.356
311.271
287.24
308.7
271.896
309.093
306.987
309.652
275.268
286.885
308.548
324.414
318.529
316.06
310.361
291.36
298.307
307.8
332.804
339.42
334.089
334.035
316.12
315.161
303.892
295.646
346.342
317.087
312.25
314.605
343.218
283.367
486.55
391.695
406.58
378.304
403.739
506.616
471.954
998.944
656.994
665.973
637.754
807.384
617.668
866.269
219.944
44.1128
1.14493
163.067
297.924
56.9374
234.967
263.932
306.79
302.174
298.837
250.822
263.66
291.56
824.911
573.608
702.969
611.582
672.655
555.802
789.736
300.365
262.235
302.814
288.282
238.251
242.095
285.013
312.193
334.486
335.289
305.398
271.901
302.956
275.013
308.817
312.095
335.223
305.34
271.014
302.163
274.903
300.793
262.165
302.822
288.23
238.421
285.37
241.985
328.747
305.325
321.958
282.772
301.477
287.823
268.677
518.335
403.877
507.936
390.867
493.104
474.75
379.334
323.714
343.271
313.362
329.811
299.344
281.441
312.388
200.893
190.386
183.279
113.277
107.204
102.775
96.3084
301.365
296.686
315.782
244.106
332.471
285.143
266.149
301.85
290.906
318.679
263.018
294.561
282.514
250.752
638.857
783.477
613.748
744.382
592.667
562.674
677.924
310.183
285.853
294.578
271.302
280.72
260.344
248.539
162.367
17.9303
37.6011
192.933
204.203
39.7092
77.3284
2.12904
201.631
113.854
203.481
194.983
116.008
106.736
104.697
204.727
194.759
195.915
116.753
117.367
107.683
106.686
284.659
232.613
223.672
255.248
265.999
245.975
275.535
591.387
634.357
694.834
506.012
566.447
532.992
745.605
361.198
378.086
393.177
494.084
431.141
475.945
452.94
293.538
236.163
281.272
229.085
276.912
263.989
214.883
87.3789
185.437
173.171
159.879
75.9783
173.195
87.3997
179.838
164.401
181.938
94.0119
76.7463
92.1951
78.3492
163.005
93.4373
181.061
164.82
182.596
94.6289
78.6788
544.743
707.143
582.461
527.874
544.5
486.708
609.667
271.495
327.495
296.438
257.399
267.062
224.49
292.522
286.167
277.452
261.561
263.993
246.563
237.076
219.995
467.947
395.081
491.214
452.425
342.033
422.341
364.568
264.087
207.679
167.767
223.696
211.991
260.211
228.024
264.097
167.768
224.446
208.021
260.752
211.925
228.1
217.368
243.228
264.164
246.642
169.9
225.165
195.324
276.127
286.881
304.308
266.409
212.374
246.649
234.015
157.634
89.4154
176.12
149.032
168.356
82.8189
66.424
638.651
475.133
537.325
504.51
490.067
439.449
579.623
362.327
406.28
455.191
431.735
295.208
376.749
344.725
295.855
216.415
264.809
239.291
221.834
273.934
181.574
248.438
262.945
274.593
235.397
184.415
201.493
220.772
196.028
231.631
244.197
218.099
144.984
161.22
203.398
661.108
428.712
404.593
719.876
1135.29
636.154
512.2
422.879
318.148
307.465
415.548
478.376
372.819
489.6
362.115
483.23
314.157
367.446
306.891
414.49
477.22
361.112
1124.38
1142.64
655.225
663.418
979.454