/*--------------------------------*- C++ -*----------------------------------*\
  =========                 |
  \\      /  F ield         | OpenFOAM: The Open Source CFD Toolbox
   \\    /   O peration     | Website:  https://openfoam.org
    \\  /    A nd           | Version:  9
     \\/     M anipulation  |
\*---------------------------------------------------------------------------*/
FoamFile
{
    format      ascii;
    class       volScalarField;
    location    "0.0009";
    object      rho;
}
// * * * * * * * * * * * * * * * * * * * * * * * * * * * * * * * * * * * * * //

dimensions      [1 -3 0 0 0 0 0];

internalField   nonuniform List<scalar> 
8205
(
1.65407
1.58495
1.22507
2.06326
1.22529
1.92403
2.90134
2.66339
2.45704
2.87634
2.47582
2.87396
2.89729
2.92452
2.95426
2.54181
2.97322
2.9575
2.90388
2.92379
2.8782
2.78904
2.88505
2.14336
2.91602
2.20025
1.34785
1.32703
2.2822
1.99505
2.90899
2.87667
2.15173
1.31818
2.23021
1.30337
2.73044
1.89642
2.83303
2.03185
1.25947
1.29232
1.77358
1.78233
2.7221
2.82351
1.98946
1.25353
1.27836
1.74376
1.33154
1.22524
1.23193
1.23095
1.23072
1.35273
1.22994
1.29603
1.22676
1.22657
1.22515
1.22867
1.22821
1.262
1.29943
1.17641
2.08162
2.10528
2.52493
1.93437
1.94265
2.80249
1.13423
1.29598
1.32383
1.46378
1.49201
1.64891
1.62432
1.2418
1.41831
1.36724
1.61032
1.54016
1.70259
1.7993
1.84295
2.45098
1.49187
1.87057
1.51411
1.96085
2.46892
1.91903
2.44485
2.43779
2.63421
2.63133
2.14808
2.16722
1.64008
1.94432
1.56056
2.03278
2.65602
2.53365
2.16713
2.00106
2.57829
2.48767
2.72409
2.66451
2.22691
2.34372
2.81283
2.51605
2.74736
2.78693
2.85668
2.52681
2.85205
2.79751
2.90829
2.67326
2.80147
2.87313
2.58118
2.68847
1.58212
1.40697
1.64884
1.91182
2.95478
1.51533
1.33346
1.68294
2.27865
3.04142
1.19585
2.51368
1.08485
0.940756
2.1025
1.84357
1.40497
1.33963
1.25476
1.75477
1.77382
1.70411
1.82351
1.00266
0.940267
0.870056
1.57935
1.63615
1.40194
1.45738
1.24175
1.23262
1.07849
1.81266
1.72282
1.5459
1.64243
1.52397
1.63199
1.47901
1.82308
1.95866
1.89516
1.88458
1.54432
1.33953
1.38009
1.5913
1.57612
1.55491
1.60668
1.03749
0.980544
0.876906
1.37425
1.34999
1.39446
1.41296
1.62198
1.52573
1.44145
1.64371
1.69124
1.70591
1.64877
1.22496
1.06149
1.13417
1.46643
1.53828
1.47146
1.54793
1.98584
2.18649
2.70316
2.01929
2.74188
2.30812
2.2186
2.776
1.93962
2.58486
2.80971
2.13783
1.97927
2.60765
1.81163
1.92916
1.7435
1.77342
1.83718
1.95565
1.70975
2.42224
2.36503
1.82355
1.87641
2.37446
2.43694
1.85296
1.8152
1.7912
2.04155
1.87166
1.99446
1.86148
1.74868
2.0635
2.35312
2.43238
2.82165
2.35797
2.27234
2.1121
2.32876
2.89618
2.20837
2.0564
2.79272
2.67496
2.18358
1.94556
2.59145
2.02243
2.42011
2.4907
1.9175
2.05868
0.311704
1.70244
0.39388
1.44542
1.03506
1.5981
0.912205
1.37027
0.270814
0.49081
0.417555
0.717155
0.623596
0.806503
0.934579
0.294201
0.549337
0.440025
0.745376
0.639133
0.805957
0.893075
1.34112
0.898061
1.18988
0.752547
0.64535
1.02502
1.17954
1.23799
1.52713
1.07973
1.2285
1.76937
1.39932
1.60606
0.870963
1.12474
1.12012
0.735055
0.650218
0.991653
1.02744
1.44909
1.11547
1.05591
1.17764
1.50115
1.5175
1.19424
1.97395
1.45756
1.86013
1.34542
1.83911
1.50637
1.69914
1.76864
1.3549
1.75524
1.27168
1.59345
1.60787
1.26789
0.950613
0.687626
1.85214
1.54118
1.35203
1.45655
1.27372
1.6275
0.456704
0.687405
0.864371
0.947407
1.08651
1.2463
1.17403
1.38725
1.37237
1.01572
1.42712
1.15768
1.22064
1.40979
1.46777
1.23504
1.48799
0.972086
1.08578
1.38839
1.37896
1.46637
1.7526
1.47334
1.54996
1.88503
1.77299
1.58809
1.19555
1.3969
1.35445
1.35697
1.10071
1.28723
1.40119
1.47369
1.56196
1.37058
1.41558
1.53501
1.58231
1.4616
1.81883
1.69527
1.99935
1.5969
1.91608
1.78702
1.64935
1.49032
1.54773
1.6231
1.45547
1.53652
1.60168
1.45643
0.179771
0.613988
0.68062
0.316646
0.172444
1.32185
1.31286
0.633776
0.288829
0.289668
0.167454
0.17554
0.288107
0.297198
0.164723
1.29423
0.634009
1.31388
1.30071
0.621257
0.649086
1.31989
0.309225
0.391391
0.216875
0.16518
0.29003
0.320792
0.174571
0.416444
0.228857
0.171585
0.347864
0.304383
0.184439
0.517027
1.33909
0.7817
1.35969
0.713297
1.34643
0.837526
1.33662
0.662315
1.31772
0.73691
1.31204
0.635878
0.678376
1.3248
0.984487
0.420975
0.845295
0.432195
0.509556
0.244874
0.725476
0.868969
1.32313
1.02719
0.772801
1.33213
0.925124
1.32589
1.225
1.22731
1.22544
1.5381
1.225
1.22501
1.57209
1.22517
2.28437
1.33105
2.11304
1.42234
1.29153
1.23819
1.23277
1.26348
1.85944
1.32234
1.23928
1.25945
1.22864
1.22634
1.22508
1.22615
1.25721
1.22625
1.2438
1.22564
1.22504
1.22908
1.22501
1.22513
1.22501
1.22508
1.22748
1.22525
1.225
1.225
1.22504
1.22546
1.22621
1.22511
1.22504
1.22552
1.22501
1.22794
1.23341
1.22527
1.22502
1.22509
0.139167
0.52249
0.11638
0.161802
0.182909
0.124521
0.127933
0.244994
0.331546
0.135907
0.124849
0.127885
0.135906
0.132267
0.117882
0.121756
1.04429
0.273317
0.114662
0.441422
0.136543
1.06197
0.721132
0.130524
0.13335
0.121263
0.125484
0.129883
0.116552
0.115671
0.120572
0.142603
0.156698
0.125855
0.123194
0.122051
0.129089
0.11942
0.12508
0.14831
0.128242
0.213456
0.136254
0.188872
0.121496
0.164469
0.145932
0.116815
0.120712
0.122736
0.127218
0.119183
0.112317
0.111927
0.120117
0.1236
0.136541
0.166537
0.124886
0.120816
0.155009
0.13019
0.249784
0.141242
0.1991
0.290358
0.642486
0.545919
0.154437
0.356991
0.171683
0.302186
0.258489
0.638324
0.554783
0.160525
0.415247
0.189893
0.319806
0.204633
0.440728
0.231678
0.116706
0.141265
0.149516
0.246961
0.286225
0.142344
0.387503
0.171933
0.233122
0.336449
0.649948
0.145678
0.403076
0.184319
0.499969
0.229273
0.338906
0.640046
0.741921
0.551556
0.252863
0.93014
0.710015
0.509026
0.808473
0.502931
0.923975
0.781561
0.589399
0.290799
0.520101
0.804694
0.810778
0.79095
0.484772
0.620141
1.1014
0.913908
0.899132
0.91002
1.22088
1.04927
0.786085
1.15449
0.994649
0.986227
1.225
1.22503
1.225
1.225
1.225
1.22502
1.225
1.225
1.225
1.225
1.225
1.225
1.22501
1.225
3.26008
1.54057
1.22629
1.225
2.6978
1.225
3.30529
1.225
1.22501
1.225
1.225
1.74654
1.2262
1.22522
1.22511
1.22501
1.225
1.22511
1.42428
1.22716
2.79224
1.22689
1.4106
2.81365
3.23752
1.89482
1.2252
1.22502
1.22517
1.22502
2.47368
1.53194
1.35147
2.88682
3.15595
3.23617
2.23594
1.23628
1.22507
1.22501
2.28227
1.44516
1.24145
1.38628
1.22501
1.225
3.67597
2.35275
1.24048
1.22501
1.22676
3.32078
1.41364
1.27385
1.22501
1.225
1.22501
1.225
1.37494
1.22627
1.22899
1.225
1.22502
3.22899
1.70056
1.22817
1.22502
1.225
1.32769
1.22579
1.22503
1.23186
1.225
1.225
2.98994
2.79071
2.99336
3.13026
3.13219
3.10521
3.14984
3.01134
2.7931
2.99733
3.12651
3.13077
3.0958
3.14724
1.22581
1.22502
1.62341
1.225
1.225
1.23434
1.22514
3.06203
3.01053
3.14163
3.12357
3.05715
2.98813
3.10268
2.91827
3.12075
3.28757
3.23549
3.35233
3.37481
3.41719
3.27545
3.29508
3.29279
2.99352
2.11588
2.95186
2.17523
1.40851
1.225
1.22595
1.225
1.225
1.22505
1.225
1.22501
1.225
1.225
1.22885
1.27128
1.225
1.225
3.28067
3.28413
3.29114
2.98139
2.05501
2.15054
2.9238
3.14623
3.221
3.21011
2.82525
2.77926
2.48673
3.01301
2.53661
2.59562
1.9456
1.37116
1.38839
1.27548
1.26998
1.86454
2.57172
1.93487
1.35477
1.38174
1.27443
1.2671
3.27984
3.0045
3.27406
1.87716
2.81314
2.60614
1.6412
1.69468
1.5787
1.73819
1.25639
1.24121
1.25275
1.24371
1.68031
1.57589
1.73353
1.25595
1.24069
1.24353
1.25149
3.41686
3.35568
3.50541
3.04118
3.44398
3.13934
2.02125
2.70736
3.0899
3.22772
2.26867
1.29774
1.83767
1.42637
1.72496
1.99211
1.53668
1.31221
1.25397
1.27202
1.24013
1.57028
1.3442
1.42236
1.23546
1.24299
1.2341
1.23032
3.12273
3.04497
2.81237
2.31153
1.98869
1.50402
1.74096
1.22508
1.225
1.225
1.22516
1.225
2.34378
1.23613
2.35538
1.32594
2.58936
1.44811
2.29617
1.33906
2.64416
2.34297
1.4445
1.31787
2.55654
1.33624
2.25815
2.63638
3.33515
1.97819
3.21065
2.51716
1.48848
1.34684
2.88456
3.43018
3.1233
3.4407
2.91601
2.11938
1.7534
3.17402
2.24964
2.15658
1.38399
1.72786
1.30057
1.2883
1.23183
1.28794
2.39763
2.09385
1.85288
1.29432
1.25966
2.14773
1.37829
1.40261
1.282
1.23201
1.2332
1.2274
1.22704
1.40151
1.27303
1.2818
1.23186
1.23316
1.22739
1.227
1.83124
1.26323
1.29232
1.24471
1.2602
1.22786
1.22655
1.27482
1.25307
1.3079
1.22854
1.2256
1.22607
1.22707
1.65053
1.27097
1.36329
1.23144
1.245
1.23088
1.2268
2.7562
1.3583
2.14894
1.24641
1.4568
1.28259
1.22974
1.28005
1.25793
1.24229
1.22957
1.22733
1.2263
1.22563
1.49743
2.51428
2.15873
1.28609
1.24811
1.23527
1.3535
1.76144
1.28544
1.24827
1.22745
1.71443
1.25127
1.29286
1.57692
1.25668
1.50199
1.23019
1.36521
1.2402
1.82473
1.60322
1.42237
2.74533
1.74457
1.22646
1.27058
1.24691
2.41923
2.45309
3.32558
2.13917
1.23231
1.33268
1.33067
1.23864
1.26058
1.54883
1.40913
1.22558
1.23193
1.24388
1.225
1.225
1.225
1.225
1.22501
1.225
1.225
1.74723
1.22734
1.24589
1.27829
1.2504
1.28995
1.6752
1.27712
1.24107
1.23299
1.22915
1.22707
1.2256
1.22515
1.52158
1.25124
1.22571
1.27917
1.24907
1.23625
1.80258
1.24826
1.22687
1.2315
1.22524
1.22587
1.22522
1.22506
1.93839
1.31419
1.34046
1.27591
1.26466
1.22684
1.22954
1.23527
1.22654
1.23721
1.22545
1.22504
1.22505
1.22537
1.30658
1.22522
1.22752
1.22591
1.25499
1.22781
1.23272
1.23509
1.22654
1.23718
1.22544
1.22504
1.22537
1.22505
1.27773
1.25188
1.53044
1.23653
1.22511
1.22665
1.22583
1.314
1.22643
1.26902
1.23586
1.22571
1.2253
1.24853
1.23185
1.22569
1.22627
1.22513
1.22524
1.22504
1.22502
1.23694
1.23524
1.22724
1.22664
1.22541
1.22532
1.22507
1.225
1.225
1.225
1.225
1.225
1.22547
1.22501
1.22506
1.225
1.225
1.225
1.225
1.225
1.225
1.23109
1.22522
1.23186
1.22709
1.22506
1.22684
1.22507
1.22521
1.23038
1.23159
1.22705
1.22506
1.22507
1.22671
1.23152
1.22537
1.22819
1.22503
1.22523
1.22511
1.22501
1.35337
1.22573
1.23762
1.22532
1.23032
1.22546
1.22502
1.22847
1.22504
1.22505
1.22611
1.22673
1.22554
1.22502
1.22626
1.22561
1.22504
1.22502
1.2261
1.22504
1.22571
1.22624
1.22502
1.22503
1.22559
1.22504
1.2257
1.22604
1.27942
1.2251
1.22509
1.22521
1.22862
1.22869
1.22669
1.24965
1.2251
1.228
1.22507
1.22735
1.22523
1.22501
1.23419
1.22506
1.22566
1.22503
1.22533
1.22502
1.225
1.38894
1.22535
1.22545
1.2329
1.23107
1.22524
1.22501
1.22502
1.22538
1.22567
1.22533
1.22501
1.22501
1.22519
1.22502
1.2252
1.22566
1.2252
1.225
1.22506
1.22501
1.22525
1.22501
1.2253
1.22508
1.225
1.225
1.22507
1.22501
1.22525
1.22529
1.22508
1.225
1.225
1.22507
1.22704
1.22568
1.22501
1.22512
1.22528
1.22505
1.2296
1.22565
1.22522
1.23349
1.22686
1.225
1.22505
1.22513
1.22513
1.22531
1.22617
1.22504
1.225
1.22501
1.225
1.22505
1.22574
1.22637
1.2251
1.225
1.22505
1.225
1.22763
1.22527
1.22985
1.22518
1.22501
1.22501
1.2251
1.225
1.225
1.225
1.225
1.225
1.225
1.225
1.22516
1.225
1.22508
1.225
1.22504
1.22502
1.225
1.225
1.225
1.225
1.225
1.225
1.225
1.225
1.22512
1.225
1.22502
1.225
1.22503
1.225
1.22507
1.22603
1.22501
1.22525
1.225
1.22504
1.22501
1.225
1.22528
1.225
1.22507
1.225
1.22502
1.225
1.225
1.22503
1.22672
1.22531
1.22501
1.22505
1.22501
1.225
1.22503
1.22818
1.22629
1.22505
1.225
1.225
1.22513
1.22506
1.23012
1.22708
1.22506
1.22501
1.225
1.22516
1.22505
1.22501
1.225
1.225
1.225
1.225
1.225
1.22531
1.225
1.225
1.225
1.22504
1.22501
1.22502
1.22502
1.22509
1.22517
1.22501
1.225
1.225
1.225
1.225
1.22501
1.22503
1.22501
1.225
1.225
1.225
1.225
1.22501
1.22517
1.22501
1.225
1.225
1.225
1.22505
1.225
1.22501
1.225
1.22501
1.225
1.225
1.22503
1.22501
1.22502
1.225
1.225
1.225
1.225
1.225
1.22501
1.22517
1.22501
1.225
1.225
1.225
1.22501
1.225
1.225
1.225
1.225
1.225
1.22501
1.22501
1.225
1.225
1.225
1.225
1.22501
1.225
1.22501
1.22501
1.22527
1.22501
1.225
1.225
1.225
1.225
1.225
1.225
1.225
1.225
1.225
1.225
1.225
1.225
1.22501
1.225
1.225
1.225
1.225
1.225
1.225
1.22501
1.225
1.225
1.225
1.225
1.225
1.225
1.22504
1.225
1.225
1.225
1.225
1.225
1.225
1.22501
1.225
1.225
1.225
1.225
1.22502
1.225
1.225
1.225
1.225
1.225
1.225
1.22501
1.225
1.225
1.225
1.225
1.225
1.225
1.22501
1.225
1.225
1.225
1.225
1.225
1.225
1.225
1.225
1.225
1.225
1.225
1.225
1.225
1.225
1.225
1.225
1.225
1.225
1.225
1.225
1.225
1.225
1.225
1.225
1.225
1.225
1.225
1.225
1.225
1.225
1.225
1.225
1.225
1.225
1.225
1.225
1.225
1.225
1.225
1.225
1.225
2.30987
3.37551
2.27514
2.35029
2.37779
3.77281
3.33189
1.22511
2.15117
1.22685
1.22501
3.50595
1.77133
2.01639
2.18692
1.65749
3.49681
2.27733
2.47402
2.13448
1.876
2.11607
2.91179
1.84511
2.48252
3.51138
1.81334
2.06077
2.84731
3.38866
1.87139
2.71816
2.38568
2.20449
1.9449
1.56458
2.64442
2.82753
2.40039
1.25679
1.25741
1.94443
2.85335
2.75059
2.63584
1.90323
1.24594
2.00274
2.87427
1.22603
1.38509
2.50097
2.80814
2.21503
2.18322
1.9829
2.2747
2.73623
2.69771
2.30433
1.97818
2.17636
1.97209
2.26199
2.69469
2.26075
2.68728
1.97698
2.09963
1.93766
2.58266
2.80491
2.77163
2.60505
2.09672
1.96356
1.93657
2.58472
2.78506
2.59916
2.76884
1.70804
1.68092
1.74124
1.92664
1.83531
1.95335
1.80947
1.72756
1.66452
1.72799
1.91326
1.78758
1.91072
1.79414
1.85336
1.82418
1.84345
2.42209
2.37564
2.36632
2.43657
1.86806
1.82415
1.84383
2.42457
2.37626
2.4358
2.36832
2.26864
2.34902
2.10954
2.81606
2.35445
2.4291
2.9494
1.74731
1.79009
1.85992
1.87005
1.99243
2.03973
1.91035
2.05382
2.32394
2.18025
2.891
2.67194
2.78948
3.03603
3.74395
3.09435
1.34072
3.08272
3.12196
1.9173
3.03429
1.23224
1.22529
2.51117
1.31624
2.02231
3.22155
2.66707
1.91774
2.02249
2.05759
2.42101
2.48998
2.59017
2.51404
1.8317
1.95875
1.90703
2.09848
2.01659
2.1801
1.95619
2.48879
2.27471
2.17479
2.53948
3.35535
2.69495
3.13446
2.52378
2.6392
2.37281
2.94183
3.46412
3.23676
3.0995
1.9208
2.1701
2.15081
2.44682
2.43974
2.6331
2.63598
2.44734
2.17069
1.94005
1.9211
2.15264
2.44105
2.63344
2.14699
2.55124
1.98763
2.28192
2.5213
2.17538
1.96259
2.16967
1.225
1.23611
1.22522
1.26499
2.74106
2.43942
2.51349
1.94717
2.13322
2.13448
2.27483
2.51176
1.95103
2.17734
2.45594
2.22294
2.72706
2.7712
2.85836
2.6485
2.1067
2.22968
2.34599
2.4895
2.57951
2.66614
2.72503
2.66342
3.09092
3.28517
3.51313
3.07066
3.26428
2.69673
3.25208
3.05609
2.64747
2.64976
3.51411
3.06243
3.257
3.00487
2.88623
3.33749
3.40863
2.92825
3.33269
2.99531
2.61752
2.03229
2.22507
2.29947
2.48973
2.72484
2.09701
3.00484
3.39504
3.33375
3.01101
3.41814
2.93784
3.33621
2.02684
1.98865
2.12925
2.11388
2.30551
2.49567
2.2778
3.14263
3.34176
2.761
2.86071
3.5188
3.22483
3.4345
2.27087
2.72673
2.52382
2.77605
2.69371
2.77896
2.76611
2.81443
3.38135
3.01097
3.04611
3.25118
2.67932
3.45765
1.23012
1.22801
2.07041
1.22793
2.88397
1.22988
1.225
2.77716
2.62491
2.68626
2.5168
2.6643
2.69537
2.76713
2.68565
2.63821
2.76718
2.77794
2.51863
2.66825
2.69507
2.42102
3.37482
2.62105
3.5603
2.89208
3.10334
3.68869
2.83157
1.22817
1.225
1.225
1.22508
2.02124
1.22516
2.40738
2.64272
3.05597
2.32667
2.87515
2.55895
2.19008
2.55115
2.69265
2.77759
2.80511
2.21336
2.41201
2.71249
2.52976
2.85806
2.51889
2.8134
2.74553
2.80294
2.7858
2.85583
2.80332
2.53255
2.8593
2.52122
2.81295
2.78617
2.96069
3.60918
3.24835
3.64126
3.19945
3.1737
3.68582
2.73847
2.86939
2.96729
2.82132
2.92356
2.85384
2.67674
2.68738
2.33288
2.69822
2.70415
1.89625
1.96253
2.68039
2.55524
2.12091
2.29498
2.76024
2.87354
3.08524
2.53268
2.98881
3.49316
3.37225
3.62112
3.31357
3.13707
3.54298
2.68225
2.28332
2.68678
2.33439
2.69732
2.70347
1.96386
2.58395
2.90859
2.69031
2.67115
2.80184
2.79723
2.52178
2.68067
1.94025
2.66773
1.76465
2.63554
2.54902
1.57452
2.81208
1.91534
1.72953
2.57426
2.12745
2.73306
2.70228
3.06425
3.05604
1.94577
3.5248
2.40109
3.52371
3.01441
3.2161
2.52318
2.75724
3.00527
3.2659
3.29806
2.78432
2.86328
2.87075
2.75173
2.85439
2.56803
2.44957
1.98567
2.91124
2.89685
2.81662
2.73539
1.74637
2.51269
2.20339
3.16893
3.63497
2.88063
3.31466
3.53019
3.45836
3.69167
3.18731
3.81938
3.37458
2.73643
2.7722
1.79138
3.48799
1.65705
2.35784
2.59454
2.34049
1.27229
1.37771
1.93247
3.36856
3.63281
3.29126
3.40728
2.5506
3.25882
3.53179
2.51465
1.44427
1.26299
1.7659
1.48478
2.45694
1.83496
1.77352
1.44813
2.463
2.51498
1.2631
1.48543
1.83627
3.24479
3.32789
2.84673
3.30983
3.35475
3.22472
3.09324
2.76302
2.89503
3.036
2.34358
1.40956
1.54075
2.07565
1.49471
3.38158
2.73748
2.07292
1.47281
1.28194
2.90836
2.89028
2.2126
2.91687
2.14195
2.28337
1.34782
1.32936
2.91542
2.05821
2.19553
2.13915
2.27846
1.3466
1.32579
1.37262
1.62905
2.33165
2.09941
1.23523
1.3009
1.4508
1.38473
2.18389
2.42105
1.79685
1.24378
1.25769
1.60778
2.72817
1.89131
2.02689
1.76945
1.65024
1.29148
1.25909
2.77976
1.68236
2.50051
1.30398
1.74683
1.4066
1.24762
2.87006
1.76218
2.58296
1.37458
1.98937
1.44924
1.25332
3.42686
2.48815
2.12284
1.79111
3.28896
2.90557
3.21445
1.86594
1.23651
1.48921
1.23265
1.40349
1.27601
1.22702
2.48511
1.30619
1.48175
1.28144
1.40975
1.23791
1.22863
1.76786
1.22875
1.23407
1.25268
1.25572
1.4373
1.31501
1.43992
1.40726
1.22607
1.27372
1.25466
1.23416
2.05234
1.3399
1.22553
1.23304
1.22767
1.23971
1.22984
1.28972
1.32023
1.32013
1.83817
1.25919
1.2254
1.22885
1.22887
1.22525
1.33499
1.23099
1.35333
1.23194
1.23089
1.22529
1.29402
1.22858
1.30639
1.23087
1.22519
1.22995
1.22523
1.22856
1.29228
1.30591
1.23082
1.22518
1.22979
1.22522
1.2309
1.33034
1.35159
1.23186
1.22523
1.23065
1.22529
1.22824
1.22606
1.25309
1.23257
1.22503
1.22582
1.22526
1.26944
1.22586
1.24747
1.22511
1.22804
1.22644
1.22505
1.22702
1.23125
1.27603
1.23458
1.22503
1.22533
1.22606
1.2952
1.22655
1.26163
1.22515
1.22862
1.22674
1.22507
1.2253
1.22731
1.23326
1.2255
1.225
1.22502
1.22513
1.22557
1.22912
1.23928
1.22562
1.22501
1.22517
1.22502
1.25397
1.94364
2.47989
1.22512
1.35854
2.28665
2.44566
2.68874
2.57261
2.52318
2.60684
2.48015
2.63415
2.55947
2.48032
2.60895
2.71448
2.53667
2.67604
2.53606
2.39756
2.22509
2.72219
2.69488
1.74922
2.64444
2.72855
2.16685
1.61898
1.63968
1.28414
1.24664
1.26919
1.85078
1.55093
1.24023
2.30182
2.53892
2.72756
1.97487
1.33092
1.46182
1.71861
1.2408
1.56009
1.72077
1.43874
1.22915
1.23381
1.33271
1.22599
1.2526
1.23033
1.31513
1.22561
1.22852
1.24309
1.27585
1.22585
1.2253
1.22893
1.22693
1.23444
1.24939
2.96015
2.9703
3.15595
2.90535
1.23039
1.30649
2.60181
2.72616
2.8757
2.87795
1.98097
1.98266
2.87416
1.30259
1.22665
2.71656
1.2433
2.57642
1.3082
1.23885
2.54611
2.08475
2.86681
1.2778
2.93943
1.9815
1.22841
2.66215
1.99897
1.49239
1.47657
1.88522
1.86463
2.53494
2.54387
2.0111
1.47897
1.50328
1.89395
1.86543
2.53369
2.54804
1.552
1.63185
1.96804
2.10401
2.21675
2.60546
2.71358
1.23814
1.24608
1.225
2.67882
2.31278
1.22578
2.26801
2.57684
2.31022
2.42463
2.38377
2.57601
2.5121
2.56492
2.49962
2.88967
1.83782
1.225
1.24101
2.70726
1.26784
1.22539
2.15104
2.74881
1.26179
1.225
1.78654
1.2259
1.7637
2.58629
2.64725
2.31368
2.40967
2.85266
2.98456
2.61949
2.51541
2.48717
2.56667
2.61981
2.5155
2.34924
2.87565
2.91225
2.6456
2.88727
2.64462
2.91966
2.75908
2.87794
2.47907
2.4598
2.90254
2.92382
2.89903
2.95373
2.9313
2.9
2.47744
2.87983
2.4618
2.90438
2.95586
2.88612
2.64415
2.65132
2.91844
2.71366
2.91238
2.75487
2.57637
2.38259
2.70857
2.74404
2.65534
2.48212
2.1777
2.54476
2.95805
2.66534
2.87711
2.92513
2.97369
2.78717
2.69304
2.85812
2.77482
2.6383
2.92597
2.95267
2.48868
2.71989
2.86635
2.88989
3.06264
3.05934
3.06039
2.9935
2.02228
1.46805
2.85429
2.98348
2.58314
2.29644
2.27014
2.51432
1.36066
1.49741
1.72841
1.652
1.96262
1.93534
2.21396
1.67427
2.32854
1.92405
2.61666
2.24806
2.53756
2.83524
1.77981
2.57665
2.01763
2.8148
2.36989
2.62999
2.95568
2.69346
2.77892
2.5225
2.77617
2.50096
2.72651
2.76652
2.75414
2.88945
2.48703
2.8642
2.99194
2.93044
2.79839
2.87221
2.75681
3.04447
3.00429
2.86084
2.37011
2.86928
1.26345
1.35924
2.1819
1.29173
1.98324
2.04848
1.81269
1.98522
2.44835
2.87061
2.56832
2.75161
2.74129
2.86347
2.74899
2.73552
2.72579
2.31098
1.49626
1.95344
1.84828
2.99243
2.97755
2.82485
3.00661
2.13811
2.9615
2.57884
2.81304
2.96911
2.87899
2.95694
1.79926
2.88251
2.20379
2.72532
2.31105
2.73517
2.60175
1.95359
1.84852
1.49646
1.74846
2.80941
2.20705
2.73656
2.912
2.81614
2.89718
1.26069
1.26774
1.225
1.225
1.229
1.225
1.225
3.03438
2.80487
2.83589
3.11267
3.09346
2.55661
1.66967
1.23127
1.26832
1.24329
1.59951
1.84999
1.59941
1.38523
2.16834
1.94208
2.88513
2.91121
1.31901
2.00023
2.23372
2.90831
1.31749
2.1475
1.92053
2.87602
1.99242
2.22692
1.22842
1.23265
1.25187
1.70338
1.41471
1.53304
1.31478
3.06294
2.02277
2.99121
1.59465
2.72996
2.1101
1.30012
2.99883
1.69054
2.87674
1.42604
2.60766
1.97975
1.26915
2.27978
3.00557
3.0506
2.68066
3.02863
2.27675
1.47715
1.98493
1.77892
2.82235
2.72024
1.25327
1.74008
1.58255
1.40622
1.74527
2.77881
1.30364
2.16767
1.68147
1.24756
3.00085
2.26157
2.94851
1.55595
2.50821
2.00307
1.32229
2.63223
1.54972
2.15115
1.29093
1.5328
1.29096
1.2376
1.76257
1.25335
1.4493
1.99038
1.37503
2.44081
2.87057
2.48525
1.40749
2.02605
1.25202
1.40129
1.27366
1.23164
1.22666
1.36441
1.27076
1.22624
1.25953
1.23553
1.22533
1.22533
1.23039
1.22624
1.36429
1.23552
1.27074
1.2595
2.4896
1.23629
1.30595
1.2814
2.05653
1.47181
1.39002
1.86107
1.88404
2.03631
1.29065
1.28958
1.27298
1.2285
1.54919
1.32056
2.34724
1.40268
1.22581
1.24765
1.23205
1.63634
1.40285
2.52961
1.44438
1.22614
1.25167
1.23592
1.3201
1.22887
1.25916
1.3201
1.2254
1.2361
1.22885
1.70491
1.58218
2.6016
1.43638
1.22677
1.24245
1.24995
2.01988
1.98744
2.5044
2.48899
1.96639
2.01398
1.7587
1.72881
2.00463
2.55748
2.58278
1.99815
1.9842
2.57638
2.55167
1.98232
1.95668
1.95973
2.56123
2.5383
2.54852
2.54331
1.94847
1.99487
1.96603
2.58903
2.58926
2.56614
2.61057
2.61392
2.62989
2.03112
2.02696
2.00097
2.61024
2.62781
2.54275
1.75841
2.54278
1.76443
2.53653
2.54429
1.75892
1.73098
1.72756
2.50127
2.52925
1.75308
2.52549
1.75308
2.49825
1.72012
1.69879
1.72145
2.51886
2.52546
1.74347
1.72795
2.53554
2.53791
2.54065
1.7552
2.54074
1.75098
1.70425
1.53098
1.66536
1.46834
2.05298
2.03055
2.2111
2.18263
2.59629
2.6059
2.03654
2.06188
2.06271
2.57918
2.58452
2.03267
2.56216
2.57733
2.09594
2.0732
2.57193
2.56667
2.11168
2.18285
2.11411
2.57755
2.58644
2.58227
2.58053
2.1518
2.19153
2.12754
2.57313
2.57247
2.5739
2.57165
0.70964
1.59561
1.49627
1.22772
0.240181
0.201906
0.167589
0.159866
0.159694
0.165192
0.166025
0.286068
0.289545
0.31048
0.316074
0.161698
0.17799
0.169444
0.326143
0.300838
0.331696
0.364822
0.197574
0.428965
0.176374
0.178264
0.352268
0.361836
0.445524
0.628658
1.22081
0.620437
1.28325
0.670795
0.684499
1.29612
0.213735
0.197635
0.184197
0.386292
0.564343
0.486211
0.435787
1.31318
1.25621
0.654055
0.720874
1.3921
1.33148
0.786115
0.892851
1.37955
0.760356
0.780613
1.51207
1.39527
0.918732
0.826264
1.48641
1.54578
1.04987
1.43053
0.971377
0.903364
1.70358
2.51256
2.51541
2.47743
1.66891
1.66544
2.48063
2.47087
1.69392
2.49826
1.61543
2.46398
1.64951
2.4402
2.38504
1.52514
2.43617
1.61015
1.60528
2.44012
2.37877
1.54915
1.50446
2.42055
2.3225
1.58586
2.35712
2.39446
2.31086
2.16836
2.43468
2.14664
1.35461
2.55435
1.49675
2.23838
2.09064
2.55873
2.13468
2.18031
2.56485
2.5586
2.56117
2.56629
2.55947
2.28224
2.18158
2.22342
2.56744
2.56094
2.21527
2.34075
2.24441
2.57005
2.56244
2.5609
2.56491
0.240704
1.49248
1.631
0.30087
1.40165
0.507937
1.63417
0.237294
1.39485
1.95324
1.47694
1.69867
0.63213
2.99312
1.54075
2.11686
1.72076
0.299331
1.46659
2.09856
1.03578
1.82152
0.952367
1.43944
1.52191
0.68436
1.76835
1.58213
2.15441
1.25651
0.214327
0.215069
0.19254
0.571884
0.493839
0.426193
0.494885
2.47229
2.47396
1.2156
0.832992
0.997238
0.479437
1.47876
0.559203
0.479887
0.210032
0.2145
0.191744
0.490747
0.422702
0.228465
0.25939
0.204407
0.455835
0.640288
0.522121
0.581917
0.633746
0.289247
0.222836
0.257035
0.203073
0.452207
0.579529
2.5368
0.940335
1.06864
1.93558
1.02986
2.95536
1.51843
0.702326
0.609319
0.26101
0.466148
0.399489
0.80019
0.916287
1.10445
0.43529
0.929248
0.648012
0.864786
1.16008
1.29239
0.983468
1.20855
1.52705
1.50908
1.07148
1.30399
1.56151
0.748115
0.380993
0.281084
0.548244
0.427867
0.807151
0.908227
1.6431
2.57234
1.44606
2.51162
1.29174
2.57851
1.45934
1.09649
1.57862
1.00647
0.873816
1.45386
0.95098
1.40268
1.45651
1.08359
0.940125
1.57774
1.00196
0.870541
1.40144
1.73866
2.02272
3.52157
1.80517
1.63142
2.38051
1.46633
1.96131
3.87311
2.99044
2.42208
1.27313
2.12295
1.0837
0.469554
0.72544
0.419981
0.673287
0.776409
1.00731
1.05182
0.422922
0.726068
0.672224
0.832601
0.776495
1.00442
1.0417
0.732837
0.915601
0.639597
1.03681
1.37958
1.17768
1.23411
0.94544
1.37093
1.11471
1.5771
1.41292
1.49129
1.63129
0.879361
1.39145
1.0341
1.37347
0.947619
1.35093
0.981087
1.4132
0.941426
1.03828
0.877803
1.37473
1.35057
0.981487
0.75634
0.901151
0.657035
1.01226
1.16403
1.1661
1.06016
0.58051
0.837558
0.736368
0.956495
1.05248
1.12293
1.18401
1.54486
1.23127
1.07827
1.24118
1.81007
1.40521
1.64085
1.82085
1.89292
1.47723
1.95624
1.63012
1.64707
1.88257
1.54307
1.32397
1.1877
1.4133
1.64247
1.52442
1.60046
1.78244
2.93121
1.47733
2.24766
1.11724
3.00368
1.72559
1.47164
1.06212
1.1349
1.19614
1.53839
1.54766
1.22546
1.58089
1.64175
1.64737
1.5238
1.6902
1.70423
1.6211
1.17691
1.46429
1.13487
1.29658
1.65031
1.62561
1.32424
1.19692
0.987862
0.950853
1.21472
1.4657
1.23318
1.45034
1.2274
1.20042
0.954097
1.21853
1.4761
1.24656
1.4528
1.16493
1.46139
1.13194
1.29277
1.64074
1.30973
1.62369
0.910754
1.11704
1.04988
1.20804
1.13363
1.23599
1.3177
1.55003
1.58247
1.64352
1.67448
1.70878
1.77237
1.8034
1.14422
1.43469
1.31128
1.52368
1.38612
1.59161
1.71265
2.06977
2.1367
2.17853
2.55138
2.56534
2.56026
2.56945
1.38342
1.91529
1.67165
1.96442
1.5453
1.52088
1.76231
1.27069
1.32268
1.13351
1.52314
1.29053
1.33889
1.5998
1.45829
1.67803
1.57137
1.68387
1.61887
1.68646
1.72004
1.08542
1.20472
1.22374
1.27626
1.29357
1.48246
1.45775
2.29793
2.21513
2.45404
2.12297
2.04253
2.47241
2.58576
1.49938
2.05982
2.55306
2.04193
2.10997
2.54999
2.56
2.55846
2.03318
2.11383
2.10443
2.54641
2.54734
2.5609
2.56
1.30464
1.63983
1.84163
1.40423
1.41943
1.65364
1.30647
1.60889
1.73061
1.70047
1.80688
1.68234
1.76008
1.66166
2.02446
1.81263
1.73067
1.74121
1.99019
1.80139
1.93233
1.24222
1.61107
1.29999
1.70418
1.3678
1.41921
1.80104
2.57403
2.16823
2.22938
2.294
2.57572
2.22922
2.57399
2.19844
2.29661
2.19182
2.57292
2.57934
2.56727
2.58734
2.30144
2.57286
2.1964
2.2963
2.18905
2.57587
2.59081
1.70769
1.71553
1.65057
1.73617
1.76925
1.78992
1.74572
1.8622
1.63685
1.52424
1.91929
2.52599
2.4452
2.02723
1.20725
1.24137
1.32411
1.36577
1.46964
1.52681
1.72972
1.81397
1.72097
1.71571
1.8638
2.35574
1.99547
2.02567
1.49293
1.96377
2.45406
1.87325
1.93701
1.51521
1.84525
1.49028
2.45691
1.86754
1.96103
1.50432
1.93777
1.84524
1.7291
1.46822
1.36117
1.49836
2.21467
1.65259
1.96411
1.39515
1.26008
1.18574
1.40853
1.94688
1.5367
1.72726
2.32194
2.56884
2.21771
2.36249
2.2562
2.57332
2.57828
1.73379
1.85325
1.73688
1.78194
1.84816
1.91492
1.76278
1.93885
2.08186
1.86057
1.94971
2.71312
2.21739
2.16039
1.85364
2.29467
1.71949
2.05045
2.91732
2.16661
2.75946
1.73913
1.39245
1.41964
1.7945
2.25763
2.30601
1.76328
2.15265
1.58064
1.6017
1.92134
2.50899
2.56652
1.89549
0.903943
0.579206
1.80531
1.54828
1.44891
1.37827
1.4029
0.579802
0.34506
0.308831
0.532007
0.897266
0.792241
0.959237
0.699275
0.966795
0.340419
0.778851
0.308106
0.533146
0.898903
0.695823
1.39963
1.40823
0.884452
1.08898
1.44211
1.10993
1.45359
0.923877
1.13984
1.49709
1.42445
0.890749
1.09835
1.47161
1.32641
1.34136
1.71882
1.76854
1.38146
1.69289
1.25556
1.75241
1.82126
1.33789
1.33155
1.77185
1.70181
1.25344
1.32564
1.48457
1.54647
1.55588
1.33787
1.54065
1.49436
1.54265
1.58927
1.60486
1.33755
1.57392
1.55275
1.51325
2.3537
2.54398
2.4667
2.39076
2.28886
2.55897
2.55891
2.03586
1.9472
1.5619
1.64167
2.65817
2.1698
2.08426
2.56475
2.38355
2.57593
2.42435
2.31
2.57645
2.57684
1.39405
2.06375
1.61363
2.29055
1.76198
2.12657
2.71288
1.64921
1.57473
2.40846
2.46499
1.66932
1.59348
2.42242
1.67925
1.60034
1.67117
1.58933
2.46892
2.42288
2.42983
1.61382
1.54076
2.38236
1.56255
1.49175
2.40264
2.34153
1.55881
2.45226
2.3998
1.50979
1.59407
2.42774
2.36444
1.83736
1.85534
2.15746
1.9097
1.92622
2.00806
1.79738
1.44921
2.03373
1.62158
2.37755
1.86615
2.1467
2.66585
1.67398
2.53753
1.92407
2.61621
2.02155
2.32814
2.83509
1.78125
2.81552
2.63045
2.57695
2.01841
2.37164
2.29817
2.07951
2.91819
2.66208
3.12723
2.25533
2.40259
2.48917
2.57068
3.34662
3.49326
3.49088
3.1896
2.67027
3.23399
1.41822
1.42903
1.36061
2.26597
2.17549
2.34926
2.27651
1.52686
2.38117
1.37221
1.44596
2.30327
2.20683
2.30333
2.41571
2.81603
3.12948
2.85107
2.92858
2.95471
2.36738
1.48047
2.33544
1.37567
1.49567
1.38663
2.35313
2.23669
1.48792
1.38786
1.37786
2.22241
2.34726
2.35944
2.24072
1.45023
2.30081
1.35437
1.40554
1.32482
2.24822
2.09421
1.35618
2.17626
2.31456
1.32509
1.4132
2.26502
2.10111
2.50443
2.56005
1.96745
2.62231
3.12654
2.98791
3.02194
2.86898
2.86027
2.37002
2.75633
2.87175
2.98322
3.04394
0.179462
0.136925
0.169181
1.28187
1.31174
1.29179
0.181617
0.185989
1.26715
0.121249
0.14017
0.130447
0.143914
0.137413
0.142864
0.150692
0.18458
0.282855
0.186689
0.284752
0.184279
0.283143
0.284266
0.147883
0.151741
0.147608
0.145468
0.149701
0.146531
0.149851
0.593003
1.26986
1.27336
0.595649
1.27392
0.593167
0.593107
0.150477
0.146022
0.147451
0.143705
0.145858
0.140744
0.148621
0.181117
0.285871
0.283476
0.179372
0.287907
0.179983
0.282651
0.282646
0.17755
0.283421
0.186108
0.18093
0.286499
0.283901
0.138617
0.143511
0.142514
0.140014
0.139053
0.136986
0.141162
0.141921
0.137839
0.142575
0.148146
0.143281
0.136453
0.147198
0.135117
0.138085
0.140492
0.1382
0.133537
0.135278
0.136244
0.605153
0.60044
1.28648
1.27444
0.610011
1.27853
0.596946
0.598366
1.29217
0.601334
1.28091
0.609862
1.28069
0.593576
0.139878
0.134087
0.140504
0.142789
0.13677
0.134578
0.145674
0.288665
0.286232
0.177409
0.177982
0.28943
0.177897
0.290807
0.129052
0.13642
0.13718
0.137508
0.134392
0.13782
0.135055
0.150413
0.151092
0.148096
0.148491
0.141914
0.139245
0.139405
0.140464
0.153253
0.150672
0.152495
0.150088
0.148595
0.148978
0.149066
0.150676
0.152888
0.153401
0.150125
0.148768
0.149167
0.149153
1.30933
0.133799
0.144408
0.147517
0.151157
0.148515
0.15168
0.148414
0.14525
0.148192
0.144315
0.15141
0.1475
0.151758
0.148398
0.145164
0.141123
0.14099
0.139961
0.14512
0.1445
0.145908
0.146255
0.144623
0.14157
0.145057
0.141974