/*--------------------------------*- C++ -*----------------------------------*\
  =========                 |
  \\      /  F ield         | OpenFOAM: The Open Source CFD Toolbox
   \\    /   O peration     | Website:  https://openfoam.org
    \\  /    A nd           | Version:  9
     \\/     M anipulation  |
\*---------------------------------------------------------------------------*/
FoamFile
{
    format      ascii;
    class       volScalarField;
    location    "0.0003";
    object      p;
}
// * * * * * * * * * * * * * * * * * * * * * * * * * * * * * * * * * * * * * //

dimensions      [1 -1 -2 0 0 0 0];

internalField   nonuniform List<scalar> 
4946
(
101298
101298
101298
101298
101298
101298
101298
101298
101298
101298
101298
101298
101298
101298
101298
101298
101298
101298
101298
101298
101298
101298
101298
101298
107231
101298
126983
101298
101298
117849
101298
101298
102228
101299
101300
111620
101298
101728
101298
101357
101298
122152
101298
101298
101298
101298
101298
101298
101298
101298
101298
101298
101298
101298
101298
101298
101298
101298
101298
101298
101298
101298
101298
101298
101298
101298
101298
101298
101298
101298
101298
101298
101298
101298
101298
101298
101298
101298
101298
101298
101298
101298
101298
101298
101298
101298
101298
101298
101298
101298
101298
101298
101298
101298
101298
101298
101298
101298
101298
101298
101298
101298
101298
101298
101298
101298
101298
101298
101298
101298
101298
101298
101298
101298
101298
101298
101298
101298
101298
101298
101298
101298
101298
101298
101298
101298
101298
101298
101298
101298
101298
101298
101298
101298
101298
101298
101298
101298
101298
101298
101298
101298
101298
101298
101298
101298
101298
101298
101298
101298
101298
101298
101298
101298
101298
101298
101298
101298
101298
101298
101298
101298
101298
101298
101298
101298
101298
101298
101298
101298
101298
101298
101298
101298
101298
101298
101298
101298
101298
101298
101298
101298
101298
101298
101298
101298
101298
101298
101298
101298
101298
101298
101298
101298
101298
101298
101298
101298
101298
101298
101298
101298
101298
101298
101298
101298
101298
101298
101298
101298
101298
101298
101298
101298
101298
101298
101298
101298
101298
101298
101298
101298
101298
101298
101298
101298
101298
101298
101298
101298
101298
101298
101298
101298
101298
101298
101298
101298
101298
101298
101298
101298
101298
101298
101298
101298
101298
101298
101298
101298
101298
101298
101298
101298
101298
101298
101298
101298
101298
101298
101298
101298
101298
101298
101298
101298
101298
101298
101298
101298
101298
101298
101298
101298
101298
101298
101298
101298
101298
101298
101298
101298
101298
101298
101298
101298
101298
101298
101298
101298
101298
101298
101298
101298
101298
101298
101298
101298
101298
101298
101298
101298
101298
101298
101298
101298
101298
101298
101298
101298
101298
101298
101298
101298
101298
101298
101298
101298
101298
101298
101298
101298
101298
101298
101298
101298
101298
101298
101298
101298
101298
101298
101298
101298
101298
101298
101298
101298
101298
101298
101298
101298
101298
101298
101298
101298
101298
101298
101298
101298
101298
101298
101298
101298
101298
101298
101298
101298
101298
101298
101298
101298
101298
101298
101298
101298
101298
101298
101298
101298
101298
101298
101298
101298
101298
101298
101298
101298
101298
101298
101298
101298
101298
101298
101298
101298
101298
101298
101298
101298
101298
101298
101298
101298
101298
101298
101298
101298
101298
101298
101298
101298
101298
101298
101298
101298
101298
101298
101298
101298
101298
101298
101298
101298
101298
101298
101298
101298
101298
101298
101298
101298
101298
101298
101298
101298
101298
101298
101298
101298
101298
101298
101298
101298
101298
101298
101298
101298
101298
101298
101298
101298
101298
101298
101298
101298
101298
101298
101298
101298
101298
101298
101298
101298
101298
101298
101298
101298
101298
101298
101298
101298
101298
101298
101298
101298
101298
101298
101298
101298
101298
101298
101298
101298
101298
101298
101298
101298
101298
101298
101298
101298
101298
101298
101298
101298
101298
101298
101298
101298
101298
101298
101298
101298
101298
101298
101298
101298
101298
101298
101298
101298
101298
101298
101298
101298
101298
101298
101298
101298
101298
101298
101298
101298
101298
101298
101298
101298
101298
101298
101298
101298
101298
101298
101298
101298
101298
101298
101298
101298
101298
101298
101298
101298
101298
101298
101298
101298
101298
101298
101298
101298
101298
101298
101298
101298
101298
101298
101298
101298
101298
101298
101298
101298
101298
101298
101298
101298
101298
101298
101298
101298
101298
101298
101298
101298
101298
101298
101298
101298
101298
101298
101298
101298
101298
101298
101298
101298
101298
101298
101298
101298
101298
101298
101298
101298
101298
101298
101298
101298
101298
101298
101298
101298
101298
101298
101298
101298
101298
101298
101298
101298
101298
101298
101298
101298
101298
101298
101298
101298
101298
101298
101298
101298
101298
101298
101298
101298
101298
101298
101298
101298
101298
101298
101298
101298
101298
101298
101298
101298
101298
101298
101298
101298
101298
101298
101298
101298
101298
101298
101298
101298
101298
101298
101298
101298
101298
101298
101298
101298
101298
101298
101298
101298
101298
101298
101298
101298
101298
101298
101298
101298
101298
101298
101298
101298
101298
101298
101298
101298
101298
101298
101298
101298
101298
101298
101298
101298
101298
101298
101298
101298
101298
101298
101298
101298
101298
101298
101298
101298
101298
101298
101298
101298
101298
101298
101298
101298
101298
101298
101298
101298
101298
101298
101298
101298
101298
101298
101298
101298
101298
101298
101298
101298
101298
101298
101298
101298
101298
101298
101298
101298
101298
101298
101298
101298
101298
101298
101298
101298
101298
101298
101298
101298
101298
101298
101298
101298
101298
101298
101298
101298
101298
101298
101298
101298
101298
101298
101298
101298
101298
101298
101298
101298
101298
101298
101298
101298
101298
101298
101298
101298
101298
101298
101298
101298
101298
101298
101298
101298
101298
101298
101298
101298
101298
101298
101298
101298
101298
101298
101298
101298
101298
101298
101298
101298
101298
101298
101298
101298
101298
101298
101298
101298
101298
101298
101298
101298
101298
101298
101298
101298
101298
101298
101298
101298
101298
101298
101298
101298
101298
101298
101298
101298
101298
101298
101298
101298
101298
101298
101298
101298
101298
101298
101298
101298
101298
101298
101298
101298
101298
101298
101298
101298
101298
101298
101298
101298
101298
101298
101298
101298
101298
101298
101298
101298
101298
101298
101298
101298
101298
101298
101298
101298
101298
101298
101298
101298
101298
101298
101298
101298
101298
101298
101298
101298
101298
101298
101298
101298
101298
101298
101298
101298
101298
101298
101298
101298
101298
101298
101298
101298
101298
101298
101298
101298
101298
101298
101298
101298
101298
101298
101298
101298
101298
101298
101298
101298
101298
101298
101298
101298
101298
101298
101298
101298
101298
101298
101298
101298
101298
101298
101298
101298
101298
101298
101298
101298
101298
101298
101298
101298
101298
101298
101298
101298
101298
101298
101298
101298
101298
101298
101298
101298
101298
101298
101298
101298
101298
101298
101298
101298
101298
101298
101298
101298
101298
101298
101298
101298
101298
101298
101298
101298
101298
101298
101298
101298
101298
101298
101298
101298
101298
101298
101298
101298
101298
101298
101298
101298
101298
101298
101298
101298
101298
101298
101298
101298
101298
101298
101298
101298
101298
101298
101298
101298
101298
101298
101298
101298
101298
101298
101298
101298
101298
101298
101298
101298
101298
101298
101298
101298
101298
101298
101298
101298
101298
101298
101298
101298
101298
101298
101298
101298
101298
101298
101298
101298
101298
101298
101298
101298
101298
101298
101298
101298
101298
101298
101298
101298
101298
101298
101298
101298
101298
101298
101298
101298
101298
101298
101298
101298
101298
101298
101298
101298
101298
101298
101298
101298
101298
101298
101298
101298
101298
101298
101298
101298
101298
101298
101298
101298
101298
101298
101298
101298
101298
101298
101298
101298
101298
101298
101298
101298
101298
101298
101298
101298
101298
101298
101298
101298
101298
101298
101298
101298
101298
101298
101298
101298
101298
101298
101298
101298
101298
101298
101298
101298
101298
101298
101298
101298
101298
101298
101298
101298
101298
101298
101298
101298
101298
101298
101298
101298
101298
101298
101298
101298
101298
101298
101298
101298
101298
101298
101298
101298
101298
101298
101298
101298
101298
101298
101298
101298
101298
101298
101298
101298
101298
101298
101298
101298
101298
101298
101298
101298
101298
101298
101298
101298
101298
101298
101298
101298
101298
101298
101298
101298
101298
101298
101298
101298
101298
101298
101298
101298
101298
101298
101298
101298
101298
101298
101298
101298
101298
101298
101298
101298
101298
101298
101298
101298
101298
101298
101298
101298
101298
101298
101298
101298
101298
101298
101298
101298
101298
101298
101298
101298
101298
101298
101298
101298
101298
101298
101298
101298
101298
101298
101298
101298
101298
101298
101298
101298
101298
101298
101298
101298
101298
101298
101298
101298
101298
101298
101298
101298
101298
101298
101298
101298
101298
101298
101298
101298
101298
101298
101298
101298
101298
101298
101298
101298
101298
101298
101298
101298
101298
101298
101298
101298
101298
101298
101298
101298
101298
101298
101298
101298
101298
101298
101298
101298
101298
101298
101298
101298
101298
101298
101298
101298
101298
101298
101298
101298
101298
101298
101298
101298
101298
101298
101298
101298
101298
101298
101298
101298
101298
101298
101298
101298
101298
101298
101298
101298
101298
101298
101298
101298
101298
101298
101298
101298
101298
101298
101298
101298
101298
101298
101298
101298
101298
101298
101298
101298
101298
101298
101298
101298
101298
101298
101298
101298
101298
101298
101298
101298
101298
101298
101298
101298
101298
101298
101298
101298
101298
101298
101298
101298
101298
101298
101298
101298
101298
101298
101298
101298
101298
101298
101298
101298
101298
101298
101298
101298
101298
101298
101298
101298
101298
101298
101298
101298
101298
101298
101298
101298
101298
101298
101298
101298
101298
101298
101298
101298
101298
101298
101298
101298
101298
101298
101298
101298
101298
101298
101298
101298
101298
101298
101298
101298
101298
101298
101298
101298
101298
101298
101298
101298
101298
101298
101298
101298
101298
101298
101298
101298
101298
101298
101298
101298
101298
101298
101298
101298
101298
101298
101298
101298
101298
101298
101298
101298
101298
101298
101298
101298
101298
101298
101298
101298
101298
101298
101298
101298
101298
101298
101298
101298
101298
101298
101298
101298
101298
101298
101298
101298
101298
101298
101298
101298
101298
101298
101298
101298
101298
101298
101298
101298
101298
101298
101298
101298
101298
101298
101298
101298
101298
101298
101298
101298
101298
101298
101298
101298
101298
101298
101298
101298
101298
101298
101298
101298
101298
101298
101298
101298
101298
101298
101298
101298
101298
101298
101298
101298
101298
101298
101298
101298
101298
101298
101298
101298
101298
101298
101298
101298
101298
101298
101298
101298
101298
101298
101298
101298
101298
101298
101298
101298
101298
101298
101298
101298
101298
101298
101298
101298
101298
101298
101298
101298
101298
101298
101298
101298
101298
101298
101298
101298
101298
101298
101298
101298
101298
101298
101298
101298
101298
101298
101298
101298
101298
101298
101298
101298
101298
101298
101298
101298
101298
101298
101298
101298
101298
101298
101298
101298
101298
101298
101298
101298
101298
101298
101298
101298
101298
101298
101298
101298
101298
101298
101298
101298
101298
101298
101298
101298
101298
101298
101298
101298
101298
101298
101298
101298
101298
101298
101298
101298
101298
101298
101298
101298
101298
101298
101298
101298
101298
101298
101298
101298
101298
101298
101298
101298
101298
101298
101298
101298
101298
101298
101298
101298
101298
101298
101298
101298
101298
101302
101298
101484
6.04262e+06
101298
101298
101298
101298
101310
2.7856e+06
101298
101298
101298
101298
101298
101298
101298
101298
101298
101298
101298
101298
101298
101298
101298
101298
101298
101298
101298
101298
101298
101298
101298
101298
101298
101298
101298
101298
101298
101298
101298
101298
101298
101298
101298
101298
101298
101298
101298
101298
101298
101298
101298
101298
101298
101298
101298
101298
101298
101298
101298
101298
101298
101298
101298
101298
101298
101298
101298
101298
101299
101298
101298
101298
101298
101298
3.83122e+06
2.5589e+06
2.43646e+06
121271
315343
101301
101363
1.70116e+06
496666
1.48562e+06
108506
350645
101375
101299
1.73862e+06
1.99026e+06
1.28901e+06
2.13149e+06
2.43088e+06
2.18793e+06
2.13061e+06
2.21286e+06
1.99003e+06
1.28782e+06
2.14083e+06
2.30862e+06
2.19029e+06
2.25857e+06
2.40473e+06
101743
119657
101298
101572
101298
101298
101298
389121
111926
101299
101298
101414
101298
5.40249e+06
3.44683e+06
3.08331e+06
3.91652e+06
2.9083e+06
2.22235e+06
2.57196e+06
2.74448e+06
2.087e+06
2.6968e+06
2.06941e+06
2.4992e+06
2.05543e+06
1.24476e+06
101298
101298
101298
183414
360179
101298
101300
101298
101303
101298
474500
112895
101300
101298
1.69015e+06
2.52954e+06
2.40719e+06
376640
1.41583e+06
1.38855e+06
334922
101298
105789
101298
101298
101299
101298
101298
1.58392e+06
1.64329e+06
2.37067e+06
1.23581e+06
348621
275507
1.34236e+06
1.61019e+06
310704
1.58345e+06
133269
900142
855990
126820
101298
101298
103330
101298
101298
101298
101299
1.53456e+06
246077
1.45562e+06
704814
127264
116847
827186
2.8751e+06
1.46465e+06
1.38746e+06
974872
140445
171493
828146
1.2953e+06
1.82279e+06
2.50344e+06
977358
108399
179690
319425
509450
172982
1.23484e+06
514893
101962
108858
160135
1.65926e+06
884592
842015
293483
265280
133165
104409
1.05649e+06
157174
1.25516e+06
472354
103201
106838
299450
101298
101298
101298
101298
101298
101298
101298
101298
101298
101298
101298
101298
101298
101298
101298
101298
101298
101298
117505
151373
132613
101700
102084
101775
101544
188309
143654
105860
109112
102254
101776
101384
101298
101298
101298
101298
101298
101317
101298
126803
150251
131731
101750
101697
101544
102066
101449
119010
101574
144094
126798
101674
101964
101625
101521
116042
148468
132302
102035
101768
171323
105719
102880
101334
103879
102205
213808
106465
103215
234052
210291
101353
105206
102749
446083
111742
109322
107792
106179
101406
101486
424685
113047
110431
110212
108217
101450
101512
102892
103916
111466
101431
101315
101373
101327
105765
102111
109674
101419
101304
101360
101310
101304
101705
105569
102118
109783
101420
101310
101298
101298
101298
101298
101298
101298
101298
133253
101386
101332
101312
102322
101692
104141
541272
101629
112078
101537
109413
101450
101303
222412
101510
103720
101458
103140
101337
101301
104749
101341
101308
103504
109714
101407
101322
101298
101298
101298
101298
101298
101298
101298
101298
101298
101298
101298
101298
101298
101298
126768
101635
101396
101308
102119
101585
112437
101304
101578
125183
101328
103893
101342
101299
101305
123442
101748
101323
103349
101340
101299
102018
101339
102022
101306
101414
101306
101298
220737
102445
102060
103519
102908
101330
101310
101365
101345
104663
101749
101640
101303
101305
101327
104941
101352
101666
101508
101304
101301
104135
101312
101700
101299
101330
101303
101298
101937
101306
101300
101316
101362
101299
101298
101299
101388
102212
101306
101394
101299
101298
101356
101298
101310
101298
101304
101299
101298
101298
101298
101298
101298
101298
101298
101298
101298
101298
101298
101298
101298
101298
101298
101298
101298
101298
101298
101298
101298
101298
101305
101304
101298
101298
101302
101298
101311
101298
101298
101302
101304
101298
101298
101309
101305
101298
101311
101306
101298
101302
101298
101298
101303
101301
101298
101310
101305
101298
101298
101298
101298
101298
101298
101298
101298
101298
101298
101298
101298
101298
101298
101298
101298
101298
101298
101298
101298
101298
101298
101300
101510
101420
101300
101298
101298
101302
101298
101298
101298
101298
101298
101298
101298
101426
101299
101370
101300
101298
101298
101301
101301
101540
101469
101301
101298
101298
101303
101446
101300
101403
101301
101298
101302
101298
101298
101298
101298
101298
101298
101298
101298
101298
101298
101298
101298
101298
101298
101298
101298
101298
101298
101298
101298
101298
101298
101298
101298
285992
101298
101298
101298
101298
101298
101298
101298
101298
101298
101298
101298
101298
101298
101298
101298
101298
101298
101298
101302
747577
2.06986e+06
101497
1.89791e+06
438396
2.09443e+06
101960
108826
101298
746204
187862
279404
101338
984137
101298
1.21848e+06
2.16125e+06
1.444e+06
2.10585e+06
2.30143e+06
2.383e+06
2.33162e+06
910684
1.06768e+06
1.10648e+06
228304
207164
148995
167370
2.79559e+06
2.71716e+06
2.84579e+06
2.07629e+06
2.53314e+06
2.20677e+06
1.37731e+06
2.12022e+06
2.49652e+06
2.6538e+06
1.6853e+06
654707
543524
1.77657e+06
101334
101299
123384
101298
101298
101316
101298
101695
101298
117399
101298
101298
101298
101298
462609
745351
970273
123553
165630
123469
107652
163283
350502
141488
1.75916e+06
1.67031e+06
1.02243e+06
1.14732e+06
220168
676391
577020
112521
103773
102771
118202
1.68793e+06
2.73104e+06
2.09234e+06
1.22965e+06
116088
268689
434828
521644
181166
111716
102175
1.28564e+06
615311
179556
101298
101298
101298
101298
101304
101298
101298
105872
104149
101419
302964
115325
110340
373558
109038
143215
387806
105825
101383
101771
102249
101328
103609
103112
101993
101314
102303
101309
101298
101298
101298
101303
101299
101298
101298
200661
105746
103442
103988
102592
101330
101364
101608
101313
102266
101607
101299
101302
101379
110627
102112
101735
101498
101411
101304
101308
101298
101298
101300
101298
101298
101298
101298
101329
101298
101298
101298
101298
101298
101298
101354
101300
101325
158031
101472
103457
106148
101454
101298
101331
101302
101317
101540
101300
103333
101340
101745
101323
101571
101304
101299
104100
101312
101413
101303
101330
101299
101298
101356
101298
101299
101298
101304
101299
101310
5.81934e+06
2.45988e+06
4.99431e+06
399643
353701
3.39485e+06
327318
3.17103e+06
5.58625e+06
275471
514001
318374
653423
240325
319934
431808
224140
717981
275418
274250
297328
352456
317342
290038
270925
314881
267694
346132
261006
250886
306756
284598
256205
267212
275486
349827
288759
307206
236853
285532
259022
350041
267319
288271
244074
311157
536001
3.97437e+06
640324
592491
3.23301e+06
527544
3.70278e+06
499923
578394
3.14975e+06
3.71915e+06
602398
513370
3.60289e+06
332213
225653
214278
233107
249021
238270
316976
248464
235727
252216
339062
232935
241886
319739
5.7172e+06
1.01256e+06
1.23487e+06
169955
679505
208743
744905
861221
1.58576e+06
740940
718290
127033
787107
129494
610256
525440
390968
439019
303033
331563
298441
576556
414871
381965
323383
286691
329844
292404
396821
480407
431093
289634
295518
298588
293316
430990
483245
288902
442198
298678
287763
299760
1.0139e+06
5.99701e+06
1.72484e+06
5.66699e+06
1.50759e+06
884893
4.60382e+06
1.48765e+06
5.8276e+06
1.66595e+06
868315
4.73075e+06
963681
4.49624e+06
1.47378e+06
614934
1.2693e+06
718552
338109
319087
569440
615437
1.47522e+06
1.26996e+06
320979
658194
342989
571689
1.18331e+06
834734
707899
1.86998e+06
1.66738e+06
1.47129e+06
2.05559e+06
1.03145e+06
723486
876207
1.90153e+06
1.72788e+06
1.49533e+06
2.11962e+06
880552
1.04674e+06
887867
1.76325e+06
1.74261e+06
1.51543e+06
1.97255e+06
733952
1.03066e+06
877109
1.758e+06
1.7062e+06
1.50542e+06
1.95306e+06
288857
4.67603e+06
4.28089e+06
3.00308e+06
367160
3.67571e+06
302329
3.12275e+06
412597
306616
3.7455e+06
297974
2.98265e+06
3.27365e+06
382550
237081
321940
397751
350950
322229
291876
350909
261367
305765
286062
291200
358901
283837
327229
333565
586105
3.03912e+06
566812
539536
3.03676e+06
552062
3.03282e+06
392292
468958
436279
360077
412059
376169
387407
289901
273056
284202
356434
264315
321597
325188
551294
3.11875e+06
583322
520336
3.01358e+06
545118
2.96799e+06
411309
431177
467133
345817
410770
371320
380323
297313
348143
278097
337549
387630
303036
341394
403910
415370
423249
399022
360614
413896
421151
445979
451642
457225
449814
440439
447242
447435
415764
435092
442371
411078
372068
431147
435338
421584
420130
397560
399413
371707
419708
425198
398282
412498
421211
397390
412030
354339
417529
411168
428260
438428
404645
363450
427890
430772
441770
449000
454651
447788
437923
444327
443238
417960
418910
396224
397075
417231
365732
422804
353123
273112
296999
264931
248555
288233
249235
542264
3.11844e+06
517204
517251
3.39739e+06
520761
3.11727e+06
258231
262299
250586
217180
225346
242350
274077
493447
3.02329e+06
484695
2.90639e+06
514777
490736
3.03157e+06
3.8847e+06
606073
640592
534197
3.19283e+06
538479
3.28496e+06
3.62648e+06
611997
595705
514759
3.16263e+06
530997
3.1981e+06
4.0526e+06
951403
699053
3.75152e+06
599607
517811
3.38076e+06
5.0848e+06
747926
1.04447e+06
543854
3.96448e+06
638259
3.50386e+06
2.5522e+06
5.75097e+06
2.31574e+06
2.87716e+06
4.27781e+06
2.91365e+06
4.57872e+06
1.37533e+06
2.28507e+06
1.5921e+06
2.31684e+06
2.35082e+06
2.47693e+06
2.41608e+06
2.29388e+06
5.7812e+06
2.49941e+06
2.85708e+06
4.48142e+06
4.61772e+06
2.92759e+06
1.37379e+06
2.46602e+06
2.28609e+06
2.32044e+06
2.38685e+06
2.48889e+06
2.43054e+06
2.06386e+06
1.88775e+06
541329
921841
1.988e+06
1.87278e+06
776416
2.07035e+06
1.92606e+06
941228
624376
1.98382e+06
1.95586e+06
802276
2.05706e+06
1.93399e+06
609583
964119
2.0289e+06
1.91355e+06
826480
2.07351e+06
1.98629e+06
991635
655716
2.04228e+06
1.96359e+06
846452
2.0945e+06
1.94643e+06
262544
391061
2.20679e+06
1.92254e+06
516769
1.86791e+06
875146
326043
151177
1.10538e+06
1.64485e+06
466400
1.88914e+06
909872
153043
347357
1.12146e+06
1.69563e+06
477772
2.06041e+06
1.66199e+06
316552
245799
1.7667e+06
2.13045e+06
488629
1.99873e+06
1.20036e+06
1.12652e+06
193052
101301
101298
434679
6.18674e+06
1.69038e+06
439836
140462
101485
101301
101428
2.43108e+06
5.60755e+06
3.90315e+06
4.6296e+06
349794
4.84083e+06
1.50615e+06
599347
4.76782e+06
342425
2.67651e+06
2.30196e+06
3.01808e+06
1.68348e+06
2.0692e+06
337217
2.30786e+06
305456
310215
1.7465e+06
2.52631e+06
299220
332868
1.56062e+06
2.38015e+06
1.93849e+06
1.44792e+06
2.42638e+06
101939
470754
3.63206e+06
2.06383e+06
2.7551e+06
2.49518e+06
7.4086e+06
1.20544e+06
3.74807e+06
6.17847e+06
215959
939484
863996
2.48042e+06
1.41837e+06
229706
968669
202893
1.77106e+06
233046
223047
266829
304250
243199
251522
259113
272591
205657
241096
265267
251009
268624
236592
367630
311930
315424
626648
405603
546981
452373
340584
298537
306312
585939
397504
533051
426445
306390
287704
291673
482448
405832
449981
427082
303353
291574
288344
475897
401904
435935
426339
599420
3.3738e+06
512311
954680
4.04351e+06
698525
4.6628e+06
197225
324909
255942
328892
414477
245267
672715
690107
346212
492056
872024
1.06734e+06
607584
1.50118e+06
101310
1.8457e+06
1.7265e+06
816187
1.2221e+06
7.67407e+06
1.41872e+06
101513
1.80675e+06
596074
318775
1.41402e+06
998613
3.15931e+06
390235
427548
315531
1.3385e+06
947844
787977
550415
484881
332438
528712
679322
1.06183e+06
603710
1.23348e+06
1.74736e+06
2.20942e+06
101347
1.53326e+06
2.27232e+06
7.19848e+06
2.29812e+06
101306
101962
1.69622e+06
947426
2.23244e+06
1.81212e+06
2.70212e+06
527878
838564
383737
281633
246895
527294
382216
397333
1.0226e+06
434455
254564
245888
436743
397908
320931
490911
325667
969495
1.1453e+06
650595
565473
1.63704e+06
101354
752101
101299
841129
2.81905e+06
2.56245e+06
4.98027e+06
905688
1.02079e+06
1.75385e+06
5.83221e+06
1.54426e+06
6.16384e+06
4.55156e+06
965894
886344
1.67135e+06
5.74772e+06
1.51423e+06
5.96839e+06
332133
626120
535380
699271
1.20076e+06
589862
1.42254e+06
1.99506e+06
101412
101308
1.84946e+06
138336
5.85466e+06
105890
542947
597651
786428
307366
1.33363e+06
384103
422112
563404
1.1605e+06
658179
497848
319360
440251
329163
312064
537126
621700
693200
1.19833e+06
590396
1.40559e+06
509215
2.0768e+06
1.58003e+06
101305
101298
102031
101310
1.96271e+06
1.5183e+06
1.74637e+06
1.03874e+06
745365
892780
868353
2.37035e+06
1.04323e+06
1.4468e+06
101298
101303
101321
101957
1.96091e+06
802704
2.04065e+06
101299
101310
101326
102059
972055
1.03164e+06
1.96614e+06
101310
102082
101298
101310
1.93418e+06
2.16647e+06
1.74887e+06
1.25953e+06
736231
1.05366e+06
888836
1.48724e+06
2.08873e+06
1.90282e+06
1.19006e+06
722756
1.03115e+06
843179
1.74046e+06
1.71053e+06
1.50658e+06
1.02242e+06
737212
865147
865638
5.24649e+06
1.75135e+06
1.19699e+06
6.88854e+06
2.87364e+06
2.07597e+06
6.35867e+06
439117
808627
923387
1.04454e+06
2.79942e+06
1.98504e+06
1.84068e+06
6.72532e+06
1.2972e+06
1.93839e+06
2.22326e+06
7.05446e+06
3.07598e+06
6.64739e+06
745672
426390
884385
1.72599e+06
2.72667e+06
1.00519e+06
1.91736e+06
5.95014e+06
2.84177e+06
1.58534e+06
4.48515e+06
874979
1.58754e+06
5.92863e+06
1.75518e+06
6.69196e+06
5.20312e+06
2.06722e+06
2.84502e+06
1.20194e+06
6.10486e+06
2.71306e+06
1.57929e+06
651696
295973
593092
659225
1.43836e+06
2.77864e+06
1.98684e+06
1.03645e+06
767049
927573
440376
1.61487e+06
2.46282e+06
1.00259e+06
1.93426e+06
1.92455e+06
2.43298e+06
2.7172e+06
2.46234e+06
1.94063e+06
1.15795e+06
2.18547e+06
1.92311e+06
2.16446e+06
2.63489e+06
2.48749e+06
1.22896e+06
1.76857e+06
857798
2.28027e+06
1.77589e+06
2.86755e+06
2.51078e+06
880079
2.07659e+06
1.04065e+06
1.81187e+06
2.06795e+06
2.74694e+06
2.56113e+06
2.17941e+06
2.1259e+06
2.13068e+06
1.74416e+06
1.99164e+06
1.28968e+06
2.44399e+06
2.96364e+06
4.54704e+06
3.01585e+06
2.61912e+06
6.01534e+06
2.37453e+06
6.09088e+06
2.08111e+06
2.45533e+06
2.41363e+06
2.31834e+06
1.86908e+06
1.61771e+06
1.19399e+06
4.72419e+06
4.87582e+06
2.94148e+06
2.53446e+06
5.97109e+06
2.34085e+06
6.01292e+06
2.18521e+06
2.2562e+06
2.13842e+06
1.48488e+06
1.98564e+06
1.28625e+06
2.20982e+06
2.41205e+06
2.28765e+06
2.40954e+06
1.55858e+06
2.23139e+06
1.33077e+06
2.43176e+06
2.28799e+06
2.3338e+06
2.11076e+06
1.90107e+06
2.13951e+06
1.43248e+06
1.22216e+06
2.51601e+06
2.40306e+06
2.28184e+06
1.54533e+06
2.2229e+06
1.32894e+06
2.41098e+06
2.55887e+06
1.81086e+06
2.08666e+06
1.81218e+06
2.08419e+06
1.05148e+06
880956
2.84418e+06
1.76187e+06
2.29173e+06
1.7632e+06
1.2275e+06
2.26006e+06
853028
2.38488e+06
1.51002e+06
1.28371e+06
2.28194e+06
2.49714e+06
2.5795e+06
2.65274e+06
1.1855e+06
1.60549e+06
2.28292e+06
2.05438e+06
2.36128e+06
2.39514e+06
2.2684e+06
5.33545e+06
7.14824e+06
3.82116e+06
2.83143e+06
6.66308e+06
3.67104e+06
7.20176e+06
2.96886e+06
2.73779e+06
3.17627e+06
3.30417e+06
2.75132e+06
1.62568e+06
2.73933e+06
7.30912e+06
3.83834e+06
2.84008e+06
6.80166e+06
3.72085e+06
3.67526e+06
5.4229e+06
3.30184e+06
2.736e+06
1.59625e+06
2.69915e+06
3.17421e+06
2.96932e+06
2.51027e+06
101302
101298
101298
127729
101300
109350
2.38801e+06
2.90306e+06
2.55267e+06
2.20942e+06
3.09146e+06
5.39154e+06
3.4485e+06
6.0413e+06
3.07322e+06
3.35425e+06
4.34184e+06
5.86128e+06
3.50182e+06
2.96226e+06
6.07926e+06
1.24301e+06
2.49931e+06
2.0541e+06
2.08798e+06
2.74406e+06
2.78815e+06
2.69638e+06
2.1529e+06
2.2313e+06
2.52445e+06
2.67795e+06
2.87261e+06
2.02885e+06
2.7654e+06
6.84268e+06
3.10724e+06
3.87746e+06
6.37317e+06
3.72871e+06
3.21872e+06
4.57071e+06
2.80502e+06
1.75952e+06
2.79605e+06
3.03786e+06
2.74826e+06
2.70164e+06
2.10598e+06
2.85581e+06
2.87851e+06
2.06501e+06
2.95785e+06
2.8864e+06
2.32293e+06
1.60981e+06
1.93795e+06
2.03289e+06
1.93179e+06
631203
960946
712063
852412
2.02047e+06
2.02745e+06
2.14227e+06
968489
673267
859440
769699
2.07557e+06
1.98201e+06
2.04134e+06
982875
854811
659709
776960
2.10489e+06
1.89792e+06
1.88429e+06
920507
661898
542069
799516
5.65714e+06
2.90536e+06
3.42271e+06
4.11344e+06
2.97135e+06
2.56262e+06
3.14196e+06
101298
112134
168867
101298
101298
101298
101298
101302
104130
233814
101298
101298
101298
101298
2.05958e+06
2.43304e+06
2.7039e+06
1.66033e+06
625197
516587
1.71802e+06
1.75846e+06
2.76967e+06
2.49389e+06
1.72216e+06
477152
1.75658e+06
388015
1.33612e+06
2.3682e+06
2.55567e+06
1.57304e+06
346105
270790
1.63846e+06
1.7993e+06
2.51847e+06
2.66933e+06
1.80058e+06
506288
1.80712e+06
455411
1.38892e+06
2.40201e+06
2.52755e+06
1.69216e+06
377478
336252
1.70141e+06
2.23792e+06
2.90626e+06
2.5284e+06
2.24972e+06
884969
760589
2.21659e+06
2.2632e+06
2.58796e+06
2.78866e+06
2.23591e+06
916557
792499
2.26529e+06
1.71143e+06
2.74596e+06
2.45924e+06
2.09275e+06
638204
536853
2.0837e+06
1.77854e+06
2.50014e+06
2.64343e+06
2.07936e+06
656968
553558
2.12497e+06
1.37586e+06
2.71025e+06
2.65409e+06
1.40536e+06
339028
235576
1.65613e+06
592085
2.16686e+06
2.29273e+06
1.07836e+06
171278
139483
1.31122e+06
952640
1.92118e+06
1.69911e+06
353034
164502
133167
504971
1.73283e+06
1.04853e+06
1.72099e+06
361569
161228
142931
429016
334348
413244
157979
1.6961e+06
1.6492e+06
996163
1.09768e+06
895987
853883
1.60417e+06
309242
132951
347727
126680
2.19116e+06
2.46692e+06
2.21373e+06
448761
319622
590780
248704
1.19207e+06
1.72189e+06
1.91476e+06
163338
500074
361227
134813
1.67437e+06
1.14303e+06
1.75211e+06
352465
162523
432491
142657
2.83416e+06
5.61573e+06
3.76475e+06
2.29652e+06
443806
504291
2.87535e+06
1.90567e+06
2.60935e+06
3.0422e+06
1.91598e+06
138313
427744
964212
2.15436e+06
1.87748e+06
1.84823e+06
338432
292364
537387
193298
694929
821376
1.52878e+06
126821
312782
242542
116354
2.03952e+06
3.18097e+06
2.16752e+06
709642
759270
543936
122444
329107
1.16573e+06
1.86153e+06
648836
102561
111592
220830
1.26502e+06
2.738e+06
2.1477e+06
1.71586e+06
117962
280910
787450
1.59547e+06
4.79417e+06
3.33094e+06
1.58979e+06
204337
240697
1.84079e+06
958921
3.81544e+06
2.86402e+06
1.37357e+06
139585
169094
1.4524e+06
1.43483e+06
2.18387e+06
2.75584e+06
1.43581e+06
114801
595917
239007
977593
1.82125e+06
2.50331e+06
1.29691e+06
108383
179985
496196
1.52292e+06
4.68379e+06
3.34892e+06
2.05815e+06
248204
331964
2.41935e+06
264133
1.65608e+06
2.40416e+06
882315
104376
133000
291653
2.3081e+06
4.52334e+06
3.26466e+06