/*--------------------------------*- C++ -*----------------------------------*\
  =========                 |
  \\      /  F ield         | OpenFOAM: The Open Source CFD Toolbox
   \\    /   O peration     | Website:  https://openfoam.org
    \\  /    A nd           | Version:  9
     \\/     M anipulation  |
\*---------------------------------------------------------------------------*/
FoamFile
{
    format      ascii;
    class       volScalarField;
    location    "0.0003";
    object      rho.air;
}
// * * * * * * * * * * * * * * * * * * * * * * * * * * * * * * * * * * * * * //

dimensions      [1 -3 0 0 0 0 0];

internalField   nonuniform List<scalar> 
4946
(
1.225
1.225
1.225
1.225
1.225
1.225
1.225
1.225
1.225
1.225
1.225
1.225
1.225
1.225
1.225
1.225
1.225
1.225
1.225
1.225
1.225
1.225
1.225
1.225
1.24304
1.225
1.28387
1.225
1.225
1.26578
1.225
1.225
1.22886
1.225
1.22502
1.25406
1.225
1.22718
1.225
1.22537
1.225
1.27579
1.225
1.225
1.225
1.225
1.225
1.225
1.225
1.225
1.225
1.225
1.225
1.225
1.225
1.225
1.225
1.225
1.225
1.225
1.225
1.225
1.225
1.225
1.225
1.225
1.225
1.225
1.225
1.225
1.225
1.225
1.225
1.225
1.225
1.225
1.225
1.225
1.225
1.225
1.225
1.225
1.225
1.225
1.225
1.225
1.225
1.225
1.225
1.225
1.225
1.225
1.225
1.225
1.225
1.225
1.225
1.225
1.225
1.225
1.225
1.225
1.225
1.225
1.225
1.225
1.225
1.225
1.225
1.225
1.225
1.225
1.225
1.225
1.225
1.225
1.225
1.225
1.225
1.225
1.225
1.225
1.225
1.225
1.225
1.225
1.225
1.225
1.225
1.225
1.225
1.225
1.225
1.225
1.225
1.225
1.225
1.225
1.225
1.225
1.225
1.225
1.225
1.225
1.225
1.225
1.225
1.225
1.225
1.225
1.225
1.225
1.225
1.225
1.225
1.225
1.225
1.225
1.225
1.225
1.225
1.225
1.225
1.225
1.225
1.225
1.225
1.225
1.225
1.225
1.225
1.225
1.225
1.225
1.225
1.225
1.225
1.225
1.225
1.225
1.225
1.225
1.225
1.225
1.225
1.225
1.225
1.225
1.225
1.225
1.225
1.225
1.225
1.225
1.225
1.225
1.225
1.225
1.225
1.225
1.225
1.225
1.225
1.225
1.225
1.225
1.225
1.225
1.225
1.225
1.225
1.225
1.225
1.225
1.225
1.225
1.225
1.225
1.225
1.225
1.225
1.225
1.225
1.225
1.225
1.225
1.225
1.225
1.225
1.225
1.225
1.225
1.225
1.225
1.225
1.225
1.225
1.225
1.225
1.225
1.225
1.225
1.225
1.225
1.225
1.225
1.225
1.225
1.225
1.225
1.225
1.225
1.225
1.225
1.225
1.225
1.225
1.225
1.225
1.225
1.225
1.225
1.225
1.225
1.225
1.225
1.225
1.225
1.225
1.225
1.225
1.225
1.225
1.225
1.225
1.225
1.225
1.225
1.225
1.225
1.225
1.225
1.225
1.225
1.225
1.225
1.225
1.225
1.225
1.225
1.225
1.225
1.225
1.225
1.225
1.225
1.225
1.225
1.225
1.225
1.225
1.225
1.225
1.225
1.225
1.225
1.225
1.225
1.225
1.225
1.225
1.225
1.225
1.225
1.225
1.225
1.225
1.225
1.225
1.225
1.225
1.225
1.225
1.225
1.225
1.225
1.225
1.225
1.225
1.225
1.225
1.225
1.225
1.225
1.225
1.225
1.225
1.225
1.225
1.225
1.225
1.225
1.225
1.225
1.225
1.225
1.225
1.225
1.225
1.225
1.225
1.225
1.225
1.225
1.225
1.225
1.225
1.225
1.225
1.225
1.225
1.225
1.225
1.225
1.225
1.225
1.225
1.225
1.225
1.225
1.225
1.225
1.225
1.225
1.225
1.225
1.225
1.225
1.225
1.225
1.225
1.225
1.225
1.225
1.225
1.225
1.225
1.225
1.225
1.225
1.225
1.225
1.225
1.225
1.225
1.225
1.225
1.225
1.225
1.225
1.225
1.225
1.225
1.225
1.225
1.225
1.225
1.225
1.225
1.225
1.225
1.225
1.225
1.225
1.225
1.225
1.225
1.225
1.225
1.225
1.225
1.225
1.225
1.225
1.225
1.225
1.225
1.225
1.225
1.225
1.225
1.225
1.225
1.225
1.225
1.225
1.225
1.225
1.225
1.225
1.225
1.225
1.225
1.225
1.225
1.225
1.225
1.225
1.225
1.225
1.225
1.225
1.225
1.225
1.225
1.225
1.225
1.225
1.225
1.225
1.225
1.225
1.225
1.225
1.225
1.225
1.225
1.225
1.225
1.225
1.225
1.225
1.225
1.225
1.225
1.225
1.225
1.225
1.225
1.225
1.225
1.225
1.225
1.225
1.225
1.225
1.225
1.225
1.225
1.225
1.225
1.225
1.225
1.225
1.225
1.225
1.225
1.225
1.225
1.225
1.225
1.225
1.225
1.225
1.225
1.225
1.225
1.225
1.225
1.225
1.225
1.225
1.225
1.225
1.225
1.225
1.225
1.225
1.225
1.225
1.225
1.225
1.225
1.225
1.225
1.225
1.225
1.225
1.225
1.225
1.225
1.225
1.225
1.225
1.225
1.225
1.225
1.225
1.225
1.225
1.225
1.225
1.225
1.225
1.225
1.225
1.225
1.225
1.225
1.225
1.225
1.225
1.225
1.225
1.225
1.225
1.225
1.225
1.225
1.225
1.225
1.225
1.225
1.225
1.225
1.225
1.225
1.225
1.225
1.225
1.225
1.225
1.225
1.225
1.225
1.225
1.225
1.225
1.225
1.225
1.225
1.225
1.225
1.225
1.225
1.225
1.225
1.225
1.225
1.225
1.225
1.225
1.225
1.225
1.225
1.225
1.225
1.225
1.225
1.225
1.225
1.225
1.225
1.225
1.225
1.225
1.225
1.225
1.225
1.225
1.225
1.225
1.225
1.225
1.225
1.225
1.225
1.225
1.225
1.225
1.225
1.225
1.225
1.225
1.225
1.225
1.225
1.225
1.225
1.225
1.225
1.225
1.225
1.225
1.225
1.225
1.225
1.225
1.225
1.225
1.225
1.225
1.225
1.225
1.225
1.225
1.225
1.225
1.225
1.225
1.225
1.225
1.225
1.225
1.225
1.225
1.225
1.225
1.225
1.225
1.225
1.225
1.225
1.225
1.225
1.225
1.225
1.225
1.225
1.225
1.225
1.225
1.225
1.225
1.225
1.225
1.225
1.225
1.225
1.225
1.225
1.225
1.225
1.225
1.225
1.225
1.225
1.225
1.225
1.225
1.225
1.225
1.225
1.225
1.225
1.225
1.225
1.225
1.225
1.225
1.225
1.225
1.225
1.225
1.225
1.225
1.225
1.225
1.225
1.225
1.225
1.225
1.225
1.225
1.225
1.225
1.225
1.225
1.225
1.225
1.225
1.225
1.225
1.225
1.225
1.225
1.225
1.225
1.225
1.225
1.225
1.225
1.225
1.225
1.225
1.225
1.225
1.225
1.225
1.225
1.225
1.225
1.225
1.225
1.225
1.225
1.225
1.225
1.225
1.225
1.225
1.225
1.225
1.225
1.225
1.225
1.225
1.225
1.225
1.225
1.225
1.225
1.225
1.225
1.225
1.225
1.225
1.225
1.225
1.225
1.225
1.225
1.225
1.225
1.225
1.225
1.225
1.225
1.225
1.225
1.225
1.225
1.225
1.225
1.225
1.225
1.225
1.225
1.225
1.225
1.225
1.225
1.225
1.225
1.225
1.225
1.225
1.225
1.225
1.225
1.225
1.225
1.225
1.225
1.225
1.225
1.225
1.225
1.225
1.225
1.225
1.225
1.225
1.225
1.225
1.225
1.225
1.225
1.225
1.225
1.225
1.225
1.225
1.225
1.225
1.225
1.225
1.225
1.225
1.225
1.225
1.225
1.225
1.225
1.225
1.225
1.225
1.225
1.225
1.225
1.225
1.225
1.225
1.225
1.225
1.225
1.225
1.225
1.225
1.225
1.225
1.225
1.225
1.225
1.225
1.225
1.225
1.225
1.225
1.225
1.225
1.225
1.225
1.225
1.225
1.225
1.225
1.225
1.225
1.225
1.225
1.225
1.225
1.225
1.225
1.225
1.225
1.225
1.225
1.225
1.225
1.225
1.225
1.225
1.225
1.225
1.225
1.225
1.225
1.225
1.225
1.225
1.225
1.225
1.225
1.225
1.225
1.225
1.225
1.225
1.225
1.225
1.225
1.225
1.225
1.225
1.225
1.225
1.225
1.225
1.225
1.225
1.225
1.225
1.225
1.225
1.225
1.225
1.225
1.225
1.225
1.225
1.225
1.225
1.225
1.225
1.225
1.225
1.225
1.225
1.225
1.225
1.225
1.225
1.225
1.225
1.225
1.225
1.225
1.225
1.225
1.225
1.225
1.225
1.225
1.225
1.225
1.225
1.225
1.225
1.225
1.225
1.225
1.225
1.225
1.225
1.225
1.225
1.225
1.225
1.225
1.225
1.225
1.225
1.225
1.225
1.225
1.225
1.225
1.225
1.225
1.225
1.225
1.225
1.225
1.225
1.225
1.225
1.225
1.225
1.225
1.225
1.225
1.225
1.225
1.225
1.225
1.225
1.225
1.225
1.225
1.225
1.225
1.225
1.225
1.225
1.225
1.225
1.225
1.225
1.225
1.225
1.225
1.225
1.225
1.225
1.225
1.225
1.225
1.225
1.225
1.225
1.225
1.225
1.225
1.225
1.225
1.225
1.225
1.225
1.225
1.225
1.225
1.225
1.225
1.225
1.225
1.225
1.225
1.225
1.225
1.225
1.225
1.225
1.225
1.225
1.225
1.225
1.225
1.225
1.225
1.225
1.225
1.225
1.225
1.225
1.225
1.225
1.225
1.225
1.225
1.225
1.225
1.225
1.225
1.225
1.225
1.225
1.225
1.225
1.225
1.225
1.225
1.225
1.225
1.225
1.225
1.225
1.225
1.225
1.225
1.225
1.225
1.225
1.225
1.225
1.225
1.225
1.225
1.225
1.225
1.225
1.225
1.225
1.225
1.225
1.225
1.225
1.225
1.225
1.225
1.225
1.225
1.225
1.225
1.225
1.225
1.225
1.225
1.225
1.225
1.225
1.225
1.225
1.225
1.225
1.225
1.225
1.225
1.225
1.225
1.225
1.225
1.225
1.225
1.225
1.225
1.225
1.225
1.225
1.225
1.225
1.225
1.225
1.225
1.225
1.225
1.225
1.225
1.225
1.225
1.225
1.225
1.225
1.225
1.225
1.225
1.225
1.225
1.225
1.225
1.225
1.225
1.225
1.225
1.225
1.225
1.225
1.225
1.225
1.225
1.225
1.225
1.225
1.225
1.225
1.225
1.225
1.225
1.225
1.225
1.225
1.225
1.225
1.225
1.225
1.225
1.225
1.225
1.225
1.225
1.225
1.225
1.225
1.225
1.225
1.225
1.225
1.225
1.225
1.225
1.225
1.225
1.225
1.225
1.225
1.225
1.225
1.225
1.225
1.225
1.225
1.225
1.225
1.225
1.225
1.225
1.225
1.225
1.225
1.225
1.225
1.225
1.225
1.225
1.225
1.225
1.225
1.225
1.225
1.225
1.225
1.225
1.225
1.225
1.225
1.225
1.225
1.225
1.225
1.225
1.225
1.225
1.225
1.225
1.225
1.225
1.225
1.225
1.225
1.225
1.225
1.225
1.225
1.225
1.225
1.225
1.225
1.225
1.225
1.225
1.225
1.225
1.225
1.225
1.225
1.225
1.225
1.225
1.225
1.225
1.225
1.225
1.225
1.225
1.225
1.225
1.225
1.225
1.225
1.225
1.225
1.225
1.225
1.225
1.225
1.225
1.225
1.225
1.225
1.225
1.225
1.225
1.225
1.225
1.225
1.225
1.225
1.225
1.225
1.225
1.225
1.225
1.225
1.225
1.225
1.225
1.225
1.225
1.225
1.225
1.225
1.225
1.225
1.225
1.225
1.225
1.225
1.225
1.225
1.225
1.225
1.225
1.225
1.225
1.225
1.225
1.225
1.225
1.225
1.225
1.225
1.225
1.225
1.225
1.225
1.225
1.225
1.225
1.225
1.225
1.225
1.225
1.225
1.225
1.225
1.225
1.225
1.225
1.225
1.225
1.225
1.225
1.225
1.225
1.225
1.225
1.225
1.225
1.225
1.225
1.225
1.225
1.225
1.225
1.225
1.225
1.225
1.225
1.225
1.225
1.225
1.225
1.225
1.225
1.225
1.225
1.225
1.225
1.225
1.225
1.225
1.225
1.225
1.225
1.225
1.225
1.225
1.225
1.225
1.225
1.225
1.225
1.225
1.225
1.225
1.225
1.225
1.225
1.225
1.225
1.225
1.225
1.225
1.225
1.225
1.225
1.225
1.225
1.225
1.225
1.225
1.225
1.225
1.225
1.225
1.225
1.225
1.225
1.225
1.225
1.225
1.225
1.225
1.225
1.225
1.225
1.225
1.225
1.225
1.225
1.225
1.225
1.225
1.225
1.225
1.225
1.225
1.225
1.225
1.225
1.225
1.225
1.225
1.225
1.225
1.225
1.225
1.225
1.225
1.225
1.225
1.225
1.225
1.225
1.225
1.225
1.225
1.225
1.225
1.225
1.225
1.225
1.225
1.225
1.225
1.225
1.225
1.225
1.225
1.225
1.225
1.225
1.225
1.225
1.225
1.225
1.225
1.225
1.225
1.225
1.225
1.225
1.225
1.225
1.225
1.225
1.225
1.225
1.225
1.225
1.225
1.225
1.225
1.225
1.225
1.225
1.225
1.225
1.225
1.225
1.225
1.225
1.225
1.225
1.225
1.225
1.225
1.225
1.225
1.225
1.225
1.225
1.225
1.225
1.225
1.225
1.225
1.225
1.225
1.225
1.225
1.225
1.225
1.225
1.225
1.225
1.225
1.225
1.225
1.225
1.225
1.225
1.225
1.225
1.225
1.225
1.225
1.225
1.225
1.225
1.225
1.225
1.225
1.225
1.225
1.225
1.225
1.225
1.225
1.225
1.225
1.225
1.225
1.225
1.225
1.225
1.225
1.225
1.225
1.225
1.225
1.225
1.225
1.225
1.225
1.225
1.225
1.225
1.225
1.225
1.225
1.225
1.225
1.225
1.225
1.225
1.225
1.225
1.225
1.225
1.225
1.225
1.225
1.225
1.225
1.225
1.225
1.225
1.225
1.225
1.225
1.225
1.225
1.225
1.225
1.225
1.225
1.225
1.225
1.225
1.225
1.225
1.225
1.225
1.225
1.225
1.225
1.225
1.225
1.225
1.225
1.225
1.225
1.225
1.225
1.225
1.225
1.225
1.225
1.225
1.225
1.225
1.225
1.225
1.225
1.225
1.225
1.225
1.225
1.225
1.225
1.225
1.225
1.225
1.225
1.225
1.225
1.225
1.225
1.225
1.225
1.225
1.225
1.225
1.225
1.225
1.22503
1.225
1.22598
3.83625
1.225
1.225
1.225
1.225
1.22509
2.36335
1.225
1.225
1.225
1.225
1.225
1.225
1.225
1.225
1.225
1.225
1.225
1.225
1.225
1.225
1.225
1.225
1.225
1.225
1.225
1.225
1.225
1.225
1.225
1.225
1.225
1.225
1.225
1.225
1.225
1.225
1.225
1.225
1.225
1.225
1.225
1.225
1.225
1.225
1.225
1.225
1.225
1.225
1.225
1.225
1.225
1.225
1.225
1.225
1.225
1.225
1.225
1.225
1.225
1.225
1.225
1.225
1.225
1.225
1.225
1.225
1.22501
1.225
1.225
1.225
1.225
1.225
3.78248
2.8465
1.99043
1.26556
1.53291
1.22502
1.2254
2.66976
1.74113
0.878551
1.24625
1.5711
1.22547
1.22501
1.05871
1.64184
0.790032
2.1017
2.38147
2.72925
2.66272
1.76165
1.59289
0.759407
2.04871
2.18813
2.66464
2.69029
2.82333
1.22709
1.2706
1.225
1.22641
1.225
1.225
1.225
1.58509
1.25294
1.22501
1.225
1.22564
1.225
4.10881
2.83576
2.00342
3.62394
2.86524
2.82606
3.10726
2.91187
1.36484
2.32742
2.6613
2.54493
2.67586
2.33301
1.225
1.225
1.225
1.34143
1.60062
1.225
1.22502
1.225
1.22503
1.225
1.75925
1.25693
1.22502
1.225
2.63735
2.74796
2.66988
1.64101
2.49489
2.44376
1.5706
1.225
1.24083
1.225
1.225
1.22501
1.225
1.225
2.59957
2.63753
2.68453
2.35918
1.60242
1.49511
2.44757
2.41859
1.51567
2.37739
1.29849
2.09153
2.01991
1.28382
1.225
1.225
1.2331
1.225
1.225
1.225
1.22501
2.38978
1.44784
2.35745
1.90505
1.28699
1.26521
2.02916
3.11109
2.41735
2.4706
2.13917
1.29178
1.34939
1.92558
2.39634
2.7201
2.87682
2.14598
1.24638
1.36584
1.53822
1.70613
1.34877
2.21579
1.72132
1.22806
1.24742
1.33362
2.6228
2.05552
2.01213
1.50585
1.47154
1.29315
1.23566
2.07647
1.32237
2.25394
1.67094
1.23155
1.24198
1.45542
1.225
1.225
1.225
1.225
1.225
1.225
1.225
1.225
1.225
1.225
1.225
1.225
1.225
1.225
1.225
1.225
1.225
1.225
1.26576
1.32292
1.29158
1.22718
1.22889
1.2275
1.22639
1.37359
1.30852
1.23982
1.24691
1.22909
1.22731
1.2255
1.225
1.225
1.225
1.225
1.225
1.22513
1.225
1.28341
1.32072
1.2893
1.22737
1.22716
1.22638
1.22881
1.22589
1.26968
1.22656
1.30963
1.28059
1.22701
1.22835
1.22682
1.22627
1.26292
1.31731
1.29043
1.22867
1.22746
1.35441
1.24071
1.23177
1.22523
1.23477
1.22913
1.42346
1.243
1.23298
1.45317
1.40993
1.22534
1.2388
1.23113
1.72203
1.25699
1.25072
1.24593
1.24152
1.22562
1.22605
1.67902
1.26055
1.25385
1.25233
1.24715
1.22585
1.22619
1.23098
1.23397
1.25268
1.22578
1.22511
1.22546
1.22518
1.23994
1.22876
1.24957
1.22572
1.22504
1.22539
1.22508
1.22504
1.22707
1.23939
1.22879
1.24983
1.22573
1.22508
1.225
1.225
1.225
1.225
1.225
1.225
1.225
1.2943
1.2255
1.22521
1.22509
1.22945
1.22698
1.23507
1.78764
1.22657
1.25454
1.2262
1.24849
1.22579
1.22503
1.42337
1.2261
1.23418
1.22586
1.2323
1.22524
1.22502
1.23679
1.22527
1.22507
1.23274
1.24863
1.22564
1.22515
1.225
1.225
1.225
1.225
1.225
1.225
1.225
1.225
1.225
1.225
1.225
1.225
1.225
1.225
1.28098
1.22655
1.22554
1.22507
1.22862
1.22648
1.25111
1.22504
1.22638
1.27935
1.22518
1.23411
1.22525
1.225
1.22504
1.27578
1.22713
1.22516
1.23262
1.22525
1.225
1.22811
1.22524
1.22812
1.22505
1.22565
1.22505
1.225
1.41464
1.22926
1.22805
1.23333
1.23136
1.2252
1.22508
1.22543
1.22531
1.23718
1.22737
1.22682
1.22504
1.22505
1.22519
1.23833
1.22535
1.22698
1.22618
1.22504
1.22502
1.23483
1.22509
1.22691
1.22501
1.2252
1.22503
1.225
1.22798
1.22506
1.22501
1.22511
1.22539
1.22501
1.225
1.22501
1.22553
1.22912
1.22506
1.22557
1.22501
1.225
1.22536
1.225
1.22508
1.225
1.22504
1.22501
1.225
1.225
1.225
1.225
1.225
1.225
1.225
1.225
1.225
1.225
1.225
1.225
1.225
1.225
1.225
1.225
1.225
1.225
1.225
1.225
1.225
1.225
1.22505
1.22505
1.225
1.225
1.22503
1.225
1.22509
1.225
1.225
1.22503
1.22504
1.225
1.225
1.22508
1.22505
1.225
1.22509
1.22506
1.225
1.22503
1.225
1.225
1.22504
1.22503
1.225
1.22509
1.22505
1.225
1.225
1.225
1.225
1.225
1.225
1.225
1.225
1.225
1.225
1.225
1.225
1.225
1.225
1.225
1.225
1.225
1.225
1.225
1.225
1.225
1.225
1.22502
1.22618
1.22569
1.22502
1.225
1.225
1.22503
1.225
1.225
1.225
1.225
1.225
1.225
1.225
1.22574
1.22501
1.22543
1.22501
1.225
1.225
1.22502
1.22502
1.22633
1.22595
1.22502
1.225
1.225
1.22503
1.22585
1.22501
1.22561
1.22502
1.225
1.22503
1.225
1.225
1.225
1.225
1.225
1.225
1.225
1.225
1.225
1.225
1.225
1.225
1.225
1.225
1.225
1.225
1.225
1.225
1.225
1.225
1.225
1.225
1.225
1.225
1.48546
1.225
1.225
1.225
1.225
1.225
1.225
1.225
1.225
1.225
1.225
1.225
1.225
1.225
1.225
1.225
1.225
1.225
1.225
1.22503
1.96479
2.76095
1.22611
1.36051
1.64698
2.66128
1.22806
1.24693
1.225
1.84937
1.37301
1.48188
1.22526
1.94546
1.225
0.664106
1.58189
0.810641
1.89742
2.10634
2.65372
2.58548
1.91435
1.94492
1.96379
1.41747
1.3932
1.3191
1.34793
2.34774
2.21128
2.88066
1.32536
2.53615
2.70166
2.39678
2.79346
2.46708
2.6277
2.56371
1.90989
1.77896
2.62401
1.22522
1.22501
1.27565
1.225
1.225
1.22512
1.225
1.22689
1.225
1.26462
1.225
1.225
1.225
1.225
1.65224
1.84914
1.93103
1.27697
1.34409
1.27682
1.2443
1.34485
1.55208
1.30662
2.44292
2.39301
2.12088
2.2382
1.41227
1.80817
1.73069
1.2551
1.23416
1.23095
1.26704
2.60909
2.88863
2.81563
2.30731
1.2625
1.47487
1.6568
1.71308
1.35888
1.25341
1.22884
2.24142
1.8008
1.35776
1.225
1.225
1.225
1.225
1.22504
1.225
1.225
1.24084
1.23546
1.22569
1.5182
1.26412
1.2516
1.61462
1.24674
1.30783
1.58407
1.23972
1.22549
1.22729
1.22907
1.2252
1.23441
1.23265
1.22839
1.22511
1.22968
1.22508
1.225
1.225
1.225
1.22504
1.22501
1.225
1.225
1.38329
1.23955
1.23299
1.23477
1.23034
1.2252
1.22539
1.22667
1.22511
1.2295
1.22666
1.22501
1.22503
1.22549
1.25061
1.22859
1.22709
1.22609
1.22565
1.22504
1.22507
1.225
1.225
1.22501
1.225
1.225
1.225
1.225
1.22519
1.225
1.225
1.225
1.225
1.225
1.225
1.22533
1.22502
1.22517
1.33027
1.22593
1.23309
1.24028
1.22589
1.225
1.22521
1.22503
1.22513
1.22633
1.22502
1.23257
1.22525
1.22712
1.22516
1.2264
1.22504
1.225
1.23473
1.22509
1.22563
1.22503
1.2252
1.22501
1.225
1.22536
1.225
1.22501
1.225
1.22504
1.22501
1.22508
3.42756
1.84319
1.19799
0.0914586
0.0583966
0.478385
0.0068085
0.42798
1.85468
0.0108219
0.138589
0.00618448
0.222854
0.0247143
0.00591986
0.110923
0.0102633
0.253633
0.0180969
0.0127717
0.0121633
0.00596836
0.0103109
0.0105498
0.02211
0.00614986
0.0174357
0.00569117
0.0115964
0.01982
0.00991294
0.0101232
0.0119241
0.0120815
0.00693566
0.00552723
0.0101681
0.00626035
0.0140169
0.00672194
0.011716
0.00538015
0.0114391
0.00991348
0.0134683
0.00615905
0.0962709
0.699543
0.154247
0.133189
0.437364
0.0873841
0.620018
0.0882734
0.129006
0.419462
0.619329
0.139477
0.0847365
0.59315
0.0698853
0.023451
0.0104142
0.0199123
0.0216088
0.00935985
0.0576331
0.0244514
0.0197691
0.0215179
0.0690083
0.0230703
0.00929673
0.0573823
3.08978
0.453753
0.618515
1.32803
1.81799
1.37114
1.85856
0.396518
0.872368
0.326148
1.85137
1.28098
1.89266
1.28475
0.186589
0.143479
0.0919214
0.121231
0.0354046
0.0457624
0.0275439
0.168292
0.110431
0.0889516
0.0441937
0.0321649
0.0525898
0.0265612
0.089305
0.138854
0.111767
0.0325845
0.0321509
0.0264737
0.0395921
0.11374
0.145739
0.0414762
0.118831
0.0343196
0.0331821
0.0271493
0.30677
2.19707
0.672563
1.92216
0.560003
0.256797
1.03528
0.542744
1.98447
0.611046
0.247694
1.0595
0.274909
0.991684
0.708436
0.208714
0.579813
0.25963
0.0736885
0.0598431
0.182635
0.206936
0.699785
0.577753
0.0593472
0.220385
0.0721308
0.18205
0.557388
0.395739
0.318581
1.40277
1.31123
1.09012
1.62802
0.469365
0.32816
0.432455
1.44275
1.41214
1.11704
1.75963
0.404316
0.516259
0.424391
1.33067
1.38978
1.10969
1.6097
0.31911
0.492451
0.39789
1.3139
1.31245
1.08992
1.55222
0.0329364
0.983206
0.833023
0.333713
0.007336
0.591325
0.0103878
0.312419
0.00475713
0.0541578
0.6023
0.0100811
0.304569
0.429531
0.00624786
0.0117129
0.00960896
0.00445067
0.00545707
0.00984657
0.00789806
0.00551408
0.0130911
0.0117383
0.0125932
0.0180134
0.00574655
0.0217985
0.0102167
0.00650081
0.061679
0.315086
0.0635086
0.0733508
0.338707
0.0691872
0.353155
0.0063935
0.00377791
0.00373593
0.00859774
0.00401991
0.00793224
0.00472792
0.0110173
0.0115928
0.0174314
0.00564394
0.0198029
0.00998455
0.00615824
0.0612456
0.308209
0.0606512
0.0699145
0.331896
0.0678865
0.335057
0.00475566
0.00373448
0.00377778
0.0082251
0.00401251
0.00779306
0.00458015
0.00920669
0.00740842
0.00700215
0.00516105
0.00432444
0.00923297
0.00518829
0.00446881
0.00539407
0.00370839
0.0064267
0.00622523
0.00421446
0.00390211
0.00385312
0.0037094
0.00373315
0.00379862
0.00377506
0.00379071
0.00370853
0.0040569
0.00391435
0.00368487
0.00388392
0.00390387
0.00376516
0.00383107
0.00423258
0.00379292
0.00425822
0.00407464
0.00423242
0.00393048
0.00385905
0.00444507
0.00537878
0.00370885
0.00637051
0.00420123
0.00611113
0.00389858
0.00402958
0.00391032
0.00368943
0.00381176
0.00384796
0.00375233
0.00386651
0.00387225
0.00371181
0.00374368
0.00379492
0.00377544
0.00379203
0.0037336
0.00424336
0.0037932
0.00423789
0.00402437
0.00392988
0.00414119
0.00384918
0.0699072
0.0196504
0.0445944
0.0148585
0.0157498
0.00869447
0.025133
0.0685165
0.392409
0.0803324
0.08064
0.494116
0.100858
0.393041
0.0275444
0.0341475
0.0167298
0.0205848
0.012816
0.0131458
0.0078022
0.0899938
0.360721
0.0746347
0.316144
0.0648956
0.0744537
0.357929
0.662577
0.129812
0.148492
0.0927699
0.41516
0.0855325
0.449136
0.571228
0.136051
0.125904
0.0872208
0.404029
0.0836221
0.416952
0.709412
0.261913
0.16938
0.595753
0.136835
0.0993622
0.465864
1.22264
0.197432
0.323554
0.110863
0.716315
0.161918
0.531028
1.46362
3.15811
1.24421
2.35904
3.63638
2.56377
3.64737
0.726905
1.61303
0.892502
1.9728
2.66529
2.65841
2.18399
1.21351
3.21238
1.35314
2.31888
3.59709
3.62955
2.45613
0.720717
1.82469
1.60814
1.96416
2.66955
2.66137
2.16171
2.42568
2.38019
1.70294
1.97413
2.30297
2.42455
1.86716
2.41641
2.3515
1.99283
1.7594
2.28648
2.41409
1.89301
2.39127
2.39239
1.74968
2.00697
2.31285
2.40403
1.89937
2.39333
2.37768
2.03078
1.78002
2.30746
2.40456
1.91865
2.58651
2.6529
1.42946
1.57279
2.82176
2.5121
1.68963
2.44846
1.98395
1.51848
1.31783
2.15161
2.36247
1.64202
2.46018
2.00689
1.32123
1.5383
2.16664
2.37997
1.65528
2.5751
2.4962
1.50492
1.40797
2.47854
2.77225
1.6571
2.30949
2.20663
2.22136
1.37565
1.22502
1.225
0.0986259
1.85905
0.811332
0.118364
1.30365
1.22605
1.22502
1.22568
2.38917
1.5134
3.62106
0.996961
0.0456322
3.68434
1.12157
0.174217
1.03038
0.0517591
2.89841
2.56974
2.43911
1.30684
2.66165
0.0598607
2.18955
0.0267142
0.0554449
1.29597
2.6257
0.031917
0.0675603
0.688081
2.6392
1.52772
2.43537
2.64646
1.22815
1.69241
3.20198
2.76232
2.57268
2.36131
2.94002
0.470223
0.598498
2.38577
0.020652
0.416564
0.340662
2.98652
0.598994
0.0127398
0.420163
0.0250879
0.910307
0.0130781
0.0128121
0.00776026
0.0546925
0.0167074
0.0278252
0.0341961
0.00758587
0.0147918
0.00862595
0.0423615
0.0166685
0.0345267
0.0198429
0.0583756
0.0275182
0.0356211
0.187612
0.0922341
0.143078
0.122911
0.0437303
0.0320687
0.0265246
0.164851
0.0888482
0.136523
0.109899
0.0341548
0.0319697
0.0404693
0.142265
0.0905346
0.118633
0.109799
0.0261494
0.0385743
0.0315547
0.135514
0.0886357
0.110457
0.108462
0.137673
0.472081
0.100478
0.265163
0.720875
0.172722
0.991383
0.0135451
0.0747853
0.0360047
0.077082
0.109392
0.035151
0.234425
0.22889
0.0625928
0.154443
0.325733
0.541426
0.223914
0.761564
1.22508
2.68993
2.68847
1.91499
2.3503
3.57526
0.664697
1.2262
2.72923
1.84234
1.53744
2.49335
0.459383
2.97115
0.080362
0.117184
0.0518698
0.574793
0.415315
0.263846
0.184988
0.149021
0.0704417
0.17741
0.253252
0.519516
0.214823
0.616679
2.6056
2.82862
1.22527
2.50476
2.94723
4.16645
1.36522
1.22505
1.22823
2.56357
2.13805
2.8392
1.08962
1.60167
0.151835
0.337007
0.102237
0.0496864
0.0316656
0.152186
0.102253
0.103488
0.415798
0.127783
0.0319503
0.0388085
0.128485
0.103664
0.0521118
0.146094
0.0630735
0.418225
0.510442
0.227188
0.186602
2.49359
1.22533
1.91601
1.225
2.0115
2.9683
1.93925
1.14989
0.249386
0.296797
0.660061
1.87372
0.547853
2.14404
0.957908
0.266548
0.239955
0.593297
1.8031
0.527222
1.93869
0.0697161
0.207394
0.163914
0.246591
0.522903
0.194422
0.660677
2.80337
1.22566
1.22507
1.35129
1.30266
3.55802
1.23836
0.186003
0.176396
0.268642
0.0520339
0.581908
0.0817592
0.117499
0.18732
0.521637
0.232125
0.14904
0.052376
0.118968
0.0645554
0.0551408
0.162934
0.200145
0.239205
0.520071
0.193407
0.639543
1.70578
2.3807
2.37637
1.22505
1.225
1.22865
1.22508
1.579
1.10413
1.39027
0.504225
0.323794
0.424235
0.391593
2.87704
2.06617
2.35526
1.225
1.22504
1.22515
1.22832
2.36508
1.94032
2.54678
1.225
1.22509
1.22518
1.22878
2.04709
2.12695
2.39574
1.22509
1.22888
1.225
1.22508
1.44328
1.78628
1.43629
0.625952
0.329545
0.468397
0.439799
1.08842
1.61016
1.38793
0.545873
0.31795
0.446725
0.393732
1.28616
1.31174
1.08624
0.482036
0.317484
0.395742
0.387604
1.2671
0.597608
0.354567
3.21619
1.36936
0.810911
2.35371
0.123226
0.307448
0.351851
0.430002
1.99316
1.08413
1.0171
2.30454
0.421933
0.743352
0.963106
3.70902
1.66615
2.74556
0.260676
0.112126
0.320126
0.873976
1.7968
0.393822
0.998311
1.65191
1.20268
0.520929
0.907784
0.238671
0.523725
1.65767
0.608047
3.23033
1.2905
0.830929
1.38914
0.363432
1.87719
1.57018
0.72047
0.229028
0.0683086
0.203802
0.231179
0.610181
1.86656
1.06591
0.41384
0.271359
0.345212
0.118699
0.72703
1.73806
0.472997
1.4051
1.44686
1.79152
2.87249
2.66953
1.38101
0.549266
1.55022
1.41058
1.57926
2.75078
2.65076
0.485424
1.08149
0.347433
1.41931
1.13691
2.63373
2.36564
0.350347
1.27339
0.428436
1.14323
1.32689
2.55755
2.38081
2.72996
2.66262
2.10549
1.06593
1.64649
0.79229
2.00438
2.35047
3.68389
2.5767
1.45526
3.1301
1.22732
3.40625
1.88727
2.68358
2.14551
1.63774
1.34941
0.870271
0.65731
3.6387
3.66232
2.29531
1.32244
3.05389
1.18585
3.18419
2.6623
2.68945
2.0498
0.878899
1.59075
0.759464
1.75999
2.65206
1.90101
2.12928
0.850847
1.51258
0.680991
1.76181
2.08403
2.58141
1.89656
1.3562
1.55568
0.795413
0.662432
2.61976
2.10659
1.89686
0.829164
1.50817
0.67809
1.72779
2.38427
1.14733
1.34623
1.09135
1.28055
0.434191
0.351592
2.62926
1.13689
1.36606
1.08123
0.487841
1.42386
0.347588
1.69219
0.702338
0.561324
1.48677
1.73405
2.7428
2.68975
0.661244
0.883573
1.64783
1.88728
2.15173
2.66531
2.55769
4.18908
4.16198
2.36122
1.2396
4.11436
2.40629
3.00812
2.92834
1.96434
2.86482
2.81388
1.87023
0.758344
1.64033
2.99948
2.3579
1.22984
4.13018
2.39573
3.21162
4.2146
2.80021
1.85417
0.740087
1.92059
2.83025
2.91429
2.99227
1.22503
1.225
1.225
1.28569
1.22502
1.24835
3.02577
2.86912
3.0959
2.8241
2.01551
4.10926
2.84731
3.84322
2.74288
3.40671
3.634
3.98821
2.54406
1.73471
3.55746
2.3321
2.54606
2.6756
1.36643
2.91318
2.3662
2.32798
2.66501
2.69643
2.49922
2.15735
2.85813
1.27314
2.27137
4.42738
1.53514
2.74
4.34036
2.76545
3.23641
4.09048
1.85136
0.916223
2.15363
2.96295
2.18207
2.9504
2.87175
2.48697
1.99726
1.11743
2.97194
2.34446
2.8022
2.59785
2.39922
2.30921
2.38839
1.76252
2.00196
1.84505
1.9146
2.3
2.43465
2.43389
2.0117
1.78842
1.92703
1.87572
2.37768
2.37266
2.30355
2.0209
1.91914
1.78231
1.88167
2.43705
2.44254
2.38938
1.97023
1.80465
1.70319
1.87671
3.95248
1.76356
2.55532
3.57171
2.73667
2.86193
3.32313
1.225
1.25054
1.35084
1.225
1.225
1.225
1.225
1.22503
1.23503
1.45291
1.225
1.225
1.225
1.225
2.76607
2.44325
2.66154
2.55905
1.88657
1.76333
2.5908
2.70713
2.87777
2.66673
2.68651
1.75732
2.70589
1.63262
2.44365
2.6862
2.85177
2.59432
1.59903
1.48933
2.63428
2.69504
2.65178
2.75595
2.69554
1.79604
2.72916
1.71635
2.44345
2.66584
2.74573
2.63763
1.64204
1.57213
2.66933
2.85003
2.62543
2.34223
2.85534
2.12782
1.99983
2.83204
2.85665
2.36265
2.55276
2.83905
2.14929
2.01529
2.85692
2.58349
2.67033
2.45046
2.7804
1.89596
1.77861
2.77216
2.62115
2.46282
2.60656
2.76106
1.91112
1.78913
2.79324
2.34826
2.64787
2.72717
2.37919
1.54802
1.42727
2.51745
1.77829
2.63478
2.64704
2.1681
1.34861
1.30152
2.3255
2.03359
2.45182
2.36816
1.54175
1.33672
1.29065
1.67174
2.42551
2.13819
2.41579
1.55971
1.3418
1.30853
1.63646
1.53872
1.62381
1.33784
2.40718
2.38574
2.10565
2.20247
2.08834
2.01829
2.41614
1.51416
1.29797
1.56838
1.28358
2.76438
2.93398
2.61921
1.61537
1.47577
1.73848
1.40455
2.20061
2.37715
2.44767
1.33498
1.66794
1.55056
1.29344
2.38898
2.23109
2.4344
1.55469
1.34345
1.63959
1.30884
3.29859
4.2729
3.23068
2.95929
1.60847
1.73668
3.3198
2.72702
3.03584
2.92602
2.73139
1.30239
1.65491
2.15148
2.60141
2.60156
2.5067
1.52219
1.44496
1.68497
1.34932
1.89753
2.02445
2.38821
1.28618
1.53039
1.44344
1.26425
2.8544
2.98741
2.90915
1.95829
2.00455
1.79133
1.27583
1.53944
2.29803
2.61051
1.85436
1.22998
1.25279
1.41654
2.32786
2.87028
2.82884
2.61914
1.26623
1.49028
2.00084
2.61634
4.16747
3.27194
2.61293
1.36353
1.43952
2.68632
2.12587
3.77567
3.11085
2.46094
1.29063
1.34597
2.40734
2.4933
2.90843
2.96775
2.49396
1.26108
1.84219
1.44399
2.14603
2.71973
2.87683
2.39739
1.24634
1.36619
1.74064
2.44017
3.96482
3.12902
2.83086
1.41265
1.54505
3.03952
1.47009
2.62186
2.82405
2.05372
1.23556
1.29283
1.50356
2.97908
3.91026
3.10728
2.45646
1.39391
1.52344
2.35445
1.75277
1.82011
2.24951
1.37048
1.22944
1.2555
1.25004
1.25858
1.28723
1.38051
2.26165
2.36203
1.88934
1.63142
1.33325
2.21523
1.72051
1.34839
1.22805
1.24621
1.24736
2.41262
1.69784
2.36522
1.40394
1.24108
1.26304
1.30079
0.262814
0.0343798
2.34218
0.204833
1.82672
2.40458
0.0186447
0.00409477
0.0171776
0.00989194
0.0185335
0.00380234
0.00479998
0.00970915
0.0216429
0.223395
0.00373638
0.0067988
0.00512562
0.0114569
2.21954
0.285247
2.23082
0.905173
2.35213
0.034722
1.8744
2.11187
0.530552
0.0195883
0.754374
2.73565
4.33845
1.77926
0.137012
0.0213772
0.0363201
0.35073
0.253243
2.65537
2.87171
0.00511377
0.00553077
0.00437326
0.00553841
0.0074929
0.00511968
0.00823647
0.00674478
0.0119374
0.0114782
0.00530925
0.0136666
0.00605181
0.00602907
0.00372667
0.00374238
0.00391851
0.00464489
0.00400754
0.00427936
0.00437472
0.00514099
0.0100445
0.00901082
0.00645873
0.0121094
0.00598062
0.0133584
0.00659001
0.0113106
0.0113494
0.0052352
0.0131346
0.00585258
0.00599601
0.00380365
0.00395991
0.00375257
0.0046171
0.00400143
0.00420649
0.00438182
0.00491542
0.0040186
0.00763082
0.00544891
0.00439265
0.005411
0.00490658
0.0048176
0.010192
0.00911112
0.00644047
0.0121937
0.00598569
0.0134278
0.00381299
0.00375329
0.0037483
0.00381392
0.00380134
0.00378869
0.00372426
0.00369855
0.00369987
0.00375413
0.0037712
0.0037523
0.00355105
0.00370808
0.00368184
0.00368601
0.00371876
0.00380056
0.00375125
0.00356174
0.00366916
0.00365007
0.00365967
0.00374027
0.00381356
0.00360201
0.00370787
0.00365087
0.0038688
0.00379681
0.0040248
0.00397493
0.00384535
0.0038859
0.00382934
0.00383928
0.0037594
0.00375612
0.00381269
0.00380304
0.00379793
0.00374633
0.00367693
0.0036727
0.00377761
0.00382998
0.00372372
0.00362693
0.00368484
0.00389817
0.00379599
0.00400034
0.00398161
0.00384016
0.00383662
0.00387988
0.0165757
0.0416922
0.0194094
0.0127242
0.0147217
0.0084944
0.00755561
0.0430455
0.0213809
0.0507623
0.00902047
0.0151314
0.00816549
0.0170502
0.00772207
0.00593322
0.0120579
0.00777386
0.0309519
0.0172572
0.0122384
0.0077235
0.00592614
0.0290005
0.0174304
0.0122727
0.00763446
0.01703
0.00862929
0.0146495
0.0693884
0.0157321
0.0250422
0.0325994
0.0445002
0.00901003
0.0186735
0.00816673
0.0508557
0.0151439
0.0170627
0.0431467
0.0221964
0.0650646
0.0519926
0.0100035
0.0198384
0.00893086
0.0230539
0.0184571
0.051741
0.0629014
0.00987752
0.0198604
0.00891701
0.0226773
0.135148
0.0315443
0.123323
0.201287
0.0446033
0.0507767
0.175503
0.0360772
0.0879908
0.111623
0.0137103
0.0839548
0.0364983
0.0280724
1.88546
1.22502
0.592953
1.11355
1.25304
2.00653
2.99046
0.0744339
0.0332218
0.101433
0.0247766
0.0725672
0.0130437
0.033837
0.0709299
0.0443051
0.174281
0.285741
0.132007
0.0710972
0.518554
0.110469
0.322504
0.715907
0.832217
0.161643
0.196848
1.22057
0.111177
0.0359531
0.0136323
0.087998
0.0838263
0.0280672
0.262239
0.645468