/*--------------------------------*- C++ -*----------------------------------*\
  =========                 |
  \\      /  F ield         | OpenFOAM: The Open Source CFD Toolbox
   \\    /   O peration     | Website:  https://openfoam.org
    \\  /    A nd           | Version:  9
     \\/     M anipulation  |
\*---------------------------------------------------------------------------*/
FoamFile
{
    format      ascii;
    class       volVectorField;
    location    "0.0003";
    object      rhoU;
}
// * * * * * * * * * * * * * * * * * * * * * * * * * * * * * * * * * * * * * //

dimensions      [1 -2 -1 0 0 0 0];

internalField   nonuniform List<vector> 
4946
(
(-2.13219e-12 1.4867e-12 4.37222e-12)
(-2.67589e-11 9.35973e-12 6.94134e-11)
(0 0 3.33257e-16)
(-5.04412e-16 0 3.33774e-16)
(1.75645e-16 0 3.33848e-16)
(-3.57447e-15 0 2.0576e-16)
(-6.17662e-13 0 -6.47813e-17)
(0 0 8.51727e-22)
(-5.03297e-16 0 2.13551e-20)
(1.75143e-16 0 3.3726e-22)
(-2.6009e-15 0 1.97983e-21)
(-5.56556e-13 4.26326e-16 1.23643e-14)
(0 0 1.22712e-21)
(-4.77567e-16 0 -1.15386e-20)
(2.18878e-16 0 -1.25698e-19)
(4.07228e-16 0 -2.84881e-17)
(-2.55561e-14 0 5.17246e-15)
(-5.78525e-11 7.21596e-15 -2.11072e-13)
(-3.81661e-09 1.8581e-12 -3.25184e-11)
(-5.33076e-11 2.12136e-13 1.52938e-12)
(-3.63642e-09 2.32232e-11 1.53625e-10)
(-3.14472e-12 -1.1053e-16 8.86125e-13)
(-3.32216e-10 4.3193e-14 7.85611e-11)
(-9.11003e-08 -2.63287e-09 -2.48542e-09)
(-14.9714 1.98718 -2.4906)
(-1.32554e-07 -1.43196e-09 2.63161e-09)
(-55.0483 10.5611 1.48112)
(-4.2629e-08 -3.38569e-11 1.33605e-08)
(-7.89337e-06 -3.12717e-07 2.52942e-06)
(-37.7321 6.2738 -4.90643)
(-0.00030789 3.06699e-05 -2.64192e-06)
(-2.83862e-05 2.48932e-06 -2.84753e-06)
(-2.59925 -0.331075 -0.200549)
(-0.0016491 -0.000152883 -0.000145304)
(-0.00661142 -0.000777867 -0.00050833)
(-24.9907 -4.88639 -3.211)
(-0.000307295 3.15342e-05 2.81118e-06)
(-1.23048 0.14203 0.262751)
(-2.64243e-05 1.54845e-06 4.56725e-06)
(-0.173348 -0.02039 0.0231878)
(-0.000253309 -2.68239e-05 1.69419e-07)
(-46.1774 -9.89837 0.782802)
(-5.67207e-05 -3.44681e-06 4.85438e-06)
(0 0 0)
(5.48125e-42 0 0)
(0 0 0)
(0 0 0)
(-8.1192e-42 0 0)
(-8.37197e-47 0 0)
(5.1248e-41 0 0)
(0 0 0)
(-2.84936e-38 0 0)
(0 0 0)
(0 0 0)
(1.52554e-39 0 0)
(0 0 0)
(0 0 0)
(-2.76015e-39 0 0)
(-2.74655e-44 0 0)
(1.5304e-38 0 0)
(-1.66078e-45 0 0)
(-1.56138e-35 0 0)
(0 0 0)
(0 0 0)
(3.93361e-37 0 0)
(0 0 0)
(0 0 0)
(-8.5752e-37 0 0)
(-8.42302e-42 0 0)
(4.16932e-36 0 0)
(-3.27985e-40 0 0)
(-8.21324e-33 0 0)
(0 0 0)
(0 0 0)
(9.34229e-35 0 0)
(0 0 0)
(0 0 0)
(-9.7007e-35 0 9.4898e-15)
(-1.18317e-39 0 -9.4898e-15)
(4.13586e-34 0 1.02835e-14)
(-1.10922e-36 0 1.3074e-14)
(-1.70152e-30 0 1.13113e-14)
(0 0 0)
(0 0 0)
(2.02972e-32 0 0)
(0 0 0)
(0 0 -9.4898e-15)
(-9.82499e-33 0 0)
(-3.53219e-37 0 -1.11964e-14)
(3.68109e-32 0 0)
(-1.8155e-33 0 0)
(-3.58436e-28 0 0)
(0 0 0)
(0 0 0)
(4.00112e-30 0 0)
(0 0 0)
(0 0 9.4898e-15)
(-8.77362e-31 0 1.11964e-14)
(-3.90043e-35 0 0)
(2.93343e-30 0 1.01823e-14)
(-4.42116e-30 0 0)
(-1.96145e-25 0 0)
(0 0 0)
(0 0 0)
(7.0854e-28 0 0)
(0 0 0)
(0 0 -1.02835e-14)
(-6.76455e-29 0 0)
(-3.85054e-33 0 -1.01823e-14)
(2.14847e-28 0 0)
(-8.5425e-27 0 0)
(-1.09766e-22 0 0)
(0 0 0)
(0 0 0)
(1.11331e-25 0 0)
(0 0 0)
(0 0 -1.32161e-14)
(-1.07999e-26 0 0)
(-2.63354e-31 0 0)
(3.01484e-26 0 0)
(-1.21696e-23 0 0)
(-5.84434e-20 0 0)
(-4.87688e-17 0 0)
(0 0 0)
(5.48135e-42 0 0)
(0 0 0)
(0 0 0)
(-2.17427e-43 0 0)
(-9.1107e-46 0 0)
(1.35144e-42 0 0)
(-2.93575e-47 0 0)
(-2.9416e-39 0 0)
(0 0 0)
(0 0 0)
(1.52558e-39 0 0)
(0 0 0)
(0 0 0)
(-7.37769e-41 0 0)
(-2.64391e-43 0 0)
(4.02873e-40 0 0)
(-2.39362e-43 0 0)
(-1.66701e-36 0 0)
(0 0 0)
(0 0 0)
(3.93373e-37 0 0)
(0 0 0)
(0 0 0)
(-2.28705e-38 0 0)
(-7.05578e-41 0 0)
(1.09741e-37 0 0)
(-9.62382e-40 0 0)
(-9.53425e-34 0 0)
(0 0 0)
(0 0 0)
(9.34269e-35 0 0)
(0 0 0)
(0 0 0)
(-6.41451e-36 0 0)
(-1.7095e-38 0 0)
(2.74204e-35 0 0)
(-2.51677e-36 0 0)
(-5.68751e-31 0 0)
(0 0 0)
(0 0 0)
(2.02983e-32 0 0)
(0 0 0)
(0 0 0)
(-1.60813e-33 0 0)
(-3.71584e-36 0 0)
(6.33669e-33 0 0)
(-5.26049e-33 0 0)
(-3.59307e-28 0 0)
(0 0 0)
(0 0 0)
(4.00142e-30 0 0)
(0 0 0)
(0 0 0)
(-3.54838e-31 0 0)
(-7.13274e-34 0 0)
(1.28283e-30 0 0)
(-9.65759e-30 0 0)
(-2.32325e-25 0 0)
(0 0 0)
(0 0 0)
(7.0861e-28 0 0)
(0 0 0)
(0 0 0)
(-6.75215e-29 0 0)
(-1.185e-31 0 0)
(2.16763e-28 0 0)
(-1.40678e-26 0 0)
(-1.42332e-22 0 0)
(0 0 0)
(0 0 0)
(1.11346e-25 0 0)
(0 0 0)
(0 0 0)
(-1.07804e-26 0 0)
(-1.65716e-29 0 0)
(3.01254e-26 0 0)
(-1.55948e-23 0 0)
(-7.66061e-20 0 0)
(-5.81029e-17 0 0)
(0 0 0)
(5.47142e-42 0 0)
(0 0 0)
(0 0 0)
(-2.02161e-43 0 0)
(-1.38551e-44 0 0)
(1.2669e-42 0 0)
(0 0 0)
(-1.18014e-41 0 0)
(0 0 0)
(0 0 0)
(1.52284e-39 0 0)
(0 0 0)
(0 0 0)
(-6.85927e-41 0 0)
(-4.02158e-42 0 0)
(3.77815e-40 0 0)
(0 0 0)
(-1.00374e-38 0 0)
(0 0 0)
(0 0 0)
(3.92674e-37 0 0)
(0 0 0)
(0 0 0)
(-2.12629e-38 0 0)
(-1.07376e-39 0 0)
(1.02762e-37 0 0)
(0 0 0)
(-8.13845e-36 0 0)
(0 0 0)
(0 0 0)
(9.32628e-35 0 0)
(0 0 0)
(0 0 0)
(-5.96376e-36 0 0)
(-2.6037e-37 0 0)
(2.52634e-35 0 0)
(0 0 0)
(-6.16462e-33 0 0)
(0 0 0)
(0 0 0)
(2.02633e-32 0 0)
(0 0 0)
(0 0 0)
(-1.49524e-33 0 0)
(-5.66519e-35 0 0)
(5.55101e-33 0 0)
(0 0 0)
(-4.27674e-30 0 0)
(0 0 0)
(0 0 0)
(3.99464e-30 0 0)
(0 0 0)
(0 0 0)
(-3.29979e-31 0 0)
(-1.08909e-32 0 0)
(1.07439e-30 0 0)
(0 0 0)
(-2.67215e-27 0 0)
(0 0 0)
(0 0 0)
(7.07441e-28 0 0)
(0 0 0)
(0 0 0)
(-6.28079e-29 0 0)
(-1.81262e-30 0 0)
(1.79649e-28 0 0)
(0 0 0)
(-1.48364e-24 0 0)
(0 0 0)
(0 0 0)
(1.11168e-25 0 0)
(0 0 0)
(0 0 0)
(-1.00279e-26 0 0)
(-2.54029e-28 0 0)
(2.5268e-26 0 0)
(0 0 0)
(-7.24305e-22 0 0)
(-9.32855e-19 0 0)
(0 0 0)
(5.0134e-42 0 0)
(0 0 0)
(0 0 0)
(-2.16736e-52 0 0)
(-2.13823e-46 0 0)
(4.63922e-46 0 0)
(0 0 0)
(-1.54562e-46 0 0)
(0 0 0)
(0 0 0)
(1.39592e-39 0 0)
(0 0 0)
(0 0 0)
(-1.22087e-49 0 0)
(-6.85649e-44 0 0)
(1.57579e-43 0 0)
(0 0 0)
(-2.11678e-43 0 0)
(0 0 0)
(0 0 0)
(3.60131e-37 0 0)
(0 0 0)
(0 0 0)
(-6.31475e-47 0 0)
(-2.03652e-41 0 0)
(4.95172e-41 0 0)
(0 0 0)
(-2.77568e-40 0 0)
(0 0 0)
(0 0 0)
(8.55887e-35 0 0)
(0 0 0)
(0 0 0)
(-2.98185e-44 0 0)
(-5.57444e-39 0 0)
(1.42947e-38 0 0)
(0 0 0)
(-3.41443e-37 0 0)
(0 0 0)
(0 0 0)
(1.8611e-32 0 0)
(0 0 0)
(0 0 0)
(-1.27657e-41 0 0)
(-1.39743e-36 0 0)
(3.7583e-36 0 0)
(0 0 0)
(-3.83953e-34 0 0)
(0 0 0)
(0 0 0)
(3.67267e-30 0 0)
(0 0 0)
(0 0 0)
(-4.9126e-39 0 0)
(-3.18291e-34 0 0)
(8.90062e-34 0 0)
(0 0 0)
(-3.85344e-31 0 0)
(0 0 0)
(0 0 0)
(6.51271e-28 0 0)
(0 0 0)
(0 0 0)
(-1.681e-36 0 0)
(-6.51766e-32 0 0)
(1.87158e-31 0 0)
(0 0 0)
(-3.38371e-28 0 0)
(0 0 0)
(0 0 0)
(1.02515e-25 0 0)
(0 0 0)
(0 0 0)
(-5.04151e-34 0 0)
(-1.1822e-29 0 0)
(3.42627e-29 0 0)
(0 0 0)
(-2.55432e-25 0 0)
(-1.61631e-21 0 0)
(0 0 0)
(5.68967e-45 0 0)
(0 0 0)
(0 0 0)
(-5.54886e-51 0 0)
(-3.59976e-45 0 0)
(7.52348e-45 0 0)
(0 0 0)
(-1.03127e-49 0 0)
(0 0 0)
(0 0 0)
(2.02908e-42 0 0)
(0 0 0)
(0 0 0)
(-3.15699e-48 0 0)
(-1.17946e-42 0 0)
(2.59399e-42 0 0)
(0 0 0)
(-1.26612e-46 0 0)
(0 0 0)
(0 0 0)
(6.7062e-40 0 0)
(0 0 0)
(0 0 0)
(-1.65633e-45 0 0)
(-3.59632e-40 0 0)
(8.30107e-40 0 0)
(0 0 0)
(-1.39303e-43 0 0)
(0 0 0)
(0 0 0)
(2.04336e-37 0 0)
(0 0 0)
(0 0 0)
(-7.97701e-43 0 0)
(-1.0164e-37 0 0)
(2.45027e-37 0 0)
(0 0 0)
(-1.37036e-40 0 0)
(0 0 0)
(0 0 0)
(5.70485e-35 0 0)
(0 0 0)
(0 0 0)
(-3.50812e-40 0 0)
(-2.64994e-35 0 0)
(6.62082e-35 0 0)
(0 0 0)
(-1.20179e-37 0 0)
(0 0 0)
(0 0 0)
(1.44887e-32 0 0)
(0 0 0)
(0 0 0)
(-1.40037e-37 0 0)
(-6.33594e-33 0 0)
(1.6223e-32 0 0)
(0 0 0)
(-9.36276e-35 0 0)
(0 0 0)
(0 0 0)
(3.31844e-30 0 0)
(0 0 0)
(0 0 0)
(-5.03922e-35 0 0)
(-1.3789e-30 0 0)
(3.5618e-30 0 0)
(0 0 0)
(-6.45316e-32 0 0)
(0 0 0)
(0 0 0)
(6.78191e-28 0 0)
(0 0 0)
(0 0 0)
(-1.62208e-32 0 0)
(-2.70477e-28 0 0)
(6.8984e-28 0 0)
(0 0 0)
(-3.9171e-29 0 0)
(0 0 0)
(0 0 0)
(-5.25339e-48 0 0)
(0 0 0)
(0 0 0)
(-1.06519e-53 0 0)
(-6.03237e-61 0 0)
(-2.49749e-65 0 0)
(0 0 0)
(0 0 0)
(0 0 0)
(0 0 0)
(-1.39556e-45 0 0)
(0 0 0)
(0 0 0)
(-6.53477e-51 0 0)
(-7.95291e-58 0 0)
(-1.83397e-64 0 0)
(0 0 0)
(0 0 0)
(0 0 0)
(0 0 0)
(-3.45562e-43 0 0)
(0 0 0)
(0 0 0)
(-3.7072e-48 0 0)
(-1.13851e-54 0 0)
(-2.78968e-59 0 0)
(0 0 0)
(0 0 0)
(0 0 0)
(0 0 0)
(-7.903e-41 0 0)
(0 0 0)
(0 0 0)
(-1.93706e-45 0 0)
(-1.65861e-51 0 0)
(-5.62987e-57 0 0)
(0 0 0)
(0 0 0)
(0 0 0)
(0 0 0)
(-1.65839e-38 0 0)
(0 0 0)
(0 0 0)
(-9.27883e-43 0 0)
(-2.17471e-48 0 0)
(-4.11809e-55 0 0)
(0 0 0)
(0 0 0)
(0 0 0)
(0 0 0)
(-3.16852e-36 0 0)
(0 0 0)
(0 0 0)
(-4.05234e-40 0 0)
(-2.52031e-45 0 0)
(-5.09632e-53 0 0)
(0 0 0)
(0 0 0)
(0 0 0)
(0 0 0)
(-5.4629e-34 0 0)
(0 0 0)
(0 0 0)
(-1.603e-37 0 0)
(-2.57174e-42 0 0)
(-5.23021e-51 0 0)
(0 0 0)
(0 0 0)
(0 0 0)
(0 0 0)
(-8.41483e-32 0 0)
(0 0 0)
(0 0 0)
(-5.69856e-35 0 0)
(-2.30164e-39 0 0)
(-8.87674e-50 0 0)
(0 0 0)
(0 0 0)
(0 0 0)
(0 0 0)
(-6.39171e-52 0 0)
(0 0 0)
(0 0 0)
(-3.42763e-61 0 0)
(1.91375e-77 0 0)
(-1.85267e-62 0 0)
(0 0 0)
(0 0 0)
(0 0 0)
(0 0 0)
(-2.31152e-49 0 0)
(0 0 0)
(0 0 0)
(-2.60529e-58 0 0)
(1.18372e-74 0 0)
(-4.77416e-60 0 0)
(0 0 0)
(0 0 0)
(0 0 0)
(0 0 0)
(-7.87341e-47 0 0)
(0 0 0)
(0 0 0)
(-1.84727e-55 0 0)
(7.34564e-72 0 0)
(-1.13207e-57 0 0)
(0 0 0)
(0 0 0)
(0 0 0)
(0 0 0)
(-2.51743e-44 0 0)
(0 0 0)
(0 0 0)
(-1.21867e-52 0 0)
(5.09275e-69 0 0)
(-2.45268e-55 0 0)
(0 0 0)
(0 0 0)
(0 0 0)
(0 0 0)
(-7.52718e-42 0 0)
(0 0 0)
(0 0 0)
(-7.4576e-50 0 0)
(5.67557e-66 0 0)
(-4.81381e-53 0 0)
(0 0 0)
(0 0 0)
(0 0 0)
(0 0 0)
(-2.09552e-39 0 0)
(0 0 0)
(0 0 0)
(-4.21781e-47 0 0)
(4.09487e-63 0 0)
(-8.46958e-51 0 0)
(0 0 0)
(0 0 0)
(0 0 0)
(0 0 0)
(-5.40447e-37 0 0)
(0 0 0)
(0 0 0)
(-2.19501e-44 0 0)
(2.87381e-60 0 0)
(-1.31836e-48 0 0)
(0 0 0)
(0 0 0)
(0 0 0)
(0 0 0)
(-1.28368e-34 0 0)
(0 0 0)
(0 0 0)
(-1.04539e-41 0 0)
(7.36237e-58 0 0)
(-1.78479e-46 0 0)
(0 0 0)
(0 0 0)
(0 0 0)
(0 0 0)
(0 0 0)
(0 0 0)
(0 0 0)
(0 0 0)
(0 0 0)
(-1.98912e-61 0 0)
(0 0 0)
(0 0 0)
(0 0 0)
(0 0 0)
(0 0 0)
(0 0 0)
(0 0 0)
(0 0 0)
(0 0 0)
(-5.14597e-59 0 0)
(0 0 0)
(0 0 0)
(0 0 0)
(0 0 0)
(0 0 0)
(0 0 0)
(0 0 0)
(0 0 0)
(0 0 0)
(-1.22654e-56 0 0)
(0 0 0)
(0 0 0)
(0 0 0)
(0 0 0)
(0 0 0)
(0 0 0)
(0 0 0)
(0 0 0)
(0 0 0)
(-2.6752e-54 0 0)
(0 0 0)
(0 0 0)
(0 0 0)
(0 0 0)
(0 0 0)
(0 0 0)
(0 0 0)
(0 0 0)
(0 0 0)
(-5.29631e-52 0 0)
(0 0 0)
(0 0 0)
(0 0 0)
(0 0 0)
(0 0 0)
(0 0 0)
(0 0 0)
(0 0 0)
(0 0 0)
(-9.4246e-50 0 0)
(0 0 0)
(0 0 0)
(0 0 0)
(0 0 0)
(0 0 0)
(0 0 0)
(0 0 0)
(0 0 0)
(0 0 0)
(-1.48916e-47 0 0)
(0 0 0)
(0 0 0)
(0 0 0)
(0 0 0)
(0 0 0)
(0 0 0)
(0 0 0)
(0 0 0)
(0 0 0)
(-2.05736e-45 0 0)
(0 0 0)
(0 0 0)
(0 0 0)
(0 0 0)
(0 0 0)
(0 0 0)
(0 0 0)
(0 0 0)
(0 0 0)
(0 0 0)
(0 0 0)
(0 0 0)
(0 0 0)
(0 0 0)
(0 0 0)
(0 0 0)
(0 0 0)
(0 0 0)
(0 0 0)
(0 0 0)
(0 0 0)
(0 0 0)
(0 0 0)
(0 0 0)
(0 0 0)
(0 0 0)
(0 0 0)
(0 0 0)
(0 0 0)
(0 0 0)
(0 0 0)
(0 0 0)
(0 0 0)
(0 0 0)
(0 0 0)
(0 0 0)
(0 0 0)
(0 0 0)
(0 0 0)
(0 0 0)
(0 0 0)
(0 0 0)
(0 0 0)
(0 0 0)
(0 0 0)
(0 0 0)
(0 0 0)
(0 0 0)
(0 0 0)
(0 0 0)
(0 0 0)
(0 0 0)
(0 0 0)
(0 0 0)
(0 0 0)
(0 0 0)
(0 0 0)
(0 0 0)
(0 0 0)
(0 0 0)
(0 0 0)
(0 0 0)
(0 0 0)
(0 0 0)
(0 0 0)
(0 0 0)
(0 0 0)
(0 0 0)
(0 0 0)
(0 0 0)
(0 0 0)
(0 0 0)
(0 0 0)
(0 0 0)
(0 0 0)
(0 0 0)
(0 0 0)
(0 0 0)
(0 0 0)
(0 0 0)
(0 0 0)
(0 0 0)
(0 0 0)
(0 0 0)
(0 0 0)
(0 0 0)
(0 0 0)
(0 0 0)
(0 0 0)
(0 0 0)
(0 0 0)
(0 0 0)
(0 0 0)
(0 0 0)
(0 0 0)
(0 0 0)
(0 0 0)
(0 0 0)
(0 0 0)
(0 0 0)
(0 0 0)
(0 0 0)
(0 0 0)
(0 0 0)
(0 0 0)
(0 0 0)
(0 0 0)
(0 0 0)
(0 0 0)
(0 0 0)
(0 0 0)
(0 0 0)
(0 0 0)
(0 0 0)
(0 0 0)
(0 0 0)
(0 0 0)
(0 0 0)
(0 0 0)
(0 0 0)
(0 0 0)
(0 0 0)
(0 0 0)
(0 0 0)
(0 0 0)
(0 0 0)
(0 0 0)
(0 0 0)
(0 0 0)
(0 0 0)
(0 0 0)
(0 0 0)
(0 0 0)
(0 0 0)
(0 0 0)
(0 0 0)
(0 0 0)
(0 0 0)
(0 0 0)
(0 0 0)
(0 0 0)
(0 0 0)
(0 0 0)
(0 0 0)
(0 0 0)
(0 0 0)
(0 0 0)
(0 0 0)
(0 0 0)
(0 0 0)
(0 0 0)
(0 0 0)
(0 0 0)
(0 0 0)
(0 0 0)
(0 0 0)
(0 0 0)
(0 0 0)
(0 0 0)
(0 0 0)
(0 0 0)
(0 0 0)
(0 0 0)
(-1.62788e-12 -1.31213e-12 -1.72425e-14)
(-1.09901e-10 -1.11709e-10 -1.94698e-12)
(-4.89111e-09 -7.04857e-09 -1.75444e-10)
(-9.95764e-11 -6.06951e-11 -1.44161e-12)
(-6.01082e-09 -4.72183e-09 -1.6466e-10)
(-2.29636e-05 -2.91319e-05 -1.44742e-06)
(-1.87752e-12 -1.51669e-12 4.26668e-14)
(-1.29901e-10 -1.30377e-10 4.58106e-12)
(-6.16902e-09 -8.6154e-09 3.61293e-10)
(-1.16711e-10 -7.34977e-11 3.39475e-12)
(-7.25543e-09 -5.79849e-09 3.21018e-10)
(-9.09349e-06 -9.62771e-06 1.43486e-06)
(-1.16718e-13 -9.77716e-14 3.65837e-14)
(-9.38013e-12 -1.05552e-11 3.30054e-12)
(-5.60755e-10 -1.19558e-09 2.65783e-10)
(-9.85207e-12 -5.47646e-12 2.53066e-12)
(-1.25541e-09 -8.89398e-10 3.02537e-10)
(-8.01017e-08 -9.71989e-08 3.59882e-08)
(0 -4.26024e-16 1.42109e-16)
(-1.19016e-13 -1.33472e-13 8.9114e-14)
(-5.86193e-12 -1.0786e-11 7.07602e-12)
(-1.2992e-13 -7.51912e-14 7.5198e-14)
(-1.09844e-11 -8.44352e-12 8.13021e-12)
(-8.76083e-10 -1.08151e-09 1.05028e-09)
(0 0 0)
(-2.92459e-16 -4.26326e-16 3.5512e-16)
(-5.24224e-14 -8.70984e-14 8.95893e-14)
(-2.17667e-16 0 3.94421e-16)
(-8.81727e-14 -7.20964e-14 1.00472e-13)
(-4.34675e-12 -5.3894e-12 7.98705e-12)
(0 0 0)
(-2.77981e-19 0 0)
(-1.03682e-23 -8.74226e-17 1.87971e-16)
(-6.35134e-20 0 0)
(-9.94239e-17 0 2.54684e-16)
(-2.91007e-14 -3.2937e-14 6.58455e-14)
(0 0 0)
(-1.40802e-23 0 0)
(0 0 1.88372e-19)
(0 0 0)
(-1.04256e-20 0 0)
(0 -1.7462e-17 1.37156e-16)
(0 0 0)
(0 0 0)
(0 0 1.38477e-22)
(0 0 0)
(0 0 0)
(0 0 6.34217e-20)
(0 0 0)
(0 0 0)
(0 0 2.37937e-30)
(0 0 0)
(0 0 0)
(0 0 8.22588e-28)
(0 0 0)
(0 0 0)
(0 0 0)
(0 0 0)
(0 0 0)
(0 0 0)
(-5.11271e-34 0 0)
(-9.31332e-31 0 0)
(-2.50652e-36 0 0)
(-6.33956e-31 0 0)
(-4.80028e-28 0 0)
(-5.12985e-33 0 0)
(-6.54645e-28 0 0)
(-2.36864e-25 0 0)
(-8.72347e-30 0 0)
(-5.53067e-25 0 0)
(-1.15542e-22 0 0)
(-1.23693e-26 0 0)
(-3.7028e-22 0 0)
(-5.60133e-20 0 0)
(-1.45686e-23 -2.37144e-18 0)
(-1.86798e-19 0 0)
(-2.53249e-17 0 0)
(-1.98953e-15 -8.18957e-15 0)
(-6.69787e-17 0 0)
(-9.62574e-15 -1.6475e-14 0)
(-4.81485e-13 -1.22187e-12 -8.93815e-15)
(-1.73241e-14 -1.61835e-14 -1.19192e-14)
(-1.26365e-12 -1.68005e-12 -1.41793e-14)
(-5.77263e-11 -1.12472e-10 -1.43e-12)
(-2.04589e-34 0 0)
(-8.97699e-31 0 0)
(-2.49074e-36 0 0)
(-2.54858e-31 0 0)
(-4.73995e-28 0 0)
(-5.09556e-33 0 0)
(-2.66951e-28 0 0)
(-2.41275e-25 0 0)
(-8.65235e-30 0 0)
(-2.33757e-25 0 0)
(-1.21878e-22 0 0)
(-1.22027e-26 0 0)
(-1.69375e-22 0 0)
(-6.08959e-20 0 0)
(-1.41723e-23 -5.73037e-18 0)
(-1.00228e-19 0 0)
(-2.83456e-17 0 0)
(-2.84218e-15 -1.02375e-14 1.48772e-17)
(-4.7804e-17 0 0)
(-1.11705e-14 -1.79384e-14 0)
(-6.15344e-13 -1.44311e-12 2.42364e-14)
(-1.82202e-14 -1.93405e-14 0)
(-1.47131e-12 -1.93361e-12 4.28141e-14)
(-7.16228e-11 -1.34619e-10 3.46505e-12)
(0 0 0)
(-2.23023e-32 0 0)
(0 0 0)
(0 0 0)
(-1.48621e-29 0 0)
(0 0 0)
(0 0 0)
(-8.70287e-27 0 0)
(0 0 0)
(0 0 0)
(-4.45327e-24 0 0)
(0 0 0)
(0 0 0)
(-1.98378e-21 0 0)
(0 -6.59196e-21 0)
(0 0 0)
(-7.7018e-19 0 0)
(0 -8.19157e-17 1.37965e-17)
(0 0 0)
(-2.63192e-16 0 0)
(-2.8548e-14 -7.56821e-14 2.02399e-14)
(0 -3.716e-16 0)
(-8.1154e-14 -1.15371e-13 3.22586e-14)
(-3.44946e-12 -8.60666e-12 2.36218e-12)
(0 0 0)
(0 0 0)
(0 0 0)
(0 0 0)
(0 0 0)
(0 0 0)
(0 0 0)
(0 0 0)
(0 0 0)
(0 0 0)
(0 0 0)
(0 0 0)
(0 0 0)
(0 0 0)
(0 0 0)
(0 0 0)
(0 0 0)
(0 -4.49184e-20 1.21653e-20)
(0 0 0)
(-1.51101e-19 0 0)
(0 -1.4763e-16 6.54826e-17)
(0 -1.12277e-18 0)
(-2.84096e-16 -3.71748e-16 7.10543e-17)
(-5.07801e-14 -1.13246e-13 6.12332e-14)
(0 0 0)
(0 0 0)
(0 0 0)
(0 0 0)
(0 0 0)
(0 0 0)
(0 0 0)
(0 0 0)
(0 0 0)
(0 0 0)
(0 0 0)
(0 0 0)
(0 0 0)
(0 0 0)
(0 0 0)
(0 0 0)
(0 0 0)
(0 0 0)
(0 0 0)
(0 0 0)
(0 -5.45325e-20 1.15518e-20)
(0 -9.7359e-22 0)
(0 -4.16495e-19 0)
(0 -1.53438e-16 1.90692e-16)
(0 0 0)
(0 0 0)
(0 0 0)
(0 0 0)
(0 0 0)
(0 0 0)
(0 0 0)
(0 0 0)
(0 0 0)
(0 0 0)
(0 0 0)
(0 0 0)
(0 0 0)
(0 0 0)
(0 0 0)
(0 0 0)
(0 0 0)
(0 0 0)
(0 0 0)
(0 0 0)
(0 -1.33313e-22 2.41691e-23)
(0 -2.72874e-24 0)
(0 -1.1193e-21 0)
(0 -3.83949e-19 7.48668e-21)
(0 0 0)
(0 0 0)
(0 0 0)
(0 0 0)
(0 0 0)
(0 0 0)
(0 0 0)
(0 0 0)
(0 0 0)
(0 0 0)
(0 0 0)
(0 0 0)
(0 0 0)
(0 0 0)
(0 0 0)
(0 0 0)
(0 0 0)
(0 0 0)
(0 0 0)
(0 0 0)
(0 0 2.20244e-24)
(0 0 0)
(0 0 0)
(0 0 4.49751e-22)
(0 0 0)
(0 0 0)
(0 0 0)
(0 0 0)
(0 0 0)
(0 0 0)
(0 0 0)
(0 0 0)
(0 0 0)
(0 0 0)
(0 0 0)
(0 0 0)
(0 0 0)
(0 0 0)
(0 0 0)
(0 0 0)
(0 0 0)
(0 0 0)
(0 0 0)
(0 0 0)
(0 0 3.25086e-28)
(0 0 0)
(0 0 0)
(0 0 2.16963e-25)
(0 0 0)
(0 0 0)
(0 0 0)
(0 0 0)
(0 0 0)
(0 0 0)
(0 0 0)
(0 0 0)
(0 0 0)
(0 0 0)
(0 0 0)
(0 0 0)
(0 0 0)
(0 0 0)
(0 0 0)
(0 0 0)
(0 0 0)
(0 0 0)
(0 0 0)
(0 0 0)
(0 0 1.90601e-35)
(0 0 0)
(0 0 0)
(0 0 7.58544e-33)
(0 0 0)
(0 0 0)
(0 0 0)
(0 0 0)
(0 0 0)
(0 0 0)
(0 0 0)
(0 0 0)
(0 0 0)
(0 0 0)
(0 0 0)
(0 0 0)
(0 0 0)
(0 0 0)
(0 0 0)
(0 0 0)
(0 0 0)
(0 0 0)
(0 0 0)
(0 0 0)
(0 0 0)
(0 0 0)
(0 0 0)
(0 0 0)
(0 0 5.12098e-19)
(0 0 2.77422e-26)
(0 0 3.14372e-19)
(0 0 -2.83744e-20)
(0 0 -2.88306e-19)
(-4.81391e-19 0 -2.64289e-17)
(-3.27184e-16 0 6.91779e-17)
(4.72062e-16 0 3.73745e-18)
(1.25184e-29 -1.76809e-21 -1.51003e-15)
(0 0 0)
(1.52793e-23 0 0)
(0 0 0)
(0 0 -1.13113e-14)
(-1.38904e-24 0 0)
(-2.95872e-29 0 0)
(3.42794e-24 0 0)
(-1.2826e-20 0 0)
(-2.71171e-17 0 0)
(-1.69602e-14 -1.0532e-14 0)
(0 0 0)
(1.79402e-21 0 0)
(0 0 0)
(0 0 0)
(-1.35022e-22 0 0)
(-2.52282e-27 0 0)
(3.02294e-22 0 0)
(-1.01688e-17 0 0)
(-1.01479e-14 -3.2685e-15 3.3765e-25)
(-1.21468e-12 -5.9184e-13 -1.11792e-14)
(0 0 0)
(1.75155e-19 0 0)
(0 0 0)
(0 0 0)
(-8.83213e-21 0 0)
(-1.46496e-25 0 0)
(2.03932e-20 0 0)
(-2.27374e-15 -4.34431e-16 1.18718e-14)
(0 0 0)
(1.36402e-17 0 0)
(0 -1.25233e-26 0)
(0 -2.06268e-24 2.26693e-19)
(-2.93953e-19 -3.04301e-22 2.30522e-19)
(-4.83249e-24 -1.05314e-19 2.30621e-19)
(4.66137e-19 -3.82275e-17 2.3616e-19)
(-1.2935e-13 -1.30317e-14 -3.55177e-16)
(0 0 0)
(7.92656e-16 0 0)
(0 0 0)
(1.5282e-23 0 0)
(0 0 0)
(0 0 0)
(-1.38658e-24 0 0)
(-1.87449e-27 0 0)
(3.38179e-24 0 0)
(-1.29232e-20 0 0)
(-3.43326e-17 0 0)
(-1.96893e-14 -1.31481e-14 0)
(0 0 0)
(1.79447e-21 0 0)
(0 0 0)
(0 0 0)
(-1.34796e-22 0 0)
(-1.61142e-25 0 0)
(2.9318e-22 0 0)
(-7.82092e-18 0 0)
(-1.26231e-14 -4.68958e-15 2.33436e-17)
(-1.41519e-12 -7.16735e-13 2.70788e-14)
(0 0 0)
(1.75219e-19 0 0)
(0 0 0)
(0 0 0)
(-8.81913e-21 0 0)
(-9.80442e-24 0 0)
(1.92214e-20 0 0)
(-3.55271e-15 -5.08435e-16 2.33122e-17)
(0 0 0)
(1.36478e-17 0 0)
(0 -5.50744e-27 0)
(0 -2.18124e-24 3.46317e-26)
(-2.93344e-19 -2.98562e-22 2.41408e-24)
(-1.48312e-22 -8.88751e-20 4.51047e-28)
(-1.41653e-16 -2.92746e-17 0)
(-1.57204e-13 -1.07103e-14 1.27518e-15)
(0 0 0)
(7.93417e-16 0 0)
(0 0 0)
(1.52587e-23 0 0)
(0 0 0)
(0 0 0)
(-1.28984e-24 0 0)
(-2.88063e-26 0 0)
(2.87679e-24 0 0)
(0 0 0)
(-3.08387e-19 0 0)
(-3.13212e-16 0 0)
(0 0 0)
(1.7919e-21 0 0)
(0 0 0)
(0 0 0)
(-1.25399e-22 0 0)
(-2.4838e-24 0 0)
(2.50146e-22 0 0)
(0 0 0)
(-1.13904e-16 0 2.03558e-17)
(-9.42803e-14 -4.32642e-14 2.40762e-14)
(0 0 0)
(1.74991e-19 0 0)
(0 0 0)
(0 0 0)
(-8.20513e-21 0 0)
(-1.51696e-22 0 0)
(1.51577e-20 0 0)
(0 -1.41288e-17 2.03504e-17)
(0 0 0)
(1.36326e-17 0 0)
(0 -1.88927e-28 0)
(0 -7.65825e-26 1.56601e-27)
(-2.72957e-19 -1.37178e-23 -5.32e-26)
(-2.3274e-21 -5.69857e-21 -2.21183e-37)
(4.36034e-19 -8.7313e-19 0)
(-5.11591e-15 -2.82778e-16 7.49686e-16)
(0 0 0)
(7.92766e-16 0 0)
(0 0 0)
(1.41025e-23 0 0)
(0 0 0)
(0 0 0)
(-1.29851e-31 0 0)
(-1.85783e-27 0 0)
(5.3078e-27 0 0)
(0 0 0)
(-1.62716e-22 0 0)
(-6.4339e-19 0 0)
(0 0 0)
(1.66124e-21 0 0)
(0 0 0)
(0 0 0)
(-2.7809e-29 0 0)
(-2.4394e-25 0 0)
(6.65205e-25 0 0)
(0 0 0)
(-8.55611e-20 0 0)
(-2.20827e-16 0 1.77587e-16)
(0 0 0)
(1.62969e-19 0 0)
(0 0 0)
(0 0 0)
(-4.65035e-27 0 0)
(-2.49589e-23 0 0)
(6.2066e-23 0 0)
(0 0 0)
(0 0 0)
(1.2792e-17 0 0)
(0 0 0)
(0 0 0)
(-5.06809e-25 0 0)
(-1.64551e-21 0 0)
(3.48284e-21 -1.00164e-22 0)
(0 -3.01949e-19 1.00381e-17)
(0 0 -3.9892e-20)
(7.55138e-16 0 -2.56271e-18)
(0 0 0)
(1.22053e-25 0 0)
(0 0 0)
(0 0 0)
(-4.63017e-30 0 0)
(-4.71969e-26 0 0)
(1.15407e-25 0 0)
(0 0 0)
(-2.08429e-26 0 0)
(0 0 0)
(0 0 0)
(1.90184e-23 0 0)
(0 0 0)
(0 0 0)
(-1.16055e-27 0 0)
(-7.19821e-24 0 0)
(1.61897e-23 0 0)
(0 0 0)
(-9.68141e-24 0 0)
(0 0 5.50053e-19)
(0 0 0)
(2.50859e-21 0 0)
(0 0 0)
(0 0 0)
(-2.52367e-25 0 0)
(-9.37159e-22 0 0)
(1.82145e-21 0 0)
(0 0 0)
(0 0 0)
(2.71395e-19 0 0)
(0 0 0)
(0 0 0)
(-4.67491e-23 0 0)
(-1.01037e-19 0 0)
(1.52613e-19 0 0)
(0 0 0)
(0 0 1.57975e-27)
(2.29645e-17 0 8.46385e-25)
(0 0 0)
(0 0 6.9919e-17)
(-7.02685e-21 0 2.24068e-16)
(-9.56457e-18 0 2.48707e-16)
(9.08011e-18 0 1.47862e-16)
(1.85506e-27 0 4.44505e-17)
(0 0 0)
(-1.1463e-29 0 0)
(0 0 0)
(0 0 0)
(-1.80322e-32 0 0)
(-1.79628e-36 0 0)
(2.02172e-47 0 0)
(0 0 0)
(0 0 0)
(0 0 0)
(0 0 0)
(-1.37044e-27 0 0)
(0 0 0)
(0 0 0)
(-5.01974e-30 0 0)
(-1.21242e-33 0 0)
(-7.25486e-44 0 0)
(0 0 0)
(0 0 0)
(0 0 0)
(0 0 0)
(-1.43998e-25 0 0)
(0 0 0)
(0 0 0)
(-1.21142e-27 0 0)
(-6.99661e-31 0 0)
(-2.63499e-42 0 0)
(0 0 0)
(0 0 0)
(-1.35927e-23 0 0)
(0 0 0)
(0 0 0)
(-2.48781e-25 0 0)
(-3.39721e-28 0 0)
(-6.76949e-41 0 0)
(0 0 0)
(0 0 0)
(-1.20485e-21 0 0)
(0 0 0)
(0 0 0)
(-4.24494e-23 0 0)
(-1.35648e-25 0 0)
(-3.05771e-39 0 -2.29346e-27)
(2.96923e-29 0 -5.44102e-26)
(0 0 0)
(-2.78855e-32 0 0)
(0 0 0)
(0 0 0)
(-4.52457e-39 0 0)
(1.46594e-55 0 0)
(-2.05339e-44 0 0)
(0 0 0)
(0 0 0)
(0 0 0)
(0 0 0)
(-5.4939e-30 0 0)
(0 0 0)
(0 0 0)
(-1.76336e-36 0 0)
(4.38968e-53 0 0)
(-1.94244e-42 0 0)
(0 0 0)
(0 0 0)
(0 0 0)
(0 0 0)
(-9.71694e-28 0 0)
(0 0 0)
(0 0 0)
(-6.11113e-34 0 0)
(4.8423e-51 0 0)
(-1.43449e-40 0 0)
(0 0 0)
(0 0 0)
(-1.52344e-25 0 0)
(0 0 0)
(0 0 0)
(-1.85029e-31 0 0)
(3.94904e-49 0 0)
(-7.52193e-39 0 0)
(0 0 0)
(0 0 0)
(-2.08388e-23 0 0)
(0 0 0)
(0 0 0)
(-4.76958e-29 0 0)
(4.30004e-47 0 0)
(-2.20569e-37 0 -7.99741e-21)
(0 0 -7.56389e-20)
(0 0 0)
(0 0 0)
(0 0 0)
(0 0 0)
(0 0 0)
(0 0 0)
(-2.43552e-43 0 0)
(0 0 0)
(0 0 0)
(0 0 0)
(0 0 0)
(0 0 0)
(0 0 0)
(0 0 0)
(0 0 0)
(0 0 0)
(-2.4034e-41 0 0)
(0 0 0)
(0 0 0)
(0 0 0)
(0 0 0)
(0 0 0)
(0 0 0)
(0 0 0)
(0 0 0)
(0 0 0)
(-1.90005e-39 0 0)
(0 0 0)
(0 0 0)
(0 0 0)
(0 0 0)
(0 0 0)
(0 0 0)
(0 0 0)
(-1.13079e-37 0 0)
(0 0 0)
(0 0 0)
(0 0 0)
(0 0 0)
(0 0 0)
(0 0 0)
(0 0 0)
(-4.53167e-36 0 0)
(0 0 0)
(0 0 0)
(0 0 0)
(0 0 0)
(0 0 0)
(0 0 0)
(0 0 0)
(0 0 0)
(0 0 0)
(0 0 0)
(0 0 0)
(0 0 0)
(0 0 0)
(0 0 0)
(0 0 0)
(0 0 0)
(0 0 0)
(0 0 0)
(0 0 0)
(0 0 0)
(0 0 0)
(0 0 0)
(0 0 0)
(0 0 0)
(0 0 0)
(0 0 0)
(0 0 0)
(0 0 0)
(0 0 0)
(0 0 0)
(0 0 0)
(0 0 0)
(0 0 0)
(0 0 0)
(0 0 0)
(0 0 0)
(0 0 0)
(0 0 0)
(0 0 0)
(0 0 0)
(0 0 0)
(0 0 0)
(0 0 0)
(0 0 0)
(0 0 0)
(0 0 0)
(0 0 0)
(0 0 0)
(0 0 0)
(0 0 0)
(0 0 0)
(0 0 0)
(0 0 0)
(0 0 0)
(0 0 0)
(0 0 0)
(0 0 0)
(0 0 0)
(0 0 0)
(0 0 0)
(0 0 0)
(0 0 0)
(0 0 0)
(0 0 0)
(0 0 0)
(0 0 0)
(0 0 0)
(0 0 0)
(0 0 0)
(0 0 0)
(0 0 0)
(0 0 0)
(0 0 0)
(0 0 0)
(0 0 0)
(0 0 0)
(0 0 0)
(0 0 0)
(0 0 0)
(0 0 0)
(0 0 0)
(0 0 0)
(0 0 0)
(0 0 0)
(0 0 0)
(0 0 0)
(0 0 0)
(0 0 0)
(0 0 0)
(-5.32428e-13 -1.44491e-13 -3.90798e-15)
(-5.45743e-11 -2.09161e-11 -6.73778e-13)
(-1.95409e-11 -1.9552e-12 -1.68738e-13)
(-2.298e-09 -2.44047e-10 -3.95348e-11)
(-6.51703e-13 -1.87377e-13 8.55809e-15)
(-6.99813e-11 -2.95665e-11 1.55824e-12)
(-2.56278e-11 -2.06147e-12 3.70061e-13)
(-3.21348e-09 -2.84278e-10 7.39457e-11)
(-3.64203e-14 -6.24146e-15 8.28967e-15)
(-4.4319e-12 -1.10148e-12 1.09371e-12)
(-7.93507e-13 -8.31789e-14 2.62556e-13)
(-7.73398e-11 -9.75954e-12 2.84274e-11)
(-3.61954e-17 0 0)
(-6.60647e-14 -1.51897e-14 3.15505e-14)
(-1.21886e-14 -4.26326e-16 3.93011e-15)
(-1.3244e-12 -1.85275e-13 6.2598e-13)
(-3.91625e-21 0 0)
(0 -5.93272e-17 1.82072e-16)
(-1.38327e-18 0 0)
(-1.52846e-14 -9.61972e-16 9.49024e-15)
(-1.74121e-16 -5.80323e-21 2.74145e-17)
(-7.82409e-14 -2.19441e-18 5.48078e-14)
(0 0 0)
(0 0 0)
(0 0 0)
(0 -1.51129e-19 3.93178e-17)
(0 0 0)
(-8.72736e-19 0 2.00451e-16)
(0 0 0)
(0 0 0)
(0 0 0)
(0 0 0)
(0 0 -3.79704e-26)
(0 0 1.22812e-21)
(0 0 0)
(0 0 0)
(0 0 0)
(0 0 0)
(0 0 0)
(0 0 0)
(0 0 0)
(0 0 0)
(0 0 0)
(0 0 0)
(0 0 0)
(0 0 0)
(0 0 0)
(0 0 0)
(0 0 0)
(0 0 0)
(0 0 0)
(0 0 0)
(-1.00222e-10 -1.5821e-12 2.72885e-10)
(-6.53473e-13 -6.60759e-15 2.11238e-12)
(-2.98428e-15 4.93829e-20 1.52343e-14)
(0 1.47086e-22 5.20479e-18)
(0 8.63115e-25 0)
(-3.96764e-09 -2.13388e-09 -9.60244e-11)
(-7.00301e-07 -4.19581e-07 -2.21943e-08)
(-0.00823775 -0.00920671 -0.000245491)
(-8.64195e-08 -1.03154e-08 -2.36398e-09)
(-0.540638 -0.0750226 -0.0335319)
(-11078.3 -4337.4 -3613.63)
(-5.01506e-09 -2.80346e-09 1.84289e-10)
(-1.57015e-07 -1.02645e-07 2.24269e-08)
(-0.000145643 -0.000163976 4.66722e-05)
(-1.45477e-07 -1.42419e-08 2.04567e-09)
(-0.0364243 -0.00466857 0.00426245)
(-5768.77 -2271.82 3315.12)
(-5.67063e-10 -1.60165e-10 1.15956e-10)
(-4.39635e-08 -2.0033e-08 1.34646e-08)
(-2.79245e-05 -2.04381e-05 2.51634e-05)
(-7.55522e-09 -1.0465e-09 3.16873e-09)
(-1.59085e-06 -2.20348e-07 7.28133e-07)
(-0.000142023 -8.23541e-05 0.000160304)
(-6.81591e-12 -2.05969e-12 3.74033e-12)
(-8.06468e-10 -3.17332e-10 5.79365e-10)
(-2.66424e-07 -1.70349e-07 3.6643e-07)
(-1.2696e-10 -2.09313e-11 7.04502e-11)
(-1.19342e-08 -2.28525e-09 9.74842e-09)
(-1.97185e-06 -4.55641e-07 2.21557e-06)
(-6.35487e-14 -1.89949e-14 5.33854e-14)
(-4.75383e-12 -2.00357e-12 5.46458e-12)
(-2.57813e-10 -1.8535e-10 5.67053e-10)
(-1.29811e-12 -2.23972e-13 1.09132e-12)
(-8.26852e-11 -1.93637e-11 1.01178e-10)
(-2.98849e-09 -8.88983e-10 5.56651e-09)
(-7.83837e-12 -6.76468e-14 6.82277e-12)
(-5.84777e-10 -5.07398e-12 8.22621e-10)
(-2.83991e-17 0 0)
(-3.06985e-14 -1.25704e-14 5.12696e-14)
(-1.24595e-12 -9.11279e-13 3.2965e-12)
(-9.89307e-15 -4.26205e-16 1.23477e-14)
(-6.64356e-13 -1.55965e-13 9.97659e-13)
(-2.01811e-11 -7.7422e-12 5.12294e-11)
(-5.58326e-14 0 6.24143e-14)
(-3.35561e-12 -3.42955e-14 5.78682e-12)
(0 0 0)
(-6.23719e-18 0 0)
(-5.68434e-15 -4.17973e-15 2.25071e-14)
(0 0 0)
(-3.14987e-15 0 7.85544e-15)
(-1.62053e-13 -5.83104e-14 4.7355e-13)
(0 0 2.78696e-19)
(-2.14701e-14 0 4.25436e-14)
(0 0 0)
(0 0 0)
(0 -2.2362e-18 1.48092e-17)
(0 0 0)
(0 0 0)
(-1.42109e-16 -2.85781e-17 2.49518e-15)
(0 0 0)
(0 0 0)
(0 0 0)
(0 0 0)
(0 -1.26285e-20 3.62555e-26)
(0 0 0)
(0 0 0)
(0 0 2.28488e-19)
(0 0 0)
(0 0 0)
(0 0 0)
(0 0 0)
(0 -2.49123e-23 0)
(0 0 0)
(0 0 0)
(0 0 0)
(0 0 0)
(0 0 0)
(-0.000349914 -0.00022131 0.00215846)
(-1.98516e-06 -8.46199e-07 8.08252e-06)
(-6.32518e-14 -9.94332e-19 2.27082e-14)
(-7.79458e-12 -4.04238e-14 3.07281e-12)
(-1.02157e-09 -4.75085e-12 5.22977e-10)
(-1.2968e-07 -6.32909e-10 1.13859e-07)
(-5381.68 -3827.54 -1342.85)
(-4644.56 -3198.4 -1126.53)
(-6020.68 -3059.95 -1456.01)
(-40.3896 -10.3543 -4.70937)
(-331.318 -133.014 -26.2684)
(-0.00913949 -0.00323861 -0.000393342)
(-0.17742 -0.0795108 -0.0051027)
(-2385.67 -1962.2 105.405)
(-466.571 -382.518 261.059)
(-5464.63 -1638.76 1195.22)
(-17.2136 -3.99888 4.87718)
(-382.006 -154.311 9.89784)
(-0.20829 -0.0957059 0.00148267)
(-0.00316 -0.00136914 0.000589522)
(-6286.66 -1965.44 -1453.39)
(-5302.45 -2609.15 -522.543)
(-5310.4 -1600.01 -499.241)
(-5084.67 -1820.89 -478.224)
(-5463.46 -2021.05 -1264.43)
(-3915.7 -2145.47 -892.23)
(-3978.66 -2152.95 -372.23)
(-5477.55 -2715.9 1235.63)
(-5321.63 -2584.08 355.595)
(-5351.97 -1589.22 369.916)
(-5142.07 -1807.13 290.136)
(-5224.09 -1872.17 1118.95)
(-4113.68 -2215.22 201.437)
(-4075.43 -2214.25 849.182)
(-3759.07 -1650.34 2679.24)
(-0.924688 -0.217338 0.882847)
(-30.6115 -21.9787 17.3243)
(-0.000319031 -4.60442e-05 0.000218001)
(-0.75636 -0.126915 0.270604)
(-0.000123769 -5.27219e-05 3.97517e-05)
(-2.03986e-05 -7.58062e-06 1.45284e-05)
(-6.32236e-06 -6.34578e-06 2.03541e-05)
(-221.962 -146.26 386.285)
(-8.46316 -8.48436 22.7068)
(-0.00178096 -0.00145932 0.00386002)
(-1.52771e-06 -1.19015e-06 3.96914e-06)
(-0.147791 -0.053159 0.309858)
(-4.66034e-06 -2.95957e-06 1.14063e-05)
(-8946.45 -5005.2 -2601.72)
(-6994.8 -3787.44 -2042.96)
(-7797.81 -2757.92 -2094.36)
(-6200.77 -2581.02 -1607.42)
(-5626.04 -2212.57 -1657.25)
(-3556.69 -1993.84 -1069.11)
(-3455.74 -2028.4 -814.302)
(-4659.55 -2709.38 2699.75)
(-5859.39 -1936.67 2287.25)
(-5654.61 -3023.95 2347.91)
(-3286.37 -1379.3 1792.53)
(-4909.12 -1895.73 1918.17)
(-3296 -1861.86 1286.63)
(-1605.27 -948.852 881.875)
(-2.88232e-05 -2.32525e-05 -1.39423e-06)
(-0.000366537 -0.000425748 -3.24708e-05)
(-6.82452e-06 -5.37455e-06 -6.65477e-07)
(-105.217 -87.0844 -14.7203)
(-318.161 -281.245 -69.9187)
(-0.000222354 -0.00010384 -1.53518e-05)
(-0.00542882 -0.00298759 -0.000110748)
(-8.28473e-06 -6.6125e-06 1.13876e-06)
(-0.0095531 -0.0105619 6.99508e-05)
(-3.60911e-05 -2.92981e-05 1.10067e-06)
(-464.7 -416.29 15.985)
(-20.5687 -16.9463 7.50502)
(-0.00630946 -0.00353832 2.39634e-05)
(-0.0001006 -5.43769e-05 2.44464e-05)
(-2288.22 -1895.29 471.626)
(-4584.97 -3152.73 1044.17)
(-4561.76 -3098.55 261.825)
(-370.089 -283.612 11.273)
(-2030.5 -1406.05 77.8397)
(-1921.03 -1335.07 367.496)
(-309.624 -237.949 55.3419)
(-9.12035e-05 -1.06915e-05 2.51236e-07)
(-11.7311 -2.60516 0.126553)
(-6.36983e-05 -8.36441e-06 6.84785e-06)
(-1.20004e-05 -4.03339e-06 3.53321e-07)
(-0.00329664 -0.00135219 7.90261e-06)
(-2.24352e-06 -9.91078e-07 2.97841e-07)
(-6.05653e-05 -2.53762e-05 1.38506e-05)
(-2129.54 -1743.58 -486.965)
(-2302.85 -1884.88 -197.456)
(-4497.7 -3055.72 -440.403)
(-1672.82 -1146.19 -365.849)
(-333.923 -252.968 -24.8984)
(-233.902 -174.874 -47.6381)
(-1910.72 -1313.3 -162.379)
(-2726.48 -1097.36 107.683)
(-318.345 -124.911 51.9432)
(-2574.09 -1030.1 483.725)
(-62.5035 -25.461 1.02431)
(-1213.4 -669.586 38.3323)
(-1107.85 -612.994 195.668)
(-51.3108 -19.931 5.85946)
(-0.000185823 -2.10464e-05 -1.36171e-05)
(-0.001167 -0.000144868 -7.46355e-05)
(-5.55502 -1.09992 -0.561775)
(-3.04343e-06 -8.53949e-07 -2.26752e-07)
(-0.000137716 -4.70572e-05 -1.15615e-05)
(-8.80168e-06 -2.86971e-06 -3.71088e-07)
(-0.00277361 -0.00111186 -5.50341e-05)
(-2571.33 -1049.41 -225.77)
(-222.026 -84.5951 -41.793)
(-2315.85 -951.478 -491.429)
(-864.262 -477.622 -181.922)
(-52.6386 -20.7372 -3.00305)
(-33.9876 -12.1615 -4.45167)
(-1097.94 -601.765 -91.8748)
(-4651.8 -3262.36 -1387.97)
(-1588.15 -1300.67 -334.657)
(-1713.91 -1406.6 -517.829)
(-1180.03 -822.424 -363.568)
(-61.7757 -39.0018 -7.37069)
(-103.816 -74.3661 -25.2048)
(-874.209 -596.432 -177.019)
(-1564.53 -1298.07 652.599)
(-2425.47 -1777.51 1400.42)
(-4043.89 -2873.46 1672.57)
(-1182.95 -829.137 476.627)
(-14.5634 -9.12269 4.65435)
(-112.214 -83.4398 38.3626)
(-282.785 -188.767 143.622)
(-552.996 -239.065 282.785)
(-118.528 -40.4755 36.3053)
(-1762.26 -732.375 660.851)