/*--------------------------------*- C++ -*----------------------------------*\
  =========                 |
  \\      /  F ield         | OpenFOAM: The Open Source CFD Toolbox
   \\    /   O peration     | Website:  https://openfoam.org
    \\  /    A nd           | Version:  9
     \\/     M anipulation  |
\*---------------------------------------------------------------------------*/
FoamFile
{
    format      ascii;
    class       volVectorField;
    location    "0.0003";
    object      U;
}
// * * * * * * * * * * * * * * * * * * * * * * * * * * * * * * * * * * * * * //

dimensions      [0 1 -1 0 0 0 0];

internalField   nonuniform List<vector> 
4946
(
(-1.74056e-12 1.21363e-12 3.56916e-12)
(-2.1844e-11 7.6406e-12 5.6664e-11)
(0 0 2.72047e-16)
(-4.11765e-16 0 2.72469e-16)
(1.43384e-16 0 2.72529e-16)
(-2.91794e-15 0 1.67967e-16)
(-5.04213e-13 0 -5.28827e-17)
(0 0 6.95288e-22)
(-4.10855e-16 0 1.74327e-20)
(1.42974e-16 0 2.75315e-22)
(-2.12318e-15 0 1.61619e-21)
(-4.54331e-13 3.48021e-16 1.00933e-14)
(0 0 1.00173e-21)
(-3.89851e-16 0 -9.41927e-21)
(1.78676e-16 0 -1.02611e-19)
(3.32431e-16 0 -2.32556e-17)
(-2.08621e-14 0 4.22242e-15)
(-4.72265e-11 5.89058e-15 -1.72303e-13)
(-3.1156e-09 1.51682e-12 -2.65456e-11)
(-4.35164e-11 1.73173e-13 1.24848e-12)
(-2.96851e-09 1.89577e-11 1.25408e-10)
(-2.56712e-12 -9.02288e-17 7.23367e-13)
(-2.71197e-10 3.52596e-14 6.41315e-11)
(-7.43676e-08 -2.14928e-09 -2.02892e-09)
(-12.0377 1.59779 -2.00256)
(-1.08207e-07 -1.16894e-09 2.14825e-09)
(-42.7636 8.20423 1.15059)
(-3.47992e-08 -2.76383e-11 1.09065e-08)
(-6.44356e-06 -2.55279e-07 2.06483e-06)
(-29.7574 4.94782 -3.86945)
(-0.000251338 2.50366e-05 -2.15666e-06)
(-2.31724e-05 2.0321e-06 -2.32451e-06)
(-2.11505 -0.269401 -0.16319)
(-0.0013462 -0.000124802 -0.000118615)
(-0.005397 -0.000634985 -0.000414957)
(-19.9055 -3.8921 -2.55762)
(-0.000250853 2.57422e-05 2.29484e-06)
(-1.00266 0.115734 0.214103)
(-2.15709e-05 1.26404e-06 3.72836e-06)
(-0.141465 -0.0166397 0.018923)
(-0.000206783 -2.1897e-05 1.38301e-07)
(-36.1146 -7.74136 0.612216)
(-4.63026e-05 -2.81372e-06 3.96276e-06)
(0 0 0)
(4.47449e-42 0 0)
(0 0 0)
(0 0 0)
(-6.62792e-42 0 0)
(-6.83426e-47 0 0)
(4.18351e-41 0 0)
(0 0 0)
(-2.32601e-38 0 0)
(0 0 0)
(0 0 0)
(1.24534e-39 0 0)
(0 0 0)
(0 0 0)
(-2.25318e-39 0 0)
(-2.24208e-44 0 0)
(1.24931e-38 0 0)
(-1.35574e-45 0 0)
(-1.2746e-35 0 0)
(0 0 0)
(0 0 0)
(3.21111e-37 0 0)
(0 0 0)
(0 0 0)
(-7.00016e-37 0 0)
(-6.87593e-42 0 0)
(3.40353e-36 0 0)
(-2.67743e-40 0 0)
(-6.70468e-33 0 0)
(0 0 0)
(0 0 0)
(7.62636e-35 0 0)
(0 0 0)
(0 0 0)
(-7.91894e-35 0 7.74678e-15)
(-9.6585e-40 0 -7.74678e-15)
(3.37621e-34 0 8.39469e-15)
(-9.05483e-37 0 1.06726e-14)
(-1.38899e-30 0 9.23369e-15)
(0 0 0)
(0 0 0)
(1.65691e-32 0 0)
(0 0 0)
(0 0 -7.74678e-15)
(-8.0204e-33 0 0)
(-2.88342e-37 0 -9.13994e-15)
(3.00497e-32 0 0)
(-1.48204e-33 0 0)
(-2.92601e-28 0 0)
(0 0 0)
(0 0 0)
(3.26622e-30 0 0)
(0 0 0)
(0 0 7.74678e-15)
(-7.16214e-31 0 9.13994e-15)
(-3.18402e-35 0 0)
(2.39464e-30 0 8.31212e-15)
(-3.60911e-30 0 0)
(-1.60119e-25 0 0)
(0 0 0)
(0 0 0)
(5.784e-28 0 0)
(0 0 0)
(0 0 -8.39469e-15)
(-5.52209e-29 0 0)
(-3.1433e-33 0 -8.31212e-15)
(1.75385e-28 0 0)
(-6.97347e-27 0 0)
(-8.96052e-23 0 0)
(0 0 0)
(0 0 0)
(9.08826e-26 0 0)
(0 0 0)
(0 0 -1.07886e-14)
(-8.81628e-27 0 0)
(-2.14983e-31 0 0)
(2.46109e-26 0 0)
(-9.93438e-24 0 0)
(-4.77089e-20 0 0)
(-3.98113e-17 0 0)
(0 0 0)
(4.47457e-42 0 0)
(0 0 0)
(0 0 0)
(-1.77491e-43 0 0)
(-7.43731e-46 0 0)
(1.10322e-42 0 0)
(-2.39653e-47 0 0)
(-2.40131e-39 0 0)
(0 0 0)
(0 0 0)
(1.24537e-39 0 0)
(0 0 0)
(0 0 0)
(-6.0226e-41 0 0)
(-2.15829e-43 0 0)
(3.28876e-40 0 0)
(-1.95397e-43 0 0)
(-1.36083e-36 0 0)
(0 0 0)
(0 0 0)
(3.21121e-37 0 0)
(0 0 0)
(0 0 0)
(-1.86698e-38 0 0)
(-5.75982e-41 0 0)
(8.95841e-38 0 0)
(-7.85618e-40 0 0)
(-7.78306e-34 0 0)
(0 0 0)
(0 0 0)
(7.62669e-35 0 0)
(0 0 0)
(0 0 0)
(-5.23633e-36 0 0)
(-1.39551e-38 0 0)
(2.2384e-35 0 0)
(-2.05451e-36 0 0)
(-4.64287e-31 0 0)
(0 0 0)
(0 0 0)
(1.65701e-32 0 0)
(0 0 0)
(0 0 0)
(-1.31276e-33 0 0)
(-3.03334e-36 0 0)
(5.17281e-33 0 0)
(-4.29428e-33 0 0)
(-2.93312e-28 0 0)
(0 0 0)
(0 0 0)
(3.26646e-30 0 0)
(0 0 0)
(0 0 0)
(-2.89664e-31 0 0)
(-5.82265e-34 0 0)
(1.04721e-30 0 0)
(-7.88375e-30 0 0)
(-1.89653e-25 0 0)
(0 0 0)
(0 0 0)
(5.78457e-28 0 0)
(0 0 0)
(0 0 0)
(-5.51196e-29 0 0)
(-9.67349e-32 0 0)
(1.76949e-28 0 0)
(-1.14839e-26 0 0)
(-1.16189e-22 0 0)
(0 0 0)
(0 0 0)
(9.08946e-26 0 0)
(0 0 0)
(0 0 0)
(-8.8003e-27 0 0)
(-1.35278e-29 0 0)
(2.45922e-26 0 0)
(-1.27305e-23 0 0)
(-6.25356e-20 0 0)
(-4.7431e-17 0 0)
(0 0 0)
(4.46647e-42 0 0)
(0 0 0)
(0 0 0)
(-1.65029e-43 0 0)
(-1.13103e-44 0 0)
(1.0342e-42 0 0)
(0 0 0)
(-9.63382e-42 0 0)
(0 0 0)
(0 0 0)
(1.24314e-39 0 0)
(0 0 0)
(0 0 0)
(-5.5994e-41 0 0)
(-3.28293e-42 0 0)
(3.08421e-40 0 0)
(0 0 0)
(-8.19377e-39 0 0)
(0 0 0)
(0 0 0)
(3.2055e-37 0 0)
(0 0 0)
(0 0 0)
(-1.73575e-38 0 0)
(-8.76537e-40 0 0)
(8.38872e-38 0 0)
(0 0 0)
(-6.64363e-36 0 0)
(0 0 0)
(0 0 0)
(7.61329e-35 0 0)
(0 0 0)
(0 0 0)
(-4.86838e-36 0 0)
(-2.12547e-37 0 0)
(2.06232e-35 0 0)
(0 0 0)
(-5.03235e-33 0 0)
(0 0 0)
(0 0 0)
(1.65414e-32 0 0)
(0 0 0)
(0 0 0)
(-1.22061e-33 0 0)
(-4.62465e-35 0 0)
(4.53144e-33 0 0)
(0 0 0)
(-3.49122e-30 0 0)
(0 0 0)
(0 0 0)
(3.26093e-30 0 0)
(0 0 0)
(0 0 0)
(-2.6937e-31 0 0)
(-8.89055e-33 0 0)
(8.77049e-31 0 0)
(0 0 0)
(-2.18135e-27 0 0)
(0 0 0)
(0 0 0)
(5.77503e-28 0 0)
(0 0 0)
(0 0 0)
(-5.12718e-29 0 0)
(-1.47969e-30 0 0)
(1.46653e-28 0 0)
(0 0 0)
(-1.21113e-24 0 0)
(0 0 0)
(0 0 0)
(9.07497e-26 0 0)
(0 0 0)
(0 0 0)
(-8.18601e-27 0 0)
(-2.07371e-28 0 0)
(2.0627e-26 0 0)
(0 0 0)
(-5.91269e-22 0 0)
(-7.61514e-19 0 0)
(0 0 0)
(4.09257e-42 0 0)
(0 0 0)
(0 0 0)
(-1.76927e-52 0 0)
(-1.74549e-46 0 0)
(3.78712e-46 0 0)
(0 0 0)
(-1.26173e-46 0 0)
(0 0 0)
(0 0 0)
(1.13953e-39 0 0)
(0 0 0)
(0 0 0)
(-9.96629e-50 0 0)
(-5.59714e-44 0 0)
(1.28636e-43 0 0)
(0 0 0)
(-1.72798e-43 0 0)
(0 0 0)
(0 0 0)
(2.93984e-37 0 0)
(0 0 0)
(0 0 0)
(-5.1549e-47 0 0)
(-1.66246e-41 0 0)
(4.04222e-41 0 0)
(0 0 0)
(-2.26587e-40 0 0)
(0 0 0)
(0 0 0)
(6.98683e-35 0 0)
(0 0 0)
(0 0 0)
(-2.43416e-44 0 0)
(-4.55056e-39 0 0)
(1.16692e-38 0 0)
(0 0 0)
(-2.78729e-37 0 0)
(0 0 0)
(0 0 0)
(1.51926e-32 0 0)
(0 0 0)
(0 0 0)
(-1.0421e-41 0 0)
(-1.14076e-36 0 0)
(3.068e-36 0 0)
(0 0 0)
(-3.13431e-34 0 0)
(0 0 0)
(0 0 0)
(2.9981e-30 0 0)
(0 0 0)
(0 0 0)
(-4.01028e-39 0 0)
(-2.5983e-34 0 0)
(7.26581e-34 0 0)
(0 0 0)
(-3.14567e-31 0 0)
(0 0 0)
(0 0 0)
(5.3165e-28 0 0)
(0 0 0)
(0 0 0)
(-1.37224e-36 0 0)
(-5.32054e-32 0 0)
(1.52782e-31 0 0)
(0 0 0)
(-2.76221e-28 0 0)
(0 0 0)
(0 0 0)
(8.36855e-26 0 0)
(0 0 0)
(0 0 0)
(-4.11552e-34 0 0)
(-9.65063e-30 0 0)
(2.79696e-29 0 0)
(0 0 0)
(-2.08516e-25 0 0)
(-1.31943e-21 0 0)
(0 0 0)
(4.64463e-45 0 0)
(0 0 0)
(0 0 0)
(-4.52968e-51 0 0)
(-2.93858e-45 0 0)
(6.14162e-45 0 0)
(0 0 0)
(-8.4185e-50 0 0)
(0 0 0)
(0 0 0)
(1.65639e-42 0 0)
(0 0 0)
(0 0 0)
(-2.57713e-48 0 0)
(-9.62822e-43 0 0)
(2.11754e-42 0 0)
(0 0 0)
(-1.03357e-46 0 0)
(0 0 0)
(0 0 0)
(5.47445e-40 0 0)
(0 0 0)
(0 0 0)
(-1.35211e-45 0 0)
(-2.93577e-40 0 0)
(6.77638e-40 0 0)
(0 0 0)
(-1.13717e-43 0 0)
(0 0 0)
(0 0 0)
(1.66805e-37 0 0)
(0 0 0)
(0 0 0)
(-6.51184e-43 0 0)
(-8.29718e-38 0 0)
(2.00022e-37 0 0)
(0 0 0)
(-1.11866e-40 0 0)
(0 0 0)
(0 0 0)
(4.65702e-35 0 0)
(0 0 0)
(0 0 0)
(-2.86377e-40 0 0)
(-2.16322e-35 0 0)
(5.40475e-35 0 0)
(0 0 0)
(-9.81053e-38 0 0)
(0 0 0)
(0 0 0)
(1.18275e-32 0 0)
(0 0 0)
(0 0 0)
(-1.14316e-37 0 0)
(-5.1722e-33 0 0)
(1.32432e-32 0 0)
(0 0 0)
(-7.64307e-35 0 0)
(0 0 0)
(0 0 0)
(2.70893e-30 0 0)
(0 0 0)
(0 0 0)
(-4.11365e-35 0 0)
(-1.12563e-30 0 0)
(2.90759e-30 0 0)
(0 0 0)
(-5.26789e-32 0 0)
(0 0 0)
(0 0 0)
(5.53625e-28 0 0)
(0 0 0)
(0 0 0)
(-1.32415e-32 0 0)
(-2.20797e-28 0 0)
(5.63135e-28 0 0)
(0 0 0)
(-3.19763e-29 0 0)
(0 0 0)
(0 0 0)
(-4.28848e-48 0 0)
(0 0 0)
(0 0 0)
(-8.69545e-54 0 0)
(-4.92438e-61 0 0)
(-2.03877e-65 0 0)
(0 0 0)
(0 0 0)
(0 0 0)
(0 0 0)
(-1.13924e-45 0 0)
(0 0 0)
(0 0 0)
(-5.33451e-51 0 0)
(-6.49217e-58 0 0)
(-1.49712e-64 0 0)
(0 0 0)
(0 0 0)
(0 0 0)
(0 0 0)
(-2.82091e-43 0 0)
(0 0 0)
(0 0 0)
(-3.02628e-48 0 0)
(-9.29396e-55 0 0)
(-2.27729e-59 0 0)
(0 0 0)
(0 0 0)
(0 0 0)
(0 0 0)
(-6.45143e-41 0 0)
(0 0 0)
(0 0 0)
(-1.58127e-45 0 0)
(-1.35397e-51 0 0)
(-4.59581e-57 0 0)
(0 0 0)
(0 0 0)
(0 0 0)
(0 0 0)
(-1.35379e-38 0 0)
(0 0 0)
(0 0 0)
(-7.57456e-43 0 0)
(-1.77528e-48 0 0)
(-3.3617e-55 0 0)
(0 0 0)
(0 0 0)
(0 0 0)
(0 0 0)
(-2.58655e-36 0 0)
(0 0 0)
(0 0 0)
(-3.30803e-40 0 0)
(-2.05739e-45 0 0)
(-4.16026e-53 0 0)
(0 0 0)
(0 0 0)
(0 0 0)
(0 0 0)
(-4.45951e-34 0 0)
(0 0 0)
(0 0 0)
(-1.30857e-37 0 0)
(-2.09938e-42 0 0)
(-4.26956e-51 0 0)
(0 0 0)
(0 0 0)
(0 0 0)
(0 0 0)
(-6.86925e-32 0 0)
(0 0 0)
(0 0 0)
(-4.65188e-35 0 0)
(-1.87889e-39 0 0)
(-7.24632e-50 0 0)
(0 0 0)
(0 0 0)
(0 0 0)
(0 0 0)
(-5.21772e-52 0 0)
(0 0 0)
(0 0 0)
(-2.79807e-61 0 0)
(1.56224e-77 0 0)
(-1.51239e-62 0 0)
(0 0 0)
(0 0 0)
(0 0 0)
(0 0 0)
(-1.88695e-49 0 0)
(0 0 0)
(0 0 0)
(-2.12677e-58 0 0)
(9.66305e-75 0 0)
(-3.89727e-60 0 0)
(0 0 0)
(0 0 0)
(0 0 0)
(0 0 0)
(-6.42727e-47 0 0)
(0 0 0)
(0 0 0)
(-1.50798e-55 0 0)
(5.99644e-72 0 0)
(-9.24137e-58 0 0)
(0 0 0)
(0 0 0)
(0 0 0)
(0 0 0)
(-2.05505e-44 0 0)
(0 0 0)
(0 0 0)
(-9.94835e-53 0 0)
(4.15735e-69 0 0)
(-2.00219e-55 0 0)
(0 0 0)
(0 0 0)
(0 0 0)
(0 0 0)
(-6.14463e-42 0 0)
(0 0 0)
(0 0 0)
(-6.08784e-50 0 0)
(4.63312e-66 0 0)
(-3.92964e-53 0 0)
(0 0 0)
(0 0 0)
(0 0 0)
(0 0 0)
(-1.71063e-39 0 0)
(0 0 0)
(0 0 0)
(-3.44311e-47 0 0)
(3.34275e-63 0 0)
(-6.91394e-51 0 0)
(0 0 0)
(0 0 0)
(0 0 0)
(0 0 0)
(-4.41181e-37 0 0)
(0 0 0)
(0 0 0)
(-1.79185e-44 0 0)
(2.34597e-60 0 0)
(-1.07621e-48 0 0)
(0 0 0)
(0 0 0)
(0 0 0)
(0 0 0)
(-1.0479e-34 0 0)
(0 0 0)
(0 0 0)
(-8.53377e-42 0 0)
(6.0101e-58 0 0)
(-1.45697e-46 0 0)
(0 0 0)
(0 0 0)
(0 0 0)
(0 0 0)
(0 0 0)
(0 0 0)
(0 0 0)
(0 0 0)
(0 0 0)
(-1.62377e-61 0 0)
(0 0 0)
(0 0 0)
(0 0 0)
(0 0 0)
(0 0 0)
(0 0 0)
(0 0 0)
(0 0 0)
(0 0 0)
(-4.2008e-59 0 0)
(0 0 0)
(0 0 0)
(0 0 0)
(0 0 0)
(0 0 0)
(0 0 0)
(0 0 0)
(0 0 0)
(0 0 0)
(-1.00126e-56 0 0)
(0 0 0)
(0 0 0)
(0 0 0)
(0 0 0)
(0 0 0)
(0 0 0)
(0 0 0)
(0 0 0)
(0 0 0)
(-2.18384e-54 0 0)
(0 0 0)
(0 0 0)
(0 0 0)
(0 0 0)
(0 0 0)
(0 0 0)
(0 0 0)
(0 0 0)
(0 0 0)
(-4.32352e-52 0 0)
(0 0 0)
(0 0 0)
(0 0 0)
(0 0 0)
(0 0 0)
(0 0 0)
(0 0 0)
(0 0 0)
(0 0 0)
(-7.69355e-50 0 0)
(0 0 0)
(0 0 0)
(0 0 0)
(0 0 0)
(0 0 0)
(0 0 0)
(0 0 0)
(0 0 0)
(0 0 0)
(-1.21564e-47 0 0)
(0 0 0)
(0 0 0)
(0 0 0)
(0 0 0)
(0 0 0)
(0 0 0)
(0 0 0)
(0 0 0)
(0 0 0)
(-1.67947e-45 0 0)
(0 0 0)
(0 0 0)
(0 0 0)
(0 0 0)
(0 0 0)
(0 0 0)
(0 0 0)
(0 0 0)
(0 0 0)
(0 0 0)
(0 0 0)
(0 0 0)
(0 0 0)
(0 0 0)
(0 0 0)
(0 0 0)
(0 0 0)
(0 0 0)
(0 0 0)
(0 0 0)
(0 0 0)
(0 0 0)
(0 0 0)
(0 0 0)
(0 0 0)
(0 0 0)
(0 0 0)
(0 0 0)
(0 0 0)
(0 0 0)
(0 0 0)
(0 0 0)
(0 0 0)
(0 0 0)
(0 0 0)
(0 0 0)
(0 0 0)
(0 0 0)
(0 0 0)
(0 0 0)
(0 0 0)
(0 0 0)
(0 0 0)
(0 0 0)
(0 0 0)
(0 0 0)
(0 0 0)
(0 0 0)
(0 0 0)
(0 0 0)
(0 0 0)
(0 0 0)
(0 0 0)
(0 0 0)
(0 0 0)
(0 0 0)
(0 0 0)
(0 0 0)
(0 0 0)
(0 0 0)
(0 0 0)
(0 0 0)
(0 0 0)
(0 0 0)
(0 0 0)
(0 0 0)
(0 0 0)
(0 0 0)
(0 0 0)
(0 0 0)
(0 0 0)
(0 0 0)
(0 0 0)
(0 0 0)
(0 0 0)
(0 0 0)
(0 0 0)
(0 0 0)
(0 0 0)
(0 0 0)
(0 0 0)
(0 0 0)
(0 0 0)
(0 0 0)
(0 0 0)
(0 0 0)
(0 0 0)
(0 0 0)
(0 0 0)
(0 0 0)
(0 0 0)
(0 0 0)
(0 0 0)
(0 0 0)
(0 0 0)
(0 0 0)
(0 0 0)
(0 0 0)
(0 0 0)
(0 0 0)
(0 0 0)
(0 0 0)
(0 0 0)
(0 0 0)
(0 0 0)
(0 0 0)
(0 0 0)
(0 0 0)
(0 0 0)
(0 0 0)
(0 0 0)
(0 0 0)
(0 0 0)
(0 0 0)
(0 0 0)
(0 0 0)
(0 0 0)
(0 0 0)
(0 0 0)
(0 0 0)
(0 0 0)
(0 0 0)
(0 0 0)
(0 0 0)
(0 0 0)
(0 0 0)
(0 0 0)
(0 0 0)
(0 0 0)
(0 0 0)
(0 0 0)
(0 0 0)
(0 0 0)
(0 0 0)
(0 0 0)
(0 0 0)
(0 0 0)
(0 0 0)
(0 0 0)
(0 0 0)
(0 0 0)
(0 0 0)
(0 0 0)
(0 0 0)
(0 0 0)
(0 0 0)
(0 0 0)
(0 0 0)
(0 0 0)
(0 0 0)
(0 0 0)
(0 0 0)
(0 0 0)
(0 0 0)
(0 0 0)
(0 0 0)
(0 0 0)
(0 0 0)
(0 0 0)
(0 0 0)
(0 0 0)
(0 0 0)
(0 0 0)
(-1.32888e-12 -1.07112e-12 -1.40755e-14)
(-8.97152e-11 -9.1191e-11 -1.58937e-12)
(-3.99274e-09 -5.75394e-09 -1.4322e-10)
(-8.12869e-11 -4.9547e-11 -1.17682e-12)
(-4.90679e-09 -3.85456e-09 -1.34416e-10)
(-1.87458e-05 -2.37811e-05 -1.18157e-06)
(-1.53267e-12 -1.23811e-12 3.48301e-14)
(-1.06042e-10 -1.0643e-10 3.73964e-12)
(-5.03593e-09 -7.03298e-09 2.94933e-10)
(-9.52742e-11 -5.99982e-11 2.77123e-12)
(-5.9228e-09 -4.73346e-09 2.62055e-10)
(-7.42326e-06 -7.85936e-06 1.17131e-06)
(-9.52804e-14 -7.98136e-14 2.98643e-14)
(-7.65725e-12 -8.61653e-12 2.69432e-12)
(-4.57759e-10 -9.75981e-10 2.16965e-10)
(-8.04251e-12 -4.47058e-12 2.06585e-12)
(-1.02483e-09 -7.26039e-10 2.46969e-10)
(-6.53891e-08 -7.93461e-08 2.93781e-08)
(0 -3.47774e-16 1.16007e-16)
(-9.71561e-14 -1.08956e-13 7.27461e-14)
(-4.78525e-12 -8.80486e-12 5.77634e-12)
(-1.06057e-13 -6.13806e-14 6.13861e-14)
(-8.96685e-12 -6.89267e-12 6.63691e-12)
(-7.1517e-10 -8.82862e-10 8.5737e-10)
(0 0 0)
(-2.38742e-16 -3.48021e-16 2.89894e-16)
(-4.27938e-14 -7.11008e-14 7.31341e-14)
(-1.77688e-16 0 3.21976e-16)
(-7.19777e-14 -5.88542e-14 8.20181e-14)
(-3.54836e-12 -4.39951e-12 6.52004e-12)
(0 0 0)
(-2.26923e-19 0 0)
(-8.46384e-24 -7.13654e-17 1.53446e-16)
(-5.18477e-20 0 0)
(-8.11624e-17 0 2.07905e-16)
(-2.37557e-14 -2.68874e-14 5.37514e-14)
(0 0 0)
(-1.1494e-23 0 0)
(0 0 1.53773e-19)
(0 0 0)
(-8.51073e-21 0 0)
(0 -1.42547e-17 1.11964e-16)
(0 0 0)
(0 0 0)
(0 0 1.13043e-22)
(0 0 0)
(0 0 0)
(0 0 5.17728e-20)
(0 0 0)
(0 0 0)
(0 0 1.94234e-30)
(0 0 0)
(0 0 0)
(0 0 6.715e-28)
(0 0 0)
(0 0 0)
(0 0 0)
(0 0 0)
(0 0 0)
(0 0 0)
(-4.17364e-34 0 0)
(-7.60271e-31 0 0)
(-2.04614e-36 0 0)
(-5.17515e-31 0 0)
(-3.9186e-28 0 0)
(-4.18764e-33 0 0)
(-5.34404e-28 0 0)
(-1.93359e-25 0 0)
(-7.1212e-30 0 0)
(-4.51483e-25 0 0)
(-9.43198e-23 0 0)
(-1.00974e-26 0 0)
(-3.02269e-22 0 0)
(-4.57252e-20 0 0)
(-1.18927e-23 -1.93587e-18 0)
(-1.52489e-19 0 0)
(-2.06734e-17 0 0)
(-1.62411e-15 -6.68536e-15 0)
(-5.46765e-17 0 0)
(-7.85775e-15 -1.3449e-14 0)
(-3.93049e-13 -9.97444e-13 -7.29645e-15)
(-1.41421e-14 -1.3211e-14 -9.72998e-15)
(-1.03155e-12 -1.37147e-12 -1.15749e-14)
(-4.71236e-11 -9.18136e-11 -1.16735e-12)
(-1.67011e-34 0 0)
(-7.32815e-31 0 0)
(-2.03325e-36 0 0)
(-2.08048e-31 0 0)
(-3.86935e-28 0 0)
(-4.15964e-33 0 0)
(-2.17919e-28 0 0)
(-1.9696e-25 0 0)
(-7.06314e-30 0 0)
(-1.90822e-25 0 0)
(-9.94919e-23 0 0)
(-9.96138e-27 0 0)
(-1.38265e-22 0 0)
(-4.9711e-20 0 0)
(-1.15692e-23 -4.67786e-18 0)
(-8.18185e-20 0 0)
(-2.31392e-17 0 0)
(-2.32015e-15 -8.35718e-15 1.21446e-17)
(-3.90237e-17 0 0)
(-9.11876e-15 -1.46436e-14 0)
(-5.02322e-13 -1.17805e-12 1.97848e-14)
(-1.48736e-14 -1.57882e-14 0)
(-1.20107e-12 -1.57846e-12 3.49503e-14)
(-5.84676e-11 -1.09893e-10 2.82862e-12)
(0 0 0)
(-1.82059e-32 0 0)
(0 0 0)
(0 0 0)
(-1.21324e-29 0 0)
(0 0 0)
(0 0 0)
(-7.10439e-27 0 0)
(0 0 0)
(0 0 0)
(-3.63532e-24 0 0)
(0 0 0)
(0 0 0)
(-1.61941e-21 0 0)
(0 -5.38119e-21 0)
(0 0 0)
(-6.28718e-19 0 0)
(0 -6.687e-17 1.12624e-17)
(0 0 0)
(-2.1485e-16 0 0)
(-2.33045e-14 -6.17813e-14 1.65223e-14)
(0 -3.03347e-16 0)
(-6.62482e-14 -9.41805e-14 2.63336e-14)
(-2.81589e-12 -7.02585e-12 1.92831e-12)
(0 0 0)
(0 0 0)
(0 0 0)
(0 0 0)
(0 0 0)
(0 0 0)
(0 0 0)
(0 0 0)
(0 0 0)
(0 0 0)
(0 0 0)
(0 0 0)
(0 0 0)
(0 0 0)
(0 0 0)
(0 0 0)
(0 0 0)
(0 -3.66681e-20 9.93087e-21)
(0 0 0)
(-1.23348e-19 0 0)
(0 -1.20514e-16 5.34552e-17)
(0 -9.16547e-19 0)
(-2.31915e-16 -3.03468e-16 5.80035e-17)
(-4.14532e-14 -9.24459e-14 4.99862e-14)
(0 0 0)
(0 0 0)
(0 0 0)
(0 0 0)
(0 0 0)
(0 0 0)
(0 0 0)
(0 0 0)
(0 0 0)
(0 0 0)
(0 0 0)
(0 0 0)
(0 0 0)
(0 0 0)
(0 0 0)
(0 0 0)
(0 0 0)
(0 0 0)
(0 0 0)
(0 0 0)
(0 -4.45164e-20 9.43005e-21)
(0 -7.94767e-22 0)
(0 -3.39996e-19 0)
(0 -1.25256e-16 1.55667e-16)
(0 0 0)
(0 0 0)
(0 0 0)
(0 0 0)
(0 0 0)
(0 0 0)
(0 0 0)
(0 0 0)
(0 0 0)
(0 0 0)
(0 0 0)
(0 0 0)
(0 0 0)
(0 0 0)
(0 0 0)
(0 0 0)
(0 0 0)
(0 0 0)
(0 0 0)
(0 0 0)
(0 -1.08827e-22 1.97298e-23)
(0 -2.22755e-24 0)
(0 -9.13714e-22 0)
(0 -3.13428e-19 6.11158e-21)
(0 0 0)
(0 0 0)
(0 0 0)
(0 0 0)
(0 0 0)
(0 0 0)
(0 0 0)
(0 0 0)
(0 0 0)
(0 0 0)
(0 0 0)
(0 0 0)
(0 0 0)
(0 0 0)
(0 0 0)
(0 0 0)
(0 0 0)
(0 0 0)
(0 0 0)
(0 0 0)
(0 0 1.79791e-24)
(0 0 0)
(0 0 0)
(0 0 3.67144e-22)
(0 0 0)
(0 0 0)
(0 0 0)
(0 0 0)
(0 0 0)
(0 0 0)
(0 0 0)
(0 0 0)
(0 0 0)
(0 0 0)
(0 0 0)
(0 0 0)
(0 0 0)
(0 0 0)
(0 0 0)
(0 0 0)
(0 0 0)
(0 0 0)
(0 0 0)
(0 0 0)
(0 0 2.65376e-28)
(0 0 0)
(0 0 0)
(0 0 1.77113e-25)
(0 0 0)
(0 0 0)
(0 0 0)
(0 0 0)
(0 0 0)
(0 0 0)
(0 0 0)
(0 0 0)
(0 0 0)
(0 0 0)
(0 0 0)
(0 0 0)
(0 0 0)
(0 0 0)
(0 0 0)
(0 0 0)
(0 0 0)
(0 0 0)
(0 0 0)
(0 0 0)
(0 0 1.55592e-35)
(0 0 0)
(0 0 0)
(0 0 6.19219e-33)
(0 0 0)
(0 0 0)
(0 0 0)
(0 0 0)
(0 0 0)
(0 0 0)
(0 0 0)
(0 0 0)
(0 0 0)
(0 0 0)
(0 0 0)
(0 0 0)
(0 0 0)
(0 0 0)
(0 0 0)
(0 0 0)
(0 0 0)
(0 0 0)
(0 0 0)
(0 0 0)
(0 0 0)
(0 0 0)
(0 0 0)
(0 0 0)
(0 0 4.18039e-19)
(0 0 2.26467e-26)
(0 0 2.5663e-19)
(0 0 -2.31628e-20)
(0 0 -2.35352e-19)
(-3.92972e-19 0 -2.15746e-17)
(-2.67089e-16 0 5.64717e-17)
(3.85357e-16 0 3.05098e-18)
(1.02191e-29 -1.44334e-21 -1.23268e-15)
(0 0 0)
(1.24729e-23 0 0)
(0 0 0)
(0 0 -9.23369e-15)
(-1.13391e-24 0 0)
(-2.41528e-29 0 0)
(2.79832e-24 0 0)
(-1.04702e-20 0 0)
(-2.21364e-17 0 0)
(-1.3845e-14 -8.59754e-15 0)
(0 0 0)
(1.46451e-21 0 0)
(0 0 0)
(0 0 0)
(-1.10222e-22 0 0)
(-2.05945e-27 0 0)
(2.46771e-22 0 0)
(-8.30107e-18 0 0)
(-8.28399e-15 -2.66816e-15 2.75633e-25)
(-9.91577e-13 -4.83135e-13 -9.12588e-15)
(0 0 0)
(1.42984e-19 0 0)
(0 0 0)
(0 0 0)
(-7.20991e-21 0 0)
(-1.19588e-25 0 0)
(1.66475e-20 0 0)
(-1.85611e-15 -3.54638e-16 9.69127e-15)
(0 0 0)
(1.11348e-17 0 0)
(0 -1.02231e-26 0)
(0 -1.68382e-24 1.85056e-19)
(-2.39961e-19 -2.48409e-22 1.88182e-19)
(-3.94489e-24 -8.59706e-20 1.88262e-19)
(3.8052e-19 -3.12061e-17 1.92783e-19)
(-1.05592e-13 -1.06382e-14 -2.89941e-16)
(0 0 0)
(6.47066e-16 0 0)
(0 0 0)
(1.24751e-23 0 0)
(0 0 0)
(0 0 0)
(-1.1319e-24 0 0)
(-1.5302e-27 0 0)
(2.76065e-24 0 0)
(-1.05496e-20 0 0)
(-2.80266e-17 0 0)
(-1.60729e-14 -1.07331e-14 0)
(0 0 0)
(1.46487e-21 0 0)
(0 0 0)
(0 0 0)
(-1.10038e-22 0 0)
(-1.31545e-25 0 0)
(2.39331e-22 0 0)
(-6.38443e-18 0 0)
(-1.03045e-14 -3.82823e-15 1.9056e-17)
(-1.15525e-12 -5.8509e-13 2.21051e-14)
(0 0 0)
(1.43036e-19 0 0)
(0 0 0)
(0 0 0)
(-7.19929e-21 0 0)
(-8.00361e-24 0 0)
(1.56909e-20 0 0)
(-2.90017e-15 -4.15049e-16 1.90304e-17)
(0 0 0)
(1.11411e-17 0 0)
(0 -4.49587e-27 0)
(0 -1.7806e-24 2.82708e-26)
(-2.39464e-19 -2.43724e-22 1.97068e-24)
(-1.21071e-22 -7.25511e-20 3.68202e-28)
(-1.15635e-16 -2.38977e-17 0)
(-1.28329e-13 -8.74311e-15 1.04096e-15)
(0 0 0)
(6.47687e-16 0 0)
(0 0 0)
(1.24561e-23 0 0)
(0 0 0)
(0 0 0)
(-1.05293e-24 0 0)
(-2.35153e-26 0 0)
(2.3484e-24 0 0)
(0 0 0)
(-2.51745e-19 0 0)
(-2.55683e-16 0 0)
(0 0 0)
(1.46278e-21 0 0)
(0 0 0)
(0 0 0)
(-1.02366e-22 0 0)
(-2.02759e-24 0 0)
(2.04201e-22 0 0)
(0 0 0)
(-9.29828e-17 0 1.6617e-17)
(-7.69635e-14 -3.53177e-14 1.96541e-14)
(0 0 0)
(1.4285e-19 0 0)
(0 0 0)
(0 0 0)
(-6.69807e-21 0 0)
(-1.23833e-22 0 0)
(1.23736e-20 0 0)
(0 -1.15337e-17 1.66126e-17)
(0 0 0)
(1.11286e-17 0 0)
(0 -1.54226e-28 0)
(0 -6.25163e-26 1.27838e-27)
(-2.22822e-19 -1.11982e-23 -4.34286e-26)
(-1.89992e-21 -4.6519e-21 -1.80558e-37)
(3.55946e-19 -7.12759e-19 0)
(-4.17625e-15 -2.30839e-16 6.11989e-16)
(0 0 0)
(6.47156e-16 0 0)
(0 0 0)
(1.15122e-23 0 0)
(0 0 0)
(0 0 0)
(-1.06001e-31 0 0)
(-1.5166e-27 0 0)
(4.3329e-27 0 0)
(0 0 0)
(-1.3283e-22 0 0)
(-5.25216e-19 0 0)
(0 0 0)
(1.35611e-21 0 0)
(0 0 0)
(0 0 0)
(-2.27012e-29 0 0)
(-1.99135e-25 0 0)
(5.43025e-25 0 0)
(0 0 0)
(-6.98458e-20 0 0)
(-1.80267e-16 0 1.44969e-16)
(0 0 0)
(1.33036e-19 0 0)
(0 0 0)
(0 0 0)
(-3.7962e-27 0 0)
(-2.03746e-23 0 0)
(5.06661e-23 0 0)
(0 0 0)
(0 0 0)
(1.04424e-17 0 0)
(0 0 0)
(0 0 0)
(-4.13722e-25 0 0)
(-1.34327e-21 0 0)
(2.84314e-21 -8.17663e-23 0)
(0 -2.46489e-19 8.1944e-18)
(0 0 -3.25649e-20)
(6.16439e-16 0 -2.09201e-18)
(0 0 0)
(9.96355e-26 0 0)
(0 0 0)
(0 0 0)
(-3.77973e-30 0 0)
(-3.85281e-26 0 0)
(9.42096e-26 0 0)
(0 0 0)
(-1.70146e-26 0 0)
(0 0 0)
(0 0 0)
(1.55252e-23 0 0)
(0 0 0)
(0 0 0)
(-9.47388e-28 0 0)
(-5.87609e-24 0 0)
(1.32161e-23 0 0)
(0 0 0)
(-7.90319e-24 0 0)
(0 0 4.49023e-19)
(0 0 0)
(2.04783e-21 0 0)
(0 0 0)
(0 0 0)
(-2.06014e-25 0 0)
(-7.65028e-22 0 0)
(1.48689e-21 0 0)
(0 0 0)
(0 0 0)
(2.21547e-19 0 0)
(0 0 0)
(0 0 0)
(-3.81625e-23 0 0)
(-8.24796e-20 0 0)
(1.24582e-19 0 0)
(0 0 0)
(0 0 1.28959e-27)
(1.87465e-17 0 6.90927e-25)
(0 0 0)
(0 0 5.70767e-17)
(-5.73621e-21 0 1.82913e-16)
(-7.80781e-18 0 2.03026e-16)
(7.41234e-18 0 1.20704e-16)
(1.51434e-27 0 3.62861e-17)
(0 0 0)
(-9.35758e-30 0 0)
(0 0 0)
(0 0 0)
(-1.47202e-32 0 0)
(-1.46635e-36 0 0)
(1.65039e-47 0 0)
(0 0 0)
(0 0 0)
(0 0 0)
(0 0 0)
(-1.11872e-27 0 0)
(0 0 0)
(0 0 0)
(-4.09775e-30 0 0)
(-9.89727e-34 0 0)
(-5.92233e-44 0 0)
(0 0 0)
(0 0 0)
(0 0 0)
(0 0 0)
(-1.17549e-25 0 0)
(0 0 0)
(0 0 0)
(-9.88915e-28 0 0)
(-5.71151e-31 0 0)
(-2.15101e-42 0 0)
(0 0 0)
(0 0 0)
(-1.10961e-23 0 0)
(0 0 0)
(0 0 0)
(-2.03087e-25 0 0)
(-2.77324e-28 0 0)
(-5.52611e-41 0 0)
(0 0 0)
(0 0 0)
(-9.83551e-22 0 0)
(0 0 0)
(0 0 0)
(-3.46525e-23 0 0)
(-1.10733e-25 0 0)
(-2.49609e-39 0 -1.87222e-27)
(2.42386e-29 0 -4.44165e-26)
(0 0 0)
(-2.27637e-32 0 0)
(0 0 0)
(0 0 0)
(-3.69352e-39 0 0)
(1.19668e-55 0 0)
(-1.67623e-44 0 0)
(0 0 0)
(0 0 0)
(0 0 0)
(0 0 0)
(-4.48482e-30 0 0)
(0 0 0)
(0 0 0)
(-1.43948e-36 0 0)
(3.58342e-53 0 0)
(-1.58566e-42 0 0)
(0 0 0)
(0 0 0)
(0 0 0)
(0 0 0)
(-7.93219e-28 0 0)
(0 0 0)
(0 0 0)
(-4.98868e-34 0 0)
(3.9529e-51 0 0)
(-1.17101e-40 0 0)
(0 0 0)
(0 0 0)
(-1.24362e-25 0 0)
(0 0 0)
(0 0 0)
(-1.51044e-31 0 0)
(3.22371e-49 0 0)
(-6.14035e-39 0 0)
(0 0 0)
(0 0 0)
(-1.70113e-23 0 0)
(0 0 0)
(0 0 0)
(-3.89354e-29 0 0)
(3.51024e-47 0 0)
(-1.80056e-37 0 -6.5285e-21)
(0 0 -6.1746e-20)
(0 0 0)
(0 0 0)
(0 0 0)
(0 0 0)
(0 0 0)
(0 0 0)
(-1.98818e-43 0 0)
(0 0 0)
(0 0 0)
(0 0 0)
(0 0 0)
(0 0 0)
(0 0 0)
(0 0 0)
(0 0 0)
(0 0 0)
(-1.96196e-41 0 0)
(0 0 0)
(0 0 0)
(0 0 0)
(0 0 0)
(0 0 0)
(0 0 0)
(0 0 0)
(0 0 0)
(0 0 0)
(-1.55106e-39 0 0)
(0 0 0)
(0 0 0)
(0 0 0)
(0 0 0)
(0 0 0)
(0 0 0)
(0 0 0)
(-9.23095e-38 0 0)
(0 0 0)
(0 0 0)
(0 0 0)
(0 0 0)
(0 0 0)
(0 0 0)
(0 0 0)
(-3.69933e-36 0 0)
(0 0 0)
(0 0 0)
(0 0 0)
(0 0 0)
(0 0 0)
(0 0 0)
(0 0 0)
(0 0 0)
(0 0 0)
(0 0 0)
(0 0 0)
(0 0 0)
(0 0 0)
(0 0 0)
(0 0 0)
(0 0 0)
(0 0 0)
(0 0 0)
(0 0 0)
(0 0 0)
(0 0 0)
(0 0 0)
(0 0 0)
(0 0 0)
(0 0 0)
(0 0 0)
(0 0 0)
(0 0 0)
(0 0 0)
(0 0 0)
(0 0 0)
(0 0 0)
(0 0 0)
(0 0 0)
(0 0 0)
(0 0 0)
(0 0 0)
(0 0 0)
(0 0 0)
(0 0 0)
(0 0 0)
(0 0 0)
(0 0 0)
(0 0 0)
(0 0 0)
(0 0 0)
(0 0 0)
(0 0 0)
(0 0 0)
(0 0 0)
(0 0 0)
(0 0 0)
(0 0 0)
(0 0 0)
(0 0 0)
(0 0 0)
(0 0 0)
(0 0 0)
(0 0 0)
(0 0 0)
(0 0 0)
(0 0 0)
(0 0 0)
(0 0 0)
(0 0 0)
(0 0 0)
(0 0 0)
(0 0 0)
(0 0 0)
(0 0 0)
(0 0 0)
(0 0 0)
(0 0 0)
(0 0 0)
(0 0 0)
(0 0 0)
(0 0 0)
(0 0 0)
(0 0 0)
(0 0 0)
(0 0 0)
(0 0 0)
(0 0 0)
(0 0 0)
(0 0 0)
(0 0 0)
(0 0 0)
(0 0 0)
(0 0 0)
(-4.34635e-13 -1.17952e-13 -3.19019e-15)
(-4.45505e-11 -1.70744e-11 -5.50023e-13)
(-1.59517e-11 -1.59608e-12 -1.37746e-13)
(-1.87592e-09 -1.99222e-10 -3.22733e-11)
(-5.32003e-13 -1.52961e-13 6.9862e-15)
(-5.71276e-11 -2.41359e-11 1.27203e-12)
(-2.09207e-11 -1.68283e-12 3.0209e-13)
(-2.62325e-09 -2.32064e-10 6.03638e-11)
(-2.97309e-14 -5.09507e-15 6.76707e-15)
(-3.61787e-12 -8.99168e-13 8.92824e-13)
(-6.47761e-13 -6.79011e-14 2.14332e-13)
(-6.31346e-11 -7.96697e-12 2.3206e-11)
(-2.95472e-17 0 0)
(-5.39304e-14 -1.23998e-14 2.57555e-14)
(-9.94988e-15 -3.48021e-16 3.20826e-15)
(-1.08114e-12 -1.51245e-13 5.11004e-13)
(-3.19694e-21 0 0)
(0 -4.84303e-17 1.4863e-16)
(-1.1292e-18 0 0)
(-1.24772e-14 -7.85284e-16 7.74714e-15)
(-1.4214e-16 -4.73733e-21 2.23792e-17)
(-6.38701e-14 -1.79136e-18 4.47411e-14)
(0 0 0)
(0 0 0)
(0 0 0)
(0 -1.23371e-19 3.20961e-17)
(0 0 0)
(-7.12438e-19 0 1.63633e-16)
(0 0 0)
(0 0 0)
(0 0 0)
(0 0 0)
(0 0 -3.09962e-26)
(0 0 1.00255e-21)
(0 0 0)
(0 0 0)
(0 0 0)
(0 0 0)
(0 0 0)
(0 0 0)
(0 0 0)
(0 0 0)
(0 0 0)
(0 0 0)
(0 0 0)
(0 0 0)
(0 0 0)
(0 0 0)
(0 0 0)
(0 0 0)
(0 0 0)
(0 0 0)
(-8.18138e-11 -1.29151e-12 2.22763e-10)
(-5.33447e-13 -5.39395e-15 1.72439e-12)
(-2.43615e-15 4.03125e-20 1.24362e-14)
(0 1.2007e-22 4.24881e-18)
(0 7.04584e-25 0)
(-3.23889e-09 -1.74195e-09 -7.83873e-11)
(-5.71674e-07 -3.42515e-07 -1.81178e-08)
(-0.00672454 -0.0075155 -0.000200396)
(-7.05465e-08 -8.42077e-09 -1.92978e-09)
(-0.44098 -0.0611934 -0.0273509)
(-1784.91 -698.832 -582.219)
(-4.09393e-09 -2.28854e-09 1.5044e-10)
(-1.28175e-07 -8.3792e-08 1.83077e-08)
(-0.000118892 -0.000133858 3.80997e-05)
(-1.18757e-07 -1.1626e-08 1.66993e-09)
(-0.0297321 -0.00381081 0.0034793)
(-1526.92 -601.319 877.468)
(-4.62909e-10 -1.30747e-10 9.46577e-11)
(-3.58886e-08 -1.63535e-08 1.09915e-08)
(-2.27955e-05 -1.66841e-05 2.05415e-05)
(-6.16752e-09 -8.54288e-10 2.58672e-09)
(-1.29865e-06 -1.79876e-07 5.94394e-07)
(-0.000115937 -6.72278e-05 0.000130861)
(-5.56401e-12 -1.68138e-12 3.05333e-12)
(-6.58342e-10 -2.59047e-10 4.72951e-10)
(-2.17489e-07 -1.3906e-07 2.99126e-07)
(-1.0364e-10 -1.70868e-11 5.75104e-11)
(-9.74218e-09 -1.86551e-09 7.9579e-09)
(-1.60967e-06 -3.71951e-07 1.80863e-06)
(-5.18765e-14 -1.5506e-14 4.358e-14)
(-3.88068e-12 -1.63556e-12 4.46088e-12)
(-2.1046e-10 -1.51306e-10 4.629e-10)
(-1.05968e-12 -1.82835e-13 8.90874e-13)
(-6.74981e-11 -1.58071e-11 8.25944e-11)
(-2.43958e-09 -7.25701e-10 4.54409e-09)
(-6.39867e-12 -5.52219e-14 5.56961e-12)
(-4.77369e-10 -4.14203e-12 6.71527e-10)
(-2.31829e-17 0 0)
(-2.506e-14 -1.02615e-14 4.18527e-14)
(-1.0171e-12 -7.43901e-13 2.69102e-12)
(-8.07598e-15 -3.47922e-16 1.00797e-14)
(-5.42331e-13 -1.27318e-13 8.14415e-13)
(-1.64744e-11 -6.32016e-12 4.18199e-11)
(-4.55776e-14 0 5.09504e-14)
(-2.73927e-12 -2.79964e-14 4.72394e-12)
(0 0 0)
(-5.09158e-18 0 0)
(-4.64028e-15 -3.41203e-15 1.83731e-14)
(0 0 0)
(-2.57132e-15 0 6.41261e-15)
(-1.32288e-13 -4.76003e-14 3.86572e-13)
(0 0 2.27507e-19)
(-1.75266e-14 0 3.47295e-14)
(0 0 0)
(0 0 0)
(0 -1.82547e-18 1.20892e-17)
(0 0 0)
(0 0 0)
(-1.16007e-16 -2.33291e-17 2.03689e-15)
(0 0 0)
(0 0 0)
(0 0 0)
(0 0 0)
(0 -1.0309e-20 2.95963e-26)
(0 0 0)
(0 0 0)
(0 0 1.86521e-19)
(0 0 0)
(0 0 0)
(0 0 0)
(0 0 0)
(0 -2.03366e-23 0)
(0 0 0)
(0 0 0)
(0 0 0)
(0 0 0)
(0 0 0)
(-0.000285643 -0.00018066 0.001762)
(-1.62054e-06 -6.90775e-07 6.59798e-06)
(-5.16341e-14 -8.117e-19 1.85373e-14)
(-6.36292e-12 -3.2999e-14 2.50842e-12)
(-8.33939e-10 -3.87825e-12 4.2692e-10)
(-1.05861e-07 -5.1666e-10 9.29464e-08)
(-1200.82 -854.045 -299.633)
(-1222.05 -841.547 -296.406)
(-1646.45 -836.794 -398.17)
(-31.8625 -8.16829 -3.71513)
(-212.087 -85.1462 -16.8152)
(-0.00746067 -0.00264372 -0.000321089)
(-0.144784 -0.0648852 -0.00416409)
(-783.745 -644.626 34.6278)
(-259.922 -213.096 145.433)
(-1983.55 -594.835 433.84)
(-13.8026 -3.20648 3.91074)
(-238.085 -96.1743 6.16883)
(-0.169967 -0.078097 0.00120987)
(-0.00257957 -0.00111766 0.000481239)
(-1963.62 -613.899 -453.961)
(-1676.69 -825.04 -165.233)
(-1987.65 -598.874 -186.863)
(-1594.83 -571.132 -149.997)
(-1552.66 -574.364 -359.34)
(-1158.07 -634.523 -263.877)
(-1194.42 -646.327 -111.745)
(-1673.35 -829.686 377.475)
(-1703.7 -827.284 113.843)
(-2015.38 -598.449 139.298)
(-1634.38 -574.388 92.2182)
(-1603.9 -574.792 343.54)
(-1228.3 -661.442 60.1472)
(-1217.84 -661.673 253.756)
(-1078.52 -473.499 768.704)
(-0.753537 -0.17711 0.71944)
(-24.0444 -17.2636 13.6077)
(-0.000260433 -3.75871e-05 0.00017796)
(-0.616716 -0.103483 0.220643)
(-0.000101036 -4.30383e-05 3.24503e-05)
(-1.66519e-05 -6.18826e-06 1.18599e-05)
(-5.16111e-06 -5.18023e-06 1.66156e-05)
(-136.03 -89.6357 236.735)
(-6.74597 -6.76286 18.0995)
(-0.00145383 -0.00119128 0.00315101)
(-1.24711e-06 -9.71548e-07 3.24011e-06)
(-0.120582 -0.0433721 0.252811)
(-3.80436e-06 -2.41598e-06 9.31125e-06)
(-1573.49 -880.308 -457.587)
(-1542.95 -835.452 -450.647)
(-1809.58 -640.01 -486.022)
(-1397.7 -581.781 -362.325)
(-1440.63 -566.562 -424.364)
(-1060.55 -594.53 -318.79)
(-996.768 -585.068 -234.876)
(-1222.35 -710.76 708.233)
(-1839 -607.832 717.863)
(-1519.73 -812.715 631.024)
(-1043.98 -438.162 569.434)
(-1418.68 -547.844 554.329)
(-1041.07 -588.082 406.392)
(-636.548 -376.254 349.696)
(-2.35292e-05 -1.89816e-05 -1.13815e-06)
(-0.000299214 -0.000347549 -2.65068e-05)
(-5.57104e-06 -4.38739e-06 -5.43247e-07)
(-77.9471 -64.514 -10.9051)
(-193.997 -171.487 -42.6325)
(-0.000181513 -8.47672e-05 -1.25321e-05)
(-0.00443163 -0.00243882 -9.04055e-05)
(-6.76304e-06 -5.39796e-06 9.29598e-07)
(-0.00779823 -0.00862175 5.71011e-05)
(-2.94622e-05 -2.39168e-05 8.98508e-07)
(-255.988 -229.321 8.80564)
(-16.3431 -13.4648 5.96319)
(-0.00515051 -0.00288838 1.95617e-05)
(-8.2122e-05 -4.43893e-05 1.99563e-05)
(-766.201 -634.628 157.922)
(-1252.38 -861.163 285.214)
(-1265.18 -859.365 72.6157)
(-220.371 -168.878 6.71255)
(-736.261 -509.833 28.2247)
(-715.571 -497.304 136.889)
(-193.244 -148.51 34.5402)
(-7.44518e-05 -8.72774e-06 2.05091e-07)
(-9.4502 -2.09864 0.101948)
(-5.19986e-05 -6.82809e-06 5.59008e-06)
(-9.79628e-06 -3.29256e-06 2.88425e-07)
(-0.00269111 -0.00110382 6.45106e-06)
(-1.83145e-06 -8.09043e-07 2.43136e-07)
(-4.94411e-05 -2.07153e-05 1.13066e-05)
(-725.619 -594.106 -165.928)
(-767.329 -628.056 -65.7941)
(-1245.24 -846.012 -121.931)
(-649.03 -444.704 -141.944)
(-203.941 -154.499 -15.2065)
(-153.862 -115.033 -31.3366)
(-708.302 -486.84 -60.1939)
(-980.951 -394.814 38.743)
(-206.373 -80.9757 33.6731)
(-951.11 -380.615 178.733)
(-47.971 -19.5412 0.786154)
(-546.491 -301.569 17.2642)
(-519.185 -287.275 91.6982)
(-39.8601 -15.4831 4.55185)
(-0.000151692 -1.71807e-05 -1.1116e-05)
(-0.00095265 -0.000118259 -6.09268e-05)
(-4.50408 -0.891831 -0.455495)
(-2.48443e-06 -6.97101e-07 -1.85103e-07)
(-0.000112421 -3.8414e-05 -9.43797e-06)
(-7.18504e-06 -2.34262e-06 -3.02929e-07)
(-0.00226416 -0.000907635 -4.49255e-05)
(-940.52 -383.846 -82.5803)
(-151.268 -57.6353 -28.4739)
(-869.784 -357.355 -184.57)
(-432.286 -238.897 -90.9936)
(-40.7826 -16.0665 -2.32667)
(-26.8156 -9.59518 -3.51229)
(-511.298 -280.234 -42.7848)
(-1169.99 -820.525 -349.092)
(-616.705 -505.072 -129.953)
(-631.91 -518.604 -190.921)
(-517.723 -360.828 -159.511)
(-47.6732 -30.0982 -5.68806)
(-76.3485 -54.6904 -18.5362)
(-436.92 -298.09 -88.472)
(-597.649 -495.86 249.292)
(-788.44 -577.812 455.23)
(-1114.42 -791.872 460.931)
(-517.68 -362.845 208.58)
(-11.676 -7.31397 3.73155)
(-81.4907 -60.5945 27.8591)
(-180.637 -120.58 91.7431)
(-314.399 -135.917 160.774)
(-87.2567 -29.7968 26.7269)
(-728.016 -302.556 273.008)