/*--------------------------------*- C++ -*----------------------------------*\
  =========                 |
  \\      /  F ield         | OpenFOAM: The Open Source CFD Toolbox
   \\    /   O peration     | Website:  https://openfoam.org
    \\  /    A nd           | Version:  9
     \\/     M anipulation  |
\*---------------------------------------------------------------------------*/
FoamFile
{
    format      ascii;
    class       volScalarField;
    location    "0.0001";
    object      impulseMax;
}
// * * * * * * * * * * * * * * * * * * * * * * * * * * * * * * * * * * * * * //

dimensions      [1 -1 -1 0 0 0 0];

internalField   nonuniform List<scalar> 
4062
(
2.42536e-07
3.10079e-07
7.03948e-13
5.27444e-13
6.52937e-14
7.82034e-05
4.50585e-08
5.37793e-08
7.88665e-12
0.00307859
6.43217e-08
8.73663e-07
1.14923e-10
2.16752e-08
8.26257e-10
1.21888e-09
6.94533e-10
4.51755e-06
1.67012e-08
1.00221e-08
1.0858e-10
2.20594e-08
1.14259e-08
5.58888e-08
1.05769e-09
8.53683e-12
9.61373e-12
0.283927
0.0157769
18.2327
1.79088e-06
1.31829e-07
0.0825404
1.98873e-07
20.3013
0.000132442
2.14365
0.0167053
2.16658e-07
3.83607e-06
8.70996e-08
2.82479e-09
6.08747e-15
8.59153e-15
1.42348e-07
1.6718e-13
1.01088e-13
4.72532e-10
3.60096e-12
2.93497e-11
0
0
4.34331e-12
2.38256e-14
1.68377e-15
0
0
2.21012e-14
4.74909e-16
0
0
0
0
0
2.95113e-10
6.93453e-13
4.20906e-14
4.22208e-08
3.9869e-09
9.4454e-12
1.13878e-12
5.61626e-13
8.36163e-14
9.81299e-12
1.29521e-16
9.63957e-14
8.37566e-15
2.35352e-09
9.10085e-12
6.1769e-13
2.81456e-09
4.09203e-10
3.84774e-13
2.40477e-14
9.43519e-12
7.38267e-15
3.7601e-13
5.26717e-15
4.4037e-15
0
3.11965e-12
6.26016e-15
1.29521e-16
3.66591e-13
2.91853e-14
0
0
5.35352e-15
0
0
0
0
0
0
0
0
0
0
0
0
0
0
0
0
0
0
0
0
0
1.66056e-12
2.26868e-11
1.62855e-11
4.78168e-10
4.01514e-15
1.36428e-14
8.50518e-15
2.99023e-11
4.26212e-10
1.76505e-12
1.48256e-11
3.13872e-14
1.01167e-13
7.9943e-14
2.42036e-11
1.82192e-14
1.95681e-13
4.29431e-13
5.19935e-13
4.34613e-15
3.97196e-15
0
0
0
2.21157e-14
0
0
1.31069e-14
1.34089e-14
0
0
0
0
0
0
0
0
0
0
0
0
0
0
0
0
6.22292e-11
3.18417e-11
4.31279e-13
1.2129e-12
7.70405e-11
8.58908e-13
3.27834e-11
6.36151e-12
5.32291e-12
4.84803e-14
6.04393e-14
6.00829e-12
7.20098e-14
5.52916e-12
1.20433e-09
9.8461e-12
5.3155e-10
4.98898e-12
5.91378e-10
1.10039e-11
5.94784e-10
1.25937e-10
1.37814e-12
1.15078e-10
1.23365e-12
1.23586e-10
1.49924e-12
1.2232e-10
1.29521e-16
2.59041e-16
3.45388e-16
9.89727e-14
3.15167e-14
7.93925e-14
1.18727e-14
9.54135e-15
1.27362e-14
1.16749e-09
5.2107e-10
4.75304e-12
9.51641e-12
5.66955e-10
5.8173e-10
1.07661e-11
7.1449e-11
5.91132e-11
6.97466e-13
6.98022e-13
6.35141e-11
6.24243e-11
8.46396e-13
9.30129e-11
1.05298e-12
1.8738e-11
2.15129e-13
8.09123e-11
1.01987e-12
1.93455e-11
7.03821e-12
5.29703e-14
2.76474e-12
3.15167e-14
6.87757e-12
6.5836e-14
3.6584e-12
2.78865e-14
9.37203e-12
7.24344e-14
8.05262e-12
7.22617e-14
2.70384e-12
6.15546e-14
6.30333e-15
6.38968e-15
7.68489e-15
1.08797e-14
1.68377e-15
8.89375e-15
1.29521e-16
4.31735e-17
3.02215e-16
7.12248e-13
3.56542e-13
7.20998e-15
7.59854e-15
8.01111e-13
7.05858e-13
5.65573e-15
5.57766e-14
4.24827e-14
7.3395e-16
8.6347e-17
6.89877e-14
5.23659e-14
1.29521e-16
9.84356e-15
0
4.66274e-15
0
9.88674e-15
0
6.95094e-15
3.45388e-16
0
1.29521e-16
0
3.02215e-16
0
3.88562e-16
0
0
0
0
0
0
0
0
0
0
0
0
0
0
0
0
0
0
0
0
0
0
0
0
0
0
0
0
0
0
0
0
0
0
0
0
0
0
0
0
0
0
0
0
0
0
0
0
0
0
0
0
0
0
0
0
0
0
0
0
3.23801e-15
5.59122e-13
4.14466e-15
5.81784e-13
3.70073e-13
4.70591e-15
4.14466e-15
1.91654e-14
9.51133e-12
2.48989e-12
6.7509e-14
2.39008e-12
6.39256e-14
2.00289e-14
1.89963e-15
4.01193e-13
3.02949e-13
2.89263e-15
2.72367e-13
3.54023e-15
1.89963e-15
0
4.53322e-15
0
3.62658e-15
0
3.10849e-15
0
0
0
0
0
0
0
0
0
0
0
0
0
0
0
0
0
0
0
0
0
0
4.5967e-09
5.991e-10
3.03132e-11
3.13683e-12
2.14866e-13
1.46358e-14
2.84986e-13
1.64229e-13
3.11137e-14
3.45388e-16
0
0
0
0
0
0
0
0
0
0
0
0
0
0
0
0
0
0
0
0
0
0
0
0
0
0
0
0
0
0
0
0
0
0
0
0
0
0
0
0
0
0
0
0
0
0
0
0
0
0
0
0
0
0
0
0
0
0
0
0
0
0
0
0
0
1.72694e-16
0
6.47603e-16
0
0
0
0
0
0
0
0
0
0
0
0
0
0
0
0
0
0
0
0
0
0
0
0
0
0
0
0
0
0
0
0
0
0
0
0
0
0
0
0
0
0
0
1.72694e-16
1.72694e-16
0
0
0
0
4.31735e-17
3.02215e-16
3.02215e-16
1.29521e-16
0
0
0
0
0
0
0
0
0
0
0
0
0
0
0
0
0
0
0
0
0
0
0
0
0
0
0
0
0
0
0
0
0
0
0
0
0
0
0
0
0
0
0
0
0
0
0
0
0
0
0
0
0
0
0
0
0
0
0
0
0
0
0
0
0
0
0
0
0
0
0
0
0
0
0
0
0
0
0
0
0
0
0
0
0
0
0
0
0
0
0
0
0
0
4.19552e-12
1.29521e-16
0
0
0
5.47037e-11
6.6919e-15
0
4.31735e-17
0
0
4.95047e-10
2.39384e-13
3.72156e-14
0
0
0
0
0
1.35032e-11
1.80484e-13
1.51808e-13
2.24502e-15
0
0
0
0
4.31735e-17
0
0
0
0
0
5.74172e-14
7.3395e-16
0
6.96328e-11
1.10508e-12
3.07827e-14
0
0
0
0
7.90075e-15
0
0
0
0
0
0
1.29521e-16
0
0
0
0
0
8.74636e-13
1.97735e-14
0
4.042e-12
5.21932e-14
1.29521e-16
0
0
0
0
1.29521e-16
0
0
0
0
0
0
0
0
0
0
0
0
0
3.02215e-16
0
0
1.29521e-16
0
0
0
0
0
0
0
0
0
0
0
0
0
0
0
0
0
0
0
0
0
0
0
0
0
0
0
0
0
0
0
0
0
0
0
0
0
0
0
0
0
0
0
0
0
0
0
0
0
0
0
0
0
0
4.31735e-17
0
0
0
0
0
0
0
0
0
0
0
0
0
0
0
0
0
0
0
0
0
0
0
0
0
0
0
0
0
0
0
0
0
0
0
0
0
0
0
0
0
0
8.24938e-14
1.00756e-13
3.02215e-16
1.38155e-15
1.12284e-13
3.45388e-16
7.68812e-14
1.03616e-15
6.47603e-16
0
0
6.47603e-16
0
1.03616e-15
1.64007e-12
3.68702e-14
2.25451e-12
1.40746e-14
2.38711e-12
1.40746e-14
1.64114e-12
3.17757e-14
0
1.55425e-14
1.29521e-16
2.18458e-14
1.72694e-16
3.18189e-14
0
0
0
0
0
0
0
0
0
0
0
0
0
0
0
0
4.31735e-17
0
4.31735e-17
0
0
0
0
0
0
0
0
0
0
0
0
0
0
0
0
0
0
1.29521e-16
0
0
0
0
0
0
0
0
0
0
0
0
0
0
0
1.1595e-12
1.4966e-12
1.02753e-14
2.33137e-14
1.16407e-12
1.53828e-12
1.02321e-14
2.48248e-14
9.67087e-15
4.31735e-17
0
2.48679e-14
1.68808e-14
4.31735e-17
7.51615e-14
1.03616e-15
3.05669e-14
2.59041e-16
1.02181e-13
3.02215e-16
6.85991e-14
7.3395e-16
0
4.31735e-17
0
6.47603e-16
0
7.3395e-16
0
0
0
0
0
4.31735e-17
0
0
0
0
0
0
0
0
0
0
0
0
0
0
0
0
0
0
0
0
0
0
0
0
0
0
0
0
0
0
0
0
0
0
0
0
0
0
0
0
0
0
0
0
0
0
0
0
0
0
0
0
0
0
0
3.45388e-16
1.29521e-16
0
0
6.47603e-16
6.47603e-16
0
0
0
0
0
0
0
0
0
0
0
0
0
0
0
0
0
0
0
0
0
0
0
0
0
0
0
0
0
0
0
0
0
0
0
0
0
0
0
0
0
0
0
0
0
0
0
0
0
0
0
0
0
0
0
0
0
0
0
0
0
0
0
0
0
0
0
0
0
0
0
0
0
0
0
0
0
0
0
0
0
0
0
0
0
0
0
0
0
0
0
0
0
0
0
0
0
0
0
0
0
0
0
0
0
0
0
0
0
0
0
0
0
0
0
0
0
0
0
0
0
0
0
0
0
0
0
0
0
0
0
0
0
0
0
0
0
0
0
0
0
0
0
0
0
0
0
0
0
0
0
0
0
0
0
0
0
0
0
0
0
0
0
0
0
0
0
0
0
0
0
0
0
0
0
0
0
0
0
6.91923e-12
9.87417e-11
4.97752e-13
5.27904e-14
5.58114e-15
1.23463e-12
8.56586e-13
1.02717e-14
1.04659e-10
6.05852e-10
6.674e-12
2.0229e-12
8.13123e-13
2.712e-14
1.56286e-12
6.33939e-14
2.43635e-14
6.23533e-12
6.21591e-14
6.25023e-12
4.49442e-13
4.32491e-14
3.41071e-15
2.73407e-13
7.3395e-16
6.90776e-16
2.43196e-13
2.31991e-13
6.90776e-16
6.90776e-16
1.03851e-13
4.74909e-16
3.45388e-16
9.30687e-14
8.5114e-14
1.29521e-16
1.29521e-16
1.94281e-15
0
0
1.07934e-15
6.90776e-16
0
0
346.053
78.2449
0.00246356
9592.67
455.739
2.32686
92.307
1.33496e-07
256.697
1.13514
6.65988e-08
0.0271026
4.82519e-10
3127.31
284.191
0.0703865
40.6591
4.18954e-09
1.01015
61.9781
3.25878e-07
5.0803e-11
1.84243e-11
2.07689e-11
3.20631e-09
2.64378e-09
5.10974e-08
4.36268e-08
4.13213e-10
2.38737e-09
7.71862e-07
1.02564e-07
3.67313e-08
39.7943
0.000328852
1.69817e-05
2.31375e-06
6.75318e-05
1.97591e-05
4.54719e-07
3.10667e-05
2.54531e-06
1.85836e-07
5.9622e-08
4.08378e-08
3.73018e-09
4.5143e-10
2.1125e-12
7429.98
146.59
487.077
181.14
707.633
313.321
1446.56
429.617
311.871
9257.84
318.266
98.9245
684.964
381.946
5.79481
14.6221
217.681
21.2712
0.00025149
203.398
0.561501
487.258
219.842
235.659
455.664
280.167
10014.6
844.733
7627.73
237.055
80.3909
2079.52
471.034
608.385
210.73
229.174
0.00509529
18.5235
239.782
0.568221
92.1091
0.00186224
0.00149743
0.116164
3.35677e-06
82.3869
9.39507
0.21253
0.000473856
3595.69
34.2686
233.885
0.000389655
7.04581
3.45904
156.518
262.985
236.173
2987.2
2.72331
0.000153497
146.117
4.38334
2.74344e-06
0.0779934
3.94295e-08
0.0285765
1.1399e-07
44.3036
2.14265e-05
285.5
116.778
194.738
5.96482
0.000287914
150.34
0.573667
3434.52
192.843
29.0001
144.899
1.27677
3.07204
0.000358551
1.51629e-07
2.18998e-06
5.34872e-08
42.5182
0.000111438
0.00340959
2.61834e-07
61.3236
2.97796e-05
0.000229775
1.90814e-08
2.31209e-07
2.22891e-05
5.58647e-08
0.000240222
0.00554349
2.18833e-07
0.000162538
1.65356e-06
7.11074e-08
1.9534e-08
796.466
783.551
319.731
357.596
1569.03
616.097
346.071
453.914
181.327
175.975
132.302
253.04
305.156
237.333
1687.17
2078.97
1471.48
131765
7733.19
4671.21
722.536
943.806
1062.3
372.055
418.917
3431.85
478.737
752.457
14.2726
14.3365
81.3775
79.9903
92.0671
11.5405
9.66078
214.706
481.373
218.842
145.249
366.202
268.327
99.1717
376
1083.41
1001.1
456.795
778.801
472.007
479.892
229.698
569.445
231.399
160.761
414.675
279.753
110.815
1586.22
1548.14
2108.03
129968
3825.68
8733.57
685.414
272.592
100.135
216.56
494.367
219.281
369.177
259.141
379.86
495.94
445.282
978.01
1100.34
3131.93
772.948
322.667
77.1253
186.018
126.873
245.868
454.356
230.18
334.993
446.445
411.382
973.079
426.384
923.843
3323.29
774.485
274.381
549.991
773.304
349.442
1329.31
312.125
650.443
7614.09
1961.62
1448.38
128163
4932.56
7613.51
931.657
324.111
1022.79
460.783
448.98
2989.56
632.414
753.119
265.993
744.754
341.398
1237.25
497.981
314.459
1309.56
1658.14
1312.08
150408
4449.8
9257.67
573.761
613.273
344.374
797.044
781.99
357.477
1555.23
342.827
214.455
218.312
365.457
480.95
144.85
268.067
255.678
1587.28
2107.65
8734.1
1556.8
129969
3813.17
7434.02
772.572
501.353
1096.75
953.205
450.579
483.876
3595.39
102.048
98.2705
170.598
277.208
235.125
146.294
59.144
251.379
113.76
293.841
115.752
72.9798
254.283
156.638
466.805
381.719
509.969
1083.92
1086.08
3787.15
793.07
283.72
85.5565
127.535
507.378
172.733
206.963
374.062
833.954
812.865
231.483
163.341
1293.17
237.125
608.817
501.489
1041.94
446.516
366.856
710.337
1031.04
3052.88
125.062
207.846
82.586
343.855
163.733
491.763
204.934
1705.79
1536.68
643.73
1533.26
127901
10013.3
4849.53
557.188
227.727
240.97
854.468
165.523
1313.64
239.691
1562.47
1837.23
1562.01
132329
7627.16
3798.46
688.962
760.377
764.115
222.625
171.039
1510.32
235.471
568.918
476.343
212.429
165.329
117.49
260.817
192.742
349.474
7732.78
720.981
1683.32
1471.24
131765
9585.79
4671.39
1083.68
375.002
777.77
999.852
458.638
3129.59
478.172
844.297
232.392
237.019
815.523
160.47
1293.69
235.018
369.72
80.1525
167.949
479.526
115.282
265.014
196.097
108.14
105.674
196.324
280.381
145.359
241.513
68.4534
191.837
108.219
286.283
107.049
150.84
67.5862
244.181
92.5563
14.207
9.69886
13.4679
78.0666
90.8872
10.7352
381.773
968.888
1096.74
450.606
772.906
483.264
500.925
305.087
233.274
604.751
169.195
419.533
301.159
114.538
113.547
202.791
293.373
115.345
253.859
72.9684
251.217
187.83
190.04
525.012
144.149
338.316
85.7238
258.08
180.439
176.444
453.074
131.607
306.439
251.403
78.2101
318.21
1021.33
906.168
458.843
630.437
448.137
427.289
101.994
98.091
58.5061
168.304
277.226
235.003
217.118
229.501
228.302
590.965
159.269
419.147
288.541
107.717
210.957
482.34
167.831
116.47
369.814
264.945
80.1503
108.675
192.503
289.03
107.443
240.113
244.971
67.9602
366.908
1062.91
944.634
429.328
752.533
455.378
478.275
212.135
476.488
166.294
117.317
352.484
259.835
80.7338
105.757
107.971
67.8859
194.412
279.173
229.671
241.385
10889.4
6931.58
4953.3
23222.5
3975.44
16834.5
16198.2
1085.1
2542.67
2610.48
1629.5
2082.92
1294.4
1199.22
12407.9
6167.14
7550.72
35914.5
13754.1
10894.2
3794.49
3846.34
1253.99
2729.97
2266.17
2286.94
1729.84
5125.59
6756.58
4948.56
4504.74
25178.4
15301.7
24052
4037.82
2831.12
1020.34
1081.46
1009.12
1550.25
1351.54
1547.57
677.177
484.442
413.006
780.804
425.824
740.647
803.033
7750.71
5188.96
5393.27
22370.1
4719.56
27062.7
17669.1
472.426
747.009
429.822
1005.84
395.861
999.806
495.652
8685.04
5686.96
6029.91
34672.7
11606.7
24915.7
4312.11
4687.15
3373.55
1549.84
3399.22
2841.15
10292
2778.11
1085.65
2308.97
2519.7
1444.2
1414.56
2264.53
1365.19
1038.39
2598.92
2519.67
1563.68
1619.33
1108.47
1091.11
1056.51
2583.61
2314.92
1413.99
1331.59
1900.81
1210.2
532.612
1061.27
803.54
432.071
960.338
425.359
502.074
528.684
420.249
1031.88
787.043
423.333
949.011
486.968
364.756
364.77
328.347
364.015
337.08
333.753
368.384
563.002
1228.07
1186.73
595.597
1271.98
606.585
574.338
4104.05
3016
2229.32
1374.01
2689.41
2113.89
6043.18
4687.29
3398.73
3373.47
1549.69
2777.99
10291.8
2841.19
4177.58
3083.89
2397.03
1365.15
2517.72
2044.66
5053.52
18032
103906
76375.1
79514.4
78376.1
42751.8
28786.8
11856.3
6037.68
7468.87
33688.5
14986.6
3899.47
12475.1
8045.32
3153.32
3043.71
14033
2696.75
11397
12012.4
2879.03
1072.44
1102.43
1053.25
1614.65
1617.3
1412.43
798.893
1582.08
645.856
886.694
1382.27
590.389
866.732
793.86
624.625
1585.21
946.59
588.588
879.145
1451.14
686.281
413.622
808.161
448.901
647.974
687.7
396.661
1055.64
2313.6
2583.42
1412.3
1210.2
1900.29
1330.24
843.71
1804.44
986.441
673.825
1390.45
906.857
593.915
842.79
1585.58
947.114
641.361
1406
618.621
918.514
677.587
757.825
431.47
434.211
764.071
422.313
764.841
3889.39
2195.1
2803.03
1311.08
2116.95
2568.21
6128.13
3845.17
2665.93
2083.01
1280.59
2096.2
6090.23
2563.19
4502.74
3352.15
3366.11
1561.5
10707.6
2847.64
2869.85
15902.9
71593
48324.7
92435.8
80961
48670.2
49258.5
9202.75
3797.05
3683.95
23391.1
2603.94
8753.24
8337.29
12020
5622.79
7431.8
26704.2
14568.2
3781.3
12958.6
2831.47
1020.31
1010.16
1081.73
1351.96
1550.37
1548.44
728.905
444.06
446.691
774.178
422.423
718.601
735.486
859.503
659.414
1674.99
945.163
1360.43
616.59
913.181
877.45
698.278
1884.16
1003.13
1397.31
927.782
609.494
1073.77
1541.02
2474.66
2538.49
2186.66
1250.17
1377.88
639.212
413.637
392.509
768.349
372.831
717.963
634.248
779.323
919.557
625.448
1689.72
536.159
1244.9
793.775
784.536
868.71
625.646
1578.59
844.98
561.646
1242.31
944.178
1352.27
2187
2206.02
1266.88
1951.13
1231.99
449.457
395.527
705.291
923.148
382.262
908.581
481.85
448.741
707.235
923.677
402.789
481.522
380.633
908.438
319.151
348.708
311.672
347.337
326.611
326.741
340.004
527.435
1290.31
1288.56
623.007
536.934
1009.04
530.456
2542.59
937.4
1020.5
937.622
1462.89
1463.03
1349.34
9776.52
5259.36
6593.12
29310.6
3463.6
12751.2
14798.7
4100.69
1396.67
2985.71
2985.18
2547.08
2547.03
9494.07
3846.3
1253.75
2266.87
2730.64
5125.16
2287.89
1729.84
19884.2
99755.8
96489.9
99755.7
27880.6
27881
67821.4
6388.66
3020.54
3023.14
12517.9
12336.5
2712.29
12337.5
9776.31
6592.59
5259.31
29310.8
12751
3463.33
14798.9
709.676
602.274
1408.83
782.55
551.029
1292.62
881.841
697.336
580.538
1421.65
802.398
858.668
1319.3
525.717
593.48
396.664
426.525
713.627
720.046
757.151
392.371
1039.3
2523.05
2598.61
1564.64
1090.28
1620.18
1111.14
429.506
882.839
656.316
410.884
367.186
861.026
477.657
427.393
404.111
868.217
652.935
470.093
856.984
365.959
308.951
343.052
301.325
346.069
314.529
321.645
335.989
503.698
1235.93
1203.23
585.836
524.415
923.767
523.407
3973.79
2250.17
2942.59
1211.96
1894.95
1534.57
4447.33
4894.98
3586.3
3585.6
1400.22
2011.49
6449.17
2011.67
3972.83
2936.37
2238.78
1208.09
4443.05
1532.05
1892.41
26171.1
87932.7
79397.9
87932.3
31950.3
31951.5
45092.9
5323.02
2747.42
2729.17
15386.1
11208.2
2522.18
11213.6
6756.63
4505.77
4947.85
25178.2
4037.7
15301.8
24052
2040.36
805.273
848.767
804.577
1397.65
1218.56
1396.77
531.753
803.87
436.994
1062.53
424.002
503.493
959.536
526.796
784.755
1032.67
417.727
493.063
421.91
945.786
362.158
363.397
328.751
362.405
336.716
331.96
366.634
559.361
1219.43
1177.11
585.283
613.011
588.453
1269.43
3888.75
1311.9
2801.84
2196.4
2567.82
6127.33
2118.57
4502.7
1561.22
3365.78
3352.23
2847.33
2869.86
10707.4
12020
5621.84
7431.8
26704.3
3780.96
12958.9
14568.3
3843.97
1277.77
2080.98
2664.73
6088.44
2095.95
2561.31
15902.6
92436.1
48325.5
71593.4
48670.6
49257.1
80961.2
9200.19
3795.76
3677.84
23387.3
8750.4
8329.92
2604.19
12407.8
7551.74
6168.17
35912.3
10894
3795.31
13753.5
899.129
1007.93
690.362
1884.67
614.724
1417.67
920.221
868.064
925.276
639.6
1624.94
878.23
607.53
1350.84
761.024
459.445
460.333
848.431
714.067
434.275
737.049
1089.21
2522.38
2315.17
1448.5
1370.14
2267.19
1413.56
752.903
453.894
460.178
852.26
435.056
751.083
804.426
904.504
716.902
1831.56
1000.19
1445.57
647.32
964.21
880.482
679.997
1864.3
992.831
1412.08
911.377
598.92
1125.76
1528.2
2497.54
2542.24
2280.72
1414.28
1415.01
494.066
1034.99
432.257
825.359
949.13
414.115
472.154
490.113
409.246
984.836
793.145
959.613
481.317
408.566
309.806
175.089
276.074
173.2
280.407
302.708
175.901
526.987
1253.86
1255.27
559.648
1143.54
534.155
532.778
777.771
590.42
878.642
1516.07
568.807
905.29
1462.24
807.473
669.996
883.366
1615.49
1015.27
614.543
1466.74
1162.34
1654.31
2819.44
2863.77
1172.98
1320.17
1886.4
5798.79
3841.8
1550.49
3842.26
2314.95
6608.95
2314.75
4720.28
3262.26
1372.79
2569.17
2225.79
1844.67
5095.37
2376.41
959.456
920.936
920.963
1594.57
1595.06
1422.38
4719.7
1372.19
3260.66
2562.62
5095.6
2226.07
1842.74
32862.4
102536
102536
95744.9
25576.8
36012
25576.4
7750.14
5188.86
5392.22
22370.1
17667.5
27062.7
4718.97
6271.96
3091.78
3092.01
12803.1
12968.9
3110.56
12968.6
474.54
743.007
1000.85
419.985
510.566
397.799
999.632
310.387
177.531
286.059
176.208
311.009
297.644
181.011
564.881
1342.12
1344.07
589.032
547.852
1098.15
548.736
4284.67
2706.43
2100.57
1280.21
2303.81
1895.57
5974.94
5549.95
3761.74
3762.4
1628.53
2464.36
7320.82
2464.37
4285.02
2707.2
2102.24
1279.55
5975.56
1895.72
2303.95
27638.2
71732.4
71732.4
58052.6
48594.6
48797.4
48594.6
8685.47
6028.63
5687.25
34672.5
4312.1
24916
11607.6
7281.14
3737.62
3739.81
21849.9
8680.39
2533.07
8681.41
2533.57
967.608
1058.02
966.92
1634.51
1349.56
1633.56
466.929
1037.76
410.239
748.365
870.214
382.499
466.942
467.927
413.454
1035.09
748.032
470.39
870.485
382.138
307.709
173.285
287.921
174.707
179.043
278.624
294.234
508.31
1204.51
1202.78
583.843
576.409
1163.66
572.62
11855.9
7468.53
6036.47
33688.5
3898.94
14986.6
12474.2
2878.94
1102.23
1073.05
1052.86
1618.08
1614.06
1411.86
4103.06
3017.58
1375.28
2223.57
2691.28
6041.57
2111.67
4178.1
1363.9
3083.12
2398.27
5055.9
2517.17
2044.68
18032.2
76375.2
103906
79514.5
78376.2
42752
28786.9
10889.4
6931.68
4950.37
23223.9
16834.7
16198.4
3974.69
8044.96
3153.97
3044.02
14032.9
11397
12012.4
2696.96
842.966
673.472
986.404
1805.32
592.591
906.069
1389.98
840.351
944.298
1590.58
640.541
916.941
1403.92
616.037
675.973
431.032
761.419
440.457
763.887
763.408
420.148
1083.16
2541.73
2606.46
1626.19
1196.95
1296.3
2081.7
491.971
823.169
422.376
1032.06
414.576
486.177
947.504
490.287
792.738
982.977
414.289
484.765
958.423
404.689
309.66
175.305
276.482
175.082
290.36
290.415
178.445
526.539
1254.65
1254.84
560.541
535.887
533.603
1142.32
867.098
1619.64
922.011
627.121
610.385
1351.25
882.306
898.041
1884.31
1007.93
689.917
918.984
1417.15
613.808
761.355
856.75
458.744
460.52
733.339
432.022
706.809
694.549
1417.99
800.974
582.381
1317.43
523.378
863.773
706.597
1409.86
783.855
611.857
1290.94
876.099
546.844
592.099
710.273
427.892
396.106
756.569
392.389
720.925
793.83
1587.62
946.326
618.792
587.996
1452.21
873.073
798.368
1589.61
886.294
644.431
868.459
1381.74
589.307
686.861
807.703
415.265
459.834
687.73
648.554
397.769
80.7835
13.7837
48.6438
37.0089
132.391
0.598253
4.49829
101.365
28.3956
57.6471
43.5593
147.601
1.30736
6.10629
23.5632
20.1773
89.3118
89.0043
84.323
175.678
20.1664
117.459
116.764
116.375
3.13332
224.198
33.9744
38.9677
0.577475
17.922
47.922
36.3088
13.3568
79.1485
130.226
29.2809
114.801
94.2596
2.62492
224.034
28.2053
36.7782
2.85989
116.007
38.7272
115.905
92.4492
219.646
29.0906
5.99246
28.059
56.9931
43.05
19.8634
99.9127
146.275
104.414
62.7001
1.45593
48.4422
21.8576
154.919
29.5788
98.495
56.5547
1.09211
43.9011
146.317
18.9996
26.0938
0.00231325
3.44367e-05
5.56596e-09
3.82958e-07
4.8437e-09
0.364181
1.03087e-05
0.117649
5.23832
42.6547
21.1314
2.28666
9.83125
0.459038
79.3955
0.399993
13.2161
35.3964
40.2262
127.43
2.7343
95.4763
40.9014
45.954
0.734695
18.8228
140.649
3.45729
0.65701
18.015
93.9002
38.6776
38.6165
139.223
3.08009
17.486
37.8298
37.7459
0.57147
16.7068
136.755
2.86609
9.75207
5.23994
42.4494
21.1706
62.0553
0.460627
2.26897
43.2754
0.105655
2.23199
5.09083
20.9181
60.5011
0.456589
40.8551
95.4756
46.0308
0.735308
140.582
18.7831
21.3144
0.394355
35.3271
13.0219
78.593
40.0482
127.023
14.5334
2.89385
38.0314
92.278
37.961
137.453
16.8421
17.5858
38.6187
0.651303
17.8183
93.3163
38.5357
139.019
18.5119
0.109965
43.2548
5.09057
20.9838
2.23851
9.43993
0.441975
1.66797e-06
0.00292537
0.000349036
2.77625e-09
4.31233e-08
3.22143e-09
5.08015e-08
0.00301162
1.32903e-05
0.0132297
4.26835e-08
2.77249e-09
4.42216e-08
2.44484e-09
0.0649567
18.725
17.9652
2.29083
5.71472
0.445168
0.439745
0.0653957
0.443916
2.2878
0.432497
17.9687
18.7305
39.8424
0.118871
0.663594
2.72614
21.974
22.9957
8.89618
44.3157
2.47419
0.0877264
0.478616
19.7597
21.1628
41.9023
7.31746
21.9337
2.72404
0.564216
0.118235
23.0084
8.84781
0.66426
2.50392
19.8736
0.484674
0.092899
21.3364
0.572901
7.40298
0.478385
0.0957242
7.73563
0.522292
19.9551
19.5206
40.8139
0.0943449
19.941
2.31316
19.4635
0.521541
7.65066
0.476419
7.5246e-05
1.02119e-06
4.84056e-10
5.66582e-10
4.80272e-08
1.84331e-11
1.14535e-09
1.28943
0.950854
21.581
0.0100781
0.883074
0.0136035
0.000156559
0.0223187
0.0422779
1.93311
33.653
3.29505
0.0348059
0.000361607
0.202096
0.202155
0.000600142
0.00114732
0.161032
0.00149341
0.120319
33.8439
0.0451676
0.036077
0.0251831
2.00723
2.3445
3.32751
0.0132819
0.0156378
1.26797
0.00960357
0.852785
21.2477
0.939062
0.0189116
31.3319
0.0351085
0.0273404
1.6354
1.90594
2.78754
0.0420586
0.0341976
3.26259
0.0220453
1.88654
33.3544
2.13637
1.20233e-05
3.81543e-10
2.12233e-11
1.01442e-10
3.92154e-09
1.13113e-09
1.24394e-08
0.00169878
0.0151679
2.0846
0.00452032
0.000355525
3.38776e-05
0.0501074
0.00758012
0.738041
5.5806
0.000829703
7.69224e-05
0.00767706
0.083811
0.124056
1.67593
7.52905
0.00120708
0.000160018
0.0168573
0.125534
0.00561043
0.0050858
13.6315
0.0205502
0.191652
0.946619
0.000117449
0.0483955
3.27797e-05
0.00436617
0.00162679
2.00909
0.271176
0.0165652
0.00145141
0.0973557
0.000695079
0.222007
0.000797559
0.159621
0.00109227
0.00395411
0.0116101
0.000591474
3.47441
0.598224
0.0256252
7.24552e-05
1.00071
0.00012481
0.0223899
0.00558307
13.5171
0.190989
1.00811
0.546293
0.0231203
2.73879
0.0101512
0.000444927
0.0728116
6.92782e-05
1.98926e-05
1.21411e-10
2.29984e-09
5.72158e-11
4.53527e-10
1.18886e-09
1.39209e-08
3.3012e-09
3.88013e-08
6.14566e-10
2.50335e-07
4.03128e-09
1.36463e-11
3.55011e-11
0.239952
2.2057e-05
0.00136392
0.0001617
0.0137351
1.77823
0.0271786
0.00134568
0.00243791
0.000161719
1.77395
0.235098
0.0137328
2.18652e-05
0.00296641
0.000454358
0.007268
2.79896
0.0206379
0.478556
5.36832e-05
0.0098927
0.000462698
0.0709869
0.00297927
2.7126
0.0227625
0.527582
0.0239726
0.000209967
0.00211118
2.11267
0.00504982
0.427126
0.016027
0.0143731
3.5438e-05
0.00308488
2.3728
0.00579454
0.438488
0.0285916
3.12527e-05
0.0160425
0.000210097
0.00213837
0.435089
2.11362
0.0240217
0.0149337
2.98421e-05
0.00016438
1.98762
0.00340731
0.374387
0.0243682
0.000251231
2.36834
0.0143518
0.00307738
0.00579665
0.433895
3.54977e-05
2.98014e-05
0.0246518
0.00016584
1.99102
0.0150708
0.00189479
0.381171
0.00316955
0.000152177
0.0202004
0.00207701
1.78365
0.368276
0.00874102
0.0209321
0.00467918
2.55279e-05
0.00232538
1.86391
0.401043
0.00914646
0.398845
0.0046891
1.87041
0.0209992
0.009188
0.000163059
2.55224e-05
0.00162182
1.70961
0.00316206
0.0202283
0.0112073
0.000151213
2.49502e-05
4.73084e-10
7.26865e-12
4.05473e-11
7.96852e-09
1.94895e-10
1.79868e-09
1.4104e-06
0.000649171
0.0484154
7.2169e-05
1.33187e-05
0.0147177
0.00203586
3.31333e-06
2.01307e-11
2.99627e-11
4.63085e-10
2.17731e-10
1.61018e-09
7.34784e-09
4.15192e-07
2.53275e-06
1.73117e-05
9.11289e-05
0.000345832
0.0130241
0.00300674
0.00300269
3.43558e-06
0.000103981
1.76866e-05
0.000483845
0.0131481
0.00349918
0.00316184
0.000643316
0.048591
8.26473e-05
1.3504e-05
0.00204904
0.000242148
0.0146191
0.0115164
6.9674e-05
2.98833e-06
0.0349451
1.32202e-05
0.00257014
0.000269074
0.000583684
0.0457499
7.01415e-05
1.29508e-05
0.0128287
0.00197703
3.0366e-06
0.000128264
2.46852e-05
4.28085e-06
0.0160749
0.00377415
0.000619786
0.00336779
0.000622758
0.00336209
0.0198946
2.27779e-05
2.60986e-05
0.00011137
4.29032e-06
0.00238309
0.0130539
0.00286774
1.7009e-05
1.7226e-05
0.000105483
2.59535e-06
0.00317482
0.000488894
0.00350303
1.77811e-05
1.98118e-05
0.000104596
3.49531e-06
1.75566e-05
2.11262e-05
3.23659e-06
0.0143485
0.00315265
0.000553526
0.00377415
0.0141291
0.000444957
0.0031204
1.7419e-05
2.09041e-05
0.000109926
3.20879e-06
0.000149014
0.000158821
0.0159584
1.56634e-07
1.49799e-06
0.000150153
1.79998e-06
1.09166e-06
7.79027e-05
0.0118327
7.82979e-08
0.000196069
1.54862e-06
2.5661e-06
0.000366034
0.00030105
0.0432748
1.57676e-07
3.20279e-06
0.000302542
3.84556e-06
8.00187e-08
1.2332e-06
0.000101451
4.39615e-05
6.4219e-05
0.00648749
6.09791e-07
7.79543e-08
1.52628e-06
0.000193074
1.08601e-06
7.62157e-05
0.000130891
0.0115388
9.69525e-05
8.2802e-08
0.000204892
0.00017726
0.0120239
1.19867e-06
1.63592e-06
7.94861e-08
2.52348e-06
0.000226898
0.000126616
9.69726e-07
7.53379e-05
0.0136641
0.0137086
0.00012733
1.65614e-06
0.000227643
2.53624e-06
9.71518e-07
7.93323e-08
0.00670674
8.20255e-07
4.02906e-05
0.000103971
2.80304e-07
9.817e-07
1.44514e-06
0.000104334
6.28146e-06
0.000821849
4.21924e-08
1.0745e-07
8.93605e-06
1.22742e-06
0.000566759
4.77316e-07
5.09765e-05
4.25152e-08
9.23134e-08
6.35174e-06
6.49889e-07
0.000112541
2.2586e-07
1.06133e-06
6.35478e-05
0.000155236
0.00944028
1.37278e-06
2.0009e-07
2.42446e-05
4.94538e-06
4.99623e-08
0.000981703
1.86764e-07
6.48284e-07
9.89352e-07
2.23076e-06
0.000109945
6.57105e-05
0.000197375
0.0113711
1.58513e-06
2.66941e-05
6.36733e-08
7.18463e-07
2.6834e-05
5.17472e-06
0.0008322
2.18747e-07
12.8805
0.000388959
0.00964505
88.9261
370.85
2.28563
134.677
231.662
926.193
1.45085
0.753818
147.676
218.787
3.11503
773.082
114.861
0.610553
90.0668
1.7578e-05
0.00134588
0.121657
3.44136e-06
82.8037
0.000803808
199.904
544.861
259.319
198.591
142.118
256.373
89.8803
167.899
90.853
94.3598
259.983
54.0855
224.392
210.243
455.719
182.438
326.894
186.158
126.692
244.921
77.403
707.953
3322.73
972.484
330.795
413.068
443.186
425.841
200.76
111.199
110.249
281.366
71.4591
251.137
246.302
367.81
258.968
494.492
216.131
146.39
272.557
99.9045
977.899
1100.14
3130.88
380.417
445.566
483.4
495.405
234.446
418.798
169.532
305.919
603.953
232.821
300.418
14.0618
82.1836
13.5053
77.2534
92.5273
10.5894
9.66544
10.4914
97.0386
15.5566
15.3303
81.4997
97.1746
12.0694
782.465
867.38
1577.56
625.144
561.744
845.315
1241.93
942.861
2205.95
2186.12
1351.66
1268.33
1231.42
1950.73
776.751
918.032
1688.43
624.379
533.336
793.26
1243.73
643.286
769.541
424.714
394.486
370.281
706.161
632.91
859.515
945.535
1674.71
658.643
912.007
616.694
1360.37
877.427
1002.93
1883.84
697.267
608.329
927.549
1397.25
1074
2474.73
2537.99
1540.79
1248.74
1377.69
2186.22
723.785
771.431
437.729
446.454
733.454
422.996
736.026
0.601076
33.6193
3.88749
80.2133
46.224
125.341
19.0139
193.021
21.6323
94.1349
94.1335
1.34883
26.2822
21.6914
21.571
7.00769
47.4525
29.6442
62.4855
104.584
154.723
38.9207
33.8352
116.566
116.082
223.438
117.2
34.1574
0.327588
31.9958
11.7565
76.1278
37.061
122.791
13.6882
3.46252
18.8068
40.363
96.1646
46.4167
141.83
21.7004
24.9567
0.132783
10.8628
5.80312
44.7546
65.2953
2.42673
10.0453
0.61055
24.599
44.1281
2.44791
6.03265
65.3829
0.0257872
0.037354
2.03333
0.04554
3.35327
34.1701
2.40373
0.000155718
0.829853
0.0135052
22.372
0.0167978
1.48157
1.00712
0.2395
0.184864
0.000576991
0.000791583
0.157379
0.00117147
0.116072
0.00173657
0.11031
0.245838
0.284248
0.00123252
0.177559
0.00137432
0.00345517
3.69198e-06
0.000599678
0.0422974
8.77774e-05
0.000270719
0.0123464
0.000542033
1.84702e-05
0.00348204
9.00891e-05
0.0129005
0.0440812
0.000342878
0
0
0
0
0
0
0
0
0
0
0
0
0
0
0
0
0
0
0
0
0
0
0
0
0
0
0
0
0
0
0
0
0
0
0
0
0
0
0
0
0
0
0
0
0
1.45608e-07
6.48887e-06
7.53823e-07
5.1825e-05
4.71568e-06
5.8861e-07
0.000577724
9.07463e-06
1.48055e-07
1.33519e-06
0.000105476
6.521e-06
0.000833601
9.90079e-07
3.52297e-08
1.50312e-06
4.69345e-08
0.000238906
1.72865e-06
3.4308e-05
2.94538e-07
2.99756e-06
3.838e-08
5.84366e-08
8.96278e-07
1.62172e-07
1.92962e-05
0.000124693
6.37028e-08
1.10445e-06
1.90408e-07
2.46976e-05
3.69917e-06
0.000185276
5.25973e-07
0.000126714
3.10838e-06
4.65553e-07
9.10384e-07
1.66301e-07
5.91867e-08
3.87337e-08
3.37115e-05
2.75696e-07
1.4063e-06
3.83692e-08
0.000222142
1.61084e-06
2.71998e-08
1.02765e-05
1.31226e-06
8.72127e-05
6.13196e-07
9.23665e-08
1.5969e-07
1.02347e-07
8.66546e-05
1.3919e-06
1.52948e-05
6.63756e-07
8.74762e-08
9.78432e-08
1.85994e-07
1.16572e-05
4.07078e-07
6.52406e-05
9.45432e-07
6.55485e-08
2.28321e-07
7.12131e-08
6.14186e-07
9.24249e-08
1.58865e-07
1.01617e-05
1.31434e-06
7.64589e-05
2.41621e-07
1.52859e-07
1.37944e-07
3.67005e-07
2.16676e-07
8.05019e-07
1.15404e-05
9.43857e-05
8.82289e-08
3.09823e-07
1.39314e-06
9.87039e-08
6.64607e-07
1.51543e-05
8.664e-05
7.77048e-07
1.01849e-07
2.13004e-07
1.66635e-06
0.000100342
1.85909e-05
3.57447e-07
1.34072e-07
9.70066e-07
2.43622e-07
1.68371e-05
2.98568e-06
0.000146593
4.71572e-07
7.3096e-08
1.29291e-06
8.27791e-08
6.17311e-07
1.59329e-07
8.17874e-05
1.33855e-05
6.13689e-08
1.97455e-07
8.84075e-07
1.04688e-05
3.80447e-07
6.17963e-05
1.16768e-07
9.42151e-07
6.54491e-08
2.28418e-07
1.17034e-05
4.04346e-07
6.4886e-05
1.33124e-07
4.50391e-07
1.84643e-06
0.000238866
1.62444e-06
1.61254e-07
1.76126e-07
4.17539e-07
1.69974e-06
3.37222e-05
0.000219592
1.50032e-06
1.35627e-07
1.49984e-07
3.56238e-07
1.14656e-07
3.79221e-07
5.39839e-05
8.78354e-07
5.48477e-08
6.02443e-08
1.95969e-07
0.000115306
3.57324e-07
1.86164e-05
7.78802e-07
1.02652e-07
1.14698e-07
2.13533e-07
8.12489e-05
2.63573e-07
1.28568e-06
6.15625e-07
7.39745e-08
8.36175e-08
1.59829e-07
9.79682e-05
2.39391e-06
3.74882e-07
8.21133e-07