/*--------------------------------*- C++ -*----------------------------------*\
  =========                 |
  \\      /  F ield         | OpenFOAM: The Open Source CFD Toolbox
   \\    /   O peration     | Website:  https://openfoam.org
    \\  /    A nd           | Version:  9
     \\/     M anipulation  |
\*---------------------------------------------------------------------------*/
FoamFile
{
    format      ascii;
    class       volScalarField;
    location    "0.0001";
    object      p;
}
// * * * * * * * * * * * * * * * * * * * * * * * * * * * * * * * * * * * * * //

dimensions      [1 -1 -2 0 0 0 0];

internalField   nonuniform List<scalar> 
4062
(
101298
101298
101298
101298
101298
101311
101298
101298
101298
101838
101298
101298
101298
101298
101298
101298
101298
101299
101298
101298
101298
101298
101298
101298
101298
101298
101298
141787
103832
1.62128e+06
101298
101298
113174
101298
1.78594e+06
101320
402543
103955
101298
101299
101298
101298
101298
101298
101298
101298
101298
101298
101298
101298
101298
101298
101298
101298
101298
101298
101298
101298
101298
101298
101298
101298
101298
101298
101298
101298
101298
101298
101298
101298
101298
101298
101298
101298
101298
101298
101298
101298
101298
101298
101298
101298
101298
101298
101298
101298
101298
101298
101298
101298
101298
101298
101298
101298
101298
101298
101298
101298
101298
101298
101298
101298
101298
101298
101298
101298
101298
101298
101298
101298
101298
101298
101298
101298
101298
101298
101298
101298
101298
101298
101298
101298
101298
101298
101298
101298
101298
101298
101298
101298
101298
101298
101298
101298
101298
101298
101298
101298
101298
101298
101298
101298
101298
101298
101298
101298
101298
101298
101298
101298
101298
101298
101298
101298
101298
101298
101298
101298
101298
101298
101298
101298
101298
101298
101298
101298
101298
101298
101298
101298
101298
101298
101298
101298
101298
101298
101298
101298
101298
101298
101298
101298
101298
101298
101298
101298
101298
101298
101298
101298
101298
101298
101298
101298
101298
101298
101298
101298
101298
101298
101298
101298
101298
101298
101298
101298
101298
101298
101298
101298
101298
101298
101298
101298
101298
101298
101298
101298
101298
101298
101298
101298
101298
101298
101298
101298
101298
101298
101298
101298
101298
101298
101298
101298
101298
101298
101298
101298
101298
101298
101298
101298
101298
101298
101298
101298
101298
101298
101298
101298
101298
101298
101298
101298
101298
101298
101298
101298
101298
101298
101298
101298
101298
101298
101298
101298
101298
101298
101298
101298
101298
101298
101298
101298
101298
101298
101298
101298
101298
101298
101298
101298
101298
101298
101298
101298
101298
101298
101298
101298
101298
101298
101298
101298
101298
101298
101298
101298
101298
101298
101298
101298
101298
101298
101298
101298
101298
101298
101298
101298
101298
101298
101298
101298
101298
101298
101298
101298
101298
101298
101298
101298
101298
101298
101298
101298
101298
101298
101298
101298
101298
101298
101298
101298
101298
101298
101298
101298
101298
101298
101298
101298
101298
101298
101298
101298
101298
101298
101298
101298
101298
101298
101298
101298
101298
101298
101298
101298
101298
101298
101298
101298
101298
101298
101298
101298
101298
101298
101298
101298
101298
101298
101298
101298
101298
101298
101298
101298
101298
101298
101298
101298
101298
101298
101298
101298
101298
101298
101298
101298
101298
101298
101298
101298
101298
101298
101298
101298
101298
101298
101298
101298
101298
101298
101298
101298
101298
101298
101298
101298
101298
101298
101298
101298
101298
101298
101298
101298
101298
101298
101298
101298
101298
101298
101298
101298
101298
101298
101298
101298
101298
101298
101298
101298
101298
101298
101298
101298
101298
101298
101298
101298
101298
101298
101298
101298
101298
101298
101298
101298
101298
101298
101298
101298
101298
101298
101298
101298
101298
101298
101298
101298
101298
101298
101298
101298
101298
101298
101298
101298
101298
101298
101298
101298
101298
101298
101298
101298
101298
101298
101298
101298
101298
101298
101298
101298
101298
101298
101298
101298
101298
101298
101298
101298
101298
101298
101298
101298
101298
101298
101298
101298
101298
101298
101298
101298
101298
101298
101298
101298
101298
101298
101298
101298
101298
101298
101298
101298
101298
101298
101298
101298
101298
101298
101298
101298
101298
101298
101298
101298
101298
101298
101298
101298
101298
101298
101298
101298
101298
101298
101298
101298
101298
101298
101298
101298
101298
101298
101298
101298
101298
101298
101298
101298
101298
101298
101298
101298
101298
101298
101298
101298
101298
101298
101298
101298
101298
101298
101298
101298
101298
101298
101298
101298
101298
101298
101298
101298
101298
101298
101298
101298
101298
101298
101298
101298
101298
101298
101298
101298
101298
101298
101298
101298
101298
101298
101298
101298
101298
101298
101298
101298
101298
101298
101298
101298
101298
101298
101298
101298
101298
101298
101298
101298
101298
101298
101298
101298
101298
101298
101298
101298
101298
101298
101298
101298
101298
101298
101298
101298
101298
101298
101298
101298
101298
101298
101298
101298
101298
101298
101298
101298
101298
101298
101298
101298
101298
101298
101298
101298
101298
101298
101298
101298
101298
101298
101298
101298
101298
101298
101298
101298
101298
101298
101298
101298
101298
101298
101298
101298
101298
101298
101298
101298
101298
101298
101298
101298
101298
101298
101298
101298
101298
101298
101298
101298
101298
101298
101298
101298
101298
101298
101298
101298
101298
101298
101298
101298
101298
101298
101298
101298
101298
101298
101298
101298
101298
101298
101298
101298
101298
101298
101298
101298
101298
101298
101298
101298
101298
101298
101298
101298
101298
101298
101298
101298
101298
101298
101298
101298
101298
101298
101298
101298
101298
101298
101298
101298
101298
101298
101298
101298
101298
101298
101298
101298
101298
101298
101298
101298
101298
101298
101298
101298
101298
101298
101298
101298
101298
101298
101298
101298
101298
101298
101298
101298
101298
101298
101298
101298
101298
101298
101298
101298
101298
101298
101298
101298
101298
101298
101298
101298
101298
101298
101298
101298
101298
101298
101298
101298
101298
101298
101298
101298
101298
101298
101298
101298
101298
101298
101298
101298
101298
101298
101298
101298
101298
101298
101298
101298
101298
101298
101298
101298
101298
101298
101298
101298
101298
101298
101298
101298
101298
101298
101298
101298
101298
101298
101298
101298
101298
101298
101298
101298
101298
101298
101298
101298
101298
101298
101298
101298
101298
101298
101298
101298
101298
101298
101298
101298
101298
101298
101298
101298
101298
101298
101298
101298
101298
101298
101298
101298
101298
101298
101298
101298
101298
101298
101298
101298
101298
101298
101298
101298
101298
101298
101298
101298
101298
101298
101298
101298
101298
101298
101298
101298
101298
101298
101298
101298
101298
101298
101298
101298
101298
101298
101298
101298
101298
101298
101298
101298
101298
101298
101298
101298
101298
101298
101298
101298
101298
101298
101298
101298
101298
101298
101298
101298
101298
101298
101298
101298
101298
101298
101298
101298
101298
101298
101298
101298
101298
101298
101298
101298
101298
101298
101298
101298
101298
101298
101298
101298
101298
101298
101298
101298
101298
101298
101298
101298
101298
101298
101298
101298
101298
101298
101298
101298
101298
101298
101298
101298
101298
101298
101298
101298
101298
101298
101298
101298
101298
101298
101298
101298
101298
101298
101298
101298
101298
101298
101298
101298
101298
101298
101298
101298
101298
101298
101298
101298
101298
101298
101298
101298
101298
101298
101298
101298
101298
101298
101298
101298
101298
101298
101298
101298
101298
101298
101298
101298
101298
101298
101298
101298
101298
101298
101298
101298
101298
101298
101298
101298
101298
101298
101298
101298
101298
101298
101298
101298
101298
101298
101298
101298
101298
101298
101298
101298
101298
101298
101298
101298
101298
101298
101298
101298
101298
101298
101298
101298
101298
101298
101298
101298
101298
101298
101298
101298
101298
101298
101298
101298
101298
101298
101298
101298
101298
101298
101298
101298
101298
101298
101298
101298
101298
101298
101298
101298
101298
101298
101298
101298
101298
101298
101298
101298
101298
101298
101298
101298
101298
101298
101298
101298
101298
101298
101298
101298
101298
101298
101298
101298
101298
101298
101298
101298
101298
101298
101298
101298
101298
101298
101298
101298
101298
101298
101298
101298
101298
101298
101298
101298
101298
101298
101298
101298
101298
101298
101298
101298
101298
101298
101298
101298
101298
101298
101298
101298
101298
101298
101298
101298
101298
101298
101298
101298
101298
101298
101298
101298
101298
101298
101298
101298
101298
101298
101298
101298
101298
101298
101298
101298
101298
101298
101298
101298
101298
101298
101298
101298
101298
101298
101298
101298
101298
101298
101298
101298
101298
101298
101298
101298
101298
101298
101298
101298
101298
6.61729e+06
4.11746e+06
101676
1.36462e+07
5.20086e+06
381370
2.8088e+06
101298
6.20586e+06
266734
101298
105340
101298
1.13623e+07
4.60111e+06
111786
2.43842e+06
101298
253391
2.72288e+06
101298
101298
101298
101298
101298
101298
101298
101298
101298
101298
101298
101298
101298
2.4087e+06
101345
101301
101298
101309
101301
101298
101303
101298
101298
101298
101298
101298
101298
101298
1.32666e+07
5.42453e+06
6.13356e+06
6.10735e+06
8.02141e+06
6.40229e+06
8.68907e+06
5.13479e+06
6.21346e+06
1.30678e+07
6.81488e+06
4.90316e+06
5.91146e+06
5.90548e+06
719135
1.46994e+06
3.73473e+06
1.9689e+06
101337
5.09923e+06
179460
5.81332e+06
5.49541e+06
3.46975e+06
5.17097e+06
4.80588e+06
1.38989e+07
7.04755e+06
1.32314e+07
3.36722e+06
3.66623e+06
9.83926e+06
5.71698e+06
6.8381e+06
5.39916e+06
3.87661e+06
102097
1.66155e+06
4.13287e+06
183835
4.1394e+06
101588
101480
117311
101299
3.07256e+06
1.00482e+06
127342
101367
1.10572e+07
2.83592e+06
5.78983e+06
101365
858709
529620
3.93839e+06
4.36992e+06
5.73091e+06
1.08097e+07
442790
101323
3.76569e+06
591357
101298
114558
101298
105547
101298
2.60357e+06
101301
4.93043e+06
4.77499e+06
4.02396e+06
764279
101348
3.94385e+06
186419
1.09812e+07
3.94379e+06
2.2799e+06
3.80839e+06
280549
481426
101359
101298
101298
101298
2.55651e+06
101315
101839
101298
2.7131e+06
101303
101328
101298
101298
101302
101298
101330
102159
101298
101323
101298
101298
101298
6.93914e+06
6.55677e+06
6.87841e+06
7.74506e+06
7.92122e+06
7.12494e+06
6.66823e+06
6.34961e+06
4.64894e+06
5.83552e+06
5.01615e+06
4.50228e+06
5.71846e+06
5.75033e+06
9.10178e+06
9.8381e+06
8.75803e+06
2.0085e+07
1.40977e+07
1.15699e+07
6.44933e+06
7.14445e+06
6.68798e+06
5.89167e+06
4.89359e+06
1.09786e+07
5.89559e+06
7.24658e+06
1.02072e+06
1.02439e+06
2.99056e+06
2.46439e+06
2.80224e+06
874733
853803
5.32868e+06
6.58946e+06
6.88068e+06
5.36677e+06
6.50182e+06
4.74967e+06
4.91488e+06
6.13218e+06
7.69933e+06
7.3009e+06
5.08607e+06
7.91399e+06
5.73596e+06
6.09881e+06
5.54993e+06
6.11582e+06
5.60272e+06
4.35304e+06
6.95426e+06
4.50149e+06
4.45168e+06
8.52318e+06
8.05792e+06
9.57891e+06
1.94499e+07
1.07382e+07
1.37517e+07
5.91317e+06
4.89002e+06
4.94745e+06
5.36946e+06
6.87615e+06
6.89174e+06
6.61303e+06
6.31841e+06
6.02854e+06
5.71592e+06
5.25548e+06
7.27063e+06
7.54105e+06
1.15456e+07
7.57808e+06
6.29124e+06
4.18116e+06
4.97848e+06
4.9897e+06
4.67852e+06
6.77815e+06
5.89439e+06
5.93081e+06
6.11998e+06
5.10054e+06
7.48406e+06
5.40807e+06
7.45556e+06
1.1426e+07
7.05475e+06
6.40372e+06
7.24996e+06
7.04946e+06
7.64977e+06
8.13371e+06
6.38948e+06
6.35113e+06
1.3671e+07
9.582e+06
8.69149e+06
1.97241e+07
1.10183e+07
1.36704e+07
6.81268e+06
5.41513e+06
6.84765e+06
4.847e+06
5.6196e+06
1.08101e+07
7.20646e+06
6.61002e+06
6.14864e+06
6.60851e+06
7.57792e+06
7.75046e+06
6.74295e+06
6.24001e+06
8.10443e+06
8.89578e+06
8.07131e+06
1.911e+07
1.06139e+07
1.30658e+07
5.77321e+06
7.07132e+06
6.62234e+06
6.93758e+06
6.5772e+06
7.72748e+06
7.90012e+06
6.56897e+06
5.32712e+06
6.85034e+06
6.50656e+06
6.58379e+06
5.35416e+06
4.74674e+06
6.18596e+06
8.52091e+06
9.57886e+06
1.37538e+07
8.07433e+06
1.94509e+07
1.06782e+07
1.32704e+07
7.37064e+06
5.58953e+06
7.45175e+06
6.72789e+06
4.98939e+06
5.74772e+06
1.10621e+07
3.83447e+06
3.53222e+06
4.49577e+06
3.682e+06
4.19071e+06
3.77398e+06
3.0958e+06
4.19011e+06
4.109e+06
3.8085e+06
3.97032e+06
3.60174e+06
4.42526e+06
3.94402e+06
5.28035e+06
6.22419e+06
6.24896e+06
7.60172e+06
7.72409e+06
1.17356e+07
7.99338e+06
4.941e+06
3.88509e+06
4.15552e+06
6.58793e+06
4.7439e+06
4.08587e+06
6.58951e+06
7.24703e+06
6.95725e+06
3.9084e+06
2.37629e+06
8.60212e+06
3.49528e+06
6.84301e+06
6.11566e+06
7.21971e+06
5.3775e+06
5.88495e+06
7.41353e+06
7.43526e+06
1.1549e+07
4.09192e+06
5.08509e+06
3.70535e+06
5.8986e+06
4.42657e+06
6.35368e+06
3.97992e+06
9.18993e+06
8.86047e+06
5.80262e+06
8.86146e+06
2.00289e+07
1.38975e+07
1.16459e+07
6.45229e+06
3.7284e+06
3.40821e+06
7.04919e+06
2.36405e+06
8.6566e+06
3.41006e+06
8.49931e+06
8.70809e+06
8.50364e+06
1.98361e+07
1.3226e+07
1.1374e+07
5.7081e+06
6.7635e+06
6.76899e+06
3.70243e+06
2.34808e+06
8.45313e+06
3.35363e+06
6.28283e+06
6.15889e+06
5.18116e+06
4.4584e+06
3.93223e+06
4.70712e+06
3.90511e+06
6.01826e+06
1.40994e+07
6.39959e+06
9.10334e+06
8.75073e+06
2.0086e+07
1.364e+07
1.15681e+07
7.69835e+06
6.12216e+06
7.90425e+06
7.2933e+06
5.09136e+06
1.13572e+07
6.09112e+06
7.25413e+06
3.92765e+06
3.50481e+06
6.95449e+06
2.38904e+06
8.6058e+06
3.48044e+06
6.48081e+06
3.72001e+06
4.70493e+06
6.3728e+06
3.95891e+06
4.81763e+06
4.0161e+06
3.98762e+06
3.73584e+06
4.94445e+06
3.6778e+06
3.81321e+06
4.39905e+06
3.46976e+06
5.08173e+06
4.05948e+06
3.88048e+06
3.87203e+06
3.92754e+06
3.48983e+06
4.51654e+06
2.8525e+06
1.03004e+06
853997
1.00049e+06
2.4933e+06
2.81855e+06
853417
5.89977e+06
6.71555e+06
7.45228e+06
4.99093e+06
7.37031e+06
5.74577e+06
5.57049e+06
5.01361e+06
5.79269e+06
6.70357e+06
4.64667e+06
7.27542e+06
4.92462e+06
4.61553e+06
4.10011e+06
5.08431e+06
3.80753e+06
3.96201e+06
4.41855e+06
3.59047e+06
4.18836e+06
4.75255e+06
4.81228e+06
6.00351e+06
4.05184e+06
6.19961e+06
3.73582e+06
4.25349e+06
4.60307e+06
5.82724e+06
6.35576e+06
4.98432e+06
5.70362e+06
4.44773e+06
4.10531e+06
5.28579e+06
6.84377e+06
6.79697e+06
4.84439e+06
7.18772e+06
5.58897e+06
5.10128e+06
3.83002e+06
3.52651e+06
3.06675e+06
4.43696e+06
3.67707e+06
4.18386e+06
3.72495e+06
5.90268e+06
5.87398e+06
6.91843e+06
4.54717e+06
7.65805e+06
5.01232e+06
4.57569e+06
5.41068e+06
6.37936e+06
4.69695e+06
3.96759e+06
6.48522e+06
4.82613e+06
3.72269e+06
4.07423e+06
5.09817e+06
3.88466e+06
3.88469e+06
4.14015e+06
4.52795e+06
3.5082e+06
5.77281e+06
6.6856e+06
7.14494e+06
4.89243e+06
7.24814e+06
5.18334e+06
5.8745e+06
5.15487e+06
6.18094e+06
4.48026e+06
3.93199e+06
6.04622e+06
4.6579e+06
3.67436e+06
3.7378e+06
3.9845e+06
3.44493e+06
4.89658e+06
3.67766e+06
3.88096e+06
4.39617e+06
1.34764e+07
1.28413e+07
1.21302e+07
1.60889e+07
1.15222e+07
1.50278e+07
1.42245e+07
7.99138e+06
1.07152e+07
1.0261e+07
8.95846e+06
9.74796e+06
8.48452e+06
8.27038e+06
1.25825e+07
1.15288e+07
1.24098e+07
1.56077e+07
1.45241e+07
1.34871e+07
1.07691e+07
1.11408e+07
8.53106e+06
1.05507e+07
9.59905e+06
1.00453e+07
9.20897e+06
1.17247e+07
1.19216e+07
1.18366e+07
1.13649e+07
1.53453e+07
1.32116e+07
1.38018e+07
1.03627e+07
9.38958e+06
6.67716e+06
6.80625e+06
6.55963e+06
8.02668e+06
7.51928e+06
7.83076e+06
6.10629e+06
5.13691e+06
4.82366e+06
6.92911e+06
4.74569e+06
6.43806e+06
6.60854e+06
1.30629e+07
1.24687e+07
1.23216e+07
1.63317e+07
1.1021e+07
1.47408e+07
1.44318e+07
5.10029e+06
6.60139e+06
5.01069e+06
7.5115e+06
4.71245e+06
7.05965e+06
5.25901e+06
1.22891e+07
1.18426e+07
1.17006e+07
1.56219e+07
1.37504e+07
1.39532e+07
1.044e+07
1.21142e+07
1.14802e+07
9.36193e+06
1.14693e+07
1.05599e+07
1.33357e+07
1.051e+07
7.5499e+06
9.74264e+06
1.03607e+07
8.72777e+06
8.22429e+06
9.12868e+06
7.83912e+06
7.16527e+06
9.81496e+06
9.5374e+06
8.47345e+06
8.68716e+06
7.64416e+06
7.72359e+06
7.36988e+06
9.87156e+06
9.9041e+06
8.63301e+06
8.01183e+06
8.90794e+06
7.82291e+06
5.64365e+06
7.15137e+06
6.66343e+06
5.45376e+06
6.85411e+06
5.37868e+06
5.59138e+06
5.5733e+06
5.23571e+06
6.8496e+06
6.46401e+06
5.31066e+06
6.72505e+06
5.429e+06
4.96979e+06
7.96502e+06
4.80303e+06
7.96045e+06
4.92227e+06
4.84701e+06
7.98009e+06
5.6992e+06
7.64278e+06
7.45378e+06
5.85355e+06
7.26475e+06
5.78946e+06
5.64723e+06
1.15486e+07
1.08233e+07
1.02018e+07
8.78199e+06
1.01773e+07
9.65476e+06
1.23119e+07
1.21145e+07
1.14694e+07
1.14806e+07
9.36027e+06
1.05116e+07
1.33353e+07
1.05614e+07
1.13995e+07
1.04399e+07
9.84582e+06
8.62425e+06
1.00435e+07
9.53072e+06
1.18658e+07
1.52008e+07
1.83881e+07
1.86163e+07
1.7541e+07
1.70969e+07
1.63995e+07
1.61711e+07
1.36473e+07
1.25841e+07
1.29867e+07
1.65191e+07
1.5222e+07
1.16897e+07
1.4663e+07
1.2791e+07
1.11147e+07
1.08733e+07
1.44418e+07
1.04488e+07
1.3675e+07
1.33989e+07
1.02324e+07
7.30548e+06
7.38928e+06
7.26533e+06
8.59273e+06
8.62326e+06
8.34674e+06
6.23224e+06
8.25003e+06
6.42756e+06
6.6454e+06
7.53948e+06
5.78318e+06
6.90588e+06
6.04085e+06
5.64807e+06
8.21455e+06
6.34593e+06
5.25541e+06
6.56462e+06
7.40438e+06
5.82611e+06
4.63923e+06
6.54723e+06
4.83951e+06
6.09161e+06
6.25143e+06
4.55251e+06
7.36779e+06
9.90107e+06
9.86928e+06
8.63474e+06
7.82097e+06
8.9067e+06
8.01211e+06
6.70833e+06
9.14013e+06
7.25926e+06
6.47553e+06
8.36616e+06
7.29132e+06
5.91535e+06
6.63159e+06
8.48118e+06
7.08994e+06
6.51634e+06
8.08593e+06
6.10142e+06
7.07089e+06
6.28006e+06
6.77251e+06
5.00896e+06
4.98838e+06
6.54842e+06
4.87736e+06
6.45249e+06
1.06184e+07
9.42305e+06
1.03368e+07
8.10597e+06
8.76843e+06
9.56795e+06
1.14353e+07
1.04244e+07
9.75426e+06
9.11956e+06
7.84731e+06
8.64382e+06
1.10578e+07
9.22457e+06
1.13834e+07
1.11184e+07
1.12484e+07
8.84822e+06
1.29663e+07
1.00161e+07
9.84747e+06
1.41245e+07
1.77702e+07
1.67037e+07
1.78966e+07
1.64414e+07
1.53831e+07
1.52912e+07
1.15826e+07
1.01474e+07
1.00226e+07
1.3431e+07
9.44091e+06
1.24883e+07
1.23799e+07
1.28335e+07
1.21329e+07
1.27483e+07
1.59449e+07
1.47703e+07
1.11736e+07
1.38763e+07
9.39871e+06
6.68295e+06
6.56501e+06
6.80955e+06
7.52608e+06
8.03063e+06
7.83728e+06
6.29536e+06
5.15076e+06
5.11727e+06
7.05626e+06
4.89219e+06
6.69163e+06
6.69611e+06
6.54149e+06
6.60458e+06
8.61244e+06
6.81993e+06
7.87098e+06
5.95892e+06
7.27724e+06
6.51867e+06
6.40692e+06
9.03236e+06
6.86905e+06
8.05083e+06
7.27274e+06
5.67124e+06
7.94745e+06
9.17352e+06
1.03888e+07
1.06982e+07
9.54515e+06
8.48572e+06
8.55006e+06
6.40703e+06
5.08237e+06
4.79436e+06
6.95127e+06
4.7355e+06
6.73519e+06
6.55739e+06
6.87429e+06
7.38178e+06
6.1811e+06
8.98853e+06
5.82825e+06
8.53083e+06
7.20785e+06
6.90699e+06
7.19304e+06
6.77349e+06
8.76626e+06
7.43893e+06
6.19613e+06
8.36404e+06
8.14889e+06
9.06025e+06
1.05504e+07
1.04758e+07
8.54617e+06
9.84894e+06
8.40374e+06
5.58837e+06
5.40254e+06
6.99278e+06
7.24105e+06
5.31475e+06
7.17208e+06
5.55795e+06
5.57926e+06
6.97218e+06
7.23996e+06
5.38659e+06
5.55363e+06
5.28521e+06
7.16916e+06
4.8724e+06
7.78764e+06
4.82575e+06
7.76984e+06
4.86625e+06
4.87448e+06
7.77368e+06
5.74612e+06
7.77785e+06
7.77834e+06
5.99069e+06
5.81885e+06
7.57488e+06
5.82946e+06
1.01288e+07
7.30824e+06
7.53567e+06
7.27388e+06
8.77444e+06
8.77915e+06
8.22204e+06
1.31772e+07
1.22288e+07
1.26057e+07
1.59445e+07
1.14524e+07
1.40499e+07
1.46932e+07
1.19158e+07
9.40493e+06
1.1165e+07
1.11644e+07
1.05157e+07
1.05152e+07
1.29395e+07
1.11381e+07
8.53035e+06
9.61309e+06
1.05475e+07
1.17179e+07
1.00457e+07
9.21211e+06
1.45524e+07
1.80631e+07
1.70541e+07
1.80622e+07
1.56794e+07
1.56805e+07
1.65777e+07
1.21463e+07
1.03982e+07
1.04154e+07
1.38224e+07
1.29066e+07
9.85781e+06
1.29158e+07
1.31781e+07
1.26041e+07
1.2229e+07
1.5945e+07
1.40502e+07
1.14505e+07
1.46942e+07
6.03217e+06
6.14855e+06
7.89496e+06
6.54569e+06
5.55444e+06
7.44363e+06
6.56579e+06
6.0054e+06
5.76113e+06
8.346e+06
6.54721e+06
6.6399e+06
7.57458e+06
5.17283e+06
5.67311e+06
4.58074e+06
4.66448e+06
6.45129e+06
6.05597e+06
5.97491e+06
4.43378e+06
7.17418e+06
9.54156e+06
9.81411e+06
8.47657e+06
7.73048e+06
8.68938e+06
7.64851e+06
5.29162e+06
6.87062e+06
6.47104e+06
5.17064e+06
4.9409e+06
6.75924e+06
5.30364e+06
5.29394e+06
5.16736e+06
6.8736e+06
6.47592e+06
5.29429e+06
6.76693e+06
4.9559e+06
4.6467e+06
7.70531e+06
4.63723e+06
7.72935e+06
4.66975e+06
4.67861e+06
7.61446e+06
5.40452e+06
7.33668e+06
7.33425e+06
5.67499e+06
5.48691e+06
7.12444e+06
5.49169e+06
1.02664e+07
9.1307e+06
9.74898e+06
7.86444e+06
9.17309e+06
8.66847e+06
1.1007e+07
1.08199e+07
1.05102e+07
1.05086e+07
8.38488e+06
9.50259e+06
1.22042e+07
9.50263e+06
1.02565e+07
9.72359e+06
9.1019e+06
7.85011e+06
1.09735e+07
8.6584e+06
9.16194e+06
1.33731e+07
1.74433e+07
1.63686e+07
1.74411e+07
1.4936e+07
1.49305e+07
1.57146e+07
1.1192e+07
9.91729e+06
9.90405e+06
1.32849e+07
1.21741e+07
9.28082e+06
1.21959e+07
1.19197e+07
1.13651e+07
1.18314e+07
1.53434e+07
1.0359e+07
1.32042e+07
1.38011e+07
9.36811e+06
6.72608e+06
6.74485e+06
6.72682e+06
7.99395e+06
7.74048e+06
7.98357e+06
5.61925e+06
6.64794e+06
5.43859e+06
7.14936e+06
5.35156e+06
5.58067e+06
6.84626e+06
5.56124e+06
6.47224e+06
6.87274e+06
5.22072e+06
5.43047e+06
5.30658e+06
6.73276e+06
4.96207e+06
7.92386e+06
4.81973e+06
7.91031e+06
4.91339e+06
4.8418e+06
7.96501e+06
5.71096e+06
7.63405e+06
7.46137e+06
5.87714e+06
5.79572e+06
5.6657e+06
7.26719e+06
1.06102e+07
8.10233e+06
1.03331e+07
9.40809e+06
9.56394e+06
1.14331e+07
8.76006e+06
1.13851e+07
8.84855e+06
1.12492e+07
1.11197e+07
1.00171e+07
9.84925e+06
1.29667e+07
1.28344e+07
1.2132e+07
1.27499e+07
1.59457e+07
1.11728e+07
1.38784e+07
1.47706e+07
1.04102e+07
7.84564e+06
9.12499e+06
9.74998e+06
1.10547e+07
8.63768e+06
9.21526e+06
1.41225e+07
1.78976e+07
1.67055e+07
1.77687e+07
1.53847e+07
1.52846e+07
1.64408e+07
1.15726e+07
1.01075e+07
9.99405e+06
1.34553e+07
1.24974e+07
1.23896e+07
9.42169e+06
1.2583e+07
1.24138e+07
1.1535e+07
1.56068e+07
1.34822e+07
1.07751e+07
1.45243e+07
6.24223e+06
6.79004e+06
6.27904e+06
8.8465e+06
5.55905e+06
7.78886e+06
7.02471e+06
6.09281e+06
6.4952e+06
6.08128e+06
7.93398e+06
6.55177e+06
5.69395e+06
7.44212e+06
5.86937e+06
4.95866e+06
4.78594e+06
6.61335e+06
6.06311e+06
4.69687e+06
6.34731e+06
7.55337e+06
1.03659e+07
9.7505e+06
8.73006e+06
7.84143e+06
9.13385e+06
8.22547e+06
6.41741e+06
5.09427e+06
5.1933e+06
7.04721e+06
4.98189e+06
6.69676e+06
6.72413e+06
6.73521e+06
6.75824e+06
8.79987e+06
7.25791e+06
8.2876e+06
6.18396e+06
7.32139e+06
6.76744e+06
6.47005e+06
9.14773e+06
7.36838e+06
8.47809e+06
7.34438e+06
5.8964e+06
8.16115e+06
9.24793e+06
1.06311e+07
1.08058e+07
9.88425e+06
8.57558e+06
8.61078e+06
5.33087e+06
7.73535e+06
5.0944e+06
7.02099e+06
7.4986e+06
5.00094e+06
5.37002e+06
5.26224e+06
4.90465e+06
7.44624e+06
6.87571e+06
7.36325e+06
5.20154e+06
4.89283e+06
3.96667e+06
2.53671e+06
3.78225e+06
2.54969e+06
3.88992e+06
3.83488e+06
2.70194e+06
5.74881e+06
8.37543e+06
8.18887e+06
5.88763e+06
8.06318e+06
5.81779e+06
5.70823e+06
6.39446e+06
5.96694e+06
6.78451e+06
8.67138e+06
5.45739e+06
6.94692e+06
7.80098e+06
6.43132e+06
6.67936e+06
6.82271e+06
8.6065e+06
7.20767e+06
5.85809e+06
7.82374e+06
7.71478e+06
9.0967e+06
1.03764e+07
1.03917e+07
8.22735e+06
8.43123e+06
9.32795e+06
1.12845e+07
1.08189e+07
8.62772e+06
1.08193e+07
9.76509e+06
1.26356e+07
9.76324e+06
1.09655e+07
1.05556e+07
8.28292e+06
9.95072e+06
9.63258e+06
9.17376e+06
1.20092e+07
9.55014e+06
6.79638e+06
6.76105e+06
6.76158e+06
7.97505e+06
7.97644e+06
7.80432e+06
1.09607e+07
8.28805e+06
1.05569e+07
9.94592e+06
1.20106e+07
9.63308e+06
9.17177e+06
1.4915e+07
1.85126e+07
1.85121e+07
1.75833e+07
1.62724e+07
1.69249e+07
1.62711e+07
1.30618e+07
1.24697e+07
1.23162e+07
1.63312e+07
1.44285e+07
1.47394e+07
1.10182e+07
1.24102e+07
1.09664e+07
1.09605e+07
1.45078e+07
1.34837e+07
1.01538e+07
1.34817e+07
5.10035e+06
6.60301e+06
7.51312e+06
5.01242e+06
5.26187e+06
4.70836e+06
7.06247e+06
3.88864e+06
2.5501e+06
3.78078e+06
2.54121e+06
3.87726e+06
3.87935e+06
2.62431e+06
5.59909e+06
8.25638e+06
8.25217e+06
5.89955e+06
5.74454e+06
7.82692e+06
5.74301e+06
1.04366e+07
1.00842e+07
9.52267e+06
7.97965e+06
9.21059e+06
8.76597e+06
1.14633e+07
1.0694e+07
1.0319e+07
1.03181e+07
8.22054e+06
9.28859e+06
1.20849e+07
9.28963e+06
1.04361e+07
1.00848e+07
9.53612e+06
7.9763e+06
1.14582e+07
8.76839e+06
9.20894e+06
1.41306e+07
1.79318e+07
1.79321e+07
1.73542e+07
1.5782e+07
1.60783e+07
1.5784e+07
1.22899e+07
1.16964e+07
1.18426e+07
1.56208e+07
1.04408e+07
1.39541e+07
1.37518e+07
1.18133e+07
1.05815e+07
1.05951e+07
1.41944e+07
1.30122e+07
9.69568e+06
1.30168e+07
9.13709e+06
6.55362e+06
6.47662e+06
6.56013e+06
7.66968e+06
7.50164e+06
7.66378e+06
4.84504e+06
7.19446e+06
4.79584e+06
6.40033e+06
6.74477e+06
4.57418e+06
5.04902e+06
4.84414e+06
4.80122e+06
7.19588e+06
6.40427e+06
5.04818e+06
6.74535e+06
4.58075e+06
3.71363e+06
2.50726e+06
3.70917e+06
2.4973e+06
2.5887e+06
3.73271e+06
3.73123e+06
5.31422e+06
7.95212e+06
7.95825e+06
5.7717e+06
5.51734e+06
7.44959e+06
5.52152e+06
1.3649e+07
1.2987e+07
1.25826e+07
1.65188e+07
1.1686e+07
1.52223e+07
1.46663e+07
1.02291e+07
7.36863e+06
7.28837e+06
7.2604e+06
8.62756e+06
8.58964e+06
8.34619e+06
1.1544e+07
1.08217e+07
8.78343e+06
1.01993e+07
1.01776e+07
1.23059e+07
9.65457e+06
1.14008e+07
8.61662e+06
1.04377e+07
9.84584e+06
1.18685e+07
1.00413e+07
9.52878e+06
1.52023e+07
1.86178e+07
1.83901e+07
1.75422e+07
1.7099e+07
1.64011e+07
1.61727e+07
1.34763e+07
1.28377e+07
1.21239e+07
1.60885e+07
1.50283e+07
1.42246e+07
1.15184e+07
1.27916e+07
1.11129e+07
1.0874e+07
1.44412e+07
1.36762e+07
1.33998e+07
1.04499e+07
6.70309e+06
6.44686e+06
7.25422e+06
9.13734e+06
5.86896e+06
7.2891e+06
8.36119e+06
6.62768e+06
7.08056e+06
8.47448e+06
6.51196e+06
7.07046e+06
8.07939e+06
6.09599e+06
6.27748e+06
5.0076e+06
6.77868e+06
4.99033e+06
6.45657e+06
6.54804e+06
4.87267e+06
7.98697e+06
1.07122e+07
1.02526e+07
8.95704e+06
8.26849e+06
8.48285e+06
9.74298e+06
5.33352e+06
7.02454e+06
5.09855e+06
7.73759e+06
5.00578e+06
5.37174e+06
7.49995e+06
5.26143e+06
6.87295e+06
7.44434e+06
4.90396e+06
5.20251e+06
7.36278e+06
4.89249e+06
3.97231e+06
2.56494e+06
3.78609e+06
2.55595e+06
3.8955e+06
3.84214e+06
2.7236e+06
5.7499e+06
8.37371e+06
8.18949e+06
5.88973e+06
5.8202e+06
5.71231e+06
8.06134e+06
6.09507e+06
7.93637e+06
6.49525e+06
6.07459e+06
5.69486e+06
7.44685e+06
6.55391e+06
6.24175e+06
8.84343e+06
6.79071e+06
6.25468e+06
7.02402e+06
7.78626e+06
5.52078e+06
5.87108e+06
6.61503e+06
4.79003e+06
4.95894e+06
6.34872e+06
4.69812e+06
6.06745e+06
5.96674e+06
8.34075e+06
6.54459e+06
5.72916e+06
7.5684e+06
5.12178e+06
6.63543e+06
5.96563e+06
7.87689e+06
6.52073e+06
6.14081e+06
7.42789e+06
6.55576e+06
5.49922e+06
5.65987e+06
6.44816e+06
4.6587e+06
4.57075e+06
5.97255e+06
4.41855e+06
6.04644e+06
6.01809e+06
8.21623e+06
6.3414e+06
5.62885e+06
5.21432e+06
7.40484e+06
6.56741e+06
6.19781e+06
8.25058e+06
6.63423e+06
6.42623e+06
6.90461e+06
7.53588e+06
5.74577e+06
5.82667e+06
6.54209e+06
4.6379e+06
4.83998e+06
6.24894e+06
6.08907e+06
4.55206e+06
3.64392e+06
1.32564e+06
2.74943e+06
2.37172e+06
3.95882e+06
186246
602421
4.28129e+06
2.23839e+06
3.12283e+06
2.68683e+06
4.27614e+06
285065
760335
1.98103e+06
1.89001e+06
3.83173e+06
3.81625e+06
4.40171e+06
4.6688e+06
1.88764e+06
4.65587e+06
4.63045e+06
5.54236e+06
539080
5.8529e+06
2.81693e+06
2.8447e+06
183070
1.59943e+06
2.72283e+06
2.34339e+06
1.2943e+06
3.5916e+06
3.90879e+06
2.36402e+06
4.72715e+06
4.14166e+06
471411
5.99294e+06
2.29502e+06
2.80161e+06
490505
4.57169e+06
2.79628e+06
4.56402e+06
3.97672e+06
5.55423e+06
2.28444e+06
750597
2.21891e+06
3.1047e+06
2.67033e+06
1.75766e+06
4.2414e+06
4.24634e+06
4.3716e+06
3.35118e+06
306349
2.90614e+06
1.89257e+06
4.52517e+06
2.341e+06
4.33668e+06
3.17543e+06
260997
2.75285e+06
4.44102e+06
1.74388e+06
2.19045e+06
101647
101304
101298
101298
101298
154281
101300
117533
583329
2.43537e+06
1.63174e+06
360479
1.01173e+06
161199
3.64173e+06
158838
1.30547e+06
2.37312e+06
2.76125e+06
4.17676e+06
444551
4.15369e+06
2.65506e+06
3.07531e+06
208241
1.70638e+06
4.41284e+06
529292
196856
1.65806e+06
4.13411e+06
2.59051e+06
2.52004e+06
4.41477e+06
482550
1.62307e+06
2.56906e+06
2.49162e+06
185547
1.59512e+06
4.44191e+06
462116
1.00497e+06
581612
2.42591e+06
1.62991e+06
2.71285e+06
161243
358519
2.47782e+06
115946
362521
562240
1.60777e+06
2.72184e+06
161909
2.65194e+06
4.1455e+06
3.08023e+06
208258
4.41053e+06
1.70235e+06
1.97146e+06
157887
2.36448e+06
1.28714e+06
3.60189e+06
2.74281e+06
4.15375e+06
1.4594e+06
465285
2.58099e+06
4.15064e+06
2.50317e+06
4.45602e+06
1.60605e+06
1.63068e+06
2.58479e+06
195903
1.64085e+06
4.10673e+06
2.51526e+06
4.40067e+06
1.65919e+06
116513
2.47407e+06
567990
1.61783e+06
362486
1.00759e+06
159015
101298
101717
101350
101298
101298
101298
101298
101743
101300
103224
101298
101298
101298
101298
110542
1.53326e+06
1.47367e+06
375983
713142
165560
164579
110574
165236
375424
159460
1.47963e+06
1.5342e+06
2.40539e+06
119270
190489
422186
1.74451e+06
1.80989e+06
969248
2.60462e+06
399673
114090
171410
1.64285e+06
1.68582e+06
2.54181e+06
871596
1.7447e+06
421598
180594
119184
1.80992e+06
965169
190616
402852
1.65413e+06
172353
115239
1.69623e+06
184291
886413
170834
115024
894219
176941
1.60702e+06
1.617e+06
2.44476e+06
114806
1.60573e+06
379986
1.61382e+06
176811
885120
170557
101310
101298
101298
101298
101298
101298
101298
287971
241242
1.86462e+06
102901
231477
103453
101324
104986
108322
376053
2.56673e+06
543906
107061
101360
126259
126325
101374
101438
121194
101479
115377
2.58278e+06
108904
107286
105494
385745
439380
549132
103397
103807
284851
102827
226863
1.83932e+06
239311
104469
2.51711e+06
107250
105913
341511
377952
493754
108284
106952
539878
104937
369689
2.54706e+06
401510
101300
101298
101298
101298
101298
101298
101298
101584
103802
365081
101936
101352
101303
108546
102488
211277
705783
101424
101311
102506
113357
119292
334276
895869
101485
101325
103983
119499
102310
102102
1.32845e+06
105186
128904
240319
101320
108309
101303
101913
101572
359588
139980
103723
101476
113692
101386
126558
101397
119657
101432
101882
103149
101387
519986
195857
105663
101311
244746
101319
104944
102166