/*--------------------------------*- C++ -*----------------------------------*\
  =========                 |
  \\      /  F ield         | OpenFOAM: The Open Source CFD Toolbox
   \\    /   O peration     | Website:  https://openfoam.org
    \\  /    A nd           | Version:  9
     \\/     M anipulation  |
\*---------------------------------------------------------------------------*/
FoamFile
{
    format      ascii;
    class       volScalarField;
    location    "0.0014";
    object      alpha.c4;
}
// * * * * * * * * * * * * * * * * * * * * * * * * * * * * * * * * * * * * * //

dimensions      [0 0 0 0 0 0 0];

internalField   nonuniform List<scalar> 
11022
(
0.603715
0.574837
0.603861
0.538688
0.433071
0.60549
0.611702
0.574116
0.527076
0.345183
0.521854
0.259245
0.611706
0.585701
0.501155
0.436323
0.610895
0.61658
0.618235
0.59156
0.588926
0.593024
0.586093
0.615282
0.596851
0.602579
0.568777
0.563636
0.539878
0.533075
0.538392
0.599783
0.577476
0.510113
0.54539
0.508131
0.460555
0.608658
0.600035
0.611217
0.587663
0.559041
0.576923
0.579923
0.605027
0.607049
0.606512
0.591451
0.59177
0.592308
0.591112
0.576238
0.581534
0.591711
0.510129
0.522891
0.516592
0.505307
0.60118
0.602144
0.605067
0.589215
0.585769
0.584891
0.589261
0.514359
0.564637
0.556337
0.491721
0.436044
0.48351
0.442369
0.565792
0.544369
0.482655
0.563611
0.477873
0.524121
0.540464
0.415042
0.457911
0.359418
0.409326
0.495473
0.451911
0.354812
0.550521
0.545371
0.572538
0.571231
0.549083
0.543544
0.573124
0.333449
0.316124
0.421242
0.431483
0.314672
0.330499
0.417965
0.567878
0.565595
0.530357
0.545363
0.538877
0.56165
0.57047
0.557632
0.503464
0.500648
0.462551
0.515946
0.527825
0.546309
0.433084
0.387865
0.474319
0.426808
0.287384
0.33317
0.376835
0.407796
0.267839
0.350807
0.299175
0.311589
0.397833
0.357639
0.502966
0.0543983
0.317715
0.107088
0.34861
0.518472
0.402425
0.340737
0.129663
0.250881
0.0210196
0.169304
0.207551
0.313388
0.0685552
0.0267777
0.516606
0.508252
0.50595
0.475105
0.458477
0.455883
0.472965
0.308226
0.252487
0.249223
0.209612
0.155533
0.153536
0.205844
0.488827
0.511728
0.499913
0.448636
0.456091
0.435034
0.467028
0.397176
0.473839
0.470201
0.306943
0.403971
0.400068
0.30212
0.207886
0.225571
0.223964
0.118244
0.132874
0.132042
0.118241
0.440731
0.380533
0.459988
0.388636
0.257199
0.286697
0.366844
0.197447
0.289057
0.232976
0.143178
0.163619
0.191696
0.120276
0.179005
0.197485
0.210966
0.124305
0.0960016
0.112556
0.104822
0.417076
0.31131
0.393389
0.39084
0.338786
0.309237
0.414888
0.382946
0.395332
0.28581
0.331918
0.30165
0.36751
0.408214
0.210125
0.229164
0.319665
0.31623
0.127873
0.226852
0.206708
0.305384
0.201064
0.172959
0.121038
0.218419
0.195234
0.284231
0.124665
0.0436657
0.0855713
0.0845349
0.0676137
0.12257
0.0431656
0.078884
0.097265
0.0339697
0.0633671
0.114195
0.0403367
0.0662707
0.0594949
0.0332057
0.0695278
0.0690902
0.0266801
0.0329479
0.0594684
0.0649788
0.0257979
0.0479402
0.0251355
0.030869
0.0564904
0.054652
0.000559413
2.48691e-08
8.07451e-07
0.000419483
0.00288528
4.01362e-09
0.000177069
9.2535e-09
0.000276491
1.53915e-06
0.00357166
2.00056e-08
4.43761e-07
0.00222708
5.24481e-11
1.91789e-09
3.92681e-05
0.000218732
0.00350281
0.00184778
0.00180178
0.000662557
0.000641426
0.000261943
0.000273055
1.71557e-07
6.02614e-08
0.000363772
4.20785e-07
1.3213e-07
1.11278e-11
3.676e-12
0.00331117
0.00141007
0.00167415
0.000479866
0.000586097
0.000233014
0.000181211
0.00148676
0.00102941
0.000635108
0.000336721
0.000197025
0.000116976
6.07875e-05
3.93871e-10
0.000233283
1.55489e-05
5.07145e-08
6.33498e-10
1.767e-12
8.22364e-13
0.000851877
0.000146886
0.000331731
3.6317e-05
9.42815e-05
2.53224e-05
8.42813e-06
0.000564591
0.000232092
0.000701417
6.95295e-05
9.82571e-06
1.47188e-05
5.04432e-05
0.000264214
0.000801181
0.000774248
8.14371e-05
1.94854e-05
1.80742e-05
8.62438e-05
5.66337e-05
0.000385962
0.000111797
5.11962e-06
2.96356e-05
1.37108e-05
2.05536e-06
0.00053553
9.73941e-05
0.00011594
0.000108271
9.10723e-05
8.92591e-06
9.95388e-06
1.42701e-06
5.47676e-05
5.17272e-05
1.42909e-05
3.50607e-07
1.53537e-05
3.22793e-07
3.27646e-05
1.17519e-06
4.45029e-05
1.18332e-05
1.73345e-07
8.18131e-06
2.60508e-07
0.000472364
5.16996e-05
6.11988e-05
8.94102e-05
7.53911e-05
6.66471e-06
3.85947e-06
1.96131e-05
1.94402e-07
9.28949e-06
9.15053e-08
4.52061e-06
1.96637e-06
3.79827e-08
7.04377e-06
0.000102452
2.27534e-05
4.88859e-06
1.63447e-07
6.48601e-07
1.36301e-06
0.000120377
2.76878e-05
3.2791e-05
1.31064e-05
1.10729e-05
1.65157e-06
5.19399e-07
1.06423e-06
6.8865e-08
3.49047e-06
6.81759e-07
3.38253e-09
1.89279e-07
1.26041e-08
2.92266e-06
8.40955e-09
4.94093e-07
6.42378e-08
4.49958e-07
3.17716e-06
5.88193e-08
4.90854e-05
7.09988e-07
8.26598e-07
3.80625e-06
3.2274e-06
1.24746e-07
2.45534e-08
2.34518e-06
2.98436e-08
2.19288e-07
6.50003e-09
3.50486e-07
1.54422e-06
4.65244e-08
1.49492e-08
1.0646e-07
8.00835e-07
3.22111e-07
7.12478e-10
4.01932e-08
5.82152e-09
6.5264e-06
1.51514e-07
5.85355e-06
2.77818e-07
7.26015e-09
3.16374e-07
6.37409e-09
1.11395e-05
3.65517e-07
9.95431e-06
3.73685e-07
1.29566e-08
1.12442e-08
4.27872e-07
1.0908e-07
2.54212e-06
4.37366e-06
1.97396e-07
2.41805e-09
1.0678e-07
4.50694e-09
4.21534e-06
2.5353e-07
7.37374e-06
2.6237e-07
4.00345e-09
7.74862e-09
1.39225e-07
1.10105e-06
7.74386e-09
3.54449e-07
9.64151e-10
4.28912e-08
1.2941e-08
2.90512e-10
1.01845e-07
4.65476e-10
2.11112e-10
2.94651e-09
1.20788e-08
2.6214e-08
1.81159e-09
1.77091e-06
1.45582e-08
5.4396e-07
1.52693e-09
5.4563e-08
1.60133e-08
4.3767e-10
1.88368e-09
1.78063e-08
8.71025e-08
3.06677e-09
1.47979e-11
6.17172e-10
6.97184e-11
2.45203e-08
3.3307e-09
1.28002e-07
3.72005e-09
2.01152e-11
1.01659e-10
7.22713e-10
0.179768
0.0018951
2.35536e-05
0.0875496
0.158381
0.0781839
0.0200524
0.0139902
0.00315966
0.00209426
0.137193
0.1732
0.132129
0.0982417
0.0946073
0.0716706
0.0689891
0.121467
0.102498
0.132534
0.0714755
0.0862563
0.0631609
0.05273
0.0217354
0.000417419
0.000620932
0.0181355
3.09636e-06
1.21118e-06
0.00133804
0.0492173
0.0845388
0.0476902
0.0234363
0.0436398
0.0421278
0.0226852
0.0442712
0.037713
0.0664297
0.0387708
0.0175283
0.0325625
0.0209012
0.000274536
0.00363666
0.0143753
5.31662e-07
9.43436e-09
0.000926022
0.000116178
0.0474557
0.0192838
0.0457242
0.0130234
0.0330858
0.0318385
0.0124843
0.0341495
0.017375
0.0415791
0.028966
0.00894744
0.0111937
0.0238308
0.0214066
0.0112426
0.00891883
0.0110307
0.00874629
0.00393201
0.00403317
0.0204518
0.00714402
0.00904095
0.0104168
0.00824897
0.0036456
0.00306283
0.00965069
0.00696165
0.0191684
0.0184665
0.00301925
0.00666456
0.00929801
0.0168187
0.00686401
0.00471641
0.00267574
0.00594937
0.0138312
0.0084329
0.0100606
0.00546352
0.00694222
0.00465324
0.00363475
0.00224254
0.00141119
0.00631694
0.00111883
0.00146798
0.00275455
0.00212827
0.000771501
0.000368963
0.00509584
0.00183224
0.00496859
0.00148371
0.000464095
0.000444234
0.00153295
0.000532772
0.00211129
0.00251698
0.000939592
0.000104214
0.00075392
0.000141227
0.0027916
0.000597114
0.00271889
0.00103829
0.000172596
0.0010739
0.000163841
0.00165919
0.00387091
0.00460737
0.00134798
0.000299317
0.00039107
0.00109224
0.00154106
0.000148572
0.00095929
6.2256e-05
0.000512203
0.000288378
2.88453e-05
0.00283493
0.000543273
0.00178463
0.000190161
0.000756132
0.000439621
9.71413e-05
0.146476
0.0193964
0.0639945
0.134122
0.0106532
0.00124177
0.00167563
0.0330209
0.0125932
0.11512
0.00754515
0.00858038
0.000112034
0.000884566
0.00758348
0.0267626
0.100045
0.145859
0.0993311
0.075795
0.0754228
0.0491786
0.0495918
0.143354
0.0895919
0.0970079
0.0685163
0.0738464
0.0477996
0.043728
0.0890071
0.0752242
0.0580668
0.0565157
0.0441583
0.0362348
0.0267671
0.0409646
0.0625224
0.0246988
0.0385933
0.0303954
0.0178683
0.011066
0.0385326
0.0380538
0.063357
0.0299446
0.0172092
0.0169502
0.0303013
0.0560637
0.0366611
0.0614602
0.0288623
0.0143543
0.0161892
0.026016
0.0124177
0.0342012
0.0339169
0.0210209
0.00721517
0.0212756
0.00708706
0.030143
0.0119052
0.0329409
0.0202342
0.00589101
0.0181969
0.00672144
0.0462436
0.019265
0.0340069
0.0113705
0.0211092
0.0151938
0.00792485
0.0250694
0.00610914
0.0186148
0.0045954
0.0147207
0.010527
0.00313701
0.00219855
0.00386062
0.0124043
0.00671351
0.00100484
0.00389728
0.00188479
0.0141841
0.012535
0.0227019
0.00983657
0.00276605
0.00491316
0.00586221
0.0119136
0.00619592
0.00162891
0.00370475
0.00606595
0.0121117
0.00362336
0.0113375
0.002911
0.00149918
0.00490772
0.00569864
0.00998954
0.00339522
0.00219297
0.00372636
0.00784157
0.00539571
0.000527796
0.00245674
0.00142139
0.00328751
0.000381419
0.000264264
0.000730512
0.00142091
0.00181059
0.000793343
0.000230883
6.61395e-05
0.000509584
0.000135659
2.74684e-06
5.3075e-05
1.02603e-05
0.000474577
0.000272329
0.000977274
0.00021551
1.21563e-05
3.91639e-05
8.88921e-05
0.000302534
6.4519e-05
3.24387e-05
2.77491e-06
6.01271e-05
0.000317031
2.99962e-05
0.000264067
1.58007e-05
2.07363e-06
3.33164e-05
4.93283e-05
0.000199164
2.41566e-05
7.90934e-06
1.7429e-05
0.000123764
6.12414e-05
1.75027e-07
6.7741e-06
2.94857e-06
0.661244
0.641143
0.66458
0.647893
0.548503
0.610146
0.366515
0.422729
0.665042
0.659317
0.658639
0.657784
0.656671
0.64782
0.645532
0.66359
0.651999
0.656834
0.646165
0.653709
0.639366
0.624287
0.618954
0.646086
0.614716
0.570048
0.622755
0.617621
0.564444
0.643528
0.601491
0.639816
0.569141
0.6203
0.614293
0.561157
0.603351
0.628367
0.580775
0.60489
0.518173
0.580456
0.548715
0.608857
0.581661
0.629744
0.599372
0.505697
0.540778
0.572335
0.50209
0.50558
0.573618
0.566734
0.416765
0.49844
0.496314
0.548763
0.446154
0.442442
0.401001
0.479391
0.51568
0.480245
0.558886
0.540435
0.227143
0.247155
0.0661312
0.121085
0.280873
0.30733
0.554182
0.4701
0.490155
0.46645
0.485831
0.388163
0.391342
0.512974
0.429678
0.455338
0.442464
0.472688
0.378502
0.35304
0.179357
0.361985
0.282172
0.245807
0.359412
0.279958
0.178046
0.224027
0.411078
0.324799
0.320324
0.406737
0.304242
0.221042
0.331767
0.241574
0.352117
0.273539
0.161701
0.254733
0.174132
0.364358
0.308854
0.394568
0.295694
0.193913
0.213536
0.272342
0.204939
0.0763911
0.13779
0.202916
0.0754681
0.136051
0.119908
0.197404
0.106961
0.0729484
0.119492
0.131585
0.181552
0.116606
0.474962
0.554129
0.281677
0.336856
0.350835
0.388076
0.155811
0.140319
0.542885
0.501293
0.492425
0.479154
0.467519
0.411532
0.420706
0.516924
0.431105
0.470224
0.394195
0.440121
0.389391
0.34954
0.334473
0.243034
0.425949
0.328426
0.418599
0.329555
0.237467
0.362634
0.313562
0.399801
0.312083
0.198473
0.277953
0.224734
0.376798
0.283483
0.273941
0.227848
0.327559
0.318673
0.220321
0.306285
0.215084
0.252381
0.298462
0.175221
0.204166
0.261877
0.243137
0.0932579
0.159143
0.236573
0.0904427
0.150834
0.154787
0.0843653
0.145288
0.0725863
0.120698
0.126427
0.194078
0.221958
0.469046
0.2624
0.0761977
0.197607
0.016422
0.0848792
0.0540886
0.234701
0.408568
0.385651
0.393495
0.329114
0.325395
0.308178
0.24902
0.337144
0.189943
0.19021
0.25809
0.256894
0.186489
0.130938
0.292942
0.156378
0.239084
0.137272
0.219005
0.171458
0.104851
0.314219
0.179034
0.250963
0.160093
0.230992
0.178624
0.119194
0.126624
0.113041
0.180147
0.12321
0.0478308
0.0831054
0.0730494
0.130474
0.126511
0.186389
0.127347
0.0532488
0.081721
0.0856721
0.0889873
0.0981196
0.152272
0.115029
0.0394477
0.072128
0.0662218
0.0796164
0.0287807
0.0310376
0.0262232
0.0485892
0.052073
0.044953
0.0518466
0.00872551
0.00569874
0.0452559
0.149811
0.038361
0.198982
0.00429407
0.0472354
0.0522992
0.0308474
0.10188
0.0031262
0.000515839
0.0313996
0.00807706
0.236799
0.156953
0.232501
0.153425
0.14727
0.0900581
0.0918949
0.222365
0.126492
0.128316
0.145516
0.14124
0.0857494
0.0758602
0.161582
0.118588
0.10213
0.0727137
0.0739282
0.0602165
0.0427285
0.0943511
0.0504449
0.0919413
0.0509318
0.0273241
0.0266723
0.0520818
0.0858499
0.0446112
0.0845439
0.0489905
0.0250952
0.0246791
0.0498587
0.0805641
0.0313305
0.0303434
0.0480193
0.0492933
0.0278862
0.0173055
0.0428408
0.0728823
0.0812427
0.0467565
0.0207492
0.0414408
0.0235124
0.0865886
0.040752
0.0754624
0.0481703
0.0216223
0.0250395
0.0421379
0.0588096
0.0220567
0.0423562
0.0163495
0.0329004
0.0232539
0.0113969
0.0589614
0.0215857
0.0412757
0.0166096
0.0329559
0.02297
0.0113023
0.0174492
0.0143365
0.0279366
0.0150045
0.00416178
0.00911131
0.00716538
0.0163974
0.0136016
0.0266565
0.0146591
0.00398039
0.00696633
0.0088261
0.0264476
0.0133833
0.0127881
0.00554913
0.0130756
0.0125299
0.0269766
0.0250436
0.00513205
0.0101984
0.0104838
0.0122407
0.0218925
0.0118001
0.00779557
0.00792726
0.0170582
0.0117734
0.00195636
0.0052499
0.00521666
0.00735528
0.00166113
0.00106615
0.00164568
0.00309415
0.00425712
0.00310087
2.35459e-05
1.8797e-07
4.43513e-08
4.30353e-07
1.93844e-06
6.88466e-06
8.3333e-07
0.026108
0.0151922
0.0235999
0.00205244
0.00142872
0.00124987
0.000791441
9.26226e-06
3.33042e-06
0.000980099
0.000121235
0.00342155
0.000501828
3.76659e-05
1.35921e-06
1.76912e-08
0.0253737
0.0130297
0.012676
0.0117263
0.0113571
0.0051117
0.00529059
0.0201018
0.0099444
0.0117614
0.00867711
0.010431
0.00464702
0.00378704
0.010154
0.00740264
0.00632225
0.00481633
0.00400394
0.00266874
0.00161254
0.00613682
0.00144671
0.00278164
0.00112421
0.00223785
0.000849883
0.000397085
0.00576169
0.00197986
0.00559366
0.00189685
0.000579731
0.00197298
0.000553657
0.00434571
0.00118986
0.00417559
0.00160353
0.000395309
0.000372209
0.0016753
0.00178418
0.00425541
0.00513869
0.00169635
0.000370166
0.00134269
0.000485534
0.00299486
0.00104042
0.00374848
0.00142131
0.000225674
0.000315069
0.0011105
0.00305982
0.000571993
0.00188953
0.000234189
0.000909095
0.000519844
0.000118745
0.00205809
0.000259286
0.00121143
0.000131039
0.00073462
0.000404949
6.02712e-05
0.000285731
0.000486432
0.00101638
0.000252048
1.47746e-05
0.000102644
4.75703e-05
0.000273744
0.00010969
0.000619791
0.000185922
5.55738e-06
2.12412e-05
7.04819e-05
0.000493289
0.000111016
8.58774e-05
8.21493e-06
7.92057e-05
0.000519231
0.000103197
0.000426969
5.66943e-05
4.11404e-05
5.98084e-06
6.34292e-05
0.000317922
8.42933e-05
2.96071e-05
2.0401e-05
0.000194048
9.46142e-05
4.06965e-07
7.42467e-06
1.14631e-05
3.62722e-05
6.77867e-07
3.95231e-07
9.38741e-08
1.95299e-06
1.05707e-05
3.21356e-06
9.76378e-09
2.65631e-10
3.50096e-10
9.46632e-12
3.03585e-10
1.11881e-08
2.31488e-10
6.81082e-09
8.53393e-11
1.082e-10
6.37774e-12
2.09269e-10
3.58214e-09
1.61546e-10
3.35804e-11
4.15999e-11
1.39368e-09
4.07721e-10
1.01117e-12
1.27345e-11
1.05821e-11
9.43462e-11
1.33456e-12
1.41432e-12
9.03942e-13
3.55762e-12
1.91388e-11
3.16717e-12
6.48982e-11
3.58747e-06
9.54527e-11
4.44925e-13
5.64248e-09
5.98626e-13
5.84494e-14
4.48225e-13
5.61539e-07
1.20036e-07
1.35959e-07
1.75369e-08
1.59606e-08
3.86702e-09
4.98085e-10
6.35861e-08
1.61362e-10
1.55353e-10
1.84768e-09
1.73202e-09
5.3251e-11
4.99244e-12
2.90715e-09
8.98279e-12
3.87511e-10
2.56628e-12
9.75554e-11
1.29527e-11
5.67605e-13
3.76346e-09
1.2272e-11
4.73262e-10
3.26768e-12
1.11348e-10
1.44167e-11
6.6558e-13
1.56122e-12
4.49898e-12
4.8373e-11
1.82851e-12
3.24608e-13
3.78117e-13
4.76714e-13
1.33433e-12
4.11839e-12
4.17907e-11
1.68189e-12
3.1455e-13
4.51017e-13
3.57621e-13
1.50191e-05
0.00454539
0.00487115
1.67158e-09
0.00055793
0.000199318
0.00952571
0.000234661
0.000941658
8.3971e-06
3.63544e-06
4.57444e-11
1.34139e-09
5.15666e-07
5.14729e-10
0.00142988
3.43749e-05
8.75219e-06
0.00143106
2.02733e-07
0.00761482
9.20412e-06
2.34404e-06
0.00135731
1.71276e-07
2.9564e-08
0.000554324
0.00746543
8.29298e-06
0.00190922
0.00101543
2.38811e-08
1.03699e-06
1.45084e-10
1.03938e-08
0.000298112
0.000727536
0.0887734
0.0128071
0.00258006
0.000164631
0.017426
0.00361205
7.83567e-06
2.78443e-07
3.25415e-08
0.000601802
3.71403e-08
7.4143e-06
5.70979e-11
0.0720826
0.0502163
0.04158
0.0470963
0.039171
0.0210634
0.0247165
0.00752401
0.00755172
0.00487965
0.00174273
0.00176528
0.0010073
0.000993325
3.06914e-08
4.50253e-09
4.78469e-05
7.74418e-06
4.92209e-12
3.94245e-06
4.47787e-11
4.3846e-05
0.00737545
0.00147574
1.89806e-05
2.16012e-08
0.00138099
6.79907e-05
0.00758551
0.0048958
0.0048881
0.00177568
0.00177599
0.00101148
0.00100679
0.0069181
0.00477284
0.00435457
0.00171604
0.00153877
0.000960635
0.000838014
0.000881701
0.00589333
0.00262478
0.0035923
0.00124004
0.000643737
0.000425128
0.0410737
0.0109954
0.0247858
0.0104761
0.0235448
0.0133221
0.00622624
1.07039e-09
0.000912094
2.22144e-05
1.44263e-08
2.49393e-12
0.000102646
1.5859e-07
1.55728e-05
4.79672e-09
2.36319e-11
1.49534e-13
1.11053e-11
5.3973e-09
3.1336e-07
4.63652e-07
0.0058505
0.000271002
4.14825e-05
1.00809e-08
0.00175135
5.44126e-05
0.0262372
0.0111744
0.0223283
0.010616
0.00562944
0.00498757
0.0121736
2.56552e-06
1.61497e-13
1.92379e-11
1.48287e-09
6.24464e-06
6.78477e-07
1.57543e-12
0.0222847
0.008296
0.019029
0.00962468
0.00445096
0.00392043
0.0110425
0.00019098
0.00282923
0.0014428
0.00283893
0.000491372
0.000482201
0.000196731
0.00144275
0.00283274
0.00283932
0.000492907
0.000193293
0.000487399
0.000197417
0.00273148
0.00116873
0.00243189
0.000176217
0.000456524
0.000383703
0.000140608
0.00313415
0.000543716
0.00168281
0.000940372
0.000284727
0.000237767
0.000110386
0.000873631
0.00131739
0.00192199
0.000277314
5.01572e-05
0.000167489
9.33805e-05
0.0054481
0.00564871
0.0120882
0.00635305
0.00121807
0.00260972
0.00306013
0.00739107
0.00657751
0.0140701
0.00701865
0.00165939
0.0033821
0.00341264
0.00362645
0.00463317
0.00433785
0.00212672
0.00190023
0.0025552
0.00102265
0.000462492
0.000185622
0.000452548
4.24372e-05
0.000123589
4.11207e-05
1.19461e-05
0.00211301
0.000601376
0.00108534
0.000465943
0.000903123
0.000408757
0.000173471
0.00021247
9.27328e-06
0.000219431
0.000100039
3.10755e-06
9.62964e-05
3.29912e-06
9.42324e-06
0.000219452
0.000221648
0.000100936
3.2421e-06
9.91058e-05
3.34353e-06
0.000776089
0.000135589
0.000393189
2.17142e-05
8.28876e-05
3.30622e-05
7.49259e-06
0.00454918
0.00191491
0.00221355
0.000633528
0.00168654
0.00196202
0.00514655
0.00518954
0.00239998
0.00245765
0.00213408
0.00218804
0.000790458
0.000899334
0.000599631
5.6629e-05
0.000611039
0.000205896
5.94301e-05
1.28628e-05
1.19889e-05
0.000205727
6.50581e-06
0.00017349
2.86433e-06
9.0841e-05
7.34064e-05
2.16545e-06
0.00061155
0.000201062
0.000206406
5.76605e-05
5.97589e-05
1.29687e-05
1.23065e-05
0.000546467
0.000340408
0.000251051
0.000179007
0.000123294
7.38918e-05
2.81851e-05
0.000460701
0.00018119
0.000142093
5.06274e-05
3.79059e-05
1.03301e-05
7.1402e-06
6.86005e-10
0.000670006
1.45534e-06
9.77303e-10
2.8975e-13
1.73219e-06
2.07691e-09
7.85362e-05
4.29381e-06
0.000126835
5.00503e-05
6.69779e-07
2.79077e-05
1.34318e-06
0.00275263
0.000550837
0.00115711
0.000618682
0.00136145
0.000484825
0.0001911
0.00225552
0.000288495
0.000844214
0.000410239
0.00117776
0.000391829
0.000112874
0.00306454
0.000402046
0.00049112
0.000603448
0.00110811
0.0013124
0.00147644
0.0035329
0.000680289
0.000709968
0.00144326
0.00148748
0.000514452
0.000222179
3.30476e-13
2.77076e-05
1.4048e-08
8.94465e-12
2.03348e-13
1.29156e-08
2.29884e-12
0.000188485
9.20947e-05
0.000323545
1.10329e-05
2.30573e-05
3.87226e-06
1.6268e-06
6.09741e-05
5.09744e-05
0.000170307
1.05219e-05
4.28086e-07
1.98465e-06
2.59331e-06
5.90663e-08
2.30213e-11
2.99575e-13
2.8348e-12
1.03895e-13
2.47514e-14
4.1664e-13
9.07638e-06
1.95638e-07
8.74e-07
3.60828e-05
2.10555e-07
9.34613e-07
9.67676e-06
3.63951e-05
2.12955e-07
9.35265e-06
9.07522e-07
3.53344e-05
9.45829e-07
9.76952e-06
4.01593e-05
3.64267e-07
1.63339e-05
2.66924e-07
1.24388e-05
4.37559e-06
8.65057e-08
6.21422e-05
0.000177242
5.39905e-05
1.11455e-05
2.67137e-06
2.16235e-06
4.51419e-07
8.03265e-06
7.80716e-07
3.14072e-05
2.39398e-05
1.20047e-07
5.62891e-07
5.7936e-06
0.000272083
2.29006e-05
7.57969e-05
1.31415e-05
4.80699e-05
8.19284e-06
1.50266e-06
0.000839311
0.000199904
0.000735384
0.000228656
5.85233e-05
4.72608e-05
0.000266364
1.49163e-05
1.53156e-07
6.71028e-08
1.54443e-06
7.41433e-06
3.27536e-07
3.3601e-06
7.99322e-05
0.000119689
0.000307718
0.000119774
3.54359e-06
2.43279e-05
3.45539e-05
0.000192056
0.000223611
0.000496784
0.000159649
1.16013e-05
5.14705e-05
5.26075e-05
0.000902261
0.000233222
0.000793755
0.000240051
6.78821e-05
5.56033e-05
0.000278803
3.55871e-05
1.96696e-05
9.07015e-05
4.08068e-06
1.18811e-06
5.37838e-07
1.41217e-07
0.00015114
0.000194287
0.000527268
0.000154526
7.57068e-06
3.54508e-05
4.96727e-05
0.000214724
0.000226327
0.000240459
6.05667e-05
6.57949e-05
6.52782e-05
1.38366e-05
4.14379e-13
1.21372e-08
1.00804e-11
5.52632e-13
5.78878e-14
2.01033e-10
6.24319e-12
1.27864e-06
1.02136e-07
5.15133e-06
1.23484e-06
5.25458e-09
2.31472e-08
2.88062e-07
5.11989e-05
4.85008e-05
7.18486e-06
1.64725e-06
1.63252e-07
1.80399e-06
1.81181e-07
4.93758e-05
7.91432e-06
5.14721e-05
1.82359e-06
1.69646e-07
1.83431e-07
1.70361e-06
0.000103433
5.92437e-06
4.30915e-05
1.7356e-06
1.53333e-05
3.70216e-06
2.28625e-07
0.000118606
0.000200969
0.000473898
0.000139032
6.15351e-06
2.39125e-05
5.16335e-05
0.000143186
0.000225508
0.000518464
0.000147865
8.06386e-06
2.92129e-05
5.6312e-05
4.44466e-05
6.41596e-07
1.49664e-05
3.40978e-07
8.558e-06
1.77532e-06
4.52039e-08
3.39177e-06
3.32823e-06
1.67484e-05
7.36084e-08
4.98558e-07
7.52425e-08
1.00389e-08
3.08537e-05
6.0237e-06
4.26384e-05
1.33398e-07
1.37667e-06
8.98349e-07
8.31799e-08
2.71701e-06
1.18648e-05
1.67962e-06
3.45807e-08
3.12544e-07
5.8738e-08
6.01319e-09
2.93014e-07
1.52282e-06
1.09909e-05
5.49663e-08
2.81731e-07
3.08544e-08
5.58855e-09
0.0170006
0.00178839
3.94148e-05
0.0873664
0.0105897
0.00303942
0.0129215
0.000850212
0.00366336
0.000210415
0.0703886
0.0474776
0.0500875
0.0413377
0.0393191
0.0215572
0.0252884
0.00750069
0.00121978
0.000219493
0.00151634
6.16054e-05
7.66452e-05
6.31512e-08
0.039743
0.0105381
0.010956
0.0245431
0.0234997
0.0136326
0.00642695
0.00127853
3.76937e-06
3.47767e-08
6.03378e-05
3.17126e-10
6.96486e-09
2.02424e-10
0.0234119
0.00927432
0.0200115
0.0103007
0.00504591
0.0044803
0.0117706
0.026429
0.0112786
0.0224817
0.0109774
0.00581338
0.00516013
0.0125618
0.00396424
0.00456015
0.00475793
0.00231596
0.00219631
0.00274217
0.0011975
0.00602748
0.00618439
0.0127316
0.00685496
0.00150491
0.00305182
0.0033764
0.00664972
0.00746762
0.0141582
0.00728418
0.00175311
0.00352042
0.00358338
0.00251785
0.000707798
0.000771185
0.00128256
0.00119667
0.000543451
0.000257625
0.00492046
0.00221127
0.00239243
0.000747347
0.00213061
0.00196748
0.00553957
0.00081773
0.000419971
0.00046324
0.000255113
0.000229684
0.000125171
5.5889e-05
0.0025493
0.000437015
0.00108514
0.000561677
0.00138563
0.000519383
0.000173601
0.00284052
0.000580434
0.00124855
0.000676693
0.00148564
0.000569458
0.000219753
0.00335848
0.000628161
0.000486527
0.000691873
0.00144904
0.00133188
0.00167025
0.000173055
3.33442e-05
0.000117482
0.000103114
0.000425241
1.88388e-05
4.15394e-06
5.01759e-05
0.000475315
0.000147814
0.0001837
1.08704e-05
4.75141e-05
6.63438e-05
0.000272474
0.000208951
0.000571588
0.000205972
1.62157e-05
6.26788e-05
7.60207e-05
0.000209337
0.000234462
0.000639577
0.000204859
1.29272e-05
6.41265e-05
5.59982e-05
4.39687e-05
0.000103705
1.51022e-05
1.67379e-06
2.20383e-05
5.9953e-06
2.31172e-07
7.47308e-06
2.6625e-05
0.000133393
2.89389e-06
2.65598e-05
7.50533e-06
4.03969e-07
5.79394e-08
5.65562e-07
2.95085e-06
9.50885e-07
2.94666e-09
1.78508e-08
1.65215e-07
1.82474e-06
3.59266e-08
5.15377e-09
3.89256e-08
1.96716e-06
3.04271e-07
5.63843e-09
3.93335e-08
1.88214e-06
1.98673e-06
3.07595e-07
5.33346e-09
2.88088e-07
5.69904e-09
1.57364e-06
2.06905e-08
1.08555e-06
4.30866e-09
2.33844e-07
1.53669e-07
2.8005e-09
7.55294e-07
1.97824e-06
1.76266e-05
4.53373e-07
1.44802e-08
1.75144e-07
3.9636e-08
4.30549e-06
4.53782e-06
2.10234e-06
3.91977e-07
1.70297e-07
1.56588e-07
1.0503e-08
4.20014e-09
9.49358e-08
7.17842e-07
2.90838e-06
1.41129e-05
1.21588e-06
1.62504e-07
5.91272e-08
2.11138e-07
1.56715e-06
4.64746e-06
2.06423e-05
1.57971e-06
2.12891e-07
1.09312e-08
2.50095e-07
5.91251e-07
7.86972e-08
5.53674e-10
3.13694e-08
1.41254e-09
3.85101e-05
5.70635e-07
3.60108e-07
8.1514e-07
5.16684e-06
8.78091e-06
7.27091e-06
1.10973e-07
6.10445e-07
3.81059e-06
3.12071e-07
8.97762e-10
7.11511e-09
4.08191e-08
1.18741e-06
2.81808e-06
1.37149e-05
6.90556e-07
4.07967e-09
3.37717e-08
9.12643e-08
5.44806e-05
8.4305e-06
9.4622e-06
2.89121e-07
6.10183e-06
6.9148e-06
6.66792e-05
1.50328e-05
1.39692e-05
6.02302e-05
1.36565e-06
1.20927e-05
1.48035e-06
6.74602e-08
1.6892e-06
1.26275e-06
1.37351e-06
1.36003e-05
1.11483e-05
5.79975e-05
1.45752e-05
5.70109e-05
7.98235e-07
1.12029e-05
7.21311e-07
1.13351e-05
1.25213e-06
3.63857e-08
2.4722e-07
8.10588e-09
9.64457e-10
6.96978e-10
4.44553e-09
3.92541e-08
5.33329e-08
2.6505e-07
1.00487e-09
5.53538e-08
7.74857e-10
4.33551e-08
8.57806e-09
1.53864e-10
5.2737e-08
2.60359e-06
2.24127e-07
4.14722e-09
5.30088e-08
1.29483e-08
9.72133e-10
1.45082e-05
6.70502e-05
1.23739e-05
1.065e-06
1.28567e-05
1.52161e-06
5.76155e-08
2.84011e-05
8.14639e-08
3.59425e-07
4.3613e-07
2.29497e-06
2.67635e-06
7.71598e-06
5.9859e-08
4.59425e-08
4.59589e-07
8.91438e-09
9.95822e-11
8.52305e-10
1.10824e-09
8.35246e-08
3.99723e-10
2.26516e-08
1.72876e-10
9.92512e-09
2.52539e-09
4.44989e-11
4.44758e-07
4.40676e-08
8.59991e-09
5.28114e-09
1.0923e-09
8.1506e-10
9.7209e-11
2.14004e-08
5.01428e-08
8.87201e-07
1.14963e-07
1.19166e-10
2.51391e-09
5.43765e-09
3.49409e-07
1.19586e-07
2.56121e-06
8.96012e-08
9.24986e-09
3.15164e-09
3.16287e-10
1.21601e-08
3.05953e-09
1.17971e-07
9.30579e-09
8.60872e-08
2.51776e-06
3.51325e-07
1.04993e-08
2.48001e-08
1.45474e-07
2.72374e-09
3.1565e-11
1.95733e-10
4.60375e-10
3.04353e-09
5.51205e-11
5.88232e-10
3.58414e-08
6.13361e-11
3.37933e-09
6.50147e-10
3.62493e-08
6.18147e-11
6.08166e-10
3.16198e-09
3.41988e-09
3.3727e-08
6.54764e-10
8.91374e-10
3.12361e-07
2.08336e-08
3.57898e-10
8.1919e-09
5.32256e-10
2.3565e-11
3.22156e-07
7.75885e-10
2.01268e-08
3.4942e-10
8.75946e-09
5.24315e-10
2.14076e-11
6.07389e-08
9.33045e-11
4.12057e-09
8.24345e-11
3.72861e-09
2.48938e-10
5.84307e-12
4.82823e-10
2.47507e-09
2.68878e-08
1.71249e-08
2.76314e-11
1.52696e-09
3.04346e-10
1.34008e-09
1.6918e-10
9.52672e-09
1.37113e-09
3.28165e-12
1.80453e-10
2.42742e-11
8.38598e-09
5.58108e-11
2.58071e-10
1.30504e-11
3.16303e-09
7.17395e-10
1.48017e-10
1.01087e-10
6.26496e-10
5.80765e-09
1.06903e-09
2.17416e-12
1.08371e-10
2.05614e-11
9.97276e-10
8.96548e-11
5.1801e-09
5.54684e-10
2.03712e-12
9.76004e-12
1.00301e-10
7.60823e-08
6.49915e-08
1.61269e-06
6.79716e-08
5.90579e-11
1.88798e-09
2.14925e-09
1.69797e-09
6.06327e-09
5.11153e-08
1.57616e-10
1.3107e-09
4.50404e-11
5.71944e-12
5.75267e-12
4.56853e-11
1.70929e-09
1.33781e-09
1.60199e-10
5.18851e-08
6.15389e-09
6.14128e-09
4.03656e-11
5.10254e-10
9.65462e-12
1.12681e-10
9.55685e-12
9.03855e-13
1.73811e-08
1.79157e-11
4.84306e-11
9.73732e-11
3.8198e-10
7.93885e-10
2.14687e-09
2.61583e-08
3.24078e-08
9.92471e-07
5.26712e-08
3.10289e-11
1.13936e-09
1.41402e-09
3.09595e-08
4.42058e-08
1.05588e-06
5.30029e-08
3.74538e-11
1.18502e-09
1.66793e-09
0.000307625
0.000552309
4.10741e-05
1.1442e-08
2.1935e-07
4.17988e-11
4.45442e-10
4.1808e-12
0.000450014
3.56104e-05
4.88205e-05
0.000136559
0.000177649
9.8103e-06
6.5469e-06
0.000171226
9.29649e-06
2.07574e-05
4.18389e-05
1.32988e-06
8.52994e-05
3.37755e-06
5.66876e-06
1.29239e-06
1.24171e-07
2.87945e-05
3.56445e-06
8.11525e-07
7.42719e-08
6.02889e-07
1.40055e-07
6.40911e-06
1.5666e-05
1.69245e-06
3.88426e-07
3.35207e-08
1.48507e-06
2.88261e-08
4.0373e-09
9.89866e-07
1.87312e-08
1.38831e-07
2.52467e-09
2.53061e-08
3.64848e-09
2.03504e-07
5.13407e-07
9.4198e-09
6.76444e-08
1.21047e-09
0.0563811
0.00104854
0.00122067
0.0142673
0.0139014
0.00739128
0.000117957
0.000341001
0.0259435
0.0529134
0.0239754
0.033851
0.0313706
0.01458
0.0132433
0.032897
0.0445495
0.0197856
0.0259019
0.0186458
0.0106356
0.00738251
0.0189442
0.00323853
0.00962721
0.0172659
0.00856738
0.00654678
0.00278047
0.00250266
0.00124812
0.00286511
0.00494788
0.00988195
0.00889331
0.00435141
0.00968517
0.00665087
0.00440738
0.00506025
0.00127618
0.00333924
0.0020528
0.000436753
0.0007465
0.00190006
0.00485826
0.00706987
0.00334149
0.00219268
0.00473047
0.0011525
0.000843231
0.00349889
2.36483e-05
1.2773e-06
2.98278e-05
7.59624e-06
0.00732801
0.00429059
0.0067443
0.00166182
0.00146929
0.000937281
0.00080662
0.00569751
0.00250148
0.00432802
0.000807451
0.0011643
0.000606946
0.000387656
0.00135099
0.000134197
0.000171779
0.00272016
0.00240621
0.000446795
0.000369754
0.0948392
0.0152472
0.0133285
0.00568498
0.125205
0.0855454
0.1269
0.0222855
0.180186
0.127023
0.231284
0.224853
0.174191
0.122912
0.0910957
0.175613
0.0928428
0.0643716
0.20661
0.156262
0.111533
0.0807234
0.0839511
0.13059
0.0884613
0.0427987
0.0659383
0.0401284
0.0626388
0.0544792
0.109645
0.0719929
0.0338737
0.0251718
0.0415497
0.0541366
0.0574829
0.0601386
0.0237572
0.0432822
0.0162444
0.0150627
0.0410006
0.0417046
0.0193453
0.0512167
0.0127077
0.00954445
0.0277975
0.035645
0.0176875
0.0288344
0.0101137
0.0162462
0.00508148
0.00921987
0.0269414
0.00401706
0.00955181
0.00274651
0.00752947
0.00539072
0.0170213
0.022774
0.00051584
0.00124582
0.00187253
4.37304e-05
0.000150247
8.59596e-05
0.000260221
0.000430333
0.00217527
0.000797367
0.00011039
8.17008e-05
0.00186208
0.000648061
2.10191e-05
0.00083711
0.000240657
0.000223555
4.77292e-05
0.00136721
0.000438052
0.000194252
5.75335e-06
0.000159669
2.65787e-06
8.62754e-05
6.79213e-05
1.94073e-06
6.74078e-05
5.45423e-07
1.90751e-06
3.66033e-06
0.000113284
4.4665e-05
1.15475e-06
7.59238e-06
1.60408e-07
7.28745e-07
5.30128e-06
1.08594e-07
2.20607e-05
5.07027e-07
6.17744e-06
2.94174e-06
1.24965e-07
2.41431e-08
5.80517e-08
1.31666e-05
2.82096e-07
0.330594
0.155246
0.0226826
0.101806
0.391707
0.152962
0.101276
0.0225736
0.231539
0.393654
0.289824
0.396603
0.330921
0.291693
0.231671
0.396225
0.329735
0.33072
0.288777
0.29151
0.231504
0.231058
0.0909414
0.241918
0.155427
0.153544
0.240446
0.154531
0.0901081
0.152606
0.240076
0.239732
0.154102
0.089827
0.154433
0.0896356
0.572467
0.421779
0.562233
0.468876
0.291492
0.570767
0.529024
0.46393
0.281697
0.490287
0.198808
0.119535
0.47996
0.416729
0.192962
0.119197
0.45002
0.494401