/*--------------------------------*- C++ -*----------------------------------*\
  =========                 |
  \\      /  F ield         | OpenFOAM: The Open Source CFD Toolbox
   \\    /   O peration     | Website:  https://openfoam.org
    \\  /    A nd           | Version:  9
     \\/     M anipulation  |
\*---------------------------------------------------------------------------*/
FoamFile
{
    format      ascii;
    class       volScalarField;
    location    "0.0014";
    object      overpressure;
}
// * * * * * * * * * * * * * * * * * * * * * * * * * * * * * * * * * * * * * //

dimensions      [1 -1 -2 0 0 0 0];

internalField   nonuniform List<scalar> 
11022
(
-23545.2
106836
17538.3
54971.9
193625
-27540.6
-18808.5
3236.83
138701
226125
92734
226878
72329.2
88524.4
205101
204424
-13870
23988.7
11554.8
33206.6
99803.9
26040
107876
61921.4
88936.2
86488.6
162826
161875
167041
161713
101692
89927.4
96148.3
151642
155340
151632
145941
-1930.87
76101.3
48559.1
47648.3
129672
119548
65351.9
-26114.5
-29932.6
-27606.3
-6102.94
-16336.7
-9979.12
-14427.5
88702.2
85491.1
87409.6
149867
159378
155155
147370
-19023.7
-13277.5
-22462.7
2100.5
-3825.75
14288.2
-10582
89299.3
92279.1
90424.2
146099
135746
141190
140933
86244.9
164475
196420
91457.8
196598
141060
165217
232351
208403
244667
231130
201442
203502
242472
35375
69780.4
24358.6
29031
39419.6
74006.2
6379.95
241364
229617
193318
200585
228882
239462
190850
37621.3
20990.7
90210.6
45809.5
80639.9
49095.6
12223.1
99006.8
163321
148169
194525
143286
164717
108540
188280
227187
193173
193751
238942
238217
190939
191556
234738
181478
226019
235064
184117
187929
96741.4
419671
281977
365842
227653
78069.1
224963
260161
346597
265821
532669
274265
267409
261968
395604
490826
81876.2
122298
125633
129535
180017
182964
132880
262330
283335
283471
295777
327858
330468
297805
139898
87787.5
131115
188442
147375
197482
138436
225314
182289
183591
256647
224274
225588
257916
266583
278676
279039
312226
325792
328640
314985
189489
225466
185212
228471
264892
260364
234018
289286
262787
284587
335470
307163
301383
343802
284938
269134
280253
334005
329120
320117
343037
190780
313400
244244
246828
263623
316712
193812
252544
209196
333954
270644
323361
262153
199572
294778
327555
270811
272807
349877
330399
297177
277302
346185
308749
356268
336513
301742
284867
336696
468923
386890
391584
400192
340212
475250
399529
354435
502674
408157
346089
486111
411440
378607
496371
393842
398441
496434
502404
382724
406823
535100
403751
509183
514438
390493
420267
472749
556.657
2981.35
338218
417926
71.7565
250916
135.63
296448
4804.28
429908
294.895
2032.89
409356
4.30562
44.4247
158025
278711
427415
411681
408002
300341
295597
233126
239059
2336.96
1020.54
433128
5273.34
2122.91
1.12504
0.467319
423559
391090
401457
269056
285532
220071
198354
395318
375393
351840
244930
210660
167248
127619
31.0289
399373
166864
1089.27
50.1457
0.282978
0.157787
372866
266146
317192
108486
163611
84206.5
44599
338913
275079
355380
130195
36427.7
49691
108452
289684
370241
365309
144447
63515.4
59068.8
151122
164553
314319
214302
22900.5
81463.4
52668.2
12409.9
466563
286594
312252
300858
275382
64429.6
71801.3
4490.66
82791.1
78741.8
34406.2
1773.96
37143.9
1639.83
57643.2
3855.65
70291.1
28958.3
1022.06
21777.9
1371.63
454288
211111
236021
276404
250750
50318.9
32725.6
41937.7
1214.12
25781.4
674.2
14429.1
8480.67
392.659
55413.7
227385
107526
26774.4
2488.85
5952.18
11242.3
347480
157275
179237
112182
95783.8
17475.8
7857.31
6471.26
638.695
13706.9
4472.26
85.0343
2003.14
198.469
10558.8
124.103
3093.1
533.89
2833.67
11472.4
492.174
270316
13882.3
16294.3
51006.3
42850.7
2984.94
920.374
8771.24
298.382
1646.39
100.849
2310.51
6510.1
407.665
190.744
1022.91
4290.39
2446.28
23.8343
555.459
105.135
48094.8
2073.57
42904.3
3598.11
196.095
4072.18
173.357
79308.1
4627.79
70957
4713.72
331.471
290.494
5351.84
1580.87
21460.9
33059.2
2714.19
82.5754
1714.72
130.62
35812.5
3445.44
55177.2
3535.93
131.956
214.757
2201.4
11730.7
254.789
5484.81
43.6573
909.344
405.555
19.2742
1178.68
20.7748
10.9871
105.2
262.73
493.965
50.2111
18844.8
469.761
8300.76
67.5034
1142.46
498.782
28.7572
97.0614
680.062
2123.35
149.82
2.21985
46.4203
7.10191
938.133
167.774
3098.95
180.594
3.05583
10.2217
54.4729
241750
518353
151092
209883
246993
218490
469173
506278
466678
466017
215888
243014
218273
287690
290380
263537
266566
223589
231663
254263
305241
296028
272557
281829
271182
366571
403272
294437
22892.9
10472.2
511189
224952
212761
228075
283018
261495
264920
286915
234079
243117
227025
271537
309107
282134
295113
337556
426007
312821
5964.96
384.909
504111
392706
351367
474330
355069
453113
331857
336204
456856
376072
486116
362766
345401
478410
465215
361337
274734
344580
394980
348773
398731
482760
481680
282182
423604
376107
358676
408012
487170
494099
388029
453269
345749
350678
466168
455124
392764
361353
419343
467846
466520
460038
379220
403187
338894
445132
402513
437628
470599
501337
504195
375919
506713
510825
477450
494587
496550
470577
453975
516299
457258
504554
446937
440198
508014
385765
483769
485154
461428
241404
447656
272384
487997
397407
486231
469536
299284
474007
290810
514436
480817
466239
500119
402905
426386
493329
479722
294719
468519
196097
425723
391840
138945
497598
486843
512761
366525
480280
455650
312151
139885
278561
190948
154557
414990
433860
453695
243446
404326
164286
401402
424593
298130
417883
335508
256479
163345
142357
166123
192444
195202
223687
220656
147300
179183
171476
208698
200648
229594
238599
176324
189358
219729
201876
233935
251525
269317
208040
190735
236735
217302
252558
293851
327463
224864
228014
193921
262107
314941
318699
258652
207812
234150
199569
269216
341410
327144
280592
405238
278922
282232
329443
437191
326154
437076
300405
408504
289132
336824
443007
349264
438829
218852
274084
232704
362741
297361
320494
391948
316975
436331
339416
448654
367399
390590
453030
453214
447658
368085
417524
438329
447164
451821
275568
299475
250846
352235
467395
427944
394158
387736
445704
449906
460431
446765
384985
458749
394460
455755
443765
459613
451260
406011
457397
452077
470391
422152
442189
392745
479825
442682
464092
389115
354937
469822
481942
480443
423033
401728
232599
444071
340710
33411.1
263756
80212.8
505307
452405
518222
414051
135595
232912
347483
382133
222636
134989
20392.7
211669
389660
126083
366009
81550.4
15781.4
152270
188294
338746
107758
51929.9
106573
297885
238064
2875.03
60344.6
26270.3
-97426.3
-70351.2
-99918.5
-86544.2
42149.1
-7561.46
58862.6
48780.1
-100015
-98678.8
-97837.5
-97853.6
-96188.3
-85249.6
-79059.3
-99527.7
-85732.8
-95132.3
-71753.9
-89643.1
-65528.8
-45290.8
-46574.4
-81543.4
-38919.9
-1430.25
-47322.2
-39228.2
3681.39
-74849.9
5789.67
-63146.2
19854.3
-39002
-30108.1
24879.2
-27240.1
-52558.3
-13445
-27349.8
10474.7
-12433.1
6043.66
-15603.9
24171.9
-42219.4
-16564
36763.6
29355.4
464.262
24431.4
34409.4
3387.94
8078.1
51015.8
36504
27281.8
10718.6
33122.2
42361.4
54128
38485.1
15955.3
29817.7
941.337
8993.8
110120
97152.2
188536
143677
82161.6
72407.6
5810.66
30391.2
23691.8
33761.3
27350.7
52749.3
49895.5
13783.6
40476.4
36568.1
33360.4
29856.7
56118.8
60875
118885
61220
81467.1
99211.4
63008
83500.6
121283
97814
45336.2
70264.8
72293.7
48330.3
74645.1
99998.5
72091.8
103688
66801.7
87795.7
133319
93981.4
126251
56131
76524.2
51727.6
78834.4
111187
104722
84626.7
104815
172311
131561
107115
175188
134082
146338
111944
159007
180659
146308
139142
118756
151573
82847
72716.5
87906.6
93655.2
161054
161276
167227
174876
74506.2
60301.9
62198.4
121780
120613
98045.9
96732.7
77768.7
71077.2
65390.5
122896
120326
101707
108462
76025.6
106413
62466
77849.7
64006
95240.9
108239
72975.8
81633.8
66998.8
99476.2
120301
106888
112942
160635
201265
201036
173969
133975
135454
175674
164777
208683
203104
139633
188246
180490
147165
128649
180474
141217
130392
183119
169515
143445
188604
148709
196702
182821
156552
143324
135471
19533.2
53829.7
159152
118892
249955
130135
199068
90516.9
28075.7
46780.7
39997.1
49460.8
56125.7
68374.9
78642.4
39467.3
83077.4
76952.3
61921.8
68393.6
91315.8
106151
79611.1
130147
90035
142533
102497
113347
153864
63724.5
101299
74103.9
120041
92991.8
103614
130946
118126
143573
103017
126396
183851
141558
167499
102264
114595
87160.3
116453
160377
144287
131537
168716
155838
127774
138822
212102
167437
180554
152157
213210
199304
228657
181726
168128
195149
203816
301769
430504
206705
126469
224441
110809
465198
212525
161493
236381
152560
487358
515543
232842
298999
97606.4
128494
99551.1
130688
128768
161513
158972
104257
140710
142885
135659
133748
166710
174235
119880
131197
150084
164546
161682
184376
197098
163607
206766
166158
199198
242512
245997
196286
162174
209834
164876
200828
250917
254337
197854
144949
193737
197426
179315
176069
213142
233541
215743
177817
170190
206571
271700
215017
261111
171444
221157
179243
204866
263157
252763
213275
188040
251867
200740
287051
226531
241515
308977
189555
248379
202516
277924
224709
239751
299103
237218
272707
216792
261441
389431
288313
341744
240091
269425
218969
259870
379593
331324
287127
245851
306857
316517
434936
311078
320706
242451
252544
446419
346744
336747
320457
262859
330258
372258
362055
277396
297834
508852
398683
408601
328116
501580
522027
495961
447260
374626
455587
160287
3988.12
1142.24
8530.8
25251.6
81642.2
10966.9
253932
291572
264391
515771
512931
464516
438975
66169.8
28356.4
508021
400927
406005
415233
228459
14716
719.314
257468
311279
315994
335467
340417
437238
433137
275357
343404
326139
370404
351485
447560
463557
316408
369764
397920
407660
432482
482215
497754
353637
496456
454372
492888
468299
499834
480531
423502
514423
428208
506836
473674
508451
467280
450606
460334
452872
490807
405316
397189
493633
514081
459419
440178
505845
433524
503486
454910
468817
452887
459353
487325
352113
380450
481369
482398
492836
504458
398975
496830
478059
345428
477687
377531
480247
308255
467710
440145
244146
460054
507353
516357
440277
161725
375816
266318
429920
318367
467063
393540
73231.3
157858
319252
444989
302446
259888
58763.9
247376
451962
290775
430889
223509
178743
44855
220567
406666
265277
166277
124733
368487
310493
6479.03
68820.9
100357
226630
13617.7
8379.8
2379.23
27109.9
125283
43654.7
253.362
14.2554
18.316
0.977219
16.0558
287.991
12.5468
188.837
5.83525
7.29713
0.711644
11.8652
117.417
9.34615
3.02552
3.71693
60.7894
26.2004
0.180798
1.63146
1.35962
9.06876
0.27374
0.303529
0.178053
0.639975
2.80658
0.563646
8.34637
67524.7
12.66
0.190578
491.092
0.16068
0.0302509
0.171861
16122
3824.24
4360.78
967.497
866.719
240.798
54.2054
3132.49
28.1031
26.407
181.317
166.773
10.1842
1.62113
182.863
1.95399
42.2562
0.62119
12.0852
2.7696
0.184147
241.674
2.85186
53.6497
0.81959
13.9891
3.13463
0.232697
0.577021
1.51457
9.49702
0.641826
0.12159
0.150501
0.195527
0.45605
1.31523
7.86926
0.577179
0.112395
0.183067
0.134101
103329
424207
429116
109.848
340738
264829
582467
791480
851794
347741
95363.7
14.7503
152.956
9143.18
56.6116
395849
60917.4
14191.8
398172
1196.03
427564
14963.6
6032.54
391849
1026.83
327.102
342566
426277
13523.3
408326
385195
351.56
3766.96
9.49477
171.145
308243
819146
378611
523078
692530
802936
426231
597032
42208.8
1983.62
422.355
350294
361.526
39408.7
3.21377
405995
423835
447044
437777
461399
503082
483766
427320
428819
431085
351024
354396
324451
320258
306.245
86.3547
148854
45635.2
0.570497
22706.1
2.60724
667895
467845
707323
408523
2785.22
714173
722892
428859
429984
431415
353617
355366
325567
323228
425502
427893
425540
348600
340277
316563
305127
309051
425026
415116
421950
327666
287965
263198
410978
475605
457169
493905
472330
518652
547486
178.703
683774
409006
894.165
1.03977
429957
7322.96
106513
115.508
2.64936
0.0528401
1.44392
324.494
5926.25
25714.5
584042
815059
602674
1304.59
693302
678170
471737
541160
491299
551782
595317
612256
534805
29692
0.0452291
2.12302
42.8994
49606.8
8687.94
0.26781
502987
596240
520956
569374
650858
668983
554535
206345
421265
400174
424399
279350
273879
213363
401109
422966
425071
280664
210143
277305
214864
418907
381632
412938
198416
268458
253281
178538
419846
282008
402381
380379
243607
228263
178821
365920
389524
403871
230547
114435
197624
150172
623076
572281
537539
590448
795297
709883
643177
560126
531183
506147
571243
713070
641301
612996
554846
527233
556939
645382
703855
632487
821619
346735
290962
345120
120432
189093
118149
61027
660890
816724
789168
818646
839489
895475
784435
155147
15204.2
160358
112314
7206.7
107339
7728.42
15525.6
159220
161928
113661
7556.55
110738
7873.63
367205
258103
333191
75881.3
153436
102249
40181
633805
748440
711834
821087
766300
733504
617143
601766
686566
675840
708693
698145
812358
802140
347333
118151
353193
272979
125164
47778
43345.5
151581
11274.6
138299
6768.38
103152
90668.8
5568.03
354342
268616
274489
121515
126575
48637.1
45302.8
591316
707070
662240
541405
476712
552909
306149
324640
254755
230929
109846
91729.1
38113.9
28150.3
171.625
850496
130830
233.308
0.233291
132056
468.773
95604.9
8628.08
119336
73870.7
2757.98
54007.2
4155.7
601677
895266
771571
868328
741718
909279
904386
683818
889974
872073
890646
795956
912374
816545
667486
826406
854720
847615
802296
776828
749745
628552
834383
826613
754382
743222
834876
850729
0.207903
309347
1162.42
2.95913
0.122833
1050.07
1.03998
265224
195334
300385
44348.5
69009.8
18181
10218.5
206001
186062
282031
54756.9
5466.31
15933.3
20443.9
1903.87
4.78936
0.0973465
0.576063
0.0431388
0.0147168
0.179789
24159.8
1142.4
3211.48
64750.4
1247.7
3469.33
26346.5
65704.6
1270.65
25285.5
3360.97
63193.6
3532.18
26840.6
68821.4
2002.58
41395.2
1577.92
33124.1
16803.2
784.274
208192
286025
192464
57457
21003
17239.9
5706.51
21789.2
2949.54
56966.8
46960.1
789.693
2332
16809.3
508417
277737
410932
196020
337864
142843
43138
810459
771165
817835
795551
611103
564360
810994
34242.9
1020.74
540.743
7098.57
21706.6
1638.98
11540.5
737670
716020
879477
822388
163636
554489
563484
895696
823514
889997
870936
410381
752915
664246
799885
801301
810733
804081
651898
608868
817283
148193
96612.2
214565
22865.3
9963.07
5114.07
2194.96
838105
877947
886678
874915
353371
650803
740391
918054
895812
901783
791976
813974
773879
521870
0.259028
973.596
3.35962
0.247726
0.0395144
36.89
2.23058
7649.47
898.441
19264.5
7418.98
124.885
340.734
2910.18
149788
140366
37474.7
9303.52
1693.6
10403.9
1911.52
144427
43105.9
151530
10617.6
1783.25
1951.95
9766.44
624694
137925
389103
77838.1
323099
89626.2
9445.02
720545
837012
834422
757351
250713
452155
660188
767110
853113
834299
771173
312429
506901
683901
439201
16430.3
197947
14865.7
206107
44176.2
2191.47
38927.8
38177.2
112786
1603.44
6213.7
1633.36
386.752
104768
32023.4
128753
1440.33
8043.97
5860.89
1010.76
31445.6
85564
19987.5
853.902
4232.24
1330.13
251.447
5564.76
18190
80256.1
1256.14
3896.84
777.439
235.456
405807
631423
362805
365176
540398
622347
518154
804538
590550
846118
390027
419735
413366
434984
441237
486938
467775
437516
758166
816911
692228
765062
748945
7706.77
393476
467257
459691
444109
450753
501323
524639
639047
88835.2
1941.2
455694
52.7304
623.334
37.0172
476735
557344
495619
544424
600409
618599
526349
463991
536675
483300
537767
581299
599636
519259
502141
512614
501637
595355
615344
588862
745176
536065
577365
510379
563565
725317
649957
601707
520215
555469
497624
556590
688869
625960
591927
584566
800076
787219
723463
749380
880478
839395
604571
694387
678326
813974
700876
717024
586270
601710
723368
732150
597264
577670
660050
437902
609400
912430
782581
875066
716300
899462
898587
581312
885370
730525
845128
695058
887163
921258
632228
838874
834300
828364
746103
762553
699006
498785
335731
479515
457310
552386
259312
108897
648360
890532
862124
891888
392125
739578
714553
846318
905330
874985
904339
501511
803023
746528
891274
900672
855374
915647
509611
810588
781005
386452
615848
310540
72985.5
401070
137193
9342.19
168428
452176
675611
127025
449470
168153
16079.9
560.768
3889.74
12007.8
5927.72
76.0567
269.102
1790.81
7466.47
345.795
86.2706
379.49
8178.75
2203.15
95.6607
386.233
7800.06
8327.44
2245.54
90.4026
2080.17
97.4263
6653.45
230.018
5090.67
75.1694
1728.21
1265.46
55.0323
7276.36
13780.1
75606.3
3746.46
320.942
2043.3
613.236
114179
120437
60517
17196.3
7903.08
7313.8
902.501
399.911
4597.21
21240.2
79158.1
212354
35884.7
7433.09
3159.2
9468.62
46729.4
120356
275746
46951.6
9518.52
151.362
2012.03
3448.13
812.806
19.5861
458.248
35.2253
678269
51088.3
26633.3
62467.2
270878
399901
296664
4019.61
18149.9
74609
9954.13
107.208
492.849
2210.94
35404.1
77642.2
210503
20812.4
393.453
1914.9
4492.38
601705
263483
289427
16593.6
208366
232231
645311
480752
533893
792468
104938
490745
134156
8170.57
129022
97382.9
126843
528556
474046
786485
471827
738033
70353.4
460326
56972.3
427859
111073
4961.27
2547.46
233.556
37.0558
28.9916
108.912
692.497
885.315
2697.68
38.0227
909.039
31.2612
747.16
243.958
9.88795
1274.77
21768.4
3361.22
142.673
947.509
377.433
53.3136
537689
782207
457174
86258.9
464410
135212
7751.8
497489
6200.54
25032.1
30767.8
105589
123266
300265
1932.55
1514.4
8291.98
351.546
13.3408
62.2502
80.2502
1006.26
18.4322
438.958
9.33814
224.27
92.654
3.77989
8028.35
1449.77
340.184
316.502
78.8948
59.4077
12.9808
1802.01
3991.59
38993.2
5054.73
22.7597
242.365
478.17
14043.5
9011.13
113520
6883.37
765.779
478.42
53.098
970.114
461.137
8845.35
758.177
6515.49
110210
13964.8
409.259
865.872
3051.74
126.919
4.47136
16.8895
35.4424
73.4718
3.08586
18.1488
471.165
3.4812
82.7849
20.3164
480.31
3.50837
18.9467
77.301
84.4621
442.993
20.5674
134.68
13742.3
1652.81
61.5183
726.842
86.5034
7.19784
14179.1
115.215
1589
57.3154
758.847
83.9736
6.31453
3177.59
19.2682
399.518
17.6643
368.621
45.087
2.17997
15.5685
62.353
364.484
262.672
1.81946
43.5541
11.0768
65.4916
11.0227
266.131
66.6019
0.647434
15.8324
2.69637
163.742
3.60079
13.4047
1.09219
87.38
26.1653
6.7902
7.43941
35.5477
180.226
55.0571
0.422806
10.1818
2.24132
52.0319
6.79912
165.485
32.3088
0.394228
1.30721
9.48938
9175.82
8963.63
146724
9280.07
24.8704
466.886
482.357
186.387
553.65
2774.37
30.1342
149.151
10.2636
2.10477
2.11235
10.3383
186.875
150.532
30.3513
2794.56
558.367
365.844
8.03171
56.0359
2.30092
14.9496
2.2725
0.351182
1066.88
4.70448
11.0939
20.0479
51.6135
96.9272
226.343
3389.34
4174.47
79674.6
7064.21
14.6938
286.23
350.656
4371.81
5479.54
96210.6
7286.76
16.4959
301.378
381.344
289872
335727
122211
257.231
1592.6
2.39364
16.0076
0.474254
317134
84907.8
104499
221022
248167
35180.9
25068.8
250592
36858.6
61375.6
132811
8373.79
181888
15498.2
29355.6
7412.89
1318.6
96320.3
19963.2
5213.4
889.294
5867.48
1649.65
37188.6
66518.8
11567
3191.57
516.507
6180.74
283.603
69.3427
4576.99
205.475
1124.68
48.9533
375.583
70.8426
1650.53
2975.89
129.744
694.951
30.1079
205554
420290
431036
337855
328643
426650
263463
344253
282502
214686
294974
242294
252630
344689
359897
241530
226638
313084
267068
286736
382168
411287
294773
495814
376877
308452
395571
441067
499783
451906
432924
455987
462421
410790
421076
468547
357186
422802
456814
460648
500420
482767
502888
372110
401058
444724
453448
435633
475979
480357
426508
375935
357934
418149
46151.4
5940.98
53410.2
12405.9
425794
423211
424575
344409
334220
311664
298076
423533
409394
421311
297909
319369
278351
250579
388039
169606
192091
416165
408775
262835
245212
182740
394834
384384
445732
159086
182196
159228
370949
129300
162665
111166
118391
137038
170532
191098
139223
193040
215257
127725
147028
180670
201894
184730
150932
176126
238711
207407
248758
216274
208909
169472
195648
263130
282647
243428
228103
245423
235979
363286
265834
391185
397621
276394
275971
381564
258521
407176
419489
311547
291353
354833
305143
419904
367153
447972
425103
316810
450704
405842
451198
432884
441926
356186
333711
331633
381340
397970
101750
183062
138832
219576
366356
484636
449093
243114
208942
480417
432078
107733
455723
367021
311300
162111
472416
405991
145107
10030
129659
6266.47
97961.9
84021.8
4998.02
84623.5
2289.5
5055.46
7462.95
109075
66302.4
3606.83
20149.3
949.964
2727.49
15024.4
707.027
42538.2
2082.84
18010.4
9975.48
847.084
271.39
467.42
29597.9
1411.74
134686
144583
290216
288733
167212
144239
292474
289702
175286
161131
202545
161933
132673
203616
174020
164812
137334
133733
206547
204836
174812
177716
185091
130556
170493
141796
128464
168071
181980
141543
130872
128435
168110
184957
170904
181819
13573.7
193317
95698.6
142064
270504
11025.3
158223
144730
265160
205065
311520
318601
192190
193537
305260
318589
207719
204434
210543
248208
238104
236553
248235
169999
164945
89291.4
144131
203699
200535
147840
161526
93341.8
88534.4
142407
192616
142932
197060
199950
198258
206728
246299
227748
233136
241263
34941.7
10193.2
30005.7
75747.8
45678.4
41371.2
80186.4
9214.29
34009.8
29623.1
75286.6
43978.7
79050.4
40678.4
197554
199041
206307
246029
232880
241367
234922
204944
197035
208620
246874
232894
234911
245310
129680
88862.7
193642
139077
191037
85159.5
133059
190586
234960
238476
267941
236401
232532
192942
129656
139834
89025.2
195798
133460
191698
85023.9
189089
266105
227149
235759
188602
235374
229950
289701
272127
340412
308233
269952
336802
291262
288202
306080
264769
336277
267630
286581
335371
284790
271944
334318
316144
331198
271814
285393
284067
316156
272101
332781
283203
330688
271740
244009
290856
244492
218285
266621
216347
263786
247037
289301
244789
216945
267678
220088
264187
230744
214392
266844
211287
285942
263168
227156
211339
285799
230533
266892
214636
263222
227016
57.1348
335.766
14.3522
232.743
1.60163
9.80135
38.3131
10.717
2.92258
70.4864
138.656
0.929546
5.75332
21.97
99174.3
185894
219273
258639
281927
375654
297422
355819
24824.1
4066.9
432605
220505
77724.8
223813
260684
287959
345867
361511
260741
273876
265686
394049
409912
490708
530148
247151
113952
226083
305894
382888
374001
439248
263753
325768
293284
423184
499466
563628
724365
122414
81412
125977
183905
129554
180310
133506
142580
88400.3
132452
190998
152920
202224
141070
242497
255428
335329
533932
624286
460958
352287
221807
181861
182054
224339
255581
223814
255124
258763
282581
281453
328450
294495
294381
327117
277900
265508
277248
327495
311636
325288
313836
256983
286583
281993
332006
299356
295568
338963
219586
186854
182873
226857
259515
232709
255858
157325
132997
177841
169341
217816
237758
190375
271491
414070
530458
336192
471439
610590
382493
284155
267779
278646
332541
327962
341460
318957
195391
208836
235197
266744
242815
257174
277273
156990
230756
202693
261687
246761
288781
216379
248086
191216
265549
313549
317162
244682
195603
294587
271243
305646
305742
348889
362424
314835
283187
306891
296772
340580
353944
371667
358568
364679
541152
758387
418611
763800
603091
588914
255229
216684
274544
335912
324537
266591
203840
272028
293916
327290
347923
329655
270488
294946
226264
247585
263747
275563
311583
297818
291797
234429
351409
282410
302321
328117
370846
256626
260984
256397
293504
280937
318832
351701
317461
320602
340145
296573
380683
347680
328090
403912
390569
616271
283396
583413
260601
6287.57
499380
276340
304318
344867
353000
335394
284134
298163
388529
335274
395958
467167
336422
470299
385835
264506
278673
256888
317895
335615
294838
313939
394131
345967
401063
490341
339785
477747
403399
397099
378260
495532
495971
500178
393316
381844
325736
313312
354114
418858
393650
352518
283240
315390
340809
351444
396448
421693
430016
384264
322256
300815
275672
399157
360968
343408
389008
404631
401816
528696
508252
510583
416855
389233
313975
358415
295970
312070
390890
376190
327853
284671
311518
299346
337150
324074
354836
368399
355620
508619
415649
432696
441710
369358
535561
420733
556407
433926
458611
610719
599146
449772
295863
366431
328600
386895
395380
423270
355476
332440
370604
423208
412511
397882
356992
346575
238489
272453
253709
330200
297848
322360
361319
345997
446086
382124
413557
447793
475270
380525
316398
343091
394979
374090
435287
407523
478044
385111
424207
428004
475730
475438
537332
554958
457199
414076
466659
627830
388377
574284
491565
396765
566090
429227
495522
385597
420382
512985
344243
368809
331548
390221
446931
429787
405031
336706
403802
458881
392297
452213
541772
520297
494610
559869
730679
667223
658409
546292
494075
303078
297183
274163
359144
450935
410190
404253
399873
452180
385673
418123
509245
484278
434377
522245
100928
294994
2.28248
144134
23244.8
413138
446227
485924
458117
546280
507310
481021
417704
243337
22132.5
481809
107.61
296895
7832.07
0.997807
538910
600765
476736
464763
511289
522283
508462
377188
486940
434696
497618
448435
534811
607537
439592
475751
404947
435984
443888
478423
461742
447017
698248
538834
594468
487976
601769
781045
454238
564605
553863
519266
521060
493374
474038
491341
557979
483363
622246
765707
731566
660113
347436
458120
412252
487736
466610
507971
493307
644359
803484
619199
712457
761671
853379
732216
478112
556471
472793
684823
630596
565659
555005
467270
476393
431413
409285
466830
492071
478503
603027
469206
541021
566500
650903
538728
389579
512841
509448
503832
528454
487350
478146
404379
665930
599966
538147
683437
899213
855801
782511
504945
531061
487662
508886
361109
455770
452910
521700
497689
524161
504303
458460
418143
329003
808243
830695
711267
785875
865848
871231
789640
444038
368436
493151
456415
134893
262936
377342
463041
583866
648198
489335
93946.8
252106
382471
203671
199276
441011
418058
380255
198062
460381
364665
269249
281018
458051
438196
381944
349361
374023
251162
274803
235507
195571
231563
270723
331649
335797
195098
234286
231110
273429
270257
331218
334471
211953
240324
280151
249697
291248
342207
355841
237147
223077
263042
330692
307826
376493
404144
459098
459353
404944
461669
402636
458962
445748
286364
493736
366168
361335
281943
414446
493818
462206
404125
402430
459064
443153
459441
446632
360865
285032
281496
414170
494058
493971
416935
409362
454938
418944
436617
462380
468492
425907
292445
390912
304756
496416
424590
438206
500769
450402
449365
432886
476385
383609
482300
409148
449133
416359
323305
457030
505039
479278
505084
220040
352389
239550
424738
300699
317335
311414
433795
164664
149142
202814
169364
185435
226208
246101
227237
272080
203764
241975
182657
204345
273394
220315
192766
209788
300732
256900
282521
333642
289530
423957
405575
430527
328253
359520
444771
264875
429656
364700
257490
230589
317570
377282
109222
445249
170112
177005
259023
168948
445605
104982
356694
124746
174308
204948
446265
400465
268474
360105
115909
127436
160651
134584
167802
180893
188447
124005
157289
106295
103658
121151
154398
173931
103085
122760
120611
156011
153873
173462
175848
135726
155633
144049
188753
177245
198333
210663
232146
201370
145297
166674
142172
198027
228479
166198
144137
141675
197583
230910
200221
228055
149147
182083
156615
236642
205537
213429
245538
229721
387749
358744
356808
226473
255609
386682
355974
227892
225790
254978
386596
257297
386195
192282
178434
166368
224186
276497
238361
258471
232913
366679
241097
389322
262928
272108
395036
389696
376889
252822
285408
416136
303773
404108
347535
297923
417474
294374
446105
417089
344185
293775
446241
346137
416959
296251
416903
343672
352369
419095
302324
312535
448735
424038
363382
348881
441126
453954
327873
452099
431751
379735
394309
352873
442125
452765
446138
395998
452969
375618
449798
450356
406234
435300
453268
451780
482517
470070
413798
439147
404158
443581
475616
504245
460161
352322
363041
469286
296066
528177
479844
385459
222982
478839
365201
280101
417479
140908
434401
256672
314511
229221
262353
298613
372351
426818
342479
306660
255353
361658
401950
437342
473551
481268
422631
295271
424530
351162
480503
509001
311267
450458
361591
499981
442089
487897
507598
454693
315642
391683
490006
447130
502325
507304
436510
444752
414835
407321
473802
482700
354976
514956
385868
485481
495034
499177
507750
467200
469113
383312
481861
345764
481353
467043
288888
487917
459764
264598
490891
275263
465827
387447
491420
277104
383486
462444
466895
489318
388699
371912
453737
486927
483583
220736
439103
352683
503366
430426
511426
509218
405456
479193
487701
464113
124553
280746
477506
177555
416316
323437
525462
486879
523595
496481
324438
414046
456155
483075
269719
359966
460773
148736
401765
271320
436299
336167
213299
453860
112001
375479
253368
451868
330491
248404
432309
107279
205098
371608
23382.9
0.589048
2305.71
1052.26
0.81556
0.310509
0.135079
29671.6
219024
71336.1
253250
330187
438225
395285
269374
485862
529687
370937
485802
268697
92732.6
377015
187248
441767
322416
472507
241090
58699.4
44965.8
394187
137115
271740
34577.1
132154
7438.8
379398
472742
521786
323730
442687
190966
60036.1
133873
7610.84
45551.2
36012
139831
275222
395986
377871
27372.9
37372.6
106056
121301
236636
260643
229093
72511.7
334462
10446.8
159165
63569.2
2844.53
465550
162436
387789
51546.5
245087
119912
12287.4
20651.7
67242.7
2653.94
60104.4
9522.22
151350
327782
352407
489771
505374
234202
314448
172818
322867
465265
366180
522281
290204
376199
252912
396546
585415
537080
841938
212010
218182
252979
220139
255635
295688
266429
280782
374733
282198
396249
664215
474197
362215
223039
267004
257799
270615
260880
297774
307968
340698
266389
294935
339278
361199
386225
312715
270836
351771
301213
342879
367662
394198
315315
295286
338514
341694
347330
350794
403950
407062
280484
285003
316450
290506
324646
328495
365319
306446
341695
296689
340381
401655
389465
351320
314600
353610
303753
344305
411761
398034
355880
267589
328235
335815
318769
312078
394157
380120
387616
411939
415417
484744
437951
433873
361888
421505
325836
361101
432084
375194
420462
493808
338059
453188
379374
447261
382072
431183
519632
264040
337043
346703
319239
311820
392303
441007
401365
473951
398763
473436
619337
574187
489790
390922
458576
499215
463846
447330
442943
403612
423455
514679
419753
486969
664719
611214
505457
-21952.1
108645
66440.7
93842.1
87172.1