/*--------------------------------*- C++ -*----------------------------------*\
  =========                 |
  \\      /  F ield         | OpenFOAM: The Open Source CFD Toolbox
   \\    /   O peration     | Website:  https://openfoam.org
    \\  /    A nd           | Version:  9
     \\/     M anipulation  |
\*---------------------------------------------------------------------------*/
FoamFile
{
    format      ascii;
    class       volVectorField;
    location    "0.0014";
    object      U;
}
// * * * * * * * * * * * * * * * * * * * * * * * * * * * * * * * * * * * * * //

dimensions      [0 1 -1 0 0 0 0];

internalField   nonuniform List<vector> 
11022
(
(-120.83 -903.232 96.2971)
(140.031 -248.483 322.631)
(-67.4726 -677.855 378.004)
(-101.945 -903.468 82.5594)
(-17.8164 -516.255 196.516)
(-12.2814 -916.813 100.15)
(-13.1447 -795.984 463.332)
(-5.25272 -945.489 92.0309)
(10.1226 -658.621 133.825)
(-19.7209 -376.927 276.461)
(218.538 -78.7603 274.433)
(-30.5193 -303.57 273.482)
(87.7178 -242.936 356.438)
(147.698 37.4756 249.427)
(7.23592 -275.911 312.096)
(3.67391 -162.577 295.086)
(-41.365 -774.163 454.579)
(12.9007 -560.132 427.643)
(-7.87889 -588.607 442.726)
(-9.34027 -684.74 352.227)
(6.33053 -446.638 306.768)
(-3.44214 -700.655 367.796)
(38.4697 -445.621 298.962)
(10.1696 -256.29 367.344)
(135.395 -25.5468 323.715)
(23.3263 -1.26803 323.248)
(11.4649 -223.475 326.296)
(62.0567 -236.058 326.184)
(14.0612 -80.669 324.93)
(82.0489 -97.9541 325.843)
(203.596 -115.68 322.171)
(133.506 -237.921 338.493)
(192.198 -71.6474 322.59)
(101.066 -274.36 314.124)
(95.7924 -248.336 322.539)
(126.129 -132.274 323.959)
(130.626 -180.378 323.51)
(-60.2929 -733.744 426.289)
(53.7037 -466.971 335.133)
(36.4913 -510.487 387.109)
(-15.1061 -664.943 309.424)
(44.0268 -447.178 265.068)
(52.4152 -442.899 283.05)
(-25.5742 -647.425 255.632)
(-65.9801 -910.986 98.7055)
(-11.545 -893.699 305.696)
(-57.1524 -883.42 302.657)
(-42.7879 -872.292 268.956)
(-9.55197 -949.663 93.9489)
(-7.33857 -886.5 273.748)
(-57.6494 -942.462 94.145)
(136.128 -3.1088 155.81)
(25.3036 33.7172 139.992)
(26.4529 74.0633 243.25)
(16.6942 -66.8254 196.819)
(15.097 -38.5417 275.971)
(87.9406 -62.0888 276.827)
(88.6849 -93.1597 200.405)
(-172.225 -890.786 94.7311)
(-137.8 -839.916 281.806)
(-100.353 -867.224 296.52)
(-76.9681 -852.023 256.449)
(-150.111 -915.208 93.2595)
(-107.851 -824.033 233.196)
(-105.804 -932.302 95.5308)
(206.043 -105.329 211.157)
(206.24 -25.0056 260.772)
(188.219 -59.0953 185.079)
(133.252 -106.458 282.224)
(130.556 -185.628 244.309)
(126.922 -140.559 220.344)
(137.424 -159.885 291.84)
(5.79743 -651.541 227.346)
(7.57806 -444.189 233.058)
(4.19589 -492.388 208.697)
(8.71439 -646.561 216.141)
(7.40748 -498.362 207.582)
(5.21142 -658.713 127.758)
(23.2832 -449.826 234.381)
(-2.32034 -354.428 294.192)
(3.93515 -183.788 323.896)
(-7.92226 -280.339 317.616)
(2.15713 -362.626 292.647)
(35.5605 -289.546 312.747)
(33.3516 -199.607 323.896)
(-6.3385 -289.531 315.959)
(0.143187 -930.64 91.1851)
(3.36417 -826.418 144.454)
(-2.58253 -849.383 219.731)
(-28.1483 -836.245 211.175)
(-32.903 -921.586 91.2836)
(-18.6685 -819.975 135.29)
(-46.8927 -939.029 92.175)
(-9.59643 -263.643 300.552)
(-9.02725 -275.491 272.208)
(4.92332 -183.176 245.424)
(34.0961 -180.369 295.753)
(-8.34719 -286.565 273.141)
(-8.97269 -273.938 300.105)
(35.7257 -201.409 246.576)
(-56.9691 -823.419 193.932)
(-124.978 -913.919 83.7983)
(-77.3523 -823.21 102.869)
(-67.2522 -911.886 89.7042)
(-47.1974 -821.67 122.829)
(-87.2806 -810.913 167.681)
(-86.9592 -928.584 90.3722)
(-0.762123 -647.054 190.623)
(18.5661 -476.615 228.803)
(-35.0709 -679.226 116.202)
(0.810918 -508.797 204.513)
(-11.1023 -668.09 122.452)
(27.8126 -462.142 236.275)
(-19.6165 -651.566 163.642)
(43.7992 -330.61 305.987)
(-3.30129 -372.92 287.454)
(48.5537 -308.815 311.737)
(53.1443 -222.278 325.128)
(-23.8593 -305.255 304.658)
(-10.3668 -299.473 312.363)
(48.7787 -249.244 324.389)
(53.5044 -205.343 299.723)
(-27.7559 -291.33 295.294)
(44.9965 -251.603 267.011)
(-15.5526 -297.007 274.159)
(-14.0407 -284.499 298.931)
(52.4057 -227.599 256.032)
(49.2835 -232.541 302.563)
(-95.7601 -903.17 73.2014)
(-113.193 -558.331 144.072)
(-123.986 -909.661 38.264)
(-121.959 -654.665 86.4829)
(-58.811 -545.165 154.586)
(4.89957 -912.041 85.0097)
(-2.8549 -545.402 175.365)
(-8.79349 -912.109 40.7845)
(-19.8889 -658.157 88.1367)
(-65.5981 -414.186 226.499)
(-109.523 -536.473 246.647)
(-73.3276 -356.059 265.841)
(-33.9733 -353.718 275.301)
(-11.6386 -415.61 251.388)
(-20.5054 -555.251 142.681)
(-20.0903 -516.319 245.744)
(-25.4523 -906.451 81.4563)
(7.7897 -826.905 74.3547)
(-16.1762 -823.608 67.1986)
(4.25394 -903.527 70.0369)
(5.60035 -835.198 24.4263)
(-23.3821 -835.055 20.5976)
(-28.0921 -902.608 67.4852)
(-27.3657 -419.818 247.622)
(-15.5066 -351.581 289.226)
(-32.7766 -357.906 286.343)
(-16.6424 -464.949 203.142)
(-18.6341 -402.064 251.341)
(-43.7555 -408.022 249.694)
(-43.1213 -468.278 199.231)
(-78.0475 -828.49 45.7781)
(-59.4132 -904.296 78.7356)
(-46.0901 -826.33 59.7368)
(-55.6074 -837.245 17.0816)
(-99.4513 -903.124 61.0012)
(-90.6222 -838.885 11.0505)
(-62.8798 -902.979 65.5363)
(-16.0855 -547.985 171.943)
(7.24979 -689.886 90.3393)
(-9.23747 -690.3 86.7222)
(-10.6147 -581.722 129.187)
(-0.359462 -723.84 65.5425)
(-26.4574 -724.267 62.7549)
(-36.6166 -582.973 125.335)
(-15.6272 -344.115 274.448)
(-16.0453 -338.532 289.338)
(-33.8368 -346.894 288.887)
(-18.1849 -396.28 260.103)
(-18.613 -391.332 267.846)
(-43.4813 -399.057 268.021)
(-43.2729 -405.448 261.202)
(-59.4436 -700.826 83.4614)
(-34.6525 -548.41 165.26)
(-32.0058 -695.839 86.022)
(-54.8368 -724.993 61.008)
(-91.2339 -573.149 109.457)
(-63.0002 -579.52 118.452)
(-86.298 -723.916 57.9909)
(-68.9566 -354.521 269.388)
(-45.6234 -419.05 238.969)
(-51.3234 -358.153 279.506)
(-67.682 -407.317 244.891)
(-92.2975 -458.739 182.01)
(-68.1221 -465.147 191.924)
(-89.4586 -403.413 237.901)
(-71.1112 -346.702 277.353)
(-54.1393 -357.007 272.101)
(-53.1525 -348.807 284.652)
(-67.7165 -400.004 264.967)
(-90.9299 -406.7 253.414)
(-68.21 -408.185 258.982)
(-89.4698 -397.101 258.875)
(0.240083 -908.281 53.5582)
(-11.7996 -875.663 10.6438)
(-2.74846 -857.075 6.65988)
(-36.9881 -858.063 4.62731)
(-47.073 -913.66 39.9301)
(-49.6108 -878.853 9.17301)
(-35.0351 -908.776 52.0017)
(-72.406 -858.777 3.36116)
(-109.867 -908.213 46.6935)
(-126.147 -874.046 10.7982)
(-85.2734 -913.007 39.141)
(-87.6135 -878.237 9.3657)
(-109.619 -857.588 2.12019)
(-71.8487 -909.173 50.1745)
(-16.545 -618.865 95.9068)
(-15.8599 -789.489 53.83)
(-9.11817 -758.269 51.6938)
(-42.1584 -759.528 48.946)
(-55.3138 -662.506 86.2326)
(-53.1167 -792.877 51.4269)
(-48.9431 -621.487 92.769)
(-75.3719 -758.282 47.4983)
(-126.441 -785.284 53.4846)
(-111.059 -612.61 85.0785)
(-88.9654 -660.583 85.5953)
(-89.6233 -791.196 51.6081)
(-79.9811 -618.632 88.9538)
(-110.26 -754.283 46.3636)
(-19.0981 -506.735 159.638)
(-20.7404 -509.58 223.501)
(-19.8556 -452.3 229.352)
(-47.9171 -458.665 229.401)
(-52.7389 -561.102 143.064)
(-49.3432 -511.504 157.961)
(-50.9773 -516.264 225.377)
(-74.7864 -459.118 227.685)
(-105.372 -505.366 149.354)
(-108.022 -519.461 226.743)
(-83.3957 -561.168 143.414)
(-77.921 -509.95 154.471)
(-79.9718 -518.547 226.388)
(-99.9732 -457.106 224.546)
(-19.3579 -448.012 248.801)
(-20.7531 -502.532 251.775)
(-19.8638 -440.376 250.164)
(-47.4212 -448.172 251.526)
(-50.3768 -524.84 247.551)
(-50.6523 -510.288 253.593)
(-47.2002 -456.933 250.563)
(-74.0641 -450.383 250.402)
(-107.24 -517.96 254.552)
(-100.207 -461.807 245.924)
(-80.2233 -530.579 247.685)
(-79.4677 -514.47 254.315)
(-74.5828 -460.772 249.61)
(-98.7634 -449.788 247.023)
(9.79087 -432.215 377.022)
(0.226108 -0.8352 1.06635)
(0.786391 -2.26957 6.91067)
(149.187 -200.549 410.016)
(75.0267 -224.193 497.583)
(0.0183823 -0.0617278 0.162344)
(54.8345 -205.932 314.115)
(0.00209792 -0.119115 0.307288)
(6.13105 -230.297 362.705)
(0.114155 -3.66878 11.1225)
(9.89744 -222.316 505.993)
(0.161593 -0.210183 0.66922)
(0.703047 -1.53531 4.69626)
(97.4422 -222.998 486.932)
(0.00252772 -0.0034237 0.00955147)
(0.0143778 -0.0374767 0.100233)
(86.6799 -136.042 210.625)
(95.7185 -207.309 344.578)
(30.5338 -223.727 506.623)
(8.95396 -241.464 481.27)
(29.3127 -242.2 480.835)
(6.89385 -170.459 410.228)
(21.9421 -169.876 406.454)
(18.6154 -160.608 326.531)
(5.41686 -162.541 332.608)
(0.0467235 -3.54515 4.48662)
(0.330277 -1.54178 1.96168)
(86.6242 -410.574 354.81)
(0.124034 -10.3513 7.37231)
(0.738322 -4.22656 2.92511)
(8.48058e-05 -0.00198962 0.0019332)
(0.000171626 -0.000825866 0.000795619)
(52.5475 -224.357 504.217)
(72.9595 -238.556 466.702)
(51.1211 -241.392 476.409)
(53.7975 -161.803 375.497)
(38.2813 -167.224 395.765)
(32.3789 -155.088 311.216)
(44.2693 -144.755 284.296)
(118.807 -219.765 470.951)
(93.7315 -233.525 450.862)
(111.773 -224.901 425.994)
(66.8472 -152.721 344.002)
(75.1119 -138.297 299.402)
(51.7794 -128.242 244.923)
(52.4135 -104.405 193.611)
(0.0189064 -0.0462393 0.0577525)
(106.528 -386.17 331.372)
(93.2161 -192.255 160.522)
(0.468925 -2.17485 1.48084)
(0.0313474 -0.100036 0.064659)
(7.70045e-05 -0.000504997 0.000474752)
(9.03366e-05 -0.00028637 0.000258084)
(137.162 -213.001 447.216)
(126.386 -185.03 328.677)
(124.15 -209.977 387.553)
(63.0223 -84.098 167.643)
(74.8864 -115.683 239.523)
(44.7006 -74.1895 134.499)
(29.5143 -42.3714 77.8855)
(67.3237 -237.549 413.046)
(40.0043 -220.03 341.289)
(47.6464 -244.289 429.675)
(22.2342 -114.518 197.586)
(11.3202 -40.7107 65.9321)
(10.1979 -54.183 86.2552)
(28.4168 -99.0339 168.677)
(22.9995 -227.715 356.849)
(7.76414 -247.633 440.422)
(27.1746 -247.349 438.104)
(13.1251 -123.825 215.688)
(1.5795 -67.1289 105.935)
(6.37074 -63.177 99.8712)
(3.53698 -127.657 223.451)
(65.7585 -150.672 218.903)
(84.1737 -225.972 385.933)
(64.5618 -183.684 273.577)
(9.44991 -25.8203 43.344)
(29.8148 -78.0468 131.214)
(25.3638 -53.295 89.9622)
(6.24899 -13.7409 24.7195)
(35.887 -431.203 375.458)
(5.91812 -296.237 274.37)
(6.62529 -332.313 274.405)
(25.8927 -323.997 266.951)
(23.5611 -288.476 266.467)
(7.77889 -93.2902 82.5207)
(1.79078 -101.82 90.0084)
(0.418547 -3.43259 10.4196)
(2.24504 -61.8515 145)
(7.38677 -59.5495 139.007)
(3.62097 -31.674 67.2723)
(0.0364505 -1.4441 4.09636)
(1.00868 -33.9069 71.8692)
(0.150401 -1.3361 3.79158)
(15.5505 -46.0493 105.465)
(0.682054 -2.94637 8.95153)
(12.3876 -54.3796 125.766)
(5.72197 -26.9373 57.5583)
(0.265303 -0.823076 2.35202)
(6.42651 -20.4101 44.2323)
(0.240384 -1.11363 3.16716)
(62.0937 -424.526 368.557)
(51.3634 -234.223 214.206)
(56.5273 -266.166 217.55)
(43.6144 -302.523 248.351)
(39.822 -268.47 246.826)
(11.571 -75.6313 67.0251)
(11.4192 -52.1765 46.2911)
(15.6458 -34.8908 79.848)
(0.510853 -0.904273 2.79012)
(12.2878 -22.1438 51.5295)
(0.227772 -0.536526 1.54428)
(5.62552 -13.5339 30.1667)
(4.05918 -7.89311 18.33)
(0.161535 -0.307268 0.894626)
(36.4334 -59.5483 87.2485)
(98.3056 -178.602 286.439)
(55.9364 -106.859 152.967)
(15.9298 -28.4122 49.8345)
(1.61326 -2.54626 5.34601)
(3.47452 -6.38547 12.4641)
(7.57809 -11.864 22.5504)
(118.205 -345.78 294.406)
(54.3051 -185.611 168.93)
(60.7211 -214.437 174.222)
(52.0519 -147.334 118.851)
(45.3406 -124.143 112.619)
(8.00231 -29.273 26.0347)
(4.321 -13.663 12.2057)
(4.16007 -5.49125 14.144)
(0.309831 -0.466149 1.45938)
(7.76279 -11.8045 28.6861)
(2.4946 -4.07166 9.88878)
(0.0453703 -0.0646954 0.191275)
(1.23318 -1.76545 4.44478)
(0.0937745 -0.153039 0.449501)
(1.12207 -10.6599 22.627)
(0.0109279 -0.109101 0.281687)
(0.0648175 -3.20176 6.86885)
(0.00944372 -0.453048 1.22151)
(0.294411 -2.93071 6.31062)
(0.278451 -11.5564 24.4011)
(0.0439324 -0.418264 1.12759)
(115.807 -281.169 236.674)
(10.1389 -22.4067 20.9618)
(11.9948 -27.8961 21.9232)
(31.2628 -76.4979 61.0805)
(26.5188 -62.5636 57.5566)
(1.8449 -5.25688 4.70329)
(0.617425 -1.63242 1.44742)
(1.75815 -8.84097 19.0005)
(0.0767603 -0.25115 0.679801)
(0.473642 -1.65415 3.66594)
(0.0171327 -0.0880628 0.228746)
(0.455461 -2.36669 5.14733)
(1.92849 -6.51742 14.2868)
(0.0698427 -0.345328 0.932373)
(0.0624094 -0.159012 0.432733)
(0.377967 -0.996777 2.27912)
(1.65867 -4.2327 9.49949)
(1.13593 -2.35882 5.42506)
(0.00982089 -0.0195909 0.0535121)
(0.245175 -0.52098 1.23493)
(0.0431676 -0.0869277 0.236812)
(1.19737 -68.5655 69.5119)
(0.249003 -3.15638 3.99717)
(5.30816 -62.3713 63.4041)
(0.454473 -6.07532 6.31822)
(0.00318591 -0.308643 0.36978)
(0.0878066 -6.84435 7.11592)
(0.0192555 -0.274034 0.327419)
(2.0344 -115.606 90.9269)
(0.616863 -9.14403 6.48322)
(8.66451 -105.966 83.0609)
(0.615499 -8.674 7.41895)
(0.00591229 -0.638075 0.50412)
(0.0343654 -0.561362 0.442273)
(0.121543 -9.79067 8.39014)
(0.356587 -2.40038 3.04613)
(7.46922 -33.1901 34.3916)
(7.76307 -49.5279 50.6764)
(0.639698 -4.58252 4.77058)
(0.0252562 -0.130554 0.154044)
(0.575976 -2.8914 3.0085)
(0.0276555 -0.206585 0.245554)
(12.6436 -59.6402 46.0239)
(0.850297 -6.83485 4.79724)
(12.8163 -85.952 66.9536)
(0.85774 -6.52155 5.55903)
(0.0419185 -0.254568 0.197535)
(0.0479284 -0.414864 0.324844)
(0.757465 -4.06997 3.44735)
(5.29538 -18.606 19.7031)
(0.121965 -0.379397 0.485396)
(2.95302 -8.76839 9.56206)
(0.0166687 -0.0690582 0.0807347)
(0.38214 -1.53198 1.58924)
(0.199874 -0.681936 0.704526)
(0.00882117 -0.030501 0.035229)
(0.619057 -1.10341 2.60674)
(0.0120414 -0.0164046 0.0462599)
(0.00473567 -0.00883334 0.0246425)
(0.0592796 -0.0912106 0.232471)
(0.132614 -0.236375 0.582643)
(0.285313 -0.442737 1.09008)
(0.0217059 -0.0407426 0.112845)
(8.74097 -33.3625 25.3645)
(0.235027 -0.939695 0.627935)
(4.61528 -15.4697 11.5084)
(0.0266113 -0.130113 0.0998636)
(0.489247 -2.1168 1.77644)
(0.249289 -0.925663 0.768071)
(0.0134121 -0.0553594 0.0419695)
(0.0519142 -0.144592 0.183189)
(0.447146 -1.08367 1.20281)
(1.28437 -3.38496 3.75515)
(0.0820317 -0.252052 0.257947)
(0.0013538 -0.00352385 0.00396965)
(0.0290391 -0.0780803 0.0787126)
(0.00357147 -0.0112972 0.0128445)
(0.632138 -1.80877 1.28387)
(0.0931869 -0.335852 0.220231)
(1.92912 -5.91553 4.28995)
(0.100556 -0.335515 0.274782)
(0.00185983 -0.00587219 0.00432329)
(0.00527699 -0.0196756 0.0146906)
(0.0340571 -0.101102 0.0816061)
(8.42521 -352.993 242.352)
(11.2284 -442.502 409.019)
(84.3623 -148.888 186.777)
(12.3782 -373.144 191.772)
(49.8436 -358.537 245.024)
(58.6096 -380.347 194.354)
(13.4333 -538.09 224.873)
(104.163 -555.398 226.3)
(13.4493 -537.608 235.715)
(103.451 -525.537 232.766)
(11.3213 -364.66 203.426)
(29.8366 -356.502 245.025)
(34.1175 -368.158 206.121)
(11.9239 -404.016 235.66)
(37.8547 -408.265 237.515)
(13.1345 -413.038 206.838)
(39.0523 -417.655 208.776)
(55.4062 -370.762 207.109)
(77.0331 -372.109 206.111)
(70.0618 -359.935 242.576)
(84.8001 -411.162 233.146)
(61.9045 -410.217 236.533)
(63.6583 -420.757 208.72)
(87.6814 -422.779 206.613)
(11.7377 -301.068 344.254)
(72.8788 -290.844 397.513)
(7.96051 -307.052 425.275)
(82.3946 -313.84 358.753)
(0.55719 -32.8526 39.1331)
(3.58421 -15.3683 19.1935)
(96.1786 -438.284 401.65)
(12.719 -380.663 193.481)
(35.8533 -377.388 193.783)
(36.8884 -385.492 195.97)
(13.6469 -432.888 206.343)
(13.5535 -422.275 198.418)
(39.4852 -427.543 200.236)
(40.0192 -438.436 208.829)
(60.5531 -388.892 197.17)
(84.3369 -391.496 197.001)
(81.6405 -382.102 193.201)
(64.8087 -431.359 200.412)
(91.6334 -446.603 210.229)
(89.8984 -434.451 198.836)
(65.7716 -442.601 210.018)
(90.2166 -274.082 370.082)
(192.96 -353.815 396.523)
(106.827 -318.921 364.195)
(2.62088 -8.69398 11.2859)
(0.24387 -0.539545 0.742849)
(123.812 -431.296 392.672)
(172.178 -358.703 318.457)
(13.1492 -458.664 225.362)
(43.9085 -544.351 226.715)
(41.1807 -464.199 227.235)
(13.887 -553.698 207.299)
(13.7826 -470.695 206.417)
(41.7337 -476.433 208.199)
(44.4115 -558.918 208.793)
(93.725 -470.967 224.275)
(73.8666 -549.955 227.11)
(67.8878 -467.902 226.648)
(68.9098 -480.944 208.219)
(106.24 -561.48 207.145)
(75.0881 -561.698 208.705)
(95.8773 -486.372 206.626)
(35.5993 -305.915 349.21)
(11.9453 -347.664 374.446)
(11.6318 -338.76 431.517)
(37.4319 -352.58 379.323)
(37.2794 -343.242 435.777)
(38.1768 -393.543 448.351)
(11.2479 -390.723 446.6)
(58.9374 -310.167 354.175)
(89.2698 -353.581 443.633)
(87.776 -363.507 390.003)
(62.3479 -357.523 384.479)
(62.8983 -348.116 439.95)
(65.5648 -394.977 447.675)
(93.4978 -394.975 444.118)
(13.9874 -506.289 224.809)
(13.8967 -553.904 213.543)
(13.9899 -486.743 203.991)
(42.2971 -493.053 206.173)
(43.3139 -538.485 236.651)
(44.3124 -556.724 214.907)
(43.0626 -511.749 227.315)
(70.2003 -499.02 207.049)
(101.56 -520.085 230.476)
(106.119 -550.112 213.006)
(73.5571 -534.386 235.717)
(75.0321 -555.503 214.691)
(98.7381 -505.654 207.167)
(71.8908 -516.234 229.102)
(133.002 -326.183 372.215)
(117.076 -360.176 445.972)
(115.062 -372.648 396.554)
(144.775 -384.184 403.6)
(146.456 -366.513 444.702)
(121.822 -393.089 437.883)
(149.095 -388.686 427.769)
(161.323 -337.338 383.725)
(202.183 -365.385 425.713)
(208.014 -399.054 403.618)
(176.424 -395.335 407.391)
(176.069 -368.973 437.798)
(173.752 -379.886 414.279)
(191.795 -364.307 395.012)
(11.8027 -411.602 409.505)
(39.2451 -443.857 409.793)
(39.1587 -415.586 413.036)
(37.3723 -410.111 431.918)
(8.90261 -394.63 391.446)
(33.3789 -392.915 389.326)
(10.4935 -409.326 431.242)
(51.8299 -300.928 414.26)
(89.419 -356.14 458.431)
(62.7332 -357.88 465.23)
(59.6503 -362.643 433.723)
(54.4481 -225.741 277.134)
(84.5236 -355.461 423.741)
(40.5363 -246.824 307.38)
(10.4909 -356.663 467.416)
(29.5843 -305.987 422.912)
(36.2951 -358.065 468.049)
(34.1192 -365.822 438.572)
(5.95642 -263.33 331.645)
(9.36528 -365.845 438.976)
(23.4375 -258.799 324.924)
(67.6621 -442.39 407.341)
(94.9251 -423.417 414.431)
(66.5961 -419.602 414.886)
(64.8196 -408.216 428.755)
(80.7059 -369.697 363.245)
(58.0137 -385.205 380.51)
(92.0723 -403.449 421.369)
(115.484 -352.14 448.233)
(100.839 -247.292 326.949)
(139.626 -344.785 434.785)
(61.5533 -193.174 232.92)
(106.78 -343.008 407.35)
(124.181 -322.7 380.612)
(58.6322 -147.036 175.709)
(124.368 -424.677 411.86)
(148.526 -419.435 379.337)
(154.033 -422.366 406.428)
(98.527 -343.543 335.287)
(117.736 -395.011 409.778)
(139.626 -380.117 392.527)
(107.734 -302.1 291.292)
(11.0816 -186.528 267.402)
(163.592 -220.209 382.839)
(11.3066 -231.699 303.582)
(66.3633 -196.065 292.175)
(81.2583 -238.709 518.881)
(81.0716 -306.026 454.185)
(9.3566 -311.073 467.965)
(78.1497 -275.503 337.765)
(11.3711 -231.29 514.919)
(85.8572 -196.73 298.632)
(182.754 -246.613 474.577)
(106.311 -241.794 515.471)
(138.096 -233.409 327.771)
(103.632 -298.321 440.077)
(177.451 -300.881 365.887)
(100.973 -279.534 342.51)
(11.156 -206.164 285.9)
(29.725 -190.528 274.346)
(31.0058 -210.385 291.993)
(11.8181 -198.221 337.089)
(32.5508 -202.003 343.856)
(33.5135 -225.991 361.103)
(11.719 -221.892 355.164)
(47.5136 -194.351 283.928)
(70.2117 -217.109 306.136)
(50.3412 -214.641 299.57)
(73.3165 -207.484 358.204)
(52.8325 -205.439 351.517)
(54.8005 -229.817 367.543)
(76.0264 -232.465 373.183)
(106.487 -197.294 302.907)
(90.8058 -218.924 311.244)
(94.1216 -209.406 364.528)
(112.564 -221.163 315.075)
(116.145 -211.803 370.044)
(97.8597 -235.529 378.543)
(121.196 -239.328 383.679)
(150.245 -202.072 311.777)
(127.983 -198.893 306.588)
(157.877 -229.7 325.809)
(134.848 -224.583 319.391)
(139.24 -215.288 375.618)
(145.852 -244.709 390.654)
(172.584 -252.72 402.492)
(11.5146 -263.199 322.151)
(33.9597 -267.991 327.383)
(32.4238 -236.292 309.079)
(34.6849 -256.388 379.49)
(11.7351 -289.408 398.73)
(35.9265 -293.875 403.947)
(11.7284 -252.027 374.318)
(74.2169 -243.607 320.684)
(56.0159 -272.286 332.816)
(53.2124 -240.705 315.216)
(57.0221 -260.292 384.875)
(83.7761 -302.726 415.816)
(59.646 -298.215 409.668)
(79.3996 -263.457 389.934)
(34.1468 -233.945 518.191)
(12.0135 -212.842 420.879)
(34.1819 -216.279 427.39)
(35.1823 -248.477 451.603)
(10.938 -264.171 510.694)
(11.8068 -244.574 446.013)
(34.3563 -266.582 512.562)
(78.1486 -222.476 441.416)
(57.4027 -236.317 519.897)
(56.1445 -219.606 434.361)
(58.2586 -252.198 457.581)
(83.4277 -270.356 507.69)
(81.668 -255.892 463.318)
(58.5931 -268.624 511.976)
(95.8942 -246.528 325.397)
(125.085 -284.511 347.795)
(118.699 -250.122 329.719)
(109.332 -309.099 423.29)
(102.736 -267.628 395.887)
(127.924 -273.487 403.981)
(137.067 -317.799 431.812)
(101.277 -226.438 449.479)
(132.657 -245.653 508.638)
(126.378 -231.816 458.448)
(109.192 -271.801 500.486)
(106.529 -260.818 469.305)
(133.321 -267.103 475.206)
(135.096 -272.106 489.578)
(184.238 -248.261 481.866)
(159.522 -248.407 497.6)
(153.672 -238.667 467.118)
(161.647 -274.318 478.034)
(180.085 -264.66 454.83)
(190.91 -281.912 474.749)
(159.545 -270.433 474.631)
(166.66 -262.287 342.872)
(150.251 -291.22 354.477)
(142.015 -255.191 335.098)
(155.114 -282.135 415.175)
(197.957 -339.867 440.748)
(166.809 -329.325 439.43)
(185.068 -293.838 428.121)
(35.9839 -287.157 474.377)
(11.118 -326.515 480.187)
(32.7083 -311.735 467.57)
(10.3172 -293.184 494.795)
(36.5705 -329.684 482.193)
(11.5328 -283.427 470.028)
(34.2132 -294.935 495.391)
(60.4544 -290.824 478.211)
(84.0844 -294.909 486.145)
(56.9569 -310.235 463.218)
(88.8055 -334.202 479.247)
(62.362 -332.292 482.08)
(85.5221 -294.572 480.622)
(58.9528 -295.523 492.777)
(109.083 -293.146 475.908)
(116.191 -335.438 473.321)
(111.899 -299.582 481.475)
(139.766 -305.513 478.997)
(122.857 -285.721 418.227)
(143.561 -334.465 463.444)
(132.71 -288.957 461.628)
(168.494 -310.038 471.738)
(166.278 -263.472 412.831)
(136.055 -265.872 383.715)
(189.878 -322.079 431.657)
(168.772 -330.779 449.498)
(195.185 -309.879 458.944)
(152.747 -279.784 442.165)
(170.55 -307.622 383.735)
(100.768 -206.912 265.673)
(159.159 -331.162 415.585)
(132.943 -290.029 337.553)
(23.3251 -41.6964 53.6623)
(126.718 -237.918 269.497)
(44.4746 -92.3119 111.234)
(204.307 -404.397 382.532)
(166.43 -398.472 357.644)
(181.291 -416.035 396.87)
(154.186 -354.298 363.512)
(78.9131 -156.386 147.222)
(103.003 -239.643 227.033)
(155.882 -309.261 313.55)
(29.267 -335.055 376.832)
(4.65669 -232.906 240.207)
(3.02683 -150.589 172.841)
(2.55195 -29.5631 35.4313)
(18.9368 -224.783 231.477)
(7.61606 -338.104 380.869)
(12.6229 -143.003 164.193)
(50.9478 -325.323 364.547)
(24.1885 -98.972 114.157)
(3.69971 -23.0437 28.031)
(39.8532 -173.465 177.507)
(31.7629 -205.163 210.67)
(70.1769 -307.083 341.607)
(20.5898 -125.633 144.334)
(21.5071 -66.2516 78.5922)
(39.8028 -129.885 132.819)
(83.5713 -277.449 304.258)
(87.6598 -233.579 251.033)
(1.49162 -4.12053 5.53076)
(30.3025 -79.4277 82.7881)
(13.9525 -35.336 43.794)
(160.884 -634.443 345.596)
(-67.5116 -216.379 151.605)
(102.615 -770.839 404.127)
(1.63738 -374.343 268.415)
(-223.599 -80.5772 116.486)
(-73.0486 -46.5154 -2.23725)
(-29.1856 -192.961 92.1535)
(-12.7713 -163.847 41.8125)
(34.3031 -779.972 406.307)
(26.4855 -689.655 439.493)
(68.6293 -657.915 417.304)
(19.0103 -719.947 329.062)
(36.3085 -654.204 302.778)
(-9.17921 -422.045 182.686)
(-50.6529 -353.907 141.971)
(160.724 -740.459 390.725)
(-3.46533 -387.149 235.023)
(80.5264 -572.917 361.699)
(-127.539 -282.949 163.591)
(-11.0708 -510.499 237.365)
(-108.556 -234.525 92.0305)
(-170.646 -116.901 50.1574)
(-12.4103 -67.4184 37.8798)
(-24.0459 -311.965 221.347)
(-63.9717 -42.3888 28.8422)
(-20.9068 -57.1819 -14.3032)
(-23.673 -105.04 1.98894)
(-87.5106 -75.2072 -8.50407)
(-60.8185 -65.8637 1.44336)
(-36.2639 -361.129 98.892)
(-169.239 -32.6751 23.7055)
(-120.911 -262.733 84.006)
(-42.2817 -75.3708 -39.5577)
(-42.8931 -114.875 -36.4782)
(-120.095 -89.4516 -34.6491)
(-102.555 -88.4415 -20.4113)
(-106.794 -31.8683 31.7522)
(-128.64 -99.7789 78.6612)
(-125.641 -42.7412 46.8818)
(-135.019 -61.311 -5.5146)
(-105.963 -86.8791 51.545)
(-154.687 -71.1603 18.7886)
(-89.0151 -72.1652 24.3181)
(-249.865 -68.7296 93.6765)
(-219.921 -42.7099 66.4624)
(-204.406 -133.645 76.9923)
(-167.504 -73.8586 -14.1803)
(-152.223 -125.058 59.7934)
(-139.339 -102.711 13.0368)
(-188.717 -84.0532 24.4147)
(-19.7201 -104.735 4.56689)
(-27.1718 -120.877 -10.9688)
(-30.9109 -73.492 -41.1143)
(-80.3385 -83.9053 -23.7103)
(-32.2502 -172.394 55.3751)
(-65.1111 -134.261 6.6968)
(-52.9154 -115.036 21.1588)
(-113.452 -95.7572 -0.128372)
(-70.2757 -143.281 74.5827)
(-88.006 -167.626 66.6944)
(-36.7925 -185.324 76.1062)
(-83.0354 -152.405 35.4546)
(-128.97 -112.008 34.3697)
(-66.3057 -131.151 48.4924)
(-11.1833 -44.7204 20.9566)
(-65.9871 -51.5673 57.9646)
(51.6353 -179.328 231.111)
(8.98137 -168.697 199.795)
(72.6214 -255.662 278.397)
(10.4077 -213.714 242.935)
(19.83 -205.808 127.772)
(3.00781 -174.941 123.32)
(-41.0726 -48.645 35.0589)
(-4.24346 -86.3648 72.0063)
(-11.7237 -88.5991 34.8979)
(-20.1245 -92.2156 84.7515)
(-37.2416 -97.8333 50.4239)
(-9.03389 -141.1 106.534)
(-1.57726 -134.493 95.2132)
(-81.3119 -66.7393 82.2239)
(-30.3929 -112.179 130.284)
(-29.5948 -100.504 107.79)
(-51.8295 -122.433 99.443)
(-48.8857 -112.241 75.3636)
(-10.0292 -149.535 126.498)
(-0.516741 -154.372 143.391)
(9.90451 -190.075 221.727)
(3.1473 -135.214 134.738)
(6.17754 -167.898 157.893)
(23.13 -172.776 207.005)
(5.12383 -138.728 144.18)
(15.7382 -171.484 166.163)
(26.7015 -194.112 228.207)
(6.57835 -208.002 151.337)
(-7.15436 -144.138 64.3976)
(-0.232151 -192.377 95.9739)
(-0.0148346 -196.75 105.063)
(-21.8984 -152.338 77.2322)
(7.82701 -179.443 132.22)
(19.2121 -212.149 158.108)
(18.3087 -152.052 176.962)
(35.5742 -177.533 219.529)
(7.15052 -145.926 161.197)
(24.6924 -175.741 179.621)
(60.0373 -200.542 246.626)
(39.2389 -178.444 191.391)
(42.3742 -198.481 237.867)
(-14.7203 -169.18 114.292)
(5.01324 -204.419 118.483)
(-24.5853 -165.043 98.0305)
(14.5311 -184.943 146.892)
(48.4955 -218.82 174.453)
(31.6363 -217.308 167.735)
(29.1725 -186.695 157.587)
(8.28224 -194.5 183.571)
(10.7983 -243.067 262.034)
(9.46249 -223.974 206.488)
(22.8664 -198.935 190.153)
(31.01 -247.983 267.35)
(26.895 -228.818 212.122)
(29.0257 -218.366 248.585)
(36.878 -203.586 200.005)
(66.9078 -225.78 262.462)
(51.5007 -252.662 273.306)
(63.8163 -236.488 224.959)
(44.45 -233.886 219.345)
(54.0311 -205.988 207.961)
(47.3731 -223.091 255.939)
(-169.388 -137.108 153.208)
(-59.9418 -59.107 56.5748)
(11.5117 -230.107 109.852)
(-4.86709 -244.264 88.7874)
(-35.6563 -246.873 208.724)
(-19.0159 -221.302 181.645)
(9.92809 -327.705 173.771)
(47.9604 -333.064 179.504)
(-129.762 -72.8208 78.9825)
(-32.352 -130.905 12.9143)
(-76.8453 -143.956 30.033)
(-41.2356 -135.414 119.345)
(-85.6751 -155.145 135.616)
(-43.6784 -214.437 89.1236)
(-19.8944 -203.775 75.6875)
(-165.78 -95.5493 115.904)
(-102.966 -186.039 102.711)
(-100.491 -163.167 64.5311)
(-98.5838 -206.092 193.696)
(-103.165 -179.736 165.876)
(-50.8162 -226.253 115.214)
(-42.5579 -236.563 142.71)
(-2.97604 -217.923 78.1904)
(4.32758 -259.047 115.181)
(-17.5664 -185.467 37.6276)
(-5.87671 -221.935 87.0459)
(-40.1545 -196.176 51.7968)
(-8.91197 -248.55 98.3318)
(15.0072 -260.943 121.336)
(-40.0275 -217.85 94.9432)
(-2.09498 -227.895 100.185)
(-46.9345 -210.068 73.7421)
(-5.15756 -253.044 112.607)
(42.0762 -264.496 135.289)
(8.05026 -253.36 125.892)
(26.2065 -263.849 128.917)
(-35.5236 -232.547 191.217)
(-0.874057 -292.034 227.07)
(7.07213 -296.982 232.121)
(6.06059 -313.871 183.89)
(-4.56209 -263.32 137.449)
(-5.87572 -268.018 146.419)
(21.3165 -317.003 189.098)
(-22.3483 -258.447 224.261)
(37.2766 -307.218 241.455)
(19.7466 -302.578 237.75)
(0.434625 -273.108 161.82)
(55.7605 -322.823 198.203)
(36.9511 -320.274 194.807)
(15.6678 -277.085 176.198)
(4.68697 -286.266 137.583)
(11.141 -336.356 176.141)
(8.68831 -295.558 149.722)
(16.2702 -288.03 143.64)
(32.5116 -340.491 179.021)
(29.394 -330.673 176.999)
(26.1317 -298.51 154.064)
(53.4107 -343.726 181.103)
(42.9438 -301.487 158.168)
(75.2373 -345.782 181.892)
(68.3301 -334.381 180.675)
(61.9204 -302.949 161.172)
(45.2175 -290.027 157.335)
(28.4163 -289.748 150.841)
(-72.1619 -84.6838 104.573)
(24.5994 -101.119 131.187)
(132.524 -181.739 251.08)
(69.6907 -178.987 238.772)
(163.528 -274.927 296.836)
(108.609 -207.624 151.186)
(94.3257 -258.716 282.432)
(37.7376 -204.047 133.713)
(-48.9777 -94.9021 123.234)
(-16.6691 -122.008 145.555)
(-38.1349 -134.056 115.517)
(-12.1923 -133.523 124.998)
(7.25755 -124.073 152.759)
(17.131 -154.922 153.725)
(39.7442 -152.931 158.45)
(-14.0941 -99.2356 129.529)
(68.076 -126.452 157.521)
(53.7547 -134.47 130.526)
(19.7759 -131.755 128.394)
(36.5581 -123.569 155.518)
(64.8147 -153.517 161.341)
(92.049 -158.6 164.415)
(36.3975 -152.559 186.507)
(88.9516 -178.193 243.139)
(56.9151 -151.664 191.397)
(79.2122 -200.987 252.821)
(57.1058 -177.821 199.389)
(76.9716 -177.722 203.034)
(99.6585 -201.934 256.325)
(2.75895 -169.953 123.103)
(58.5292 -201.011 138.294)
(26.1917 -166.252 127.687)
(66.9798 -218.902 179.226)
(46.6083 -185.741 164.747)
(66.991 -184.631 167.952)
(87.65 -219.118 182.09)
(105.213 -155.383 197.926)
(109.841 -178.7 246.633)
(79.7162 -151.945 194.568)
(98.6928 -180.013 205.856)
(143.774 -209.646 264.646)
(122.543 -185.604 210.199)
(121.196 -204.541 259.64)
(82.355 -170.104 137.079)
(82.2924 -201.926 143.768)
(53.0191 -165.58 131.628)
(89.4802 -186.834 171.224)
(133.433 -229.358 192.325)
(109.803 -222.471 185.979)
(114.103 -193.183 176.259)
(87.515 -227.725 267.322)
(84.2604 -238.467 229.108)
(72.8843 -206.624 213.708)
(93.3497 -207.958 216.537)
(116.904 -262.268 285.907)
(105.96 -240.992 231.919)
(109.198 -230.248 270.519)
(115.039 -211.686 219.755)
(153.948 -240.622 280.012)
(150.926 -252.727 241.613)
(139.731 -267.514 290.322)
(128.092 -245.621 235.729)
(137.947 -218.315 225.2)
(131.273 -234.379 274.229)
(11.7237 -346.524 199.554)
(174.56 -314.788 317.212)
(12.2962 -430.278 367.352)
(11.2762 -277.034 281.143)
(8.64345 -241.302 175.983)
(77.3783 -289.863 295.351)
(44.0801 -240.402 146.92)
(95.7118 -445.146 377.213)
(57.0512 -355.194 205.262)
(131.32 -247.701 168.318)
(100.026 -293.676 299.017)
(80.4975 -277.396 171.275)
(125.644 -448.599 378.171)
(208.989 -431.096 355.18)
(103.843 -360.773 208.177)
(180.775 -383.161 219.805)
(4.96413 -231.204 125.981)
(8.18176 -266.539 154.161)
(15.964 -234.43 132.508)
(24.6466 -270.25 159.135)