/*--------------------------------*- C++ -*----------------------------------*\
  =========                 |
  \\      /  F ield         | OpenFOAM: The Open Source CFD Toolbox
   \\    /   O peration     | Website:  https://openfoam.org
    \\  /    A nd           | Version:  9
     \\/     M anipulation  |
\*---------------------------------------------------------------------------*/
FoamFile
{
    format      ascii;
    class       volScalarField;
    location    "0.00245";
    object      overpressureMax;
}
// * * * * * * * * * * * * * * * * * * * * * * * * * * * * * * * * * * * * * //

dimensions      [1 -1 -2 0 0 0 0];

internalField   nonuniform List<scalar> 
20246
(
218902
0.0164411
0.00738036
0.000929573
3.92011e-05
0.0785609
0.00572122
0.00020056
1.48299
216669
303.536
13886
14833.7
0.807897
12.8146
11225.7
72.0229
3.35584
0.878442
4201.88
53.4396
61.8715
207676
131519
204402
195342
160067
375412
1685.89
212420
152571
151881
169876
136728
136514
172210
458.795
23.4864
27.3612
138.383
46.9253
256.233
275.811
3729.01
1350.74
19230.3
18151.1
2415.85
2468.76
23300.6
202624
150811
149486
167204
135281
135990
164364
9.00403
1526.97
911.017
252.214
30542.5
29668.9
59093.2
1494.43
232423
165814
90173.6
238012
95926.7
74645.6
45909.9
96775.4
133827
64272.9
98513
97543.3
341076
256158
306776
93740.7
356543
307298
329359
137142
1830.8
0.416558
0.00220157
0.00533541
2.51984
20.9887
0.065404
0.135948
0.00250712
0.000324518
0.00977218
0.00393822
0.000488956
0.00758658
0.000445239
2.76955e-05
0.000213637
8.22419e-05
1.3149e-05
0.00080956
4.33242e-05
2.35077e-06
4.08838e-06
1.53318e-06
2.98242e-07
5.59593e-05
3.02073e-06
1.49186e-07
7.31525e-08
2.69938e-08
6.49015e-09
3.12881e-06
1.70985e-07
8.36735e-09
1.35333e-09
4.07454e-10
5.82077e-11
1.42114e-07
7.91624e-09
3.0559e-10
0
0
0
100890
0.349991
0.137273
0.000781387
0.0013183
1.09833
5.62849
0.00617454
0.0172134
0.00066657
7.09739e-05
0.00261597
0.000922819
0.000142173
0.00308877
0.000167518
8.798e-06
4.87168e-05
1.74598e-05
3.3765e-06
0.000303923
1.57402e-05
7.83533e-07
8.52742e-07
3.25977e-07
7.97008e-08
1.98868e-05
1.05852e-06
5.17757e-08
1.53668e-08
5.95173e-09
1.80444e-09
1.07427e-06
5.96046e-08
2.95404e-09
2.61934e-10
4.36557e-11
0
4.86762e-08
2.75031e-09
5.82077e-11
0
0
0
3181.1
0.0286885
0.000210608
5.26048e-05
0.0600137
0.109731
0.000602124
0.0049042
0.000242775
1.11791e-05
0.000101439
5.70709e-05
1.71537e-05
0.000799303
4.7182e-05
2.19305e-06
1.8179e-06
1.10517e-06
4.35437e-07
6.56823e-05
3.63888e-06
1.74026e-07
3.59432e-08
2.02272e-08
9.5315e-09
4.0351e-06
2.24638e-07
1.08703e-08
8.73115e-10
2.76486e-10
1.45519e-10
2.08194e-07
1.16124e-08
4.94765e-10
0
0
0
8.94943e-09
4.36557e-10
0
0
0
0
3.5242
0.0015096
0.0812084
0.000231733
0.000199438
0.00230922
3.18632e-05
0.0374979
0.002055
4.13746e-05
1.91876e-06
9.93168e-07
7.58926e-07
0.0018619
7.76001e-05
2.69472e-06
1.10827e-07
2.468e-08
1.77824e-08
6.19064e-05
3.12865e-06
1.2877e-07
4.99131e-09
5.52973e-10
3.34694e-10
2.27948e-06
1.21203e-07
5.23869e-09
1.45519e-10
0
0
8.07049e-08
4.33647e-09
1.45519e-10
0
0
0
2.50293e-09
8.73115e-11
0
0
0
0
152939
923.882
0.529012
0.000296747
2.24462e-05
1584.18
28.0578
0.0282406
3.21801e-05
5.40698e-06
6.70072e-07
0.188145
0.0060168
0.000141816
3.15536e-06
7.84348e-08
2.04745e-08
0.00273194
0.000212432
6.8769e-06
2.50249e-07
7.30506e-09
5.82077e-10
0.000114851
7.28978e-06
2.75162e-07
9.8662e-09
2.32831e-10
0
3.9124e-06
2.37866e-07
9.80799e-09
3.0559e-10
0
0
1.21945e-07
7.36327e-09
2.61934e-10
0
0
0
3.43425e-09
1.16415e-10
0
0
0
0
253524
4.30872
0.0320508
0.00022611
9.0628e-06
7.90606e-07
0.103449
0.249315
0.00124532
3.18922e-05
9.43022e-07
4.39904e-08
0.0126559
0.00117624
5.70161e-05
1.88485e-06
5.92845e-08
2.24099e-09
0.000538018
5.12512e-05
2.37148e-06
8.84174e-08
2.83762e-09
4.36557e-11
2.30639e-05
1.89335e-06
9.05711e-08
3.59432e-09
5.82077e-11
0
8.80784e-07
6.59202e-08
3.23053e-09
8.73115e-11
0
0
3.03844e-08
2.09548e-09
4.36557e-11
0
0
0
8.87667e-10
0
0
0
0
0
0.0619108
0.0123748
0.000971296
3.66974e-05
1.61817e-06
7.53207e-08
0.0121131
0.00156649
7.61474e-05
3.12021e-06
1.34823e-07
5.16593e-09
0.000933778
7.83364e-05
3.98159e-06
1.83994e-07
8.14907e-09
2.47383e-10
3.99742e-05
3.44345e-06
1.835e-07
8.58563e-09
3.0559e-10
0
1.71672e-06
1.4028e-07
7.66886e-09
3.0559e-10
0
0
6.86414e-08
5.31145e-09
2.03727e-10
0
0
0
2.50293e-09
1.16415e-10
0
0
0
0
0
0
0
0
0
0
0.0063585
0.000633427
4.19551e-05
2.25601e-06
1.13214e-07
5.20959e-09
0.000700665
6.12091e-05
3.39324e-06
1.73488e-07
8.3528e-09
3.0559e-10
3.85788e-05
3.47999e-06
2.01515e-07
1.04919e-08
4.36557e-10
0
2.00923e-06
1.72979e-07
1.02737e-08
4.94765e-10
0
0
9.42528e-08
7.65431e-09
3.7835e-10
0
0
0
3.87081e-09
2.61934e-10
0
0
0
0
8.73115e-11
0
0
0
0
0
0
0
0
0
0
0
0.00020197
2.41081e-05
1.67794e-06
1.04017e-07
5.64614e-09
2.32831e-10
2.31129e-05
2.22218e-06
1.41314e-07
8.09086e-09
3.63798e-10
0
1.56472e-06
1.41838e-07
9.0804e-09
4.36557e-10
0
0
8.8854e-08
7.55244e-09
4.36557e-10
0
0
0
4.27826e-09
3.0559e-10
0
0
0
0
1.16415e-10
0
0
0
0
0
0
0
0
0
0
0
0
0
0
0
0
0
7.06625e-06
8.11808e-07
6.20785e-08
4.07454e-09
1.74623e-10
0
7.80536e-07
7.61938e-08
5.34055e-09
2.47383e-10
0
0
5.72618e-08
5.20959e-09
2.76486e-10
0
0
0
3.33239e-09
2.03727e-10
0
0
0
0
1.01863e-10
0
0
0
0
0
0
0
0
0
0
0
0
0
0
0
0
0
0
0
0
0
0
0
0.201708
0.00446711
0.125818
0.00424859
0.000870232
0.000111472
0.000776365
6.53614e-05
0.000835853
0.946783
0.000450684
0.533018
54273
8.78141
343.401
51461
5.10903
201.763
88048.8
275.767
5.1723
128039
66015.9
147.058
1.99376
0.0315134
0.322492
0.027642
0.311997
0.0223822
0.244731
0.020043
0.000470323
0.0020504
0.000357785
0.00156852
0.000320235
0.00149193
0.000293595
0.160725
0.000470163
0.00983083
0.00338561
0.0930247
0.000307136
0.00626371
29.8622
0.195787
0.368448
2.3957
16.4928
0.111101
0.27984
0.0816823
0.00222213
0.000757369
0.000404311
3.25526e-05
0.000135221
5.20257e-06
0.00023274
0.35008
2.78993e-05
0.0465936
45130.4
3.53219
136.596
32668.1
0.554757
21.7577
3328.46
93.0687
1.24914
24673.3
127.926
10.655
0.444069
0.0111424
0.126604
0.00894323
0.00439457
0.0440803
0.00402559
0.000135722
0.000670126
0.000106818
0.000305271
4.18636e-05
0.000303394
4.44218e-05
0.0383472
0.000114877
0.00246813
0.000322873
0.0103964
3.31921e-05
0.000676062
10.1163
0.0504877
0.179264
0.333617
1.74432
0.0151225
0.0881125
0.000285174
0.0140137
6.39968e-05
1.95428e-06
0.00318534
3.77339e-05
6.96915e-06
0.0180733
4.7728e-06
0.000284419
20998.7
0.227647
9.03508
3376.8
0.00453916
0.244661
31.7675
3.75215
0.474709
172.211
0.339703
0.371903
0.0615357
0.00256279
0.0165536
0.00161676
0.021507
0.0265163
0.00427623
1.8645e-05
0.000142886
2.33862e-05
0.0027228
0.000184335
0.000555137
5.8308e-05
0.0016408
7.12412e-06
9.13687e-05
1.56496e-05
0.000127667
4.59685e-06
7.60559e-06
0.370565
0.00228191
0.0116608
0.00521121
0.034081
0.000199399
0.00118969
0.178142
295.374
0.042163
0.000474928
82.0844
0.68219
5.74684e-05
4.0058e-05
0.111016
0.000257554
208.209
0.000710582
0.0359022
0.178176
2.62898e-05
0.000256362
0.12431
0.0611855
0.00627259
0.091176
0.00673029
0.00374156
0.000336782
0.523094
0.301864
0.0446468
110.587
2.31072
0.503385
0.00494919
0.00898383
0.000719307
6.06888
0.147202
0.11317
0.00739847
1.6189e-05
4.5738e-05
3.55442e-06
0.00599503
0.00020345
0.000362456
1.62825e-05
0.00142866
7.85655e-06
4.66864e-05
9.80504e-06
3.53683e-05
9.18299e-07
1.43643e-06
24177.3
341.037
3.62598
57641.2
1341.06
41.0241
0.747345
31.1956
0.641207
0.00195644
19.8977
0.466644
0.378771
0.0348243
0.000862391
0.000203682
1.84205e-05
0.0476944
0.00214136
0.00213075
0.00010436
437607
154.835
1.06208
39642
0.0160423
606199
232334
0.00402904
0.000268973
392546
29.4061
0.229298
0.00196848
0.000305204
1.41539e-05
59119.3
80.5835
0.00595286
0.00049298
2.31472e-05
1.0486e-06
0.33847
0.00359771
0.000397652
2.321e-05
1.27725e-06
6.21949e-08
0.000806812
0.000137309
1.44724e-05
1.00546e-06
6.10016e-08
3.0268e-09
3.66914e-05
5.22114e-06
5.24466e-07
3.94648e-08
2.44472e-09
4.36557e-11
74751.1
75559.7
478573
324004
406038
476810
378707
404484
81542.5
87730.4
485019
327701
393631
303972
327372
183081
121192
610896
43422.2
157845
270064
17163.4
556881
869.049
166384
2948.46
574053
3367.54
4117.63
3.26635
86.3468
54.138
0.575702
208.511
0.0931089
0.477667
0.110496
234885
313194
222700
145194
435237
387542
293665
14272.7
460442
11455.4
486.183
275229
24794.3
215.743
3.6551
169.651
9.89648
0.011314
496.152
0.101333
0.307899
0.0401478
218705
187682
5172.81
13186.9
86186.5
119964
75757.1
10050.7
37246
11187.6
41853.9
176.268
1719.38
413.301
12.1272
137.561
28.5912
70.5203
0.0507133
2.13764
0.205378
0.00447456
0.0971976
0.00923684
0.0296914
0.0194619
0.0973055
0.0667535
0.190792
0.0900833
0.0617581
0.0210916
0.00392912
0.00108047
0.0130852
0.00423681
0.00102124
0.0123969
0.00422522
0.0162648
0.15355
0.0553771
0.0398689
0.0741406
0.0532628
0.011963
0.00317752
0.00459817
0.000857743
0.00789466
0.00100563
0.00968952
0.00240435
5.92202e-05
0.000229319
0.00030244
0.000842138
0.000219571
0.000281633
6.29565e-05
2.30633e-05
9.10728e-05
7.84839e-05
0.000106752
8.35385e-05
7.35402e-05
2.46621e-05
5.40891e-05
0.000805573
0.000184589
0.000206882
0.0002089
0.000253477
4.37463e-05
1.88915e-05
7.79685e-05
4.57971e-05
4.63304e-05
6.5678e-05
5.92771e-05
1.44408e-05
0.014348
0.00119983
0.00764186
0.000783027
0.00109618
0.00697561
0.01573
0.180076
2.20617
0.084863
0.866041
2.02463
0.0778931
0.197141
0.011667
0.000583622
0.000613406
0.00395828
0.000872963
0.0055901
0.00836869
0.148761
0.718661
1.29714
0.0460713
1.70061
0.0627633
0.109989
53080.2
95171.2
92977.8
17225.1
27964.7
26332.5
18148.9
201.02
23.0176
68.4408
8.08718
21.3145
63.5805
215.219
89471
49035.6
84183.2
15620.3
19365.4
23355.4
13380.9
175.552
6.73863
14.4104
42.745
18.3502
54.7046
142.418
0.0049419
0.0366348
0.029125
0.00832481
0.0176987
0.00103449
0.000484172
0.00534469
0.00121244
0.0016202
0.000267133
0.00385732
0.000592173
0.000893081
0.000129797
0.00132622
0.000178601
0.00213736
0.000341509
1.54518e-05
0.00010414
0.000138573
0.000251064
2.80332e-05
5.8767e-05
7.80242e-05
5.04951e-06
2.57775e-05
3.13325e-05
2.20059e-05
8.67347e-06
1.32158e-05
1.9279e-05
9.90856e-06
0.000144821
2.79571e-05
3.2838e-05
3.56782e-05
5.22731e-05
6.36384e-06
2.61239e-06
9.3017e-06
2.43634e-06
7.13178e-06
5.82523e-06
1.07383e-05
1.58839e-06
0.00287649
0.000363336
0.00236674
0.000146784
0.00523354
0.000193518
0.00129291
0.041631
0.888476
0.0284804
0.205554
0.0719803
0.544548
0.0163358
0.0013744
5.38527e-05
3.44911e-05
0.000238879
8.58619e-05
0.000590564
0.000570963
0.0211566
0.105316
0.14062
0.00337231
0.295777
0.00775434
0.00935677
76456.2
39645.8
65973.8
7985.49
14823.7
10767.1
10087.4
72.4919
10.3225
30.4641
2.15432
106.077
6.70037
19.814
52392.3
36369.5
24375.3
5249.37
3555.84
6272.01
3157.48
45.2061
1.1645
2.0105
5.91801
3.91387
11.2499
25.2792
0.000539312
6.62861e-05
0.000853463
0.000496338
0.00023728
0.00015509
0.00105657
0.00594143
0.00184421
0.0235446
0.047053
0.0015959
0.00525178
0.0854831
8.28243e-06
1.53159e-05
1.79371e-05
8.36505e-05
3.6999e-06
3.29973e-05
3.61964e-05
1.44092e-06
8.29561e-07
4.05897e-06
2.85463e-06
8.70859e-07
5.7854e-07
5.79387e-06
8.1349e-05
0.000432095
0.00568019
0.00089264
0.000373462
0.000130628
0.0012414
1.39009e-05
7.53086e-06
3.57733e-05
0.000138807
2.44874e-06
2.5281e-05
0.000218216
5.77509e-05
1.10054e-05
7.80439e-05
3.59463e-06
0.000198803
3.1411e-06
2.37191e-05
0.00108824
0.0567717
0.00117285
0.00549425
0.00350089
0.0191436
0.000363708
1.38171e-05
2.11954e-06
4.94249e-06
2.75866e-06
1.10288e-06
5.12968e-06
3.42881e-06
0.000275642
0.00143137
0.00114255
1.80676e-05
0.00520238
8.32378e-05
5.52142e-05
9205.92
16296.3
9428.63
856.99
1742.47
1768.91
710.761
4.7695
0.87863
2.48129
0.0755445
11.9931
0.321398
0.90514
964.788
4125.21
1475.32
336.422
61.9251
236.859
104.724
1.51734
0.0211158
0.0223751
0.0623085
0.0943489
0.264345
0.388953
17.6464
0.365883
0.590736
2.25737
1.27771
5.35844
8.01326
239.396
28.1124
1053.43
922.813
77.5427
92.2655
3093.94
0.328381
0.0916365
0.0114309
0.570532
0.0204559
1.41018
0.126819
0.0650955
0.000640749
0.00189037
0.00392114
0.00381172
0.0112306
0.0233022
5.24212
7.27138
314.45
19.99
21.6973
1.66062
79.4635
1.10821
0.0548498
3.4413
3.80112
0.203362
0.315441
17.5923
0.000236193
9.07032e-05
1.20827e-05
0.000567326
1.2333e-05
0.00170697
8.72846e-05
2.92114e-05
0.000176974
4.59372e-06
6.73471e-06
9.81038e-06
2.42147e-05
1.01184e-05
0.00500561
0.00837775
0.603625
0.0165965
0.0332966
0.00129401
0.0987757
0.000662518
2.43164e-05
0.00183546
0.00218407
7.79251e-05
0.000154665
0.0144518
29.3223
74.1321
400.175
3.87919
12.0622
24.695
1.56573
0.0094148
0.00386363
0.0103442
7.81179e-05
0.0732172
0.000455102
0.00121094
2.68814
0.560218
8.02549
0.380297
0.0127015
0.135595
0.0263545
0.000851249
9.61963e-06
0.00019317
9.81896e-06
4.98554e-05
0.000104068
7.94764e-05
4758.12
29404.6
7172.49
2085.29
636.785
2817.48
393.273
4.62093
92.1715
16.7694
1.90736
0.831792
5.39387
0.270701
335504
291501
277498
502681
348080
187138
583224
235972
462944
218593
409647
285355
270.415
38196.9
24149.9
13643.4
2466.26
1335.04
2908.29
74462.5
155126
154729
109499
229169
228390
110191
155429
78138
157618
109700
229902
228367
111265
160513
85128.2
163058
116787
232571
113653
235715
159410
146443
84460.3
120113
240411
238435
123317
84896.7
73718.5
56419.3
127986
241480
126019
240585
246590
639354
727182
352505
762959
361803
242440
13995.4
37393.9
18201.7
128814
136296
211896
112112
524.472
1292.89
5828.11
20534.8
49971
65965.5
8845.46
49.975
11.811
166.774
3317.04
56.3926
891.881
244.169
228385
165257
162261
286969
199981
206116
277464
325124
248822
476248
263112
489396
316498
208256
159405
156174
262149
193822
187652
269099
52582.3
125591
64269.9
256102
170496
180780
208615
80300.6
559364
91980
94458
169103
265016
20710.2
2447.88
19782
5484.87
31800.9
122782
59694
106633
81.1908
1463.37
323.572
7124.16
5812.21
21336.7
1339.18
0.934635
47.4768
4.67634
16.7126
1043.35
106.321
175.131
180664
690333
271389
379055
236939
644976
112757
64646.1
79327.9
69113.2
875.713
412212
15332.2
5317.23
181831
144800
142263
78071.7
112368
97581.1
138687
0.0284275
2.67613
230441
0.0211553
0.0597079
0.0126243
0.451779
0.17125
5.28237
5790.15
829.542
249061
282402
197585
43195.6
18526.8
0.0553065
0.0221932
0.00301593
0.0329836
0.00693418
0.00667477
0.0123616
0.0123505
0.00162351
0.00209977
0.00452445
0.0037609
0.0117987
0.00108465
0.00668205
0.00564646
0.0204486
0.0482908
0.776013
0.154407
0.0595062
0.0199448
0.276266
50.5257
10.2243
1.93529
62.3103
3.8608
122.618
23.4599
624.953
640.835
13182.5
2500.21
1344.94
262.21
7237.32
241854
168262
171375
297413
219342
212601
308495
161428
134356
148018
192515
146438
130495
156685
1.24019e-05
0.000161895
0.00285338
0.000132552
1.71595e-05
8.90903e-06
1.53571e-06
446.368
1.42278
37.5184
464.581
1.85418
92.2708
0.70764
0.622248
0.241942
0.0291474
3.35366
0.239396
0.127365
0.014903
0.00100854
0.00160943
7.37081e-05
0.0219968
0.00177717
0.00128425
0.000135602
1.97755e-06
3.14043e-06
3.16679e-07
0.000105542
6.62119e-06
8.72617e-06
1.70166e-06
7700.6
71.3987
4960.44
30.0089
146015
2524.37
0.400538
8160.91
0.341135
137.303
6.10702
0.462217
0.294631
0.0340077
0.549664
0.00272648
0.0476599
0.0410891
0.00395005
0.00311518
0.000307551
0.0032165
0.000226292
3.76254e-05
0.000271305
1.73739e-05
2.55238e-05
5.58732e-06
2183
3364.59
253.32
317.543
3130.17
235.965
2333.45
1904.11
266.906
2107.55
158.385
2686.28
202.139
1538.93
787.886
1501.29
113.193
83.0903
1147.93
969.379
73.7474
496.438
44.8135
294.147
24.0802
567.478
44.5154
288.789
64.0685
131.741
11.305
3.27993
148.442
49.6149
4.54908
22.4541
0.892922
3.68874
0.387358
15.1574
1.39761
6.23142
0.179171
0.658985
0.0671826
0.0070429
1.29605
0.0817491
0.00857166
0.016366
0.000621211
0.000849338
6.22762e-05
0.0070274
0.000734981
0.00116055
872.18
3745.03
84.8229
337.745
992.281
3918.6
72.1356
171.292
49.126
18.7527
2.25966
233.406
30.509
13.1653
0.824845
9.46044
0.105005
0.360743
1.72893
5.16566
0.0716961
0.116648
0.0389335
0.0152468
0.00221709
0.283585
0.0168463
0.009568
0.0095125
0.00460676
0.0442856
0.000433655
0.000784165
0.00211963
0.000205344
0.00033583
0.00424611
2.25112e-05
0.000255163
0.000410389
0.00178902
6.33433e-05
3.54739e-05
5.8488e-05
6.49157e-06
6.92184e-06
9.97511e-05
2.51784e-05
9.83027e-06
0.000172226
0.00251417
0.0603701
0.529818
0.0176509
0.0155014
0.00084543
287624
29781.4
201.733
298728
366025
228108
224320
192271
0.419235
1279.75
334758
7046.23
1381.04
23.9837
16.899
0.024135
0.500594
114.003
2.02753
0.624665
0.0700376
0.0393267
0.00222185
0.00037495
0.104824
0.0128094
0.00821165
0.00281649
19.3162
2765.32
36.2337
6.61487
325.311
101.244
1.61398
0.16463
0.0798655
0.910717
1.31005
2.60826
17.7866
0.130616
48882.2
3873.23
35413.3
1213.87
12698.8
1406.23
15635.7
16856
91431
10788
64365.3
25496.3
119513
86516.1
0.867801
0.195085
0.0491678
10.6044
0.576374
0.142603
0.0272865
0.239178
0.084431
0.0138457
0.613293
0.0802579
0.0233248
0.00457034
0.0192386
0.00492399
0.000974776
0.0308563
0.00339476
0.00105203
0.000180261
0.000317892
7.81839e-05
1.42427e-05
0.000136813
1.90095e-05
4.74906e-06
1.49816e-06
8.91188e-07
2.18599e-07
7.5408e-08
5.37533e-07
1.28799e-07
1.24652e-07
3.20724e-08
0.0153123
0.000895334
0.00493612
0.000323305
0.00104934
6.14535e-05
0.000514147
2.40771e-05
0.000488961
2.18579e-05
0.180756
0.0495837
0.013928
0.00917978
0.010108
0.426142
0.00235916
0.000132795
5.99584e-06
0.00480426
0.000246791
1.20596e-05
5.19067e-07
0.00330984
0.00024177
1.40685e-05
7.01562e-07
3.07336e-08
0.000134641
1.06766e-05
6.47022e-07
3.30328e-08
1.38243e-09
5.00811e-06
4.01735e-07
2.50438e-08
1.26602e-09
0
574516
654799
490347
348994
938547
897202
490266
1.3099e+06
450500
473123
633216
217517
37805.9
955473
905337
296.772
1.20187e+06
451013
411241
462265
536105
191568
9.64179
1.03518e+06
896987
1.71129
1.03595e+06
575944
268864
255937
360197
374781
48.5167
0.051423
1.0792e+06
961621
38849.8
0.0140565
1.05438e+06
845348
6567.62
102.308
6.7223
0.00406671
457298
552346
7297.43
0.393801
0.000779284
681287
773.334
0.343102
0.010551
0.000487845
288198
18917.2
0.00931499
0.00230367
0.000111407
0.375204
0.013282
0.000715867
3.63964e-05
156.426
0.464886
0.00284966
0.000176423
8.51467e-06
0.0355792
0.00198882
0.00015948
9.69159e-06
4.78554e-07
1.44653e+06
1.3822e+06
918468
1.33479e+06
976039
941641
928256
1.27379e+06
937629
1.45351e+06
1.35974e+06
778258
1.23481e+06
750364
478082
1.35484e+06
1.25199e+06
1.3183e+06
1.16294e+06
737633
1.08013e+06
702576
448814
1.0387e+06
1.19324e+06
1.22101e+06
1.18302e+06
1.21792e+06
977791
953378
1.09719e+06
864048
1.00599e+06
700857
913526
781302
1.10531e+06
1.13903e+06
936946
685368
895373
1.0476e+06
1.17851e+06
591651
825398
872246
860124
987933
1.12189e+06
910356
719012
368130
841534
707311
313862
856192
669655
104109
70.3412
579561
49348.6
1.14954e+06
949685
839966
880970
797611
698878
613726
703311
412539
627946
1.18408e+06
1.28977e+06
1.16773e+06
934431
1.24935e+06
918577
1.01301e+06
957538
1.15249e+06
828859
1.09681e+06
1.16463e+06
1.06685e+06
977157
990716
941689
975585
974090
907043
812223
794481
764328
472247
725158
737865
325119
348515
512336
485612
63601
727739
619762
102972
161.397
345948
25116.9
4.84392
187074
1945.69
14.3992
0.441645
366.953
0.117418
662886
517917
1.42378e+06
1.42761e+06
1.41256e+06
1.4069e+06
1.39273e+06
1.40368e+06
1.25261e+06
1.34826e+06
1.2228e+06
1.31694e+06
1.33546e+06
1.20662e+06
1.26662e+06
1.23862e+06
1.29688e+06
1.31015e+06
1.16829e+06
1.32485e+06
1.18844e+06
1.21967e+06
1.42874e+06
1.39731e+06
1.26459e+06
1.12439e+06
1.14748e+06
234712
761785
908486
356234
923474
356651
234477
1.38361e+06
1.32724e+06
1.36825e+06
1.29606e+06
1.29757e+06
1.3411e+06
1.27378e+06
1.21948e+06
234652
891887
356889
728094
234359
872801
360467
1.12339e+06
1.00855e+06
1.0384e+06
1.27957e+06
1.24276e+06
1.29577e+06
1.12358e+06
1.34739e+06
1.18139e+06
1.22018e+06
1.28937e+06
1.32027e+06
1.2683e+06
1.13786e+06
1.37701e+06
1.22938e+06
1.19663e+06
1.19954e+06
1.04929e+06
1.03271e+06
1.05426e+06
1.10852e+06
1.13695e+06
1.11509e+06
1.00454e+06
1.14581e+06
1.00883e+06
1.03666e+06
1.05565e+06
1.08901e+06
959814
948188
974310
958184
857934
1.02472e+06
908133
889263
1.19645e+06
1.04866e+06
1.12251e+06
1.23318e+06
1.04941e+06
1.12987e+06
992605
985412
1.05219e+06
248252
820023
368939
664313
247000
794657
367147
943801
858287
901688
1.08688e+06
1.20715e+06
1.21674e+06
1.07119e+06
1.2119e+06
1.09282e+06
1.09738e+06
934557
789982
872722
995665
833135
975730
967779
881837
868715
987041
985638
868637
1.01703e+06
1.16275e+06
1.0519e+06
1.03001e+06
1.10518e+06
1.06273e+06
972143
955823
959079
977232
847586
1.03293e+06
889976
906228
932799
939435
871234
808599
967629
894415
845412
882974
788030
701428
763948
825177
838465
806258
774772
892079
808876
801554
831288
829596
760270
587355
746296
487432
304165
753483
651632
183861
1.2451e+06
1.05161e+06
1.12295e+06
913787
1.05686e+06
951047
877662
1.00307e+06
921078
824935
859706
892936
757455
838697
768818
726888
798959
742463
368270
680572
379376
733958
306107
536444
322883
559920
362490
646675
235837
948175
361390
770998
937051
358604
238353
238729
716832
840897
367931
857398
364814
243474
509202
669211
758825
641848
502640
667075
767290
750045
729008
627220
900368
692570
713001
615937
637350
685468
528110
912600
189254
647045
403301
562567
615361
497918
473458
664314
657721
428180
625214
837117
414899
341512
869557
476128
49006.5
686550
252099
302316
54.995
662892
1380.47
373538
772428
844791
279578
264356
537693
225540
37096.9
821720
116156
203023
600.839
64239.5
53.4094
3.95991
60653.3
112.83
4.81824
0.17701
198.15
0.0887725
1.29142e+06
1.14715e+06
1.22471e+06
1.19406e+06
1.26598e+06
1.12481e+06
1.16554e+06
1.19566e+06
1.19531e+06
1.05608e+06
1.23456e+06
1.0958e+06
1.10055e+06
1.1364e+06
494940
644690
776713
570528
465607
626071
816648
0.0256468
0.474941
0.0228101
0.0356833
0.00465576
0.0227328
0.00166689
222895
131152
7.90439
0.0182303
0.000574802
1.03892e+06
1.38517e+06
982109
993228
2.03557e+06
985362
621158
1.14553e+06
874899
1.06865e+06
981594
1.79395e+06
403520
576846
617575
1.01493e+06
1.28208e+06
1.44741e+06
321416
473210
823025
257462
263804
431783
298.927
91747.3
0.132708
0.00667946
0.000587514
3.85042e-05
2.07123e-06
1.54361
0.00226176
0.000295188
2.63797e-05
1.7979e-06
9.87493e-08
0.00442259
0.000971784
8.93891e-05
7.01984e-06
4.39439e-07
2.26864e-08
9.8125e-05
1.17026e-05
1.026e-06
7.07514e-08
3.94357e-09
0.000168896
3.15145e-05
3.26776e-06
2.63579e-07
1.71422e-08
8.44011e-10
1.23631e+06
1.90496e+06
1.07166e+06
1.02194e+06
1.84812e+06
948437
1.79978e+06
996085
950164
1.72286e+06
2.28007e+06
2.08572e+06
1.8649e+06
994800
1.82911e+06
1.00117e+06
985493
1.71482e+06
955292
1.69918e+06
1.28038e+06
1.01364e+06
1.58691e+06
2.00912e+06
1.73579e+06
1.55399e+06
1.27788e+06
1.62879e+06
860157
1.22099e+06
1.29013e+06
1.51351e+06
1.61282e+06
1.25083e+06
1.81459e+06
1.98894e+06
1.77595e+06
2.52951e+06
2.45293e+06
1.61004e+06
1.71659e+06
1.54409e+06
2.00071e+06
1.81788e+06
1.3085e+06
1.33723e+06
1.21685e+06
1.33463e+06
1.19047e+06
456909
1.62067e+06
1.59728e+06
1.99381e+06
1.88216e+06
1.60162e+06
1.97182e+06
1.61228e+06
1.65263e+06
2.06723e+06
2.04432e+06
1.67553e+06
1.62964e+06
1.8632e+06
1.62746e+06
1.96371e+06
1.60866e+06
1.95945e+06
1.65263e+06
1.53349e+06
1.57349e+06
1.67924e+06
1.77532e+06
1.5738e+06
1.65478e+06
1.53673e+06
1.48254e+06
1.55795e+06
1.53734e+06
1.49039e+06
1.53616e+06
1.75109e+06
1.59245e+06
1.60427e+06
1.57693e+06
1.62964e+06
1.54333e+06
1.47757e+06
1.49387e+06
1.5171e+06
1.47302e+06
2.5406e+06
2.22434e+06
2.47579e+06
2.59823e+06
2.6645e+06
2.15747e+06
2.33305e+06
2.40276e+06
1.62145e+06
1.59043e+06
1.93057e+06
1.67144e+06
1.72696e+06
1.50401e+06
1.54988e+06
1.83211e+06
2.10347e+06
1.74852e+06
2.11017e+06
1.79e+06
1.67585e+06
1.96884e+06
1.80651e+06
1.71625e+06
1.72829e+06
1.94766e+06
1.87067e+06
1.97169e+06
2.06077e+06
1.84925e+06
1.81936e+06
1.77177e+06
1.72558e+06
1.84556e+06
1.74628e+06
1.90961e+06
1.80164e+06
1.56377e+06
1.62429e+06
1.58161e+06
1.67664e+06
1.55352e+06
1.65295e+06
1.55413e+06
1.46797e+06
1.46637e+06
1.47013e+06
1.43724e+06
1.55639e+06
1.64003e+06
1.62973e+06
1.46838e+06
1.65696e+06
1.51669e+06
1.52202e+06
1.45076e+06
1.35691e+06
1.4029e+06
1.4088e+06
2.25472e+06
1.92408e+06
2.1715e+06
2.17832e+06
2.3336e+06
1.83739e+06
1.94427e+06
2.07127e+06
1.45256e+06
1.3987e+06
1.63986e+06
1.39836e+06
1.47503e+06
1.26828e+06
1.33575e+06
1.64082e+06
1.84984e+06
1.77176e+06
1.69966e+06
1.62836e+06
1.66441e+06
1.7443e+06
1.5227e+06
1.73588e+06
1.56788e+06
1.6174e+06
1.47848e+06
1.39223e+06
1.5438e+06
1.3169e+06
1.49316e+06
1.40629e+06
1.32781e+06
1.34546e+06
1.45062e+06
1.48129e+06
1.34921e+06
1.38003e+06
1.56973e+06
1.403e+06
1.42209e+06
1.46098e+06
1.48176e+06
1.32024e+06
1.79824e+06
1.48408e+06
1.64652e+06
1.48642e+06
1.64655e+06
1.36146e+06
1.37101e+06
1.50315e+06
1.04294e+06
1.25003e+06
1.17087e+06
1.11743e+06
1.08336e+06
1.17759e+06
1.0745e+06
1.29265e+06
987516
1.11358e+06
1.01737e+06
716418
890143
685055
908036
698828
844154
676802
942511
1.09648e+06
886841
842404
717498
884901
766333
688573
821579
647777
698698
606135
661500
624920
613606
686104
801835
499253
499354
672328
806555
623887
458949
628974
751728
372814
316080
529145
574029
383988
221273
10473.5
2.11512
1.27974
0.026591
0.0151787
0.0022337
0.001171
356007
276655
263557
385424
360604
270322
181863
179790
343519
245697
239699
354613
256375
177213
174366
331913
226315
233271
320097
991602
881667
1.10085e+06
614329
446716
419756
820532
363355
398614
773672
342320
586390
1.25379e+06
3.09926e+06
2.83455e+06
2.21202e+06
1.41563e+06
2.14661e+06
2.16258e+06
2.8773e+06
2.2261e+06
2.10985e+06
2.42949e+06
1.95398e+06
1.42244e+06
1.5945e+06
781094
1.22349e+06
628531
870171
1.25933e+06
1.46578e+06
985825
2.81577e+06
3.01502e+06
2.74103e+06
2.75833e+06
1.9922e+06
1.25196e+06
418330
623508
389160
1.64515e+06
1.66475e+06
2.07456e+06
2.12649e+06
1.68149e+06
2.05378e+06
1.63296e+06
2.12178e+06
1.70118e+06
1.68498e+06
2.93781e+06
1.77587e+06
2.25509e+06
1.8632e+06
2.21577e+06
1.85191e+06
1.88825e+06
2.61508e+06
1.74711e+06
1.77838e+06
1.58644e+06
1.5984e+06
1.24768e+06
1.40994e+06
1.78618e+06
851974
1.02838e+06
1.15867e+06
1.07956e+06
957231
914642
1.03384e+06
777116
969284
752127
874227
825648
949972
720751
1.10351e+06
1.11487e+06
982242
1.47609e+06
1.28243e+06
1.30236e+06
1.13211e+06
1.03307e+06
1.16828e+06
1.35178e+06
2.20873e+06
1.27945e+06
2.25343e+06
3.39222e+06
3.17539e+06
1.14294e+06
2.34148e+06
1.01943e+06
2.21479e+06
3.15958e+06
2.67965e+06
1.01593e+06
2.02835e+06
828918
1.40106e+06
2.41538e+06
1.68019e+06
1.76172e+06
1.6991e+06
2.26576e+06
2.19079e+06
1.72266e+06
2.25176e+06
1.72934e+06
1.76014e+06
2.19102e+06
1.73147e+06
2.33957e+06
1.72306e+06
2.25774e+06
1.76277e+06
3.68873e+06
3.29954e+06
3.58969e+06
3.22138e+06
3.49624e+06
3.51619e+06
1.87321e+06
1.8024e+06
2.44783e+06
2.38103e+06
1.82643e+06
1.87534e+06
2.48657e+06
1.84827e+06
2.33773e+06
1.81102e+06
2.26818e+06
1.8781e+06
2.4257e+06
1.75175e+06
3.49968e+06
3.07317e+06
3.39818e+06
2.90899e+06
2.91282e+06
3.19701e+06
1.41546e+06
1.67899e+06
2.03876e+06
1.8148e+06
1.59458e+06
1.50444e+06
1.78809e+06
1.24356e+06
1.60189e+06
1.16622e+06
1.33222e+06
1.32698e+06
1.54724e+06
1.0893e+06
2.59977e+06
2.15597e+06
2.29072e+06
1.90914e+06
1.70982e+06
1.99128e+06
415854
466760
384748
641993
406210
669678
442856
1.16214e+06
702601
659484
1.15265e+06
822714
711884
956609
527508
587951
560814
578008
511249
602597
430081
980524
1.15975e+06
984640
1.11365e+06
983216
1.10855e+06
983640
794946
656359
798527
665942
818137
820095
667228
1.3377e+06
1.42742e+06
1.38103e+06
1.21908e+06
1.30341e+06
1.25638e+06
1.26635e+06
955354
761532
730383
709656
728897
1.00481e+06
924114
1.31219e+06
1.30878e+06
1.29101e+06
1.37168e+06
1.47948e+06
1.44077e+06
1.41099e+06
1.00405e+06
1.09367e+06
986362
1.15698e+06
993340
1.1022e+06
985190
664417
686192
838303
657319
807464
826894
673879
594639
588007
552421
567210
563814
518256
512565
1.32536e+06
1.24028e+06
1.21534e+06
1.18423e+06
1.15232e+06
1.21606e+06
1.12892e+06
1.13695e+06
1.28804e+06
1.24554e+06
1.3385e+06
1.29276e+06
1.17846e+06
1.22284e+06
1.31444e+06
1.21167e+06
1.30634e+06
1.33298e+06
1.30238e+06
1.39087e+06
1.32134e+06
534567
567613
503634
582005
543437
563378
507498
1.13401e+06
1.01458e+06
1.02118e+06
981371
1.08178e+06
1.06675e+06
985192
330912
381608
393916
510226
387674
479326
350795
864243
679473
702248
863583
703727
851460
723794
1.11161e+06
1.19024e+06
1.0526e+06
1.04338e+06
1.14499e+06
1.01372e+06
1.15622e+06
1.2163e+06
1.25567e+06
1.15962e+06
1.1874e+06
1.07742e+06
1.15029e+06
1.10466e+06
543210
518324
534061
473652
491097
484070
466211
1.12792e+06
1.09305e+06
1.2675e+06
1.23567e+06
1.19684e+06
1.29118e+06
1.26692e+06
1.00789e+06
1.03483e+06
1.00116e+06
936565
912618
906815
931957
1.05297e+06
914365
958303
977680
1.04623e+06
953996
908567
914309
718287
701294
698195
610813
699171
887552
581987
526879
581137
578424
577815
593957
502249
1.30137e+06
1.05073e+06
1.30624e+06
1.09852e+06
1.32453e+06
1.21667e+06
1.31897e+06
819125
688720
828283
828549
702673
815779
690196
1.03929e+06
978502
949801
1.07621e+06
1.01619e+06
982780
1.11619e+06
1.08266e+06
1.01268e+06
1.06886e+06
967156
1.11132e+06
986902
1.04794e+06
1.31245e+06
1.02812e+06
1.3031e+06
1.03233e+06
1.03334e+06
1.29986e+06
1.32503e+06
495240
449049
469267
507387
523311
476552
457927
1.27078e+06
1.17209e+06
1.29511e+06
1.12701e+06
1.28824e+06
1.04414e+06
1.26561e+06
1.11795e+06
1.02116e+06
1.01402e+06
1.02468e+06
960242
973369
1.04749e+06
1.02704e+06
895896
945612
968133
1.03762e+06
950439
902606
906948
971373
880835
1.02339e+06
989074
896288
921787
570445
390980
602408
564959
611726
396490
469217
897874
729655
818086
801600
869652
870058
743885
1.17442e+06
1.26019e+06
972224
945007
1.00281e+06
1.13481e+06
1.2328e+06
812620
705904
836354
831959
706131
813998
695885
569346
589297
569603
496019
494935
491903
496151
273014
258875
315213
363816
262194
342103
246394
978824
948022
971331
874528
890118
883295
867750
841928
887465
954458
948813
862515
924050
864123
918832
930575
997559
1.05068e+06
944817
959605