/*--------------------------------*- C++ -*----------------------------------*\
  =========                 |
  \\      /  F ield         | OpenFOAM: The Open Source CFD Toolbox
   \\    /   O peration     | Website:  https://openfoam.org
    \\  /    A nd           | Version:  9
     \\/     M anipulation  |
\*---------------------------------------------------------------------------*/
FoamFile
{
    format      ascii;
    class       volScalarField;
    location    "0.00245";
    object      rho.c4;
}
// * * * * * * * * * * * * * * * * * * * * * * * * * * * * * * * * * * * * * //

dimensions      [1 -3 0 0 0 0 0];

internalField   nonuniform List<scalar> 
20246
(
12.0636
2.30203e-10
4.01024e-10
2.22045e-16
2.22045e-16
8.15362e-08
2.36588e-12
2.22045e-16
0.00408537
3.99369
60.3909
84.6002
64.4693
0.00187687
3.151
37.5585
35.1075
0.0674352
0.00014039
40.5782
20.9309
22.0676
6.03097
24.2802
7.01469
11.9426
20.9535
8.78888
67.323
4.84747
3.04336
3.6977
7.55883
5.09193
6.56138
5.89812
40.0759
13.1353
13.4616
51.161
38.6863
48.5487
42.3983
30.4519
43.2285
28.6672
29.8602
38.5882
34.9297
21.653
7.77175
4.62366
6.01126
9.92418
11.8624
8.70174
13.4291
0.361638
46.4326
57.7029
66.2326
52.9486
45.3188
43.373
73.6825
27.3812
46.9925
66.5476
19.0015
77.5134
41.0963
37.4253
22.475
17.6407
29.3107
16.5243
31.2269
9.95068
34.7436
11.1516
85.859
8.03596
19.3498
20.1845
30.6812
117.432
0.0363082
9.0779e-12
4.28618e-10
0.859032
11.7721
1.6e-08
0.00076194
2.90813e-10
2.22045e-16
3.57918e-10
1.19601e-12
2.22045e-16
2.29583e-09
4.43473e-16
2.22045e-16
2.22045e-16
2.22045e-16
2.22045e-16
1.27221e-14
2.22045e-16
2.22045e-16
2.22045e-16
2.22045e-16
2.22045e-16
2.22045e-16
2.22045e-16
2.22045e-16
2.22045e-16
2.22045e-16
2.22045e-16
2.22045e-16
2.22045e-16
2.22045e-16
2.22045e-16
2.22045e-16
2.22045e-16
2.22045e-16
2.22045e-16
2.22045e-16
2.22045e-16
2.22045e-16
2.22045e-16
39.0328
0.000120907
0.00036321
3.77078e-15
1.31748e-13
0.071237
1.18872
4.8517e-11
9.63392e-07
1.96415e-13
2.22045e-16
8.61478e-12
3.86382e-14
2.22045e-16
1.40393e-10
2.22045e-16
2.22045e-16
2.22045e-16
2.22045e-16
2.22045e-16
2.22045e-16
2.22045e-16
2.22045e-16
2.22045e-16
2.22045e-16
2.22045e-16
2.22045e-16
2.22045e-16
2.22045e-16
2.22045e-16
2.22045e-16
2.22045e-16
2.22045e-16
2.22045e-16
2.22045e-16
2.22045e-16
2.22045e-16
2.22045e-16
2.22045e-16
2.22045e-16
2.22045e-16
2.22045e-16
2.22045e-16
2.22045e-16
135.843
7.08857e-11
2.22045e-16
2.22045e-16
8.71637e-08
1.06049e-07
2.22045e-16
7.48529e-11
2.22045e-16
2.22045e-16
2.22045e-16
2.22045e-16
2.22045e-16
8.89432e-16
2.22045e-16
2.22045e-16
2.22045e-16
2.22045e-16
2.22045e-16
2.22045e-16
2.22045e-16
2.22045e-16
2.22045e-16
2.22045e-16
2.22045e-16
2.22045e-16
2.22045e-16
2.22045e-16
2.22045e-16
2.22045e-16
2.22045e-16
2.22045e-16
2.22045e-16
2.22045e-16
2.22045e-16
2.22045e-16
2.22045e-16
2.22045e-16
2.22045e-16
2.22045e-16
2.22045e-16
2.22045e-16
2.22045e-16
0.00182469
2.22045e-16
6.62856e-08
2.22045e-16
2.22045e-16
2.22045e-16
2.22045e-16
8.65123e-08
3.36848e-14
2.22045e-16
2.22045e-16
2.22045e-16
2.22045e-16
2.75988e-14
2.22045e-16
2.22045e-16
2.22045e-16
2.22045e-16
2.22045e-16
2.22045e-16
2.22045e-16
2.22045e-16
2.22045e-16
2.22045e-16
2.22045e-16
2.22045e-16
2.22045e-16
2.22045e-16
2.22045e-16
2.22045e-16
2.22045e-16
2.22045e-16
2.22045e-16
2.22045e-16
2.22045e-16
2.22045e-16
2.22045e-16
2.22045e-16
2.22045e-16
2.22045e-16
2.22045e-16
2.22045e-16
2.22045e-16
53.1988
180.265
7.66048e-07
2.22045e-16
2.22045e-16
84.2508
4.29467
9.15018e-12
2.22045e-16
2.22045e-16
2.22045e-16
7.59628e-08
1.10448e-14
2.22045e-16
2.22045e-16
2.22045e-16
2.22045e-16
2.13688e-15
2.22045e-16
2.22045e-16
2.22045e-16
2.22045e-16
2.22045e-16
2.22045e-16
2.22045e-16
2.22045e-16
2.22045e-16
2.22045e-16
2.22045e-16
2.22045e-16
2.22045e-16
2.22045e-16
2.22045e-16
2.22045e-16
2.22045e-16
2.22045e-16
2.22045e-16
2.22045e-16
2.22045e-16
2.22045e-16
2.22045e-16
2.22045e-16
2.22045e-16
2.22045e-16
2.22045e-16
2.22045e-16
2.22045e-16
36.9597
0.00171408
8.17755e-13
2.22045e-16
2.22045e-16
2.22045e-16
1.06533e-08
1.46691e-08
2.22045e-16
2.22045e-16
2.22045e-16
2.22045e-16
2.67394e-11
2.22045e-16
2.22045e-16
2.22045e-16
2.22045e-16
2.22045e-16
2.22045e-16
2.22045e-16
2.22045e-16
2.22045e-16
2.22045e-16
2.22045e-16
2.22045e-16
2.22045e-16
2.22045e-16
2.22045e-16
2.22045e-16
2.22045e-16
2.22045e-16
2.22045e-16
2.22045e-16
2.22045e-16
2.22045e-16
2.22045e-16
2.22045e-16
2.22045e-16
2.22045e-16
2.22045e-16
2.22045e-16
2.22045e-16
2.22045e-16
2.22045e-16
2.22045e-16
2.22045e-16
2.22045e-16
2.22045e-16
1.67125e-10
7.24491e-13
2.22045e-16
2.22045e-16
2.22045e-16
2.22045e-16
4.11783e-12
2.22045e-16
2.22045e-16
2.22045e-16
2.22045e-16
2.22045e-16
2.22045e-16
2.22045e-16
2.22045e-16
2.22045e-16
2.22045e-16
2.22045e-16
2.22045e-16
2.22045e-16
2.22045e-16
2.22045e-16
2.22045e-16
2.22045e-16
2.22045e-16
2.22045e-16
2.22045e-16
2.22045e-16
2.22045e-16
2.22045e-16
2.22045e-16
2.22045e-16
2.22045e-16
2.22045e-16
2.22045e-16
2.22045e-16
2.22045e-16
2.22045e-16
2.22045e-16
2.22045e-16
2.22045e-16
2.22045e-16
2.22045e-16
2.22045e-16
2.22045e-16
2.22045e-16
2.22045e-16
2.22045e-16
4.85927e-12
2.22045e-16
2.22045e-16
2.22045e-16
2.22045e-16
2.22045e-16
2.22045e-16
2.22045e-16
2.22045e-16
2.22045e-16
2.22045e-16
2.22045e-16
2.22045e-16
2.22045e-16
2.22045e-16
2.22045e-16
2.22045e-16
2.22045e-16
2.22045e-16
2.22045e-16
2.22045e-16
2.22045e-16
2.22045e-16
2.22045e-16
2.22045e-16
2.22045e-16
2.22045e-16
2.22045e-16
2.22045e-16
2.22045e-16
2.22045e-16
2.22045e-16
2.22045e-16
2.22045e-16
2.22045e-16
2.22045e-16
2.22045e-16
2.22045e-16
2.22045e-16
2.22045e-16
2.22045e-16
2.22045e-16
2.22045e-16
2.22045e-16
2.22045e-16
2.22045e-16
2.22045e-16
2.22045e-16
2.22045e-16
2.22045e-16
2.22045e-16
2.22045e-16
2.22045e-16
2.22045e-16
2.22045e-16
2.22045e-16
2.22045e-16
2.22045e-16
2.22045e-16
2.22045e-16
2.22045e-16
2.22045e-16
2.22045e-16
2.22045e-16
2.22045e-16
2.22045e-16
2.22045e-16
2.22045e-16
2.22045e-16
2.22045e-16
2.22045e-16
2.22045e-16
2.22045e-16
2.22045e-16
2.22045e-16
2.22045e-16
2.22045e-16
2.22045e-16
2.22045e-16
2.22045e-16
2.22045e-16
2.22045e-16
2.22045e-16
2.22045e-16
2.22045e-16
2.22045e-16
2.22045e-16
2.22045e-16
2.22045e-16
2.22045e-16
2.22045e-16
2.22045e-16
2.22045e-16
2.22045e-16
2.22045e-16
2.22045e-16
2.22045e-16
2.22045e-16
2.22045e-16
2.22045e-16
2.22045e-16
2.22045e-16
2.22045e-16
2.22045e-16
2.22045e-16
2.22045e-16
2.22045e-16
2.22045e-16
2.22045e-16
2.22045e-16
2.22045e-16
2.22045e-16
2.22045e-16
2.22045e-16
2.22045e-16
2.22045e-16
2.22045e-16
2.22045e-16
2.22045e-16
2.22045e-16
2.22045e-16
2.22045e-16
2.22045e-16
2.22045e-16
2.22045e-16
2.22045e-16
2.22045e-16
2.22045e-16
2.22045e-16
2.22045e-16
2.22045e-16
2.22045e-16
2.22045e-16
2.22045e-16
2.22045e-16
2.22045e-16
2.22045e-16
2.22045e-16
2.22045e-16
2.22045e-16
2.22045e-16
2.22045e-16
2.22045e-16
2.22045e-16
0.000115764
3.19867e-11
1.56163e-05
8.25982e-12
2.22045e-16
2.22045e-16
2.22045e-16
2.22045e-16
2.22045e-16
0.0046708
2.22045e-16
0.000562656
15.2928
6.14407
64.5436
15.8831
1.98165
64.6179
74.5011
78.1231
0.0736789
31.8952
75.0746
76.6564
0.00480941
4.2235e-06
0.0152795
1.51349e-06
0.0122373
6.72403e-07
0.00651246
3.10448e-07
2.22045e-16
3.23977e-12
2.30976e-16
6.91661e-13
2.22045e-16
3.0928e-13
2.22045e-16
0.000325034
2.22045e-16
1.60389e-09
3.02429e-11
4.9936e-05
2.22045e-16
6.14755e-11
23.3476
0.000346911
7.41422e-05
0.882223
10.5599
4.99164e-05
4.04888e-05
5.49045e-07
4.49805e-14
2.22045e-16
2.22045e-16
2.22045e-16
2.22045e-16
2.22045e-16
2.22045e-16
5.20294e-05
2.22045e-16
1.76419e-10
19.6094
0.412105
68.1621
30.3305
5.74877e-05
9.2638
105.808
80.5812
0.00193713
85.3643
76.2272
1.51929
0.000433205
1.05876e-08
0.000387228
2.16984e-09
3.49963e-11
1.34248e-06
5.45942e-12
2.22045e-16
2.91272e-16
2.22045e-16
2.22045e-16
2.22045e-16
2.22045e-16
2.22045e-16
9.26681e-07
2.22045e-16
2.80315e-13
2.22045e-16
6.155e-10
2.22045e-16
2.22045e-16
4.85339
9.28689e-07
1.40758e-05
0.000524315
0.0238879
6.21755e-10
1.21692e-06
2.22045e-16
1.44618e-14
2.22045e-16
2.22045e-16
2.22045e-16
2.22045e-16
2.22045e-16
2.38013e-13
2.22045e-16
2.22045e-16
70.1362
4.02691e-07
1.08471
145.031
2.22045e-16
8.76233e-08
7.6443
0.0255963
0.000145197
82.0943
3.19655e-06
8.08917e-05
5.45892e-10
1.34187e-13
1.61594e-08
3.9005e-15
6.60956e-11
5.73494e-11
2.22045e-16
2.22045e-16
2.22045e-16
2.22045e-16
8.30187e-15
2.22045e-16
2.22045e-16
2.22045e-16
4.82961e-15
2.22045e-16
2.22045e-16
2.22045e-16
2.22045e-16
2.22045e-16
2.22045e-16
0.000152366
4.85282e-15
7.95883e-11
5.19687e-14
1.75967e-09
2.22045e-16
2.22045e-16
3.83485e-08
88.5202
4.83352e-12
2.22045e-16
37.2633
1.79021e-06
2.22045e-16
2.22045e-16
7.87068e-11
2.22045e-16
121.07
2.22045e-16
2.4814e-12
7.75916e-09
2.22045e-16
2.22045e-16
5.83206e-09
6.3514e-10
4.18339e-16
1.26402e-08
1.06279e-15
2.80297e-16
2.22045e-16
5.28198e-05
1.39402e-05
1.07806e-10
54.1338
0.0250401
1.37152e-05
2.65095e-14
8.18372e-14
2.22045e-16
0.078776
1.05166e-07
8.22055e-08
5.72616e-14
2.22045e-16
2.22045e-16
2.22045e-16
1.98004e-14
2.22045e-16
2.22045e-16
2.22045e-16
2.22045e-16
2.22045e-16
2.22045e-16
2.22045e-16
2.22045e-16
2.22045e-16
2.22045e-16
113.439
105.027
0.00434537
112.258
147.332
2.62831
0.000174113
2.79245
2.65238e-06
2.22045e-16
0.211134
1.68584e-06
8.25391e-07
5.12152e-12
2.22045e-16
2.22045e-16
2.22045e-16
8.24703e-11
2.22045e-16
2.22045e-16
2.22045e-16
51.8602
120.789
0.000311597
288.555
9.92451e-13
52.8617
321.27
4.22454e-16
2.22045e-16
13.6842
1.55885
1.15369e-07
2.22045e-16
2.22045e-16
2.22045e-16
96.0703
23.9421
1.88121e-13
2.22045e-16
2.22045e-16
2.22045e-16
3.69988e-05
1.73473e-15
2.22045e-16
2.22045e-16
2.22045e-16
2.22045e-16
2.22045e-16
2.22045e-16
2.22045e-16
2.22045e-16
2.22045e-16
2.22045e-16
2.22045e-16
2.22045e-16
2.22045e-16
2.22045e-16
2.22045e-16
2.22045e-16
7.88845
8.32282
20.4519
11.0959
28.1159
21.3501
17.9191
29.7266
10.6001
17.3308
40.3417
17.5636
39.747
98.5451
30.8571
96.5175
45.8026
75.0286
107.107
136.57
73.6398
171.474
69.4833
273.164
121.747
215.093
137.412
236.057
382.827
0.00259815
26.4792
10.8235
0.00011604
89.7514
7.08786e-08
1.68796e-06
1.65952e-08
12.2812
13.2203
28.5759
81.2258
21.7336
91.6011
28.5338
144.476
215.915
166.053
263.891
149.832
265.36
70.2641
0.00122932
70.9017
0.065192
9.85457e-16
272.774
5.03339e-07
1.38744e-05
8.81535e-11
50.8109
21.3196
79.7861
97.9124
81.8386
42.4877
66.3944
106.371
71.0651
95.36
82.4726
73.5745
171.92
217.995
0.111896
59.9784
3.71364
16.7486
3.55239e-12
0.00136882
9.38272e-08
2.22045e-16
1.96698e-09
5.66171e-15
1.51178e-13
7.46901e-11
1.40178e-07
1.15484e-05
0.000105913
1.06559e-07
6.81024e-06
1.40637e-10
2.22045e-16
2.22045e-16
2.51746e-10
2.00328e-11
2.22045e-16
1.84916e-10
3.43232e-16
3.82386e-11
3.40981e-05
4.87566e-09
7.55907e-07
4.16739e-08
5.36509e-06
3.10686e-12
2.22045e-16
8.25986e-12
2.22045e-16
1.15054e-11
2.22045e-16
4.67014e-11
2.22045e-16
2.22045e-16
2.22045e-16
2.22045e-16
2.22045e-16
2.22045e-16
2.22045e-16
2.22045e-16
2.22045e-16
2.22045e-16
2.22045e-16
2.22045e-16
2.22045e-16
2.22045e-16
2.22045e-16
2.22045e-16
2.22045e-16
2.22045e-16
2.22045e-16
2.22045e-16
2.22045e-16
2.22045e-16
2.22045e-16
2.22045e-16
2.22045e-16
2.22045e-16
2.22045e-16
2.22045e-16
2.22045e-16
7.18441e-11
2.22045e-16
5.16231e-14
2.22045e-16
2.22045e-16
3.6765e-14
9.88641e-11
3.57199e-05
0.508889
9.37309e-08
0.00385309
0.417245
7.23002e-08
4.65489e-05
2.69657e-11
2.22045e-16
2.22045e-16
1.01575e-15
2.22045e-16
9.95221e-15
4.2304e-12
1.63536e-05
0.00206736
0.0778178
4.513e-09
0.226656
2.72119e-08
3.96526e-06
15.3717
20.8742
20.9638
26.966
34.2087
34.1149
27.0004
48.6569
46.2083
59.1571
5.53739
43.3968
58.7585
48.9093
21.6361
17.1854
23.3335
27.4339
36.4346
34.6049
29.0772
48.7552
3.99332
25.1675
60.9678
36.042
58.8527
50.5395
2.04508e-14
1.70541e-10
5.12816e-08
1.56697e-13
1.66253e-08
2.22045e-16
2.22045e-16
2.02919e-13
4.45403e-15
2.22045e-16
2.22045e-16
6.68803e-14
2.22045e-16
2.22045e-16
2.22045e-16
2.22045e-16
2.22045e-16
4.15559e-16
2.22045e-16
2.22045e-16
2.22045e-16
2.22045e-16
2.22045e-16
2.22045e-16
2.22045e-16
2.22045e-16
2.22045e-16
2.22045e-16
2.22045e-16
2.22045e-16
2.22045e-16
2.22045e-16
2.22045e-16
2.22045e-16
2.22045e-16
2.22045e-16
2.22045e-16
2.22045e-16
2.22045e-16
2.22045e-16
2.22045e-16
2.22045e-16
2.22045e-16
2.22045e-16
2.22045e-16
2.22045e-16
2.22045e-16
3.82603e-15
2.22045e-16
2.22045e-16
2.22045e-16
2.34349e-13
2.22045e-16
2.22045e-16
2.4314e-08
0.0197687
1.78814e-10
2.43018e-06
4.89647e-07
0.00289061
4.60795e-12
2.22045e-16
2.22045e-16
2.22045e-16
2.22045e-16
2.22045e-16
2.22045e-16
2.22045e-16
2.88868e-10
3.21802e-08
2.07852e-06
2.22045e-16
0.000146991
1.00853e-14
1.15846e-12
26.4442
23.7345
31.4598
38.3421
40.277
32.5107
46.7203
63.0552
14.0984
45.5851
0.0487669
55.1725
5.87373
19.2454
39.2547
51.2798
40.1334
47.6736
72.6049
56.8881
61.8518
76.255
0.0026475
0.0653866
0.451947
1.35314
4.52918
32.413
2.22045e-16
2.22045e-16
2.22045e-16
2.22045e-16
2.22045e-16
2.22045e-16
2.22045e-16
5.77388e-15
2.22045e-16
1.41769e-11
5.89077e-11
2.22045e-16
2.22045e-16
3.19038e-08
2.22045e-16
2.22045e-16
2.22045e-16
2.22045e-16
2.22045e-16
2.22045e-16
2.22045e-16
2.22045e-16
2.22045e-16
2.22045e-16
2.22045e-16
2.22045e-16
2.22045e-16
2.22045e-16
2.22045e-16
2.22045e-16
2.2961e-15
2.22045e-16
2.22045e-16
2.22045e-16
2.22045e-16
2.22045e-16
2.22045e-16
2.22045e-16
2.22045e-16
2.22045e-16
2.22045e-16
2.22045e-16
2.22045e-16
2.22045e-16
2.22045e-16
2.22045e-16
2.22045e-16
2.22045e-16
2.22045e-16
2.22045e-16
1.66514e-08
2.22045e-16
2.22045e-16
1.7827e-15
3.29605e-11
2.22045e-16
2.22045e-16
2.22045e-16
2.22045e-16
2.22045e-16
2.22045e-16
2.22045e-16
2.22045e-16
2.22045e-16
2.22045e-16
2.22045e-16
2.22045e-16
9.2979e-15
2.22045e-16
2.22045e-16
100.305
55.6446
80.6357
114.467
96.4632
83.1533
129.328
0.478415
0.00273842
0.0170132
8.19686e-10
7.40661
3.0972e-05
0.000190825
200.428
120.178
177.583
153.961
24.7685
169.427
68.6515
0.0102868
2.22585e-13
1.01973e-11
6.31003e-11
7.89024e-08
4.84461e-07
1.36416e-05
6.91055
1.31794e-05
2.77733e-05
0.00328617
0.00346554
0.262099
0.348541
74.3529
6.83281
80.4326
72.9151
56.585
55.6553
64.0868
3.72664e-06
1.91726e-08
1.26369e-13
4.11009e-06
2.14062e-12
0.00299993
7.63355e-10
1.04298e-09
2.22045e-16
2.22045e-16
2.22045e-16
2.22045e-16
4.11049e-14
1.71444e-14
0.118429
0.0878353
98.6629
1.07354
7.837
0.000177524
53.754
0.000416705
3.52433e-12
0.0209811
0.00336969
2.29041e-07
4.45376e-08
2.83818
2.22045e-16
2.22045e-16
2.22045e-16
2.22045e-16
2.22045e-16
2.22045e-16
2.22045e-16
2.22045e-16
2.22045e-16
2.22045e-16
2.22045e-16
2.22045e-16
2.22045e-16
2.22045e-16
2.22045e-16
2.22045e-16
1.28967e-05
8.15436e-16
1.00818e-11
2.22045e-16
2.43681e-09
2.22045e-16
2.22045e-16
2.22045e-16
2.22045e-16
2.22045e-16
2.22045e-16
7.93582e-14
3.50517
30.6156
241.761
0.0115627
0.248759
4.91751
0.000204916
2.19923e-14
2.22045e-16
7.99038e-16
2.22045e-16
3.13692e-09
2.22045e-16
2.22045e-16
0.00139988
5.41266e-06
0.0881352
1.03974e-06
2.66384e-15
2.5688e-09
1.57455e-12
2.22045e-16
2.22045e-16
2.22045e-16
2.22045e-16
2.22045e-16
2.22045e-16
2.22045e-16
145.769
97.1367
132.926
130.158
150.51
122.125
157.658
0.00566318
34.3854
0.577764
0.000182717
1.54967e-05
0.0181577
2.46967e-08
21.2574
10.2423
14.6683
21.3159
14.3915
156.078
81.6901
59.9384
85.3249
100.674
140.65
95.704
141.307
371.828
339.098
348.645
376.348
379.524
346.803
7.97235
11.6015
11.7047
5.08609
7.48736
7.56081
5.03094
12.1751
9.13177
13.2895
5.30055
8.52802
7.84838
5.79885
15.3216
13.1851
18.6204
8.09556
9.75515
6.69102
11.7076
23.847
32.2614
23.386
10.267
19.5476
14.7102
13.7071
68.3084
33.1752
49.7445
28.6491
27.6763
19.2013
42.0865
31.4221
46.4313
54.8813
83.5105
37.2852
47.6671
53.6069
166.123
78.541
128.405
46.3014
121.417
69.8017
80.8447
304.105
291.704
204.648
246.93
198.217
146.348
282.005
10.754
0.263928
91.2296
339.586
13.0078
347.828
155.184
18.0657
8.9336
13.3395
8.83846
8.35776
6.11446
11.9912
33.426
36.0281
51.8477
22.4315
32.3438
55.7349
48.1901
21.1424
35.4938
27.7171
12.1611
19.0242
17.4839
122.756
60.9079
97.9422
47.3716
57.0283
32.0339
83.5456
225.901
130.785
257.322
300.867
165.833
221.215
294.555
210.642
143.311
196.506
188.516
97.2321
150.879
134.452
20.7039
257.22
191.665
245.306
298.377
222.164
305.371
7.9575e-06
11.5051
0.020296
0.304933
353.423
49.6608
77.4583
189.916
88.349
155.476
257.679
99.3163
159.583
261.569
314.988
357.347
375.024
378.802
292.138
342.946
374.252
33.042
17.4087
26.8785
50.7595
34.9065
59.4518
40.0657
2.52094e-07
0.0728358
13.7591
5.79902e-10
8.05856e-06
1.615e-11
1.38264e-05
1.00101e-05
0.179805
47.324
58.8755
6.83378
9.49494
10.4133
52.7735
77.8433
7.09619e-08
5.10346e-12
3.7191e-16
4.18714e-09
1.72308e-15
4.2373e-11
1.11826e-13
4.1989e-10
2.22045e-16
2.22045e-16
2.22045e-16
1.02279e-12
2.33161e-12
2.22045e-16
9.54227e-16
4.11911e-13
7.96676e-12
1.11485e-10
0.000927799
8.92232e-08
5.73541e-09
2.31849e-11
6.54521e-06
34.0583
2.9701
0.00496807
35.3875
0.119239
58.2074
7.04862
60.8419
53.3284
38.0125
59.2991
48.7598
65.2168
49.8081
8.90282
6.39831
4.85124
6.82541
3.72579
4.6906
5.44114
18.6981
16.5817
8.18149
14.5722
11.6792
23.8646
26.8988
2.22045e-16
2.22045e-16
2.66298e-16
2.22045e-16
2.22045e-16
2.22045e-16
2.22045e-16
72.7924
0.00115845
7.06051
88.5742
0.00213259
19.1434
5.6487e-05
2.3961e-05
5.29355e-08
8.82607e-12
0.000565859
1.3491e-08
3.3359e-09
5.34718e-15
2.22045e-16
2.22045e-16
2.22045e-16
1.13713e-13
2.22045e-16
2.22045e-16
2.22045e-16
2.22045e-16
2.22045e-16
2.22045e-16
2.22045e-16
2.22045e-16
2.22045e-16
2.22045e-16
97.4027
14.811
103.302
1.46131
88.222
110.129
6.41706e-06
128.998
2.82786e-07
31.6685
0.00354422
5.78441e-07
4.67557e-08
1.29399e-13
4.61448e-06
2.22045e-16
4.61355e-11
1.1537e-12
2.22045e-16
2.22045e-16
2.22045e-16
2.22045e-16
2.22045e-16
2.22045e-16
2.22045e-16
2.22045e-16
2.22045e-16
2.22045e-16
41.0473
49.2171
56.7187
64.0134
48.9282
56.3233
41.2155
41.3405
63.5672
50.7839
57.6045
49.07
56.1235
43.19
54.9416
55.1548
61.624
75.0149
47.5336
62.9001
68.7954
66.5779
32.8183
92.1669
13.5542
75.3788
39.4788
83.2649
44.8909
107.186
2.7885
0.0209192
105.903
24.8515
0.0816239
7.67872
0.00014267
0.0120935
2.27737e-06
2.13072
0.00169882
0.108664
5.5663e-08
6.11324e-06
5.16824e-10
2.72841e-16
0.000444249
1.86435e-10
3.62517e-15
1.70822e-13
2.22045e-16
2.22045e-16
2.22045e-16
2.22045e-16
2.22045e-16
2.22045e-16
119.163
92.1895
27.8473
110.36
112.576
100.455
16.3701
61.5681
11.3638
1.00671
0.000325271
112.842
2.80633
0.158261
2.85882e-06
0.0994024
5.06993e-10
6.00713e-08
0.000341559
0.00739443
2.61532e-12
2.20953e-10
6.73739e-12
1.64076e-14
2.22045e-16
1.38429e-07
2.19194e-15
2.22045e-16
5.18962e-16
2.22045e-16
7.40763e-12
2.22045e-16
2.22045e-16
2.22045e-16
2.22045e-16
2.22045e-16
2.22045e-16
2.22045e-16
2.22045e-16
2.22045e-16
2.22045e-16
2.22045e-16
2.22045e-16
2.22045e-16
2.22045e-16
2.22045e-16
2.22045e-16
2.22045e-16
2.22045e-16
2.22045e-16
2.22045e-16
7.16954e-09
1.77153e-06
2.81334e-13
5.68928e-13
2.22045e-16
23.86
100.561
62.2215
38.9067
27.9712
71.8689
89.8952
97.4795
2.99572e-05
151.579
68.0324
155.689
135.407
2.20318
0.151128
3.61006e-11
2.99412e-05
39.0236
0.00101165
5.84638e-06
4.90961e-10
1.02661e-10
2.22045e-16
2.22045e-16
1.22623e-08
3.85443e-13
3.38329e-15
2.22045e-16
0.451855
388.325
5.03882
0.0366733
191.687
35.3843
0.000236877
6.98286e-09
2.52368e-11
1.50484e-05
2.66277e-05
0.00154594
0.480034
2.05277e-09
64.0041
72.9251
56.2154
88.1481
72.9445
94.4775
81.7758
65.667
47.6555
59.0858
42.1776
47.2601
34.1032
30.8755
0.00188768
2.0972e-06
1.49178e-08
4.05761
0.000735424
1.06557e-06
9.43293e-10
4.88458e-06
4.09245e-07
2.04955e-12
0.00148484
1.22349e-08
1.72522e-09
2.21467e-15
3.7287e-11
6.00453e-15
2.22045e-16
4.50845e-10
2.22045e-16
2.22045e-16
2.22045e-16
2.22045e-16
2.22045e-16
2.22045e-16
2.22045e-16
2.22045e-16
2.22045e-16
2.22045e-16
2.22045e-16
2.22045e-16
2.22045e-16
2.22045e-16
2.22045e-16
2.22045e-16
2.22045e-16
7.43575e-08
1.32809e-14
1.69504e-10
2.22045e-16
4.5783e-15
2.22045e-16
2.22045e-16
2.22045e-16
2.22045e-16
2.22045e-16
0.000410999
1.26493e-05
7.58623e-09
1.8395e-11
5.42446e-13
1.38981e-05
2.00582e-15
2.22045e-16
2.22045e-16
2.04015e-14
2.22045e-16
2.22045e-16
2.22045e-16
1.54995e-14
2.22045e-16
2.22045e-16
2.22045e-16
2.22045e-16
2.22045e-16
2.22045e-16
2.22045e-16
2.22045e-16
2.22045e-16
2.22045e-16
2.22045e-16
2.22045e-16
2.22045e-16
2.22045e-16
3.15514
3.14799
5.33198
12.1001
4.8519
7.4457
48.3386
6.39069
9.4129
8.87327
4.30587
56.6882
65.8444
6.06854
10.5842
128.2
8.14361
14.0568
4.92021
10.66
8.42873
77.5895
1.37095
14.8446
58.6077
0.00155118
17.5369
43.308
19.938
25.4515
6.40559
12.8962
16.8808
1.00762e-08
14.3303
66.3808
309.899
2.6078e-13
18.9996
49.7217
67.7579
43.53
0.309911
6.41841e-14
12.5981
31.6824
112.135
2.54721e-07
2.22045e-16
11.8665
67.1072
1.37092e-06
8.65511e-13
2.22045e-16
25.601
96.3161
2.97695e-11
2.22045e-16
2.22045e-16
4.01501e-06
7.31094e-12
2.22045e-16
2.22045e-16
64.1928
6.06941e-06
2.22045e-16
2.22045e-16
2.22045e-16
6.89375e-10
2.22045e-16
2.22045e-16
2.22045e-16
2.22045e-16
5.28158
6.0994
6.45158
6.16595
7.93538
5.04294
7.31992
7.00133
8.88454
5.42732
6.26094
7.60724
7.26046
8.55547
14.1272
6.91704
12.2527
7.10737
12.7448
9.56795
14.0894
17.215
22.852
12.5185
15.3288
13.905
17.3689
16.2462
29.8555
36.3097
17.1853
29.0248
44.9608
196.81
36.771
60.6144
15.9009
16.973
30.0989
22.8763
35.8659
11.4152
14.5393
8.37918
12.2327
10.7968
25.7875
39.9733
18.3639
38.7057
24.7265
101.825
37.703
133.359
292.145
51.944
175.127
144.144
20.3156
217.522
374.311
14.8822
11.2288
26.8012
38.052
37.9377
125.401
203.336
8.99862
16.6331
34.4642
7.34956
6.50957
7.48811
8.35671
7.85078
9.93471
11.0372
21.5139
13.6838
18.9975
9.20395
9.50379
10.6128
19.4417
21.9759
24.877
24.033
21.788
28.3832
66.4407
73.1204
105.599
20.6743
12.3849
35.9363
17.9941
25.5617
20.8239
95.753
98.9498
56.2665
140.096
90.5506
49.5972
154.15
253.627
0.0097143
325.006
382.492
0.19924
1.0401e-06
193.427
1.24442e-07
16.2106
14.8581
4.95719
5.38872
5.05589
5.61674
5.74141
5.27738
6.66166
5.7376
7.00273
6.27935
5.83925
7.13086
6.54977
6.88699
6.50937
6.52532
7.90171
6.05922
7.37508
7.36678
5.53324
5.76659
6.74784
8.28777
7.74247
4.97876
7.98571
7.81596
7.34511
7.30249
6.83475
5.34294
6.51414
8.1584
7.67211
9.90631
11.587
9.32273
8.42139
10.2764
7.07392
8.70832
8.25782
11.1758
6.00926
10.121
9.71562
11.4479
15.5351
12.6602
15.762
14.5595
13.6305
19.1993
12.8854
18.3124
16.8221
15.6928
14.4313
14.5047
19.9799
13.0364
17.2406
18.0112
18.9614
23.8915
29.0883
24.45
22.9811
20.374
22.7228
25.4443
16.495
19.2273
21.7956
19.0012
21.4009
24.7326
35.4377
27.9078
38.2509
46.8288
28.1285
33.0564
52.619
14.0771
19.8364
17.4305
15.0572
20.9593
18.0637
24.5572
25.3024
21.2211
20.7687
20.0395
20.7872
31.639
14.967
26.9187
30.2158
27.6987
45.0715
32.6722
11.8736
13.0633
11.5969
16.5407
10.6034
14.9176
13.0038
10.9951
10.2604
13.9289
11.8523
13.0911
13.8791
19.8419
23.9532
18.5167
18.0926
15.1636
17.2203
26.1964
16.3655
23.3238
21.4256
21.0805
19.3354
28.3163
37.4059
38.6274
29.7631
54.4756
27.9858
56.4032
38.6257
36.5144
26.8743
35.8356
56.2333
24.9222
37.9553
56.1345
56.0504
81.6814
148.302
85.314
88.6553
55.2712
90.3507
137.114
55.9774
70.3554
77.4464
82.563
87.0288
113.213
239.165
124.519
247.372
329.516
144.115
199.386
350.876
11.7221
16.8444
13.154
14.5499
11.9787
20.1272
19.4281
15.3959
30.055
52.4354
37.9697
26.9038
55.0153
37.3447
77.305
81.3478
53.4087
116.373
318.66
185.335
7.90861
7.00808
7.47385
10.9314
5.6376
8.34842
10.4296
23.098
4.81802
6.93933
6.55335
7.73594
7.06967
6.62041
4.75495
8.71515
13.5944
15.3583
15.3154
12.2398
11.9217
11.2205
4.68938
3.94772
5.8559
3.74794
5.02139
4.13754
6.66706
24.2207
11.4979
16.7978
8.81836
32.2174
12.1545
17.6506
42.9391
15.4615
38.4137
33.4261
135.228
24.5768
101.127
7.64356
8.85069
6.20892
6.89133
9.37821
11.9048
23.585
13.0943
33.65
10.0343
48.7981
36.5363
160.991
175.846
48.1757
148.135
289.778
15.5924
77.6997
291.373
8.11016
10.9732
29.2532
8.79985
24.1651
17.7351
53.8891
60.9677
46.9842
176.252
40.1029
50.3273
71.5384
11.194
0.00981765
314.792
36.7759
0.0145965
2.10756e-07
84.4428
3.00997e-08
7.31112
8.8089
9.16179
8.18959
8.52289
10.2309
9.4996
11.0617
12.9076
15.2382
10.3248
12.3212
14.5772
11.5363
6.29421
5.91718
7.62874
7.94568
10.4323
7.40029
20.1351
3.27861e-13
1.10846e-06
4.9523e-13
8.64775e-13
3.80157e-14
4.41868e-13
2.22045e-16
31.903
50.3207
1.12761
3.73181e-08
1.35456e-15
1.69113
1.22684
1.94686
2.67134
3.13989
2.11735
3.22591
1.94004
2.95911
2.17819
3.97139
4.52387
2.45916
3.10196
4.92931
4.63097
10.3181
10.8646
4.56847
4.08891
7.17837
21.0434
18.3219
12.5373
65.2148
88.901
3.97304e-07
4.77048e-13
2.22045e-16
2.22045e-16
2.22045e-16
0.00294447
4.35544e-14
2.22045e-16
2.22045e-16
2.22045e-16
2.22045e-16
2.96237e-13
2.22045e-16
2.22045e-16
2.22045e-16
2.22045e-16
2.22045e-16
2.22045e-16
2.22045e-16
2.22045e-16
2.22045e-16
2.22045e-16
2.22045e-16
2.22045e-16
2.22045e-16
2.22045e-16
2.22045e-16
2.22045e-16
2.04984
2.59952
1.86694
2.18115
3.22435
4.28307
3.10225
3.35684
4.48289
3.79423
2.6243
3.26148
3.84347
3.47241
3.82522
3.38869
6.11666
7.51205
5.54525
4.46588
8.57087
9.77946
8.5777
3.87139
7.661
8.76183
8.74094
9.13552
5.57529
9.53012
13.1591
10.5423
9.37258
13.5432
3.77399
3.24342
3.87486
2.79939
3.51681
5.27516
5.54239
6.38762
6.73642
7.53904
12.437
13.0111
15.188
9.35129
10.424
14.6425
2.21878
2.52319
2.187
2.69843
2.61861
2.27793
2.13191
2.00558
2.3171
2.05239
2.2631
2.36298
2.86764
3.1352
2.73518
2.78427
2.42505
2.66638
3.65126
2.99388
3.71237
3.20207
3.09082
3.81233
3.55558
4.3029
4.4407
4.54132
4.2085
3.85677
3.39561
3.67316
4.45709
3.27937
4.02368
4.28395
4.51838
5.22244
4.76266
4.9692
2.20472
2.72649
2.29932
2.34115
2.07079
2.90063
2.76448
2.4488
4.53957
4.64031
3.44137
4.53067
4.09178
5.33552
4.86782
3.37858
2.76687
2.6986
3.47128
3.9674
3.72122
3.26118
4.73838
3.17828
4.60623
4.0756
4.30545
5.57097
4.44529
5.35141
5.02481
5.98736
7.17837
6.51045
5.78473
5.19249
6.23636
6.05203
4.32889
5.18948
5.47036
4.99784
5.30078
6.28413
6.84276
6.00044
5.72388
7.18078
7.46737
6.84276
8.18169
9.71246
6.59765
7.78566
9.24811
8.37424
10.9364
8.81566
10.3866
3.29988
4.79645
4.12572
5.66608
4.51048
6.07782
6.62947
5.26691
6.13006
7.33684
6.95275
9.9617
7.92662
11.2642
9.02377
7.03606
6.62065
6.30537
7.44319
8.34506
8.58938
7.81982
10.6457
7.39632
9.82907
8.93755
7.57375
8.63215
8.06914
8.05814
9.08822
11.9567
11.8514
10.6454
10.8686
9.83874
9.76433
13.53
9.89954
12.0406
12.5546
11.3372
11.5546
14.6214
7.98734
10.975
9.12316
8.65458
8.11987
12.3355
10.7858
10.0037
9.61618
9.32777
8.67573
10.3683
1.7375
1.59021
1.85167
1.40418
2.30662
1.78892
2.07948
2.78391
2.49047
3.50821
2.54219
3.3639
3.17299
3.70196
2.70726
2.13451
3.3219
2.64935
3.88519
3.08181
5.50053
3.88135
3.75203
5.41875
4.46472
7.07231
6.3077
6.59676
4.19863
3.81494
6.58368
3.51596
5.49083
4.294
7.0557
7.3095
6.45736
5.90118
8.58221
6.17088
5.70447
7.76695
11.8969
3.20656
19.5247
49.7951
0.0697344
0.0139203
1.64567e-06
3.49817e-08
7.84548e-12
3.66567e-14
5.64761
3.07938
4.44615
4.6819
7.00691
3.67812
2.18503
2.58826
3.00995
1.71469
2.05687
2.51903
5.4555
3.11189
3.83016
3.63001
3.02905
2.49078
4.41803
9.41106
8.85888
9.4751
5.22775
9.30041
4.90104
4.503
3.46787
6.16746
5.57365
4.37269
6.54005
1.74435
1.58031
2.36289
5.63427
7.56809
1.56967
1.96205
1.98173
2.33578
4.70065
4.77974
5.54696
7.0281
7.03605
6.01302
6.19395
7.53459
8.53505
7.5657
6.19541
8.84969
1.8618
1.65131
1.94482
2.96636
6.22735
8.37226
7.83655
8.59065
13.2877
1.88308
1.53791
1.8483
1.63804
1.6036
1.92813
1.80692
1.74146
1.91915
1.70516
1.75562
2.27963
2.92611
2.84642
3.7512
4.5266
3.634
3.80908
5.31341
6.16462
5.88117
6.61357
6.65989
6.28562
6.64168
5.33916
5.91271
5.09957
6.78775
4.90915
6.46543
5.54425
5.8885
7.56129
8.18026
6.83244
7.19394
6.1259
6.60771
7.14732
8.35653
7.8673
5.11036
6.79384
5.5474
7.601
7.07342
6.14647
1.22538
1.34192
1.36526
1.66255
1.3504
1.67838
1.83868
1.96582
2.85249
3.91658
1.98827
3.98372
3.97005
4.61052
4.792
5.77295
4.68089
5.7787
1.17984
1.31669
1.15632
1.39878
1.37198
1.20155
1.13453
1.24462
1.48316
1.62822
1.41183
1.45415
1.26841
1.38413
1.16367
1.40904
1.20974
1.49399
1.42467
1.27718
1.98475
1.92055
1.65498
2.44612
1.61903
2.38023
2.03749
2.50674
3.12597
3.77936
3.23418
3.02985
2.58355
3.12624
1.67341
2.48049
2.06568
3.17578
3.29147
2.6249
4.07063
4.43532
3.81538
5.09717
3.67934
4.89607
4.22303
4.34733
5.44541
5.52517
4.77146
5.22304
4.50984
4.5979
3.87768
5.14698
4.26961
5.46842
4.7866
4.53592
6.30338
3.251
2.80093
4.25451
2.29402
3.51315
3.96208
1.55679
2.61377
2.06016
1.83849
2.41042
3.52206
2.47815
2.77524
2.57398
2.39327
2.80002
3.19498
3.82724
4.76812
1.7411
1.62307
1.84156
1.71574
1.90907
1.79105
2.01736
1.90865
2.1917
2.02588
2.23657
2.08349
2.21689
2.3976
1.27615
1.16709
1.21057
1.47524
1.34481
1.39229
1.42055
2.07762
2.31714
2.85942
3.13639
2.54616
1.79628
2.33532
1.27867
1.33026
1.27597
1.14448
1.05363
1.09934
1.09866
2.15903
2.05362
2.37266
1.72227
1.98452
1.90511
2.16654
2.61039
2.82632
2.62146
2.36622
2.19079
2.3809
2.57248
2.21887
2.36622
2.5571
2.38134
2.58155
2.52683
2.77643
1.34431
1.60208
1.66377
1.62302
1.83293
1.54261
1.92226
1.65484
1.36351
1.42154
1.29417
1.34854
1.565
1.5048
1.41288
1.54878
1.58788
1.21005
1.31775
1.16949
1.35066
2.99399
3.02896
3.24487
2.54577
2.73623
2.77166
2.988
2.02053
2.32709
2.46568
2.7956
2.19947
2.32263
2.59433
4.05836
2.58831
2.97681
2.92311
3.57086
3.80335
5.02798
2.87823
2.89456
3.19856
3.21091
3.15241
2.90978
3.5278
1.69663
1.53635
1.86913
1.79798
1.58934
1.938
1.6355
1.53415
1.46913
1.77256
1.72064
2.07338
1.70678
2.00222
2.5832
3.0206
2.76804
2.78721
2.67675
2.98916
3.21519
1.67104
1.74016
1.81736
1.42969
1.49067
1.55225
1.48886
1.72385
1.67068
1.71454
1.86311
1.90685
1.90755
1.85063
1.90018
2.36421
2.11391
2.18212
1.97379
2.22534
2.4824
2.36813
3.13738
2.66384
3.6606
5.93475
4.0966
2.70619
3.43928
3.30816
3.66096
4.00708
3.36655
3.77161
3.58878
1.87472
2.27561
2.31924
1.89825
1.9341
1.54977
1.58071
2.55045
2.43937
2.30124
2.45852
2.97708
2.76767
2.66322
1.92379
2.1503
2.23088
1.8105
2.00976
2.08479
1.74349
1.86223
1.97544