/*--------------------------------*- C++ -*----------------------------------*\
  =========                 |
  \\      /  F ield         | OpenFOAM: The Open Source CFD Toolbox
   \\    /   O peration     | Website:  https://openfoam.org
    \\  /    A nd           | Version:  9
     \\/     M anipulation  |
\*---------------------------------------------------------------------------*/
FoamFile
{
    format      ascii;
    class       volScalarField;
    location    "0.0029";
    object      rho;
}
// * * * * * * * * * * * * * * * * * * * * * * * * * * * * * * * * * * * * * //

dimensions      [1 -3 0 0 0 0 0];

internalField   nonuniform List<scalar> 
26877
(
1.225
1.225
1.225
1.225
1.225
1.225
1.22501
1.225
1.225
1.225
1.225
1.225
1.225
1.225
1.225
1.225
1.225
1.225
1.225
1.225
1.225
1.225
1.225
1.225
1.225
1.225
1.225
1.225
1.225
1.225
1.225
1.225
1.225
1.225
1.225
1.22501
1.225
1.225
1.225
1.23463
1.8092
1.22673
1.225
1.225
1.225
1.27916
2.26986
1.27994
1.225
1.225
1.23065
2.71409
1.39396
1.00627
1.22584
2.67202
2.70935
1.13401
0.919072
1.225
1.47311
2.50079
2.16248
1.34067
1.225
1.225
1.225
1.225
1.225
1.225
1.225
1.225
1.225
1.225
1.225
1.225
1.225
1.225
1.225
1.225
1.225
1.225
1.225
1.225
1.225
1.225
1.225
1.225
1.225
1.225
1.225
1.225
1.225
1.225
1.225
1.225
1.225
1.225
1.225
1.22501
1.225
1.225
1.225
1.225
1.225
1.225
1.225
1.22501
1.22825
1.225
1.225
1.225
1.225
1.225
1.225
1.22501
1.23025
2.86241
1.225
1.225
1.225
1.225
1.225
1.225
1.22627
2.81513
0.836444
1.225
1.225
1.225
1.225
1.22541
2.6852
1.96147
0.944542
0.55868
1.225
1.225
1.225
1.225
1.225
1.225
1.225
1.225
1.225
1.225
1.225
1.225
1.225
1.225
1.225
1.225
1.225
1.225
1.225
1.225
1.225
1.225
1.225
1.225
1.225
1.225
1.225
1.225
1.225
1.225
1.225
1.225
1.225
1.225
1.225
1.225
1.225
1.225
1.225
1.225
1.225
1.225
1.225
1.225
1.2254
1.225
1.225
1.225
1.225
1.225
1.225
1.225
1.22565
2.61547
1.225
1.225
1.225
1.225
1.225
1.225
1.22516
2.44397
1.01129
1.225
1.225
1.225
1.225
1.22505
2.20779
2.23504
1.13954
0.822651
1.225
1.225
1.225
1.225
1.225
1.225
1.225
1.225
1.225
1.225
1.225
1.225
1.225
1.225
1.225
1.225
1.225
1.225
1.225
1.225
1.225
1.225
1.225
1.225
1.225
1.225
1.225
1.225
1.225
1.225
1.225
1.225
1.225
1.225
1.225
1.225
1.225
1.225
1.225
1.225
1.225
1.225
1.225
1.225
1.22501
1.225
1.225
1.225
1.225
1.225
1.225
1.225
1.22501
1.27189
1.225
1.225
1.225
1.225
1.225
1.225
1.22501
1.25243
2.90135
1.225
1.225
1.225
1.225
1.225
1.22507
1.22603
2.81476
1.7559
1.225
1.225
1.225
1.225
1.225
1.225
1.225
1.225
1.225
1.225
1.225
1.225
1.225
1.225
1.225
1.225
1.225
1.225
1.225
1.225
1.225
1.225
1.225
1.225
1.225
1.225
1.225
1.225
1.225
1.225
1.225
1.225
1.225
1.225
1.225
1.225
1.225
1.225
1.225
1.225
1.225
1.225
1.225
1.225
1.225
1.225
1.225
1.225
1.225
1.225
1.225
1.225
1.225
1.22502
1.225
1.225
1.225
1.225
1.225
1.225
1.225
1.22502
1.35967
1.225
1.225
1.225
1.225
1.225
1.225
1.22516
1.22674
2.86527
1.225
1.225
1.225
1.225
1.225
1.225
1.225
1.225
1.225
1.225
1.225
1.225
1.225
1.225
1.225
1.225
1.225
1.225
1.225
1.225
1.225
1.225
1.225
1.225
1.225
1.225
1.225
1.225
1.225
1.225
1.225
1.225
1.225
1.225
1.225
1.225
1.225
1.225
1.225
1.225
1.225
1.225
1.225
1.225
1.225
1.225
1.225
1.225
1.225
1.225
1.225
1.225
1.225
1.225
1.225
1.225
1.225
1.225
1.225
1.225
1.225
1.225
1.22501
1.225
1.225
1.225
1.225
1.225
1.225
1.225
1.22506
2.89758
1.225
1.225
1.225
1.225
1.225
1.225
1.225
1.225
1.225
1.225
1.225
1.225
1.225
1.225
1.225
1.225
1.225
1.225
1.225
1.225
1.225
1.225
1.225
1.225
1.225
1.225
1.225
1.225
1.225
1.225
1.225
1.225
1.225
1.225
1.225
1.225
1.225
1.225
1.225
1.225
1.225
1.225
1.225
1.225
1.225
1.225
1.225
1.225
1.225
1.225
1.225
1.225
1.225
1.225
1.225
1.225
1.225
1.225
1.225
1.225
1.225
1.225
1.225
1.225
1.225
1.225
1.225
1.225
1.225
1.27948
1.225
1.225
1.225
1.225
1.225
1.225
1.225
1.225
1.25532
2.49731
1.225
1.225
1.225
1.225
1.225
1.225
1.225
1.225
1.225
1.225
1.225
1.225
1.225
1.225
1.225
1.225
1.225
1.225
1.225
1.225
1.225
1.225
1.225
1.225
1.225
1.225
1.225
1.225
1.225
1.225
1.225
1.225
1.225
1.225
1.225
1.225
1.225
1.225
1.225
1.225
1.225
1.225
1.225
1.225
1.225
1.225
1.225
1.225
1.225
1.225
1.225
1.225
1.225
1.225
1.225
1.225
1.225
1.225
1.225
1.225
1.225
1.225
1.225
1.225
1.225
1.225
1.225
1.225
1.225
1.225
1.225
1.225
1.225
1.225
1.225
1.225
1.225
1.225
1.225
1.225
1.225
1.225
1.225
1.225
1.225
1.225
1.225
1.225
1.225
1.225
1.225
1.225
1.225
1.225
1.225
1.225
1.225
1.225
1.225
1.225
1.225
1.225
1.225
1.225
1.225
1.225
1.225
1.225
1.225
1.225
1.225
1.225
1.225
1.225
1.225
1.225
1.225
1.225
1.225
1.225
1.225
1.225
1.225
1.225
1.225
1.225
1.225
1.225
1.225
1.225
1.225
1.225
1.225
1.225
1.225
1.225
1.225
1.225
1.225
1.225
1.225
1.225
1.225
1.225
1.225
1.225
1.225
1.225
1.225
1.225
1.225
1.225
1.225
1.225
1.225
1.225
1.225
1.225
1.225
1.225
1.225
1.225
1.225
1.225
1.225
1.225
1.225
1.225
1.225
1.225
1.225
1.225
1.225
1.225
1.225
1.225
1.225
1.225
1.225
1.225
1.225
1.225
1.225
1.225
1.225
1.225
1.225
1.225
1.225
1.225
1.225
1.225
1.225
1.225
1.225
1.225
1.225
1.225
1.225
1.225
1.225
1.225
1.225
1.225
1.225
1.225
1.225
1.225
1.225
1.225
1.225
1.225
1.225
1.225
1.225
1.225
1.225
1.225
1.225
1.225
1.225
1.225
1.225
1.225
1.225
1.225
1.225
1.225
1.225
1.225
1.225
1.225
1.225
1.225
1.225
1.225
1.225
1.225
1.225
1.225
1.225
1.225
1.225
1.225
1.225
1.225
1.225
1.225
1.225
1.225
1.225
1.225
1.225
1.225
1.225
1.225
1.225
1.225
1.225
1.225
1.225
1.225
1.225
1.225
1.225
1.225
1.225
1.225
1.225
1.225
1.225
1.225
1.225
1.225
1.225
1.225
1.225
1.225
1.225
1.225
1.225
1.225
1.225
1.225
1.225
1.225
1.225
1.225
1.225
1.225
1.225
1.225
1.225
1.225
1.225
1.225
1.225
1.225
1.225
1.225
1.225
1.225
1.225
1.225
1.225
1.225
1.225
1.225
1.225
1.225
1.225
1.225
1.225
1.225
1.225
1.225
1.225
1.225
1.225
1.225
1.225
1.225
1.225
1.225
1.225
1.22521
1.23003
2.91615
2.56895
1.225
1.225
1.225
1.225
1.22671
2.80176
1.75891
0.834635
0.529076
1.225
1.225
1.225
1.225
1.22507
2.24057
2.10333
0.53576
1.225
1.225
1.225
1.225
1.22772
2.7481
1.5157
0.52618
1.225
1.225
1.225
1.22666
2.69684
1.49784
0.655426
1.225
1.225
1.225
1.225
1.225
1.225
1.22523
2.60358
2.00489
1.02674
0.685011
1.225
1.225
1.225
1.225
1.22501
1.58502
2.42424
0.697552
1.225
1.225
1.225
1.225
1.22538
2.62091
1.78155
0.678628
1.225
1.225
1.225
1.22573
1.84949
2.26132
1.27852
0.887711
1.225
1.225
1.225
1.225
1.225
1.225
1.225
1.22531
1.22931
2.03833
2.13606
1.225
1.225
1.225
1.225
1.225
1.22849
2.82576
1.81816
1.225
1.225
1.225
1.225
1.22501
1.34225
2.63912
1.22996
1.225
1.225
1.225
1.225
1.2264
2.77045
2.1894
1.14808
1.225
1.225
1.225
1.225
1.225
1.225
1.225
1.225
1.22564
2.3721
2.71949
1.225
1.225
1.225
1.225
1.225
1.22501
1.28598
2.09298
1.81509
1.225
1.225
1.225
1.225
1.225
1.22508
2.14437
1.9356
1.225
1.225
1.225
1.225
1.22517
2.38623
2.59902
1.53437
1.225
1.225
1.225
1.225
1.225
1.225
1.225
1.225
1.225
1.22526
2.84173
1.225
1.225
1.225
1.225
1.225
1.225
1.22501
1.78912
2.49478
1.225
1.225
1.225
1.225
1.225
1.225
1.22515
2.05854
1.225
1.225
1.225
1.225
1.225
1.225
1.22925
2.46067
1.225
1.225
1.225
1.225
1.225
1.22549
2.37634
2.45869
1.225
1.225
1.225
1.225
1.225
1.225
1.225
1.225
1.35775
2.47308
1.225
1.225
1.225
1.225
1.225
1.225
1.225
1.22524
2.4625
2.46113
1.225
1.225
1.225
1.225
1.225
1.225
1.225
1.22558
1.225
1.225
1.225
1.225
1.225
1.225
1.22501
1.25042
1.225
1.225
1.225
1.225
1.225
1.225
1.2271
2.38226
1.225
1.225
1.225
1.225
1.225
1.225
1.225
1.225
1.225
1.91757
1.225
1.225
1.225
1.225
1.225
1.225
1.225
1.225
1.22506
2.19629
1.225
1.225
1.225
1.225
1.225
1.225
1.225
1.225
1.225
1.225
1.225
1.225
1.225
1.225
1.225
1.22779
1.225
1.225
1.225
1.225
1.225
1.225
1.225
1.22845
1.225
1.225
1.225
1.225
1.225
1.225
1.225
1.225
1.225
1.225
1.225
1.225
1.225
1.225
1.225
1.225
1.225
1.225
1.225
1.22519
1.225
1.225
1.225
1.225
1.225
1.225
1.225
1.225
1.225
1.225
1.225
1.225
1.225
1.225
1.225
1.225
1.225
1.225
1.225
1.225
1.225
1.225
1.225
1.225
1.225
1.225
1.225
1.225
1.225
1.225
1.225
1.225
1.225
1.225
1.225
1.225
1.225
1.225
1.225
1.225
1.225
1.225
1.225
1.225
1.225
1.225
1.225
1.225
1.225
1.225
1.225
1.225
1.225
1.225
1.225
1.225
1.225
1.225
1.225
1.225
1.225
1.225
1.225
1.225
1.225
1.225
1.225
1.225
1.225
1.225
1.225
1.225
1.225
1.225
1.225
1.225
1.225
1.225
1.225
1.225
1.225
1.225
1.225
1.225
1.225
1.225
1.225
1.225
1.225
1.225
1.225
1.225
1.225
1.225
1.225
1.225
1.225
1.225
1.225
1.225
1.225
1.225
1.225
1.225
1.225
1.225
1.225
1.225
1.225
1.225
1.225
1.225
1.60193
1.31338
2.07092
2.37733
1.47984
2.32504
1.46635
1.95637
1.36987
1.79105
1.27027
1.22513
2.41738
1.24589
2.30288
2.26896
2.17216
1.225
1.23132
1.225
1.27741
1.225
1.36376
1.225
1.225
1.225
1.225
1.225
1.225
1.225
1.225
1.225
1.225
1.225
1.225
1.17501
0.59705
0.503852
0.560404
0.671383
0.598719
0.774492
0.685695
0.931964
1.56901
1.29562
1.30237
0.807701
1.81037
1.17769
0.814863
1.97036
1.42638
1.82685
1.18497
0.884865
1.28075
1.09225
0.87441
0.922971
0.875685
1.15068
0.733353
0.706084
0.607999
0.714297
0.808732
0.569737
0.478953
0.659698
0.543996
1.15723
0.728604
0.695269
0.71702
0.818308
0.758594
1.20794
0.612837
0.919367
0.591373
0.71209
1.03751
0.685858
0.820352
1.16605
2.37239
1.73673
2.05087
1.57634
0.93528
1.42088
0.732809
1.03889
0.838668
0.874949
0.77921
1.35458
1.2358
0.512319
0.510977
0.520136
0.528016
0.537433
0.546486
0.536887
0.984324
1.20018
1.7062
0.968451
1.19138
1.91914
1.31194
0.895503
1.0269
1.31394
0.745987
0.616932
1.0536
0.918656
0.974947
1.20629
1.935
1.31994
1.45015
1.38055
2.04702
0.487699
0.491968
0.502209
0.502351
0.513287
0.529847
0.517962
1.0618
0.786389
0.823013
0.663478
1.18659
1.06373
0.637611
0.523422
0.571477
0.532176
0.592174
0.550857
0.561619
0.605344
0.866004
0.959919
0.819001
0.910835
0.939359
1.05654
1.06673
0.808011
0.907443
0.904792
0.93742
0.934116
1.05673
1.06077
0.788349
0.924799
0.796602
0.832961
0.810807
0.888827
0.964391
0.649897
0.770781
0.735893
0.663827
0.73976
0.785868
0.745889
0.536858
0.518313
0.528208
0.55601
0.55672
0.567222
0.546197
1.1951
1.06897
0.622186
1.16919
0.646411
1.29808
0.684778
0.827843
0.915422
0.929161
0.946084
0.961087
1.06987
1.08653
0.502163
0.561411
0.518073
0.57525
0.530045
0.548879
0.595899
0.607519
0.694664
0.612216
0.643192
0.641266
0.740112
0.742417
1.10788
1.14632
0.896165
0.922958
1.63248
1.18864
1.40781
0.552151
0.583531
0.541625
0.573453
0.6372
0.587486
0.620038
0.849751
0.993519
0.953603
1.02981
0.987416
1.11685
1.16557
0.703684
0.611186
0.620958
0.657661
0.646673
0.751672
0.765179
0.635946
0.797426
0.892045
1.18828
0.735189
1.29093
0.771077
0.540479
0.507805
0.519223
0.551213
0.569633
0.581373
0.539425
0.934071
1.46454
1.57973
1.02548
0.628095
1.1441
0.669383
0.546955
0.548392
0.559903
0.570611
0.582088
0.60293
0.590714
0.788414
1.2351
0.670248
1.64957
0.901177
1.36491
0.710249
0.557427
0.608591
0.566342
0.578361
0.617137
0.627693
0.568871
0.530725
0.58223
0.542842
0.564939
0.603363
0.615875
0.552791
0.633454
0.647127
0.749756
0.671621
0.687389
0.781585
0.800347
1.52118
2.37707
1.60216
1.65877
1.31755
1.95261
2.34926
2.09786
1.29643
1.76937
2.36416
1.91677
1.38192
1.60393
1.28096
1.96781
1.5496
1.72056
1.60553
2.4174
2.37965
1.50784
2.37119
1.58789
1.26598
1.50947
1.58207
2.37245
0.70889
0.634976
0.65195
0.72887
0.750338
0.674243
0.775145
0.789278
0.878201
0.78368
0.963486
0.847816
0.854922
0.973766
1.68776
1.31975
1.56484
1.54399
1.413
2.32015
2.10386
1.52589
2.5052
1.70916
1.86989
1.74205
2.88288
2.06298
2.44656
2.08324
1.93545
1.39486
1.48776
1.7409
1.62684
1.04684
1.17415
1.03791
1.2112
1.35716
1.21253
1.35757
0.631213
0.6327
0.584602
0.598801
0.709107
0.653694
0.647911
1.17546
1.04071
1.03794
1.21315
1.3617
1.21629
1.35867
0.906193
1.05428
1.03129
0.924418
1.07442
1.05795
0.985005
0.787578
0.884683
0.811187
0.862124
0.959151
0.964496
0.848932
0.561323
0.582365
0.537205
0.573105
0.654477
0.605359
0.621404
0.607171
0.612364
0.563307
0.588228
0.696112
0.642647
0.638488
0.564805
0.631888
0.580974
0.658175
0.605392
0.62916
0.684667
1.00063
1.05076
1.08976
1.12424
1.16556
1.23362
1.31859
0.970111
1.41828
1.25051
1.27096
0.815195
1.86692
1.31045
0.872842
0.847809
0.83063
0.897685
1.02644
0.99858
0.914807
0.661974
0.787923
0.767911
0.725292
0.705087
0.821347
0.844797
0.807465
1.88158
1.32043
1.42634
0.842823
2.00844
1.33682
0.592516
0.599772
0.640554
0.683435
0.610951
0.651847
0.58224
1.04822
1.202
1.06374
1.37103
1.22507
1.24448
1.3921
0.690123
0.762816
0.744114
0.814424
0.852283
0.863061
0.793612
0.680383
0.732077
0.680613
0.852091
0.790447
0.795221
0.859194
2.22643
1.51149
1.96346
1.51594
2.24113
2.0863
2.88325
1.10748
1.29405
1.09757
1.24729
1.47504
1.24873
1.47689
1.29728
1.10312
1.09845
1.25008
1.48471
1.47969
1.25458
0.923013
0.902676
0.801471
0.867432
1.00864
0.883902
0.988779
0.565861
0.604129
0.578122
0.632504
0.66061
0.673604
0.619787
0.980445
1.0765
1.40533
1.39036
0.90346
1.82957
1.30136
2.26395
2.278
1.65184
2.10826
2.88763
2.41648
2.90233
1.1129
1.33467
1.1307
1.4973
1.26501
1.28583
1.52258
0.615536
0.691872
0.713529
0.738086
0.636701
0.679914
0.667604
0.742632
0.701432
0.688483
0.805821
0.888575
0.820458
0.871571
0.569977
0.600503
0.611464
0.61239
0.623754
0.68182
0.670864
0.657586
0.785093
0.754057
0.734727
0.701058
0.805138
0.841766
1.67129
1.31278
1.48653
1.34603
1.20285
1.71343
1.51441
1.23303
1.13852
1.0925
1.27961
1.48243
1.3339
1.42858
0.596458
0.628827
0.726129
0.650566
0.640658
0.662822
0.584283
1.07861
1.30907
1.2113
1.34687
1.25306
1.41667
1.52311
0.948498
0.977385
0.861124
1.03357
0.904103
0.927304
1.06232
0.795385
0.761303
0.765718
0.82565
0.87677
0.823949
0.884807
0.64366
0.699068
0.699227
0.753536
0.715019
0.724509
0.749278
1.13023
1.63557
0.849742
2.27505
1.25394
1.77279
0.966737
1.68978
1.46545
2.19121
1.25443
0.937289
1.73698
1.23785
0.810237
0.719201
0.748956
0.835024
0.777445
0.871343
0.902149
1.00911
1.49398
0.871279
2.41102
1.5164
2.084
1.36986
1.48024
2.30153
2.04276
2.35641
1.81285
1.65086
2.42485
1.37138
1.21254
1.16246
1.32304
1.62852
1.56546
1.38073
0.624223
0.724815
0.636238
0.670953
0.76517
0.778372
0.658248
0.655542
0.630858
0.602322
0.661164
0.76328
0.703932
0.718847
0.7177
0.804746
0.736785
0.910585
0.838658
0.860371
0.938146
1.04767
1.09872
1.07575
1.11582
1.08335
1.20107
1.21476
0.970225
1.07416
1.07057
1.07608
1.07435
1.201
1.20565
0.694162
0.860341
0.800395
0.782504
0.721288
0.830223
0.898408
0.810751
0.950485
0.835539
0.981732
0.861848
0.890917
1.01658
0.631005
0.621023
0.630345
0.708048
0.718162
0.723253
0.712324
2.08059
2.47184
1.9179
2.23632
2.08566
1.75713
1.92922
2.91541
3.59979
1.59262
2.67432
2.07976
3.33431
2.92716
1.75484
3.15813
2.91408
3.58104
3.14586
3.12673
3.13076
2.92102
3.15646
3.15893
2.9944
3.2433
3.24676
3.16074
3.1257
2.6498
1.84125
1.32455
2.70602
3.08598
1.22742
2.905
1.22565
1.44377
2.04131
2.47502
2.81214
2.99915
1.24022
1.25413
1.28694
1.76542
1.47999
1.50466
1.225
1.225
1.225
1.225
1.225
1.225
2.5303
2.43334
2.81427
1.82962
1.39503
1.27795
1.9699
1.65422
1.06232
1.16853
1.49284
2.52803
2.50341
3.01554
2.79567
2.60578
2.76106
2.58327
2.3695
2.39994
2.24598
1.26004
2.84722
1.225
1.225
2.8519
2.58938
1.94961
2.10455
2.12735
1.88899
1.78677
2.0395
1.66972
1.52936
2.1334
1.27707
2.42245
1.22534
1.23124
2.01252
1.22504
1.2372
1.22908
1.60761
1.73314
2.16189
1.39382
1.9327
1.74833
1.44016
1.64114
1.75173
1.39124
2.11063
2.17618
1.88139
1.81552
1.90098
2.2129
1.5145
1.66763
2.10699
1.3857
1.24441
1.22501
1.225
1.22501
1.22743
1.225
1.22501
1.225
1.25869
1.225
1.225
1.225
2.25843
1.22528
1.225
1.225
1.225
1.225
1.225
2.31103
2.44361
3.38805
4.05291
1.26738
2.2715
1.225
1.225
1.225
1.225
1.225
1.225
1.225
1.225
1.225
1.225
1.225
1.225
1.225
1.225
1.225
1.225
1.225
1.22501
1.225
1.32525
1.225
1.225
1.225
1.225
1.225
1.225
1.225
1.225
1.225
1.225
1.225
1.225
1.225
1.225
1.225
1.225
1.225
1.225
1.225
1.225
1.225
1.225
1.225
1.225
1.225
1.225
1.225
1.225
1.225
1.225
1.225
1.225
1.225
1.225
1.225
1.225
1.225
1.225
1.225
1.225
1.225
1.225
1.225
1.225
1.225
1.225
1.225
1.225
1.225
1.225
1.225
1.225
1.225
1.225
1.225
1.225
1.225
1.225
1.225
1.225
1.225
1.225
1.225
1.225
1.225
1.225
1.225
1.225
1.225
1.225
1.225
1.225
1.225
1.225
1.225
1.225
1.225
1.225
1.225
1.225
1.225
1.225
1.225
1.225
1.225
1.225
1.225
1.225
1.225
1.225
1.225
1.225
1.225
1.225
1.225
1.225
1.225
1.225
1.225
1.225
1.225
1.225
1.225
1.225
1.225
1.225
1.225
1.225
1.22501
1.225
1.22501
1.225
1.225
1.225
1.225
1.225
1.225
1.225
1.225
1.225
1.225
1.225
1.225
1.225
1.225
1.225
1.225
1.225
1.225
1.22758
1.22501
1.25369
1.26915
1.64922
1.22779
1.60823
1.22519
1.22522
1.22836
1.22649
1.225
1.225
1.22501
1.22501
1.22501
1.22503
1.22501
1.22502
1.225
1.22501
1.22501
1.225
1.22501
1.225
1.22501
1.22501
1.225
1.225
1.225
1.22501
1.225
1.225
1.225
1.225
1.225
1.225
1.225
1.225
1.225
1.225
1.225
1.225
1.225
1.22502
1.225
1.22501
1.225
1.225
1.225
1.225
1.225
1.225
1.225
1.225
1.225
1.225
1.225
1.225
1.225
1.225
1.225
1.225
1.225
1.225
1.225
1.225
1.225
1.225
1.225
1.225
1.225
1.225
1.225
1.225
1.225
1.225
1.225
1.225
1.225
1.225
1.225
1.225
1.225
1.225
1.225
1.225
1.225
1.225
1.225
1.225
1.225
1.225
1.225
1.225
1.225
1.225
1.225
1.225
1.225
1.225
1.225
1.225
1.225
1.225
1.23385
1.22868
1.22568
1.225
1.225
1.225
1.225
1.225
1.225
1.225
1.225
1.225
1.225
1.225
1.225
1.225
1.225
1.225
1.225
1.225
1.225
1.225
1.225
1.225
1.225
1.225
1.225
1.225
1.225
1.225
1.225
1.225
1.225
1.225
1.225
1.225
1.225
1.225
1.225
1.225
1.225
1.225
1.225
1.225
1.225
1.225
1.225
1.225
1.225
1.225
1.225
1.225
1.225
1.225
1.225
1.225
1.225
1.225
1.225
1.225
1.225
1.225
1.225
1.225
1.225
1.225
1.225
1.225
1.225
1.225
1.225
1.225
1.225
1.225
1.225
1.225
1.225
1.225
1.225
1.225
1.225
1.225
1.225
1.225
1.225
1.225
1.225
1.225
1.225
1.225
1.225
1.225
1.225
1.225
1.225
1.225
1.225
1.225
1.225
1.225
1.225
1.225
1.225
1.225
1.225
1.225
1.225
1.225
1.225
1.225
1.225
1.225
1.225
1.225
1.225
1.225
1.225
1.225
1.225
1.225
1.225
1.225
1.225
1.225
1.225
1.225
1.225
1.225
1.225
1.225
1.225
1.225
1.225
1.225
1.23109
1.31819
1.22669
1.2282
1.24774
1.26051
1.22548
1.225
1.22511
1.22505
1.22525
1.22501
1.22503
1.22502
1.225
1.225
1.225
1.225
1.225
1.225
1.225
1.225
1.225
1.225
1.225
1.225
1.225
1.22504
1.22502
1.225
1.225
1.22507
1.22501
1.225
1.225
1.225
1.225
1.225
1.225
1.225
1.225
1.225
1.225
1.225
1.225
1.225
1.225
1.225
1.225
1.225
1.225
1.225
1.225
1.225
1.225
1.225
1.225
1.225
1.225
1.225
1.225
1.225
1.225
1.225
1.225
1.225
1.225
1.225
1.225
1.225
1.225
1.225
1.225
1.225
1.225
1.225
1.225
1.225
1.225
1.225
1.225
1.225
1.225
1.225
1.225
1.225
1.225
1.225
1.225
1.225
1.225
1.225
1.225
1.225
1.225
1.225
1.225
1.225
1.225
1.225
1.225
1.225
1.225
1.225
1.225
1.225
1.225
1.225
1.225
1.225
1.225
1.225
1.225
1.225
1.225
1.225
1.225
1.225
1.225
1.225
1.225
1.225
1.225
1.225
1.225
1.225
1.225
1.225
1.225
1.225
1.225
1.225
1.225
1.225
1.225
1.225
1.225
1.225
1.225
1.225
1.225
1.225
1.225
1.225
1.225
1.225
1.225
1.225
1.225
1.225
1.225
1.225
1.225
1.225
1.225
1.225
1.225
1.225
1.225
1.225
1.225
1.225
1.225
1.225
1.225
1.225
1.225
1.225
1.225
1.225
1.225
1.225
1.225
1.225
1.225
1.225
1.225
1.225
1.225
1.225
1.225
1.225
1.225
1.225
1.225
1.225
1.225
1.225
1.225
1.225
1.225
1.225
1.225
1.225
1.225
1.225
1.225
1.225
1.225
1.225
1.225
1.225
1.225
1.225
1.225
1.225
1.225
1.225
1.225
1.225
1.225
1.225
1.225
1.225
1.225
1.225
1.225
1.225
1.225
1.225
1.225
1.225
1.225
1.225
1.225
1.225
1.225
1.225
1.225
1.225
1.225
1.225
1.225
1.225
1.225
1.225
1.22772
1.22502
1.225
1.225
1.225
1.22566
1.225
1.225
1.225
1.225
1.225
1.225
1.225
1.225
1.225
1.225
1.225
1.225
1.225
1.225
1.225
1.225
1.225
1.225
1.225
1.225
1.225
1.225
1.225
1.225
1.225
1.225
1.225
1.225
1.225
1.225
1.225
1.225
1.225
1.225
1.225
1.225
1.225
1.225
1.225
1.225
1.225
1.225
1.225
1.225
1.225
1.225
1.225
1.225
1.225
1.225
1.225
1.225
1.225
1.225
1.225
1.225
1.225
1.225
1.225
1.225
1.225
1.225
1.225
1.225
1.225
1.225
1.225
1.225
1.225
1.225
1.225
1.225
1.225
1.225
1.225
1.225
1.225
1.225
1.225
1.225
1.225
1.225
1.225
1.225
1.225
1.225
1.225
1.225
1.225
1.225
1.225
1.225
1.225
1.225
1.225
1.225
1.225
1.225
1.225
1.225
1.225
1.225
1.225
1.225
1.225
1.225
1.225
1.225
1.225
1.225
1.225
1.225
1.225
1.225
1.225
1.225
1.225
1.225
1.225
1.225
1.225
1.225
1.225
1.225
1.225
1.225
1.225
1.225
1.225
1.225
1.225
1.225
1.225
1.225
1.225
1.225
1.225
1.225
1.225
1.225
1.225
1.225
1.225
1.225
1.225
1.225
1.225
1.225
1.225
1.225
1.225
1.225
1.225
1.225
1.225
1.225
1.225
1.225
1.225
1.225
1.225
1.225
1.225
1.225
1.225
1.225
1.225
1.225
1.225
1.225
1.225
1.225
1.225
1.225
1.225
1.225
1.225
1.225
1.225
1.225
1.225
1.225
1.225
1.225
1.225
1.225
1.225
1.225
1.225
1.225
1.225
1.225
1.225
1.225
1.225
1.225
1.225
1.225
1.225
1.225
1.225
1.225
1.225
1.225
1.225
1.225
1.225
1.225
1.225
1.225
1.225
1.225
1.225
1.225
1.225
1.225
1.225
1.225
1.225
1.225
1.225
1.225
1.225
1.225
1.225
1.225
1.225
1.225
1.225
1.225
1.225
1.225
1.225
1.225
1.225
1.225
1.225
1.225
1.225
1.225
1.225
1.225
1.225
1.225
1.225
1.225
1.225
1.225
1.225
1.225
1.225
1.225
1.225
1.225
1.225
1.225
1.225
1.225
1.225
1.225
1.225
1.225
1.225
1.225
1.225
1.225
1.225
1.225
1.225
1.225
1.225
1.225
1.225
1.225
1.225
1.225
1.225
1.225
1.225
1.225
1.225
1.225
1.225
1.225
1.225
1.225
1.225
1.225
1.225
1.225
1.225
1.225
1.225
1.225
1.225
1.225
1.225
1.225
1.225
1.225
1.225
1.225
1.225
1.225
1.225
1.225
1.225
1.225
1.225
1.225
1.225
1.225
1.225
1.225
1.225
1.225
1.225
1.225
1.225
1.225
1.225
1.225
1.225
1.225
1.225
1.225
1.225
1.225
1.225
1.225
1.225
1.225
1.225
1.225
1.225
1.225
1.225
1.225
1.225
1.225
1.225
1.225
1.225
1.225
1.225
1.225
1.225
1.225
1.225
1.225
1.225
1.225
1.225
1.225
1.225
1.225
1.225
1.225
1.225
1.225
1.225
1.225
1.225
1.225
1.225
1.225
1.225
1.225
1.225
1.225
1.225
1.225
1.225
1.225
1.225
1.225
1.225
1.225
1.225
1.225
1.225
1.225
1.225
1.225
1.225
1.225
1.225
1.225
1.225
1.225
1.225
1.225
1.225
1.225
1.225
1.225
1.225
1.225
1.225
1.225
1.225
1.225
1.225
1.225
1.225
1.225
1.225
1.225
1.225
1.225
1.225
1.225
1.225
1.225
1.225
1.225
1.225
1.225
1.225
1.225
1.225
1.225
1.225
1.225
1.225
1.225
1.225
1.225
1.225
1.225
1.225
1.225
1.225
1.225
1.225
1.225
1.225
1.225
1.225
1.225
1.225
1.225
1.225
1.225
1.225
1.225
1.225
1.225
1.225
1.225
1.225
1.225
1.225
1.225
1.225
1.225
1.225
1.225
1.225
1.225
1.225
1.225
1.225
1.225
1.225
1.225
1.225
1.225
1.225
1.225
1.225
1.225
1.225
1.225
1.225
1.225
1.225
1.225
1.225
1.225
1.225
1.225
1.225
1.225
1.225
1.225
1.225
1.225
1.225
1.225
1.225
1.225
1.225
1.225
1.225
1.225
1.225
1.225
1.225
1.225
1.225
1.225
1.225
1.225
1.225
1.225
1.225
1.225
1.225
1.225
1.225
1.225
1.225
1.225
1.225
1.225
1.225
1.225
1.225
1.225
1.225
1.225
1.225
1.225
1.225
1.225
1.225
1.225
1.225
1.225
1.225
1.225
1.225
1.225
1.225
1.225
1.225
1.225
1.225
1.225
1.225
1.225
1.225
1.225
1.225
1.225
1.225
1.225
1.225
1.225
1.225
1.225
1.225
1.225
1.225
1.225
1.225
1.225
1.225
1.225
1.225
1.225
1.225
1.225
1.225
1.225
1.225
1.225
1.225
1.225
1.225
1.225
1.225
1.225
1.225
1.225
1.225
1.225
1.225
1.225
1.225
1.225
1.225
1.225
1.225
1.225
1.225
1.225
1.225
1.225
1.225
1.225
1.225
1.225
1.225
1.225
1.225
1.225
1.225
1.225
1.225
1.225
1.225
1.225
1.225
1.225
1.225
1.225
1.225
1.225
1.225
1.225
1.225
1.225
1.225
1.225
1.225
1.225
1.225
1.225
1.225
1.225
1.225
1.225
1.225
1.225
1.225
1.225
1.225
1.225
1.225
1.225
1.225
1.225
1.225
1.225
1.225
1.225
1.225
1.225
1.225
1.225
1.225
1.225
1.225
1.225
1.225
1.225
1.225
1.225
1.225
1.225
1.225
1.225
1.225
1.225
1.225
1.225
1.225
1.225
1.225
1.225
1.225
1.225
1.225
1.225
1.225
1.225
1.225
1.225
1.225
1.225
1.225
1.225
1.225
1.225
1.225
1.225
1.225
1.225
1.225
1.225
1.225
1.225
1.225
1.225
1.225
1.225
1.225
1.225
1.225
1.225
1.225
1.225
1.225
1.225
1.225
1.225
1.225
1.225
1.225
1.225
1.225
1.225
1.225
1.225
1.225
1.225
1.225
1.225
1.225
1.225
1.225
1.225
1.225
1.225
1.225
1.225
1.225
1.225
1.225
1.225
1.225
1.225
1.225
1.225
1.225
1.225
1.225
1.225
1.225
1.225
1.225
1.225
1.225
1.225
1.225
1.225
1.225
1.225
1.225
1.225
1.225
1.225
1.225
1.225
1.225
1.225
1.225
1.225
1.225
1.225
1.225
1.225
1.225
1.225
1.225
1.225
1.225
1.225
1.225
1.225
1.225
1.225
1.225
1.225
1.225
1.225
1.225
1.225
1.225
1.225
1.225
1.225
1.225
1.225
1.225
1.225
1.225
1.225
1.225
1.225
1.225
1.225
1.225
1.225
1.225
1.225
1.225
1.225
1.225
1.225
1.225
1.225
1.225
1.225
1.225
1.225
1.225
1.225
1.225
1.225
1.225
1.225
1.225
1.225
1.225
1.225
1.225
1.225
1.225
1.225
1.225
1.225
1.225
1.225
1.225
1.225
1.225
1.225
1.225
1.225
1.225
1.225
1.225
1.225
1.225
1.225
1.225
1.225
1.225
1.225
1.225
1.225
1.225
1.225
1.225
1.225
1.225
1.225
1.225
1.225
1.225
1.225
1.225
1.225
1.225
1.225
1.225
1.225
1.225
1.225
1.225
1.225
1.225
1.225
1.225
1.225
1.225
1.225
1.225
1.225
1.225
1.225
1.225
1.225
1.225
1.225
1.225
1.225
1.225
1.225
1.225
1.225
1.225
1.225
1.225
1.225
1.225
1.225
1.225
1.225
1.225
1.225
1.225
1.225
1.225
1.225
1.225
1.225
1.225
1.225
1.225
1.225
1.225
1.225
1.225
1.225
1.225
1.225
1.225
1.225
1.225
1.225
1.225
1.225
1.225
1.225
1.225
1.225
1.225
1.225
1.225
1.225
1.225
1.225
1.225
1.225
1.225
1.225
1.225
1.225
1.225
1.225
1.225
1.225
1.225
1.225
1.225
1.225
1.225
1.225
1.225
1.225
1.225
1.225
1.225
1.225
1.225
1.225
1.225
1.225
1.225
1.225
1.225
1.225
1.225
1.225
1.225
1.225
1.225
1.225
1.225
1.225
1.225
1.225
1.225
1.225
1.225
1.225
1.225
1.225
1.225
1.225
1.225
1.225
1.225
1.225
1.225
1.225
1.225
1.225
1.225
1.225
1.225
1.225
1.225
1.225
1.225
1.225
1.225
1.225
1.225
1.225
1.225
1.225
1.225
1.225
1.225
1.225
1.225
1.225
1.225
1.225
1.225
1.225
1.225
1.225
1.225
1.225
1.225
1.225
1.225
1.225
1.225
1.225
1.225
1.225
1.225
1.225
1.225
1.225
1.225
1.225
1.225
1.225
1.225
1.225
1.225
1.225
1.225
1.225
1.225
1.225
1.225
1.225
1.225
1.225
1.225
1.225
1.225
1.225
1.225
1.225
1.225
1.225
1.225
1.225
1.225
1.225
1.225
1.225
1.225
1.225
1.225
1.225
1.225
1.225
1.225
1.225
1.225
1.225
1.225
1.225
1.225
1.225
1.225
1.225
1.225
1.225
1.225
1.225
1.225
1.225
1.225
1.225
1.225
1.225
1.225
1.225
1.225
1.225
1.225
1.225
1.225
1.225
1.225
1.225
1.225
1.225
1.225
1.225
1.225
1.225
1.225
1.225
1.225
1.225
1.225
1.225
1.225
1.225
1.225
1.225
1.225
1.225
1.225
1.225
1.225
1.225
1.225
1.225
1.225
1.225
1.225
1.225
1.225
1.225
1.225
1.225
1.225
1.225
1.225
1.225
1.225
1.225
1.225
1.225
1.225
1.225
1.225
1.225
1.225
1.225
1.225
1.225
1.225
1.225
1.225
1.225
1.225
1.225
1.225
1.225
1.225
1.225
1.225
1.225
1.225
1.225
1.225
1.225
1.225
1.225
1.225
1.225
1.225
1.225
1.225
1.225
1.225
1.225
1.225
1.22501
1.225
1.225
1.225
1.225
1.225
1.225
1.225
1.225
1.225
1.225
1.225
1.225
1.225
1.225
1.225
1.225
1.225
1.225
1.225
1.225
1.225
1.225
1.225
1.225
1.225
1.225
1.225
1.225
1.225
1.225
1.225
1.225
1.225
1.225
1.225
1.225
1.225
1.225
1.225
1.225
1.225
1.225
1.225
1.225
1.225
1.225
1.225
1.225
1.225
1.225
1.225
1.225
1.225
1.225
1.225
1.225
1.225
1.225
1.225
1.225
1.225
1.225
1.225
1.225
1.225
1.225
1.225
1.225
1.225
1.225
1.225
1.225
1.225
1.225
1.225
1.225
1.225
1.225
1.225
1.225
1.225
1.225
1.225
1.225
1.225
1.225
1.225
1.225
1.225
1.225
1.225
1.225
1.225
1.225
1.225
1.225
1.225
1.225
1.225
1.225
1.225
1.225
1.225
1.225
1.225
1.225
1.225
1.225
1.225
1.225
1.225
1.225
1.225
1.225
1.225
1.225
1.225
1.225
1.225
1.225
1.225
1.225
1.225
1.225
1.225
1.225
1.225
1.225
1.225
1.225
1.225
1.225
1.225
1.225
1.225
1.225
1.225
1.225
1.225
1.225
1.225
1.225
1.225
1.225
1.225
1.225
1.225
1.225
1.225
1.225
1.225
1.225
1.225
1.225
1.225
1.225
1.225
1.225
1.225
1.225
1.225
1.225
1.225
1.225
1.225
1.225
1.225
1.225
1.225
1.225
1.225
1.225
1.225
1.225
1.225
1.225
1.225
1.225
1.225
1.225
1.225
1.225
1.225
1.225
1.225
1.225
1.225
1.225
1.225
1.225
1.225
1.225
1.225
1.225
1.225
1.225
1.225
1.225
1.225
1.225
1.225
1.225
1.225
1.225
1.225
1.225
1.225
1.225
1.225
1.225
1.225
1.225
1.225
1.225
1.225
1.225
1.225
1.225
1.225
1.225
1.225
1.225
1.225
1.225
1.225
1.225
1.225
1.225
1.225
1.225
1.225
1.225
1.225
1.225
1.225
1.225
1.225
1.225
1.225
1.225
1.225
1.225
1.225
1.225
1.225
1.225
1.225
1.225
1.225
1.225
1.225
1.225
1.225
1.225
1.225
1.225
1.225
1.225
1.225
1.225
1.225
1.225
1.225
1.225
1.225
1.225
1.225
1.225
1.225
1.225
1.225
1.225
1.225
1.225
1.225
1.225
1.225
1.225
1.225
1.225
1.225
1.225
1.225
1.225
1.225
1.225
1.22502
1.225
1.225
1.225
1.225
1.225
1.225
1.225
1.225
1.225
1.225
1.225
1.225
1.225
1.225
1.225
1.225
1.225
1.225
1.225
1.225
1.225
1.225
1.225
1.225
1.225
1.225
1.225
1.225
1.225
1.225
1.225
1.225
1.225
1.225
1.225
1.225
1.225
1.225
1.225
1.225
1.225
1.225
1.225
1.225
1.225
1.225
1.225
1.225
1.225
1.225
1.225
1.225
1.225
1.225
1.225
1.225
1.225
1.225
1.225
1.225
1.225
1.225
1.225
1.225
1.225
1.225
1.225
1.225
1.225
1.225
1.225
1.225
1.225
1.225
1.225
1.225
1.225
1.225
1.225
1.225
1.225
1.225
1.225
1.225
1.225
1.225
1.225
1.225
1.225
1.225
1.225
1.225
1.225
1.225
1.225
1.225
1.225
1.225
1.225
1.225
1.225
1.225
1.225
1.225
1.225
1.225
1.225
1.225
1.225
1.225
1.225
1.225
1.225
1.225
1.225
1.225
1.225
1.225
1.225
1.225
1.225
1.225
1.225
1.225
1.225
1.225
1.225
1.225
1.225
1.225
1.225
1.225
1.225
1.225
1.225
1.225
1.225
1.225
1.225
1.225
1.225
1.225
1.225
1.225
1.225
1.225
1.225
1.225
1.225
1.225
1.225
1.225
1.225
1.225
1.225
1.225
1.225
1.225
1.225
1.225
1.225
1.225
1.225
1.225
1.225
1.225
1.225
1.225
1.225
1.225
1.225
1.225
1.225
1.225
1.225
1.225
1.225
1.225
1.225
1.225
1.225
1.225
1.225
1.225
1.225
1.225
1.225
1.225
1.225
1.225
1.225
1.225
1.225
1.225
1.225
1.225
1.225
1.225
1.225
1.225
1.225
1.225
1.225
1.225
1.225
1.225
1.225
1.225
1.225
1.225
1.225
1.225
1.225
1.225
1.225
1.225
1.225
1.225
1.225
1.225
1.225
1.225
1.225
1.225
1.225
1.225
1.225
1.22512
1.225
1.22502
1.22549
1.22504
1.23277
1.22949
1.27082
1.2257
1.22571
1.2253
1.2252
1.225
1.22817
1.22506
1.22505
1.225
1.22535
1.22502
1.22505
1.225
1.225
1.225
1.225
1.225
1.225
1.225
1.22501
1.225
1.225
1.225
1.225
1.225
1.225
1.225
1.225
1.225
1.22797
1.225
1.225
1.225
1.225
1.22501
1.225
1.225
1.22507
1.22601
1.22514
1.22545
1.23504
1.22523
1.2263
1.2259
1.23025
1.2251
1.225
1.225
1.225
1.225
1.225
1.225
1.225
1.225
1.225
1.225
1.225
1.225
1.225
1.225
1.225
1.225
1.22506
1.225
1.225
1.225
1.22502
1.225
1.225
1.225
1.22503
1.225
1.225
1.225
1.225
1.225
1.225
1.22514
1.22578
1.22502
1.22504
1.22524
1.22551
1.22501
1.225
1.225