# vtk DataFile Version 2.0
sampleSurface
ASCII
DATASET POLYDATA
POINTS 4482 float
-2.71051e-18 0 0.5 0.1 0 0.5 -1.35525e-18 -0.1 0.5 -1.35525e-18 0.1
0.5 -0.1 0 0.5 -0.1 -0.1 0.5 0.1 0.1 0.5
-0.1 0.1 0.5 0.1 -0.1 0.5 0 0.2 0.5 -0.2
0 0.5 0.2 0 0.5 0 -0.2 0.5 0.1 0.2
0.5 -0.1 0.2 0.5 -0.2 -0.1 0.5 -0.2 0.1 0.5
-0.1 -0.2 0.5 0.2 0.1 0.5 0.2 -0.1 0.5 0.1
-0.2 0.5 -0.2 0.2 0.5 0.2 0.2 0.5 -0.2 -0.2
0.5 0.2 -0.2 0.5 2.03627e-33 0.3 0.5 -0.3 -8.42594e-34 0.5
0.3 0 0.5 9.03502e-19 -0.3 0.5 -0.3 0.1 0.5 0.3
0.1 0.5 0.3 -0.1 0.5 0.1 0.3 0.5 -0.1 0.3
0.5 -0.3 -0.1 0.5 0.1 -0.3 0.5 -0.1 -0.3 0.5
-0.2 0.3 0.5 -0.3 0.2 0.5 0.2 0.3 0.5 0.3
0.2 0.5 -0.3 -0.2 0.5 -0.2 -0.3 0.5 0.3 -0.2
0.5 0.2 -0.3 0.5 6.21915e-33 0.4 0.5 -0.4 -3.37038e-33 0.5
0.4 0 0.5 1.807e-18 -0.4 0.5 0.1 0.4 0.5 -0.1
0.4 0.5 -0.4 0.1 0.5 -0.4 -0.1 0.5 0.4 -0.1
0.5 0.4 0.1 0.5 0.1 -0.4 0.5 -0.1 -0.4 0.5
-0.3 0.3 0.5 0.3 0.3 0.5 0.3 -0.3 0.5 -0.3
-0.3 0.5 -0.2 0.4 0.5 -0.4 0.2 0.5 0.2 0.4
0.5 0.4 0.2 0.5 -0.4 -0.2 0.5 -0.2 -0.4 0.5
0.4 -0.2 0.5 0.2 -0.4 0.5 -0.3 0.4 0.5 -0.4
0.3 0.5 1.55479e-33 0.5 0.5 0.4 0.3 0.5 0.3 0.4
0.5 -0.4 -0.3 0.5 -0.3 -0.4 0.5 -0.5 -8.42594e-34 0.5
0.5 0 0.5 9.03502e-19 -0.5 0.5 0.4 -0.3 0.5 0.3
-0.4 0.5 0.1 0.5 0.5 -0.5 -0.1 0.5 0.1 -0.5
0.5 -0.1 -0.5 0.5 -0.1 0.5 0.5 -0.5 0.1 0.5
0.5 -0.1 0.5 0.5 0.1 0.5 -0.433333 -0.3 0.5 -0.5
0.2 0.5 -0.2 0.5 0.5 0.2 0.5 0.5 0.5 0.2
0.5 -0.2 -0.5 0.5 -0.5 -0.2 0.5 0.5 -0.2 0.5
0.2 -0.5 0.5 -0.4 0.4 0.5 -0.4 -0.4 0.5 0.4
0.4 0.5 0.4 -0.4 0.5 -0.3 0.5 0.5 -0.5 0.3
0.5 0.5 0.3 0.5 0.3 0.5 0.5 -0.3 -0.5 0.5
0.5 -0.3 0.5 0.3 -0.5 0.5 -0.5 -0.3 0.5 0
0.6 0.5 0.6 0 0.5 -0.6 0 0.5 0 -0.6
0.5 0.6 0.05 0.5 0.6 -0.05 0.5 -0.1 0.6 0.5
0.1 0.6 0.5 0.6 0.1 0.5 0.6 -0.1 0.5 -0.6
0.1 0.5 -0.6 -0.1 0.5 -0.1 -0.6 0.5 0.1 -0.6
0.5 -0.5 -0.366667 0.5 -0.6 0.2 0.5 -0.2 0.6 0.5
0.2 0.6 0.5 0.6 0.2 0.5 0.6 -0.2 0.5 -0.2
-0.6 0.5 -0.6 -0.2 0.5 0.2 -0.6 0.5 -0.4 0.5
0.5 -0.5 0.4 0.5 -0.4 -0.5 0.5 -0.5 -0.4 0.5
0.5 0.4 0.5 0.4 0.5 0.5 0.5 -0.4 0.5 0.4
-0.5 0.5 0.65 0 0.5 0.65 0.05 0.5 0.65 -0.05
0.5 0.65 0.1 0.5 0.65 -0.1 0.5 -0.5 -0.433333 0.5
-0.433333 -0.5 0.5 -0.6 0.3 0.5 -0.3 0.6 0.5 0.3
0.6 0.5 0.6 0.3 0.5 0.6 -0.3 0.5 -0.3 -0.6
0.5 -0.6 -0.3 0.5 0.3 -0.6 0.5 0 0.7 0.5
0.7 0 0.5 -1.58113e-18 -0.7 0.5 -0.7 0 0.5 -0.0333333
-0.7 0.5 0.7 0.05 0.5 0.7 -0.05 0.5 -0.1 0.7
0.5 0.5 0.5 0.5 -0.5 0.5 0.5 0.7 0.1 0.5
0.7 -0.1 0.5 -0.5 -0.5 0.5 0.1 0.7 0.5 0.1
-0.7 0.5 0.5 -0.5 0.5 -0.7 0.1 0.5 -0.7 -0.1
0.5 -0.1 -0.7 0.5 0.7 0.15 0.5 0.7 -0.15 0.5
-0.6 0.4 0.5 -0.4 0.6 0.5 0.4 0.6 0.5 0.6
0.4 0.5 0.6 -0.4 0.5 -0.4 -0.6 0.5 -0.6 -0.4
0.5 0.4 -0.6 0.5 -0.7 0.2 0.5 -0.2 0.7 0.5
0.2 0.7 0.5 0.7 0.2 0.5 0.7 -0.2 0.5 -0.2
-0.7 0.5 0.2 -0.7 0.5 -0.7 -0.2 0.5 0.75 0
0.5 0.75 0.05 0.5 0.75 -0.05 0.5 0.75 0.1 0.5
0.75 -0.1 0.5 -0.3 0.7 0.5 -0.7 -0.3 0.5 -0.3
-0.7 0.5 -0.7 0.3 0.5 0.3 -0.7 0.5 0.3 0.7
0.5 0.7 0.3 0.5 0.7 -0.3 0.5 0.75 0.15 0.5
0.75 -0.15 0.5 -0.1 -0.766667 0.5 0.75 0.2 0.5 0.75
-0.2 0.5 -0.6 0.5 0.5 -0.5 0.6 0.5 0.5 0.6
0.5 0.6 0.5 0.5 0.6 -0.5 0.5 -0.6 -0.5 0.5
-0.5 -0.6 0.5 0.5 -0.6 0.5 -0.7 0.366667 0.5 -0.8
0 0.5 0 0.8 0.5 0.8 0 0.5 -3.16226e-18 -0.8
0.5 0.8 0.05 0.5 0.8 -0.05 0.5 -0.7 0.4 0.5
-0.4 0.7 0.5 0.4 0.7 0.5 0.7 0.4 0.5 0.7
-0.4 0.5 0.4 -0.7 0.5 -0.8 -0.1 0.5 -0.8 0.1
0.5 -0.7 -0.4 0.5 -0.4 -0.7 0.5 -0.1 0.8 0.5
0.1 0.8 0.5 0.8 0.1 0.5 0.8 -0.1 0.5 0.1
-0.8 0.5 -0.1 -0.8 0.5 0.8 0.15 0.5 0.8 -0.15
0.5 -0.433333 -0.7 0.5 -0.766667 0.3 0.5 -0.8 0.2 0.5
-0.2 0.8 0.5 0.2 0.8 0.5 0.8 0.2 0.5 0.8
-0.2 0.5 0.2 -0.8 0.5 -0.2 -0.8 0.5 -0.8 -0.2
0.5 0.8 0.25 0.5 0.8 -0.25 0.5 -0.6 0.6 0.5
0.6 0.6 0.5 0.6 -0.6 0.5 -0.6 -0.6 0.5 0.85
0 0.5 0.85 0.05 0.5 0.85 -0.05 0.5 0.3 0.8
0.5 -0.8 0.3 0.5 0.8 0.3 0.5 0.8 -0.3 0.5
0.3 -0.8 0.5 -0.3 0.8 0.5 -0.8 -0.3 0.5 -0.3
-0.8 0.5 0.85 0.1 0.5 0.85 -0.1 0.5 0.7 -0.5
0.5 -0.7 0.5 0.5 -0.5 0.7 0.5 0.7 0.5 0.5
-0.7 -0.5 0.5 0.5 0.7 0.5 -0.5 -0.7 0.5 0.5
-0.7 0.5 0.85 0.15 0.5 0.85 -0.15 0.5 0.85 0.2
0.5 0.85 -0.2 0.5 0.85 0.25 0.5 0.85 -0.25 0.5
0.4 0.8 0.5 0.4 -0.8 0.5 -0.8 0.4 0.5 -0.4
0.8 0.5 0.8 0.4 0.5 0.8 -0.4 0.5 -0.8 -0.4
0.5 -0.4 -0.8 0.5 -0.9 0 0.5 0 0.9 0.5
0.9 0 0.5 -1.58113e-18 -0.9 0.5 0.85 0.3 0.5 0.9
0.05 0.5 0.9 -0.05 0.5 0.85 -0.3 0.5 0.1 0.9
0.5 -0.1 0.9 0.5 -0.1 -0.9 0.5 0.1 -0.9 0.5
0.9 0.1 0.5 0.9 -0.1 0.5 -0.9 -0.1 0.5 -0.9
0.1 0.5 0.9 0.15 0.5 0.9 -0.15 0.5 -0.5 -0.766667
0.5 -0.7 0.6 0.5 -0.6 0.7 0.5 0.6 0.7 0.5
0.7 0.6 0.5 0.7 -0.6 0.5 0.6 -0.7 0.5 -0.7
-0.6 0.5 -0.6 -0.7 0.5 -0.9 0.2 0.5 -0.2 0.9
0.5 0.2 0.9 0.5 0.9 0.2 0.5 0.9 -0.2 0.5
0.2 -0.9 0.5 -0.2 -0.9 0.5 -0.9 -0.2 0.5 0.9
0.25 0.5 0.9 -0.25 0.5 0.5 0.8 0.5 -0.8 0.5
0.5 -0.5 0.8 0.5 0.8 0.5 0.5 0.8 -0.5 0.5
0.5 -0.8 0.5 -0.8 -0.5 0.5 -0.5 -0.8 0.5 0.3
0.9 0.5 -0.9 0.3 0.5 -0.3 0.9 0.5 0.9 0.3
0.5 0.9 -0.3 0.5 -0.9 -0.3 0.5 -0.3 -0.9 0.5
0.3 -0.9 0.5 0.95 0 0.5 0.95 0.05 0.5 0.95
-0.05 0.5 0.95 0.1 0.5 0.95 -0.1 0.5 0.95 0.15
0.5 0.95 -0.15 0.5 0.9 0.35 0.5 0.9 -0.35 0.5
0.95 0.2 0.5 0.95 -0.2 0.5 0.95 0.25 0.5 0.95
-0.25 0.5 0.4 0.9 0.5 0.4 -0.9 0.5 -0.9 0.4
0.5 -0.4 0.9 0.5 0.9 0.4 0.5 0.9 -0.4 0.5
-0.9 -0.4 0.5 -0.4 -0.9 0.5 -0.7 -0.7 0.5 -0.7
0.7 0.5 0.7 0.7 0.5 0.7 -0.7 0.5 0.95 0.3
0.5 0.95 -0.3 0.5 -1 0 0.5 -0.8 0.6 0.5
-0.6 0.8 0.5 0 1 0.5 0.6 0.8 0.5 0.8
0.6 0.5 1 0 0.5 0.8 -0.6 0.5 0.6 -0.8
0.5 0 -1 0.5 -0.8 -0.6 0.5 -0.6 -0.8 0.5
1 0.05 0.5 1 -0.05 0.5 -1 0.1 0.5 -1
-0.1 0.5 -0.1 1 0.5 0.1 1 0.5 1 0.1
0.5 1 -0.1 0.5 0.1 -1 0.5 -0.1 -1 0.5
1 0.15 0.5 1 -0.15 0.5 0.95 0.35 0.5 0.95
-0.35 0.5 -1 0.2 0.5 -1 -0.2 0.5 -0.2 1
0.5 0.2 1 0.5 1 0.2 0.5 1 -0.2 0.5
0.2 -1 0.5 -0.2 -1 0.5 -0.5 0.9 0.5 -0.9
-0.5 0.5 0.5 -0.9 0.5 -0.9 0.5 0.5 0.5 0.9
0.5 0.9 0.5 0.5 0.9 -0.5 0.5 -0.5 -0.9 0.5
1 0.25 0.5 0.95 0.4 0.5 1 -0.25 0.5 0.95
-0.4 0.5 -1 0.3 0.5 -1 -0.3 0.5 -0.3 1
0.5 0.3 1 0.5 1 0.3 0.5 1 -0.3 0.5
0.3 -1 0.5 -0.3 -1 0.5 1.05 0 0.5 1.05
0.05 0.5 1.05 -0.05 0.5 1.05 0.1 0.5 1.05 -0.1
0.5 1 0.35 0.5 1 -0.35 0.5 1.05 0.15 0.5
1.05 -0.15 0.5 -0.7 -0.8 0.5 -0.8 0.7 0.5 -0.7
0.8 0.5 0.8 0.7 0.5 0.7 0.8 0.5 0.8 -0.7
0.5 0.7 -0.8 0.5 -0.8 -0.7 0.5 1.05 0.2 0.5
1.05 -0.2 0.5 -1 0.4 0.5 -1 -0.4 0.5 0.4
1 0.5 -0.4 1 0.5 1 0.4 0.5 1 -0.4
0.5 0.4 -1 0.5 -0.4 -1 0.5 1.05 0.25 0.5
1.05 -0.25 0.5 -0.9 0.6 0.5 -0.6 0.9 0.5 0.6
0.9 0.5 0.9 0.6 0.5 0.9 -0.6 0.5 0.6 -0.9
0.5 -0.9 -0.6 0.5 -0.6 -0.9 0.5 1.05 0.3 0.5
1.05 -0.3 0.5 -1.1 -3.61401e-18 0.5 0 1.1 0.5 1.1
0 0.5 3.61401e-18 -1.1 0.5 1.1 0.05 0.5 1.1 -0.05
0.5 0.1 1.1 0.5 -0.1 -1.1 0.5 0.1 -1.1 0.5
-1.1 0.1 0.5 -1.1 -0.1 0.5 -0.1 1.1 0.5 1.1
0.1 0.5 1.1 -0.1 0.5 1.05 0.35 0.5 1.05 -0.35
0.5 1.1 0.15 0.5 1.1 -0.15 0.5 -1 0.5 0.5
-1 -0.5 0.5 0.5 1 0.5 -0.5 1 0.5 1
0.5 0.5 1 -0.5 0.5 0.5 -1 0.5 -0.5 -1
0.5 -1.1 0.2 0.5 -1.1 -0.2 0.5 -0.2 1.1 0.5
0.2 1.1 0.5 1.1 0.2 0.5 1.1 -0.2 0.5 0.2
-1.1 0.5 -0.2 -1.1 0.5 1.05 0.4 0.5 1.05 -0.4
0.5 1.1 0.25 0.5 1.1 -0.25 0.5 -0.8 -0.8 0.5
-0.8 0.8 0.5 0.8 0.8 0.5 0.8 -0.8 0.5 -0.9
-0.7 0.5 0.9 0.7 0.5 0.7 -0.9 0.5 -0.9 0.7
0.5 -0.3 1.1 0.5 0.3 1.1 0.5 0.7 0.9 0.5
0.9 -0.7 0.5 -0.7 -0.9 0.5 -0.3 -1.1 0.5 -1.1
-0.3 0.5 -0.7 0.9 0.5 1.1 0.3 0.5 1.1 -0.3
0.5 0.3 -1.1 0.5 -1.1 0.3 0.5 1.15 0 0.5
1.15 0.05 0.5 1.15 -0.05 0.5 1.15 0.1 0.5 1.15
-0.1 0.5 1.1 0.35 0.5 1.1 -0.35 0.5 1.15 0.15
0.5 1.15 -0.15 0.5 -1 0.6 0.5 -1 -0.6 0.5
0.6 1 0.5 -0.6 1 0.5 1 0.6 0.5 1
-0.6 0.5 0.6 -1 0.5 -0.6 -1 0.5 1.15 0.2
0.5 1.15 -0.2 0.5 -1.1 0.4 0.5 -1.1 -0.4 0.5
0.4 1.1 0.5 -0.4 1.1 0.5 1.1 0.4 0.5 1.1
-0.4 0.5 0.4 -1.1 0.5 -0.4 -1.1 0.5 1.15 0.25
0.5 1.15 -0.25 0.5 1.15 0.3 0.5 1.15 -0.3 0.5
-1.2 -7.22801e-18 0.5 0 1.2 0.5 1.2 0 0.5 7.22801e-18
-1.2 0.5 1.2 0.05 0.5 1.2 -0.05 0.5 -1.2 0.1
0.5 -1.2 -0.1 0.5 -0.1 1.2 0.5 0.1 1.2 0.5
1.2 0.1 0.5 1.2 -0.1 0.5 -0.8 -0.9 0.5 -0.9
-0.8 0.5 0.1 -1.2 0.5 -0.1 -1.2 0.5 -0.8 0.9
0.5 -0.9 0.8 0.5 0.9 0.8 0.5 0.8 0.9 0.5
0.9 -0.8 0.5 0.8 -0.9 0.5 0.5 1.1 0.5 -0.5
-1.1 0.5 -0.5 1.1 0.5 -1.1 0.5 0.5 1.1 0.5
0.5 1.1 -0.5 0.5 0.5 -1.1 0.5 -1.1 -0.5 0.5
1.2 0.15 0.5 1.2 -0.15 0.5 -1.2 0.2 0.5 -1.2
-0.2 0.5 -0.2 1.2 0.5 0.2 1.2 0.5 1.2 0.2
0.5 1.2 -0.2 0.5 0.2 -1.2 0.5 -0.2 -1.2 0.5
-1 0.7 0.5 -1 -0.7 0.5 -0.7 1 0.5 1
0.7 0.5 0.7 1 0.5 1 -0.7 0.5 0.7 -1
0.5 -0.7 -1 0.5 1.2 0.25 0.5 1.2 -0.25 0.5
-0.3 -1.2 0.5 -0.3 1.2 0.5 0.3 1.2 0.5 1.2
0.3 0.5 1.2 -0.3 0.5 -1.2 0.3 0.5 -1.2 -0.3
0.5 0.3 -1.2 0.5 1.25 0 0.5 1.25 0.05 0.5
1.25 -0.05 0.5 -1.1 0.6 0.5 -1.1 -0.6 0.5 0.6
1.1 0.5 -0.6 1.1 0.5 1.1 0.6 0.5 1.1 -0.6
0.5 -0.6 -1.1 0.5 0.6 -1.1 0.5 1.25 0.1 0.5
1.25 -0.1 0.5 1.25 0.15 0.5 1.25 -0.15 0.5 -0.4
-1.2 0.5 0.4 1.2 0.5 -0.4 1.2 0.5 1.2 0.4
0.5 1.2 -0.4 0.5 -1.2 0.4 0.5 -1.2 -0.4 0.5
0.4 -1.2 0.5 1.25 0.2 0.5 1.25 -0.2 0.5 -0.9
-0.9 0.5 0.9 0.9 0.5 -0.9 0.9 0.5 0.9 -0.9
0.5 -1 0.8 0.5 -1 -0.8 0.5 -0.8 1 0.5
1 0.8 0.5 0.8 1 0.5 1 -0.8 0.5 0.8
-1 0.5 -0.8 -1 0.5 -1.3 -3.61401e-18 0.5 3.61401e-18 -1.3
0.5 0.5 1.2 0.5 -0.5 1.2 0.5 1.2 0.5 0.5
1.2 -0.5 0.5 -0.5 -1.2 0.5 0 1.3 0.5 1.3
0 0.5 -1.2 0.5 0.5 -1.2 -0.5 0.5 0.5 -1.2
0.5 1.3 0.05 0.5 1.3 -0.05 0.5 1.1 0.7 0.5
1.1 -0.7 0.5 0.1 -1.3 0.5 -0.7 1.1 0.5 -0.7
-1.1 0.5 0.7 -1.1 0.5 -1.3 0.1 0.5 -1.1 -0.7
0.5 -0.1 1.3 0.5 0.1 1.3 0.5 0.7 1.1 0.5
1.3 0.1 0.5 1.3 -0.1 0.5 -0.1 -1.3 0.5 -1.1
0.7 0.5 -1.3 -0.1 0.5 1.3 0.15 0.5 1.3 -0.15
0.5 -1.3 0.2 0.5 -1.3 -0.2 0.5 0.2 1.3 0.5
0.2 -1.3 0.5 -0.2 -1.3 0.5 -0.2 1.3 0.5 1.3
0.2 0.5 1.3 -0.2 0.5 -1.3 0.3 0.5 0.3 1.3
0.5 -0.3 -1.3 0.5 -1.3 -0.3 0.5 -0.3 1.3 0.5
1.3 0.3 0.5 1.3 -0.3 0.5 0.3 -1.3 0.5 -1.2
0.6 0.5 -1.2 -0.6 0.5 0.6 1.2 0.5 -0.6 1.2
0.5 1.2 0.6 0.5 1.2 -0.6 0.5 -0.6 -1.2 0.5
0.6 -1.2 0.5 -1 0.9 0.5 -1 -0.9 0.5 -0.9
1 0.5 1 0.9 0.5 0.9 1 0.5 1 -0.9
0.5 0.9 -1 0.5 -0.9 -1 0.5 1.35 0 0.5
1.35 0.05 0.5 1.35 -0.05 0.5 1.35 0.1 0.5 1.35
-0.1 0.5 0.4 1.3 0.5 -0.4 -1.3 0.5 -1.3 0.4
0.5 -1.1 -0.8 0.5 -1.3 -0.4 0.5 -0.4 1.3 0.5
1.3 0.4 0.5 1.3 -0.4 0.5 0.4 -1.3 0.5 -1.1
0.8 0.5 -0.8 1.1 0.5 1.1 0.8 0.5 0.8 1.1
0.5 1.1 -0.8 0.5 -0.8 -1.1 0.5 0.8 -1.1 0.5
-1.2 0.7 0.5 -1.2 -0.7 0.5 -0.7 1.2 0.5 1.2
0.7 0.5 0.7 1.2 0.5 1.2 -0.7 0.5 -0.7 -1.2
0.5 0.7 -1.2 0.5 1.3 -0.5 0.5 -1.3 0.5 0.5
0.5 1.3 0.5 1.3 0.5 0.5 -0.5 -1.3 0.5 -0.5
1.3 0.5 0.5 -1.3 0.5 -1.3 -0.5 0.5 -1.4 0
0.5 0 1.4 0.5 1.4 0 0.5 0 -1.4 0.5
[...]
POINT_DATA 4482
FIELD attributes 1
p 1 4482 float
20717.5 20326.2 20771.6 20747 21677.7 21836.9 20366.3 21916.1 20359.2 20921.6 25743.3
20083.1 20950.9 20448.6 22831.6 26181.7 26925.5 22487.8 20123.2 20092.9 20455.7
30888.1 20200.4 28657.6 20147 21507.8 43368 19980.3 21417.9 47067.7 20015.1
19972.7 20584.4 25414 44452.9 20617.1 24270.6 39664 56235.4 20291.8 20070.6
51118.5 35381.6 19992.1 20245.8 23299.7 85984.1 19902.8 22746.4 20979 32212.5
90551.2 87458.1 19890.1 19950.5 20955.1 29393.7 70896.5 20142.2 20041.7 64752.1
54638.8 100208 20411.2 20021.1 95562.2 49374.9 19911 20382.2 88244 111957
28686.7 20092.9 20235.9 109023 84721.1 142804 19654.1 26843.1 19950.7 20127.2
22361.1 143701 21998.8 41937.1 45962.8 143642 19666.9 19743.7 122824 145627
74176.5 20731.8 19885.4 71153.3 146363 19742.3 20662.7 121657 123606 20172.9
20004.2 103912 147428 20034.5 20348.5 105948 19835.2 20255.9 150426 41129.9
19012.8 185510 38218 18992 18944.1 66082.1 26919.5 19231.4 19146.2 182360
185531 63871.3 25565.7 152830 177173 93887.7 21933.1 19577.3 19412.5 95623.6
182490 21616.6 127954 147548 134932 154032 20147.7 20255.9 19921.4 20085.7
18654.2 18702.6 18657.1 18843.1 18764.2 154777 142044 171923 116768 20622.9
19862 19609.3 122560 178478 20535.1 61901.8 18457.5 60140.3 205732 70100.7
18497 18457 89517 20195.7 147466 18588.7 18515.3 156268 38605.3 36453.7
19992.5 201930 205638 90021.4 18642.7 18528.9 167926 134957 20329.7 20080.1
19797.3 142303 175528 20220.8 196219 113602 26090.6 18988.4 18818.3 115376
25023.6 201990 18305.6 18344 18308.6 18360.8 18296.3 133578 197525 133393
191163 21498.7 21879.6 19548.7 19278.3 18392.3 18287.9 104375 18587.6 18436.1
166872 152879 20342.1 20174.7 19921.5 175090 159611 20085.1 189251 218917
91329.6 18169.8 87348 18210.7 18180.6 188294 153078 21123.7 19919.1 19613
20533.1 219370 216492 194878 148788 121454 60895.4 18254.8 18197.9 58616.2
111551 18290.2 18198.6 154520 204702 213490 149953 37833.6 18440.9 18301.4
35940.7 128286 217959 18643.3 18443.9 173164 20911.5 20002.9 178754 18085.4
18131.2 18107.6 27408.7 211472 19079.6 18829.3 25024.1 179116 216549 142050
18198.5 18152.8 19836.4 188689 174035 20254.4 195904 22876.3 165984 20252.5
18259.2 18179.6 18328 18203.8 18485.7 18300.2 28187.6 21613.1 211406 209493
19733.5 19425.4 216838 157337 236362 140749 18074.1 109940 18775.6 18107.3
18092.2 18545.9 99169.9 181724 125664 86604.7 18154 18123.9 237253 235291
18219 18155.1 172199 195884 195744 29116.2 23305.5 19947 20122.3 200946
186007 234624 221743 64251.4 18317.6 18205.6 58623.9 138316 237944 18481.1
18311.6 39148.1 213496 239018 20730.1 19746.6 20656.1 219967 175306 48591.9
235247 261488 18747.9 18536.9 239266 152159 36463.7 18089.5 18104.9 18098.6
18108.9 18094 18158.2 18112.3 18993.2 18791.7 18283.2 18191.5 18473.2 18326.6
57778.3 25567 237526 301041 19462.9 19172.6 241988 168396 208860 217810
41480 20032.6 18666 18482 259416 220853 265122 214436 58456.4 29251.6
18083.1 19903.4 20372.5 124889 226021 195890 18090.3 18090.1 259144 260500
259904 163374 18080 18076.6 109942 136647 18121.1 18091.6 18855.2 18687.7
259970 262410 301532 118380 18253 18183.3 87356.9 149437 340216 246615
21991 241013 82245.2 22358.6 19677.5 186988 18445.6 19201.3 18326.4 18976.5
262399 265396 342236 104162 18620.5 18484.5 60159.5 164383 18090.6 18101.3
18105.5 18105.1 18109.6 18803.8 18686.5 18155.6 18137.5 219334 241087 286812
59073.3 81602 19976 20231.1 234538 18279.9 18224.5 266449 269683 123537
384564 19413.9 19046.7 38233.3 181405 18459.8 18365.2 248528 377836 107209
39764.5 19880.1 20941.6 253561 208212 18602.9 18524.3 287817 280936 18080.7
136655 18105.2 18110.4 240278 148608 125670 288095 288965 317452 18149.5
18157.3 18818.1 18735.1 18214.6 18205 271590 275702 146119 430485 26376.5
19669.6 26842.1 200776 289971 291511 353943 208176 18300.8 18267.9 111554
162541 19410.6 19026.1 18406.5 18382 245810 304591 104847 20125 263122
80516 20597.4 267079 392720 204749 126127 19952.1 232454 178345 295597
411903 18638.9 18615.1 90034.3 293753 18120 18152.1 18159.6 18210.2 18222.9
18960.5 18874 18262.4 18265.9 279869 284146 153377 479981 54615.9 19893.4
22732 222938 18302.7 18303.1 299514 301377 213838 436130 20267.4 19260.7
63893.1 196264 18364.2 18413.5 18623.1 18667.7 323206 317314 18244.4 149462
18267.2 18279.8 323927 324428 341881 301113 18294.5 18318.4 260092 275798
138339 162556 438676 321122 126372 140102 20066.1 20428.5 205976 216725
485813 306817 33739.5 19756 41948.3 309281 18303.7 18333.3 326667 327557
373908 308597 18413.9 18451.5 128296 177378 297414 295629 532095 103929
152846 19960.3 21394.5 248309 18535.3 18605.9 194105 410271 327321 19030.3
19006.6 331677 332763 115378 18429.3 18445.1 18461.9 316602 320009 182407
542038 73110.7 19942.9 240122 29383.8 18442.4 18476.6 18445.1 18487.2 213206
303699 452581 22447.6 19591.2 339184 340274 95630.6 18596.8 18647.7 292064
151342 454852 20326.3 341286 310696 583034 145486 152850 20056.6 20918.8
277711 367759 164427 245955 502806 43870.6 19890.1 235024 332294 18644.8
348884 350445 71159.3 18658.5 18676.8 126423 19998.2 152205 605182 267206
24245.2 368775 334203 346141 337461 161981 18727.1 18763.2 178380 333797
369182 18747.3 18789.7 372236 372986 384378 142084 194125 372506 19044.5
19097.3 378322 428010 212075 379357 406631 19755.9 19553.9 133401 360787
363808 195696 561846 93299.2 20014.9 260145 49361.3 461990 329712 625596
161139 155598 20292.7 20731.9 312164 18943.3 18959.6 18978.2 19068.5 19097.1
376440 232579 387316 352270 388552 447826 25722.8 19858.7 122547 369472
674198 161355 153303 20100 298944 22451.7 377808 380826 630922 146428
164525 20056.7 289505 35343.4 20029.2 399012 274380 55544 256115 497161
105924 400762 421464 340136 19377.9 181471 19316.8 19339 422601 423209
361053 345415 19501 19542.1 196321 168463 653277 426587 352772 427729
428785 365960 161336 19713.1 20675.8 19789.8 157396 213248 374429 336179
21792.2 744888 154044 466977 170587 20336.7 412945 416337 203321 112499
20085.6 283469 84680.7 433444 435168 483331 398782 20385.7 19958.1 148820
232601 555694 401784 407502 710174 174572 151612 20180.7 323927 28601.7
443418 445728 423308 438734 29989.2 20084.9 142293 254817 435639 164177
165069 20130.3 64671.4 429963 625566 315478 662189 811305 456460 380144
400794 459539 299953 486657 170248 160656 67744.7 20709.2 21629.2 20137
134887 280532 478643 426823 483705 797410 351671 180940 152385 20042.4
20422.6 364460 26115.7 200865 187076 484818 485837 385701 344990 20032.3
20106.8 216806 489144 491112 458662 362302 20048.4 20176.1 235087 175386
472181 476972 212928 543483 130063 20164.3 310523 123533 458950 454964
187543 148618 20274.4 353130 50981.5 708603 496627 499703 506129 394745
20891.4 166044 256157 20220.5 507607 511880 159632 446530 434147 34116
20228.3 280553 865766 431393 171447 21866 286222 889546 651142 412085
455925 182454 161603 20886.1 25667.7 490329 498486 611682 181011 165991
20225.3 345754 108890 522496 156242 149496 504210 193192 20560 397490
486419 320109 804952 481369 20230.1 44271.6 308897 528078 79181.5 223048
561671 393407 20293.4 562747 564285 426576 20220.9 20339.3 208324 240220
513110 524686 693723 202533 143487 20393.6 387263 95325.8 567729 570830
489753 20147.6 20358.5 195994 260226 541627 549185 223328 537145 146305
20260.5 342114 153959 22770.1 26822 576979 489110 581914 186098 986865
892235 466133 519540 186239 175106 21164.6 20345.2 283529 632242 518318
448327 196957 21469.8 43150.5 912932 162105 591142 598076 178819 456524
37214.9 20333.6 310562 166774 604006 565309 197962 20337.5 381203 576372
150287 335487 550663 556804 791025 208719 139363 20954.2 435152 87129.2
610877 619752 175112 334192 88741 20344.1 342135 30704.2 1.0881e+06 526784
191985 437663 248435 594486 610943 684569 220137 132825 20719.6 426404
146135 666902 20359.5 878924 504968 202984 669321 667532 20260.4 20423.6
232589 267318 555954 465288 25314.2 46779.2 1.03328e+06 178896 636398 647365
233339 161689 20370.9 379205 175497 516283 671967 675781 20154.8 20457.1
219467 289600 21274 443292 638687 905408 596824 488612 214328 157289
23267.6 85589.7 681139 531045 687312 208986 21236.7 20461.9 315553 695069
703682 201058 667236 680676 170039 216585 20644.5 422047 178387 464151
38537.4 20474 345812 653314 143388 780832 109064 633501 227925 22383
477067 39389.2 55823.4 570766 1.17539e+06 1.17967e+06 602238 210097 197477 195989
713030 723623 95296.8 20508.1 348550 381244 850275 1.04218e+06 646662 548875
221882 181252 32150.8 90083.3 717654 22022.1 470149 182353 700597 129031
241214 749723 456353 20477.7 277847 697075 897112 533644 701830 750331
748706 483027 120951 235182 20573.3 20378.8 28857.7 260241 299065 142433
732761 744754 246791 176597 20733.6 422068 194919 25687.3 508189 748338
751776 531142 20283.9 20655.9 245969 324032 749082 754481 539436 21245.3
20694.4 234700 353220 753172 27339.5 731186 90151.7 250682 523751 185351
660552 762397 180345 238706 70462.2 21970 467857 1.36411e+06 749512 216774
197521 1.20259e+06 1.21826e+06 625713 704975 229730 200240 54573.9 99687 748876
756060 474804 37788.6 20731.4 226180 387340 601566 834112 243795 46373.8
143237 1.04418e+06 750365 181881 744320 752603 368401 97857.8 20985.4 220120
426464 768904 142416 26777.4 518852 201960 754898 267251 754566 586123
777129 70295.1 258822 42091.1 185300 739197 730600 266968 190511 22216.1
216971 470186 701106 474596 20787.2 312307 698655 697413 496549 20898
20709.2 292221 336309 762196 728011 88336.4 111586 1.49088e+06 1.45987e+06 688062
690045 538900 221088 237212 20651.1 20994.3 275969 364578 695285 74879.9
145235 1.11454e+06 1.24066e+06 784507 200490 251991 738301 577396 205589 545900
107079 754682 674104 21366.5 21077.5 40082.5 263307 277547 671683 397598
709365 701070 197403 265025 26898.7 518867 216656 30724.6 669919 644964
647424 489454 35403.6 21397 67293.4 253757 435245 182142 783291 774221
267835 246821 606359 96413.5 393621 604302 22770.1 477138 74529.1 654914
647256 162162 299077 39586.3 574568 218048 87670.3 689193 708172 653515
285342 63245.9 205670 795660 1.65453e+06 242746 122041 105034 147255 786420
781590 1.39576e+06 1.51094e+06 222268 259964 21728.3 548524 547015 293159 202659
27691.9 242196 523797 768127 94858.4 176985 874456 727209 471903 324764
276269 21265.5 352928 466439 466842 478061 141381 21352.3 21227.2 329879
380292 450311 450275 546571 144417 21227.9 21542 310878 412225 570510
563115 134568 308934 61562.3 645584 219447 422312 421422 209018 568224
21909.2 22080.7 295827 448453 472217 218924 295004 40367.2 239467 201859
603426 618356 750107 294204 473147 89000.5 577424 382490 380695 220721
522508 32995.6 23812 284361 488716 772874 717270 1.58473e+06 1.7342e+06 244656
266232 129474 148175 459405 451440 737839 119162 315075 86058.3 218982
798913 117284 171894 384126 332730 383659 622025 330353 179566 432151
157618 93044.5 336854 29372.2 61679 275935 533722 645600 238129 1.01784e+06
284861 102881 806718 109822 196161 511152 487610 303095 273935 276390
329654 112718 213245 42565.2 269929 586182 216926 319853 22249.8 400981
85193.3 291245 290839 155862 477667 199781 345445 22530.3 374624 431572
733583 237428 213408 213559 22296 337032 325763 203304 202650 806290
586648 201451 323503 22670 23421.9 105596 352475 466298 216537 63538.2
216356 218459 248414 102393 326621 653562 265647 578846 1.67659e+06 186608
185338 258697 637430 268545 24205.4 25903.4 334419 505112 149252 664992
465922 1.18839e+06 291868 135119 168633 165736 164095 255217 607809 34685.1
32661.1 320239 548992 723290 125871 191198 494711 340490 312454 206978
206095 804455 144956 348911 103695 236529 86105.6 165630 737862 167006
197894 101389 379011 262657 521526 93754.4 142651 173319 144192 46799.1
309525 601667 225752 215558 758125 333067 120162 213510 124234 125343
411614 115969 224189 67531.4 301634 670006 392506 299274 103670 129558
804443 1.28754e+06 130152 164989 101305 294537 387202 260741 152968 168952
143474 356522 145790 117067 775489 235438 111182 494656 25949.8 456157
600087 320025 477228 212726 110672 110618 657562 368169 26210.6 27124.6
141649 427067 489328 189020 109189 109064 804913 335315 28132.5 30842.1
402036 526982 112097 356061 315045 102603 88971 750145 295864 111525
148084 544293 134226 211547 106939 168148 107115 897111 354308 343104
33613.5 39342.9 381082 570949 110408 110539 780535 101298 117965 387327
116098 259653 105046 104876 888140 316212 49228.2 54443.2 364068 625884
588926 105473 234725 114240 112113 366572 105074 105269 244755 101400
421246 806246 291783 129798 103293 103413 795722 201472 106057 74617.5
350712 695420 174003 173552 224204 134622 681450 322917 160125 191095
276390 112330 196619 351091 150805 212153 102265 102331 658954 121283
235705 94432.2 340547 768164 103555 259369 103505 610667 101298 87385.8
393429 127762 117061 289237 195881 101305 432395 775386 102586 102534
101700 847881 41642.8 518610 103807 101680 101677 1.08801e+06 630017 45146.5
556238 486721 235358 104208 321253 377119 42782.3 144858 1.2964e+06 510771
101699 101619 101727 101613 522738 102855 378703 49054.9 54053.6 109429
806613 333041 459259 602517 101526 101534 1.41544e+06 462468 68723.5 435948
660808 61528.4 101646 101657 610586 101298 150249 429647 127847 288090
101802 260139 101745 350977 101298 124736 403524 141620 115872 106715
101449 1.38721e+06 369212 82375.6 86792.8 728181 181506 196923 101441 416645
101444 101453 410097 101405 458351 120059 757896 327839 130501 102910
226316 354121 170185 216053 101382 128727 401073 1.2504e+06 214401 103715
786419 101376 101725 105318 148032 385333 162553 238211 101384 434019
101383 101298 127052 288358 361251 140708 101338 1.06003e+06 120244 242878
101344 101347 331637 101305 477641 130012 588678 324708 101335 116344
798697 388863 101393 262534 163613 101401 101298 176644 414419 157908
101315 1.50361e+06 81483.5 597231 2.04257e+06 975390 101316 101313 84160.5 85239.6
557200 647056 205377 101894 101314 867755 102582 391331 125510 722900
379666 101313 2.35572e+06 728455 102738 101503 191965 222709 101312 101310
93179.3 94976.5 525072 705290 101312 350834 101312 101299 278457 475018
141984 323483 101317 290180 101315 172780 101298 158388 2.45319e+06 592671
443948 101309 101307 107148 107741 498866 762338 155821 104260 101359
182432 106900 388350 243452 101305 2.31267e+06 399698 123693 119250 795545
101304 477348 101303 101304 700989 101376 489378 134481 543875 373293
101315 101407 101298 106378 177561 422608 176182 266986 101302 2.04971e+06
197645 151851 101302 127706 459914 772484 524879 101302 172748 101302
101298 240485 478318 156112 324198 101302 101300 101302 172733 293900
145544 320987 369480 576899 522074 101302 108340 101298 202852 455003
101300 101300 1.74665e+06 112218 243308 101300 134370 664415 446098 101354
101320 216352 231884 101418 101306 204682 251121 101301 101512 101299
196621 273642 101299 101444 101298 101299 1.46094e+06 1.63216e+06 136905 101935
425408 395396 138199 702270 141840 476665 435528 101299 141865 994216
2.7214e+06 137552 653834 750641 213106 254588 109146 101299 101299 101298
237196 488020 171862 326897 101299 101299 483671 523681 101299 101298
825594 3.10669e+06 146993 139711 611485 784516 101299 163526 158768 368045
101298 3.18194e+06 632458 152279 143001 781262 576903 101299 101617 101301
101298 195126 462869 191642 299872 558762 101298 151751 276042 428082
101298 1.21124e+06 101335 517166 101298 2.95844e+06 353718 145506 549692 716633
157280 101300 243851 101298 369054 155455 108330 101298 401022 526690
173525 101303 101299 101298 2.60381e+06 169402 229953 261521 148142 528567
578065 101298 101689 189447 331838 101298 101298 252718 498955 101307
101298 219859 282870 101298 109225 101298 101298 1.00035e+06 101300 568093
163955 147915 423548 101298 101298 2.21972e+06 104974 239388 153154 391847
512352 308277 101312 213200 101302 101298 145491 465244 101298 344818
535889 372490 101298 189937 101689 101298 101481 393680 500157 1.86815e+06
161311 223839 240875 283835 101298 101298 764816 577090 101298 670484
183409 777189 101298 106364 177744 421784 101298 101298 716856 178426
186792 753516 773930 101298 101298 101298 101298 101317 101298 705967
227855 186628 505945 173356 209578 339406 726567 718174 101298 101298
258648 274848 101298 101298 493728 183575 169454 621126 681288 101298
101298 246336 294992 101298 102237 101298 1.56016e+06 101308 543580 172104
130388 491554 101298 101298 235829 180533 167622 465009 648012 101299
237762 319476 101298 563443 579988 422910 101298 111161 101298 101617
193104 101318 317068 378516 101298 546195 208759 101298 101298 117830
184612 169417 298609 620408 184737 104247 1.28523e+06 101299 618355 486262
101298 101299 101298 101298 161903 507567 232553 349748 101298 101298
102057 233638 175186 173682 598729 426877 101298 101298 471984 588085
101298 210698 101317 291256 101298 101298 101298 101398 276501 310199
101298 264127 551520 101511 101298 801211 637506 199025 484108 101298
101299 101298 101332 383071 230347 183954 387480 115789 582554 450288
207004 707467 101298 102389 265698 484683 209506 754339 617358 333773
201485 447617 207879 195687 486524 768890 272834 339581 762650 204093
191528 101298 101298 101300 564956 195007 102731 571457 101298 101298
101298 114722 258569 363050 190444 212173 409279 433690 101298 597054
101299 137384 200725 745202 230961 640010 101312 567040 215437 485203
304479 316262 101298 399447 254754 193599 134409 101298 173387 551967
103362 203021 724200 101298 673300 208009 101417 564894 101298 101308
311090 328764 101298 101298 101407 297729 351330 101386 232511 200174
106674 704337 101299 101298 541262 646210 489510 234416 101298 101298
301548 600101 101298 101298 253955 443595 101298 102626 101298 288304
379520 101307 101298 101298 101298 406175 707121 223210 562257 209214
688013 101890 101302 360107 101298 244917 223319 458214 244987 225179
219747 282505 414423 569394 335994 115148 101298 101298 202622 224882
216389 225035 654044 133516 223982 214713 220608 147729 708807 101354
101298 568136 676510 461595 496960 101298 653140 256088 293075 101299
461647 709761 240903 563306 101298 215983 112227 350882 101298 101298
104204 101299 738931 223517 101298 171877 599083 280036 456666 372286
334448 101298 101308 101298 101298 101298 101416 322355 399296 226075
102896 101436 220517 752573 234405 101303 726413 670062 102518 432568
314216 101298 101298 101305 242797 227612 101502 756219 101298 101298
101298 101298 508656 712907 261265 568259 101298 101298 295081 653624
280734 507870 101298 336312 786147 250758 667631 101298 101298 309742
472950 101298 111061 101298 331554 237221 754781 101320 376546 396756
101298 101298 121843 101299 101298 242992 206244 118848 244594 290239
145386 241207 101298 110145 406167 245990 240141 284602 577472 114097
382959 101298 101298 101308 717025 361246 422474 101298 540424 249449
101300 101298 101298 752171 333752 792619 240903 269795 103779 101298
308757 522669 101298 151642 102989 651003 247789 668222 374769 471971
101395 350356 454129 244121 101720 101427 547473 250009 759148 343520
264337 492765 101298 750778 102047 249761 253190 605477 101305 101359
101298 101298 101298 101298 227176 714708 311212 591569 291824 101298
101298 379836 791052 672599 101299 264095 257785 101306 646737 340532
541945 105925 300263 101298 101298 424807 101298 101298 101298 101298
101298 101298 101298 101298 231821 101299 101298 868238 405787 282008
449149 750186 314579 268472 101299 101298 101305 673600 391674 479358
101298 266546 791368 317141 681703 101298 101298 102303 101351 267977
110292 101298 101298 382052 516772 101300 102135 267241 269501 129256
103527 101298 123096 710359 341303 611174 101298 101298 101298 101675
271888 267786 101796 165074 101298 236936 889600 302730 749144 488466
101298 281919 101298 689672 101298 101366 275313 270276 101392 215565
101603 566859 376669 101298 101298 101298 101304 279463 274932 272997
101315 298229 749763 698366 101298 101298 101298 101298 101299 148309
101298 101298 785858 283991 281896 456496 345828 479513 695547 101301
329333 326778 748718 101298 209937 883348 101298 101298 101299 101298