/*--------------------------------*- C++ -*----------------------------------*\
  =========                 |
  \\      /  F ield         | OpenFOAM: The Open Source CFD Toolbox
   \\    /   O peration     | Website:  https://openfoam.org
    \\  /    A nd           | Version:  9
     \\/     M anipulation  |
\*---------------------------------------------------------------------------*/
FoamFile
{
    format      ascii;
    class       volScalarField;
    location    "0.0035";
    object      overpressure;
}
// * * * * * * * * * * * * * * * * * * * * * * * * * * * * * * * * * * * * * //

dimensions      [1 -1 -2 0 0 0 0];

internalField   nonuniform List<scalar> 
32282
(
37115
39876.6
68016.7
52237.7
153016
125653
30711.1
29018.7
29814.4
19027.7
18803.3
19902.9
15052.6
32799.6
23824.8
20375.8
53261.6
42379.8
30981.8
21938.7
19418.4
14219.2
13440.4
12849.3
7377.88
8029
13589.4
18807.1
13533.7
13368.9
9873.17
8889.5
14455.6
15460.7
19495.2
14697
13918.4
11129.2
12814.1
16789.4
18581.2
24186.3
29743
24501.3
26065.9
25172.6
18753.4
19585.8
132484
120629
46585.9
26441.8
58075.7
28921.1
62697
9607.5
21696.7
16124.8
17079.7
10499.5
15998.2
22712.8
21792
17925.5
16005.4
17732.2
15005.2
20900.6
23773
24711
30188.7
24356.8
28154.6
26988.3
20468
21533.1
12874.8
18300.8
11556.8
17113
25765.3
18528.1
24026.7
30758.7
73318.9
42466.7
36456.2
24429.1
36227.3
20059.5
26330
24283.3
27785.6
37912
27860
37933
34642
26336
26953.9
53151.4
64502.8
66820.6
45793.9
42863.1
60622.3
39572.5
30437.6
20815.5
25223.4
27513.6
28414.1
29388.2
27408
25466.4
19817.4
21397.8
18571.4
20117.5
28011
29120.8
40122.7
61199.5
60261.3
55343.2
57898.5
38539.9
38394.9
32452.1
30147.2
49519.2
32640.5
47085
33968.2
28160.2
22290.6
27046.7
27545.6
31155.5
33178.6
33534.6
29962.2
21974.4
22637.1
27446.6
30439.5
26533
29758.6
26880.3
27040.7
21650.8
20846.9
22691.9
23921.1
30236.9
31433.7
36504.1
26697.4
24939.6
23625.6
22152.3
30963.7
32437.4
26636.8
21913.1
21826.7
26730.8
26433.6
30221.8
30850.7
31999.7
38227
35255.8
45674.7
46161.7
38473.7
35977.6
28684.6
26908.1
25256.8
40588.4
35643.5
38471.4
33989.9
27138.3
22333
23277.9
32675.7
28760.3
27595.5
31603.1
31315.1
36018.2
31250.8
37141.8
37662.2
33568.2
33448.7
32243
37082.2
31677.4
38874.1
40264.5
34301.8
35305.6
43695.6
41815.9
34617.7
40970.7
39180.5
33168.7
36456.8
26374.2
25325.4
31523.8
29749.8
22978
24915.3
31862.2
55205.4
153142
137904
39244.4
74641.1
33134.5
69884
14559
24450.9
16689.4
27969.1
20346.1
22628
30663.1
30195.1
34643.5
27973.4
27394.7
37793
30443
34533.8
27991.5
21175.3
35176.3
36340.1
28044.5
22167.1
29129.8
22438.4
27461.7
19309
25408.4
37581.3
28711.6
33863
31904.5
30269.6
37869
23344.8
32424.9
24866.6
30547.5
137290
33222.9
65928.3
56515.1
22189
27519.4
14840.5
61735.1
62605.8
16880.8
18476.1
20675.4
26914.4
29204.6
31019.2
33469
26425.7
39843.3
35129.8
19313
23310.2
31929.7
36393.8
22661.2
30132.7
25058.5
41098.8
35694.4
38356.7
44011.2
12442.8
1604.97
102.018
8093.53
-8362.99
8768.15
14803.9
3378.63
4765.81
25109
2652.62
11535.7
9266.72
-7128.14
16680.6
4879.26
-7286.31
354.504
-3346.77
-9892.47
-10296.7
-6623.97
-6456.35
-8797.79
-2994.24
-3630.33
-8211.1
-9547.4
-5521.06
-4314.35
-5614.32
-2071.22
-6727.64
-947.679
-5076.02
-2971.63
-1358.92
3560.66
7879.57
2086.13
2285.38
-2427.98
-2025.08
2841.64
7862.02
2585.43
2152.76
-1082
4724.98
-4.78178
3721.82
-7185.99
1082.59
-6258.06
3395.81
-3600.01
-2685.3
4285.05
-1619.72
-3836.37
587.72
-756.3
-3113.35
640.202
3070.22
2143.25
-3838.38
-5104.11
-1628.61
6618.94
-431.48
5328.89
8498.46
3166.85
4042.28
5957.86
1255.2
2858.3
7580.83
-2411.59
6719.38
-709.895
8232.93
1010.04
2789.11
10218.5
11282.9
7080.7
398.476
1249.55
12181.7
5612.93
7946.16
10556.1
7351.59
5410.49
4896.24
12284.5
7405.35
9677.07
2254.23
7870.12
10400.7
13323.1
3452.67
6626.89
9023.61
3776.54
8924.44
1340.04
4952.71
15433.2
7541.83
12603.4
-12054
49421
-10307.3
67551.9
107297
86348.3
10733.2
66472.9
20244.7
97604.9
52504
62069.1
55639.2
61868.4
78762.5
70633.9
77163
9823.16
-11463.2
11451.4
-11309
48203.8
9725.54
55828.2
-15807.9
38129.8
143835
15244.9
7184.26
70710.7
9185.7
69627.5
50468.9
82094.2
62618.6
86008.3
77139.2
63920
54384
48468.6
56831.1
61911.4
68075.1
70325.5
59380.5
85213
117749
97561
107977
87863.9
93830.9
110135
11896.5
19678.8
61665.2
-7803.79
21703.8
30100.9
1220.68
36671.4
29881.6
51470.4
63637.9
17909.9
39608.5
45433
116321
94612.7
102551
90988.2
65538.6
70965.5
98570.2
162082
125568
140474
104885
89774.5
100297
49860.4
-8616.84
-3534.03
-12757
-13666.3
148.744
-4790.19
-4128.74
-1926.1
-15478.5
-14160.2
-3162.2
6654.81
-5444.81
-7071.12
64972.7
20232
22460.5
26213.2
31202.2
6670.16
11351
74740.7
100547
83548.2
84690.5
74656.8
69585.2
95775.4
98681.7
16090.1
48248
10250.3
36314.5
13550.7
7736.94
109487
28770.8
59600.1
35189.1
65848.3
22782.2
15417.6
-16850.2
55259.2
13631
-13249.7
30348.3
1299.74
-14768.9
73262.6
47659.2
20781.2
35745
41993.6
50397.1
72851.2
3030.54
10826.5
5536.35
2300.17
10116.5
3138.98
9416.32
-12319.9
-13293.8
-14303.2
-5543.8
-3251.9
-3851.3
-4822.69
34730.2
7992.73
-21402.4
15466.2
20533.4
1623.12
12217.4
20638.9
19013.8
-22177.2
-4106.7
33806.7
30551.7
22243.2
22514.9
49236.1
29345.7
39500.8
38393.6
17974.4
30517.5
-21218.4
8661.6
1849.15
51360.8
13010.1
7993.87
-1155.08
14434.7
7114.22
16805.7
26735.4
29934
11287.8
21391.8
25488.7
34457.5
34252.6
38928.5
26240.3
33558.4
40452.8
44393.5
37223.3
40287.5
44794.3
11932.6
8308.46
2356.57
15167.8
9093.41
12974.5
15777.4
25097
-6382.51
9725.91
17000.1
21441.3
34826.9
-6084.31
39198.1
49036.9
45261.3
37964.4
43290.1
44486.9
43776.2
14690.4
-11299
8200.12
7566.14
-15051.8
-17892.8
9739.28
15167.9
22477.7
22548.8
30171.2
22205.1
25156.2
30179.5
16177.3
20009.9
14338.9
22183.4
28547.4
31238.5
22621.6
24716.5
23200.3
25720.6
28866.5
34798
34731.6
26144.1
48633.8
48010.2
44559.5
43216.9
42328.4
42635.5
45253.3
-45231.7
-39288.3
-19546.7
-40755.2
-23554
-19687.3
32088.1
11769.4
11402.3
13128.5
14656.4
11008
14978.1
13916.6
38139.5
26853.9
29132.8
35307.3
25857.7
25378.7
38345.2
24092.5
23564.1
34449
-5581.66
17338.9
27479
8057.95
20848.9
31510
20787.2
1219.4
35232
-3601.39
21255.3
40310.5
48781.9
38445.6
43318
33354.1
38892.5
49065.7
6622.66
921.34
-15671.1
-21731.1
-19799.4
7904.07
4303.88
34503.4
23018.1
31051.3
24774.6
32595.8
24541.1
35085.7
33368.4
32950
39490.5
36809.5
27925.7
35006.9
28239.3
18144.8
13223.5
18777.2
21434.4
24886.4
26283.3
19469.3
-4874.95
-44482.7
-36798.1
-32877
-24286.5
-46518.2
-38723.3
1829.33
-16719.9
9226.72
17880.7
-15963.3
-7146.14
7682.12
55673.7
37657
44556.8
38431.5
36937.9
22862
49652.3
29307.4
42763.6
33099.4
35203.2
37814.2
28013.4
45149.9
14322.3
-2482.42
-18182.1
6006.8
-9365.02
-29115.5
-18512
-47171.6
-38344.4
-39287.2
-43770.6
-45899
-39484
-37404.4
-41356.3
-35272.7
-33422.9
-43207.8
-45508.7
-39366.1
-37839.3
28605.5
26841.4
-7746.77
18303.1
5327.12
16601.7
39921.7
-30246.1
-19261.9
-29672.3
-31636
-21544.9
-29778.3
-22959.7
-27886.6
-12340.5
-23317.3
-31685.3
-23503.6
-31031
-23148.1
-52075
7470.18
-34217.2
1642.45
26516.3
-5577.12
-14268.2
25289
-844.928
49559
33329.7
-8331.19
39913.8
-18058.2
3824.85
-9544.65
10392.2
8460.13
-19329.2
-24017.6
-25796.9
-21264.8
-9744.89
-2948.22
-17409.1
-13627.2
-22367.2
-23930.5
-22690.8
-18098
-20178.5
-13914.8
16664
162.051
-7284.63
14188.1
2934.21
10289.9
24121
11212.6
-9751.03
-2309.17
-331.73
-10687.3
-4049.13
7607.53
-56878.7
53398.6
-33372.2
48366.5
36837
51265.2
23858.3
-52026.5
-56457.3
-58821.8
-151.551
51636.9
-12113.8
-20107
4480.37
-5981.09
-17260.1
-7644.52
-15514.8
-7198.33
574.316
11290.3
-6919.55
-18844.6
7893.15
3062.96
24015.7
-10266.4
-17715
-9287.88
-14957
-692.18
-12752.5
-9607.12
-2401.79
-12085.6
12316.4
2051.07
11034.9
10734.9
23326.7
-5038.55
8629.54
37207.7
21255.8
18812.4
39690.1
28116.2
34002.6
22327.7
22564.3
7879.97
6620.01
35197.6
17312.4
20922.6
901.522
-3627.61
-8219.23
-778.443
12623.5
4247.21
9213.5
19230.1
17599.6
11007.8
19255.3
36932.8
27712.4
30041.6
23391.7
19187.4
24920.3
46210.1
36619.9
36347.2
5980.54
-985.163
8761.24
-6598.38
-4314.98
-5413.04
-3496.31
1802.12
10588.5
14933.8
16637.8
54710.6
40868.7
45696.3
7045.16
10668.6
-2963.74
-3790.62
4626.51
-764.293
-22831
-21714.8
7310.73
22806.1
18144.2
-2804.2
7667.32
7872.83
20370.2
30961
43546
23147.2
34244
15152.8
-10095.9
10842.2
28809.5
43726.3
44791.8
45349.2
36601.4
37545.7
38833.6
38008.7
62244.2
44116.9
55172.2
37600.2
45560.2
49242.7
-26744.6
-14873.6
33234.9
15146.7
-57947.6
-40328.9
-33865
21198.4
47381.7
45120.8
38043.3
-11806.1
28796.1
-2576.61
-54677.6
-28483.3
-23930.4
-52124.2
-61640.9
-60876.8
-51793
-8887.2
-33689.8
-19125.5
-48548.5
-48533.6
-40204.8
-57371
12540.1
-47586
-9630.05
-44313.1
-50208.9
-57171.7
-29432.1
17725.7
75553.6
59630.3
38605.7
15438.3
-9403.62
52237.8
47209.3
49140.8
42869.1
44205.4
47382.2
40196.3
49395.2
6228.74
-32323.1
-10981
-42644.8
-47577.3
-55012.8
-28386.8
-4470.35
-58688.6
-51348.7
-49490.8
-48654.9
-21295.1
-44792.1
-60592.6
-58352.4
-61377.6
-59397.9
-60687.9
-59688.1
-60186
21483.5
-42860.4
-14228.2
18541.5
-31486
2570.43
37371.7
-57016.5
-52691.4
-56128.9
-53316.3
-57845.7
-57910
-49833.4
98916.1
78288.6
112731
62498.8
11795.7
25856.1
52545.7
27351.3
11402
22868.4
63486.9
22456.5
20543.1
9150.9
31728.3
17489.4
17712.2
26157.2
104068
-18454.4
65616.2
-46062.6
81350
-311.636
56635.8
34366.3
61230.6
43863.7
49115.9
31456.3
39585.9
57910.6
59408.7
90808.5
118320
89625.7
92588.8
79030.7
121249
34960
37599.3
28851.5
48609.9
39779.4
34170.7
43487.9
19186.2
9578.95
17937.6
20546.3
17710.9
25496.6
27810.5
68758.3
61842.4
52361.7
47351.7
75467.9
65579.7
56788.3
37774.1
28692.1
30963.8
38845.7
37164.8
49695.5
37907
78744.3
64451.7
67928.5
52894.7
67082.2
36610
58758.4
36855.9
26075
35243.7
33597.9
45595.8
35628.8
43294.8
48082.8
46082.7
60896.1
55393.2
72555.2
59207.5
69403.4
111701
95687.3
87893
92448.9
79018.8
76431.2
93889
139948
78006.4
164836
-8255.51
10277.6
73417.3
94746.2
21610.5
-10353.6
40512.7
-37502.4
-3243.23
27840.5
-17705.9
27861.8
21299.8
46633.6
-33627.3
-3992.84
23507.4
-13419.2
46458.8
71928.6
57248
50128.4
60115.3
46611
56151
73654
104364
88669.2
69114.4
86914.1
83620.6
104080
59533.4
48461.3
46274
58616.3
55737
70559.4
74600.3
89689.1
73537.4
74677.1
101819
86279.5
84570.5
102591
129495
145199
127495
108386
112417
124692
128056
85159.1
75215.7
51074.6
54454.8
30431
6788.47
76452.8
-45029.7
-45774.6
-36421.3
-15710.4
-38050.7
-34512.6
-34922.8
77078.7
40005.8
61852.2
46836.9
29597
8868.47
66519.4
137767
116854
100075
99453.4
141647
121068
119882
86762.4
71455.8
69425.9
85639.2
95861.9
103773
88839.7
99194
78920.9
74685.8
87215.8
116351
93156.1
107768
106790
124276
96543.4
49720.2
96855.7
108957
55824.4
93976.4
47550.7
85109
88954.2
110272
99318.6
59508.1
8785.05
-6524.56
-28656.8
-5513.64
-21191.3
-20798.8
31642.6
158477
161927
143808
150597
139820
137411
135141
103860
136841
126461
111164
120953
107476
126612
6579.41
8568.03
50586.3
59582.9
-239.756
12875.4
16745.2
-41741.8
-41307
-43758.5
-37897.8
-33936.3
-35908.9
-35897.8
138657
147380
102713
108151
30966.3
47113.6
87875.9
127429
98407.9
122715
103509
46449.4
58628.5
91624.9
-30685.6
-20747.5
-27144.8
-21442.5
-28691.7
-29056.5
-22779.9
53842.3
13391.1
4960.64
16582.1
13071.7
16999.3
38399.4
93127
77847.9
131996
117416
44390
155658
113144
28972.8
111115
112575
125143
127515
138559
133164
139522
139113
139801
152801
143183
140869
140039
129047
126158
138018
133883
140960
137473
141023
135910
124663
72397
119489
91265
125542
118546
67405
137530
134624
144637
133242
80190.2
110149
117363
12297.2
90119.6
109107
103837
1361.66
74462.6
33423.4
86976.5
124201
125953
115569
41186
105985
57238.2
3776.59
13724.7
10891
1798.6
9238.69
1196.64
8603.41
20886.6
13655.9
12769.3
10009.6
12400.6
9493.41
11925.3
-4760.23
-5231.02
51522.4
92156.8
8128.06
70807.2
19698.6
-12250.9
-3259.18
-4284.3
-3058.5
-8916.34
-316.959
-12306.4
-6013.69
-11267.2
13295.4
1371.41
-4946.47
5696.5
-10405.1
2410.17
10591
4308.2
10768.7
3625.94
3202.03
9901.76
-1072.12
-5172.99
3279.85
1189.28
-3211.78
5962
-8014.01
15340.1
61843.5
131252
90598.1
21743.8
80705.9
17372.5
615.431
28909.5
18453.9
18060.4
3379.98
17435.8
37818.2
22833.7
265.135
131099
125143
115575
135835
121461
122179
99046.4
115346
47620.1
88680.1
47574.4
91269.2
59448.7
29026.9
18824.3
22749
22051
16382.8
15670.9
19645.2
18248.7
110738
68646.2
93026.1
80246.9
101865
71322.7
51686.6
115176
24717.9
85953
43241.6
96822.4
59213.2
16294.6
15195.4
16983.4
16722.8
15551.6
15258.8
18594.1
18612.1
38883.9
28513.4
58656.6
38155.6
23504.7
23804.1
30211.4
4664.34
18275
44390.4
28037.8
6699.99
17537.6
8196.95
18069.1
18479.2
17081.3
23007
20681.3
21215.6
23823.9
11712.1
838.715
10426.7
6418.08
15213.5
14912.5
6518.9
31832.3
56764.1
73618.2
40152.3
20180.7
33251
16598.6
23768.6
22932.8
12353.5
18183.1
19749.9
24737.6
13255.7
19908.6
18240.3
19477.5
21504.4
24566.1
21568.6
24214
11164.4
1842.49
10600
14889.3
8107.2
15140.4
7000.03
16958.9
22776.3
17057.6
12009.3
19013.8
18994.5
11882.3
23396.7
22945.2
17227.7
18917.2
13014.9
19182.7
12138.1
9442.24
12138.1
4946.29
6814.47
19001.7
11426.7
14281.7
9108.88
16833.1
19937.5
21803.1
11875.3
13879.4
16867.9
-36965.5
-39328.3
-23666
-39067.8
-25563.8
-26947.5
-21628.8
-20915.9
-33533.2
-33978
-26951.7
-25946.3
-37590.1
-18548.2
-21313.2
-33570.3
-30722
-38031.3
-36961.8
-37602.9
-33331.4
-34241.4
-33669.1
-33079.4
-34420.3
-8573.6
-16311.9
-1725.28
-16258.1
-27940.4
-11460.8
-38516.3
-37843.4
-37685.5
-35134.7
-34749.5
-33838.3
-33896.3
-29538.9
-26319.4
-30357.6
-29588.4
-24750.9
-25383.2
-29007.7
-35611.3
-33958.5
-36120.8
-32141
-29537
-29964.9
-31635.9
-39699.3
-37770.4
-37817.8
-35293.2
-35703
-33778.4
-33836.1
-39253.2
-35525
-37155.1
-33998.6
-35393.9
-33279.5
-31895.4
-31083.2
-26790.2
-30845.7
-29845.6
-25620.2
-29817.5
-25707.2
-36134.2
-34025.5
-36138.2
-32280.5
-30064.5
-30191.1
-32204.1
-29576.5
-32484.9
-31164.8
-27731.4
-26675.6
-29144.4
-24713.3
-28006.8
-23146.2
-21525.7
-25309.9
-25817
-23731.3
-27489
-35867.5
-33268.6
-35717.8
-29678.1
-31920.9
-31748.3
-29315.9
-28252.9
-23837.1
-21921.3
-25917.1
-26167.4
-28092.2
-24041.7
-31175.9
-27199.9
-31539.5
-25422.9
-29674.6
-29664
-25306.8
-23387.7
-14878.5
-21764
-14170.1
-20902.6
-19124.2
-12549.2
-26949.8
-30115.3
-31290.2
-29163.1
-23756.8
-27973.9
-24802.7
-33282
-32304.9
-34884.5
-31004.4
-26970
-28411.9
-29598.3
-30374.2
-23468.5
-25744.8
-24396.2
-26935.5
-22598.4
-20177.3
-27578.5
-19768.9
-23404.1
-21476.4
-25476.7
-21340
-17601.1
-23559.8
-25596
-27830.9
-27584.6
-20743.3
-25138.2
-23212.4
-14723.5
-11592.8
-18012.9
-16095.1
-6614.41
-9800.21
-12666.4
-13323.6
-17968.9
-20018.6
-17199.6
-8679.68
-14959.8
-10776.4
-26869
-21330.2
-19800.9
-22922.6
-24252.1
-25619.3
-22469.2
-19052.3
-20509.8
-23168.3
-19093.9
-12454.6
-16513.3
-15212.1
-33335.5
9086.63
-40580.2
15161.3
-25930.7
17694
33177.2
13301.3
17221.2
17163.5
25617.9
31367.1
19436.5
27061.5
18192.4
17331.1
11876.1
3714.59
30267.8
21210.3
-17840.2
26797.2
11640
32184.9
-5968.55
-4672.51
-20066.2
-6108.87
17712.2
22373.5
18878.3
13602
12153.6
15717.6
18661.7
16943.3
15123.4
16408.7
9656.29
10699.3
12595.3
10571.9
14985.2
23909.4
20996
14440.3
13908.8
20144.1
21074.9
-39455
-23041.8
-27344.1
25987.5
22806.2
19311.3
12478
-28072.9
-28188.3
-39728.7
-20515.7
15413.7
-1318.07
-39100.9
9791.62
9889.18
15578.7
10089.4
12084.4
16964.1
12165
16275.6
21439.7
18543.2
17554.7
20137.3
21723.2
15291.5
27914.4
24458.5
22528.7
21094.2
27354.1
24459
25494.5
28402.1
7050.52
21621.4
22826.5
23590.2
27560.8
12945.2
-36467.2
-10558.3
-17943.1
-15080.7
-24643.8
-37805.8
-20936.8
2055.35
-8512.17
10956.6
15188.8
-11079.7
-203.913
6309.12
9178.03
16308.8
12906.3
10394.9
9586.15
13517
11045.5
10366.4
7447.57
8835.57
12963.3
14120.8
15634.8
11195
18923.5
9690.49
6334.96
20758.1
20196.5
8714.92
11858
11832.3
12019.8
10666.1
15662.8
20098.3
17771.4
18104.6
-440.383
-17858.9
2097.58
-15912.9
1785.43
1940.57
-15950.7
17255.1
13560.7
14598.8
21584.3
23206
24901.5
20989.4
18268.6
-14951.6
-101.32
15888.5
19683.4
3059.57
-9109.57
42147.3
69162.3
54943.2
14662.8
-1781.16
644.089
14815.6
19478.3
21036.5
26826.7
22431.4
22726.8
23796.6
17505.1
17908.7
13072.2
13982.8
19777.3
21841.5
24030.4
16317.9
-21976.8
-31270.9
-41232.6
4921.75
-12288.7
-35177
-24187.3
-35331
-43343.4
-44062.9
-33259.3
-26718.2
-39268.9
-39469.6
-35601.7
-13829.6
-19525.7
-16179.7
-30064.5
-31973.9
-11134.2
22343.6
28158.3
29121.9
28970.1
25064.3
26360.4
25926.2
23313.9
27960.7
19296.9
25622
18746.5
15295.5
21270
12744.6
18693.4
13166.1
18608.7
14622.7
13099.6
17472.2
19881.1
18120.6
14063.4
-3423.37
24719.2
7519.39
12092.3
25472.6
31077.9
23013.3
26880.6
29145.9
28699.9
18230.2
25626.8
23058
22582.3
11476.7
17032.7
14221.1
14441.4
-33806.5
-40349.4
-33796.7
-35545.9
-31007.8
-37131.6
-32860.7
15200.2
-12777.3
7623.07
5195.71
-8315.24
-13055.3
10210.3
-37377.3
-35751.8
-27104.6
-23314.7
-35509.7
-33691.3
-31291.4
-41484.1
-40618.2
-43104
-38791.9
-36446.1
-37432.5
-35888
12292.3
-10439.8
6385.43
4846.84
-8362.79
9328.51
-12374.3
25154.3
19451.8
22210
6232.84
269.342
9160.32
-4029.76
-12982.9
-26644.1
-24493
-5985.62
-28281
-10012.5
-8496.97
-41366.3
-41826.1
-43417.5
-39528.2
-36172.7
-37521.4
-38291.5
3279.18
10449
-3823.07
-28981.1
-11984.4
-22852.9
-17755.4
21809.9
24163.1
18530.4
15935.4
22880.2
19129.7
20384.7
-10201.3
-26919.5
-18033.5
-34245
-30873.3
-29052.7
-35283.7
36927.7
33754.1
52219.8
45250.2
28500
42189.1
35548.2
-38542.5
-31556.8
-33584.3
-33297.1
-35439.3
-30904.6
-28775.1
-27868.5
-21987.7
-29184.5
-19639.8
-25991.1
-26913.1
-19968.1
-19672.6
-31451.8
-26003.2
-22605.3
-29900.5
-16239.9
-26872
-29283.3
-24038.4
-27625.5
-29765.1
-33589.7
-29828.7
-26456
22831.5
6857.32
29340.2
-2681.76
16178
21603.3
3090.86
6491.64
11576.7
-8459.1
-7556.58
9353.95
-11021
9869.12
-34348.8
-32280.7
-28964
-26669.9
-33262.3
-29814.2
-31227.4
-35405.6
-29110.1
-32325
-30413.8
-33431
-31071
-34488.2
-25193.5
-19824.1
-27132.7
-24870.5
-15946.6
-22840.1
-17889.3
-29784.8
-28193.6
-31987.9
-27813.4
-22024.3
-25591
-24323.7
31176.9
27620.6
26272.1
40001.5
38872.6
32363.8
32615.4
-20551.9
-17538.4
-23418.9
-24332.6
-15018.7
-21386.5
-17687.3
61260.9
56210
52328.9
58520.8
50142.6
41910.4
46568.8
14711.9
-2725.48
14323.5
18748.1
3380.94
18025.4
2726.05
33324.2
11433.3
33580.7
25654.6
13885.5
8454.83
27041.8
-54040.2
-50451.9
-40421.9
-36582.8
-43280.2
20275
46786.8
10599.5
21451
-55763.1
-44659.6
-42976.9
-8047.01
-15220.6
-43701.3
-37336.2
43472
-21259.1
15864.6
14753.9
33666.3
4221.82
-25545
-41847.5
-50633.3
-57818.8
-16448.2
-43525
-55383.3
-48658.4
46325
35851.9
28374.7
36736.6
36536.6
15293.5
21212.8
-44399
-52279.5
-56604.9
-45191.8
-48633.5
-54916.4
-51973.2
-45976.3
-1368.38
-13785.5
-22427.3
-41545.1
-45201
-12949.8
-55592.1
-56967
-57801.7
-54589.3
-52314.6
-52480.4
-53620.2
-50604.1
-49748.6
-31447.1
-34458.6
-50633.9
-47998.7
-47517.2
26016.8
20266.2
26111.6
7692.86
9213.83
5384.41
12484.3
10845.7
19622.4
24604.9
-1292.98
-20582.1
-2245.33
-24593.7
-13986.9
-31746.7
-39714.2
-51610.6
-38357
-44378
-46841.4
-53889.6
-52762.7
-56158.5
-53425.3
-48409.5
-51224.3
-50602.4
-42584.9
-46311.9
-47365.7
-52018.3
-46818
-48361
-49817.1
-24154.1
-39702.8
-39149.3
-16200.8
-42490.4
-22683.5
-16655
-33716.6
-47015.4
-41010
-40096.9
-44597.1
-30866.7
-44107.8
-51045.1
-48606.2
-45399.6
-45277.6
-49089.6
-49645.5
-47208.8
-50355.3
-45884.9
-44938.5
-45063.8
-48224.6
-47026.9
-47984.3
-53842.1
-51685.6
16953.1
-56298.1
-47724.4
-51659.4
-48196.3
-47463.7
-47637
-48592.7
-50111.7
-59558.2
-56755.2
-51901.4
-56922.8
-48738
-44468.5
-52899.5
-56857.7
-59022.7
-59327.6
-55861.4
-55529.2
-56805.3
-25095.3
-46452.2
-30709.4
-20287.4
-45241.8
-40297.3
-19254.2
-60991.9
-59385.8
-61574.1
-60902.7
-60281.4
-57929.9
-58088.4
-53060.4
-57411.2
-57741.9
-52440.6
-57468.5
-55739.5
-51607
-51674.3
-22309.6
-41399.6
-41546.1
-50308
-54370.9
-52164.6
-41209.6
-46358.9
-37402.8
-45137.4
-35258.5
-45602.5
-37706.1
-58399.5
-55289.6
-56602
-55722.3
-54394.9
-54278.2
-56164.3
-54045
-50057.8
-54142.6
-55045.8
-52827.1
-53980.5
-53576
-51542
-50294.2
-53667.6
-52869.3
-50389.1
-49379
-53745.5
-45844.5
-48148.3
-50508.1
-52386.2
-47608.2
-48930.6
-50890.6
-56209.2
-59097.6
-58387.8
-56110.7
-54518.7
-56617.9
-53956.1
-53778.1
-52862.7
-56291.2
-55265.5
-51874.7
-55166.7
-52213.5
-51425.2
-54029.9
-55839.9
-53935.4
-48401.7
-51973.9
-50012.4
-55364.4
-49895.6
-52771.2
-53592.2
-48156.9
-51002.6
-50110
-4244.88
-26528.7
-14848
-9605.63
-22931.2
-28580.6
-18765.7
-44545.1
-37294.6
-37231.8
-43257.2
-44424.9
-37135.7
-36407.1
-45047.4
-38501.2
-39084.5
-43441.5
-44806.6
-37816.2
-36975.4
-52764.4
-50898.4
-48215.7
-48633.9
-49312.1
-51818.1
-51723.1
-52892.4
-51727.3
-49859.9
-48480.8
-49458.8
-51694.7
-53188.3
-53491.6
-51825.4
-50523.7
-48479.9
-53758
-50496.7
-51405.5
-51755
-46598.3
-46361.6
-47126.7
-49163.2
-49736.2
-48379.7
-22225
-30309.5
-20833.6
-29631.2
-20916.3
-29247.2
-20753.8
-18141.2
-29028.9
-27895.1
-28798.5
-20121.4
-28457.3
-19991
-41942.5
-41885.6
-43349
-36580.6
-34323.2
-35630.5
-35514.4
-28674.5
-19964
-19794.5
-27110.1
-28077.9
-27944.6
-20268.1
-53398.6
-48430.6
-20549.8
-50165.4
-40420.4
-42839.4
-37324.8
-46095.5
-37608.2
-46598.8
-53888
-43262.9
-40894.1
-37258.3
-46493.2
-34165.9
-42380.2
-43449.2
-37338
-19278.2
-31154.3
-38532.9
-17159.1
-19258.7
-51869.4
-47172
-50596.4
-51674
-48707.7
-48543.1
-47414.6
-52609.2
-50046.6
-51757.3
-51704.1
-49334.7
-48522.8
-48612.4
-53543.5
-50622.4
-51819.1
-51393.9
-50518.9
-48462.2
-48723
-51789.6
-46377.6
-46593.2
-49727.6
-49170.5
-47112.1
-44456.3
-43801.9
-41737.1
-45268.6
-45117.1
-40593.9
-41425.7
-44028.4
-48876.9
-47039.5
-49851.3
-47021.8
-43736.4
-44452.5
-46048.7
-36744.7
-41926.4
-41943.5
-35528.2
-35712.7
-40284.6
-34313.6
-46495.8
-42171.1
-45800
-45036.7
-41607.6
-41417.9
-45186.9
-49462.3
-46658.5
-49595
-46669.9
-44005
-44084.2
-46587.1
-47056.6
-43534.4
-47166.2
-45189.5
-41633.5
-45305.7
-41615
-43847
-42854.4
-46175.8
-44115.6
-38861.9
-40777.7
-41856.9
-49377
-46171.3
-48979.9
-46162.2
-43794.6
-46480.9
-43481.1
-44637.8
-44860.7
-47475.1
-44853.9
-40007.9
-42251
-42374.4
-28903.9
-20141
-19826.4
-27971.4
-28216.8
-27110
-19264
-43629.2
-39362
-40752.3
-37736.8
-41276.6
-39959.2
-42850.6
-39858.8
-32080.7
-34141.4
-35488.8
-38103.4
-32579.6
-30375
-40399.3
-32879.2
-34356.3
-36466.7
-38527.3
-32874.5
-31122.9
-43384.3
-39844.9
-37643.6
-40970.7
-41027.6
-39844.7
-43345.9
-42977.8
-39658.6
-40701.9
-36979.6
-43221.9
-40404.7
-39474.3
-41856.9
-36665.1
-35932.8
-37261.7
-39264.5
-38518.4
-39699.3
-27075.5
-25460.7
-18032.4
-25797.8
-16797
-24006.1
-18251.9
-18423.2
-26017.2
-27147.9
-26012.4
-17274.9
-24605
-18418.5
-33475.7
-33993.6
-36195
-30915.8
-26406
-28953.3
-28538.1
-15757.7
-13822.2
-15461.2
-24457.4
-20591.6
-22803.4
-22451.4
-22190.2
-16848
-13485.9
-12701.8
-20055.1
-19076.9
-15530.6
46960.1
54722.9
46470.8
37947
40570.4
37264.4
42422.4
-8268.15
-10207.6
15579.8
12744
14078.8
-8489.52
-13571.7
9717.56
-14241.2
-5779.63
-12621.9
-6020.9
-12421.9
-5017.57
-4405.83
-12002.7
-2270.81
-3833.37
-8517.15
-10368.2
-2453.82
-793.726
-10750.6
-7875.54
-10362.4
-1174.42
-3299.99
-2514.71
-115.716
2030.63
10611.9
2382.84
11054.2
2963.61
3867
12124.1
8418.25
16075.4
9260.86
22352.4
23343.5
20861.1
24559.8
11873.6
4153.01
5336.7
5495.2
14580.7
6868.16
13415.5
-6311.65
-5643.28
-3583.17
-544.768
3931.81
1268.84
1971.21
16721.5
15181.4
12830.7
4593.89
6698.35
5694.33
8127.71
-13993.8
-4383.19
-7654.73
-5446.5
-11534.9
-7810.29
-10361.6
17068.3
9022.59
18487.5
20291.6
11847
7415.08
10016.1
27500.5
40982.8
39765.7
32302.3
33455.5
46274.4
47643.7
33994.4
34783.6
26818.8
29251.1
45413.1
37640.2
36583.8
36806.6
31282.6
27924.6
47504.8
51576.4
45269.3
41536.9
30796.9
44734.6
42607.8
37033.3
35001.3
49466.5
51836
123850
130684
104803
103176
90110.1
141449
149657
69124.2
59199
65357.7
40983.6
43642.4
45829.8
48813.4
35945.1
50629.6
47408.6
39540.7
42544.5
54755.6
58266.5
32197.3
43425.4
49017.5
44956.3
35689.7
41019.4
39713.9
50809
71607.6
79158
66695
73694.2
46930.9
52370.1
47981.3
38998.3
40260.1
62700.4
53876.4
55406.8
64417.2
43066.1
54419.4
58838
50239.6
46079.2
62428.4
67304.1
86425.9
58186.1
81599.9
76962.8
72710.2
51552.6
54791.6
49832.2
44118.9
41935.3
57427.6
69652.2
60041.7
66701.7
132269
122197
117474
153877
149490
93013
47373.1
56568.7
81488.9
79457.3
90430.4
64536.6
66240.4
92807.3
87852.8
60085.3
84248.2
68523.9
100384
71485.1
96076.1
46816
58784.6
50094.2
73336.4
63269.3
67169.6
77819.5
70928.4
92207.6
99186.6
63136.3
88200.7
82095.7
58630.4
63033.5
58490.8
53971.4
71851.7
89570.9
77408.5
83183.3
136260
91839.9
123497
156414
155207
30093
98111.4
97928.3
65930.6
92367.3
105716
75185.2
79689.1
112188
80271.9
104701
112769
85111.5
128116
91577.7
119775
99723.7
85297.7
94163.7
124994
130066
133760
137963
85596
104110
74051.2
76018.2
123664
106959
87909.5
114036
96057.4
106292
140230
135233
142098
145875
78659.4
95085.2
127651
115785
82083.2
110833
91040.7
117681
147340
111104
105031
141358
144568
149675
100140
121653
86381
91618.4
143411
128321
106450
146943
114658
145706
128557
131166
150549
151403
11999.1
26199.8
14950.5
4231.44
23515.9
14603.1
33967.5
26977
8362.8
5247.52
1070.03
2018.88
5241.1
5949.56
9307.18
16171.3
7867.5
12000.5
13171.8
8947.49
13172.1
17564.3
18079.6
12973.9
9873.97
15413.2
10403.5
13909.3
19074.2
6638.52
18176.8
9979.91
18753.2
10599.9
14167.4
22594.7
-5160.26
6963.12
15933.1
15752.1
14060.9
11301.4
17190.5
17722.8
15075.9
12792.3
9373.4
14152.3
9673.27
12478
12612.1
12991.4
14702.3
14149.9
13477.1
11243.2
13506.6
15094.2
16400
17177.4
17776.2
18926.2
15904.5
15643.2
18609.9
3342.7
1360.7
-7903.46
-3175.37
6251.79
7243.86
-1086.29
19936
17270
15734.9
16906.1
15435.6
16092.6
18938.1
4684.7
1545.22
8954.87
-2027.61
5925.35
8953.82
1537.07
1813.4
14934.2
10792
11169.4
8090.83
15113.4
3354.32
12413.5
9912.57
16025
8323.14
5534.51
14235.3
12315.1
2908.41
-8788.29
18660.6
7241.29
17158.3
5125.58
3031.42
10459.9
-1137.99
-7533.53
-6908.51
-50.1994
-5415
614.829
2019.8
-11796.2
3153.03
-11123
10943.4
-926.491
-10549.2
7996.62
10326.8
-3526.24
-11677.2
-11452.8
-11127.2
-3469.81
-3476.32
-3267.71
34648.8
-12974.9
34842.4
11003.8
-11087.6
9930.04
-11469.8
3169.25
-3489.92
40420.4
2501.97
-8816
9042.56
4618.36
-565.28
-10732.5
-3869.22
-12014.4
-11372.4
-1719.55
-2751.25
-3331.53
24911.3
13521.9
12720.3
10824.2
9193.47
5162.92
10761.2
-8261.71
-2962.87
-11465.7
-10781.9
-466.088
-2659.54
-3382.79
3660.23
11368.8
4752.68
3902.48
10617.4
3855.27
10582.8
4616.3
9450.3
3093.83
3373.24
9331.67
3018.74
9659.52
-11484.3
-11414.6
-11119.7
-3193.12
-3267.18
-3300.47
-3444.2
9645.43
3162.21
9374.41
9978.44
3461.58
3538.76
9888.6
-10400.9
-9211.46
-10201.1
-2363.5
-3102.19
-2685.73
-1626.62
-11138.4
-3348.8
-9643.39
-2900.68
-10553.9
-2895.58
-2142.32
9367.57
9874.66
3528.67
3406.73
10027.4
3583.52
9780.45
10681.7
11871.6
12511.1
4896.06
4003.33
4296.63
5513.47
803.616
-6576.33
-8334.43
-9537.09
-8056.77
-2014.08
-609.893
9522.97
10327.3
11365.9
4737.74
3912.78
3356.85
3917.23
14607.8
13544.8
6232.19
15785.1
8108.53
9496.94
17273.6
5773.97
-4552.88
-1700.52
220.439
-2839.32
4609.15
7754.83
-4369.68
1290.33
-6117.86
-1704.51
-3733.72
3695.56
5777.67
15297.1
6516.33
13621.4
11680.2
13013.8
6084.13
4943.6
18187.1
8609.46
16118.2
11257.8
21726
13507.2
19218.1
2448.77
1444.39
-892.64
6616.32
12910.9
9054.65
10097.9
10575.1
22269.4
13693.6
12330.4
24631.9
20579.7
15810.8
17274.5
21093.4
19593.1
8324.62
24317.9
19483.4
27292.6
23406.9
15739.6
17196.9
16095.6
16920.5
15403.3
18956.8
19938.2
26456.8
25236.6
20334
18945.4
18527.2
21984.3
22993.9
12416.2
9916.66
5541.8
14239.2
12329.4
16036.1
17725.5
24085.9
21652.6
18018.5
19146.8
16626.8
18015
21650.6
21566.6
27194.8
30980.8
22380.9
28347.3
19923.6
24719.1
20197.9
15560.3
19329.1
11672.4
15562.7
16883.2
20199.1
24404.1
26116.8
21872.3
16934.8
14606.6
20057.4
21692.6
21475.2
18376.6
25962.1
30991.6
27511.6
14491.8
22982.5
31828.1
28585.9
23696.3
28666.7
24897.6
19970.9
24109.5
20895.3
16645.7
21826.2
17939.3
28069.1
22516
23282.9
18263.9
13846.9
22293.4
18263.8
31918.5
22904.2
26977
15145.1
20302.3
28928.6
18932.3
33272.9
24299.6
27616.6
44170.8
65026.4
29879.2
54383.4
77963.9
58203.7
38743.7
39608.6
40493.9
31946.9
37014.7
34224.6
32908.6
33074.7
46591.7
55517.4
42987.1
25265.6
28832.9
22517.7
23714.4
30377.8
26947.5
34856.2
27752.6
35452.7
25414.3
32551.4
29130.4
37406.2
40678.1
30566.3
24892.3
29106.5
31003.4
27245.4
36390.1
33103.1
43042
37590.6
28733.6
45992.5
35811.5
30929.4
40007.7
33623
34265.1
30364.3
39255.5
40542.6
42901.3
36413.6
36987.4
39083.2
33642.2
53850
49555.1
43024.1
46762.8
39517.3
43410.6
36704.9
39832.4
46051.4
49014.1
42351.9
26511.9
23701
20486.3
21005.7
24836.9
27213.6
31242.5
47587.9
50601.7
43123.3
57197.7
52690.8
45568.6
49585.2
32126.5
33945.7
27577.1
34271.5
29248.9
35887.1
41188.6
39534.7
83811.9
61340.8
34185.1
50188.4
44152.1
102136
102670
30043.9
29442.3
25555.4
43845
38858.1
43155.4
48500
28123.5
37459.5
43658.5
32253.7
38167
28843
23249.4
36672.8
40272.1
33081.1
41677
34083
38345.3
46226.1
52565.1
116384
94905.3
98191.4
73849.2
158529
156715
35023.6
30306.6
26098.3
41844.8
32568
37005.6
46707.1
46133.7
48859.7
41010.2
43269.2
57510.1
48903.1
51485.2
38864.4
38863.7
33871
53825.6
48129.9
53827.6
59937.4
45593.5
40911.9
35145.5
61702.8
56270.2
49628.5
54627.1
50624.2
44784.6
35092.4
42060.4
58540.3
47778.6
52231.1
47762
49497.4
39765.4
44464.1
63886.1
54733.7
52770.8
57104.4
44509.1
50970.7
75395.4
67993.5
60373.9
67028.7
55283.7
77453.4
85636.9
84385.4
60458.6
66936.4
93313.1
47472.4
69973.4
63979.5
55042
60553.8
73068.6
79835.2
49827.9
65080.7
70420.3
67556
55917.6
60725.7
58510.3
92619.9
73566.5
66458.7
73570.3
113991
81382.2
102677
58376.5
85307.9
77033.8
74217.9
66894.8
87790.5
97299.1
76845.4
117596
107611
68400.2
95438
74644.2
104300
63729.4
80681.1
69787.8
97189
83942.7
91677.8
106320
92106.8
139479
128503
81986.8
126741
90740.6
114892
86958.3
131948
122040
136869
99270
108713
145060
150141
121168
148475
138274
134496
152334
153172
88686.2
85081.8