/*--------------------------------*- C++ -*----------------------------------*\
  =========                 |
  \\      /  F ield         | OpenFOAM: The Open Source CFD Toolbox
   \\    /   O peration     | Website:  https://openfoam.org
    \\  /    A nd           | Version:  9
     \\/     M anipulation  |
\*---------------------------------------------------------------------------*/
FoamFile
{
    format      ascii;
    class       volScalarField;
    location    "0.0001";
    object      lambda.c4;
}
// * * * * * * * * * * * * * * * * * * * * * * * * * * * * * * * * * * * * * //

dimensions      [0 0 0 0 0 0 0];

internalField   nonuniform List<scalar> 
3619
(
6.78418e-277
0
0
0
0
0
2.22652e-277
0
0
0
0
0
3.80477e-263
1.65147e-275
7.34316e-278
0
0
0
0
0
0
0
0
0
0
0
0
0
0
4.0071e-276
0
0
0
9.42285e-263
8.28195e-275
0
0
0
0
0
0
0
0
0
0
0
0
0
0
0
0
0
0
0
0
0
0
0
0
0
0
0
0
0
0
0
0
0
0
0
0
0
0
0
0
0
0
0
0
0
0
0
0
0
0
0
0
5.01412e-275
0
0
1.29607e-262
9.8542e-275
5.33653e-277
0
0
0
1.03122e-273
2.08036e-276
0
0
8.98533e-194
1.85191e-261
0
0
0
0
0
0
0
0
0
0
0
0
0
0
0
0
0
0
0
0
0
0
0
0
0
0
0
0
0
0
0
0
0
0
0
0
0
0
0
0
0
0
0
0
0
0
0
0
0
0
0
0
0
0
0
0
0
0
0
0
0
0
0
0
0
0
0
0
0
0
0
0
0
0
0
0
0
0
0
0
0
0
0
0
0
0
0
0
0
0
0
0
0
0
0
0
0
0
0
0
0
0
0
0
0
0
0
0
0
0
0
0
0
0
0
0
0
0
0
0
0
0
0
0
0
0
0
0
0
0
0
0
0
0
0
0
0
0
0
0
6.5863e-276
0
0
5.3671e-276
0
0
4.40216e-277
0
0
0
0
0
0
0
0
0
0
0
0
0
0
0
0
0
0
0
0
0
2.03089e-275
6.2155e-261
3.64476e-261
6.32034e-262
1.58203e-262
2.02844e-275
2.94558e-276
0
4.93585e-275
0
3.65451e-274
2.39056e-274
4.93838e-275
0
0
0
0
0
0
0
0
0
0
0
0
0
0
0
0
0
0
0
0
0
0
0
0
0
0
0
0
0
2.6551e-261
1.05906e-260
4.73353e-261
2.6502e-261
9.78846e-194
9.23179e-194
8.98544e-194
0
0
0
0
0
0
0
0
0
0
0
0
0
0
0
0
0
0
0
0
0
0
0
0
0
0
0
0
0
0
0
0
0
0
0
0
0
0
0
0
0
0
0
0
0
0
0
0
0
0
0
0
0
0
0
0
0
0
0
0
0
0
0
0
0
0
0
0
0
0
0
0
0
0
0
0
0
0
0
0
0
0
0
0
0
0
0
0
0
0
0
0
0
0
0
0
0
0
0
0
0
0
0
0
0
0
0
0
0
0
0
0
0
0
0
0
0
0
0
0
0
0
0
0
0
0
0
0
0
0
0
0
0
0
0
0
0
0
0
0
0
0
0
0
0
0
0
0
0
0
0
0
0
0
0
0
0
0
0
0
0
0
0
0
0
0
0
0
0
0
0
0
0
0
0
0
0
0
0
0
0
0
0
0
0
0
0
0
0
0
0
0
0
0
0
0
0
0
0
0
0
0
0
0
0
0
0
0
0
0
0
0
0
0
0
0
0
0
0
0
0
0
0
0
0
0
0
0
0
0
0
0
0
0
0
0
0
0
0
0
0
0
0
0
0
0
0
0
0
0
0
0
0
0
0
0
0
0
0
0
0
0
0
0
0
0
0
0
0
0
0
0
0
0
0
0
0
0
0
0
0
0
0
0
0
0
0
0
0
0
0
0
0
0
0
0
0
0
0
0
0
0
0
0
0
0
0
0
0
0
0
0
0
0
0
0
0
0
0
0
0
0
0
0
0
0
0
0
0
0
0
0
0
0
0
0
0
0
0
0
0
0
0
0
0
0
0
0
0
0
0
0
0
0
0
0
0
0
0
0
0
0
0
0
0
0
0
0
0
0
0
0
0
0
0
0
0
0
0
0
0
0
0
0
0
0
0
0
0
0
0
0
0
0
0
0
0
0
0
0
0
0
0
0
0
0
0
0
0
0
0
0
0
0
0
0
0
0
0
0
0
0
0
0
0
0
0
0
0
0
0
0
0
0
0
0
0
0
0
0
0
0
0
0
0
0
0
0
0
0
0
0
0
0
0
0
0
0
0
0
0
0
0
0
0
0
0
0
0
0
0
0
0
0
0
0
0
0
0
0
0
0
0
0
0
0
0
0
0
0
0
0
0
0
0
0
0
0
0
0
0
0
0
0
0
0
0
0
0
0
0
0
0
0
0
0
0
0
0
0
0
0
0
0
0
0
0
0
0
0
0
0
0
0
0
0
0
0
0
0
0
0
0
0
0
0
0
0
0
0
0
0
0
0
0
0
0
0
0
0
0
0
0
0
0
0
0
0
0
0
0
0
0
0
0
0
0
0
0
0
0
0
0
0
0
0
0
0
0
0
0
0
0
0
0
0
0
0
0
0
0
0
0
0
0
0
0
0
0
0
0
0
0
0
0
0
0
0
0
0
0
0
0
0
0
0
0
0
0
0
0
0
0
0
0
0
0
0
0
0
0
0
0
0
0
0
0
0
0
0
0
0
0
0
0
0
0
0
0
0
0
0
0
0
0
0
0
0
0
0
0
0
0
0
0
0
0
0
0
0
0
0
0
0
0
0
0
0
0
0
0
0
0
0
0
4.09643e-261
0
0
0
0
0
1.24456e-274
0
0
0
0
0
0
0
0
0
0
0
0
0
0
0
0
0
0
0
0
0
0
0
0
0
0
0
0
0
0
0
0
0
0
0
0
0
0
0
0
0
0
0
0
0
0
0
0
0
0
0
0
0
0
0
0
0
0
0
0
0
7.49179e-277
0
0
1.92824e-275
4.34897e-279
0
0
0
0
0
0
0
0
0
0
0
0
0
0
0
0
0
0
0
0
0
0
0
0
0
0
0
0
0
0
0
0
0
0
0
0
0
0
0
0
0
0
0
0
0
0
0
0
0
0
0
0
0
0
0
0
0
0
0
0
0
0
0
0
0
0
0
0
0
0
0
0
0
0
0
0
0
0
0
0
0
0
0
0
0
0
0
0
0
0
0
0
0
0
0
0
0
0
0
0
0
0
0
0
0
0
0
0
0
0
0
0
0
0
0
0
0
0
0
0
0
0
0
0
0
0
0
0
0
0
0
0
0
0
0
0
0
0
0
0
0
0
0
0
0
0
0
0
0
0
0
0
0
0
0
0
0
0
0
0
0
0
0
0
0
0
0
0
0
0
0
0
0
0
0
0
0
0
0
0
0
0
0
0
0
0
0
0
0
0
0
0
0
0
0
0
0
0
0
0
0
0
0
0
0
0
0
0
0
0
0
0
0
0
0
0
0
0
0
0
0
0
0
0
0
0
0
0
0
0
0
0
0
0
0
0
0
0
0
0
0
0
0
0
0
0
0
0
0
0
0
0
0
0
0
0
0
0
0
0
0
0
0
0
0
0
0
0
0
0
0
0
0
0
0
0
0
0
0
0
0
0
0
0
0
0
0
0
0
0
0
0
0
0
0
0
0
0
0
0
0
0
0
0
0
0
0
0
0
0
0
0
0
0
0
0
0
0
0
0
0
0
0
0
0
0
0
0
0
0
0
0
0
0
0
0
0
0
0
0
0
0
0
0
0
0
0
0
0
0
0
0
0
0
0
0
0
0
0
0
0
0
0
0
0
0
0
0
0
0
0
0
0
0
0
0
0
0
0
0
0
0
0
0
0
0
0
0
0
0
0
0
0
0
0
0
0
0
0
0
0
0
0
0
0
0
0
0
0
0
0
0
0
0
0
0
0
0
0
0
0
0
0
0
0
0
0
0
0
0
0
0
0
0
0
0
0
0
0
0
0
0
0
0
0
0
0
0
0
0
0
0
0
0
0
0
0
0
0
0
0
0
0
0
0
0
0
0
0
2.28492e-274
0
0
0
0
0
0
0
0
0
0
0
0
0
0
0
0
0
0
0
0
0
0
0
0
0
0
0
0
0
0
0
0
0
0
0
0
0
0
0
0
0
0
0
0
0
0
0
0
0
0
0
0
0
0
0
0
0
0
0
0
0
0
0
0
0
0
0
0
0
0
0
0
0
0
0
0
0
0
0
0
0
0
0
0
0
0
0
9.83122e-279
0
9.62025e-279
0
0
0
0
0
0
0
0
0
0
0
0
0
0
0
0
0
0
0
0
0
0
0
0
0
0
0
0
0
0
0
0
0
0
0
0
0
0
0
0
0
0
0
0
0
0
0
0
0
0
0
0
0
0
0
0
0
0
0
0
0
0
0
0
0
0
0
0
0
0
0
0
0
0
0
0
1.9647e-274
0
0
0
0
0
0
0
0
0
0
0
0
0
0
0
0
0
0
0
0
0
0
0
0
0
0
0
0
0
0
0
0
0
0
0
0
0
0
0
0
0
0
0
0
0
0
0
0
0
0
0
0
0
0
0
0
0
0
0
0
0
0
0
0
0
0
0
0
0
0
0
0
0
0
0
0
0
0
0
0
0
0
0
0
0
0
0
0
0
0
0
0
0
0
0
0
0
0
0
0
0
0
0
0
0
0
0
0
0
0
0
0
0
0
0
0
0
0
0
0
0
0
0
0
0
0
0
0
0
0
0
0
0
0
0
0
0
0
0
0
0
0
0
0
0
0
0
0
0
0
0
0
0
0
0
0
0
0
0
0
0
0
0
0
0
0
0
0
0
0
0
0
0
0
0
0
0
0
0
0
0
0
0
0
0
0
0
0
0
0
0
0
0
0
0
0
0
0
0
0
0
0
0
0
0
0
0
0
0
0
0
0
0
0
0
0
0
0
0
0
0
0
0
0
0
0
0
0
0
3.07505e-274
5.46747e-274
7.05483e-275
7.0654e-275
1.45643e-261
6.7351e-261
1.45644e-261
0
0
0
9.24038e-275
2.20319e-275
7.26459e-275
2.27127e-276
0
0
0
0
0
0
0
0
0
0
0
0
0
0
0
0
0
0
0
0
0
0
0
0
0
0
0
0
0
0
0
0
0
0
0
0
0
0
0
0
0
0
0
0
0
0
0
0
0
0
0
0
0
0
0
0
0
0
0
0
0
0
0
0
0
0
0
0
0
0
0
0
0
0
0
0
0
0
0
0
0
0
0
0
0
0
0
0
0
0
0
0
0
0
0
0
0
0
0
0
0
0
0
0
0
0
0
0
0
0
0
0
0
0
0
0
0
0
0
0
0
0
0
0
0
0
0
0
0
0
0
0
0
0
0
3.80462e-103
1.39764e-144
1.01033e-183
2.30966e-143
1.6474e-183
5.86733e-230
2.52571e-227
3.19207e-229
5.59141e-273
0
0
8.5899e-107
9.83761e-144
3.51657e-187
1.90242e-142
1.09275e-186
1.16446e-228
4.46118e-226
7.84458e-228
3.43906e-276
0
0
5.20276e-79
6.76095e-121
8.66169e-173
8.28475e-225
6.7991e-171
4.08711e-224
6.14238e-272
3.17646e-268
4.72657e-271
7.65091e-301
0
0
9.25169e-119
3.78312e-170
2.63974e-217
2.07182e-271
3.89143e-169
8.51872e-216
9.8581e-271
2.1331e-299
7.0646e-267
5.18987e-296
1.54995e-298
0
0
0
2.48906e-154
1.96342e-216
5.76278e-271
5.45203e-300
1.27027e-195
6.51311e-265
3.65937e-279
0
2.38697e-194
6.85803e-264
2.28054e-277
0
0
2.62048e-274
1.02656e-215
1.18413e-270
5.35537e-299
0
1.60823e-264
1.18915e-278
0
0
3.53542e-262
2.75234e-276
0
0
0
6.16626e-271
7.4247e-299
0
0
1.04449e-278
0
0
0
2.99258e-276
0
0
0
0
0
0
0
0
0
2.98292e-272
3.09642e-271
2.91342e-230
0
5.85403e-274
1.54183e-226
6.46865e-230
0
5.192e-273
0
0
0
0
0
0
2.83241e-274
2.32939e-275
0
0
0
0
0
0
1.2294e-222
2.02546e-298
2.8924e-222
1.31641e-224
2.21369e-297
3.40158e-301
7.07405e-271
0
4.04735e-300
2.56013e-270
1.04922e-272
0
6.71018e-303
0
0
0
0
0
4.35585e-214
2.99433e-295
3.01877e-214
4.65863e-217
2.06312e-274
8.04029e-278
4.07771e-269
0
0
2.02557e-269
1.92776e-271
0
0
4.07658e-298
0
0
8.98106e-298
4.58478e-300
0
0
0
0
0
0
0
0
0
2.69543e-262
1.0937e-262
8.42971e-279
0
0
0
7.68812e-229
0
1.50538e-276
5.8209e-226
1.54445e-228
0
6.08001e-277
0
0
0
0
0
0
0
0
0
0
0
0
8.54676e-196
2.61285e-262
1.28799e-264
2.38534e-194
8.71664e-196
5.22406e-262
7.1189e-265
6.23067e-264
2.95821e-277
1.9445e-277
7.63286e-264
6.23071e-264
2.84685e-277
1.94233e-277
3.41881e-278
0
0
2.27845e-277
3.41883e-278
0
0
2.28492e-274
2.30238e-274
6.17159e-229
2.44579e-272
5.52001e-229
1.15382e-271
1.54443e-228
1.32984e-228
7.29291e-270
7.33856e-270
0
0
7.30531e-270
0
7.29315e-270
2.33833e-268
0
1.59328e-269
0
2.33659e-268
0
2.47392e-269
0
0
0
0
0
0
0
0
0
0
0
0
4.16467e-227
4.27407e-274
3.58503e-227
8.78839e-276
6.0198e-228
5.17475e-228
0
0
0
0
0
0
0
0
0
0
0
0
1.26684e-268
8.76092e-270
1.21564e-296
2.0839e-298
1.26621e-268
1.0478e-269
5.8553e-297
5.73845e-268
1.11516e-295
4.58026e-269
1.16862e-297
5.94159e-268
7.64573e-296
3.9365e-269
3.08265e-271
1.2255e-299
2.89651e-272
4.0326e-300
3.08471e-271
1.2902e-299
1.02736e-271
5.67218e-296
4.6121e-297
0
0
1.8884e-296
5.68618e-296
0
2.61245e-298
0
2.38282e-299
0
2.66168e-298
0
3.70149e-299
0
0
0
0
0
0
0
0
0
0
0
0
0
0
0
0
0
0
0
6.73862e-267
4.67468e-268
1.82677e-293
2.70955e-295
6.72558e-267
5.45428e-268
1.49186e-293
7.80875e-267
6.30402e-268
1.83087e-274
2.01566e-293
5.47494e-268
4.97775e-270
5.65435e-298
4.71101e-271
8.00931e-278
4.98119e-270
5.96792e-298
1.65865e-270
4.49419e-293
4.25059e-294
0
0
1.49582e-293
4.51588e-293
0
9.05978e-296
8.38307e-297
0
0
3.00999e-296
9.0632e-296
0
5.67022e-296
0
5.15553e-297
0
5.7592e-296
0
1.41981e-296
4.85516e-299
0
4.60983e-300
0
4.85703e-299
0
1.61687e-299
0
0
0
0
0
0
0
0
0
0
0
0
0
0
0
0
0
0
0
0
0
0
0
0
0
0
0
0
0
0
0
0
0
0
3.5093e-276
2.69492e-262
3.49693e-275
3.92486e-263
3.55063e-275
1.78621e-263
3.06977e-276
7.57164e-279
0
0
0
0
0
0
0
0
0
0
0
0
0
0
1.10588e-144
9.64557e-182
9.32403e-184
1.58485e-143
1.03928e-144
2.33077e-181
1.18712e-183
3.19214e-229
2.0442e-272
1.01933e-272
3.19191e-229
3.192e-229
1.02748e-272
2.05007e-272
7.84474e-228
6.39474e-276
1.27631e-275
7.84462e-228
7.84477e-228
1.2786e-275
6.37497e-276
2.13789e-120
3.2645e-171
6.62406e-120
5.43893e-121
4.84688e-171
1.45186e-172
2.32436e-172
1.08036e-221
1.21395e-223
9.67312e-172
2.09073e-172
2.68317e-223
7.40696e-225
4.72671e-271
1.48568e-300
1.48044e-300
4.7308e-271
4.73086e-271
1.31918e-300
1.31701e-300
1.7961e-169
7.31328e-214
1.19948e-215
9.45272e-170
1.51623e-170
2.48034e-215
7.59237e-217
2.04686e-216
1.91251e-268
5.40801e-270
1.598e-216
2.12136e-217
4.8882e-270
1.53041e-271
1.56051e-298
0
0
1.54353e-298
1.54354e-298
0
0
3.37549e-272
0
0
3.35459e-272
1.15614e-272
0
3.46523e-273
0
1.58804e-272
0
1.58791e-272
0
1.0491e-273
1.63519e-273
8.19984e-144
5.53377e-185
5.45489e-187
1.18854e-142
7.60228e-144
3.96663e-185
1.33305e-186
0
0
0
0
0
0
0
2.16238e-194
1.7008e-195
7.163e-195
5.57082e-195
8.37946e-195
1.54263e-149
1.54567e-149
5.1372e-150
5.14717e-150
1.10099e-47
8.93353e-78
6.6923e-79
1.37141e-118
5.84327e-120
1.02787e-154
1.82062e-157
1.29817e-217
1.46089e-220
4.68391e-273
3.59493e-118
1.3834e-150
3.24243e-154
4.26319e-196
1.3997e-216
3.26953e-265
6.03177e-272
2.32103e-280
6.78749e-301
0
8.07162e-34
1.1102e-69
4.865e-67
3.52956e-101
6.80401e-179
0
2.09219e-35
4.86934e-68
9.73646e-66
1.97229e-105
5.74335e-138
6.59397e-183
9.88131e-314
1.05875e-48
2.37654e-78
3.00977e-119
1.31838e-167
8.13736e-220
0
8.65125e-78
3.95214e-117
1.30789e-211
3.81602e-118
4.2827e-150
5.24905e-154
1.39515e-195
3.33996e-194
3.77058e-216
1.81415e-264
1.49085e-262
3.68916e-271
7.91243e-299
0
0
0
3.07395e-279
0
0
0
0
6.79483e-277
1.60173e-299
0
0
0
0
0
0
0
0
0
0
0
0
0
0
0
0
0
0
0
0
0
0
0
0
0
0
0
0
0
0
0
7.71916e-143
3.2025e-227
6.36724e-140
1.50178e-143
5.48615e-227
1.08754e-182
6.57105e-266
6.43192e-180
1.42167e-182
9.36332e-267
3.49309e-270
2.50945e-269
0
8.36971e-141
1.13801e-224
5.01335e-139
1.37244e-142
4.27627e-226
2.8787e-185
3.8856e-270
3.78476e-184
1.49609e-186
4.00568e-271
4.94716e-272
3.51306e-273
0
9.07789e-170
3.28885e-267
2.22802e-169
9.35817e-172
1.2314e-270
8.93061e-294
1.09648e-295
2.40352e-299
0
0
0
8.42529e-263
8.52328e-263
2.42092e-312
2.78159e-311
4.05134e-312
1.28948e-289
1.43477e-289
0
0
0
0
0
1.34138e-194
5.54575e-180
3.86933e-181
2.47599e-225
2.66661e-226
4.36356e-181
2.49503e-225
5.54647e-180
2.69684e-176
1.46025e-219
1.43861e-219
2.6962e-176
7.51818e-181
2.40572e-225
6.34565e-182
8.39371e-226
7.52388e-181
2.50436e-225
2.50323e-181
9.41929e-224
2.53971e-224
2.58848e-265
1.16931e-265
3.17327e-224
2.60415e-265
9.42015e-224
7.43021e-228
7.66616e-272
1.48236e-270
1.50612e-228
9.38744e-224
9.64574e-265
7.12562e-225
1.03336e-265
9.79275e-224
3.11129e-265
3.12615e-224
1.84741e-227
1.25825e-271
7.81362e-270
1.26969e-228
3.09388e-267
1.59098e-268
3.0128e-267
2.97467e-261
2.82862e-261
3.67833e-267
1.43805e-267
4.12853e-267
0
0
0
0
0
0
0
1.01697e-178
2.3007e-217
1.01698e-178
2.30182e-217
4.72097e-183
3.86028e-184
1.88066e-223
5.33555e-223
1.57228e-183
4.72672e-183
5.68516e-223
3.94204e-180
3.27858e-219
3.30735e-219
3.94262e-180
8.52669e-185
3.95478e-224
6.84942e-186
6.76369e-225
8.53325e-185
2.05803e-224
2.84011e-185
5.78939e-222
4.38044e-223
7.8432e-269
2.62954e-268
1.92857e-222
6.80116e-222
1.20473e-268
5.00794e-226
4.43701e-274
3.42092e-227
1.42036e-272
7.8985e-223
4.41174e-269
5.97995e-224
4.19956e-270
8.23242e-223
1.30558e-269
2.6316e-223
7.43831e-227
9.00039e-276
5.80326e-274
4.91456e-228
6.49959e-270
8.10254e-270
1.93221e-269
1.99708e-264
2.08669e-264
2.24172e-270
4.04817e-271
1.25411e-270
0
0
1.29939e-311
1.97626e-313
1.38338e-312
0
0
1.10591e-216
6.21463e-262
1.10613e-216
5.3216e-262
5.9132e-220
5.318e-221
8.71971e-266
1.11098e-265
1.96507e-220
5.91569e-220
2.28993e-265
3.77806e-220
2.20955e-265
2.23797e-265
3.77868e-220
6.07226e-223
2.32957e-269
5.64971e-224
1.5729e-269
6.07578e-223
4.85682e-269
2.02287e-223
1.45054e-264
1.20955e-265
1.61983e-292
7.57617e-292
4.82245e-265
1.66251e-264
4.31205e-292
2.42978e-293
9.19828e-294
4.04128e-293
1.26756e-292
2.66704e-292
3.21026e-297
1.08865e-297
1.78059e-297
1.12483e-263
1.20589e-290
1.24585e-264
2.60699e-289
3.45611e-69
4.68785e-99
1.71974e-101
1.34981e-67
9.49811e-70
3.51605e-100
5.34695e-103
4.22682e-103
1.30413e-141
1.84712e-143
2.86521e-102
2.59442e-103
1.73491e-142
4.82333e-144
5.23095e-67
1.28602e-102
2.34438e-105
1.59816e-66
2.9292e-68
7.32104e-104
1.75391e-106
2.5913e-106
1.0377e-140
1.86438e-142
3.76847e-106
6.11497e-107
1.98128e-141
2.13604e-143
2.40631e-78
6.49522e-119
2.3802e-119
7.20618e-79
2.02652e-79
2.15595e-119
1.07204e-120
2.47226e-169
4.22026e-118
7.00973e-167
4.19499e-169
2.42157e-118
3.66992e-119
2.0068e-168
7.54458e-170
1.70071e-76
2.12227e-115
3.36337e-117
4.49597e-151
1.24856e-150
7.37377e-195
1.03569e-152
1.16449e-196
6.82343e-197
5.13669e-263
4.09594e-199
5.414e-266
4.85459e-265
2.94673e-278
6.7129e-269
1.88777e-282
4.20721e-281
0
1.19045e-115
4.05777e-149
4.45121e-198
1.97942e-233
6.97848e-293
1.0297e-114
4.08207e-152
1.56567e-199
1.26498e-234
6.88317e-65
1.10765e-78
1.10971e-104
4.32048e-117
1.16172e-138
9.20153e-156
3.47581e-183
9.68966e-203
0
2.45646e-221
3.29137e-27
0
1.52453e-32
9.11412e-39
2.73888e-38
2.2442e-79
3.06281e-77
1.04506e-105
5.7038e-100
1.37843e-109
1.88571e-109
4.95663e-153
2.53197e-154
4.73183e-183
3.46336e-180
3.36201e-103
7.9412e-107
4.56788e-138
3.0332e-153
5.66304e-141
3.53572e-155
4.55326e-181
4.71434e-185
4.18024e-184
3.70341e-188
1.85891e-223
2.81675e-238
2.62189e-33
6.99426e-37
8.63907e-61
4.63033e-65
5.26834e-80
6.049e-98
4.2937e-101
4.66754e-105
1.50225e-130
1.99103e-148
2.62429e-173
2.95619e-176
2.8363e-224
7.83731e-228
1.73294e-268
1.76524e-80
3.29927e-222
1.81306e-265
7.47698e-301
1.11971e-178
3.66434e-183
3.52545e-221
6.22306e-236
4.88807e-269
8.12289e-273
2.67071e-171
6.99132e-172
1.25219e-171
2.49807e-171
2.66044e-171
1.51167e-129
1.51239e-129
1.51172e-129
1.51243e-129
8.75352e-273
2.86609e-260
1.03351e-272
8.33609e-276
8.83096e-260
8.23216e-262
8.16421e-273
0
0
1.7507e-274
0
0
5.54138e-274
1.02568e-273
0
0
1.47501e-270
5.76231e-270
8.60187e-271
9.20201e-270
2.45357e-276
0
0
2.96112e-273
1.87601e-273
1.98274e-273
2.55924e-273
5.54693e-293
8.17782e-267
0
3.42668e-260
1.45154e-260
4.1297e-272
6.4155e-260
3.50518e-272
1.44142e-272
4.50148e-260
1.25516e-272
1.49902e-260
1.03772e-261
2.2613e-195
3.09405e-262
5.27115e-272
4.8096e-272
1.45069e-258
4.839e-259
5.05536e-259
1.39159e-258
2.27454e-28
1.96354e-47
1.53385e-77
1.43517e-138
3.03856e-259
1.2752e-262
3.38484e-289
0
2.35572e-218
1.65314e-219
2.09347e-261
2.632e-217
3.65883e-219
2.7763e-264
7.2189e-262
2.4506e-265
3.45422e-292
3.63114e-167
1.36493e-266
1.4306e-169
2.15985e-262
1.87864e-289
8.34264e-293
5.20838e-275
1.05325e-259
3.198e-259
1.04541e-259
1.21134e-261
7.2592e-289
0
8.54538e-150
6.71195e-195
8.54545e-150
5.97188e-175
5.98515e-175
2.08048e-218
2.97927e-218
6.00774e-175
4.15101e-218
5.97157e-175
5.75762e-219
2.70022e-176
3.068e-176
1.35229e-260
1.02208e-178
5.15671e-217
1.39908e-178
7.02656e-219
3.94219e-180
4.57984e-180
4.71763e-264
1.1119e-216
1.09077e-261
1.27558e-216
6.10804e-265
3.77345e-220
3.76021e-220
9.11624e-292
5.34924e-212
3.68057e-213
1.69305e-264
1.47806e-266
5.33274e-212
4.57921e-213
6.82941e-265
8.63164e-215
2.02152e-268
8.31206e-216
2.15528e-262
8.63687e-215
2.12318e-268
2.87485e-215
1.16042e-263
2.87871e-289
1.12629e-263
5.19353e-290
5.89006e-293
1.15944e-290
5.35657e-295
5.72896e-275
3.11626e-295
1.2849e-19
4.63625e-32
2.65639e-98
1.27428e-215
9.62806e-18
3.13176e-65
1.92022e-101
2.99727e-215
3.67459e-28
1.91e-77
1.54424e-47
2.91188e-117
2.58462e-115
1.92654e-99
8.90736e-173
2.85976e-177
3.19591e-98
7.08391e-101
8.75562e-174
9.81527e-179
2.29995e-221
4.98815e-217
1.39423e-222
6.52596e-103
4.56588e-177
1.60471e-180
2.75932e-104
7.29616e-183
7.35778e-220
1.24932e-222
3.69455e-134
5.27153e-219
1.75554e-135
3.21913e-235
6.74357e-265
4.12128e-281
9.51058e-216
2.60052e-215
4.83143e-216
3.00875e-214
9.9581e-214
5.70696e-137
5.7095e-137
4.0451e-173
5.54844e-173
5.7512e-137
4.05778e-173
5.70726e-137
1.45189e-138
1.08625e-139
3.41285e-175
8.06315e-177
9.49874e-140
1.71302e-175
1.452e-138
1.2967e-136
1.15954e-171
8.99247e-138
1.78125e-172
1.4836e-136
3.4553e-172
3.11715e-137
8.64159e-140
3.94496e-177
7.85502e-141
1.44011e-177
8.65601e-140
8.69709e-177
2.8779e-140
1.10864e-218
2.63554e-220
5.5104e-219
4.10256e-214
1.34709e-215
1.23742e-214
1.93088e-220
1.7626e-220
1.03023e-219
2.3748e-135
1.84937e-136
4.36022e-176
7.93502e-136
1.59909e-175
8.61091e-138
6.97963e-139
2.72581e-179
3.96446e-179
2.86952e-138
8.62289e-138
4.22744e-179
2.93971e-139
6.74349e-181
2.45433e-140
1.16831e-181
2.94304e-139
3.57042e-181
9.79267e-140
4.67202e-218
6.58973e-218
3.89515e-218
8.53265e-220
1.60145e-220
2.50573e-220
2.0228e-167
1.85726e-168
1.39088e-217
1.78115e-217
6.72449e-168
2.02391e-167
1.85009e-217
1.63273e-169
5.70621e-234
1.55966e-170
1.92689e-234
1.6335e-169
5.92131e-234
5.43861e-170
1.4987e-262
5.89471e-263
1.32849e-262
5.02328e-279
3.4846e-279
5.57703e-279
3.93247e-115
2.02217e-258
1.56399e-164
5.78028e-287
4.31188e-149
3.56097e-102
1.39581e-176
2.65586e-215
9.20126e-197
9.58356e-133
1.2768e-230
1.1617e-259
1.66411e-259
1.95269e-167
6.97497e-260
7.73744e-272
1.04016e-212
9.99176e-258
1.34714e-256
4.64146e-257
1.08525e-286
3.02732e-286
4.39114e-286
2.63754e-193
4.30767e-149
2.63618e-193
3.29337e-175
2.64269e-135
1.99141e-136
2.64783e-176
1.99083e-136
1.23233e-176
2.16888e-136
6.2281e-177
1.99183e-136
3.2721e-214
7.30388e-215
1.92693e-215
4.23101e-148
3.10331e-149
5.78958e-196
3.79416e-195
6.24728e-149
4.70423e-148
4.354e-195
2.05607e-166
1.65769e-230
2.06149e-166
2.28145e-230
2.33344e-166
1.1569e-230
2.05644e-166
5.44521e-259
8.15011e-260
8.76555e-260
1.02331e-208
8.73185e-210
2.51015e-259
3.30828e-259
1.09033e-209
1.04325e-208
2.89222e-259
9.06051e-212
6.56119e-263
9.74816e-212
3.5999e-260
9.74668e-212
2.43504e-263
9.0619e-212
1.96443e-289
2.13903e-272
9.0082e-290
3.36301e-32
1.7449e-66
4.30353e-67
4.54899e-32
3.38583e-32
2.71398e-66
2.49387e-67
7.47608e-34
6.06343e-34
4.08331e-65
9.17077e-66
7.20208e-34
2.21239e-34
1.0616e-66
9.75922e-76
8.59241e-47
1.08643e-63
4.48975e-93
1.68262e-47
9.44889e-65
1.38089e-94
2.04551e-116
8.37321e-77
8.4914e-77
7.07552e-117
2.54386e-77
8.75875e-78
2.27736e-118
2.5211e-67
1.2173e-139
2.65108e-67
4.66587e-139
1.06954e-176
5.08058e-176
5.7775e-66
1.14557e-137
2.78507e-66
3.80653e-139
2.71333e-178
4.17747e-180
2.1821e-76
3.14439e-150
1.75863e-77
8.34298e-169
2.93978e-198
3.93396e-235
2.33515e-131
1.89587e-210
1.46681e-261
3.16035e-99
2.1139e-100
9.14384e-138
7.82428e-139
4.1224e-100
9.23257e-138
3.16089e-99
4.93767e-99
2.01483e-137
4.29214e-100
1.42636e-137
4.9427e-99
2.11681e-137
1.64384e-99
2.12062e-174
2.60016e-175
2.15979e-174
3.04352e-173
1.26407e-173
8.8813e-174
8.82728e-102
6.57063e-103
2.04309e-136
2.94e-136
2.93992e-102
8.8369e-102
3.08637e-136
3.62259e-102
3.95191e-137
2.74795e-103
1.32945e-137
3.6319e-102
2.20655e-137
1.20915e-102
9.41821e-177
2.42843e-176
2.82368e-176
3.24967e-177
5.55384e-178
2.24947e-177
3.63289e-115
3.45412e-116
3.96264e-149
5.06757e-149
1.20798e-115
3.63672e-115
5.43969e-149
5.19841e-133
5.81764e-167
5.0232e-134
1.97245e-167
5.20098e-133
3.02615e-167
1.73155e-133
3.07007e-196
1.19171e-196
1.48971e-196
1.90631e-232
6.73887e-233
5.38846e-233
8.58498e-165
7.52493e-166
2.69378e-209
4.43387e-210
2.8556e-165
2.30102e-165
6.2195e-209
1.36368e-259
3.6832e-261
9.98706e-260
0.000104042
1.66547e-19
1.31899e-51
4.21477e-06
2.53334e-34
1.04176e-16
8.59572e-47
1.30462e-27
1.83627e-93
1.03079e-112
3.67775e-254
3.389e-75
2.24278e-114
4.01996e-192
8.92406e-67
1.35601e-188
1.75461e-113
7.77359e-134
7.30045e-192
4.17985e-193
1.73726e-257
4.85073e-260
5.23172e-193
3.9557e-193
1.06055e-193
1.08124e-171
4.3228e-171
2.29079e-157
2.31805e-254
4.79695e-254
3.41363e-255
2.10663e-114
2.58799e-148
6.94384e-149
2.24258e-114
2.10665e-114
1.21625e-148
6.93512e-149
1.23565e-98
4.19475e-136
8.38554e-136
1.23562e-98
8.48397e-98
3.94607e-135
3.90894e-135
8.48227e-98
8.95151e-171
8.7684e-171
2.87279e-118
7.15017e-85
4.21393e-114
2.70938e-146
8.12075e-146
8.03162e-189
1.56793e-188
2.71552e-146
9.24565e-146
2.95925e-189
3.88415e-147
2.16565e-190
3.43744e-148
7.3548e-192
4.24344e-147
1.18126e-190
3.07698e-148
3.80855e-168
7.3268e-213
3.81103e-168
4.17883e-193
3.81106e-168
7.75225e-213
3.81055e-168
4.86279e-256
1.39155e-257
7.35846e-257
1.10309e-263
5.11243e-260
1.31755e-263
4.28809e-260
5.23065e-193
1.95677e-260
5.23178e-193
3.98016e-260
5.23071e-193
4.19652e-260
2.78257e-258
3.60645e-192
5.63044e-258
4.01956e-192
4.89577e-258
3.60649e-192
1.37832e-257
6.70778e-19
1.86496e-33
1.6699e-32
7.02625e-19
6.41627e-19
1.61969e-32
1.49824e-32
2.70833e-17
3.50134e-17
1.83813e-34
2.12221e-34
3.40634e-17
3.62377e-17
2.66563e-34
3.37956e-47
7.52726e-27
7.82444e-27
1.02089e-46
1.43679e-27
2.43513e-27
3.60239e-47
1.42139e-77
2.24624e-45
1.84019e-62
3.3453e-74
9.62046e-46
1.32858e-63
2.16893e-74
)
;

boundaryField
{
    ground
    {
        type            zeroGradient;
    }
    outlet
    {
        type            zeroGradient;
    }
    wall
    {
        type            zeroGradient;
    }
    wall2
    {
        type            zeroGradient;
    }
    wall3
    {
        type            zeroGradient;
    }
    internalPatch
    {
        type            internal;
    }
    procBoundary4to0
    {
        type            processor;
        value           nonuniform List<scalar> 
101
(
5.27449e-194
3.09457e-157
2.08453e-116
3.1375e-150
3.46129e-191
3.51111e-233
2.09684e-282
0
0
0
0
0
0
0
0
0
1.45272e-281
1.09252e-231
4.26589e-194
2.63961e-181
5.35232e-179
1.31924e-123
2.45167e-83
7.73674e-52
4.00037e-32
2.26528e-20
6.05921e-14
0.000171533
0
0.306378
0
1.45652e-11
1.56081e-24
5.02649e-42
6.8004e-25
3.62495e-43
1.35147e-29
6.04481e-18
1.39642e-17
1.12068e-35
4.02831e-47
1.75328e-82
1.00414e-119
1.25776e-160
1.65396e-142
4.35143e-143
4.63616e-136
1.52639e-66
8.08515e-80
7.55979e-113
2.98065e-148
4.80155e-190
3.75505e-231
5.16929e-281
0
0
0
0
0
1.957e-280
3.77495e-230
1.14751e-190
1.16438e-150
4.60366e-122
7.63972e-84
5.00748e-49
9.3003e-33
1.81967e-17
0
1.34806e-07
1.2157e-11
2.22507e-25
6.66649e-42
5.09985e-73
2.19204e-110
2.73645e-73
6.15107e-111
1.71332e-74
1.03329e-44
0
5.4649e-147
2.0888e-189
3.975e-230
3.95567e-280
0
4.84267e-280
1.16571e-229
8.18303e-190
6.30578e-148
2.83227e-112
6.7779e-75
1.19786e-42
2.48733e-73
1.3864e-110
7.71597e-147
2.7823e-189
1.141e-229
2.76116e-147
6.35162e-111
1.05566e-66
5.84777e-105
)
;
    }
    procBoundary4to1
    {
        type            processor;
        value           nonuniform List<scalar> 5(6.5883e-37 6.5883e-37 2.02519e-45 2.02519e-45 1.03583e-76);
    }
    procBoundary4to2
    {
        type            processor;
        value           nonuniform List<scalar> 
15
(
0
3.38969e-286
9.65375e-230
7.39911e-289
6.99332e-233
7.33373e-219
1.11705e-159
6.40964e-116
6.40154e-86
2.98803e-112
2.51785e-150
3.36663e-193
1.31948e-227
3.18359e-152
1.05217e-195
)
;
    }
    procBoundary4to3
    {
        type            processor;
        value           nonuniform List<scalar> 
174
(
3.30952e-222
9.15e-266
5.56482e-297
2.17387e-263
4.88875e-221
4.88875e-221
3.30952e-222
2.99303e-265
2.99303e-265
3.16571e-300
0
0
0
0
0
1.56643e-298
5.83446e-282
5.29801e-264
5.29801e-264
4.88875e-221
1.30481e-220
1.30481e-220
3.23417e-221
5.51818e-297
0
0
0
0
0
0
0
0
0
0
0
0
0
0
0
0
0
0
0
0
0
0
0
0
0
0
0
0
0
0
0
0
0
0
0
0
0
0
0
0
0
0
0
0
0
0
0
0
0
0
0
1.71723e-291
9.91262e-233
1.01762e-151
1.01762e-151
1.06862e-220
7.09331e-236
3.12612e-272
4.84732e-300
4.84732e-300
0
0
0
0
0
0
0
0
0
0
0
0
1.6272e-298
0
0
0
0
0
0
0
0
0
0
0
0
0
0
0
0
0
0
0
0
0
0
0
0
0
0
0
0
0
0
0
0
0
0
0
0
0
0
0
0
0
0
0
0
0
0
0
0
0
0
0
0
0
0
0
0
0
0
0
0
0
0
0
0
0
0
0
0
0
0
0
0
0
0
0
0
1.72456e-268
)
;
    }
    procBoundary4to5
    {
        type            processor;
        value           nonuniform List<scalar> 
179
(
9.28022e-152
9.28022e-152
9.18466e-79
9.18466e-79
5.74122e-104
8.06511e-151
8.09512e-151
3.01137e-171
9.17488e-172
3.03978e-221
3.03978e-221
1.54306e-281
3.93659e-297
6.46266e-292
1.70749e-269
2.05191e-270
2.05191e-270
2.99256e-258
4.42109e-193
2.18257e-193
2.18257e-193
1.43168e-148
6.55767e-193
4.71681e-192
8.20602e-190
9.43319e-192
1.62612e-195
6.90783e-195
6.90783e-195
7.97786e-195
5.19202e-192
1.05434e-193
3.86735e-160
9.5108e-158
1.21721e-157
1.21721e-157
2.41797e-158
1.67531e-170
2.17343e-170
4.83752e-171
2.21661e-171
5.14934e-136
1.22879e-98
1.22879e-98
3.26725e-43
6.44652e-38
6.23225e-13
0
1
0
1
0
0.000111526
0
6.53418e-17
6.53418e-17
0
0
1.96123e-07
1.58352e-07
2.46715e-15
3.62264e-47
3.62264e-47
2.65791e-136
2.65791e-136
9.28022e-152
9.18466e-79
2.1003e-30
1.26982e-31
6.30603e-60
3.81841e-80
3.16284e-129
5.74098e-104
1.2943e-129
4.05206e-149
1.20767e-193
1.20767e-193
1.13658e-259
2.88973e-281
1.1376e-259
1.1376e-259
2.03851e-257
4.59011e-193
4.52965e-193
4.52965e-193
1.43169e-148
1.44211e-115
1.19059e-148
1.88954e-148
5.81032e-147
3.26161e-148
8.49703e-149
2.30701e-148
2.30701e-148
2.37199e-148
6.3503e-146
3.23574e-147
5.83238e-120
3.72853e-118
1.45263e-118
1.45263e-118
5.15471e-119
2.53957e-135
2.56295e-135
5.21662e-136
1.22828e-98
1.22828e-98
8.42645e-98
1.20112e-38
3.33838e-25
2.04889e-08
0
0
0.000504149
4.12598e-20
7.99156e-20
2.65199e-31
5.88348e-27
6.1123e-27
1.73336e-46
1.73336e-46
1.73336e-46
2.62928e-75
6.30692e-60
3.71315e-80
5.56886e-115
1.4393e-115
1.44388e-149
1.44388e-149
1.20767e-193
1.44388e-149
1.4393e-115
2.63343e-75
2.6334e-75
2.6805e-75
7.77595e-115
8.59479e-114
5.3064e-113
4.59372e-114
2.486e-115
7.47415e-115
7.47415e-115
7.47182e-115
5.00243e-113
5.00243e-113
3.23574e-147
1.23982e-85
1.23982e-85
1.86472e-84
7.148e-85
7.148e-85
2.37629e-85
8.42956e-98
8.42645e-98
8.42956e-98
1.5171e-49
1.5171e-49
0
7.27021e-08
0
0
1.13864e-39
4.02524e-42
1.07869e-45
1.04794e-45
6.65158e-75
3.63515e-76
3.63515e-76
2.71181e-75
2.71181e-75
4.05553e-114
2.43709e-49
1.5171e-49
1.5171e-49
2.43709e-49
5.62133e-26
2.71181e-75
3.63515e-76
2.63343e-75
)
;
    }
}


// ************************************************************************* //
