/*--------------------------------*- C++ -*----------------------------------*\
  =========                 |
  \\      /  F ield         | OpenFOAM: The Open Source CFD Toolbox
   \\    /   O peration     | Website:  https://openfoam.org
    \\  /    A nd           | Version:  9
     \\/     M anipulation  |
\*---------------------------------------------------------------------------*/
FoamFile
{
    format      ascii;
    class       volVectorField;
    location    "0.00045";
    object      U;
}
// * * * * * * * * * * * * * * * * * * * * * * * * * * * * * * * * * * * * * //

dimensions      [0 1 -1 0 0 0 0];

internalField   nonuniform List<vector> 
5444
(
(-126.036 290.551 -931.957)
(754.391 323.913 -1176.02)
(-50.9341 385.583 53.5489)
(-111.395 549.491 -1090.97)
(-54.4269 497.444 63.9681)
(-46.4405 381.08 -72.4767)
(-763.998 110.31 -1143.47)
(-768.744 106.924 -384.854)
(-542.707 -325.47 -1144.97)
(-546.135 -328.995 -393.62)
(-131.25 -286.809 -918.565)
(-59.702 -391.229 -486.994)
(769.605 331.924 -138.011)
(140.005 299.292 -931.355)
(59.6935 389.743 -66.6772)
(327.991 -318.126 -1076.84)
(755.306 -319.111 -1171.1)
(403.675 -398.554 -470.547)
(766.508 -321.843 -385.261)
(-762.75 323.728 127.979)
(-758.878 327.658 674.566)
(-103.944 331.303 940.982)
(-838.356 -40.2682 37.3809)
(-761.622 -109.645 666.698)
(-52.1638 -385.962 54.5671)
(-56.5867 -385.946 584.185)
(-52.6774 492.893 -80.5277)
(-739.886 532.313 -1176.89)
(-756.925 546.522 -379.428)
(-690.537 1136.62 -1195.29)
(-739.58 1168.14 -134.448)
(-99.557 1181.17 -1208.39)
(-96.5227 1188.58 -137.768)
(-750.574 540.004 127.129)
(-759.018 546.366 676.376)
(-101.327 543.515 927.798)
(-743.543 1170.9 123.628)
(-788.025 1185.73 940.218)
(-99.515 1192.28 123.486)
(-321.446 1179.21 903.106)
(-334.708 37.6595 -565.396)
(-30.2042 339.434 -569.557)
(-320.24 323.542 -1075.9)
(-58.8871 66.0186 -630.347)
(-50.6517 55.9179 -626.343)
(-297.684 305.201 -639.245)
(-284.582 132.817 -926.046)
(532.855 116.691 -632.583)
(753.033 328.026 -647.406)
(546.43 329.05 -1154.11)
(773.559 112.187 -1154.43)
(763.218 114.761 -637.326)
(536.995 328.444 -644.684)
(554.166 119.694 -1092)
(-367.193 47.3787 461.021)
(-369.3 375.205 53.9656)
(-42.5552 373.812 456.299)
(-54.7487 54.8676 58.7614)
(-382.538 52.5089 58.5934)
(-47.6119 53.7808 470.173)
(-391.496 397.056 488.651)
(-318.643 751.695 -636.36)
(-103.417 529.864 -629.112)
(-324.873 544.131 -1145.77)
(-107.976 770.534 -1153.96)
(-316.706 533.813 -632.872)
(-103.474 759.673 -633.757)
(-320.559 753.7 -1169.72)
(-321.49 764.899 403.318)
(-373.977 483.849 62.1365)
(-48.2578 482.146 465.368)
(-36.0508 839.236 38.4866)
(-319.903 546.819 398.837)
(-319.142 769.611 126.974)
(-102.185 772.013 396.234)
(-393.383 61.7792 -484.911)
(-53.4041 396.897 -488.796)
(-368.096 371.94 -64.2267)
(-47.7224 52.7695 -76.4338)
(-54.4737 57.9511 -489.719)
(-380.168 52.2568 -69.3249)
(-400.838 406.127 -480.225)
(-753.768 108.521 -626.072)
(-747.928 324.421 -1163.42)
(-745.002 324.475 -632.36)
(-522.947 109.509 -623.532)
(-539.494 328.256 -1142.83)
(-526.173 323.085 -630.773)
(-542.961 114.027 -1084.16)
(-762.507 327.463 -384.396)
(-763.697 321.941 -138.574)
(-836.293 38.4331 -52.0956)
(-491.793 58.4194 -444.449)
(-476.965 378.34 -71.9478)
(-492.975 57.5519 -79.9257)
(-542.972 327.065 -389.275)
(-532.273 -320.83 -634.622)
(-752.331 -322.852 -1166.04)
(-750.377 -323.582 -637.205)
(-763.627 -109.102 -1144.51)
(-753.487 -108.277 -628.864)
(-523.791 -108.41 -626.081)
(-543.013 -113.629 -1085.53)
(-766.444 -330.505 -388.797)
(-767.4 -108.393 -388.374)
(-839.052 -40.9474 -56.2739)
(-484.658 -382.05 -77.6273)
(-769.374 -326.627 -142.021)
(-490.026 -54.3053 -450.047)
(-498.24 -57.2185 -81.2492)
(-33.7834 -333.376 -568.701)
(-324.185 -320.052 -1069.82)
(-302.772 -300.384 -638.496)
(-332.937 -34.8565 -566.728)
(-61.4659 -62.1871 -620.698)
(-52.811 -51.3453 -624.066)
(-287.256 -128.086 -923.846)
(-402.399 -402.962 -482.382)
(-52.4806 -386.76 -72.153)
(-375.533 -375.664 -70.4933)
(-393.1 -58.1936 -485.3)
(-56.1255 -56.1511 -70.0879)
(-57.6943 -57.9182 -486.721)
(-386.449 -52.5843 -72.0397)
(497.565 62.5388 -450.767)
(769.723 332.794 -388.547)
(487.023 386.434 -70.3337)
(842.605 44.3121 -50.8344)
(772.205 114.13 -387.274)
(501.156 63.1588 -76.8293)
(552.446 333.274 -393.036)
(342.524 40.7139 -568.339)
(329.276 327.373 -1083.36)
(41.9834 341.257 -569.237)
(71.2719 71.6263 -627.588)
(58.078 57.9387 -622.915)
(311.005 311.096 -647.807)
(298.201 138.389 -937.027)
(401.041 68.6412 -486.606)
(380.319 380.298 -64.2944)
(67.4198 401.224 -488.522)
(61.7962 61.6885 -70.0132)
(61.818 62.316 -485.921)
(390.02 59.6889 -66.8432)
(410.271 409.935 -481.85)
(306.906 -296.77 -638.967)
(134.813 -284.792 -925.526)
(38.0748 -335.152 -565.239)
(339.215 -30.8439 -568.272)
(69.8726 -58.1471 -632.766)
(55.1889 -48.7871 -626.215)
(292.473 -122.026 -937.191)
(752.284 -317.951 -636.833)
(547.339 -322.453 -1147.24)
(534.965 -315.552 -633.031)
(529.749 -102.396 -629.902)
(770.003 -106.663 -1154.94)
(759.268 -102.949 -634.309)
(549.777 -108.37 -1093.84)
(61.415 -390.636 -484.032)
(372.026 -368.105 -64.1434)
(52.3151 -380.261 -69.2976)
(397.468 -52.8415 -488.496)
(52.6594 -47.7615 -76.3615)
(57.9896 -54.5062 -489.549)
(380.818 -46.3634 -72.4481)
(547.665 -320.735 -389.374)
(765.404 -316.748 -139.638)
(480.494 -373.157 -71.694)
(494.356 -49.5109 -447.417)
(833.63 -35.5859 -54.7622)
(769.017 -100.212 -387.337)
(492.597 -52.6012 -80.4067)
(-831.715 38.4535 41.8673)
(-759.771 325.802 404.069)
(-766.181 105.45 398.984)
(-476.041 51.5685 469.519)
(-476.527 381.368 61.071)
(-493.485 57.8282 66.2022)
(-541.303 324.877 399.675)
(-759.504 105.468 670.193)
(-753.241 323.391 929.492)
(-755.153 104.305 928.031)
(-542.161 106.52 668.009)
(-537.922 325.765 933.33)
(-539.35 105.739 931.278)
(-541.562 329.848 671.126)
(-382.61 55.8626 589.271)
(-50.7771 389.028 584.553)
(-323.539 329.334 941.157)
(-34.2888 40.6705 1015.25)
(-55.1726 61.2521 604.551)
(-325.878 108.739 942.907)
(-325.536 331.281 674.674)
(-771.083 -111.195 394.963)
(-480.484 -380.887 55.6828)
(-767.458 -326.661 123.665)
(-764.914 -329.775 400.062)
(-547.25 -328.551 395.707)
(-480.582 -55.6972 465.218)
(-497.756 -56.5409 64.216)
(-756.258 -107.98 925.332)
(-761.819 -330.732 671.534)
(-755.473 -326.525 927.426)
(-545.434 -331.547 668.099)
(-540.882 -326.163 931.701)
(-544.852 -109.707 663.958)
(-540.648 -106.752 927.974)
(-372.757 -372.861 47.8097)
(-49.4834 -371.899 456.279)
(-398.291 -398.145 485.496)
(-371.638 -49.1822 456.335)
(-55.0083 -54.873 65.0939)
(-386.083 -52.1843 54.6699)
(-51.0716 -51.2395 473.716)
(-330.301 -330.218 672.06)
(-326.625 -326.622 940.134)
(-106.589 -327.103 939.082)
(-385.772 -56.3176 584.173)
(-34.9613 -34.6919 1013.85)
(-56.6332 -56.8108 606.625)
(-327.144 -106.684 939.061)
(-321.897 766.222 -385.413)
(-49.6249 493.914 -447.282)
(-373.254 480.414 -71.6634)
(-35.5325 834.036 -54.7141)
(-321.074 547.545 -389.979)
(-100.279 768.906 -387.174)
(-316.72 765.431 -139.551)
(-747.9 536.289 -137.606)
(-541.832 762.548 -380.042)
(-532.433 537.218 -137.388)
(-748.832 754.147 -134.891)
(-536.086 542.423 -385.576)
(-530.668 752.249 -137.927)
(-760.957 765.44 -376.188)
(-98.4794 1188.15 -370.059)
(-321.373 983.49 -379.386)
(-99.3864 975.63 -137.43)
(-313.587 1193.63 -137.161)
(-99.7602 982.075 -382.837)
(-316.705 1189.84 -362.85)
(-316.663 978.884 -137.465)
(-755.11 543.923 404.884)
(-539.448 759.416 404.818)
(-533.764 540.389 126.305)
(-753.031 758.664 127.743)
(-535.118 540.092 404.208)
(-534.28 757.068 126.859)
(-759.167 762.983 401.769)
(-323.343 763.293 673.809)
(-102.525 547.646 664.33)
(-320.738 543.568 932.365)
(-100.491 757.79 924.737)
(-325.059 547.06 670.417)
(-101.85 763.597 667.418)
(-318.945 757.508 927.788)
(-99.0743 1199.46 394.647)
(-321.709 983.968 401.259)
(-101.018 979.956 125.268)
(-317.502 1197.6 123.001)
(-320.622 983.844 126.245)
(-101.191 986.211 400.885)
(-316.262 1198.06 392.381)
(-172.586 274.942 203.684)
(-160.375 377.921 56.6599)
(-46.5648 378.291 191.978)
(-54.8601 277.315 61.7265)
(-153.186 381.161 190.593)
(-167.362 270.883 61.1884)
(-55.0245 272.353 201.464)
(-161.308 576.431 200.207)
(-166.48 484.226 63.9721)
(-52.9087 484.383 201.939)
(-49.0519 610.336 52.4468)
(-167.214 481.766 205.306)
(-163.412 590.06 54.9974)
(-46.7901 589.727 198.5)
(-175.171 277.092 -216.287)
(-47.1343 379.31 -207.949)
(-157.451 374.29 -70.4684)
(-50.9985 273.439 -78.3981)
(-164.463 268.031 -74.7089)
(-56.5838 273.471 -216.784)
(-156.384 383.024 -201.569)
(-157.301 -273.073 -356.398)
(-170.67 -375.235 -462.023)
(-48.6539 -382.664 -339.067)
(-56.3178 -280.421 -491.754)
(-159.915 -386.289 -329.643)
(-176.578 -276.121 -500.885)
(-52.6782 -273.417 -356.107)
(177.19 280.261 -212.759)
(168.428 381.123 -68.6321)
(59.7763 383.456 -204.493)
(61.7186 282.218 -75.2429)
(58.9205 277.614 -213.812)
(174.227 275.424 -70.3299)
(166.126 386.488 -199.175)
(268.016 -264.398 -351.422)
(254.053 -403.113 -471.198)
(382.133 -377.907 -304.532)
(409.589 -246.958 -473.403)
(264.716 -372.49 -339.746)
(289.229 -282.906 -461.133)
(375.925 -261.053 -340.804)
(-682.79 -164.805 189.554)
(-826.085 -33.0131 216.257)
(-824.454 -179.242 26.1117)
(-722.959 -61.844 70.1405)
(-812.434 -185.744 222.151)
(-699.058 -158.606 68.4559)
(-700.889 -63.5603 187.017)
(-173.955 -274.554 204.118)
(-161.75 -377.232 53.0391)
(-52.6947 -379.102 192.426)
(-53.9715 -277.391 64.0959)
(-159.357 -381.325 187.303)
(-167.711 -270.323 61.3438)
(-55.8286 -272.352 203.118)
(-181.294 -250.703 759.995)
(-171.767 -394.411 564.85)
(-26.8572 -398.095 747.84)
(-61.0668 -288.866 618.759)
(-195.85 -399.287 741.826)
(-162.891 -288.286 615.581)
(-44.0611 -260.078 750.048)
(-160.801 576.418 -212.117)
(-52.0413 484.96 -218.125)
(-164.814 480.235 -78.0841)
(-46.3871 605.564 -68.696)
(-161.918 585.713 -68.6103)
(-167.444 483.03 -219.429)
(-45.6284 589.724 -214.3)
(-210.171 159.054 -611.005)
(-260.719 50.8559 -612.71)
(-332.28 122.511 -537.42)
(-328.149 81.9387 -586.854)
(-250.972 137.889 -596.242)
(-339.841 183.079 -588.46)
(-219.207 82.4954 -605.978)
(-151.012 217.553 -616.035)
(-74.0723 334.921 -595.068)
(-43.5962 264.589 -615.1)
(-124.219 340.187 -537.517)
(-175.157 341.892 -595.135)
(-134.849 257.057 -595.115)
(-74.9223 225.382 -614.036)
(-87.969 93.5081 -650.938)
(-62.8314 204.724 -664.438)
(-39.4793 48.2558 -458.287)
(-200.823 68.2301 -659.493)
(-58.6436 64.8158 -566.306)
(-56.2816 65.4783 -573.947)
(-223.129 227.701 -688.14)
(-122.34 131.69 -674.867)
(-164.91 56.8637 -612.299)
(-48.9378 168.282 -614.303)
(-42.5714 50.7918 -651.008)
(-156.223 163.44 -613.77)
(-110.34 54.6508 -660.018)
(-44.4481 118.879 -666.659)
(-279.908 166.272 342.422)
(-391.459 52.6711 327.736)
(-261.402 54.2486 483.066)
(-352.278 152.34 449.367)
(-394.155 168.345 321.586)
(-252.872 168.734 481.506)
(-278.118 55.9541 344.058)
(-284.318 288.523 204.172)
(-264.161 395.34 57.469)
(-389.224 268.504 58.4399)
(-353.759 359.24 189.697)
(-256.449 398.727 199.623)
(-277.837 282.897 66.1447)
(-394.128 262.044 200.169)
(-162.068 285.206 341.234)
(-48.4195 396.811 322.83)
(-50.6648 268.218 478.386)
(-148.04 358.269 447.895)
(-163.403 399.598 319.848)
(-164.171 259.431 480.674)
(-52.2282 283.431 340.023)
(-163.434 168.325 202.032)
(-53.2115 167.398 55.2148)
(-166.217 54.0565 58.4584)
(-51.2285 54.611 196.754)
(-162.052 164.347 62.4688)
(-161.986 56.1483 194.4)
(-52.8034 165.946 191.086)
(-268.866 176.045 204.52)
(-373.601 50.355 196.448)
(-373.089 162.541 58.1527)
(-275.255 58.0078 63.8822)
(-267.231 171.042 61.2743)
(-374.664 157.821 191.93)
(-267.868 58.0606 204.467)
(-167.242 172.114 335.43)
(-156.813 52.9389 463.061)
(-47.6981 163.261 459.602)
(-51.2262 56.1315 333.696)
(-151.075 157.402 470.71)
(-164.808 56.3285 328.126)
(-52.1315 169.98 324.709)
(-272.033 276.633 342.536)
(-390.148 243.778 480.968)
(-389.752 395.408 296.909)
(-238.403 396.157 480.578)
(-268.496 384.66 329.881)
(-379.499 274.397 330.642)
(-270.281 275.719 472.641)
(-251.121 628.934 220.122)
(-277.907 508.636 72.9496)
(-379.836 462.777 197.884)
(-391.043 618.137 26.6654)
(-278.255 508.988 194.355)
(-257.46 616.052 47.5196)
(-391.586 608.703 235.565)
(-178.598 632.956 308.607)
(-56.7281 510.22 343.691)
(-159.652 462.761 472.115)
(-19.9653 616.478 480.392)
(-154.904 512.978 344.349)
(-187.034 608.316 486.77)
(-41.2472 619.779 314.189)
(-156.712 683.959 192.248)
(-58.434 723.307 71.3766)
(-174.511 826.351 29.5272)
(-24.1978 826.711 217.158)
(-153.911 701.326 71.9634)
(-178.145 813.79 225.339)
(-56.9714 700.94 188.544)
(-272.542 159.378 -355.255)
(-281.136 64.5598 -491.42)
(-382.738 49.4586 -336.795)
(-380.119 171.804 -459.732)
(-280.894 183.81 -499.065)
(-385.346 159.85 -326.727)
(-273.278 54.4353 -356.652)
(-154.476 274.37 -355.25)
(-44.7066 382.342 -339.877)
(-58.1702 284.122 -493.336)
(-161.938 386.076 -462.119)
(-177.848 287.112 -498.47)
(-48.5848 273.437 -358.212)
(-156.243 386.991 -328.735)
(-286.961 291.409 -216.319)
(-262.105 392.116 -70.0885)
(-388.659 265.962 -69.9421)
(-358.424 361.931 -197.635)
(-275.892 280.051 -78.4172)
(-396.12 265.657 -212.468)
(-261.802 400.6 -213.027)
(-164.134 170.39 -214.358)
(-45.6216 164.142 -74.9248)
(-50.0709 55.8643 -212.614)
(-161.299 53.8344 -72.748)
(-156.96 162.742 -77.9656)
(-163.432 58.5849 -205.832)
(-50.338 166.833 -208.092)
(-162.611 164.594 -349.974)
(-170.912 61.4974 -476.598)
(-54.0715 173.619 -478.796)
(-48.8862 54.1826 -350.388)
(-168.913 175.772 -479.246)
(-160.507 54.7287 -340.303)
(-49.9085 162.656 -342.586)
(-271.408 179.356 -216.784)
(-377.504 53.3671 -205.109)
(-371.542 161.229 -69.7878)
(-271.507 56.7957 -78.4773)
(-263.906 169.041 -75.8008)
(-377.909 160.978 -200.342)
(-270.764 61.8206 -216.194)
(-263.796 267.759 -351.476)
(-403.736 254.838 -471.204)
(-247.641 409.585 -473.069)
(-377.479 381.506 -304.718)
(-283.88 289.684 -461.716)
(-372.248 264.392 -339.724)
(-260.879 375.718 -340.811)
(-680.075 160.494 -201.318)
(-825.633 28.1894 -227.667)
(-822.827 176.676 -40.693)
(-720.136 60.1029 -84.9714)
(-809.955 181.639 -234.048)
(-699.422 60.4393 -200.156)
(-697.357 155.606 -83.4058)
(-618.232 179.018 -317.127)
(-617.045 28.9818 -461.851)
(-497.26 59.3695 -355.057)
(-470.522 171.763 -458.814)
(-499.978 156.581 -352.24)
(-606.87 196.067 -475.688)
(-607.345 44.0951 -325.468)
(-624.915 254.435 -232.02)
(-612.171 396.073 -38.6401)
(-502.754 281.528 -85.9769)
(-458.349 385.979 -207.86)
(-505.092 283.4 -208.522)
(-610.754 260.658 -61.4904)
(-603.1 396.193 -246.29)
(-573.822 164.677 -210.993)
(-606.439 50.3852 -66.7839)
(-484.004 56.6591 -216.947)
(-478.733 169.413 -77.9734)
(-479.015 171.548 -218.736)
(-589.604 51.1031 -212.387)
(-585.014 164.637 -67.6706)
(-682.064 -165.077 -204.797)
(-823.135 -31.3396 -229.69)
(-825.502 -180.362 -44.9357)
(-723.387 -62.9027 -87.5007)
(-813.066 -187.005 -238.302)
(-698.096 -62.9966 -202.996)
(-699.998 -160.419 -87.1362)
(-626.939 -257.14 -234.815)
(-463.005 -388.558 -212.891)
(-619.892 -399.883 -43.4082)
(-508.295 -284.03 -89.1469)
(-609.681 -400.597 -250.827)
(-507.25 -284.349 -212.115)
(-616.149 -264.152 -64.0155)
(-618.741 -180.876 -320.294)
(-469.259 -169.736 -460.73)
(-615.14 -26.88 -467.856)
(-496.363 -60.6917 -355.874)
(-605.721 -45.9573 -328.199)
(-607.024 -195.082 -479.516)
(-500.51 -158.431 -355.581)
(-575.673 -168.035 -213.478)
(-610.768 -52.5854 -70.3653)
(-482.904 -171.091 -80.9608)
(-483.587 -56.8284 -218.083)
(-589.134 -53.0979 -214.287)
(-480.842 -172.356 -222.151)
(-588.422 -168.142 -71.5231)
(-155.678 -212.734 -602.039)
(-77.9549 -330.347 -580.326)
(-118.047 -335.232 -541.342)
(-42.5186 -259.396 -615.104)
(-181.495 -338.063 -582.506)
(-128.839 -252.19 -601.209)
(-76.7692 -220.484 -599.658)
(-214.203 -153.318 -607.509)
(-335.564 -127.842 -537.991)
(-260.507 -41.5183 -614.773)
(-329.504 -77.6732 -586.186)
(-220.053 -75.8657 -605.902)
(-339.663 -179.699 -588.388)
(-252.186 -130.876 -598.96)
(-92.7353 -87.8552 -643.786)
(-69.0804 -198.627 -657.282)
(-40.8942 -42.0271 -452.486)
(-204.24 -67.9685 -650.164)
(-61.5057 -61.1057 -562.173)
(-61.5226 -58.4537 -563.472)
(-228.614 -222.341 -684.425)
(-126.171 -123.908 -663.983)
(-53.0526 -164.781 -610.753)
(-166.6 -51.9401 -611.569)
(-44.1026 -45.5856 -646.47)
(-113.809 -48.1785 -659.466)
(-158.144 -157.878 -608.819)
(-47.7095 -113.252 -655.394)
(-265.679 -266.132 -353.01)
(-251.041 -401.885 -473.231)
(-383.448 -383.147 -308.349)
(-402.111 -249.954 -473.305)
(-265.973 -374.046 -342.981)
(-374.272 -266.223 -343.012)
(-281.255 -280.909 -464.362)
(-173.177 -272.952 -217.766)
(-52.2173 -376.837 -207.566)
(-162.762 -376.942 -74.3245)
(-55.7698 -278.463 -77.0824)
(-160.794 -379.194 -204.07)
(-53.2872 -270.882 -215.132)
(-169.977 -270.076 -75.5348)
(-286.015 -285.652 -218.119)
(-362.711 -362.417 -201.905)
(-268.339 -394.785 -74.2855)
(-394.548 -268.45 -74.3574)
(-264.655 -397.244 -216.267)
(-397.588 -264.287 -216.371)
(-281.967 -282.162 -80.6466)
(-271.851 -157.775 -356.435)
(-378.666 -166.897 -459.844)
(-281.49 -56.3211 -492.075)
(-382.124 -49.0006 -338.841)
(-272.69 -53.0728 -355.893)
(-385.323 -160.786 -329.509)
(-278.934 -176.192 -500.456)
(-167.487 -166.951 -213.23)
(-53.1599 -168.677 -71.9438)
(-53.5042 -53.1949 -207.211)
(-168.542 -53.2771 -71.8397)
(-165.673 -53.9169 -205.064)
(-54.1951 -165.117 -205.238)
(-163.633 -163.828 -76.9957)
(-162.02 -162.893 -348.451)
(-51.3016 -172.853 -475.2)
(-172.617 -51.4527 -475.908)
(-50.8854 -51.4272 -346.209)
(-161.218 -51.2632 -339.643)
(-167.879 -167.053 -475.978)
(-50.7693 -161.71 -339.987)
(-273.721 -172.866 -218.025)
(-376.644 -162.894 -74.3351)
(-377.671 -51.9577 -207.505)
(-278.214 -55.848 -77.1031)
(-271.688 -53.0225 -215.014)
(-379.912 -160.375 -204.136)
(-269.816 -170.13 -75.7845)
(625.059 183.408 -316.084)
(622.214 33.6758 -465.261)
(501.12 64.3446 -355.081)
(475.462 178.38 -463.658)
(612.326 201.481 -479.066)
(506.716 160.991 -353.485)
(611.06 47.8933 -324.647)
(631.395 262.589 -230.819)
(621.38 404.001 -36.893)
(510.27 288.058 -84.0477)
(467.406 394.116 -207.857)
(617.352 268.134 -58.1999)
(512.502 290.114 -207.659)
(612.365 405.702 -248.221)
(685.279 169.87 -201.308)
(829.352 184.405 -39.5573)
(827.053 36.2286 -227.146)
(726.091 66.3897 -83.8188)
(704.005 164.271 -81.8221)
(702.41 67.7476 -199.949)
(813.685 191.596 -235.627)
(580.042 174.535 -209.7)
(488.786 61.8529 -214.331)
(487.391 174.481 -75.5863)
(613.687 57.3663 -64.5765)
(593.046 172.67 -65.7128)
(486.347 177.294 -218.42)
(594.006 58.6695 -211.44)
(226.891 162.554 -623.326)
(267.939 46.2722 -615.128)
(341.651 127.917 -542.235)
(339.64 86.5696 -599.578)
(353.628 187.024 -602.822)
(257.3 134.544 -598.332)
(231.98 86.6291 -618.812)
(164.694 225.654 -618.372)
(86.6593 341.075 -595.054)
(47.463 266.206 -615.698)
(137.881 342.964 -540.338)
(86.5011 233.023 -613.363)
(137.542 258.165 -598.504)
(190.784 350.731 -598.033)
(102.774 100.399 -658.416)
(77.1043 206.235 -666.28)
(53.1186 52.4586 -458.245)
(212.029 76.5579 -660.528)
(72.3634 69.9443 -574.96)
(72.5183 71.5289 -574.551)
(236.989 232.181 -695.838)
(136.259 135.269 -676.126)
(172.091 60.1596 -609.568)
(60.1094 170.176 -609.122)
(54.8029 54.5727 -649.614)
(58.3947 123.742 -664.153)
(164.227 164.599 -612.56)
(123.798 58.6157 -666.907)
(276.386 164.273 -354.004)
(288.634 63.1184 -490.963)
(386.674 54.7146 -338.634)
(386.412 178.52 -459.715)
(390.967 165.025 -326.359)
(286.675 183.095 -499.039)
(277.498 60.8272 -355.182)
(290.663 290.865 -214.978)
(273.733 397.118 -67.5683)
(397.277 273.678 -67.4997)
(368.327 368.738 -197.624)
(403.102 270.718 -210.701)
(285.598 285.457 -78.0191)
(270.221 403.33 -210.771)
(164.149 276.818 -353.683)
(55.138 386.84 -338.407)
(63.0858 288.887 -491.088)
(174.849 385.724 -459.384)
(60.8728 277.884 -355.266)
(183.017 285.913 -498.177)
(165.693 391.384 -326.331)
(174.338 174.372 -213.424)
(61.8986 172.984 -68.2385)
(59.8624 59.8512 -207.485)
(173.152 61.6898 -68.3625)
(62.9429 170.964 -202.531)
(170.88 63.0086 -202.648)
(170.588 170.367 -75.3095)
(165.427 165.603 -349.135)
(177.716 59.9667 -474.199)
(59.6318 178.728 -473.863)
(57.7884 57.7931 -345.905)
(56.4678 166.862 -337.46)
(174.906 174.679 -478.107)
(166.787 56.2799 -337.389)
(280.271 177.362 -213.001)
(383.223 60.1251 -204.797)
(381.282 168.362 -68.6216)
(282.457 61.6523 -75.3814)
(386.391 166.578 -199.242)
(277.511 59.0337 -213.873)
(275.611 174.13 -70.4194)
(271.665 271.839 -351.59)
(408.585 257.505 -471.622)
(389.289 389.404 -302.689)
(255.931 408.308 -472.12)
(379.471 270.584 -338.598)
(287.943 287.91 -463.438)
(270.857 379.655 -338.71)
(161.976 -209.106 -606.118)
(124.257 -333.762 -536.506)
(82.9408 -329.269 -582.951)
(52.112 -260.446 -613.034)
(186.024 -335.433 -585.386)
(83.4914 -219.88 -601.775)
(141.942 -252.238 -596.753)
(219.853 -148.555 -617.09)
(340.183 -126.717 -536.137)
(265.239 -43.3121 -614.337)
(335.128 -71.8293 -598.136)
(225.414 -73.1246 -617.533)
(343.027 -172.357 -597.497)
(256.139 -138.822 -594.218)
(96.702 -82.8541 -653.859)
(72.7923 -194.916 -668.784)
(51.1273 -39.8088 -459.452)
(208.732 -60.6912 -666.298)
(67.7816 -55.4413 -569.282)
(68.4876 -55.3381 -576.227)
(233.028 -217.999 -696.879)
(132.57 -120.291 -669.394)
(56.5248 -162.88 -610.907)
(168.149 -48.5076 -614.406)
(52.1419 -43.8582 -652.329)
(55.3719 -110.666 -656.476)
(120.8 -44.6887 -668.507)
(161.582 -155.06 -611.936)
(159.682 -273.495 -354.992)
(171.311 -377.819 -459.015)
(49.4843 -383.937 -336.711)
(64.0588 -278.885 -491.266)
(160.18 -386.371 -326.793)
(54.8715 -274.222 -356.721)
(182.858 -278.751 -497.685)
(291.345 -286.771 -216.268)
(361.85 -358.324 -197.531)
(266.079 -388.736 -69.8159)
(392.045 -262.073 -70.1598)
(265.497 -395.975 -212.363)
(400.63 -261.686 -213.051)
(280.008 -275.964 -78.4436)
(179.233 -271.033 -216.667)
(53.2802 -377.212 -205.218)
(161.324 -371.687 -69.7511)
(56.7567 -271.6 -78.5029)
(160.837 -377.598 -200.405)
(61.6376 -270.499 -216.331)
(168.991 -264.05 -75.6967)
(274.103 -155.018 -355.149)
(387.009 -160.507 -461.475)
(284.352 -57.9799 -493.155)
(382.598 -45.2126 -339.799)
(273.736 -48.9895 -358.122)
(288.281 -176.572 -497.689)
(386.86 -156.674 -328.639)
(170.472 -163.903 -214.451)
(53.8376 -161.365 -72.7105)
(55.7658 -50.0793 -212.679)
(163.991 -45.7483 -74.8983)
(58.5242 -163.304 -205.926)
(166.891 -50.2545 -208.105)
(162.727 -157.091 -77.8765)
(164.463 -163.235 -350.332)
(61.5277 -170.483 -475.61)
(173.626 -53.8324 -478.867)
(54.6264 -49.1295 -350.36)
(55.1029 -161.031 -340.474)
(163.031 -50.4262 -342.456)
(176.669 -168.018 -479.108)
(277.314 -175.012 -216.412)
(374.209 -157.4 -70.4033)
(379.655 -46.9571 -208.028)
(273.234 -51.0151 -78.4277)
(273.706 -56.5191 -216.841)
(383.315 -156.205 -201.567)
(268 -164.526 -74.8307)
(627.934 -250.337 -232.874)
(461.748 -382.276 -208.109)
(615.572 -391.364 -39.0074)
(504.702 -276.108 -86.0969)
(606.203 -391.263 -246.898)
(508.865 -279.373 -208.969)
(611.839 -257.307 -61.7878)
(621.802 -177.014 -318.201)
(475.328 -162.579 -458.918)
(618.783 -21.313 -466.2)
(496.767 -57.0866 -357.901)
(606.073 -43.213 -328.722)
(609.691 -188.158 -475.485)
(502.039 -154.415 -353.721)
(681.955 -155.245 -202.248)
(822.642 -173.31 -42.1265)
(824.351 -22.0574 -229.565)
(717.873 -55.3875 -86.2843)
(698.521 -54.7913 -202.892)
(810.109 -176.188 -235.351)
(697.065 -152.369 -83.8886)
(576.732 -160.877 -212.144)
(480.104 -164.734 -77.9278)
(485.354 -51.9755 -218.073)
(605.273 -46.3068 -68.6165)
(590.15 -45.7838 -214.431)
(483.333 -167.37 -219.315)
(585.546 -161.837 -68.5285)
(-676.271 160.906 194.411)
(-819.228 176.779 30.8781)
(-820.167 27.5709 219.006)
(-717.065 60.477 73.4186)
(-805.901 181.89 226.637)
(-693.802 156.998 72.683)
(-694.208 59.5822 191.58)
(-626.207 181.11 310.717)
(-611.594 23.4086 484.875)
(-505.228 59.6173 347.576)
(-456.603 164.71 474.76)
(-507.078 159.365 346.402)
(-602.196 190.8 489.599)
(-613.962 43.4989 318.735)
(-623.045 255.703 220.645)
(-611.283 397.115 26.8725)
(-502.246 283.818 72.9592)
(-457.016 385.986 198.607)
(-504.063 283.531 195.324)
(-609.107 261.902 49.2694)
(-602.894 397.231 236.029)
(-569.077 164.729 201.868)
(-605.138 51.0257 55.8011)
(-479.148 55.3675 204.931)
(-478.491 170.769 65.0872)
(-474.886 171.101 207.044)
(-583.195 165.83 56.6847)
(-583.692 50.1534 202.226)
(-247.811 183.245 763.916)
(-286.259 62.763 622.694)
(-394.943 25.756 752.396)
(-390.15 169.88 568.349)
(-284.678 164.162 618.431)
(-396.521 195.324 745.123)
(-256.372 44.7292 754.875)
(-177.931 254.404 763.135)
(-21.3925 400.187 748.394)
(-58.4288 291.726 618.354)
(-164.807 396.429 567.223)
(-158.625 291.646 618.255)
(-41.4461 261.736 751.012)
(-190.919 403.264 744.321)
(-162.107 167.955 836.679)
(-24.5479 185.689 1002.04)
(-59.2617 65.5145 874.028)
(-180.461 30.3997 1003.36)
(-158.492 65.4938 851.792)
(-60.0704 164.577 849.565)
(-186.708 191.944 995.021)
(-153.476 159.385 717.286)
(-171.563 59.2988 592.587)
(-54.5875 176.987 589.738)
(-46.2191 51.0167 737.21)
(-171.331 177.423 598.562)
(-160.304 50.6692 720.29)
(-44.1051 164.294 718.187)
(-628.044 -258.206 217.319)
(-615.684 -397.321 21.7795)
(-462.834 -387.378 193.647)
(-506.285 -283.058 69.1619)
(-608.5 -399.752 232.069)
(-613.631 -261.954 45.7699)
(-508.479 -284.889 191.401)
(-632.336 -186.008 306.659)
(-615.308 -28.7491 481.051)
(-460.469 -168.308 470.657)
(-510.956 -62.1255 344.362)
(-619.736 -48.1157 313.98)
(-605.831 -194.642 485.675)
(-512.355 -162.212 342.731)
(-575.945 -166.554 197.498)
(-610.324 -52.1592 51.0906)
(-482.929 -169.927 61.3136)
(-485.224 -57.2077 202.217)
(-588.017 -166.096 52.4781)
(-590.224 -52.5922 197.426)
(-482.001 -172.702 203.252)
(-286.288 -286.205 201.555)
(-266.845 -393.138 53.2189)
(-359.615 -359.672 184.883)
(-392.995 -266.906 53.1885)
(-261.939 -397.493 196.188)
(-279.996 -280.154 63.9592)
(-397.608 -262.046 196.196)
(-166.104 -284.886 341.395)
(-53.6625 -397.593 323.564)
(-154.267 -356.245 445.905)
(-53.4748 -265.725 479.743)
(-169.922 -399.269 317.88)
(-168.475 -257.184 479.344)
(-55.1896 -283.688 341.677)
(-276.749 -276.509 340.043)
(-398.152 -398.089 292.814)
(-245.671 -394.796 476.888)
(-395.041 -245.469 476.976)
(-276.599 -384.467 326.763)
(-384.675 -276.472 326.79)
(-275.491 -275.274 470.237)
(-285.021 -165.899 341.371)
(-356.25 -154.068 446.004)
(-397.417 -53.6017 323.626)
(-265.466 -53.3117 479.733)
(-283.486 -55.0466 341.615)
(-399.383 -169.822 318.014)
(-257.143 -168.319 479.363)
(-167.949 -167.724 200.351)
(-53.349 -166.978 58.2183)
(-167.11 -53.4458 58.3152)
(-54.0527 -54.0472 202.233)
(-165.307 -55.6282 193.563)
(-163.639 -163.762 62.3783)
(-55.8101 -165.28 193.467)
(-274.791 -173.881 204.019)
(-377.097 -161.807 53.1095)
(-379.218 -52.7231 192.498)
(-277.519 -54.2413 64.037)
(-272.427 -55.7818 203.031)
(-270.19 -167.943 61.1707)
(-381.604 -159.41 187.369)
(-170.844 -170.698 332.453)
(-50.3639 -160.609 460.978)
(-160.38 -50.3704 461.09)
(-55.666 -55.8003 338.349)
(-169.531 -54.3933 326.722)
(-155.225 -155.297 466.853)
(-54.5738 -169.734 326.613)
(-250.584 -181.331 760.074)
(-394.32 -171.5 564.951)
(-288.647 -60.8302 618.724)
(-398.16 -26.7787 747.82)
(-260.049 -44.0896 749.999)
(-399.173 -195.772 741.877)
(-288.274 -162.681 615.65)
(-163.536 -163.73 833.605)
(-24.6493 -181.105 1000.42)
(-61.4634 -61.293 873.043)
(-181.317 -24.8498 1000.3)
(-160.966 -61.6628 848.323)
(-61.4856 -160.82 848.339)
(-187.303 -187.5 991.546)
(-156.097 -156.246 713.591)
(-56.1011 -173.603 590.067)
(-173.376 -56.0693 590.156)
(-49.3187 -49.4725 737.52)
(-163.087 -46.5224 717.417)
(-174.131 -174.095 594.704)
(-46.3808 -163.252 717.315)
(-176.83 621.64 -318.108)
(-56.9796 496.465 -358.055)
(-162.907 475.044 -459.042)
(-21.3333 618.651 -466.13)
(-188.357 609.675 -475.501)
(-154.064 502.095 -353.788)
(-43.3913 605.642 -328.742)
(-250.204 627.779 -232.72)
(-276.221 504.793 -86.0138)
(-382.258 461.766 -208.094)
(-391.484 615.584 -38.9335)
(-257.419 611.927 -61.7058)
(-279.359 508.754 -208.955)
(-391.113 606.079 -246.705)
(-155.237 681.653 -202.228)
(-55.537 718.216 -86.3339)
(-22.0767 823.87 -229.478)
(-173.34 822.951 -42.0361)
(-152.408 697.292 -83.9057)
(-176.182 809.803 -235.28)
(-54.7301 698.053 -202.927)
(-742.054 536.383 -633.673)
(-529.471 748.784 -635.861)
(-536.667 541.959 -1166.19)
(-728.146 734.445 -1193.17)
(-532.368 539.517 -635.257)
(-526.397 745.65 -1180.71)
(-734.461 740.682 -633.052)
(-755.145 540.316 926.611)
(-541.442 762.925 676.044)
(-537.633 542.693 934.994)
(-753.7 756.459 904.74)
(-542.403 547.291 676.549)
(-535.966 758.989 925.632)
(-757.004 761.122 667.086)
(-538.862 981.313 -374.226)
(-746.157 971 -136.158)
(-758.377 1158.24 -339.57)
(-526.29 1186 -136.044)
(-535.329 1180.81 -352.44)
(-532.452 971.7 -135.877)
(-748.975 971.374 -361.83)
(-539.137 980.308 398.767)
(-750.124 974.229 123.832)
(-744.023 1168.45 392.962)
(-530.6 1189.49 122.134)
(-536.818 976.752 126.235)
(-530.061 1190.87 389.75)
(-752.847 977.289 391.238)
(-99.0082 1179.62 -637.167)
(-312.535 960.289 -637)
(-105.452 976.894 -1184.64)
(-299.141 1164.57 -1207.68)
(-102.525 971.731 -640.161)
(-305.964 1167.55 -629.639)
(-309.872 958.614 -1189.44)
(-98.8723 1181.39 901.849)
(-97.5769 1186.58 656.446)
(-318.842 977.943 667.996)
(-99.1054 973.251 911.274)
(-100.249 979.278 668.08)
(-312.432 1183.73 654.506)
(-315.758 972.797 909.762)
(-519.177 953.18 -633.141)
(-710.658 934.641 -1213.13)
(-712.316 1146.44 -609.531)
(-493.393 1152.02 -1207.72)
(-509.439 1157.26 -622.13)
(-511.93 947.443 -1199.22)
(-723.199 943.165 -627.217)
(-551.832 1173.38 909.198)
(-533.4 976.368 662.719)
(-755.309 962.012 889.636)
(-747.32 1148.4 658.558)
(-528.537 1174.23 653.132)
(-534.052 974.028 899.801)
(-744.747 967.206 652.242)
(-1647.26 578.519 -132.231)
(-1703.39 563.503 682.838)
(-1469.39 986.552 -142.873)
(-1482.96 456.385 -1008.01)
(-1274.18 871.19 -490.334)
(-886.05 1103.96 -1129.25)
(-956.502 1154.78 -133.291)
(-968.497 537.433 -133.811)
(-942.649 519.536 -1191.72)
(-1171.85 732.276 685.158)
(-1652.43 574.952 136.651)
(-1499.53 1011.96 114.57)
(-960.056 1158.7 128.073)
(-1049.55 1288.55 1002.75)
(-1170.69 553.275 910.23)
(-971.099 541.13 126.702)
(-1184.82 531.238 -132.985)
(-1156 760.935 -336.974)
(-966.322 751.79 -134.705)
(-976.867 542.832 -372.32)