/*--------------------------------*- C++ -*----------------------------------*\
  =========                 |
  \\      /  F ield         | OpenFOAM: The Open Source CFD Toolbox
   \\    /   O peration     | Website:  https://openfoam.org
    \\  /    A nd           | Version:  9
     \\/     M anipulation  |
\*---------------------------------------------------------------------------*/
FoamFile
{
    format      ascii;
    class       volScalarField;
    location    "0.00125";
    object      overpressureMax;
}
// * * * * * * * * * * * * * * * * * * * * * * * * * * * * * * * * * * * * * //

dimensions      [1 -1 -2 0 0 0 0];

internalField   nonuniform List<scalar> 
10382
(
0
0
0
0
0
0
0
0
0
0
0
0
0
0
0
0
0
0
0
0
0
0
0
0
0
0
0
0
0
0
0
0
0
0
0
5.77136e-06
0
1.83549e-06
4.41846e-06
1.63508e-06
6.70625e-07
5.48927e-07
2.84803e-05
1.05843e-05
2.66666e-05
1.05794e-05
0.00344275
0.297226
0.00502854
0.00354823
0.00535124
0.0282393
0.0289486
0.0157372
0.000134118
0.00187321
0.000441922
0.000195221
0.000384283
0.000198688
0.00177177
0.0106932
0.00204762
0.00306985
1.73779e-07
1.01308e-06
1.91169e-07
1.71873e-07
1.33092e-07
1.20273e-06
5.18616e-07
2.86059e-05
1.97256e-05
0.00120375
8.00517e-06
1.16815e-06
6.14767e-05
6.35452e-06
2.07953e-05
3.18889e-05
7.21249e-05
0.000141966
1.35676e-05
8.19461e-06
1.30461e-05
3.36193e-07
0
1.53203e-07
8.44011e-09
8.73115e-11
0
0
0
3.34694e-10
5.82077e-11
8.73115e-11
1.22236e-09
1.64437e-09
1.4843e-09
7.71252e-10
2.66693e-06
6.75209e-08
1.57858e-06
1.69298e-06
7.19592e-08
2.39728e-07
2.77796e-08
2.05328e-08
7.27596e-11
4.80213e-10
8.73115e-11
4.22006e-10
2.40107e-09
1.07684e-09
0
0
0
0
0
0
0
0
0
0
0
4.94765e-08
1.56899e-07
1.0503e-06
1.73459e-08
1.3868e-08
1.72149e-08
1.58907e-08
5.5632e-08
1.11249e-07
3.74275e-08
1.22818e-07
3.28873e-09
1.91503e-08
2.05473e-08
1.20199e-07
4.19095e-09
3.18687e-09
3.04135e-09
3.4066e-08
9.66247e-09
2.82162e-08
1.13214e-08
8.42119e-08
2.98314e-09
6.18311e-08
2.91038e-11
2.30246e-06
3.61903e-05
2.45578e-07
2.96114e-06
1.74623e-10
7.71252e-10
2.03727e-09
7.39237e-09
2.32831e-10
8.73115e-11
1.45519e-11
1.5134e-09
9.45874e-10
1.35333e-09
1.13505e-09
1.26602e-09
7.13044e-10
2.61934e-10
4.59841e-09
9.25502e-09
3.33239e-09
1.0361e-08
1.97688e-07
1.54221e-07
1.55705e-07
9.76434e-09
1.19035e-08
5.73345e-09
5.73345e-09
1.50123e-06
2.62109e-07
2.63783e-07
6.8394e-08
1.21378e-07
5.15713e-06
4.59481e-06
3.30328e-09
0
5.52973e-10
4.52565e-09
2.32831e-10
1.01863e-10
1.74623e-10
0
0
4.36557e-11
0
2.18279e-10
3.20142e-10
2.03727e-10
2.61934e-10
2.18279e-10
1.55705e-09
3.04135e-09
9.45874e-10
3.59432e-09
5.42932e-08
8.19273e-09
8.51287e-09
1.5134e-09
5.82077e-11
3.7835e-10
0
4.65661e-10
1.5425e-09
5.08444e-08
1.10595e-09
0
0
1.17731e-06
2.77651e-08
0
1.46974e-09
4.94765e-10
0
0
0
0
0
1.01504e-06
2.46831e-06
1.3791e-05
1.00724e-06
5.451e-07
1.03396e-06
5.75834e-07
7.46506e-06
4.14599e-07
1.34838e-06
1.89553e-07
1.22188e-06
3.78786e-08
4.09636e-08
0
0
0
0
0
0
0
0
0
1.45519e-10
8.80391e-09
0
0
0
0
3.7835e-10
1.16415e-10
9.31323e-10
9.02219e-10
1.47847e-08
1.45228e-08
0
0
0
0
0
0
0
0
0
0
0
0
0
0
0
0
0
0
0
0
0
0
0
0
0
0
0
0
0
0
0
0
0
0
0
0
0
0
0
0
0
0
0
0
0
0
0
0
0
0
0
0
0
0
0
0
0
0
0
0
0
0
0
0
0
0
0
0
0
0
0
0
0
0
0
0
0
0
0
0
0
0
0
0
0
0
0
0
0
0
0
0
0
0
0
0
0
0
0
0
0
0
0
0
0
0
0
0
0
0
0
0
0
0
0
0
0
0
0
0
0
0
0
0
0
0
0
0
5.82077e-11
0
5.82077e-11
4.36557e-11
2.91038e-11
0
5.96629e-10
0
0
0
5.67525e-10
0
0
0
0
0
0
0
0
0
0
0
0
0
0
0
0
0
0
0
0
0
0
0
0
0
0
0
0
0
0
0
0
0
2.03727e-10
0
0
0
0
0
0
0
0
0
0
0
0
0
0
0
0
0
0
0
0
0
0
0
0
0
0
0
0
0
0
0
0
0
0
0
0
0
0
0
0
0
0
0
0
0
0
0
0
0
0
0
0
0
0
0
0
0
0
0
0
0
0
0
0
0
0
0
0
0
0
0
0
0
0
0
0
0
0
0
0
0
0
0
0
0
0
0
0
0
0
0
0
0
0
0
0
0
0
0
0
0
0
0
0
0
0
0
0
0
0
0
0
0
0
0
0
0
0
0
0
0
0
0
0
0
0
0
0
0
0
0
0
0
0
0
0
0
0
0
0
0
0
0
0
0
0
0
0
0
0
0
0
0
0
0
0
0
0
0
0
0
0
0
0
0
0
0
0
0
0
0
0
0
0
0
0
0
0
0
0
0
0
0
0
0
0
0
0
0
0
0
0
0
0
0
0
0
0
0
0
0
0
0
0
0
0
0
0
0
0
0
0
0
0
0
0
0
0
0
0
0
0
0
0
0
0
0
0
0
0
0
0
0
0
0
0
0
0
0
0
0
0
0
0
0
0
0
0
0
0
0
0
0
0
0
0
0
0
0
0
0
0
0
0
0
0
0
0
0
0
0
0
0
0
0
0
0
0
0
0
0
0
0
0
0
0
0
0
0
0
0
0
0
0
0
0
0
0
0
0
0
0
0
0
0
0
0
0
0
0
0
0
0
0
0
0
0
0
0
0
0
0
0
0
0
0
0
0
0
0
0
0
0
0
0
0
0
0
0
0
0
0
0
0
0
0
0
0
0
0
0
0
0
0
0
0
0
0
0
0
0
0
0
0
0
0
0
0
0
0
0
0
0
0
0
0
0
0
0
0
0
0
0
0
0
0
0
0
0
0
0
0
0
0
0
0
0
0
0
0
0
0
0
0
0
0
0
0
0
0
0
0
0
0
0
0
0
0
0
0
0
0
0
0
0
0
0
0
0
0
6.1118e-10
0
0
0
0
0
0
0
0
0
0
0
0
0
0
0
0
0
0
0
0
0
0
0
0
0
0
0
0
0
0
0
0
0
0
0
0
0
0
0
0
0
0
0
0
0
0
0
0
0
0
0
0
0
0
0
0
0
0
0
0
0
0
0
0
0
0
0
0
0
0
0
0
0
0
0
0
0
0
0
0
0
0
0
0
0
0
0
0
0
0
0
0
0
0
0
0
0
0
0
0
0
0
0
0
0
0
0
0
0
0
0
0
0
0
0
0
0
0
0
0
0
0
0
0
0
0
0
0
0
0
0
0
0
0
0
0
0
0
0
0
0
0
0
0
0
0
0
0
0
0
0
0
0
0
0
0
0
0
0
0
0
0
0
0
0
0
0
0
0
0
0
0
0
0
0
0
0
0
0
0
0
0
0
0
0
0
0
0
0
0
0
0
0
0
0
0
0
0
0
0
0
0
0
0
0
0
0
0
0
0
0
0
0
0
0
0
0
0
0
0
0
0
0
0
0
0
0
0
0
0
0
0
0
0
0
0
0
0
0
0
0
0
0
0
0
0
0
0
0
0
0
0
0
0
0
0
0
0
0
0
0
0
0
0
0
0
0
0
0
0
0
0
0
0
0
0
0
0
0
0
0
0
0
0
0
0
0
0
0
0
0
0
0
0
0
0
0
0
0
0
0
0
0
0
0
0
0
0
0
0
0
0
0
0
0
0
0
0
0
0
0
0
0
0
0
0
0
0
0
0
0
0
0
0
0
0
0
0
0
0
0
0
0
0
0
0
0
0
0
0
0
0
0
0
0
0
0
0
0
0
0
0
0
0
0
0
0
0
0
0
0
0
0
0
0
0
0
0
0
0
0
0
0
0
0
0
0
0
0
0
0
0
0
0
0
0
0
0
0
0
0
0
0
0
0
0
0
0
0
0
0
0
0
0
0
0
0
0
0
0
0
0
0
0
0
0
0
0
0
0
0
0
0
0
0
0
0
0
0
0
0
0
0
0
0
0
0
0
0
0
0
0
0
0
0
0
0
0
0
0
0
0
0
0
0
0
0
0
0
0
0
0
0
0
0
0
0
0
0
0
0
0
0
0
0
0
0
0
0
0
0
0
0
0
0
0
0
0
0
0
0
0
0
0
0
0
0
0
0
0
0
0
0
0
0
0
0
0
0
0
0
0
0
0
0
0
0
0
0
0
0
0
0
0
0
0
0
0
0
0
0
0
0
0
0
0
0
0
0
0
0
0
0
0
0
0
0
0
0
0
0
0
0
0
0
0
0
0
0
0
0
0
0
0
0
0
0
0
0
0
0
0
0
0
0
0
0
0
0
0
0
0
0
0
0
0
0
0
0
0
0
0
0
0
0
0
0
0
0
0
0
0
0
0
0
0
0
0
0
0
0
0
0
0
0
0
0
0
0
0
0
0
0
0
0
0
0
0
0
0
0
0
0
0
0
0
0
0
0
0
0
0
0
0
0
0
0
0
0
0
0
0
0
0
0
0
0
0
0
0
0
0
0
0
0
0
0
0
0
0
0
0
0
0
0
0
0
0
0
0
0
0
0
0
0
0
0
0
0
0
0
0
0
0
0
0
0
0
0
0
0
0
0
0
0
0
0
0
0
0
0
0
0
0
0
0
0
0
0
0
0
0
0
0
0
0
0
0
0
0
0
0
0
0
0
0
0
0
0
0
0
0
0
0
0
0
0
0
0
0
0
0
0
0
0
0
0
0
0
0
0
0
0
0
0
0
0
0
0
0
0
0
0
0
0
0
0
0
0
0
0
0
0
0
0
0
0
0
0
0
0
0
0
0
0
0
0
0
0
0
0
0
0
0
0
0
0
0
0
0
0
0
0
0
0
0
0
0
0
0
0
0
0
0
0
0
0
0
0
0
0
0
0
0
0
0
0
0
0
0
0
0
0
0
0
0
0
0
0
0
0
0
0
0
0
0
0
0
0
0
0
0
0
0
0
0
0
0
0
0
0
0
0
0
0
0
0
0
0
0
0
0
0
0
0
0
0
0
0
0
0
0
0
0
0
0
0
0
0
0
0
0
0
0
0
0
0
0
0
0
0
0
0
0
0
0
0
0
0
0
0
0
0
0
0
0
0
0
0
0
0
0
0
0
0
0
0
0
0
0
0
0
0
0
0
0
0
0
0
0
0
0
0
0
0
0
0
0
0
0
0
0
0
0
0
0
0
0
0
0
0
0
0
0
0
0
0
0
0
0
0
0
0
0
0
0
0
0
0
0
0
0
0
0
0
0
0
0
0
0
0
0
0
0
0
0
0
0
0
0
0
0
0
0
0
0
0
0
0
0
0
0
0
0
0
0
0
0
0
0
0
0
0
0
0
0
0
0
0
0
0
0
0
0
0
0
0
0
0
0
0
0
0
0
0
0
0
0
0
0
0
0
0
0
0
0
0
0
0
0
0
0
0
0
0
0
0
0
0
0
0
0
0
0
0
0
0
0
0
0
0
0
0
0
0
0
0
0
0
0
0
0
0
0
0
0
0
0
0
0
0
0
0
0
0
0
0
0
0
0
0
0
0
0
0
0
0
0
0
0
0
0
0
0
0
0
0
0
0
0
0
0
0
0
0
0
0
0
0
0
0
0
0
0
0
0
0
0
0
0
0
0
0
0
0
0
0
0
0
0
0
0
0
0
0
0
0
0
0
0
0
0
0
0
0
0
0
0
0
0
0
0
0
0
0
0
0
0
0
0
0
0
0
0
0
0
0
0
0
0
0
0
0
0
0
0
0
0
0
0
0
0
0
0
0
0
0
0
0
0
0
0
0
0
0
0
0
0
0
0
0
0
0
0
0
0
0
0
0
0
0
0
0
0
0
0
0
0
0
0
0
0
0
0
0
0
0
0
0
0
0
0
0
0
0
0
0
0
0
0
0
0
0
0
0
0
0
0
0
0
0
0
0
0
0
0
0
0
0
0
0
0
0
0
0
0
0
0
0
0
0
0
0
0
0
0
0
0
0
0
0
0
0
0
0
0
0
0
0
0
0
0
0
0
0
0
0
0
0
0
0
0
0
0
0
0
0
0
0
0
0
0
0
0
0
0
0
0
0
0
0
0
0
0
0
0
0
0
0
0
0
0
0
0
0
0
0
0
0
0
0
0
0
0
0
0
0
0
0
0
0
0
0
0
0
0
0
0
0
0
0
0
0
0
0
0
0
0
0
0
0
0
0
0
0
0
0
0
0
0
0
0
0
0
0
0
0
0
0
0
0
0
0
0
0
0
0
0
0
0
0
0
0
0
0
0
0
0
0
0
0
0
0
0
0
0
0
0
0
0
0
0
0
0
0
0
0
0
0
0
0
0
0
0
0
0
0
0
0
0
0
0
0
0
0
0
0
0
0
0
0
0
0
0
0
0
0
0
0
0
0
0
0
0
0
0
0
0
0
0
0
0
0
0
0
0
0
0
0
0
0
0
0
0
0
0
0
0
0
0
0
0
0
0
0
0
0
0
0
0
0
0
0
0
0
0
0
0
0
0
0
0
0
0
0
0
0
0
0
0
0
0
0
0
0
0
0
0
0
0
0
0
0
0
0
0
0
0
0
0
0
0
0
0
0
0
0
0
0
0
0
0
0
0
0
0
0
0
0
0
0
0
0
0
0
0
0
0
0
0
0
0
0
0
0
0
0
0
0
0
0
0
0
0
0
0
0
0
0
0
0
0
0
0
0
0
0
0
0
0
0
0
0
0
0
0
0
0
0
0
0
0
0
0
0
0
0
0
0
0
0
0
0
1.16415e-10
0
0
0
0
0
0
0
0
0
0
0
0
0
0
0
0
0
0
0
1.13505e-09
0
0
4.36557e-11
0
0
0
0
0
0
0
0
0
0
0
0
0
0
1.58616e-09
0
0
0
2.91038e-11
0
5.09317e-10
0
0
0
0
0
0
0
0
0
0
0
0
0
1.74623e-10
1.45519e-11
0
1.30967e-10
0
0
0
0
1.45519e-11
0
4.36557e-11
0
0
0
0
0
0
0
0
0
0
0
0
0
0
0
0
0
0
0
0
0
0
0
0
0
0
0
0
0
0
0
0
0
0
0
0
0
0
0
0
0
0
0
0
0
0
0
0
0
0
0
0
0
0
0
0
0
0
0
0
0
0
0
0
0
0
0
0
0
0
0
0
0
0
0
0
0
0
0
0
0
0
0
0
0
0
0
0
0
0
0
0
0
0
0
0
0
4.07454e-10
4.36557e-11
1.45519e-11
2.61934e-10
0
0
0
0
0
0
0
8.73115e-11
0
0
0
0
0
0
4.51109e-10
1.45519e-10
1.45519e-10
0
0
0
0
0
0
0
0
0
0
0
0
0
0
0
0
0
0
0
0
0
0
0
0
0
5.59629e-05
1.05104e-05
4.99644e-06
0
0
0
0
0
0
0
0
0
0
0
4.26167e-06
1.04774e-08
7.90547e-07
2.38651e-09
1.26602e-08
6.25732e-10
1.46742e-07
1.45519e-11
1.45519e-10
7.88714e-09
4.99858e-08
0
1.30967e-10
1.04628e-08
0
0
1.62981e-09
4.43833e-09
0
0
2.16824e-09
0
0
4.65661e-10
0
0
0
0
0
0
0
0
0
0
0
0
0
0
0
0
0
0
0
0
0
0
0
0
0
0
5.82077e-11
5.82077e-11
1.38243e-09
1.10595e-09
9.45874e-10
1.32422e-09
1.74623e-10
3.95812e-09
2.72121e-09
4.36557e-11
0
1.45519e-11
1.1205e-09
3.7835e-10
4.51109e-10
9.74978e-10
4.36557e-11
3.75439e-09
1.38243e-09
0
0
0
3.63798e-10
8.73115e-11
4.07454e-10
7.27596e-11
1.45519e-11
9.45874e-10
6.98492e-10
0
0
0
2.76486e-10
5.82077e-11
1.01863e-10
2.32831e-10
0
6.69388e-10
5.67525e-10
0
0
0
1.01863e-10
0
1.01863e-10
0
0
2.76486e-10
2.61934e-10
0
0
0
4.36557e-11
0
0
1.45519e-11
0
0
8.81375e-06
1.86395e-07
8.89209e-07
4.12112e-06
6.48439e-06
1.69748e-07
4.38245e-07
1.71285e-06
4.38013e-08
1.28188e-07
7.02435e-07
1.03963e-06
3.49683e-08
7.02712e-08
3.19691e-07
3.42596e-07
7.24642e-07
1.53086e-08
4.30155e-08
4.92306e-07
2.47092e-08
0
0
0
0
1.49885e-09
0
2.03727e-10
0
1.89175e-10
0
2.64845e-09
0
0
0
0
0
0
0
0
0
0
0
0
0
0
0
0
0
0
0
0
0
0
0
5.09317e-10
5.38421e-10
9.60426e-09
1.13359e-08
2.91038e-10
1.30967e-10
2.40107e-09
2.91038e-11
1.45519e-11
9.16771e-10
8.87667e-10
0
0
3.34694e-10
0
0
1.45519e-10
2.76486e-10
0
0
0
1.45519e-10
1.74623e-10
2.18279e-10
1.45519e-11
0
0
0
0
0
0
0
0
0
0
0
0
0
0
0
0
0
4.65661e-10
1.45519e-10
1.16415e-10
4.36557e-10
0
0
3.88536e-09
8.73115e-11
0
0
0
0
0
4.36557e-11
1.62981e-09
1.46974e-09
0
0
0
5.38421e-10
2.32831e-10
5.82077e-10
1.45519e-10
0
0
4.80213e-10
2.98605e-08
1.49521e-06
0
0
0
0
1.01863e-10
6.73754e-09
2.7426e-07
0
0
0
0
0
2.35741e-09
1.17841e-07
0
0
0
0
0
2.18279e-10
1.35187e-08
0
0
0
0
0
0
0
0
0
0
0
0
0
0
0
0
0
0
0
0
0
0
0
0
0
0
0
0
0
0
0
0
0
0
0
0
0
0
0
0
0
0
0
0
0
0
0
0
0
0
0
0
0
0
0
0
0
0
0
0
0
0
0
0
0
0
0
0
0
0
0
0
0
0
0
0
0
0
0
0
0
0
0
0
0
0
0
0
0
0
0
0
0
0
0
0
0
0
0
0
0
0
0
0
0
0
0
0
0
0
0
0
0
0
0
0
0
0
0
0
0
0
0
0
0
0
0
0
0
0
0
0
0
0
0
0
0
0
0
0
0
0
0
0
0
0
0
0
0
0
0
0
0
0
0
0
0
0
0
0
0
0
0
0
0
0
0
0
0
0
0
0
0
0
0
0
0
0
0
0
0
0
0
0
0
5.38421e-10
4.05271e-08
0
0
0
4.36557e-11
6.54836e-10
7.82893e-09
0
0
5.70435e-09
0
0
0
0
0
0
0
0
0
0
0
0
0
0
0
0
0
1.45519e-11
0
0
0
0
0
0
0
0
0
0
0
0
0
0
0
0
0
0
0
0
0
0
0
0
0
0
0
0
0
0
0
0
0
0
0
0
0
0
0
0
0
0
0
0
0
0
0
0
0
0
0
0
0
0
0
0
0
0
0
0
0
0
0
0
0
0
0
0
0
0
0
0
0
0
0
0
0
0
0
0
0
0
0
0
0
0
0
0
0
0
0
0
0
0
0
0
0
0
0
0
0
0
0
0
0
0
0
0
0
0
0
0
0
0
0
0
0
0
0
0
0
0
0
0
0
0
0
0
0
0
0
0
0
0
0
0
0
0
0
0
0
0
0
0
0
0
0
0
0
0
0
0
0
0
0
0
0
0
0
0
0
0
0
0
0
0
0
0
0
0
0
0
0
0
0
0
0
0
0
0
0
0
0
0
0
0
0
0
0
0
0
0
0
0
0
0
0
0
0
0
0
0
0
0
0
0
3.0559e-10
5.82077e-11
0
0
0
0
0
0
0
0
0
0
0
0
0
0
0
0
0
0
0
0
0
0
0
0
0
0
0
0
0
0
0
0
0
0
0
0
0
0
0
0
0
0
0
0
0
0
0
0
0
0
0
0
0
0
0
0
0
0
0
0
0
0
0
0
0
0
0
2.6339e-09
0
5.82077e-11
4.65661e-10
2.40107e-09
0
4.36557e-11
2.44181e-07
1.57161e-09
1.22818e-08
3.39642e-08
2.54193e-07
1.35333e-09
1.25146e-08
0
0
0
0
0
0
0
0
0
1.01863e-10
3.20142e-10
1.03319e-09
0
0
3.7835e-10
1.86265e-08
5.50062e-08
7.85803e-10
3.76895e-09
5.34201e-08
3.28873e-09
2.47383e-09
8.73115e-11
1.89175e-10
9.60426e-10
1.89029e-08
1.95869e-08
1.10595e-09
0
0
0
0
0
0
0
1.45519e-10
0
0
0
8.73115e-11
0
0
1.70257e-09
7.27596e-10
0
1.16415e-10
2.2701e-09
0
6.25732e-10
0
0
0
0
0
0
0
0
0
0
0
0
0
0
0
0
0
0
0
0
0
0
0
0
0
0
0
0
0
0
0
0
0
0
0
0
0
0
0
0
0
0
0
0
0
0
0
0
0
0
0
0
0
0
0
0
0
0
0
0
0
0
0
0
0
0
0
0
0
0
0
0
0
0
0
0
0
0
0
0
0
0
0
0
0
0
0
0
0
0
0
0
0
0
0
0
0
0
0
0
0
0
0
0
0
0
0
0
0
0
0
0
0
0
0
0
0
0
0
0
0
0
0
0
0
0
0
0
0
0
0
0
0
0
0
0
0
0
0
0
0
0
0
0
0
0
0
0
0
0
0
6.72851e-07
0
0
0
0
0
0
0
0
0
0
5.09317e-09
4.36557e-11
5.67525e-10
0
5.09317e-10
0
1.45519e-10
0
1.01863e-10
0
0
0
0
0
0
0
0
0
0
0
0
0
0
0
0
0
0
0
0
0
0
0
0
0
0
0
0
0
0
0
0
0
0
0
0
0
0
0
0
0
0
0
0
1.45519e-11
5.82077e-11
4.36557e-11
0
0
0
0
4.36557e-11
0
5.82077e-11
0
0
0
0
0
0
0
0
0
0
0
0
0
0
0
0
0
0
0
0
0
0
0
0
0
0
0
0
0
0
0
0
0
0
0
0
0
0
0
0
0
0
0
0
0
0
0
0
0
0
0
0
0
0
0
8.81264e-08
1.60071e-09
3.17523e-08
1.94996e-09
4.16039e-08
9.8662e-08
5.45697e-09
0.00104454
1238.87
0.000364126
0.0268793
0.000158897
0.0025845
0.000559682
0.0106492
3.31382e-06
0.000303894
0.188689
1.1384e-07
5.76982e-05
0.0239248
0.000170047
1.07611e-05
5.82338e-05
0.00146481
0.0363596
7.93691e-06
0.000405647
8.59713
210.19
0.00230411
7.039
4.5645e-07
2.97564e-05
0.000190558
0.620711
0.00806109
1.89907e-06
0.00010493
2.56582e-05
0.000751167
1.94414e-07
4.67e-06
70.7888
0.000857795
0.902248
0.0164334
0.415416
2.62978e-05
0.00191883
8.20006e-06
2.26864e-08
3.59767e-07
0.0767807
1.86324e-06
0.000164485
0.000310675
6.14299e-06
2.77084e-06
4.8534e-06
2.49274e-07
7.31088e-08
1.32713e-07
0.000247998
2.81211e-05
0.000120225
0.0194816
0.00165799
0.000933701
0.000126273
0.00456991
0.00227329
0.000245362
0.0027419
0.000436915
0.00338822
7.07567e-06
1.66579e-05
3.95521e-05
0.00127852
0.00104086
8.77613e-05
5.15646e-05
0.00133591
0.000996656
7.43172e-05
0.000340304
1.20256e-05
0.000140017
1.40903e-05
0.000170535
2.74617e-05
0.000194445
0.00383254
0.000584389
0.0049233
9.60309e-05
0.00614017
0.000226576
0.0014065
0.666979
0.00478628
0.0212693
0.0138789
0.0433983
0.0657321
0.137936
16.2957
37.8608
74.6659
0.294144
390.658
1.57577
3.10703
7.92832e-07
9.83287e-07
2.06532e-06
5.05724e-05
6.38448e-06
1.4111e-05
0.000443999
0.00128413
0.00609274
3.5451
0.0260191
0.144953
3.26329e-05
3.05764e-05
3.29199e-06
1.39954e-06
4.20032e-05
2.69379e-05
2.0764e-06
0.000179822
0.00129282
2.1235e-05
4.77717e-05
0.000319352
0.000731576
1.08745e-05
5.17542e-06
2.26224e-07
2.29264e-06
2.63652e-07
3.05817e-06
4.30853e-07
2.95133e-06
5.34704e-05
9.01829e-06
7.34063e-05
1.21862e-06
0.000112399
3.16261e-06
1.96258e-05
0.0186911
0.0134673
0.00282695
0.00047142
0.0288261
0.0100779
0.00154552
0.0615609
9.85979
0.0401948
0.0885491
0.423258
0.970716
0.00696841
0.00387238
7.37223e-05
0.000442077
0.000122975
0.00104064
0.000369967
0.00206462
0.0218659
0.00802839
0.0204219
0.000959963
0.0831069
0.00200839
0.0160825
1.57348e-06
3.55653e-06
7.29473e-07
1.51194e-08
3.27418e-08
3.23489e-08
7.01155e-07
9.47184e-08
1.96116e-07
0.00351635
0.00750521
0.000651466
5.20423e-06
7.84326e-06
2.96718e-05
0.00069713
5.47233e-05
0.000152502
0.000155845
0.000302886
0.000132088
5.84885e-07
4.03234e-08
1.17871e-09
4.36557e-11
2.99333e-08
9.63337e-09
1.89626e-07
1.76078e-09
4.22006e-10
4.88944e-09
2.82045e-07
8.73115e-11
0
5.34346e-08
1.74623e-10
9.72068e-09
0
1.32422e-09
2.32831e-10
9.60426e-10
0.000152471
0.349443
0.00933964
2.46818e-05
0.00606287
0.000317921
1.08692e-05
0.000356519
1.08368e-05
6.71372e-06
4.28903e-07
0.000269317
7.20465e-07
6.07437e-05
2.06215e-07
1.25589e-05
0.00270006
3.50711e-06
7.91921e-06
3.44153e-08
1.187e-06
7.08678e-09
7.81307e-07
3.0967e-05
0.000951917
7.62375e-08
4.34861e-06
3.72151e-07
2.13913e-09
1.19951e-07
7.27596e-10
0.000344532
1.87574e-08
7.64616e-07
2.13868e-06
5.68949e-05
3.46336e-09
1.41648e-07
1.97033e-08
0
9.98891e-06
9.74978e-10
2.02563e-08
1.00132e-07
1.04793e-06
1.30967e-09
5.83532e-09
4.85888e-07
2.8888e-06
2.71563e-06
1.74841e-07
1.85973e-08
1.00248e-07
6.69388e-09
1.84809e-09
8.22183e-09
2.18279e-10
1.01863e-10
3.34694e-10
2.78087e-08
6.86996e-08
5.84405e-08
2.25118e-08
7.27596e-09
1.40717e-08
1.21554e-06
1.03042e-07
6.2093e-07
4.70027e-09
1.20781e-09
2.53203e-09
8.00355e-10
2.76486e-10
5.23869e-10
3.16359e-08
2.73576e-09
1.51485e-08
1.40994e-07
1.41562e-06
9.88148e-07
2.18279e-10
1.16415e-10
2.91038e-10
1.45519e-11
0
4.36557e-11
6.57164e-08
5.26634e-07
4.33167e-07
1.10595e-09
3.63798e-10
2.50293e-09
6.67351e-08
2.16969e-08
1.14655e-07
0
0
0
1.05356e-08
2.37196e-09
1.6691e-08
2.61934e-10
0
8.73115e-11
4.58385e-09
5.82077e-10
2.47383e-09
6.86967e-07
1.34647e-06
1.18789e-06
1.73213e-05
2.61867e-05
2.43773e-05
1.76062e-05
3.89802e-07
1.69632e-07
2.70506e-07
4.3272e-06
5.23216e-06
6.43557e-06
4.04443e-06
1.07376e-05
5.54552e-05
5.58505e-05
0.00119553
0.000269994
0.000234013
0.00112653
2.03875e-05
2.02145e-06
1.16541e-05
0.000357099
4.33352e-05
7.57611e-05
0.000270591
7.72561e-08
2.44472e-08
4.25935e-08
5.31465e-07
1.18697e-06
6.22895e-07
7.43981e-07
1.13505e-08
5.90808e-09
8.39646e-09
1.14698e-07
1.27475e-07
1.57917e-07
1.04774e-07
2.79302e-06
3.4376e-07
1.64803e-06
2.8843e-05
1.62395e-05
4.37839e-05
6.81814e-06
4.35874e-07
4.25352e-08
2.02723e-07
5.83426e-06
7.04124e-07
1.25277e-06
2.71974e-06
2.04505e-06
1.85893e-05
1.4333e-05
7.40561e-05
0.000186802
0.000233792
2.97239e-05
3.24508e-09
2.51748e-09
4.30737e-09
3.56667e-08
5.69853e-08
3.8548e-08
4.61878e-08
9.45874e-10
8.73115e-10
1.23691e-09
1.34169e-08
1.44355e-08
1.61381e-08
1.25874e-08
9.00327e-08
2.91184e-08
1.09241e-07
1.21928e-06
4.97137e-07
1.44498e-06
2.94152e-07
9.08796e-07
7.63086e-06
6.57795e-06
1.06529e-05
9.06897e-05
1.25645e-05
8.12206e-05
1.42609e-08
5.58794e-09
3.07482e-08
3.28189e-07
5.31581e-08
7.02858e-08
1.66649e-07
9.80974e-07
3.14787e-07
1.45214e-06
4.75344e-06
1.23652e-05
1.50716e-05
2.02963e-06
8.73115e-11
8.73115e-11
1.74623e-10
8.14907e-10
2.35741e-09
1.06229e-09
1.5134e-09
3.69619e-09
1.76078e-09
4.97676e-09
5.36238e-08
2.84344e-08
6.49015e-08
1.42318e-08
1.67798e-07
3.50119e-08
2.38768e-07
2.99056e-07
2.80762e-06
5.24233e-07
2.16583e-06
1.71713e-09
4.80213e-10
1.73168e-09
2.06637e-08
5.93718e-09
5.36966e-09
1.67347e-08
3.00206e-08
7.93079e-09
3.02534e-08
1.09067e-07
2.17085e-07
2.98809e-07
4.19241e-08
0.00438361
2.53135e-05
0.000824537
7.8107e-05
0.000902349
9.60914e-06
0.000272571
137.651
0.0304173
0.31168
0.0406459
41.2965
0.00843217
0.124974
0.000172115
1.93567e-06
3.45903e-05
8.67149e-06
4.46351e-05
6.49656e-07
6.54595e-06
2.1095
0.00124325
0.0537349
0.000809322
0.0200947
0.000172148
0.00606115
2.90309e-05
5.2726e-07
2.84392e-06
4.91895e-06
2.1512e-05
2.47834e-07
1.29994e-06
0.00717671
5.61565e-05
0.0013074
0.000205269
0.00136094
1.79393e-05
0.000362944
3.40227e-06
2.32394e-07
1.68906e-06
3.21411e-05
5.64816e-05
4.28422e-05
0.000255855
3.17923e-06
4.93286e-05
7.11383e-06
8.83914e-05
7.58257e-06
2.1818e-05
8.14974e-06
2.15944e-05
5.02041e-09
7.42148e-10
3.7835e-10
1.45519e-11
0
1.16415e-10
0
6.27954e-06
2.61833e-07
3.01661e-08
8.23638e-09
1.58515e-06
2.2701e-09
8.44011e-10
5.91099e-08
1.74623e-10
7.27596e-11
1.19908e-08
3.0559e-10
3.23053e-09
2.99769e-09
2.47383e-10
0
1.60071e-10
0
0
0
1.03319e-09
7.27596e-11
8.58563e-10
0
4.36557e-11
2.91038e-11
0
0
6.57747e-09
6.27479e-08
5.83968e-08
9.81236e-07
1.59373e-07
1.25467e-07
1.07066e-06
1.81608e-08
1.9063e-09
1.5847e-08
2.54411e-07
3.36149e-08
3.71074e-08
2.36512e-07
3.97267e-09
4.80213e-10
3.14321e-09
4.67408e-08
1.52504e-08
5.09463e-08
8.3819e-09
2.18279e-10
1.20781e-09
1.04774e-09
1.25874e-08
2.50293e-09
2.77942e-09
1.14524e-08
4.65661e-10
1.01863e-10
5.67525e-10
6.28643e-09
1.62981e-09
6.56291e-09
1.45519e-09
1.16415e-10
1.45519e-10
1.60071e-09
1.73168e-09
1.12777e-08
2.47383e-09
8.49541e-08
2.90602e-08
4.07454e-10
3.33239e-09
1.30967e-10
6.40284e-10
3.68163e-09
9.85165e-09
5.09317e-10
2.99769e-09
1.30967e-10
2.91038e-11
4.26371e-09
1.30967e-10
5.67525e-10
2.47383e-10
1.49885e-09
0
0
0
1.16415e-10
3.49246e-10
0
0
1.16415e-10
6.54836e-10
5.64614e-09
2.19734e-09
9.40054e-09
3.20142e-10
3.34694e-10
1.45519e-10
1.89175e-10
0
0
1.45519e-10
4.45289e-09
1.89175e-09
1.22236e-09
6.1118e-10
2.47383e-10
4.36557e-11
1.06229e-09
8.33825e-09
9.08185e-08
4.94474e-08
2.6339e-07
5.03496e-09
3.87081e-09
2.6339e-09
7.26432e-08
7.32398e-08
7.86385e-08
2.86091e-08
2.3254e-08
4.05867e-07
1.33581e-06
4.30882e-07
1.29612e-06
0
0
0
0
0
0
0
0
0
0
0
2.49856e-08
2.91038e-11
9.02219e-10
0
0
0
0
0
6.8394e-10
1.34896e-08
4.07454e-10
5.23869e-09
0
0
0
0
3.49246e-10
0
1.74623e-10
0
2.91038e-11
0
0
0
0
0
0
0
0
0
0
0
0
0
0
0
0
0
0
0
0
0
0
0
0
0
1.45519e-11
2.91038e-10
0
0
0
0
0
0
0
0
0
0
0
0
0
0
0
0
0
0
0
0
0
0
0
0
0
0
0
0
0
0
0
0
0
0
0
0
0
0
0
0
0
0
0
0
0
0
0
0
0
0
0
0
0
0
0
0
0
0
0
0
0
0
0
0
0
0
0
0
0
0
0
0
0
0
0
0
0
0
0
0
0
0
0
0
0
0
0
0
0
0
0
0
0
0
0
0
0
0
0
0
0
0
4.36557e-11
0
1.33878e-09
1.03319e-08
1.10158e-08
3.20142e-09
4.40923e-09
1.16415e-10
3.63798e-10
1.01863e-10
3.63798e-10
0
0
0
0.445099
167.091
0.0118662
0.00112922
15.8654
0.0363373
0.215668
0.0153763
0.0719254
36.7549
0.150182
0.112259
0.194967
1.67885
3.23752
2.18569
0.0125208
0.0163934
0.265488
0.00209083
0.0295095
1.10889e+06
2.59598e+06
375026
2270.03
1629.83
1.80857
1.50014e+06
1.88535e+06
1.50343e+06
2.00735e+06
3.61073e+06
3.57669e+06
1.15187e+06
1.74881e+06
2.05247e+06
716190
781797
79924
1.3894e+06
3.52947e+06
44172.9
2.44608e+06
622998
12812.1
883975
98106.9
621842
164.725
366086
1.50337e+06
14.8003
150654
540165
21.2329
152470
57998.5
73.0296
19853.3
6.03004
3.09402e+06
1.73715e+06
2.74875e+06
58957.9
387.296
9337.23
41.5164
0.16629
3.7188
1.36554e+06
1.53166e+06
1.87466e+06
1.88142e+06
1.50169e+06
1.86626e+06
1.39569e+06
1.34811e+06
1.9123e+06
1.39458e+06
1.97682e+06
1.4729e+06
1.88835e+06
1.2973e+06
3.40301e+06
3.53277e+06
3.3257e+06
3.51109e+06
3.33768e+06
3.29324e+06
1.19647e+06
1.19318e+06
2.01254e+06
1.2331e+06
1.28452e+06
1.04076e+06
1.79919e+06
1.23457e+06
1.32011e+06
2.04688e+06
1.98698e+06
1.29551e+06
1.2025e+06
2.01943e+06
986468
500976
327866
519185
723634
1.20588e+06
692831
1.07148e+06
1.80761e+06
828464
1.05119e+06
1.02632e+06
1.67263e+06
849341
3.32753e+06
3.36289e+06
3.20537e+06
593579
568337
1.76299e+06
3.07242e+06
1.65597e+06
2.68275e+06
288817
109095
187913
3546.79
446570
35290.3
71457.4
540152
691190
572319
648320
650461
625779
375363
147301
875.868
1742.07
3706
8936.02
19266.5
38936.7
441343
514784
534456
73060
587288
221000
295513
607815
850632
182970
85.1207
344.849
2006.6
454098
7863.58
45679.1
503.639
232.351
479.032
2.0007
5267.35
22.4134
44.7637
10728.3
400392
10187.8
19005.9
100490
157868
953.827
768.178
1311.19
828.012
3.8993
14925.7
67.2426
44.2136
925.706
1673.27
80.3732
109.126
0.32053
5.51715
1.23305e+06
591082
329340
1.55629e+06
903897
765012
4596.23
73840.6
3.19024e+06
3.11393e+06
1.29955e+06
1.85846e+06
1.84701e+06
1.27896e+06
1.29227e+06
1.93845e+06
1.86241e+06
1.26981e+06
3.0858e+06
3.07479e+06
2.00152e+06
1.66516e+06
1.56021e+06
860270
1.26968e+06
1.25934e+06
1.11043e+06
1.13316e+06
764218
761491
538150
820760
622780
494739
640368
265358
599828
554433
657827
287375
1083.57
10212.9
606511
375450
998998
969238
702276
1.22487e+06
1.25051e+06
923751
822486
756720
803908
622861
586196
794555
856482
634631
1.08095e+06
1.22663e+06
1.0612e+06
1.21898e+06
1.00319e+06
996951
1.22299e+06
1.00485e+06
943125
982101
849221
900587
887922
832163
0.000322769
1.53919e+06
1.32168e+06
678844
524828
3.71668
39678.6
217.476
0.212659
0.128267
0.0239372
915738
1.24751e+06
47.4293
889704
1.36649e+06
0.0337947
129006
2.97246e+06
362.35
875702
0.2754
194385
0.000125426
275.883
1.49166
364558
167.73
0.00439675
0.0203519
9.96666
538976
0.159855
5786.7
13.8403
82619.8
0.0283819
176.76
1.19722e+06
147744
1.77406e+06
550915
1.12298e+06
5845.79
1.5333e+06
1.83633e+06
1.37939e+06
1.87682e+06
3206.66
0.00547059
75.3403
2.73254e+06
3675.03
2.2319e+06
2.83359e+06
2.65132
0.00134072
17.091
0.0972254
0.00871393
988615
561.767
1.11794e+06
93.3107
409643
0.18894
3523.07
5.88204
0.00110119
1.55436e+06
0.0301882
1321.73
0.273114
0.00243799
3968.78
0.0413126
569.599
0.000254663
81.6099
0.0199053
1.49868
0.88229
1.02765e+06
83171.2
867062
2.89945e+06
3.99523e-05
0.00292269
0.000244358
13061.2
14.2923
643.933
0.106592
0.00141371
0.0253223
0.0961198
30.93
1.51193
5.43245
0.910378
3.26198
51.3115
1024.32
53273.4
181.008
3555.88
32809.1
109.413
1697.05
0.00577293
9.07311
0.0537263
0.151704
0.269657
0.947097
1.45075
308.561
1079.03
1648.33
5.21722
10003.5
32.4986
49.4715
820218
461823
770485
100182
383585
666996
868991
1.00646e+06
1.14158e+06
1.40683e+06
1.73471e+06
1.1225e+06
1.32978e+06
1.02279e+06
710390
34233.2
52945.1
157930
218533
446777
476392
991099
1.67343e+06
1.10168e+06
840331
1.09072e+06
1.17389e+06
920790
1.25338e+06
1.82268e+06
1.25083e+06
1.83349e+06
1.19877e+06
1.21497e+06
68.6466
1892.81
40.4212
0.000885129
0.0340771
0.242973
530.097
1.57519
11.3028
2.08714e+06
2.63451e+06
1.9405e+06
25070
153038
528534
2.49481e+06
1.12831e+06
1.66721e+06
2.85007e+06
0.00066892
0.0188563
0.0154665
0.0154838
0.146969
0.0108264
0.00190141
0.347371
160.676
0.507847
1.1699
4.82784
10.8321
0.0376923
0.039115
0.0736812
0.0783887
0.00164438
0.677337
0.00429953
0.0183078
10069.6
5192.45
17901
37.5413
138753
338.649
1173.4
205832
1.01646e+06
332108
453019
646525
714461
35461.5
582.304
2.20827
1.77751
5.06814
20.1305
65.9957
47.5526
15926.6
52222.9
31305.9
135.705
257612
1924.18
1245.75
0.127764
0.321546
0.00763816
0.0150338
0.000124211
0.000544
372522
543793
29409.7
0.602248
1.03222
24.9238
41885.7
36.9132
1039.52
0.00889269
0.022057
0.000517578
0.00131167
0.00988382
0.0134631
0.000401865
2.68553
0.391565
0.954834
0.01428
9.40372
0.129957
0.266338
65.4225
5531.54
23.7487
154.513
232.729
1549.01
6.48078
3.57685e-05
0.000126216
2.50894e-05
2.93203
15.7418
0.628885
969879
4640.98
261.89
746046
1410.36
77.3357
269139
1.42133e+06
1.10815e+06
1.17948e+06
949803
1.25457e+06
767489
1.16014e+06
1.52612e+06
1.65215e+06
1.51245e+06
1.43472e+06
77113.5
76.869
1.32692
90.2917
0.245374
0.108893
0.825576
1.15564e+06
184782
1.01625e+06
438512
1.01657e+06
520.101
587587
16.5754
0.182344
0.0340215
1.7627
0.034151
0.011794
0.199689
596975
865.19
9248.85
999.391
23068.5
54.25
1290.69
0.00342128
0.150972
0.000775779
0.00013108
0.00863036
0.00144708
0.0387841
37841.2
2.44155
0.532628
0.109505
26.9637
0.87501
457.207
3.41616e-05
0.000150142
1.02594e-05
0.00052579
0.00114754
0.000137518
0.000811538
0.00049364
2.93738e-05
1.41278e-05
4.33227e-05
7.24204e-06
1.67909e-06
5.17059e-06
8.01738e-07
0.00493196
0.0031834
0.000524091
0.0108211
0.0473564
0.031309
0.0106498
0.00026066
0.000515383
0.000175455
0.00586338
0.00747206
0.0124233
0.00496191
3.09019e-05
8.22853e-05
1.35041e-05
0.000242606
0.00169313
0.000538246
0.00139126
0.105736
0.0756536
0.00953042
2.45925e+06
1.40483e+06
1.71185e+06
2.04837e+06
1.78205e+06
1.53868e+06
1.6005e+06
1.88096e+06
1.53833e+06
1.866e+06
1.51639e+06
1.7844e+06
1.76751e+06
1.51106e+06
2.13374e+06
2.39492e+06
2.11e+06
2.16722e+06
1.98871e+06
1.96428e+06
2.115e+06
1.23983e+06
1.25142e+06
1.2327e+06
1.02161e+06
1.0029e+06
1.03797e+06
994182
2.21941e+06
2.08366e+06
2.31224e+06
1.98071e+06
1.88381e+06
1.93105e+06
2.052e+06
1.54564e+06
1.82973e+06
1.84876e+06
1.71918e+06
1.50388e+06
1.5068e+06
1.74573e+06
858310
878149
789308
911760
952119
872969
810999
821290
925516
945925
920799
904296
804220
787530
2.11831e+06
1.82329e+06
1.76763e+06
1.9018e+06
1.82998e+06
2.02226e+06
1.93953e+06
1.16416e+06
1.05627e+06
1.54339e+06
1.29282e+06
1.4656e+06
1.2151e+06
1.139e+06
1.66124e+06
1.91549e+06
1.82364e+06
1.79833e+06
1.68697e+06
1.63738e+06
1.88051e+06
1.80618e+06
1.6492e+06
1.68688e+06
1.50019e+06
1.48967e+06
1.56494e+06
1.776e+06
1.27596e+06
1.29997e+06
1.02304e+06
1.02597e+06
1.05999e+06
1.31094e+06
1.04923e+06
983339
1.21943e+06
1.22508e+06
1.23099e+06
1.22082e+06
1.00697e+06
989654
1.01405e+06
998063
277738
1.17583e+06
844782
1.03336e+06
310518
1.47093e+06
1.55525e+06
1.67338e+06
1.46263e+06
1.39323e+06
1.65377e+06
1.5355e+06
851579
845744
770906
859485
819733
892053
759852
757601
741126
843341
890518
876218
782159
766194
1.72132e+06
1.61307e+06
1.56551e+06
1.76441e+06
1.65523e+06
1.6068e+06
1.83514e+06
538495
570259
717924
33844
548980
587184
633449
758126
807094
831288
812377
698866
826195
748358
1.62961e+06
1.83478e+06
1.79535e+06
1.74385e+06
1.70251e+06
1.92755e+06
1.87168e+06
733118
714483
808275
687428
788413
711287
773410
1.2401e+06
1.22196e+06
1.01924e+06
1.2206e+06
1.03506e+06
1.01906e+06
1.00095e+06
858155
784526
898464
842185
879809
769454
743156
1.44197e+06
1.4539e+06
1.37997e+06
1.36141e+06
1.48162e+06
1.6304e+06
1.51206e+06
1.68803e+06
1.44171e+06
1.54094e+06
1.60699e+06
1.4705e+06
1.56048e+06
1.73621e+06
1.60835e+06
1.72039e+06
1.6676e+06
1.5613e+06
1.51497e+06
1.50289e+06
1.45883e+06
1.13862e+06
1.31346e+06
1.37248e+06
1.31459e+06
1.09864e+06
1.35034e+06
1.09184e+06
695678
838514
696004
826519
729367
822929
738014
703516
650215
722573
642963
613913
710683
690975
704048
725972
824595
820791
854821
749750
725527
563644
143759
4769.94
526805
597135
27226.5
2663.65
794555
922762
917689
885314
802579
895221
755343
1.50883e+06
1.52469e+06
1.48851e+06
1.40198e+06
1.369e+06
1.35034e+06
1.38646e+06
1.58441e+06
1.55177e+06
1.46739e+06
1.74147e+06
1.71007e+06
1.64554e+06
1.61629e+06
1.26364e+06
1.21569e+06
1.20635e+06
1.05177e+06
1.0654e+06
1.04346e+06
1.07098e+06
1.56481e+06
1.42569e+06
1.40391e+06
1.33919e+06
1.31227e+06
1.44696e+06
1.40652e+06
679859
699777
791006
672331
734407
757591
654053
703936
885276
720622
840606
723846
866524
723461
681731
705672
734514
661867
759501
693091
738561
603030
627398
591456
681769
657073
696509
675234
1.47696e+06
1.58224e+06
1.54477e+06
1.37576e+06
1.34018e+06
1.43998e+06
1.40012e+06
1.42081e+06
1.33426e+06
1.28956e+06
1.49929e+06
1.45964e+06
1.32455e+06
1.36518e+06
1.43607e+06
1.63158e+06
1.40328e+06
1.35418e+06
1.5068e+06
1.45905e+06
1.56346e+06
668278
607743
688294
597918
581406
676120
656716
1.43542e+06
1.30897e+06
1.41681e+06
1.23248e+06
1.31745e+06
1.30009e+06
1.21859e+06
804669
744144
791513
732894
706272
671697
661588
580917
571541
621405
667408
638163
620025
655724
1.37386e+06
1.29506e+06
1.24888e+06
1.20427e+06
1.36891e+06
1.32433e+06
1.2475e+06
1.34298e+06
1.24815e+06
1.48379e+06
1.37687e+06
1.28189e+06
1.31434e+06
1.36331e+06
1.18572e+06
1.18145e+06
1.01916e+06
1.1328e+06
1.12463e+06
1.00796e+06
1.00953e+06
1.1771e+06
1.29838e+06
1.26774e+06
1.3716e+06
1.14625e+06
1.34721e+06
1.1929e+06
827657
834041
681191
851938
693770
693968
848208
1.27215e+06
1.36458e+06
1.24898e+06
1.18173e+06
1.39449e+06
1.278e+06
1.20209e+06
701160
751872
672623
773982
718723
691317
648809
794537
959491