/*--------------------------------*- C++ -*----------------------------------*\
  =========                 |
  \\      /  F ield         | OpenFOAM: The Open Source CFD Toolbox
   \\    /   O peration     | Website:  https://openfoam.org
    \\  /    A nd           | Version:  9
     \\/     M anipulation  |
\*---------------------------------------------------------------------------*/
FoamFile
{
    format      ascii;
    class       volScalarField;
    location    "0.0032";
    object      alpha.c4;
}
// * * * * * * * * * * * * * * * * * * * * * * * * * * * * * * * * * * * * * //

dimensions      [0 0 0 0 0 0 0];

internalField   nonuniform List<scalar> 
28535
(
0.150358
0.0282651
0.00245815
0.0586623
0.241328
0.127513
0.0579705
0.0259929
0.0869655
0.0461814
0.0135663
0.0418404
0.0223359
0.00389334
0.00182242
0.00761841
0.00347088
0.217711
0.200067
0.179825
0.210302
0.189945
0.153323
0.170041
0.156941
0.0705612
0.128583
0.0765461
0.13749
0.110707
0.0615402
0.161824
0.114788
0.145345
0.120709
0.102058
0.0925385
0.133695
0.000902981
0.00564191
0.00233181
0.000953224
0.000646376
0.00317552
0.0010209
0.180047
0.136674
0.16303
0.127929
0.113698
0.103628
0.14122
0.0828009
0.0571795
0.103956
0.0876886
0.0391576
0.0681731
0.0492709
0.0208213
0.0336852
0.0367483
0.0165623
0.0179892
0.0295202
0.0143557
0.101022
0.0670169
0.118995
0.0937106
0.0450951
0.0773351
0.0531637
0.0273509
0.0109458
0.0133843
0.0193008
0.0238483
0.011602
0.0094467
0.0975438
0.0830321
0.0789462
0.0541678
0.0760928
0.0722064
0.107308
0.0116815
0.00574654
0.00908428
0.00605863
0.00974375
0.00762691
0.00459835
0.0323096
0.0135743
0.0156276
0.0223034
0.0258045
0.0124694
0.0107641
0.0723025
0.0420034
0.0345654
0.032463
0.0577449
0.0545337
0.0418135
0.0045379
0.00413009
0.00427764
0.0032362
0.00329793
0.00313955
0.00234759
0.00581521
0.00442681
0.00720942
0.00607875
0.0028047
0.00490573
0.00356278
0.0174982
0.0164194
0.0206294
0.0100241
0.00673495
0.00854093
0.00806834
0.00691229
0.00484316
0.00818893
0.00644114
0.0029927
0.00543761
0.00370276
0.00378999
0.00216619
0.00264167
0.00214178
0.00265179
0.00183781
0.00144815
0.00307931
0.00171283
0.00234082
0.00178599
0.00234919
0.0016974
0.00124349
0.00323969
0.00170567
0.00237711
0.00182723
0.00239155
0.00169572
0.00122291
0.00513492
0.00340877
0.00232936
0.00226918
0.00430665
0.00412084
0.00288187
1.3081e-13
3.06201e-16
3.21027e-17
2.68109e-18
1.96797e-19
1.14175e-20
5.78822e-22
1.25121e-07
2.74337e-14
8.37456e-16
7.46619e-17
6.08459e-18
3.36761e-19
1.63396e-20
7.00858e-06
7.16421e-09
2.32027e-12
3.73534e-15
1.00228e-16
9.75367e-18
4.42177e-19
0.000219859
1.53911e-05
3.2798e-07
1.58926e-10
7.61155e-15
1.21458e-16
1.07433e-17
0.00503762
0.00054435
4.07601e-05
1.24337e-06
1.46906e-09
1.30165e-14
1.20335e-16
0.0460591
0.00681172
0.000766633
5.85513e-05
1.77844e-06
1.64223e-09
7.67796e-15
0.040205
0.00692489
0.000819037
5.71853e-05
1.28184e-06
2.25401e-10
0.0355751
0.00640962
0.00070394
3.86953e-05
3.78733e-07
5.3977e-16
9.74421e-17
8.7938e-18
8.01368e-19
6.05394e-20
3.74708e-21
1.98955e-22
3.43079e-13
7.38517e-15
1.61022e-16
1.77513e-17
1.52129e-18
9.96844e-20
5.30893e-21
2.38555e-07
6.27792e-10
1.86375e-13
6.67053e-16
3.76176e-17
2.66975e-18
1.2937e-19
8.88611e-05
5.69282e-06
7.60543e-08
1.33905e-11
2.64148e-15
4.50814e-17
3.07065e-18
0.0018281
0.000243356
1.92322e-05
4.41825e-07
1.36076e-10
2.84394e-15
3.99218e-17
0.0119711
0.00250316
0.000363541
2.93746e-05
6.81542e-07
1.55497e-10
2.00296e-15
0.0103214
0.00262547
0.00039366
2.89152e-05
4.7042e-07
1.97707e-11
0.00268346
0.00247678
0.00034114
1.88373e-05
9.85632e-08
8.4478e-17
9.36907e-18
1.16244e-18
1.05616e-19
7.86026e-21
4.82012e-22
2.57318e-23
5.23566e-15
2.34695e-16
2.73188e-17
2.78103e-18
2.10489e-19
1.30223e-20
6.87096e-22
4.42955e-11
6.05571e-13
1.91223e-15
4.1678e-17
4.68422e-18
3.18032e-19
1.6803e-20
3.05982e-06
1.09338e-07
1.80795e-10
1.50357e-14
8.69241e-17
6.23616e-18
3.50394e-19
0.000112336
1.4493e-05
7.87257e-07
4.74151e-09
1.31531e-13
1.33271e-16
5.68197e-18
0.000772188
0.000125216
2.70427e-05
1.62462e-06
1.16287e-08
1.52795e-13
7.53744e-17
0.00066837
0.000225267
3.19199e-05
1.64778e-06
5.89572e-09
2.18719e-14
0.000759207
0.00058298
2.67427e-05
8.60604e-07
3.33962e-10
7.24926e-18
9.43535e-19
1.0922e-19
1.00719e-20
7.64368e-22
4.76077e-23
2.58859e-24
9.94576e-17
2.03582e-17
2.7416e-18
2.65388e-19
2.04754e-20
1.27353e-21
6.82533e-23
2.773e-14
7.99054e-16
3.82912e-17
5.82532e-18
4.9074e-19
3.12978e-20
1.65579e-21
9.51207e-10
3.0769e-11
1.25427e-14
1.20969e-16
9.25218e-18
6.42593e-19
3.46807e-20
4.74661e-06
3.09452e-07
3.32418e-09
4.16992e-13
2.90008e-16
1.04934e-17
5.86266e-19
0.000405048
7.45008e-05
1.1016e-06
1.75525e-08
1.61606e-12
3.05471e-16
7.19129e-18
0.000698182
0.00034961
9.24204e-05
1.55858e-06
1.90499e-08
5.99317e-13
1.13836e-16
0.000978083
0.000139091
8.57335e-05
1.19292e-06
4.96207e-09
2.33294e-14
0.000489662
6.08554e-05
4.54707e-11
4.13085e-15
6.52146e-19
8.36696e-20
9.4269e-21
8.79284e-22
6.7526e-23
4.26381e-24
2.36403e-25
1.40327e-17
1.95763e-18
2.34313e-19
2.26607e-20
1.768e-21
1.11482e-22
6.11687e-24
1.89177e-16
3.71698e-17
4.98023e-18
5.22394e-19
4.2401e-20
2.68772e-21
1.45598e-22
1.08764e-13
1.80228e-15
6.29366e-17
9.14388e-18
8.43103e-19
5.57311e-20
3.01362e-21
8.2754e-10
5.30645e-11
2.92073e-14
2.08882e-16
1.30682e-17
9.19045e-19
5.17398e-20
3.3409e-06
2.04938e-07
2.13321e-09
3.89857e-13
3.25572e-16
1.09056e-17
6.88473e-19
7.51063e-05
6.37434e-05
5.41444e-07
6.15128e-09
4.81744e-13
1.99832e-16
7.0352e-18
0.000493503
0.000112727
7.18367e-05
5.87853e-07
3.04543e-09
5.33858e-14
5.96761e-17
5.41785e-05
2.39927e-11
5.97744e-15
1.53198e-16
5.71114e-20
7.4174e-21
8.16109e-22
7.49349e-23
5.67602e-24
3.57102e-25
1.99216e-26
1.40518e-18
1.80758e-19
2.06242e-20
1.93113e-21
1.47334e-22
9.23445e-24
5.10364e-25
2.93437e-17
4.03097e-18
4.78438e-19
4.59532e-20
3.53787e-21
2.20753e-22
1.2062e-23
3.67761e-16
6.64071e-17
9.44961e-18
9.44856e-19
7.42189e-20
4.62401e-21
2.49731e-22
3.87308e-15
2.00445e-15
1.03439e-16
1.51916e-17
1.29359e-18
8.17704e-20
4.3982e-21
4.80949e-10
1.32728e-11
8.8409e-15
1.80782e-16
1.69163e-17
1.15927e-18
6.34486e-20
2.41926e-06
8.85384e-08
2.2289e-10
2.96929e-14
1.78021e-16
1.28762e-17
7.36383e-19
0.000126475
4.35166e-05
2.945e-06
3.0024e-10
1.28273e-14
9.8049e-17
7.54824e-18
6.14926e-06
1.66585e-06
9.72591e-15
2.31336e-16
5.05752e-17
4.32307e-21
5.67858e-22
6.15604e-23
5.54527e-24
4.13947e-25
2.58954e-26
1.44851e-27
1.08905e-19
1.42547e-20
1.56566e-21
1.42474e-22
1.06566e-23
6.63447e-25
3.67932e-26
2.51375e-18
3.26021e-19
3.67242e-20
3.38881e-21
2.54219e-22
1.57434e-23
8.64736e-25
4.68646e-17
6.36241e-18
7.56876e-19
7.09091e-20
5.34081e-21
3.28972e-22
1.78938e-23
2.55925e-16
9.53937e-17
1.37574e-17
1.27309e-18
9.60593e-20
5.89618e-21
3.18419e-22
3.74272e-15
2.30209e-15
1.35214e-16
1.94581e-17
1.42808e-18
8.75316e-20
4.73122e-21
2.12024e-10
5.7257e-12
4.90735e-15
1.62559e-16
1.73637e-17
1.04327e-18
5.71263e-20
1.37891e-06
3.17414e-08
2.82566e-11
5.21449e-15
1.25012e-16
1.02247e-17
5.60192e-19
8.13062e-07
2.17502e-09
2.35352e-16
6.83939e-17
4.4518e-18
2.68098e-22
3.53497e-23
3.804e-24
3.38991e-25
2.51288e-26
1.5708e-27
8.82716e-29
6.69992e-21
8.84961e-22
9.59348e-23
8.60318e-24
6.38315e-25
3.97423e-26
2.2179e-27
1.54082e-19
2.03315e-20
2.23113e-21
2.02097e-22
1.50295e-23
9.32423e-25
5.1671e-26
3.05669e-18
4.02487e-19
4.52797e-20
4.17114e-21
3.11881e-22
1.93036e-23
1.06315e-24
4.73135e-17
6.45426e-18
7.77459e-19
7.34707e-20
5.55745e-21
3.44506e-22
1.89161e-23
2.28193e-16
7.42037e-17
1.09313e-17
1.06525e-18
8.20803e-20
5.14189e-21
2.83637e-22
1.62126e-15
1.18123e-15
9.26213e-17
1.20979e-17
9.64389e-19
6.20755e-20
3.49171e-21
5.69908e-12
2.95415e-13
1.6371e-15
8.171e-17
8.62257e-18
5.93019e-19
3.48224e-20
6.11537e-11
1.58992e-16
5.68566e-17
4.57757e-18
2.83385e-19
1.37166e-23
1.81442e-24
1.9475e-25
1.7285e-26
1.27994e-27
8.02341e-29
4.53814e-30
3.37796e-22
4.47943e-23
4.83567e-24
4.31449e-25
3.19964e-26
2.00119e-27
1.12621e-28
7.62236e-21
1.01558e-21
1.10728e-22
9.96612e-24
7.41628e-25
4.63292e-26
2.59592e-27
1.4862e-19
1.9939e-20
2.21176e-21
2.02112e-22
1.51485e-23
9.47271e-25
5.2934e-26
2.40354e-18
3.26204e-19
3.73472e-20
3.50381e-21
2.66374e-22
1.67485e-23
9.36635e-25
2.95034e-17
4.18264e-18
5.09886e-19
5.00519e-20
3.91011e-21
2.49402e-22
1.40517e-23
2.69095e-16
4.0731e-17
5.21468e-18
5.64076e-19
4.62726e-20
3.04108e-21
1.74518e-22
6.09317e-16
3.27628e-16
4.35948e-17
4.77787e-18
4.30311e-19
2.98235e-20
1.76462e-21
7.97711e-16
3.35484e-17
3.24582e-18
2.36577e-19
1.44261e-20
6.15946e-25
8.17691e-26
8.78355e-27
7.79682e-28
5.78719e-29
3.64661e-30
2.07861e-31
1.49156e-23
1.9867e-24
2.14503e-25
1.91367e-26
1.42367e-27
8.96317e-29
5.09178e-30
3.30672e-22
4.42817e-23
4.82373e-24
4.34023e-25
3.24438e-26
2.04449e-27
1.15897e-28
6.32989e-21
8.56519e-22
9.47137e-23
8.64315e-24
6.51758e-25
4.1222e-26
2.3364e-27
1.01488e-19
1.39619e-20
1.58083e-21
1.47586e-22
1.13002e-23
7.20699e-25
4.09803e-26
1.31023e-18
1.85213e-19
2.1696e-20
2.09835e-21
1.64797e-22
1.06753e-23
6.12522e-25
1.29858e-17
1.96591e-18
2.37138e-19
2.40918e-20
1.96736e-21
1.308e-22
7.63051e-24
9.9297e-17
1.89243e-17
2.1216e-18
2.20634e-19
1.89193e-20
1.30241e-21
7.77446e-23
1.67153e-17
1.68107e-18
1.4766e-19
1.04563e-20
6.37396e-22
0.0111132
0.0976889
0.0365132
0.0190937
0.00645998
0.0370241
0.0171465
0.0102494
0.0795061
0.0338004
0.0167004
0.00601389
0.0332614
0.0162028
0.0112982
0.121289
0.0417021
0.0221546
0.00647122
0.0490203
0.0198799
0.0880655
0.0670577
0.0662678
0.0609666
0.0603713
0.0447855
0.0487767
0.00386781
0.0182629
0.00933268
0.00142036
0.000596698
0.00275549
0.00138659
0.00830471
0.00912015
0.00363673
0.00888769
0.00137553
0.000582754
0.00170066
0.0883827
0.0726134
0.0661801
0.0755296
0.0689527
0.049864
0.0541527
0.0581104
0.0269908
0.0269216
0.0455651
0.0452891
0.0344449
0.0212785
0.0647795
0.0292948
0.0495774
0.0307262
0.0518475
0.0384261
0.0236406
0.00381229
0.0243364
0.00707695
0.00147205
0.000537495
0.00241022
0.0014353
0.00194897
0.000399401
0.000644084
0.000804682
0.000351686
0.000379586
4.4228e-05
0.000788058
0.000537328
0.00281529
0.000116969
2.36748e-05
0.000577188
0.000236244
0.110826
0.087929
0.0807291
0.093396
0.0858745
0.0598938
0.0647301
0.000458953
0.00172687
0.000768942
0.000150644
3.24581e-05
0.000845404
0.000336055
0.00145567
0.0247393
0.00655706
0.00426876
0.00103106
0.0125551
0.0040695
0.0496052
0.0329764
0.0454999
0.0322963
0.0241702
0.022639
0.0348523
0.0523031
0.0338954
0.0480934
0.0349878
0.0254065
0.0238441
0.037639
0.0832859
0.0370791
0.0615591
0.0398986
0.0657855
0.0467028
0.0291168
0.0165658
0.0138037
0.0137847
0.0069662
0.00695148
0.0112501
0.0057425
0.00129392
0.0228879
0.00576716
0.00399349
0.000926244
0.0176354
0.00362264
0.0481801
0.0314743
0.0443624
0.0318308
0.0232936
0.0218813
0.0342788
0.00900684
0.0148515
0.0155476
0.00740241
0.00769431
0.0123614
0.00621529
0.00135901
0.0275363
0.00697159
0.00414081
0.000960298
0.0210807
0.00429058
0.0562509
0.0374503
0.0518692
0.0361748
0.0268159
0.0252075
0.0388721
0.0260286
0.0215099
0.034915
0.0255222
0.0122899
0.0183828
0.0164144
0.0250464
0.0212436
0.0342686
0.0252257
0.0119887
0.0178499
0.0162664
0.0297422
0.0247309
0.0400948
0.028674
0.0136636
0.0205115
0.0183797
0.0267685
0.0227133
0.0369643
0.0276765
0.0128992
0.0193609
0.0177229
0.0615037
0.0388728
0.056862
0.0404509
0.0283034
0.0266115
0.0433811
0.00098187
0.0291452
0.0066272
0.00308728
0.000676831
0.0148896
0.00400624
0.0678343
0.0429053
0.0627843
0.0419783
0.02949
0.027679
0.045034
0.00130897
0.00081519
0.000322547
0.000689611
0.000341376
6.18148e-05
0.000477398
0.03092
0.0274659
0.0442241
0.0322088
0.0144281
0.0216656
0.020737
0.0116709
0.0188064
0.0202973
0.00912113
0.00978791
0.0152171
0.00746768
0.000670074
0.00709652
0.00252177
0.000417391
0.000108019
0.0010756
0.00041173
0.00447501
0.0021547
0.00214175
0.00370694
0.00369288
0.00303178
0.00171545
0.000602824
0.00356503
0.00224126
0.000404068
9.62203e-05
0.00102065
0.000355821
0.000324408
0.000919428
0.000815757
0.000302188
5.84139e-05
0.000702131
0.000476331
0.00473852
0.00220062
0.00387165
0.00222802
0.00397882
0.00321513
0.00177149
0.0113516
0.0047221
0.00579027
0.00696591
0.00898551
0.00466098
0.00368192
0.0112411
0.00460273
0.00573019
0.00681374
0.00891642
0.00462482
0.00360293
0.0014984
0.00283661
0.00223867
0.00190244
0.00146039
0.00128924
0.00096003
0.0019508
0.00191898
0.00167394
0.00113653
0.0012988
0.00110528
0.000734461
0.000615522
0.00406261
0.0026303
0.000365065
9.24268e-05
0.00109311
0.000411488
0.0129125
0.00523547
0.00645021
0.00765955
0.00994911
0.00507502
0.00397996
0.0245318
0.0174566
0.0170937
0.01064
0.016561
0.0162097
0.0261131
0.0222206
0.0159516
0.0156415
0.00981235
0.0151089
0.0148323
0.0237041
0.0342359
0.0307402
0.0490781
0.033449
0.0149964
0.0225209
0.0215723
0.0119089
0.0048136
0.00602558
0.00726732
0.00961553
0.00493332
0.0038146
0.0231881
0.0166924
0.0162985
0.0158161
0.0154336
0.0102338
0.0106964
0.0215486
0.015324
0.0145558
0.0149707
0.0142417
0.00936982
0.00976322
0.000279102
0.00122161
0.000470781
0.000145396
4.15719e-05
0.000593165
0.000271152
0.0199411
0.0090676
0.00951992
0.00932189
0.0137987
0.0135014
0.0132807
0.0180757
0.00838479
0.00874542
0.00861892
0.0126009
0.0123946
0.0121116
0.0188181
0.00910546
0.00890498
0.0131705
0.0128566
0.00872489
0.00623517
0.0258924
0.0177732
0.0168611
0.018066
0.0171323
0.0108267
0.0113152
0.00541653
0.01434
0.0107362
0.00805553
0.0111903
0.00561513
0.00414276
0.00110909
0.0016798
0.00258513
0.00197548
0.00129409
0.00123696
0.000798498
0.011875
0.00849397
0.0121919
0.00834219
0.0119543
0.00803537
0.00577968
0.00148512
0.000985393
0.000673764
0.000910783
0.00131783
0.0018592
0.00128789
0.00453983
0.00313524
0.00581356
0.002506
0.00481022
0.00369489
0.00191116
0.0140441
0.00968469
0.0140483
0.00982108
0.0142652
0.00921718
0.00654752
0.00141663
0.000922137
0.00062002
0.00124782
0.00086508
0.00182888
0.00126538
0.0272918
0.0184293
0.018322
0.0107938
0.017445
0.0173616
0.0290452
0.00248504
0.00172866
0.00305601
0.00245761
0.00106604
0.00194795
0.00136359
0.00133285
0.00301706
0.00241697
0.0024363
0.00103975
0.00190407
0.00134973
0.000952153
0.00137101
0.00179701
0.00138246
0.000962033
0.00105626
0.000701283
0.000418909
0.00828972
0.00240493
0.000230578
5.3659e-05
0.00104279
0.000339664
0.0161008
0.00595285
0.00786442
0.00834218
0.0116389
0.00581043
0.00424344
0.000886795
0.00133001
0.00075776
0.000560236
0.000863274
0.00047821
0.000303483
5.63628e-05
8.6543e-05
0.000312318
0.000208051
2.11622e-05
1.29151e-05
1.49751e-06
0.00552503
0.00542487
0.0074609
0.0038965
0.00210303
0.00294049
0.00290064
0.00179287
0.00267298
0.00330127
0.00261544
0.00109203
0.00205751
0.00140821
0.00252086
0.00175509
0.00314631
0.00256476
0.00108336
0.0020011
0.00139733
0.00513105
0.00506303
0.00687708
0.00363839
0.00199951
0.00276914
0.00273322
0.00100497
0.0010418
0.00159314
0.000629389
0.00101601
0.000649615
0.000392863
0.00374082
0.00531531
0.0052135
0.0028543
0.00280872
0.0037559
0.00205819
0.00126396
0.00137229
0.0017864
0.00137772
0.000937165
0.0010584
0.000682494
0.000654616
0.00105129
0.00137176
0.000890049
0.00137951
0.00179863
0.00122936
0.000622912
0.00131213
0.000865668
0.0005624
0.00085883
0.000617633
0.000389149
0.000362611
0.000225013
0.000147339
3.4915e-05
2.48962e-05
3.80093e-06
2.32254e-05
0.0222089
0.00916205
0.00994042
0.00992114
0.0144932
0.0144395
0.0147819
0.00675262
0.00499237
0.00490353
0.00269273
0.0026403
0.00349737
0.00191969
0.000117486
0.00423907
0.000825452
0.000560211
8.99684e-05
0.00275148
0.000603608
0.010925
0.00669016
0.0104567
0.0065917
0.00422121
0.00411356
0.00682468
0.000118509
0.00400056
0.000748506
0.000599369
9.10813e-05
0.00261808
0.000551582
0.0100243
0.00619758
0.00960861
0.00603408
0.00389157
0.00379783
0.00623351
0.000199535
3.24234e-05
0.000221581
1.90582e-05
3.35205e-06
0.000124027
2.41932e-05
1.48314e-05
0.000470783
0.000181583
6.45861e-06
7.95383e-07
6.23669e-05
1.15913e-05
5.88692e-05
1.07804e-05
0.000325342
4.58441e-06
4.63102e-07
4.13834e-05
6.92274e-06
0.00124885
0.000575064
0.000927419
0.000534581
0.000836745
0.000600611
0.000368245
0.00125738
0.000507138
0.000830078
0.000425723
0.000701472
0.000455445
0.000269739
0.000989996
0.000373679
0.000656692
0.000354332
0.000630359
0.000409579
0.000224698
0.0104662
0.00633417
0.0100132
0.00646508
0.00408905
0.00398399
0.00669457
0.00186248
0.00354133
0.00273901
0.00281203
0.00109226
0.00210681
0.00145276
0.00136981
0.000537505
0.000882668
0.000495893
0.00082884
0.000524538
0.000308693
0.01124
0.00673557
0.0107603
0.00672573
0.00421095
0.0041051
0.00696353
0.0273401
0.0181604
0.0171792
0.0172371
0.016322
0.0100674
0.0105361
0.00785797
0.00560654
0.00566863
0.0029696
0.0029867
0.00389547
0.00209703
8.66215e-05
0.00338465
0.000530415
0.000519906
6.62402e-05
0.00223669
0.000390154
0.000995292
0.000691802
0.000505261
0.000512035
0.000700132
0.000487081
0.000340557
0.000200683
0.000133092
0.000180515
1.47229e-05
2.66971e-05
2.1549e-05
2.46908e-06
0.00115349
0.000733282
0.000485012
0.000545082
0.000842912
0.00051339
0.000328628
0.00582229
0.00635797
0.0089121
0.00573789
0.00274314
0.0036485
0.00421369
0.00552288
0.00611739
0.00854403
0.00563088
0.00266731
0.00353693
0.00414218
0.00945963
0.00559082
0.00908613
0.00583046
0.0035793
0.00349991
0.00601748
0.00541194
0.00590881
0.00822556
0.00527779
0.00255637
0.003381
0.00389911
0.00490023
0.00561567
0.00780175
0.00510667
0.00236481
0.00312409
0.00377545
0.0222869
0.00979157
0.0142756
0.00936816
0.0136082
0.00854856
0.00602374
8.14528e-05
0.00390129
0.000723252
0.000387751
6.08914e-05
0.0024948
0.000527238
0.0113469
0.00657146
0.0108489
0.00667192
0.00404344
0.00393975
0.00691175
0.000173759
8.39551e-05
2.15162e-05
9.36074e-06
1.54796e-06
7.90487e-05
1.67557e-05
0.00106535
0.000662023
0.000432576
0.000445844
0.000751942
0.00048056
0.000283506
0.00569419
0.00570505
0.00823451
0.00421115
0.0020236
0.00296214
0.00298768
0.00586062
0.00652321
0.00916774
0.0058489
0.00272911
0.00364048
0.00427502
0.000880776
0.00139624
0.00186926
0.00141812
0.000872503
0.00105829
0.000630693
5.65216e-05
0.000617135
0.000224864
3.69956e-05
7.11991e-06
0.000235466
3.85719e-05
0.000220304
0.000220418
5.00875e-05
0.000191321
3.76193e-05
6.17386e-06
3.0789e-05
0.00202994
0.00111715
0.000820281
0.000821092
0.00154175
0.00153044
0.00108892
0.00192598
0.00107516
0.000803056
0.000791606
0.00147686
0.00145714
0.00105446
0.00569902
0.00653506
0.00922343
0.00579557
0.00260127
0.00348744
0.00422573
0.00106401
0.000516229
0.000706149
0.000614425
0.000810317
0.000514543
0.000374004
0.00104277
0.00078632
0.000495712
0.000597521
0.000800648
0.000507508
0.00036256
0.001973
0.000817896
0.000811666
0.00151404
0.00149547
0.00110336
0.000596109
0.00106336
0.000512798
0.000695044
0.000616455
0.000812936
0.000505261
0.000370199
0.000462011
0.000648157
0.000938315
0.000482069
0.000669176
0.00046229
0.000316781
0.273421
0.122404
0.0478514
0.0211967
0.00740666
0.00233344
0.00387225
0.155062
0.377677
0.251321
0.0987273
0.0537957
0.147585
0.084575
0.345024
0.335804
0.30385
0.341685
0.310305
0.269352
0.299177
0.0257151
0.0745389
0.0403797
0.00960271
0.00432098
0.0189718
0.00868114
0.256051
0.122824
0.220046
0.128458
0.226973
0.192822
0.106131
0.00305671
0.0159397
0.00694093
0.00460633
0.00153016
0.0122324
0.00470106
0.0507609
0.21182
0.113516
0.0437794
0.0219876
0.0702945
0.0404357
0.293101
0.224251
0.263065
0.229891
0.216721
0.193092
0.257036
0.306844
0.246755
0.277522
0.237392
0.231433
0.207703
0.264393
0.177912
0.112365
0.201052
0.168966
0.0806465
0.147794
0.0923008
0.157365
0.101917
0.186923
0.162129
0.072438
0.13514
0.0876274
0.0401493
0.0604011
0.0638472
0.0318356
0.0337634
0.0515357
0.0266822
0.0253864
0.0144887
0.0197217
0.0151811
0.0208386
0.016104
0.0114932
0.199533
0.191635
0.184725
0.138817
0.171513
0.164786
0.223283
0.188434
0.179285
0.175448
0.159607
0.156074
0.129684
0.145377
0.0143226
0.0120049
0.0124601
0.0106613
0.0109681
0.00927323
0.00804528
0.0115682
0.0334266
0.00986133
0.00341673
0.00174137
0.0053447
0.00336315
0.0491961
0.0206369
0.0254861
0.0344407
0.0419338
0.0213659
0.017351
0.0550773
0.0242833
0.0285409
0.0385451
0.0443833
0.0225537
0.01924
0.140557
0.0985446
0.0658862
0.0623819
0.121403
0.11579
0.0758448
0.131497
0.0599512
0.0585191
0.111681
0.109076
0.0913886
0.0496022
0.00120091
0.0109703
0.00405222
0.00214597
0.000360146
0.00459459
0.0015207
0.0132383
0.00892453
0.00975189
0.00903868
0.0099516
0.00720392
0.00646168
0.149562
0.109928
0.133584
0.106077
0.0940539
0.0849469
0.118305
0.014106
0.0120937
0.0171221
0.0132119
0.00722194
0.0109108
0.00910685
0.0122972
0.0111715
0.0154869
0.0126291
0.00684276
0.0100511
0.0088171
0.142635
0.101762
0.127228
0.103332
0.0892231
0.0804611
0.115323
0.0313539
0.02966
0.0361109
0.0181042
0.012672
0.0155011
0.0147552
0.0169112
0.0285279
0.02789
0.0142746
0.0140139
0.0237854
0.0118688
0.00106595
0.00330944
0.00179253
0.00105888
0.000338767
0.00237331
0.00164846
0.00910923
0.00596931
0.00797468
0.00528629
0.00697557
0.00594682
0.00441115
0.0788749
0.0512867
0.0943586
0.0758704
0.0353561
0.0620309
0.042021
0.0728258
0.0487249
0.0896797
0.0738392
0.0334684
0.0586528
0.0409061
0.00965031
0.00617334
0.00828653
0.00543021
0.0071158
0.00600213
0.00442861
0.00793013
0.00918355
0.00797429
0.00658155
0.00657771
0.00563279
0.0045963
0.0103805
0.00691784
0.0055386
0.00541935
0.00861111
0.00829686
0.00697311
0.00532587
0.00652859
0.00734818
0.00523724
0.00318186
0.00374746
0.00458167
0.00529518
0.00649919
0.00719608
0.00523727
0.00329059
0.00380666
0.00462106
0.0822731
0.0701782
0.0683207
0.046609
0.0638697
0.0621112
0.0912007
0.0067914
0.00801356
0.00987471
0.00536363
0.00810831
0.00661474
0.0042393
0.0245426
0.0104656
0.012178
0.0174788
0.0203923
0.0101354
0.00868214
0.011721
0.0234138
0.0197147
0.016641
0.0199035
0.00993811
0.00833947
0.0599627
0.0357642
0.0281711
0.0273968
0.0477228
0.0463636
0.0341626
0.0040466
0.00401854
0.00531898
0.0043917
0.00235734
0.00321632
0.00323396
0.00445599
0.00404371
0.00529754
0.00402581
0.00327276
0.00307544
0.00242297
0.00326699
0.00570009
0.00467265
0.00276354
0.00396302
0.00318453
0.00217607
0.00689728
0.00323209
0.00490193
0.00320212
0.0048769
0.00337612
0.00219562
0.00563721
0.00305304
0.00455899
0.00262728
0.00389758
0.00310987
0.00203768
0.0042294
0.00541029
0.00656219
0.00544057
0.00269455
0.00449368
0.0033726
0.00280199
0.00336361
0.00387035
0.00232413
0.00275595
0.00198185
0.00162341
0.00375663
0.00189503
0.00220604
0.00226213
0.00265847
0.00270095
0.00322241
0.0143253
0.0139775
0.0169397
0.0084621
0.00588307
0.00718498
0.00704111
0.00563194
0.00426458
0.00672741
0.00551141
0.00272563
0.00461966
0.00338776
0.00244288
0.0023544
0.00308565
0.00180411
0.00235411
0.00178762
0.00131385
0.00306067
0.00173857
0.00238938
0.00179402
0.00234444
0.00176691
0.00128661
0.00178018
0.00184126
0.0026879
0.00210513
0.000886539
0.0013507
0.00140793
0.00332336
0.00137761
0.00217696
0.00224191
0.000897017
0.0014334
0.0014335
0.00224052
0.00344054
0.00236964
0.00230785
0.000978717
0.0015489
0.00148192
0.00454016
0.00309342
0.00218175
0.0021675
0.00379275
0.00373897
0.00270739
0.00112692
0.00142015
0.00200607
0.00141317
0.000761721
0.000998775
0.00111942
0.00135336
0.0015797
0.00193999
0.00138829
0.000729341
0.000965836
0.00109444
0.00138381
0.00138646
0.00180202
0.00130534
0.000703685
0.000952735
0.000962077
0.00149351
0.000597017
0.000574304
0.000605633
0.000932298
0.000977925
0.000941858
0.000987969
0.000486358
0.000499084
0.000509907
0.000687196
0.0006985
0.000750917
0.000441146
0.000626978
0.000420407
0.000286847
0.000429859
0.000607068
0.000886216
6.03414e-05
0.00165685
0.000362529
6.2097e-05
8.34942e-06
0.000273168
5.66338e-05
0.000343972
0.000189385
4.70505e-05
0.000220374
2.63665e-05
5.3099e-06
3.50816e-05
0.000483091
0.000801919
0.00105354
0.000606379
0.000807866
0.000494927
0.000354563
0.00292838
0.00195951
0.00385053
0.0028825
0.00107382
0.00212163
0.00146834
0.0036938
0.00140665
0.00202896
0.00168609
0.00256227
0.00142704
0.000949879
0.00187808
0.000775936
0.00143275
0.000754946
0.00140051
0.00102888
0.00055484
5.92005e-05
0.00172509
0.000395638
5.38904e-05
7.94492e-06
0.000275258
6.18801e-05
0.00381844
0.00145246
0.00208506
0.00172557
0.00259971
0.00144375
0.000966767
0.00357556
0.00138179
0.00196529
0.00161809
0.00241828
0.00134771
0.000911499
0.000239526
0.000661484
0.000407942
0.000404597
0.000139732
0.00024575
0.000237807
0.0110719
0.00639188
0.010573
0.00607871
0.00369386
0.00359992
0.00629944
0.000575047
0.000353142
0.000191155
0.000361
0.00021539
0.000186775
0.000111012
0.000627201
0.000220647
0.000375671
0.000393397
0.000131986
0.000232149
0.000231447
0.0003393
0.000319681
0.000196555
0.000289184
0.000100401
0.000166891
0.000178684
0.000145275
0.000270183
0.000426603
0.000260059
8.32821e-05
0.000160639
0.000138853
0.0038941
0.00144849
0.00210746
0.00170493
0.00261149
0.00143045
0.000945995
0.00208336
0.000815068
0.00154634
0.000805507
0.0015437
0.00109977
0.00057796
0.00419925
0.00559398
0.00535195
0.00289097
0.00275042
0.00351619
0.0018351
0.00390017
0.00243112
0.0023888
0.00236924
0.00232986
0.00138877
0.00140231
4.33951e-05
0.00140867
0.000252639
5.25665e-05
5.56468e-06
0.000222807
3.59835e-05
0.0055351
0.00631819
0.00896686
0.00526238
0.00234981
0.00317745
0.0037987
0.00339573
0.00124196
0.0018596
0.00149351
0.00233985
0.0013011
0.000836689
0.000796378
0.000642269
0.00105321
0.000588344
0.000791404
0.000458223
0.000332186
0.00413214
0.00252173
0.00247856
0.00249835
0.00245667
0.00143666
0.00144996
3.89389e-05
0.00153166
0.000340397
3.09419e-05
4.43428e-06
0.000220885
4.90316e-05
0.00387087
0.00135114
0.00207048
0.00160894
0.00256979
0.00139842
0.000879739
0.000510748
0.000337542
0.000320579
0.000222279
0.00020938
0.000211355
0.000132685
0.000206183
0.000353495
0.00056224
0.0003287
0.000114134
0.000203948
0.000189195
0.00405798
0.00251217
0.00247867
0.00144088
0.0024681
0.00243475
0.00416527
0.00366467
0.00228558
0.00217719
0.00128407
0.00225013
0.00214576
0.00375097
0.000560605
0.000387883
0.000357412
0.000240657
0.00023696
0.000230755
0.000146542
0.00346674
0.00166129
0.00215688
0.00162444
0.00210644
0.00127227
0.000997398
0.00212331
0.00104358
0.000768833
0.00079085
0.00150566
0.00153184
0.00108754
0.000553093
0.000228955
0.000360652
0.000382225
0.000145212
0.000232723
0.00023921
0.000225057
0.000208443
0.000385317
0.000244871
7.08813e-05
0.000139724
0.0001293
0.00360007
0.00131822
0.00171003
0.00168963
0.00222597
0.00219653
0.00271084
0.00403885
0.00236359
0.00244329
0.00134777
0.00232479
0.00240318
0.00414368
0.000399625
0.000845232
0.000588311
0.000377721
0.000568894
0.000397054
0.000254857
0.00366495
0.00171531
0.00223568
0.00169838
0.0022164
0.00131493
0.0010263
0.000295481
0.000267645
0.000246088
0.000152112
0.000164142
0.000135183
8.15928e-05
0.00020556
0.000192762
0.0001747
0.00011924
0.000107686
9.98685e-05
6.0199e-05
0.00331113
0.00204909
0.00202108
0.00190717
0.00188208
0.00111928
0.00112603
3.26012e-05
0.00250518
0.000467906
0.000149827
2.16024e-05
0.00161404
0.000329999
0.00958745
0.00488662
0.00918475
0.00558194
0.00299483
0.00292859
0.00577458
0.000302475
0.000283899
0.00018691
0.000306526
0.000114637
0.000180299
0.0001952
0.000273654
0.000278564
0.00048367
0.000302072
9.12184e-05
0.000169613
0.000170524
0.00326744
0.00117958
0.00157272
0.00150274
0.00203749
0.00194573
0.00247256
0.000452488
0.000445415
0.00060799
0.000370222
0.000183318
0.000265622
0.000261042
0.00022762
0.000342714
0.000490283
0.000341088
0.000150811
0.000236562
0.000227859
0.000332869
0.000326556
0.000217007
0.000335922
0.000145429
0.000228674
0.000224124
0.000449947
0.000455179
0.000612713
0.000363535
0.000180606
0.000256281
0.00026243
0.00032954
0.00033692
0.000223484
0.00032863
0.000145913
0.000231255
0.000216187
0.000373885
0.000457283
0.000456372
0.000267301
0.000328767
0.00026618
0.000186139
2.55546e-05
0.00053477
0.000173846
1.15997e-05
2.01263e-06
8.57696e-05
2.28224e-05
0.00106189
0.000426928
0.000617263
0.000559725
0.00078492
0.000444386
0.000303331
0.000329091
0.000316622
0.00029967
0.00020562
0.000191798
0.000193366
0.000119529
0.00357966
0.00123384
0.00160006
0.0016589
0.00209603
0.0021681
0.00267824
0.00426098
0.0055434
0.00783565
0.00484219
0.00190902
0.00259041
0.00349545
0.000779138
0.000598488
0.00111328
0.000777743
0.000279318
0.000521339
0.000418741
0.000761028
0.00059075
0.00109034
0.000771034
0.00027766
0.000515082
0.000416563
0.000446309
0.000196032
0.00030536
0.00031774
0.000133236
0.000215912
0.000206746
0.00295678
0.00141659
0.00183432
0.00131764
0.00170838
0.00102989
0.0008084
0.000351421
0.000434771
0.000420395
0.000253572
0.000304911
0.000243429
0.000171785
0.00074738
0.000571215
0.00105571
0.000727767
0.00026584
0.000493865
0.000392542
0.00077293
0.000589899
0.00111285
0.000758438
0.000267205
0.000504697
0.000400758
0.00370224
0.00128568
0.00194863
0.00143068
0.00226525
0.00119841
0.000765605
0.00208356
0.000735453
0.00145646
0.000685944
0.00137362
0.000926895
0.00046624
0.00380067
0.00226086
0.00222359
0.00212819
0.00209348
0.00119605
0.00120597
0.00093404
0.00106836
0.00104519
0.000605892
0.000592565
0.000649909
0.000369366
0.000598127
0.000441747
0.000430835
0.000248065
0.000307804
0.000238118
0.000167099
0.000665657
0.000533135
0.000993257
0.000700491
0.000240441
0.000450202
0.000376407
0.00096228
0.00109561
0.00108102
0.000616341
0.00060504
0.000663204
0.000373006
0.000218706
0.000127674
6.38955e-05
7.22741e-05
0.000126913
6.35715e-05
3.50477e-05
1.61531e-05
1.13462e-05
1.38469e-06
1.0466e-05
6.20926e-07
2.08155e-08
5.31386e-07
0.00109554
0.001085
0.00171008
0.000961342
0.000379958
0.000618785
0.000614538
0.00101145
0.000965135
0.001564
0.000879211
0.000341184
0.000572418
0.000544442
0.000704291
0.000560762
0.00107735
0.000735717
0.000239845
0.000461464
0.000385307
0.00018457
0.000292234
0.000413577
0.000278552
0.000116483
0.000195202
0.000172498
0.00335883
0.0015226
0.00200201
0.00142403
0.00188163
0.00109205
0.000843636
5.04266e-06
0.000451419
5.91777e-05
4.48333e-05
3.5524e-06
0.000338264
4.54657e-05
0.00143422