/*--------------------------------*- C++ -*----------------------------------*\
  =========                 |
  \\      /  F ield         | OpenFOAM: The Open Source CFD Toolbox
   \\    /   O peration     | Website:  https://openfoam.org
    \\  /    A nd           | Version:  9
     \\/     M anipulation  |
\*---------------------------------------------------------------------------*/
FoamFile
{
    format      ascii;
    class       volVectorField;
    location    "5e-05";
    object      rhoU;
}
// * * * * * * * * * * * * * * * * * * * * * * * * * * * * * * * * * * * * * //

dimensions      [1 -2 -1 0 0 0 0];

internalField   nonuniform List<vector> 
3397
(
(0 0 0)
(0 0 -6.66689e-19)
(0 0 -6.66689e-19)
(0 0 -6.66689e-19)
(0 0 0)
(4.69257e-17 0 0)
(-2.34746e-41 0 0)
(0 0 6.61645e-19)
(-3.32774e-39 0 -1.87579e-20)
(-7.58547e-37 0 2.94235e-19)
(0 0 6.61351e-19)
(-4.02652e-34 0 -2.93132e-19)
(-1.64939e-31 0 -4.611e-17)
(0 0 1.29339e-18)
(-2.49114e-29 0 4.61083e-17)
(1.276e-29 0 4.65884e-17)
(0 0 1.09295e-23)
(1.29116e-24 0 1.31634e-21)
(0 2.27374e-15 0)
(0 2.27374e-15 -2.25443e-15)
(0 0 2.37696e-17)
(0 2.27374e-15 -1.32975e-18)
(0 2.27374e-15 -2.22365e-15)
(0 0 -1.74503e-24)
(0 2.27374e-15 -1.32947e-18)
(0 0 -8.03198e-21)
(0 2.27298e-15 -6.21818e-20)
(0 0 2.21476e-15)
(0 0 -2.42618e-20)
(0 0 0)
(0 0 0)
(0 1.8745e-17 -2.23426e-15)
(2.12549e-17 0 -1.88155e-17)
(-2.20808e-15 2.24453e-15 -6.55489e-18)
(0 0 7.89237e-15)
(0 0 -2.4462e-16)
(0 0 7.89237e-15)
(0 0 0)
(0 0 -3.6581e-16)
(0 0 0)
(0 0 0)
(0 0 -7.64178e-15)
(4.76749e-17 0 0)
(4.76749e-17 0 2.15053e-15)
(0 2.27374e-15 0)
(0 0 0)
(0 0 0)
(0 2.27374e-15 8.80718e-17)
(0 2.27374e-15 2.24381e-15)
(0 0 1.40178e-20)
(0 0 0)
(0 0 9.77612e-22)
(0 2.27374e-15 2.16197e-15)
(0 0 3.49865e-21)
(0 0 9.09495e-15)
(0 0 -2.4462e-16)
(0 0 0)
(0 0 0)
(0 0 -3.6581e-16)
(0 0 0)
(0 0 0)
(0 0 -9.09495e-15)
(4.76749e-17 0 -2.19105e-15)
(4.76749e-17 0 2.15053e-15)
(0 2.27374e-15 -2.23785e-15)
(0 0 -2.08302e-20)
(0 0 -3.17725e-32)
(0 2.27374e-15 8.80718e-17)
(0 2.27374e-15 2.24381e-15)
(0 0 1.40178e-20)
(0 0 0)
(0 0 -1.22251e-29)
(0 2.27297e-15 -2.69673e-23)
(0 0 -7.28293e-29)
(0 0 9.09495e-15)
(0 0 -2.4462e-16)
(0 0 0)
(0 0 -4.37495e-18)
(0 0 -3.6581e-16)
(0 0 -6.36964e-20)
(4.76749e-17 0 -2.19105e-15)
(4.76749e-17 0 2.15053e-15)
(0 2.27283e-15 -2.20253e-15)
(0 0 -2.08302e-20)
(0 0 -1.19924e-20)
(0 2.27374e-15 4.30752e-17)
(0 2.27161e-15 0)
(0 0 1.40178e-20)
(0 0 0)
(0 0 -5.36518e-19)
(0 0 4.60905e-17)
(0 0 9.09495e-15)
(0 0 -2.65833e-16)
(0 0 0)
(0 0 -3.56028e-16)
(4.76749e-17 0 -2.19105e-15)
(4.76749e-17 0 1.29615e-18)
(0 0 -2.08302e-20)
(0 0 -5.52286e-19)
(0 2.2719e-15 4.63595e-17)
(0 0 1.40178e-20)
(1.24963e-30 0 4.63595e-17)
(0 0 -4.60716e-17)
(0 0 -2.53165e-17)
(0 0 9.09495e-15)
(1.84795e-23 0 -1.02447e-15)
(0 0 0)
(-6.22903e-27 0 1.04482e-15)
(0 0 0)
(0 0 -9.09495e-15)
(0 0 0)
(0 0 -8.71885e-15)
(0 0 0)
(0 0 0)
(0 0 0)
(0 0 3.76094e-16)
(0 0 2.85535e-16)
(0 0 -9.09495e-15)
(0 0 3.76094e-16)
(0 0 8.90556e-15)
(0 0 -3.65128e-16)
(0 0 -3.76094e-16)
(0 0 9.00244e-15)
(0 0 -9.09495e-15)
(0 0 0)
(0 0 0)
(0 0 0)
(0 0 -9.00244e-15)
(0 0 0)
(0 0 9.09495e-15)
(0 0 0)
(0 0 0)
(0 0 0)
(0 0 3.76094e-16)
(0 0 0)
(0 0 0)
(0 0 -9.09495e-15)
(0 0 3.55816e-16)
(0 0 0)
(0 0 -9.09495e-15)
(0 0 0)
(0 0 8.72832e-15)
(0 0 9.09495e-15)
(0 0 -9.09495e-15)
(0 0 3.23075e-16)
(0 0 0)
(0 0 0)
(0 0 -3.76094e-16)
(0 0 0)
(0 0 9.09495e-15)
(0 0 -7.63043e-15)
(0 0 0)
(0 0 0)
(0 0 0)
(0 0 9.09495e-15)
(0 0 8.63663e-15)
(0 0 0)
(0 0 8.72914e-15)
(0 0 7.64178e-15)
(0 0 9.09495e-15)
(0 0 8.72914e-15)
(0 0 -9.09495e-15)
(0 0 -8.72914e-15)
(0 0 -8.72914e-15)
(0 0 0)
(0 0 0)
(0 0 0)
(0 0 -8.71885e-15)
(0 0 0)
(0 0 0)
(0 0 0)
(0 0 3.76094e-16)
(0 0 2.85535e-16)
(0 0 -9.09495e-15)
(0 0 3.76094e-16)
(0 0 8.90556e-15)
(0 0 -3.65128e-16)
(0 0 -3.76094e-16)
(0 0 9.09495e-15)
(0 0 0)
(0 0 8.71892e-15)
(0 0 0)
(0 0 -7.68133e-15)
(0 0 0)
(0 0 -9.00244e-15)
(0 0 0)
(0 0 -3.76094e-16)
(0 0 0)
(0 0 0)
(0 0 -4.58281e-18)
(0 0 3.76094e-16)
(0 0 0)
(0 0 -9.09495e-15)
(0 0 3.55816e-16)
(0 0 0)
(0 0 -9.09495e-15)
(0 0 0)
(0 0 8.72832e-15)
(0 0 9.09495e-15)
(0 0 -9.09495e-15)
(0 0 3.23075e-16)
(0 0 0)
(0 0 0)
(0 0 -3.76094e-16)
(0 0 0)
(0 0 9.09495e-15)
(0 0 -8.72914e-15)
(0 0 -9.09495e-15)
(0 0 -8.72914e-15)
(0 0 0)
(0 0 7.33388e-15)
(0 0 9.09495e-15)
(0 0 8.45226e-15)
(0 0 8.72914e-15)
(0 0 7.64178e-15)
(0 0 9.00244e-15)
(0 0 0)
(0 0 -9.09495e-15)
(0 0 -8.72914e-15)
(0 0 -8.72914e-15)
(0 0 0)
(0 0 0)
(0 0 0)
(0 0 -8.71885e-15)
(0 0 0)
(0 0 0)
(0 0 0)
(0 0 3.76094e-16)
(0 0 2.85536e-16)
(0 0 -9.09495e-15)
(0 0 3.76094e-16)
(0 0 8.90556e-15)
(0 0 -3.65128e-16)
(0 0 -3.76094e-16)
(0 0 9.09495e-15)
(0 0 0)
(0 0 8.71898e-15)
(0 0 0)
(0 0 -7.68132e-15)
(0 0 0)
(0 0 -9.00244e-15)
(0 0 0)
(0 0 -3.66626e-16)
(0 0 0)
(0 0 0)
(0 0 -4.42133e-18)
(0 0 3.76088e-16)
(0 0 0)
(0 0 -9.09495e-15)
(0 0 3.55919e-16)
(0 0 0)
(0 0 -9.09495e-15)
(0 0 0)
(0 0 8.73202e-15)
(0 0 9.09495e-15)
(0 0 -9.09495e-15)
(0 0 3.22786e-16)
(0 0 6.37827e-20)
(0 0 0)
(0 0 -3.76088e-16)
(0 0 0)
(0 0 9.09495e-15)
(0 0 0)
(0 0 0)
(0 0 0)
(0 0 -8.71885e-15)
(0 0 0)
(0 0 0)
(0 0 0)
(0 0 3.76094e-16)
(0 0 2.63666e-16)
(0 0 -9.09495e-15)
(0 0 3.76094e-16)
(0 0 8.90556e-15)
(0 0 -3.76094e-16)
(0 0 -3.76094e-16)
(0 0 8.71886e-15)
(0 0 0)
(0 0 8.70939e-15)
(0 0 0)
(0 0 -7.67385e-15)
(0 0 0)
(0 0 -8.71886e-15)
(0 0 -9.09495e-15)
(0 0 3.55921e-16)
(0 0 0)
(0 0 -8.73608e-15)
(0 0 0)
(0 0 8.7333e-15)
(0 0 9.09495e-15)
(3.85591e-29 0 -4.50997e-17)
(0 0 1.66315e-26)
(0 2.27253e-15 -4.34926e-17)
(0 0 -6.2013e-19)
(0 4.3248e-15 8.94138e-25)
(-1.59516e-20 3.72768e-17 -1.52471e-22)
(2.78108e-28 -3.28005e-30 4.54744e-15)
(0 0 -4.27056e-15)
(0 0 9.34757e-17)
(-3.63081e-17 0 0)
(-8.77867e-23 0 0)
(9.66936e-19 -9.4417e-25 -5.74695e-17)
(0 0 9.28977e-17)
(0 0 -2.08075e-19)
(0 0 -3.10933e-21)
(0 0 -5.71542e-19)
(0 0 -3.41144e-16)
(0 0 8.38326e-15)
(0 0 -1.90606e-16)
(0 0 -8.36628e-15)
(0 0 6.45175e-16)
(0 0 -1.88152e-17)
(0 0 -3.51593e-16)
(0 0 -7.78152e-15)
(0 0 3.65815e-16)
(0 0 8.71886e-15)
(0 0 -7.73241e-15)
(0 0 3.50943e-16)
(0 0 7.69922e-15)
(0 0 -3.26389e-16)
(3.19065e-21 -5.79456e-19 -1.20057e-18)
(6.75234e-25 -5.89235e-19 -4.61817e-17)
(0 0 -8.89052e-19)
(5.72461e-22 0 0)
(-5.41473e-39 0 2.27374e-15)
(3.50434e-21 0 -6.56756e-19)
(-1.35608e-36 0 -4.70255e-17)
(5.71806e-22 0 2.05856e-20)
(-2.90891e-34 0 4.70047e-17)
(3.50434e-21 0 -6.56532e-19)
(-1.31624e-31 0 -4.70047e-17)
(5.71803e-22 0 2.05856e-20)
(-1.98697e-29 0 -2.17906e-15)
(3.44344e-21 0 -6.45995e-19)
(-2.40254e-27 0 2.17906e-15)
(5.64223e-22 0 2.05856e-20)
(-2.19466e-25 0 4.7653e-17)
(1.40465e-21 0 2.61332e-21)
(1.22698e-22 0 2.45719e-19)
(5.92196e-21 -5.89235e-19 -3.65597e-17)
(3.98786e-21 -5.89235e-19 -2.17635e-15)
(6.04111e-19 0 -4.05427e-17)
(0 0 1.10922e-17)
(0 0 0)
(0 0 0)
(0 0 0)
(0 0 0)
(0 0 0)
(0 0 0)
(0 0 0)
(0 0 0)
(0 0 0)
(0 0 0)
(0 0 0)
(0 0 0)
(0 0 8.40825e-22)
(0 0 0)
(0 0 0)
(0 0 0)
(1.46035e-17 0 1.12484e-15)
(1.59531e-21 0 0)
(0 0 2.2499e-15)
(0 0 0)
(0 0 0)
(0 0 0)
(0 7.03752e-22 0)
(0 0 0)
(0 0 0)
(0 0 0)
(0 0 0)
(0 0 0)
(0 1.29708e-16 -2.38961e-25)
(0 9.36413e-17 1.14971e-20)
(0 0 0)
(0 0 9.04183e-23)
(0 9.28924e-17 0)
(0 0 -8.10583e-23)
(0 0 -4.35943e-15)
(0 0 0)
(0 0 0)
(0 0 -8.13245e-23)
(0 0 0)
(0 0 0)
(0 0 0)
(0 0 4.35943e-15)
(0 0 0)
(0 0 -4.35943e-15)
(0 0 0)
(0 0 4.18166e-15)
(0 0 9.04139e-23)
(0 0 0)
(0 0 -1.49782e-27)
(0 0 0)
(0 0 0)
(0 0 -4.35943e-15)
(0 0 0)
(0 0 0)
(0 0 0)
(0 0 0)
(0 0 -4.54747e-15)
(0 0 0)
(0 0 0)
(0 0 0)
(0 0 3.69093e-15)
(0 0 0)
(0 0 0)
(0 0 0)
(0 0 0)
(0 0 -4.18166e-15)
(0 0 0)
(0 0 0)
(2.17971e-15 2.27374e-15 0)
(0 0 0)
(-9.29823e-17 0 -1.18205e-20)
(2.17971e-15 2.27374e-15 -9.44857e-19)
(0 0 0)
(-9.29755e-17 0 -1.17735e-20)
(2.17971e-15 2.27374e-15 -9.44857e-19)
(0 0 0)
(0 0 -2.56353e-18)
(2.17971e-15 2.27374e-15 -9.44857e-19)
(0 0 0)
(0 -4.45212e-15 -4.33736e-15)
(-5.39079e-28 2.27374e-15 -4.80728e-17)
(0 0 1.02322e-23)
(0 0 0)
(0 0 6.04009e-21)
(0 0 0)
(0 0 0)
(2.27374e-15 0 0)
(2.17971e-15 2.27374e-15 1.1553e-20)
(0 0 3.6581e-16)
(2.27374e-15 0 1.32641e-18)
(2.27374e-15 0 0)
(0 0 3.60599e-16)
(2.27374e-15 0 4.83296e-17)
(0 0 0)
(-9.29822e-17 0 1.32388e-20)
(0 0 0)
(0 0 0)
(2.27374e-15 0 -2.81931e-18)
(2.17971e-15 2.27374e-15 1.1553e-20)
(0 0 3.6581e-16)
(2.27374e-15 0 1.32641e-18)
(2.27374e-15 0 -4.86685e-17)
(0 0 3.60599e-16)
(2.27374e-15 0 4.83296e-17)
(0 0 0)
(0 0 5.18375e-23)
(0 0 0)
(0 0 0)
(2.27374e-15 0 -2.81931e-18)
(2.17971e-15 2.27374e-15 1.1553e-20)
(0 0 3.6581e-16)
(2.27374e-15 0 1.32641e-18)
(2.27374e-15 0 -4.86685e-17)
(0 0 3.60599e-16)
(2.27374e-15 0 4.83296e-17)
(0 0 0)
(0 0 -3.85069e-19)
(0 0 -9.44139e-21)
(0 0 0)
(2.27374e-15 0 -2.81931e-18)
(2.17971e-15 2.27374e-15 1.15207e-20)
(0 0 0)
(2.27374e-15 0 1.32641e-18)
(2.27374e-15 0 -4.86685e-17)
(0 0 0)
(2.27355e-15 0 0)
(0 0 0)
(0 0 0)
(0 0 0)
(0 0 0)
(0 0 0)
(0 0 0)
(0 0 0)
(0 0 0)
(0 0 0)
(0 0 0)
(0 0 0)
(0 0 -9.09495e-15)
(0 0 0)
(0 0 0)
(0 0 0)
(-9.40234e-17 0 -1.17398e-20)
(-1.72143e-20 0 0)
(-9.29899e-17 0 -1.18205e-20)
(0 0 0)
(-9.40234e-17 0 -1.18205e-20)
(-1.02938e-18 0 0)
(0 0 0)
(0 0 -3.66281e-16)
(0 0 0)
(0 0 0)
(0 0 -9.12262e-20)
(0 0 -9.09495e-15)
(0 0 0)
(0 0 0)
(-9.40234e-17 0 -1.16933e-20)
(-1.68955e-20 0 0)
(-9.21692e-17 0 -1.17735e-20)
(0 0 0)
(-9.3189e-17 0 -1.17735e-20)
(-1.00563e-18 0 0)
(0 0 0)
(0 0 -3.66281e-16)
(0 0 0)
(0 0 0)
(0 0 -9.12262e-20)
(0 0 -9.09495e-15)
(0 0 0)
(0 0 0)
(0 0 -2.47549e-18)
(0 0 0)
(0 0 -2.5915e-18)
(0 0 0)
(-1.49116e-22 0 -2.61603e-18)
(0 0 0)
(0 0 0)
(0 0 -3.66281e-16)
(0 0 0)
(0 0 0)
(0 0 -9.12262e-20)
(0 0 -9.09495e-15)
(0 0 0)
(0 -2.27374e-15 -2.17972e-15)
(0 0 -2.04114e-18)
(0 0 0)
(0 0 2.04647e-15)
(0 0 -4.63676e-17)
(1.2796e-18 0 -2.21497e-15)
(0 0 -2.22606e-15)
(0 0 3.08809e-16)
(2.23549e-15 0 0)
(-1.09798e-25 0 0)
(4.47098e-15 0 -2.27374e-15)
(0 0 0)
(0 0 0)
(0 0 0)
(0 0 0)
(0 0 0)
(0 0 0)
(0 0 0)
(0 0 0)
(0 0 0)
(0 0 0)
(0 0 0)
(0 0 0)
(0 0 0)
(0 0 0)
(0 0 0)
(0 0 0)
(0 0 1.88334e-20)
(0 0 5.67384e-21)
(0 0 6.72994e-25)
(0 0 2.5941e-20)
(0 0 0)
(0 0 4.57985e-23)
(0 0 0)
(0 0 0)
(0 0 0)
(0 0 0)
(0 0 0)
(0 0 0)
(0 0 0)
(0 0 0)
(0 0 0)
(0 0 0)
(0 0 0)
(0 0 0)
(0 0 0)
(0 0 0)
(0 0 0)
(0 0 0)
(0 0 0)
(0 0 -9.00244e-15)
(0 0 0)
(0 0 0)
(0 0 8.07738e-15)
(0 0 0)
(0 0 -9.09495e-15)
(0 0 -3.4617e-16)
(0 0 0)
(0 0 9.09495e-15)
(0 0 0)
(0 0 -8.71885e-15)
(0 0 9.09495e-15)
(0 0 3.76094e-16)
(0 0 -9.45931e-18)
(0 0 8.90202e-15)
(0 0 -5.63848e-20)
(0 0 0)
(0 0 0)
(0 0 -5.39531e-18)
(0 0 0)
(0 0 0)
(0 0 0)
(0 0 0)
(0 0 0)
(0 0 0)
(0 0 0)
(0 0 0)
(0 0 0)
(0 0 0)
(0 0 0)
(0 0 0)
(0 0 0)
(0 0 0)
(0 0 0)
(0 0 0)
(-9.29899e-17 0 1.32393e-20)
(-9.40234e-17 0 1.31498e-20)
(0 0 1.21674e-24)
(-9.40234e-17 0 1.32378e-20)
(-1.02915e-18 0 0)
(0 0 8.68365e-23)
(0 0 0)
(0 0 0)
(0 0 0)
(0 0 0)
(0 0 0)
(0 0 0)
(0 0 0)
(0 0 0)
(0 0 0)
(0 0 0)
(0 0 0)
(0 0 0)
(0 0 0)
(0 0 0)
(0 0 0)
(0 0 0)
(0 0 0)
(0 0 -9.09495e-15)
(0 0 0)
(0 0 -2.71377e-16)
(0 0 0)
(0 0 8.07738e-15)
(0 0 -9.09495e-15)
(0 0 -3.4617e-16)
(0 0 0)
(0 0 9.09495e-15)
(0 0 0)
(0 0 -8.71885e-15)
(0 0 9.09495e-15)
(0 0 3.76094e-16)
(0 0 -9.45931e-18)
(0 0 8.90202e-15)
(0 0 -5.63848e-20)
(0 0 0)
(0 0 0)
(0 0 -5.39531e-18)
(0 0 0)
(0 0 0)
(0 0 0)
(0 0 0)
(0 0 0)
(0 0 0)
(0 0 0)
(0 0 0)
(0 0 0)
(0 0 0)
(0 0 0)
(0 0 0)
(0 0 0)
(0 0 0)
(0 0 0)
(0 0 0)
(0 0 4.28192e-21)
(0 0 3.12541e-22)
(0 0 1.49309e-25)
(0 0 4.31598e-21)
(0 0 0)
(0 0 6.22163e-24)
(0 0 0)
(0 0 0)
(0 0 0)
(0 0 0)
(0 0 0)
(0 0 0)
(0 0 0)
(0 0 0)
(0 0 0)
(0 0 0)
(0 0 0)
(0 0 0)
(0 0 0)
(0 0 0)
(0 0 0)
(0 0 0)
(0 0 0)
(0 0 -9.09495e-15)
(0 0 0)
(0 0 -2.71377e-16)
(0 0 0)
(0 0 8.07738e-15)
(0 0 -9.09495e-15)
(0 0 -3.4617e-16)
(0 0 0)
(0 0 9.09495e-15)
(0 0 0)
(0 0 -8.71885e-15)
(0 0 9.09495e-15)
(0 0 3.76094e-16)
(0 0 -9.45931e-18)
(0 0 8.90202e-15)
(0 0 -5.63848e-20)
(0 0 0)
(0 0 0)
(0 0 -5.39531e-18)
(0 0 0)
(0 0 0)
(0 0 0)
(0 0 0)
(0 0 0)
(0 0 0)
(0 0 0)
(0 0 0)
(0 0 0)
(0 0 0)
(0 0 0)
(0 0 0)
(0 0 0)
(0 0 0)
(0 0 0)
(0 0 0)
(0 0 -3.90605e-19)
(-1.63482e-20 0 -3.7843e-19)
(0 0 -1.24633e-22)
(-1.63574e-20 0 -3.86045e-19)
(0 0 0)
(0 0 -7.61283e-21)
(0 0 0)
(0 0 -1.24216e-21)
(0 0 0)
(0 0 0)
(0 0 0)
(0 0 0)
(0 0 0)
(0 0 0)
(0 0 0)
(0 0 0)
(0 0 0)
(0 0 0)
(0 0 0)
(0 0 0)
(0 0 0)
(0 0 0)
(0 0 0)
(0 0 -9.09495e-15)
(0 0 0)
(0 0 -2.71377e-16)
(0 0 0)
(0 0 8.07738e-15)
(0 0 -9.09495e-15)
(0 0 -3.46072e-16)
(0 0 0)
(0 0 9.09495e-15)
(0 0 0)
(0 0 -8.71885e-15)
(0 0 9.09495e-15)
(0 0 3.76094e-16)
(0 0 -9.57656e-18)
(0 0 0)
(0 0 0)
(0 0 0)
(0 0 0)
(0 0 0)
(0 0 -4.30556e-20)
(0 0 0)
(0 0 0)
(0 0 0)
(0 0 0)
(0 0 1.09982e-22)
(0 0 -9.24534e-25)
(0 0 0)
(0 0 0)
(0 0 2.48759e-18)
(0 0 0)
(0 0 2.09232e-20)
(0 0 -1.35338e-22)
(0 0 -1.80573e-20)
(0 0 2.7953e-21)
(0 0 5.23886e-21)
(0 0 2.57717e-19)
(0 0 -1.36328e-25)
(0 0 -9.53205e-29)
(0 0 0)
(0 0 0)
(0 0 -2.5586e-16)
(0 0 0)
(0 0 0)
(0 0 -8.34276e-15)
(0 0 3.38262e-16)
(0 0 6.933e-18)
(0 0 8.37388e-15)
(0 1.01367e-19 1.10141e-15)
(0 0 -1.29897e-18)
(0 0 1.88223e-18)
(0 0 -1.91145e-18)
(0 0 1.89903e-18)
(0 0 -1.27401e-18)
(0 2.53929e-17 0)
(0 2.53299e-17 1.26945e-18)
(-2.27374e-15 0 -5.61033e-19)
(-2.27374e-15 0 6.29253e-19)
(-2.27374e-15 0 -5.58259e-19)
(0 0 6.2182e-19)
(0 0 -9.36821e-17)
(-1.17596e-18 0 -4.30831e-17)
(-2.22672e-15 0 -9.27098e-17)
(-2.22672e-15 0 -9.14356e-17)
(-2.22672e-15 0 -9.08173e-17)
(-3.80977e-19 0 -4.54642e-15)
(0 0 4.2698e-15)
(2.22606e-15 0 2.95945e-18)
(0 0 0)
(0 0 0)
(-2.22672e-15 0 9.04795e-17)
(0 0 1.80574e-16)
(0 0 0)
(0 0 0)
(0 0 3.6581e-16)
(0 0 -5.05423e-18)
(0 0 0)
(-2.22672e-15 0 9.07649e-17)
(0 0 0)
(0 0 0)
(0 0 0)
(0 0 3.6581e-16)
(0 0 0)
(0 0 0)
(0 0 8.96539e-17)
(0 0 0)
(0 0 0)
(0 0 0)
(0 0 3.6581e-16)
(0 0 0)
(0 0 0)
(0 0 2.27248e-18)
(0 0 0)
(0 0 3.6581e-16)
(0 0 0)
(-4.30629e-15 0 -4.52363e-17)
(-1.18383e-18 4.54747e-15 4.23476e-17)
(0 0 0)
(1.28509e-23 0 1.00579e-19)
(0 0 -2.18061e-15)
(0 0 0)
(0 0 0)
(0 0 0)
(0 0 0)
(0 0 0)
(0 0 4.35943e-15)
(0 0 -4.54747e-15)
(0 0 -1.80574e-16)
(0 0 -1.78553e-16)
(0 0 0)
(0 0 4.35943e-15)
(0 0 4.35943e-15)
(0 0 -4.35943e-15)
(0 0 -4.35943e-15)
(0 0 0)
(0 0 0)
(0 0 9.00244e-15)
(0 0 0)
(0 0 0)
(0 0 0)
(0 0 0)
(0 0 9.09495e-15)
(0 0 -3.61418e-16)
(0 0 0)
(0 0 9.09495e-15)
(0 0 0)
(0 0 -9.09495e-15)
(0 0 -9.09495e-15)
(0 0 -1.80774e-16)
(0 0 0)
(0 0 0)
(0 0 0)
(0 0 -4.35943e-15)
(0 0 -1.80764e-16)
(0 0 4.35943e-15)
(0 0 0)
(0 0 -1.70892e-16)
(0 0 1.70892e-16)
(0 0 4.35943e-15)
(0 0 4.35943e-15)
(0 0 -4.35943e-15)
(0 0 -4.35943e-15)
(0 0 0)
(0 0 0)
(0 0 0)
(0 0 0)
(0 0 0)
(0 0 0)
(0 0 0)
(0 0 9.09495e-15)
(0 0 -3.61418e-16)
(0 0 0)
(0 0 9.09495e-15)
(0 0 0)
(0 0 -9.09495e-15)
(0 0 -9.09495e-15)
(0 0 0)
(0 0 -1.76027e-16)
(0 0 -9.8005e-18)
(0 0 0)
(0 0 -4.35943e-15)
(0 0 -1.80764e-16)
(0 0 4.35943e-15)
(0 0 0)
(0 0 -1.70892e-16)
(0 0 1.70892e-16)
(0 0 4.35943e-15)
(0 0 4.35943e-15)
(0 0 -4.35943e-15)
(0 0 -4.35943e-15)
(0 0 0)
(0 0 0)
(0 0 0)
(0 0 0)
(0 0 0)
(0 0 0)
(0 0 0)
(0 0 9.09495e-15)
(0 0 -3.61418e-16)
(0 0 0)
(0 0 9.09495e-15)
(0 0 0)
(0 0 -9.09495e-15)
(0 0 -9.09495e-15)
(0 0 0)
(0 0 -1.76027e-16)
(0 0 -9.79638e-18)
(0 0 5.84138e-17)
(0 0 -4.35943e-15)
(0 0 -1.80625e-16)
(0 0 4.54747e-15)
(0 0 0)
(0 0 0)
(0 0 0)
(0 0 0)
(0 0 0)
(0 0 0)
(0 0 0)
(0 0 9.09495e-15)
(0 0 -3.61421e-16)
(0 0 0)
(0 0 9.09495e-15)
(0 0 -9.56031e-20)
(0 0 -9.09495e-15)
(0 0 -9.09495e-15)
(0 0 0)
(0 0 0)
(0 0 0)
(0 0 0)
(0 0 0)
(0 0 0)
(0 0 0)
(0 0 0)
(0 0 0)
(0 0 0)
(0 0 0)
(0 0 0)
(0 0 0)
(0 0 0)
(0 0 0)
(0 0 0)
(0 0 0)
(0 0 0)
(0 0 0)
(0 0 0)
(0 0 0)
(0 0 0)
(0 0 0)
(0 0 0)
(0 0 0)
(0 0 0)
(0 0 0)
(0 0 0)
(0 0 0)
(0 0 0)
(0 0 0)
(0 0 0)
(0 0 0)
(0 0 0)
(0 0 0)
(0 0 0)
(0 0 0)
(0 0 0)
(0 0 0)
(0 0 0)
(0 0 0)
(0 0 0)
(0 0 0)
(0 0 0)
(0 0 0)
(0 0 0)
(0 0 0)
(0 0 0)
(0 0 0)
(0 0 0)
(0 0 -8.88115e-20)
(0 0 1.82908e-16)
(0 0 0)
(0 0 -4.45406e-18)
(0 0 0)
(0 0 -1.82908e-16)
(0 0 -8.03663e-15)
(0 0 0)
(0 0 -9.09495e-15)
(0 0 -8.47691e-20)
(0 0 7.68041e-15)
(0 0 -9.00204e-18)
(0 0 -1.30827e-21)
(0 0 0)
(0 0 0)
(0 0 -1.97246e-18)
(0 0 1.82908e-16)
(0 0 -1.73894e-16)
(0 0 -6.87704e-18)
(0 0 -1.63058e-19)
(-1.00671e-22 0 -4.48906e-15)
(0 0 0)
(0 0 8.13131e-22)
(0 0 0)
(0 0 0)
(0 0 8.68116e-22)
(0 0 -5.86962e-24)
(4.71742e-20 -1.89873e-16 -1.13653e-15)
(6.07291e-19 0 3.14725e-18)
(-2.31383e-17 0 5.91461e-18)
(-5.49955e-20 0 0)
(0 0 0)
(0 2.2545e-15 0)
(0 0 1.69193e-25)
(0 3.3746e-15 1.13687e-15)
(0 -2.24973e-15 0)
(0 0 5.86746e-24)
(0 3.3746e-15 -3.53823e-22)
(0 -2.24973e-15 -4.41475e-22)
(0 0 -1.21601e-23)
(0 3.3746e-15 -5.91805e-18)
(0 -2.24973e-15 -4.41465e-22)
(0 0 6.22774e-22)
(0 3.3746e-15 2.99684e-18)
(0 -2.24973e-15 0)
(0 0 4.39685e-22)
(0 2.21191e-15 -1.12487e-15)
(0 2.18653e-15 -1.13679e-15)
(0 0 1.12487e-15)
(0 -1.33037e-19 1.10736e-15)
(0 4.00148e-25 1.12487e-15)
(0 2.27374e-15 0)
(0 0 0)
(0 0 0)
(0 0 0)
(0 0 0)
(0 -5.21059e-33 0)
(0 -2.09684e-44 0)
(0 0 0)
(0 0 0)
(0 2.27374e-15 4.5072e-17)
(0 0 0)
(0 0 0)
(0 0 0)
(0 0 0)
(0 1.36314e-26 -2.69905e-19)
(0 0 -4.76749e-17)
(0 0 -8.41534e-20)
(0 0 -4.9125e-33)
(0 2.27374e-15 6.72241e-17)
(0 0 0)
(0 0 0)
(0 0 0)
(0 0 0)
(0 -9.06043e-20 -2.69905e-19)
(0 0 0)
(0 0 -8.41509e-20)
(0 0 1.20697e-20)
(0 2.27374e-15 4.52045e-17)
(0 0 0)
(0 0 0)
(0 -1.91322e-23 -9.14119e-17)
(0 0 0)
(0 8.89699e-16 0)
(0 -3.39922e-26 0)
(0 0 0)
(0 0 0)
(0 0 3.91821e-19)
(4.60806e-17 0 4.99332e-16)
(0 0 6.71737e-22)
(0 0 0)
(0 -6.71595e-16 2.27374e-15)
(0 0 0)
(0 5.29956e-16 0)
(0 -3.3972e-26 0)
(0 0 9.57306e-17)
(-2.29027e-17 0 8.69082e-22)
(0 -4.4806e-16 3.58415e-16)
(0 0 4.66872e-17)
(0 0 1.32242e-19)
(0 -3.80311e-17 0)
(2.27374e-15 4.45212e-15 0)
(0 2.27374e-15 0)
(2.27374e-15 4.47571e-15 3.45072e-21)
(0 2.27374e-15 2.9048e-23)
(0 0 0)
(0 0 0)
(0 2.27374e-15 -4.46058e-17)
(0 0 -2.24857e-18)
(0 0 0)
(0 0 0)
(0 0 0)
(0 0 0)
(0 0 0)
(0 0 0)
(0 0 -1.75569e-16)
(0 0 0)
(0 0 0)
(0 0 0)
(0 0 0)
(0 0 -4.18166e-15)
(0 2.22606e-15 0)
(0 0 0)
(0 0 0)
(0 -4.54747e-15 0)
(0 -2.22606e-15 0)
(0 0 -8.75707e-19)
(0 0 1.8071e-16)
(0 -4.54747e-15 1.07816e-20)
(0 0 9.02466e-17)
(2.27374e-15 4.45212e-15 -4.04485e-23)
(2.27374e-15 4.47571e-15 -3.83798e-23)
(0 0 0)
(0 0 0)
(0 2.27374e-15 -2.22353e-17)
(0 0 0)
(0 0 0)
(0 0 0)
(0 0 0)
(0 0 0)
(0 0 -4.18166e-15)
(0 0 4.54747e-15)
(0 0 3.7977e-19)
(0 0 6.53828e-21)
(0 0 -1.69958e-16)
(0 0 -4.18166e-15)
(0 2.22606e-15 0)
(0 0 0)
(0 0 0)
(0 -4.54747e-15 6.15587e-19)
(0 0 -9.26389e-17)
(0 0 -8.75707e-19)
(0 0 1.8071e-16)
(0 -4.54747e-15 1.07816e-20)
(0 0 9.02466e-17)
(2.27374e-15 4.45212e-15 -2.85217e-23)
(2.27374e-15 4.47571e-15 -1.97693e-20)
(0 0 5.99909e-21)
(0 0 1.88047e-16)
(0 0 -4.35943e-15)
(0 2.27374e-15 -4.53532e-17)
(0 0 0)
(0 0 -4.18166e-15)
(0 0 -1.48731e-19)
(0 0 0)
(0 0 0)
(0 0 0)
(0 0 -4.18166e-15)
(0 0 4.54747e-15)
(0 0 3.80239e-19)
(0 0 6.50524e-21)
(0 0 -1.69959e-16)
(0 0 -4.18166e-15)
(0 2.22606e-15 -4.65234e-17)
(0 0 0)
(0 0 0)
(0 -4.54747e-15 6.15587e-19)
(0 0 -9.26452e-17)
(0 0 -8.75707e-19)
(0 0 1.8071e-16)
(0 -4.54747e-15 1.07816e-20)
(0 0 9.02466e-17)
(2.27374e-15 4.45212e-15 -8.59442e-33)
(0 0 -6.03886e-21)
(2.27171e-15 4.5443e-15 0)
(0 1.00976e-18 2.27374e-15)
(0 0 0)
(0 0 -4.18166e-15)
(0 2.27374e-15 -2.14491e-15)
(-6.16909e-31 0 3.53663e-16)
(0 0 4.54747e-15)
(0 0 0)
(0 0 0)
(0 0 0)
(0 0 0)
(0 0 0)
(0 0 -4.54747e-15)
(0 0 4.54747e-15)
(0 0 1.441e-17)
(0 0 6.52158e-21)
(0 -4.04957e-19 0)
(0 0 -4.18166e-15)
(0 2.27374e-15 -1.65818e-19)
(0 0 0)
(0 0 0)
(0 -4.54747e-15 6.15587e-19)
(0 0 -9.26452e-17)
(0 0 0)
(0 0 0)
(0 -4.54747e-15 6.56254e-19)
(0 -2.23014e-15 8.47707e-17)
(0 0 0)
(0 0 -5.18358e-21)
(0 0 4.54747e-15)
(4.32307e-15 -7.56707e-18 0)
(0 0 0)
(4.54747e-15 -6.70911e-21 4.70082e-17)
(-4.2139e-15 0 0)
(0 0 0)
(0 0 0)
(0 0 0)
(8.73758e-17 0 -2.27374e-15)
(0 0 -2.27212e-15)
(4.21518e-15 0 0)
(-4.47098e-15 0 -2.27374e-15)
(0 0 0)
(0 0 0)
(0 0 1.00628e-20)
(0 0 0)
(0 0 9.74302e-21)
(0 0 0)
(0 0 2.65111e-21)
(0 0 0)
(-4.54747e-15 0 2.22639e-15)
(-4.54747e-15 -1.85113e-21 0)
(0 0 0)
(0 0 -2.1915e-15)
(-2.27374e-15 0 0)
(0 -3.5454e-17 0)
(-2.22606e-15 0 0)
(0 0 -1.5905e-21)
(-2.27374e-15 0 0)
(0 -3.5454e-17 3.23748e-24)
(-2.22606e-15 0 -2.19149e-15)
(0 0 2.14661e-15)
(0 0 -2.14518e-15)
(-2.27374e-15 0 0)
(0 -4.70706e-17 1.39415e-23)
(-2.22606e-15 0 2.19211e-15)
(0 0 -9.86368e-21)
(-2.27374e-15 0 0)
(0 -4.70706e-17 1.39415e-23)
(-2.22606e-15 0 -2.17037e-15)
(0 0 2.16894e-15)
(0 0 -2.17375e-15)
(-2.27374e-15 0 -6.51059e-19)
(0 -4.70706e-17 -2.43388e-23)
(-2.22606e-15 0 2.19211e-15)
(0 0 -1.00046e-20)
(-2.27374e-15 0 0)
(0 -4.70706e-17 -2.43388e-23)
(-2.22606e-15 0 -2.19118e-15)
(0 0 2.14774e-15)
(0 0 -2.27374e-15)
(-2.27374e-15 0 3.662e-23)
(0 -4.70706e-17 8.56309e-22)
(-2.22606e-15 0 2.14594e-15)
(0 0 1.2497e-21)
(-2.23549e-15 0 0)
(0 -4.70706e-17 8.59196e-22)
(-2.19316e-15 0 -2.27374e-15)
(0 0 0)
(0 0 0)
(0 0 0)
(0 0 0)
(0 0 0)
(0 0 0)
(0 0 0)
(0 0 0)
(0 0 0)
(0 0 0)
(0 0 0)
(0 0 0)
(0 0 0)
(0 0 0)
(0 -9.07857e-60 0)
(0 0 0)
(0 -4.81234e-61 0)
(0 0 0)
(0 0 0)
(0 -3.90479e-58 0)
(0 2.06639e-66 0)
(0 0 0)
(9.01602e-17 0 0)
(0 0 1.77764e-16)
(0 0 0)
(0 0 0)
(7.46885e-23 0 0)
(0 0 0)
(0 0 0)
(0 0 0)
(0 0 0)
(0 0 0)
(0 0 0)
(0 0 0)
(0 0 0)
(0 -2.1952e-48 0)
(0 0 -1.88047e-16)
(0 -2.986e-49 0)
(0 0 0)
(0 -4.65728e-52 1.72622e-16)
(0 0 0)
(0 -2.07964e-46 0)
(0 0 0)
(9.01652e-17 0 0)
(0 0 1.77764e-16)
(0 0 0)
(0 0 0)
(0 0 0)
(0 0 0)
(0 0 -1.35376e-20)
(0 0 -1.82797e-16)
(0 0 0)
(0 0 0)
(0 0 0)
(0 0 0)
(0 0 0)
(0 -2.98768e-38 0)
(0 0 -1.88047e-16)
(0 -6.91705e-39 0)
(0 0 0)
(0 -1.8562e-41 1.72622e-16)
(0 0 0)
(0 -1.27543e-36 0)
(0 0 0)
(0 0 0)
(0 0 1.77764e-16)
(0 0 0)
(0 0 1.58296e-16)
(0 0 0)
(0 0 0)
(0 0 0)
(0 0 0)
(0 0 1.72275e-20)
(0 0 0)
(0 0 0)
(0 0 0)
(0 0 0)
(0 -7.31656e-29 0)
(0 0 -1.88047e-16)
(0 -2.1997e-29 0)
(0 0 0)
(0 -8.82306e-32 1.72622e-16)
(0 0 0)
(0 -2.10033e-27 0)
(0 5.99453e-16 2.27307e-15)
(0 2.13208e-15 -5.19858e-16)
(0 0 -4.0229e-15)
(-1.01982e-18 2.27374e-15 -2.22998e-15)
(0 -2.81942e-17 0)
(-9.21725e-17 0 0)
(0 -1.74833e-17 0)
(0 0 -2.26255e-15)
(0 0 0)
(0 0 -1.82905e-16)
(9.23782e-17 0 4.76746e-17)
(0 0 1.3212e-18)
(2.35056e-22 0 0)
(0 0 0)
(0 0 -9.42067e-18)
(0 0 0)
(0 0 0)
(0 0 -1.9978e-18)
(0 0 0)
(0 0 -1.71658e-16)
(0 0 -1.18158e-19)
(0 6.84277e-16 5.742e-16)
(0 1.7617e-15 -5.26577e-16)
(0 0 -2.33907e-17)
(0 0 4.54747e-15)
(0 0 -2.34816e-17)
(4.39619e-15 0 0)
(0 0 0)
(0 0 -1.77764e-16)
(0 -4.54747e-15 6.1855e-19)
(0 0 -1.11207e-16)
(-4.30505e-15 0 0)
(4.41473e-15 -9.16667e-17 -2.27374e-15)
(0 0 0)
(0 9.13476e-17 0)
(0 0 0)
(-9.98604e-60 0 0)
(0 0 0)
(0 0 0)
(-8.08847e-57 0 0)
(0 0 -4.54747e-15)
(0 0 0)
(0 0 0)
(0 0 -4.54747e-15)
(0 0 0)
(0 0 0)
(0 0 0)
(0 0 0)
(0 0 0)
(0 0 0)
(0 0 4.54747e-15)
(0 0 0)
(0 0 0)
(0 0 0)
(0 0 2.22582e-19)
(-4.27803e-51 0 0)
(0 0 0)
(-6.08966e-54 0 0)
(0 0 -1.80241e-16)
(0 0 0)
(0 0 0)
(0 0 -8.70345e-17)
(0 0 0)
(0 0 0)
(0 0 0)
(0 0 0)
(0 0 0)
(0 0 0)
(0 0 4.54747e-15)
(0 0 -4.35943e-15)
(0 0 0)
(0 0 -4.54747e-15)
(0 0 0)
(0 0 0)
(0 0 0)
(0 0 0)
(0 0 0)
(0 0 0)
(0 0 0)
(0 0 0)
(0 0 0)
(0 0 0)
(0 0 0)
(0 0 0)
(0 0 0)
(0 0 4.54747e-15)
(0 0 1.77764e-16)
(0 0 4.56071e-21)
(0 0 0)
(0 0 0)
(0 0 0)
(0 0 0)
(0 0 0)
(0 0 4.35943e-15)
(0 0 0)
(0 0 0)
(0 0 0)
(0 0 0)
(0 0 0)
(0 0 0)
(0 0 0)
(0 0 0)
(0 0 0)
(0 0 0)
(0 0 0)
(0 0 0)
(0 0 0)
(0 0 0)
(0 0 1.76189e-16)
(0 0 0)
(0 0 0)
(0 0 0)
(0 0 0)
(0 0 0)
(0 0 0)
(0 0 0)
(0 0 0)
(0 0 0)
(0 0 0)
(0 0 0)
(0 0 0)
(0 0 0)
(0 0 0)
(0 0 -8.70147e-17)
(0 0 0)
(0 0 0)
(0 0 0)
(0 0 0)
(0 0 0)
(0 -1.08858e-59 0)
(0 0 0)
(0 -1.25324e-60 0)
(0 0 -4.54747e-15)
(0 0 0)
(0 -1.01522e-57 0)
(0 -1.80892e-63 0)
(0 -5.68311e-57 0)
(0 0 4.01822e-15)
(0 0 0)
(0 -5.37638e-52 0)
(0 0 0)
(0 -7.65885e-55 0)
(0 -3.34146e-54 0)
(0 0 -4.54747e-15)
(0 0 0)
(0 0 0)
(0 0 0)
(0 0 4.54747e-15)
(0 0 0)
(0 0 0)
(0 -5.97199e-57 1.88047e-16)
(0 0 1.70175e-16)
(0 0 1.8386e-16)
(0 -8.44353e-52 -2.28398e-18)
(0 0 -1.88047e-16)
(0 -1.02503e-54 0)
(0 -1.41654e-54 -1.81624e-16)
(0 0 4.54747e-15)
(0 0 -1.8071e-16)
(0 0 4.54747e-15)
(0 0 0)
(0 0 -4.54747e-15)
(0 0 0)
(0 0 -4.54747e-15)
(0 0 0)
(-2.79962e-48 0 0)
(0 0 4.35943e-15)
(0 0 0)
(0 0 1.75792e-16)
(-1.70155e-45 0 0)
(0 0 -4.54747e-15)
(0 0 0)
(0 0 8.581e-17)
(0 0 0)
(0 0 0)
(0 0 0)
(0 0 0)
(0 0 0)
(0 0 0)
(0 0 0)
(0 0 0)
(0 0 0)
(0 0 0)
(0 0 -1.94107e-18)
(-4.82485e-40 0 0)
(0 0 0)
(-9.44281e-43 0 0)
(0 0 -1.77764e-16)
(0 0 0)
(0 0 0)
(0 0 4.3615e-15)
(0 0 4.54747e-15)
(0 0 0)
(0 0 0)
(0 0 0)
(0 0 0)
(0 0 0)
(0 0 4.54747e-15)
(0 0 -4.35943e-15)
(0 0 0)
(0 0 0)
(0 0 0)
(0 0 0)
(0 0 0)
(0 0 0)
(0 0 -4.08671e-20)
(8.02844e-19 0 0)
(0 0 0)
(1.36836e-20 0 0)
(0 0 0)
(0 0 0)
(0 0 0)
(0 0 0)
(0 0 0)
(0 0 0)
(0 0 0)
(0 0 2.59164e-16)
(0 0 0)
(0 0 0)
(0 0 0)
(0 0 0)
(0 0 0)
(0 0 0)
(0 0 0)
(0 0 0)
(0 0 0)
(0 0 0)
(0 0 0)
(0 0 0)
(0 0 3.77062e-15)
(0 0 0)
(0 0 0)
(0 0 0)
(0 0 0)
(0 0 0)
(0 0 0)
(0 -3.06855e-48 0)
(0 0 0)
(0 -3.52147e-49 0)
(0 0 -4.54747e-15)
(0 -6.74148e-52 0)
(0 0 0)
(0 -2.13387e-46 0)
(0 -1.19544e-45 0)
(0 0 4.01822e-15)
(0 0 0)
(0 -6.06671e-41 0)
(0 0 0)
(0 -1.18605e-43 0)
(0 -5.18691e-43 0)
(0 0 -4.54747e-15)
(0 0 -4.54747e-15)
(0 0 0)
(0 0 0)
(0 0 3.99876e-15)
(0 0 4.54747e-15)
(0 0 0)
(0 -4.81217e-46 1.88047e-16)
(0 0 1.70175e-16)
(0 0 1.8386e-16)
(0 -3.37825e-41 -2.28398e-18)
(0 0 -1.88047e-16)
(0 -6.0573e-44 0)
(0 -8.35955e-44 -1.81624e-16)
(0 0 4.54747e-15)
(0 0 -1.8071e-16)
(0 0 4.54747e-15)
(0 0 0)
(0 0 -4.54747e-15)
(0 0 0)
(0 0 -4.54747e-15)
(0 0 0)
(-2.26178e-37 0 0)
(0 0 4.35943e-15)
(0 0 -1.88047e-16)
(0 0 1.75793e-16)
(-9.67192e-35 0 0)
(0 0 -4.54747e-15)
(0 0 4.27341e-15)
(0 0 -4.35943e-15)
(0 0 4.54747e-15)
(0 0 0)
(0 0 0)
(0 0 0)
(0 0 0)
(0 0 0)
(0 0 0)
(0 0 0)
(0 0 0)
(0 0 0)
(0 0 -1.96187e-18)
(-1.25096e-29 0 0)
(0 0 0)
(-3.67435e-32 0 0)
(0 0 -1.80293e-16)
(0 0 0)
(0 0 3.92726e-15)
(0 0 0)
(0 0 0)
(0 0 0)
(0 0 0)
(0 0 0)
(0 0 0)
(0 0 0)
(0 0 4.54747e-15)
(0 0 -4.35943e-15)
(0 0 0)
(0 0 0)
(0 0 0)
(0 0 0)
(0 0 0)
(0 0 1.88047e-16)
(0 0 -4.12137e-20)
(0 0 -4.95186e-18)
(0 0 -2.16301e-18)
(0 0 0)
(0 0 0)
(0 0 -1.76001e-16)
(0 0 4.54747e-15)
(0 0 0)
(0 0 0)
(0 0 0)
(0 0 0)
(0 0 0)
(0 0 -4.54747e-15)
(0 0 1.88047e-16)
(0 0 0)
(0 0 0)
(0 0 0)
(0 0 4.54747e-15)
(0 0 0)
(0 0 0)
(0 0 0)
(0 0 2.59164e-16)
(0 0 0)
(0 0 0)
(0 0 0)
(0 0 0)
(0 0 0)
(0 0 0)
(0 0 0)
(0 0 0)
(0 0 0)
(0 0 0)
(0 0 0)
(0 0 0)
(0 0 0)
(0 0 0)
(0 0 0)
(0 0 0)
(0 0 0)
(0 0 0)
(0 0 0)
(0 0 0)
(0 -2.48806e-37 0)
(0 0 0)
(0 -2.85084e-38 0)
(0 0 -4.54747e-15)
(0 -7.63134e-41 0)
(0 0 0)
(0 -1.21648e-35 0)
(0 -6.81338e-35 0)
(0 0 4.01822e-15)
(0 0 0)
(0 -1.58302e-30 0)
(0 0 0)
(0 -4.62852e-33 0)
(0 -2.02907e-32 0)
(0 0 -4.54747e-15)
(0 0 -4.54747e-15)
(0 0 0)
(0 0 0)
(0 0 3.99876e-15)
(0 0 4.54747e-15)
(0 0 0)
(0 -4.88631e-36 1.88047e-16)
(0 0 1.70175e-16)
(0 0 1.8386e-16)
(0 -1.65769e-31 -2.28398e-18)
(0 0 -1.88047e-16)
(0 -4.33703e-34 0)
(0 -5.96998e-34 -1.81624e-16)
(0 0 4.54747e-15)
(0 0 -1.8071e-16)
(0 0 4.54747e-15)
(0 0 0)
(0 0 -4.54747e-15)
(0 0 0)
(0 0 -4.54747e-15)
(0 0 0)
(-3.78367e-27 0 0)
(0 0 4.35943e-15)
(0 0 0)
(0 0 1.75792e-16)
(-1.00333e-24 0 0)
(0 0 -4.54747e-15)
(0 2.11848e-24 0)
(0 0 0)
(0 0 0)
(0 6.08361e-23 0)
(0 0 0)
(0 0 0)
(0 0 0)
(0 0 0)
(0 0 0)
(0 0 0)
(0 0 0)
(0 0 0)
(0 0 -4.08596e-19)
(-1.65114e-20 0 3.16812e-18)
(0 0 4.24726e-15)
(-2.21776e-22 0 0)
(0 0 -1.77693e-16)
(0 0 1.1288e-16)
(0 -2.38959e-19 -4.54747e-15)
(0 1.89254e-22 4.01809e-15)
(0 0 -3.85448e-15)
(0 1.02936e-20 0)
(0 0 0)
(0 0 0)
(0 4.85902e-19 0)
(0 0 0)
(0 0 4.54747e-15)
(0 0 -4.35943e-15)
(0 0 0)
(0 0 -4.54747e-15)
(0 0 0)
(0 0 0)
(0 0 0)
(0 0 3.84062e-15)
(0 0 0)
(0 0 0)
(0 0 0)
(0 0 0)
(0 0 -1.80569e-16)
(0 0 0)
(0 0 4.54747e-15)
(0 0 0)
(0 0 -4.35943e-15)
(0 0 0)
(0 0 1.77764e-16)
(0 0 -8.91993e-21)
(0 0 0)
(0 0 0)
(0 0 0)
(0 0 0)
(0 0 0)
(0 0 4.35943e-15)
(0 0 0)
(0 0 0)
(0 0 0)
(0 0 0)
(0 0 0)
(0 0 0)
(0 0 0)
(0 0 0)
(0 0 0)
(0 0 0)
(0 0 0)
(0 0 0)
(0 0 0)
(0 0 0)
(0 0 0)
(0 0 1.76241e-16)
(0 0 2.01063e-18)
(0 0 0)
(0 0 0)
(0 0 0)
(0 0 0)
(0 0 -1.62167e-16)
(0 0 0)
(0 0 -2.74966e-20)
(0 0 0)
(0 0 0)
(0 0 0)
(0 0 0)
(0 0 0)
(0 0 1.63611e-16)
(0 0 3.85616e-15)
(0 0 0)
(0 0 0)
(0 0 0)
(0 0 0)
(0 -1.48287e-22 0)
(0 0 0)
(0 -4.81623e-28 0)
(0 0 -4.54747e-15)
(0 -1.98958e-30 0)
(0 0 0)
(0 -1.27755e-25 0)
(0 -1.57072e-20 0)
(0 0 4.01822e-15)
(0 0 0)
(0 -5.23628e-21 0)
(0 0 0)
(0 -2.83405e-23 0)
(0 -6.31802e-19 0)
(0 0 -4.54747e-15)
(0 0 -4.54747e-15)
(0 0 0)
(0 0 0)
(0 0 3.99876e-15)
(0 0 4.54747e-15)
(0 0 0)
(0 -6.52434e-27 1.88047e-16)
(0 0 1.70175e-16)
(0 0 0)
(0 -3.45641e-23 0)
(0 0 -1.88047e-16)
(0 -3.88536e-25 0)
(0 -4.76999e-25 0)
(0 0 4.54747e-15)
(0 0 -1.80908e-16)
(0 0 4.54747e-15)
(0 0 0)
(0 0 -4.54747e-15)
(0 0 0)
(0 0 -4.54747e-15)
(0 0 1.07146e-19)
(0 0 0)
(0 0 0)
(0 0 -1.47505e-18)
(0 0 0)
(0 0 1.77878e-17)
(0 0 -1.91816e-18)
(0 0 -9.21609e-18)
(0 0 0)
(0 0 0)
(0 0 -3.87931e-15)
(0 0 0)
(0 0 -1.64236e-16)
(0 0 -1.64656e-16)
(0 0 -1.71238e-16)
(0 0 4.54747e-15)
(0 0 0)
(0 0 -1.66687e-16)
(0 0 0)
(0 0 -4.19139e-15)
(0 0 -4.71476e-18)
(0 0 -1.46031e-19)
(0 0 0)
(0 0 0)
(0 0 -1.58238e-16)
(0 0 0)
(0 0 -4.61003e-18)
(0 0 -1.09762e-17)
(0 0 -1.95954e-18)
(0 0 0)
(0 0 0)
(0 0 -9.58514e-18)
(0 0 0)
(0 0 -9.16396e-20)
(0 0 -1.73037e-16)
(0 0 0)
(0 0 0)
(0 -2.84912e-41 0)
(0 0 0)
(0 -2.27374e-15 0)
(0 0 0)
(0 0 0)
(0 0 0)
(0 0 0)
(0 -2.27374e-15 0)
(0 0 0)
(0 0 0)
(0 0 0)
(0 0 0)
(0 -2.27374e-15 0)
(0 0 0)
(0 0 0)
(0 -9.70146e-24 0)
(0 0 0)
(0 -2.27374e-15 0)
(0 0 0)
(0 0 0)
(0 0 -4.08202e-26)
(2.27374e-15 2.23785e-15 2.59248e-18)
(0 -3.18615e-17 0)
(0 0 1.13687e-15)
(0 0 3.39129e-27)
(0 0 0)
(1.10396e-15 0 -1.13687e-15)
(0 0 0)
(2.27374e-15 0 0)
(0 0 -3.6575e-16)
(2.27374e-15 0 -6.96425e-19)
(0 0 0)
(0 0 -4.54747e-15)
(0 0 0)
(0 0 0)
(0 0 0)
(0 0 4.35943e-15)
(0 0 1.05205e-19)
(0 0 0)
(2.27374e-15 0 1.94573e-18)
(0 0 -3.6575e-16)
(2.27374e-15 0 -6.96424e-19)
(0 0 0)
(0 0 -4.35943e-15)
(0 0 6.58951e-19)
(0 0 0)
(0 0 0)
(0 0 4.35943e-15)
(0 0 1.05206e-19)
(0 0 0)
(2.27374e-15 0 1.94573e-18)
(0 0 -3.6575e-16)
(2.27374e-15 0 -6.96424e-19)
(0 0 0)
(0 0 -4.35943e-15)
(0 0 6.58951e-19)
(0 0 0)
(0 0 0)
(0 0 4.35943e-15)
(0 0 1.05206e-19)
(0 0 0)
(2.27374e-15 0 1.94573e-18)
(0 0 -3.6581e-16)
(2.27374e-15 0 -2.24663e-20)
(0 0 0)
(0 0 -4.35943e-15)
(0 0 6.58951e-19)
(0 0 0)
(0 0 0)
(0 0 4.45212e-15)
(0 0 -3.49783e-21)
(0 0 0)