# vtk DataFile Version 2.0
sampleSurface
ASCII
DATASET POLYDATA
POINTS 7872 float
4.6 -2.10726 0.125 4.7 -2.14048 0.125 4.7 -2.14958 0 4.6 -2.12116
0 3.1 -1.77701 0 3.00073 -1.7 0 3.00692 -1.7 0.125
3.1 -1.77278 0.125 3.8 -0.5 0.0557089 3.8 -0.504852 0 3.9
-0.527251 0 3.9 -0.516399 0.125 3.82684 -0.5 0.125 4.2 -0.55975
0.125 4.2 -0.570133 0 4.3 -0.579985 0 4.3 -0.569652 0.125
4.6 -0.569451 0.125 4.6 -0.57926 0 4.7 -0.570487 0 4.7
-0.560947 0.125 1.5 -0.164157 0 1.44967 -0.1 0 1.4582 -0.1
0.125 1.5 -0.153141 0.125 3.4 1.09972 0.125 3.5 1.096 0.125
3.5 1.0989 0 3.46552 1.1 0 3.4 1.1 0.10957 3.8
1.8 0.0198208 3.80879 1.8 0.125 3.82946 1.9 0.125 3.81954 1.9
0 3.8 1.8077 0 1.4 2.2 0.0444624 1.4 2.20729 0
1.40928 2.3 0 1.41105 2.3 0.125 1.40097 2.2 0.125 3.8542
2.2 0 3.86275 2.2 0.125 3.8645 2.3 0.125 3.85613 2.3
0 1.47799 2.6 0 1.5 2.62659 0 1.5 2.61384 0.125
1.48853 2.6 0.125 1.82699 3 0 1.9 3.06396 0 1.9
3.05964 0.125 1.8323 3 0.125 2.3 3.09937 0 2.3 3.09792
0.125 2.26679 3.1 0.125 2.29098 3.1 0 4.23675 3.5 0
4.23896 3.5 0.125 4.25078 3.4 0.125 4.24836 3.4 0 3.4
-1.78551 0.5 3.4 -1.73772 0.625 3.5 -1.7774 0.625 3.5 -1.79934
0.5 2.6 -1.37157 0.5 2.6 -1.3 0.610348 2.60822 -1.3 0.625
2.7 -1.38135 0.625 2.7 -1.4 0.552767 2.66153 -1.4 0.5 2.24182
-1 0.625 2.2 -1 0.504739 2.2 -0.955361 0.625 1.80012 -0.5
0.5 1.83319 -0.5 0.625 1.9 -0.57563 0.625 1.9 -0.6 0.587014
1.84151 -0.6 0.5 3.4 -0.191022 0.5 3.41096 -0.2 0.5 3.5
-0.2 0.620996 3.5 -0.197606 0.625 3.4 -0.114389 0.625 1.41071 0.3
0.5 1.46141 0.3 0.625 1.5 0.238731 0.625 1.5 0.2 0.604023
1.43157 0.2 0.5 3.01612 0.3 0.5 3.07139 0.2 0.5 3.1
0.2 0.553303 3.1 0.269734 0.625 3.08312 0.3 0.625 1.40213 0.6
0.625 1.4 0.6 0.617727 1.4 0.626991 0.625 3.4 1.08687 0.5
3.4 1.08479 0.625 3.5 1.06214 0.625 3.5 1.07138 0.5 3.8429
1.4 0.5 3.8956 1.4 0.625 3.89755 1.5 0.625 3.84156 1.5
0.5 1.4 1.8 0.600662 1.4 1.9 0.546732 1.41857 1.9 0.625
1.40668 1.8 0.625 1.47478 2.2 0.5 1.5 2.25116 0.5 1.5
2.2 0.537704 2.2 3.07871 0.5 2.3 3.07188 0.5 2.3 3.04125
0.625 2.2 3.04687 0.625 3.40968 -1.7 1 3.41624 -1.7 1.125
3.5 -1.75443 1.125 3.5 -1.75795 1 2.69142 -1.3 1 2.7
-1.3 1.05518 2.7 -1.30793 1 2.23355 -0.9 1 2.24371 -0.9
1.125 2.3 -0.957668 1.125 2.3 -0.968084 1 4.2 -0.124434 1
4.3 -0.143717 1 4.3 -0.1 1.03345 4.2 -0.1 1.01849 4.6
-0.1 1.06153 4.6 -0.174953 1 4.7 -0.173738 1 4.7 -0.1
1.06319 3.42655 0.3 1 3.5 0.202213 1 3.5 0.3 1.05233
3.4 0.6 1.09079 3.44612 0.6 1.125 3.42297 0.7 1.125 3.4
0.7 1.10816 1.45387 1.1 1 1.47453 1.1 1.125 1.47955 1
1.125 1.45798 1 1 3.4 1.06368 1 3.4 1 1.09139
3.5 1 1.12057 3.5 1.03193 1 3.8 1.00774 1 3.8
1 1.01726 3.9 1 1.06019 3.9 1.05111 1 1.5 1.4
1.10525 1.47667 1.4 1 1.5 1.48657 1 4.26158 1.5 1
4.23597 1.4 1 4.3 1.4 1.03132 4.3 1.5 1.01713 4.7
1.4 1.06682 4.7 1.5 1.05542 4.6 1.5 1.07572 4.6 1.4
1.09119 4.6 1.8 1.00538 4.7 1.8 1.00254 4.7 1.86115 1
4.61362 1.9 1 4.6 1.9 1.00024 4.6 2.2 1.00864 4.7
2.2 1.01433 4.7 2.3 1.02482 4.6 2.3 1.01709 1.85311 2.7
1 1.9 2.7 1.07597 1.9 2.67987 1.125 1.8284 2.6 1.125
1.80197 2.6 1 4.6 3.8568 1 4.7 3.89673 1 4.7
3.88993 1.125 4.6 3.83872 1.125 3.8 -1.7859 1.5 3.8 -1.76297
1.625 3.9 -1.78143 1.625 3.9 -1.79683 1.5 3 -1.4 1.61296
3 -1.39783 1.625 3.00485 -1.4 1.625 1.80592 -0.1 1.5 1.82678
-0.1 1.625 1.89496 -0.2 1.625 1.83658 -0.2 1.5 1.8 2.24914
1.5 1.81515 2.3 1.5 1.84408 2.3 1.625 1.80711 2.2 1.625
1.8 2.2 1.57907 3.9 2.3 1.61679 3.9 2.27341 1.625 3.87212
2.3 1.625 4.2 2.2 1.55864 4.2 2.3 1.52826 4.3 2.3
1.50789 4.3 2.2 1.54114 4.6 2.2 1.55979 4.6 2.3 1.5148
4.7 2.3 1.54722 4.7 2.2 1.59708 4.7 3.8 1.59986 4.64703
3.8 1.5 4.7 3.84248 1.5 4.6 -1.7408 2 4.6 -1.7
2.06072 4.7 -1.7 2.08127 4.7 -1.75427 2 3.09914 -1.3 2
3.1 -1.3 2.00103 3.1 -1.30073 2 3.4 -1.4 2.11523 3.4
-1.39596 2.125 3.41448 -1.4 2.125 2.6 -0.937826 2 2.6 -0.9
2.0515 2.64458 -0.9 2.125 2.7 -0.953791 2.125 2.7 -1 2.03308
2.67498 -1 2 2.21974 -0.5 2 2.3 -0.5 2.11649 2.3
-0.592132 2 3.8 -0.2 2.02592 3.9 -0.2 2.05568 3.9 -0.128227
2.125 3.81831 -0.1 2.125 3.8 -0.1 2.11882 4.2 -0.180148 2.125
4.2 -0.2 2.10382 4.3 -0.2 2.1201 4.3 -0.19544 2.125 1.82338
0.3 2 1.9 0.3 2.11689 1.9 0.2 2.06453 1.85603 0.2
2 3.4 0.2 2.11457 3.41394 0.2 2.125 3.4 0.215299 2.125
1.81468 0.6 2.125 1.8 0.6 2.08149 1.8 0.7 2.10945 1.8056
0.7 2.125 3 0.694117 2 3.03023 0.6 2 3.1 0.6
2.07165 3.1 0.7 2.10604 3 0.7 2.00184 3 1 2.04018
3.07874 1 2.125 3.08556 1.1 2.125 3 1.1 2.03301 1.8
1.47118 2.125 1.8 1.5 2.12019 1.80177 1.5 2.125 3.1 1.48801
2 3.05333 1.4 2 3.1 1.4 2.04794 3.40155 1.5 2
3.5 1.5 2.07205 3.5 1.46983 2 3.8 1.41549 2 3.8
1.48786 2.125 3.9 1.48061 2.125 3.9 1.4087 2 4.2 1.41967
2 4.2 1.5 2.12184 4.3 1.5 2.08646 4.3 1.44307 2
1.81917 1.9 2 1.89869 1.9 2.125 1.84517 1.8 2.125 1.80339
1.8 2 3.8 2.24743 2 3.87837 2.2 2 3.9 2.2
2.011 3.9 2.3 2.08504 3.8 2.3 2.04121 4.2 2.20685 2.125
4.2 2.2 2.12098 4.22298 2.2 2.125 4.6 2.22605 2.125 4.6
2.2 2.11729 4.7 2.2 2.08395 4.7 2.3 2.10879 4.65569 2.3
2.125 2.2 2.67547 2 2.23036 2.7 2 2.3 2.7 2.11486
2.3 2.69644 2.125 2.21012 2.6 2.125 2.2 2.6 2.10411 3.4
2.6484 2 3.4 2.6 2.02426 3.5 2.6 2.04581 3.5 2.68872
2 3.8 2.6 2.10397 3.9 2.6 2.12134 3.9 2.7 2.06302
3.8 2.7 2.04761 4.2 2.63985 2.125 4.3 2.6295 2.125 4.3
2.7 2.07088 4.2 2.7 2.08325 4.6 2.6779 2 4.6 2.6
2.06922 4.7 2.6 2.03222 4.7 2.63476 2 2.65228 3 2
2.7 3.04025 2 2.7 3.01022 2.125 2.68833 3 2.125 3.8
3.4047 2 3.9 3.43223 2 3.9 3.43897 2.125 3.8 3.41208
2.125 4.2 3.46503 2 4.3 3.4724 2 4.3 3.4753 2.125
4.2 3.46957 2.125 3.8 -1.30135 2.5 3.8 -1.3 2.50172 3.9
-1.3 2.56303 3.9 -1.34958 2.5 4.2 -1.39408 2.5 4.2 -1.3
2.62063 4.24662 -1.3 2.625 4.3 -1.31556 2.625 4.3 -1.4 2.50391
4.28964 -1.4 2.5 4.6 -1.4 2.57489 4.6 -1.36423 2.625 4.7
-1.37354 2.625 4.7 -1.4 2.58819 3.00497 -0.9 2.5 3.1 -0.9
2.59671 3.1 -0.98042 2.5 2.6 -0.520002 2.5 2.6 -0.5 2.52267
2.7 -0.5 2.61952 2.7 -0.6 2.54412 2.66272 -0.6 2.5 2.26218
0.2 2.625 2.2 0.2 2.54731 2.2 0.3 2.59589 2.22339 0.3
2.625 3.8 0.69473 2.5 3.88605 0.6 2.5 3.9 0.6 2.50302
3.9 0.7 2.52371 3.8 0.7 2.50104 4.2 0.6 2.53296 4.3
0.6 2.5347 4.3 0.7 2.55744 4.2 0.7 2.55567 4.6 0.6
2.53303 4.7 0.6 2.52443 4.7 0.7 2.54563 4.6 0.7 2.55471
3.9 1 2.54911 3.9 1.1 2.5434 3.8 1.1 2.51746 3.8
1 2.52385 4.3 1 2.58564 4.3 1.1 2.58171 4.2 1.1
2.57931 4.2 1 2.58384 4.6 1 2.58668 4.7 1 2.57791
4.7 1.1 2.5773 4.6 1.1 2.58569 4.3 1.4 2.53686 4.3
1.5 2.51306 4.2 1.5 2.50627 4.2 1.4 2.53131 4.7 1.4
2.54013 4.7 1.5 2.51911 4.6 1.5 2.52562 4.6 1.4 2.54712
2.2 1.82292 2.625 2.2 1.9 2.60544 2.21551 1.9 2.625 2.24855
2.2 2.5 2.3 2.2648 2.5 2.3 2.2 2.56458 2.6 2.69633
2.5 2.60298 2.7 2.5 2.7 2.7 2.60781 2.7 2.67089 2.625
2.63405 2.6 2.625 2.6 2.6 2.6001 3 3.02733 2.5 3.1
3.08401 2.5 3.1 3 2.60975 3 3 2.53497 4.2 -0.946993
3 4.2 -0.9 3.05272 4.3 -0.9 3.07073 4.3 -0.963479 3
4.6 -0.992316 3 4.6 -0.9 3.10004 4.7 -0.9 3.10643 4.7
-0.999427 3 3.4 -0.6 3.04493 3.4 -0.5 3.10913 3.4731 -0.5
3.125 3.5 -0.52073 3.125 3.5 -0.6 3.0938 3.1 -0.2 3.12073
3 -0.2 3.08463 3 -0.1 3.11675 3.02188 -0.1 3.125 3.1
-0.186293 3.125 2.60978 0.3 3 2.7 0.3 3.09438 2.7 0.2
3.05748 2.64704 0.2 3 2.65067 0.6 3.125 2.6 0.6 3.09936
2.6 0.7 3.11089 2.62624 0.7 3.125 2.60241 1.4 3.125 2.6
1.4 3.12359 2.6 1.5 3.11755 2.61307 1.5 3.125 2.7 1.8
3.12133 2.6 1.8 3.06708 2.6 1.9 3.00655 2.7 1.9 3.10456
3 2.26921 3.125 3 2.3 3.11467 3.02816 2.3 3.125 3.42518
2.6 3.125 3.4 2.6 3.11992 3.4 2.7 3.07306 3.5 2.7
3.10365 3.5 2.65111 3.125 4.6 -0.159216 3.5 4.6 -0.1 3.54172
4.7 -0.1 3.55434 4.7 -0.178053 3.5 3.8 0.2 3.55622 3.8
0.3 3.5851 3.9 0.3 3.5975 3.9 0.2 3.5777 4.2 0.2
3.60297 4.2 0.3 3.61385 4.3 0.3 3.61642 4.3 0.2 3.6065
4.6 0.2 3.6146 4.6 0.3 3.62278 4.68793 0.3 3.625 4.7
0.295681 3.625 4.7 0.2 3.6174 3.5 0.6 3.57617 3.4 0.6
3.53032 3.4 0.7 3.55763 3.5 0.7 3.58999 3.9 0.6 3.624
3.8 0.6 3.61793 3.8 0.7 3.62374 3.81967 0.7 3.625 3.9
0.616424 3.625 3.5 1 3.60771 3.4 1 3.58939 3.4 1.1
3.59239 3.5 1.1 3.60963 3.5 1.4 3.6066 3.4 1.4 3.58734
3.4 1.5 3.57895 3.5 1.5 3.60165 3.41909 1.8 3.5 3.5
1.89031 3.5 3.5 1.8 3.54989 3.9 1.8 3.61433 3.8 1.8
3.60818 3.8 1.9 3.5928 3.9 1.9 3.60142 4.3 1.8 3.62195
4.2 1.8 3.62174 4.2 1.9 3.61081 4.3 1.9 3.61123 4.7
1.8 3.62119 4.6 1.8 3.62105 4.6 1.9 3.61077 4.7 1.9
3.61104 1.39531 2.2 0 1.8 2.98694 0.125 1.708 2.9 0.125
1.70542 2.9 0 1.8 2.989 0 1.8 2.9 0.473761 1.74406
2.9 0.375 1.8 2.95417 0.375 5 2.65503 0.5 5 2.68102
0.375 4.9256 2.7 0.375 4.9 2.7 0.406306 4.9 2.68168 0.5
2.2 3.09136 0.375 2.3 3.08549 0.375 4.25211 3.7 0 4.3
3.77024 0 4.3 3.76208 0.125 4.25697 3.7 0.125 4.27574 3.4
0.375 4.26351 3.5 0.375 4.3 3.5 0.49114 4.3 3.4 0.464622
4.22552 2.2 0.875 4.3 2.2 0.913354 4.3 2.3 0.913976 4.22534
2.3 0.875 4.52471 2.3 1 4.5 2.3 0.993191 4.5 2.2
0.986534 4.55451 2.2 1 1.8 2.69562 0.875 1.8 2.6 0.995033
1.71703 2.6 0.875 2.21804 2.9 1 2.2 2.9 0.996907 2.2
2.9662 0.875 2.3 2.96875 0.875 2.3 2.91684 1 4.9 2.64927
0.625 5 2.62035 0.625 4.53837 3.8 1 4.5 3.75671 1
4.5 3.77962 0.875 4.51641 3.8 0.875 4.50511 2.3 1.5 4.5
2.29803 1.5 4.5 2.3 1.49892 2.3 2.9 1.04358 4.55798 3.8
1.125 4.5 3.7374 1.125 4.6 3.77548 1.5 4.5218 3.7 1.5
4.50648 3.7 1.375 4.6 3.79206 1.375 3.1 2.6 1.89833 3.06331
2.6 1.875 3.1 2.57723 1.875 3.3 2.59387 2 3.3 2.5
1.93707 3.36585 2.5 2 3.8 2.2 1.92325 3.71468 2.3 2
3.7 2.3 1.98339 3.7 2.23901 1.875 3.75587 2.2 1.875 4.1
2.2 1.58448 4.1 2.3 1.55565 4.5 2.2 1.54043 2.2 2.7
1.90759 2.6 2.97846 2 2.50752 2.9 2 2.50149 2.9 1.875
2.6 2.98082 1.875 2.64812 3 1.875 3.1 2.6237 1.875 3.4
2.7 1.9513 3.3 2.7 1.90907 3.3 2.60227 2 3.5 2.7
1.98908 4.6 2.7 1.96546 4.53908 2.7 2 4.7 2.7 1.91406
4.9 2.6 1.89167 4.92561 2.6 1.875 4.9 2.61032 1.875 2.7
3.04272 1.875 3.4 3.33423 2 3.33692 3.3 2 3.35356 3.3
1.875 3.4 3.32483 1.875 3.5 3.36039 1.875 3.5 3.36604 2
3.8 3.39761 1.875 3.8 3.4 1.96179 3.78655 3.4 2 3.7
3.39269 2 3.7 3.3893 1.875 3.83274 3.4 1.875 3.9 3.4181
1.875 4.2 3.4543 1.875 4.1 3.45805 2 4.1 3.44638 1.875
4.6 3.74819 1.625 4.54956 3.7 1.625 4.3 3.46318 1.875 2.6
2.96163 2.125 2.6 2.7 2.49739 2.9 3 2.4462 2.96735 3
2.5 2.9 2.96989 2.5 3.3 2.6 2.00111 3.7 2.7 2.0308
[...]
CELL_DATA 7578
FIELD attributes 1
p 1 7578 float
102629 102777 114051 105922 105790 102051 88067.3 106254 109866 110366 101673
102069 119801 106429 104735 103458 110977 102694 104904 102810 112003
131244 91207.5 110232 112622 101533 104990 103040 101694 102170 119019
114552 117849 100472 103361 105631 154138 102619 114695 107846 117117
116175 102678 106432 107692 136103 104550 107928 131576 100537 108565
102064 102139 101465 135127 102819 101938 106939 102182 102486 99578
117267 110941 106619 129935 114726 96515.2 100509 94541.7 104602 113487
89517 97830.8 105353 127086 100941 92350.8 124074 102043 103500 106272
101719 104189 109437 101786 102305 108348 116813 111147 112076 112224
106082 105340 114392 113136 123177 101565 104920 101974 102021 103070
105904 110415 102328 113215 123979 104512 126896 108054 102559 104831
109520 113789 103987 116675 107194 106327 102439 108271 112288 111610
101784 102668 101464 106597 108796 102989 103626 114256 99838.3 101634
103556 113380 112900 118636 129361 102482 109943 103935 107006 74407.8
106033 105864 97240.2 101108 119525 103675 112299 114597 82889.6 76722.9
76397.5 87378.2 128042 102301 102769 104139 113475 118430 102474 102973
104493 102676 105008 110030 146429 116908 136777 106150 91622.7 116022
102647 102972 107128 104648 116525 103410 104668 109088 110189 115554
115421 110013 113266 116190 110418 111984 112017 114748 103257 132616
76466.2 81335.8 127231 100426 97281.8 123013 108088 113582 103077 117520
112320 102829 107161 105846 106450 118521 112582 102936 114108 101353
111579 111836 102940 124010 101773 107360 102433 123094 113600 89085.1
104101 104225 102669 102530 106584 112137 112372 107053 117444 118745
132369 117146 120516 116008 111027 111428 114770 122485 115258 119388
122422 122550 100212 114216 91689.7 93104.1 97569.5 92160.3 88306.7 101343
111933 103165 114779 122318 111781 117140 110170 89441 109616 101638
104076 123498 122247 113266 91435.5 93105 86031.6 91301.5 93511.7 102889
107093 122819 110287 111882 104281 113533 107345 104354 113611 107408
104073 113480 107329 107070 90237.2 111239 117528 100368 107917 120924
101540 106818 111860 101771 93864.9 126659 116861 121697 113445 106851
109936 104826 118077 103613 105157 122698 108903 102946 102934 108773
111865 108882 102817 117623 108912 117299 108907 117797 108830 101848
107905 114471 101462 107682 103703 97969.6 102584 114537 101044 107295
101422 119580 115392 107400 128439 103620 106653 132807 100281 122443
123515 108826 112147 98529.6 134174 135529 119782 104289 103818 104732
103450 125843 116796 117681 133079 117746 123092 117045 122267 129624
129223 124243 128317 122389 121804 125209 119872 117784 116748 109829
114086 102656 113646 109560 107416 104828 106886 105502 112116 114008
114375 112313 109858 108614 110574 107573 93139.6 137059 110756 82630.1
123379 123779 110040 130542 109234 118857 101353 112931 104411 124042
96397.1 102148 100014 111922 91098.6 113579 98291.1 105941 116604 108766
93054.8 100754 97882.8 90145.8 86436.5 102668 103233 103905 102177 127166
106149 101039 90735.3 112091 123396 71657.1 103492 96803.5 86808.7 91410
124674 131067 82808.4 79652.9 77524.1 77876.9 119489 115593 113353 113488
79763.4 86418.7 106137 95737.1 116091 122533 128814 133264 119572 106871
120950 105289 113905 92792.2 129183 105412 115605 105611 102661 113293
102476 104335 115560 108176 106264 109343 103645 106655 105437 104871
121185 102383 107752 104075 142288 116704 109706 116148 102166 115069
116102 114232 122061 119458 106610 101640 118641 96380 119989 107508
84825.9 133319 103842 130798 119502 104222 129665 102819 105613 101959
102048 102439 101941 103041 107231 108421 102789 105536 110731 101920
102098 101416 103515 101453 101523 104031 101489 101572 106105 101818
102534 111635 107234 103851 111956 102474 99422.7 105335 124222 111179
97156.1 78788.4 108268 106551 91669 109323 100453 118525 97639.5 115284
128369 120697 126760 125659 118066 132081 91667.4 92353.1 101677 121161
105683 90636.9 83166.5 132600 116872 96313.2 86895.1 137701 102888 104359
102898 102373 101624 103366 101552 106627 101945 110564 103464 124597
102611 102467 108271 102302 102811 113169 106907 103640 101533 101620
119047 146639 96496.7 126294 121629 134520 97298.3 120468 127637 128225
131525 129424 104841 101572 102860 126824 115039 109767 108022 120616
118757 109492 98593.1 100890 115763 91196 110425 99801.2 118673 112237
106464 104649 139149 119877 148849 112103 132170 138916 93284.5 118030
127826 118872 130303 106239 147347 137921 138959 101898 115758 105750
130381 102521 108580 103764 103505 102509 104687 102008 107141 118955
102507 109431 115089 107300 103918 129888 106304 111209 115234 109988
121770 102338 97082.8 101233 136086 136384 123791 104848 113478 97162.5
97609 104729 90412.5 81310.9 127848 121764 118219 125311 114032 116989
112397 108385 113119 115183 106819 106415 84386.1 83021.9 128937 121160
111082 117837 133675 109097 119697 101792 104185 107096 102010 93770.3
112541 103302 125003 110888 127189 105561 101333 99622.3 104305 124558
103674 119236 102025 102658 106898 101754 102906 101572 108608 102457
138746 101464 101747 105289 107781 117266 119600 123442 124817 129252
101447 128903 101690 101807 101944 102891 102150 103470 103113 103762
103784 104249 104517 109273 104457 105289 106562 92055.7 94639.1 133821
111565 104969 109297 103361 103048 116297 108675 116956 103045 111161
101640 109425 106693 78839.5 155438 134599 135710 123126 108377 92355.6
81505.3 114303 105288 156573 106212 113238 148609 136172 106136 115957
115702 95096 73612.2 108376 100846 93889.2 117335 87486.1 99388.7 87370.6
84363.1 135475 112571 112930 94411.6 100608 104364 106040 117431 107276
114354 100422 104851 100577 48057.4 91454.2 107069 112063 119881 155731
132853 101843 94249.8 119236 110771 109291 105760 113831 106083 118583
101985 110453 120840 131960 147303 115386 121954 89579.1 100547 116046
103668 102634 47643 48244.9 70881.1 97312.4 55276.4 130119 77226 81803.8
196899 39948.9 46643.8 107228 179181 57808 149187 119077 109987 108985
119489 95469 108896 123790 107238 108107 110157 110115 118273 113420
99535.7 103702 155761 137861 70817.9 66362.8 113705 127851 116482 128914
102783 108395 116084 110568 106693 101879 117798 109276 79796.7 142024
71958.3 111519 104355 105394 111527 100926 82636 163935 115481 146143
96335 98862.6 101438 65626.4 62878.7 109908 80538.3 116059 105213 192188
97654.7 229408 66281.8 95294.5 91834.5 75592.9 162421 55195.2 72715 171512
126569 84409.3 148622 85676.9 94154.4 80108 81253.5 84287.9 105999 110619
118771 116806 107806 106458 108432 103841 103426 100814 111396 108823
111162 109967 130831 122766 137752 111408 92021.6 112901 95394.8 108462
133800 129953 207492 158171 152771 92955.5 99696.6 114328 137382 87265.5
81628.2 111004 91643.9 119074 137271 98704.7 117771 112377 114682 103636
99330 104566 112275 97776.3 131537 112507 120444 106268 107411 103356
61355.5 121385 107446 98445.9 117959 173006 140210 116578 115200 102282
89751.2 94470.9 93905.9 83622.4 89642.8 87859.6 81037.4 108272 60334.5 136230
65100.7 104566 114858 101478 109618 110969 101785 106776 113650 111250
114187 104566 104267 140605 107573 97526 105991 109165 92463.2 112943
113746 128398 124609 100150 108470 125205 119105 88398 104187 92923.4
101442 107967 134293 93599.4 79449.8 84564.9 81948.9 99085.2 102705 108887
111728 117085 103219 107185 118241 105555 138189 138357 113693 91126.2
79229.5 103204 106455 103728 105981 103901 138963 138261 116837 114777
116732 112217 113375 100357 132992 135974 97364.8 157859 112783 127035
150011 112266 105728 103855 142425 145869 104593 102882 104897 124145
102443 107664 113355 102836 108106 78290 117290 95194.3 89841.8 106746
107534 103259 105917 102105 117993 105828 98142.9 90058.3 140399 82020.4
110942 102662 98955.9 107575 104614 122941 117822 95149.1 117558 118271
94605.6 103208 101851 86767 96569.7 128681 96345.3 99078 127248 117938
102044 103350 103066 94697.2 102137 96231.5 101533 125122 84761.3 83774
124577 62635.2 59852.3 50681.9 55049.9 106885 101339 117133 109820 105516
89865 107525 121287 97793.6 89370.7 93190.2 116684 67068.7 76834.1 106257
106719 98551.8 94522.1 103386 195373 120579 119466 190815 97732.2 98205.8
137382 123279 129869 135393 92631.7 84134 87186.8 97404.1 108180 113404
116151 109118 110261 99724.4 116075 108099 115206 108701 107673 113681
111446 114168 105641 157271 77534.8 87503.3 160862 72726 148269 167531
61718.1 78537.1 142360 65817.2 58095.2 93668.3 79890.7 52764 107046 103705
126852 113848 121715 135950 151168 141638 147278 114936 118543 115023
164646 166866 109303 107633 101361 108265 107453 118034 115190 133712
130527 132282 128981 95146.8 99306.4 108455 117524 115883 111557 114211
114363 100596 99346 118883 120410 110510 112904 95660.6 97542.8 117210
115437 158219 165103 116995 118530 118168 101680 104680 64080.5 66324.2
82459 116446 109275 79693.4 104596 102224 104884 104552 107528 104494
66208.1 62704.9 94123.1 93285.6 82317.6 134761 79766.4 98224.3 99602.8 101592
102834 114863 113017 77042.7 78017.4 94394.5 107069 103603 98612.5 102346
108187 113857 102724 108268 107063 101588 109205 113247 128616 123775
116236 123414 166469 137885 127457 67975.6 164637 105309 140421 131216
115884 79265.3 159197 152077 99136.1 79276.9 101966 132766 90910.4 98477.6
159058 153881 107738 104373 113879 112412 93009.9 98060 101800 106301
98913.9 106439 116492 107759 115268 133366 130279 132940 135040 125842
119454 110028 109565 117930 118496 149249 140351 144079 113703 112893
101682 121808 102956 122607 115859 118318 101748 108145 103303 109455
106076 124345 139446 80727.5 132934 104199 111381 86095.9 115622 122564
101176 101211 106610 100638 101279 112162 116963 113146 119241 114422
110683 116383 109270 110318 115341 99610.4 132553 108964 116997 116611
108927 70449.9 51761.6 70513.1 111650 112580 113011 109681 129055 140009
101818 100259 143030 141382 116272 110863 112910 98435.1 113383 102858
112558 115285 116703 116717 117245 103803 83195.2 78696.3 97086 85345.1
119994 111778 115769 111041 115638 117036 109218 107114 113377 112249
100527 107117 100918 102933 108672 108585 110902 118623 118548 111524
113502 152790 65209.4 156433 109011 78656.3 76864.2 71963.7 148860 80456
98042 139562 79749.7 115611 104126 105290 123498 76884.1 75218.7 90386.4
88663.1 72196.6 73364 90496.1 89631 99433.1 149034 160931 154411 104440
102648 102784 101933 111504 112911 114084 119130 122130 106923 115054
115097 116398 102701 118036 121208 107578 97338.3 112186 104807 101626
95135.8 112098 118727 127492 132921 133166 124805 94458.5 116181 113696
107215 104580 123506 128138 93598.6 134910 89511.1 95596.7 125233 103068
122742 114924 102939 122573 111882 112913 119919 98233.8 105131 101254
105947 103056 66370.8 71206.2 71750 87641.3 86483.3 118881 110675 107004
98199 114426 122522 115430 127313 133979 131670 123888 141356 78084.9
140641 118483 123488 102322 119201 117134 104171 118225 113848 104687
109943 104878 114598 111387 105996 104253 127555 119917 110289 106077
103974 78403.9 78808 86214.6 82816.2 111415 123054 113073 109830 109048
110802 107646 117767 116177 117416 118704 105044 115085 113782 99010.6
105861 105200 102048 105027 120713 133471 111268 117343 116968 110911
115911 108318 100346 79869.1 96467.9 102252 147347 100548 105761 108923
118180 106725 110653 106094 108778 118689 107143 109664 137672 132678
96620.9 102925 113118 114585 94400.5 92371.2 92984 98428.4 119790 105016
115362 101496 115609 102116 108068 85747.2 140131 126953 97754.3 106546
99955.4 109549 101847 97587.6 99045.9 95119.9 97909.1 88895.6 94790.6 96759.9
92439.2 83972 80161.4 86822.5 81674.8 102165 107313 99888.9 111269 133055
120326 132151 122486 102801 102940 108829 98164.7 104467 111175 111654
103740 131627 78484.6 74478.3 87682.4 91259.9 115776 105434 103403 122746
124869 126064 81063.3 118422 104706 89683.8 146427 81688 76718.4 97293.8
111528 88955.8 82380.5 101958 112792 100414 111397 112817 98213.8 111395
98908.9 110103 109862 122440 118309 117772 113130 120391 111594 109224
117528 107444 116593 107887 107976 109567 117099 114556 109564 111947
103370 119732 125379 116498 108533 101151 98165.3 104710 99606.3 111392
113228 120311 101849 108848 111062 79167.9 136542 77836.7 138770 125916
126116 101438 102860 100242 100182 98663.9 111624 99333.7 110382 111384
102881 149359 86604.7 88937.6 113104 116358 115724 120488 102445 100023
128159 116662 120169 123998 85246.3 76617.2 113163 107094 104222 115550
112459 106697 99664.3 103764 97559.4 96057.3 92122.2 86096.6 88859.8 115261
111269 113106 100621 101620 103672 118362 105524 114562 116550 107674
97441.3 104728 111372 109496 119455 127197 89050.2 95744.2 100126 88454.4
104435 106380 112988 118266 119535 98317 110409 116975 116804 109294
88918.5 123714 121739 90937.7 110706 90193.4 128537 123627 94750.3 110717
117659 107324 106421 98115.1 103468 105875 115006 101752 104510 94551
101437 119052 98850.6 102323 98311.8 118456 106024 110460 114621 114750
101488 117993 104718 102260 92501.1 90694.1 115819 113453 111206 105854
104992 113051 110025 117735 123581 91883.2 102214 127967 135589 95142.9
111110 113004 103391 120660 87649.5 136513 132530 104012 99659.9 115894
112315 105543 99426 106717 111506 97277.3 103787 102218 99976.7 137188
147787 103765 106170 99848.4 121733 109078 112104 101059 106985 104474
121936 110106 116132 103319 112858 100690 113034 116065 112585 115055
109839 107684 111004 113892 109438 107131 118413 130339 127914 116340
135606 127428 122781 129459 108515 102758 119202 118088 107941 106456
117487 111926 111616 109159 110794 80973.7 83284.8 97508.2 92415.8 93164.5
96431.2 100821 105486 88357.8 99260.2 118910 87488.2 87347.4 82266.1 83403.9
139073 131667 124870 111020 99218.9 100285 114813 116439 105074 109026
118954 120477 110647 111713 109060 107978 103298 106236 120974 116719
124764 120513 105914 103484 103308 103489 118779 111515 112092 106289
119972 105732 113478 105614 99824.7 102071 109509 104880 109836 107688
104018 131317 130959 118296 118206 105091 98560.1 89461.1 110132 120444
107576 118697 121373 108510 105621 106082 103900 115912 117126 99188.7
105966 106247 116720 108980 109158 116512 115303 115710 113881 120099
116809 111808 103065 119679 112597 92559.6 103438 96077.6 101780 100301
108571 103864 101344 111163 98196.9 91387.2 98941.2 93669.8 106664 100676
107875 118614 109727 111134 117235 102459 106871 111990 103921 89387
89386.4 105411 133053 109650 100261 111250 121811 122823 110979 126971
116112 121130 145192 106954 141887 109367 111510 112234 117785 99630
108595 107225 116741 102693 113431 119421 107359 105941 114772 114882
120979 102211 101910 99321.3 100250 112547 118855 105493 105200 112684
122844 100497 106125 86486 92398.9 99324.1 100679 102330 104817 98916.5
101043 106163 104152 103274 102194 102929 102589 112525 109823 116143
113280 119044 107339 114657 116544 141425 96205.7 94445.6 130850 110750
108267 110709 106295 109255 105378 106094 113275 114531 107383 124476
112665 120911 114310 106577 103232 104810 104679 114859 115015 95689.5
106515 123521 115783 114311 119099 103221 102610 101973 101887 104072
105488 101516 91398.9 103372 103664 97423.7 98514 104400 106388 113493
105324 109055 105809 107993 105476 97886.5 112946 105543 104036 104311
101949 106593 120061 109772 114325 106749 111997 106480 112019 126857
122668 115879 120818 120586 97742.1 113916 119697 108952 116317 118270
110908 86121.9 89332.2 99862.2 102587 104237 88049.1 85052.9 89521.6 91857.1
95279.5 95209.9 92364.1 112215 118575 108805 108202 113993 119309 110498
106576 124215 120130 115105 119753 94758.5 98920.4 100501 107222 95697.6
95555.1 101273 105189 102560 103532 102831 105826 102520 103382 104875
116496 112561 109302 119841 104479 102683 110385 104216 108111 100710
103754 104720 119248 120776 116863 124448 100568 97816.3 97388.6 99394.2
110329 107576 103522 106166 104052 101502 109041 107487 114964 119998
112173 104241 102386 107450 124653 117283 115348 85690.6 131588 135443
110442 121511 97621.6 98520.5 99989.1 99397.5 92320 102209 115367 108354
109999 112105 111534 120132 108710 98734.4 106452 102104 101387 103283
101716 100518 113806 102018 100639 111156 109884 113307 100411 109989
109432 100961 116090 102207 110748 112297 119149 124281 98718.4 106519
112588 116018 112517 120221 119741 99194 120523 115677 113095 101942
114630 110715 110786 113435 114605 95436.4 112105 120133 102419 107245
108067 115852 125461 104195 104361 98034.6 106068 113647 126147 100629
99500.7 95898.9 98555.2 101423 109574 105790 100608 101368 103651 106182
107684 105685 111953 109649 102672 103763 103393 103099 102881 103833
104076 103847 100832 108321 109847 104923 120363 115727 114535 111624
106580 103759 93820.1 104684 112855 108084 107531 112142 106910 106801
100670 101577 100065 101691 102373 108509 106260 101819 105581 105908
103532 118449 105405 112701 101369 114597 88624.9 90289.5 107871 108213
105080 105876 101928 106487 102444 105451 114166 105691 107230 106735
92870.8 96842.2 107556 114546 98987.5 109205 118128 107271 103970 100162
118053 114169 103565 128827 125253 109759 110054 122877 113274 105924
114275 103839 108059 116800 99893.3 111853 117880 116230 112627 97998.6
101111 106587 113788 102202 109538 117951 113621 113445 98608.2 112951
126982 109545 124287 102751 111430 101628 110360 105919 100184 108562
114683 101106 109433 103035 109127 107113 101662 104195 104763 105516
105682 108931 110772 108380 104256 121384 112366 121563 113144 107953
116101 114943 107469 115427 118270 108790 107908 106144 108116 106687
105575 106473 106170 104826 105888 100794 107642 107645 108844 109405
113085 110628 102221 104269 109137 106149 106062 107186 107850 113964
111634 117829 124402 97990.5 108835 125207 108091 123584 112313 110319
117810 103557 116033 114529 100137 110723 96628.9 98081.7 94336 99854.7
98602.9 103657 102479 101671 100494 110069 107525 103529 116727 106120
115741 117235 113184 111753 115036 115253 111343 111070 107090 109741
107318 117321 102272 103025 105324 106416 104679 107032 107163 107544
108395 106979 107645 108979 103006 102575 104152 102874 103723 101108
106145 108794 118248 115467 107653 116675 104755 108729 107453 108398
107340 110006 113739 114322 110079 106332 111470 100808 103982 112294
111077 105283 109991 102736 103740 111135 111182 108361 108240 109029
114119 111096 113821 117571 117065 104548 116028 113047 102490 99627.5
110850 104399 107648 107035 96887.6 92384.2 117092 113992 119381 110824
108179 107825 107603 111700 109341 103730 103662 106186 109366 106902
108135 102930 109629 110027 102498 102967 103925 102072 110180 106956
106850 110814 101558 101314 106496 104400 104762 107308 98231.5 102637
115766 106937 102597 111463 101792 107503 119130 108677 104242 114626
103051 104539 105031 107546 103997 108084 106043 104860 109487 113446
110724 103112 110607 116829 104621 112005 102669 109225 118579 116174
106733 105125 113889 115363 118233 106219 102298 104124 123102 111639
113709 109120 109120 104849 101891 109099 113733 109693 111701 112057
102303 115865 115193 114877 112506 108838 112558 110007 103867 113212
106212 107196 114167 112848 116019 116215 100136 101690 104469 119452
112339 108286 115339 104793 107506 111603 108740 111232 112268 106819
118500 115898 117945 100135 104282 106557 111861 113290 108313 102942
106441 108564 110629 111491 114804 108749 108245 111453 112320 105584
110627 106400 108742 99764.2 110198 104634 105137 114797 116616 118357
118947 117258 127037 109067 115854 111789 102500 116010 110135 102721
110572 110329 109276 112306 102867 115292 113383 111099 104937 118681
103932 110183 111149 102860 117990 103034 109297 109115 112830 109356
110138 109635 114803 110974 101357 100680 105284 107266 111308 114202
114383 111718 117535 105973 114011 117418 100649 103914 111854 111684
118554 107494 110880 114615 103403 100510 101331 105170 111102 107964
107813 100460 104683 115770 112196 108009 103325 120420 104589 109609
110893 116069 116970 113091 105688 106625 111874 112789 113668 109688