# vtk DataFile Version 2.0
sampleSurface
ASCII
DATASET POLYDATA
POINTS 5340 float
-2.71051e-18 0 0.5 0.1 0 0.5 -1.35525e-18 -0.1 0.5 -1.35525e-18 0.1
0.5 -0.1 0 0.5 -0.1 -0.1 0.5 0.1 0.1 0.5
-0.1 0.1 0.5 0.1 -0.1 0.5 0 0.2 0.5 -0.2
0 0.5 0.2 0 0.5 0 -0.2 0.5 0.1 0.2
0.5 -0.1 0.2 0.5 -0.2 -0.1 0.5 -0.2 0.1 0.5
-0.1 -0.2 0.5 0.2 0.1 0.5 0.2 -0.1 0.5 0.1
-0.2 0.5 -0.2 0.2 0.5 0.2 0.2 0.5 -0.2 -0.2
0.5 0.2 -0.2 0.5 2.03627e-33 0.3 0.5 -0.3 -8.42594e-34 0.5
0.3 0 0.5 9.03502e-19 -0.3 0.5 -0.3 0.1 0.5 0.3
0.1 0.5 0.3 -0.1 0.5 0.1 0.3 0.5 -0.1 0.3
0.5 -0.3 -0.1 0.5 0.1 -0.3 0.5 -0.1 -0.3 0.5
-0.2 0.3 0.5 -0.3 0.2 0.5 0.2 0.3 0.5 0.3
0.2 0.5 -0.3 -0.2 0.5 -0.2 -0.3 0.5 0.3 -0.2
0.5 0.2 -0.3 0.5 6.21915e-33 0.4 0.5 -0.4 -3.37038e-33 0.5
0.4 0 0.5 1.807e-18 -0.4 0.5 0.1 0.4 0.5 -0.1
0.4 0.5 -0.4 0.1 0.5 -0.4 -0.1 0.5 0.4 -0.1
0.5 0.4 0.1 0.5 0.1 -0.4 0.5 -0.1 -0.4 0.5
-0.3 0.3 0.5 0.3 0.3 0.5 0.3 -0.3 0.5 -0.3
-0.3 0.5 -0.2 0.4 0.5 -0.4 0.2 0.5 0.2 0.4
0.5 0.4 0.2 0.5 -0.4 -0.2 0.5 -0.2 -0.4 0.5
0.4 -0.2 0.5 0.2 -0.4 0.5 -0.3 0.4 0.5 -0.4
0.3 0.5 1.55479e-33 0.5 0.5 0.4 0.3 0.5 0.3 0.4
0.5 -0.4 -0.3 0.5 -0.3 -0.4 0.5 -0.5 -8.42594e-34 0.5
0.5 0 0.5 9.03502e-19 -0.5 0.5 0.4 -0.3 0.5 0.3
-0.4 0.5 0.1 0.5 0.5 -0.5 -0.1 0.5 0.1 -0.5
0.5 -0.1 -0.5 0.5 -0.1 0.5 0.5 -0.5 0.1 0.5
0.5 -0.1 0.5 0.5 0.1 0.5 -0.433333 -0.3 0.5 -0.5
0.2 0.5 -0.2 0.5 0.5 0.2 0.5 0.5 0.5 0.2
0.5 -0.2 -0.5 0.5 -0.5 -0.2 0.5 0.5 -0.2 0.5
0.2 -0.5 0.5 -0.4 0.4 0.5 -0.4 -0.4 0.5 0.4
0.4 0.5 0.4 -0.4 0.5 -0.3 0.5 0.5 -0.5 0.3
0.5 0.5 0.3 0.5 0.3 0.5 0.5 -0.3 -0.5 0.5
0.5 -0.3 0.5 0.3 -0.5 0.5 -0.5 -0.3 0.5 0
0.6 0.5 0.6 0 0.5 -0.6 0 0.5 0 -0.6
0.5 0.6 0.05 0.5 0.6 -0.05 0.5 -0.1 0.6 0.5
0.1 0.6 0.5 0.6 0.1 0.5 0.6 -0.1 0.5 -0.6
0.1 0.5 -0.6 -0.1 0.5 -0.1 -0.6 0.5 0.1 -0.6
0.5 -0.5 -0.366667 0.5 -0.6 0.2 0.5 -0.2 0.6 0.5
0.2 0.6 0.5 0.6 0.2 0.5 0.6 -0.2 0.5 -0.2
-0.6 0.5 -0.6 -0.2 0.5 0.2 -0.6 0.5 -0.4 0.5
0.5 -0.5 0.4 0.5 -0.4 -0.5 0.5 -0.5 -0.4 0.5
0.5 0.4 0.5 0.4 0.5 0.5 0.5 -0.4 0.5 0.4
-0.5 0.5 0.65 0 0.5 0.65 0.05 0.5 0.65 -0.05
0.5 0.65 0.1 0.5 0.65 -0.1 0.5 -0.5 -0.433333 0.5
-0.433333 -0.5 0.5 -0.6 0.3 0.5 -0.3 0.6 0.5 0.3
0.6 0.5 0.6 0.3 0.5 0.6 -0.3 0.5 -0.3 -0.6
0.5 -0.6 -0.3 0.5 0.3 -0.6 0.5 0 0.7 0.5
0.7 0 0.5 -1.58113e-18 -0.7 0.5 -0.7 0 0.5 -0.0333333
-0.7 0.5 0.7 0.05 0.5 0.7 -0.05 0.5 -0.1 0.7
0.5 0.5 0.5 0.5 -0.5 0.5 0.5 0.7 0.1 0.5
0.7 -0.1 0.5 -0.5 -0.5 0.5 0.1 0.7 0.5 0.1
-0.7 0.5 0.5 -0.5 0.5 -0.7 0.1 0.5 -0.7 -0.1
0.5 -0.1 -0.7 0.5 0.7 0.15 0.5 0.7 -0.15 0.5
-0.6 0.4 0.5 -0.4 0.6 0.5 0.4 0.6 0.5 0.6
0.4 0.5 0.6 -0.4 0.5 -0.4 -0.6 0.5 -0.6 -0.4
0.5 0.4 -0.6 0.5 -0.7 0.2 0.5 -0.2 0.7 0.5
0.2 0.7 0.5 0.7 0.2 0.5 0.7 -0.2 0.5 -0.2
-0.7 0.5 0.2 -0.7 0.5 -0.7 -0.2 0.5 0.75 0
0.5 0.75 0.05 0.5 0.75 -0.05 0.5 0.75 0.1 0.5
0.75 -0.1 0.5 -0.3 0.7 0.5 -0.7 -0.3 0.5 -0.3
-0.7 0.5 -0.7 0.3 0.5 0.3 -0.7 0.5 0.3 0.7
0.5 0.7 0.3 0.5 0.7 -0.3 0.5 0.75 0.15 0.5
0.75 -0.15 0.5 -0.1 -0.766667 0.5 0.75 0.2 0.5 0.75
-0.2 0.5 -0.6 0.5 0.5 -0.5 0.6 0.5 0.5 0.6
0.5 0.6 0.5 0.5 0.6 -0.5 0.5 -0.6 -0.5 0.5
-0.5 -0.6 0.5 0.5 -0.6 0.5 -0.7 0.366667 0.5 -0.8
0 0.5 0 0.8 0.5 0.8 0 0.5 -3.16226e-18 -0.8
0.5 0.8 0.05 0.5 0.8 -0.05 0.5 -0.7 0.4 0.5
-0.4 0.7 0.5 0.4 0.7 0.5 0.7 0.4 0.5 0.7
-0.4 0.5 0.4 -0.7 0.5 -0.8 -0.1 0.5 -0.8 0.1
0.5 -0.7 -0.4 0.5 -0.4 -0.7 0.5 -0.1 0.8 0.5
0.1 0.8 0.5 0.8 0.1 0.5 0.8 -0.1 0.5 0.1
-0.8 0.5 -0.1 -0.8 0.5 0.8 0.15 0.5 0.8 -0.15
0.5 -0.433333 -0.7 0.5 -0.766667 0.3 0.5 -0.8 0.2 0.5
-0.2 0.8 0.5 0.2 0.8 0.5 0.8 0.2 0.5 0.8
-0.2 0.5 0.2 -0.8 0.5 -0.2 -0.8 0.5 -0.8 -0.2
0.5 0.8 0.25 0.5 0.8 -0.25 0.5 -0.6 0.6 0.5
0.6 0.6 0.5 0.6 -0.6 0.5 -0.6 -0.6 0.5 0.85
0 0.5 0.85 0.05 0.5 0.85 -0.05 0.5 0.3 0.8
0.5 -0.8 0.3 0.5 0.8 0.3 0.5 0.8 -0.3 0.5
0.3 -0.8 0.5 -0.3 0.8 0.5 -0.8 -0.3 0.5 -0.3
-0.8 0.5 0.85 0.1 0.5 0.85 -0.1 0.5 0.7 -0.5
0.5 -0.7 0.5 0.5 -0.5 0.7 0.5 0.7 0.5 0.5
-0.7 -0.5 0.5 0.5 0.7 0.5 -0.5 -0.7 0.5 0.5
-0.7 0.5 0.85 0.15 0.5 0.85 -0.15 0.5 0.85 0.2
0.5 0.85 -0.2 0.5 0.85 0.25 0.5 0.85 -0.25 0.5
0.4 0.8 0.5 0.4 -0.8 0.5 -0.8 0.4 0.5 -0.4
0.8 0.5 0.8 0.4 0.5 0.8 -0.4 0.5 -0.8 -0.4
0.5 -0.4 -0.8 0.5 -0.9 0 0.5 0 0.9 0.5
0.9 0 0.5 -1.58113e-18 -0.9 0.5 0.85 0.3 0.5 0.9
0.05 0.5 0.9 -0.05 0.5 0.85 -0.3 0.5 0.1 0.9
0.5 -0.1 0.9 0.5 -0.1 -0.9 0.5 0.1 -0.9 0.5
0.9 0.1 0.5 0.9 -0.1 0.5 -0.9 -0.1 0.5 -0.9
0.1 0.5 0.9 0.15 0.5 0.9 -0.15 0.5 -0.5 -0.766667
0.5 -0.7 0.6 0.5 -0.6 0.7 0.5 0.6 0.7 0.5
0.7 0.6 0.5 0.7 -0.6 0.5 0.6 -0.7 0.5 -0.7
-0.6 0.5 -0.6 -0.7 0.5 -0.9 0.2 0.5 -0.2 0.9
0.5 0.2 0.9 0.5 0.9 0.2 0.5 0.9 -0.2 0.5
0.2 -0.9 0.5 -0.2 -0.9 0.5 -0.9 -0.2 0.5 0.9
0.25 0.5 0.9 -0.25 0.5 0.5 0.8 0.5 -0.8 0.5
0.5 -0.5 0.8 0.5 0.8 0.5 0.5 0.8 -0.5 0.5
0.5 -0.8 0.5 -0.8 -0.5 0.5 -0.5 -0.8 0.5 0.3
0.9 0.5 -0.9 0.3 0.5 -0.3 0.9 0.5 0.9 0.3
0.5 0.9 -0.3 0.5 -0.9 -0.3 0.5 -0.3 -0.9 0.5
0.3 -0.9 0.5 0.95 0 0.5 0.95 0.05 0.5 0.95
-0.05 0.5 0.95 0.1 0.5 0.95 -0.1 0.5 0.95 0.15
0.5 0.95 -0.15 0.5 0.9 0.35 0.5 0.9 -0.35 0.5
0.95 0.2 0.5 0.95 -0.2 0.5 0.95 0.25 0.5 0.95
-0.25 0.5 0.4 0.9 0.5 0.4 -0.9 0.5 -0.9 0.4
0.5 -0.4 0.9 0.5 0.9 0.4 0.5 0.9 -0.4 0.5
-0.9 -0.4 0.5 -0.4 -0.9 0.5 -0.7 -0.7 0.5 -0.7
0.7 0.5 0.7 0.7 0.5 0.7 -0.7 0.5 0.95 0.3
0.5 0.95 -0.3 0.5 -1 0 0.5 -0.8 0.6 0.5
-0.6 0.8 0.5 0 1 0.5 0.6 0.8 0.5 0.8
0.6 0.5 1 0 0.5 0.8 -0.6 0.5 0.6 -0.8
0.5 0 -1 0.5 -0.8 -0.6 0.5 -0.6 -0.8 0.5
1 0.05 0.5 1 -0.05 0.5 -1 0.1 0.5 -1
-0.1 0.5 -0.1 1 0.5 0.1 1 0.5 1 0.1
0.5 1 -0.1 0.5 0.1 -1 0.5 -0.1 -1 0.5
1 0.15 0.5 1 -0.15 0.5 0.95 0.35 0.5 0.95
-0.35 0.5 -1 0.2 0.5 -1 -0.2 0.5 -0.2 1
0.5 0.2 1 0.5 1 0.2 0.5 1 -0.2 0.5
0.2 -1 0.5 -0.2 -1 0.5 -0.5 0.9 0.5 -0.9
-0.5 0.5 0.5 -0.9 0.5 -0.9 0.5 0.5 0.5 0.9
0.5 0.9 0.5 0.5 0.9 -0.5 0.5 -0.5 -0.9 0.5
1 0.25 0.5 0.95 0.4 0.5 1 -0.25 0.5 0.95
-0.4 0.5 -1 0.3 0.5 -1 -0.3 0.5 -0.3 1
0.5 0.3 1 0.5 1 0.3 0.5 1 -0.3 0.5
0.3 -1 0.5 -0.3 -1 0.5 1.05 0 0.5 1.05
0.05 0.5 1.05 -0.05 0.5 1.05 0.1 0.5 1.05 -0.1
0.5 1 0.35 0.5 1 -0.35 0.5 1.05 0.15 0.5
1.05 -0.15 0.5 -0.7 -0.8 0.5 -0.8 0.7 0.5 -0.7
0.8 0.5 0.8 0.7 0.5 0.7 0.8 0.5 0.8 -0.7
0.5 0.7 -0.8 0.5 -0.8 -0.7 0.5 1.05 0.2 0.5
1.05 -0.2 0.5 -1 0.4 0.5 -1 -0.4 0.5 0.4
1 0.5 -0.4 1 0.5 1 0.4 0.5 1 -0.4
0.5 0.4 -1 0.5 -0.4 -1 0.5 1.05 0.25 0.5
1.05 -0.25 0.5 -0.9 0.6 0.5 -0.6 0.9 0.5 0.6
0.9 0.5 0.9 0.6 0.5 0.9 -0.6 0.5 0.6 -0.9
0.5 -0.9 -0.6 0.5 -0.6 -0.9 0.5 1.05 0.3 0.5
1.05 -0.3 0.5 -1.1 -3.61401e-18 0.5 0 1.1 0.5 1.1
0 0.5 3.61401e-18 -1.1 0.5 1.1 0.05 0.5 1.1 -0.05
0.5 0.1 1.1 0.5 -0.1 -1.1 0.5 0.1 -1.1 0.5
-1.1 0.1 0.5 -1.1 -0.1 0.5 -0.1 1.1 0.5 1.1
0.1 0.5 1.1 -0.1 0.5 1.05 0.35 0.5 1.05 -0.35
0.5 1.1 0.15 0.5 1.1 -0.15 0.5 -1 0.5 0.5
-1 -0.5 0.5 0.5 1 0.5 -0.5 1 0.5 1
0.5 0.5 1 -0.5 0.5 0.5 -1 0.5 -0.5 -1
0.5 -1.1 0.2 0.5 -1.1 -0.2 0.5 -0.2 1.1 0.5
0.2 1.1 0.5 1.1 0.2 0.5 1.1 -0.2 0.5 0.2
-1.1 0.5 -0.2 -1.1 0.5 1.05 0.4 0.5 1.05 -0.4
0.5 1.1 0.25 0.5 1.1 -0.25 0.5 -0.8 -0.8 0.5
-0.8 0.8 0.5 0.8 0.8 0.5 0.8 -0.8 0.5 -0.9
-0.7 0.5 0.9 0.7 0.5 0.7 -0.9 0.5 -0.9 0.7
0.5 -0.3 1.1 0.5 0.3 1.1 0.5 0.7 0.9 0.5
0.9 -0.7 0.5 -0.7 -0.9 0.5 -0.3 -1.1 0.5 -1.1
-0.3 0.5 -0.7 0.9 0.5 1.1 0.3 0.5 1.1 -0.3
0.5 0.3 -1.1 0.5 -1.1 0.3 0.5 1.15 0 0.5
1.15 0.05 0.5 1.15 -0.05 0.5 1.15 0.1 0.5 1.15
-0.1 0.5 1.1 0.35 0.5 1.1 -0.35 0.5 1.15 0.15
0.5 1.15 -0.15 0.5 -1 0.6 0.5 -1 -0.6 0.5
0.6 1 0.5 -0.6 1 0.5 1 0.6 0.5 1
-0.6 0.5 0.6 -1 0.5 -0.6 -1 0.5 1.15 0.2
0.5 1.15 -0.2 0.5 -1.1 0.4 0.5 -1.1 -0.4 0.5
0.4 1.1 0.5 -0.4 1.1 0.5 1.1 0.4 0.5 1.1
-0.4 0.5 0.4 -1.1 0.5 -0.4 -1.1 0.5 1.15 0.25
0.5 1.15 -0.25 0.5 1.15 0.3 0.5 1.15 -0.3 0.5
-1.2 -7.22801e-18 0.5 0 1.2 0.5 1.2 0 0.5 7.22801e-18
-1.2 0.5 1.2 0.05 0.5 1.2 -0.05 0.5 -1.2 0.1
0.5 -1.2 -0.1 0.5 -0.1 1.2 0.5 0.1 1.2 0.5
1.2 0.1 0.5 1.2 -0.1 0.5 -0.8 -0.9 0.5 -0.9
-0.8 0.5 0.1 -1.2 0.5 -0.1 -1.2 0.5 -0.8 0.9
0.5 -0.9 0.8 0.5 0.9 0.8 0.5 0.8 0.9 0.5
0.9 -0.8 0.5 0.8 -0.9 0.5 0.5 1.1 0.5 -0.5
-1.1 0.5 -0.5 1.1 0.5 -1.1 0.5 0.5 1.1 0.5
0.5 1.1 -0.5 0.5 0.5 -1.1 0.5 -1.1 -0.5 0.5
1.2 0.15 0.5 1.2 -0.15 0.5 -1.2 0.2 0.5 -1.2
-0.2 0.5 -0.2 1.2 0.5 0.2 1.2 0.5 1.2 0.2
0.5 1.2 -0.2 0.5 0.2 -1.2 0.5 -0.2 -1.2 0.5
-1 -0.7 0.5 -0.7 1 0.5 -1 0.7 0.5 0.7
1 0.5 1 0.7 0.5 1 -0.7 0.5 0.7 -1
0.5 -0.7 -1 0.5 1.2 0.25 0.5 1.2 -0.25 0.5
-0.3 -1.2 0.5 -0.3 1.2 0.5 0.3 1.2 0.5 1.2
0.3 0.5 1.2 -0.3 0.5 -1.2 0.3 0.5 -1.2 -0.3
0.5 0.3 -1.2 0.5 1.25 0 0.5 1.25 0.05 0.5
1.25 -0.05 0.5 -1.1 0.6 0.5 -1.1 -0.6 0.5 0.6
1.1 0.5 -0.6 1.1 0.5 1.1 0.6 0.5 1.1 -0.6
0.5 -0.6 -1.1 0.5 0.6 -1.1 0.5 1.25 0.1 0.5
1.25 -0.1 0.5 1.25 0.15 0.5 1.25 -0.15 0.5 -0.4
-1.2 0.5 0.4 1.2 0.5 -0.4 1.2 0.5 1.2 0.4
0.5 1.2 -0.4 0.5 -1.2 0.4 0.5 -1.2 -0.4 0.5
0.4 -1.2 0.5 1.25 0.2 0.5 1.25 -0.2 0.5 -0.9
-0.9 0.5 0.9 0.9 0.5 -0.9 0.9 0.5 0.9 -0.9
0.5 -1 -0.8 0.5 -0.8 1 0.5 -1 0.8 0.5
0.8 1 0.5 1 0.8 0.5 1 -0.8 0.5 0.8
-1 0.5 -0.8 -1 0.5 -1.3 -3.61401e-18 0.5 3.61401e-18 -1.3
0.5 0.5 1.2 0.5 -0.5 1.2 0.5 1.2 0.5 0.5
1.2 -0.5 0.5 -0.5 -1.2 0.5 0 1.3 0.5 1.3
0 0.5 -1.2 0.5 0.5 -1.2 -0.5 0.5 0.5 -1.2
0.5 1.3 0.05 0.5 1.3 -0.05 0.5 1.1 0.7 0.5
1.1 -0.7 0.5 0.1 -1.3 0.5 -0.7 1.1 0.5 -0.7
-1.1 0.5 0.7 -1.1 0.5 -1.3 0.1 0.5 -1.1 -0.7
0.5 -0.1 1.3 0.5 0.1 1.3 0.5 0.7 1.1 0.5
1.3 0.1 0.5 1.3 -0.1 0.5 -0.1 -1.3 0.5 -1.3
-0.1 0.5 -1.1 0.7 0.5 1.3 0.15 0.5 1.3 -0.15
0.5 -1.3 0.2 0.5 -1.3 -0.2 0.5 0.2 1.3 0.5
0.2 -1.3 0.5 -0.2 -1.3 0.5 -0.2 1.3 0.5 1.3
0.2 0.5 1.3 -0.2 0.5 -1.3 0.3 0.5 0.3 1.3
0.5 -0.3 -1.3 0.5 -1.3 -0.3 0.5 -0.3 1.3 0.5
1.3 0.3 0.5 1.3 -0.3 0.5 0.3 -1.3 0.5 -1.2
0.6 0.5 -1.2 -0.6 0.5 0.6 1.2 0.5 -0.6 1.2
0.5 1.2 0.6 0.5 1.2 -0.6 0.5 -0.6 -1.2 0.5
0.6 -1.2 0.5 -1 -0.9 0.5 -0.9 1 0.5 -1
0.9 0.5 0.9 1 0.5 1 0.9 0.5 1 -0.9
0.5 0.9 -1 0.5 -0.9 -1 0.5 1.35 0 0.5
1.35 0.05 0.5 1.35 -0.05 0.5 1.35 0.1 0.5 1.35
-0.1 0.5 0.4 1.3 0.5 -0.4 -1.3 0.5 -1.3 0.4
0.5 -1.1 -0.8 0.5 -1.3 -0.4 0.5 -0.4 1.3 0.5
1.3 0.4 0.5 1.3 -0.4 0.5 0.4 -1.3 0.5 -0.8
1.1 0.5 -1.1 0.8 0.5 0.8 1.1 0.5 1.1 0.8
0.5 1.1 -0.8 0.5 -0.8 -1.1 0.5 0.8 -1.1 0.5
-1.2 0.7 0.5 -1.2 -0.7 0.5 -0.7 1.2 0.5 0.7
1.2 0.5 1.2 0.7 0.5 1.2 -0.7 0.5 -0.7 -1.2
0.5 0.7 -1.2 0.5 1.3 -0.5 0.5 -1.3 0.5 0.5
0.5 1.3 0.5 1.3 0.5 0.5 -0.5 -1.3 0.5 -0.5
1.3 0.5 0.5 -1.3 0.5 -1.3 -0.5 0.5 -1.4 0
0.5 0 1.4 0.5 1.4 0 0.5 0 -1.4 0.5
[...]
POINT_DATA 5340
FIELD attributes 1
p 1 5340 float
8219.5 6868.24 8187.3 8026.08 13781 13674.1 6841.12 12970 6868.92 7924.81 26348.7
6679.62 8029.56 6824.08 12278.6 26262 24719.6 12926.2 6683.66 6679.93 6853.6
23026.9 6662.54 24772.8 6684.32 8419.02 44255.4 6727.53 8236.04 42198 6730.79
6718.79 7057.22 13165.6 44331 6917.79 13061.2 24148.5 39881.5 6824.33 6697.51
42539.4 24265 6714.28 6695.29 11339 61599.2 6767.4 9470.32 8859.61 19359.9
59516.7 61729.2 6752.02 6753.8 7312.52 15466.1 41242.5 6900.07 6709.96 40887.9
35208.4 57131.6 8471.7 6748.95 59796.9 26665.2 6735.25 6763.66 56436.3 59432.2
25635.2 7208.29 8750.48 56870.3 41162.9 73294.6 6805.94 12592.4 6722.59 6698.64
20116.5 73438.9 8540.63 20650.4 40378.7 71643.3 6794.05 6779.06 60747 70115.3
63008.2 18551.6 6896.92 31909.3 71735.7 6773.67 7101.82 78401.2 54552.6 10026.8
6712.11 87662.5 74916.2 8044.01 17864.9 43698.7 6754.37 6734.43 68500.4 62588
6839.26 79430.8 18252.9 6822.71 6844.74 76202.5 56338 6824.46 6839.41 78557.3
79688 27851.7 11537.8 66255.7 78703.3 96728.6 49680.3 7272.5 6826.12 38027.7
78844.4 8218.76 111222 98894.9 54239.6 65133.3 13008.2 19551.1 6731.05 6692.86
6857.9 6832.1 6857.82 6835.1 6854.46 64716.9 57454.4 87803.8 117852 42043.9
9892.34 6800.65 47284 76822 7039.85 112050 6895.43 25952.1 84690.2 29028.5
6873.42 6889.4 110767 24499.5 133397 6847.21 6881.31 63884 113867 17227.9
6710.17 84540.7 84994.4 35181.4 6897.83 6881.94 118027 138057 38286.8 17935.8
6768.28 56043.4 74526.2 6725.35 86233.1 120117 100880 7834.57 6872.72 43420
11148 85060.3 6944.29 6931.86 6935.62 6871.06 6920.36 134303 84713.3 51094.2
99622.8 8135.83 79908 13192 6843.81 6907.69 6903.7 39346.5 7704.49 6894.52
154768 157635 39639.2 31224.1 6732.04 73982.1 65367 6693.51 123812 92761.2
149557 7001.57 33852.2 6992.26 6987.99 135907 151027 62591.3 24564.1 6801.64
7040.08 93031 93084.2 84402.9 59251 132835 161679 6924.45 6965.11 25181.4
41429 6940.61 6936.92 62388.5 107466 95731.9 131064 147725 7794.76 6914.05
16936.4 48295.2 93653.1 10806.9 6894.99 177770 43192.5 6713.86 75949.7 7055.94
7046.71 7037.36 117557 111388 17446.3 6873.4 11149.6 139431 94468.7 55516.7
6972.24 7006.6 6756.45 175753 168925 38062.8 85273.6 53162.4 68663.4 6735.24
6993.58 6970.73 7773.15 6937.77 11657.3 6905 87279.7 8219.79 152014 153249
32294.1 6827.59 95622.1 63846.7 103835 167364 7093.97 40619.9 18088.6 7085.58
7076.79 6883.4 182607 144256 46946.1 33459.8 7013.67 7046.45 104061 104406
7065.12 7006.84 71897.8 199188 188172 49717.5 46550.2 6725.57 6700.62 87766.2
79492.4 107406 135553 171815 8091.5 6966.01 25186.8 53460.7 104935 13017.5
6921.6 65321.3 196319 169915 44097.2 6776.13 7102.6 97616.2 73515.1 142808
123045 140272 22990.6 6882.46 106345 60965.3 17234.7 7114.18 7101.72 7101.2
7044.29 7074.9 7204.3 7035.53 35111.8 6853.41 8969.97 6986.91 15945.8 6935.02
109678 11541.7 166052 151554 41074.4 6838.47 108313 69683.7 91498.7 209418
49061.3 6713.32 28118.3 6889.39 117610 222160 188465 174923 53690.6 49064.2
7120.12 6739.03 6765.08 46547.3 100609 84389.2 7093.02 7113.27 118308 117797
152467 187561 7082.11 7089.44 40624.1 52568.4 7608 7050.86 39033.4 6856.75
121316 118767 139983 179493 11197.3 6999.06 33862.7 59448.4 167093 111076
8541.63 216268 79709.4 48688.5 6795.69 79507.9 21099.1 44490.5 6944.69 6842.83
135185 120468 142119 156146 34139.5 6901.38 25966.1 67393.1 7117.81 7078.08
7122.68 7190.04 7097.91 43367.4 6867.89 8626.7 7057.32 96575 233175 209280
49327.9 49424.8 6718.8 6697.96 104761 14947.5 7008.42 178098 122915 128469
151577 47917.6 6849.73 18262.4 76329.7 27038.9 6955.94 246672 185383 59136.4
50927.9 6755.54 7312.44 114729 90531.7 39152.1 6909.58 133861 180794 7089.81
52570.3 7077.98 7113.97 189334 58969 46950.7 134584 134041 161272 7534.3
7090.89 46835.6 6877.92 10779.8 7048.6 235043 126277 97242 166236 52050.2
6814.63 12593.7 86372.2 137385 135053 146432 182005 20232.7 7007.05 41438.2
66316.9 50293.3 6864.18 33193.3 6962.55 110337 233028 48483.1 6688.07 119582
50092.7 6917.83 259672 145876 163607 50305.2 6723.75 103067 74544.1 136940
206052 42958 6922.33 35196 148639 7039.73 7151.14 7077.6 8424.83 7069.48
48897.3 6892.17 14118.8 7032.11 272539 130635 68258.3 184446 52552.7 6771.88
9463.82 97807.2 25713.2 6995.73 188394 139765 142981 153631 52432.8 6878.24
27865.3 83746.7 38117.4 6964.85 45317.4 6944.94 152284 187144 7006.68 59450.2
7494.96 7006.23 152929 152506 169805 192633 10677.1 7027.87 117358 125828
53463.4 66317.7 229516 260224 49087.5 47983 6684.04 6853.61 115737 94248.4
167205 251275 54768.6 6827.26 20650.6 143631 19424.5 7005.12 155414 153607
153805 183840 30968.6 6981.28 48297.3 73963.3 136210 205134 288873 52568.8
51478 6731.8 8223.09 110920 41085.3 6967.59 82498.8 150392 168402 48481.5
6949.94 164126 155695 43423.9 7059.05 8295.12 6925.86 298856 148596 81749.6
185067 54334.1 6782.3 106360 15442.2 13753.6 6959.94 24855.2 6965.88 92190
153029 156483 55612.2 6897.76 197650 158849 38033.4 34666.2 6960.7 133470
48477.8 256340 6868.3 143123 228391 291037 48060.1 50710.8 6682.92 8010.55
125838 172595 67393.2 131885 168998 57168.1 6837.35 103402 193217 7482.94
263259 163141 31901.3 10470.2 6923.37 53494.5 6744.81 60963.9 205698 120190
13006.9 173115 154777 176783 197931 57188.8 18033.5 6897.01 74545.4 172886
320408 28539.7 6943.74 175277 174134 186633 55510.8 82500.3 160940 39702.9
6945.76 182068 171931 91531.4 176484 154886 53255.1 6940.79 51081.5 323450
168602 97810.1 186348 56506.2 6790.13 116318 26616.6 151378 254690 286920
48367.2 50385 6867.9 8163.69 142560 8356.52 13311.7 7106.32 21067.1 6919.74
159503 101974 207546 162247 179990 159625 58991 6905.28 47267.9 228822
325263 48926.5 53111.6 6690.85 135779 12845.7 353260 175262 206849 64787.1
56053.4 6753.84 130917 24155.9 6849.07 270283 143815 59716 114061 171246
43668.5 184661 194865 198289 11055.9 76328.8 16047.4 7786.53 195305 195237
204372 180633 26979.8 7525.95 83750 69677.9 197106 160985 196664 284442
189892 166314 50508.8 46393.5 8203 6966.14 63833.6 92195.3 170999 153057
13581.5 254783 48808.1 321503 53208.5 6845.46 342927 190504 113362 59266.4
6799.61 127806 41087.8 202544 199265 174810 158703 58267.7 6913.9 59225.5
101978 188035 183139 362292 229885 50581.6 56088 6697.36 147150 24620.5
220395 203072 163906 162570 62334.4 6901.47 56004 113332 197507 59181
74695.4 6750.4 40744.5 385437 208361 143117 273847 171924 181033 208051
151766 283982 173465 317999 51042.5 53844.7 62769.3 8035.73 13727.1 6855.25
54180.4 126310 360148 192270 219125 255661 210137 49108.8 56718.2 17467.5
6846.58 164913 26102.8 86374.4 79501.4 219578 219577 214139 181484 34891.6
8928.7 94256.8 221056 221175 193650 168212 52803.9 7056.16 103414 73497
354215 214191 126443 189723 62688.4 6804 140804 54455 205733 401010
52354.8 59597.7 6724.28 159890 42352.8 231315 225390 223993 176820 160300
62808.8 68631.3 114073 6887.02 237638 228059 65316.1 166181 163886 65897.1
6890.08 126318 192395 316808 54710.3 13015.9 129067 355753 184209 202737
284570 51383.8 58008.9 7981.34 26277.7 414036 221559 209833 86164.5 62982.9
6751.88 156695 56726.5 277568 63807.9 47832.7 402284 60734.8 7005.03 178115
215314 155585 257004 174487 6854.67 44153.2 140064 233335 66376.6 97817.1
245346 232497 21810.4 245876 245882 219914 41409.8 10343.5 90529.7 106378
439944 230294 232618 55002.5 63829.8 6845.77 173965 59637.3 247248 247650
196510 58700.5 7237.76 84371.4 116341 356775 239865 135291 190501 66679.5
6794.57 155168 65022.3 12440.9 24839 250637 214601 250692 79456.8 353700
205150 178926 317094 59428.8 55228.2 67281.9 6892.63 127830 397951 226335
197894 62527.4 8470.9 44212.6 285816 50349.1 259280 255060 75899.5 167620
69944.8 6885.31 140823 98863 210484 435632 67371.1 6832.65 171587 247775
68365.5 152156 446635 240488 258133 44753.7 65441.7 7568.18 192700 61607.1
285654 260732 73911.7 157612 70685.5 6845.81 155179 23275.8 353720 227988
60333.9 234840 110942 478041 257125 233143 61014.5 68695.4 7307.47 189391
71609.5 273832 26323.6 395066 219421 64402 274475 274445 47558.1 12046.9
103075 120222 238877 223267 13228.6 42395 318282 54770.5 352896 267755
141403 71394.9 6862.52 170825 74423.2 203138 275931 276438 64248.1 7514.22
96564 130954 7873.33 195828 444292 252176 213052 286752 47864.4 67623.1
10042 61655.6 278668 187516 279737 91466.6 71999.5 6917.05 143155 284843
284429 87721.8 445269 276189 112807 72522.1 7249.15 187803 76696.7 175502
74649.9 6877.25 156728 267904 73380.9 258510 38819.8 493194 70753.6 9005.04
208701 23622.5 39945.8 243028 394791 354924 253032 65763.1 60351.6 85219.1
300963 290486 75812.9 6929.03 165555 171612 441128 265400 235317 318957
69815.3 53968.9 16131.8 59791.1 286063 8613.16 206193 78719.2 512908 76820.4
74318.4 304755 255528 30583.4 125876 495215 229765 280155 305539 305425
244223 286940 37690.6 73261.2 13766.1 53263.9 13280.4 117381 135828 73436.2
348039 297954 152678 77014.7 7291.89 187817 84326.4 11031.8 220369 307153
307728 227898 69795.1 7831.25 110341 147204 309716 311311 217593 77353.1
6968.92 104743 159944 297417 12045.2 544162 46063.9 76776.7 226202 79641.7
268739 306882 132944 78646.7 38842.8 8523.31 205387 396129 438168 66319.9
84610.9 440812 355245 259651 280141 71429.2 59713.1 26768.9 56682.2 314133
316342 208014 80248.1 6993.6 100577 174014 252797 492989 75700.4 21149.7
71887.2 293964 318860 53725.9 323789 322775 200449 81939.1 7412.26 97576.6
189433 317348 108612 11552.9 224481 84945 534106 80910 553558 248048
310340 33443.4 79544.2 18536.9 79568 330700 350597 193809 83705.4 8644.4
95568.3 206223 338066 326373 35005.7 142619 339024 338766 315947 15717.5
59262.5 133514 153127 296429 285908 40143.4 53895.2 442643 395987 340794
341467 311494 66288.4 72298.6 76196.6 8352.65 125853 164987 277689 31820.7
68976.4 493279 354727 309409 59306.7 77529.4 595733 245284 84953.8 317738
84368.3 329439 345379 83990.1 7279.97 17279.5 119587 83704.2 343705 178188
340208 418613 185438 85859.6 11526.5 224497 94388.3 86128.3 271679 347505
350841 315325 87197.4 7654.81 27625.6 114720 192768 78667 553214 324977
82152.9 111055 357801 89425.2 309900 353625 8988.46 208762 29884.2 351402
525767 174110 88558 16863.2 244390 93552.9 72601.5 621595 343247 267763
86651 25413.5 84804.5 314436 441950 72718.1 52913 43223.6 65718.7 304640
326662 495757 394879 66181.7 78638.2 89912.3 366418 367312 303433 91765.4
11914 108276 226251 297197 37547.7 77060.9 554109 341467 375071 377809
84152 41425 161068 375830 376230 422986 385994 19188 67591.6 151447
172016 378267 379042 439523 414239 85148.4 9788.08 143174 184304 364430
627286 167238 91598.6 24408.9 265849 92984.1 382044 383559 456667 456348
92873.4 8507.28 136242 197988 406087 294887 94399.8 17098.5 106280 84581.1
625896 358930 291996 89372.6 376909 34401.4 245318 386880 389992 479960
457298 96065.2 9780.99 130651 213142 334380 345906 494641 440076 72866.8
79278.6 54039 63853.6 379558 692366 288936 166694 94662.7 32764.5 92838
325275 47250.5 75112.7 389637 393001 492917 359938 398507 283412 448485
423356 98651.5 97426.1 12849.1 24294.6 126278 229845 265867 104848 556228
85444.8 40243.6 318581 43164.8 84393.4 627068 376781 91511.1 409655 402774
431193 319812 101440 18044 122896 248117 425681 445232 54053.8 181141
32214.3 405397 617832 292081 495899 407505 100609 27023.2 171095 192510
287936 104000 427042 426649 82207.9 397422 718791 429908 430614 314197
522103 413095 97495.8 99383.7 13813.4 40875.8 162325 205268 93105.9 25009.2
424127 424652 406930 230630 104426 267818 120418 367295 492254 435522
436775 436629 539285 79524.6 105642 12198.8 154835 219537 64467.7 356500
380724 555269 86229.7 56939.3 74152.1 443481 445926 460718 542227 107718
14942.2 148637 235428 348189 51909 84359.2 627274 397462 92935.8 425502
743381 312037 307406 103769 39873.2 103863 32572.9 442689 288974 479111
381780 154606 107619 118687 530534 110117 458110 433680 453500 20044.7
143654 252900 419584 725489 342318 99774.1 48907.8 93878.6 473441 465639
504948 351885 113027 26761.5 139765 271770 391391 404788 39861.3 465750
312057 553849 587867 376182 111808 86535.3 110881 117723 67346.8 75555.4
832340 106726 451355 47384.8 338830 104427 495319 465471 73732 202868
625349 93811.1 381172 422824 496004 496343 511262 417912 105978 39123.6
61341.1 192391 214739 85172.4 498717 499474 539198 390592 121498 22116.6
183244 228128 482030 116143 467993 254990 33918.1 292072 136902 491756
448456 373678 57506 95241.8 505401 722257 503978 558834 385600 101320
124359 20596 175347 243167 492768 748290 337685 409291 102560 114142
46964.2 117620 511641 514111 564291 407938 123621 24386.4 168667 259786
368739 40799.4 105809 483289 871307 109143 512412 510975 426381 164600
119372 314257 134970 55338 524668 520653 551982 433780 124600 30231.3
163187 277816 434868 78950.7 419942 456275 625431 94155.6 71949.5 87675.1
409534 485339 714393 102284 67124.5 97437.1 535711 529022 524111 410917
126970 36647.6 158871 297311 521850 118393 908179 366296 446260 101436
117222 54420.8 47526.3 133950 392261 113834 122672 338871 572728 533370
540792 428334 91616.3 226489 518919 540213 540865 477711 376375 51350.9
239038 215458 108016 868208 402522 110825 64202.5 133506 512311 342211
545050 539564 534296 540863 483412 314743 129879 150901 42893.7 35553.2
318681 155671 205864 253196 541060 538989 537420 332094 34236.3 197620
268903 150221 550364 695741 366317 386958 102775 126000 54560.1 133894
548346 120190 1.00603e+06 398469 452260 101312 119782 62680.4 475454 499367
537662 546356 356174 145295 37219 286067 83684.7 91513.3 540644 190597
549753 537018 432548 192957 133019 49127.6 342400 153518 457473 526798
712793 102665 100723 77853.2 534026 143108 184737 535622 416098 41747.5
304791 538075 551840 848427 445250 111913 74045.5 111049 859118 129169
557691 399497 101457 134820 397165 62313.8 525570 508827 454655 143848
546629 545049 383682 120463 136269 55741.1 368802 152396 531298 46740.3
325413 180038 563752 122907 437816 1.01891e+06 409604 101299 121623 71824.4
498721 364332 98868.5 252355 428247 301993 496436 497457 150767 62743.7
240658 265587 96475.3 545302 508894 469634 382706 146064 52081 348311
176482 517395 467891 283367 525416 562679 105024 89668 490749 492396
179416 52365.7 230452 280333 531282 398510 579896 346505 103377 139566
63043.6 152352 549641 136837 996914 434368 400738 502909 291732 101314
131865 480898 483118 180277 50108.9 221700 296620 70867.2 507802 570218
84841.6 840172 112346 114959 465450 518584 330215 172402 50773.9 314621
468311 214315 492730 480958 418958 234239 148901 58088.3 373781 174056
558714 985094 494827 323589 101298 122861 81788.5 126403 442642 511521
407743 166218 446248 53268.3 208157 334557 230450 497630 434389 658366
322154 101509 142755 71079.9 153371 518871 438866 132321 80165.4 139832
64904.7 402605 172772 363374 151941 1.04208e+06 487269 374110 101300 133872
453445 410917 487492 478046 164161 415501 57063.4 356661 203153 577061
576158 110465 102725 569995 560679 119809 96841.1 560402 523641 375230
130742 92800.9 966912 369322 344636 450496 240601 251815 430926 101298
123363 165018 96351.9 280368 62018.9 381317 199297 342024 149214 341129
186413 407221 72639.5 268106 294183 101274 121771 484875 781821 440359
311792 101318 145566 79787.8 155456 387232 312471 104329 155058 331518
332850 211048 448077 195292 66987.9 257315 309631 397780 437883 72456
172678 315318 316977 487713 255245 207407 64164.3 326882 247950 457004
552198 1.01465e+06 318221 101298 135264 90380.6 143605 242666 326187 68091.6
409660 196619 318265 399754 272274 167265 294482 506164 317836 63263.2
240024 346119 292525 201912 549740 117043 328773 173723 408627 487318
360917 270955 101571 158174 80645.8 572038 510261 265948 263688 500537
193471 125695 110140 64693.4 233476 367498 360947 547726 89339.6 158554
874126 306516 101300 147745 582423 448665 136017 105085 210917 101298
271071 258311 342910 145210 169908 75078.6 445365 195141 232890 230385
477859 488490 188076 68139 391578 228177 365074 148213 585701 101741
996948 265495 101298 135834 418808 251134 101321 161050 175825 254119
89603.3 547743 197739 195079 452347 186884 224067 441780 73111.2 420117
136703 115773 195843 279242 105331 172675 176521 75796.6 92166.7 310588
494925 214868 82746.9 194926 174702 174307 104543 79800.2 137183 297658
325229 168736 270863 897136 585934 168147 169504 300291 101298 196924
149286 99935.5 77082.5 162510 341720 286292 467929 410725 132522 124621
158982 158281 241395 227527 75333.3 360186 276404 508802 339206 142208
118590 163723 168963 101298 160754 390128 291519 188218 79241.9 457644
221181 146539 145817 320250 230448 74865.2 380966 267956 535322 260771
153733 114313 153953 226329 101615 175603 195944 225046 101298 552247
164767 91167.9 585758 255783 178975 526384 163355 99524.5 185327 101300
133198 132502 419064 223235 76718.6 405022 260914 135185 131311 86271.5
507946 333267 151239 190325 219521 188149 550415 900817 289066 101298
149920 111659 167313 120994 120404 497947 215213 80430.8 435101 255220
198052 160849 211841 101322 178438 128552 100484 585922 140309 282171
101298 336396 224525 127047 149279 133267 609209 278244 101299 165008
560466 116005 112220 192575 105563 192628 94123.1 219151 111792 556953
135422 111378 453835 211586 110508 85424.6 183082 475681 250814 107851
74730.7 92538.3 343532 107588 381141 171601 177342 101298 128071 107541
109799 126926 329718 359216 160151 86749.9 106775 106712 185934 192234
86080.9 377068 317618 105592 105527 263545 397749 307139 241674 86033.5
106204 105925 284031 211784 91549.7 525589 247716 413375 131978 257670
101298 124576 173017 104323 104270 87024.2 423117 228391 101300 201218
212029 180763 556917 347945 256402 298196 109819 110792 104738 195229
585662 106430 152528 101597 102844 220097 208759 146267 151687 189131
110639 432293 188062 122654 103177 89790.1 456575 642055 302730 165693
103217 451752 253653 290711 103359 103138 144490 213299 98694.9 570048
245883 101298 172053 142611 105910 149246 157376 203735 120537 101298
130081 167512 143064 102362 102391 510196 244831 93807.1 499638 284632
104272 550299 174282 101318 197879 222188 102867 112507 272514 265158
101299 182471 438413 103414 122217 205417 200148 101298 232638 107993
138706 179657 582329 102075 101903 77852.4 104540 215111 106768 245357
101834 98897.9 279908 545472 101854 426115 238933 101650 128024 98256.4
379886 254377 103188 101634 101636 166392 122640 95978.1 135998 193947
364752 397759 291522 101592 101589 241957 187166 96683.4 419936 351716
101527 101524 316568 251983 98094.1 105132 448827 340508 577062 101539
101551 244015 237994 276567 211614 101299 225353 432170 101728 108432
200132 123235 214829 140857 535109 101557 101479 103777 101503 217250
115739 246216 101457 101455 100372 485699 166668 108668 101298 407745
101922 330985 280167 300379 265815 101775 307146 183189 134823 210551
175955 159429 101298 104299 116195 106421 126002 102377 101298 139305
154119 187310 101396 283990 527077 101397 498103 103780 323043 101393
112396 571855 238940 274545 101402 126418 230709 200819 135734 101639
150576 101353 101352 493779 276373 108117 562801 316592 101419 413130
101375 155935 101311 219592 125744 248293 265760 101403 116505 258529
101299 201852 135127 229611 101365 101329 508472 101336 90240.8 102910
240268 120618 273861 142761 101393 148647 216633 313209 101298 101325
101326 347907 268856 113496 311537 576069 101316 177217 185578 102146
101298 101298 101684 232354 101988 101376 108401 425920 101315 266945
124035 405789 451795 101315 107912 254218 101319 101313 101313 326853
205431 101299 182739 109439 136903 251503 483719 390005 101298 101557
101451 102905 107987 221700 170887 196072 101311 266868 119905 549440
101311 180195 307920 115259 159332 101310 101307 101391 241853 111777
129841 519285 380782 145288 101321 148231 234908 121283 307302 388739
202587 259075 274636 101310 101311 119233 377259 153682 103942 101352
166444 208756 101306 101306 114861 552064 464162 366753 302460 101305
105022 101315 101304 101304 109821 267329 163709 127247 223765 305682
467472 255894 101333 101303 118763 314381 358120 490312 570225 101303