/*--------------------------------*- C++ -*----------------------------------*\
  =========                 |
  \\      /  F ield         | OpenFOAM: The Open Source CFD Toolbox
   \\    /   O peration     | Website:  https://openfoam.org
    \\  /    A nd           | Version:  9
     \\/     M anipulation  |
\*---------------------------------------------------------------------------*/
FoamFile
{
    format      ascii;
    class       volScalarField;
    location    "0.00115";
    object      overpressureMax;
}
// * * * * * * * * * * * * * * * * * * * * * * * * * * * * * * * * * * * * * //

dimensions      [1 -1 -2 0 0 0 0];

internalField   nonuniform List<scalar> 
10822
(
54.0938
0.011994
3.4502e-05
1.02162e-06
2.38506e-08
120109
138461
0.874344
0.26375
9.9725
0.0713349
0.000563348
0.000115345
1.2095e-05
2.79318e-06
2.84257e-07
6.89179e-08
0.000183911
4.37131e-06
1.09489e-07
0.000815411
1.83708e-05
4.42262e-07
2.73333e-05
6.39906e-07
1.20635e-08
1.16415e-10
0.0818134
0.000279519
1.0416e-05
1.66707e-07
2.663e-09
1.35782e+06
0.070782
0.000486241
5.90754e-05
1.09954e-06
1.03384e+06
0.0795111
0.000331222
1.96426e-05
4.35291e-07
49006.4
12.1172
0.000150557
3.24442e-06
7.53062e-08
0.0376102
0.00331326
2.29786e-05
6.30549e-07
1.3315e-08
0.012995
6.60005e-05
1.91529e-06
4.34084e-08
8.00355e-10
0.00532862
6.01946e-05
2.28586e-06
6.29661e-08
1.42609e-09
0
1.60647e-06
5.66506e-08
1.5134e-09
0
0
3.33093e-08
1.13505e-09
0
0
0
5.82077e-10
0
0
0
0
0
0
0
0
0
298.31
0.0123485
0.000293851
4.24033e-06
0.620876
0.0010973
6.68955e-05
1.8284e-06
528134
0.0527268
0.00139828
3.14129e-05
4.80504e-07
10.8465
0.0592948
7.16735e-05
1.98174e-06
4.94911e-08
0.0946654
0.000229657
5.67157e-06
1.47978e-07
3.37604e-09
0.0750528
0.000219658
7.00795e-06
2.14568e-07
5.79166e-09
1.01863e-10
8.4875e-05
5.02726e-06
1.95883e-07
6.22822e-09
1.16415e-10
0
2.08637e-06
1.18162e-07
4.65661e-09
1.01863e-10
0
0
4.54893e-08
2.45927e-09
2.91038e-11
0
0
0
7.85803e-10
0
0
0
0
0
4067.93
842.636
0.00662757
0.0025652
2.54083e-05
6.0568e-07
1.11759e-08
4.29306e-05
1.02266e-06
1.8932e-08
2.97701
11.9942
0.000714233
0.000875515
1.37936e-05
1.80083e-05
2.97572e-07
4.00774e-07
1.01863e-10
5.09317e-10
5.82077e-10
1.30967e-10
0
0
0
0
0
0
0
0
8.33825e-09
3.37313e-08
3.86062e-08
1.34896e-08
1.86265e-09
1.30967e-10
0
0
0
0
0
0
4.17785e-07
1.67859e-06
1.90873e-06
7.25748e-07
1.14946e-07
1.26311e-08
5.67525e-10
0
0
0
0
0
6.67524e-05
7.55394e-05
2.94236e-05
9.05994e-06
6.87462e-07
3.38623e-08
1.22236e-09
0
0
0
0
0.0589335
0.00295721
0.000823219
0.000476723
3.07545e-05
1.7065e-06
6.31408e-08
1.80444e-09
0
0
0
93220.1
7.03328
1.31344
0.100776
0.00203968
9.41822e-05
3.01412e-06
7.86677e-08
1.86265e-09
0
0
1.28237e+06
776627
520936
19442.7
9.62718
0.00987887
0.000157218
3.10532e-06
6.84377e-08
1.44064e-09
0
837861
412.7
0.015883
0.000106832
2.01343e-06
4.07308e-08
6.8394e-10
62.0227
0.00399724
4.09038e-05
8.14543e-07
1.50467e-08
0
1.16415e-10
1.45519e-10
0
0
0
0
0
0
0
0
0
2.72121e-09
1.03464e-08
1.13505e-08
3.73984e-09
5.09317e-10
0
0
0
0
0
0
0
1.19791e-07
4.68004e-07
5.20784e-07
1.70359e-07
2.90602e-08
2.53203e-09
1.16415e-10
0
0
0
0
0
2.39412e-05
2.67861e-05
7.15765e-06
1.32622e-06
1.27809e-07
7.78527e-09
2.61934e-10
0
0
0
0
0.00177726
0.00111632
0.000341947
5.12948e-05
7.34127e-06
3.72762e-07
1.52941e-08
4.22006e-10
0
0
0
173.881
0.133743
0.0367107
0.00371351
0.000339145
1.64471e-05
6.73826e-07
2.00525e-08
4.80213e-10
0
0
1.02785e+06
17807
3683.57
31.2718
0.0777357
0.000414692
2.56126e-05
7.46324e-07
1.80735e-08
3.7835e-10
0
23067.4
0.557319
0.00131418
2.21094e-05
5.22123e-07
1.1074e-08
1.30967e-10
0.112663
0.000219289
9.03012e-06
2.00627e-07
4.01633e-09
0
0
0
0
0
0
0
0
0
0
0
0
9.02219e-10
3.68163e-09
3.46336e-09
1.07684e-09
8.73115e-11
0
0
0
0
0
0
0
4.34084e-08
1.7097e-07
1.64233e-07
5.43077e-08
6.17001e-09
4.80213e-10
0
0
0
0
0
0
6.6667e-06
6.53193e-06
2.26487e-06
3.47369e-07
2.73285e-08
1.86265e-09
4.36557e-11
0
0
0
0
0.000228992
0.000231771
7.15213e-05
1.96281e-05
1.22526e-06
8.97708e-08
3.76895e-09
7.27596e-11
0
0
0
0.253848
0.0127564
0.0023143
0.000470927
4.4703e-05
3.6952e-06
1.6026e-07
5.04951e-09
1.01863e-10
0
0
103730
24.9579
4.01596
0.0609342
0.00153046
0.000128172
5.62867e-06
1.79643e-07
4.61296e-09
4.36557e-11
0
3.40891
0.00849676
0.000164325
4.95504e-06
1.29614e-07
2.85218e-09
0
0.116963
7.8093e-05
2.28827e-06
5.51954e-08
1.10595e-09
0
0
0
0
0
0
0
0
0
0
0
0
2.91038e-11
3.0559e-10
2.32831e-10
2.91038e-11
0
0
0
0
0
0
0
0
4.49654e-09
1.84518e-08
1.54105e-08
4.72937e-09
5.96629e-10
0
0
0
0
0
0
0
9.2038e-07
8.14282e-07
2.26035e-07
3.07482e-08
3.4197e-09
1.30967e-10
0
0
0
0
0
4.83123e-05
4.53875e-05
1.22297e-05
1.26126e-06
1.57772e-07
9.95351e-09
3.49246e-10
0
0
0
0
0.0042557
0.00110328
0.000474688
4.77431e-05
6.94196e-06
4.39468e-07
1.68948e-08
5.09317e-10
0
0
0
272.897
0.141942
0.0518701
0.00437634
0.000336597
2.16297e-05
6.51431e-07
1.90339e-08
4.65661e-10
0
0
0.0387965
0.000869418
2.71654e-05
5.92263e-07
1.43336e-08
2.61934e-10
0
0.00060796
1.52584e-05
3.14802e-07
6.94126e-09
1.01863e-10
0
0
0
0
0
0
0
0
0
0
0
0
0
0
0
0
0
0
0
0
0
0
0
0
2.32831e-10
9.8953e-10
8.14907e-10
2.32831e-10
0
0
0
0
0
0
0
0
4.96075e-08
4.47471e-08
1.31695e-08
2.11003e-09
1.30967e-10
0
0
0
0
0
0
2.35857e-06
2.23688e-06
6.49612e-07
9.81672e-08
9.31323e-09
5.09317e-10
0
0
0
0
0
9.87024e-05
9.69491e-05
3.44271e-05
4.01823e-06
4.04034e-07
2.18861e-08
8.14907e-10
0
0
0
0
0.0174174
0.00182922
0.000820546
0.000161498
1.90274e-05
8.59349e-07
3.07482e-08
9.02219e-10
0
0
0
0.146047
4500.06
0.0984555
0.0105789
0.000756259
3.83066e-05
9.98043e-07
2.79397e-08
6.8394e-10
0
0
0.00107081
3.02537e-05
6.62767e-07
1.60508e-08
2.76486e-10
0
0
0
0
0
0
0
0
0
0
0
0
0
0
0
0
0
0
0
0
0
0
0
0
0
0
0
0
0
0
0
0
0
0
0
0
0
4.51109e-10
1.60071e-09
1.45519e-09
4.36557e-10
1.45519e-11
0
0
0
0
0
0
0
1.96451e-08
7.23521e-08
6.82194e-08
2.00962e-08
3.46336e-09
2.61934e-10
0
0
0
0
0
0
7.98362e-07
2.92482e-06
2.86715e-06
8.72868e-07
1.37545e-07
1.28202e-08
6.8394e-10
0
0
0
0
0
3.23406e-05
9.49557e-05
9.61554e-05
3.75695e-05
4.6011e-06
4.54587e-07
2.50002e-08
9.74978e-10
0
0
0
0
0.0120241
0.00114567
0.00057386
0.000131408
1.59069e-05
7.69214e-07
2.8449e-08
8.00355e-10
0
0
0
0.0106772
0.000292048
2.08032e-05
6.50529e-07
1.95723e-08
5.09317e-10
0
0
0
0
0
0
0
0
0
0
0
0
0
0
0
0
0
0
0
0
0
0
0
0
0
0
0
0
0
0
0
0
0
0
0
0
0
0
0
0
0
0
0
0
0
0
0
0
0
0
4.94765e-10
1.86265e-09
1.70257e-09
4.94765e-10
5.82077e-11
0
0
0
0
0
0
0
1.91794e-08
6.82048e-08
6.64149e-08
1.99361e-08
3.57977e-09
2.61934e-10
0
0
0
0
0
0
6.33314e-07
2.20101e-06
2.21636e-06
7.00966e-07
1.16634e-07
1.10449e-08
5.82077e-10
0
0
0
0
0
5.01987e-05
5.20583e-05
2.057e-05
2.90772e-06
3.01385e-07
1.75351e-08
6.8394e-10
0
0
0
0
3.70307e-05
5.14369e-06
3.68309e-07
1.5134e-08
4.65661e-10
0
0
0
0
0
0
0
0
0
0
0
0
0
0
0
0
0
0
0
0
0
0
0
0
0
0
0
0
0
0
0
0
0
0
0
0
0
0
0
0
0
0
0
0
0
0
0
0
0
0
0
0
0
0
0
0
0
0
0
0
0
0
0
3.7835e-10
1.39698e-09
1.39698e-09
3.7835e-10
1.45519e-11
0
0
0
0
0
0
0
1.26747e-08
4.33938e-08
4.35393e-08
1.34751e-08
2.45927e-09
1.89175e-10
0
0
0
0
0
0
1.00002e-06
1.03384e-06
3.41388e-07
6.2093e-08
6.14091e-09
3.34694e-10
0
0
0
0
0
9.13482e-07
1.0652e-07
7.39237e-09
2.61934e-10
0
0
0
0
0
0
0
0
0
0
0
0
0
0
0
0
0
0
0
0
0
0
0
0
0
0
0
0
0
0
0
0
0
0
0
0
0
0
0
0
0
0
0
0
0
0
0
0
0
0
0
0
0
0
0
0
0
0
0
0
0
0
0
0
0
0
0
0
0
0
0
0
0
0
0
0
1.89175e-10
8.00355e-10
8.00355e-10
1.74623e-10
0
0
0
0
0
0
0
0
1.81317e-08
1.87574e-08
6.09725e-09
1.16415e-09
8.73115e-11
0
0
0
0
0
0
1.88156e-08
1.97906e-09
1.01863e-10
0
0
0
0
0
0
0
0
0
0
0
0
0
0
0
0
0
0
0
0
0
0
0
0
0
0
0
0
0
0
0
0
0
0
0
0
0
0
0
0
0
0
0
0
0
0
0
0
0
0
0
0
0
0
0
0
0
0
0
0
0
0
0
0
0
0
0
0
0
0
0
0
0
0
0
0
0
0
0
0
0
0
0
0
0
0
0
0
0
2.61934e-10
2.61934e-10
5.82077e-11
0
0
0
0
0
0
0
0
2.61934e-10
0
0
0
0
0
0
0
76.118
0.0519149
0.0114941
60339.9
0.000513591
0.000536901
0.00025836
0.0019513
1.62323e-05
1.68086e-05
4.65268e-06
5.94628e-05
2.5917e-07
2.68454e-07
9.07894e-08
1.71666e-06
4.55475e-09
4.72937e-09
1.68802e-09
4.11092e-08
1.15913e+06
0.040572
0.000334486
890108
0.00914221
9.58794e-05
7269.5
0.00980817
2.25069e-05
0.0100805
0.000147354
3.95307e-06
0.000410398
9.68426e-06
2.40398e-07
0.000213122
9.0172e-06
2.85596e-07
7.72707e-09
4.2797e-06
2.06681e-07
7.01402e-09
1.30967e-10
8.93488e-08
4.30737e-09
1.01863e-10
0
1.67347e-09
1.45519e-11
0
0
0
0
0
0
3.38853
3810.09
1.71696
0.0132057
0.00204
0.00880999
0.00296554
4.89378e-05
4.22915
0.0146361
6.1337e-05
3.02173e-05
1.37402e-05
1.07889e-06
0.000483347
0.000433676
1.77574e-06
8.87303e-07
2.53596e-07
2.17697e-08
9.23456e-06
8.73246e-06
4.25061e-08
1.98343e-08
3.92902e-09
3.0559e-10
2.04105e-07
1.98081e-07
0.00108351
1.745e-05
3.04513e-07
5.70435e-09
5.82077e-11
0.00876741
0.000220665
4.00119e-06
8.14762e-08
1.5425e-09
0.158557
0.00854335
2.7701e-05
8.20379e-07
1.83936e-08
0.434773
0.000180364
3.80276e-06
9.06293e-08
1.67251e-05
2.9392e-07
2.11837e-06
4.70609e-08
6.22953e-07
1.32277e-08
9.49367e-08
1.84809e-09
5.31145e-09
4.36557e-11
1.16415e-10
0
0
0
0
0
0
0
0
0
0.074037
0.000179001
3.77405e-06
8.99454e-08
14.6028
0.0272025
0.00146033
0.00124917
2.99207e-05
2.70635e-05
6.57776e-07
6.2077e-07
14.0829
12.3444
0.00169111
0.00162359
3.81128e-05
3.75695e-05
8.99076e-07
9.15097e-07
0.000896913
0.295066
0.0617925
1.55895e-05
0.000244422
0.00857139
0.000189771
0.010854
0.0673058
3.3238e-07
4.84043e-06
3.47464e-05
3.90979e-06
4.34672e-05
0.00286042
6.65023e-09
1.00859e-07
8.41843e-07
7.79837e-08
9.43954e-07
1.30781e-05
7.27596e-11
1.8772e-09
1.6822e-08
1.42609e-09
1.91358e-08
2.20476e-07
0
0
2.32831e-10
0
3.0559e-10
3.4488e-09
0
0
0
0
1.16415e-10
1.36788e-09
4.65661e-10
9.21136e-09
8.75589e-08
2.82598e-08
4.91767e-07
7.09777e-06
1.42207e-06
2.18274e-05
0.000374017
6.61409e-05
0.0002356
0.0737509
0.000414218
0.0254336
14882.3
694.77
0
0
0
0
0
3.7835e-10
1.01863e-10
2.02272e-09
2.14932e-08
6.57747e-09
9.85892e-08
9.37478e-07
3.08108e-07
4.83773e-06
3.48593e-05
1.28427e-05
0.000120039
0.00236894
0.000146744
0.00382165
19.4066
0.579783
0
0
0
0
0
5.82077e-11
0
4.36557e-10
5.15138e-09
1.44064e-09
2.29338e-08
2.71175e-07
6.96455e-08
1.0251e-06
1.65013e-05
2.85926e-06
3.75947e-05
0.000473744
9.19924e-05
0.000309706
0.0572869
0.00169118
0
0
0
0
0
0
0
0
5.23869e-10
1.16415e-10
3.24508e-09
2.68483e-08
8.89122e-09
1.5166e-07
1.08599e-06
3.75454e-07
6.20387e-06
3.94756e-05
1.44861e-05
0.000241336
0.00500195
0.000631423
0.00377032
0
0
0
0
0
0
0
0
0
0
1.16415e-10
1.68802e-09
4.22006e-10
8.3237e-09
7.4695e-08
1.93249e-08
3.51225e-07
2.89561e-06
7.33286e-07
1.36051e-05
0.000108656
2.6947e-05
0.000585883
0.00773472
0
0
0
0
0
0
0
0
0
0
0
0
0
2.32831e-10
2.76486e-09
5.96629e-10
1.13214e-08
1.03828e-07
2.21044e-08
3.94051e-07
3.38712e-06
6.66318e-07
1.18068e-05
9.72808e-05
0
0
0
0
0
0
0
0
0
0
0
0
0
0
1.45519e-11
0
2.61934e-10
2.83762e-09
5.09317e-10
9.73523e-09
8.97708e-08
1.5687e-08
2.65456e-07
2.26271e-06
0
0
0
0
0
0
0
0
0
0
0
0
0
0
0
0
0
0
0
1.30967e-10
1.96451e-09
2.61934e-10
5.47152e-09
5.01459e-08
0
0
0
0
0
0
0
0
0
0
0
0
0
0
0
0
0
0
0
0
0
0
5.82077e-11
9.31323e-10
0
0
0
0
0
0
0
0
0
0
0
0
0
0
0
0
0
0
0
0
0
0
0
0
44.2261
1.44539
0.000219741
4.591e-06
1.0815e-07
0.000613092
0.0929838
82333.8
0.00038919
5268.18
233278
19.6676
3.2882e-05
0.00037281
0.0667596
8.82074e-05
0.00200315
1.20467
0.00298372
7.17439e-07
1.10353e-05
3.22406e-05
2.2014e-06
2.86827e-05
0.00012523
4.44232e-05
1.29221e-08
1.6272e-07
9.56818e-07
4.86762e-08
6.74831e-07
2.86622e-06
1.11187e-06
1.30967e-10
2.70666e-09
2.27883e-08
8.87667e-10
1.22673e-08
6.95727e-08
2.13477e-08
1.5896e-05
0.0142367
45190.9
1.26583e+06
4.97757e-06
0.000248344
78.9743
980740
1.66896e-06
4.93303e-05
0.0524266
55150.5
2.04309e-07
1.03558e-05
0.00096351
114.919
1.28639e-08
6.02522e-07
3.00259e-05
0.00644657
0.0358611
1.26175e+06
1.21016e+06
1.25087e+06
51817.3
548950
1.01606e+06
607651
591852
161809
1041.39
14.546
9554.17
386149
154.161
1.13945e+06
621653
77737.3
778484
1.3041e+06
183579
1.16279e+06
636407
1.30204e+06
1.26343e+06
186279
92184.4
1.16206e+06
1.1293e+06
20602.3
108.599
30.5637
21641
1.08796
216358
32.3527
244388
1.55023
30968.7
251798
30410.2
44.7487
1.51427
9.41545
17895.8
0.89911
0.211841
4411.93
205394
28.4371
23974.6
37.9467
174638
10.3109
1.18279
4657.31
0.220114
303148
1.12275e+06
678828
4053.16
7.65641
196352
2365.06
79965.6
1.24331e+06
1.13624e+06
47763
1797.51
1.11378e+06
990691
1.12648e+06
494850
37430.2
62091.2
1246.9
1.1765e+06
982749
5763.27
182952
19.1846
17214.8
1.07857e+06
57.6497
296453
7275.54
1.07891e+06
1.0309e+06
57.9647
21.2174
297087
192705
337637
2.91588
0.0570209
674.067
71715.2
7946.84
4.38227
578.956
3.20701
0.0639144
0.0997508
1384.47
6.41114
97122.4
62116.5
0.0671505
636.663
0.100637
1393.96
6.40467
96694.4
41058.9
15082.3
0.223933
4.83255
0.0342934
0.110586
1995.3
1.31179e+06
1.27212e+06
1.31729e+06
1.23725e+06
1.19624e+06
1.15619e+06
1.19468e+06
7535.02
1.29638e+06
1.07505e+06
229798
142.092
1.21455e+06
700783
6.90554
789541
657978
990729
2473.62
536275
59.149
136.623
989842
656715
9.83644
0.348355
124328
5277.8
8.79672
192980
107836
0.505427
0.20476
6395.1
2241.82
1.12134e+06
8855.14
260430
734.228
15.2423
912555
355172
4.85618
0.185631
13336.1
39.9139
0.0419496
1922.19
0.104364
2706.2
111647
8.26826
86.7201
597953
0.257678
3413.92
1.26945e+06
1.29742e+06
1.26294e+06
1.14712e+06
1.18801e+06
1.1524e+06
1.18216e+06
1.29077e+06
1.26707e+06
1.25666e+06
1.14071e+06
1.18575e+06
1.14993e+06
1.17522e+06
1.243e+06
1.29088e+06
1.25471e+06
1.14013e+06
1.16803e+06
1.12935e+06
1.17655e+06
88.0449
1.09017e+06
643348
407.83
1.66649
851450
79513.4
8.16145
2101.91
0.191021
24.9756
193254
0.505987
6413.88
0.184497
2.05547
40984.6
0.0381047
0.0521487
139.559
1050.24
1.27812e+06
1.22601e+06
1.24352e+06
1.12917e+06
1.15011e+06
1.11406e+06
1.16378e+06
3136.34
0.0502364
13.2436
19443.4
131.72
1.87034
0.046649
279.853
1.13434e+06
828049
67.2924
647880
1.07488
55469.4
1.22525e+06
1.20979e+06
1.17791e+06
1.11584e+06
1.10163e+06
1.0743e+06
1.14932e+06
1.28756e+06
1.19426e+06
1.22053e+06
1.13145e+06
1.17514e+06
1.14086e+06
1.10729e+06
600463
558591
540662
450243
411292
358562
312382
1.20306e+06
1.21514e+06
1.17239e+06
1.12991e+06
1.09292e+06
1.06618e+06
1.10342e+06
0.155979
60927.3
1988.09
0.0980138
0.035137
1017.02
27.8188
1.22372e+06
1.24188e+06
1.19807e+06
1.15153e+06
1.11241e+06
1.08899e+06
1.12933e+06
3.47796
899.222
0.0845366
0.112512
1325.23
19.1778
0.0418089
1.22559e+06
1.15364e+06
1.21614e+06
1.10643e+06
1.06499e+06
1.11558e+06
1.05476e+06
570795
447595
506635
257700
349160
240844
149180
29518.4
1.76642
0.0493839
179361
19.2052
112.242
0.0626136
1.2005e+06
1.14952e+06
1.21256e+06
1.10414e+06
1.00383e+06
1.0379e+06
1.09355e+06
1.22725e+06
1.15681e+06
1.22107e+06
1.11194e+06
1.06521e+06
1.11743e+06
1.05599e+06
1.18704e+06
1.14248e+06
1.20331e+06
1.09586e+06
1.00619e+06
1.0805e+06
1.03718e+06
171151
250466
177755
27093.5
29082.2
12483.1
11604.4
1.51967
1451.08
67681.1
100.593
2.3204
641149
346880
15.2815
1.05053
0.0980087
4952.63
0.263435
14.0203
0.063539
1256.38
0.0497066
0.356734
6735.74
0.346793
18.8485
0.0606102
965483
1.12584e+06
1.08831e+06
1.05323e+06
931027
861992
1.08689e+06
246976
172044
178440
27614.2
29395.8
12534.5
11640.9
966092
1.13618e+06
1.00764e+06
1.04788e+06
772439
973766
626371
1.17959e+06
1.09776e+06
1.13666e+06
1.03231e+06
1.01604e+06
956389
1.07099e+06
1.26655e+06
1.22403e+06
1.19602e+06
1.18587e+06
1.15934e+06
1.09778e+06
1.12152e+06
210975
217731
145269
18724
20238.3
8679.23
8015.81
0.209727
0.0653924
130.15
15.4729
0.0245927
6.82619
0.0547113
10.2709
1.15186e+06
239530
10.9991
0.0383116
153998
82.3208
96069.4
697.665
1.10159
1.20133
53444
25.3782
0.0394483
0.270218
1.50583
879.127
13.5864
0.022413
0.0677848
0.0525074
209455
156549
131554
23590.6
17932.6
9747.5
7235.32
1.16751e+06
1.13649e+06
1.16699e+06
1.10294e+06
977472
1.07341e+06
1.06372e+06
219805
142875
147047
19843
20707.1
8854.91
8428.84
185726
131459
112411
17548.2
14007
7360.45
5778.91
459730
766492
563314
244094
433975
261479
111747
1.16638e+06
1.09524e+06
1.13907e+06
953139
1.06144e+06
1.0323e+06
866839
1.1831e+06
1.10931e+06
1.15981e+06
944201
1.07703e+06
1.04646e+06
848645
1.21193e+06
1.13164e+06
1.16688e+06
1.0564e+06
1.04262e+06
973578
1.10188e+06
6392.02
156966
58639.6
87352.2
10020.6
4015.69
2382.79
55197.8
0.133628
260.989
13384.5
5.24218
914.988
0.142795
1.13091e+06
1.10826e+06
1.08333e+06
1.05647e+06
1.03191e+06
919440
974343
504938
336798
472080
83649
230388
178144
53036.6
822910
1.06997e+06
804206
806916
785688
346916
373909
1.07003e+06
826507
813133
809806
793939
361329
379724
2298.38
2.24201
0.0921518
6.96742
207349
0.211454
6920.98
2.69731
208053
107480
0.218034
0.116698
7080.35
2826.23
1.03064e+06
756916
1.07407e+06
690416
669796
1.03992e+06
1.06461e+06
706389
1.05471e+06
767423
669251
741598
294043
217351
0.150997
434289
5851.13
0.104135
0.0435613
1156.77
3.85886
1.01549e+06
975629
452990
776968
694330
920162
1.04617e+06
869085
1.00964e+06
1.06993e+06
1.03801e+06
405209
718083
910840
1.02327e+06
1.04907e+06
527605
707228
615739
993321
1.06657e+06
1.03654e+06
757192
1.0765e+06
690906
667998
1.04246e+06
1.07153e+06
1.01485e+06
712922
1.03415e+06
545786
624215
984736
1.05439e+06
130088
64037.7
99213.1
7081.89
12000.1
4716.79
2609.7
1.0742e+06
1.06529e+06
1.10818e+06
962575
541159
835576
733813
490281
279726
469409
85605.7
34346.2
97147.6
29626.1
1.05502e+06
732607
783624
696000
757690
318608
250131
493989
282180
478804
89614.4
34488.3
98853
30148
454170
354136
219886
143601
65864.5
51414.7
17058.4
1.2516e+06
1.16144e+06
1.18248e+06
1.12119e+06
1.1441e+06
1.08189e+06
954917
0.0584188
55069.4
22.0463
0.0705942
0.0219726
646.217
0.303841
57.0015
0.0737852
0.0268468
0.0046384
0.0179504
0.0759848
0.98697
0.0483419
6.95874
0.0372266
0.0456304
9.84091
16.5212
0.0549435
6.24353
10.4989
0.0337489
0.0431636
9.5766
15.8608
0.0507526
0.0371195
15.5283
0.0541807
14.7791
0.053547
16.6173
0.0586576
11.3792
0.0526213
0.0348326
13.7008
0.052258
15.9236
0.0538429
1047.97
1.02319
0.0625801
0.0749336
0.0561358
1727.91
33.386
335196
260475
417720
114263
9446.58
54091.5
25173.6
91877.8
33859
97028.5
4583.21
1168.43
4251.83
1278.59
1.0026e+06
400568
933525
829997
334833
255251
912751
1.07024e+06
1.10156e+06
1.13243e+06
968864
493753
830001
702530
351569
242256
425300
63523.4
11904.7
20995.7
37070.1
377402
247931
441666
69781.6
13016.3
43799.3
21961.3
939234
954309
893898
397389
572984
480681
490761
1.05777e+06
1.03754e+06
992647
889195
811070
583849
678165
1.10223e+06
708486
872953
646028
846608
417344
189138
78.2236
0.125127
0.0104277
3.24358
8955.16
0.523558
0.0329062
110.185
0.584966
0.0131732
405.089
0.18796
5.94634
0.0287154
3.3845
0.0257934
0.0233356
3.47434
0.0246108
12.9242
0.0441113
0.105685
55671
2309.07
0.0867055
0.0344006
1371.17
48.9404
991258
429036
929024
833847
366717
285172
910214
0.0666274
815723
714.477
7.48095
0.0222695
197883
12.9465
1.2978
579724
59110.7
539.982
0.0296692
9.98982
0.0258393
0.423859
0.0380616
93.4425
2.38394
0.174056
0.0481823
0.0131493
39.9144
0.0165801
0.648468
1.07765
0.0212093
0.1355
0.00425965
360870
0.0794943
660.887
0.0867665
3462.11
0.0328805
1.64591
153704
5825.56
112074
3457.7
75560.5
47972.2
2009.46
91550.4
33725.4
97137.1
4578.64
1144.85
4211.92
1271.1
91651.4
33758.1
30510.6
4579.15
4219.7
1148.72
1272.54
91412.5
33722.9
30770.2
4562.37
4223.68
1161.16
1273.21
1.15025e+06
1.03889e+06
1.12571e+06
993419
756825
667733
1.03984e+06
651527
922007
531407
601293
466513
164997
83505.7
1.09942e+06
983935
1.07254e+06
794073
986616
796228
496666
1.09353e+06
1.08127e+06
1.02327e+06
903781
816005
567761
672749
0.0168989
0.0223051
4.49918
8.06664
0.0205914
0.0186325
2.23722
9.1793
0.0342752
0.0246921
0.343147
0.0227596
0.0231781
2.52677
7.84124
0.00262825
0.0161917
0.0413126
16.0998
1.68097
0.00992129
0.952807
0.0235541
0.015205
11.8166
0.0368583
5.05672
0.0258345
0.073394
276399
218.234
0.219011
0.055549
8980.7
4.02128
1.0847e+06
757943
1.06116e+06
904180
478195
379507
966191
0.0700292
865.502
293.677
0.0159394
0.0138909
0.466641
0.225903
1431.15
4461.58
0.23093
0.0164461
0.336958
0.591503
0.0240267
0.340038
0.163718
1604.86
0.594181
0.255421
0.0243798
0.0179787
79177.8
16228.6
24076.7
2432.68
3454.17
904.134
608.72
9.14038
0.0389573
0.0408618
861604
155863
349.55
4.77942
39410
31410.5
3627.56
11863.3
1479.78
1166.47
438.649
610925
902280
472879
560028
411501
130109
58089.1
959556
507356
247670
193238
504946
749636
801306
955514
163345
491743
730260
463314
968630
706560
953465
493470
170825
732475
469698
967247
713240
778.125
68636.1
22863.6
73669.7
3180.61
2905.76
862.661
23319.8
71359.9
74827
3241.7
816.807
3050.06
879.262
62690.9
12888.3
48901.3
676.296
2587.46
1919.23
488.333
79028.1
16167
60223.3
900.248
3444.56
2426.62
606.467
529114
114888
297208
101693
5340.46
29153.6
21843.6
79723.2
17239.7
24784.4
2540.64
3508.78
933.832
649.044
79586.7
3534.66
30860
12753.4
1567.88
1162.22
477.68
706958
892217
819635
287683
236198
172759
370975
178987
104212
93875.5
14469
12573.9
4640.99
5348.4
149781
45464.1
73071.9
5535.31
9193.2
3341.21
1910.39
178847
104583
94013.3
14502.1
12536.3
5371.54
4642.4
116.743
0.352827
0.0130314
0.227318
8024.2
0.0534545
83.8248
148103
43288.6
72227.6
5220.52
8997.65
3283.75
1806.09
0.0144628
424.136
1.29197
0.022409
0.00465431
5.7583
0.0778915
0.0233161
0.024456
6.39064
0.0119709
0.443267
0.0165459
0.744801
3.99624
0.0235119
6.2602
0.0116437
0.45013
0.0163863
0.740691
7.33787
178.527
258847
0.0172249
0.138962
2.53925
6051.92
0.00234161
0.646541
0.0165291
0.181723
333.787
0.00965876
0.0541546
25650.3
2816.7
64839.6
22691.3
350.085
8629.43
926.077
925116
570271
312840
125314
403534
654947
868916
924915
334913
137803
595005
417747
873291
669722
722885
17619.8
288890
75960.5
548466
134661
5234.59
819442
453723
755290
209991
68012.2
279029
42074.9
283061
60330.7
172282
6399.78
21513.8
8767.93
2530.22
1.0577e+06
845570
1.02748e+06
674330
392850
302335
756629
248548
48231
135704
5495.06
16668.1
6263.36
1955.87
1.02663e+06
626341
896878
298297
636238
363079
97843.2
1.05235e+06
345460
757074
1.43046e+06
1.32205e+06
1.47664e+06
1.11299e+06
1.3921e+06
970220
1.14707e+06
2547.7
808832
1.15963e+06
656525
812032
21758.5
1.455e+06
1.45019e+06
1.42777e+06
1.34162e+06
1.3138e+06
1.29283e+06
1.32392e+06
1.39829e+06
1.36105e+06
1.39914e+06
1.267e+06
1.27363e+06
1.23426e+06
1.30211e+06
1.37367e+06
1.2804e+06
1.29369e+06
1.20416e+06
1.27578e+06
1.25738e+06
1.18965e+06
993804
1.16443e+06
989275
1.11167e+06
971378
1.10376e+06
955986
1.35085e+06
1.24416e+06
1.26433e+06
1.23537e+06
1.15335e+06
1.20683e+06
1.17331e+06
665906
805871
668246
546796
728152
698127
512699
1.22316e+06
1.08263e+06
1.19175e+06
1.17323e+06
1.09509e+06
1.06537e+06
1.20607e+06
1.15489e+06
1.00987e+06
1.00166e+06
1.08254e+06
1.09511e+06
924982
866711
1.15008e+06
1.01919e+06
1.15943e+06
1.07604e+06
1.1213e+06
1.04503e+06
1.18546e+06
625329
817631
655768
646433
368308
563259
455863
1.05794e+06
1.11433e+06
1.16324e+06
1.14616e+06
927578
1.04234e+06
1.1011e+06
1.12508e+06
964195
1.06293e+06
859721
1.09988e+06
1.01805e+06
1.08544e+06
1.00966e+06
241027
718071
586445
978132
661444
180113
57617.8
244825
405260
342377
13055.3
35753.9
191417
845779
482099
926613
573478
50365.4
447088
109385
251761
7095.2
60552.3
6457.69
147571
17461.5
124489
177497
16085.2
84847.7
2003.88
10946.2
3730.3
640.7
0.0662562
0.2074
0.0131357
0.142588
866.546
0.0162647
0.465732
0.172574
0.0481566
0.00778112
0.0514444
195.427
0.011145
0.257979
84.8868
0.0522863
175.851
0.0113704
0.00845287
0.261428
0.190922
0.289304
249.048
11649.4
0.0554654
0.0111055
20.3845
0.459721
256.987
3.51211
0.0176715
0.0106281
0.591612
0.00309652
0.0758006
8069.55
17877.9
32360.8
1224.25
161.027
671.178
304.356
9299.56
19432.1
38195.8
1436.43
169.221
719.576
348.452
690525
206888
588552
49023.1
148423
493978
777273
231768
482394
788605
663222
19230.5
128409
335125
217465
18783.9
95819.9
2996.9
16542.7
4295.74
736.033
569232
810919
1.01188e+06
755792
30268.2
184727
423705
954993
1.04099e+06
1.11199e+06
882196
145273
454455
592786
810901
187893
731745
439075
60861.3
35499.3
534796
21748.3
10273.5
5338.27
1559.94
812.137
387.412
196.686
38249.6
9323.7
4664.18
1438.57
719.945
349.314
169.447
1.04777e+06
581258
902973
250692
612878
325674
70987.6
129253
26224.4
15183.5
11615.5
6817.97
1126.39
646.883
914126
1.01688e+06
899336
601000
418223
563072
102158
0.0467666
746.772
20.7442
0.136006
0.0592322
0.00911137
0.00217912
0.00937597
0.0671678
0.00179187
2.90516
0.0147392
0.00678243
0.261709
0.426379
0.00193278
0.00928315
0.0140734
2.71854
0.00704551
0.274062
19085.9
19529
6794.72
2331.56
793.892
781.185
272.875
61682.8
19608.1
778.163
17251
202.748
631.452
5240.14
446227
206295
777323
642060
14297.3
106077
294362
676135
178485
37738.2
563640
465011
123995
768418
523655
341427
213075
131903
8547.17
61263.3
20774.3
815595
193277
369389
136092
299855
30433.1
8780.41
778453
133182
299560
95825.8
241381
19053.4
5314.48
903618
548840
830336
283223
108722
66001.1
376555
932744
537665
845100
257772
92867.2
53444.2
351377
24086.2
21312.2
8126.62
2646.65
982.443
875.94
331.119
552808
440008
351207
114921
74764.2
21609.8
35847.9
0.01628
131.85
3.3772
0.00657746
0.00144849
0.13069
0.0374142
0.025672
1.93302
19.1697
0.00302441
0.000883328
0.0948112
0.0245748
450168
642838
368761
169066
45175.7
113268
6897.02
1.35175
15.3571
0.000714212
0.0191945
0.0779911
0.0217033
0.0025168
0.0438125
0.110279
0.00552825
0.02751
0.0011157
2.30144
0.0122338
0.0802745
626.694
0.112851
0.00176122
0.00749325
13.9154
0.0426698
842.707
3839.76
20310.8
11857.7
87.5966
490.94
2220.38
4728.52
1308.52
4579.68
170.276
563.56
164.646
44.7681
33059.5
5510.3
28332.8
1183.86
265.244
1382.98
227.073
741717
688389
960732
478023
20165.3
135403
168080
3943.14
1035.51
3943.73
138.819
493.05
138.843
35.2169
5492.31
33197.1
28313.5
266.091
1388.96
1182.69
226.278
472878
17499.6
136043
7737.89
59155.4
5831.89
696.021
0.00267879
0.205837
0.0115358
0.0842758
0.0024687
0.0119577
1.05007
0.163926
0.0189193
0.00467306
0.00075512
0.0105573
0.19357
0.0056847
0.00504186
8.2732
0.223693
70.9607
0.0338684
1.68038
0.00853632
9701.41
813.517
2341.73
135.428
362.304
82.5219
28.4147
1125.65
47.3974
1207.2
510.355
18.109
475.04
19.4897
0.00304697
0.116734
0.0160383
1.45931
0.0162129
0.116337
0.00309401
0.294997
0.0115075
0.00662588
0.0755182
0.00210555
0.0287426
0.00102349
779.331
33.0938
842.019
354.499
12.2979
326.45
13.4175
33.8059
824.884
860.664
361.559
12.9516
343.642
13.6686
47.7331
1142.68
1217.96
511.581
18.0588
19.5138
474.917
972.332
28.3387
734.996
14.9043
395.585
288.749
10.6568
492527
13146
6508.66
63535
48194.4
281625
181325
321.039
104.855
2755.15
80.1887
2093.11
676.395
25.7803
8417.1
724.637
3465.3
70.3617
314.806
122.837
25.3216
549447
108400
195147
4339.03
65616.9
129967
645212
29584.7
1485.23
80333.9
1454.69
879.76
48482.3
49679.3
21768.1
19667.6
75657.9
2961.14
203.54
793.564
778.527
11520.1
3935.25
20038.7
834.854
88.7686
478.932
158.852
225202
66895.1
550638
235117
1292.27
9504.17
46930
13797.6
12750.1
50304.3
1887.02
130.203
468.742
547.725
326665
319318
661814
119657
2245.14
16964
16367.3
10921.3
3844.05
19663.3
818.682
83.0925
154.925
452.725
73950.6
2708.31
7148.61
1186.88
3223.4
297.086
108.362
188152
147159
130575
4388.49
8363.98
5149.41
7234.16
192447
148431
134993
4608.35
8433.97
5219.94
7525.22
731879
270339
306676
190194
221139
10728.3
18839.4
0.00594952
0.0614076
0.000978132
0.0260826
0.00185954
0.0113933
0.807479
4729.82
175.393
5258.91
952.814
195.957
34.0383
30.1277
57707.6
146867
97936
3041.48
2855.4
1687.85
5098.56
0.0105341
549.395
2.35382
0.0215038
0.00473437
11.2214
0.0960613
345201
11598
260631
82405.9
4126.37
2349.65
131206
0.0632735
0.753493
0.0152423
0.125913
537.004
0.0224192
2.19898
0.0788341
554.319
222.452
0.0230594
0.0172258
2.21359
0.840363
15784.4
301594
283264
30588.8
1201.11
1069.37
34319.7
0.0175146
411.166
7.51833
0.00766838
1.74667
0.00344228
0.0648509
8956.52
312413
231371
65559
3110.25
1767.93
108298
5733.42
380.887
84.0324
39.7941
2196.66
229.243
1017.41
728.764
22.3918
580.495
11.1802
297.806
229.333
8.48192
121918
19178.9
326660
38874.9
261.626
1261.45
8205.53
458069
4722.87
9923.15
46088.8
246457
36579.3
146496
151825
10032.2
219977
19394.2
379.171
673.863
11118.9
14409.8
296227
269973
27786.2
1160.39
972.709
33092.4
11807.9
179571
242541
23004.2
487.67
798.982
14207
1221.14
7537.92
6763.79
255.242
49.6743
43.8314
285.045
3814.16
970.32
5510.49
206.28
22.6323
34.775
139.349
1250.65
7560.37
6870.71
259.832
50.038
44.9437
286.212
8336.65
634.3
3136.76
67.2065
308.126
109.644
21.923
8337
634.52
1923.74
109.618
308.108
67.2463
21.9266
267157
289896
643666
95193.2
1485.86
12664.6
11191.5
39575.9
223322
159037
5502.72
1914.71
1108.89
9051.18
97867.1
29600
172907
2980.82
20676.8
6132.56
827.18
5356.11
885.986
972.063
184.044
199.63
34.6999
31.6587
6905.84
7583.44
1396.51
261.209
287.053
50.1302
45.1526
7523.97
1214.37
1380.77
254.125
284.564
49.5471
43.5845
157417
68182.8
106687
3401.52
3414.86
2017.14
5649.58
63202.8
190908
13076.6
37733.4
2129.2
7374.28
424.131
16907
4882.19
2295.84
1439.2
692.041
197.963
58.0559
483206
157711
102281
76813.9
45085.3
3194.81
5544.18
760969
314798
266379
219910
179817
9678.74
17630
14876.7
180.956
10240.4
725.408
6381.88
439.206
24465.1
2881.58
704.869
478.126
149.462
103.935
25.129
16.9071
0.0138447
17071.8
0.0936192
0.0227298
0.00145379
0.270779
0.0306773
4356.97
0.175255
0.012538
0.0695307
0.00765226
0.0233626
0.00103828
3518.55
913.01
575.272
196.159
127.49
32.6431
20.3724
0.025342
0.295152
0.00692699
0.00777383
2.42246
0.00160855
0.0414258
255.873
15.6104
412.198
153.887
3.20854
87.9729
5.65682
18.4664
281.741
488.878
181.203
3.4586
95.5038
6.63703
4001.73
3995.62
22726.5
891.923
25.8492
154.912
154.59
3535.97
919.233
5295.35
197.238
20.5015
32.8683
128.138
135625
7359.02
427.966
26006.1
15114.7
4364.42
196930
83546.6
1020.79
34290.3
172.879
5284.88
2014.75
64.2801
7537.15
641.25
2594.29
76.4414
304.776
99.3178
24.5916
707995
15623.1
189689
11287.4
156415
8702.1
549.096
20677.5
2696.55
14630.6
803.57
3724.64
512.84
101.101
148188
101305
8297.27
5699.44
3498.99
464.931
281.804
36108.8
134283
7212.13