/*--------------------------------*- C++ -*----------------------------------*\
  =========                 |
  \\      /  F ield         | OpenFOAM: The Open Source CFD Toolbox
   \\    /   O peration     | Website:  https://openfoam.org
    \\  /    A nd           | Version:  9
     \\/     M anipulation  |
\*---------------------------------------------------------------------------*/
FoamFile
{
    format      ascii;
    class       volVectorField;
    location    "0.00115";
    object      rhoU;
}
// * * * * * * * * * * * * * * * * * * * * * * * * * * * * * * * * * * * * * //

dimensions      [1 -2 -1 0 0 0 0];

internalField   nonuniform List<vector> 
10822
(
(0.0527801 -0.046096 0.145957)
(7.73253e-06 -7.6833e-06 3.38654e-05)
(2.41761e-08 -1.99419e-08 9.81682e-08)
(6.47562e-10 -5.56345e-10 2.91754e-09)
(1.36465e-11 -1.22754e-11 6.84479e-11)
(143.047 -86.2558 349.741)
(177.775 24.2158 411.844)
(0.000438645 -0.000313069 0.00254138)
(0.000146033 -8.39924e-05 0.000762313)
(0.00196948 -0.000231681 0.0293817)
(5.79263e-05 4.84339e-06 0.000203455)
(2.28156e-07 -1.34718e-07 1.65331e-06)
(7.00305e-08 -3.47569e-08 3.34846e-07)
(6.09165e-09 -3.99137e-09 3.56141e-08)
(1.87469e-09 -9.70515e-10 8.07986e-09)
(1.5892e-10 -1.03944e-10 8.36889e-10)
(4.28327e-11 -2.434e-11 1.99934e-10)
(1.06418e-07 4.10615e-10 5.33477e-07)
(2.90759e-09 6.24271e-12 1.26315e-08)
(6.88089e-11 -2.36748e-13 3.17115e-10)
(3.28866e-07 -1.19306e-08 2.39722e-06)
(9.21289e-09 1.08814e-10 5.40747e-08)
(2.46361e-10 3.85557e-12 1.3012e-09)
(4.14848e-08 -1.66964e-08 7.1135e-08)
(7.4626e-10 -3.33266e-10 1.75781e-09)
(1.21646e-11 -5.85782e-12 3.36043e-11)
(1.81942e-13 -7.6874e-14 5.75567e-13)
(0.000110088 -6.35349e-05 0.000208161)
(3.12344e-07 -1.92784e-07 7.59854e-07)
(8.19779e-09 -5.11222e-09 2.96915e-08)
(1.27088e-10 -8.02422e-11 4.73757e-10)
(2.2048e-12 -1.32036e-12 7.74728e-12)
(1464.81 -515.187 95.4647)
(0.000203472 -5.03922e-05 4.90234e-05)
(1.42357e-06 -2.87401e-07 1.89532e-07)
(1.72886e-07 -2.15143e-08 7.18697e-09)
(3.21295e-09 -4.16445e-10 9.93295e-11)
(2406.78 -1257.05 1283.54)
(0.000219835 -4.58148e-05 6.59244e-05)
(9.54049e-07 -2.17078e-07 1.25845e-07)
(5.69471e-08 -1.07898e-08 7.25394e-09)
(1.26437e-09 -2.18924e-10 1.52494e-10)
(129.094 -72.0424 33.7734)
(0.0345743 -0.00788313 0.00481479)
(4.29775e-07 -1.01738e-07 7.21076e-08)
(9.31919e-09 -1.9523e-09 1.49489e-09)
(2.16716e-10 -4.19799e-11 3.30132e-11)
(0.000104359 -3.22349e-05 2.78354e-05)
(9.41713e-06 -2.0646e-06 2.22437e-06)
(6.57601e-08 -1.24772e-08 1.41381e-08)
(1.81672e-09 -2.91099e-10 3.09254e-10)
(3.83262e-11 -5.92114e-12 6.26725e-12)
(3.0866e-05 -8.91894e-06 2.4002e-05)
(1.80049e-07 -4.04302e-08 8.85934e-08)
(5.38884e-09 -9.36678e-10 2.00259e-09)
(1.23271e-10 -1.89917e-11 3.89815e-11)
(2.40591e-12 -3.49668e-13 7.12045e-13)
(9.33471e-06 -3.69219e-06 1.28073e-05)
(1.21373e-07 -3.91354e-08 1.41792e-07)
(5.6073e-09 -1.25288e-09 4.63841e-09)
(1.64912e-10 -3.01224e-11 1.06718e-10)
(3.88578e-12 -6.33236e-13 2.10999e-12)
(7.49792e-14 -7.66033e-15 3.33923e-14)
(2.7075e-09 -8.62545e-10 4.10282e-09)
(1.19942e-10 -2.79969e-11 1.30765e-10)
(3.67352e-12 -7.12762e-13 3.16208e-12)
(8.54639e-14 -1.08002e-14 6.18513e-14)
(0 0 1.55111e-17)
(4.90068e-11 -1.61659e-11 8.80713e-11)
(2.1951e-12 -5.37928e-13 2.85673e-12)
(6.4779e-14 -8.3641e-15 6.92488e-14)
(1.70328e-17 0 1.15663e-16)
(0 0 0)
(8.13011e-13 -2.67733e-13 1.63402e-12)
(3.07395e-14 -4.73695e-15 5.30173e-14)
(3.67352e-18 0 1.68389e-17)
(0 0 0)
(0 0 0)
(6.50484e-15 -1.7053e-15 2.53901e-14)
(9.03161e-21 0 0)
(0 0 0)
(0 0 0)
(0 0 0)
(0.87402 -0.142886 0.0172909)
(3.62317e-05 -5.08679e-06 1.20056e-06)
(8.65399e-07 -8.85728e-08 3.47541e-08)
(1.24812e-08 -1.37582e-09 2.50017e-10)
(0.00174749 -0.000317426 0.000516341)
(3.19922e-06 -5.60805e-07 4.35793e-07)
(1.9678e-07 -2.56078e-08 2.16468e-08)
(5.38206e-09 -6.91412e-10 4.81597e-10)
(1605.87 -548.705 432.446)
(0.000151525 -3.11669e-05 2.43605e-05)
(4.03749e-06 -4.88109e-07 5.51136e-07)
(9.19236e-08 -1.08647e-08 1.07038e-08)
(1.40469e-09 -1.91144e-10 1.9448e-10)
(0.0270021 -0.00638619 0.0172603)
(0.000165423 -2.82245e-05 5.59652e-05)
(2.04807e-07 -2.95332e-08 7.00582e-08)
(5.71883e-09 -8.31863e-10 1.47816e-09)
(1.4321e-10 -2.02726e-11 3.05171e-11)
(0.000218149 -5.16757e-05 0.000181886)
(6.20072e-07 -9.13635e-08 3.28998e-07)
(1.59452e-08 -2.44638e-09 6.41556e-09)
(4.19316e-10 -6.20768e-11 1.46606e-10)
(9.71858e-12 -1.37196e-12 3.15134e-12)
(0.000124721 -3.599e-05 0.000185236)
(4.49907e-07 -8.45805e-08 5.04671e-07)
(1.72383e-08 -3.11817e-09 1.41131e-08)
(5.62124e-10 -9.43503e-11 3.6677e-10)
(1.55944e-11 -2.38971e-12 8.65189e-12)
(3.603e-13 -4.16814e-14 1.71727e-13)
(1.31667e-07 -3.10706e-08 2.2443e-07)
(8.88803e-09 -2.08362e-09 1.26927e-08)
(4.21721e-10 -8.45468e-11 4.48343e-10)
(1.47876e-11 -2.60653e-12 1.27114e-11)
(4.08342e-13 -5.44652e-14 2.97591e-13)
(6.14259e-15 0 3.66381e-15)
(2.74582e-09 -7.78552e-10 5.76555e-09)
(1.85136e-10 -4.68889e-11 3.10662e-10)
(8.96708e-12 -1.87396e-12 1.14686e-11)
(3.08876e-13 -4.4785e-14 3.23318e-13)
(4.80896e-15 0 4.69299e-15)
(0 0 0)
(5.05834e-11 -1.60373e-11 1.2761e-10)
(3.46043e-12 -9.20297e-13 6.63716e-12)
(1.57932e-13 -2.42876e-14 2.3807e-13)
(1.75479e-15 0 3.75476e-15)
(0 0 0)
(0 0 0)
(8.30365e-13 -2.83636e-13 2.38167e-12)
(4.85724e-14 -7.84981e-15 1.18497e-13)
(6.13127e-18 0 1.92073e-15)
(0 0 0)
(0 0 0)
(0 0 0)
(5.22415 -0.990496 11.2679)
(1.051 0.116414 2.32655)
(6.08874e-06 -1.6049e-06 1.87215e-05)
(2.42932e-06 2.63985e-07 7.29864e-06)
(2.13331e-08 -9.61563e-09 7.27533e-08)
(4.23735e-10 -2.05021e-10 1.74329e-09)
(7.79644e-12 -3.66526e-12 3.22308e-11)
(3.51193e-08 2.4267e-10 1.22973e-07)
(7.03501e-10 4.0095e-12 2.94396e-09)
(1.30265e-11 3.85723e-14 5.48201e-11)
(-0.0014081 -0.000379233 0.00869029)
(-0.00199769 0.000886527 0.0353938)
(-2.76565e-07 -1.68081e-07 2.09933e-06)
(-3.20177e-07 3.02507e-08 2.57201e-06)
(-6.6804e-09 -3.50506e-09 4.06291e-08)
(-8.59741e-09 2.76511e-10 5.29225e-08)
(-1.65657e-10 -8.31466e-11 8.76324e-10)
(-2.22139e-10 3.94428e-12 1.17666e-09)
(-5.41366e-14 -4.06403e-13 4.84522e-15)
(-6.71605e-14 -1.66511e-12 2.82052e-14)
(4.48001e-14 -1.91668e-12 3.41873e-14)
(7.46608e-14 -6.23139e-13 7.74153e-15)
(7.58888e-15 -8.77554e-14 6.63173e-16)
(7.20396e-16 -4.65575e-15 0)
(2.90302e-17 0 0)
(8.00886e-19 0 0)
(1.04868e-20 0 0)
(7.4632e-23 0 0)
(3.2691e-25 0 0)
(0 0 0)
(-4.10783e-12 -2.45839e-11 4.52595e-13)
(-4.36746e-12 -9.97724e-11 2.0861e-12)
(2.53144e-12 -1.13714e-10 2.45608e-12)
(5.71717e-12 -3.97405e-11 7.9394e-13)
(8.67419e-13 -5.43232e-12 1.21726e-13)
(1.06173e-13 -5.79122e-13 9.73105e-15)
(5.64334e-15 -2.4781e-14 0)
(1.52716e-16 0 0)
(2.00512e-18 0 0)
(1.5859e-20 0 0)
(7.27475e-23 0 0)
(0 0 0)
(-2.20714e-10 -1.22299e-09 3.54975e-11)
(-2.56654e-10 -4.95123e-09 1.58318e-10)
(1.47812e-10 -5.6219e-09 1.82074e-10)
(3.21732e-10 -2.13062e-09 6.49528e-11)
(5.58101e-11 -3.34688e-10 8.34682e-12)
(7.37276e-12 -3.68092e-11 9.98888e-13)
(6.4863e-13 -1.73712e-12 4.06024e-14)
(2.72188e-14 -5.88482e-14 2.84217e-16)
(3.68281e-16 0 0)
(3.15374e-18 0 0)
(1.56774e-20 0 0)
(0 0 0)
(-1.34772e-08 -1.97145e-07 9.88345e-09)
(7.99661e-09 -2.22803e-07 1.13003e-08)
(1.34259e-08 -8.62643e-08 4.30327e-09)
(4.19067e-09 -2.64336e-08 8.47102e-10)
(4.69857e-10 -1.9838e-09 7.54061e-11)
(4.13216e-11 -9.50308e-11 2.96735e-12)
(1.8611e-12 -3.36293e-12 6.64416e-14)
(6.18886e-14 -9.00371e-14 -5.41028e-15)
(5.70144e-16 0 0)
(3.16898e-18 0 0)
(0 0 0)
(-1.5568e-05 -0.000173105 7.42164e-06)
(1.07601e-07 -8.74871e-06 2.74076e-07)
(2.61508e-07 -2.42408e-06 7.61359e-08)
(2.68112e-07 -1.38648e-06 6.45868e-08)
(2.89887e-08 -8.71892e-08 4.97541e-09)
(2.32101e-09 -4.71527e-09 1.99219e-10)
(1.02376e-10 -1.63138e-10 5.61023e-12)
(3.48699e-12 -4.38942e-12 1.11182e-13)
(9.21539e-14 -9.64612e-14 1.13687e-15)
(5.82234e-16 0 0)
(0 0 0)
(-48.201 -251.975 11.6909)
(8.00897e-05 -0.0206063 0.000306954)
(0.000323125 -0.00385581 5.38916e-05)
(5.76937e-05 -0.000292326 1.08316e-05)
(1.45959e-06 -5.88182e-06 1.87178e-07)
(1.45414e-07 -2.48917e-07 1.47046e-08)
(5.38475e-09 -7.49814e-09 3.52237e-10)
(1.68251e-10 -1.7845e-10 7.26841e-12)
(4.40468e-12 -3.91002e-12 1.36681e-13)
(9.51393e-14 -7.25538e-14 1.23161e-15)
(0 0 0)
(-363.283 -2043.26 123.892)
(38.6436 -2327.2 128.477)
(359.033 -1525.52 80.8475)
(19.4142 -53.0473 1.96068)
(0.00885146 -0.0270977 0.000434569)
(1.67497e-05 -2.47046e-05 1.16677e-06)
(3.22852e-07 -3.54636e-07 2.56138e-08)
(7.51555e-09 -6.21455e-09 3.68372e-10)
(1.73593e-10 -1.21834e-10 6.13326e-12)
(3.78306e-12 -2.30307e-12 1.01249e-13)
(7.11084e-14 -3.3489e-14 6.63173e-16)
(1459.61 -2162.5 134.68)
(0.683082 -1.03319 0.0255506)
(3.4726e-05 -3.32315e-05 1.93082e-06)
(2.72268e-07 -1.70596e-07 1.64094e-08)
(5.39223e-09 -2.7531e-09 2.19007e-10)
(1.11561e-10 -5.03255e-11 3.28632e-12)
(2.0943e-12 -8.4052e-13 4.67334e-14)
(0.169604 -0.0733088 0.00317896)
(1.11824e-05 -4.00438e-06 4.41087e-07)
(1.11578e-07 -5.32699e-08 5.83473e-09)
(2.29794e-09 -9.62877e-10 8.19508e-11)
(4.30115e-11 -1.47119e-11 1.09131e-12)
(-1.76756e-14 -1.62708e-13 8.18863e-15)
(-1.92292e-14 -6.10228e-13 4.67334e-14)
(1.33403e-14 -6.68912e-13 5.81292e-14)
(2.36282e-14 -2.13136e-13 1.27627e-14)
(2.23909e-15 -2.36848e-14 1.04213e-15)
(1.69591e-16 0 0)
(7.74479e-18 0 0)
(1.81788e-19 0 0)
(2.59875e-21 0 0)
(2.27145e-23 0 0)
(1.10974e-25 0 0)
(0 0 0)
(-1.66535e-12 -8.12343e-12 8.42335e-13)
(-1.30041e-12 -3.04336e-11 3.33109e-12)
(9.01214e-13 -3.35376e-11 4.0047e-12)
(2.00622e-12 -1.10651e-11 1.33605e-12)
(2.82845e-13 -1.62371e-12 1.97639e-13)
(2.65504e-14 -1.35412e-13 1.19507e-14)
(1.12749e-15 -4.50857e-15 0)
(2.97299e-17 0 0)
(4.43842e-19 0 0)
(4.16344e-21 0 0)
(2.24932e-23 0 0)
(0 0 0)
(-7.48362e-11 -3.49685e-10 4.45179e-11)
(-6.7639e-11 -1.37835e-09 1.72662e-10)
(4.55146e-11 -1.53039e-09 2.05018e-10)
(9.4029e-11 -4.98504e-10 7.22667e-11)
(1.55432e-11 -8.40466e-11 1.19292e-11)
(2.00713e-12 -7.36925e-12 1.16951e-12)
(1.53324e-13 -4.32978e-13 5.46374e-14)
(5.64599e-15 -1.28922e-14 4.73695e-16)
(7.87884e-17 0 0)
(7.68314e-19 0 0)
(4.57586e-21 0 0)
(0 0 0)
(-3.64225e-09 -7.04388e-08 8.42202e-09)
(2.53049e-09 -7.86436e-08 9.89577e-09)
(3.82264e-09 -2.08939e-08 3.09744e-09)
(7.55865e-10 -3.82618e-09 6.32675e-10)
(1.0639e-10 -3.63931e-10 6.54887e-11)
(8.49897e-12 -2.18099e-11 3.46003e-12)
(4.64733e-13 -8.80395e-13 1.23391e-13)
(1.40015e-14 -2.25073e-14 1.42109e-15)
(1.38741e-16 0 0)
(9.11173e-19 0 0)
(0 0 0)
(-3.1236e-07 -5.19456e-06 9.20962e-07)
(1.20444e-07 -3.25808e-06 5.91881e-07)
(1.50807e-07 -9.90115e-07 2.12021e-07)
(3.25527e-08 -1.47337e-07 2.7213e-08)
(5.87104e-09 -2.09699e-08 3.47467e-09)
(4.37043e-10 -1.02889e-09 1.72943e-10)
(2.38908e-11 -4.03485e-11 6.76619e-12)
(9.19417e-13 -1.19641e-12 1.91468e-13)
(2.28817e-14 -2.73027e-14 2.08426e-15)
(1.67925e-16 0 0)
(0 0 0)
(-0.0584089 -0.485328 0.185473)
(3.62025e-06 -0.000382058 0.000110565)
(1.31558e-05 -0.000103944 3.23626e-05)
(1.69031e-06 -1.06993e-05 2.21651e-06)
(3.0717e-07 -9.42154e-07 2.28123e-07)
(2.36535e-08 -4.38601e-08 8.24536e-09)
(1.16578e-09 -1.72157e-09 3.21087e-10)
(4.20215e-11 -4.63411e-11 8.87373e-12)
(1.20942e-12 -1.10155e-12 2.07844e-13)
(2.71071e-14 -1.87072e-14 1.89478e-15)
(0 0 0)
(-528.446 -2564.54 1293.51)
(0.366134 -46.7747 23.4911)
(1.75301 -10.0339 4.43307)
(0.0191872 -0.086388 0.0309658)
(6.74229e-05 -0.000211994 6.90402e-05)
(6.0398e-07 -1.07237e-06 2.91611e-07)
(5.13167e-08 -6.09711e-08 1.37753e-08)
(1.77243e-09 -1.54983e-09 3.58267e-10)
(4.55918e-11 -3.28354e-11 7.79279e-12)
(1.06937e-12 -6.7243e-13 1.5747e-13)
(1.90019e-14 -7.55539e-15 8.52651e-16)
(30.1259 -53.0813 28.8902)
(0.000849464 -0.00136399 0.000519218)
(2.9512e-06 -2.46629e-06 1.01701e-06)
(5.78136e-08 -3.51522e-08 1.13979e-08)
(1.4203e-09 -7.00126e-10 2.30315e-10)
(3.03964e-11 -1.36745e-11 4.44969e-12)
(6.20703e-13 -2.5857e-13 6.89971e-14)
(0.000299819 -0.000119093 9.80665e-05)
(5.99069e-07 -2.46504e-07 1.29622e-07)
(2.54331e-08 -8.91122e-09 3.94821e-09)
(5.67518e-10 -1.79677e-10 8.35277e-11)
(1.14932e-11 -3.58246e-12 1.56916e-12)
(-3.65422e-15 -4.76131e-14 2.16739e-15)
(-3.62937e-15 -1.96922e-13 1.04348e-14)
(4.13617e-15 -1.83631e-13 1.07461e-14)
(3.94117e-15 -5.25125e-14 2.179e-15)
(4.30487e-16 -2.65269e-15 0)
(2.39899e-17 0 0)
(1.09297e-18 0 0)
(2.84533e-20 0 0)
(3.62138e-22 0 0)
(2.73674e-24 0 0)
(1.25953e-26 0 0)
(0 0 0)
(-5.48512e-13 -2.7252e-12 2.92093e-13)
(-3.51509e-13 -1.0819e-11 1.11825e-12)
(3.75658e-13 -1.02414e-11 1.10868e-12)
(5.2336e-13 -3.15284e-12 3.31424e-13)
(6.15812e-14 -3.20218e-13 2.78668e-14)
(3.65639e-15 -2.36555e-14 1.04213e-15)
(1.77276e-16 0 0)
(4.67296e-18 0 0)
(6.28274e-20 0 0)
(5.07465e-22 0 0)
(2.54833e-24 0 0)
(0 0 0)
(-2.83898e-11 -1.26262e-10 1.48934e-11)
(-1.92185e-11 -5.0025e-10 5.64688e-11)
(1.87986e-11 -4.81303e-10 5.76966e-11)
(2.88147e-11 -1.58034e-10 1.82518e-11)
(3.97544e-12 -1.76994e-11 2.04379e-12)
(3.90512e-13 -1.55293e-12 1.68852e-13)
(2.73561e-14 -9.60139e-14 6.44225e-15)
(7.19195e-16 -9.46099e-16 0)
(1.02404e-17 0 0)
(8.95239e-20 0 0)
(4.92649e-22 0 0)
(0 0 0)
(-9.6621e-10 -1.94899e-08 2.52798e-09)
(8.65581e-10 -1.91331e-08 2.62433e-09)
(1.28884e-09 -6.57366e-09 8.59461e-10)
(2.12596e-10 -9.96687e-10 1.1565e-10)
(2.18856e-11 -7.75671e-11 9.65392e-12)
(1.83201e-12 -5.26391e-12 6.13787e-13)
(1.01945e-13 -2.07952e-13 1.69718e-14)
(1.54855e-15 -2.83658e-15 0)
(1.58039e-17 0 0)
(9.51545e-20 0 0)
(0 0 0)
(-4.71254e-08 -6.66854e-07 1.00769e-07)
(3.80288e-08 -6.75825e-07 1.0611e-07)
(4.17127e-08 -2.06089e-07 3.22285e-08)
(1.21798e-08 -5.64385e-08 6.85766e-09)
(1.19628e-09 -3.43447e-09 4.82826e-10)
(9.59627e-11 -2.48844e-10 3.21994e-11)
(5.7907e-12 -1.0039e-11 1.30679e-12)
(2.16122e-13 -2.90241e-13 2.97481e-14)
(3.25131e-15 -4.16034e-15 0)
(2.01903e-17 0 0)
(0 0 0)
(-8.37659e-05 -0.000740068 8.91701e-05)
(7.79476e-07 -3.74677e-05 3.81682e-06)
(9.63754e-07 -6.73755e-06 7.76909e-07)
(3.37501e-07 -1.33892e-06 1.78065e-07)
(5.71141e-08 -1.19725e-07 2.2282e-08)
(4.60509e-09 -1.00426e-08 1.49849e-09)
(2.79459e-10 -4.10422e-10 6.07821e-11)
(1.04542e-11 -1.17026e-11 1.79457e-12)
(2.91914e-13 -2.71872e-13 3.63663e-14)
(4.7694e-15 -1.89177e-15 0)
(0 0 0)
(-73.1823 -311.288 79.9968)
(0.000578215 -0.0731001 0.00920151)
(0.00139266 -0.0116428 0.00120272)
(4.35954e-05 -0.000172741 2.21673e-05)
(1.87336e-06 -4.14641e-06 5.74023e-07)
(1.95378e-07 -3.33139e-07 5.75731e-08)
(1.1518e-08 -1.3426e-08 2.43205e-09)
(4.19671e-10 -3.72737e-10 6.90533e-11)
(1.15482e-11 -8.48381e-12 1.62767e-12)
(2.62152e-13 -1.62709e-13 2.56743e-14)
(1.51582e-15 -5.68005e-16 0)
(0.00414955 -0.00914466 0.00117764)
(1.42406e-05 -2.13445e-05 2.78026e-06)
(3.84421e-07 -3.16524e-07 7.66499e-08)
(1.27968e-08 -8.07401e-09 2.08734e-09)
(3.47657e-10 -1.83417e-10 4.76117e-11)
(7.93259e-12 -3.69613e-12 9.69843e-13)
(1.55643e-13 -6.23059e-14 1.10845e-14)
(0.000291414 -0.000185753 4.97135e-05)
(2.09412e-07 -1.05492e-07 3.65029e-08)
(6.398e-09 -2.46998e-09 9.09599e-10)
(1.55956e-10 -5.00875e-11 1.9055e-11)
(3.17587e-12 -9.33071e-13 3.58673e-13)
(0 -1.7053e-15 0)
(-2.00524e-16 -1.35883e-14 1.21807e-15)
(2.79086e-16 -1.1504e-14 1.04213e-15)
(2.09142e-16 -1.7053e-15 0)
(2.3966e-17 0 0)
(1.62909e-18 0 0)
(7.15837e-20 0 0)
(1.40816e-21 0 0)
(1.56883e-23 0 0)
(9.22451e-26 0 0)
(3.0106e-28 0 0)
(0 0 0)
(-4.23619e-14 -2.706e-13 4.41324e-14)
(-2.9569e-14 -1.07732e-12 1.99358e-13)
(4.18588e-14 -8.79797e-13 1.76052e-13)
(2.9995e-14 -2.76021e-13 4.74778e-14)
(3.08891e-15 -3.15408e-14 2.46321e-15)
(2.55882e-16 -9.46102e-16 0)
(1.1272e-17 0 0)
(2.34755e-19 0 0)
(3.02551e-21 0 0)
(1.94313e-23 0 0)
(6.65843e-26 0 0)
(0 0 0)
(-2.93745e-12 -1.31546e-11 2.81369e-12)
(-1.75263e-12 -5.3689e-11 1.13203e-11)
(2.29307e-12 -4.49682e-11 1.02158e-11)
(2.35632e-12 -1.37629e-11 3.07225e-12)
(3.69909e-13 -1.91721e-12 3.334e-13)
(3.87321e-14 -1.92266e-13 2.48081e-14)
(1.63884e-15 -6.85559e-15 4.73695e-16)
(3.99298e-17 0 0)
(5.93666e-19 0 0)
(4.10046e-21 0 0)
(1.45976e-23 0 0)
(0 0 0)
(-1.0127e-10 -2.6728e-09 5.74284e-10)
(1.15689e-10 -2.36743e-09 5.2955e-10)
(1.15046e-10 -6.50664e-10 1.57346e-10)
(1.86717e-11 -8.76847e-11 1.84567e-11)
(2.50014e-12 -9.81919e-12 1.72753e-12)
(2.16579e-13 -5.83716e-13 9.95166e-14)
(7.68553e-15 -1.87892e-14 1.78651e-15)
(1.14296e-16 0 0)
(8.44927e-19 0 0)
(3.19194e-21 0 0)
(0 0 0)
(-6.60781e-09 -1.40456e-07 3.17885e-08)
(6.53377e-09 -1.32168e-07 3.04705e-08)
(5.92101e-09 -3.52646e-08 8.26111e-09)
(8.75472e-10 -3.56711e-09 9.68771e-10)
(1.22206e-10 -4.45974e-10 8.88725e-11)
(1.16085e-11 -2.74144e-11 5.72121e-12)
(6.31197e-13 -1.0437e-12 2.15788e-13)
(1.97829e-14 -2.73247e-14 3.42414e-15)
(1.60705e-16 0 0)
(6.83468e-19 0 0)
(0 0 0)
(-1.31087e-06 -1.22673e-05 3.14986e-06)
(1.50068e-07 -3.17509e-06 9.34916e-07)
(2.34553e-07 -1.35407e-06 3.78281e-07)
(4.03134e-08 -1.31897e-07 4.63183e-08)
(5.91542e-09 -1.95168e-08 4.4218e-09)
(5.68501e-10 -1.19383e-09 2.86022e-10)
(2.98894e-11 -4.25242e-11 1.06945e-11)
(1.07925e-12 -1.20569e-12 3.00634e-13)
(2.70325e-14 -2.51211e-14 4.34446e-15)
(1.36663e-16 0 0)
(0 0 0)
(-0.121857 -0.764469 0.26706)
(6.99791e-06 -0.000403371 0.000120987)
(2.27245e-05 -0.00014637 4.42252e-05)
(2.83876e-06 -1.23819e-05 3.04473e-06)
(3.51956e-07 -9.16936e-07 2.60523e-07)
(3.24551e-08 -5.81644e-08 1.57193e-08)
(1.32221e-09 -1.53981e-09 4.61836e-10)
(4.33854e-11 -3.94967e-11 1.22039e-11)
(1.19475e-12 -9.07352e-13 2.75095e-13)
(2.40803e-14 -1.39384e-14 2.51735e-15)
(0 0 0)
(4.64514e-05 -0.000102049 3.38017e-05)
(1.74362e-06 -1.93823e-06 8.06797e-07)
(6.41804e-08 -5.30938e-08 2.01246e-08)
(1.50261e-09 -1.00837e-09 4.00684e-10)
(3.77958e-11 -2.17882e-11 8.60799e-12)
(8.6335e-13 -4.30242e-13 1.6375e-13)
(1.40214e-14 -3.75238e-15 8.52651e-16)
(1.52884e-06 -9.91376e-07 5.46898e-07)
(4.21339e-08 -1.88599e-08 1.011e-08)
(8.74629e-10 -3.47795e-10 1.85817e-10)
(1.95558e-11 -6.85962e-12 3.6411e-12)
(3.89811e-13 -1.15121e-13 5.93293e-14)
(0 0 0)
(-5.1799e-18 0 0)
(7.09317e-18 0 0)
(5.82936e-18 0 0)
(5.9981e-19 0 0)
(3.89803e-20 0 0)
(1.2787e-21 0 0)
(2.16284e-23 0 0)
(1.88649e-25 0 0)
(7.76502e-28 0 0)
(1.38418e-30 0 0)
(0 0 0)
(-1.89478e-16 -1.14517e-14 1.81799e-15)
(-7.23688e-16 -5.27607e-14 1.31552e-14)
(1.01071e-15 -4.43684e-14 1.06649e-14)
(8.48707e-16 -1.18885e-14 1.82711e-15)
(9.61174e-17 0 0)
(6.4948e-18 0 0)
(2.15218e-19 0 0)
(4.26179e-21 0 0)
(4.01614e-23 0 0)
(1.76417e-25 0 0)
(3.57319e-28 0 0)
(0 0 0)
(-1.54315e-13 -7.9727e-13 2.44299e-13)
(-9.12399e-14 -2.94197e-12 9.76286e-13)
(1.24084e-13 -2.55277e-12 8.00274e-13)
(1.18695e-13 -7.8785e-13 2.48676e-13)
(1.56749e-14 -1.18884e-13 2.74473e-14)
(1.01139e-15 -4.96468e-15 1.04213e-15)
(3.53723e-17 0 0)
(8.51261e-19 0 0)
(8.45979e-21 0 0)
(3.96884e-23 0 0)
(9.13306e-26 0 0)
(0 0 0)
(-4.72415e-12 -1.40582e-10 4.98562e-11)
(5.79219e-12 -1.27188e-10 4.24117e-11)
(6.83308e-12 -3.70582e-11 1.28172e-11)
(1.13375e-12 -6.15826e-12 1.83329e-12)
(1.42574e-13 -5.54563e-13 1.71748e-13)
(6.66687e-15 -2.66546e-14 6.55053e-15)
(1.63972e-16 0 0)
(1.70065e-18 0 0)
(8.684e-21 0 0)
(2.29934e-23 0 0)
(0 0 0)
(-2.68165e-10 -6.64056e-09 2.63592e-09)
(2.89097e-10 -6.32237e-09 2.38904e-09)
(3.31344e-10 -1.82328e-09 6.62859e-10)
(5.54812e-11 -2.74812e-10 9.00496e-11)
(7.89778e-12 -2.59401e-11 9.28957e-12)
(6.31075e-13 -1.38703e-12 5.29957e-13)
(2.80437e-14 -4.82443e-14 1.60921e-14)
(3.10132e-16 0 0)
(1.78219e-18 0 0)
(5.54897e-21 0 0)
(0 0 0)
(-1.50651e-08 -2.69893e-07 1.38588e-07)
(1.45125e-08 -2.66505e-07 1.32662e-07)
(1.6962e-08 -9.59814e-08 4.17014e-08)
(2.68606e-09 -1.11195e-08 4.2971e-09)
(3.79299e-10 -1.10233e-09 4.54843e-10)
(3.00571e-11 -5.68902e-11 2.53184e-11)
(1.48066e-12 -2.04262e-12 9.31867e-13)
(4.92091e-14 -5.226e-14 2.3969e-14)
(3.28463e-16 0 0)
(1.22861e-18 0 0)
(0 0 0)
(-5.38241e-06 -4.36267e-05 2.9991e-05)
(1.78349e-07 -4.85925e-06 2.73294e-06)
(3.87808e-07 -2.14144e-06 1.24653e-06)
(1.27665e-07 -4.24107e-07 2.30113e-07)
(2.00746e-08 -5.12516e-08 2.56826e-08)
(1.34385e-09 -2.13537e-09 1.15632e-09)
(6.05555e-11 -6.88837e-11 3.82115e-11)
(2.06961e-12 -1.88199e-12 1.05204e-12)
(5.25319e-14 -4.11955e-14 2.10862e-14)
(2.38649e-16 0 0)
(0 0 0)
(-6.33831e-05 -0.000268538 0.000348892)
(0.135368 -10.0891 9.16346)
(3.92965e-05 -0.000192094 0.000225913)
(7.90955e-06 -2.12648e-05 2.33719e-05)
(1.02124e-06 -1.68988e-06 1.37285e-06)
(6.99791e-08 -8.37348e-08 6.21569e-08)
(2.22835e-09 -1.92337e-09 1.39889e-09)
(6.78462e-11 -4.75443e-11 3.42085e-11)
(1.82151e-12 -1.07685e-12 7.71162e-13)
(3.96162e-14 -1.60433e-14 1.17206e-14)
(0 0 0)
(2.16682e-06 -1.79084e-06 1.97403e-06)
(7.54504e-08 -4.27847e-08 4.61336e-08)
(1.73429e-09 -8.40883e-10 8.45556e-10)
(4.34091e-11 -1.81228e-11 1.79919e-11)
(9.82785e-13 -3.45987e-13 3.5043e-13)
(1.52124e-14 -2.08426e-15 3.61858e-15)
(0 0 0)
(-7.95502e-20 0 0)
(8.49059e-20 0 0)
(8.4695e-20 0 0)
(7.63311e-21 0 0)
(4.27065e-22 0 0)
(1.16575e-23 0 0)
(1.55354e-25 0 0)
(9.15679e-28 0 0)
(2.24921e-30 0 0)
(9.85601e-34 0 0)
(0 0 0)
(0 0 0)
(-1.00261e-17 0 0)
(1.14678e-17 0 0)
(1.26866e-17 0 0)
(1.3121e-18 0 0)
(7.41742e-20 0 0)
(2.24022e-21 0 0)
(3.25405e-23 0 0)
(2.09863e-25 0 0)
(5.62527e-28 0 0)
(3.25232e-31 0 0)
(0 0 0)
(-1.7053e-15 -2.40961e-14 9.00368e-15)
(-1.28409e-15 -9.35619e-14 4.4974e-14)
(1.53911e-15 -8.52672e-14 3.73001e-14)
(1.80102e-15 -2.42418e-14 8.95961e-15)
(2.17189e-16 -9.46102e-16 4.73695e-16)
(1.21706e-17 0 0)
(4.44099e-19 0 0)
(6.84328e-21 0 0)
(4.76895e-23 0 0)
(1.40064e-25 0 0)
(1.04558e-28 0 0)
(0 0 0)
(-2.77139e-13 -1.29789e-12 6.79577e-13)
(-1.50599e-13 -4.54814e-12 2.49384e-12)
(1.85025e-13 -4.18444e-12 2.1813e-12)
(2.39647e-13 -1.28297e-12 6.74934e-13)
(3.2981e-14 -2.067e-13 9.87181e-14)
(1.84744e-15 -1.4942e-14 4.87229e-15)
(8.99445e-17 0 0)
(1.39588e-18 0 0)
(1.04626e-20 0 0)
(3.4472e-23 0 0)
(3.30442e-26 0 0)
(0 0 0)
(-1.24447e-11 -5.19566e-11 3.13518e-11)
(-7.36503e-12 -1.90627e-10 1.19887e-10)
(8.30558e-12 -1.81873e-10 1.09724e-10)
(1.12293e-11 -5.32614e-11 3.20064e-11)
(1.89955e-12 -9.41748e-12 5.32903e-12)
(2.55314e-13 -8.28099e-13 4.72802e-13)
(1.68964e-14 -4.01946e-14 2.29404e-14)
(2.60139e-16 0 0)
(2.12247e-18 0 0)
(8.12543e-21 0 0)
(1.01329e-23 0 0)
(0 0 0)
(-4.90985e-10 -2.04279e-09 1.47654e-09)
(-3.64661e-10 -7.36019e-09 5.64426e-09)
(3.68772e-10 -7.30951e-09 5.44025e-09)
(4.72413e-10 -2.23411e-09 1.60157e-09)
(8.27076e-11 -3.53894e-10 2.41293e-10)
(1.19639e-11 -3.22756e-11 2.2124e-11)
(9.31348e-13 -1.70974e-12 1.16365e-12)
(4.21953e-14 -6.00044e-14 4.07378e-14)
(3.82317e-16 0 0)
(1.75142e-18 0 0)
(2.90254e-21 0 0)
(0 0 0)
(-1.81667e-08 -7.35113e-08 7.06651e-08)
(-1.58324e-08 -2.11614e-07 2.12737e-07)
(1.45468e-08 -2.16952e-07 2.13465e-07)
(1.90957e-08 -8.58861e-08 8.17075e-08)
(3.31242e-09 -1.08669e-08 9.73032e-09)
(4.75402e-10 -1.06188e-09 9.3285e-10)
(3.65726e-11 -5.55709e-11 4.71982e-11)
(1.7909e-12 -2.015e-12 1.67955e-12)
(5.98801e-14 -5.3978e-14 4.25108e-14)
(3.3017e-16 0 0)
(7.37232e-19 0 0)
(0 0 0)
(-3.68868e-06 -2.46561e-05 2.71985e-05)
(9.99785e-08 -2.01227e-06 2.89016e-06)
(2.65099e-07 -1.02753e-06 1.40659e-06)
(1.05363e-07 -2.38259e-07 3.16382e-07)
(1.75664e-08 -2.83335e-08 3.94418e-08)
(1.22291e-09 -1.43847e-09 1.69315e-09)
(5.70528e-11 -4.98242e-11 5.50202e-11)
(1.98533e-12 -1.40174e-12 1.50374e-12)
(5.26798e-14 -3.0133e-14 3.18865e-14)
(1.57571e-16 0 0)
(0 0 0)
(1.11952e-05 -1.74169e-05 2.50816e-05)
(3.55593e-07 -4.13462e-07 7.21132e-07)
(3.23195e-08 -2.74131e-08 5.28927e-08)
(1.38003e-09 -8.51773e-10 1.40329e-09)
(4.66346e-11 -2.34311e-11 3.61536e-11)
(1.30505e-12 -5.50786e-13 8.27465e-13)
(2.76054e-14 -6.11743e-15 1.24039e-14)
(0 0 7.34976e-18)
(0 0 0)
(-7.07209e-22 0 0)
(6.79049e-22 0 0)
(7.38146e-22 0 0)
(5.1312e-23 0 0)
(2.44234e-24 0 0)
(5.1724e-26 0 0)
(4.77557e-28 0 0)
(1.55739e-30 0 0)
(1.00999e-33 0 0)
(2.78123e-41 0 0)
(0 0 0)
(0 0 0)
(-9.62365e-20 0 0)
(9.71215e-20 0 0)
(1.17122e-19 0 0)
(9.30845e-21 0 0)
(4.50708e-22 0 0)
(1.04655e-23 0 0)
(1.07532e-25 0 0)
(3.92855e-28 0 0)
(3.24656e-31 0 0)
(6.57261e-38 0 0)
(0 0 0)
(0 0 0)
(-1.23783e-17 0 2.84217e-16)
(1.28584e-17 0 9.4739e-17)
(1.77924e-17 0 0)
(1.64755e-18 0 0)
(8.0349e-20 0 0)
(2.14359e-21 0 0)
(2.42939e-23 0 0)
(9.93798e-26 0 0)
(1.01719e-28 0 0)
(1.17728e-34 0 0)
(0 0 0)
(-3.03165e-15 -3.00119e-14 2.02602e-14)
(-1.74606e-15 -1.11329e-13 7.93642e-14)
(2.07265e-15 -1.05579e-13 7.09325e-14)
(2.92228e-15 -3.03533e-14 2.05719e-14)
(2.7521e-16 -1.89242e-15 1.13687e-15)
(1.45465e-17 0 0)
(4.51562e-19 0 0)
(5.4659e-21 0 0)
(2.50569e-23 0 0)
(3.14095e-26 0 0)
(1.63927e-31 0 0)
(0 0 0)
(-3.26119e-13 -1.31992e-12 1.05675e-12)
(-1.7884e-13 -4.48991e-12 3.70098e-12)
(2.01626e-13 -4.31352e-12 3.42641e-12)
(2.96955e-13 -1.33335e-12 1.05168e-12)
(4.2075e-14 -2.24013e-13 1.68676e-13)
(3.09592e-15 -1.59089e-14 1.14499e-14)
(9.44757e-17 0 0)
(1.17453e-18 0 0)
(6.08021e-21 0 0)
(9.45641e-24 0 0)
(1.79387e-28 0 0)
(0 0 0)
(-1.21199e-11 -4.32596e-11 4.16999e-11)
(-7.20444e-12 -1.51342e-10 1.51936e-10)
(7.50029e-12 -1.50129e-10 1.46187e-10)
(1.15227e-11 -4.533e-11 4.31384e-11)
(1.98446e-12 -8.33769e-12 7.64378e-12)
(2.71065e-13 -7.40729e-13 6.70806e-13)
(1.78546e-14 -3.60764e-14 3.3497e-14)
(2.2618e-16 0 0)
(1.34734e-18 0 0)
(2.68109e-21 0 0)
(1.54425e-25 0 0)
(0 0 0)
(-3.79777e-10 -1.22235e-09 1.56347e-09)
(-2.73421e-10 -4.15183e-09 5.52157e-09)
(2.59772e-10 -4.2485e-09 5.5342e-09)
(3.81839e-10 -1.36519e-09 1.72718e-09)
(6.97379e-11 -2.34301e-10 2.77888e-10)
(1.03608e-11 -2.23092e-11 2.54523e-11)
(8.208e-13 -1.23074e-12 1.35366e-12)
(3.70217e-14 -4.28884e-14 4.69635e-14)
(2.59892e-16 0 0)
(6.82817e-19 0 0)
(1.03825e-22 0 0)
(0 0 0)
(-7.72565e-09 -7.81254e-08 1.3399e-07)
(6.65592e-09 -8.06787e-08 1.38743e-07)
(1.01958e-08 -2.89853e-08 5.58663e-08)
(1.91856e-09 -4.30508e-09 7.57337e-09)
(2.94535e-10 -4.63785e-10 7.72307e-10)
(2.43662e-11 -2.83285e-11 4.20987e-11)
(1.25625e-12 -1.09713e-12 1.54958e-12)
(4.25904e-14 -2.65759e-14 4.03994e-14)
(1.486e-16 0 0)
(5.36101e-20 0 0)
(0 0 0)
(2.68423e-08 -5.42524e-08 9.68462e-08)
(5.08696e-09 -5.8114e-09 1.38835e-08)
(4.89933e-10 -4.1924e-10 9.56277e-10)
(2.75863e-11 -1.73252e-11 3.58645e-11)
(1.0349e-12 -5.16923e-13 1.0367e-12)
(2.65061e-14 -7.09189e-15 2.17652e-14)
(2.05887e-17 0 2.07456e-17)
(0 0 0)
(0 0 0)
(-3.44653e-24 0 0)
(3.15845e-24 0 0)
(3.19184e-24 0 0)
(1.91814e-25 0 0)
(7.1441e-27 0 0)
(1.16591e-28 0 0)
(4.86317e-31 0 0)
(4.83044e-34 0 0)
(2.61772e-41 0 0)
(0 0 0)
(0 0 0)
(0 0 0)
(-5.35261e-22 0 0)
(4.87209e-22 0 0)
(5.57995e-22 0 0)
(3.65209e-23 0 0)
(1.43986e-24 0 0)
(2.55878e-26 0 0)
(1.24365e-28 0 0)
(1.52647e-31 0 0)
(5.91979e-38 0 0)
(0 0 0)
(0 0 0)
(0 0 0)
(-7.6261e-20 0 0)
(6.94947e-20 0 0)
(9.48324e-20 0 0)
(6.80841e-21 0 0)
(2.78772e-22 0 0)
(5.54529e-24 0 0)
(3.13982e-26 0 0)
(4.56591e-29 0 0)
(1.01497e-34 0 0)
(0 0 0)
(0 0 0)
(0 0 0)
(-1.03491e-17 0 3.78956e-16)
(9.93053e-18 0 2.84217e-16)
(1.68079e-17 0 0)
(1.22536e-18 0 0)
(5.22073e-20 0 0)
(1.21309e-21 0 0)
(7.96133e-24 0 0)
(1.33112e-26 0 0)
(1.36108e-31 0 0)
(0 0 0)
(0 0 0)
(-2.65269e-15 -2.15326e-14 2.42486e-14)
(-1.7133e-15 -8.59563e-14 9.22217e-14)
(2.00894e-15 -8.85709e-14 8.55629e-14)
(3.21132e-15 -2.28948e-14 2.50652e-14)
(2.08177e-16 -7.57483e-16 1.80004e-15)
(1.0202e-17 0 0)
(2.69335e-19 0 0)
(2.02711e-21 0 0)
(3.90698e-24 0 0)
(1.45029e-28 0 0)
(0 0 0)
(0 0 0)
(-2.44156e-13 -8.83789e-13 1.03299e-12)
(-1.50806e-13 -2.91868e-12 3.50203e-12)
(1.48058e-13 -2.91448e-12 3.38624e-12)
(2.42911e-13 -9.185e-13 1.04631e-12)
(3.24342e-14 -1.55287e-13 1.75443e-13)
(2.28032e-15 -1.02256e-14 1.33988e-14)
(5.87815e-17 0 0)
(4.99795e-19 0 0)
(1.15744e-21 0 0)
(1.2323e-25 0 0)
(0 0 0)
(0 0 0)
(-7.75222e-12 -2.18564e-11 3.26085e-11)
(-4.52098e-12 -7.19933e-11 1.13028e-10)
(4.34347e-12 -7.36329e-11 1.12897e-10)
(7.72935e-12 -2.351e-11 3.44832e-11)
(1.34809e-12 -4.45456e-12 6.38694e-12)
(1.86759e-13 -4.15742e-13 5.74254e-13)
(1.17115e-14 -1.96001e-14 2.87059e-14)
(1.10973e-16 0 0)
(3.28482e-19 0 0)
(8.27834e-23 0 0)
(0 0 0)
(0 0 0)
(-1.19281e-10 -1.23426e-09 2.768e-09)
(1.05763e-10 -1.27385e-09 2.85509e-09)
(1.79616e-10 -4.22222e-10 9.29259e-10)
(3.43017e-11 -8.08991e-11 1.66427e-10)
(5.33068e-12 -8.52473e-12 1.63312e-11)
(4.46852e-13 -5.18386e-13 9.23882e-13)
(2.03246e-14 -1.68798e-14 3.16699e-14)
(8.19912e-17 0 0)
(4.31028e-20 0 0)
(0 0 0)
(0 0 0)
(5.50099e-10 -1.09261e-09 2.5136e-09)
(9.18572e-11 -1.04192e-10 2.9232e-10)
(8.82974e-12 -7.47331e-12 1.9648e-11)
(5.07008e-13 -3.13911e-13 7.86752e-13)
(1.65438e-14 -4.89936e-15 1.97386e-14)
(1.68894e-17 0 2.28007e-17)
(0 0 0)
(0 0 0)
(0 0 0)
(-6.9298e-27 0 0)
(6.45823e-27 0 0)
(7.2366e-27 0 0)
(3.21869e-28 0 0)
(9.01395e-30 0 0)
(6.22622e-32 0 0)
(5.88269e-35 0 0)
(0 0 0)
(0 0 0)
(0 0 0)
(0 0 0)
(0 0 0)
(-1.24746e-24 0 0)
(1.13843e-24 0 0)
(1.39124e-24 0 0)
(6.69251e-26 0 0)
(2.11475e-27 0 0)
(1.62914e-29 0 0)
(2.1488e-32 0 0)
(0 0 0)
(0 0 0)
(0 0 0)
(0 0 0)
(0 0 0)
(-2.11242e-22 0 0)
(1.91537e-22 0 0)
(2.54671e-22 0 0)
(1.38142e-23 0 0)
(4.76233e-25 0 0)
(4.07295e-27 0 0)
(7.20285e-30 0 0)
(0 0 0)
(0 0 0)
(0 0 0)
(0 0 0)
(0 0 0)
(-3.3132e-20 0 0)
(3.02572e-20 0 0)
(4.49663e-20 0 0)
(2.80688e-21 0 0)
(1.01237e-22 0 0)
(9.79379e-25 0 0)
(2.24572e-27 0 0)
(1.92357e-34 0 0)
(0 0 0)
(0 0 0)
(0 0 0)
(0 0 0)
(-4.73935e-18 0 1.89478e-16)
(4.40578e-18 0 1.89478e-16)
(8.50354e-18 0 0)
(5.45078e-19 0 0)
(1.99212e-20 0 0)
(2.34506e-22 0 0)
(6.7332e-25 0 0)
(1.08364e-30 0 0)
(0 0 0)
(0 0 0)
(0 0 0)
(-9.4739e-16 -1.16412e-14 1.75843e-14)
(-6.66863e-16 -4.66496e-14 6.95114e-14)
(6.40407e-16 -4.97089e-14 6.97415e-14)
(1.94975e-15 -1.11352e-14 1.79192e-14)
(9.78805e-17 0 1.51582e-15)
(3.55896e-18 0 0)
(5.87763e-20 0 0)
(2.02718e-22 0 0)
(2.86278e-27 0 0)
(0 0 0)
(0 0 0)
(0 0 0)
(-1.33988e-13 -3.9538e-13 6.68928e-13)
(-8.27536e-14 -1.25502e-12 2.19835e-12)
(8.20773e-14 -1.29284e-12 2.20003e-12)
(1.32685e-13 -4.18531e-13 6.97523e-13)
(1.61264e-14 -6.98004e-14 1.17842e-13)
(7.57813e-16 -2.64583e-15 7.52499e-15)
(1.5262e-17 0 0)
(6.15623e-20 0 0)
(4.5732e-24 0 0)
(0 0 0)
(0 0 0)
(0 0 0)
(-1.89272e-12 -2.06211e-11 5.04587e-11)
(1.67951e-12 -2.13288e-11 5.19319e-11)
(3.37875e-12 -7.47077e-12 1.68135e-11)
(5.91528e-13 -1.39408e-12 3.22768e-12)
(8.03733e-14 -1.3675e-13 3.06454e-13)
(3.67343e-15 -3.75238e-15 1.505e-14)