/*--------------------------------*- C++ -*----------------------------------*\
  =========                 |
  \\      /  F ield         | OpenFOAM: The Open Source CFD Toolbox
   \\    /   O peration     | Website:  https://openfoam.org
    \\  /    A nd           | Version:  9
     \\/     M anipulation  |
\*---------------------------------------------------------------------------*/
FoamFile
{
    format      ascii;
    class       volVectorField;
    location    "0.00115";
    object      U;
}
// * * * * * * * * * * * * * * * * * * * * * * * * * * * * * * * * * * * * * //

dimensions      [0 1 -1 0 0 0 0];

internalField   nonuniform List<vector> 
10822
(
(0.0430705 -0.0376161 0.119106)
(6.31227e-06 -6.27208e-06 2.76453e-05)
(1.97356e-08 -1.62791e-08 8.01373e-08)
(5.28622e-10 -4.54159e-10 2.38167e-09)
(1.114e-11 -1.00207e-11 5.58758e-11)
(78.9723 -47.6195 193.083)
(94.638 12.8912 219.244)
(0.000358076 -0.000255565 0.00207458)
(0.000119211 -6.85651e-05 0.000622295)
(0.00160763 -0.000189115 0.0239834)
(4.72868e-05 3.95379e-06 0.000166085)
(1.8625e-07 -1.09974e-07 1.34964e-06)
(5.71678e-08 -2.8373e-08 2.73344e-07)
(4.97277e-09 -3.25826e-09 2.90727e-08)
(1.53036e-09 -7.92257e-10 6.5958e-09)
(1.29731e-10 -8.48521e-11 6.83175e-10)
(3.49654e-11 -1.98694e-11 1.63212e-10)
(8.6872e-08 3.35196e-10 4.35492e-07)
(2.37354e-09 5.09609e-12 1.03114e-08)
(5.61705e-11 -1.93263e-13 2.58869e-10)
(2.68462e-07 -9.7393e-09 1.95692e-06)
(7.52073e-09 8.88275e-11 4.41426e-08)
(2.01111e-10 3.14741e-12 1.0622e-09)
(3.38652e-08 -1.36297e-08 5.80694e-08)
(6.09191e-10 -2.72054e-10 1.43495e-09)
(9.93029e-12 -4.7819e-12 2.7432e-11)
(1.48524e-13 -6.27543e-14 4.6985e-13)
(8.9868e-05 -5.18652e-05 0.000169927)
(2.54975e-07 -1.57374e-07 6.20289e-07)
(6.69208e-09 -4.17324e-09 2.4238e-08)
(1.03745e-10 -6.55039e-11 3.8674e-10)
(1.79984e-12 -1.07785e-12 6.32431e-12)
(960.734 -337.9 62.6131)
(0.0001661 -4.11365e-05 4.00191e-05)
(1.16209e-06 -2.34613e-07 1.5472e-07)
(1.41132e-07 -1.75627e-08 5.86692e-09)
(2.62281e-09 -3.39955e-10 8.10853e-11)
(674.93 -352.514 359.942)
(0.000179457 -3.73998e-05 5.38158e-05)
(7.78815e-07 -1.77206e-07 1.0273e-07)
(4.64875e-08 -8.80804e-09 5.92158e-09)
(1.03214e-09 -1.78713e-10 1.24485e-10)
(85.6729 -47.8109 22.4137)
(0.0282216 -0.00643468 0.00393012)
(3.50837e-07 -8.30512e-08 5.88633e-08)
(7.6075e-09 -1.59372e-09 1.22032e-09)
(1.76911e-10 -3.42693e-11 2.69496e-11)
(8.51909e-05 -2.63142e-05 2.27228e-05)
(7.68746e-06 -1.68539e-06 1.81581e-06)
(5.36817e-08 -1.01855e-08 1.15413e-08)
(1.48303e-09 -2.37632e-10 2.52452e-10)
(3.12867e-11 -4.83358e-12 5.11613e-12)
(2.51967e-05 -7.28077e-06 1.95935e-05)
(1.46979e-07 -3.30043e-08 7.23212e-08)
(4.39905e-09 -7.64635e-10 1.63476e-09)
(1.0063e-10 -1.55034e-11 3.18216e-11)
(1.96401e-12 -2.85443e-13 5.81261e-13)
(7.62017e-06 -3.01403e-06 1.0455e-05)
(9.90804e-08 -3.19472e-08 1.15748e-07)
(4.57739e-09 -1.02276e-09 3.78645e-09)
(1.34622e-10 -2.45897e-11 8.7117e-11)
(3.17207e-12 -5.16927e-13 1.72244e-12)
(6.12075e-14 -6.25333e-15 2.7259e-14)
(2.2102e-09 -7.04118e-10 3.34924e-09)
(9.7912e-11 -2.28546e-11 1.06747e-10)
(2.99879e-12 -5.81847e-13 2.58129e-12)
(6.97664e-14 -8.81653e-15 5.04909e-14)
(0 0 1.26621e-17)
(4.00056e-11 -1.31966e-11 7.18949e-11)
(1.79192e-12 -4.39125e-13 2.33202e-12)
(5.28808e-14 -6.82784e-15 5.65296e-14)
(1.39043e-17 0 9.44188e-17)
(0 0 0)
(6.63682e-13 -2.18557e-13 1.3339e-12)
(2.50934e-14 -3.8669e-15 4.32794e-14)
(2.99879e-18 0 1.3746e-17)
(0 0 0)
(0 0 0)
(5.31007e-15 -1.39208e-15 2.07266e-14)
(7.37274e-21 0 0)
(0 0 0)
(0 0 0)
(0 0 0)
(0.712213 -0.116433 0.0140899)
(2.95769e-05 -4.15248e-06 9.80045e-07)
(7.06448e-07 -7.23043e-08 2.83707e-08)
(1.01888e-08 -1.12312e-09 2.04096e-10)
(0.00142652 -0.000259123 0.000421501)
(2.61161e-06 -4.578e-07 3.55749e-07)
(1.60637e-07 -2.09043e-08 1.76708e-08)
(4.39352e-09 -5.64418e-10 3.93141e-10)
(575.952 -196.795 155.098)
(0.000123694 -2.54424e-05 1.98861e-05)
(3.29591e-06 -3.98457e-07 4.49907e-07)
(7.50396e-08 -8.86914e-09 8.73783e-09)
(1.14668e-09 -1.56036e-10 1.58759e-10)
(0.0220409 -0.00521283 0.014089)
(0.000135039 -2.30404e-05 4.56858e-05)
(1.67189e-07 -2.41087e-08 5.71904e-08)
(4.66844e-09 -6.79072e-10 1.20666e-09)
(1.16906e-10 -1.65491e-11 2.49119e-11)
(0.000178081 -4.21842e-05 0.000148478)
(5.06181e-07 -7.45825e-08 2.6857e-07)
(1.30165e-08 -1.99704e-09 5.23719e-09)
(3.42299e-10 -5.06749e-11 1.19678e-10)
(7.93354e-12 -1.11997e-12 2.57252e-12)
(0.000101813 -2.93796e-05 0.000151213)
(3.67271e-07 -6.90453e-08 4.11976e-07)
(1.40721e-08 -2.54544e-09 1.15209e-08)
(4.58876e-10 -7.70207e-11 2.99404e-10)
(1.27301e-11 -1.95079e-12 7.06277e-12)
(2.94122e-13 -3.40256e-14 1.40185e-13)
(1.07483e-07 -2.53638e-08 1.83208e-07)
(7.25554e-09 -1.70091e-09 1.03614e-08)
(3.44262e-10 -6.90178e-11 3.65995e-10)
(1.20715e-11 -2.12778e-12 1.03766e-11)
(3.3334e-13 -4.44614e-14 2.42932e-13)
(5.01436e-15 0 2.99086e-15)
(2.24148e-09 -6.35553e-10 4.70657e-09)
(1.51131e-10 -3.82767e-11 2.53602e-10)
(7.32006e-12 -1.52977e-12 9.36216e-12)
(2.52144e-13 -3.65592e-14 2.63933e-13)
(3.92569e-15 0 3.83102e-15)
(0 0 0)
(4.12926e-11 -1.30916e-11 1.04171e-10)
(2.82484e-12 -7.51263e-13 5.41809e-12)
(1.28924e-13 -1.98266e-14 1.94343e-13)
(1.43248e-15 0 3.06511e-15)
(0 0 0)
(0 0 0)
(6.77849e-13 -2.3154e-13 1.94422e-12)
(3.96509e-14 -6.408e-15 9.67326e-14)
(5.00512e-18 0 1.56794e-15)
(0 0 0)
(0 0 0)
(0 0 0)
(4.17057 -0.790738 8.99542)
(0.853586 0.0945466 1.88953)
(4.9704e-06 -1.31013e-06 1.52829e-05)
(1.98312e-06 2.15498e-07 5.95807e-06)
(1.74148e-08 -7.8495e-09 5.93905e-08)
(3.45906e-10 -1.67364e-10 1.42309e-09)
(6.36444e-12 -2.99205e-12 2.63108e-11)
(2.86688e-08 1.98098e-10 1.00386e-07)
(5.74287e-10 3.27306e-12 2.40323e-09)
(1.06339e-11 3.14876e-14 4.47511e-11)
(-0.00114944 -0.000309572 0.00709397)
(-0.00163063 0.000723636 0.0288905)
(-2.25767e-07 -1.37209e-07 1.71374e-06)
(-2.61369e-07 2.46944e-08 2.0996e-06)
(-5.45339e-09 -2.86127e-09 3.31666e-08)
(-7.0183e-09 2.25723e-10 4.32021e-08)
(-1.3523e-10 -6.78748e-11 7.15367e-10)
(-1.81338e-10 3.21982e-12 9.60541e-10)
(-4.41931e-14 -3.31758e-13 3.95529e-15)
(-5.48249e-14 -1.35927e-12 2.30246e-14)
(3.65715e-14 -1.56464e-12 2.7908e-14)
(6.09476e-14 -5.08685e-13 6.31962e-15)
(6.19501e-15 -7.16371e-14 5.41366e-16)
(5.88079e-16 -3.80061e-15 0)
(2.36981e-17 0 0)
(6.53785e-19 0 0)
(8.56069e-21 0 0)
(6.09241e-23 0 0)
(2.66865e-25 0 0)
(0 0 0)
(-3.35333e-12 -2.00685e-11 3.69466e-13)
(-3.56527e-12 -8.14468e-11 1.70294e-12)
(2.06648e-12 -9.28279e-11 2.00497e-12)
(4.66708e-12 -3.24412e-11 6.48114e-13)
(7.08097e-13 -4.43455e-12 9.93683e-14)
(8.66721e-14 -4.72753e-13 7.94372e-15)
(4.60681e-15 -2.02294e-14 0)
(1.24666e-16 0 0)
(1.63683e-18 0 0)
(1.29461e-20 0 0)
(5.93857e-23 0 0)
(0 0 0)
(-1.80174e-10 -9.98362e-10 2.89776e-11)
(-2.09513e-10 -4.04182e-09 1.29239e-10)
(1.20663e-10 -4.58931e-09 1.48632e-10)
(2.62638e-10 -1.73928e-09 5.30227e-11)
(4.55593e-11 -2.73215e-10 6.81373e-12)
(6.01858e-12 -3.00484e-11 8.15419e-13)
(5.29494e-13 -1.41806e-12 3.31449e-14)
(2.22195e-14 -4.80394e-14 2.32014e-16)
(3.00638e-16 0 0)
(2.57448e-18 0 0)
(1.27978e-20 0 0)
(0 0 0)
(-1.10018e-08 -1.60935e-07 8.06812e-09)
(6.52784e-09 -1.8188e-07 9.22469e-09)
(1.09599e-08 -7.04199e-08 3.51288e-09)
(3.42096e-09 -2.15784e-08 6.91511e-10)
(3.83556e-10 -1.61943e-09 6.1556e-11)
(3.37319e-11 -7.75762e-11 2.42233e-12)
(1.51927e-12 -2.74525e-12 5.4238e-14)
(5.05213e-14 -7.34997e-14 -4.41655e-15)
(4.65424e-16 0 0)
(2.58693e-18 0 0)
(0 0 0)
(-1.27086e-05 -0.00014131 6.05848e-06)
(8.78379e-08 -7.14181e-06 2.23735e-07)
(2.13476e-07 -1.97884e-06 6.21517e-08)
(2.18867e-07 -1.13182e-06 5.27239e-08)
(2.36642e-08 -7.11749e-08 4.06156e-09)
(1.8947e-09 -3.8492e-09 1.62628e-10)
(8.35724e-11 -1.33174e-10 4.57978e-12)
(2.84652e-12 -3.5832e-12 9.0761e-14)
(7.52277e-14 -7.87438e-14 9.28056e-16)
(4.75293e-16 0 0)
(0 0 0)
(-30.2885 -158.336 7.34631)
(6.53763e-05 -0.0168207 0.000250563)
(0.000263773 -0.00314757 4.39927e-05)
(4.70968e-05 -0.000238633 8.84215e-06)
(1.1915e-06 -4.80148e-06 1.52799e-07)
(1.18706e-07 -2.03198e-07 1.20038e-08)
(4.39572e-09 -6.12093e-09 2.87541e-10)
(1.37347e-10 -1.45673e-10 5.9334e-12)
(3.59566e-12 -3.19185e-12 1.11577e-13)
(7.76647e-14 -5.92276e-14 1.00539e-15)
(0 0 0)
(-186.739 -1050.3 63.6843)
(12.9338 -778.905 43.0007)
(134.996 -573.595 30.3986)
(14.6623 -40.0633 1.48078)
(0.00722523 -0.0221191 0.000354727)
(1.36733e-05 -2.0167e-05 9.52466e-07)
(2.63553e-07 -2.89498e-07 2.09092e-08)
(6.13514e-09 -5.0731e-09 3.00712e-10)
(1.41708e-10 -9.94567e-11 5.00674e-12)
(3.08821e-12 -1.88006e-12 8.26522e-14)
(5.80477e-14 -2.73379e-14 5.41366e-16)
(453.93 -672.522 41.8847)
(0.556279 -0.841398 0.0208076)
(2.83478e-05 -2.71277e-05 1.57618e-06)
(2.2226e-07 -1.39262e-07 1.33954e-08)
(4.40182e-09 -2.24743e-09 1.78781e-10)
(9.10699e-11 -4.1082e-11 2.68271e-12)
(1.70963e-12 -6.86139e-13 3.81497e-14)
(0.138398 -0.0598205 0.00259406)
(9.12853e-06 -3.26888e-06 3.60071e-07)
(9.10838e-08 -4.34856e-08 4.76305e-09)
(1.87587e-09 -7.86022e-10 6.68986e-11)
(3.51114e-11 -1.20097e-11 8.90867e-13)
(-1.44291e-14 -1.32822e-13 6.68459e-15)
(-1.56973e-14 -4.98145e-13 3.81497e-14)
(1.089e-14 -5.4605e-13 4.74524e-14)
(1.92883e-14 -1.73988e-13 1.04185e-14)
(1.82783e-15 -1.93345e-14 8.50718e-16)
(1.38442e-16 0 0)
(6.32228e-18 0 0)
(1.48398e-19 0 0)
(2.12143e-21 0 0)
(1.85424e-23 0 0)
(9.05914e-26 0 0)
(0 0 0)
(-1.35947e-12 -6.63137e-12 6.87621e-13)
(-1.06156e-12 -2.48438e-11 2.71926e-12)
(7.35685e-13 -2.73777e-11 3.26914e-12)
(1.63773e-12 -9.03273e-12 1.09065e-12)
(2.30894e-13 -1.32548e-12 1.61338e-13)
(2.16738e-14 -1.10541e-13 9.75563e-15)
(9.20398e-16 -3.68047e-15 0)
(2.42693e-17 0 0)
(3.6232e-19 0 0)
(3.39873e-21 0 0)
(1.83618e-23 0 0)
(0 0 0)
(-6.10908e-11 -2.85457e-10 3.63412e-11)
(-5.52155e-11 -1.12518e-09 1.40949e-10)
(3.71547e-11 -1.24929e-09 1.67362e-10)
(7.67584e-11 -4.06942e-10 5.89933e-11)
(1.26883e-11 -6.86095e-11 9.73813e-12)
(1.63847e-12 -6.01571e-12 9.54704e-13)
(1.25163e-13 -3.53451e-13 4.46019e-14)
(4.60897e-15 -1.05242e-14 3.8669e-16)
(6.4317e-17 0 0)
(6.27195e-19 0 0)
(3.7354e-21 0 0)
(0 0 0)
(-2.97327e-09 -5.75011e-08 6.87512e-09)
(2.0657e-09 -6.41988e-08 8.07818e-09)
(3.12053e-09 -1.70562e-08 2.52852e-09)
(6.17032e-10 -3.12341e-09 5.1647e-10)
(8.68489e-11 -2.97087e-10 5.34602e-11)
(6.93793e-12 -1.7804e-11 2.82452e-12)
(3.79374e-13 -7.1869e-13 1.00727e-13)
(1.14298e-14 -1.83733e-14 1.16007e-15)
(1.13258e-16 0 0)
(7.43814e-19 0 0)
(0 0 0)
(-2.54988e-07 -4.24046e-06 7.51805e-07)
(9.83217e-08 -2.65966e-06 4.83168e-07)
(1.23107e-07 -8.08257e-07 1.73079e-07)
(2.65736e-08 -1.20275e-07 2.22147e-08)
(4.79269e-09 -1.71183e-08 2.83647e-09)
(3.5677e-10 -8.3991e-10 1.41178e-10)
(1.95027e-11 -3.29375e-11 5.52342e-12)
(7.50545e-13 -9.7666e-13 1.563e-13)
(1.86789e-14 -2.22879e-14 1.70144e-15)
(1.37081e-16 0 0)
(0 0 0)
(-0.0476303 -0.395767 0.151246)
(2.9553e-06 -0.000311884 9.02574e-05)
(1.07394e-05 -8.4852e-05 2.64184e-05)
(1.37984e-06 -8.73416e-06 1.8094e-06)
(2.50751e-07 -7.69105e-07 1.86223e-07)
(1.9309e-08 -3.58042e-08 6.7309e-09)
(9.51656e-10 -1.40537e-09 2.62112e-10)
(3.43033e-11 -3.78295e-11 7.24386e-12)
(9.87282e-13 -8.99226e-13 1.69668e-13)
(2.21282e-14 -1.52712e-14 1.54676e-15)
(0 0 0)
(-152.515 -740.153 373.321)
(0.277558 -35.4589 17.8081)
(1.40485 -8.0411 3.55263)
(0.0156599 -0.0705068 0.0252732)
(5.50391e-05 -0.000173056 5.63593e-05)
(4.93045e-07 -8.75406e-07 2.38049e-07)
(4.18912e-08 -4.97723e-08 1.12452e-08)
(1.44688e-09 -1.26517e-09 2.92463e-10)
(3.72178e-11 -2.68044e-11 6.36146e-12)
(8.72958e-13 -5.48922e-13 1.28547e-13)
(1.55118e-14 -6.16767e-15 6.96042e-16)
(22.464 -39.5811 21.5426)
(0.000693437 -0.00111346 0.00042385)
(2.40914e-06 -2.0133e-06 8.30212e-07)
(4.71947e-08 -2.86957e-08 9.30439e-09)
(1.15943e-09 -5.71531e-10 1.88012e-10)
(2.48134e-11 -1.11628e-11 3.6324e-12)
(5.06696e-13 -2.11077e-13 5.63241e-14)
(0.00024475 -9.72186e-05 8.00542e-05)
(4.89036e-07 -2.01227e-07 1.05814e-07)
(2.07617e-08 -7.27446e-09 3.22303e-09)
(4.6328e-10 -1.46675e-10 6.81859e-11)
(9.38222e-12 -2.92446e-12 1.28095e-12)
(-2.98304e-15 -3.88679e-14 1.7693e-15)
(-2.96275e-15 -1.60753e-13 8.51823e-15)
(3.37646e-15 -1.49903e-13 8.77234e-15)
(3.21729e-15 -4.28673e-14 1.77877e-15)
(3.51418e-16 -2.16546e-15 0)
(1.95836e-17 0 0)
(8.92223e-19 0 0)
(2.32272e-20 0 0)
(2.95623e-22 0 0)
(2.23408e-24 0 0)
(1.02819e-26 0 0)
(0 0 0)
(-4.47765e-13 -2.22465e-12 2.38443e-13)
(-2.86946e-13 -8.83188e-12 9.12853e-13)
(3.06659e-13 -8.36035e-12 9.05042e-13)
(4.27233e-13 -2.57375e-12 2.7055e-13)
(5.02703e-14 -2.61403e-13 2.27484e-14)
(2.98481e-15 -1.93106e-14 8.50718e-16)
(1.44715e-16 0 0)
(3.81466e-18 0 0)
(5.12877e-20 0 0)
(4.14257e-22 0 0)
(2.08027e-24 0 0)
(0 0 0)
(-2.31753e-11 -1.03071e-10 1.21579e-11)
(-1.56886e-11 -4.08367e-10 4.6097e-11)
(1.53458e-11 -3.92901e-10 4.70993e-11)
(2.35222e-11 -1.29008e-10 1.48994e-11)
(3.24526e-12 -1.44485e-11 1.6684e-12)
(3.18785e-13 -1.2677e-12 1.37838e-13)
(2.23315e-14 -7.83787e-14 5.25898e-15)
(5.87098e-16 -7.72326e-16 0)
(8.35949e-18 0 0)
(7.30808e-20 0 0)
(4.02162e-22 0 0)
(0 0 0)
(-7.88743e-10 -1.59101e-08 2.06366e-09)
(7.06597e-10 -1.56189e-08 2.14231e-09)
(1.05211e-09 -5.36625e-09 7.01601e-10)
(1.73548e-10 -8.13622e-10 9.4408e-11)
(1.78658e-11 -6.33201e-11 7.88075e-12)
(1.49552e-12 -4.29707e-12 5.01051e-13)
(8.322e-14 -1.69756e-13 1.38545e-14)
(1.26412e-15 -2.31557e-15 0)
(1.29011e-17 0 0)
(7.76772e-20 0 0)
(0 0 0)
(-3.84697e-08 -5.4437e-07 8.22606e-08)
(3.10439e-08 -5.51694e-07 8.66203e-08)
(3.40512e-08 -1.68236e-07 2.6309e-08)
(9.94272e-09 -4.60722e-08 5.59809e-09)
(9.76553e-10 -2.80365e-09 3.94144e-10)
(7.83369e-11 -2.03138e-10 2.62852e-11)
(4.7271e-12 -8.19509e-12 1.06677e-12)
(1.76426e-13 -2.36931e-13 2.42841e-14)
(2.65413e-15 -3.3962e-15 0)
(1.64819e-17 0 0)
(0 0 0)
(-6.83802e-05 -0.000604136 7.27918e-05)
(6.36307e-07 -3.05859e-05 3.11577e-06)
(7.86738e-07 -5.50004e-06 6.34212e-07)
(2.75511e-07 -1.093e-06 1.45359e-07)
(4.66238e-08 -9.77344e-08 1.81894e-08)
(3.75926e-09 -8.19803e-09 1.22326e-09)
(2.2813e-10 -3.35038e-10 4.96181e-11)
(8.53404e-12 -9.55313e-12 1.46496e-12)
(2.38297e-13 -2.21936e-13 2.96867e-14)
(3.89338e-15 -1.5443e-15 0)
(0 0 0)
(-41.6376 -177.11 45.5147)
(0.000471933 -0.0596635 0.00751017)
(0.00113684 -0.00950407 0.000981789)
(3.5588e-05 -0.000141013 1.80957e-05)
(1.52927e-06 -3.38482e-06 4.6859e-07)
(1.59492e-07 -2.7195e-07 4.69984e-08)
(9.40248e-09 -1.096e-08 1.98534e-09)
(3.42588e-10 -3.04275e-10 5.637e-11)
(9.42708e-12 -6.92556e-12 1.32871e-12)
(2.14001e-13 -1.32824e-13 2.09586e-14)
(1.23741e-15 -4.63677e-16 0)
(0.00338731 -0.00746485 0.000961319)
(1.1625e-05 -1.74241e-05 2.2696e-06)
(3.13813e-07 -2.58387e-07 6.25713e-08)
(1.04464e-08 -6.59103e-09 1.70395e-09)
(2.83802e-10 -1.49728e-10 3.88667e-11)
(6.47558e-12 -3.01725e-12 7.91709e-13)
(1.27055e-13 -5.0862e-14 9.04854e-15)
(0.000237889 -0.000151635 4.05824e-05)
(1.70949e-07 -8.61156e-08 2.97983e-08)
(5.22286e-09 -2.01631e-09 7.4253e-10)
(1.27311e-10 -4.08877e-11 1.55551e-11)
(2.59255e-12 -7.61691e-13 2.92794e-13)
(0 -1.39208e-15 0)
(-1.63693e-16 -1.10925e-14 9.94346e-16)
(2.27826e-16 -9.39104e-15 8.50718e-16)
(1.70728e-16 -1.39208e-15 0)
(1.95641e-17 0 0)
(1.32987e-18 0 0)
(5.84357e-20 0 0)
(1.14952e-21 0 0)
(1.28068e-23 0 0)
(7.53022e-26 0 0)
(2.45763e-28 0 0)
(0 0 0)
(-3.45811e-14 -2.20898e-13 3.60264e-14)
(-2.41379e-14 -8.79446e-13 1.62741e-13)
(3.41704e-14 -7.18202e-13 1.43716e-13)
(2.44858e-14 -2.25323e-13 3.87574e-14)
(2.52156e-15 -2.57476e-14 2.01079e-15)
(2.08883e-16 -7.72328e-16 0)
(9.20162e-18 0 0)
(1.91637e-19 0 0)
(2.46981e-21 0 0)
(1.58623e-23 0 0)
(5.43545e-26 0 0)
(0 0 0)
(-2.39792e-12 -1.07385e-11 2.29689e-12)
(-1.43072e-12 -4.38278e-11 9.24105e-12)
(1.87189e-12 -3.67087e-11 8.33947e-12)
(1.92352e-12 -1.1235e-11 2.50796e-12)
(3.01967e-13 -1.56507e-12 2.72163e-13)
(3.16181e-14 -1.56952e-13 2.02515e-14)
(1.33783e-15 -5.5964e-15 3.8669e-16)
(3.25957e-17 0 0)
(4.84625e-19 0 0)
(3.34731e-21 0 0)
(1.19164e-23 0 0)
(0 0 0)
(-8.26692e-11 -2.18188e-09 4.68803e-10)
(9.44397e-11 -1.9326e-09 4.32286e-10)
(9.39153e-11 -5.31154e-10 1.28446e-10)
(1.52422e-11 -7.15793e-11 1.50667e-11)
(2.04093e-12 -8.01567e-12 1.41023e-12)
(1.768e-13 -4.76503e-13 8.1238e-14)
(6.2739e-15 -1.53382e-14 1.45837e-15)
(9.33032e-17 0 0)
(6.89737e-19 0 0)
(2.60567e-21 0 0)
(0 0 0)
(-5.39413e-09 -1.14658e-07 2.59498e-08)
(5.33369e-09 -1.07892e-07 2.48739e-08)
(4.83348e-09 -2.87874e-08 6.74376e-09)
(7.14671e-10 -2.91193e-09 7.90833e-10)
(9.97602e-11 -3.64061e-10 7.2549e-11)
(9.47629e-12 -2.23791e-11 4.67037e-12)
(5.15263e-13 -8.52003e-13 1.76154e-13)
(1.61493e-14 -2.23059e-14 2.79522e-15)
(1.31187e-16 0 0)
(5.57933e-19 0 0)
(0 0 0)
(-1.0701e-06 -1.00141e-05 2.57132e-06)
(1.22504e-07 -2.59191e-06 7.63197e-07)
(1.91472e-07 -1.10536e-06 3.08801e-07)
(3.29089e-08 -1.07671e-07 3.78108e-08)
(4.82891e-09 -1.59321e-08 3.60963e-09)
(4.64083e-10 -9.74551e-10 2.33487e-10)
(2.43995e-11 -3.47137e-11 8.73019e-12)
(8.81023e-13 -9.84235e-13 2.45416e-13)
(2.20673e-14 -2.0507e-14 3.5465e-15)
(1.11562e-16 0 0)
(0 0 0)
(-0.099302 -0.622968 0.217628)
(5.71257e-06 -0.000329283 9.87648e-05)
(1.85506e-05 -0.000119486 3.61022e-05)
(2.31736e-06 -1.01077e-05 2.48549e-06)
(2.87311e-07 -7.48519e-07 2.12672e-07)
(2.64939e-08 -4.74811e-08 1.28321e-08)
(1.07936e-09 -1.25698e-09 3.77009e-10)
(3.54167e-11 -3.22422e-11 9.96234e-12)
(9.75304e-13 -7.40696e-13 2.24567e-13)
(1.96574e-14 -1.13783e-14 2.05498e-15)
(0 0 0)
(3.79195e-05 -8.33051e-05 2.75932e-05)
(1.42336e-06 -1.58223e-06 6.5861e-07)
(5.23922e-08 -4.33419e-08 1.64283e-08)
(1.22662e-09 -8.23158e-10 3.27089e-10)
(3.08537e-11 -1.77863e-11 7.02693e-12)
(7.04775e-13 -3.51218e-13 1.33673e-13)
(1.1446e-14 -3.06317e-15 6.96042e-16)
(1.24803e-06 -8.09287e-07 4.46448e-07)
(3.4395e-08 -1.53958e-08 8.25306e-09)
(7.13983e-10 -2.83914e-10 1.51688e-10)
(1.59639e-11 -5.59969e-12 2.97232e-12)
(3.18213e-13 -9.39767e-14 4.8432e-14)
(0 0 0)
(-4.22849e-18 0 0)
(5.79034e-18 0 0)
(4.75866e-18 0 0)
(4.89641e-19 0 0)
(3.18206e-20 0 0)
(1.04384e-21 0 0)
(1.76558e-23 0 0)
(1.53999e-25 0 0)
(6.33879e-28 0 0)
(1.12995e-30 0 0)
(0 0 0)
(-1.54676e-16 -9.34832e-15 1.48408e-15)
(-5.90766e-16 -4.307e-14 1.07389e-14)
(8.25069e-16 -3.62191e-14 8.70605e-15)
(6.92822e-16 -9.70492e-15 1.49152e-15)
(7.84632e-17 0 0)
(5.30187e-18 0 0)
(1.75688e-19 0 0)
(3.47902e-21 0 0)
(3.27848e-23 0 0)
(1.44014e-25 0 0)
(2.91689e-28 0 0)
(0 0 0)
(-1.25971e-13 -6.50832e-13 1.99428e-13)
(-7.44816e-14 -2.40161e-12 7.96968e-13)
(1.01293e-13 -2.08389e-12 6.53285e-13)
(9.68936e-14 -6.43143e-13 2.03001e-13)
(1.27959e-14 -9.70485e-14 2.24059e-14)
(8.25623e-16 -4.0528e-15 8.50718e-16)
(2.88753e-17 0 0)
(6.94907e-19 0 0)
(6.90595e-21 0 0)
(3.23987e-23 0 0)
(7.45556e-26 0 0)
(0 0 0)
(-3.85645e-12 -1.1476e-10 4.06989e-11)
(4.72832e-12 -1.03827e-10 3.46218e-11)
(5.57803e-12 -3.02516e-11 1.0463e-11)
(9.25514e-13 -5.02715e-12 1.49657e-12)
(1.16387e-13 -4.52705e-13 1.40203e-13)
(5.44234e-15 -2.17589e-14 5.34737e-15)
(1.33854e-16 0 0)
(1.38828e-18 0 0)
(7.08898e-21 0 0)
(1.87702e-23 0 0)
(0 0 0)
(-2.1891e-10 -5.42086e-09 2.15177e-09)
(2.35997e-10 -5.16112e-09 1.95024e-09)
(2.70485e-10 -1.48839e-09 5.4111e-10)
(4.52908e-11 -2.24336e-10 7.35099e-11)
(6.44717e-12 -2.11756e-11 7.58332e-12)
(5.15163e-13 -1.13227e-12 4.32618e-13)
(2.28928e-14 -3.93831e-14 1.31364e-14)
(2.53169e-16 0 0)
(1.45485e-18 0 0)
(4.52977e-21 0 0)
(0 0 0)
(-1.2298e-08 -2.20321e-07 1.13133e-07)
(1.18469e-08 -2.17555e-07 1.08295e-07)
(1.38465e-08 -7.83521e-08 3.4042e-08)
(2.1927e-09 -9.07714e-09 3.50784e-09)
(3.09631e-10 -8.99862e-10 3.713e-10)
(2.45364e-11 -4.64409e-11 2.06681e-11)
(1.2087e-12 -1.66745e-12 7.60707e-13)
(4.01707e-14 -4.26612e-14 1.95665e-14)
(2.68133e-16 0 0)
(1.00294e-18 0 0)
(0 0 0)
(-4.39381e-06 -3.56136e-05 2.44824e-05)
(1.45591e-07 -3.96674e-06 2.23097e-06)
(3.16578e-07 -1.74811e-06 1.01758e-06)
(1.04216e-07 -3.4621e-07 1.87847e-07)
(1.63874e-08 -4.18381e-08 2.09654e-08)
(1.09702e-09 -1.74316e-09 9.43931e-10)
(4.94331e-11 -5.62316e-11 3.11931e-11)
(1.68948e-12 -1.53632e-12 8.58805e-13)
(4.28832e-14 -3.3629e-14 1.72132e-14)
(1.94816e-16 0 0)
(0 0 0)
(-5.17413e-05 -0.000219214 0.00028481)
(0.107781 -8.03296 7.29599)
(3.20788e-05 -0.000156811 0.000184419)
(6.45678e-06 -1.7359e-05 1.90791e-05)
(8.33662e-07 -1.37949e-06 1.1207e-06)
(5.71258e-08 -6.83549e-08 5.07404e-08)
(1.81906e-09 -1.5701e-09 1.14195e-09)
(5.53847e-11 -3.88117e-11 2.79253e-11)
(1.48695e-12 -8.79061e-13 6.2952e-13)
(3.23397e-14 -1.30966e-14 9.56781e-15)
(0 0 0)
(1.76884e-06 -1.46191e-06 1.61145e-06)
(6.15922e-08 -3.49263e-08 3.76601e-08)
(1.41575e-09 -6.86435e-10 6.90249e-10)
(3.5436e-11 -1.47941e-11 1.46873e-11)
(8.02273e-13 -2.82438e-13 2.86065e-13)
(1.24183e-14 -1.70144e-15 2.95395e-15)
(0 0 0)
(-6.49389e-20 0 0)
(6.9311e-20 0 0)
(6.91387e-20 0 0)
(6.23111e-21 0 0)
(3.48624e-22 0 0)
(9.51635e-24 0 0)
(1.26819e-25 0 0)
(7.47493e-28 0 0)
(1.83609e-30 0 0)
(8.04573e-34 0 0)
(0 0 0)
(0 0 0)
(-8.18456e-18 0 0)
(9.36146e-18 0 0)
(1.03564e-17 0 0)
(1.0711e-18 0 0)
(6.05504e-20 0 0)
(1.82876e-21 0 0)
(2.65637e-23 0 0)
(1.71316e-25 0 0)
(4.59206e-28 0 0)
(2.65495e-31 0 0)
(0 0 0)
(-1.39208e-15 -1.96703e-14 7.34994e-15)
(-1.04823e-15 -7.63771e-14 3.67134e-14)
(1.25641e-15 -6.96059e-14 3.04491e-14)
(1.47022e-15 -1.97893e-14 7.31396e-15)
(1.77297e-16 -7.72328e-16 3.8669e-16)
(9.93522e-18 0 0)
(3.6253e-19 0 0)
(5.58635e-21 0 0)
(3.89302e-23 0 0)
(1.14338e-25 0 0)
(8.53538e-29 0 0)
(0 0 0)
(-2.26236e-13 -1.0595e-12 5.54756e-13)
(-1.22938e-13 -3.71277e-12 2.03579e-12)
(1.51041e-13 -3.41587e-12 1.78065e-12)
(1.9563e-13 -1.04732e-12 5.50967e-13)
(2.69233e-14 -1.68735e-13 8.05862e-14)
(1.50811e-15 -1.21976e-14 3.97738e-15)
(7.34241e-17 0 0)
(1.13949e-18 0 0)
(8.54086e-21 0 0)
(2.81404e-23 0 0)
(2.69748e-26 0 0)
(0 0 0)
(-1.01589e-11 -4.24135e-11 2.55933e-11)
(-6.01227e-12 -1.55614e-10 9.78669e-11)
(6.78007e-12 -1.48468e-10 8.95707e-11)
(9.1668e-12 -4.34787e-11 2.61276e-11)
(1.55065e-12 -7.68774e-12 4.35023e-12)
(2.0842e-13 -6.75999e-13 3.85961e-13)
(1.3793e-14 -3.28119e-14 1.87268e-14)
(2.12358e-16 0 0)
(1.73263e-18 0 0)
(6.633e-21 0 0)
(8.27172e-24 0 0)
(0 0 0)
(-4.00804e-10 -1.66758e-09 1.20534e-09)
(-2.97683e-10 -6.00832e-09 4.60756e-09)
(3.01039e-10 -5.96695e-09 4.44102e-09)
(3.85643e-10 -1.82376e-09 1.3074e-09)
(6.75164e-11 -2.88893e-10 1.96974e-10)
(9.76646e-12 -2.63474e-11 1.80604e-11)
(7.60284e-13 -1.39571e-12 9.4992e-13)
(3.44452e-14 -4.89832e-14 3.32553e-14)
(3.12095e-16 0 0)
(1.42973e-18 0 0)
(2.36942e-21 0 0)
(0 0 0)
(-1.483e-08 -6.00092e-08 5.76858e-08)
(-1.29244e-08 -1.72746e-07 1.73663e-07)
(1.18749e-08 -1.77104e-07 1.74257e-07)
(1.55883e-08 -7.01111e-08 6.67e-08)
(2.70401e-09 -8.87092e-09 7.94312e-09)
(3.88083e-10 -8.66844e-10 7.61511e-10)
(2.98552e-11 -4.5364e-11 3.85292e-11)
(1.46196e-12 -1.6449e-12 1.37106e-12)
(4.88817e-14 -4.40636e-14 3.47027e-14)
(2.69527e-16 0 0)
(6.01822e-19 0 0)
(0 0 0)
(-3.01117e-06 -2.01274e-05 2.22028e-05)
(8.16151e-08 -1.64267e-06 2.35931e-06)
(2.16407e-07 -8.388e-07 1.14823e-06)
(8.60106e-08 -1.94497e-07 2.58271e-07)
(1.43399e-08 -2.31294e-08 3.21974e-08)
(9.98298e-10 -1.17426e-09 1.38216e-09)
(4.65737e-11 -4.06728e-11 4.49145e-11)
(1.62067e-12 -1.14428e-12 1.22754e-12)
(4.30039e-14 -2.45983e-14 2.60298e-14)
(1.28629e-16 0 0)
(0 0 0)
(9.1389e-06 -1.42179e-05 2.04747e-05)
(2.9028e-07 -3.3752e-07 5.88679e-07)
(2.63833e-08 -2.23781e-08 4.31777e-08)
(1.12656e-09 -6.95324e-10 1.14554e-09)
(3.8069e-11 -1.91274e-11 2.95132e-11)
(1.06535e-12 -4.49621e-13 6.75481e-13)
(2.2535e-14 -4.99382e-15 1.01256e-14)
(0 0 5.9998e-18)
(0 0 0)
(-5.77314e-22 0 0)
(5.54326e-22 0 0)
(6.02568e-22 0 0)
(4.18874e-23 0 0)
(1.99374e-24 0 0)
(4.22237e-26 0 0)
(3.89843e-28 0 0)
(1.27134e-30 0 0)
(8.24484e-34 0 0)
(2.27039e-41 0 0)
(0 0 0)
(0 0 0)
(-7.85604e-20 0 0)
(7.92829e-20 0 0)
(9.56095e-20 0 0)
(7.59873e-21 0 0)
(3.67925e-22 0 0)
(8.5433e-24 0 0)
(8.77809e-26 0 0)
(3.20698e-28 0 0)
(2.65025e-31 0 0)
(5.36539e-38 0 0)
(0 0 0)
(0 0 0)
(-1.01048e-17 0 2.32014e-16)
(1.04966e-17 0 7.7338e-17)
(1.45244e-17 0 0)
(1.34494e-18 0 0)
(6.5591e-20 0 0)
(1.74987e-21 0 0)
(1.98318e-23 0 0)
(8.11264e-26 0 0)
(8.30356e-29 0 0)
(9.61042e-35 0 0)
(0 0 0)
(-2.47482e-15 -2.44995e-14 1.65389e-14)
(-1.42535e-15 -9.08806e-14 6.47871e-14)
(1.69196e-15 -8.6187e-14 5.79041e-14)
(2.38554e-15 -2.47782e-14 1.67934e-14)
(2.24661e-16 -1.54483e-15 9.28056e-16)
(1.18747e-17 0 0)
(3.68622e-19 0 0)
(4.46196e-21 0 0)
(2.04546e-23 0 0)
(2.56404e-26 0 0)
(1.33818e-31 0 0)
(0 0 0)
(-2.66219e-13 -1.07749e-12 8.62651e-13)
(-1.45992e-13 -3.66523e-12 3.02121e-12)
(1.64593e-13 -3.52124e-12 2.79707e-12)
(2.42413e-13 -1.08845e-12 8.58518e-13)
(3.4347e-14 -1.82868e-13 1.37695e-13)
(2.52728e-15 -1.29868e-14 9.34685e-15)
(7.7123e-17 0 0)
(9.58804e-19 0 0)
(4.96344e-21 0 0)
(7.71952e-24 0 0)
(1.46438e-28 0 0)
(0 0 0)
(-9.89376e-12 -3.53139e-11 3.40408e-11)
(-5.88117e-12 -1.23545e-10 1.24029e-10)
(6.12269e-12 -1.22554e-10 1.19337e-10)
(9.40625e-12 -3.70041e-11 3.5215e-11)
(1.61997e-12 -6.80628e-12 6.23982e-12)
(2.21278e-13 -6.04677e-13 5.47597e-13)
(1.45752e-14 -2.94501e-14 2.73445e-14)
(1.84637e-16 0 0)
(1.09987e-18 0 0)
(2.18864e-21 0 0)
(1.26061e-25 0 0)
(0 0 0)
(-3.10022e-10 -9.97839e-10 1.2763e-09)
(-2.23201e-10 -3.38924e-09 4.5074e-09)
(2.12059e-10 -3.46816e-09 4.51771e-09)
(3.11706e-10 -1.11444e-09 1.40994e-09)
(5.69289e-11 -1.91266e-10 2.26847e-10)
(8.45777e-12 -1.82116e-11 2.07774e-11)
(6.70041e-13 -1.00468e-12 1.10503e-12)
(3.02218e-14 -3.50109e-14 3.83375e-14)
(2.12157e-16 0 0)
(5.57402e-19 0 0)
(8.47551e-23 0 0)
(0 0 0)
(-6.30666e-09 -6.37759e-08 1.0938e-07)
(5.4334e-09 -6.58602e-08 1.13259e-07)
(8.32307e-09 -2.36615e-08 4.56051e-08)
(1.56617e-09 -3.51435e-09 6.18235e-09)
(2.40437e-10 -3.786e-10 6.30454e-10)
(1.98907e-11 -2.31253e-11 3.43663e-11)
(1.02551e-12 -8.9562e-13 1.26496e-12)
(3.47677e-14 -2.16946e-14 3.29791e-14)
(1.21306e-16 0 0)
(4.37634e-20 0 0)
(0 0 0)
(2.19121e-08 -4.42877e-08 7.90581e-08)
(4.15262e-09 -4.744e-09 1.13335e-08)
(3.99946e-10 -3.42237e-10 7.80634e-10)
(2.25194e-11 -1.4143e-11 2.92772e-11)
(8.44815e-13 -4.21978e-13 8.46286e-13)
(2.16377e-14 -5.7893e-15 1.77675e-14)
(1.68071e-17 0 1.69352e-17)
(0 0 0)
(0 0 0)
(-2.81349e-24 0 0)
(2.57833e-24 0 0)
(2.60559e-24 0 0)
(1.56583e-25 0 0)
(5.83192e-27 0 0)
(9.5176e-29 0 0)
(3.96994e-31 0 0)
(3.94321e-34 0 0)
(2.13692e-41 0 0)
(0 0 0)
(0 0 0)
(0 0 0)
(-4.36948e-22 0 0)
(3.97722e-22 0 0)
(4.55506e-22 0 0)
(2.9813e-23 0 0)
(1.1754e-24 0 0)
(2.0888e-26 0 0)
(1.01522e-28 0 0)
(1.2461e-31 0 0)
(4.83248e-38 0 0)
(0 0 0)
(0 0 0)
(0 0 0)
(-6.22539e-20 0 0)
(5.67303e-20 0 0)
(7.74142e-20 0 0)
(5.55789e-21 0 0)
(2.27569e-22 0 0)
(4.52676e-24 0 0)
(2.56312e-26 0 0)
(3.72727e-29 0 0)
(8.28551e-35 0 0)
(0 0 0)
(0 0 0)
(0 0 0)
(-8.44824e-18 0 3.09352e-16)
(8.10656e-18 0 2.32014e-16)
(1.37207e-17 0 0)
(1.00029e-18 0 0)
(4.26182e-20 0 0)
(9.90279e-22 0 0)
(6.49905e-24 0 0)
(1.08663e-26 0 0)
(1.11109e-31 0 0)
(0 0 0)
(0 0 0)
(-2.16546e-15 -1.75776e-14 1.97948e-14)
(-1.39861e-15 -7.01684e-14 7.5283e-14)
(1.63995e-15 -7.23028e-14 6.98472e-14)
(2.62148e-15 -1.86896e-14 2.04614e-14)
(1.6994e-16 -6.18353e-16 1.46942e-15)
(8.32819e-18 0 0)
(2.19865e-19 0 0)
(1.65478e-21 0 0)
(3.18937e-24 0 0)
(1.18391e-28 0 0)
(0 0 0)
(0 0 0)
(-1.99311e-13 -7.2146e-13 8.43261e-13)
(-1.23107e-13 -2.3826e-12 2.8588e-12)
(1.20863e-13 -2.37917e-12 2.76428e-12)
(1.98295e-13 -7.49796e-13 8.54132e-13)
(2.64769e-14 -1.26765e-13 1.43219e-13)
(1.86148e-15 -8.34743e-15 1.09378e-14)
(4.79849e-17 0 0)
(4.07996e-19 0 0)
(9.44845e-22 0 0)
(1.00596e-25 0 0)
(0 0 0)
(0 0 0)
(-6.32835e-12 -1.7842e-11 2.66192e-11)
(-3.69059e-12 -5.877e-11 9.22676e-11)
(3.54569e-12 -6.01085e-11 9.21606e-11)
(6.30968e-12 -1.91919e-11 2.81495e-11)
(1.10048e-12 -3.63637e-12 5.21383e-12)
(1.52456e-13 -3.39381e-13 4.68779e-13)
(9.56039e-15 -1.60001e-14 2.34334e-14)
(9.05903e-17 0 0)
(2.68148e-19 0 0)
(6.75783e-23 0 0)
(0 0 0)
(0 0 0)
(-9.73719e-11 -1.00756e-09 2.25959e-09)
(8.63373e-11 -1.03988e-09 2.33068e-09)
(1.46625e-10 -3.44671e-10 7.58579e-10)
(2.80014e-11 -6.60401e-11 1.35859e-10)
(4.35157e-12 -6.95896e-12 1.33316e-11)
(3.64777e-13 -4.23172e-13 7.54189e-13)
(1.65915e-14 -1.37794e-14 2.5853e-14)
(6.69316e-17 0 0)
(3.5186e-20 0 0)
(0 0 0)
(0 0 0)
(4.49061e-10 -8.91929e-10 2.05192e-09)
(7.49855e-11 -8.50548e-11 2.38628e-10)
(7.20795e-12 -6.10066e-12 1.60392e-11)
(4.13884e-13 -2.56254e-13 6.42247e-13)
(1.35051e-14 -3.99948e-15 1.61131e-14)
(1.37872e-17 0 1.86128e-17)
(0 0 0)
(0 0 0)
(0 0 0)
(-5.65698e-27 0 0)
(5.27203e-27 0 0)
(5.90743e-27 0 0)
(2.6275e-28 0 0)
(7.35833e-30 0 0)
(5.08263e-32 0 0)
(4.8022e-35 0 0)
(0 0 0)
(0 0 0)
(0 0 0)
(0 0 0)
(0 0 0)
(-1.01834e-24 0 0)
(9.29331e-25 0 0)
(1.13571e-24 0 0)
(5.46327e-26 0 0)
(1.72633e-27 0 0)
(1.32991e-29 0 0)
(1.75412e-32 0 0)
(0 0 0)
(0 0 0)
(0 0 0)
(0 0 0)
(0 0 0)
(-1.72443e-22 0 0)
(1.56357e-22 0 0)
(2.07895e-22 0 0)
(1.12769e-23 0 0)
(3.88761e-25 0 0)
(3.32486e-27 0 0)
(5.87987e-30 0 0)
(0 0 0)
(0 0 0)
(0 0 0)
(0 0 0)
(0 0 0)
(-2.70465e-20 0 0)
(2.46997e-20 0 0)
(3.67072e-20 0 0)
(2.29133e-21 0 0)
(8.26428e-23 0 0)
(7.99493e-25 0 0)
(1.83324e-27 0 0)
(1.57026e-34 0 0)
(0 0 0)
(0 0 0)
(0 0 0)
(0 0 0)
(-3.86885e-18 0 1.54676e-16)
(3.59655e-18 0 1.54676e-16)
(6.94167e-18 0 0)
(4.44962e-19 0 0)
(1.62622e-20 0 0)
(1.91434e-22 0 0)
(5.49649e-25 0 0)
(8.84606e-31 0 0)
(0 0 0)
(0 0 0)
(0 0 0)
(-7.7338e-16 -9.503e-15 1.43545e-14)
(-5.44378e-16 -3.80813e-14 5.6744e-14)
(5.22781e-16 -4.05787e-14 5.69318e-14)
(1.59163e-15 -9.08994e-15 1.46279e-14)
(7.99025e-17 0 1.23741e-15)
(2.90527e-18 0 0)
(4.79806e-20 0 0)
(1.65484e-22 0 0)
(2.33696e-27 0 0)
(0 0 0)
(0 0 0)
(0 0 0)
(-1.09378e-13 -3.22759e-13 5.46064e-13)
(-6.7554e-14 -1.02451e-12 1.79457e-12)
(6.70019e-14 -1.05538e-12 1.79594e-12)
(1.08315e-13 -3.41658e-13 5.69406e-13)
(1.31644e-14 -5.698e-14 9.61974e-14)
(6.18623e-16 -2.15986e-15 6.14285e-15)
(1.24587e-17 0 0)
(5.0255e-20 0 0)
(3.73322e-24 0 0)
(0 0 0)
(0 0 0)
(0 0 0)
(-1.54508e-12 -1.68335e-11 4.11907e-11)
(1.37103e-12 -1.74113e-11 4.23934e-11)
(2.75816e-12 -6.09859e-12 1.37253e-11)
(4.8288e-13 -1.13802e-12 2.63484e-12)
(6.56109e-14 -1.11633e-13 2.50166e-13)
(2.99872e-15 -3.06317e-15 1.22857e-14)
(1.43571e-17 0 0)