/*--------------------------------*- C++ -*----------------------------------*\
  =========                 |
  \\      /  F ield         | OpenFOAM: The Open Source CFD Toolbox
   \\    /   O peration     | Website:  https://openfoam.org
    \\  /    A nd           | Version:  9
     \\/     M anipulation  |
\*---------------------------------------------------------------------------*/
FoamFile
{
    format      ascii;
    class       volVectorField;
    location    "0.00015";
    object      rhoU;
}
// * * * * * * * * * * * * * * * * * * * * * * * * * * * * * * * * * * * * * //

dimensions      [1 -2 -1 0 0 0 0];

internalField   nonuniform List<vector> 
4001
(
(0 0 0)
(0 0 -1.5495e-17)
(0 0 -1.54953e-17)
(0 0 -1.55781e-17)
(0 0 0)
(-5.19123e-37 0 0)
(0 0 1.55202e-17)
(-2.24785e-35 0 -5.77429e-18)
(-1.69122e-33 0 7.53469e-18)
(0 0 1.55502e-17)
(-2.96023e-31 0 -7.51148e-18)
(-3.98204e-29 0 -3.7278e-16)
(0 0 3.00703e-17)
(-2.02317e-27 0 3.72822e-16)
(1.56427e-27 0 3.87803e-16)
(0 0 7.45693e-21)
(1.05988e-23 0 9.14889e-20)
(0 6.77254e-15 0)
(0 6.82121e-15 -6.79404e-15)
(0 0 1.85414e-16)
(0 6.77254e-15 -5.4752e-17)
(0 6.82121e-15 -6.4203e-15)
(0 0 5.96808e-20)
(0 6.77254e-15 -5.45702e-17)
(0 0 -2.80394e-19)
(0 6.77074e-15 -3.27352e-17)
(0 0 6.28975e-15)
(0 0 -3.07754e-18)
(0 0 0)
(1.9787e-16 1.00596e-16 -6.69888e-15)
(-6.51224e-15 6.76769e-15 -5.08812e-17)
(0 0 1.69722e-14)
(0 0 0)
(0 0 -2.19941e-15)
(0 0 0)
(0 0 0)
(0 0 -1.22343e-14)
(0 6.82121e-15 0)
(0 1.54025e-46 0)
(0 7.6255e-45 0)
(0 6.77254e-15 7.06362e-16)
(0 6.82121e-15 6.56972e-15)
(0 1.54849e-44 2.00778e-20)
(0 7.98276e-43 0)
(0 6.12596e-43 2.14936e-21)
(0 6.82121e-15 5.89788e-15)
(0 1.25614e-40 3.09641e-20)
(0 0 3.08455e-16)
(0 0 0)
(0 0 -2.19938e-15)
(0 0 0)
(0 0 0)
(0 0 -1.45471e-14)
(0 6.82121e-15 -6.505e-15)
(0 1.3953e-42 -2.23294e-18)
(0 1.16948e-40 -2.79921e-30)
(0 6.77254e-15 7.06378e-16)
(0 6.82121e-15 6.57022e-15)
(0 1.4683e-40 2.00778e-20)
(0 1.74843e-38 0)
(0 1.03958e-38 -6.50222e-29)
(0 6.82056e-15 1.70108e-18)
(0 2.93881e-36 -2.54824e-27)
(0 0 3.08455e-16)
(0 0 -1.25416e-17)
(0 0 -2.21077e-15)
(0 0 -6.36964e-20)
(0 6.81844e-15 -6.17146e-15)
(0 -1.38672e-39 -2.23294e-18)
(0 4.55497e-37 6.52255e-20)
(0 6.77254e-15 3.52016e-16)
(0 6.81532e-15 0)
(0 -1.06989e-37 2.00778e-20)
(0 -1.15685e-35 0)
(0 1.43895e-34 1.01987e-17)
(0 -1.27517e-33 3.76459e-16)
(0 0 3.08455e-16)
(0 0 -2.13983e-15)
(0 -7.07918e-40 -2.23027e-18)
(0 0 -5.53467e-18)
(0 6.75382e-15 3.75148e-16)
(0 6.43674e-35 -9.46786e-20)
(1.47634e-30 7.23119e-32 3.65247e-16)
(0 1.60489e-30 -6.4438e-17)
(0 0 3.26191e-16)
(-7.91479e-16 0 2.68802e-15)
(0 0 1.73059e-14)
(0 0 -2.15231e-14)
(0 0 0)
(0 0 -3.07961e-16)
(0 0 0)
(0 0 -1.69102e-14)
(0 0 0)
(0 0 1.70296e-14)
(0 0 0)
(0 0 0)
(0 0 0)
(0 0 2.51818e-15)
(0 0 0)
(0 0 0)
(0 0 -1.66742e-14)
(0 0 2.33072e-15)
(0 0 -1.80703e-16)
(0 0 -1.4222e-14)
(0 0 1.6576e-16)
(0 0 1.66284e-14)
(0 0 1.72976e-14)
(0 0 -1.72455e-14)
(0 0 1.98241e-15)
(0 0 0)
(0 0 0)
(0 0 -2.52714e-15)
(0 0 0)
(0 0 2.20628e-14)
(0 0 -1.48736e-14)
(0 0 0)
(0 0 0)
(0 0 0)
(0 0 1.82933e-14)
(0 0 1.57265e-14)
(0 0 0)
(0 0 1.27377e-14)
(0 0 1.68747e-14)
(0 0 1.24957e-14)
(0 0 1.239e-14)
(0 0 -1.48889e-14)
(0 0 -1.41877e-14)
(0 0 -1.44443e-14)
(0 0 1.7496e-14)
(0 0 0)
(0 0 1.36374e-14)
(0 0 -2.80684e-16)
(0 0 -1.61648e-14)
(0 0 0)
(0 0 -1.69102e-14)
(0 0 0)
(0 0 -2.77012e-15)
(0 0 0)
(0 0 0)
(0 0 -1.05533e-16)
(0 0 2.33387e-15)
(0 0 0)
(0 0 -1.60424e-14)
(0 0 2.33082e-15)
(0 0 -1.77684e-16)
(0 0 -1.4222e-14)
(0 0 1.68497e-16)
(0 0 1.66297e-14)
(0 0 1.74757e-14)
(0 0 -2.20628e-14)
(0 0 1.98241e-15)
(0 0 0)
(0 0 0)
(0 0 -2.52714e-15)
(0 0 0)
(0 0 2.20628e-14)
(0 0 -1.37335e-14)
(0 0 -1.83572e-14)
(0 0 -1.65213e-14)
(0 0 0)
(0 0 1.45834e-14)
(0 0 1.51228e-14)
(0 0 1.55705e-14)
(0 0 1.27377e-14)
(0 0 1.68747e-14)
(0 0 1.23357e-14)
(0 0 0)
(0 0 -1.50868e-14)
(0 0 -1.41877e-14)
(0 0 -1.77292e-14)
(0 0 1.7496e-14)
(0 0 0)
(0 0 1.36372e-14)
(0 0 -2.80684e-16)
(0 0 -1.55964e-14)
(0 0 0)
(0 0 -1.69102e-14)
(0 0 0)
(0 0 -2.72716e-15)
(0 0 0)
(0 0 0)
(0 0 -1.03777e-16)
(0 0 2.34721e-15)
(0 0 0)
(0 0 -1.60424e-14)
(0 0 2.33171e-15)
(0 0 -1.78209e-16)
(0 0 -1.43834e-14)
(0 0 1.68497e-16)
(0 0 1.66579e-14)
(0 0 1.76736e-14)
(0 0 -2.20628e-14)
(0 0 1.91578e-15)
(0 0 6.37827e-20)
(0 0 0)
(0 0 -2.52712e-15)
(0 0 0)
(0 0 2.20628e-14)
(0 0 1.71486e-14)
(0 0 0)
(0 0 1.36039e-14)
(0 0 -2.80684e-16)
(0 0 -1.61577e-14)
(0 0 0)
(0 0 -1.56038e-14)
(0 0 -1.59981e-14)
(0 0 2.3516e-15)
(0 0 -1.31456e-16)
(0 0 -1.32072e-14)
(0 0 1.67198e-16)
(0 0 1.76982e-14)
(0 0 1.75427e-14)
(3.85591e-29 2.05976e-35 -3.60362e-16)
(0 0 -5.29895e-23)
(0 6.76925e-15 -3.29713e-16)
(0 0 -1.39262e-17)
(0 1.17946e-14 -2.98079e-21)
(-1.59516e-20 3.33765e-16 -1.4017e-19)
(-2.63516e-16 0 -1.49091e-22)
(-8.51217e-21 -3.75153e-18 9.12329e-17)
(5.46288e-20 -8.01175e-23 1.30071e-16)
(0 0 -8.4082e-17)
(0 0 3.58428e-18)
(1.88896e-19 0 -1.75689e-17)
(0 0 -1.81106e-14)
(0 0 2.76649e-15)
(0 0 2.13826e-14)
(0 0 -1.76024e-14)
(0 0 2.55237e-15)
(0 0 1.26845e-14)
(0 0 -2.18249e-15)
(3.19065e-21 -1.60288e-18 -1.54354e-16)
(6.75234e-25 -1.68072e-18 -5.12119e-16)
(0 0 -1.48674e-17)
(4.53023e-20 0 0)
(-3.73301e-35 0 6.77254e-15)
(2.66092e-19 0 -1.62608e-17)
(-2.99811e-33 0 -3.96564e-16)
(4.49709e-20 0 1.69172e-18)
(-2.10959e-31 0 3.99722e-16)
(2.10878e-19 0 -1.62424e-17)
(-3.16202e-29 0 -3.99722e-16)
(4.49692e-20 0 1.69307e-18)
(-1.60424e-27 0 -6.00441e-15)
(2.00268e-19 0 -1.54573e-17)
(-6.59971e-26 0 6.00441e-15)
(3.42249e-20 0 1.68983e-18)
(-2.1415e-24 0 4.16639e-16)
(8.48531e-20 0 8.85787e-19)
(6.34672e-22 0 6.22024e-18)
(1.03228e-19 -1.55436e-18 -4.41359e-16)
(1.11496e-19 -1.58941e-18 -6.14827e-15)
(1.64989e-18 0 -3.34289e-16)
(0 0 1.07314e-16)
(0 0 5.81325e-19)
(0 0 0)
(0 0 0)
(0 0 0)
(0 0 5.34955e-26)
(0 0 0)
(0 0 0)
(0 0 0)
(0 0 -8.25779e-25)
(0 0 0)
(0 0 0)
(0 0 0)
(0 0 2.36326e-17)
(0 0 0)
(0 0 0)
(0 0 0)
(2.1208e-16 0 3.37543e-15)
(4.46305e-20 0 0)
(0 0 6.76339e-15)
(0 0 0)
(0 0 0)
(0 0 0)
(8.79525e-18 0 0)
(0 0 0)
(0 0 0)
(0 0 0)
(0 0 0)
(0 0 0)
(0 0 0)
(0 0 8.3807e-21)
(0 0 0)
(0 0 -2.22247e-20)
(0 0 -8.5392e-24)
(9.02639e-17 0 9.54244e-25)
(9.02637e-17 0 1.11003e-32)
(1.01103e-16 0 -3.38461e-31)
(9.81021e-17 0 1.14864e-17)
(1.35037e-25 0 -1.22029e-17)
(0 6.79292e-15 2.70407e-16)
(0 6.48815e-15 -6.66856e-15)
(0 0 -1.16828e-16)
(0 0 -1.2126e-14)
(0 6.79348e-15 6.2362e-15)
(0 0 0)
(0 0 -1.57672e-15)
(0 0 0)
(0 6.79202e-15 -3.54127e-18)
(0 6.41994e-15 5.99177e-15)
(0 0 0)
(4.78454e-15 0 1.83885e-16)
(0 0 -1.34888e-14)
(0 0 -1.81684e-14)
(0 0 -9.84078e-17)
(0 0 0)
(0 0 1.5756e-14)
(0 0 1.53206e-14)
(0 0 1.58884e-14)
(0 0 1.27377e-14)
(0 0 1.68747e-14)
(0 0 1.24956e-14)
(0 0 1.239e-14)
(0 0 -1.50867e-14)
(0 0 -1.41877e-14)
(0 0 -1.44443e-14)
(0 0 6.37827e-20)
(0 0 -2.76928e-15)
(0 0 -1.16828e-16)
(0 0 0)
(0 0 -4.82708e-17)
(0 0 2.33387e-15)
(0 0 -6.37827e-20)
(0 0 -2.20628e-14)
(0 0 2.95745e-17)
(0 0 2.38439e-15)
(0 0 -6.00024e-20)
(0 0 -3.79378e-17)
(0 0 6.13355e-20)
(0 0 2.20628e-14)
(0 0 -1.87709e-14)
(0 0 -1.83572e-14)
(0 0 -1.66504e-14)
(0 0 0)
(0 0 1.43865e-14)
(0 0 1.51228e-14)
(0 0 1.01624e-16)
(0 6.79201e-15 -6.0584e-15)
(0 0 -1.92599e-14)
(0 0 -2.50434e-15)
(0 0 6.37697e-20)
(0 0 -6.49286e-16)
(0 0 1.34766e-17)
(0 0 -2.41529e-17)
(0 0 -3.26377e-17)
(0 2.62652e-15 4.0685e-15)
(-2.62571e-17 7.41855e-20 0)
(0 0 0)
(0 0 0)
(1.28701e-15 -1.39699e-17 -3.99652e-15)
(0 0 0)
(0 0 0)
(0 0 0)
(0 0 0)
(0 0 8.61798e-18)
(0 0 -1.12558e-16)
(0 0 0)
(0 0 3.29154e-17)
(0 0 0)
(0 0 0)
(0 0 0)
(2.76005e-19 0 1.22146e-17)
(0 0 4.31603e-19)
(1.48923e-23 0 2.43046e-17)
(0 0 0)
(0 0 2.66167e-15)
(0 0 0)
(0 0 0)
(0 0 0)
(0 0 0)
(0 0 0)
(0 0 0)
(0 0 0)
(0 8.16641e-22 0)
(0 0 0)
(0 0 0)
(0 0 0)
(0 0 0)
(0 0 0)
(0 0 0)
(0 0 0)
(0 0 0)
(0 0 0)
(0 0 0)
(0 0 0)
(0 0 0)
(0 0 0)
(0 0 0)
(0 0 0)
(0 0 0)
(0 0 0)
(0 0 0)
(0 0 0)
(0 0 0)
(0 0 0)
(0 0 0)
(0 0 0)
(0 0 0)
(0 0 0)
(0 0 0)
(0 0 0)
(0 0 0)
(0 0 0)
(0 0 0)
(0 0 0)
(0 0 0)
(0 0 0)
(0 0 0)
(0 0 0)
(0 0 0)
(0 0 0)
(0 0 0)
(0 0 0)
(0 0 3.76162e-17)
(0 6.82121e-15 4.17855e-16)
(0 -3.38638e-41 3.40412e-19)
(0 6.82121e-15 -4.01568e-16)
(0 3.04084e-38 5.34687e-19)
(0 0 0)
(0 0 0)
(0 6.82121e-15 4.54391e-16)
(0 2.89859e-36 -1.10054e-26)
(0 6.82121e-15 -5.90151e-16)
(0 2.37298e-34 -3.29725e-26)
(0 0 0)
(0 0 7.54367e-18)
(0 6.82055e-15 6.59175e-16)
(0 1.22946e-32 -2.08702e-20)
(0 6.82056e-15 -3.47783e-16)
(0 1.85052e-31 1.08642e-18)
(0 0 -4.75546e-16)
(0 0 0)
(0 0 0)
(0 0 0)
(0 0 0)
(0 0 5.02552e-16)
(0 0 0)
(0 0 5.10756e-16)
(0 0 -3.70346e-17)
(0 0 0)
(0 0 5.10756e-16)
(0 0 0)
(0 0 -5.10756e-16)
(0 0 -5.10756e-16)
(0 0 -5.10756e-16)
(0 0 0)
(0 0 -5.10756e-16)
(0 0 0)
(0 0 3.42956e-16)
(0 0 0)
(0 0 4.99025e-16)
(0 0 5.10756e-16)
(0 0 -3.7464e-17)
(0 0 0)
(0 0 0)
(0 0 0)
(0 0 -5.10756e-16)
(0 0 -5.10756e-16)
(0 0 -5.10703e-16)
(0 0 0)
(0 0 -9.60695e-18)
(0 0 0)
(0 0 3.45134e-16)
(0 0 0)
(0 0 5.05509e-16)
(0 0 5.10698e-16)
(0 0 -3.70749e-17)
(0 0 0)
(0 0 5.10703e-16)
(0 0 0)
(0 0 -5.10698e-16)
(0 0 -5.10703e-16)
(3.78266e-19 6.8212e-15 3.93169e-17)
(0 2.31538e-32 -1.34722e-16)
(0 0 0)
(0 0 0)
(0 0 0)
(0 3.79031e-21 0)
(5.84307e-19 4.84397e-18 0)
(0 0 0)
(0 0 0)
(0 0 0)
(0 0 0)
(0 0 0)
(0 -4.80638e-22 0)
(0 0 -6.40397e-15)
(0 -2.01674e-25 0)
(0 0 0)
(0 -1.7872e-29 0)
(0 0 0)
(0 6.82121e-15 1.25049e-14)
(0 0 6.63564e-15)
(0 6.82121e-15 1.25923e-14)
(0 0 -8.92159e-20)
(0 6.82116e-15 1.24469e-14)
(0 0 -2.57049e-21)
(0 6.82121e-15 1.301e-14)
(0 0 -6.0546e-15)
(0 0 2.96829e-20)
(8.61834e-17 0 -7.1369e-17)
(0 -7.49352e-21 2.38699e-18)
(0 0 0)
(0 -5.52182e-30 -5.04884e-21)
(6.49056e-20 1.82235e-19 -4.16006e-15)
(0 0 -3.09116e-15)
(3.95159e-16 2.1507e-16 -8.2993e-16)
(0 1.3915e-30 -3.2242e-15)
(0 0 0)
(0 0 0)
(0 0 -3.58354e-19)
(0 0 0)
(0 6.82121e-15 0)
(0 -5.19722e-39 9.903e-21)
(0 -4.61946e-37 0)
(0 6.82121e-15 -1.10239e-14)
(0 6.82121e-15 -7.1715e-16)
(0 1.51262e-36 1.45523e-20)
(0 -5.22024e-35 0)
(0 0 0)
(0 0 0)
(0 0 0)
(0 0 0)
(0 6.82121e-15 8.00358e-16)
(0 1.7737e-34 -3.53363e-28)
(0 -5.18983e-33 0)
(0 6.82121e-15 -1.0806e-14)
(0 6.82121e-15 -7.75118e-16)
(0 2.25227e-32 -9.3422e-28)
(0 -4.62758e-31 -1.75203e-17)
(0 0 0)
(0 0 0)
(0 0 -1.08131e-19)
(0 0 0)
(0 6.82121e-15 7.48835e-16)
(0 2.37555e-30 -5.69689e-22)
(0 1.79097e-28 1.8501e-17)
(0 6.82118e-15 -1.09598e-14)
(0 6.82121e-15 -7.43503e-16)
(0 9.63634e-29 -8.71995e-21)
(0 1.25689e-26 -1.83929e-17)
(0 0 0)
(0 0 -1.57332e-14)
(0 0 0)
(0 0 0)
(0 0 0)
(0 0 0)
(0 0 0)
(0 6.81547e-15 -2.96722e-17)
(0 4.73861e-28 3.31027e-16)
(0 6.20454e-16 -6.36917e-15)
(0 6.82121e-15 0)
(0 1.1956e-26 3.14683e-16)
(0 6.82121e-15 7.48835e-16)
(0 7.42928e-26 0)
(0 1.88984e-24 6.31752e-18)
(0 6.82121e-15 -1.36424e-14)
(0 6.82121e-15 0)
(0 4.68141e-24 0)
(0 2.21159e-22 0)
(0 0 -2.13973e-14)
(0 0 0)
(0 0 0)
(8.56823e-18 -1.34549e-14 6.13578e-15)
(5.91604e-15 0 3.44534e-15)
(-1.16102e-14 1.234e-14 1.02318e-14)
(0 0 1.93687e-14)
(0 0 0)
(0 0 0)
(6.94379e-16 0 1.71723e-17)
(-1.71896e-21 -1.3584e-14 8.68693e-18)
(1.16102e-14 0 8.74779e-15)
(-1.36424e-14 1.24907e-14 1.02318e-14)
(-2.33576e-18 6.44834e-16 0)
(-6.60818e-15 0 3.12908e-15)
(3.98897e-17 0 1.73986e-14)
(0 0 8.99118e-15)
(0 0 -1.79824e-14)
(0 0 -1.94607e-15)
(0 0 0)
(0 0 0)
(0 0 1.21112e-18)
(0 0 0)
(0 0 0)
(0 0 0)
(0 0 0)
(0 0 0)
(0 0 0)
(0 0 0)
(0 0 0)
(0 0 0)
(0 0 0)
(0 0 0)
(0 0 0)
(0 0 0)
(0 0 0)
(0 0 0)
(0 0 -1.15418e-18)
(0 0 0)
(0 0 0)
(0 0 0)
(0 0 0)
(0 0 0)
(0 0 0)
(0 0 0)
(0 0 0)
(0 0 0)
(0 0 0)
(0 0 0)
(0 0 0)
(0 0 0)
(0 0 0)
(0 0 0)
(0 0 0)
(0 0 0)
(0 0 0)
(0 0 0)
(0 0 0)
(0 0 0)
(0 0 0)
(0 0 0)
(0 0 0)
(0 0 0)
(0 0 0)
(0 0 0)
(0 0 -1.05961e-18)
(0 0 0)
(0 0 0)
(0 0 0)
(0 0 0)
(0 0 0)
(0 0 0)
(0 0 0)
(0 0 0)
(0 0 0)
(0 0 0)
(0 0 0)
(0 0 0)
(0 0 0)
(0 0 0)
(0 0 0)
(0 0 0)
(0 0 0)
(0 0 0)
(0 0 0)
(0 0 0)
(0 0 0)
(0 0 0)
(0 0 0)
(0 0 0)
(0 0 0)
(0 0 0)
(0 0 0)
(0 0 -1.09217e-18)
(0 0 0)
(0 0 0)
(0 0 0)
(0 0 0)
(0 0 0)
(0 0 0)
(0 0 0)
(0 0 0)
(0 0 0)
(0 0 0)
(0 0 0)
(0 0 0)
(0 0 -2.41938e-15)
(0 0 0)
(0 0 -5.10698e-16)
(0 0 0)
(0 0 4.16864e-16)
(0 0 0)
(0 0 1.52036e-17)
(0 0 1.68633e-15)
(0 0 1.29963e-15)
(0 0 1.29699e-14)
(0 0 1.14093e-14)
(0 0 -1.69979e-15)
(0 0 -1.74395e-14)
(0 0 -1.54735e-14)
(0 0 0)
(0 0 0)
(0 0 0)
(0 0 0)
(0 0 0)
(0 0 0)
(0 0 0)
(0 0 0)
(0 0 0)
(0 0 0)
(0 0 0)
(0 0 0)
(0 0 0)
(0 0 0)
(0 0 0)
(0 0 0)
(0 0 0)
(0 0 0)
(0 0 0)
(0 0 0)
(0 0 0)
(0 0 0)
(0 0 0)
(0 0 0)
(0 0 0)
(0 0 0)
(0 0 0)
(0 0 0)
(0 0 0)
(0 0 0)
(0 0 0)
(0 0 0)
(0 0 0)
(0 0 0)
(0 0 0)
(1.75349e-18 0 1.70566e-21)
(0 0 0)
(0 0 0)
(0 -2.58343e-20 -1.54832e-14)
(0 0 0)
(0 -1.08703e-21 2.26925e-14)
(0 0 8.88815e-20)
(-1.27915e-23 0 1.74728e-14)
(0 0 0)
(0 0 -2.23778e-14)
(0 0 -1.43854e-14)
(0 0 -1.58945e-14)
(0 0 1.36027e-14)
(0 0 1.64803e-14)
(0 -4.76232e-19 -6.36628e-17)
(8.7858e-17 0 -1.66852e-16)
(0 0 -1.24041e-16)
(0 6.792e-15 -7.03972e-16)
(0 6.82121e-15 7.84914e-16)
(0 3.33809e-16 -1.02391e-17)
(0 3.36542e-16 -8.10473e-16)
(0 0 8.0874e-16)
(0 0 -8.02835e-16)
(0 2.73666e-18 -6.46897e-17)
(0 3.30416e-16 -8.06379e-16)
(0 6.82121e-15 7.30534e-17)
(0 6.82121e-15 1.30257e-14)
(0 3.364e-16 -1.36424e-14)
(2.3218e-19 0 0)
(-2.86051e-19 -8.9137e-18 -1.36424e-14)
(0 -4.45175e-24 1.21261e-14)
(3.83641e-21 0 6.31905e-21)
(7.15515e-19 0 -3.68583e-19)
(0 0 -7.04466e-16)
(0 0 -2.54388e-17)
(2.09128e-24 0 0)
(0 0 -7.19508e-18)
(0 2.36907e-17 -9.07299e-20)
(0 0 -1.40924e-20)
(-1.91329e-19 0 7.80118e-25)
(0 0 -1.38167e-19)
(1.67043e-22 0 -9.77462e-22)
(0 0 1.72173e-14)
(0 0 -2.01687e-14)
(0 0 -2.25218e-14)
(0 0 -8.83332e-17)
(0 0 -4.37524e-15)
(0 0 5.27715e-19)
(0 0 -2.54576e-18)
(0 0 2.06024e-19)
(0 0 0)
(0 0 0)
(0 0 1.37971e-16)
(0 0 0)
(0 0 4.44477e-18)
(0 0 3.39854e-18)
(0 0 5.60322e-19)
(0 0 0)
(0 0 0)
(0 0 1.3211e-15)
(0 0 0)
(0 0 4.72902e-17)
(0 0 1.10565e-16)
(0 0 0)
(0 0 -1.77555e-16)
(0 0 -1.82662e-15)
(0 0 0)
(0 0 0)
(0 0 0)
(0 0 0)
(-3.44936e-21 -3.62081e-16 -3.85319e-29)
(0 0 1.95848e-18)
(-1.13988e-17 -2.11083e-17 0)
(0 0 8.32373e-18)
(-6.22301e-16 1.14212e-17 0)
(0 0 1.06439e-16)
(0 0 1.03686e-16)
(6.82121e-15 0 -6.82121e-15)
(0 0 0)
(1.19784e-46 6.82121e-15 1.09639e-14)
(0 6.82121e-15 0)
(0 6.82121e-15 0)
(0 6.82121e-15 0)
(0 0 9.95205e-15)
(0 2.9391e-51 -3.41061e-15)
(8.959e-39 3.41061e-15 6.82121e-15)
(0 3.41061e-15 6.82121e-15)
(0 3.41061e-15 6.82121e-15)
(0 3.41061e-15 0)
(0 3.41061e-15 0)
(0 0 0)
(0 0 6.82121e-15)
(0 0 0)
(0 0 6.82121e-15)
(0 0 0)
(0 0 0)
(0 0 0)
(0 0 6.82121e-15)
(0 0 -6.376e-15)
(0 0 0)
(0 0 0)
(0 0 0)
(0 0 0)
(0 0 0)
(0 0 0)
(0 0 0)
(0 0 0)
(0 0 0)
(0 0 0)
(0 0 0)
(0 0 0)
(0 0 0)
(0 0 0)
(0 0 0)
(0 0 0)
(0 0 0)
(0 0 0)
(0 0 0)
(0 0 0)
(0 0 0)
(0 0 0)
(6.82121e-15 0 -6.01841e-15)
(0 0 6.45017e-20)
(2.01298e-37 6.82121e-15 1.34271e-14)
(0 6.82121e-15 0)
(0 6.82121e-15 0)
(0 6.82121e-15 5.66124e-20)
(0 0 1.36424e-14)
(0 1.24813e-48 -1.06891e-18)
(3.74958e-36 3.41061e-15 -4.27217e-18)
(0 3.41061e-15 0)
(0 3.41061e-15 0)
(0 3.41061e-15 0)
(0 3.41061e-15 0)
(0 0 0)
(0 0 3.4197e-29)
(0 0 0)
(0 0 0)
(0 0 0)
(0 0 0)
(0 0 0)
(0 0 1.09376e-32)
(0 0 0)
(0 0 0)
(0 0 0)
(0 0 0)
(0 0 0)
(0 0 0)
(0 0 0)
(0 0 0)
(0 0 0)
(0 0 0)
(0 0 0)
(0 0 0)
(0 0 0)
(0 0 0)
(0 0 0)
(0 0 0)
(0 0 0)
(0 0 0)
(0 0 0)
(0 0 0)
(0 0 0)
(0 0 0)
(0 0 0)
(6.82121e-15 0 -6.13954e-15)
(0 0 6.37728e-20)
(0 6.82121e-15 0)
(0 6.82121e-15 0)
(0 6.82121e-15 5.6463e-20)
(0 0 1.36424e-14)
(0 9.54707e-46 -1.06858e-18)
(1.42543e-33 3.41061e-15 2.71556e-20)
(0 3.41061e-15 0)
(0 3.41061e-15 0)
(0 3.41061e-15 0)
(0 3.41061e-15 0)
(0 0 0)
(0 0 -7.48499e-28)
(0 0 0)
(0 0 0)
(0 0 0)
(0 0 0)
(0 0 0)
(0 0 -1.69346e-31)
(0 0 0)
(0 0 0)
(0 0 0)
(0 0 0)
(0 0 0)
(0 0 0)
(0 0 0)
(0 0 0)
(0 0 0)
(0 0 0)
(0 0 0)
(0 0 0)
(0 0 0)
(0 0 0)
(0 0 0)
(0 0 0)
(0 0 0)
(0 0 0)
(0 0 0)
(0 0 0)
(0 0 0)
(0 0 0)
(0 0 0)
(6.82121e-15 0 -6.11254e-15)
(0 0 1.46089e-19)
(0 6.82121e-15 0)
(0 6.82121e-15 0)
(0 6.82121e-15 5.6463e-20)
(0 0 1.36424e-14)
(0 -1.81619e-46 -1.11868e-18)
(4.83203e-31 3.41061e-15 4.25347e-18)
(0 3.41061e-15 0)
(0 3.41061e-15 0)
(0 3.41061e-15 0)
(0 3.41061e-15 0)
(0 0 0)
(0 0 2.12755e-18)
(0 0 0)
(0 0 0)
(0 0 0)
(0 0 0)
(0 0 0)
(0 0 6.10052e-20)
(0 0 0)
(0 0 0)
(0 0 0)
(0 0 0)
(0 0 0)
(0 0 0)
(0 0 0)
(0 0 0)
(0 0 0)
(0 0 0)
(0 0 0)
(0 0 0)
(0 0 0)
(0 0 0)
(0 0 0)
(0 0 0)
(0 0 0)
(0 0 0)
(0 0 0)
(0 0 0)
(0 0 0)
(0 0 0)
(0 0 0)
(0 0 -2.29831e-15)
(0 0 2.13696e-14)
(0 0 5.29678e-16)
(0 0 3.87132e-16)
(0 0 2.08894e-18)
(0 1.41768e-17 3.04056e-19)
(0 6.82121e-15 7.37039e-35)
(0 6.82121e-15 -1.93135e-26)
(0 6.82121e-15 -3.97226e-19)
(0 0 1.33456e-14)
(0 0 3.12666e-17)
(0 3.41061e-15 1.99189e-21)
(0 3.41061e-15 1.02176e-19)
(0 3.41061e-15 1.03644e-19)
(0 3.41061e-15 4.05729e-18)
(0 3.41061e-15 -3.46914e-18)
(0 0 0)
(0 0 1.01559e-20)
(0 0 0)
(0 0 0)
(0 0 0)
(0 0 0)
(0 0 0)
(0 0 0)
(0 0 0)
(0 0 0)
(0 0 0)
(0 0 0)
(0 0 0)
(0 0 0)
(0 0 0)
(0 0 0)
(0 0 0)
(0 0 0)
(0 0 0)
(0 0 0)
(0 0 0)
(0 0 0)
(0 0 0)
(0 0 0)
(0 0 0)
(0 0 0)
(0 0 0)
(0 0 0)
(0 0 0)
(0 0 0)
(0 0 0)
(0 0 -3.52942e-16)
(0 0 2.53662e-22)
(0 0 1.12698e-21)
(0 0 1.72038e-22)
(-3.41061e-15 -5.35853e-20 -6.60991e-15)
(0 0 0)
(0 3.41061e-15 1.65257e-15)
(0 3.41061e-15 1.65582e-15)
(0 3.41061e-15 1.65488e-15)
(0 -3.41061e-15 -1.65204e-15)
(0 -6.48462e-15 0)
(0 0 0)
(0 0 -9.51423e-21)
(0 0 -6.82121e-15)
(0 0 -6.82121e-15)
(0 6.65006e-15 0)
(0 6.65006e-15 0)
(0 0 0)
(0 0 0)
(0 0 0)
(0 0 0)
(0 0 0)
(0 0 0)
(0 0 0)
(0 0 3.87913e-21)
(0 0 0)
(0 0 0)
(0 0 0)
(0 0 0)
(0 0 0)
(0 0 0)
(0 0 0)
(0 0 0)
(0 0 0)
(0 0 0)
(0 0 0)
(0 0 0)
(0 0 0)
(0 0 0)
(0 0 0)
(0 0 0)
(0 0 0)
(0 0 0)
(0 0 0)
(0 0 0)
(0 0 0)
(0 0 0)
(0 0 0)
(1.91253e-16 1.95216e-28 2.55795e-15)
(0 1.63921e-24 -5.84546e-15)
(0 6.18802e-21 -6.82121e-15)
(0 -6.69372e-15 -4.47283e-15)
(0 0 3.09554e-15)
(0 0 0)
(0 0 0)
(0 0 -6.82121e-15)
(0 0 -6.82121e-15)
(0 6.65006e-15 0)
(0 0 0)
(0 0 0)
(0 0 -1.30788e-24)
(0 0 0)
(0 0 0)
(0 0 0)
(0 0 0)
(0 0 0)
(0 0 0)
(0 0 0)
(0 0 0)
(0 0 0)
(0 0 0)
(0 0 0)
(0 0 0)
(0 0 0)
(0 0 0)
(0 0 0)
(0 0 0)
(0 0 0)
(0 0 0)
(0 0 0)
(0 0 0)
(0 0 0)
(0 0 0)
(0 0 0)
(0 0 0)
(0 0 0)
(0 0 0)
(0 0 0)
(0 0 0)
(0 0 0)
(0 0 0)
(0 0 0)
(0 0 0)
(0 0 0)
(0 0 0)
(0 0 0)
(0 0 0)
(0 0 0)
(0 0 0)
(0 0 0)
(0 0 0)
(0 0 0)
(0 0 0)
(0 0 0)
(0 0 0)
(0 0 0)
(0 0 0)
(0 0 0)
(0 0 0)
(0 0 0)
(0 0 0)
(0 0 0)
(0 0 0)
(0 0 0)
(0 0 0)
(0 0 0)
(0 0 0)
(0 0 0)
(0 0 0)
(0 0 0)
(0 0 0)
(0 0 0)
(0 0 0)
(0 0 0)
(0 0 0)
(0 0 0)
(0 0 0)
(0 0 0)
(0 0 0)
(0 0 0)
(0 0 0)
(0 0 0)
(0 0 0)
(0 0 0)
(0 0 0)
(0 0 0)
(0 0 0)
(0 0 0)
(0 0 0)
(0 0 0)
(0 0 0)
(0 0 0)
(0 0 0)
(0 0 0)
(0 0 0)
(0 0 0)
(0 0 0)
(0 0 0)
(0 0 0)
(0 0 0)
(0 0 0)
(0 0 0)
(0 0 0)
(0 0 0)
(0 0 0)
(0 0 0)
(0 0 0)
(0 0 0)
(0 0 0)
(0 0 0)
(0 0 0)
(0 0 0)
(0 0 0)
(0 0 0)
(0 0 0)
(0 0 0)
(0 0 0)
(0 0 0)
(0 0 0)
(0 0 0)
(0 0 0)
(0 0 0)
(0 0 0)
(0 0 0)
(0 0 0)
(0 0 0)
(0 0 0)
(0 0 0)
(0 0 0)
(0 0 0)
(0 0 0)
(0 0 0)
(0 0 0)
(0 0 0)
(0 0 0)
(0 0 0)
(0 0 0)
(0 0 0)
(0 0 0)
(0 0 0)
(0 0 0)
(0 0 0)
(0 0 0)
(0 0 0)
(0 0 0)
(0 0 0)
(0 0 0)
(0 0 0)
(0 0 0)
(0 0 0)
(0 0 0)
(0 0 0)
(0 0 0)
(0 0 0)
(0 0 0)
(0 0 0)
(0 0 0)
(0 0 0)
(0 0 0)
(0 0 0)
(0 0 0)
(0 0 0)
(0 0 0)
(0 0 0)
(0 0 0)
(0 0 0)
(0 0 0)
(0 0 0)
(0 0 0)
(0 0 0)
(0 0 0)
(0 0 0)
(0 0 0)
(0 0 0)
(0 0 0)
(0 0 0)
(0 0 0)
(0 0 0)
(0 0 0)
(0 0 0)
(0 0 0)
(0 0 0)
(0 0 0)
(0 0 0)
(0 0 0)
(0 0 0)
(0 0 0)
(0 0 0)
(0 0 0)
(0 0 0)
(0 0 0)
(0 0 0)
(0 0 0)
(0 0 0)
(0 0 0)
(0 0 0)
(0 0 0)
(0 0 0)
(0 0 0)
(0 0 0)
(0 0 0)
(0 0 0)
(0 0 0)
(0 0 0)
(0 0 1.45614e-14)
(0 0 0)
(0 0 -1.63353e-19)
(0 0 -1.80719e-14)
(0 0 0)
(6.82121e-15 0 -6.12867e-15)
(0 0 0)
(6.82121e-15 0 5.52905e-15)
(0 0 0)
(6.43729e-15 0 -3.43412e-16)
(0 0 -4.17245e-16)
(0 6.82121e-15 0)
(1.36412e-44 2.622e-38 0)
(0 2.26299e-36 0)
(1.88382e-44 6.82121e-15 -1.14178e-14)
(0 6.82121e-15 0)
(4.38192e-42 2.17589e-36 0)
(0 2.64725e-34 0)
(0 6.82121e-15 1.09639e-14)
(0 4.06012e-38 0)
(0 1.8892e-39 0)
(0 6.82121e-15 -7.32649e-16)
(0 6.82121e-15 -1.301e-14)
(0 5.75926e-36 0)
(0 2.22458e-37 0)
(0 6.82121e-15 0)
(0 1.87605e-41 0)
(0 9.52894e-44 0)
(0 6.82121e-15 -7.32676e-16)
(0 6.82121e-15 0)
(0 1.87813e-39 0)
(0 4.70156e-42 0)
(0 1.02318e-14 0)
(0 1.13015e-45 0)
(0 1.90904e-47 0)
(0 6.82121e-15 -7.17209e-16)
(0 6.40397e-15 -1.26435e-14)
(0 1.2243e-43 0)
(0 2.644e-45 0)
(0 0 0)
(0 0 0)
(0 0 0)
(0 0 0)
(0 0 0)
(0 0 0)
(0 0 0)
(0 0 0)
(0 0 0)
(0 0 0)
(0 0 0)
(0 0 1.18569e-17)
(0 0 0)
(0 0 1.72455e-14)
(0 0 0)
(0 0 -1.55888e-19)
(0 0 -1.69153e-14)
(0 0 0)
(6.82121e-15 0 -3.22294e-16)
(0 0 4.17245e-16)
(6.82121e-15 0 5.54413e-15)
(0 0 0)
(6.43658e-15 0 -3.40127e-16)
(0 0 -4.17245e-16)
(0 6.82121e-15 0)
(1.52714e-39 3.21442e-34 0)
(0 2.87996e-32 0)
(0 6.82121e-15 -7.75118e-16)
(3.91545e-37 0 -7.99759e-16)
(0 2.89205e-30 0)
(0 6.82121e-15 1.301e-14)
(0 7.76304e-34 0)
(0 1.93669e-35 0)
(0 6.82121e-15 -7.44963e-16)
(0 6.82121e-15 -1.301e-14)
(0 4.34125e-32 0)
(0 1.21044e-33 0)
(0 6.82121e-15 0)
(0 3.21369e-37 0)
(0 2.99109e-39 0)
(0 6.82121e-15 -7.32676e-16)
(0 6.82121e-15 0)
(0 1.4428e-35 0)
(0 4.38665e-38 0)
(0 1.02318e-14 1.26576e-14)
(0 2.85044e-41 0)
(0 3.33101e-43 0)
(0 6.82121e-15 -7.1717e-16)
(0 6.40397e-15 -1.26386e-14)
(0 9.32479e-40 0)
(0 2.10386e-41 0)
(0 0 0)
(0 0 0)
(0 0 0)
(0 0 0)
(0 0 0)
(0 0 0)
(0 0 0)
(0 0 0)
(0 0 0)
(0 0 0)
(0 0 -1.16648e-15)
(0 0 0)
(0 0 1.72455e-14)
(0 0 -7.85693e-16)
(0 0 -1.55888e-19)
(0 0 -1.69153e-14)
(0 0 0)
(6.82121e-15 0 -3.21384e-16)
(0 0 4.17245e-16)
(6.82121e-15 0 5.56237e-15)
(0 0 0)
(6.4368e-15 0 -3.39739e-16)
(0 0 -4.17245e-16)
(0 6.82121e-15 7.48835e-16)
(1.32058e-34 0 7.7336e-16)
(0 6.508e-28 0)
(0 6.82121e-15 -7.43503e-16)
(1.74357e-32 0 -7.67872e-16)
(0 5.21598e-26 0)
(0 6.82121e-15 1.301e-14)
(0 7.19187e-30 0)
(0 1.79126e-31 0)
(0 6.82121e-15 -7.44787e-16)
(0 6.82121e-15 -1.301e-14)
(0 3.26128e-28 0)
(0 9.03815e-30 0)
(0 6.82121e-15 0)
(0 1.46157e-33 0)
(0 1.38813e-35 0)
(0 6.82121e-15 -7.32676e-16)
(0 6.82121e-15 0)
(0 4.97303e-32 0)
(0 5.0377e-34 0)
(0 1.02318e-14 1.26576e-14)
(0 1.43272e-37 0)
(0 1.93852e-39 0)
(0 6.82121e-15 -7.1717e-16)
(0 6.40397e-15 -1.26387e-14)
(0 4.35575e-36 0)
(0 8.71611e-38 0)
(0 0 0)
(0 0 0)
(0 0 0)
(0 0 0)
(0 0 0)
(0 0 0)
(0 0 0)
(0 0 0)
(0 0 0)
(0 0 0)
(0 0 1.03312e-16)
(0 0 0)
(0 0 1.72455e-14)
(0 0 0)
(0 0 0)
(0 0 -1.69826e-14)
(0 0 0)
(6.82121e-15 0 -3.23205e-16)
(0 0 4.17245e-16)
(6.82121e-15 0 0)
(0 0 -7.55332e-18)
(6.40397e-15 0 -3.99475e-16)
(0 0 -4.17245e-16)
(0 6.82121e-15 7.48835e-16)
(4.76111e-30 0 7.7336e-16)
(0 9.08016e-24 0)
(0 6.82121e-15 0)
(4.66644e-28 2.20018e-20 0)
(0 5.48532e-22 0)
(0 6.82121e-15 1.301e-14)
(0 6.44109e-26 0)
(0 1.00589e-27 0)
(0 6.82121e-15 -7.57038e-16)
(0 6.82121e-15 -1.36424e-14)
(0 0 0)
(0 0 0)
(0 6.82121e-15 0)
(0 5.55096e-30 0)
(0 6.92758e-32 0)
(0 6.82121e-15 -7.57066e-16)
(0 6.82121e-15 0)
(0 0 0)
(0 0 0)
(0 1.02318e-14 1.26576e-14)
(0 4.13592e-34 0)
(0 5.37957e-36 0)
(0 6.82121e-15 -7.17047e-16)
(0 6.40397e-15 -1.26356e-14)
(0 0 0)
(0 0 0)
(0 0 9.83184e-35)
(0 0 0)
(0 0 0)
(0 -4.83729e-16 2.3412e-15)
(0 1.24933e-14 5.78328e-15)
(0 -1.234e-14 1.02318e-14)
(-1.16102e-14 4.82162e-25 1.02318e-14)
(0 0 -2.53223e-15)
(0 0 0)
(0 0 0)
(6.96268e-16 0 -2.64289e-15)
(0 -1.24933e-14 5.68434e-15)
(1.16102e-14 -1.234e-14 1.02318e-14)
(-1.16102e-14 1.234e-14 1.02318e-14)
(0 0 -2.28117e-16)
(0 0 0)
(0 0 1.89688e-14)
(6.87898e-16 0 6.82121e-15)
(0 0 1.19371e-14)
(1.16102e-14 -1.23401e-14 1.02318e-14)
(-1.16102e-14 -1.234e-14 8.52651e-15)
(0 0 0)
(0 0 8.80437e-20)
(0 0 -4.27505e-20)
(6.40397e-15 0 4.51183e-16)
(0 0 0)
(0 0 1.34887e-14)
(0 0 1.21407e-14)
(0 0 3.58165e-16)
(0 0 5.76709e-24)
(2.40556e-16 -3.72565e-16 3.98838e-21)
(0 0 6.07955e-15)
(0 0 5.81777e-18)
(0 0 -6.19774e-15)
(-3.30409e-15 0 6.33908e-15)
(0 0 0)
(6.2855e-15 0 1.65204e-15)
(0 0 -6.60818e-15)
(0 0 -6.60818e-15)
(0 6.82121e-15 -1.65204e-15)
(0 0 -6.60818e-15)
(0 0 0)
(0 0 0)
(0 0 0)
(0 0 0)
(0 0 0)
(0 0 0)
(0 0 0)
(0 0 0)
(0 0 0)
(0 0 0)
(0 0 0)
(0 0 0)
(0 0 0)
(0 0 0)
(0 0 0)
(0 0 0)
(0 0 0)
(0 0 0)
(0 0 0)
(0 0 0)
(0 0 -1.46993e-15)
(0 0 0)
(6.80384e-15 0 -6.82121e-15)
(0 0 0)
(0 0 7.96094e-19)
(6.81391e-15 0 -2.70366e-17)
(0 0 0)
(0 0 7.3103e-18)
(0 0 -1.47114e-15)
(0 0 2.10037e-17)
(6.81431e-15 0 9.77342e-18)
(0 0 0)
(0 0 1.21862e-17)
(6.8043e-15 0 3.89535e-17)
(0 0 0)
(0 0 -5.1667e-22)
(0 0 1.57554e-14)
(0 0 -1.27146e-16)
(0 0 -1.76907e-17)
(6.80384e-15 0 -4.59962e-17)
(0 0 0)
(6.40397e-15 0 0)
(0 0 0)
(6.82121e-15 0 7.94849e-19)
(0 0 0)
(0 0 -1.8521e-14)
(0 0 9.06629e-17)
(0 0 1.71554e-14)
(0 0 1.34446e-14)
(0 0 0)
(6.82121e-15 0 2.38454e-18)
(0 0 0)
(6.40397e-15 0 6.40397e-15)
(0 0 0)
(6.82121e-15 0 0)
(0 0 0)
(0 0 1.39879e-16)
(-8.15041e-16 0 6.10574e-16)
(0 0 3.06767e-15)
(0 0 -1.48731e-15)
(0 0 8.20497e-15)
(1.16102e-14 0 6.40429e-15)
(0 -6.95117e-16 5.62654e-15)
(0 -1.13069e-14 0)
(0 0 0)
(0 0 -1.65345e-15)
(0 0 0)
(-1.09384e-14 0 6.40417e-15)
(1.16102e-14 -1.36424e-14 6.41995e-15)
(8.98825e-21 4.28597e-16 -3.40068e-15)
(0 1.13497e-14 0)
(0 0 -2.24395e-14)
(0 0 0)
(0 0 -5.13187e-17)
(-1.09384e-14 0 6.79056e-15)
(1.16102e-14 0 4.81884e-15)
(0 0 0)
(0 0 1.02318e-14)
(0 -1.25045e-14 6.82121e-15)
(0 0 -1.60392e-15)
(0 0 0)
(1.17514e-14 1.24933e-14 1.02318e-14)
(0 0 4.99262e-18)
(0 0 -2.09834e-14)
(0 0 0)
(0 0 8.09219e-17)
(0 0 0)
(0 0 0)
(0 0 2.01605e-15)
(4.03471e-17 0 1.7018e-14)
(0 0 0)
(0 0 -2.2754e-14)
(0 0 -2.26907e-15)
(0 0 0)
(0 0 0)
(0 0 -5.72901e-30)
(0 0 -1.68673e-14)
(0 0 0)
(0 0 2.28889e-14)
(0 0 -2.96556e-19)
(0 0 0)
(0 0 0)
(0 0 -6.19295e-22)
(0 0 0)
(0 0 0)
(0 0 0)
(0 0 0)
(0 0 0)
(0 0 0)
(0 0 0)
(0 0 0)
(0 0 0)
(0 0 0)
(0 0 0)
(0 0 0)
(0 0 0)
(0 0 0)
(0 0 0)
(0 0 0)
(0 0 0)
(0 0 0)
(0 0 0)
(0 0 0)
(0 0 0)
(0 0 0)
(0 0 0)
(0 0 0)
(0 0 0)
(0 0 0)
(0 0 0)
(0 0 0)
(0 0 0)
(0 0 0)
(0 0 0)
(0 0 0)
(0 0 0)
(0 0 0)
(0 0 0)
(0 0 0)
(0 0 0)
(0 0 0)
(0 0 0)
(0 0 0)
(0 0 0)
(0 0 0)
(0 0 0)
(0 0 0)
(0 0 0)
(0 0 0)
(0 0 0)
(0 0 0)
(0 0 0)
(0 0 0)
(0 0 0)
(0 0 0)
(0 0 0)
(0 0 0)
(0 0 0)
(0 0 0)
(0 0 0)
(0 0 0)
(0 0 0)
(0 0 0)
(0 0 0)
(0 0 0)
(0 0 0)
(0 0 0)
(0 0 0)
(0 0 0)
(0 0 0)
(0 0 0)
(0 0 0)
(0 0 0)
(0 0 0)
(0 0 0)
(0 0 0)
(0 0 0)
(0 0 0)
(0 0 0)
(0 0 0)
(0 0 0)
(0 0 0)
(0 0 0)
(0 0 0)
(0 0 0)
(0 0 0)
(0 0 0)
(0 0 0)
(0 0 0)
(0 0 0)
(0 0 0)
(0 0 0)
(0 0 -2.395e-15)
(0 0 0)
(0 0 0)
(0 0 0)
(0 0 0)
(0 0 0)
(0 0 0)
(0 0 0)
(0 0 0)
(0 0 1.1248e-16)
(0 0 4.71891e-17)
(0 0 0)
(0 0 0)
(0 0 -2.47999e-15)
(0 0 2.64812e-15)
(0 0 0)
(0 0 0)
(0 0 0)
(0 0 0)
(0 0 -1.9745e-17)
(0 0 0)
(0 0 0)
(0 0 0)
(1.05054e-43 0 0)
(0 0 0)
(0 0 0)
(0 0 0)
(1.42215e-41 0 0)
(0 0 0)
(0 0 0)
(0 0 0)
(0 0 0)
(0 0 0)
(0 0 0)
(0 0 0)
(0 0 0)
(0 0 0)
(0 0 0)
(0 0 0)
(0 0 0)
(0 0 0)
(0 0 0)
(0 0 0)
(0 0 0)
(0 0 0)
(0 0 0)
(0 0 0)
(0 0 0)
(0 0 0)
(0 0 0)
(0 0 0)
(0 0 0)
(0 0 0)
(0 0 0)
(0 0 0)
(0 0 0)
(0 0 0)
(0 0 0)
(0 0 0)
(0 0 0)
(0 0 0)
(0 0 0)
(0 0 0)
(0 0 0)
(0 0 0)
(0 0 0)
(0 0 0)
(0 0 0)
(0 0 0)
(0 0 0)
(0 0 0)
(0 0 0)
(0 0 0)
(0 0 0)
(0 0 0)
(0 0 0)
(0 0 0)
(0 0 0)
(0 0 0)
(0 0 0)
(0 0 0)
(0 0 0)
(0 0 0)
(0 0 0)
(0 0 0)
(0 0 0)
(0 0 0)
(0 0 0)
(0 0 0)
(0 0 0)
(0 0 0)
(0 0 0)
(0 0 0)
(0 0 0)
(0 0 0)
(0 0 0)
(0 0 0)
(0 0 0)
(0 0 1.09141e-16)
(0 0 0)
(0 0 0)
(0 0 0)
(0 0 2.55086e-15)
(0 0 4.3362e-16)
(0 0 -2.36343e-15)
(0 0 0)
(0 0 0)
(0 0 1.9793e-17)
(0 0 0)
(0 0 8.76746e-17)
(0 0 0)
(0 0 0)
(0 0 1.11779e-16)
(0 0 1.17285e-15)
(0 0 1.20408e-14)
(0 0 0)
(0 0 -2.42601e-15)
(0 0 2.65864e-15)
(0 0 0)
(0 0 0)
(0 0 0)
(0 0 0)
(0 0 -1.73384e-17)
(0 0 0)
(0 0 0)
(0 0 0)
(0 0 0)
(0 0 0)
(0 0 0)
(0 0 0)
(0 0 0)
(0 0 0)
(0 0 0)
(0 0 0)
(0 0 0)
(0 0 0)
(0 0 0)
(0 0 0)
(0 0 0)
(0 0 0)
(0 0 0)
(0 0 0)
(0 0 0)
(0 0 0)
(0 0 0)
(0 0 0)
(0 0 0)
(0 0 0)
(0 0 0)
(0 0 0)
(0 0 0)
(0 0 0)
(0 0 0)
(0 0 0)
(0 0 0)
(0 0 0)
(0 0 0)
(0 0 0)
(0 0 0)
(0 0 0)
(0 0 0)
(0 0 0)
(0 0 0)
(0 0 0)
(0 0 0)
(0 0 0)
(0 0 0)
(0 0 0)
(0 0 0)
(0 0 0)
(0 0 0)
(0 0 0)
(0 0 0)
(0 0 0)
(0 0 0)
(0 0 0)
(0 0 0)
(0 0 0)
(0 0 0)
(0 0 0)
(0 0 0)
(0 0 0)
(0 0 0)
(0 0 0)
(0 0 0)
(0 0 0)
(0 0 0)
(0 0 0)
(0 0 0)
(0 0 0)
(0 0 0)
(0 0 0)
(0 0 0)
(0 0 0)
(0 0 0)
(0 0 0)
(0 0 8.35641e-16)
(0 0 -1.06653e-14)
(0 0 1.20408e-14)
(0 0 0)
(0 0 2.49411e-15)
(0 0 3.12085e-16)
(0 0 -2.34719e-15)
(0 0 0)
(0 0 0)
(0 0 1.96473e-17)
(0 0 0)
(0 0 8.7715e-17)
(0 0 0)
(0 0 0)
(0 0 1.17701e-15)
(0 0 -1.08075e-14)
(0 0 1.20408e-14)
(0 0 0)
(0 0 -2.42586e-15)
(0 0 2.64508e-15)
(0 0 0)
(0 0 0)
(0 0 0)
(0 0 0)
(0 0 -1.73384e-17)
(0 0 0)
(0 0 0)
(0 0 0)
(0 0 0)
(0 0 0)
(0 0 0)
(0 0 0)
(0 0 0)
(0 0 0)
(0 0 0)
(0 0 0)
(0 0 0)
(0 0 0)
(0 0 0)
(0 0 0)
(0 0 0)
(0 0 0)
(0 0 0)
(0 0 0)
(0 0 0)
(0 0 0)
(0 0 0)
(0 0 0)
(0 0 0)
(0 0 0)
(0 0 0)
(0 0 0)
(0 0 0)
(0 0 0)
(0 0 0)
(0 0 0)
(0 0 0)
(0 0 0)
(0 0 0)
(0 0 0)
(0 0 0)
(0 0 0)
(0 0 0)
(0 0 0)
(0 0 0)
(0 0 0)
(0 0 0)
(0 0 0)
(0 0 0)
(0 0 0)
(0 0 0)
(0 0 0)
(0 0 0)
(0 0 0)
(0 0 0)
(0 0 0)
(0 0 0)
(0 0 0)
(0 0 0)
(0 0 0)
(0 0 0)
(0 0 0)
(0 0 0)
(0 0 0)
(0 0 0)
(0 0 0)
(0 0 0)
(0 0 0)
(0 0 0)
(0 0 0)
(0 0 0)
(0 0 0)
(0 0 0)
(0 0 0)
(0 0 0)
(0 0 0)
(0 0 0)
(0 0 0)
(0 0 0)
(0 0 0)
(0 0 1.17714e-17)
(0 0 0)
(0 0 2.55327e-15)
(0 0 4.33814e-16)
(0 0 -2.37374e-15)
(0 0 0)
(0 0 0)
(0 0 1.96473e-17)
(0 0 0)
(0 0 8.7698e-17)
(0 0 0)
(0 0 0)
(0 0 -1.24156e-15)
(0 0 0)
(0 0 -4.97131e-17)
(0 0 0)
(0 0 0)
(0 0 2.60925e-15)
(0 0 0)
(0 0 0)
(0 0 0)
(0 0 0)
(0 0 0)
(0 0 0)
(0 0 0)
(0 0 0)
(0 0 3.26668e-18)
(0 0 1.36424e-14)
(0 0 0)
(0 0 5.40152e-33)
(0 0 0)
(0 0 0)
(0 0 -1.02936e-33)
(0 0 1.07055e-14)
(0 0 0)
(0 0 -1.36424e-14)
(0 0 -1.80629e-14)
(0 0 0)
(0 0 1.69019e-14)
(0 0 -1.56156e-23)
(0 0 2.25521e-15)
(0 0 0)
(0 0 0)
(0 0 1.87974e-14)
(0 0 6.46083e-16)
(0 0 3.23536e-15)
(0 0 0)
(0 0 0)
(0 0 -1.34258e-14)
(0 0 0)
(0 0 1.74065e-14)
(0 0 -4.09329e-15)
(0 0 1.60343e-15)
(0 0 0)
(0 0 0)
(0 0 -1.60495e-14)
(0 0 0)
(0 0 1.69916e-14)
(0 0 -2.00238e-15)
(0 0 0)
(0 0 0)
(0 0 0)
(0 0 0)
(0 0 0)
(0 0 1.60818e-17)
(0 0 1.36424e-14)
(0 0 -8.73199e-17)
(0 0 1.30964e-15)
(0 0 0)
(0 0 -1.20881e-14)
(0 0 0)
(0 0 -2.33606e-15)
(0 0 1.20408e-14)
(0 0 9.00082e-17)
(0 0 0)
(0 0 0)
(0 0 0)
(0 0 2.19047e-15)
(0 0 2.65729e-16)
(0 0 -1.81582e-15)
(0 0 -3.80676e-17)
(0 0 1.30621e-16)
(0 0 0)
(0 0 -1.20408e-14)
(0 0 3.62423e-15)
(0 0 -1.00155e-15)
(0 0 1.2509e-14)
(0 0 -2.11468e-17)
(0 0 0)
(0 0 0)
(0 0 -1.91809e-16)
(0 0 -2.68297e-19)
(0 0 -1.03429e-21)
(0 0 -2.64417e-15)
(0 0 0)
(0 0 -1.77834e-14)
(0 0 1.48182e-15)
(0 0 0)
(0 0 1.77702e-15)
(0 0 0)
(0 0 0)
(0 0 9.7217e-17)