/*--------------------------------*- C++ -*----------------------------------*\
  =========                 |
  \\      /  F ield         | OpenFOAM: The Open Source CFD Toolbox
   \\    /   O peration     | Website:  https://openfoam.org
    \\  /    A nd           | Version:  9
     \\/     M anipulation  |
\*---------------------------------------------------------------------------*/
FoamFile
{
    format      ascii;
    class       volScalarField;
    location    "0.00105";
    object      alpha.c4;
}
// * * * * * * * * * * * * * * * * * * * * * * * * * * * * * * * * * * * * * //

dimensions      [0 0 0 0 0 0 0];

internalField   nonuniform List<scalar> 
9107
(
5.36875e-12
2.10197e-13
1.19315e-11
5.09305e-11
1.1144e-10
1.78311e-13
6.04826e-13
1.34306e-12
8.47633e-14
1.08805e-16
1.95419e-18
1.10824e-17
1.38113e-08
1.05764e-09
2.03174e-10
7.27512e-11
3.64955e-10
1.26911e-12
2.59833e-11
5.69901e-12
7.63539e-14
2.01752e-16
2.19456e-13
5.25086e-15
8.68713e-17
2.73633e-15
1.03785e-06
5.77758e-08
7.44999e-07
4.06715e-09
3.18923e-06
1.91576e-08
2.05394e-07
5.60184e-07
2.1266e-09
5.52361e-09
5.1633e-08
1.05097e-08
1.02938e-07
3.02564e-07
3.07888e-08
2.06413e-09
1.84534e-08
8.52509e-11
1.20281e-07
4.9908e-10
4.32984e-09
5.03703e-09
1.21067e-11
7.17805e-12
5.84544e-11
7.67328e-11
6.34412e-10
4.87113e-10
1.37998e-12
4.48779e-13
3.62586e-12
1.15775e-14
3.06075e-11
2.08763e-14
1.78569e-13
4.86619e-14
4.11152e-16
1.86747e-16
5.02344e-16
7.6164e-16
6.42471e-15
1.77304e-15
5.65217e-15
9.73168e-17
9.24446e-17
2.58869e-15
6.93079e-15
1.97204e-16
1.29779e-16
1.56655e-14
1.29094e-15
1.48761e-16
0.000257004
2.84561e-09
2.13182e-07
3.21823e-12
3.11144e-09
5.38427e-14
7.30204e-12
1.95543e-16
1.35147e-15
7.92011e-18
2.43543e-07
1.45158e-08
1.22636e-05
2.67755e-09
2.21064e-12
2.15988e-12
3.25225e-11
2.71253e-13
2.50111e-10
4.08526e-12
4.25241e-08
1.15068e-11
2.57729e-12
8.45338e-14
1.71283e-13
3.96949e-14
3.63916e-12
1.02243e-12
4.10868e-11
2.83118e-14
7.24613e-14
1.16704e-14
8.92976e-16
1.07153e-15
8.62236e-10
4.48197e-14
9.31235e-15
5.38224e-15
1.89631e-13
1.00174e-16
1.10957e-16
5.08053e-17
1.30207e-18
1.75905e-18
1.91889e-12
2.42305e-10
3.25941e-11
1.49171e-09
1.26542e-10
1.70114e-11
3.68536e-12
5.90966e-15
3.42595e-13
4.10425e-14
7.41426e-13
9.79291e-15
9.67474e-14
1.07444e-14
7.09178e-16
1.07854e-14
8.60546e-16
1.35187e-14
8.3102e-16
5.67018e-15
2.84164e-16
3.0873e-18
1.57338e-16
3.90232e-18
1.33329e-16
6.34675e-18
6.58063e-17
1.97832e-18
1.2499e-15
1.60177e-18
3.51981e-16
9.17351e-17
1.25551e-18
1.19877e-17
1.84257e-18
8.3665e-17
8.25588e-19
3.23236e-07
1.70561e-05
1.42407e-08
1.28466e-07
9.64347e-06
7.49952e-09
6.08328e-07
7.00988e-08
2.69018e-08
2.15135e-07
1.73856e-10
2.17466e-06
1.60944e-09
7.59466e-09
4.24393e-13
3.13995e-10
3.31871e-12
3.88043e-13
2.68949e-11
3.60453e-12
6.24789e-14
1.72803e-10
1.90139e-08
1.82044e-11
5.27707e-11
7.73436e-10
3.71326e-09
4.46235e-12
8.50738e-11
2.49003e-11
7.71276e-10
1.24397e-12
1.6664e-09
2.37268e-12
4.04283e-11
3.65528e-15
3.68107e-13
3.23807e-14
2.72119e-15
5.70657e-14
5.67515e-15
3.053e-15
3.50668e-12
2.48681e-10
4.11994e-13
8.15122e-13
1.31338e-11
5.43655e-11
1.66235e-13
8.26759e-13
1.30918e-13
9.43071e-13
2.76013e-14
7.6306e-12
4.35453e-14
4.24752e-13
1.2838e-16
2.78684e-15
1.02902e-15
2.55377e-17
1.90534e-15
7.18345e-17
8.38669e-17
5.91173e-13
8.94088e-10
1.33503e-11
3.76026e-11
1.35106e-11
3.69659e-11
1.03384e-12
9.79687e-15
2.17965e-13
2.0206e-13
3.51099e-14
2.18973e-14
1.27333e-12
6.17642e-14
8.61245e-15
1.23831e-12
3.5069e-14
2.61467e-15
4.37853e-16
2.45384e-16
1.2454e-15
9.87047e-17
3.24842e-13
3.51033e-13
7.40461e-15
8.51639e-15
3.29771e-13
4.06528e-13
4.73681e-15
1.23893e-14
4.9737e-16
7.22153e-15
4.00271e-17
2.11583e-14
2.76435e-16
2.31691e-15
1.84819e-19
8.43678e-18
6.84037e-19
1.80391e-20
4.74678e-18
1.3343e-19
8.07168e-20
7.07351e-17
3.63265e-18
4.47975e-19
1.01402e-16
1.51249e-18
2.9825e-17
1.61787e-17
2.40083e-19
2.13937e-20
5.09596e-19
2.55941e-18
3.78821e-20
7.21809e-20
4.476e-21
7.89207e-17
2.69915e-18
1.26763e-16
1.67296e-18
2.49609e-19
1.25315e-17
2.86264e-19
9.77317e-20
1.8438e-16
1.24368e-17
0.0103833
0.00198443
0.000640625
7.6205e-05
3.06561e-05
1.12642e-07
5.6077e-08
2.08756e-12
6.954e-09
2.88653e-13
5.64247e-15
6.70884e-15
6.01728e-13
4.99661e-14
1.32759e-14
6.86095e-15
0.00216678
0.0177462
0.00162211
0.00858914
0.0151877
0.00127885
0.00261294
0.00125506
0.00508035
0.00462972
0.000168707
0.00987285
0.000636189
0.000454711
4.70265e-05
0.00199064
3.31105e-05
0.000260699
0.000128654
0.00104649
9.3059e-06
2.58898e-05
0.000140962
0.000440134
2.27564e-06
0.000684039
4.49548e-06
1.46246e-05
1.77515e-06
0.000224334
8.42442e-07
7.70377e-06
6.3115e-06
7.76069e-05
2.00585e-07
3.15745e-07
1.19611e-06
2.01176e-06
2.86074e-09
1.69799e-05
3.05594e-08
3.2137e-08
8.99205e-11
1.32006e-07
1.77568e-10
3.04639e-10
2.03812e-09
5.68767e-09
8.27238e-12
3.06816e-12
1.02999e-11
5.04542e-12
1.55247e-14
1.86543e-10
2.88811e-13
8.72439e-14
1.36088e-07
3.34114e-06
5.74179e-08
2.34917e-09
3.36277e-06
1.42698e-07
2.28939e-09
4.08946e-09
7.67089e-11
1.1517e-10
2.12697e-12
4.46838e-09
7.22919e-11
1.02302e-10
4.14491e-15
2.16432e-13
6.05796e-16
5.06312e-16
2.90001e-14
1.02328e-14
3.09673e-16
2.50265e-12
8.93644e-14
2.30284e-15
2.28173e-12
5.18126e-14
9.51992e-14
3.57405e-14
1.01609e-14
3.69666e-18
1.47917e-17
1.6807e-16
1.0124e-14
2.91554e-16
1.67823e-16
4.51842e-17
6.85431e-22
1.49247e-19
7.26118e-23
1.14832e-20
8.8838e-24
4.60723e-23
3.35217e-26
4.69026e-20
2.09257e-25
1.86592e-28
3.14792e-25
4.13917e-15
1.4893e-14
5.51795e-17
3.19699e-15
1.17128e-18
6.76782e-22
8.71503e-21
1.97589e-22
8.02854e-18
8.60942e-16
1.18745e-18
4.90601e-16
2.41276e-21
6.16332e-23
4.00883e-19
1.17053e-16
1.72569e-20
1.30782e-17
1.84311e-21
5.51012e-19
7.66799e-24
1.87674e-20
3.35439e-20
3.3183e-25
1.6057e-20
1.83299e-22
1.22353e-16
6.38497e-20
1.14939e-18
7.12505e-19
3.82891e-17
2.07876e-20
4.15281e-19
9.81999e-18
5.9238e-21
1.10255e-19
3.44623e-20
5.43394e-18
3.13653e-21
5.71509e-20
1.20492e-18
6.6962e-22
1.27029e-20
5.03509e-22
1.49152e-19
7.36635e-23
1.54691e-21
6.07307e-21
2.82756e-24
6.18595e-23
2.57735e-25
1.92526e-22
7.81995e-26
1.83189e-24
2.64326e-20
6.21249e-25
6.32955e-22
6.72539e-21
5.43813e-23
2.70462e-14
3.68472e-13
1.24575e-15
2.14833e-15
1.91393e-13
9.16999e-16
5.14007e-14
6.02626e-15
4.61928e-16
4.55955e-15
9.71822e-17
4.07613e-14
2.59113e-16
1.16753e-15
2.69257e-22
1.13834e-20
3.50203e-20
5.52004e-19
4.75937e-21
1.56971e-20
6.05958e-22
5.93866e-23
8.0324e-20
1.07868e-22
6.75077e-22
7.09698e-22
3.00003e-21
1.81003e-23
1.7019e-16
5.27188e-16
4.93839e-17
3.26529e-18
2.32972e-16
1.67162e-16
2.06932e-17
1.09766e-16
2.26889e-18
4.7056e-17
1.63949e-17
9.47469e-17
2.75725e-17
9.22706e-17
7.19431e-24
4.0104e-23
3.43405e-22
1.55059e-21
9.77711e-24
2.90863e-23
1.96612e-22
2.04429e-17
1.50765e-17
6.07669e-18
2.06323e-19
2.4352e-17
6.87576e-18
2.32689e-18
3.99074e-18
6.06662e-20
6.16891e-19
2.74018e-19
1.91019e-18
7.76381e-19
2.34378e-18
7.47267e-20
7.44669e-20
3.02345e-20
5.53991e-22
1.65314e-19
2.91231e-20
9.10002e-21
4.5701e-21
4.60017e-23
2.64731e-22
2.72565e-22
2.08848e-21
9.16076e-22
1.9641e-21
2.22542e-21
1.01842e-19
6.74604e-22
1.11065e-20
2.49198e-21
4.97437e-20
6.9092e-22
5.64891e-23
1.29819e-23
1.21313e-24
6.45658e-24
5.45656e-23
1.98122e-23
8.18456e-24
2.42682e-17
5.89094e-19
2.35888e-17
1.9654e-17
3.34017e-19
4.13392e-18
5.07695e-18
1.61297e-18
1.35076e-20
8.10188e-20
9.82454e-19
6.14334e-21
2.0142e-19
5.20658e-19
1.91649e-19
1.47295e-21
6.37853e-21
1.05242e-19
5.67643e-22
2.19526e-20
6.07609e-20
9.08676e-22
5.73192e-24
1.3592e-23
3.91064e-22
1.60337e-24
8.59351e-23
2.83655e-22
3.24202e-20
7.90088e-22
4.44567e-21
2.42846e-21
2.91284e-22
1.14267e-21
5.54032e-21
5.9258e-24
3.05425e-27
5.21007e-26
4.40378e-25
2.11676e-25
1.33316e-26
1.22095e-26
6.93442e-22
8.85164e-24
1.07982e-22
2.87336e-23
5.14144e-18
3.88083e-18
2.56281e-20
6.87293e-18
9.45933e-20
1.98119e-18
8.34711e-19
6.06677e-20
6.05896e-19
3.70568e-21
8.58045e-19
6.83194e-21
2.73679e-19
1.45662e-19
1.6778e-21
1.19458e-20
5.43548e-23
2.3654e-20
1.67139e-22
7.2878e-21
2.54512e-21
1.07635e-24
1.09844e-23
4.33176e-26
2.53129e-23
1.46417e-25
8.11799e-24
2.42045e-24
1.33737e-23
2.57193e-23
2.01378e-24
7.98037e-23
6.73275e-24
4.05031e-23
2.2962e-23
1.11537e-20
8.10244e-24
1.0802e-22
2.30996e-22
4.08148e-21
2.88506e-24
4.34099e-23
1.18012e-21
9.73108e-25
1.25988e-23
3.74628e-23
5.95509e-22
5.04564e-25
6.80012e-24
1.32293e-22
1.08287e-25
1.33937e-24
8.05558e-25
1.58798e-23
1.20096e-26
2.23697e-25
5.91424e-25
4.01047e-28
6.05346e-27
8.28527e-28
1.67623e-26
1.51781e-29
5.75507e-28
3.07795e-25
4.38245e-26
3.34558e-27
2.132e-29
8.13477e-20
6.71697e-20
2.80755e-19
3.0096e-17
3.39065e-21
1.0916e-18
3.23604e-18
3.29812e-20
1.14065e-20
3.17548e-20
3.3987e-21
4.46491e-18
2.09834e-16
1.28671e-14
2.82414e-16
9.43426e-18
9.01e-19
1.05005e-19
4.9071e-22
1.01494e-25
7.77768e-23
2.39832e-21
2.22477e-23
2.34024e-19
1.17561e-19
5.00872e-21
3.39357e-18
8.17623e-20
4.2587e-20
1.87327e-21
2.37855e-20
1.23517e-20
5.65233e-22
4.70201e-19
1.19851e-20
6.23361e-21
2.9663e-22
2.60359e-21
1.38294e-21
5.88854e-23
1.2517e-20
3.41128e-22
1.68488e-22
9.49406e-24
1.16174e-23
6.08566e-24
2.82944e-25
1.39127e-23
3.53051e-25
1.65812e-25
3.91428e-26
2.22632e-23
3.70154e-22
1.17007e-22
4.15419e-24
1.05196e-23
8.13529e-23
3.01171e-23
3.39249e-22
4.37998e-23
3.53294e-24
2.34533e-26
1.30775e-30
1.31526e-27
5.3744e-30
2.08945e-28
9.18041e-31
1.45483e-29
5.82546e-32
1.22482e-31
5.89388e-34
1.00703e-32
7.95201e-35
3.55833e-27
3.68453e-29
3.44944e-31
2.93541e-33
1.84288e-20
1.91146e-21
1.469e-22
1.51047e-24
6.45212e-22
5.59208e-24
5.09228e-26
4.54985e-28
3.82267e-30
2.99184e-32
0.00054452
0.000172867
0.000163574
0.00104076
0.00100738
7.00396e-06
0.00010938
0.000106465
7.53609e-06
5.88543e-28
6.06605e-27
2.40107e-29
9.84269e-28
4.17279e-30
6.81078e-29
2.65538e-31
7.03264e-31
3.11188e-33
1.60559e-32
8.7399e-35
1.47349e-24
2.1621e-25
1.61922e-26
1.40185e-28
3.00639e-30
2.79837e-14
0.000101613
5.41917e-07
1.25362e-11
2.13531e-08
3.14385e-10
3.79938e-06
9.45256e-07
2.9234e-05
8.58939e-08
4.116e-06
1.75352e-11
2.60498e-11
5.07999e-08
1.74487e-08
8.70307e-09
1.54824e-09
8.1459e-10
2.89508e-10
3.06001e-15
3.98526e-14
5.23164e-14
1.04152e-12
7.34688e-13
4.07444e-11
8.41735e-12
5.02366e-23
2.87703e-20
1.16134e-19
1.82699e-19
8.28877e-21
1.41214e-20
8.46013e-22
1.5993e-21
2.29032e-22
3.50489e-22
2.92184e-15
3.23575e-16
2.69265e-17
4.87099e-18
3.5589e-19
1.95506e-20
8.79321e-22
4.98744e-23
7.03269e-24
7.30757e-24
6.33609e-19
2.29219e-18
6.30471e-19
9.73517e-20
2.85116e-19
5.48318e-20
1.43053e-19
9.54057e-20
4.51475e-21
0.00265358
0.00127798
9.91832e-05
2.35294e-06
0.000241826
7.33582e-07
5.07499e-08
3.01707e-05
2.83298e-06
1.58719e-05
6.1737e-07
3.48093e-06
2.50422e-07
6.79545e-10
3.73331e-08
7.86892e-09
3.31223e-09
1.61789e-08
5.35855e-06
4.70862e-07
3.4305e-08
1.11224e-06
8.01354e-08
6.89443e-09
2.28569e-10
4.85385e-10
1.1247e-09
9.90363e-11
4.09243e-10
1.46155e-07
1.03568e-08
1.38681e-07
2.11279e-09
2.85619e-08
1.96785e-09
5.78553e-12
1.45073e-10
2.99563e-11
2.75076e-11
0.00714215
0.000228883
2.7594e-06
2.32746e-10
1.24894e-14
0.00664631
0.00102503
0.00107258
0.00028534
8.48691e-06
1.65839e-05
5.85564e-06
4.43273e-09
1.48143e-08
2.00956e-13
0.00145726
0.0082678
0.00154426
0.00579538
0.00678579
0.0011718
0.00188321
2.0831e-06
0.000355206
9.23341e-06
4.99578e-05
1.77151e-05
9.36142e-05
9.46809e-07
1.80049e-08
6.08456e-06
4.03975e-08
5.24006e-07
9.40975e-08
1.22037e-06
7.53743e-09
3.91324e-13
5.83824e-10
3.48036e-12
9.66684e-12
8.78461e-12
2.37429e-11
1.76353e-13
9.58605e-16
1.0796e-17
0.00146691
0.00840744
0.00130601
0.00540792
0.00690939
0.000984285
0.00189564
0.000153001
0.000166702
0.000110125
0.000223866
0.000150052
0.000117376
7.67273e-05
0.000219044
0.000683013
0.00321443
0.00138726
0.000104081
0.00392208
0.000516159
0.000158696
0.000697788
0.00307005
0.00148031
9.73064e-05
0.00403525
0.000442583
0.000169243
4.86869e-05
2.78719e-06
3.15249e-05
5.15346e-06
4.89238e-05
2.45124e-06
2.24672e-05
5.59032e-06
2.68577e-06
0.00040087
1.14109e-05
8.05335e-05
2.08134e-05
0.000113756
1.73586e-06
2.88398e-08
1.3318e-07
2.79909e-07
1.26117e-08
3.80594e-08
1.7796e-07
3.40503e-07
2.54817e-08
6.97873e-07
1.88239e-05
1.80968e-05
1.3252e-07
3.88208e-05
3.0683e-07
3.03319e-07
9.22233e-07
3.47918e-05
2.30938e-05
2.8902e-07
4.88532e-05
6.42205e-07
4.02138e-07
1.01424e-08
1.88599e-09
4.33865e-09
4.45525e-09
1.36511e-08
4.47175e-09
9.91043e-09
6.02844e-09
2.50536e-08
7.91523e-06
9.4337e-08
1.29013e-06
1.26478e-07
1.66083e-06
1.977e-08
2.58562e-10
5.63646e-10
1.35019e-09
1.06173e-10
3.65414e-10
1.41645e-09
1.85315e-09
2.94844e-10
2.10738e-09
6.01853e-08
1.09564e-08
6.41704e-11
1.43849e-07
8.60834e-10
1.60875e-10
3.03759e-09
1.72557e-07
1.6273e-08
2.19611e-10
2.0444e-07
2.58533e-09
2.40652e-10
3.02473e-11
9.18434e-13
1.21119e-11
2.33228e-12
4.41872e-11
3.28048e-12
3.80744e-11
3.5204e-12
7.33391e-15
5.29739e-14
1.31326e-13
4.2078e-15
2.18782e-14
4.88707e-13
1.79308e-13
1.21499e-14
9.03161e-13
1.72252e-14
1.00735e-14
6.55031e-16
5.02573e-16
6.71629e-16
4.23166e-16
2.64082e-17
9.95869e-16
2.716e-17
2.63563e-17
9.76599e-16
1.42747e-17
4.54136e-16
0.166504
0.12062
0.0417964
0.0293425
0.0170877
0.0239527
0.033801
0.00479296
0.00253082
0.000556111
7.17165e-07
3.77319e-08
2.79809e-11
0.194487
0.0517533
0.0229852
0.0914766
0.00541076
0.00230592
0.000438466
0.000204755
9.63687e-07
0.122296
0.137283
0.120895
0.138748
0.08795
0.0531237
0.08668
0.0536945
0.026034
0.0339245
0.0340579
0.0259798
0.021381
0.0213078
0.00230624
0.0600807
0.0630469
0.027554
0.0191443
0.0533468
0.0230564
0.0705543
0.0398655
0.0118694
0.0183554
0.00655019
0.0349479
0.0144369
0.0210098
0.00738152
0.00982968
0.00276835
0.00115161
0.0110099
0.00670276
0.00139145
0.00558363
0.000718659
0.00363262
0.000538971
0.00505836
0.00087067
0.00404367
0.00101511
0.00214157
0.00025236
6.03156e-05
0.00238783
0.000919647
7.35988e-05
0.000288289
1.01049e-05
4.41404e-05
1.05187e-06
0.000266027
1.18201e-05
4.65837e-05
1.10517e-17
1.34579e-20
1.70186e-19
1.31515e-22
1.59249e-21
3.28186e-22
7.94524e-25
7.01478e-24
1.6343e-26
7.17166e-26
1.74872e-28
7.42294e-28
1.86273e-30
2.63335e-29
2.23759e-30
1.9448e-24
1.43567e-26
5.15867e-24
3.82994e-09
0.000550584
1.52781e-16
1.70891e-21
8.24341e-28
1.57529e-26
2.22702e-27
6.10663e-29
6.45354e-30
7.9113e-13
1.10016e-06
1.16642e-18
4.41231e-23
1.34115e-29
3.44393e-28
5.1764e-30
1.18302e-30
1.02911e-30
2.50995e-13
2.77944e-09
1.19163e-20
3.28737e-25
2.52833e-31
4.71048e-30
4.13575e-32
2.04501e-32
6.6962e-32
8.19242e-17
4.31513e-13
1.03013e-21
7.12649e-27
2.73591e-33
5.81967e-32
1.71462e-31
5.57277e-34
4.0862e-33
3.9989e-20
1.38234e-15
6.90133e-24
2.58004e-20
2.94291e-27
3.86746e-27
8.41368e-30
4.5122e-28
1.42492e-20
3.74409e-17
2.48665e-23
1.08922e-20
1.07089e-27
2.01889e-24
0.0200618
0.0181241
0.00869135
0.0252222
0.000191201
8.3173e-13
2.95419e-10
4.14656e-06
5.6602e-14
0.00513576
1.94074e-05
0.000566851
2.63021e-19
1.42655e-17
5.88659e-20
7.67236e-26
1.30492e-23
1.03482e-25
4.65179e-22
8.25523e-27
3.59845e-24
2.7448e-26
7.99837e-27
1.05106e-27
4.10869e-26
9.76638e-29
2.75384e-28
2.95548e-28
1.38215e-26
0.00101036
0.000233435
1.72592e-07
7.89537e-16
4.45988e-13
8.79491e-10
6.04379e-16
9.08737e-09
6.15904e-21
1.89635e-19
5.84826e-22
1.11916e-27
2.886e-25
1.94458e-27
3.47976e-24
3.98006e-29
2.13629e-26
1.46103e-28
1.74751e-28
5.33541e-29
5.05151e-27
6.06821e-31
4.889e-29
2.10704e-29
2.53501e-27
6.06418e-05
2.21383e-06
4.87284e-06
2.67735e-10
4.43121e-15
7.35233e-15
5.23268e-13
2.63075e-16
5.20042e-12
1.18589e-09
4.88502e-23
1.56588e-21
4.52706e-24
1.43063e-29
2.45004e-27
2.12887e-29
3.4714e-26
9.33505e-31
2.97398e-28
2.79857e-30
1.34327e-29
3.84602e-30
4.90727e-28
1.54027e-32
3.25381e-31
3.08036e-31
4.03219e-29
3.68206e-10
2.65354e-07
1.54253e-12
9.01373e-12
5.5206e-14
1.66983e-18
3.72011e-18
4.85297e-15
3.18678e-21
6.29837e-11
7.90098e-14
1.61629e-13
9.47724e-25
5.77851e-23
1.672e-26
1.52807e-31
2.53803e-29
2.43938e-31
1.8196e-28
1.20492e-29
1.94461e-30
2.8417e-31
2.90573e-32
2.79128e-32
1.54607e-30
5.32859e-29
6.07244e-28
2.00231e-30
8.67586e-30
3.2065e-21
1.70674e-26
3.32507e-26
1.23694e-23
3.6195e-22
1.83214e-25
4.95734e-24
2.08732e-19
1.79821e-25
2.03816e-24
6.68825e-21
3.67869e-20
7.50669e-23
3.84914e-22
2.50869e-17
3.51542e-22
3.58933e-19
8.51255e-24
3.409e-21
6.51203e-26
2.0321e-23
4.72403e-29
5.68952e-25
1.15374e-27
1.11758e-13
2.09343e-14
1.72366e-15
2.09833e-19
9.0966e-18
4.19607e-18
1.48673e-16
5.17795e-20
1.30191e-18
1.47148e-15
4.52084e-16
1.40128e-17
4.39338e-21
1.36859e-19
4.94395e-20
2.88369e-18
4.41935e-22
1.80081e-20
4.43987e-17
1.92034e-18
2.38831e-19
3.34388e-23
1.4704e-21
2.59855e-22
1.29174e-20
3.13497e-24
1.02838e-22
5.082e-20
2.83915e-21
5.39242e-22
2.6807e-25
6.25761e-24
8.90073e-25
3.03053e-23
1.45877e-26
3.87882e-25
0.000113162
0.00143392
4.91046e-05
0.000388063
0.00104693
2.88175e-05
0.000176435
9.37009e-17
1.01763e-14
4.67576e-15
5.73197e-16
1.49409e-13
6.87102e-14
1.25617e-15
4.46376e-29
1.08985e-29
2.2334e-28
6.26111e-28
8.60514e-30
2.02631e-28
5.4828e-29
8.27627e-09
6.7408e-06
1.50948e-08
8.03812e-08
1.06026e-07
5.99123e-07
1.09268e-09
2.32885e-17
8.44485e-19
1.56294e-17
2.38782e-19
3.82105e-17
5.69269e-19
1.21258e-17
3.27149e-30
2.96019e-31
5.25869e-30
4.2404e-30
4.84917e-30
1.43633e-31
2.23918e-30
6.40893e-11
2.29466e-08
3.99677e-11
5.48693e-10
3.29228e-10
4.45877e-09
7.87057e-12
1.54625e-20
4.68408e-19
8.56696e-19
9.89298e-21
4.21633e-19
5.21973e-21
8.60898e-19
2.10175e-31
1.47147e-32
2.00758e-31
1.92168e-31
3.75806e-31
8.02151e-33
9.94247e-32
1.16575e-14
2.38549e-12
1.4295e-14
1.68683e-13
4.40471e-14
2.5402e-13
9.9202e-15
3.78784e-23
1.17308e-21
5.19803e-23
2.03541e-23
1.32148e-21
2.83181e-23
1.07254e-21
6.09255e-33
3.26888e-34
1.28419e-33
1.15922e-32
1.85943e-33
1.80713e-32
4.62521e-33
8.10077e-22
1.19448e-18
3.41021e-22
4.89293e-17
1.24143e-19
1.3558e-18
2.58624e-20
5.75215e-15
1.29544e-18
3.68547e-16
3.1243e-17
1.33193e-16
5.7175e-19
3.37031e-18
6.50634e-22
3.71221e-20
4.96507e-22
8.17002e-21
7.71566e-22
1.96559e-20
2.46151e-22
5.66535e-29
1.76555e-30
3.04454e-28
7.92339e-28
2.75309e-29
6.92221e-26
9.11336e-28
4.65274e-25
2.4859e-28
1.28006e-27
8.41264e-25
3.90206e-24
9.14983e-27
3.80378e-26
1.48628e-06
6.7326e-05
1.17326e-05
0.000130139
4.523e-05
6.27048e-06
2.86616e-06
3.84458e-13
5.25841e-11
2.47467e-11
9.19511e-10
1.73209e-11
8.05684e-12
1.94789e-09
1.69526e-08
1.85315e-07
8.42883e-08
3.58313e-08
2.59384e-07
4.05351e-05
1.29614e-06
5.72741e-08
1.37709e-05
1.03661e-06
1.4822e-08
3.71955e-12
5.20694e-15
2.76608e-13
1.37986e-10
7.10589e-14
1.17616e-12
8.11454e-12
2.57654e-09
6.25086e-10
1.14404e-08
1.45755e-10
0.000328441
0.0030057
0.000977462
0.00406411
0.00229327
0.000715123
0.000471502
3.45665e-06
1.14733e-06
5.51003e-07
6.74074e-06
1.62862e-05
8.43836e-05
5.23629e-05
2.8587e-05
3.01059e-05
0.000138947
7.8907e-05
3.80132e-07
0.000424317
5.95342e-06
2.49685e-06
0.000108902
0.00208561
0.000239679
4.41345e-05
0.00105188
0.00028196
1.24635e-05
5.59531e-07
4.47064e-09
7.87334e-08
3.17552e-08
3.07771e-06
8.73115e-07
1.23832e-05
1.88205e-07
2.54241e-19
1.79764e-18
1.22368e-18
4.70888e-18
8.81199e-20
4.21641e-20
1.03378e-17
6.93398e-16
7.77008e-18
1.01568e-16
8.07988e-17
6.32965e-16
9.80495e-15
6.31762e-18
2.63616e-19
5.49343e-20
1.93139e-19
6.73554e-19
1.90306e-21
6.86785e-21
7.60783e-20
5.60168e-25
7.60479e-24
1.36694e-26
5.31409e-26
4.67726e-24
1.20438e-26
6.55739e-25
1.55352e-25
1.41109e-26
6.43092e-25
2.43897e-27
1.12586e-24
3.30581e-27
1.17242e-25
1.10823e-27
9.43169e-29
5.36651e-27
3.70455e-27
5.45949e-29
4.5824e-27
1.35794e-27
1.79189e-29
1.73985e-28
1.28411e-30
3.96629e-29
2.58204e-30
5.37278e-29
7.2317e-30
5.2746e-28
9.09621e-28
7.29096e-30
1.03227e-27
1.87951e-29
1.72429e-27
2.25583e-28
2.01791e-11
4.88075e-08
2.11174e-09
9.5284e-09
5.14531e-10
1.77655e-09
1.24913e-10
2.18035e-14
6.16215e-16
1.41483e-14
2.21424e-14
3.16307e-15
3.06453e-13
5.30815e-16
2.31141e-13
2.49247e-11
5.3727e-12
1.62215e-12
3.0378e-12
2.1675e-09
8.24255e-11
1.27906e-11
2.29812e-10
3.10073e-11
1.14828e-12
3.25342e-14
2.49872e-14
3.31711e-16
1.59543e-14
2.51874e-16
2.78678e-16
1.56687e-14
4.08589e-14
1.84004e-13
4.39677e-13
1.61796e-14
1.10655e-10
1.88045e-10
1.33336e-09
1.45667e-11
2.52737e-09
2.20012e-08
7.35415e-08
1.3219e-10
1.7492e-07
3.15359e-10
1.07897e-09
3.59923e-11
1.901e-12
4.47367e-12
1.55272e-11
2.68204e-20
5.20241e-21
1.78049e-20
3.93888e-21
2.53308e-22
9.50091e-21
1.24672e-22
8.49885e-18
1.10723e-19
3.4398e-18
5.17575e-20
2.92895e-18
3.85449e-18
3.17611e-20
5.04452e-22
2.80991e-21
1.68187e-21
6.90416e-22
9.96381e-24
1.64061e-23
3.60648e-22
6.90944e-27
8.57898e-26
2.62825e-28
3.81604e-28
1.35498e-26
3.39537e-26
1.36636e-28
8.87483e-28
6.61093e-29
2.84448e-27
1.28929e-29
4.71473e-27
1.84378e-29
5.64417e-28
9.49737e-29
5.52093e-30
6.35832e-28
1.46017e-28
1.99362e-28
3.60958e-30
4.34167e-28
2.17109e-30
9.90035e-31
4.7088e-32
5.3492e-31
8.41655e-32
1.04769e-30
1.44231e-30
9.79985e-29
1.0142e-28
1.38272e-30
2.1599e-28
2.8788e-30
3.17155e-28
4.91676e-29
7.2083e-14
2.40024e-11
3.83735e-12
5.28014e-11
3.30344e-13
4.84238e-12
7.58662e-13
6.98775e-15
4.75019e-17
7.81328e-17
7.02848e-15
3.65663e-17
2.98408e-15
7.78435e-17
1.08819e-15
5.46793e-14
4.62751e-15
1.10552e-14
7.8557e-15
6.30864e-12
4.31422e-14
1.06228e-14
5.2816e-13
9.30769e-14
9.67655e-16
4.29013e-17
4.75276e-18
5.97773e-19
2.66698e-16
5.92115e-19
4.798e-18
4.49697e-17
1.38116e-16
3.41274e-16
1.53732e-15
3.3166e-17
9.09309e-13
5.67783e-13
4.66095e-12
1.12296e-13
7.58267e-12
6.53176e-11
4.09101e-11
8.61706e-14
5.29092e-10
9.44299e-13
6.03446e-13
4.74934e-11
1.59702e-08
2.52826e-10
1.69811e-11
3.3146e-09
2.24941e-10
3.65867e-12
1.07867e-13
1.90053e-15
1.41177e-14
9.43062e-15
6.73409e-13
2.41575e-13
3.13621e-12
5.32306e-14
4.52386e-23
1.98141e-22
2.22309e-22
1.20404e-22
1.89761e-24
7.42824e-23
2.17397e-24
6.42874e-20
8.64507e-21
5.38898e-22
1.21901e-21
8.67919e-21
7.64204e-20
1.48935e-22
3.69109e-24
2.76914e-23
1.16591e-23
2.00222e-23
1.08636e-25
4.25331e-25
2.80413e-24
1.07167e-28
8.15126e-28
3.62633e-30
1.15283e-29
1.36825e-28
6.98793e-28
2.90123e-30
2.22149e-29
2.98262e-30
5.53893e-29
3.08536e-31
1.69444e-28
6.26631e-31
1.11039e-29
6.18986e-30
4.19395e-31
5.71628e-29
7.41494e-30
1.78127e-29
1.78673e-31
3.06751e-29
2.82678e-32
5.16842e-32
5.52446e-34
8.71397e-33
1.71463e-33
2.23335e-32
1.50684e-32
1.35488e-30
1.67795e-30
9.62034e-33
2.17734e-30
3.89794e-32
4.45924e-30
4.57045e-31
1.14445e-16
4.04827e-15
2.56272e-15
3.47466e-14
1.82281e-16
1.79043e-15
2.16496e-15
3.16179e-18
5.59715e-20
4.83379e-20
3.28777e-18
5.63262e-20
2.00032e-18
5.8143e-20
4.65301e-18
1.21055e-16
8.87014e-18
8.53672e-17
1.76489e-17
8.77015e-15
1.21717e-16
1.5084e-16
2.95588e-16
4.53127e-16
7.19454e-18
1.71054e-19
2.14213e-19
5.94061e-21
2.29372e-19
3.38776e-21
6.12512e-21
1.78331e-19
6.9943e-19
4.99574e-18
1.56654e-17
2.95097e-19
1.7797e-14
1.37211e-11
9.38254e-13
2.72246e-12
2.10065e-13
6.76164e-13
5.42054e-14
4.60847e-16
5.44786e-16
1.05317e-15
3.90757e-16
6.29811e-16
1.45833e-14
3.58796e-15
1.54402e-15
2.79591e-15
9.69966e-14
7.17765e-14
1.48547e-15
8.66282e-14
2.94283e-15
1.32219e-15
4.53206e-15
2.21415e-13
1.31976e-13
7.53921e-15
1.18269e-13
8.98382e-15
4.56556e-15
8.54881e-17
3.25269e-17
8.50004e-17
2.9748e-17
1.51753e-16
2.51519e-16
3.43364e-16
1.14636e-16
2.69505e-25
3.23763e-25
1.32323e-24
3.8577e-25
1.72541e-26
5.76329e-25
1.14729e-26
1.24387e-22
2.28533e-24
4.11206e-24
3.06624e-24
6.33594e-23
1.40369e-22
1.2048e-24
5.5878e-26
1.00764e-25
2.16103e-26
6.41428e-26
7.07936e-28
1.71759e-27
2.29496e-26
9.48763e-31
8.74195e-30
4.31008e-32
8.72296e-32
1.67595e-30
5.12642e-30
2.7507e-32
1.55137e-31
1.99245e-31
3.57264e-30
1.70492e-30
8.58065e-31
5.24024e-32
5.97176e-31
2.71708e-32
1.58505e-33
1.58653e-31
1.1486e-31
5.09522e-32
4.59968e-32
9.59127e-32
3.11194e-31
7.32669e-31
9.97683e-29
5.84645e-30
1.3528e-30
1.95063e-31
1.3036e-29
7.56336e-31
8.23819e-30
2.64963e-28
6.24334e-29
3.50091e-30
1.46274e-30
2.45745e-29
9.37572e-24
8.94593e-22
7.23171e-23
8.33658e-22
1.7056e-23
2.68473e-22
3.45605e-23
3.67532e-25
1.50074e-24
7.12702e-27
2.31009e-25
3.24645e-25
9.80952e-25
6.50081e-26
2.29043e-21
1.33232e-19
4.54599e-21
1.89411e-19
2.56417e-21
5.68474e-20
5.43146e-21
1.56042e-23
9.23827e-24
3.31623e-25
1.027e-24
1.52851e-23
7.3906e-24
3.15832e-24
5.29781e-23
9.32302e-23
9.5566e-25
1.6889e-23
4.85229e-23
1.20899e-22
5.26749e-24
8.95634e-25
1.92778e-25
1.58923e-27
1.08893e-26
3.68153e-28
2.44221e-28
9.11102e-28
3.4485e-30
1.74644e-29
2.02224e-30
7.74911e-31
1.37566e-31
6.31946e-19
1.36572e-24
1.16834e-27
4.38338e-21
8.93829e-25
5.35369e-24
1.89528e-26
1.68789e-24
5.78419e-25
3.14544e-27
6.44548e-22
2.97568e-25
3.23527e-23
2.11305e-22
6.02438e-26
6.73771e-24
2.35203e-29
7.97225e-24
5.37295e-27
6.65156e-25
7.14974e-25
1.99927e-28
2.49833e-26
1.43434e-27
3.53724e-27
3.64255e-29
6.67832e-28
5.32585e-24
1.32952e-19
1.40423e-21
3.75568e-24
1.02573e-22
2.88611e-25
3.71692e-25
4.05964e-23
2.31601e-25
7.96017e-24
1.58222e-25
6.55149e-25
2.7245e-26
8.89893e-27
1.98459e-25
5.14984e-25
1.46879e-26
1.20205e-26
5.84096e-26
2.63777e-27
5.09553e-28
1.92767e-26
3.33792e-26
9.5463e-28
2.17694e-29
1.44636e-28
7.61047e-30
6.46318e-31
5.43415e-29
3.08851e-29
2.36765e-30
1.4352e-20
6.0679e-19
1.33293e-20
6.00816e-19
1.26988e-20
3.93115e-19
1.74991e-20
1.46775e-26
4.45136e-27
7.31046e-28
1.36261e-23
1.93751e-24
1.23938e-25
1.96827e-26
9.62093e-25
7.76542e-26
1.37824e-24
3.38759e-26
7.07238e-24
7.89468e-26
3.47275e-25
1.09084e-25
6.33853e-27
1.92741e-25
7.89938e-27
3.7259e-25
1.39911e-26
7.1923e-26
5.27065e-24
1.16046e-21
1.1534e-23
9.76927e-23
2.14737e-23
1.79045e-22
3.45623e-24
5.95024e-25
3.66367e-24
3.56127e-23
1.20293e-22
9.84362e-25
2.0908e-24
1.55449e-23
1.98139e-27
1.18727e-28
1.68619e-27
7.11205e-29
7.91746e-27
2.18897e-28
7.89147e-28
1.05174e-25
3.04541e-23
1.19296e-25
1.17525e-24
5.1002e-25
3.94699e-24
4.32302e-26
1.22798e-27
1.04543e-26
1.14111e-25
1.84477e-25
3.004e-27
2.41954e-27
2.8641e-26
4.74808e-30
1.86297e-29
1.3505e-27
1.45255e-28
2.02681e-29
3.88267e-30
1.36555e-28
6.79523e-29
1.51854e-26
4.21898e-28
7.44521e-28
2.09103e-28
2.57163e-27
6.47411e-29
3.3639e-22
2.58035e-22
5.06064e-24
4.90004e-23
2.45981e-22
3.78535e-22
4.54151e-23
3.69153e-18
4.58122e-20
3.00896e-20
2.26278e-18
1.2566e-20
5.43287e-19
8.99336e-19
6.40365e-17
1.70175e-18
3.67201e-19
7.20659e-17
9.16109e-19
4.18104e-17
1.53046e-17
8.68133e-18
3.71662e-16
9.15725e-18
6.92444e-18
3.36908e-16
3.44767e-18
2.00464e-16
1.6934e-21
5.27395e-21
5.13321e-21
3.04869e-23
8.16803e-22
4.48682e-22
3.41073e-23
1.46352e-26
1.15169e-25
4.13297e-26
1.5956e-27
1.24955e-28
4.77084e-28
1.02396e-28
3.6622e-29
1.36943e-29
7.95516e-28
4.53917e-29
1.51186e-30
1.41797e-29
9.36597e-31
3.86947e-23
1.40489e-22
1.10621e-22
5.25053e-25
6.03747e-24
8.33759e-25
2.92201e-24
2.22099e-27
2.53744e-28
3.9724e-28
2.65417e-29
3.45901e-30
3.56329e-30
1.53459e-30
2.99934e-28
2.49625e-30
1.46982e-28
3.43283e-30
1.03255e-31
1.49929e-30
5.54797e-32
2.99844e-25
1.02632e-24
9.00135e-25
5.05394e-27
4.77565e-26
6.48133e-27
4.4544e-26
2.49589e-29
3.31655e-30
5.99467e-30
4.03961e-31
5.6302e-32
7.64603e-32
2.68222e-32
2.13203e-30
4.42883e-31
2.79767e-29
2.66926e-31
6.27693e-33
2.01911e-32
1.73854e-33
2.48057e-27
2.912e-27
9.1386e-27
4.69335e-29
4.88465e-28
7.47028e-29
3.12669e-28
3.96665e-32
6.16342e-32
2.90843e-31
5.01372e-33
9.90401e-34
8.79881e-33
1.48668e-33
1.09563e-32
1.5799e-33
8.60372e-32
1.6181e-33
2.06586e-34
5.37004e-32
8.80523e-33
9.92709e-24
4.51565e-25
4.09883e-25
9.77756e-25
5.26775e-23
1.21881e-24
2.02984e-23
7.26199e-27
2.39854e-28
5.12692e-26
6.39041e-28
9.50493e-26
3.295e-26
1.06653e-26
9.89146e-22
3.23481e-20
1.25771e-21
1.2342e-18
4.47042e-20
4.43285e-19
1.83097e-20
6.48968e-19
2.00155e-19
1.06037e-17
3.64831e-17
6.06589e-19
1.02788e-17
2.09649e-19
4.2928e-24
3.36761e-23
8.24537e-25
1.05356e-21
2.02973e-23
4.24171e-22
1.38725e-23
3.76152e-21
1.72846e-22
1.11425e-22
1.00593e-20
1.57575e-22
4.07159e-21
1.16133e-22
1.44803e-21
4.44803e-22
1.3347e-21
8.72533e-24
4.70942e-23
9.31624e-23
7.25857e-24
3.08508e-24
1.09298e-23
8.85744e-24
5.72572e-26
2.23858e-25
3.55073e-25
3.90738e-26
3.10537e-26
1.12542e-25
8.94324e-26
8.74509e-28
3.30393e-27
9.57678e-27
5.63789e-28
4.69973e-28
6.43705e-28
2.17555e-28
5.80637e-30
2.03727e-29
4.50148e-29
3.47986e-30
8.90235e-27
2.24866e-27
9.8691e-27
3.19747e-26
7.45879e-28
2.65211e-26
8.83022e-27
9.55234e-23
5.07324e-20
1.13075e-20
1.86685e-21
2.67459e-23
5.33586e-22
7.33634e-24
7.39765e-25
1.13944e-21
1.09416e-22
4.25753e-23
5.5576e-25
3.46888e-24
6.09001e-26
7.36419e-27
9.31455e-24
8.11218e-25
3.07515e-25
4.92897e-27
3.71094e-26
7.99602e-28
4.39522e-27
5.6161e-28
5.96351e-26
3.18468e-27
5.79167e-29
2.02628e-28
8.21929e-30
6.06534e-26
4.53265e-24
4.31431e-26
1.10328e-25
2.00003e-27
1.53627e-25
5.20827e-26
3.62782e-28
7.83965e-30
4.52297e-28
3.97396e-29
4.6106e-30
1.01562e-27
3.5836e-28
4.57662e-22
1.66259e-20
2.05628e-21
6.03692e-20
7.97383e-22
2.66248e-20
1.60037e-20
2.14895e-29
6.6454e-29
2.43188e-29
3.76549e-30
3.90737e-28
1.44722e-28
4.58109e-29
2.03955e-28
7.04749e-29
8.72631e-27
2.07516e-29
4.24151e-27
8.89345e-28
3.08416e-27
1.43344e-25
2.88455e-27
4.3628e-26
1.9736e-26
1.01904e-27
2.28504e-25
4.70574e-26
2.70511e-27
9.75438e-28
6.56264e-26
1.13277e-23
1.5586e-25
3.74119e-24
5.45514e-26
2.39537e-26
1.84181e-28
1.21342e-26
1.28116e-24
1.99726e-26
6.673e-25
1.02363e-26
1.99142e-28
3.52694e-29
2.47664e-27
1.49894e-25
2.12831e-27
1.2757e-26
2.065e-28
2.56035e-32
1.17237e-31
8.15801e-30
5.88612e-28
7.61771e-30
1.68998e-29
3.021e-31
3.55265e-25
6.8488e-27
1.09065e-25
1.03292e-25
6.34887e-27
1.29822e-24
3.28626e-25
4.57974e-22
8.00732e-23
3.70778e-23
2.62573e-26
6.96012e-27
1.76851e-25
1.60513e-27
2.30224e-25
7.22433e-26
2.98164e-26
8.23816e-22
0.0630068
0.00606746
0.0020547
1.1907e-06
9.15543e-12
9.90856e-16
0.0126152
5.74019e-06
0.00115521
0.00361422
8.35428e-07
8.84101e-05
0.0531971
0.000658678
3.55772e-08
9.35026e-06
0.000254456
1.7431e-10
5.86707e-08