/*--------------------------------*- C++ -*----------------------------------*\
  =========                 |
  \\      /  F ield         | OpenFOAM: The Open Source CFD Toolbox
   \\    /   O peration     | Website:  https://openfoam.org
    \\  /    A nd           | Version:  9
     \\/     M anipulation  |
\*---------------------------------------------------------------------------*/
FoamFile
{
    format      ascii;
    class       volScalarField;
    location    "0.00105";
    object      rhoE;
}
// * * * * * * * * * * * * * * * * * * * * * * * * * * * * * * * * * * * * * //

dimensions      [1 -1 -2 0 0 0 0];

internalField   nonuniform List<scalar> 
9107
(
253245
253245
253246
253248
253251
253245
253245
253245
253245
253245
253245
253245
253411
253261
253250
253247
253253
253245
253246
253245
253245
253245
253245
253245
253245
253245
256130
253651
256872
253295
261305
253389
254309
254854
253272
253296
253573
253326
253793
254290
253503
253272
253412
253248
253847
253255
253306
253316
253246
253245
253247
253248
253260
253257
253245
253245
253245
253245
253246
253245
253245
253245
253245
253245
253245
253245
253245
253245
253245
253245
253245
253245
253245
253245
253245
253245
253245
253245
1.08735e+06
253336
254773
253245
253302
253245
253245
253245
253245
253245
256160
253544
332418
253327
253245
253245
253247
253245
253255
253245
253599
253246
253245
253245
253245
253245
253245
253245
253247
253245
253245
253245
253245
253245
253277
253245
253245
253245
253245
253245
253245
253245
253245
253245
253245
253258
253248
253298
253252
253247
253245
253245
253245
253245
253245
253245
253245
253245
253245
253245
253245
253245
253245
253245
253245
253245
253245
253245
253245
253245
253245
253245
253245
253245
253245
253245
253245
253245
253245
253245
253245
256720
353607
253556
254970
312359
253426
259225
254265
253758
256019
253254
270544
253297
253416
253245
253260
253245
253245
253247
253245
253245
253250
253577
253246
253247
253267
253309
253245
253247
253246
253261
253245
253273
253245
253246
253245
253245
253245
253245
253245
253245
253245
253245
253252
253245
253245
253246
253247
253245
253245
253245
253245
253245
253246
253245
253245
253245
253245
253245
253245
253245
253245
253245
253245
253279
253246
253248
253246
253248
253245
253245
253245
253245
253245
253245
253245
253245
253245
253245
253245
253245
253245
253245
253245
253245
253245
253245
253245
253245
253245
253245
253245
253245
253245
253245
253245
253245
253245
253245
253245
253245
253245
253245
253245
253245
253245
253245
253245
253245
253245
253245
253245
253245
253245
253245
253245
253245
253245
253245
253245
253245
253245
253245
253245
253245
253245
253245
253245
253245
253245
2.00913e+06
1.9546e+06
1.21243e+06
367885
317683
254415
254145
253245
253378
253245
253245
253245
253245
253245
253245
253245
743286
1.11634e+06
1.09782e+06
2.08248e+06
1.22101e+06
1.05488e+06
726483
739916
2.19783e+06
1.57907e+06
555097
1.4346e+06
881981
604511
306002
1.34223e+06
331526
635289
399142
932733
274556
281481
438596
568584
259509
683364
263573
272062
259108
481860
256578
279367
265092
390575
254542
255134
260288
263400
253301
305877
253584
253591
253248
254364
253251
253256
253285
253340
253246
253245
253246
253245
253245
253251
253245
253245
255239
277515
254195
253320
278639
255289
253319
253365
253250
253252
253245
253374
253250
253251
253245
253245
253245
253245
253245
253245
253245
253245
253245
253245
253245
253245
253245
253245
253245
253245
253245
253245
253245
253245
253245
253245
253245
253245
253245
253245
253245
253245
253245
253245
253245
253245
253245
253245
253245
253245
253245
253245
253245
253245
253245
253245
253245
253245
253245
253245
253245
253245
253245
253245
253245
253245
253245
253245
253245
253245
253245
253245
253245
253245
253245
253245
253245
253245
253245
253245
253245
253245
253245
253245
253245
253245
253245
253245
253245
253245
253245
253245
253245
253245
253245
253245
253245
253245
253245
253245
253245
253245
253245
253245
253245
253245
253245
253245
253245
253245
253245
253245
253245
253245
253245
253245
253245
253245
253245
253245
253245
253245
253245
253245
253245
253245
253245
253245
253245
253245
253245
253245
253245
253245
253245
253245
253245
253245
253245
253245
253245
253245
253245
253245
253245
253245
253245
253245
253245
253245
253245
253245
253245
253245
253245
253245
253245
253245
253245
253245
253245
253245
253245
253245
253245
253245
253245
253245
253245
253245
253245
253245
253245
253245
253245
253245
253245
253245
253245
253245
253245
253245
253245
253245
253245
253245
253245
253245
253245
253245
253245
253245
253245
253245
253245
253245
253245
253245
253245
253245
253245
253245
253245
253245
253245
253245
253245
253245
253245
253245
253245
253245
253245
253245
253245
253245
253245
253245
253245
253245
253245
253245
253245
253245
253245
253245
253245
253245
253245
253245
253245
253245
253245
253245
253245
253245
253245
253245
253245
253245
253245
253245
253245
253245
253245
253245
253245
253245
253245
253245
253245
253245
253245
253245
253245
253245
253245
253245
253245
253245
253245
253245
253245
253245
253245
253245
253245
253245
253245
253245
253245
253245
253245
253245
253245
253245
253245
253245
253245
253245
253245
253245
253245
253245
253245
253245
253245
253245
253245
253245
253245
253245
253245
253245
253245
253245
253245
253245
253245
253245
253245
253245
253245
253245
253245
253245
253245
253245
253245
253245
253245
253245
253245
253245
253245
253245
253245
253245
253245
253245
253245
253245
253245
253245
253245
253245
253245
253245
253245
253245
253245
253245
253245
253245
253245
253245
253245
253245
253245
253245
253245
253245
253245
253245
253245
253245
253245
253245
253245
253245
253245
253245
253245
253245
253245
253245
253245
253245
253245
253245
253245
253245
253245
253245
253245
253245
253245
253245
253245
253245
253245
253245
253245
253245
253245
253245
253245
253245
253245
253245
253245
253245
253245
253245
253245
253245
253245
253245
253245
253245
253245
253245
253245
253245
253245
253245
253245
1.83492e+06
1.08286e+06
1.07648e+06
2.27302e+06
2.33456e+06
305373
783135
795837
308016
253245
253245
253245
253245
253245
253245
253245
253245
253245
253245
253245
253245
253245
253245
253245
253245
253245
1.22351e+06
265778
253247
254163
253274
340371
274666
729124
256569
313616
253247
253249
255258
254007
253650
253362
253311
253271
253245
253245
253245
253245
253245
253251
253246
253245
253245
253245
253245
253245
253245
253245
253245
253245
253245
253245
253245
253245
253245
253245
253245
253245
253245
253245
253245
253245
253245
253245
253245
253245
253245
253245
253245
253245
3.55442e+06
1.88976e+06
1.09631e+06
265626
989286
258537
254265
625080
286506
348363
264512
284846
256257
253278
254203
253564
253342
253551
278449
257376
253692
262132
254152
253392
253256
253261
253277
253250
253263
254975
253433
254837
253307
253782
253301
253246
253252
253247
253247
5.35167e+06
1.61529e+06
266225
253257
253245
3.70142e+06
3.74089e+06
2.83508e+06
1.3496e+06
282299
294322
272771
253365
253530
253245
3.89114e+06
5.08808e+06
4.08439e+06
5.28504e+06
5.10463e+06
3.72477e+06
4.2055e+06
265822
1.95329e+06
333744
477339
387720
609190
260583
253509
275923
253718
257210
254107
260661
253385
253245
253269
253245
253246
253246
253247
253245
253245
253245
3.50633e+06
4.5164e+06
2.83408e+06
3.72483e+06
4.56298e+06
2.54843e+06
3.78856e+06
1.32096e+06
1.43257e+06
1.10049e+06
1.68418e+06
1.18122e+06
868627
683515
1.49206e+06
3.03258e+06
5.00095e+06
3.97866e+06
1.14927e+06
5.01079e+06
2.75576e+06
1.41916e+06
2.77491e+06
3.64888e+06
3.76982e+06
824606
4.57107e+06
1.85814e+06
1.36934e+06
679388
285978
546057
305970
639546
275136
403686
306380
268149
1.97099e+06
320229
497215
400462
659349
262265
253662
255545
257127
253482
253750
255437
257611
253569
257075
314085
304230
254336
359546
255418
255184
257956
333927
315840
254926
381584
256397
255653
253386
253285
253323
253318
253422
253313
253370
253338
253591
281217
254033
260292
254332
262779
253510
253254
253262
253277
253250
253258
253276
253286
253255
253302
254091
253478
253249
254823
253275
253253
253321
254940
253568
253255
255339
253308
253256
253247
253245
253246
253245
253248
253245
253247
253245
253245
253245
253245
253245
253245
253245
253245
253245
253245
253245
253245
253245
253245
253245
253245
253245
253245
253245
253245
253245
253245
253245
3.66781e+06
3.67766e+06
3.78565e+06
3.10062e+06
2.69916e+06
4.7738e+06
4.5501e+06
3.88551e+06
2.23956e+06
1.37429e+06
259754
253918
253247
3.76957e+06
3.49671e+06
3.09102e+06
3.78417e+06
3.93947e+06
3.29772e+06
890556
648902
261171
3.17817e+06
2.2993e+06
2.50891e+06
3.03914e+06
3.36739e+06
3.65395e+06
2.84916e+06
4.01443e+06
4.04352e+06
4.14605e+06
4.41607e+06
3.83205e+06
3.37237e+06
3.20804e+06
2.37491e+06
3.53625e+06
2.58149e+06
3.88045e+06
3.24654e+06
2.7587e+06
4.04234e+06
3.39157e+06
3.88045e+06
3.61775e+06
3.88615e+06
4.8728e+06
3.10109e+06
4.49731e+06
4.74803e+06
3.97017e+06
4.01109e+06
4.09801e+06
1.98671e+06
4.78558e+06
3.33729e+06
2.54748e+06
2.96915e+06
1.21804e+06
2.11385e+06
1.11506e+06
2.53123e+06
1.54123e+06
2.44912e+06
1.72446e+06
1.85277e+06
791916
431875
2.13063e+06
1.5131e+06
498480
1.09991e+06
297765
469426
262220
984387
309879
493853
253245
253245
253245
253245
253245
253245
253245
253245
253245
253245
253245
253245
253245
253245
253245
253245
253245
253245
253920
3.71214e+06
253245
253245
253245
253245
253245
253245
253245
253246
280526
253245
253245
253245
253245
253245
253245
253245
253245
253355
253245
253245
253245
253245
253245
253245
253245
253245
253245
253245
253245
253245
253245
253245
253245
253245
253245
253245
253245
253245
253245
253245
253245
253245
253245
253245
253245
253245
253245
253245
4.53116e+06
4.9815e+06
5.00924e+06
4.72662e+06
2.93845e+06
253246
253327
383651
253245
5.37116e+06
676164
3.17946e+06
253245
253245
253245
253245
253245
253245
253245
253245
253245
253245
253245
253245
253245
253245
253245
253245
253245
3.99221e+06
1.26612e+06
260890
253245
253245
253296
253245
253515
253245
253245
253245
253245
253245
253245
253245
253245
253245
253245
253245
253245
253245
253245
253245
253245
253245
585265
277586
290735
253266
253245
253245
253245
253245
253246
253293
253245
253245
253245
253245
253245
253245
253245
253245
253245
253245
253245
253245
253245
253245
253245
253245
253245
253271
257037
253245
253246
253245
253245
253245
253245
253245
253250
253245
253245
253245
253245
253245
253245
253245
253245
253245
253245
253245
253245
253245
253245
253245
253245
253245
253245
253245
253245
253245
253245
253245
253245
253245
253245
253245
253245
253245
253245
253245
253245
253245
253245
253245
253245
253245
253245
253245
253245
253245
253245
253245
253245
253245
253245
253245
253245
253245
253245
253245
253245
253245
253245
253245
253245
253245
253245
253245
253245
253245
253245
253245
253245
253245
253245
253245
253245
253245
253245
253245
253245
253245
253245
253245
253245
253245
253245
253245
1.45207e+06
4.54649e+06
1.0034e+06
3.23371e+06
4.14155e+06
735709
1.87989e+06
253245
253245
253245
253245
253245
253245
253245
253245
253245
253245
253245
253245
253245
253245
253539
366559
254023
255531
256388
262637
253316
253245
253245
253245
253245
253245
253245
253245
253245
253245
253245
253245
253245
253245
253245
253250
253732
253249
253278
253262
253389
253246
253245
253245
253245
253245
253245
253245
253245
253245
253245
253245
253245
253245
253245
253245
253245
253245
253245
253245
253245
253245
253245
253245
253245
253245
253245
253245
253245
253245
253245
253245
253245
253245
253245
253245
253245
253245
253245
253245
253245
253245
253245
253245
253245
253245
253245
253245
253245
253245
253245
253245
253245
253245
253245
253245
253245
253245
253245
253245
253245
253245
253245
253245
253245
253245
253245
253245
253245
253245
253245
253245
314635
2.2395e+06
547458
2.39554e+06
1.7128e+06
411110
367538
253245
253265
253255
253459
253253
253249
253640
254746
260696
257093
255995
268395
1.22589e+06
326023
256340
827679
285155
254859
253247
253245
253245
253292
253245
253246
253250
253598
253323
254041
253282
2.41626e+06
5.10175e+06
3.64481e+06
5.18862e+06
4.80506e+06
3.23582e+06
2.87084e+06
304893
277866
266870
345931
439927
990102
744796
570808
702340
2.04408e+06
1.38824e+06
264883
3.14034e+06
369289
301382
1.35107e+06
4.69567e+06
2.32433e+06
748177
4.06985e+06
2.14332e+06
436665
265551
253553
256174
254504
296557
267365
386000
257876
253245
253245
253245
253245
253245
253245
253245
253245
253245
253245
253245
253245
253245
253245
253245
253245
253245
253245
253245
253245
253245
253245
253245
253245
253245
253245
253245
253245
253245
253245
253245
253245
253245
253245
253245
253245
253245
253245
253245
253245
253245
253245
253245
253245
253245
253245
253245
253245
253245
253245
253245
253245
253245
253245
253245
253245
253251
257795
253445
253785
253347
253474
253261
253245
253245
253245
253245
253245
253245
253245
253245
253250
253247
253245
253246
253360
253255
253247
253271
253249
253245
253245
253245
253245
253245
253245
253245
253245
253245
253245
253245
253245
253254
253267
253335
253247
253330
253835
254398
253254
255716
253265
253286
253248
253245
253246
253246
253245
253245
253245
253245
253245
253245
253245
253245
253245
253245
253245
253245
253245
253245
253245
253245
253245
253245
253245
253245
253245
253245
253245
253245
253245
253245
253245
253245
253245
253245
253245
253245
253245
253245
253245
253245
253245
253245
253245
253245
253245
253245
253245
253245
253245
253245
253245
253245
253245
253245
253245
253245
253245
253245
253245
253245
253245
253249
253246
253251
253245
253246
253245
253245
253245
253245
253245
253245
253245
253245
253245
253245
253245
253245
253245
253246
253245
253245
253245
253245
253245
253245
253245
253245
253245
253245
253245
253245
253245
253245
253245
253245
253245
253245
253246
253245
253246
253252
253249
253245
253275
253245
253245
253249
253588
253261
253247
253357
253257
253246
253245
253245
253245
253245
253245
253245
253245
253245
253245
253245
253245
253245
253245
253245
253245
253245
253245
253245
253245
253245
253245
253245
253245
253245
253245
253245
253245
253245
253245
253245
253245
253245
253245
253245
253245
253245
253245
253245
253245
253245
253245
253245
253245
253245
253245
253245
253245
253245
253245
253245
253245
253245
253245
253245
253245
253245
253245
253245
253245
253245
253245
253245
253245
253245
253245
253245
253245
253245
253245
253245
253245
253245
253245
253245
253245
253245
253245
253245
253245
253245
253245
253245
253245
253245
253245
253245
253245
253245
253245
253245
253245
253245
253245
253245
253245
253245
253245
253245
253245
253245
253245
253247
253245
253245
253245
253245
253245
253245
253245
253245
253245
253245
253245
253245
253245
253245
253245
253245
253245
253245
253245
253245
253245
253245
253245
253245
253245
253245
253245
253245
253245
253245
253245
253245
253245
253245
253245
253245
253245
253245
253245
253245
253245
253245
253245
253245
253245
253245
253245
253245
253245
253245
253245
253245
253245
253245
253245
253245
253245
253245
253245
253245
253245
253245
253245
253245
253245
253245
253245
253245
253245
253245
253245
253245
253245
253245
253245
253245
253245
253245
253245
253245
253245
253245
253245
253245
253245
253245
253245
253245
253245
253245
253245
253245
253245
253245
253245
253245
253245
253245
253245
253245
253245
253245
253245
253245
253245
253245
253245
253245
253245
253245
253245
253245
253245
253245
253245
253245
253245
253245
253245
253245
253245
253245
253245
253245
253245
253245
253245
253245
253245
253245
253245
253245
253245
253245
253245
253245
253245
253245
253245
253245
253245
253245
253245
253245
253245
253245
253245
253245
253245
253245
253245
253245
253245
253245
253245
253245
253245
253245
253245
253245
253245
253245
253245
253245
253245
253245
253245
253245
253245
253245
253245
253245
253245
253245
253245
253245
253245
253245
253245
253245
253245
253245
253245
253245
253245
253245
253245
253245
253245
253245
253245
253245
253245
253245
253245
253245
253245
253245
253245
253245
253245
253245
253245
253245
253245
253245
253245
253245
253245
253245
253245
253245
253245
253245
253245
253245
253245
253245
253245
253245
253245
253245
253245
253245
253245
253245
253245
253245
253245
253245
253245
253245
253245
253245
253245
253245
253245
253245
253245
253245
253245
253245
253245
253245
253245
253245
253245
253245
253245
253245
253245
253245
253245
253245
253245
253245
253245
253245
253245
253245
253245
253245
253245
253245
253245
253245
253245
253245
253245
253245
253245
253245
253245
253245
253245
253245
253245
253245
253245
253245
253245
253245
253245
253245
253245
253245
253245
253245
253245
253245
253245
253245
253245
253245
253245
253245
253245
253245
253245
253245
253245
253245
253245
253245
253245
253245
253245
253245
253245
253245
253245
253245
253245
253245
253245
253245
253245
253245
253245
253245
253245
253245
253245
253245
253245
253245
253245
253245
253245
253245
253245
253245
253245
253245
253245
253245
253245
253245
253245
253245
253245
253245
253245
253245
253245
253245
253245
253245
253245
253245
253245
253245
253245
253245
253245
253245
253245
253245
253245
253245
253245
253245
253245
253245
253245
253245
253245
253245
253245
253245
253245
253245
253245
253245
253245
253245
253245
253245
253245
253245
253245
253245
253245
253245
253245
253245
253245
253245
253245
253245
253245
253245
253245
253245
253245
253245
253245
253245
253245
253245
253245
253245
253245
253245
253245
253245
253245
253245
253245
253245
253245
253245
253245
253245
253245
253245
253245
253245
253245
253245
253245
253245
253245
253245
253245
253245
253245
253245
253245
253245
253245
253245
253245
253245
253245
253245
253245
253245
253245
253245
253245
253245
253245
253245
253245
253245
253245
253245
253245
253245
253245
253245
253245
253245
253245
253245
253245
253245
253245
253245
253245
253245
253245
253245
253245
253245
253245
253245
253245
253245
253245
253245
253245
253245
253245
253245
253245
253245
253245
253245
253245
253245
253245
253245
253245
253245
253245
253245
253245
253245
253245
253245
253245
253245
253245
253245
253245
253245
253245
253245
253245
253245
253245
253245
253245
253245
253245
253245
253245
253245
253245
253245
253245
253245
253245
253245
253245
253245
253245
253245
253245
253245
253245
253245
253245
253245
253245
253245
253245
253245
253245
253245
253245
253245
253245
253245
253245
253245
253245
253245
253245
253245
253245
253245
253245
253245
253245
253245
253245
253245
253245
253245
253245
253245
253245
253245
253245
253245
253245
253245
253245
253245
253245
253245
253245
253245
253245
253245
253245
253245
253245
253245
253245
253245
253245
253245
253245
253245
4.11824e+06
4.85923e+06
2.45282e+06
272150
253246
253245
7.35478e+06
531402
5.41189e+06
9.38013e+06
314209
2.25389e+06
3.51545e+06
6.97409e+06
258579
534333
2.49599e+06
253260
254680
2.77449e+06
1.49863e+06
253247
253833
370969
253245
253250
1.37845e+06
2.34924e+06
254007
253245
253245
253245
253245
1.39208e+06
253743
253245
262236
254889
253263
253247
253358
253245
253245
253245
253245
253245
253245
253245
253245
253245
253245
253245
7.24862e+06
4.91458e+06
5.00806e+06
8.93962e+06
5.99215e+06
6.11067e+06
8.86243e+06
436995
751484
639145
2.62165e+06
2.51835e+06
2.18566e+06
2.74139e+06
8.00742e+06
5.415e+06
6.36091e+06
9.36989e+06
6.68385e+06
6.5635e+06
9.35367e+06
456648
302780
262054
2.27532e+06
573411
1.428e+06
1.43969e+06
9.05475e+06
4.83701e+06
6.24659e+06
3.63869e+06
5.42601e+06
7.27803e+06
3.08186e+06
253463
253817
253266
265218
277386
519979
253980
4.05098e+06
2.42022e+06
3.19852e+06
1.07251e+06
966097
1.48621e+06
548305
253250
253247
253246
253816
253261
253294
253418
995056
1.71298e+06
1.98569e+06
284643
644036
370026
394490
253245
253245
253245
253262
253251
253309
253247
851675
274460
435919
259090
257322
281873
253962
253245
253245
253245
253248
253245
253245
253245
264159
253363
255059
253249
253638
253308
253273
253245
253245
253245
253245
253245
253245
253245
253245
253245
253245
253245
253245
253245
253245
258716
276979
269306
259656
254518
253475
253250
253259
253246
253245
253245
253245
253245
253245
253245
253245
253245
253245
253245
253245
253245
253245
253245
253245
253245
253245
253245
7.46575e+06
6.26485e+06
5.5112e+06
5.12016e+06
6.22513e+06
5.17082e+06
7.5018e+06
7.41222e+06
4.29458e+06
5.25707e+06
1.92304e+06
6.19902e+06
4.12555e+06
6.10916e+06
623312
2.8061e+06
456051
271069
2.94367e+06
761312
262767
283675
256596
292472
253554
349921
254141
262906
254234
269381
253361
253417
256911
258178
253276
253432
253281
253388
253246
254271
253251
253268
253245
253259
253245
253245
253247
253246
253245
253245
253245
253245
253245
253245
253245
253245
253245
253245
253245
253245
253245
253245
253245
253245
253245
253245
253245
253245
253245
253245
253245
253245
253245
253245
253245
253245
253245
253245
253245
253245
253245
253245
253245
253245
253245
253245
253245
253245
253245
253245
253245
253245
253245
253245
253245
253245
253245
253245
253245
253245
253245
253245
253245
253245
253245
253245
253245
253245
253245
253245
253245
253245
253245
253245
253245
253245
253245
253245
253245
253245
253245
253245
253245
253245
253245
253245
253245
253245
253245
253245
253245
253245
253245
253245
253245
253245
253245
253245
253245
253245
253245
253245
253245
253245
253245
253245
253245
253245
253245
253245
253245
253245
253245
253245
253245
253245
253245
253245
253245
253245
253245
253245
253245
253245
253245
253247
253293
253245
253245
253245
253245
253245
253245
253245
253245
253245
253245
253245
253245
253245
253245
253287
253245
253251
253245
253245
253247
253245
253245
253245
253245
253245
253245
253245
253245
253245
253245
253245
253245
253245
253245
253245
253245
253245
253245
253245
253245
253245
253245
253245
253245
253245
253245
253245
253245
253245
253245
253245
253245
253245
253245
253245
253245
253245
253245
253245
253245
253245
7.93894e+06
4.45013e+06
2.5629e+06
2.13342e+06
2.62247e+06
1.46424e+06
2.33208e+06
2.84567e+06
273131
1.41696e+06
8.50669e+06
4.9668e+06
5.35976e+06
6.39625e+06
3.87692e+06
6.44633e+06
3.73776e+06
5.98437e+06
3.17157e+06
3.88871e+06
5.67639e+06
2.96942e+06
3.33446e+06
4.86757e+06
2.98526e+06
3.68903e+06
2.86434e+06
4.16428e+06
2.85648e+06
4.44761e+06
2.88755e+06
2.23466e+06
801143
1.99109e+06
3.71213e+06
2.69447e+06
2.92517e+06
2.72938e+06
540874
256405
305043
337175
1.91232e+06
1.17099e+06
693974
253245
253245
253245
253245
253245
253245
253245
253245
253245
253245
253245
253292
394860
253245
253245
253245
253245
254303
253252
253405
257113
254300
278341
253405
253245
253245
253245
253276
253247
253245
253245
253285
253245
2.65377e+06
2.7527e+06
2.95244e+06
3.39328e+06
2.80629e+06
2.34337e+06
2.43211e+06
2.65468e+06
2.79964e+06
2.83507e+06
1.9003e+06
2.01641e+06
2.23912e+06
3.26426e+06
2.66424e+06
2.93841e+06
2.78773e+06
3.19459e+06
2.63045e+06
2.53799e+06
2.87471e+06
2.815e+06
2.95078e+06
2.63952e+06
2.29888e+06
2.54828e+06
2.67521e+06
2.65091e+06
2.76756e+06
2.57756e+06
2.91011e+06
2.69879e+06
2.86176e+06
2.46972e+06
1.74619e+06
1.8152e+06
2.31183e+06
1.91572e+06
1.7024e+06
2.52637e+06
2.33044e+06
2.19042e+06
2.11894e+06
1.5146e+06
1.57507e+06
1.50912e+06
2.27024e+06
2.53822e+06
3.35092e+06
2.53592e+06
3.38868e+06
2.47376e+06
3.37553e+06
3.35345e+06
3.17137e+06
1.88734e+06
2.83806e+06
1.6541e+06
2.1378e+06
2.42982e+06
2.08545e+06
1.59498e+06
2.16465e+06
1.81328e+06
2.89847e+06
2.98904e+06
2.43382e+06
3.84522e+06
3.01828e+06
2.91074e+06
2.92783e+06
2.9762e+06
2.12907e+06
1.30144e+06
3.13453e+06
2.95987e+06
2.61192e+06
253245
253245
607143
253245
253418
253246
253246
253270
253245
253502
253252
253253
2.0891e+06
314116
1.19442e+06
6.11076e+06
7.62979e+06
3.55092e+06
3.02197e+06
6.07118e+06
4.10142e+06
4.15582e+06
5.31555e+06
3.57255e+06
3.62389e+06
5.30846e+06
6.37362e+06
4.25588e+06
4.92242e+06
5.30692e+06
3.7758e+06
3.55963e+06
5.87846e+06
4.51473e+06
3.1107e+06
3.1113e+06
4.52725e+06
4.38321e+06
3.02498e+06
3.0185e+06
4.58785e+06
4.39237e+06
2.88661e+06
4.64199e+06
2.63886e+06
3.91844e+06
2.11568e+06
2.33007e+06
3.52851e+06
3.632e+06
2.11024e+06
3.46918e+06
2.26508e+06
3.91366e+06
2.61127e+06
2.26822e+06
2.00421e+06
1.9206e+06
2.50878e+06
2.49794e+06
2.10657e+06
2.07056e+06
2.12942e+06
1.82301e+06
1.62587e+06
1.49416e+06
1.32356e+06
1.67152e+06
1.48948e+06
1.84259e+06
2.31853e+06
2.01698e+06
1.68375e+06
2.43036e+06
2.00706e+06
1.85241e+06
1.69789e+06
1.36254e+06
1.44176e+06
1.12068e+06
1.17519e+06
1.31522e+06
1.23465e+06
1.58237e+06
1.46374e+06
1.37229e+06
1.18741e+06
1.11991e+06
1.2388e+06
1.31727e+06
3.74941e+06
3.36833e+06
3.42649e+06
3.88784e+06
3.90339e+06
3.60403e+06
3.51729e+06
3.15637e+06
3.1763e+06
3.58177e+06
2.70785e+06
2.7055e+06
3.01647e+06
3.04668e+06
3.49706e+06
2.57608e+06
2.90968e+06
3.73067e+06
3.05536e+06
2.45453e+06
2.92526e+06
3.76491e+06
4.14546e+06
3.39476e+06
4.11408e+06
3.63852e+06
4.7051e+06
4.57481e+06
3.71491e+06
3.4322e+06
3.59855e+06
3.94989e+06
4.50599e+06
4.27245e+06
3.69891e+06
2.7885e+06
3.81213e+06
3.0155e+06
2.28779e+06
2.0699e+06
2.84667e+06
3.57402e+06
2.29603e+06
1.74691e+06
1.85076e+06
2.42383e+06
2.58124e+06
2.73675e+06
3.06046e+06
3.6581e+06
3.81718e+06
3.8209e+06
3.99717e+06
3.97947e+06
3.92173e+06
3.91414e+06
3.08246e+06
2.9241e+06
3.35911e+06
3.02282e+06
3.38807e+06
2.95831e+06
2.75401e+06
1.99219e+06
1.59303e+06
2.13715e+06
1.68083e+06
1.33444e+06
1.81593e+06
1.48428e+06
253245
253245
253245
253245
253245
253245
253245
253245
253245
253245
253245
253245
253245
253245
253793
253521
253407
254105
253434
253251
253290
253277
253245
253245
253247
253245
253245
253245
253245
253245
253245
253245
253245
253245
253245
253245
253245
253245
253245
253245
253245
253245
253245
253245
253245
253245
253245
253245
253245
253245
253245
253245
253245
253245
253245
253245
253245
253245
253245
253245
253245
253245
253245
253245
253245
253245
253245
253245
253245
253245
253245
253245
253245
253245
253245
253245
253245
253245
253245
253245
253245
253245
3.75229e+06
3.51793e+06
3.72427e+06
4.01758e+06
4.01306e+06
4.62958e+06
4.70556e+06
3.55438e+06
3.8674e+06
4.11562e+06
3.63251e+06
4.76005e+06
4.73827e+06
3.99202e+06
2.15016e+06
1.95187e+06
1.77339e+06
2.54088e+06
2.4075e+06
2.65017e+06
2.63649e+06
2.69707e+06
2.7431e+06
2.52072e+06
2.70447e+06
2.75903e+06
2.63534e+06
2.72022e+06
2.81214e+06
2.80676e+06
3.26603e+06
2.80476e+06
3.11525e+06
3.06128e+06
2.57139e+06
4.13771e+06
4.19446e+06
4.87488e+06
4.40905e+06
4.54808e+06
3.91953e+06
3.81708e+06
3.53827e+06
3.55809e+06
4.15496e+06
3.91418e+06
3.96131e+06
4.76137e+06
4.82959e+06
4.23534e+06
4.8437e+06
3.94353e+06
4.21823e+06
4.90218e+06
5.12111e+06
5.4163e+06
2.7188e+06
2.28676e+06
2.55181e+06
2.63904e+06
2.67896e+06
2.27782e+06
1.90902e+06
5.26333e+06
5.26345e+06
5.2153e+06
5.00481e+06
5.21461e+06
5.08861e+06
4.26122e+06
4.2891e+06
4.34252e+06
5.05229e+06
4.35499e+06
4.41527e+06
5.08844e+06
5.10253e+06
4.15998e+06
3.78649e+06
4.10343e+06
4.71623e+06
3.7596e+06
4.7822e+06
3.40322e+06
2.84661e+06
2.6971e+06
2.96315e+06
2.09616e+06
2.92622e+06
2.80499e+06
2.48504e+06
4.03299e+06
4.97556e+06
3.9858e+06
2.15999e+06
4.21061e+06
2.50032e+06
4.98579e+06
3.13372e+06
2.66397e+06
3.13969e+06
2.72592e+06
2.21343e+06
2.22225e+06
1.67033e+06
2.64283e+06
2.77877e+06
2.32267e+06
2.57778e+06
2.70774e+06
2.16716e+06
2.59309e+06
2.77271e+06
2.9589e+06
2.42519e+06
1.19286e+06
826615
1.4613e+06
1.03961e+06
5.33975e+06
4.81387e+06
5.29258e+06
5.0034e+06
5.19001e+06
4.55406e+06
5.23603e+06
4.63364e+06
5.32311e+06
5.3306e+06
5.31722e+06
5.10604e+06
5.18555e+06
5.12947e+06
2.84267e+06
1.66085e+06
1.34906e+06
2.8446e+06
2.15332e+06
2.37582e+06
2.89045e+06
4.81602e+06
3.4851e+06
4.48733e+06
3.02045e+06
985590
2.7281e+06
1.59584e+06
2.42093e+06
1.9003e+06
1.4031e+06
369268
497606
812732
563609
2.60815e+06
2.10133e+06
2.39854e+06
1.85282e+06
1.39249e+06
1.25578e+06
794176
1.85889e+06
2.07776e+06
1.6302e+06
365799
571440
727576
453718
5.03708e+06
3.88715e+06
5.44308e+06
4.60829e+06
4.96461e+06
3.03503e+06
4.99092e+06
945581
2.70851e+06
1.78533e+06
1.93223e+06
2.47969e+06
1.30361e+06
583747
253245
253245
253245
253245
253245
253245
253245
253245
253245
253245
253245
253245
253245
253245
253245
253245
253245
253245
253245
253245
253245
253245
253245
253245
253245
253245
253245
253245
253245
253245
253261
253246
253253
253245
253245
253249
253272
253250
253245
253245
253245
253245
253246
253246
253245
253245
253245
253245
253245
253245
253245
253245
253245
253245
253245
253245
253245
253245
253245
253245
253245
253245
253245
253245
253245
253245
253245
253245
253245
253245
253245
253245
253245
253245
253245
253245
253245
253245
253245
253245
253245
253245
253245
253245
253245
253245
253245
253245
253245
253245
253245
253245
253245
253245
253245
253245
253245
253245
253245
253245
253245
253245
253245
253245
253245
253245
253245
253245
253245
253245
253245
253245
253245
253245
253245
253245
253245
253245
253245
253245
253245
253245
253245
253245
253245
253245
253245
253245
253245
253245
253245
253245
253245
253245
253245
253245
253245
253245
253245
253245
253245
253245
253245
253245
253245
253245
253245
253245
253245
253245
253245
253245
253245
253245
253245
253245
253245
253245
253245
253245
253245
253245
253245
253245
253245
253245
253245
253245
253245
253245
253245
253245
253245
253245
253245
253245
253245
253245
253245
253245
253245
253245
253245
253245
253245
253245
253245
253245
253245
253245
253245
253245
253245
253245
253245
253245
253245
253245
253245
253245
253245
253245
253245
253245
253245
253245
253245
253245
253245
253245
253245
253245
253245
253245
253245
253245
253245
253245
253245
253245
253245
253245
253245
253245
253245
253245
253245
253245
253245
253245
253245
253245
253245
253245
253245
253245
253245
253245
253245
253245
253245
253245
253245
253245
253245
253245
253245
253245
253245
253245
253245
253245
253245
253245
253245
253245
253245
253245
253245
253245
253245
253245
253245
253245
253245
253245
253245
253245
253245
253245
253245
253245
253245
253245
253245
253245
253245