/*--------------------------------*- C++ -*----------------------------------*\
  =========                 |
  \\      /  F ield         | OpenFOAM: The Open Source CFD Toolbox
   \\    /   O peration     | Website:  https://openfoam.org
    \\  /    A nd           | Version:  9
     \\/     M anipulation  |
\*---------------------------------------------------------------------------*/
FoamFile
{
    format      ascii;
    class       volScalarField;
    location    "0.0002";
    object      alpha.c4;
}
// * * * * * * * * * * * * * * * * * * * * * * * * * * * * * * * * * * * * * //

dimensions      [0 0 0 0 0 0 0];

internalField   nonuniform List<scalar> 
2273
(
4.76351e-15
6.28829e-19
2.63323e-21
1.91428e-12
3.92762e-18
1.63826e-20
6.81488e-15
9.6859e-19
3.69732e-21
1.3423e-15
2.45214e-18
1.29767e-20
4.62528e-23
2.3277e-18
1.82142e-20
9.4051e-23
3.27038e-25
1.13619e-20
9.42858e-23
4.63133e-25
1.58432e-27
2.98118e-21
4.63184e-23
3.58024e-25
1.69543e-27
5.79454e-30
9.75488e-24
1.44407e-25
1.0607e-27
4.95784e-30
1.73608e-32
3.03186e-17
7.63587e-20
1.82676e-22
8.90953e-17
2.51236e-19
8.05064e-22
4.54468e-18
1.66398e-20
7.411e-23
4.18435e-17
1.11121e-19
3.88525e-22
1.35906e-24
1.54451e-19
7.51131e-22
3.29271e-24
1.18803e-26
6.1073e-22
3.91509e-24
1.84616e-26
6.73301e-29
2.01937e-22
2.31741e-24
1.59564e-26
7.64336e-29
2.82986e-31
6.14302e-25
7.4223e-27
5.19199e-29
2.52833e-31
9.68845e-34
3.13304e-17
1.33293e-19
4.29326e-22
1.45199e-24
1.60125e-16
5.74758e-19
1.8749e-21
6.61551e-24
6.16046e-18
3.00616e-20
1.4496e-22
6.15162e-25
1.36967e-19
6.57494e-22
2.92561e-24
1.11852e-26
9.25423e-22
5.66293e-24
2.68483e-26
1.01683e-28
4.85933e-24
3.25846e-26
1.57722e-28
6.00842e-31
1.7502e-24
2.00642e-26
1.38679e-28
6.82735e-31
2.66775e-33
5.57581e-27
6.65251e-29
4.7109e-31
2.39263e-33
9.79118e-36
7.68258e-20
4.50991e-22
2.13037e-24
9.24824e-27
3.65497e-19
1.92067e-21
8.60665e-24
3.75993e-26
2.30701e-20
1.61813e-22
8.66913e-25
3.74556e-27
5.04859e-22
3.24384e-24
1.60406e-26
6.3949e-29
4.41148e-24
2.97468e-26
1.46831e-28
5.77014e-31
2.53317e-26
1.75287e-28
8.7513e-31
3.49384e-33
9.15377e-27
1.0789e-28
7.65316e-31
3.92865e-33
1.6311e-35
3.01618e-29
3.69861e-31
2.71766e-33
1.45935e-35
6.40376e-38
1.80332e-24
1.27092e-26
6.5578e-29
2.70955e-31
1.64739e-26
1.16041e-28
5.94125e-31
2.44671e-33
9.67959e-29
6.94023e-31
3.62569e-33
1.53724e-35
3.46605e-29
4.25057e-31
3.14786e-33
1.71195e-35
7.61834e-38
1.20112e-31
1.53353e-33
1.1876e-35
6.80796e-38
3.20089e-40
5.40613e-27
3.98062e-29
2.13663e-31
9.2403e-34
4.9345e-29
3.62355e-31
1.94814e-33
8.51296e-36
2.97098e-31
2.23498e-33
1.23941e-35
5.62438e-38
1.0679e-31
1.36995e-33
1.07259e-35
6.2307e-38
2.966e-40
3.97808e-34
5.29794e-36
4.3473e-38
2.65398e-40
1.32125e-42
1.36793e-29
1.05195e-31
5.92936e-34
2.70518e-36
1.25847e-31
9.72606e-34
5.55051e-36
2.58445e-38
7.90817e-34
6.3004e-36
3.72758e-38
1.80236e-40
2.90655e-34
3.89533e-36
3.23218e-38
1.99576e-40
1.00278e-42
1.17758e-36
1.62542e-38
1.40336e-40
9.00032e-43
4.66148e-45
2.36765e-36
1.43521e-38
7.06907e-41
1.92863e-36
1.62569e-38
1.01826e-40
5.17064e-43
7.34403e-37
1.01947e-38
8.88112e-41
5.74201e-43
2.99165e-45
3.2191e-39
4.54809e-41
4.06989e-43
2.69473e-45
1.42842e-47
4.43032e-39
3.90499e-41
2.54868e-43
1.33621e-45
1.75427e-39
2.48787e-41
2.2395e-43
1.4902e-45
7.92693e-48
8.15913e-42
1.1646e-43
1.06345e-45
7.1631e-48
3.84064e-50
9.63503e-42
8.73864e-44
5.84733e-46
3.12094e-48
3.94905e-42
5.64752e-44
5.17469e-46
3.49549e-48
1.87798e-50
1.90537e-44
2.72216e-46
2.50748e-48
1.70123e-50
9.1589e-53
2.46773e-22
1.75858e-24
9.97031e-27
4.6778e-29
8.45369e-22
6.04799e-24
3.49931e-26
1.7315e-28
8.98584e-23
6.86399e-25
3.8054e-27
1.6769e-29
8.259e-25
6.48361e-27
3.89156e-29
1.85528e-31
2.2607e-24
1.94551e-26
1.26725e-28
6.5398e-31
2.91409e-25
2.29444e-27
1.30553e-29
5.90916e-32
2.45697e-27
2.03455e-29
1.24375e-31
5.94736e-34
6.28878e-27
5.8329e-29
3.93783e-31
2.04505e-33
7.81704e-28
6.33542e-30
3.72219e-32
1.74101e-34
6.32904e-30
5.40715e-32
3.33349e-34
1.59943e-36
1.61523e-29
1.53902e-31
1.0444e-33
5.39701e-36
1.8087e-30
1.51822e-32
9.24908e-35
4.47575e-37
3.06113e-32
2.47476e-34
1.47237e-36
7.08152e-39
2.895e-34
1.42757e-32
1.24319e-34
7.72304e-37
3.73477e-39
3.68418e-32
3.54229e-34
2.39334e-36
1.22762e-38
3.76432e-33
3.2783e-35
2.06763e-37
1.03142e-39
6.33027e-35
5.38169e-37
3.36553e-39
1.69144e-41
6.25222e-37
5.38442e-39
3.4312e-41
1.76198e-43
2.87716e-35
2.54093e-37
1.59535e-39
7.82189e-42
7.47123e-35
7.19019e-37
4.82457e-39
2.45832e-41
7.27143e-36
6.53783e-38
4.2425e-40
2.16849e-42
1.24451e-37
1.10302e-39
7.1692e-42
3.71869e-44
1.29031e-39
1.15448e-41
7.61513e-44
4.01572e-46
2.06422e-24
7.05357e-23
7.71373e-22
1.26924e-25
6.46016e-24
9.25507e-23
9.3195e-28
5.28308e-26
8.93906e-25
4.41491e-30
2.65478e-28
4.56089e-27
1.71593e-32
1.04731e-30
1.62466e-29
1.45316e-29
5.89912e-35
3.56657e-33
4.74332e-32
3.42438e-32
1.81593e-37
1.08463e-35
1.25397e-34
7.66468e-35
5.00142e-40
2.97498e-38
3.14999e-37
1.68071e-37
1.23559e-42
7.3927e-41
7.58956e-40
3.60874e-40
2.76139e-45
1.67562e-43
1.74126e-42
2.58219e-17
2.31434e-17
2.38953e-19
1.72639e-19
3.63321e-22
6.6752e-18
1.6252e-18
2.99364e-20
7.14013e-21
2.15558e-23
2.57471e-18
8.0073e-20
1.62243e-20
3.10933e-22
6.47445e-23
1.88837e-25
1.57455e-18
4.98102e-20
1.46117e-20
4.30098e-22
8.22339e-23
1.59617e-24
3.14464e-25
9.30661e-28
1.82144e-18
2.36408e-20
1.75887e-18
5.56213e-20
4.03261e-19
7.08254e-21
5.67647e-21
1.57442e-22
2.71129e-22
5.05509e-23
1.45422e-24
2.75844e-25
5.43702e-27
1.0735e-27
3.42185e-30
5.96185e-21
7.8473e-23
7.92281e-21
1.61802e-22
8.83198e-22
2.23265e-23
1.46322e-23
4.45192e-25
6.79046e-25
1.31021e-25
3.6975e-27
7.30526e-28
3.06039e-30
1.10231e-32
1.35116e-23
2.11109e-25
2.38701e-23
4.55554e-25
1.77889e-24
5.81529e-26
3.17693e-26
1.07743e-27
1.40152e-27
2.90491e-28
7.98589e-30
1.73249e-30
8.14129e-33
3.34592e-35
2.47387e-26
4.91499e-28
5.4928e-26
1.13177e-27
3.56585e-27
1.30544e-28
6.33849e-29
2.30792e-30
2.61026e-30
6.06195e-31
2.17752e-32
1.60292e-32
3.99195e-33
2.11237e-35
9.60418e-38
4.05211e-29
1.03075e-30
1.04732e-28
2.47073e-30
6.93438e-30
2.63064e-31
1.22955e-31
4.57703e-33
4.69019e-33
1.25822e-33
4.5152e-35
3.15992e-35
9.14029e-36
5.28244e-38
2.55227e-40
6.37947e-32
1.986e-33
1.75874e-31
4.83113e-33
1.29895e-32
4.93691e-34
2.3779e-34
8.70507e-36
8.45357e-36
2.61082e-36
9.06283e-38
6.23158e-38
2.0387e-38
1.24192e-40
6.19201e-43
6.54248e-19
6.31948e-20
1.00632e-19
4.53293e-22
4.09417e-22
2.23546e-24
1.42835e-24
8.17615e-27
4.07643e-27
2.39776e-29
9.91814e-30
6.08803e-32
1.42153e-34
3.16012e-37
6.74928e-40
6.22299e-38
5.12963e-39
6.41071e-41
4.84673e-43
2.63353e-45
1.12128e-47
3.94188e-50
1.18469e-52
3.11797e-55
7.32441e-58
1.33098e-40
1.04637e-41
1.31866e-43
1.00898e-45
5.54621e-48
2.38835e-50
8.49095e-53
1.68909e-55
2.5793e-55
5.18373e-58
6.85392e-58
1.38962e-60
1.62305e-60
3.31361e-63
3.03769e-27
2.52853e-28
2.20069e-30
1.23996e-32
5.54907e-35
2.09377e-37
6.63736e-40
6.8041e-40
2.22752e-42
1.93184e-42
6.44949e-45
4.85848e-45
1.64383e-47
1.09854e-47
3.75519e-50
5.49363e-30
1.18642e-32
5.13208e-31
1.09415e-33
5.23906e-33
1.25148e-35
3.38595e-35
8.82124e-38
1.66363e-37
4.57487e-40
1.88476e-42
6.45386e-45
1.89546e-47
4.88637e-50
1.12715e-52
2.73945e-35
2.39094e-36
2.90998e-38
2.14945e-40
1.14825e-42
4.82321e-45
1.67543e-47
4.97979e-50
1.29741e-52
3.02091e-55
3.975e-37
1.30676e-39
3.89951e-42
1.0589e-44
2.62014e-47
6.26238e-25
2.55666e-26
3.64002e-28
2.61003e-30
1.24034e-32
4.59708e-35
5.03452e-26
1.61151e-27
1.99406e-29
1.41985e-31
7.15957e-34
2.90151e-36
4.50708e-28
1.50308e-29
1.86159e-31
1.36559e-33
7.28138e-36
3.16798e-38
2.38717e-30
8.5327e-32
1.09117e-33
8.40298e-36
4.77586e-38
2.22582e-40
9.94303e-33
3.65227e-34
4.85637e-36
3.95651e-38
2.3952e-40
1.18357e-42
3.68364e-35
1.31855e-36
1.8158e-38
1.55767e-40
9.92476e-43
5.11321e-45
1.16471e-37
4.01888e-39
5.67167e-41
5.0372e-43
3.30954e-45
1.74332e-47
1.2487e-37
4.24136e-39
5.9833e-41
5.33028e-43
3.51419e-45
1.85662e-47
4.24469e-40
1.38442e-41
1.9771e-43
1.79764e-45
1.20528e-47
6.43705e-50
3.83461e-40
1.23684e-41
1.76475e-43
1.60738e-45
1.07999e-47
5.77887e-50
1.35408e-42
4.22227e-44
6.04253e-46
5.55485e-48
3.75889e-50
2.01848e-52
1.05547e-42
3.26632e-44
4.66836e-46
4.2948e-48
2.90971e-50
1.56444e-52
3.79284e-45
1.14255e-46
1.62907e-48
1.50191e-50
1.01874e-52
5.4734e-55
2.60188e-45
7.79569e-47
1.10998e-48
1.02354e-50
6.94769e-53
3.73631e-55
9.40887e-48
2.75643e-49
3.90495e-51
3.59398e-53
2.43426e-55
1.305e-57
4.02489e-27
6.72711e-31
4.47386e-28
6.26118e-32
4.37423e-30
7.29515e-34
2.49872e-32
5.17628e-36
1.08055e-34
2.69829e-38
1.12244e-40
3.90465e-43
1.17127e-45
3.0949e-48
7.32825e-51
1.12004e-27
5.70555e-29
7.86463e-31
5.67689e-33
2.83732e-35
1.14582e-37
1.01917e-28
3.68632e-30
4.67959e-32
3.44887e-34
1.83705e-36
7.98464e-39
9.73378e-31
3.5959e-32
4.63574e-34
3.56865e-36
2.02131e-38
9.38188e-41
5.82342e-33
2.18998e-34
2.91956e-36
2.3708e-38
1.42793e-40
7.0201e-43
2.79839e-35
1.02196e-36
1.40821e-38
1.20326e-40
7.62995e-43
3.91412e-45
8.97067e-30
8.53542e-31
8.79239e-33
5.53444e-35
2.66734e-37
1.07959e-39
3.8144e-42
1.19541e-44
3.3467e-47
8.42476e-50
2.19631e-30
1.13476e-31
1.5446e-33
1.15956e-35
6.26388e-38
2.78202e-40
1.9541e-31
7.67115e-33
1.00654e-34
7.80349e-37
4.44126e-39
2.07019e-41
2.0681e-33
8.00189e-35
1.07434e-36
8.73649e-39
5.25867e-41
2.58135e-43
1.42142e-35
5.30337e-37
7.33219e-39
6.25781e-41
3.95798e-43
2.02466e-45
7.68692e-38
2.69704e-39
3.81431e-41
3.38243e-43
2.21696e-45
1.16495e-47
3.44895e-40
1.13854e-41
1.62923e-43
1.47997e-45
9.90662e-48
5.28179e-50
1.30822e-42
4.11406e-44
5.89988e-46
5.42225e-48
3.66566e-50
1.96612e-52
4.25164e-45
1.28874e-46
1.8411e-48
1.69759e-50
1.15082e-52
6.17762e-55
1.19909e-47
3.53003e-49
5.00936e-51
4.61155e-53
3.1222e-55
1.67252e-57
2.97608e-50
8.54751e-52
1.2035e-53
1.10337e-55
7.4445e-58
3.97355e-60
1.597e-33
1.3816e-34
1.69644e-36
1.2628e-38
6.81935e-41
2.91073e-43
1.03265e-45
3.14624e-48
8.417e-51
2.01204e-53
2.06339e-32
1.63954e-33
1.78897e-35
1.23171e-37
6.46426e-40
2.79813e-42
1.03655e-44
3.34896e-47
9.54307e-50
2.42313e-52
4.54264e-33
2.11901e-34
2.91496e-36
2.32928e-38
1.36858e-40
6.58666e-43
3.80146e-34
1.51773e-35
2.06626e-37
1.69656e-39
1.0292e-41
5.08028e-44
4.50491e-36
1.71382e-37
2.38468e-39
2.0408e-41
1.29187e-43
6.6053e-46
3.46549e-38
1.23506e-39
1.75339e-41
1.55542e-43
1.01844e-45
5.34298e-48
2.01975e-40
6.74611e-42
9.68286e-44
8.79577e-46
5.88155e-48
3.13128e-50
9.43779e-43
2.9932e-44
4.30434e-46
3.95675e-48
2.67308e-50
1.43221e-52
3.64909e-45
1.11311e-46
1.59412e-48
1.47046e-50
9.96445e-53
5.3446e-55
1.19452e-47
3.53436e-49
5.02582e-51
4.62878e-53
3.13294e-55
1.67709e-57
3.37121e-50
9.7236e-52
1.37135e-53
1.25771e-55
8.48328e-58
4.52484e-60
8.34303e-53
2.35311e-54
3.29043e-56
3.00124e-58
2.01504e-60
1.07006e-62
3.74405e-36
4.71626e-35
9.53111e-36
3.00676e-37
3.25382e-36
7.67976e-37
3.76984e-39
3.70959e-38
9.94919e-39
2.87765e-41
2.72505e-40
8.20571e-41
1.58747e-43
1.51444e-42
4.97523e-43
6.89777e-46
6.84401e-45
2.36952e-45
2.48453e-48
2.61028e-47
9.2291e-48
7.66666e-51
8.58324e-50
3.02355e-50
2.07203e-53
2.46776e-52
8.50892e-53
4.99093e-56
6.28404e-55
2.0956e-55
3.88891e-37
5.48488e-39
4.67691e-41
2.9423e-43
1.49498e-45
8.26707e-39
1.68574e-41
2.94301e-38
4.14137e-40
3.58048e-42
2.28403e-44
1.17303e-46
6.25409e-40
1.22154e-42
3.58423e-40
5.11761e-42
4.5542e-44
2.98572e-46
1.566e-48
7.87928e-42
1.53814e-44
2.76752e-42
3.98838e-44
3.62732e-46
2.42501e-48
1.28973e-50
6.09601e-44
1.20062e-46
1.5897e-44
2.29385e-46
2.11029e-48
1.42516e-50
7.62868e-53
3.41179e-46
6.79781e-49
7.26953e-47
1.04413e-48
9.63841e-51
6.52975e-53
3.49969e-55
1.50318e-48
3.03083e-51
2.74365e-49
3.91078e-51
3.60417e-53
2.43898e-55
1.30476e-57
5.48285e-51
1.11752e-53
8.7565e-52
1.23727e-53
1.13532e-55
7.65604e-58
4.08098e-60
1.70999e-53
3.51645e-56
2.40854e-54
3.37278e-56
3.07734e-58
2.0655e-60
1.09609e-62
4.66005e-56
9.64581e-59
5.81152e-57
8.06566e-59
7.3133e-61
4.88308e-63
2.57879e-65
1.12903e-58
2.34667e-61
1.03381e-37
1.97463e-38
7.1598e-40
1.03519e-41
9.27606e-44
6.09991e-46
3.19688e-48
2.12789e-40
3.94449e-41
1.31144e-42
1.92573e-44
6.54499e-39
1.57385e-39
5.64118e-41
8.1236e-43
7.29295e-45
4.80979e-47
2.52949e-49
1.28942e-41
3.15233e-42
1.05895e-43
1.54306e-45
7.66067e-41
2.15239e-41
7.29375e-43
1.05639e-44
9.63663e-47
6.44998e-49
3.42933e-51
1.53303e-43
5.86136e-43
1.84023e-43
5.91117e-45
8.56366e-47
7.89047e-49
5.32946e-51
2.85065e-53
1.20309e-45
3.37625e-45
1.13622e-45
3.50153e-47
5.04625e-49
4.66331e-51
3.15912e-53
1.69197e-55
7.08677e-48
1.56661e-47
5.45045e-48
1.62668e-49
2.32497e-51
2.14453e-53
1.4511e-55
7.75794e-58
3.34077e-50
6.07713e-50
2.12474e-50
6.17552e-52
8.74423e-54
1.30779e-52
2.0165e-52
6.94165e-53
1.97136e-54
2.76492e-56
4.355e-55
5.81608e-55
1.94413e-55
5.40738e-57
7.51346e-59
1.25549e-57
1.47976e-57
4.75983e-58
1.2992e-59
1.78873e-61
3.18403e-60
8.0288e-56
5.41346e-58
2.88385e-60
2.52376e-58
1.69353e-60
8.98125e-63
6.81394e-61
4.54798e-63
2.4001e-65
1.61147e-63
1.06965e-65
5.61661e-68
1.44199e-25
1.84372e-24
1.38191e-26
2.19977e-25
1.28469e-28
2.09553e-27
7.43821e-31
1.10923e-29
3.32892e-33
4.2982e-32
1.24731e-35
1.40751e-34
3.93328e-38
4.04568e-38
4.18854e-37
1.33072e-40
1.1564e-40
1.16167e-39
3.91193e-43
2.95105e-43
3.00528e-42
1.01804e-45
6.8095e-46
7.2202e-45
2.38274e-48
2.99358e-28
2.89854e-29
3.06854e-31
2.0044e-33
9.84517e-36
2.63379e-43
1.99751e-44
2.52121e-46
1.94435e-48
1.07945e-50
4.69924e-53
6.54473e-40
5.14815e-41
6.36683e-43
4.77816e-45
2.57437e-47
1.08514e-49
3.77216e-52
1.12032e-54
2.91404e-57
6.76999e-60
1.36421e-42
1.0436e-43
1.30084e-45
9.85986e-48
5.36475e-50
2.28453e-52
8.02687e-55
1.57829e-57
2.4098e-57
4.7902e-60
6.33243e-60
1.2712e-62
1.48455e-62
3.00484e-65
2.48773e-29
2.07452e-30
1.91285e-32
1.14192e-34
5.32485e-37
2.05523e-39
6.55576e-42
6.73874e-42
2.19825e-44
1.9134e-44
6.32762e-47
4.78643e-47
1.59846e-49
1.07307e-49
3.61314e-52
5.40811e-32
1.25712e-34
4.63062e-33
1.05541e-35
4.89042e-35
1.21894e-37
3.26133e-37
8.68127e-40
1.63186e-39
4.51826e-42
1.85708e-44
6.31765e-47
1.83827e-49
4.68759e-52
1.0689e-54
2.93134e-37
2.38202e-38
2.88481e-40
2.12713e-42
1.13123e-44
4.71656e-47
1.62259e-49
4.76932e-52
1.22805e-54
2.82636e-57
7.26621e-24
1.29229e-26
4.10311e-25
9.44204e-28
2.79641e-27
7.42237e-30
1.19961e-29
3.79179e-32
4.25978e-32
1.57694e-34
1.37292e-34
5.67753e-37
4.06104e-37
1.79179e-39
1.09156e-39
4.98371e-42
2.65132e-42
1.23183e-44
5.84122e-45
2.73926e-47
2.6295e-45
1.96788e-46
2.46049e-48
1.87902e-50
1.03205e-52
4.44199e-55
3.58753e-21
7.90951e-19
1.46229e-17
1.45698e-21
3.24994e-20
1.51081e-22
2.16523e-20
8.00804e-19
5.90451e-23
2.6553e-21
9.47925e-25
1.30884e-22
6.14346e-21
3.77878e-25
2.00055e-23
3.48195e-27
4.64742e-25
2.52471e-23
1.5129e-27
8.84391e-26
1.15459e-20
1.27633e-18
4.19719e-20
4.19374e-18
2.2012e-21
1.00304e-19
3.08129e-25
3.77829e-23
1.75371e-21
2.11746e-27
2.73411e-25
1.48543e-23
1.03543e-29
1.2884e-27
7.64204e-26
4.94443e-30
3.02933e-28
3.09494e-23
2.67791e-21
1.0642e-22
7.55784e-21
4.75943e-24
2.19122e-22
6.28755e-28
7.52525e-26
3.90227e-24
4.96097e-30
5.94349e-28
3.47762e-26
2.8687e-32
3.26774e-30
2.00535e-28
1.48152e-32
9.10534e-31
6.94493e-26
4.88393e-24
2.22794e-25
1.18885e-23
9.34429e-27
4.34659e-25
1.29466e-30
1.43001e-28
7.84214e-27
1.16145e-32
1.27037e-30
7.601e-29
7.67156e-35
8.10934e-33
4.94485e-31
4.17607e-35
2.52396e-33
1.38097e-28
8.52676e-27
4.10056e-28
1.94468e-26
1.79103e-29
8.55304e-28
2.74456e-33
2.79162e-31
1.55541e-29
2.71409e-35
2.76434e-33
1.63521e-31
1.94916e-37
1.96545e-35
1.17379e-33
1.09447e-37
6.5145e-36
2.53315e-31
1.4341e-29
6.88289e-31
3.25561e-29
3.41629e-32
1.67761e-30
5.83943e-36
5.6109e-34
3.1077e-32
6.13466e-38
5.99122e-36
3.4745e-34
4.60383e-40
4.53351e-38
2.66497e-36
2.63256e-40
1.55902e-38
4.4611e-34
2.35485e-32
1.0978e-33
5.3372e-32
6.47864e-35
3.23967e-33
1.20802e-38
1.12504e-36
6.16959e-35
1.30854e-40
1.2526e-38
7.17166e-37
1.00141e-42
9.7749e-41
5.72006e-39
5.79679e-43
3.452e-41
1.11007e-17
1.34444e-17
2.06886e-18
2.9452e-20
4.20279e-20
5.81217e-20
4.36548e-21
7.34017e-23
1.04589e-22
1.70776e-22
8.41961e-24
1.50591e-25
1.96371e-25
3.79892e-25
1.59462e-26
2.75919e-28
3.0285e-28
6.85505e-28
2.85905e-29
4.76091e-31
4.11147e-31
1.05975e-30
4.81302e-32
8.06351e-34
3.73483e-17
6.54715e-13
6.70165e-16
5.21779e-16
1.17767e-17
1.06066e-14
6.89549e-17
3.32628e-15
2.04068e-13
8.12145e-16
2.16953e-14
2.19647e-16
7.24547e-15
1.26264e-16
1.41214e-16
9.79015e-13
9.50114e-15
8.99672e-16
5.35832e-17
1.12727e-16
4.78093e-17
1.04419e-16
2.48348e-16
6.7707e-17
2.33981e-15
7.2776e-17
9.41141e-17
6.56426e-17
2.3384e-17
6.00799e-16
6.72354e-17
4.85127e-16
2.62849e-17
6.80746e-17
2.36744e-17
3.15057e-21
1.5821e-22
1.00945e-24
3.60707e-27
1.34824e-17
7.85659e-20
1.05979e-18
1.05606e-16
3.9096e-20
5.4064e-18
2.56821e-22
3.2688e-20
1.21865e-18
1.3913e-22
1.56586e-20
5.86608e-19
8.37721e-25
1.10422e-22
5.23982e-21
1.25945e-22
3.88031e-22
2.09016e-23
3.21221e-25
1.02277e-24
4.46561e-26
7.05612e-28
2.204e-27
9.1676e-29
1.40193e-30
4.11257e-30
1.85051e-31
2.63132e-33
7.01447e-33
3.68242e-34
4.82619e-36
1.15162e-35
7.20233e-37
8.0824e-18
1.46905e-16
2.64544e-16
3.08983e-17
3.46514e-19
6.27577e-18
8.78096e-18
1.68385e-18
2.48527e-20
5.22351e-20
1.01589e-19
1.04362e-20
1.72421e-22
2.45503e-22
6.12081e-22
3.78785e-23
5.55309e-25
7.77126e-25
2.21135e-24
1.0237e-25
1.97384e-27
5.92925e-27
2.47223e-28
4.38568e-30
1.29985e-29
5.6478e-31
9.03061e-33
2.49965e-32
1.2405e-33
1.79322e-35
4.47951e-35
2.63411e-36
3.50426e-38
7.84806e-38
5.40119e-39
6.62626e-22
3.31218e-21
1.74444e-18
1.19537e-22
5.55932e-20
2.52596e-24
1.0621e-21
8.27549e-23
2.79433e-20
1.43418e-22
4.24773e-20
1.1519e-23
5.11847e-21
1.60503e-25
7.08925e-23
6.71465e-25
2.24848e-22
1.43847e-24
4.4786e-22
7.92298e-26
3.18228e-23
1.10143e-27
4.62064e-25
3.01183e-27
1.00531e-24
7.70104e-27
2.48473e-24
3.50394e-28
1.23743e-25
4.76024e-30
1.70272e-27
9.92433e-30
3.19331e-27
2.76683e-29
8.91559e-27
1.23596e-30
3.82949e-28
1.70191e-32
5.14273e-30
2.76712e-32
8.34149e-30
7.71593e-32
2.41897e-29
3.78524e-33
1.05071e-30
5.47516e-35
1.44576e-32
7.0644e-35
1.95331e-32
1.84208e-34
5.47101e-32
1.0498e-35
2.66204e-33
1.6123e-37
3.88433e-35
1.7168e-37
4.32545e-35
4.04135e-37
1.1111e-34
2.69207e-38
6.35094e-36
4.33815e-40
9.87594e-38
4.01194e-40
9.30054e-38
8.51932e-40
2.14493e-37
6.42631e-41
1.43696e-38
1.06386e-42
2.34222e-40
8.97257e-43
1.95137e-40
1.75884e-42
4.07721e-40
1.43132e-43
3.08311e-41
2.38568e-45
5.14741e-43
1.02513e-24
4.80679e-24
2.85557e-25
5.75699e-27
1.88643e-25
3.64426e-25
2.35783e-26
3.3941e-28
1.55774e-27
3.63295e-27
1.83614e-28
2.57746e-30
7.27958e-30
1.92997e-29
9.19469e-31
1.29304e-32
2.58269e-32
7.08721e-32
3.6125e-33
5.26871e-35
7.93994e-35
2.08057e-34
1.21218e-35
1.86254e-37
2.24994e-37
5.36502e-37
3.62497e-38
5.82946e-40
6.00275e-40
1.28909e-39
9.84932e-41
1.6282e-42
1.50772e-42
2.96786e-42
2.45081e-43
4.08605e-45
3.54388e-45
6.58987e-45
5.61934e-46
9.30468e-48
5.1021e-19
1.40745e-27
3.35102e-30
7.94234e-33
1.86237e-35
4.21168e-38
9.00933e-41
6.77886e-50
3.66665e-52
1.55347e-54
5.43348e-57
1.62466e-59
4.25455e-62
9.94621e-65
1.53357e-31
3.81884e-34
9.41191e-37
1.17123e-32
2.92257e-35
7.14032e-38
1.15882e-34
3.19858e-37
8.30924e-40
7.38634e-37
2.20205e-39
5.97606e-42
3.59096e-39
1.12155e-41
3.12339e-44
1.4164e-41
4.53942e-44
1.28375e-46
4.68736e-44
1.52445e-46
4.35676e-49
1.33422e-46
4.38118e-49
1.26323e-51
3.33437e-49
1.10341e-51
3.20856e-54
7.45623e-52
2.48525e-54
7.28807e-57
2.22022e-39
1.66413e-40
1.9999e-42
1.47222e-44
7.81031e-47
3.24494e-49
1.11172e-51
3.2537e-54
8.34336e-57
1.91301e-59
4.90113e-42
1.00172e-44
3.62787e-43
7.33146e-46
4.42719e-45
9.01296e-48
3.30119e-47
1.7694e-49
7.42195e-52
2.56801e-54
7.59377e-57
1.96748e-59
4.55557e-62
1.85555e-26
7.78775e-24
8.58706e-29
3.02592e-26
3.27183e-31
9.46266e-29
1.11205e-33
2.77617e-31
3.44022e-36
7.85962e-34
9.7241e-39
2.12784e-36
2.5108e-41
5.42186e-39
1.09836e-27
4.51178e-25
5.17526e-30
1.87343e-27
2.00087e-32
6.2601e-30
6.88148e-35
1.88861e-32
2.16381e-37
5.40356e-35
6.23508e-40
1.47348e-37
1.6399e-42
3.77678e-40
8.02719e-30
3.00168e-27
4.19996e-32
1.36711e-29
1.81502e-34
5.18927e-32
6.86565e-37
1.77748e-34
2.31516e-39
5.6295e-37
6.98682e-42
1.64377e-39
1.89147e-44
4.38811e-42
3.84038e-32
1.23205e-29
2.27002e-34
6.48117e-32
1.09235e-36
2.84167e-34
4.47398e-39
1.09509e-36
1.58917e-41
3.762e-39
4.94996e-44
1.15419e-41
1.36587e-46
3.16878e-44
1.51221e-34
4.19758e-32
9.86527e-37
2.53288e-34
5.12206e-39
1.24656e-36
2.20622e-41
5.2102e-39
8.08049e-44
1.88212e-41
2.5636e-46
5.94407e-44
7.15947e-49
1.65959e-46
5.24143e-37
1.3095e-34
3.64627e-39
8.74019e-37
1.97902e-41
4.63199e-39
8.76118e-44
2.02891e-41
3.26231e-46
7.53325e-44
1.04631e-48
2.41795e-46
2.94796e-51
6.82442e-49
1.61977e-39
3.79285e-37
1.16702e-41
2.69079e-39
6.47691e-44
1.48469e-41
2.90671e-46
6.66248e-44
1.09226e-48
2.50989e-46
3.53007e-51
8.13614e-49
1.00258e-53
2.316e-51
4.46956e-42
1.00923e-39
3.27067e-44
7.38617e-42
1.83264e-46
4.15446e-44
8.27903e-49
1.88638e-46
3.12964e-51
7.16554e-49
1.01833e-53
2.34021e-51
2.91618e-56
6.7159e-54
1.10536e-44
2.44635e-42
8.12176e-47
1.81314e-44
4.56443e-49
1.0278e-46
2.06924e-51
4.69405e-49
7.86114e-54
1.79345e-51
2.57544e-56
5.8977e-54
7.43959e-59
1.70671e-56
2.4723e-47
5.40664e-45
1.8126e-49
4.01651e-47
1.01855e-51
2.28178e-49
4.6284e-54
1.04557e-51
1.7669e-56
4.01508e-54
5.82984e-59
1.32952e-56
1.69894e-61
3.88046e-59
5.92413e-44
1.28332e-41
3.93004e-45
8.97505e-43
4.61564e-47
1.06654e-44
3.37511e-49
7.82603e-47
1.78612e-51
4.14429e-49
7.41998e-54
1.71978e-51
2.54701e-56
5.88884e-54
7.48195e-59
1.72375e-56
1.9282e-61
4.42347e-59
4.44685e-64
1.01547e-61
2.54853e-49
1.7284e-50
2.07498e-52
1.54701e-54
1.28063e-46
8.6013e-48
1.02264e-49
7.55218e-52
4.03423e-54
1.69267e-56
5.87313e-59
1.74466e-61
4.54571e-64
1.05899e-66
2.80222e-44
5.63915e-47
1.96397e-45
3.95641e-48
2.36341e-47
4.79976e-50
1.75231e-49
3.58945e-52
9.36494e-52
3.92279e-54
1.35688e-56
4.01442e-59
1.04124e-61
2.4145e-64
8.34925e-57
3.54294e-59
1.24406e-61
3.73968e-64
9.85189e-67
2.3174e-69
1.93641e-54
8.19667e-57
2.86749e-59
8.58212e-62
2.25057e-64
5.27027e-67
4.09728e-30
1.14128e-29
1.80188e-30
3.34897e-32
3.08147e-34
1.91107e-36
9.07372e-39
5.96965e-31
1.41206e-30
1.02721e-31
1.63846e-33
1.48361e-35
9.37753e-38
4.61103e-40
5.50217e-33
1.41976e-32
9.2328e-34
1.44399e-35
1.3572e-37
9.01161e-40
4.64408e-42
3.10414e-35
7.98742e-35
5.43339e-36
8.65717e-38
8.46597e-40
5.85286e-42
3.11876e-44
1.38221e-37
3.3059e-37
2.48091e-38
4.0668e-40
4.09082e-42
2.89889e-44
1.57445e-46
5.30311e-40
1.14622e-39
9.47093e-41
1.58591e-42
1.61864e-44
1.16056e-46
6.36178e-49
1.80811e-42
3.55482e-42
3.13497e-43
5.29053e-45
5.41712e-47
3.89625e-49
2.14358e-51
5.53478e-45
1.01435e-44
9.1837e-46
1.54126e-47
1.57045e-49
1.12729e-51
6.20671e-54
1.52565e-47
2.68437e-47
2.41366e-48
3.98625e-50
4.0203e-52
2.87166e-54
1.58014e-56
3.7996e-50
6.59634e-50
5.76001e-51
9.29513e-53
9.24811e-55
6.56285e-57
3.60659e-59
3.08043e-54
2.00722e-55
2.38782e-57
1.78538e-59
9.72429e-62
4.17911e-64
1.48869e-66
4.54092e-69
1.21291e-71
2.88858e-74
1.55695e-51
9.95918e-53
1.1694e-54
3.84285e-54
8.63964e-57
2.04425e-56
4.64833e-59
8.57436e-59
1.97269e-61
2.98099e-61
6.94078e-64
8.88563e-64
2.09303e-66
2.32516e-66
5.53531e-69
5.44261e-69
1.30758e-71
8.51712e-33
2.06197e-32
4.23357e-33
7.80185e-35
7.31057e-37
4.60969e-39
2.21127e-41
9.64205e-34
2.36091e-33
2.15615e-34
3.60423e-36
3.39e-38
2.20617e-40
1.10531e-42
9.72642e-36
2.43188e-35
1.98827e-36
3.2811e-38
3.18211e-40
2.15714e-42
1.12494e-44
6.18517e-38
1.45982e-37
1.22759e-38
2.05126e-40
2.04567e-42
1.42841e-44
7.64449e-47
3.07307e-40
6.59595e-40
5.88199e-41
9.96877e-43
1.01122e-44
7.17845e-47
3.89645e-49
1.28403e-42
2.50737e-42
2.33794e-43
3.98386e-45
4.06558e-47
2.90541e-49
1.58775e-51
4.65126e-45
8.43649e-45
7.98599e-46
1.353e-47
1.37726e-49
9.84645e-52
5.3954e-54
1.48194e-47
2.5664e-47
2.39672e-48
3.99772e-50
4.03492e-52
2.87516e-54
1.57643e-56
4.18609e-50
7.11018e-50
6.41768e-51
1.04639e-52
1.04317e-54
7.39308e-57
4.05186e-59
1.05658e-52
1.80072e-52
1.55334e-53
2.46529e-55
2.42222e-57
1.70545e-59
9.33767e-62
2.00985e-27
6.95748e-27
7.21459e-28
1.37591e-29
1.20813e-31
7.1734e-34
3.31131e-36
1.08435e-33
3.55642e-28
7.6865e-28
4.86549e-29
7.35128e-31
6.21151e-33
3.70011e-35
1.74646e-37
6.0903e-35
3.05904e-30
7.66076e-30
4.15789e-31
6.11654e-33
5.43339e-35
3.45417e-37
1.73178e-39
5.85659e-37
1.54611e-32
4.13522e-32
2.28815e-33
3.42289e-35
3.2208e-37
2.17248e-39
1.14238e-41
3.73938e-39
6.1015e-35
1.59226e-34
9.78761e-36
1.52256e-37
1.49928e-39
1.052e-41
5.69396e-44
1.82378e-41
2.1021e-37
5.04046e-37
3.53444e-38
5.71809e-40
5.79152e-42
4.15071e-44
2.27985e-46
7.20717e-44
6.59353e-40
1.42469e-39
1.1207e-40
1.86036e-42
1.90817e-44
1.3792e-46
7.6226e-49
2.38878e-46
1.9033e-42
3.75091e-42
3.17997e-43
5.32566e-45
5.46855e-47
3.95563e-49
2.18996e-51
6.81365e-49
5.05034e-45
9.33157e-45
8.16262e-46
1.35904e-47
1.38626e-49
9.99123e-52
5.52909e-54
1.70802e-51
1.22946e-47
2.19605e-47
1.91393e-48
3.13393e-50
3.15993e-52
2.26377e-54
1.25098e-56
3.83537e-54
3.9964e-36
1.29123e-38
3.71467e-41
2.29205e-37
7.61735e-40
2.2576e-42
2.35693e-39
8.22699e-42
2.52281e-44
1.58424e-41
5.72021e-44
1.79289e-46
7.96759e-44
2.93335e-46
9.31462e-49
3.1998e-46
1.19082e-48
3.81412e-51
1.06908e-48
4.00539e-51
1.29202e-53
3.0621e-51
1.15328e-53
3.74613e-56
7.69626e-54
2.91312e-56
9.53147e-59
1.73194e-56
6.58892e-59
2.17186e-61
9.61207e-44
6.00426e-45
6.86902e-47
4.95504e-49
2.60064e-51
1.07399e-53
3.66879e-56
1.07319e-58
2.75569e-61
6.33611e-64
9.57735e-52
6.33913e-53
7.56032e-55
5.63641e-57
3.0521e-59
1.30199e-61
4.6008e-64
1.39226e-66
3.69165e-69
8.73559e-72
4.84114e-49
3.15547e-50
3.72017e-52
2.74372e-54
1.46892e-56
6.19085e-59
2.16079e-61
6.46159e-64
1.69508e-66
3.97482e-69
3.11223e-46
7.27607e-49
2.25592e-46
1.89074e-47
4.54733e-50
1.44254e-47
2.15083e-49
5.26244e-52
1.67837e-49
1.55193e-51
1.22483e-51
8.17018e-54
6.49054e-54
3.39135e-56
2.70593e-56
1.16636e-58
9.33679e-59
3.43888e-61
2.75997e-61
8.90495e-64
7.16131e-64
2.06472e-66
1.66285e-66
1.20485e-43
7.08032e-45
7.8821e-47
5.61052e-49
2.92415e-51
1.20282e-53
4.09886e-56
1.19706e-58
3.07042e-61
7.05517e-64
1.2672e-38
4.16744e-41
6.9106e-40
2.3601e-42
7.19937e-42
2.55371e-44
4.91611e-44
1.78646e-46
2.49933e-46
9.20953e-49
1.01117e-48
3.75735e-51
3.39942e-51
1.27087e-53
9.79942e-54
3.68347e-56
2.48058e-56
9.37478e-59
5.62578e-59
2.13768e-61
4.63724e-29
2.50701e-31
2.5904e-30
1.39478e-32
2.09913e-32
1.23425e-34
1.1417e-34
7.33158e-37
4.98492e-37
3.4122e-39
1.84932e-39
1.3146e-41
5.94809e-42
4.30631e-44
1.67918e-44
1.2231e-46
4.21083e-47
3.06432e-49
9.51139e-50
6.88893e-52
1.08678e-23
2.69278e-26
6.31338e-29
6.08529e-25
1.7875e-27
4.65725e-30
4.04765e-27
1.33474e-29
4.021e-32
1.66443e-29
6.46341e-32
2.27414e-34
1.04333e-29
5.66942e-32
2.57178e-34
1.02112e-36
2.82798e-32
1.7694e-34
8.98687e-37
3.84919e-39
7.44473e-35
5.12777e-37
2.7858e-39
1.24353e-41
1.87401e-37
1.3628e-39
7.66568e-42
3.49381e-44
4.40988e-40
3.29107e-42
1.88098e-44
8.66186e-47
9.59483e-43
7.22897e-45
4.15792e-47
1.92528e-49
2.29037e-17
2.64555e-17
3.53138e-17
4.04206e-16
2.46745e-17
5.70067e-17
2.32741e-17
1.06683e-16
1.1957e-16
1.06091e-16
1.3152e-16
3.50024e-15
1.07386e-16
2.03589e-16
2.53598e-16
2.70016e-16
2.54797e-16
2.57924e-15
3.28486e-16
3.81606e-15
4.08327e-16
1.68167e-12
7.34264e-13
7.28592e-13
5.16458e-13
5.21286e-13
5.16375e-13
5.21211e-13
1.93909e-13
1.79499e-13
1.22647e-13
1.12509e-13
1.18485e-13
1.17722e-13
1.13278e-13
6.4014e-13
1.40214e-13
2.29255e-13
1.26496e-13
1.22179e-13
1.21291e-13
1.27258e-13
2.96504e-13
1.24012e-13
1.21732e-13
1.18641e-13
1.19357e-13
1.17396e-13
1.18182e-13
1.45348e-16
1.45393e-16
1.44898e-16
1.30069e-15
1.6301e-16
1.62178e-16
1.4962e-16
)
;

boundaryField
{
    ground
    {
        type            zeroGradient;
    }
    outlet
    {
        type            zeroGradient;
    }
    wall
    {
        type            zeroGradient;
    }
    wall2
    {
        type            zeroGradient;
    }
    wall3
    {
        type            zeroGradient;
    }
    internalPatch
    {
        type            internal;
    }
    procBoundary0to1
    {
        type            processor;
        value           nonuniform List<scalar> 
232
(
3.48609e-17
3.48609e-17
3.22941e-16
3.22941e-16
3.70058e-16
6.07822e-16
6.60819e-17
4.97535e-17
4.32271e-18
7.7255e-19
7.7255e-19
1.11729e-17
6.87955e-16
7.05484e-16
1.02784e-15
3.34959e-16
3.3908e-16
3.20371e-16
3.20371e-16
4.03584e-16
7.46988e-16
3.6509e-16
3.63056e-16
5.71684e-17
4.91116e-17
4.91116e-17
4.32271e-18
4.98861e-20
4.98861e-20
8.62353e-21
8.62353e-21
1.11163e-19
3.97333e-20
3.0361e-18
2.0786e-16
6.90484e-16
7.32792e-16
1.13954e-15
1.20194e-15
1.14363e-15
1.6201e-16
6.66351e-17
6.48418e-17
6.48418e-17
1.03619e-16
2.43366e-16
7.95896e-17
7.95896e-17
3.6509e-16
3.63056e-16
5.71684e-17
7.56902e-17
5.05293e-17
6.5537e-17
6.5537e-17
2.40129e-16
2.37844e-16
5.88178e-18
5.88178e-18
4.98861e-20
2.16373e-18
8.62353e-21
1.11163e-19
3.97333e-20
6.98133e-18
3.08728e-16
3.78518e-16
2.73472e-15
1.19625e-14
2.85921e-13
2.89623e-13
3.82381e-13
3.95815e-13
2.63163e-13
2.40294e-13
5.31494e-14
1.31459e-15
3.91102e-17
2.69301e-17
2.69301e-17
5.18268e-17
4.35948e-15
2.54166e-13
3.76303e-13
8.94942e-14
3.93092e-14
6.16777e-16
6.16777e-16
1.50718e-14
5.00436e-14
5.44989e-14
4.23059e-14
4.1006e-14
4.1307e-14
3.71722e-14
4.26082e-15
1.93873e-16
2.11004e-17
2.11004e-17
7.82356e-16
8.2326e-17
2.41046e-17
2.81539e-16
2.23936e-14
2.68702e-16
1.80462e-17
1.10366e-16
2.76971e-15
2.28912e-14
4.44315e-14
1.5624e-14
7.93079e-16
3.38547e-17
6.18574e-18
6.18574e-18
1.42227e-16
1.70055e-16
8.65032e-16
8.58977e-16
2.12102e-16
2.00448e-16
2.20323e-16
9.67041e-16
1.05357e-15
1.8658e-16
1.62549e-16
9.77848e-17
9.14293e-17
6.1047e-17
5.9987e-17
5.9987e-17
6.28568e-17
7.6448e-17
6.29405e-17
6.29405e-17
9.25149e-17
2.97491e-16
1.0298e-15
7.97499e-16
8.46213e-16
9.45784e-17
7.25298e-17
6.38091e-17
6.38091e-17
6.43285e-17
1.54871e-16
5.35146e-16
2.40287e-16
2.59458e-16
2.87e-17
2.68238e-17
2.68238e-17
2.80275e-17