/*--------------------------------*- C++ -*----------------------------------*\
  =========                 |
  \\      /  F ield         | OpenFOAM: The Open Source CFD Toolbox
   \\    /   O peration     | Website:  https://openfoam.org
    \\  /    A nd           | Version:  9
     \\/     M anipulation  |
\*---------------------------------------------------------------------------*/
FoamFile
{
    format      ascii;
    class       volScalarField;
    location    "0.0002";
    object      lambda.c4;
}
// * * * * * * * * * * * * * * * * * * * * * * * * * * * * * * * * * * * * * //

dimensions      [0 0 0 0 0 0 0];

internalField   nonuniform List<scalar> 
2273
(
0.5
1.86703e-06
1.21528e-27
1
0.000119474
7.40893e-21
1
1.04016e-10
1.23961e-27
1
3.29013e-06
6.92638e-22
1.12119e-37
7.04342e-06
2.20894e-21
6.65355e-37
9.69881e-53
8.69406e-22
6.27352e-37
1.69082e-52
1.82689e-86
4.12195e-24
1.07514e-37
7.68609e-53
2.76443e-86
7.44108e-124
1.24474e-39
4.97855e-54
7.32577e-87
4.70896e-124
2.27483e-164
0.00374986
1.75652e-13
3.03876e-28
0.0250364
1.04388e-11
1.01949e-27
0.000949376
4.10294e-19
5.5606e-35
0.00528166
6.72204e-13
2.85038e-28
6.78078e-44
1.08887e-12
1.3679e-27
7.89162e-43
3.59503e-76
7.06203e-28
9.13573e-43
9.14234e-76
3.99665e-111
2.60701e-29
2.17432e-43
6.69556e-76
3.98981e-111
1.39716e-148
1.62547e-45
7.64949e-77
2.33584e-111
1.08573e-148
9.66986e-190
0.0064056
9.73427e-13
1.75931e-27
3.95955e-43
0.0735365
5.59009e-10
2.86958e-25
1.77665e-40
0.000128008
6.0873e-17
1.7798e-32
2.41186e-48
9.39217e-13
1.27619e-27
8.8777e-43
2.94893e-76
2.34857e-27
4.35395e-42
2.85177e-75
1.77443e-110
1.69111e-42
5.87325e-75
3.13054e-110
2.57923e-147
2.73961e-44
1.31055e-75
4.76172e-110
2.93083e-147
1.26418e-187
7.28723e-78
5.53906e-111
1.21508e-147
1.10517e-187
3.57372e-230
4.87379e-13
1.2991e-27
1.3807e-42
1.08138e-75
4.08395e-10
6.44185e-25
8.34631e-40
8.89296e-73
4.41085e-17
3.7386e-32
8.90423e-48
8.15066e-82
4.9881e-28
1.11403e-42
7.10527e-76
3.20928e-111
1.56908e-42
3.77768e-75
4.0562e-110
2.56729e-147
3.10631e-75
7.34816e-110
4.49154e-147
3.77852e-187
2.74103e-77
2.09366e-110
6.43739e-147
5.4308e-187
1.69114e-229
3.6679e-113
7.34507e-148
3.52749e-187
1.94654e-229
5.1594e-277
1.95585e-43
4.07848e-76
2.68255e-111
5.37108e-149
7.85513e-76
2.23612e-110
1.28559e-147
7.06642e-188
9.4463e-111
2.80037e-147
2.7093e-187
1.9002e-229
2.13386e-113
6.68206e-148
3.49123e-187
2.46004e-229
1.10993e-276
1.83796e-151
3.30635e-188
1.64385e-229
8.83768e-277
0
3.9948e-77
9.83178e-112
3.62535e-149
3.27196e-190
1.17947e-111
7.99978e-148
3.05706e-188
7.2622e-231
2.3465e-148
8.59715e-188
1.10636e-229
2.64361e-277
1.12104e-151
1.75378e-188
6.90298e-230
6.29204e-277
0
3.15874e-192
4.47211e-231
3.3704e-277
0
0
4.05161e-113
6.07289e-150
9.9816e-191
4.79637e-233
1.74624e-149
7.45102e-189
2.87036e-231
1.6056e-278
2.75588e-189
2.54784e-230
1.08476e-277
0
1.39548e-192
6.73317e-232
9.02152e-278
0
0
5.84204e-236
2.53094e-279
0
0
0
2.81515e-232
3.25451e-279
0
1.27134e-232
7.31118e-279
0
0
6.59419e-237
5.93502e-280
0
0
0
1.36266e-284
0
0
0
0
3.9389e-281
0
0
0
2.59769e-285
0
0
0
0
0
0
0
0
0
0
0
0
0
0
0
0
0
0
0
0
0
0
0
1.97883e-28
7.01042e-43
8.03097e-76
1.84834e-111
1.64058e-25
5.86884e-40
1.05345e-72
2.27483e-107
1.06406e-32
7.51628e-48
1.61855e-81
3.97973e-119
7.32308e-44
1.30859e-76
1.12563e-111
1.42944e-149
7.51679e-41
3.63137e-73
1.51553e-107
7.01401e-145
1.18372e-48
4.25468e-82
3.89943e-119
2.50479e-158
7.53996e-78
1.45629e-112
5.66172e-150
1.84146e-190
1.62366e-74
2.62192e-108
3.1649e-145
5.26265e-185
2.36698e-83
1.0224e-119
1.33212e-158
5.44826e-200
5.79166e-114
4.27523e-151
5.95426e-191
9.00453e-234
3.92849e-110
1.07205e-146
2.23636e-185
1.15927e-227
3.41621e-121
7.87352e-160
2.00707e-200
6.95822e-244
1.03026e-151
1.27989e-191
1.37292e-233
7.65024e-282
2.53105e-191
3.88685e-153
9.74602e-193
2.45789e-234
2.84684e-281
9.73622e-149
3.03706e-187
3.26791e-228
2.25966e-273
3.58951e-178
4.77342e-202
1.79621e-244
4.27107e-291
5.79641e-194
8.48295e-235
1.86858e-282
0
1.23776e-234
2.23584e-280
0
0
6.74494e-195
2.68982e-236
6.61566e-282
0
5.95734e-190
6.81224e-231
4.2281e-274
0
4.25385e-221
3.0461e-246
8.97934e-292
0
1.2886e-237
1.90584e-284
0
0
5.91081e-284
0
0
0
5.34183e-45
5.66343e-31
2.45707e-32
1.03547e-66
6.46534e-42
4.96414e-33
8.98945e-100
6.31515e-73
4.34819e-47
2.94915e-134
4.62796e-108
1.34224e-79
4.90954e-174
1.69576e-145
1.29944e-116
6.27364e-117
4.31094e-217
4.92871e-185
1.60655e-154
3.53391e-155
1.34093e-262
3.00246e-227
1.64659e-196
3.79341e-197
1.08791e-307
9.75069e-273
1.41309e-239
1.1123e-240
0
4.94066e-314
7.44698e-287
5.42116e-288
0
0
0
8.65e-07
0
8.05411e-19
8.03883e-22
5.85189e-32
3.68523e-05
7.6095e-07
1.38584e-17
9.51548e-22
5.94035e-37
1.81859e-06
1.71617e-16
6.84936e-21
1.23161e-31
9.51923e-36
7.19422e-70
3.81664e-07
1.05596e-14
4.82227e-21
2.67384e-31
1.72887e-35
2.16383e-46
1.42736e-69
9.97427e-104
3.62402e-10
3.17978e-17
6.893e-12
6.31304e-14
1.09601e-15
5.74594e-22
3.24406e-22
4.24175e-30
9.74676e-32
5.75249e-36
2.56857e-46
2.29926e-53
1.90351e-79
1.87899e-103
3.02638e-138
3.68312e-25
2.57684e-33
4.25011e-26
1.77884e-29
4.46242e-29
1.39656e-37
2.48309e-37
9.77882e-46
3.12363e-47
1.02552e-69
1.01571e-79
6.37022e-104
2.79884e-138
2.66275e-178
1.02976e-39
1.6875e-49
2.94269e-42
4.93488e-45
7.54163e-46
3.7238e-70
2.50536e-71
4.29404e-80
8.52577e-81
1.12676e-104
2.92918e-117
5.3785e-139
2.4551e-178
1.16301e-220
4.69467e-73
1.06461e-84
8.97777e-74
2.95455e-79
4.13109e-78
1.27151e-104
7.21039e-107
3.04453e-117
1.76142e-118
6.69188e-140
5.20717e-154
1.1023e-155
5.02871e-179
3.88276e-221
3.43772e-265
2.07079e-107
3.15076e-122
1.87065e-109
1.04818e-115
1.7643e-139
2.07758e-141
9.04287e-143
6.83196e-157
2.87059e-157
4.39258e-181
1.69652e-195
1.28037e-198
4.3346e-222
4.1435e-266
1.5316e-312
7.0385e-146
1.85799e-178
4.24504e-146
2.59985e-155
3.77479e-146
4.16818e-183
1.08312e-184
2.76425e-199
7.49087e-201
3.52091e-224
1.04256e-240
3.30325e-242
1.6531e-267
2.96439e-313
0
1.86724e-08
5.58069e-14
1.18892e-13
1.60098e-28
8.90592e-29
5.90541e-44
1.75284e-44
2.09412e-77
3.20986e-78
1.48883e-113
1.02065e-114
5.33574e-152
2.46471e-193
9.17454e-238
5.13257e-287
1.44994e-233
8.97103e-270
7.5098e-312
0
0
0
0
0
0
0
1.09182e-281
0
0
0
0
0
0
0
0
0
0
0
0
0
8.39502e-74
3.29017e-101
1.25048e-134
2.15167e-174
3.32013e-217
4.14599e-262
2.22642e-307
3.66166e-307
0
0
0
0
0
0
0
1.88081e-115
4.1486e-144
2.79867e-137
5.62792e-178
4.70688e-175
2.18314e-219
9.15532e-218
1.71739e-263
2.13308e-262
7.48206e-308
0
0
0
0
0
1.98755e-187
5.93481e-222
1.48509e-265
8.48434e-309
0
0
0
0
0
0
2.70487e-239
7.65772e-286
0
0
0
0
2.42867e-76
5.18777e-104
2.12219e-124
2.37198e-179
1.57442e-220
3.34721e-71
3.53611e-79
1.12791e-112
3.17043e-149
4.68054e-190
1.46017e-232
2.52389e-104
6.98113e-114
8.18655e-149
2.21285e-188
1.2913e-230
7.04672e-278
1.52934e-139
8.79191e-152
2.08656e-188
9.3445e-230
5.01129e-277
0
3.41185e-178
2.03234e-192
3.4673e-231
2.30959e-277
0
0
2.81277e-220
7.14752e-236
7.21449e-279
0
0
0
4.74602e-265
3.9748e-284
0
0
0
0
8.98407e-265
3.65142e-284
0
0
0
0
6.62048e-312
0
0
0
0
0
1.06718e-311
0
0
0
0
0
0
0
0
0
0
0
0
0
0
0
0
0
0
0
0
0
0
0
0
0
0
0
0
0
0
0
0
0
0
0
1.18819e-81
7.30591e-120
4.8923e-83
3.56193e-150
4.91108e-118
2.11268e-188
2.84038e-155
3.1156e-228
7.54889e-197
2.29563e-273
4.94066e-314
0
0
0
0
2.26702e-80
6.04812e-110
4.61737e-142
1.29914e-180
2.59689e-221
1.27929e-264
1.28312e-106
4.42734e-116
4.05228e-151
5.71754e-191
4.70397e-233
8.02726e-281
2.65796e-141
1.23186e-152
1.00171e-189
2.44475e-231
1.88638e-278
0
2.4683e-179
1.30394e-192
1.01475e-231
5.42695e-278
0
0
2.63271e-220
3.24131e-236
2.36749e-279
0
0
0
2.34981e-119
1.05955e-122
3.78649e-157
4.53052e-197
1.84508e-240
2.39482e-286
0
0
0
0
3.91892e-119
2.45691e-145
1.3573e-182
2.36225e-222
1.76889e-265
1.82804e-312
1.47329e-143
1.0049e-155
8.87421e-193
3.73041e-234
6.54886e-282
0
2.67144e-181
2.01197e-194
1.61215e-233
1.25859e-279
0
0
5.87179e-222
1.90967e-236
1.06388e-279
0
0
0
1.89219e-265
1.40824e-284
0
0
0
0
2.51973e-312
0
0
0
0
0
0
0
0
0
0
0
0
0
0
0
0
0
0
0
0
0
0
0
0
0
0
0
0
0
2.21954e-160
1.83945e-192
2.72322e-230
5.18632e-274
0
0
0
0
0
0
2.96926e-157
5.83441e-177
1.72867e-199
6.45887e-241
1.25379e-287
0
0
0
0
0
7.21914e-151
3.73192e-187
2.33931e-226
4.38581e-268
9.88131e-314
0
6.0493e-185
1.25275e-197
8.10647e-237
5.40804e-283
0
0
5.51852e-224
5.33284e-239
3.87162e-282
0
0
0
1.26808e-266
1.0886e-285
0
0
0
0
4.44659e-313
0
0
0
0
0
0
0
0
0
0
0
0
0
0
0
0
0
0
0
0
0
0
0
0
0
0
0
0
0
0
0
0
0
0
0
4.12855e-203
5.12821e-199
1.00447e-193
3.82437e-235
4.83523e-221
3.22315e-228
2.69851e-279
1.6865e-243
2.12403e-268
0
1.89003e-288
4.94066e-314
0
0
0
0
0
0
0
0
0
0
0
0
0
0
0
0
0
0
2.58618e-231
3.07575e-272
0
0
0
7.74672e-264
1.2154e-311
1.58951e-243
4.08252e-286
0
0
0
6.25454e-283
0
1.55301e-287
0
0
0
0
0
0
0
0
0
0
0
0
0
0
0
0
0
0
0
0
0
0
0
0
0
0
0
0
0
0
0
0
0
0
0
0
0
0
0
0
0
0
0
0
0
0
0
0
0
0
0
0
0
0
0
2.92223e-242
2.55663e-240
2.32279e-278
0
0
0
0
2.03795e-290
1.04871e-288
0
0
4.56822e-265
2.95212e-274
1.46125e-292
0
0
0
0
4.94066e-314
0
0
0
2.38909e-292
0
0
0
0
0
0
0
0
0
0
0
0
0
0
0
0
0
0
0
0
0
0
0
0
0
0
0
0
0
0
0
0
0
0
0
0
0
0
0
0
0
0
0
0
0
0
0
0
0
0
0
0
0
0
0
0
0
0
0
0
0
0
0
2.62677e-47
3.69241e-50
1.57558e-74
8.62988e-49
1.57684e-109
1.60566e-80
1.45348e-145
9.59119e-117
2.11343e-185
1.34136e-154
3.21165e-227
3.90147e-196
1.14388e-272
1.34374e-272
1.77839e-239
9.88131e-314
9.88131e-314
6.4007e-286
0
0
0
0
0
0
0
3.17417e-82
7.18845e-112
4.89192e-147
1.56583e-185
1.28001e-227
0
0
0
0
0
0
3.35835e-277
6.22523e-312
0
0
0
0
0
0
0
0
0
0
0
0
0
0
0
0
0
0
0
0
0
0
4.61628e-114
5.63053e-135
5.62012e-173
9.54184e-216
1.74398e-260
8.17841e-305
0
0
0
0
0
0
0
0
0
4.3059e-141
6.74005e-184
1.58461e-175
2.7554e-219
3.48128e-216
3.48785e-262
9.41108e-261
1.24344e-305
5.67223e-305
0
0
0
0
0
0
4.79309e-230
5.7023e-265
5.10254e-307
0
0
0
0
0
0
0
3.43583e-40
3.7992e-72
2.37261e-49
1.38068e-99
5.53261e-98
2.98436e-133
8.24427e-118
2.30417e-172
2.19827e-172
1.99776e-215
1.21125e-215
2.73359e-260
1.96195e-260
6.22492e-305
1.08625e-305
0
0
0
0
0
0
0
0
0
0
0
8.1152e-24
6.83413e-13
0.00289397
4.85605e-25
1.78258e-14
4.10557e-34
1.29905e-19
4.05383e-08
4.42001e-35
1.92392e-26
1.51536e-48
3.21465e-34
1.00318e-25
1.59176e-49
8.12142e-41
4.33466e-82
2.03502e-49
1.29977e-40
4.46021e-99
1.74284e-72
2.97482e-21
9.61638e-10
6.06424e-17
4.14569e-07
8.59036e-26
8.33478e-13
2.8692e-49
2.50936e-35
6.06719e-27
1.50759e-82
1.35573e-49
4.48126e-41
1.34335e-117
2.79466e-99
1.23409e-72
3.99074e-134
4.87472e-108
2.61762e-36
4.57058e-25
2.52154e-32
1.51432e-21
3.27838e-41
1.15208e-28
7.56254e-84
2.87052e-67
3.15647e-42
6.54982e-118
2.76467e-100
2.04772e-73
1.22961e-172
7.09607e-135
6.44757e-108
3.31902e-174
1.58964e-145
3.8796e-69
1.44512e-39
5.42676e-48
4.5304e-35
5.11936e-74
6.75395e-44
5.22901e-121
2.32246e-102
2.49302e-75
9.15526e-174
2.40315e-136
1.16036e-108
7.86662e-216
5.26654e-175
3.00225e-146
1.80026e-217
1.21467e-185
3.60823e-109
4.58858e-73
1.65421e-82
9.81796e-69
5.97057e-111
1.22741e-78
6.60224e-177
1.4674e-139
9.64014e-111
1.0754e-217
7.1089e-177
2.10235e-147
3.76481e-261
1.9693e-218
1.64347e-186
2.76943e-263
4.19609e-228
7.87004e-138
1.30885e-114
3.96407e-117
1.21126e-117
1.25532e-149
2.58397e-114
3.48707e-222
5.45143e-180
3.51418e-150
4.82176e-264
3.88664e-221
5.51852e-188
1.10949e-306
7.9314e-265
2.37353e-229
2.27476e-308
7.90813e-274
2.08768e-180
1.83968e-141
6.19388e-161
3.51083e-137
8.44162e-192
9.69088e-155
1.39586e-268
3.39008e-225
9.26874e-192
2.62863e-309
1.9484e-267
2.58578e-231
0
3.83346e-310
2.07095e-275
0
0
2.92609e-06
0
2.94554e-11
9.97432e-18
1.86479e-19
1.79008e-17
8.66465e-24
4.28519e-33
4.34714e-33
0
1.14614e-40
7.51006e-49
2.25274e-50
1.24561e-47
3.114e-72
2.10742e-83
5.91349e-83
4.81409e-83
4.2084e-107
4.36585e-122
1.34964e-120
5.89414e-120
1.45599e-152
6.2254e-177
0.5
1
0.5
0.5
0.5
0.5
0.5
0.5
0.5
0.5
0.5
0.5
0.5
0.5
1
1
1
1
1
1
1
0.000229598
0.28978
1.21224e-08
0
0.000374197
0.0135087
3.14098e-10
3.13179e-11
0
0.000771169
0.094938
1.76377e-08
0.00197721
9.35093e-13
6.08721e-24
4.54567e-34
1.50986e-48
2.44836e-82
0.00011215
1.43229e-16
4.10659e-10
1.83626e-10
4.72429e-19
3.78478e-06
1.55244e-33
5.18753e-19
6.8889e-08
4.44017e-34
5.70224e-20
1.05398e-08
1.93225e-48
2.56232e-34
5.873e-26
8.24065e-32
3.47308e-31
5.04441e-39
2.49347e-47
1.03466e-46
4.04486e-71
1.62375e-81
2.82864e-80
7.87463e-107
4.07542e-119
6.24153e-115
2.45006e-144
2.39386e-176
2.28821e-157
2.89149e-185
3.43627e-218
1.7112e-197
4.70666e-228
2.92044e-05
0.000118398
0.000132361
0.080298
1.22021e-10
6.50568e-05
3.84283e-05
2.14712e-06
1.44286e-19
2.62191e-16
2.16908e-16
2.16412e-23
6.20324e-34
6.2043e-31
5.82574e-31
1.8986e-38
4.97509e-49
2.15112e-46
5.40917e-46
3.46128e-70
3.62992e-80
3.33143e-79
8.07912e-106
1.23198e-117
1.97112e-113
7.60479e-143
7.09665e-158
1.03701e-154
6.62758e-184
3.97024e-199
8.76929e-195
1.81254e-226
4.32948e-260
9.77658e-241
1.76294e-273
0
1.43814e-23
8.97249e-12
5.76275e-28
2.72075e-11
1.85101e-43
7.05986e-27
2.62922e-32
5.45657e-17
5.46872e-33
1.63561e-17
6.84641e-40
3.42342e-24
1.87857e-66
6.92064e-35
1.13637e-46
6.99485e-31
6.40479e-47
1.46669e-31
1.82124e-70
1.11676e-38
5.07908e-99
3.89476e-49
9.77309e-80
3.09906e-46
3.31963e-79
4.15965e-46
2.82037e-105
5.07426e-70
3.27039e-135
2.89433e-83
4.91107e-117
1.07891e-79
2.44113e-113
6.08201e-79
1.19852e-141
2.87054e-105
9.65477e-174
3.55172e-120
5.20546e-157
5.42774e-117
3.25053e-153
5.38598e-113
4.92261e-182
1.30056e-141
1.19195e-217
4.23302e-174
1.60741e-197
3.09032e-157
2.45193e-193
1.52307e-153
1.30064e-223
2.78971e-182
4.04409e-263
2.77694e-218
7.80786e-258
3.58992e-198
4.87563e-238
1.06661e-193
2.3886e-270
4.24693e-224
7.66252e-308
1.13035e-263
3.83476e-304
1.29198e-258
7.10307e-284
1.01826e-238
4.94066e-314
4.26894e-271
0
1.61307e-308
0
4.9042e-305
0
8.29306e-285
0
0
0
0
2.40915e-37
5.35449e-40
9.56254e-45
2.10396e-77
3.10695e-48
1.50958e-48
4.44168e-72
7.70284e-101
2.02973e-80
2.47312e-80
4.27215e-106
1.44405e-135
1.6639e-117
6.1718e-114
3.50916e-142
1.73371e-174
3.6797e-157
4.46693e-153
2.76922e-182
1.34328e-217
1.82809e-197
1.69399e-193
1.95638e-223
6.32267e-263
9.48775e-258
7.01195e-238
5.65956e-270
1.25052e-307
1.60346e-303
1.43783e-283
3.45846e-313
0
0
0
0
0
0
0
0
0
9.35167e-14
3.2214e-83
4.14869e-120
1.95084e-174
4.31885e-219
8.5282e-265
3.80035e-310
0
0
0
0
0
0
0
4.43859e-140
7.70767e-183
6.74186e-228
3.50682e-174
1.93743e-217
2.02501e-263
3.11397e-215
1.67111e-260
1.28435e-305
3.27992e-259
4.11525e-304
0
3.32606e-303
0
0
0
0
0
0
0
0
0
0
0
0
0
0
0
0
0
3.58972e-275
4.98216e-310
0
0
0
0
0
0
0
0
0
0
0
0
0
0
0
0
0
0
0
0
0
2.34486e-72
3.11593e-40
1.02533e-111
1.27284e-71
1.83777e-139
1.10903e-111
3.41288e-181
1.7894e-139
1.89234e-225
1.23505e-181
1.34859e-271
6.94599e-226
0
2.1303e-272
1.94293e-99
2.77642e-49
2.90451e-134
1.01954e-98
1.22401e-173
6.63613e-134
1.21089e-216
1.72208e-173
2.32208e-261
1.20481e-216
2.55719e-307
8.7824e-262
0
3.10158e-308
1.13398e-133
3.61934e-98
6.98662e-172
1.51658e-132
7.9935e-215
8.33616e-172
1.52552e-259
1.07358e-214
5.74777e-304
2.10478e-259
0
2.27194e-304
0
0
2.71648e-172
8.56927e-118
2.53738e-214
1.70022e-171
9.19769e-259
4.17306e-214
8.5789e-303
1.41121e-258
0
6.12406e-303
0
0
0
0
2.595e-215
3.16056e-172
6.4956e-259
1.73471e-214
7.84784e-303
1.56366e-258
0
1.08009e-302
0
0
0
0
0
0
4.44588e-260
2.59625e-215
2.95695e-303
2.80125e-259
0
8.16092e-303
0
0
0
0
0
0
0
0
6.74577e-305
3.77447e-260
0
7.62661e-304
0
0
0
0
0
0
0
0
0
0
0
6.23683e-305
0
0
0
0
0
0
0
0
0
0
0
0
0
0
0
0
0
0
0
0
0
0
0
0
0
0
0
0
0
0
0
0
0
0
0
0
0
0
0
0
0
0
0
0
0
0
0
0
0
0
0
0
0
0
0
0
0
0
0
0
0
0
0
0
0
0
0
0
0
0
0
0
0
0
0
0
0
0
0
0
0
0
0
0
0
0
0
0
0
0
0
0
0
0
0
0
0
0
0
0
4.64489e-110
1.33155e-108
2.33682e-117
2.63751e-153
1.50596e-183
2.04241e-226
3.54842e-272
4.28552e-137
5.33081e-120
7.79573e-146
7.59385e-178
3.35563e-219
7.78089e-263
1.91786e-308
1.46611e-158
3.58284e-155
1.12017e-183
2.185e-219
4.50921e-262
2.18849e-305
0
8.76262e-199
1.23036e-194
1.34751e-224
8.29189e-264
1.78214e-305
0
0
6.0693e-258
3.12443e-238
5.97585e-270
4.14204e-308
0
0
0
2.42068e-303
1.68615e-283
8.39912e-313
0
0
0
0
0
0
0
0
0
0
0
0
0
0
0
0
0
0
0
0
0
0
0
0
0
0
0
0
0
0
0
0
0
0
0
0
0
0
0
0
0
0
0
0
0
0
0
0
0
0
0
0
0
0
0
0
0
0
0
7.05333e-150
4.69549e-176
1.68189e-157
6.19285e-196
3.59896e-228
4.02121e-273
0
9.31672e-179
3.36e-159
2.81098e-188
1.76216e-222
5.8519e-265
2.42571e-309
0
4.56594e-200
1.50777e-197
2.00956e-226
1.13796e-265
2.31668e-307
0
0
3.66177e-259
5.28344e-240
8.27178e-271
2.03229e-309
0
0
0
6.86789e-304
4.34894e-284
1.4822e-313
0
0
0
0
0
0
0
0
0
0
0
0
0
0
0
0
0
0
0
0
0
0
0
0
0
0
0
0
0
0
0
0
0
0
0
0
0
0
0
6.52963e-73
1.07138e-72
1.30223e-79
6.55545e-114
1.02771e-141
2.74512e-182
1.55524e-225
1.41839e-181
3.87252e-98
1.37633e-82
2.80838e-108
3.53946e-138
4.92263e-175
9.12027e-218
3.64359e-262
4.39881e-217
1.71745e-118
3.43264e-117
1.03247e-142
1.07591e-174
5.27191e-217
3.37666e-260
3.0311e-304
1.43374e-259
8.86517e-158
2.26393e-153
1.0293e-182
5.42703e-218
7.23823e-261
8.26293e-304
0
2.32107e-303
8.9061e-198
1.4925e-193
9.29e-224
8.48534e-263
7.01155e-305
0
0
0
1.73644e-257
6.69567e-238
1.17724e-269
1.67763e-307
0
0
0
0
3.31053e-303
2.61638e-283
9.38725e-313
0
0
0
0
0
0
0
0
0
0
0
0
0
0
0
0
0
0
0
0
0
0
0
0
0
0
0
0
0
1.95782e-225
1.75883e-271
0
1.06699e-261
1.7833e-307
0
4.51033e-304
0
0
0
0
0
0
0
0
0
0
0
0
0
0
0
0
0
0
0
0
0
0
0
0
0
0
0
0
0
0
0
0
0
0
0
0
0
0
0
0
0
0
0
0
0
0
0
0
0
0
0
0
0
0
0
0
0
0
0
0
0
0
0
0
0
0
0
0
0
0
0
0
0
0
0
0
0
0
0
0
0
0
0
0
0
0
6.46116e-272
0
1.16516e-307
0
0
0
0
0
0
0
0
0
0
0
0
0
0
0
0
0
5.6063e-112
5.35016e-140
1.97112e-135
5.55693e-174
2.34725e-173
3.39921e-215
7.59137e-216
5.55335e-259
3.65957e-260
2.09119e-303
6.20918e-305
0
0
0
0
0
0
0
0
0
9.41217e-40
1.41887e-71
3.62879e-112
2.71436e-49
1.10581e-98
4.84246e-134
8.5819e-98
1.01022e-132
5.49989e-172
2.50203e-117
9.03903e-172
1.40728e-214
2.19116e-117
1.03113e-171
1.77624e-214
7.17513e-259
2.08869e-172
7.96371e-215
4.58322e-259
3.02339e-303
1.13114e-215
1.19341e-259
1.54692e-303
0
5.12814e-261
1.31467e-304
0
0
2.09873e-306
0
0
0
0
0
0
0
7.99337e-14
5.15364e-06
0.000572403
1.05919e-05
4.07398e-07
0.00135572
1.98552e-13
0
0.000457291
0
0.00167928
0
0
0.0392563
1.05085e-05
0.000371038
9.82214e-09
0
0.0274864
0
0.0734024
1
1
1
1
1
1
1
0.5
0.5
0.5
0.5
0.5
0.5
0.5
0.796822
0.5
0.5
0.5
0.5
0.5
0.5
1
1
1
1
1
1
1
1.80084e-08
0
1.807e-08
0
0.0199465
0.0071564
0.000165293
)
;

boundaryField
{
    ground
    {
        type            zeroGradient;
    }
    outlet
    {
        type            zeroGradient;
    }
    wall
    {
        type            zeroGradient;
    }
    wall2
    {
        type            zeroGradient;
    }
    wall3
    {
        type            zeroGradient;
    }
    internalPatch
    {
        type            internal;
    }
    procBoundary0to1
    {
        type            processor;
        value           nonuniform List<scalar> 
232
(
0.00608494
0.00608494
3.2478e-06
3.2478e-06
0.00575228
1
0.5
0.5
3.82475e-06
1.90449e-07
1.90449e-07
4.08748e-05
2.56839e-05
2.068e-05
0.00276526
2.09938e-05
0.000568752
2.37191e-09
2.37191e-09
0.0119227
1
1
1
0.5
0.5
0.5
3.82475e-06
5.10011e-19
5.10011e-19
1.45152e-23
1.45152e-23
4.62451e-16
1.37076e-16
3.57967e-07
2.88673e-09
1.60444e-07
0
0.0184322
0.0482741
0.0273278
0.000368079
5.30061e-06
4.44641e-11
4.44641e-11
0.00608496
1
1
1
1
1
0.5
0.5
0.5
0.5
0.5
1
1
1.08802e-05
1.08802e-05
5.10011e-19
3.3257e-06
1.45152e-23
4.62451e-16
1.37076e-16
0.000115685
1
1
1
1
1
1
1
1
1
1
1
1
7.64812e-05
0
0
0.000795417
1
1
1
1
1
1
1
1
1
1
1
1
1
1
1
1
1
1
1
1
0.00368218
1
1
1
0.00167915
1
1
1
1
1
1
1
0.000864334
0.000864334
7.19283e-09
1.03234e-05
0.00139315
0.00017814
1.18281e-08
1.80642e-11
5.51626e-05
0
0
0.00010884
0.000309782
7.43211e-05
1.91155e-05
1.42433e-12
1.50391e-12
1.50391e-12
1.68262e-05
1
1
1
1
1
1
1
1
0.5
0.5
0.5
0.5
0.5
0.5
1
1
1
3.38347e-09
3.31567e-13
3.31567e-13
3.37181e-08
1
0.5
0.5
0.5
1
0.000123913
1
1
1
1
1
1
1
1
1
1
1
1
0.5
1
1
1
1
1
1
1
1
1
1
1
1
1
1
1
1
1
1
1
1
1
1
1
1
0.00368218
0.00368218
0.00167915
0.00167915
1.08324e-06
1.08324e-06
1
1
1
1
1
0.00183625
0.00183625
1.08324e-06
1
1
1
1
1
1
0.5
0.5
0.5
0.5
1
1
1
1
1
1
1
1
1
1
1.38023e-07
1
)
;
    }
    procBoundary0to2
    {
        type            processor;
        value           nonuniform List<scalar> 
97
(
1
1
1
1
1
1
1
1
1
1
1
1
1
1
1
1
1
1
1
1
1
1
1
1
1
1
1
1
1
1
1
1
1
1
1
1
1
1
1
1
1
1
1
1
1
1
1
1
1
1
1
1
1
1
1
1
1
1
1
1
1
1
1
1
1
1
1
1
1
1
1
1
1
1
1
1
1
1
1
1
1
1
1
1
1
1
1
0
0
0
0
0
0
0
0
0
0
)
;
    }
    procBoundary0to3
    {
        type            processor;
        value           uniform 0;
    }
    procBoundary0to4
    {
        type            processor;
        value           nonuniform List<scalar> 
160
(
0
0
0
0
0
0
0
0
0
0
0
0
0
0
0
0
0
0
0
0
0
0
0
0
0
0
0
0
0
0
0
0
0
0
0
0
0
0
0
0
0
0
0
0
0
0
0
0
0
0
0
0
0
0
0
0
0
0
0
0
0
0
0
0
0
2.30452e-275
6.40715e-239
5.21352e-201
8.64333e-186
2.11375e-192
8.91326e-220
9.90129e-262
9.7109e-306
0
0
0
0
0
0
0
0
0
0
0
0
0
0
0
0
0
0
0
0
0
0
0
0
0
0
0
0
0
0
0
0
0
0
0
0
0
0
0
0
0
0
0
0
0
0
0
1.97626e-312
1.63891e-269
1.83069e-230
1.13332e-201
1.76544e-242
1.57607e-285
0
0
0
0
0
0
0
0
0
0
0
0
1.96342e-310
0
0
0
0
0
0
0
0
0
0
0
0
0
0
0
5.45788e-274
0
0
0
0
0
)
;
    }
    procBoundary0to6
    {
        type            processor;
        value           uniform 0;
    }
}


// ************************************************************************* //
