/*--------------------------------*- C++ -*----------------------------------*\
  =========                 |
  \\      /  F ield         | OpenFOAM: The Open Source CFD Toolbox
   \\    /   O peration     | Website:  https://openfoam.org
    \\  /    A nd           | Version:  9
     \\/     M anipulation  |
\*---------------------------------------------------------------------------*/
FoamFile
{
    format      ascii;
    class       volScalarField;
    location    "0.00145";
    object      impulseMax;
}
// * * * * * * * * * * * * * * * * * * * * * * * * * * * * * * * * * * * * * //

dimensions      [1 -1 -1 0 0 0 0];

internalField   nonuniform List<scalar> 
11285
(
2108.93
10231.2
8055.19
1828.89
823.812
1862.72
1085.85
2077.02
1899.5
819.037
556.186
499.459
803.325
592.314
10661.5
1228.83
1177.55
1151.03
1999.17
3064.06
1989.09
1101.1
2098.74
2161.86
2590.2
1932.2
132594
8384.66
5231.38
1046.49
2029.92
1977.12
2607.57
130775
4342.89
9370.61
980.749
742.614
1828.95
703.008
988.524
1902.81
847.962
1923.27
692.281
822.084
797.656
1367.42
1528.34
3697.06
1121.16
820.237
1801.06
685.923
1800.38
720.481
956.48
1886.2
669.504
794.86
762.544
1405.03
762.646
1321.03
3887.85
1162.94
1960.87
1058.48
1161.06
3055.29
1755.13
2059.2
975.434
8251.69
2468.42
1901.5
128977
5457.32
8251.09
816.439
699.195
844.19
1490.88
1522.63
4360.18
1160.51
602.52
435.618
444.125
856.089
477.046
486.348
711.096
1226.01
1191.77
498.599
382.892
1757.04
505.482
963.081
828.927
1459.82
767.534
672.073
1056.56
1430.28
3621.63
436.323
527.947
419.369
660.658
454.509
829.85
477.682
2197.94
2001.89
944.275
1998.46
128730
10660.1
5413.25
896.012
486.905
503.856
1238.5
384.898
1780.62
502.595
11512.4
7538.48
5538.95
23932
4537.43
17509.3
16849.4
12997.7
6731.35
8141.12
36608.3
14410.2
11519.9
4327.21
4377.98
1712.25
3243.2
2741.26
2782.07
2190.68
5679.04
1049.34
813.071
736.658
1186.03
721.089
1129.2
1191.23
8365.92
5791.9
5986.5
23087.6
5271.37
27734.9
18327.4
795.234
1114.11
744.887
1416.55
678.011
1390.88
829.943
1051.33
1443.75
1179
962.741
1334.23
950.698
1007.5
1044.28
940.801
1407.4
1152.01
944.297
1319.22
985.929
1277.03
3072.36
1145.13
3054.64
1197.6
1192.05
3005.91
1000.52
1628.71
1585.43
1033.31
1655.17
1039.48
1002.93
4659.92
3545.06
2736.48
1847.61
3195.9
2600.88
6625.39
5264.51
3957.74
3934.69
2053.77
3303.15
10912.5
3368.36
4727.17
3598.36
2890.66
1832.25
3017.41
2526.04
5622.01
18709.7
104685
77160.3
80268.7
79113.7
43469.1
29497.2
12486
6638.02
8084.03
34410.1
15668.5
4469.56
13139.3
8644.86
3694.49
3576.59
14689.2
3212.04
12026.5
12634.1
3390.77
1470.02
1516.85
1448.62
2074.85
2079.31
1850.26
4403.56
2661.66
3306.97
1748.83
2560.61
3044.85
6671.37
4351.74
3152.32
2543.55
1707.6
2535.1
6625.49
3024.97
5049.95
3896.55
3916.34
2041.59
11312.7
3351.38
3366.43
16542.6
72350.9
49045.7
93195
81675.4
49349.4
49938.1
9754.03
4289.84
4176.86
24006.4
3070.82
9335.25
8919.37
12618
6203.21
8034.99
27404
15231.6
4329.24
13592
3305.02
1384.72
1368.76
1467.59
1748.12
1982.82
1972.2
1108.21
777.884
779.148
1183.41
724.915
1110.91
1131.74
1229.52
1004.41
2125.67
1324.04
1786.16
917.06
1315.15
1256.64
1063.8
2362
1406.77
1838.36
1342.5
918.332
1521.13
2034.63
2992.36
3071.81
2672.17
1712.94
1847.98
1030.07
750.871
722.585
1176.32
683.527
1113.61
1030.31
1178.65
1350.37
994.556
2170.96
868.115
1704.79
1211.52
1174.4
1265.75
978.642
2036.58
1254.12
879.876
1686.73
1405.18
1844.75
2720.12
2727.89
1734.34
2448.74
1701.36
977.635
933.996
1098.88
1312.03
919.928
1299.35
994.271
975.713
1098.74
1312.37
937.863
992.359
914.013
1298.64
1233.29
3045
1136.16
3030
1189.08
1186.69
2980.4
973.438
1698.97
1696.78
1068.08
975.236
1407.17
967.849
3042.7
1329.33
1441.38
1328.4
1922.62
1922.85
1771.43
10385.3
5844.38
7195.78
30013.1
4021.28
13390.9
15463
4666.22
1906.27
3538.5
3537.88
3070.4
3070.17
10102.8
4377.71
1711.96
2742.52
3243.49
5678.02
2782.83
2190.91
20535.6
100522
97219.3
100521
28568.6
28568.9
68541.8
6957.79
3523.15
3526.27
13142.5
12930.6
3194.81
12932.2
10385.2
7195.22
5844.41
30013.3
13390.6
4020.99
15463.1
1138.87
784.46
791.236
1259.49
738.998
1146.7
1197.54
1286.23
1068.48
2292.74
1404.06
1890.1
959.673
1368.55
1271.02
1051.01
2348.87
1418.25
1871.1
1330.42
920.79
1582.43
2024.47
3025.35
3081.98
2780.51
1886.84
1883.28
828.385
1452.72
753.633
1209.56
1355.76
709.646
812.127
820.634
718.904
1389.63
1171.41
1360.27
811.281
698.487
607.966
399.239
566.112
400.485
575.493
592.189
403.286
894.298
1704.46
1698.39
930.455
1577.45
901.991
893.603
1149.68
947.366
1279.33
1985.38
873.451
1310.63
1895.85
1174.24
1015.33
1268.76
2068.91
1412.9
913.022
1892.79
1603.73
2147.1
3348.39
3384.36
1635.15
1782.2
2368.65
6354.86
4385.58
2028.17
4386.13
2816.53
7215.25
2816.44
5258.27
3782.64
1826.37
3068.04
2713.19
2314.8
5668.97
2865.14
1347.83
1295.32
1295.22
2029.98
2030.52
1838.71
5257.55
1825.75
3781
3061.42
5669.27
2713.39
2312.72
33534.6
103320
103320
96501.4
26291.8
36747.8
26291.4
8365.31
5791.8
5985.29
23087.5
18325.7
27734.8
5270.79
6862.06
3629.22
3629.35
13462
13594.2
3617.85
13593.8
797.177
1109.87
1411.45
734.849
844.816
679.61
1390.6
603.13
404.367
577.745
402.954
604.429
591.118
404.969
925.901
1789.49
1791.32
962.697
912.727
1524.61
913.709
358.022
1724.53
1828.39
725.947
1703.95
388.745
1894.31
1323.54
539.324
903.357
559.058
536.509
435.149
553.734
443.912
477.543
357.18
395.514
544.966
376.633
521.822
480.308
961.729
1867.79
828.383
687.774
1802.26
721.431
1803.58
1088.3
3887.39
1404.46
664.027
764.217
792.606
761.234
1172.07
1265.18
2035.72
979.06
881.044
1254.61
1686.52
1403.64
2727.87
2719.38
1844.2
1735.79
1700.79
2448.42
1174.73
1348.44
2169.59
992.441
863.342
1211
1703.51
1033.71
1177.52
761.184
723.952
679.595
1101.61
1028.75
342.594
331.827
314.151
422.56
357.519
407.117
379.863
707.843
1793.4
630.005
630.588
1774.82
584.263
1794.45
1716.54
544.866
541.006
594.319
1745.61
606.831
1755.83
1722.59
539.976
540.093
573.427
1751.46
554.176
1760.25
323.956
342.778
320.064
1687.94
1538.19
1666.86
334.6
1541.3
266.046
316.914
304.827
285.725
325.649
344.902
282.562
313.436
325.921
313.156
299.055
304.33
281.572
308.624
273.31
312.704
337.641
327.529
299.057
291.515
284.249
304.163
324.47
293.339
291.29
309.487
279.866
274.827
318.919
299.929
321.757
315.542
300.943
287.614
284.575
303.333
1679.53
517.785
518.711
519.846
1631.49
516.118
1643.09
339.384
338.555
341.123
316.045
327.159
319.236
325.616
280.477
271.37
268.303
285.465
276.671
271.77
288.831
308.385
309.007
263.165
300.068
268.976
301.731
263.421
337.665
334.23
341.686
319.188
334.6
330.114
321.77
1688.75
527.717
541.111
533.411
1648.83
553.472
1649.41
338.78
280.063
268.79
308.615
276.262
267.377
323.487
557.848
1544.4
564.509
535.795
1593.56
531.002
1602.36
279.727
292.962
272.501
289.986
281.393
275.029
296.201
312.52
298.065
296.507
302.781
318.251
305.106
317.193
581.804
1518.48
608.188
551.39
1595.81
575.718
1603.66
322.409
301.222
307.436
307.523
327.797
322.027
312.98
352.243
343.851
873.94
396.05
406.213
389.316
3620.18
828.713
550.219
518.947
696.963
520.688
432.039
557.989
428.892
484.904
372.076
405.872
567.405
384.695
495.889
542.809
1459.99
1468.99
1055.57
671.109
806.727
768.262
828.4
660.672
453.768
476.742
527.628
435.288
591.525
418.815
1605.35
3348.49
3388.77
2147.29
1635.46
1786.93
2370.13
1150.11
1986.56
1279.33
949.224
1310.85
875.378
1896.84
1172.09
2067.62
1269.06
1020.8
912.611
1410.34
1890.89
1049.22
1184.42
735.83
780.975
1128.36
722.297
1191.65
322.29
358.018
336.043
420.566
362.605
415.502
370.887
456.808
524.434
423.66
456.604
376.479
395.77
406.503
377.552
357.842
362.53
440.547
394.942
463.232
384.277
364.41
350.649
356.223
402.642
363.249
374.117
373.269
164.25
2.52852
167.717
159.528
38.0342
46.1799
39.2551
94.6507
171.002
10.6627
43.8139
4.18903
152.155
155.442
29.4018
64.0628
19.1938
131.911
0.207702
80.7712
40.9002
16.1417
7.88577
0.0600667
159.09
101.064
160.53
97.466
155.119
96.0731
92.2712
104.406
164.281
101.069
169.909
166.713
106.404
103.331
170.933
168.236
167.981
107.089
107.18
104.403
104.5
157.982
158.527
95.0221
164.205
163.794
100.305
100.545
96.4339
153.269
90.3327
93.1004
156.206
162.269
98.97
92.5365
148.894
86.1625
149.816
142.948
87.1152
80.5053
143.239
147.997
138.83
80.7202
89.3281
85.374
76.6467
124.896
73.1878
135.092
142.403
132.809
80.025
71.1151
117.74
127.153
112.598
70.159
65.9971
57.7472
53.5736
96.3775
53.1644
112.011
120.59
105.527
60.3307
47.9237
75.2471
100.587
95.1709
29.6606
43.9353
39.9243
26.0911
10.0854
43.8063
9.12333
10.5954
47.4632
45.3356
9.72585
10.7414
47.713
47.8614
45.9878
9.94647
45.9628
9.97075
6.91351
36.1077
6.25384
40.4679
7.81771
42.2285
8.4852
39.0463
7.26642
7.34348
43.1013
8.83998
43.2025
8.8045
9.1299
41.2292
8.11801
7.72391
40.2172
37.5192
6.74415
33.2266
5.31235
4.17325
37.7001
6.80862
33.8948
5.5257
6.00734
29.498
35.4009
32.6916
3.4953
5.1411
26.8666
58.4998
28.1111
78.2765
67.7824
87.7517
34.575
21.4625
24.6745
2.96348
1.84505
29.0879
2.67344
4.08744
23.3921
22.7542
2.04539
20.3012
1.2857
15.6497
13.5256
1.01566
13.3407
0.994667
0.464699
1.50144
17.0981
10.844
0.725056
0.560365
4.11227
9.0679
7.49651
0.156206
0.434486
3.19727
1.29876
3.71249
0.184623
5.61747
0.103463
0.301523
2.18982
1919.93
4145.12
1815.2
554.093
1717.89
338.282
1709.71
404.056
688.959
960.276
1899.42
1823.52
835.737
719.996
1823.9
679.644
1336.53
1520.76
784.317
1110.67
796.396
813.607
600.893
548.578
944.858
464.903
739.435
590.764
459.436
403.739
492.118
561.15
380.816
528.66
389.014
511.668
1514.29
2805.53
3038.06
1919.63
1868.8
2732.16
1803.73
1215.63
2045.95
1286.46
950.637
896.056
1757.73
1254.83
1262.23
2352.69
1408.34
1048.09
1321.42
1846.01
914.925
1120.15
1245.87
766.383
778.248
1112.54
715.588
1072.25
639.06
633.442
1858.57
1786.63
714.55
1812.58
591.653
438.376
385.763
360.222
357.248
374.046
438.28
396.748
543.399
595.995
1759.41
1718.18
604.773
544.7
1766.95
579.186
1754.73
553.619
1726.36
549.33
1770.04
564.843
3687.94
585.778
492.041
469.311
338.012
366.871
404.072
359.396
692.876
1517.95
1395.57
797.423
1144.2
800.066
810.167
558.546
558.085
945.01
460.437
758.943
590.704
458.972
545.419
823.659
469.845
428.79
704.009
580.393
426.406
400.444
490.782
566.763
377.837
509.115
528.874
384.882
1535.94
3075.51
3125.33
2114.91
2576.4
1761.52
1656.04
1231.94
2286.45
1409.33
1042.67
1845.99
1322.26
915.957
1219.87
2034.08
1344.8
984.048
1843.8
928.099
1311.81
1057.58
1155.43
756.751
756.544
1154.23
723.166
1147.96
420.083
489.456
449.616
399.099
575.87
416.611
437.62
439.031
382.838
352.66
355.869
436.822
369.285
393.121
358.021
382.855
443.932
388.146
457.192
378.667
387.704
365.999
422.454
381.702
367.328
375.959
388.482
396.401
221.24
211.529
218.89
207.188
306.701
300.913
310.05
308.393
288.02
287.626
300.077
303.024
304.239
288.185
287.867
303.409
289.252
288.924
309.126
306.506
288.596
288.363
306.33
309.398
307.577
287.303
284.543
287.029
284.767
310.572
310.051
309.208
287.238
283.014
284.277
286.341
287.443
324.465
315.086
290.285
312.33
297.102
272.639
251.112
247.046
260.051
264.121
257.126
260.372
267.05
270.613
259.866
283.983
272.243
277.181
267.324
277.199
286.494
293.648
295.538
276.437
280.239
280.305
283.819
298.809
273.624
288.685
271.156
295.163
279.074
282.109
297.477
303.416
297.805
287.427
289.828
311.831
304.206
298.333
301.877
294.844
279.336
287.687
309.432
302.289
295.362
303.096
304.588
289.996
293.133
317.501
307.182
306.144
298.303
317.937
320.901
317.79
311.875
310.866
305.726
221.197
258.533
258.31
257.429
219.291
219.05
257.464
257.816
220.524
258.656
216.135
256.994
218.07
255.725
251.416
211.057
255.067
216.184
215.781
255.228
251.22
212.324
209.603
254.314
248.435
214.547
250.245
252.679
308.864
241.735
255.859
311.845
198.167
273.582
208.943
309.417
310.05
288.677
311.129
311.385
287.098
286.473
284.41
280.859
277.868
307.781
310.894
310.106
284.388
281.536
311.27
306.87
310.17
278.086
282.899
280.726
275.642
304.543
267.383
299.585
303.819
307.96
277.665
272.197
216.156
211.953
252.472
213.128
208.658
253.434
249.812
203.555
204.28
198.663
245.541
241.679
249.974
246.211
206.235
247.796
198.876
202.767
195.186
244.986
238.814
291.617
325.245
315.818
1641.89
1570.74
1699.57
326.823
446.559
1774.96
356.219
292.57
315.228
327.683
365.485
369.243
437.469
361.436
362.336
387.973
444.209
340.559
378.887
398.443
356.55
439.46
370.071
352.602
382.243
337.788
393.19
557.097
1733.18
1757.2
586.736
1722.96
556.64
567.522
425.185
377.667
392.446
367.96
383.148
368.142
397.263
315.612
324.816
343.08
297.808
335.871
313.384
342.145
354.65
318.837
354.021
350.547
327.559
353.787
370.12
306.869
314.291
329.798
328.046
299.211
313.186
313.045
341.797
321.299
341.784
348.949
327.564
334.636
362.041
336.977
350.884
345.929
346.852
344.191
331.749
354.867
548.128
559.762
1634.69
1689.03
571.648
1682.9
544.245
567.144
1671.08
566.008
1732.29
583.747
1702.27
561.094
360.397
363.068
360.149
373.87
365.8
353.236
376.508
372.178
348.786
305.263
314.705
350.943
312.942
359.51
326.405
328.493
307.049
317.142
319.724
314.647
329.748
636.098
581.003
1612.96
1630.64
601.083
607.113
1664.33
343.028
347.536
350.878
359.776
337.843
357.858
347.9
360.137
333.957
288.446
242.236
319.211
343.735
322.486
301.254
300.395
343.829
271.876
343.36
281.426
348.733
293.909
316.03
313.953
354.993
361.244
297.635
357.238
328.236
339.495
319.138
336.516
314.535
342.316
345.65
310.071
274.42
247.353
247.613
259.357
254.921
268.679
264.21
275.33
287.019
258.945
289.281
268.974
274.469
303.748
332.518
356.746
349.062
325.845
360.011
354.468
337.724
297.792
309.947
306.351
294.141
279.265
289.584
283.36
308.68
330.589
318.683
304.78
304.825
292.203
318.699
324.327
293.743
339.645
329.361
360.234
362.794
331.12
361.848
353.282
358.715
361.703
358.746
339.224
336.392
345.917
364.065
353.344
362.655
362.555
347.382
354.239
360.183
310.489
321.695
307.278
305.565
319.843
332.377
320.539
341.256
341.226
347.021
349.574
354.707
349.054
349.713
364.876
357.099
364.019
360.349
357.505
357.835
363.677
342.227
318.723
332.106
342.957
341.942
331.672
351.616
331.682
335.308
338.553
340.812
342.519
346.376
332.869
363.932
350.286
350.955
351.464
355.105
342.219
358.753
304.49
319.365
325.036
331.729
327.68
321.642
345.635
323.227
289.917
288.2
304.363
298.202
313.095
298.461
312.123
310.361
334.539
323.627
321.499
309.258
321.684
332.853
333.118
333.976
319.682
339.696
327.076
326.187
340.398
311.68
310.696
297.96
318.031
305.634
317.963
325.417
336.13
357.075
347.707
356.779
334.894
349.403
345.654
323.925
327.263
315.468
327.464
329.561
328.259
339.151
328.511
325.296
341.136
332.751
331.097
330.13
345.399
344.963
341.334
328.903
328.627
330.457
347.159
345.809
192.126
190.125
183.33
236.468
229.272
241.287
234.774
2.87238
0.0148887
101.665
58.7867
132.718
6.92852
135.018
0.246116
84.2761
136.855
84.258
2.94828
0.245213
80.568
2.61714
121.515
1.0155
0.204547
57.389
0.055254
0.590678
0.0488983
72.6262
11.7738
0.00131473
46.2574
0.0272185
121.045
136.558
122.642
72.8305
74.1302
61.6591
60.4073
40.5977
0.000807343
0.0752956
62.4029
0.0744199
6.78232
0.0163659
135.66
121.442
122.859
73.4417
74.4254
61.8622
60.7644
0.0606319
1.22278
37.2125
5.55501
0.000107352
0.0148214
0.0126937
128.1
118.175
113.018
70.9237
66.8261
58.1339
53.9029
112.759
96.3676
105.788
53.7345
61.0874
48.0907
40.8381
104.046
85.9377
105.693
47.6804
31.9696
46.4969
33.035
104.219
86.0033
105.831
47.7974
31.9605
46.6421
33.0797
88.2037
84.6911
44.884
70.9304
34.887
32.4134
23.3574
100.679
74.8058
95.1063
29.5218
44.0109
39.8556
25.7811
1.26806e-05
0.742084
0.000298996
0.190287
27.6045
4.92425e-05
0.00695653
67.0247
77.6157
87.4209
34.3051
15.5
27.6266
20.9703
55.6585
39.794
55.6588
14.5687
24.4218
14.5693
7.33819
24.353
3.04811
25.137
17.7231
1.4838
17.0459
1.58465
3.08824
24.7161
25.32
17.8309
1.50795
1.60034
17.2281
23.2079
2.1217
20.7545
1.30828
15.8414
13.6638
1.02758
65.8244
34.2397
52.5025
10.0277
20.2604
12.9598
5.39782
62.5617
64.1488
41.9958
18.2899
19.1447
8.20095
7.68023
64.148
40.3592
41.947
18.1998
19.1397
8.17719
7.58871
53.2322
37.1171
32.2735
16.2315
13.3478
6.41571
4.83313
1.55056
13.5812
17.4737
10.8869
0.456396
7.82756
0.724691
10.6427
0.653667
4.7589
0.264761
10.1359
0.699694
5.07075
10.6885
0.265047
4.75161
0.657256
0.70334
10.1895
5.08007
45.929
19.1894
26.1254
6.43382
9.90827
3.16215
1.73885
4.06823
0.560309
9.08798
7.45283
0.1511
3.11535
0.42919
9.46588
0.302364
5.68522
0.253137
4.90557
2.55589
0.120447
24.5543
22.2646
38.3884
6.81679
0.739523
2.74815
2.27098
5.50848
0.175126
0.0977739
1.20496
3.56796
2.08698
0.2926
17.9383
12.2368
3.49637
6.37253
1.51482
0.804328
0.321932
20.8372
7.48303
21.9114
2.24052
0.373056
2.04482
0.411024
7.43154
20.5987
21.8394
2.22514
0.363051
2.0006
0.407024
18.1374
3.98323
14.628
0.28359
1.58643
1.09416
0.191455
0.132246
1.07778
2.78572
1.07789
0.0172236
0.390987
0.0489035
0.0903896
0.605254
1.94707
0.891544
0.0115853
0.26638
0.0403558
1.6141
0.08164
1.74942
0.462563
0.0192816
0.424995
0.0209967
0.08143
1.59833
1.74686
0.460345
0.0189444
0.418054
0.0208788
2.42207
6.51715
10.5265
0.653174
0.054342
0.338417
0.110471
1.30891
0.0434149
0.94569
0.0152002
0.337504
0.23904
0.0106286
3.76437
9.51097
2.51778
0.169058
0.541868
0.110247
0.0315772
0.0272082
0.334453
0.599864
0.147048
0.00336701
0.0777887
0.00643513
0.521152
3.303
1.30142
0.0228462
0.151048
0.0565434
0.00813158
0.355614
0.00514673
0.0316302
0.00419982
0.12218
0.0997944
0.0156505
0.0185447
0.0168342
0.000733425
0.103018
0.00413777
0.0938864
0.00453748
0.000712421
0.000799211
0.0183582
0.102206
0.00404185
0.09176
0.00450222
0.161671
0.00281116
0.066241
0.00151937
0.0355043
0.0139435
0.000592423
0.000552803
0.00318293
0.0723774
0.0495594
0.0003682
0.00845079
0.00216073
0.0577967
0.116356
0.420287
0.0180097
0.000646426
0.00486164
0.00245057
0.0293112
0.00233322
0.000636531
0.000210779
0.0149242
0.00480123
0.00126065
0.00708881
0.000986691
0.0233696
0.00462984
6.37999e-05
0.00130742
0.00019988
204.367
282.393
210.004
312.745
172.709
269.202
298.616
181.91
313.643
310.782
311.305
285.533
285.877
280.833
280.77
276.672
311.682
307.538
313.079
309.932
284.551
279.149
299.01
306.112
306.161
273.995
265.952
265.335
274.233
301.36
259.538
293.087
296.386
304.253
272.041
262.989
209.423
250.907
250.767
244.6
202.873
244.964
202.099
246.587
196.427
239.976
207.403
249.096
242.693
199.807
236.823
193.746
180.573
227.977
226.997
237.432
192.721
186.075
231.423
220.478
234.613
177.447
224.352
190.067
292.219
301.795
161.977
229.183
262.83
274.65
305.576
305.56
343.025
343.144
292.312
228.659
148.879
284.958
175.493
279.15
194.143
172.362
264.956
338.857
289.185
224.46
277.687
336.588
200.107
268.906
342.103
358.869
359.326
344.579
345.741
327.615
326.431
341.961
359.467
358.817
344.595
345.917
327.735
326.274
355.786
350.426
341.244
335.986
334.001
323.024
318.049
217.142
220.868
132.84
265.838
328.137
187.837
258.542
273.023
308.805
303.795
304.635
274.74
298.945
267.918
132.956
250.856
274.944
218.525
105.984
243.668
160.431
343.943
320.858
319.666
329.143
327.597
311.052
302.14
292.826
260.945
299.405
268.852
292.807
260.934
251.757
292.528
303.179
319.887
293.658
320.862
304.356
276.072
307.273
326.871
328.392
308.724
284.351
307.039
286.202
284.58
307.219
326.855
307.119
328.183
308.639
286.175
293.704
320.962
319.709
304.397
274.351
302.944
276.039
297.139
254.409
288.243
281.565
291.455
258.849
247.285
323.353
296.036
317.999
280.48
303.564
298.244
274.72
316.673
284.422
311.979
270.855
299.614
294.535
265.56
318.017
310.96
310.127
299.353
298.966
291.535
279.414
184.68
200.065
243.013
191.515
235.966
238.138
230.311
274.935
273.102
284.161
250.698
227.318
240.546
238.22
287.891
301.236
310.568
290.638
256.521
281.009
266.626
277.645
296.959
305.383
287.321
249.031
278.148
258.265
284.186
250.711
273.121
262.837
240.549
238.226
227.316
306.059
271.711
271.295
286.193
286.187
265.688
250.267
163.609
186.118
175.489
222.595
231.511
222.59
212.554
259.174
253.462
282.808
284.325
231.112
255.148
260.938
284.307
230.946
258.783
253.058
282.501
255.048
260.854
156.95
165.977
180.298
226.696
214.864
220.058
207.22
290.181
252.452
277.511
244.769
269.734
256.872
231.325
286.882
246.521
275.187
238.148
267.321
254.897
225.506
254.772
249.19
278.842
273.373
218.428
248.906
243.541
263.811
237.111
250.856
214.595
228.554
214.591
199.72
259.641
231.981
248.575
206.275
223.486
211.895
193.81
148.879
211.254
200.201
145.418
197.423
185.301
131.173
131.175
161.972
145.418
211.25
185.307
200.201
197.425
265.709
210.301
230.847
226.219
256.048
240.88
235.845
246.816
232.803
261.878
240.825
194.089
224.869
210.949
247.52
237.549
263.361
242.391
198.704
226.094
216.092
304.53
306.615
260.637
259.009
297.212
298.11
223.534
222.517
301.014
289.5
288.622
303.683
300.185
288.87
289.909
304.587
302.816
300.727
289.731
291.877
291.187
290.839
298.717
296.335
297.184
287.591
287.614
289.052
286.331
287.145
286.718
297.798
297.157
297.444
286.971
285.93
259.718
223.472
259.73
223.594
260.667
258.858
223.536
222.05
221.93
261.052
260.701
223.176
261.523
223.137
259.876
221.576
220.588
221.953
259.353
259.937
222.757
222.491
258.79
258.383
259.033
223.211
258.314
223.186
291.168
366.595
483.969
317.007
379.879
307.359
478.154
287.667
396.068
1184.25
312.475
308.768
361.952
313.715
478.201
295.903
394.362
454.288
393.345
347.576
346.952
703.588
585.218
442.856
722.597
1022.73
530.974
455.768
292.545
285.78
288.68
321.567
312.491
301.561
307.481
322.757
322.341
369.468
337.096
365.595
331.596
365.279
316.818
303.235
289.781
285.604
288.612
312.02
301.051
302.237
313.718
298.826
306.299
323.31
310.979
319.19
320.495
314.034
299.118
313.373
298.421
305.743
318.875
318.705
346.653
368.963
331.828
354.185
294.451
347.799
329.887
310.198
294.707
309.551
301.652
332.494
368.436
520.822
333.677
390.802
355.838
476.345
431.08
549.56
697.399
710.945
1045.27
1141.54
707.533
712.652
1007.55
325.385
317.575
302.779
321.672
307.79
326.978
339.781
217.883
287.234
206.585
298.99
191.529
279.201
207.442
411.309
476.952
389.736
353.681
430.699
370.76
425.297
426.173
399.225
360.198
474.369
386.24
350.345
423.533
329.009
344.331
328.196
342.516
334.144
357.774
362.473
328.42
346.595
342.814
339.314
334.577
357.977
362.791
336.257
353.16
315.521
368.189
436.478
412.522
388.296
395.996
567.262
521.72
507.221
477.644
580.538
603.641
344.03
398.177
361.014
378.881
357.563
395.12
351.82
379.997
349.931
357.139
341.458
378.799
394.149
350.192
328.996
342.254
317.246
353.842
356.893
364.735
355.342
333.092
349.843
338.14
357.031
356.738
365.164
362.71
425.7
422.58
378.799
396.879
473.088
445.709
421.539
618.843
549.6
488.387
547.069
513.015
600.608
619.356
1085.74
721.676
716.785
711.592
908.673
707.261
960.897
340.285
290.11
238.992
321.917
353.04
282.752
340.693
377.409
364.033
365.954
375.689
369.939
388.928
369.158
919.263
683.08
811.748
699.737
787.814
675.992
889.044
365.669
366.373
361.393
363.734
352.24
353.102
364.887
368.544
366.287
361.419
366.541
358.555
367.375
359.467
369.503
368.737
361.314
366.789
358.906
367.928
359.737
366.018
365.971
361.82
363.335
350.602
363.596
352.41
345.646
356.246
360.564
351.519
357.908
355.081
346.111
312.476
314.04
313.613
291.104
289.799
288.588
286.637
403.51
462.794
450.009
404.852
453.768
401.054
413.06
367.594
362.015
367.548
355.306
365.284
358.304
349.137
309.988
243.702
257.251
311.589
310.798
258.863
280.856
210.069
308.591
289.336
307.822
311.256
289.765
288.272
287.692
308.854
313.601
312.174
291.49
290.712
289.116
289.652
376.177
358.488
369.681
354.355
369.815
379.011
363.625
693.26
757.51
808.754
651.983
683.211
665.712
851.434
538.571
526.354
525.618
611.224
606.916
613.53
614.732
366.745
353.256
362.546
346.95
361.286
353.326
338.811
283.752
313.494
312.035
309.081
279.853
312.069
283.777
311.902
310.154
311.969
284.886
279.672
284.273
280.288
311.323
285.928
313.695
310.848
312.82
285.616
280.84
350.535
349.807
344.571
345.773
339.037
339.623
332.536
356.74
337.71
324.379
342.806
339.22
355.943
344.255
356.256
324.024
342.331
336.641
354.887
338.644
343.908
342.444
343.316
353.378
343.751
319.387
334.456
329.373
354.866
353.757
361.376
349.52
333.75
341.264
341.663
309.997
284.618
313.155
307.606
311.758
282.446
276.713
690.32
428.836
554.431
820.872
1211.04
706.061
570.933
422.951
323.63
314.99
415.583
491.133
376.597
506.843
363.178
499.778
319.917
370.115
314.468
414.531
489.795
362.036
1196.68
1214.81
682.939
706.037
1058.77
709.662
1076.37
688.533
708.443
1070.46
1221.73
683.288
706.427
1081.89
564.891
476.775
621.264
543.737
578.048
613.676
454.264
614.965
545.203
464.043
563.17
540.375
611.813
450.871
706.542
930.392
688.522
832.371
706.867
690.074
945.314
939.742
687.656
828.051
706.763
835.866
689.984
949.638
332.986
338.84
351.286
343.882
312.697
326.129
332.82
267.943
304.665
274.758
303.859
308.864
279.186
273.058
347.453
332.307
340.92
325.104
333.659
325.039
314.655
218.051
214.069
254.157
258.136
219.109
215.204
255.071
219.597
215.592
219.324
215.111
259.065
255.641
255.648
213.301
258.017
254.158
210.517
215.273
255.877
251.792
346.161
330.877
339.733
326.661
334.198
324.456
313.951
335.033
308.894
325.95
312.163
327.721
316.873
297.523
335.305
304.526
307.694
316.173
326.472
317.575
325.132
211.548
252.648
201.239
206.578
248.417
243.962
248.43
208.499
249.587
201.358
209.695
202.615
250.476
244.636
209.469
202.939
202.145
244.632
250.812
250.976
245.027
199.845
242.733
249.144
196.449
204.389
246.617
240.001
321.155
321.798
332.489
314.571
288.184
301.789
302.39
296.48
305.766
316.993
306.208
269.615
284.021
293.739
567.755
513.751
384.638
399.937
294.002
318.616
338.582
299.497
545.484
497.597
486.404
407.163
373.343
406.127
385.678
573.929
498.332
545.538
406.683
381.969
408.638
388.429
1605.72
317.009
358.111
377.902
441.012
395.687
464.908
390.228
363.091
395.543
364.709
450.342
382.841
468.496
389.942
365.123
304.088
288.156
301.008
317.323
330.36
337.434
328.637
328.194
284.997
313.698
291.739
304.495
338.267
325.761
300.8
1347.01
288.878
276.604
543.142
609.073
335.216
285.768
310.796
275.235
278.756
314.957
278.01
313.749
327.135
318.266
328.692
343.2
342.442
344.549
342.003
325.508
316.069
339.558
319.285
327.024
345.28
341.237
272.405
276.907
289.007
282.685
268.834
280.683
271.789
264.104
269.406
302.579
309.092
263.715
309.534
266.713
273.461
309.685
309.809
313.477
270.164
271.464
316.002
288.729
275.454
287.318
282.451
271.587
272.925
282.218
1767.07
1756.45
480.938
546.257
1638.72
286.739
273.841
1646.59
522.094
548.623
481.105
396.721
358.565
378.299
388.175
503.186
518.759
566.578
416.255
384.411
405.47
397.213
626.577
1774.41
609.974
561.553
1726.96
1717.92
556.935
594.959
1747.02
607.347
545.553
1719.11
541.934
1706.97
350.171
317.195
316.842
292.045
326.357
319.919
342.227
335.458
299.694
282.019
305.116
326.982
313.34
309.297
530.517
1681.89
530.125
1633.09
524.963
1673.89
532.147
518.496
1682.95
1635.06
520.605
519.632
516.906
1670.52
1596.86
536.482
531.788
558.564
1547.35
565.075
1544.08
302.714
304.982
317.965
297.879
312.352
296.418
313.123
1592.41
1591.26
536.407
569.51
1530.47
560.571
1535.91
319.562
304.698
298.625
304.441
317.874
297.616
313.046
327.552
271.528
366.221
286.335
330.548
271.95
360.252
370.999
292.703
276.249
329.855
287.669
274.634
361.473
281.649
270.302
283.561
275.339
280.741
271.923
283.273
282.365
273.063
285.437
281.429
275.627
272.522
283.14
1443.94
652.836
1330.35
598.784
1346.24
643.925
1455.28
295.318
310.455
295.357
310.655
294.523
310.83
295.34
313.221
297.046
298.085
295.314
310.932
310.936
295.537
598.365
1461.54
650.751
1354.36
605.828
643.911
1463.73
455.262
1606.69
360.744
322.03
313.764
1576.46
344.815
323.612
1324.01
299.877
1151.46
384.156
300.453
340.672
290.302
314.435
280.328
333.691
333.054
308.98
276.624
267.832
269.118
320.31
338.751
280.341
296.527
281.757
275.566
272.961
285.973
280.17
293.272
339.605
288.266
310.94
344.622
341.758
332.507
332.756
1598.21
575.931
551.83
1540.86
582.109
608.274
1520.66
327.923
307.636
313.196
316.924
301.301
307.645
322.539
538.64
1129.73
842.05
1458.61
405.709
1073.84
448.536
359.813
397.726
457.437
312.174
346.429
388.696
348.083
312.068
303.804
290.475
303.364
290.162
301.81
311.387
372.309
307.437
289.406
365.348
323.632
400.065
298.468
274.505
288.191
285.653
289.131
281.566
292.323
294.384
279.177
382.616
343.665
365.639
317.894
409.443
293.547
607.999
1531.87
644.805
641.864
1422.04
678.163
1483.34
325.932
334.395
319.42
314.724
336.492
322.27
329.386
314.265
299.118
298.655
304.11
318.697
303.829
319.155
1446.43
664.305
622.62
647.051
1282.45
682.835
1413.89
298.655
304.189
290.661
313.121
299.59
305.197
313.142
398.213
347.272
344.967
507.148
443.542
451.007
316.69
311.875
305.798
293.516
301.244
318.762
312.441
303.858
331.462
361.15
354.886
449.016
445.856
506.796
393.782
320.457
328.017
321.371
329.129
322.539
336.745
348.682
311.301
333.279
324.482
321.615
319.896
310.957
325.614
331.918
350.87
337.213
344.158
330.65
340.005
351.338
676.598
1289.34
1222.89
722.247
706.282
704.414
1361.73
323.652
334.1
323.625
322.685
310.61
322.668
333.335
682.362
1359.69
1336.59
716.119
711.993
737.873
1235.92
319.304
338.883
326.738
334.301
319.962
326.855
340.638
299.147
320.398
307.198
323.748
312.038
319.478
327.424
571.294
397.686
507.86
571.264
507.844
612.962
455.19
386.591
564.155
504.232
567.72
499.265
605.603
450.29
361.432
352.377
340.083
361.442
440.933
396.237
397.717
340.224
350.799
327.845
355.481
431.31
391.794
386.354
344.098
335.565
354.698
331.266
360.196
293.071
363.799
315.566
393.854
351.26
349.059
1235.45
1554.56
378.009
1481.68
365.577
1681.07
329.968
348.517
307.1
347.631
329.214
289.651
299.146
346.613
340.615
292.576
295.692
287.496
333.115
353.179
298.505
300.399
313.408
314.027
292.636
306.959
312.401
299.358
358.156
374.391
374.642
360.791
357.53
340.879
353.887
1660.26
560.679
585.868
1638.35
580.643
612.975
1609.67
344.618
332.494
332.524
339.471
325.053
329.184
344.159
314.026
356.763
302.486
378.111
334.415
313.937
408.204
298.258
289.14
344.958
372.584
323.506
400.38
307.228
318.506
303.163
316.114
318.357
315.397