/*--------------------------------*- C++ -*----------------------------------*\
  =========                 |
  \\      /  F ield         | OpenFOAM: The Open Source CFD Toolbox
   \\    /   O peration     | Website:  https://openfoam.org
    \\  /    A nd           | Version:  9
     \\/     M anipulation  |
\*---------------------------------------------------------------------------*/
FoamFile
{
    format      ascii;
    class       volVectorField;
    location    "0.0002";
    object      rhoU;
}
// * * * * * * * * * * * * * * * * * * * * * * * * * * * * * * * * * * * * * //

dimensions      [1 -2 -1 0 0 0 0];

internalField   nonuniform List<vector> 
2220
(
(0 0 1.50215e-21)
(0 0 2.39312e-39)
(0 0 0)
(0 0 0)
(0 0 1.5032e-21)
(0 0 0)
(0 0 0)
(0 0 0)
(-2.47305e-32 0 7.60738e-15)
(-2.11793e-34 0 0)
(-5.06775e-37 0 0)
(-9.92754e-40 0 0)
(0 0 0)
(0 0 0)
(0 0 0)
(0 0 0)
(-1.78003e-32 0 0)
(-2.62097e-35 0 0)
(-3.38582e-38 0 0)
(-4.1298e-41 0 0)
(0 0 -6.19386e-15)
(0 0 5.13639e-21)
(0 0 -3.28407e-24)
(0 0 -3.46254e-16)
(0 0 3.46229e-16)
(0 0 5.71107e-16)
(-1.80531e-44 0 1.21816e-16)
(1.51768e-41 0 -1.02185e-22)
(-6.33735e-38 0 5.121e-19)
(5.28417e-37 0 -1.1362e-16)
(-5.0624e-48 0 0)
(0 0 -1.19758e-21)
(-1.01881e-45 0 -6.84511e-25)
(0 0 -3.50667e-24)
(-1.73797e-43 0 2.05691e-19)
(0 0 3.9269e-18)
(-2.47937e-41 0 -8.60934e-15)
(9.20095e-40 0 4.59092e-16)
(0 0 -1.88326e-16)
(-1.28061e-39 0 8.60937e-15)
(-4.47368e-38 0 -6.3472e-15)
(-6.27866e-43 0 -6.797e-17)
(-1.31822e-40 0 6.04207e-23)
(-1.04716e-37 0 9.04608e-17)
(-4.21868e-30 0 -1.51972e-19)
(-2.28228e-28 0 1.46803e-19)
(-3.01844e-30 0 -4.03222e-22)
(0 0 -8.63789e-15)
(0 0 1.66397e-24)
(0 0 4.3206e-15)
(0 0 8.99265e-16)
(0 0 2.72343e-15)
(0 0 -3.66218e-15)
(0 0 7.86207e-16)
(0 0 6.98134e-16)
(0 0 7.30707e-16)
(0 0 -2.47851e-15)
(1.40793e-35 0 -1.29357e-23)
(1.54474e-36 0 -6.79515e-16)
(5.84885e-35 0 9.46237e-15)
(-1.54934e-38 0 4.92071e-27)
(1.40619e-33 0 1.00035e-21)
(-1.95965e-30 0 6.03384e-17)
(-8.74052e-33 0 -2.73834e-17)
(5.96319e-32 0 8.0716e-18)
(1.52633e-28 0 -1.12274e-23)
(-4.18795e-28 0 -1.55982e-14)
(2.04251e-30 0 -2.27382e-15)
(-1.12155e-26 0 1.42933e-14)
(9.21212e-27 0 0)
(-1.50421e-25 0 2.96873e-16)
(0 0 -8.41353e-17)
(0 0 1.14696e-22)
(0 0 4.75726e-17)
(0 0 -1.90806e-17)
(0 0 -2.78807e-18)
(0 0 7.19921e-21)
(0 0 5.09206e-19)
(-1.89822e-27 0 -2.16864e-19)
(2.50713e-41 0 -2.0777e-19)
(6.23438e-39 0 -1.16855e-20)
(-1.29304e-35 0 1.01344e-19)
(2.68632e-34 0 -7.01857e-19)
(-2.58464e-51 0 0)
(-4.04936e-49 0 -9.07087e-23)
(-2.22218e-46 0 9.82545e-18)
(-1.28618e-39 0 -6.51683e-17)
(0 0 -1.40113e-23)
(0 0 -1.34055e-22)
(0 0 3.63025e-16)
(9.48719e-43 0 -4.86639e-21)
(8.41051e-40 0 -5.22307e-21)
(3.17491e-37 0 7.51465e-18)
(1.11766e-34 0 -3.3649e-20)
(1.44501e-26 1.49609e-16 -2.30499e-19)
(0 0 -1.08148e-18)
(0 5.48235e-16 3.54532e-21)
(0 0 0)
(0 0 1.99448e-15)
(0 0 0)
(0 0 0)
(0 0 0)
(0 0 0)
(0 0 1.92534e-15)
(0 0 -2.09818e-15)
(0 0 0)
(0 0 2.61339e-16)
(0 0 0)
(0 0 5.68249e-16)
(0 0 -8.63353e-16)
(0 0 1.55537e-14)
(0 0 5.90248e-16)
(0 0 1.31715e-15)
(0 0 1.88772e-15)
(0 0 2.10443e-15)
(0 0 -2.0098e-15)
(0 0 0)
(0 0 0)
(0 0 3.42335e-18)
(0 0 0)
(0 0 0)
(0 0 0)
(0 0 0)
(0 0 0)
(0 0 -1.34271e-14)
(0 0 0)
(0 0 0)
(0 0 0)
(0 0 2.485e-16)
(0 0 -1.31556e-15)
(0 0 0)
(0 0 0)
(0 0 -1.12677e-14)
(0 0 1.34417e-14)
(0 0 2.29592e-15)
(0 0 9.94331e-17)
(0 0 -1.32839e-14)
(0 0 0)
(0 0 1.54286e-14)
(0 0 -1.54183e-14)
(0 0 0)
(0 0 0)
(0 0 0)
(0 0 1.3205e-14)
(0 0 -1.51791e-14)
(0 0 0)
(0 0 0)
(0 0 0)
(0 0 0)
(0 0 -7.18746e-20)
(0 0 1.14089e-14)
(0 0 8.03167e-19)
(0 0 0)
(0 0 0)
(0 0 0)
(0 0 -1.81899e-14)
(0 0 4.01911e-18)
(0 0 0)
(0 0 0)
(0 0 0)
(0 0 9.05355e-17)
(0 0 0)
(0 6.99462e-15 -9.09495e-15)
(0 0 -2.0286e-14)
(-1.55901e-37 0 0)
(0 0 0)
(0 0 0)
(8.40205e-15 0 -6.35196e-16)
(0 6.85459e-15 -7.89245e-15)
(0 0 -1.87442e-14)
(0 0 1.12323e-18)
(2.98277e-16 0 -2.98924e-20)
(0 0 0)
(0 0 0)
(8.40178e-15 0 6.25896e-16)
(0 7.3219e-15 0)
(0 0 -2.12172e-14)
(8.11656e-16 -2.86021e-16 0)
(0 0 1.02957e-17)
(0 0 0)
(0 0 -1.31575e-15)
(0 0 0)
(0 0 0)
(0 6.85459e-15 7.12324e-15)
(0 0 0)
(0 0 1.06934e-17)
(0 0 -1.39142e-15)
(0 0 0)
(0 0 0)
(0 0 0)
(0 0 1.54295e-14)
(0 0 -6.2264e-18)
(0 0 0)
(0 0 0)
(0 0 0)
(0 0 2.18185e-15)
(0 0 0)
(0 0 0)
(0 0 0)
(0 0 0)
(0 0 4.66095e-15)
(1.62546e-39 0 -5.77249e-19)
(0 0 -3.71596e-17)
(0 0 2.76929e-17)
(0 0 0)
(0 7.09382e-15 7.12324e-15)
(0 0 0)
(0 0 1.06922e-17)
(0 0 -1.39142e-15)
(0 9.09495e-15 -3.04647e-18)
(0 0 0)
(0 0 0)
(0 0 1.52417e-14)
(0 0 -1.73318e-18)
(0 0 0)
(0 0 0)
(0 0 0)
(0 0 2.58972e-17)
(0 0 2.18185e-15)
(0 0 0)
(0 0 0)
(0 0 0)
(2.41291e-37 0 0)
(0 0 0)
(1.57413e-32 0 0)
(0 5.9177e-16 0)
(0 0 3.516e-17)
(0 0 0)
(0 -1.40076e-16 0)
(0 0 0)
(0 0 0)
(0 0 0)
(0 0 0)
(0 0 0)
(0 0 0)
(0 0 -2.87123e-17)
(0 0 -7.72563e-17)
(0 0 -2.87092e-17)
(0 0 1.50259e-17)
(0 0 0)
(0 0 0)
(0 0 0)
(0 0 0)
(0 0 0)
(0 0 0)
(0 0 0)
(0 0 1.02994e-17)
(0 0 0)
(0 0 -1.68251e-15)
(0 0 0)
(0 0 0)
(0 0 0)
(0 0 0)
(0 0 0)
(0 0 -1.68242e-15)
(0 0 0)
(0 0 0)
(0 0 0)
(0 0 0)
(0 0 0)
(0 0 0)
(0 0 1.54183e-14)
(0 0 2.64149e-17)
(0 0 -1.89203e-17)
(0 0 1.96757e-15)
(0 0 -1.60859e-15)
(0 0 -1.57305e-15)
(0 0 1.37411e-14)
(0 0 -1.27099e-14)
(0 0 0)
(0 0 0)
(0 0 0)
(0 0 -8.21247e-17)
(0 0 0)
(0 0 0)
(0 0 -4.6687e-17)
(0 0 0)
(0 0 0)
(0 0 -1.33045e-14)
(0 0 0)
(0 0 1.40412e-14)
(0 0 9.73649e-17)
(0 0 1.9695e-15)
(0 0 -1.60861e-15)
(0 0 -1.57305e-15)
(0 0 1.37411e-14)
(0 0 -1.27099e-14)
(0 0 0)
(0 0 0)
(0 0 0)
(0 0 -8.21247e-17)
(0 0 0)
(0 0 0)
(0 0 -4.66678e-17)
(0 0 0)
(0 0 0)
(0 0 -1.33045e-14)
(0 0 0)
(0 0 0)
(0 0 0)
(0 0 0)
(0 0 0)
(0 0 0)
(0 0 -8.8399e-18)
(-2.66662e-35 0 -1.45093e-16)
(0 0 0)
(0 -7.70915e-15 0)
(0 0 3.46218e-15)
(0 -7.70915e-15 -5.23439e-17)
(0 0 9.62225e-15)
(-3.18001e-52 0 0)
(0 0 0)
(-5.02122e-50 0 -1.75676e-14)
(0 0 -1.81899e-14)
(-4.12781e-33 -9.09495e-15 0)
(0 0 -2.0641e-21)
(-5.824e-31 -5.9177e-16 0)
(0 0 0)
(0 -7.74192e-15 1.49382e-17)
(0 0 0)
(4.38321e-16 -7.73184e-15 0)
(0 0 9.42513e-15)
(-1.27766e-43 0 -3.07149e-15)
(0 0 0)
(0 0 -1.52338e-14)
(-1.53644e-41 0 -1.73367e-14)
(7.42344e-28 -7.24635e-16 0)
(7.31582e-16 0 6.14699e-16)
(0 0 3.57538e-15)
(0 0 -7.61882e-16)
(-7.37189e-46 0 2.78731e-14)
(-5.34834e-48 0 -2.91315e-15)
(0 0 3.6961e-16)
(0 0 3.53643e-15)
(0 0 -8.34007e-16)
(-3.41976e-37 0 0)
(-1.22136e-39 0 -3.11761e-15)
(0 0 0)
(1.75163e-16 0 0)
(0 0 0)
(-1.45577e-35 -5.81081e-18 0)
(0 -3.77788e-18 3.50165e-16)
(-2.9419e-23 -1.25481e-14 -5.36941e-16)
(0 6.65206e-15 -3.48228e-15)
(2.69705e-24 4.40304e-15 -5.60641e-15)
(4.47325e-22 0 -2.00304e-17)
(8.37922e-15 0 0)
(1.49877e-20 0 0)
(1.08796e-23 0 -1.56432e-19)
(8.41643e-15 0 0)
(0 0 1.51515e-17)
(3.32277e-20 0 -6.27393e-17)
(0 0 -6.05995e-17)
(0 0 0)
(0 0 0)
(0 0 0)
(0 0 0)
(0 0 0)
(0 0 0)
(0 0 0)
(0 0 0)
(0 3.14446e-35 0)
(0 0 -8.95492e-15)
(0 0 0)
(0 3.82145e-33 0)
(0 0 0)
(0 0 1.36446e-14)
(0 0 0)
(0 0 0)
(0 0 1.33619e-16)
(0 0 0)
(0 0 0)
(0 0 2.66112e-15)
(0 0 0)
(0 0 0)
(0 0 2.30946e-15)
(0 4.06504e-29 0)
(0 0 -6.99462e-15)
(0 4.10762e-31 0)
(0 0 1.55584e-14)
(0 0 0)
(0 0 0)
(0 2.95037e-36 0)
(0 0 0)
(0 0 0)
(0 2.93519e-34 0)
(0 0 0)
(0 0 0)
(0 0 0)
(0 2.23077e-33 0)
(0 0 0)
(0 0 0)
(0 2.7418e-31 0)
(0 0 0)
(0 0 0)
(0 0 0)
(0 0 0)
(0 3.90638e-30 0)
(0 0 0)
(0 3.52844e-32 0)
(0 0 0)
(0 0 0)
(0 0 0)
(0 0 -2.07381e-16)
(0 6.41567e-28 0)
(0 0 0)
(0 1.43351e-29 -2.10466e-16)
(0 0 0)
(0 0 0)
(6.81256e-43 0 0)
(1.67438e-44 0 0)
(1.66187e-48 0 0)
(0 0 0)
(2.24511e-46 0 0)
(2.47537e-41 0 -1.05612e-14)
(1.22208e-46 0 0)
(2.1157e-41 0 0)
(1.63668e-42 0 0)
(1.59292e-42 0 7.1768e-16)
(1.14139e-37 0 0)
(2.86186e-44 0 0)
(1.24505e-39 0 0)
(1.43329e-40 0 0)
(0 0 0)
(0 0 1.16088e-16)
(0 0 0)
(0 0 0)
(0 0 2.02032e-15)
(0 0 -1.71754e-15)
(0 0 0)
(0 0 1.36446e-14)
(0 3.7561e-27 0)
(0 0 9.57744e-15)
(0 0 0)
(0 0 -1.1322e-14)
(0 3.16468e-25 0)
(0 0 -5.49611e-15)
(0 0 0)
(0 0 1.33619e-16)
(0 0 0)
(0 0 0)
(0 0 0)
(0 0 2.66112e-15)
(0 0 0)
(0 0 0)
(0 0 2.30946e-15)
(0 1.39864e-21 0)
(0 0 -6.99462e-15)
(0 2.24845e-23 0)
(0 0 1.55584e-14)
(0 0 0)
(0 0 0)
(0 3.25594e-28 0)
(0 0 0)
(0 0 0)
(0 0 0)
(0 1.93822e-26 0)
(0 0 0)
(0 0 0)
(0 5.92996e-26 0)
(0 0 0)
(0 0 0)
(0 0 0)
(0 2.08795e-24 0)
(0 0 0)
(0 0 0)
(0 0 0)
(0 1.15294e-22 0)
(0 0 0)
(0 1.60486e-24 0)
(0 0 0)
(0 0 0)
(0 0 0)
(0 0 -2.02214e-16)
(0 1.61769e-21 0)
(0 0 0)
(0 6.04127e-23 -2.10466e-16)
(0 0 0)
(0 0 0)
(3.22937e-37 0 0)
(6.00424e-41 0 0)
(5.90839e-36 0 1.37838e-14)
(8.20949e-36 0 0)
(4.90757e-39 0 1.02718e-15)
(3.70809e-40 0 0)
(2.22084e-34 0 -1.54183e-14)
(2.23454e-35 0 0)
(1.89825e-34 0 0)
(1.02038e-35 0 0)
(3.54431e-31 0 1.34271e-14)
(4.03675e-38 0 0)
(9.04288e-33 0 0)
(1.13386e-33 0 0)
(0 0 1.16075e-16)
(0 0 0)
(0 0 0)
(0 0 0)
(0 0 2.02087e-15)
(0 0 -1.59174e-15)
(0 0 0)
(0 0 1.34271e-14)
(0 7.99953e-20 0)
(0 0 9.57744e-15)
(0 0 0)
(0 0 -1.1322e-14)
(0 1.56242e-18 0)
(0 0 -6.71457e-15)
(0 0 0)
(0 1.34884e-21 0)
(0 0 0)
(0 0 0)
(0 0 0)
(0 -8.24291e-21 0)
(0 0 0)
(0 0 0)
(0 3.99596e-20 0)
(0 0 0)
(0 0 0)
(0 0 0)
(0 1.78579e-18 0)
(0 0 0)
(0 -6.11841e-33 0)
(-3.96136e-50 0 -1.72416e-14)
(0 0 0)
(0 -7.51295e-31 0)
(-5.83943e-48 0 1.63753e-14)
(-2.54917e-49 0 0)
(-1.89633e-51 0 0)
(0 0 -3.64493e-15)
(0 -1.49934e-27 0)
(-1.00468e-43 0 1.75796e-14)
(0 -3.51858e-29 -3.9556e-15)
(-7.94875e-46 0 -1.69629e-14)
(-3.44659e-47 0 -1.80031e-14)
(-4.43079e-45 0 1.57773e-14)
(0 -1.43423e-25 0)
(-1.19987e-41 0 -1.61613e-14)
(0 0 0)
(0 -4.99496e-24 0)
(-1.33958e-39 0 1.66905e-14)
(-5.54702e-41 0 0)
(-5.51206e-43 0 0)
(0 0 -3.87194e-15)
(0 -4.36043e-21 0)
(-1.26e-35 0 1.65312e-14)
(0 -1.53814e-22 -3.9556e-15)
(-1.35692e-37 0 -1.70428e-14)
(-5.2053e-39 0 -1.80031e-14)
(-4.64085e-37 0 1.57773e-14)
(3.08162e-16 0 -2.98924e-20)
(2.20041e-16 1.51592e-31 -2.36429e-20)
(1.06341e-18 -5.88375e-16 0)
(4.57393e-22 -1.30331e-17 -8.47457e-19)
(2.18829e-16 0 8.54485e-18)
(3.25207e-17 -2.62188e-17 0)
(0 -4.57138e-19 -5.80101e-19)
(1.01006e-16 -2.75304e-16 -1.46487e-16)
(3.25568e-16 -2.86021e-16 0)
(2.26834e-16 -2.80286e-16 -1.46487e-16)
(2.03525e-16 0 3.54709e-16)
(1.31662e-16 -1.45311e-19 1.96986e-16)
(7.31582e-16 0 5.97098e-16)
(0 -1.45459e-19 -1.41148e-16)
(0 0 0)
(0 0 0)
(0 0 0)
(0 0 0)
(0 0 0)
(0 0 0)
(0 0 0)
(0 -1.23726e-19 0)
(0 -6.33555e-19 -8.78715e-17)
(0 0 -6.93938e-16)
(0 0 0)
(0 0 0)
(0 0 -1.35724e-14)
(0 0 1.32899e-14)
(0 0 -1.97274e-18)
(0 0 -1.79345e-22)
(0 0 0)
(0 0 0)
(0 0 -1.05905e-16)
(0 0 -1.30843e-15)
(0 0 -1.78263e-22)
(0 0 -7.05127e-17)
(0 0 0)
(0 0 -6.9361e-16)
(0 0 0)
(0 0 -1.38254e-15)
(0 0 -1.67267e-14)
(0 0 1.32899e-14)
(0 0 -1.8102e-18)
(0 0 1.01498e-18)
(0 0 3.1478e-17)
(0 0 1.36955e-15)
(0 0 8.74348e-17)
(0 0 -9.51771e-17)
(0 0 -1.14436e-15)
(0 0 1.74377e-14)
(0 0 1.95119e-15)
(0 0 1.0014e-17)
(0 0 6.92364e-16)
(0 0 6.3571e-16)
(0 0 -1.19961e-15)
(0 0 -1.41675e-14)
(1.72495e-16 0 3.15337e-20)
(1.22177e-16 1.43193e-32 3.21876e-20)
(0 0 0)
(3.02994e-20 0 2.02563e-18)
(0 0 0)
(1.58126e-18 0 0)
(1.2219e-16 0 -2.32344e-18)
(0 -6.16184e-18 0)
(0 -1.44906e-17 -1.30843e-15)
(0 0 -1.67267e-14)
(0 -2.50332e-16 0)
(0 -2.50269e-16 3.20839e-20)
(0 0 1.58085e-14)
(0 0 4.12511e-20)
(0 0 1.54183e-14)
(0 -2.46568e-16 -3.01071e-20)
(0 -2.35625e-16 -2.98924e-20)
(-5.26788e-33 0 0)
(0 0 -1.67267e-14)
(0 0 -3.8476e-20)
(0 0 -3.8476e-20)
(6.33547e-26 0 -1.27628e-18)
(0 -3.78656e-18 -7.61974e-16)
(-7.33171e-31 0 1.06545e-15)
(0 0 2.32881e-17)
(0 0 1.42223e-14)
(0 0 3.46802e-16)
(0 0 -1.41315e-14)
(2.63375e-15 -2.81419e-15 7.59197e-19)
(3.62547e-15 -2.74974e-15 -6.26279e-19)
(2.70399e-15 -5.95766e-17 3.77535e-15)
(0 4.60176e-15 1.67052e-19)
(0 4.61176e-15 -1.2445e-19)
(0 4.54847e-15 2.72076e-16)
(0 -4.01616e-15 0)
(0 8.46063e-15 0)
(0 -4.00553e-15 -4.83784e-21)
(0 8.41666e-15 0)
(0 -3.69255e-15 0)
(0 6.36294e-15 8.71886e-15)
(-4.97929e-38 8.10409e-15 3.35377e-19)
(-3.68427e-31 0 -2.78957e-15)
(0 0 1.75918e-17)
(0 0 1.27537e-15)
(0 0 -7.22437e-21)
(0 0 -4.68356e-18)
(1.27524e-15 4.08691e-17 4.362e-18)
(0 0 1.7983e-15)
(0 0 0)
(0 0 0)
(-6.83728e-31 1.6006e-14 0)
(-3.19694e-31 -9.26444e-15 0)
(0 -2.98708e-15 -3.5523e-15)
(0 0 -1.4154e-16)
(0 1.41113e-22 0)
(0 3.50326e-20 -5.24172e-19)
(0 0 -3.85153e-19)
(0 0 0)
(0 0 0)
(0 0 -4.4103e-18)
(0 0 -3.33e-18)
(0 0 1.21934e-20)
(0 0 1.32043e-14)
(0 0 0)
(0 0 0)
(0 0 0)
(0 0 0)
(9.09449e-15 3.41984e-25 -5.99345e-16)
(9.09449e-15 5.89934e-26 -5.42421e-16)
(9.09495e-15 -8.36336e-15 -7.9708e-15)
(0 0 0)
(8.50318e-15 0 0)
(8.56293e-15 0 -3.07287e-15)
(0 0 -3.21842e-17)
(0 5.55767e-16 0)
(6.315e-22 -1.62851e-16 0)
(0 0 -1.13033e-16)
(1.20182e-24 0 0)
(0 0 0)
(-4.92059e-42 0 2.15175e-14)
(0 0 0)
(2.14544e-40 0 0)
(3.10713e-34 0 -1.68197e-14)
(4.45692e-33 0 0)
(0 0 0)
(1.82461e-31 0 1.78155e-14)
(6.14989e-26 0 -1.69103e-14)
(0 1.81899e-14 -4.39433e-17)
(0 9.09495e-15 -3.48307e-16)
(0 0 1.02524e-17)
(0 0 -2.12182e-16)
(0 0 2.03109e-14)
(0 9.09495e-15 -6.18077e-19)
(0 0 1.37048e-21)
(0 0 6.16327e-18)
(0 0 -2.76242e-19)
(0 0 2.55028e-15)
(0 0 2.78849e-23)
(0 0 1.13724e-21)
(6.50851e-31 0 0)
(4.52351e-26 0 0)
(0 0 3.85247e-16)
(0 0 -1.25166e-22)
(0 0 2.65696e-20)
(3.32852e-24 0 1.78155e-14)
(1.53853e-25 0 -1.75236e-14)
(-1.36847e-24 0 0)
(-9.63445e-16 0 4.54704e-15)
(-2.41366e-16 0 0)
(0 0 0)
(1.14224e-15 0 -3.23615e-15)
(-8.73146e-16 0 0)
(0 6.99377e-31 0)
(0 0 2.68648e-14)
(0 0 -1.8335e-14)
(0 -1.18085e-33 2.93867e-14)
(0 7.33676e-35 0)
(0 0 1.54836e-14)
(0 1.12667e-29 3.03116e-14)
(0 0 -1.85733e-14)
(0 0 0)
(0 0 1.58449e-14)
(0 0 2.84354e-14)
(0 0 -1.76792e-14)
(0 0 -1.52802e-17)
(0 0 0)
(3.89317e-26 0 -3.25261e-16)
(1.31593e-20 0 0)
(8.18021e-15 0 -1.59994e-15)
(0 0 0)
(0 0 1.71246e-14)
(0 0 -1.67623e-14)
(0 0 -2.49045e-14)
(0 0 2.24875e-14)
(0 0 -1.71208e-14)
(0 0 1.71653e-14)
(0 0 -2.24875e-14)
(0 4.82537e-29 -2.00212e-14)
(0 0 -1.79527e-14)
(0 0 1.48831e-14)
(0 7.43015e-28 -3.17186e-15)
(0 0 0)
(0 0 1.7009e-14)
(0 0 2.03485e-15)
(0 0 -1.6887e-14)
(0 0 2.24875e-14)
(0 0 -1.7122e-14)
(0 0 1.69105e-14)
(0 0 -2.24875e-14)
(0 5.30265e-33 -2.00212e-14)
(0 0 -1.81744e-14)
(0 0 1.51747e-14)
(0 4.44673e-32 -3.44253e-15)
(0 0 2.7872e-17)
(0 0 -8.86485e-18)
(0 0 5.4804e-16)
(0 0 4.91463e-16)
(0 0 1.47787e-14)
(0 0 2.7716e-15)
(0 0 2.32371e-17)
(0 0 1.68624e-21)
(0 0 0)
(0 0 -4.76784e-17)
(0 0 2.3824e-20)
(0 0 0)
(0 0 8.90124e-16)
(0 0 1.67803e-14)
(0 0 1.52485e-15)
(0 0 -1.7342e-14)
(0 0 1.90267e-14)
(0 0 -1.85124e-14)
(0 0 1.65132e-14)
(0 0 -2.28822e-14)
(0 0 -1.78792e-14)
(0 0 -1.38618e-14)
(0 0 1.581e-14)
(0 0 1.27099e-14)
(-1.92627e-26 -9.09495e-15 -4.4331e-17)
(-7.23196e-29 -9.09495e-15 0)
(0 0 0)
(9.09495e-15 -8.36454e-15 7.69226e-15)
(0 0 3.37761e-15)
(0 0 1.1491e-14)
(-1.62884e-35 0 1.75101e-14)
(0 0 0)
(0 0 -9.90407e-15)
(-1.41582e-33 0 -1.56991e-14)
(-5.03016e-21 -2.72514e-16 -9.09495e-15)
(-3.21522e-21 6.01673e-16 0)
(0 1.70064e-14 0)
(-5.33671e-21 -3.01139e-16 0)
(0 0 -1.41331e-15)
(-1.46937e-25 8.6576e-15 -2.27374e-15)
(-3.21355e-21 3.88203e-16 -8.97533e-15)
(0 4.31069e-16 0)
(0 0 -1.59992e-15)
(0 0 -1.51482e-14)
(0 2.00616e-20 -1.07318e-14)
(0 7.32477e-15 -4.54747e-15)
(0 4.37946e-16 0)
(0 9.93251e-16 -9.09495e-15)
(0 0 0)
(0 0 0)
(0 0 -1.19381e-17)
(0 0 -3.18105e-16)
(0 0 0)
(0 0 0)
(0 0 -2.33501e-15)
(3.6451e-20 0 -1.21738e-17)
(0 0 0)
(3.94613e-22 0 0)
(0 0 -1.50256e-15)
(0 0 0)
(0 0 -1.84746e-16)
(6.02999e-20 0 -8.40777e-17)
(0 0 0)
(0 0 -8.41385e-16)
(-6.79542e-30 0 3.00415e-15)
(-9.66861e-32 0 -3.40806e-15)
(0 0 -3.96526e-21)
(0 0 -2.1865e-15)
(0 0 0)
(-1.26427e-22 0 0)
(-1.58968e-22 0 -2.32188e-15)
(0 0 0)
(0 0 -1.56837e-14)
(-1.57584e-20 0 -2.57231e-16)
(-7.33664e-20 0 -3.79092e-18)
(0 0 0)
(0 0 0)
(0 0 -6.06869e-16)
(0 0 0)
(0 0 -6.69e-17)
(0 0 -2.16316e-17)
(0 0 0)
(0 0 1.47612e-14)
(0 0 -2.93553e-15)
(0 0 0)
(0 0 2.51447e-15)
(0 0 2.01236e-14)
(0 0 -1.87686e-14)
(-3.14711e-24 -9.76174e-16 0)
(-1.22661e-25 -3.57128e-16 0)
(1.04914e-21 2.89954e-16 0)
(-1.68552e-24 0 -3.26118e-16)
(-2.1849e-26 -6.04789e-15 -4.54747e-15)
(-4.80243e-28 0 2.27514e-14)
(0 0 0)
(0 0 -6.41717e-16)
(0 0 0)
(0 0 1.43335e-17)
(0 0 1.80056e-18)
(0 0 -7.05057e-17)
(9.09495e-15 0 0)
(0 0 8.85817e-15)
(9.09495e-15 0 -8.48779e-15)
(0 0 -2.1532e-16)
(0 8.44319e-24 -5.36667e-15)
(9.095e-15 7.42773e-24 -6.26271e-16)
(0 1.15664e-22 -5.08695e-19)
(9.09495e-15 0 8.47535e-15)
(0 0 -5.106e-18)
(9.09495e-15 0 -8.48751e-15)
(0 0 9.60028e-17)
(0 1.00785e-24 -1.96584e-16)
(9.09465e-15 9.39765e-28 8.90487e-15)
(0 2.47363e-26 8.15943e-17)
(8.50337e-15 0 6.15898e-15)
(1.47529e-20 0 -8.32908e-15)
(9.09495e-15 0 -3.47196e-16)
(9.09495e-15 0 -4.68415e-17)
(0 0 5.23935e-16)
(6.32215e-20 0 -4.4647e-15)
(9.07526e-15 0 7.77885e-17)
(0 0 7.38961e-15)
(1.18794e-42 0 0)
(0 0 0)
(1.17455e-42 0 5.81249e-15)
(4.99532e-40 0 -4.54079e-15)
(4.16275e-40 0 0)
(8.12807e-41 0 -2.12658e-18)
(1.97894e-44 0 0)
(1.13019e-40 0 0)
(4.29644e-38 0 2.82333e-15)
(1.71119e-36 0 0)
(6.53943e-37 0 0)
(2.82188e-38 0 0)
(7.3179e-39 0 0)
(9.18366e-39 0 0)
(1.50053e-40 9.06249e-30 0)
(1.74532e-41 0 2.39227e-15)
(0 -5.30619e-30 0)
(3.44714e-38 0 -2.68232e-14)
(1.56425e-39 0 -4.78453e-16)
(-5.74902e-37 -2.33364e-28 2.10777e-16)
(1.16538e-45 -3.6382e-32 1.67459e-15)
(7.02966e-39 1.19011e-27 0)
(3.91766e-36 0 1.62104e-14)
(9.0331e-36 0 -2.91825e-15)
(1.7257e-32 7.073e-25 0)
(1.55258e-37 0 0)
(2.45494e-34 3.47339e-26 0)
(8.68229e-38 1.70965e-26 0)
(2.02271e-35 0 0)
(1.02171e-34 0 0)
(2.81945e-35 0 6.42895e-16)
(2.92907e-31 0 -3.67439e-15)
(2.44044e-37 0 2.19873e-17)
(6.27863e-33 0 0)
(9.84648e-34 0 0)
(1.59729e-33 0 0)
(8.39099e-30 0 2.84124e-15)
(6.11693e-30 0 0)
(7.70066e-30 0 0)
(2.17383e-31 0 0)
(9.58846e-32 0 0)
(9.64932e-32 0 0)
(9.53087e-31 1.7026e-33 0)
(5.35425e-34 0 4.09097e-15)
(2.47861e-30 1.44416e-26 -2.9929e-16)
(9.61022e-30 0 -1.78155e-14)
(5.51245e-37 -8.0977e-29 1.42325e-15)
(3.1234e-32 0 0)
(1.4816e-28 1.85699e-32 2.10857e-16)
(1.56626e-28 1.15603e-31 0)
(4.72739e-28 0 1.64859e-14)
(2.55206e-28 0 -2.89307e-15)
(2.36413e-24 4.37663e-29 -2.30733e-16)
(4.41292e-30 0 0)
(2.23748e-26 1.29422e-30 0)
(9.03541e-27 1.56197e-30 -1.25442e-17)
(0 0 -9.93197e-17)
(0 0 -8.52031e-18)
(0 0 1.26178e-16)
(0 0 0)
(0 0 -2.22631e-16)
(0 0 2.7716e-15)
(0 0 -2.26186e-15)
(0 0 0)
(0 0 2.25535e-15)
(0 9.25247e-16 -2.34545e-15)
(0 0 -1.20516e-15)
(0 5.47516e-17 0)
(0 0 1.81899e-14)
(0 0 -1.46096e-14)
(0 0 0)
(0 0 8.97932e-17)
(0 1.12447e-17 2.53664e-20)
(0 0 3.59156e-20)
(0 1.08451e-19 0)
(0 0 0)
(0 0 9.05603e-19)
(0 0 0)
(0 0 -2.01176e-16)
(0 7.862e-16 1.58962e-16)
(0 0 4.14975e-19)
(0 2.78352e-17 -2.21852e-16)
(0 0 0)
(0 0 1.39236e-17)
(3.98345e-31 0 0)
(1.64255e-34 0 0)
(1.73688e-29 0 0)
(1.44247e-29 0 0)
(1.28831e-32 0 4.90472e-19)
(1.67034e-33 0 0)
(7.1002e-28 0 -1.69938e-14)
(2.28454e-29 0 0)
(6.08573e-28 0 0)
(1.09584e-28 0 6.42895e-16)
(1.53892e-24 0 -3.77279e-15)
(1.26167e-30 0 2.27447e-17)
(2.27124e-26 0 0)
(1.01549e-27 0 0)
(0 0 1.31036e-14)
(1.76417e-29 0 0)
(-2.53201e-29 0 -1.97179e-19)
(9.21998e-30 0 -3.96526e-21)
(1.85037e-31 0 0)
(-7.53599e-28 0 -3.19237e-18)
(3.34073e-28 0 -1.00157e-19)
(0 0 -2.4732e-14)
(1.24634e-27 0 0)
(4.63293e-24 0 3.30621e-15)
(1.81002e-24 0 -1.47755e-16)
(9.50214e-26 0 1.93152e-16)
(7.51662e-26 0 0)
(2.65967e-26 0 -4.82714e-18)
(4.40069e-24 0 0)
(2.82378e-27 0 4.09097e-15)
(7.60157e-23 0 -8.79547e-16)
(4.26286e-23 0 -1.76466e-14)
(8.56567e-26 0 1.32646e-15)
(1.83094e-26 0 0)
(1.45964e-21 0 1.10253e-15)
(1.49152e-25 0 -1.1561e-15)
(1.17195e-22 0 0)
(8.972e-23 0 1.69865e-14)
(4.47422e-23 0 -1.02722e-15)
(1.52307e-24 0 0)
(1.39422e-21 0 3.4269e-15)
(1.00772e-21 0 0)
(0 -2.51119e-19 0)
(-1.10775e-33 0 -1.73447e-14)
(0 0 0)
(0 -4.75832e-18 0)
(-8.77284e-32 0 1.5333e-14)
(-2.7976e-33 0 0)
(-2.8692e-35 0 0)
(0 0 -3.84176e-15)
(0 -8.00623e-16 3.57565e-15)
(-3.84585e-28 0 1.60848e-14)
(0 -7.24121e-17 -3.81109e-15)
(-6.17643e-30 0 -1.8143e-14)
(-1.52812e-31 0 -1.76769e-14)
(-7.63697e-30 0 1.60763e-14)
(5.55876e-17 3.89523e-25 0)
(1.87409e-23 0 0)
(0 0 9.04598e-15)
(2.58954e-15 -3.85885e-15 -5.92982e-15)
(9.04736e-22 1.97013e-16 0)
(9.12217e-22 1.96047e-16 0)
(2.43402e-19 0 -1.08396e-15)
(1.90292e-18 0 3.50183e-16)
(1.58063e-16 4.25583e-25 -6.92529e-17)
(1.16657e-17 0 -9.08581e-15)
(1.04261e-18 0 7.43116e-15)
(4.72505e-17 9.61943e-26 2.39262e-18)
(4.79304e-17 0 1.06566e-16)
(0 -4.4408e-15 0)
(0 -4.4408e-15 3.45655e-19)
(0 -4.4408e-15 -1.90965e-19)
(-5.54086e-25 0 -3.52512e-17)
(0 8.78894e-15 8.88839e-15)
(0 8.77353e-15 -8.80981e-22)
(0 8.77348e-15 -9.00964e-18)
(0 6.68396e-19 -5.77839e-17)
(4.96844e-39 -4.54747e-15 -4.54747e-15)
(1.03367e-36 -4.54747e-15 -5.02724e-19)
(-1.69217e-33 -4.54747e-15 0)
(-1.88361e-31 5.94188e-20 2.38372e-17)
(0 8.3873e-16 0)
(0 -8.38726e-16 -6.73288e-16)
(0 0 -2.99388e-17)
(0 0 7.37893e-17)
(0 0 4.0953e-17)
(0 4.46065e-15 -2.71556e-15)
(0 8.15925e-20 -1.61419e-14)
(0 3.60951e-16 -2.32697e-14)
(0 0 0)
(0 1.33045e-17 1.64721e-14)
(0 -4.43761e-44 0)
(0 0 0)
(0 0 1.12597e-16)
(0 1.33025e-17 -1.70608e-14)
(0 -3.75024e-40 0)
(0 3.47961e-16 1.67505e-14)
(0 0 -3.93393e-18)
(0 0 0)
(0 0 1.00647e-16)
(0 1.32361e-17 -1.68022e-14)
(0 0 -9.34794e-18)
(0 3.38161e-16 1.76368e-14)
(0 0 -3.92996e-18)
(0 0 -1.90506e-17)
(0 0 0)
(0 0 0)
(0 0 0)
(0 0 1.99575e-17)
(0 0 0)
(0 0 -9.13712e-18)
(0 0 0)
(0 0 0)
(0 0 0)
(0 0 0)
(0 0 0)
(0 0 -2.45766e-17)
(0 0 0)
(0 0 0)
(0 0 0)
(0 0 0)
(0 0 0)
(0 0 -2.51922e-17)
(0 0 0)
(0 0 0)
(0 3.7992e-20 0)
(0 2.39227e-16 -1.91381e-15)
(-9.81873e-50 -9.09495e-15 0)
(0 0 0)
(0 0 0)
(0 0 0)
(0 0 -6.79129e-17)
(-3.28274e-40 0 -5.72938e-17)
(0 0 0)
(0 0 0)
(0 0 0)
(0 0 0)
(0 0 -9.74172e-17)
(3.2768e-31 0 -5.50744e-18)
(0 0 -2.71467e-16)
(0 0 0)
(-2.60495e-23 4.3805e-15 -1.7053e-15)
(0 -1.53278e-18 -1.5201e-15)
(0 0 2.09123e-15)
(4.00303e-24 0 0)
(0 1.36424e-14 -9.09495e-15)
(0 0 0)
(0 0 0)
(0 0 5.9116e-16)
(0 8.42387e-15 7.7458e-15)
(0 0 -2.33078e-15)
(0 0 0)
(0 0 0)
(-2.33906e-47 0 7.33934e-16)
(0 0 1.17216e-14)
(0 0 0)
(0 0 2.48649e-15)
(0 0 0)
(0 0 0)
(0 7.11492e-15 -7.71034e-15)
(0 -1.91353e-43 -2.38261e-15)
(0 0 0)
(0 0 5.49288e-16)
(0 6.88344e-15 7.7458e-15)
(0 0 1.88951e-15)
(0 0 0)
(0 0 -1.69938e-14)
(-5.34843e-38 0 7.29403e-16)
(0 0 1.17216e-14)
(0 0 0)
(0 0 2.36422e-15)
(0 0 0)
(0 0 0)
(0 6.46253e-15 -7.7103e-15)
(0 0 1.47788e-15)
(0 0 0)
(0 0 9.31682e-16)
(0 5.22722e-15 7.74578e-15)
(0 0 1.8922e-15)
(0 0 0)
(0 0 -1.69938e-14)
(2.8128e-31 0 3.49893e-16)
(0 0 1.32412e-14)
(0 0 0)
(0 0 0)
(0 0 0)
(0 0 0)
(-9.96698e-18 0 0)
(-1.86373e-18 -3.93442e-19 0)
(0 0 0)
(0 0 1.50364e-16)
(0 0 -1.40412e-14)
(-3.97907e-51 0 0)
(0 0 2.76308e-15)
(-1.13803e-48 0 0)
(0 0 -2.22355e-15)
(0 0 0)
(0 0 -1.40412e-14)
(-1.41585e-41 0 0)
(0 0 2.75037e-15)
(-2.5995e-39 0 0)
(0 0 -2.22355e-15)
(0 0 0)
(0 0 -1.40412e-14)
(-6.69286e-33 0 0)
(0 0 2.75037e-15)
(-6.24722e-31 0 0)
(-1.71538e-44 0 0)
(0 0 2.9472e-16)
(-5.3801e-42 0 0)
(0 0 -2.39607e-16)
(0 0 1.55468e-14)
(0 0 -2.17455e-15)
(0 0 -3.35345e-16)
(-4.03915e-37 0 0)
(-1.54398e-39 0 0)
(0 0 -1.60459e-15)
(-6.80993e-44 0 0)
(-2.93693e-46 0 0)
(-9.62838e-35 0 0)
(0 0 2.94566e-16)
(-2.07276e-32 0 0)
(0 0 -4.57975e-16)
(0 0 1.55257e-14)
(0 0 -2.17455e-15)
(0 0 -3.35345e-16)
(-6.79623e-28 0 0)
(-3.98204e-30 0 0)
(0 0 -1.60459e-15)
(-5.69338e-35 0 0)
(-4.13941e-37 0 0)
(-1.02593e-25 0 0)
(0 0 2.94582e-16)
(-1.34409e-23 0 0)
(0 0 -4.76894e-16)
(0 0 0)
(0 0 -2.17455e-15)
(0 0 -3.35351e-16)
(-1.35933e-19 0 0)
(-1.48684e-21 0 0)
(0 0 -1.60477e-15)
(-3.77535e-28 0 0)
(-3.64034e-29 0 0)
(0 2.19613e-16 -6.20777e-20)
(0 8.48159e-15 -1.36255e-14)
(0 -8.03726e-15 -3.87502e-19)
(1.00758e-18 -4.94304e-16 -4.8601e-16)
(0 0 0)
(0 -4.75611e-16 -2.21239e-18)
(-8.56305e-21 -8.3655e-16 0)
(-2.77847e-19 8.55041e-15 -1.13687e-14)
(-9.78517e-18 -4.2503e-16 0)
(0 -3.60711e-17 -8.35784e-15)
(-8.03392e-18 1.29844e-14 0)
(-8.52727e-21 -8.26885e-16 0)
(-3.44962e-16 -5.1633e-16 0)
(1.48374e-26 0 8.64081e-17)
(1.46403e-24 -8.70519e-15 -6.71356e-15)
(2.95907e-29 1.9061e-16 0)
(1.1934e-26 -2.85281e-16 4.62588e-15)
(-1.23372e-17 0 -4.23352e-16)
(0 0 1.37761e-14)
(-1.13025e-17 0 -4.56782e-21)
(0 6.79582e-24 -5.47888e-18)
(3.03231e-26 0 0)
(3.01891e-22 0 -1.00683e-15)
(0 1.67156e-25 0)
(0 0 -1.21892e-16)
(-9.94265e-18 0 0)
(-5.19248e-16 -1.57771e-23 -1.32955e-17)
(-5.19261e-16 -1.57771e-23 -2.8401e-19)
(-3.44325e-30 0 1.13687e-15)
(0 -1.12484e-45 5.92718e-17)
(0 0 0)
(0 0 0)
(0 0 0)
(0 0 0)
(0 -2.33957e-43 0)
(0 0 0)
(0 0 1.17575e-16)
(0 -1.54556e-42 1.06127e-16)
(0 0 0)
(0 0 0)
(0 -2.81141e-40 0)
(0 -5.59814e-42 0)
(0 0 0)
(0 0 -8.62252e-18)
(0 0 -1.14624e-16)
(0 -2.8706e-38 0)
(0 0 0)
(0 -3.99611e-38 0)
(0 0 0)
(0 -4.04814e-36 0)
(0 0 -5.88081e-18)
(0 -2.22162e-37 -1.18656e-16)
(0 -2.74506e-39 0)
(0 0 0)
(0 0 0)
(0 -3.24377e-35 0)
(0 0 0)
(0 0 -1.10994e-16)
(0 -3.19177e-41 -1.19104e-16)
(0 -3.39674e-43 0)
(0 0 0)
(0 0 0)
(0 0 0)
(0 0 0)
(0 0 0)
(0 -3.23393e-47 0)
(0 -3.42396e-45 -1.18654e-16)
(0 0 0)
(0 0 0)
(0 0 0)
(0 0 0)
(0 0 9.65073e-16)
(0 0 0)
(0 0 0)
(0 0 -7.85232e-15)
(0 0 0)
(0 0 5.49611e-15)
(0 0 0)
(0 0 0)
(0 7.71952e-32 0)
(0 0 0)
(0 0 2.69001e-15)
(0 4.06719e-30 -2.02933e-15)
(0 0 0)
(0 0 0)
(0 0 2.37083e-15)
(0 0 2.17415e-15)
(0 0 0)
(0 0 1.35551e-14)
(0 0 1.39056e-14)
(0 0 -1.35551e-14)
(0 0 -1.29704e-14)
(0 0 0)
(0 0 -1.57406e-15)
(0 8.8161e-27 0)
(0 0 0)
(0 1.98946e-28 2.62889e-15)
(0 0 0)
(0 0 0)
(-5.47366e-49 0 0)
(0 -3.7242e-32 0)
(-3.20251e-50 0 0)
(0 0 1.7233e-14)
(0 -1.76324e-30 -9.65772e-15)
(-9.15144e-48 0 0)
(-3.22588e-52 0 0)
(-1.26767e-46 0 0)
(0 0 -1.0765e-14)
(0 -2.79249e-27 -6.99462e-15)
(-5.28411e-43 0 0)
(0 -7.39047e-29 1.57976e-14)
(-2.31971e-45 0 0)
(-2.52256e-44 0 0)
(0 0 1.91728e-15)
(0 0 -2.35606e-15)
(0 -1.74677e-41 0)
(0 0 -1.50799e-14)
(0 0 -1.54183e-14)
(0 0 1.098e-14)
(0 0 5.49611e-15)
(0 0 0)
(0 3.7141e-25 1.83304e-15)
(0 0 0)
(0 0 2.67686e-15)
(0 0 1.00495e-16)
(0 1.3741e-23 -2.03641e-15)
(0 0 0)
(0 0 -2.36428e-15)
(0 -1.47748e-39 -2.35022e-15)
(0 -1.72823e-41 0)
(0 0 1.35551e-14)
(0 0 1.34271e-14)
(0 0 -1.35551e-14)
(0 0 -1.34271e-14)
(0 0 0)
(0 0 -1.57407e-15)
(0 1.18387e-20 0)
(0 0 0)
(0 4.32742e-22 2.62867e-15)
(0 0 0)
(0 0 0)
(-1.9098e-39 0 0)
(0 -1.14192e-25 8.95492e-15)
(-1.11003e-40 0 0)
(0 0 1.62761e-14)
(-1.6838e-42 0 1.7839e-15)
(0 -4.23025e-24 -9.88626e-15)
(-2.08626e-38 0 0)
(-2.86625e-37 0 0)
(0 0 -1.0765e-14)
(0 -2.70624e-21 -6.99462e-15)
(-4.80393e-34 0 0)
(0 -1.15877e-22 1.57976e-14)
(-3.36098e-36 0 0)
(-3.64217e-35 0 0)
(0 0 -2.25455e-15)
(0 -3.70688e-43 -2.42801e-15)
(0 -3.73679e-45 0)
(0 0 -1.50799e-14)
(0 0 -1.54183e-14)
(0 0 1.098e-14)
(0 0 5.49611e-15)
(0 0 0)
(0 3.02829e-19 1.83304e-15)
(0 0 0)
(0 0 2.67715e-15)
(0 0 1.00495e-16)
(0 6.35677e-18 -2.03435e-15)
(0 0 0)
(0 0 0)
(0 -4.67105e-49 0)
(0 -5.21688e-47 -2.35005e-15)
(0 0 1.35551e-14)
(0 0 0)
(0 0 -1.35551e-14)
(0 0 0)
(0 0 0)
(0 0 -1.57429e-15)
(0 1.21717e-15 0)
(0 0 0)
(0 1.01251e-16 2.62037e-15)
(0 0 0)
(0 0 0)
(-6.08673e-31 0 0)
(0 -7.56622e-20 8.95492e-15)
(-6.30737e-32 0 0)
(0 0 1.62761e-14)
(-1.5476e-33 0 1.78436e-15)
(0 -1.81575e-18 -9.89694e-15)
(-6.46096e-30 0 0)
(-2.88242e-29 0 0)
(0 0 -1.07732e-14)
(0 -4.41598e-16 0)
(2.40936e-26 0 0)
(0 -2.56281e-17 1.55584e-14)
(-9.03651e-29 0 0)
(-4.04581e-29 0 0)
(0 -7.79069e-16 0)
(0 -7.75776e-16 5.96743e-16)
(0 7.75926e-16 0)
(0 0 0)
(0 0 0)
(0 0 0)
(0 0 0)
(0 7.76951e-16 -6.20621e-16)
(0 -7.75776e-16 5.98855e-16)
(0 7.30058e-16 0)
(0 0 0)
(0 0 0)
(0 0 0)
(0 0 0)
(0 0 8.25982e-16)
(0 0 0)
(0 0 6.71008e-17)
(0 0 0)
(0 0 0)
(0 0 0)
(0 0 0)
(0 0 0)
(0 0 -3.89703e-19)
(0 0 -3.51133e-17)
(0 0 0)
(0 0 0)
(0 0 0)
(0 0 0)
(0 2.68736e-16 -1.28523e-15)
(0 0 -3.37988e-17)
(0 0 3.33451e-17)
(0 0 0)
(0 0 0)
(0 0 0)
(0 0 0)
(0 -6.17162e-17 0)
(0 0 0)
(0 2.72619e-18 0)
(0 0 0)
(0 0 0)
(0 0 0)
(0 0 0)
(0 5.91076e-17 0)
(0 0 4.90297e-17)
(0 8.55899e-20 0)
(0 0 0)
(0 0 0)
(0 0 0)
(0 0 0)
(0 2.43649e-18 0)
(0 0 0)
(0 0 0)
(0 0 0)
(0 0 0)
(0 0 0)
(0 0 0)
(0 4.50128e-17 0)
(0 0 0)
(0 0 0)
(0 0 0)
(0 0 0)
(0 0 0)
(0 0 0)
(-4.07913e-30 0 1.53839e-16)
(-4.6405e-32 0 0)
(-8.21879e-35 0 0)
(-1.32534e-37 0 0)
(0 0 0)
(0 0 0)
(0 0 0)
(0 0 0)
(0 0 0)
(-5.78751e-30 0 0)
(-4.19231e-33 0 0)
(-3.8996e-36 0 0)
(-4.54196e-39 0 0)
(0 0 0)
(0 0 0)
(0 0 0)
(0 0 0)
(1.91101e-32 0 1.09934e-27)
(0 0 0)
(0 0 1.89977e-32)
(0 0 0)
(0 0 0)
(0 0 0)
(0 0 0)
(0 0 0)
(4.60751e-29 0 0)
(0 0 0)
(0 0 0)
(0 0 0)
(0 0 0)
(0 0 0)
(0 0 0)
(0 0 2.32311e-17)
(0 0 0)
(0 0 0)
(0 0 0)
(0 0 0)
(0 0 0)
(0 0 0)
(0 0 0)
(-7.0498e-28 0 0)
(-1.24041e-30 0 0)
(-2.00194e-33 0 0)
(-2.88129e-36 0 0)
(-1.37055e-27 0 0)
(-7.53223e-30 0 0)
(-1.48037e-32 0 0)
(-2.62673e-35 0 0)
(0 0 0)
(-1.45796e-14 -9.26768e-17 -7.02072e-16)
(-9.3064e-21 0 -9.65807e-20)
(-6.18641e-23 0 0)
(0 0 0)
(0 0 -5.63298e-20)
(0 0 0)
(-6.24972e-21 0 -1.05867e-18)
(0 0 -3.86484e-19)
(3.02441e-18 0 0)
(-3.51155e-15 0 -4.07605e-16)
(-5.19233e-18 0 3.43886e-16)
(-3.5343e-16 0 0)
(-4.06024e-19 0 -7.63901e-19)
(4.65057e-21 0 0)
(-6.08659e-23 0 0)
(2.70989e-17 0 -1.83377e-16)
(-3.74261e-21 0 0)
(-4.72436e-19 0 -1.2476e-17)
(0 0 -1.16678e-17)
(0 0 -1.29174e-17)
(-1.07855e-19 0 0)
(-2.70563e-18 0 0)
(-3.0257e-17 0 -7.23801e-16)
(0 0 0)
(-1.53166e-18 0 -5.08378e-17)
(-3.03086e-17 0 -1.89783e-16)
(-2.0803e-18 -8.74743e-17 1.29377e-17)
(0 0 0)
(1.69256e-16 1.09776e-34 -5.20788e-16)
(-5.74812e-21 2.30192e-33 -2.22805e-20)
(-2.47383e-17 0 3.33578e-17)
(-1.13539e-21 0 0)
(0 0 6.02077e-16)
(-5.73097e-27 0 -3.16336e-16)
(-2.84172e-22 -1.04913e-22 3.37811e-15)
(0 5.93692e-28 2.0864e-15)
(0 0 0)
(2.26185e-18 0 -5.87684e-17)
(5.66681e-17 0 0)
(1.71946e-15 0 -1.7e-18)
(0 0 0)
(1.71902e-14 0 6.95761e-16)
(0 0 -6.08362e-22)
(0 0 2.85927e-22)
(0 0 0)
(0 0 1.18922e-15)
(0 0 -5.00909e-17)
(-1.16025e-21 0 0)
(-2.41004e-23 0 0)
(0 5.01928e-17 1.61768e-15)
(0 0 0)
(-1.4015e-14 0 8.88869e-15)
(0 0 -1.69539e-20)
(0 0 0)
(0 0 -9.08881e-22)
(0 0 3.45096e-18)
(0 0 0)
(0 0 0)
(0 0 3.10745e-22)
(0 0 2.0282e-19)
(0 0 -1.66676e-22)
(-1.61542e-25 0 1.33906e-20)
(-6.72738e-28 0 -3.47685e-20)
(1.453e-37 0 1.9565e-18)
(-2.07877e-34 7.41045e-18 -1.48134e-21)
(0 0 -4.6785e-18)
(0 0 -3.14071e-20)
(0 8.22579e-21 8.16333e-17)
(0 0 7.78394e-22)
(0 7.47048e-17 7.30903e-15)
(0 0 3.46483e-20)
(-5.72045e-23 0 7.73276e-20)
(-3.05565e-25 0 1.81811e-22)
(-5.44685e-21 9.04369e-15 1.38155e-17)
(-1.69308e-27 0 4.08667e-20)