/*--------------------------------*- C++ -*----------------------------------*\
  =========                 |
  \\      /  F ield         | OpenFOAM: The Open Source CFD Toolbox
   \\    /   O peration     | Website:  https://openfoam.org
    \\  /    A nd           | Version:  9
     \\/     M anipulation  |
\*---------------------------------------------------------------------------*/
FoamFile
{
    format      ascii;
    class       volScalarField;
    location    "0.0006";
    object      lambda.c4;
}
// * * * * * * * * * * * * * * * * * * * * * * * * * * * * * * * * * * * * * //

dimensions      [0 0 0 0 0 0 0];

internalField   nonuniform List<scalar> 
33623
(
0
0
0
0
0
0
0
0
0
0
0
0
0
0
8.08227e-309
1.40445e-260
4.30509e-250
1.08728e-206
1.8793e-200
3.01878e-196
9.0799e-194
1.30526e-196
4.8321e-203
1.69045e-209
7.71895e-255
0
0
0
0
0
0
0
0
0
0
0
0
0
2.06335e-269
2.87897e-220
3.37225e-211
2.04386e-202
2.33055e-160
1.99428e-155
3.20055e-152
2.13434e-150
1.22561e-152
1.63442e-157
3.89467e-163
1.08338e-206
0
0
0
0
0
0
0
0
0
0
0
0
4.03901e-268
2.8539e-218
3.90677e-172
5.38547e-164
1.33534e-121
5.13352e-117
4.2521e-113
7.23489e-111
2.24833e-109
5.01643e-111
6.0021e-115
3.96347e-119
8.87186e-161
0
0
0
0
0
0
0
0
0
0
0
1.15769e-266
1.97957e-217
3.52584e-170
1.87394e-125
1.22732e-119
3.3816e-79
1.52606e-75
3.0565e-73
1.26035e-71
9.56997e-71
7.92541e-72
3.01527e-74
5.75707e-77
3.27577e-117
0
0
0
0
0
0
0
0
0
0
1.0293e-265
2.00764e-216
1.40498e-169
3.05495e-124
1.62626e-81
2.36225e-77
1.43484e-38
4.74688e-37
9.07609e-36
5.27774e-35
1.01314e-34
2.98494e-35
3.06241e-36
9.0865e-38
2.02276e-39
0
0
0
0
0
0
0
0
0
1.18892e-265
6.48466e-216
1.51489e-168
7.9047e-124
1.1938e-80
6.58903e-40
7.08819e-38
1
1
1
1
1
1
1
1
0.5
0
0
0
0
0
0
0
0
7.33791e-266
3.98033e-216
3.22438e-168
2.76736e-123
2.54992e-80
1.80319e-39
1
1
1
1
1
1
1
1
1
1
1
0
0
0
0
0
0
0
2.09965e-266
3.75984e-216
2.46362e-168
4.26377e-123
5.04156e-80
2.5146e-39
1
1
1
1
1
1
1
1
1
1
1
1
0
0
0
0
0
0
2.02589e-267
7.43286e-217
6.84515e-169
2.1457e-123
5.10667e-80
2.50845e-39
1
1
1
1
1
1
1
1
1
1
1
1
1
0
0
0
0
0
1.15204e-269
3.13684e-218
3.71694e-170
3.24348e-124
1.20907e-80
1.80055e-39
1
1
1
1
1
1
1
1
1
1
1
1
1
1
0
0
0
0
9.79352e-309
8.54013e-221
2.19338e-172
2.00825e-125
1.67925e-81
6.62388e-40
1
1
1
1
1
1
1
1
1
1
1
1
1
1
1
0
0
0
1.6403e-311
8.66456e-260
6.9333e-211
7.66839e-164
7.96169e-120
1.70758e-77
7.40619e-38
1
1
1
1
1
1
1
1
1
1
1
1
1
1
1
0
0
0
2.28875e-299
1.11613e-213
8.70259e-167
4.44173e-121
1.88063e-78
1.66856e-38
1
1
1
1
1
1
1
1
1
1
1
1
1
1
1
1
0
0
4.8808e-305
6.23074e-254
7.68781e-206
1.19682e-159
1.83961e-116
1.82869e-75
7.39847e-37
1
1
1
1
1
1
1
1
1
1
1
1
1
1
1
1
0
0
5.75207e-295
1.35579e-245
1.18414e-198
3.24475e-154
3.38472e-112
1.17814e-72
1.73802e-35
1
1
1
1
1
1
1
1
1
1
1
1
1
1
1
1
0
0
1.37882e-287
2.17655e-239
1.32644e-193
2.76467e-150
2.44287e-109
1.66398e-70
1.38184e-34
1
1
1
1
1
1
1
1
1
1
1
1
1
1
1
1
0
0
3.76775e-284
2.31284e-236
2.83222e-191
1.23963e-148
4.78322e-108
3.66674e-70
2.83334e-34
1
1
1
1
1
1
1
1
1
1
1
1
1
1
1
1
0
0
0
1.14524e-283
6.93202e-236
8.33647e-191
3.56931e-148
1.3845e-107
7.39321e-36
1
1
1
1
1
1
1
1
1
1
1
1
1
1
1
1
0
0
0
0
0
4.36498e-281
1.3954e-233
2.76074e-186
1.38419e-37
1
1
1
1
1
1
1
1
1
1
1
1
0
0
0
7.11945e-121
1
1
1
1
1
1
1
1
1
1
1
1
0
0
0
6.4165e-173
0.5
1
1
1
1
1
1
1
1
1
0
0
0
0
0
0
0
1.66186e-283
8.98304e-140
1.73848e-45
1
1
1
1
1
1
1
1
1
0
0
0
0
0
7.29139e-304
1.29235e-247
5.44067e-149
3.83261e-98
7.13936e-49
1
1
1
1
1
1
1
1
1
1
1
1
1
1
1
0
0
0
0
0
5.79089e-294
8.34643e-239
2.11409e-185
1.79705e-135
6.19994e-88
5.58595e-43
1
1
1
1
1
1
1
1
1
1
1
1
1
1
0
0
0
0
0
0
4.93225e-286
1.347e-231
3.67318e-180
1.52834e-131
2.9455e-85
8.59413e-42
1
1
1
1
1
1
1
1
1
1
1
1
1
0
0
0
0
0
0
0
0
0
0
0
0
0
0
4.21092e-310
6.70601e-262
2.03792e-251
1.62847e-207
1.10557e-201
1.47927e-196
5.22763e-195
5.05098e-198
5.27572e-204
1.0584e-210
3.11265e-256
0
0
0
0
0
0
0
0
0
0
0
0
0
5.32524e-271
9.77875e-260
5.84527e-212
1.9136e-203
5.69576e-161
3.36171e-156
2.53345e-152
2.48751e-151
2.27107e-154
5.49096e-158
3.76647e-164
1.50783e-207
0
0
0
0
0
0
0
0
0
0
0
0
1.28568e-269
2.90475e-220
2.45622e-210
8.38515e-165
2.19202e-122
2.01883e-117
5.54651e-114
4.86646e-111
2.66813e-110
1.89715e-112
1.52494e-115
1.10041e-119
3.11732e-161
0
0
0
0
0
0
0
0
0
0
0
8.03044e-268
1.1656e-218
2.27334e-171
1.39625e-126
3.43826e-120
4.85778e-80
4.94676e-76
1.39644e-73
6.97203e-72
4.29604e-71
1.22507e-72
1.27341e-74
2.29598e-77
9.8967e-118
0
0
0
0
0
0
0
0
0
0
2.83642e-267
1.05283e-217
1.25774e-170
2.37702e-125
1.10585e-82
5.93038e-78
7.36027e-39
2.60764e-37
4.21563e-36
4.45328e-35
7.68208e-35
1.84196e-35
1.24737e-36
5.41059e-38
1.36682e-39
0
0
0
0
0
0
0
0
0
2.84447e-267
2.29496e-217
1.3377e-169
1.49402e-124
1.95619e-81
3.31669e-40
3.38349e-38
1
1
1
1
1
1
1
1
0.5
0
0
0
0
0
0
0
0
1.98086e-267
3.42414e-217
2.87807e-169
5.95576e-124
8.26033e-81
9.09479e-40
1
1
1
1
1
1
1
1
1
1
1
0
0
0
0
0
0
0
8.83878e-268
1.83753e-217
1.90236e-169
6.45949e-124
1.47189e-80
1.28899e-39
1
1
1
1
1
1
1
1
1
1
1
1
0
0
0
0
0
0
6.88508e-269
4.06299e-218
2.81971e-170
2.88316e-124
1.09976e-80
1.33003e-39
1
1
1
1
1
1
1
1
1
1
1
1
1
0
0
0
0
0
2.7957e-270
2.67838e-219
2.51545e-171
5.90989e-125
3.55194e-81
1.00112e-39
1
1
1
1
1
1
1
1
1
1
1
1
1
1
0
0
0
0
9.06166e-310
1.98385e-221
7.40901e-173
4.91543e-126
6.17444e-82
3.82334e-40
1
1
1
1
1
1
1
1
1
1
1
1
1
1
1
0
0
0
9.88131e-313
1.89852e-261
1.13969e-211
1.15205e-164
3.78836e-120
4.60124e-78
4.13811e-38
1
1
1
1
1
1
1
1
1
1
1
1
1
1
1
0
0
0
7.05773e-301
9.92367e-251
5.28096e-203
1.18352e-121
1.80561e-79
9.7893e-39
1
1
1
1
1
1
1
1
1
1
1
1
1
1
1
1
0
0
1.03691e-305
9.25509e-255
7.78246e-207
3.39072e-160
7.61079e-117
1.19125e-75
4.05981e-37
1
1
1
1
1
1
1
1
1
1
1
1
1
1
1
1
0
0
1.19775e-296
8.85786e-247
3.20627e-200
1.51888e-155
6.06617e-113
4.09345e-73
1.13681e-35
1
1
1
1
1
1
1
1
1
1
1
1
1
1
1
1
0
0
1.04522e-288
1.73306e-240
1.12301e-194
9.43364e-151
1.53454e-109
1.57038e-70
1.52803e-34
1
1
1
1
1
1
1
1
1
1
1
1
1
1
1
1
0
0
4.14464e-286
1.19525e-237
3.35274e-192
3.10026e-149
1.12779e-108
5.47062e-70
2.70771e-34
1
1
1
1
1
1
1
1
1
1
1
1
1
1
1
1
0
0
0
3.66039e-285
5.19313e-237
1.41763e-191
1.24926e-148
4.30479e-108
4.72576e-36
1
1
1
1
1
1
1
1
1
1
1
1
1
1
1
1
0
0
0
0
0
2.78013e-282
1.94946e-234
3.16829e-187
7.61288e-38
1
1
1
1
1
1
1
1
1
1
1
1
0
0
0
2.57465e-121
1
1
1
1
1
1
1
1
1
1
1
1
0
0
0
1.31057e-173
0.5
1
1
1
1
1
1
1
1
1
0
0
0
0
0
0
0
3.2878e-285
3.08201e-140
9.92667e-46
1
1
1
1
1
1
1
1
1
0
0
0
0
0
0
7.95066e-249
3.00399e-195
7.93807e-143
2.74673e-49
0.5
1
1
1
1
1
1
1
1
1
1
1
1
1
1
0
0
0
0
0
6.28904e-298
1.38075e-241
3.37526e-188
1.13796e-137
1.77039e-89
8.3645e-44
1
1
1
1
1
1
1
1
1
1
1
1
1
1
0
0
0
0
0
0
1.53996e-290
2.85649e-235
6.01826e-183
9.86301e-134
8.47322e-87
1.28563e-42
1
1
1
1
1
1
1
1
1
1
1
1
1
0
0
0
0
0
0
0
0
0
0
0
0
0
0
0
1.93348e-268
8.66925e-259
7.31886e-214
2.47655e-206
7.13877e-202
6.15092e-200
3.86092e-203
7.1337e-209
1.58064e-252
3.95719e-262
0
0
0
0
0
0
0
0
0
0
0
0
0
0
7.02102e-266
5.89525e-218
6.01916e-210
7.96499e-167
2.13745e-160
1.32283e-156
5.89432e-155
1.33408e-157
1.95098e-162
1.83019e-204
1.80541e-212
0
0
0
0
0
0
0
0
0
0
0
0
6.9842e-277
1.0492e-225
2.55125e-215
1.15531e-169
7.10347e-163
2.7405e-121
3.87217e-117
2.72359e-114
5.95728e-113
4.93785e-115
2.15689e-118
1.25784e-122
2.58251e-165
0
0
0
0
0
0
0
0
0
0
0
1.69966e-275
2.49096e-224
1.44281e-176
7.88511e-168
4.73297e-124
1.27019e-118
1.61344e-78
5.33749e-76
4.33599e-74
4.42599e-73
1.38366e-74
8.42183e-77
6.56486e-80
1.90357e-120
0
0
0
0
0
0
0
0
0
0
6.78389e-275
1.37182e-223
7.8112e-175
7.36843e-129
1.15754e-122
1.37882e-80
6.23832e-77
2.0718e-38
3.54689e-37
3.30611e-36
7.48815e-36
1.83576e-36
1.47106e-37
5.91883e-39
6.43611e-78
0
0
0
0
0
0
0
0
0
8.01701e-275
6.88621e-223
3.1771e-174
9.451e-128
7.47709e-84
2.3279e-41
1.86044e-39
1.38795e-37
1
1
1
1
1
1
1
3.5252e-38
0
0
0
0
0
0
0
0
6.45301e-275
8.0885e-223
5.46146e-174
2.29073e-127
5.51171e-83
6.34045e-41
0.5
1
1
1
1
1
1
1
1
1
1
0
0
0
0
0
0
0
1.0323e-275
5.8028e-223
3.3628e-174
2.23592e-127
7.40303e-83
8.99639e-41
1
1
1
1
1
1
1
1
1
1
1
1
0
0
0
0
0
0
3.89222e-277
1.20033e-223
7.56713e-175
9.38067e-128
4.6056e-83
9.44165e-41
1
1
1
1
1
1
1
1
1
1
1
1
1
0
0
0
0
0
0
6.37155e-225
6.33357e-176
2.43587e-128
1.96628e-83
7.33717e-41
1
1
1
1
1
1
1
1
1
1
1
1
1
1
0
0
0
0
0
2.79991e-265
1.68176e-215
6.94372e-168
1.47711e-122
2.8801e-41
0.5
1
1
1
1
1
1
1
1
1
1
1
1
1
1
0
0
0
0
2.2971e-267
8.23908e-217
4.88949e-169
2.53293e-123
2.47876e-80
3.19136e-39
1
1
1
1
1
1
1
1
1
1
1
1
1
1
1
0
0
0
3.51031e-308
5.60042e-257
4.44343e-208
3.68501e-162
4.12045e-118
7.95917e-40
0.5
1
1
1
1
1
1
1
1
1
1
1
1
1
1
1
0
0
0
2.19441e-297
8.50613e-212
1.26354e-165
1.22826e-120
4.24033e-78
3.31298e-38
1
1
1
1
1
1
1
1
1
1
1
1
1
1
1
1
0
0
4.93131e-304
8.21096e-253
6.36345e-205
3.20908e-159
3.37373e-116
2.51443e-75
8.28648e-37
1
1
1
1
1
1
1
1
1
1
1
1
1
1
1
1
0
0
5.02428e-297
4.05368e-247
3.11358e-200
3.07682e-155
6.09989e-113
7.99078e-73
1.06802e-35
1
1
1
1
1
1
1
1
1
1
1
1
1
1
1
1
0
0
3.30545e-293
6.05619e-244
2.01249e-197
4.15207e-153
1.64665e-111
4.33185e-72
2.38719e-35
1
1
1
1
1
1
1
1
1
1
1
1
1
1
1
1
0
0
0
1.63802e-292
2.9997e-243
9.9633e-197
2.05458e-152
8.13901e-111
3.2156e-71
1
1
1
1
1
1
1
1
1
1
1
1
1
1
1
1
0
0
0
0
0
1.54359e-289
2.96826e-240
6.92197e-193
2.0893e-75
1
1
1
1
1
1
1
1
1
1
1
1
0
0
0
1.86242e-124
1
1
1
1
1
1
1
1
1
1
1
1
0
0
0
4.39346e-178
3.78603e-42
1
1
1
1
1
1
1
1
1
1
1
1
1
1
1
0
0
0
0
0
0
0
4.87683e-236
8.51255e-136
6.97988e-44
1
1
1
1
1
1
1
1
1
1
1
1
1
1
1
0
0
0
0
0
5.49617e-294
1.98462e-237
5.26317e-186
6.24004e-136
1.61762e-89
2.46542e-46
1
1
1
1
1
1
1
1
1
1
1
1
1
1
0
0
0
0
0
0
2.67322e-290
5.88954e-236
3.11846e-142
5.10082e-93
2.6456e-45
1
1
1
1
1
1
1
1
1
1
1
1
1
1
0
0
0
0
0
0
0
1.4331e-242
5.51624e-190
2.93392e-138
7.41854e-90
4.04304e-44
1
1
1
1
1
1
1
1
1
1
1
1
1
0
0
0
0
0
0
0
0
0
0
0
0
0
0
0
0
9.48901e-268
1.82785e-258
1.02999e-250
6.34665e-245
3.3459e-208
1.72839e-246
5.77447e-253
7.53403e-261
1.04596e-271
0
0
0
0
0
0
0
0
0
0
0
0
0
0
5.54149e-276
7.74722e-264
4.02249e-217
1.14775e-209
5.01064e-203
5.42167e-198
2.66438e-162
2.50907e-199
4.02311e-205
1.41265e-211
3.56684e-220
0
0
0
0
0
0
0
0
0
0
0
0
0
4.23926e-274
3.87382e-224
7.57659e-214
5.46114e-169
6.96202e-163
4.53967e-122
1.21713e-118
3.57845e-118
7.40258e-120
1.64303e-159
1.71867e-164
1.95879e-171
0
0
0
0
0
0
0
0
0
0
0
0
1.73186e-272
1.37921e-222
1.87746e-174
1.49263e-128
1.54231e-123
1.21273e-118
1.1508e-79
1.69587e-77
1.78015e-76
3.34438e-78
3.01073e-116
2.58395e-120
2.25961e-125
0
0
0
0
0
0
0
0
0
0
0
1.07832e-271
1.8118e-221
1.50971e-173
1.79069e-127
4.28018e-84
6.14119e-80
1.17197e-76
1.0691e-38
9.01042e-38
2.07246e-37
5.6675e-38
4.30568e-39
8.18211e-78
3.6776e-81
0
0
0
0
0
0
0
0
0
0
5.12948e-271
7.3763e-221
9.83233e-173
8.86945e-127
5.21576e-83
4.62006e-41
2.79942e-39
1.36974e-37
1
1
1
1
0.5
4.07138e-38
6.88041e-40
0
0
0
0
0
0
0
0
0
2.32948e-271
1.30038e-220
2.01945e-172
2.63909e-126
2.75586e-82
1.64366e-40
1
1
1
1
1
1
1
1
1
1
0
0
0
0
0
0
0
0
2.00588e-271
8.00761e-221
5.01764e-172
3.81533e-126
1.20611e-42
2.80358e-40
1
1
1
1
1
1
1
1
1
1
1
0
0
0
0
0
0
0
2.71694e-272
3.43828e-221
1.46715e-172
6.20373e-126
1.20577e-42
0.5
1
1
1
1
1
1
1
1
1
1
1
1
0
0
0
0
0
0
1.60685e-273
3.60601e-222
5.82113e-173
1.44331e-126
3.36795e-82
3.03545e-40
1
1
1
1
1
1
1
1
1
1
1
1
1
0
0
0
0
0
9.64055e-275
1.19463e-223
8.45756e-174
5.84482e-127
7.20497e-83
1.93536e-40
1
1
1
1
1
1
1
1
1
1
1
1
1
1
0
0
0
0
0
1.17706e-263
1.5206e-213
1.69625e-128
3.5135e-84
5.75905e-41
1
1
1
1
1
1
1
1
1
1
1
1
1
1
1
0
0
0
0
1.00357e-266
2.62479e-216
2.25614e-168
4.17008e-123
5.67274e-80
4.33431e-39
1
1
1
1
1
1
1
1
1
1
1
1
1
1
1
0
0
0
1.88989e-308
3.08879e-257
1.19026e-208
4.20244e-162
2.37518e-118
1.38722e-76
2.12212e-37
1
1
1
1
1
1
1
1
1
1
1
1
1
1
1
0
0
0
2.04624e-299
2.59064e-249
1.32092e-201
3.14986e-121
4.3551e-79
2.13554e-38
1
1
1
1
1
1
1
1
1
1
1
1
1
1
1
1
0
0
0
3.69277e-291
7.00527e-208
3.01027e-162
1.70321e-117
4.23374e-76
2.35807e-37
1
1
1
1
1
1
1
1
1
1
1
1
1
1
1
1
0
0
0
8.32549e-288
1.38324e-205
2.47296e-160
1.39656e-116
2.72232e-75
5.87351e-37
1
1
1
1
1
1
1
1
1
1
1
1
1
1
1
1
0
0
0
0
4.12396e-287
6.84785e-205
1.22342e-159
1.38033e-115
2.14806e-74
1
1
1
1
1
1
1
1
1
1
1
1
1
1
1
1
0
0
0
0
0
0
2.10921e-284
3.70498e-200
1.08821e-113
0.5
1
1
1
1
1
1
1
1
1
1
1
1
1
1
1
0
0
0
1.92599e-165
4.05396e-39
1
1
1
1
1
1
1
1
1
1
1
1
1
1
1
0
0
0
1.65517e-212
2.50198e-41
1
1
1
1
1
1
1
1
1
1
1
1
1
1
1
0
0
0
0
0
0
0
1.15705e-266
2.81025e-130
4.25952e-42
1
1
1
1
1
1
1
1
1
1
1
1
1
1
1
0
0
0
0
0
1.18023e-286
3.90528e-234
2.89213e-183
1.91234e-130
2.46571e-86
1.72246e-42
1
1
1
1
1
1
1
1
1
1
1
1
1
1
0
0
0
0
0
0
5.99367e-286
4.85918e-234
4.19276e-183
1.23129e-131
2.48498e-87
1.24622e-43
1
1
1
1
1
1
1
1
1
1
1
1
1
0
0
0
0
0
0
0
1.04079e-285
6.2463e-234
1.63248e-183
1.94815e-133
8.17625e-88
4.55599e-43
1
1
1
1
1
1
1
1
1
1
1
1
0
0
0
0
0
0
0
0
0
0
0
0
0
0
0
0
0
7.86378e-270
8.36935e-261
5.37787e-255
1.76092e-253
6.69401e-256
1.17893e-263
2.14301e-309
0
0
0
0
0
0
0
0
0
0
0
0
0
0
0
0
6.9212e-275
3.0344e-265
2.00943e-218
4.38554e-211
6.74478e-207
1.41232e-205
2.68098e-207
4.13772e-214
7.37372e-221
8.61669e-269
0
0
0
0
0
0
0
0
0
0
0
0
0
0
2.9634e-273
5.05358e-224
3.61888e-215
4.17694e-170
4.80104e-165
2.97637e-161
8.15763e-160
9.42743e-162
1.96332e-166
1.31649e-172
3.21044e-218
0
0
0
0
0
0
0
0
0
0
0
0
0
8.36937e-232
5.37488e-222
2.04663e-174
2.56951e-167
1.83313e-124
2.55115e-120
1.73698e-117
1.85682e-116
7.72611e-118
1.01214e-121
8.135e-126
7.64919e-170
0
0
0
0
0
0
0
0
0
0
0
0
1.55216e-230
2.69104e-181
7.82453e-173
1.53622e-127
3.83272e-122
1.1552e-80
5.59587e-78
3.99884e-76
2.48799e-75
3.11063e-76
7.69358e-79
1.82235e-81
5.75996e-124
0
0
0
0
0
0
0
0
0
0
0
1.1825e-229
2.72483e-180
3.55691e-132
5.64437e-126
7.58607e-83
4.24045e-41
1.69746e-39
4.30259e-38
3.55327e-37
7.79914e-37
2.23886e-37
1.72184e-38
4.79965e-40
2.76848e-80
0
0
0
0
0
0
0
0
0
0
2.52434e-229
7.47243e-180
2.0753e-131
5.14012e-86
1.50607e-42
2.02066e-40
0.5
1
1
1
1
1
1
1
2.88904e-39
0
0
0
0
0
0
0
0
0
1.87153e-229
8.52263e-180
1.78296e-131
1.78583e-85
3.71797e-42
0.5
1
1
1
1
1
1
1
1
1
1
0
0
0
0
0
0
0
0
2.64884e-230
1.95033e-180
9.08968e-132
1.21115e-85
5.47183e-42
1
1
1
1
1
1
1
1
1
1
1
1
0
0
0
0
0
0
0
2.96778e-231
3.95523e-181
2.23885e-132
5.76133e-86
3.98584e-42
1
1
1
1
1
1
1
1
1
1
1
1
1
0
0
0
0
0
0
4.28273e-272
3.04251e-221
1.31334e-172
7.94165e-126
1.68951e-42
0.5
1
1
1
1
1
1
1
1
1
1
1
1
1
0
0
0
0
0
3.21741e-274
1.34261e-222
2.48066e-174
3.97368e-127
1.22333e-82
2.45055e-40
1
1
1
1
1
1
1
1
1
1
1
1
1
1
0
0
0
0
0
1.45372e-263
1.22041e-213
2.8501e-128
6.34823e-84
5.51543e-41
1
1
1
1
1
1
1
1
1
1
1
1
1
1
1
0
0
0
0
3.48382e-268
2.72834e-217
8.58238e-169
2.42846e-123
5.01697e-80
2.46856e-39
1
1
1
1
1
1
1
1
1
1
1
1
1
1
1
0
0
0
6.60566e-311
5.19469e-259
1.97916e-210
2.00703e-163
2.96147e-119
3.71917e-77
8.10028e-38
1
1
1
1
1
1
1
1
1
1
1
1
1
1
1
0
0
0
2.24311e-304
7.07015e-254
1.3389e-205
8.38948e-160
2.04591e-116
2.81512e-75
8.65682e-37
1
1
1
1
1
1
1
1
1
1
1
1
1
1
1
0
0
0
2.38084e-300
1.95296e-251
1.49402e-203
3.69933e-158
3.47526e-115
1.82551e-74
2.1667e-36
1
1
1
1
1
1
1
1
1
1
1
1
1
1
1
0
0
0
0
2.36015e-299
1.93496e-250
1.47558e-202
4.79643e-157
6.32817e-75
6.99553e-37
1
1
1
1
1
1
1
1
1
1
1
1
1
1
1
0
0
0
0
0
0
4.20236e-294
2.05491e-200
6.08339e-115
1.9895e-37
1
1
1
1
1
1
1
1
1
1
1
1
1
1
1
0
0
0
0
0
0
0
8.39613e-307
1.02043e-121
2.65286e-39
1
1
1
1
1
1
1
1
1
1
1
1
1
1
1
0
0
0
0
0
0
0
0
2.98428e-165
2.03192e-41
0.5
1
1
1
1
1
1
1
1
1
1
1
1
1
1
0
0
0
0
0
0
0
2.2698e-224
2.51507e-129
3.95878e-84
3.89587e-41
1
1
1
1
1
1
1
1
1
1
1
1
1
1
0
0
0
0
0
0
6.95923e-276
1.58292e-224
3.8027e-176
7.09544e-129
9.7585e-44
0.5
1
1
1
1
1
1
1
1
1
1
1
1
1
0
0
0
0
0
0
0
8.63455e-276
4.38507e-225
2.28003e-136
1.41452e-89
1.62457e-43
1
1
1
1
1
1
1
1
1
1
1
1
1
0
0
0
0
0
0
0
0
1.91889e-276
1.40956e-225
4.10862e-136
2.83312e-89
1.04285e-43
1
1
1
1
1
1
1
1
1
1
1
1
0
0
0
0
0
0
0
0
0
0
0
0
0
0
0
0
0
0
1.10127e-310
2.33857e-303
1.94727e-301
1.30757e-304
4.94066e-313
0
0
0
0
0
0
0
0
0
0
0
0
0
0
0
0
0
0
4.94066e-314
3.99998e-267
4.76052e-259
2.65422e-253
2.91644e-251
4.14445e-254
2.47343e-261
3.33632e-270
0
0
0
0
0
0
0
0
0
0
0
0
0
0
0
0
1.18813e-273
5.24727e-224
1.35155e-216
4.57952e-210
2.16551e-205
1.09403e-203
5.5406e-206
2.96695e-212
2.79428e-219
9.43334e-267
0
0
0
0
0
0
0
0
0
0
0
0
0
0
1.41913e-270
2.92054e-222
1.96179e-175
1.05392e-168
2.3918e-163
1.52523e-159
3.03084e-158
2.59805e-160
5.00387e-165
4.2797e-171
1.63206e-216
0
0
0
0
0
0
0
0
0
0
0
0
0
1.60091e-230
5.6348e-220
3.85171e-173
1.08181e-127
3.51403e-123
3.89576e-119
2.34619e-116
2.114e-115
5.98471e-117
1.95667e-120
8.26942e-125
3.78068e-130
0
0
0
0
0
0
0
0
0
0
0
0
2.96436e-229
2.11172e-180
4.66037e-132
1.96242e-126
5.80167e-83
8.61815e-80
3.98022e-77
3.42412e-39
7.11388e-39
2.12911e-39
5.77822e-78
6.69258e-81
4.15413e-85
0
0
0
0
0
0
0
0
0
0
0
7.44769e-229
2.39764e-179
2.23224e-131
7.73491e-87
5.33336e-82
1.14284e-40
4.63172e-39
9.96598e-38
0.5
0.5
0.5
3.98261e-38
1.29992e-39
1.92981e-41
0
0
0
0
0
0
0
0
0
0
8.91048e-229
2.07488e-179
5.73004e-131
1.49157e-85
3.64204e-42
3.81071e-40
1
1
1
1
1
1
1
1
1
0
0
0
0
0
0
0
0
0
2.45148e-229
1.41594e-179
5.13605e-131
3.08031e-85
7.25732e-42
1
1
1
1
1
1
1
1
1
1
1
0
0
0
0
0
0
0
0
3.75913e-230
4.11337e-180
4.04914e-131
1.70649e-85
7.50797e-42
1
1
1
1
1
1
1
1
1
1
1
1
0
0
0
0
0
0
0
5.18282e-270
3.40327e-219
6.4356e-132
1.8534e-86
3.97149e-42
1
1
1
1
1
1
1
1
1
1
1
1
1
0
0
0
0
0
0
7.09461e-273
1.4758e-221
1.26527e-172
5.22389e-126
1.28479e-81
4.42214e-40
1
1
1
1
1
1
1
1
1
1
1
1
1
0
0
0
0
0
3.95253e-313
1.03017e-223
1.38936e-175
1.14189e-127
5.31296e-83
1.43718e-40
1
1
1
1
1
1
1
1
1
1
1
1
1
1
0
0
0
0
0
8.37624e-266
5.94995e-216
5.52991e-168
1.0401e-122
1.74582e-79
7.16426e-39
1
1
1
1
1
1
1
1
1
1
1
1
1
1
0
0
0
0
5.70528e-308
7.48701e-257
3.96684e-208
7.71856e-162
7.0385e-118
6.91774e-40
0.5
1
1
1
1
1
1
1
1
1
1
1
1
1
1
0
0
0
0
1.33851e-301
2.46996e-251
4.28562e-203
4.02407e-122
1.19631e-79
7.2828e-39
1
1
1
1
1
1
1
1
1
1
1
1
1
1
1
0
0
0
0
1.08259e-298
7.09719e-249
2.46214e-201
6.98503e-121
7.9605e-79
1.8615e-38
1
1
1
1
1
1
1
1
1
1
1
1
1
1
1
0
0
0
0
4.19453e-300
3.77942e-250
2.62049e-202
2.88231e-122
7.9756e-80
5.67156e-39
1
1
1
1
1
1
1
1
1
1
1
1
1
1
1
0
0
0
0
0
6.40756e-300
1.88018e-249
1.2983e-201
1.20271e-116
9.74891e-40
0.5
1
1
1
1
1
1
1
1
1
1
1
1
1
1
0
0
0
0
0
0
1.45255e-311
9.17472e-213
4.26268e-122
1.82903e-79
5.41769e-39
1
1
1
1
1
1
1
1
1
1
1
1
1
1
0
0
0
0
0
0
0
7.03495e-223
1.29871e-128
1.37357e-83
6.73118e-41
1
1
1
1
1
1
1
1
1
1
1
1
1
1
0
0
0
0
0
0
6.5752e-275
4.69321e-223
2.05717e-174
2.5933e-127
8.58487e-83
1.37559e-40
1
1
1
1
1
1
1
1
1
1
1
1
1
0
0
0
0
0
0
0
1.08228e-273
3.49597e-222
5.72408e-134
3.3586e-88
6.21115e-43
1
1
1
1
1
1
1
1
1
1
1
1
1
0
0
0
0
0
0
0
0
3.39663e-273
4.88982e-222
8.7992e-134
7.60243e-88
7.51541e-43
1
1
1
1
1
1
1
1
1
1
1
1
0
0
0
0
0
0
0
0
0
5.54102e-273
4.54242e-222
1.00493e-133
8.72707e-88
3.93173e-43
0.5
1
1
1
1
1
1
1
1
1
1
0
0
0
0
0
0
0
0
0
0
0
0
0
0
0
0
0
0
0
0
0
0
0
0
0
0
0
0
0
0
0
0
0
0
0
0
0
0
0
0
0
0
0
1.0685e-308
2.49812e-301
1.97013e-299
4.91069e-303
2.5642e-311
0
0
0
0
0
0
0
0
0
0
0
0
0
0
0
0
0
0
4.44659e-313
2.21183e-265
2.01106e-257
2.20976e-251
1.37187e-249
1.36212e-252
1.23627e-259
5.48822e-269
0
0
0
0
0
0
0
0
0
0
0
0
0
0
0
0
3.14027e-272
1.83762e-223
1.30854e-215
7.64816e-209
9.80817e-204
2.42931e-202
1.5921e-204
1.13653e-210
4.67404e-218
3.66819e-265
0
0
0
0
0
0
0
0
0
0
0
0
0
0
9.50949e-270
4.30879e-221
1.24331e-174
8.50645e-168
2.63962e-162
1.83181e-122
8.0196e-122
8.41259e-123
5.83222e-164
5.27108e-170
3.1546e-215
0
0
0
0
0
0
0
0
0
0
0
0
0
1.01062e-229
5.57302e-219
2.79448e-172
2.86321e-127
1.72665e-122
3.25485e-118
3.20478e-80
1.29267e-79
1.18864e-80
1.16845e-119
3.67266e-124
3.07779e-129
0
0
0
0
0
0
0
0
0
0
0
0
8.66994e-229
1.05331e-179
7.42451e-132
8.33237e-126
1.32478e-82
1.98591e-79
5.97632e-40
7.7458e-39
1.54738e-38
4.74322e-39
2.20762e-40
1.51728e-80
1.88922e-84
0
0
0
0
0
0
0
0
0
0
0
2.20348e-228
4.17468e-179
7.39831e-131
2.77616e-86
1.32112e-81
1.65816e-40
7.35962e-39
0.5
1
1
1
0.5
2.10445e-39
3.9636e-41
0
0
0
0
0
0
0
0
0
0
1.02484e-228
3.19224e-179
7.98861e-131
2.24021e-85
4.55628e-42
4.79719e-40
1
1
1
1
1
1
1
1
1
0
0
0
0
0
0
0
0
0
1.61029e-229
1.10183e-179
6.65317e-131
2.26757e-85
7.74063e-42
0.5
1
1
1
1
1
1
1
1
1
1
0
0
0
0
0
0
0
0
3.07514e-269
1.07074e-218
1.55135e-131
3.25653e-86
4.79895e-42
0.5
1
1
1
1
1
1
1
1
1
1
1
0
0
0
0
0
0
0
4.21194e-271
2.46163e-220
1.29701e-171
1.27451e-125
1.73834e-81
5.37106e-40
1
1
1
1
1
1
1
1
1
1
1
1
0
0
0
0
0
0
2.2727e-312
7.27366e-223
2.02161e-174
5.18794e-127
2.09702e-82
2.00628e-40
1
1
1
1
1
1
1
1
1
1
1
1
1
0
0
0
0
0
0
2.01145e-264
1.67044e-214
4.28567e-167
5.81103e-122
4.86353e-79
1.00299e-38
1
1
1
1
1
1
1
1
1
1
1
1
1
0
0
0
0
0
4.27929e-306
4.97034e-255
6.92276e-207
1.10717e-124
2.2202e-81
1.51218e-39
1
1
1
1
1
1
1
1
1
1
1
1
1
1
0
0
0
0
0
3.19253e-299
1.13776e-213
2.33224e-167
2.05367e-121
6.76833e-79
1.57465e-38
1
1
1
1
1
1
1
1
1
1
1
1
1
1
0
0
0
0
0
2.39816e-296
6.88764e-212
1.07227e-165
4.13433e-120
4.49951e-78
4.01977e-38
1
1
1
1
1
1
1
1
1
1
1
1
1
1
0
0
0
0
0
1.66877e-299
8.02267e-250
2.10663e-202
1.13439e-121
1.84055e-79
1.18247e-38
1
1
1
1
1
1
1
1
1
1
1
1
1
1
0
0
0
0
0
2.72125e-302
3.61724e-252
1.45217e-204
4.43856e-160
3.31884e-117
1.73616e-39
0.5
1
1
1
1
1
1
1
1
1
1
1
1
1
0
0
0
0
0
4.94066e-314
7.96036e-263
3.64313e-213
8.12167e-167
2.6904e-122
1.53076e-79
5.84706e-39
1
1
1
1
1
1
1
1
1
1
1
1
1
0
0
0
0
0
0
4.89125e-312
3.15647e-223
3.61286e-175
8.44809e-128
7.46377e-83
8.42383e-41
1
1
1
1
1
1
1
1
1
1
1
1
1
0
0
0
0
0
0
0
7.2071e-274
2.34718e-222
2.66111e-173
9.99025e-127
1.92991e-82
1.36529e-40
1
1
1
1
1
1
1
1
1
1
1
1
0
0
0
0
0
0
0
0
6.66757e-273
1.79368e-221
1.54133e-133
8.24171e-88
7.58464e-43
0.5
1
1
1
1
1
1
1
1
1
1
1
0
0
0
0
0
0
0
0
0
1.62314e-272
3.55976e-221
1.83729e-133
1.3207e-87
8.56555e-43
0.5
1
1
1
1
1
1
1
1
1
1
0
0
0
0
0
0
0
0
0
0
2.64997e-272
1.71938e-221
1.72933e-133
1.65473e-88
3.42284e-43
3.63037e-41
1
1
1
1
1
1
1
1
0.5
0
0
0
0
0
0
0
0
0
0
0
0
0
0
0
0
0
0
0
0
0
0
0
0
0
0
0
0
0
0
0
0
0
0
0
0
0
0
0
0
0
0
0
0
0
0
0
0
0
0
0
0
0
0
0
0
0
0
0
0
0
0
0
0
0
0
0
0
2.19692e-307
2.33454e-300
3.75748e-298
7.03777e-302
3.24601e-310
0
0
0
0
0
0
0
0
0
0
0
0
0
0
0
0
0
0
5.03947e-312
2.7794e-264
2.23797e-256
1.9019e-250
1.44069e-248
1.00235e-251
9.06168e-259
2.8894e-267
0
0
0
0
0
0
0
0
0
0
0
0
0
0
0
0
2.36026e-271
8.63537e-223
1.87597e-214
5.07601e-208
4.82603e-203
1.18192e-201
6.02358e-204
4.70983e-210
1.6736e-217
2.79053e-264
0
0
0
0
0
0
0
0
0
0
0
0
0
0
3.57363e-269
1.97359e-220
2.26331e-174
4.43596e-167
1.00956e-161
4.49918e-122
3.80691e-121
1.01292e-122
2.04348e-163
4.58588e-169
1.68694e-214
0
0
0
0
0
0
0
0
0
0
0
0
0
3.76466e-229
2.16427e-218
7.23833e-172
5.53493e-127
4.65333e-122
5.23213e-118
8.10933e-80
3.21775e-79
2.98384e-80
2.46006e-119
1.19513e-123
9.87581e-129
0
0
0
0
0
0
0
0
0
0
0
0
2.42256e-228
2.61404e-179
7.41601e-132
1.51348e-125
1.11758e-82
3.80427e-79
4.77637e-40
9.09742e-39
1.72491e-38
5.45739e-39
1.76457e-40
4.00874e-80
3.17814e-84
0
0
0
0
0
0
0
0
0
0
0
1.43591e-228
3.84895e-179
4.54724e-131
1.2326e-86
1.38773e-81
1.68564e-40
6.89968e-39
1.5369e-37
0.5
0.5
0.5
5.87501e-38
1.91307e-39
1.93847e-41
0
0
0
0
0
0
0
0
0
0
3.53921e-229
1.05104e-179
3.13279e-131
7.69013e-86
2.08609e-42
4.14354e-40
0.5
1
1
1
1
1
1
1
5.95022e-39
0
0
0
0
0
0
0
0
0
1.26491e-268
1.95879e-218
1.15905e-131
1.42176e-86
2.16352e-42
5.41896e-40
1
1
1
1
1
1
1
1
1
1
0
0
0
0
0
0
0
0
1.04892e-270
7.10413e-220
1.58419e-171
2.23373e-125
1.77101e-81
4.48483e-40
1
1
1
1
1
1
1
1
1
1
1
0
0
0
0
0
0
0
3.82407e-311
3.21583e-222
7.03067e-174
1.19022e-126
2.23376e-82
1.97031e-40
0.5
1
1
1
1
1
1
1
1
1
1
1
0
0
0
0
0
0
0
2.56733e-263
5.80896e-214
1.46992e-166
1.36916e-121
6.81147e-79
8.87867e-39
1
1
1
1
1
1
1
1
1
1
1
1
0
0
0
0
0
0
3.52134e-305
1.10187e-254
1.31099e-206
2.69826e-124
3.75758e-81
7.67743e-40
2.34617e-37
1
1
1
1
1
1
1
1
1
1
1
1
0
0
0
0
0
0
8.62474e-298
9.31589e-213
2.03753e-166
6.79905e-121
1.8282e-78
1.73743e-38
0.5
1
1
1
1
1
1
1
1
1
1
1
1
0
0
0
0
0
0
5.14772e-295
1.60924e-210
8.95152e-165
1.21611e-119
1.00615e-77
4.44003e-38
1
1
1
1
1
1
1
1
1
1
1
1
1
0
0
0
0
0
0
1.24852e-298
5.29414e-249
9.96699e-202
3.31758e-121
2.5533e-79
1.24933e-38
0.5
1
1
1
1
1
1
1
1
1
1
1
1
0
0
0
0
0
0
1.81935e-302
1.50366e-252
7.09509e-206
1.82284e-160
4.51353e-117
7.65776e-40
1.60384e-37
1
1
1
1
1
1
1
1
1
1
1
1
0
0
0
0
0
0
4.94066e-314
7.18567e-263
2.98963e-214
5.18964e-167
2.34129e-122
1.93022e-79
3.7129e-39
1
1
1
1
1
1
1
1
1
1
1
1
0
0
0
0
0
0
0
4.74303e-312
2.89378e-223
7.8607e-175
1.47594e-127
2.88065e-83
6.23635e-41
0.5
1
1
1
1
1
1
1
1
1
1
1
0
0
0
0
0
0
0
0
2.81771e-273
7.05362e-222
2.7269e-173
4.77548e-127
1.10927e-82
9.6044e-41
1
1
1
1
1
1
1
1
1
1
1
0
0
0
0
0
0
0
0
0
2.54574e-272
3.81964e-221
1.31702e-133
4.61823e-88
3.31172e-43
8.02397e-41
1
1
1
1
1
1
1
1
1
1
0
0
0
0
0
0
0
0
0
0
6.25358e-272
1.94636e-221
1.59799e-133
8.70366e-89
1.98545e-43
3.73403e-41
3.19602e-39
1
1
1
1
1
1
1
3.43184e-42
0
0
0
0
0
0
0
0
0
0
0
2.80592e-272
1.43975e-221
1.84628e-134
8.41288e-128
9.21697e-84
6.41976e-42
9.25916e-40
1.69851e-38
2.03674e-38
8.63694e-39
1.91049e-39
5.97495e-41
9.6715e-43
3.21668e-45
0
0
0
0
0
0
0
0
0
0
0
0
0
0
0
0
0
0
0
0
0
0
0
0
0
0
0
0
0
0
0
0
0
0
0
0
0
0
0
0
0
0
0
0
0
0
0
0
0
0
0
0
0
0
0
0
0
0
0
0
0
0
0
0
0
0
0
0
0
0
0
0
0
0
0
0
0
0
0
0
0
0
0
0
0
0
0
0
0
0
0
0
0
1.72379e-306
3.3122e-299
2.96195e-297
4.57301e-301
2.13377e-309
0
0
0
0
0
0
0
0
0
0
0
0
0
0
0
0
0
0
3.98217e-311
7.51803e-264
1.11102e-255
8.62811e-250
5.01836e-248
2.55597e-251
3.42256e-258
8.22395e-267
0
0
0
0
0
0
0
0
0
0
0
0
0
0
0
0
1.19176e-270
2.42638e-222
2.77845e-214
1.73799e-207
2.08102e-202
2.43515e-201
1.03237e-203
1.21908e-209
6.9598e-217
1.06729e-263
0
0
0
0
0
0
0
0
0
0
0
0
0
0
4.27116e-269
4.53734e-220
3.95059e-174
9.40311e-167
1.39953e-161
6.59354e-122
4.7198e-121
1.27068e-122
7.60336e-163
5.71749e-169
3.6489e-214
0
0
0
0
0
0
0
0
0
0
0
0
0
4.54115e-229
1.69231e-218
1.64894e-171
5.21052e-127
6.33494e-122
5.13005e-118
4.78327e-80
9.21532e-80
8.67417e-81
3.78147e-119
1.03952e-123
1.01306e-128
0
0
0
0
0
0
0
0
0
0
0
0
1.03829e-228
1.04838e-179
1.06857e-132
1.3645e-125
6.86681e-83
3.27972e-79
1.67494e-76
4.07535e-39
7.5418e-39
2.42134e-39
1.85574e-77
1.23447e-80
9.74471e-85
0
0
0
0
0
0
0
0
0
0
0
2.70702e-229
7.27074e-180
4.13671e-132
4.74351e-125
3.72161e-82
7.00117e-41
2.86033e-39
1.06242e-37
8.37875e-37
1.44292e-36
4.92446e-37
3.95556e-38
7.91857e-40
1.01292e-79
0
0
0
0
0
0
0
0
0
0
1.90125e-268
2.41986e-218
5.27716e-132
5.1187e-125
8.85876e-82
1.23593e-40
1.21187e-38
5.36155e-37
1
1
1
1
0.5
1.56042e-37
1.86517e-39
0
0
0
0
0
0
0
0
0
1.94458e-270
6.10967e-220
1.52318e-171
1.64476e-125
8.47601e-82
1.29034e-40
1.99533e-38
0.5
1
1
1
1
1
1
1
2.92102e-37
0
0
0
0
0
0
0
0
1.14574e-310
7.53204e-222
1.13402e-173
1.10591e-126
9.68754e-83
8.03865e-41
1.31882e-38
0.5
1
1
1
1
1
1
1
1
1
0
0
0
0
0
0
0
0
4.54751e-263
1.85206e-213
3.1633e-166
1.2972e-121
2.6948e-79
3.60159e-39
6.43742e-37
1
1
1
1
1
1
1
1
1
1
0
0
0
0
0
0
0
1.18761e-304
4.24941e-254
4.02819e-206
4.78901e-124
1.58762e-81
3.19803e-76
1.51827e-37
1
1
1
1
1
1
1
1
1
1
1
0
0
0
0
0
0
0
6.65143e-297
5.13266e-212
7.40546e-166
5.70757e-121
7.19243e-79
7.55402e-39
1.48688e-36
1
1
1
1
1
1
1
1
1
1
1
0
0
0
0
0
0
0
4.70722e-294
6.79822e-210
2.53251e-164
1.7579e-119
6.79526e-78
1.93333e-38
3.75164e-36
1
1
1
1
1
1
1
1
1
1
1
0
0
0
0
0
0
0
7.39331e-298
3.00993e-248
1.83522e-201
2.5627e-121
1.00644e-79
5.33378e-39
9.61981e-37
1
1
1
1
1
1
1
1
1
1
1
0
0
0
0
0
0
0
1.26339e-302
1.60249e-253
2.64102e-206
2.20015e-160
1.51213e-117
1.45942e-76
8.16816e-38
1
1
1
1
1
1
1
1
1
1
1
0
0
0
0
0
0
0
4.94066e-314
2.10749e-263
1.71652e-214
3.66062e-167
2.1149e-122
8.75791e-80
1.3158e-39
2.07985e-37
1
1
1
1
1
1
1
1
1
1
0
0
0
0
0
0
0
0
2.2233e-312
2.91815e-223
7.40709e-175
6.20394e-128
1.24043e-83
2.21807e-41
3.04842e-39
0.5
1
1
1
1
1
1
1
1
1
0
0
0
0
0
0
0
0
0
6.64511e-273
8.31227e-222
1.60667e-173
2.7653e-127
2.00095e-83
2.39179e-41
3.82341e-39
0.5
1
1
1
1
1
1
1
7.66189e-40
0
0
0
0
0
0
0
0
0
0
4.1215e-272
2.21131e-221
3.68901e-134
2.58655e-127
1.60883e-83
1.70339e-41
2.011e-39
1.20756e-37
0.5
1
1
1
2.0698e-38
2.97397e-40
1.54862e-42
0
0
0
0
0
0
0
0
0
0
0
6.14276e-272
9.83885e-222
1.01166e-134
7.82596e-128
4.80145e-84
5.47902e-80
4.4083e-40
1.33712e-38
1.36363e-38
1.22819e-38
3.04444e-39
3.54107e-41
5.80291e-43
4.96388e-86
0
0
0
0
0
0
0
0
0
0
0
0
2.62471e-272
1.26891e-222
1.06976e-174
1.00964e-128
1.12784e-85
4.26035e-81
7.43379e-79
1.83035e-78
6.67087e-79
1.77579e-80
2.79339e-83
2.69029e-87
2.37498e-132
0
0
0
0
0
0
0
0
0
0
0
0
0
0
0
0
0
0
0
0
0
0
0
0
0
0
0
0
0
0
0
0
0
0
0
0
0
0
0
0
0
0
0
0
0
0
0
0
0
0
0
0
0
0
0
0
0
0
0
0
0
0
0
0
0
0
0
0
0
0
0
0
0
0
0
0
0
0
0
0
0
0
0
0
0
0
0
0
0
0
0
0
0
0
0
0
0
0
0
0
0
0
0
0
0
0
0
0
0
0
0
0
0
0
0
0
0
0
4.54e-306
5.20531e-299
7.32108e-297
5.51022e-301
5.33487e-309
0
0
0
0
0
0
0
0
0
0
0
0
0
0
0
0
0
0
4.67386e-311
1.09608e-263
2.20315e-255
1.61613e-249
7.82434e-248
4.16326e-251
9.37135e-258
8.52613e-267
0
0
0
0
0
0
0
0
0
0
0
0
0
0
0
0
1.18119e-270
2.72253e-222
3.67445e-214
2.3282e-207
2.66806e-202
2.79222e-201
1.00565e-203
2.27662e-209
9.52757e-217
2.30824e-263
0
0
0
0
0
0
0
0
0
0
0
0
0
0
4.50292e-269
3.90097e-220
3.45272e-174
8.55909e-167
1.07582e-161
2.77926e-122
1.08651e-121
2.99545e-123
5.46543e-163
2.6211e-169
3.55863e-214
0
0
0
0
0
0
0
0
0
0
0
0
0
7.884e-230
5.278e-219
6.723e-172
1.65144e-127
1.8613e-122
5.3977e-118
1.96585e-115
1.90322e-114
6.40955e-116
1.82063e-119
3.84635e-124
2.28303e-129
0
0
0
0
0
0
0
0
0
0
0
0
7.83149e-230
1.0599e-180
4.16535e-171
3.71042e-126
1.09647e-120
7.12019e-80
4.23122e-77
2.91805e-75
1.30624e-74
9.66225e-76
4.58885e-78
5.35684e-81
7.93096e-123
0
0
0
0
0
0
0
0
0
0
0
1.07769e-268
4.83649e-219
4.44239e-171
6.14742e-126
1.31438e-82
5.00094e-79
1.45451e-75
3.58536e-38
2.82055e-37
4.72891e-37
1.64436e-37
1.32398e-38
1.08648e-76
2.86185e-80
0
0
0
0
0
0
0
0
0
0
3.47442e-270
5.98444e-220
9.00179e-172
4.77448e-126
1.43145e-82
4.96473e-79
3.54172e-39
1.41467e-37
2.88291e-36
2.20126e-35
3.55819e-35
1.27841e-35
1.12712e-36
4.03068e-38
2.16777e-76
0
0
0
0
0
0
0
0
0
1.37251e-310
5.16956e-222