/*--------------------------------*- C++ -*----------------------------------*\
  =========                 |
  \\      /  F ield         | OpenFOAM: The Open Source CFD Toolbox
   \\    /   O peration     | Website:  https://openfoam.org
    \\  /    A nd           | Version:  9
     \\/     M anipulation  |
\*---------------------------------------------------------------------------*/
FoamFile
{
    format      ascii;
    class       volScalarField;
    location    "0.00075";
    object      impulseMax;
}
// * * * * * * * * * * * * * * * * * * * * * * * * * * * * * * * * * * * * * //

dimensions      [1 -1 -1 0 0 0 0];

internalField   nonuniform List<scalar> 
6876
(
0.000257398
0.032969
0.188582
1.37676e-06
0.000948011
0.041276
24.381
0.148228
1.34356
0.284686
9.36102
19.2796
6.43793
0.873003
0.174064
6.90765
1.31877
13.057
3.47233
0.459322
0.0831688
0.0293605
1.78627
0.185502
0.00426567
0.099947
1.01523
0.0231526
0.00225371
0.00681875
0.000805308
0.000162705
0.000506769
0.0211395
0.0040824
9.57976e-05
0.0120069
0.0402425
0.443949
0.0100633
0.000266674
0.000898616
0.00326622
0.000100341
0.00436606
0.0109886
0.00189385
1.63881e-05
4.46523e-05
0.000655456
4.44294e-06
9.71021e-05
2.31774e-05
0.000526504
2.92689e-06
1.33939e-05
5.11687e-05
0.000221713
2.75263e-06
1.67451e-06
6.93517e-06
5.95091e-06
2.02543e-05
7.00871e-05
302.561
21.6716
222.581
317.499
171.925
321.065
222.304
285.764
188.753
299.944
315.264
306.66
313.133
298.494
292.935
311.887
224.043
318.481
147.643
154.865
250.939
24.0173
115.536
307.383
314.501
309.617
292.203
295.661
286.691
279.943
282.313
299.805
260.447
324.149
308.213
280.34
301.819
286.71
203.237
266.123
251.712
202.387
272.838
184.079
292.466
248.563
237.393
304.327
305.892
270.847
261.548
310.119
304.032
279.45
291.772
265.293
254.81
239.6
188.391
241.814
254.521
239.036
153.644
169.763
225.7
273.11
190.189
219.767
294.512
273.981
245.441
218.262
141.478
202.712
125.047
230.835
175.145
251.473
157.877
273.304
207.889
259.363
154.839
215.52
198.524
136.707
113.094
174.21
98.0271
217.257
128.928
144.545
203.369
221.953
129.309
205.114
111.153
189.879
172.02
93.2449
213.758
81.9595
143.284
185.065
239.814
174.588
112.109
151.412
75.0627
44.5727
104.64
181.748
147.192
70.181
618.293
437.301
266.371
550.193
782.016
542.177
459.628
353.741
339.519
355.897
455.831
354.443
452.414
450.37
353.722
972.953
918.872
615.72
824.371
585.706
570.005
777.342
415.931
362.605
324.187
366.593
465.705
437.563
343.279
328.519
351.565
419.47
404.546
247.024
331.987
315.138
579.547
659.289
514.735
853.206
603.301
545.892
721.072
684.075
438.509
521.712
500.671
516.474
416.409
644.36
272.407
267.319
186.735
382.176
220.407
305.604
294.67
439.064
425.972
353.024
472.807
474.639
387.623
596.35
79.3938
64.2209
141.266
122.694
13.7151
49.3344
63.4347
1.80522
68.1805
15.5218
97.7597
6.33601
31.9014
43.8695
282.046
338.638
321.792
286.124
319.176
351.828
314.723
323.674
341.475
294.553
289.491
278.627
292.137
304.599
300.116
289.486
277.302
332.736
333.493
362.192
360.441
270.453
337.39
327.423
312.481
305.781
336.026
321.882
315.098
329.901
324.216
322.929
317.332
303.367
314.689
311.327
302.246
289.287
280.057
292.167
298.662
298.49
290.534
301.235
338.469
346.793
333.933
344.452
330.663
324.741
338.57
336.621
341.436
344.997
348.863
340.975
341.583
348.353
319.022
303.326
303.885
311.385
325.156
326.201
311.064
326.467
335.316
321.083
310.377
318.107
305.575
313.431
330.524
322.305
320.836
320.662
328.32
334.241
319.287
365.315
360.548
357.875
353.058
356.843
349.136
356.499
343.054
343.017
346.146
349.971
347.009
351.529
334.233
332.393
334.593
338.929
334.926
343.058
347.366
329.726
335.989
344.916
358.293
308.338
343.797
351.992
324.325
346.595
299.016
316.337
330.149
345.988
346.871
317.635
315.817
316.057
342.069
337.901
264.054
305.905
305.44
311.131
220.304
268.512
327.628
245.388
290.907
289.509
280.146
546.851
597.97
352.696
323.783
1328.41
1056.23
461.29
321.297
330.201
278.316
290.906
338.927
352.854
292.754
1456.92
569.436
1372.85
1436.05
573.65
597.491
1337.95
392.75
424.307
339.731
304.898
362.228
383.542
312.894
393.166
306.991
286.938
380.518
328.857
304.673
423.456
1260.35
618.516
1122.98
620.737
1067.47
630.568
1211.8
639.347
1199.48
655.302
1395.42
605.568
628.353
1280.73
477.461
364.036
377.77
419.55
357.108
330.692
455.816
654.275
914.045
628.399
641.949
995.591
635.801
1142.75
6.74152e-05
0.0348233
2.25868
22.6937
0.0327178
9.22909e-06
23.2071
0.0871719
81.8618
72.1919
152.673
135.291
58.3199
66.4186
15.0993
2.45548
82.6823
27.0431
111.699
41.076
47.1752
7.59357
0.0788441
2.22831
25.3819
1.02414
16.8227
1.04577
0.0347494
0.60817
1.43536
15.1251
0.310038
9.7271
0.692021
0.0167283
0.00153373
1.44613
0.0643041
0.119264
4.67262
0.247999
0.00596029
0.00265962
2.66077
0.0791168
0.332666
8.39213
0.353287
0.0112477
28.2057
97.0545
217.48
315.874
52.9261
5.87351
288.411
70.7763
322.041
300.637
269.27
290.7
258.659
237.565
224.968
304.771
182.304
222.883
255.892
275.971
243.487
206.763
266.428
201.742
253.649
134.853
192.994
178.063
118.93
190.906
86.2412
178.676
61.6574
151.357
137.746
51.6906
24.2102
93.9218
137.855
71.3426
161.202
118.557
38.673
129.186
210.598
150.182
179.51
235.44
156.896
97.1615
6.8093
52.0991
102.275
88.5775
4.11208
21.0822
41.059
0.545427
14.516
48.5627
70.1419
1.807
12.9586
27.7067
0.00229461
0.00159424
0.0625561
0.0286042
3.30175e-05
0.000733553
0.00102073
8.52964e-05
0.00236251
6.86997e-05
0.00963397
1.59454e-05
0.000248585
0.000332664
0.00517801
6.4073
0.0107222
66.0526
8.03227e-05
0.779476
11.1192
0.000246303
0.249451
0.00710723
0.148855
2.04103
2.0093e-05
0.000107197
0.0391348
0.0539456
3.40671
3.53382
84.8553
84.6453
0.844
0.000101015
5.36701e-06
2.16481
0.000114262
4.28682
0.00137844
7.60109e-05
0.384563
69.5197
0.527731
5.81256e-05
0.0500071
73.4693
6.37852e-06
0.0210245
64.3361
47.9619
46.3342
10.285
9.76112
4.9348
5.2948
2.82611
52.1069
35.1604
59.4654
41.9135
8.36421
4.04427
81.1996
163.647
168.212
91.9328
96.214
30.5919
28.1954
79.8703
168.025
162.134
90.8436
96.1211
30.4497
27.4348
149.553
130.191
79.3948
62.4317
54.2668
21.2298
13.2091
4.53095e-06
5.29651e-06
6.4318e-07
0.00726932
41.4213
2.15502e-06
0.00372907
1.60443
42.6874
26.5203
31.2595
2.26744
16.7522
0.686475
12.1918
28.8942
27.4077
1.67353
0.414478
0.361856
1.86139
0.00624232
0.023327
0.000575028
8.04545e-07
6.95149e-06
0.00809035
1.24147e-05
18.1301
0.147912
5.67203
8.75691
23.6624
1.26375
0.259008
1.15958e-06
0.00476932
0.339189
2.19403e-05
2.02883e-07
0.00154329
1.40851e-06
104.386
21.7395
18.3971
42.0239
36.139
5.92464
1.58902
0.00978872
0.372245
0.344284
0.141284
0.00410384
0.154891
0.00369501
7.77981
0.216559
18.7099
0.835345
7.77406
0.216345
0.04801
0.19505
0.00179941
0.0726581
0.00767912
0.27762
0.11047
0.00281859
0.904452
2.18677
19.1029
1.0538
20.7966
2.56275
0.0639927
4.19369
31.0204
34.3495
3.99131
0.122491
3.24918
0.155602
0.128926
3.41322
31.6198
4.21506
34.412
4.02979
0.157174
1.03482
20.6274
18.4083
2.5255
0.0504155
2.05524
0.0629315
11.6584
0.0650081
2.80162
0.949747
5.67377
0.146109
0.0209625
24.0471
0.837857
14.9672
0.0696378
1.97733
0.839723
0.0278755
13.9015
0.247617
8.31456
0.0301788
1.25103
0.550515
0.0132386
15.1648
6.87815
5.71366
0.949606
0.802081
0.25402
0.0280465
202.143
57.9878
232.438
60.2974
51.6107
0.0139623
79.3156
78.4616
0.919159
142.615
0.0782432
0.297179
0.00738863
39.3974
32.7068
0.0121585
237.795
206.651
201.089
165.471
159.789
123.151
128.552
220.723
168.947
188.632
126.942
146.954
110.489
90.9259
176.264
141.602
99.9586
106.849
65.7962
67.9147
38.6474
94.9048
30.6708
158.855
89.5932
153.011
74.4723
27.5658
83.0546
18.9217
21.129
6.72578
7.91289
51.7115
47.8627
119.366
77.8185
139.845
63.3687
12.4025
20.8997
47.0979
67.6456
8.01997
14.068
1.9967
4.41419
39.0906
26.7315
101.695
31.1281
67.6097
11.503
35.8038
15.4676
3.0028
92.077
19.2716
60.4184
5.06832
28.5104
12.1302
1.18059
3.07896
0.583156
13.8295
0.691306
15.1099
4.51514
0.124217
1.1563
20.0984
0.0638884
0.0812642
2.89688
17.7187
2.3312
7.5264
1.48701
21.7543
3.40512
0.610398
0.0965252
0.0156532
0.212214
0.535318
0.0357061
0.525964
1.34664
12.7463
6.82366
0.0176608
8.57861
0.682386
0.171702
5.52267
29.9966
2.76408
0.000384596
0.00299367
0.118298
0.000948205
0.0391179
0.056824
0.0162732
0.00191228
0.0115561
0.45886
0.0180199
0.107855
3.94028
0.732439
0.0414915
0.00115633
0.000211957
0.0100729
0.00874608
0.0466085
0.00102071
0.338851
0.227315
1.76803
0.0389369
0.000845685
0.00747033
0.00499484
0.242389
1.73358
6.64924
0.253722
0.00168224
0.0546633
0.00803547
0.0856709
0.928572
3.53959
0.177576
0.000976494
0.0405281
0.0042226
1.77121
0.0390101
0.227776
0.039201
0.00747806
0.00500568
0.000847064
0.000779693
0.0304908
0.00386507
0.0601225
0.152164
2.36762
0.488284
0.000444351
0.0187219
0.00343456
0.030786
0.000147792
0.00616735
0.000745705
3.47761e-06
3.71175e-06
6.95024e-08
9.77888e-08
2.35955e-06
2.24213e-08
9.76632e-08
2.35608
0.00428958
0.00453619
0.0755283
0.0680718
0.0022737
0.000144622
2.61423e-05
0.000459315
0.000114152
0.00495298
0.0198265
0.00494809
0.00106496
0.00374737
0.00253908
0.0999369
0.120295
0.000129108
0.00305318
0.00456219
0.118649
0.000127332
0.00354097
0.00238349
0.094018
0.00300911
0.00450778
1.17545e-05
3.41062e-05
0.000210624
0.0091041
0.00146472
0.00332675
0.00046413
0.260741
0.000753306
0.0273885
0.000247822
0.00824649
0.000879554
2.72857e-05
0.162571
0.000456356
0.019447
0.000161192
0.00655541
0.000739376
1.99594e-05
0.00137814
0.930839
0.0531293
0.00318884
0.0563723
0.00143844
8.78425e-05
0.00201029
0.00138479
0.0545705
0.0227103
2.57184e-05
0.000810212
0.000578576
0.000157221
0.000943126
0.0378807
6.24263e-05
0.00245897
0.000396294
1.13348e-05
0.188066
0.00129074
0.0305486
0.000226052
0.00502676
0.000806198
3.90128e-05
0.0476132
0.000421487
0.00477247
0.000103172
0.00101978
0.000103185
1.1393e-05
0.000450986
1.30507e-05
0.000181621
0.00174638
0.000111458
0.00438559
0.0714162
0.0216177
0.00021038
0.00330189
3.70507e-05
0.000472087
7.35289e-05
8.09648e-06
5.37778e-06
0.000855145
0.000162678
4.07264e-06
0.000108538
1.94167e-05
2.16447e-06
2.17647e-06
2.00516e-05
4.06373e-06
0.000853484
1.94085e-05
0.000162503
0.000108255
0.0068277
1.12322e-05
5.53474e-05
4.43445e-05
0.00149092
0.000233874
0.00017465
0.000219034
0.000223402
0.000290184
1.34304e-05
1.34667e-05
1.14e-05
4.55548e-06
0.000112498
4.15091e-05
0.00168805
6.21306e-05
1.8093e-06
5.65538e-06
3.27056e-06
0.00013089
5.92135e-05
0.00213537
7.07429e-05
1.85879e-06
6.07022e-06
3.76577e-06
3.58943e-05
2.63152e-06
1.53831e-05
3.68489e-05
1.78554e-06
3.86523e-06
2.62871e-06
0.000159371
0.000117506
0.00272775
7.56686e-05
6.11275e-06
9.04826e-06
1.00823e-05
98.2618
98.4597
102.331
1.59463
1.35428
107.356
102.526
0.0653129
0.0541956
0.0430218
67.1555
0.0202612
107.191
0.0221179
81.974
0.0630956
102.269
23.1575
24.94
101.168
104.72
26.3701
24.5738
103.124
107.24
107.279
27.5864
25.0412
27.5487
25.4605
108.176
106.135
107.387
27.7235
27.707
28.1547
27.1406
25.0753
24.8724
102.096
103.727
104.567
26.3232
25.9129
107.182
103
102.239
27.5407
27.5202
24.9967
25.3989
104.493
90.7325
98.211
23.056
26.0997
23.0323
19.613
80.2678
94.4992
93.1374
20.6692
15.9683
15.3271
21.2862
80.2011
75.107
88.2215
18.567
10.7509
13.4556
15.3342
1.8863
0.0665117
1.88442
0.0635713
1.93092
1.83005
0.0653788
0.053343
0.0509333
1.53863
1.84922
0.0622705
1.83525
0.0632754
1.50566
0.0504762
0.0450978
0.0527534
1.54857
1.71808
0.0588266
0.0544397
1.57765
1.56424
1.73234
0.0588859
1.69624
0.0600158
0.0621623
1.84402
1.83221
1.53407
0.0531164
1.58815
0.0507731
0.0496998
0.0160372
0.0371035
0.00949424
93.7215
100.03
62.5806
73.2592
23.8496
23.9453
100.164
94.97
94.3866
21.2644
21.577
98.5226
20.9267
23.1016
86.071
91.713
20.0277
17.6142
85.893
72.2748
85.0451
17.2333
12.7589
17.6
12.4204
75.5385
68.6718
81.6827
15.8929
9.28528
11.2094
13.5663
258.477
156.72
170.586
196.281
312.33
297.102
272.639
251.112
247.046
260.051
264.121
257.107
260.33
266.781
270.215
259.866
283.983
272.243
276.481
267.153
276.374
284.459
293.648
290.07
276.437
280.239
278.851
281.964
292.303
253.534
196.192
252.014
192.116
254.532
256.027
191.854
303.416
297.805
287.427
286.823
296.73
294.955
292.536
191.6
195.519
256.411
257.579
184.34
189.765
257.641
251.522
184.05
255.393
256.199
169.292
183.233
251.349
255.852
172.732
164.744
243.234
179.717
248.877
253.187
0.0487736
1.43474
1.4528
1.17561
0.040513
0.0390302
1.21143
1.32607
0.0315609
1.0021
0.0553833
1.65969
1.3239
0.0429507
1.13472
0.0451918
1.34878
0.0270747
1.0573
0.0345305
0.851536
1.09828
0.0204054
0.719384
0.0374974
0.671484
1.16067
0.0350796
0.521908
0.0151927
0.828791
0.0278601
0.0265594
0.861704
0.499227
0.669997
0.0112704
0.39337
0.915539
0.0162842
0.548392
0.0286101
0.017276
0.012798
0.724855
0.328087
0.0227947
0.428696
0.565363
42.1477
0.113266
0.82747
73.5127
0.00314
2.39751
0.0115515
54.4841
85.3491
17.3356
77.3141
65.7127
14.2192
12.8572
10.2655
7.03558
4.67723
44.4554
66.8067
55.9475
10.6098
7.44012
58.8643
35.8487
51.8493
4.09631
8.18467
6.33348
2.95102
291.168
159.51
235.22
315.756
183.896
296.05
232.339
287.667
199.662
214.715
984.648
113.2
292.349
3.72818
146.714
80.2345
217.325
295.798
186.271
125.493
307.207
89.9532
276.501
516.203
410.694
426.027
421.572
799.293
166.358
346.015
292.545
285.78
288.68
308.825
304.454
295.749
298.067
27.361
27.6996
234.281
286.873
280.563
321.107
159.569
305.239
294.962
289.781
285.604
288.612
304.198
295.434
302.237
313.363
298.826
297.719
298.204
298.33
299.784
296.937
313.105
299.118
313.053
298.421
297.406
299.75
20.7313
277.841
270.826
67.9098
264.374
1.17607
144.38
306.899
293.556
294.707
305.205
298.881
286.186
303.272
442.4
331.888
346.848
344.561
439.503
342.8
436.92
611.109
579.854
831.875
934.466
605.254
562.401
787.132
290.227
313.798
302.453
309.573
303.319
281.827
276.407
0.028675
11.5956
0.00690077
16.765
0.00094929
4.03778
0.00767813
293.17
240.262
294.393
276.014
215.42
273.757
220.612
213.679
290.187
271.51
239.794
294.072
275.725
220.417
479.061
163.064
10.2959
364.296
722.914
123.039
328.499
156.388
1.49131
0.316985
83.3802
288.293
53.8403
249.692
319.348
309.225
320.987
312.629
291.009
268.4
263.541
321.063
310.58
312.714
287.726
290.993
268.391
264.369
312.215
288.232
298.672
271.555
268.456
290.738
248.853
351.965
441.796
447.499
308.071
329.546
422.634
400.025
267.142
200.505
252.007
189.394
263.568
206.003
256.553
183.632
262.306
251.386
267
189.569
206.01
256.591
297.44
282.279
297.909
263.811
228.375
238.493
255.48
315.951
301.808
306.112
287.894
262.077
252.926
235.954
199.726
281.423
262.325
245.669
194.009
264.84
178.025
342.316
257.899
320.928
234.682
304.275
392.591
319.317
870.904
568.311
591.827
536.919
669.053
504.665
731.826
91.5808
0.0968046
8.5075e-05
35.8357
235.672
0.171576
103.817
170.686
252.143
240.269
234.747
150.696
165.688
222.396
687.786
431.613
550.273
492.964
516.08
406.957
649.125
232.234
165.212
237.592
206.385
122.791
128.235
200.803
238.636
281.89
285.381
230.737
166.309
226.243
171.378
232.891
238.495
285.279
230.684
165.251
225.207
171.345
232.752
164.953
237.503
206.257
122.86
201.284
127.977
288.163
242.224
267.703
210.991
239.604
212.207
180.994
423.667
303.354
396.235
279.916
370.653
334.245
243.064
268.107
258.684
239.387
237.01
218.341
176.901
194.183
88.2926
75.1601
67.1918
18.5948
15.3465
13.4707
10.7606
221.76
162.991
207.048
113.026
240.204
190.102
148.932
221.297
203.114
255.173
152.319
213.164
194.278
132.229
536.065
644.049
497.376
601.32
467.307
424.664
529.006
258.138
216.304
226.835
194.455
206.174
164.54
151.308
46.2056
0.141649
1.01027
78.7621
93.234
1.1658
4.9267
0.0107363
90.5817
19.555
93.2637
81.2093
20.7736
15.6956
14.7655
94.6277
80.3343
82.0742
20.7114
21.3454
16.0067
15.35
210.105
123.533
103.466
165.061
178.255
137.859
197.48
463.152
472.809
544.881
338.565
427.73
375.743
600.85
204.041
248.899
280.189
367.681
252.607
336.685
289.27
220.549
126.771
202.021
110.169
188.362
168.735
90.6857
7.81542
69.6552
57.2194
45.278
4.86849
57.2341
7.81901
63.6039
47.8004
65.626
10.1699
4.92156
9.55147
5.27476
46.3034
9.76279
64.3522
47.967
66.1039
10.2994
5.29486
399.211
562.459
452.435
375.221
375.934
314.767
453.075
137.511
215.581
196.827
122.607
79.5363
65.6245
139.084
210.036
198.866
174.736
167.661
141.191
129.123
93.9146
311.022
267.665
360.106
287.453
131.837
226.806
192.823
158.554
74.1334
30.4918
89.2605
79.018
152.655
94.62
158.426
30.4768
89.921
74.3446
153.194
78.8403
94.5668
99.8734
142.636
176.215
141.469
38.6036
106.801
65.6611
177.653
204.269
233.318
167.824
72.9699
133.374
105.242
41.893
8.36349
59.4793
35.1587
52.1227
6.40871
2.82463
482.267
294.871
387.092
340.385
302.271
243.196
414.874
209.878
208.801
299.084
253.141
77.8684
158.441
161.813
164.802
72.9379
149.648
100.92
42.6002
114.477
35.0086
126.262
170.624
183.417
112.296
47.9206
58.1811
99.2234
65.3868
124.859
138.509
91.7782
22.2205
29.9965
78.92
616.275
419.886
278.202
574.581
1018.06
531.495
421.181
414.448
323.563
314.99
409.999
442.518
349.259
447.899
344.296
442.124
319.87
345.238
314.468
409.008
441.534
343.662
1011.27
1029.44
613.099
595.319
858.588
593.639
875.467
612.541
589.788
862.657
1033.7
612.746
594.752
878.25
427.745
334.883
363.511
282.283
426.829
367.313
335.525
357.486
273.054
330.119
426.486
280.981
365.723
334.515
540.553
712.996
453.215
586.04
535.321
459.477
727.183
714.634
448.648
574.22
539.748
586.854
458.258
728.719
32.0578
0.812728
18.3657
27.7785
42.8936
4.32488
1.76967
63.0643
77.515
139.517
119.108
12.3066
46.8851
60.0769
0.687375
31.269
2.26877
26.5313
42.7025
4.28898
1.6055
166.176
60.3296
118.55
39.9766
92.2629
50.0091
13.8132
0.0324773
0.0195201
0.638852
1.11869
0.0362365
0.0216389
0.702469
0.0376677
0.0221922
0.0351948
0.0204463
1.10177
0.672853
0.721859
0.0260904
0.0155299
0.518181
0.0184923
0.0108561
0.604687
0.374119
0.0163086
0.917564
0.54918
0.0112838
0.0202837
0.670741
0.393815
284.462
271.054
117.746
235.37
217.878
182.969
344.815
149.424
59.3611
114.377
31.6815
77.518
46.9706
13.1283
101.76
15.4683
67.6191
11.5282
58.0582
31.1537
3.00725
91.9172
5.03587
12.1005
19.2345
60.3546
28.4043
39.2799
197.368
56.2974
53.5415
37.3894
134.717
104.568
107.808
51.9693
21.916
0.845074
12.885
15.6759
62.9029
9.21063
0.00625405
0.00670271
0.00351968
0.225978
0.134701
0.393679
0.241977
0.0126877
0.438336
0.00354858
0.00689665
0.253115
0.138407
0.253255
45.531
8.40907
0.597254
4.35665
12.6332
7.17041
36.045
0.00961279
0.336519
0.0037226
0.0105896
0.00409403
0.367253
0.154379
0.00978772
0.0041008
0.00368747
0.141
0.344299
0.372855
0.15481
0.00762101
0.27281
0.00292031
0.00525815
0.00194116
0.195143
0.077299
0.00281397
0.11027
0.277562
0.00179917
0.00518041
0.195105
0.0726279
24.543
23.2834
67.3393
16.841
0.118403
2.10343
1.95069
2.762
5.51967
29.9889
8.5847
0.0176748
0.297455
0.683041
3687.94
585.778
492.041
469.311
338.012
366.871
404.072
359.396
692.876
1517.95
1395.57
797.423
1144.2
800.066
810.167
558.546
558.085
945.01
460.437
758.943
590.704
458.972
545.419
823.659
469.845
428.79
704.009
580.393
426.406
400.444
490.782
566.763
377.837
509.115
528.874
384.882
1535.94
3075.51
3125.33
2114.91
2576.4
1761.52
1656.04
1231.94
2286.45
1409.33
1042.67
1845.99
1322.26
915.957
1219.87
2034.08
1344.8
984.048
1843.8
928.099
1311.81
1057.58
1155.43
756.751
756.544
1154.23
723.166
1147.96
420.083
489.456
449.616
399.099
575.87
416.611
437.62
439.031
382.838
352.66
355.869
436.822
369.285
393.121
358.021
382.855
443.932
388.146
457.192
378.667
387.704
365.999
422.454
381.702
367.328
375.959
388.482
396.401
291.617
325.245
315.818
1519.49
1429.28
1578.59
326.823
446.559
1667.36
356.219
292.57
315.228
327.683
365.485
369.243
437.469
361.436
362.336
387.973
444.209
340.559
378.887
398.443
356.55
439.46
370.071
352.602
382.243
337.788
393.19
546.749
1621.16
1645.62
577.954
1607.59
547.014
558.333
425.185
377.667
392.446
367.96
383.148
368.142
397.263
315.612
324.816
343.08
297.808
335.871
313.384
342.145
354.65
318.837
354.021
350.547
327.559
353.787
370.12
306.869
314.291
329.798
328.046
299.211
313.186
313.045
341.797
321.299
341.784
348.949
327.564
334.636
362.041
336.977
350.884
345.929
346.852
344.191
331.749
354.867
534.685
547.523
1508.33
1572.42
556.628
1562.91
533.12
555.421
1546.09
554.131
1616.41
569.804
1582.75
550.924
360.397
363.068
360.149
373.87
365.8
353.236
376.508
372.178
348.786
305.263
314.705
350.943
312.942
359.51
326.405
328.493
307.049
317.142
319.724
314.647
329.748
567.755
513.751
384.638
399.937
294.002
318.616
338.582
299.497
545.484
497.597
486.404
407.163
373.343
406.127
385.678
573.929
498.332
545.538
406.683
381.969
408.638
388.429
1475.99
317.009
358.111
377.902
441.012
395.687
464.908
390.228
363.091
395.543
364.709
450.342
382.841
468.496
389.942
365.123
304.088
288.156
301.008
317.323
330.36
337.434
328.637
328.194
284.997
313.698
291.739
304.495
338.267
325.761
300.8
1169.8
288.878
276.604
527.668
580.123
335.216
285.768
310.796
275.235
278.756
314.957
278.01
313.749
327.135
318.266
328.692
343.2
342.442
344.549
342.003
325.508
316.069
339.558
319.285
327.024
345.28
341.237
272.405
276.907
289.007
282.685
268.834
280.683
271.789
264.104
269.406
302.579
309.092
263.715
309.534
266.713
273.461
309.685
309.809
313.477
270.164
271.464
316.002
288.729
275.454
287.318
282.451
271.587
272.925
282.218
1666.66
1652.54
480.938
546.257
1518.95
286.739
273.841
1525.7
522.094
548.623
481.105
396.721
358.565
378.299
388.175
503.186
518.759
566.578
416.255
384.411
405.47
397.213
617.366
1670.16
601.027
552.132
1617.73
1611.45
547.509
586.005
1646.68
598.123
536.111
1609.71
532.503
1600.37
350.171
317.195
316.842
292.045
326.357
319.919
342.227
335.458
299.694
282.019
305.116
326.982
313.34
309.297
520.034
1567.74
517.545
1515
512.733
1561.74
521.517
507.985
1568.18
1516.56
507.994
508.99
504.635
1558.1
1470.13
520.881
516.82
539.128
1404.9
544.475
1405.58
302.714
304.982
317.965
297.879
312.352
296.418
313.123
1464.7
1465.21
521.514
549.268
1391.45
541.283
1398.52
319.562
304.698
298.625
304.441
317.874
297.616
313.046
614.511
566.879
1480.43
1499.06
583.553
590.186
1539.71
343.028
347.536
350.878
359.776
337.843
357.858
347.9
327.552
271.528
366.221
286.335
330.548
271.95
360.252
370.999
292.703
276.249
329.855
287.669
274.634
361.473
281.649
270.302
283.561
275.339
280.741
271.923
283.273
282.365
273.063
285.437
281.429
275.627
272.522
283.14
1290.28
607.436
1159.99
571.39
1176.76
601.232
1303.1
295.318
310.455
295.357
310.655
294.523
310.83
295.34
313.221
297.046
298.085
295.314
310.932
310.936
295.537
570.661
1302.68
603.963
1182.53
576.067
600.679
1309.85
383.478
1472.08
315.491
322.03
186.474
1422.8
344.815
323.612
1138.97
299.877
939.294
359.888
300.453
340.672
290.302
314.435
280.328
320.679
312.433
308.98
276.624
267.832
269.118
320.31
338.751
280.341
296.527
281.757
275.566
272.961
285.973
280.17
293.272
219.264
288.266
310.94
322.169
168.686
326.673
127.137
1455.83
556.453
534.855
1391.88
559.139
581.142
1361.79
327.923
307.636
313.196
316.924
301.301
307.645
322.539
283.677
908.614
583.068
1274.17
405.709
852.616
360.545
181.953
343.885
229.288
312.174
346.429
321.799
293.692
312.068
303.804
290.475
303.364
290.162
301.81
311.387
372.309
307.437
289.406
365.348
323.632
400.065
298.468
274.505
288.191
285.653
289.131
281.566
292.323
294.384
279.177
382.581
343.665
365.639
317.894
406.636
293.547
584.344
1363.6
614.348
607.752
1235.48
632.037
1311.35
325.932
334.395
319.42
314.724
336.492
322.27
329.386
314.265
299.118
298.655
304.11
318.682
303.829
319.155
1279.58
610.6
588.768
605.951
1088.27
617.404
1236.11
298.655
304.189
288.406
313.121
294.298
297.352
298.767
398.172
346.83
342.424
455.23
435.937
434.458
316.69
311.875
305.43
293.516
301.244
309.604
312.441
303.732
331.462
361.15
354.851
446.267
441.854
473.569
380.484
320.457
328.017
321.371
329.129
322.539
332.025
342.028
311.301
331.635
320.247
310.28
319.883
310.307
325.614
331.918
350.404
337.213
343.399
330.65
333.579
337.819
623.3
1088.21
1019.89
613.124
634.095
620.418
1171.74
322.594
326.884
322.573
295.949
298.051
295.957
287.034
640.097
1160.77
1136.88
653.49
646.368
642.995
1024.74
319.109
325.992
324.635
288.999
298.896
294.692
280.091
260.126
177.721
256.594
172.038
253.973
246.912
161.882
479.497
385.288
476.589
479.486
365.301
460.82
383.479
370.147
457.735
464.677
471.555
346.147
442.68
373.964
324.775
346.163
335.721
324.849
322.764
301.011
343.951
331.73
303.1
321.787
316.526
305.137
335.008
284.526
197.541
327.137
308.798
104.335
228.049
1.83252
248.409
35.0011
373.96
307.691
380.49
337.733
347.819
1024.35
1388.17
378.009
1309.99
365.577
1554.19
329.968
341.838
307.1
347.631
329.214
289.651
299.146
346.613
340.615
292.576
295.692
287.496
333.115
353.179
298.505
300.399
313.408
314.027
292.636
306.959
312.401
299.358
347.601
285.99
350.245
360.791
345.937
340.879
353.887
1524.64
546.733
569.085
1500.73
563.057
591.119
1459.37
344.618
332.494
332.524
339.471
325.053
329.184
344.159
763.003
1170.52
398.401
731.047
399.745
334.028
424.439
334.804
325.435
293.056
268.137
238.296
216.142
239.149
314.026
356.763
302.486
378.111
334.415
313.937
408.204
298.258
289.14
344.958
372.584
323.506
400.38
307.228
318.506
303.163
316.114
318.357
315.397
306.885
323.677
301.435
290.027
303.435
311.688
302.821
310.995
299.942
349.871
349.678
347.544
356.148
353.109
350.823
357.736
619.465
1471.12
593.549
619.582
1286.17
643.158
1387.91
607.905
1421.42
584.434
614.6
1234.47
632.252
1362.73
332.765
347.77
333.017
332.666
349.622
347.572
335.244
314.454
334.234
319.164
325.673
336.315
321.984
340.524
335.448
348.422
292.633
1592.49
1653.52
333.456
319.238
1528.05
1501.93
333.184
310.356
357.794
374.433
341.817
301.291
299.701
344.269
410.598
425.257
343.752
359.079
381.076
359.778
315.41
419.436
343.111
412.294
335.689
360.909
370.237
321.244
317.765
345.842
322.446
339.062
333.152
353.154
352.919
565.087
530.313
1640.8
1614.13
545.402
531.1
1608.05
356.463
364.53
402.765
350.709
363.368
373.267
352.404
334.918
304.125
297.964
335.855
324.781
351.642
304.528
310.079
280.393
275.423
294.235
325.221
325.102
292.134
303.747
323.784
317.17
323.711
329.315
341.525
309.986
303.608
321.993
287.748
285.022
304.938
315.573
299.615
1566.63
536.515
550.418
536.716
1620.99
535.689
1592.98
1521.53
538.814
520.529
529.474
1573.05
517.344
1569.25
330.167
334.73
319.336
321.977
337.819
334.401
342.93
346.614
343.356
348.058
331.433
346.901
329.657
338.079
349.809
341.946
336.25
342.001
356.012
355.003
349.89
353.07
298.722
287.824
340.659
295.838
330.209
292.829
312.664
307.24
292.849
300.45
314.116
313.491
298.853
304.732
304.066
316.376
308.937
317.83
328.179
318.926
563.06
1460.03
590.989
1525.05
569.111
546.905
1555.13
329.358
339.607
325.26
346.679
332.596
332.617
344.739
335.102
341.378
344.696
336.052
333.904
341.915
343.314
346.284
350.404
349.575
339.691
350.46
346.326
352.523
329.958
338.583
328.62
338.587
339.956
347.096
329.931
322.373
334.734
327.895
336.53
340.15
341.901
330.728
347.611
353.908
349.745
349.898
357.725
356.153
350.827
405.956
473.668
361.154
354.835
442.083
331.393
446.374
320.178
331.829
327.863
320.969
322.206
311.797
328.99
300.914
311.442
312.083
305.091
303.46
309.325
320.358
316.561
346.762
436.177
342.328
434.564
455.253
359.782
331.723
333.43
350.361
343.259
330.409
346.327
337.123
354.031
345.813
340.106
346.374
350.412
359.17
345.864
364.348
356.101
357.705
361.759
357.682
364.359
365.386
344.243
349.062
351.319
350.039
350.265
358.643
352.46
640.302
643.031
1160.55
1136.21
646.527
653.576
1273.65
623.423
1087.27
634.216
1018.81
620.4
613.059
938.464
311.037
331.448
319.593
320.08
310.076
310.039
312.258
347.794
354.021
359.136
345.803
346.316
350.37
340.055
471.548
370.107
464.771
457.655
346.097
360.476
442.581
316.323
331.414
321.485
302.86
304.921
321.522
284.325
335.276
315.06
350.554
361.939
335.284
361.507
361.954
341.851
318.866
337.482
318.927
282.136
289.449
315.53
306.905
327.118
319.904
247.742
270.852
285.654
266.552
619.479
1035.27
647.193
619.494
796.253
579.683
908.78
992.028
592.493
630.819
610.199
763.434
559.665
890.076
326.949
297.887
323.324
311.181
267.083
274.42
307.816
322.17
306.906
319.913
270.84
285.633
266.535
247.728
320.876
335.302
357.944
342.596
350.185
358.226
362.109
335.977
300.964
318.698
329.568
340.247
353.481
355.702
422.393
307.889
329.358
351.832
447.422
441.634
345.865
248.639
290.431
271.36
311.914
298.447
288.015
306.923
130.372
235.267
148.05
248.483
164.787
235.288
148.072
266.934
274.22
311.003
326.786
293.519
323.078
297.659
559.547
889.63
610.149
991.347
630.846
592.382
852.023
228.248
276.348
263.654
255.395
297.309
297.72
282.073
152.395
219.163
240.559
230.684
115.568
207.352
141.562
668.426
504.316
536.552
869.994
591.61
568.077
798.589
456.007
332.194
376.531
321.397
425.432
415.088
359.668
296.509
209.13
284.518
274.964
263.51
317.665
254.898
287.754
262.522
287.758
191.159
223.188
250.345
223.184
107.539
216.555
126.772
99.6825
190.787
168.655
79.443
270.632
282.421
300.352
200.804
238.98
216.44
173.861
325.792
246.794
291.958
317.799
277.669
311.152
346.622
396.076
242.818
303.235
370.386
279.709
423.482
328.376
176.59
193.832
258.418
236.666
218.075
267.887
288.012
197.558
79.4744
107.558
216.582
99.7143
190.818
126.806
574.67
469.938
688.695
673.655
529.276
518.434
788.331
285.638
238.763
194.602
231.504
248.962
241.506
278.351
528.613
643.645
497.209
600.819
467.022
535.847
722.389
226.616
151.138
164.296
205.945
194.294
249.526
257.918
180.334
219.29
259
97.6093
148.838
187.022
139.208
139.966
172.467
30.747
55.5554
83.4665
139.947
55.5372
67.5758
112.582
156.356
131.148
20.428
86.3349
48.3027
257.627
198.763
264.92
261.101
201.024
242.885
197.514
239.024
240.352
237.917
240.416
251.517
251.451
253.283
250.257
242.829
236.358
239.317
250.966
250.843
249.587
253.542
261.824
251.451
248.756
257.966
270.845
260.391
267.76
265.023
251.77
247.891
257.433
270.526
267.075
260.628
250.912
201.506
250.875
200.483
251.899
201.052
250.171
250.043
197.712
199.272
249.46
199.148
249.853
250.704
195.468
198.077
254.358
253.283
197.289
199.511
256.708
254.479
199.128
259.484
201.935