/*--------------------------------*- C++ -*----------------------------------*\
  =========                 |
  \\      /  F ield         | OpenFOAM: The Open Source CFD Toolbox
   \\    /   O peration     | Website:  https://openfoam.org
    \\  /    A nd           | Version:  9
     \\/     M anipulation  |
\*---------------------------------------------------------------------------*/
FoamFile
{
    format      ascii;
    class       volVectorField;
    location    "0.00075";
    object      U;
}
// * * * * * * * * * * * * * * * * * * * * * * * * * * * * * * * * * * * * * //

dimensions      [0 1 -1 0 0 0 0];

internalField   nonuniform List<vector> 
6876
(
(-0.0056424 0.0027985 0.0245711)
(-0.879834 0.240516 2.92801)
(-6.21746 4.19028 15.6748)
(-1.57117e-05 3.29966e-06 3.70877e-05)
(-0.0306403 0.00758207 0.0948557)
(-1.62648 0.402144 3.92881)
(-268.594 74.2974 499.04)
(-6.95658 3.93461 13.2116)
(-40.3693 11.0518 85.3299)
(-9.8726 2.55259 22.532)
(-198.424 49.4597 307.724)
(-247.788 99.3695 447.455)
(-161.276 59.6889 245.96)
(-27.4945 11.0417 59.5308)
(-6.10978 2.38188 14.7069)
(-154.245 102.597 254.712)
(-52.084 32.6302 84.5695)
(-212.119 112.256 367.235)
(-109.394 54.455 167.293)
(-14.9309 7.92703 34.1332)
(-3.03316 1.56478 7.6578)
(-1.07621 0.675055 2.84852)
(-71.4412 17.431 106.967)
(-9.1794 2.06785 15.9308)
(-0.180628 0.0402583 0.427118)
(-5.06207 1.6676 9.19813)
(-43.8156 15.748 68.4448)
(-0.913129 0.326186 2.23676)
(-0.0971541 0.0309143 0.229776)
(-0.190049 0.0514222 0.641749)
(-0.017477 0.00476411 0.0737225)
(-0.00381578 0.00106062 0.0156104)
(-0.0111487 0.00475563 0.0470749)
(-0.563377 0.227275 1.89946)
(-0.114849 0.0466823 0.394465)
(-0.0022911 0.000983302 0.00929329)
(-0.62352 0.302972 1.20701)
(-2.07728 0.858404 3.92197)
(-20.3645 9.38215 34.2391)
(-0.396234 0.179588 0.992256)
(-0.0121415 0.00565111 0.0279426)
(-0.0398055 0.0155239 0.0928679)
(-0.129799 0.0714717 0.335896)
(-0.0022234 0.00182976 0.00980764)
(-0.115314 0.0800442 0.419256)
(-0.291861 0.156832 1.00589)
(-0.0550644 0.0287298 0.188171)
(-0.000406018 0.000286112 0.0015142)
(-0.00115296 0.00051329 0.00435066)
(-0.0196928 0.0123188 0.066645)
(-9.16657e-05 2.61625e-05 0.000259129)
(-0.00365175 0.000776491 0.00994851)
(-0.000634117 0.000124103 0.00219754)
(-0.0174175 0.00623854 0.0532781)
(-4.99001e-05 2.21478e-05 0.0001402)
(-0.00036299 0.000158492 0.00122737)
(-0.00196011 0.000655447 0.00522347)
(-0.00763737 0.00342599 0.0231208)
(-5.86034e-05 3.55271e-05 0.000185231)
(-2.53222e-05 7.94414e-06 6.64486e-05)
(-0.000255632 0.000141866 0.000644805)
(-0.000163025 5.53808e-05 0.000530753)
(-0.000798162 0.000248101 0.00208869)
(-0.00250019 0.001355 0.00745801)
(-1189.34 77.4284 107.29)
(-499.654 100.046 333.322)
(-917.201 149.063 131.813)
(-951.293 25.3752 291.423)
(-906.922 166.533 232.521)
(-707.216 175.747 160.019)
(-825.772 326.436 142.219)
(-722.329 231.422 251.128)
(-830.811 345.242 165.295)
(-1205.62 85.9443 203.723)
(-979.421 52.1324 123.766)
(-1004.17 63.3332 194.626)
(-888.287 42.7842 135.143)
(-905.588 45.3419 172.974)
(-827.628 108.948 161.609)
(-814.874 103.423 146.362)
(-739.576 154.543 567.352)
(-818.243 76.0672 297.957)
(-881.244 166.477 313.477)
(-722.633 357.347 556.641)
(-702.258 307.978 370.444)
(-500.136 237.986 343.242)
(-776.591 360.246 384.117)
(-1126.05 59.3998 286.559)
(-837.706 79.105 256.842)
(-941.471 55.7814 252.07)
(-846.114 93.3186 246.292)
(-884.422 61.545 216.51)
(-833.016 121.24 209.582)
(-817.978 147.4 247.871)
(-738.283 246.545 154.605)
(-720.926 186.174 163.777)
(-744.278 255.099 152.292)
(-792.702 96.7553 147.152)
(-815.217 102.762 173.656)
(-778.09 174.081 157.125)
(-768.158 163.402 153.638)
(-857.263 106.575 140.752)
(-911.177 155.551 126.864)
(-865.217 111.87 147.159)
(-842.24 170.622 146.259)
(-905.732 222.559 130.945)
(-834.937 161.927 144.434)
(-892.662 225.764 123.033)
(-735.346 200.364 212.102)
(-762.815 273.433 194.601)
(-765.547 303.847 241.913)
(-769.061 150.738 250.084)
(-805.113 119.861 220.461)
(-795.28 189.356 205.714)
(-790.682 222.861 247.328)
(-775.414 124.882 297.457)
(-765.294 108.941 364.92)
(-819.498 118.7 303.306)
(-740.715 163.438 369.061)
(-800.183 180.539 305.954)
(-797.031 141.186 381.554)
(-788.965 206.196 384.662)
(-915.808 161.766 166.626)
(-870.032 141.896 242.922)
(-876.229 123.977 196.052)
(-860.512 189.479 190.54)
(-883.16 234.849 227.942)
(-895.631 231.429 160.406)
(-861.243 210.475 241.584)
(-707.426 271.403 303.508)
(-781.592 350.413 387.451)
(-770.008 328.619 302.707)
(-738.294 187.457 302.834)
(-717.593 233.003 372.564)
(-780.717 252.67 306.752)
(-784.489 276.822 385.724)
(-847.488 368.189 129.408)
(-821.699 332.221 132.9)
(-819.224 361.039 107.303)
(-830.184 247.943 141.67)
(-882.979 298.632 130.201)
(-825.723 237.971 145.038)
(-862.04 297.477 116.483)
(-732.481 137.352 455.15)
(-741.134 220.617 569.877)
(-723.258 199.613 458.74)
(-781.54 161.211 576.125)
(-800.01 157.107 485.003)
(-798.314 225.15 488.072)
(-764.019 227.862 563.905)
(-813.938 360.61 141.239)
(-831.995 357.84 226.893)
(-794.4 356.516 205.869)
(-846.787 265.55 180.304)
(-847.832 301.354 220.936)
(-861.609 300.892 152.043)
(-849.586 284.903 236.075)
(-864.729 153.622 312.565)
(-854.039 233.488 307.947)
(-858.383 223.344 312.024)
(-831.555 162.552 393.969)
(-859.295 162.717 404.645)
(-848.034 231.518 403.943)
(-796.208 224.263 378.65)
(-723.252 337.189 464.356)
(-693.538 339.75 504.279)
(-762.332 362.593 477.855)
(-736.806 288.525 568.586)
(-718.926 266.57 459.97)
(-789.464 294.924 487.825)
(-736.278 290.253 542.161)
(-817.361 364.772 304.245)
(-749.448 340.55 272.96)
(-656.824 298.364 309.655)
(-812.267 294.946 296.086)
(-845.092 294.457 309.047)
(-820.774 300.771 399.308)
(-743.25 274.841 353.268)
(-1236.66 187.909 284.929)
(-1134 109.284 234.033)
(-967.357 150.245 185.105)
(-1480.72 252.449 86.1131)
(-1247.89 481.497 46.3372)
(-1346.7 527.073 81.4031)
(-892.372 260.435 249.843)
(-1008.3 378.386 214.462)
(-1164.62 78.506 110.126)
(-968.589 60.8181 147.843)
(-1013.08 132.738 260.872)
(-915.104 58.7854 172.961)
(-1036.16 109.644 261.235)
(-1002.63 155.245 255.764)
(-859.124 110.418 186.13)
(-1342.25 238.522 -99.5136)
(-1316.72 316.895 -52.3867)
(-1200.3 247.385 279.02)
(-1386.23 234.594 6.60224)
(-1255.66 188.099 270.084)
(-1228.4 256.743 258.199)
(-1362.5 317.244 38.0523)
(-940.629 317.178 224.175)
(-752.46 185.305 190.724)
(-786.072 257.691 186.618)
(-819.243 111.356 182.285)
(-943.715 185.392 260.567)
(-969.607 225.294 244.068)
(-816.323 169.71 189.742)
(-905.933 107.691 180.02)
(-1124.87 172.029 224.465)
(-1060.05 137.196 239.781)
(-1042.37 203.871 228.481)
(-959.675 225.713 193.889)
(-1116.58 251.948 226.471)
(-884.329 167.207 182.432)
(-1119.26 400.32 249.036)
(-1298.54 502.652 71.733)
(-1166.96 429.791 225.625)
(-1284.33 394.818 3.64398)
(-1159.23 316.762 265.516)
(-1201.23 338.152 242.244)
(-1334.1 407.106 62.3802)
(-1440.87 246.03 63.0602)
(-1348.2 220.306 220.544)
(-1298.03 203.052 242.288)
(-1276.85 283.767 231.515)
(-1456.86 350.842 86.5766)
(-1326.82 309.469 219.205)
(-1419.29 339.939 71.2599)
(-1083.1 420.65 259.524)
(-863.717 332.1 188.801)
(-918.577 382.746 225.83)
(-1026.42 288.615 217.364)
(-945.026 305.282 207.484)
(-1102.48 336.2 237.032)
(-868.502 245.39 182.419)
(-1217.37 464.629 208.921)
(-1370.59 534.251 90.3998)
(-1260.79 484.081 223.368)
(-1251.23 373.593 218.622)
(-1418.58 444.745 87.7471)
(-1297.12 398.483 219.839)
(-1387.13 433.248 78.1195)
(-734.457 149.693 517.104)
(-735.225 145.113 426.107)
(-821.863 164.123 493.439)
(-797.036 230.129 482.081)
(-404.255 118.984 268.62)
(-682.284 193.003 393.322)
(-696.613 203.576 487.166)
(-120.328 53.9117 75.1728)
(-699.467 330.142 419.952)
(-430.842 201.49 248.44)
(-759.01 290.194 460.109)
(-268.286 104.231 176.369)
(-585.771 218.141 336.847)
(-626.314 238.731 433.702)
(-1127.52 318.509 78.414)
(-595.828 105.979 582.093)
(-1290.35 366.092 608.236)
(-1426.7 234.227 85.5856)
(-1264.81 142.623 445.254)
(-1132.67 710.514 565.96)
(-1149.91 756.689 79.1902)
(-1056.08 354.449 222.71)
(-836.332 203.51 350.046)
(-1129.94 320.83 237.629)
(-1266.8 363.341 260.742)
(-1260.37 363.454 84.301)
(-1120.93 460.772 80.2099)
(-1123.57 462.039 244.708)
(-1291.53 509.023 258.602)
(-1286.63 509.61 82.0913)
(-668.528 140.297 538.646)
(-1005.09 54.1997 420.98)
(-1302.33 312.274 763.194)
(-511.933 212.328 555.974)
(-1048.39 605.522 704.125)
(-587.211 303.804 524.958)
(-606.251 206.041 374.04)
(-1110.36 330.96 579.66)
(-1130.72 318.828 406.409)
(-1271.48 362.52 438.813)
(-1112.33 487.605 591.555)
(-1125.9 462.402 417.8)
(-1300.75 500.453 429.361)
(-1306.27 480.76 586.439)
(-1156.16 762.418 244.986)
(-1223.23 643.888 235.357)
(-1207.61 632.854 84.2015)
(-1122.33 624.944 80.5834)
(-1125.66 624.611 253.116)
(-1297.87 606.757 243.03)
(-1290.44 602.953 80.6235)
(-1455.89 329.001 246.348)
(-1449.57 329.063 81.2652)
(-1436.03 236.999 221.968)
(-1423.56 429.652 236.588)
(-1305.98 248.855 94.044)
(-1414.09 426.699 81.3277)
(-1324.38 261.808 218.861)
(-1147.29 744.233 407.473)
(-1082.25 490.722 501.269)
(-1188.87 608.59 383.85)
(-1145.81 638.681 591.985)
(-1130.06 626.912 427.488)
(-1284.83 590.661 403.229)
(-1256.69 537.583 557.083)
(-1136.93 371.439 758.472)
(-1163.29 314.896 941.534)
(-1172.5 502.213 770.106)
(-1122.96 416.564 914.256)
(-1255.1 404.844 727.528)
(-1173 245.285 838.101)
(-1046.39 265.342 748.916)
(-1405.21 286.579 554.248)
(-1440.53 314.64 403.478)
(-1387.23 213.443 352.504)
(-1395.9 414.586 389.36)
(-1076.69 117.161 383.217)
(-1315.17 346.196 520.004)
(-1254.25 216.688 336.06)
(-1022.28 329.598 107.743)
(-757.501 126.98 144.053)
(-790.462 142.946 183.329)
(-1308.88 459.743 229.724)
(-1045.76 164.705 114.248)
(-1291.15 444.229 87.0657)
(-1075.84 183.91 210.602)
(-990.717 301.442 329.714)
(-716.145 178.559 256.782)
(-767.422 154.861 234.773)
(-1261.35 413.091 366.836)
(-852.561 103.14 297.508)
(-1121.14 290.43 458.129)
(-1003.34 147.245 295.746)
(-788.021 382.877 679.394)
(-619.342 189.048 433.199)
(-850.299 308.194 516.383)
(-1155.65 588.155 755.553)
(-1016.95 455.19 843.033)
(-1118.97 400.259 651.638)
(-831.85 214.321 593.824)
(-692.589 136.379 759.112)
(-995.341 243.839 986.295)
(-575.494 147.676 670.965)
(-891.25 270.532 878.183)
(-864.76 128.217 699.727)
(-723.684 122.947 585.784)
(-561.949 147.182 557.028)
(-1269.71 207.472 642.987)
(-845.381 69.7834 344.353)
(-1112.51 202.143 563.341)
(-775.303 74.2179 375.332)
(-978.761 104.908 583.25)
(-817.948 99.4646 471.781)
(-725.624 121.49 364.198)
(-461.856 239.991 552.789)
(-488.911 181.266 599.703)
(-705.641 233.868 711.191)
(-524.476 268.794 524.873)
(-528.055 216.059 456.444)
(-594.758 152.649 492.295)
(-538.973 199.186 534.343)
(-678.128 173.764 327.687)
(-643.931 253.691 370.129)
(-673.021 208.848 307.212)
(-732.628 135.382 304.984)
(-876.975 153.311 436.677)
(-678.043 136.458 387.982)
(-678.813 174.642 368.533)
(-622.765 120.637 529.656)
(-701.257 111.223 440.852)
(-706.306 86.5098 471.342)
(-653.18 131.115 453.652)
(-664.408 201.176 541.248)
(-607.413 172.972 529.094)
(-673.916 162.944 444.006)
(-581.905 256.439 442.723)
(-666.205 332.55 545.927)
(-643.795 301.613 443.102)
(-606.668 181.155 447.867)
(-660.923 265.194 541.469)
(-594.473 237.242 529.329)
(-652.654 229.246 445.857)
(-1124.14 316.65 -57.7264)
(-1067.33 300.992 -100.397)
(-1236.96 268.766 73.7383)
(-1360.53 301.581 -5.14372)
(-1142.35 736.77 -44.7901)
(-980.573 618.549 -349.973)
(-1136.47 536.595 -138.644)
(-949.137 320.168 188.279)
(-1120.81 338.313 -86.9168)
(-1264.8 340.061 -83.4741)
(-1266.45 363.728 -74.0308)
(-1118.09 461.449 -63.1539)
(-1117.27 473.11 -87.8751)
(-1261.83 465.483 -56.4928)
(-1296.21 499.441 -71.5923)
(-1058.85 295.303 -457.661)
(-1172.78 289.526 -44.1069)
(-1150.7 283.899 -405.673)
(-1043.56 406.876 -439.597)
(-1056.77 417.257 -80.4915)
(-1145.1 395.979 2.46417)
(-1127.03 390.357 -373.002)
(-1090.57 700.026 -13.898)
(-1075.94 557.01 74.7687)
(-1174.26 606.193 -0.485284)
(-1129.36 625.737 -73.1004)
(-1121.3 608.92 -76.5295)
(-1207.49 552.483 -0.594017)
(-1279.9 585.852 -38.1818)
(-1313.06 218.612 122.613)
(-1400.96 224.415 23.6918)
(-1441.07 319.079 -43.5026)
(-1292.32 387.932 38.367)
(-1265.4 233.553 59.5141)
(-1394.05 416.264 -20.9624)
(-1187.78 232.977 177.615)
(-1230.05 271.503 -324.28)
(-1236.91 227.887 216.075)
(-1288.66 252.912 -216.897)
(-1185.93 355.139 140.816)
(-1264.1 339.863 -169.027)
(-1178.13 277.68 259.626)
(-1200.45 368.281 -280.604)
(-989.761 622.694 45.8539)
(-1062.09 582.396 -251.191)
(-1017.44 540.939 182.91)
(-1013.91 514.901 -405.884)
(-1033.03 527.005 -38.6324)
(-1099.26 490.527 82.4025)
(-1095.98 492.69 -324.266)
(-868.722 230.858 255.397)
(-979.442 306.032 78.0806)
(-765.467 146.476 171.313)
(-1158.35 392 115.913)
(-1008.95 156.184 108.868)
(-1253.92 416.174 22.3951)
(-1000.17 198.614 230.301)
(-1024.98 432.624 268.055)
(-1196.38 493.235 -28.3006)
(-1073.09 391.853 270.303)
(-1105.49 406.565 212.933)
(-1236.12 419.569 -103.138)
(-1123.59 326.731 280.397)
(-1168.18 458.008 -218.78)
(-0.00525871 0.000671525 0.00572576)
(-2.3495 0.434808 3.21894)
(-137.868 28.2205 100.384)
(-456.702 95.2124 409.492)
(-2.13418 0.942709 3.14067)
(-0.000291809 0.000107071 0.000283012)
(-441.848 225.494 408.481)
(-7.76963 2.79351 6.50705)
(-699.742 146.612 577.39)
(-634.573 136.559 607.674)
(-728.634 157.185 641.228)
(-716.113 222.627 625.576)
(-603.169 186.946 572.804)
(-667.186 200.566 546.382)
(-380.93 117.461 338.83)
(-133.829 66.7756 117.692)
(-657.17 334.271 560.938)
(-500.531 244.86 400.594)
(-694.447 284.323 600.197)
(-545.008 221.564 511.548)
(-607.559 238.323 492.652)
(-269.093 110.45 236.821)
(-7.11915 1.1319 5.70719)
(-128.294 27.0042 109.718)
(-508.57 103.384 396.227)
(-75.1099 20.7238 53.4181)
(-425.033 127.367 328.579)
(-71.4216 20.6005 60.7916)
(-3.23607 0.67714 2.53743)
(-34.7225 7.4636 43.762)
(-83.9788 17.9741 84.9568)
(-350.573 75.8918 362.229)
(-18.5426 5.60895 24.4783)
(-282.285 90.7367 288.424)
(-45.1613 13.3063 46.4585)
(-1.14901 0.290393 1.57042)
(-0.112321 0.0395359 0.151074)
(-82.1194 42.3243 86.1538)
(-5.01906 2.00175 5.56361)
(-7.49037 2.82744 10.589)
(-185.795 79.3655 189.344)
(-17.8396 6.25597 19.0353)
(-0.423451 0.128366 0.576572)
(-0.268409 0.0717822 0.19761)
(-150.732 72.0818 112.954)
(-7.82458 2.52776 4.91538)
(-28.5818 8.92211 19.3475)
(-300.765 119.836 230.295)
(-27.8087 9.29409 23.5498)
(-1.08858 0.266095 0.82883)
(-382.776 89.1895 504.396)
(-428.853 124.631 745.565)
(-683.447 153.679 653.768)
(-487.946 171.243 656.94)
(-387.091 257.066 628.993)
(-180.644 104.674 225.063)
(-471.149 285.88 613.388)
(-591.142 313.496 589.989)
(-505.026 125.336 670.416)
(-553.762 129.58 626.452)
(-487.194 140.326 724.336)
(-545.132 184.437 623.568)
(-483.828 196.306 722.819)
(-548.762 146.027 730.786)
(-549.542 206.403 731.461)
(-477.205 222.454 632.275)
(-556.673 331.739 710.649)
(-482.083 316.746 715.441)
(-533.794 309.745 617.677)
(-537.574 246.288 620.423)
(-481.542 255.711 720.144)
(-551.792 268.529 725.92)
(-609.73 143.872 630.306)
(-684.82 218.367 651.402)
(-607.299 204.21 634.698)
(-660.689 150.266 688.003)
(-621.813 150.789 731.421)
(-621.838 214.046 720.777)
(-649.879 212.338 666.736)
(-474.765 142.924 804.31)
(-423.5 175.284 723.291)
(-477.097 201.742 792.31)
(-443.817 113.412 666.621)
(-541.825 142.997 765.067)
(-539.065 202.519 745.971)
(-426.416 157.356 631.239)
(-336.216 203.308 466.866)
(-512.101 310.502 673.734)
(-480.151 318.846 735.205)
(-411.759 221.411 687.068)
(-480.172 260.629 769.591)
(-530.564 259.768 715.971)
(-394.027 190.821 568.122)
(-605.657 338.224 663.026)
(-614.12 333.516 635.921)
(-672.798 351.228 618.421)
(-684.356 284.69 640.209)
(-607.279 267.471 636.905)
(-618.586 277.881 698.002)
(-628.683 270.01 635.821)
(-207.744 47.2701 247.443)
(-531.412 118.031 597.112)
(-570.338 137.205 702.691)
(-556.432 192.66 677.924)
(-152.418 51.8258 182.52)
(-343.008 117.386 443.129)
(-495.765 159.963 549.901)
(-30.1777 15.9219 40.3682)
(-327.516 177.214 350.645)
(-485.485 271.847 573.421)
(-531.437 240.534 638.111)
(-85.1099 37.9899 105.764)
(-277.299 126.437 349.649)
(-431.396 184.353 470.273)
(-0.203669 0.0280054 0.193109)
(-0.119665 0.0181586 0.150183)
(-4.98841 0.856172 5.22351)
(-2.33443 0.536678 2.42725)
(-0.00241347 0.000440101 0.00256046)
(-0.0562189 0.0121305 0.0689735)
(-0.0922688 0.017156 0.0854759)
(-0.00762271 0.00201504 0.00666603)
(-0.208274 0.0637563 0.208988)
(-0.00522189 0.00187708 0.00603072)
(-0.818661 0.22159 0.837253)
(-0.000879184 0.000142204 0.000899691)
(-0.019666 0.00415378 0.0233885)
(-0.030888 0.00664278 0.0278448)
(-0.0436429 -0.0796811 0.442571)
(-47.0412 -87.5515 245.896)
(-0.00485673 -0.155836 0.854145)
(-16.1403 -250.342 700.085)
(-0.000966574 -0.00200179 0.00781369)
(-10.7626 -25.2346 54.1434)
(-33.0402 -216.074 338.433)
(-0.000166176 -0.00576522 0.0230415)
(-13.5731 -23.5499 8.03713)
(-0.678881 -0.535168 0.50982)
(-12.8517 -9.5986 10.0756)
(-127.819 -28.9224 93.507)
(-0.000473828 -0.00034969 0.00195742)
(-0.00840391 0.000570589 0.00932019)
(-1.42246 -1.77526 3.96046)
(-3.59537 0.339888 4.92865)
(-180.984 -22.8476 133.902)
(-185.778 20.4823 137.086)
(-647.999 20.9642 626.695)
(-648.813 -28.9472 627.836)
(-46.4389 -6.27453 57.7314)
(-0.0078906 -0.000655171 0.00880542)
(-0.000115773 -0.000104843 0.000418204)
(-67.5769 -67.6094 121.901)
(-0.002593 -0.00214484 0.0110839)
(-49.6516 -72.2498 192.667)
(-0.0208179 -0.0236364 0.126061)
(-0.00166539 -0.00174572 0.00754441)
(-7.10086 -12.7987 29.2872)
(-628.472 -149.844 602.963)
(-30.2781 -7.32325 38.7489)
(-0.00456139 -0.000660491 0.00500922)
(-5.06403 -1.62966 3.17253)
(-639.974 -346.114 545.621)
(-0.000189465 -6.6616e-05 0.000187121)
(-1.37667 -0.62433 2.03647)
(-56.5546 -254.005 701.541)
(-15.8276 -279.404 642.578)
(-53.9725 -281.362 639.77)
(-5.40055 -105.948 318.872)
(-21.634 -104.951 311.604)
(-15.6878 -88.4597 210.073)
(-4.18494 -91.0532 218.339)
(-30.3083 -64.464 147.917)
(-137.224 -250.202 663.908)
(-127.498 -268.677 578.801)
(-99.3918 -253.196 688.913)
(-94.085 -277.507 618.85)
(-37.9523 -98.6095 286.857)
(-26.3084 -79.5885 186.148)
(-648.261 77.649 624.624)
(-733.279 91.2412 647.872)
(-728.049 26.7378 644.939)
(-714.773 84.5822 592.491)
(-714.799 23.6196 594.214)
(-510.567 13.9539 461.743)
(-498.008 55.2952 448.565)
(-647.017 -89.7815 624.395)
(-730.813 -36.2205 647.359)
(-736.07 -103.406 650.904)
(-714.409 -96.1298 593.749)
(-716.087 -31.0229 595.747)
(-509.526 -18.9746 461.153)
(-491.888 -63.9736 444.21)
(-728.486 -171.333 641.773)
(-712.447 -239.371 623.292)
(-694.353 -160.108 575.091)
(-654.957 -214.418 538.655)
(-589.698 -199.319 561.224)
(-441.814 -103.275 397.804)
(-355.396 -120.875 317.215)
(-0.000242393 -0.000158606 0.000311637)
(-0.000441028 -0.000214898 0.000234416)
(-4.82058e-05 -2.3819e-05 4.28779e-05)
(-0.785651 -0.260903 0.462461)
(-552.693 -348.108 463.303)
(-5.74085e-05 -2.05821e-05 5.29018e-05)
(-0.257452 -0.118448 0.382066)
(-26.2409 -43.1909 98.001)
(-171.099 -244.872 622.133)
(-153.06 -252.078 514.563)
(-196.096 -231.103 550.997)
(-41.9338 -49.4832 126.703)
(-161.336 -216.842 414.151)
(-15.3204 -20.6098 48.5132)
(-9.57223 -224.541 355.184)
(-13.7779 -282.246 533.308)
(-47.0712 -280.718 523.785)
(-7.8325 -48.8226 101.444)
(-0.532665 -14.3378 31.216)
(-1.92958 -12.5294 27.7551)
(-2.18324 -52.8892 110.098)
(-0.30931 -0.712289 0.164748)
(-1.25656 -2.60975 0.928209)
(-0.0277933 -0.0688039 0.0199144)
(-3.18316e-05 -6.14928e-05 1.65543e-05)
(-0.000417893 -0.000679531 9.51294e-05)
(-0.618253 -0.82637 0.178384)
(-0.00059734 -0.000816088 0.000360795)
(-104.095 -245.995 433)
(-2.23939 -5.29078 12.8169)
(-60.3281 -150.323 227.124)
(-53.4004 -192.289 295.624)
(-80.4372 -269.38 491.434)
(-11.6225 -38.8524 81.1925)
(-2.64685 -9.02471 20.8036)
(-1.89302e-05 -1.87862e-05 6.74867e-05)
(-0.188608 -0.213418 0.512738)
(-13.6658 -12.2811 27.4637)
(-0.00123075 -0.000822091 0.00226394)
(-4.45984e-06 -3.76866e-06 1.08165e-05)
(-0.083928 -0.0435417 0.165205)
(-4.1292e-05 -2.39757e-05 9.87125e-05)
(-685.865 -301.871 592.998)
(-454.155 -239.936 364.028)
(-397.628 -218.202 367.303)
(-582.937 -247.754 474.229)
(-519.806 -228.541 487.663)
(-232.581 -103.828 205.505)
(-97.2137 -50.1756 86.0061)
(-0.028186 -0.144339 0.790346)
(-0.253819 -6.37894 25.884)
(-1.17976 -6.00889 24.3617)
(-0.543402 -3.17189 11.3797)
(-0.00214865 -0.0742566 0.35047)
(-0.124992 -3.41441 12.2613)
(-0.0115676 -0.0677534 0.31965)
(-152.369 -134.597 271.651)
(-6.71109 -5.95627 17.771)
(-198.386 -198.512 436.753)
(-21.7585 -21.7732 57.3563)
(-134.47 -152.378 271.533)
(-5.94733 -6.70773 17.7564)
(-1.51925 -1.5198 4.61842)
(-1.95749 -3.65315 15.1059)
(-0.0165307 -0.0346634 0.162311)
(-0.825737 -1.74535 6.28902)
(-0.0450511 -0.114996 0.635249)
(-1.91669 -4.97492 20.378)
(-0.85226 -2.55531 9.19693)
(-0.0177232 -0.0528822 0.248665)
(-49.6331 5.46741 61.2286)
(-115.385 12.8876 116.11)
(-388.557 43.8329 404.223)
(-56.5213 1.23724 69.2605)
(-400.792 10.6896 418.581)
(-128.609 3.00333 129.422)
(-4.22202 0.0687558 5.79036)
(-206.248 -6.34945 153.154)
(-549.544 -69.0766 431.785)
(-567.975 -20.1061 446.943)
(-188.487 -6.17533 162.214)
(-10.6802 -1.06447 8.7395)
(-165.051 -21.6483 142.261)
(-13.3033 -0.282763 10.9027)
(-11.2407 0.955244 9.13229)
(-171.183 19.1037 146.853)
(-554.147 60.9206 434.06)
(-207.13 5.12835 153.676)
(-568.381 15.847 446.861)
(-189.887 4.63003 163.192)
(-13.4363 0.212731 10.9842)
(-55.5634 -1.90697 68.2691)
(-399.128 -15.4688 417.164)
(-381.359 -51.5416 397.491)
(-127.167 -4.3266 128.216)
(-3.34708 -0.388624 4.62014)
(-109.755 -14.7373 111.052)
(-4.14794 -0.107144 5.70374)
(-112.909 -205.114 344.256)
(-1.31188 -2.4274 6.12523)
(-50.2761 -95.2462 145.609)
(-25.5804 -39.2885 64.9633)
(-95.8797 -140.194 225.207)
(-3.45499 -4.92188 12.6151)
(-0.50344 -0.782249 2.06053)
(-495.466 -111.982 387.9)
(-63.1607 -18.6907 45.0661)
(-400.048 -132.108 311.137)
(-6.28982 -1.11123 5.09585)
(-117.003 -27.4336 100.734)
(-58.9228 -18.2892 50.6135)
(-2.59631 -0.585274 2.05911)
(-335.34 -81.9093 347.347)
(-14.9018 -4.89397 20.1606)
(-258.049 -91.4056 264.36)
(-2.02646 -0.422221 2.80454)
(-74.5684 -17.8574 76.2081)
(-36.5581 -11.6125 38.2078)
(-0.908875 -0.248555 1.25426)
(-372.954 -270.81 307.132)
(-260.235 -162.068 205.289)
(-220.179 -142.271 200.422)
(-68.2704 -43.399 52.2003)
(-54.4626 -36.3466 50.6107)
(-20.3413 -10.1567 18.1779)
(-2.56924 -1.28924 2.28506)
(-238.504 -870.968 314.978)
(-446.219 -663.941 245.206)
(-101.087 -882.397 313.443)
(-218.339 -685.489 482.072)
(-213.423 -730.802 251.33)
(-0.279261 -1.51511 0.642727)
(-28.3352 -770.794 448.9)
(-95.5321 -820.566 284.039)
(-7.61185 -73.2192 34.4513)
(-387.897 -810.957 303.175)
(-3.61078 -8.40883 2.40329)
(-14.312 -27.7028 12.4087)
(-0.314986 -0.85084 0.27177)
(-249.089 -600.597 418.275)
(-239.16 -619.232 213.977)
(-0.345838 -1.36194 0.434559)
(-40.7786 -872.17 307.563)
(-39.2412 -861.392 396.663)
(-105.809 -872.149 403.906)
(-37.2789 -902.684 314.145)
(-107.815 -907.033 317.167)
(-104.585 -858.082 403.679)
(-34.3564 -856.619 401.702)
(-164.895 -881.925 316.279)
(-247.508 -853.191 407.129)
(-174.449 -868.906 407.895)
(-250.067 -858.485 308.85)
(-178.784 -890.578 315.177)
(-175.11 -836.609 396.698)
(-240.974 -794.831 379.54)
(-314.441 -850.49 310.596)
(-320.963 -817.817 400.909)
(-314.936 -807.604 294.131)
(-380.036 -763.501 380.371)
(-291.697 -730.562 349.108)
(-356.94 -730.513 265.424)
(-305.907 -622.714 295.63)
(-30.33 -756.397 536.364)
(-18.5866 -573.059 385.339)
(-36.2033 -837.268 497.887)
(-97.3643 -754.541 534.618)
(-106.423 -840.634 501.487)
(-93.6486 -765.962 446.102)
(-66.7169 -551.726 371.146)
(-29.2682 -823.845 285.164)
(-56.2288 -514.652 171.072)
(-15.486 -538.685 178.149)
(-33.2601 -295.194 131.061)
(-8.92021 -323.407 143.74)
(-23.6478 -726.175 328.4)
(-81.6719 -713.602 322.909)
(-247.314 -794.806 483.71)
(-163.241 -731.413 517.207)
(-177.451 -825.006 496.626)
(-157.606 -734.465 427.665)
(-124.062 -382.945 255.993)
(-108.479 -490.557 328.938)
(-206.833 -671.449 389.919)
(-160.79 -790.758 273.226)
(-97.726 -327.203 111.716)
(-90.4891 -446.299 149.774)
(-39.6451 -135.523 56.7465)
(-48.4519 -228.995 100.735)
(-136.763 -665.646 302.022)
(-171.868 -571.916 262.103)
(-438.59 -749.527 283.341)
(-370.075 -551.384 268.728)
(-409.014 -688.009 339.974)
(-244.068 -369.349 135.649)
(-347.902 -605.106 217.127)
(-250.428 -427.367 205.532)
(-108.589 -171.029 79.0374)
(-308.834 -748.326 456.34)
(-233.032 -451.651 311.08)
(-342.71 -676.221 407.391)
(-99.0633 -234.059 154.249)
(-226.333 -556.875 323.011)
(-192.164 -378.95 219.802)
(-39.6008 -86.4108 53.2419)
(-69.6358 -181.124 61.2644)
(-16.4994 -49.7142 17.9585)
(-169.249 -421.632 196.269)
(-22.7396 -56.9127 16.8963)
(-213.495 -439.803 155.798)
(-109.581 -224.123 103.159)
(-3.99437 -12.6972 3.66529)
(-2.04163 -88.2091 42.3092)
(-15.0969 -501.855 280.104)
(-0.53698 -6.68286 3.03963)
(-0.127562 -8.3716 3.8554)
(-4.63465 -169.875 105.84)
(-55.4717 -475.98 266.099)
(-17.3834 -146.81 90.5258)
(-212.477 -287.842 141.443)
(-70.3902 -104.722 35.8943)
(-355.172 -478.898 176.219)
(-140.712 -179.947 66.6567)
(-35.8848 -49.8978 20.1074)
(-5.859 -9.77211 2.4092)
(-0.944685 -1.72452 0.445336)
(-4.67702 -20.4893 8.14854)
(-12.1589 -45.0942 25.5728)
(-0.549166 -3.79894 1.6792)
(-8.33212 -45.5022 20.258)
(-20.7007 -97.5345 58.7198)
(-88.0928 -405.707 227.278)
(-91.5595 -288.31 160.95)
(-0.804296 -1.9585 0.907945)
(-208.637 -308.386 182.863)
(-32.3829 -54.8651 33.8225)
(-6.99451 -16.7562 8.89205)
(-143.963 -239.769 162.294)
(-322.986 -543.079 323.713)
(-91.4897 -162.264 89.49)
(-0.00613356 -0.00818327 0.0361211)
(-0.0328656 -0.0480713 0.265449)
(-1.63725 -2.38936 9.77037)
(-0.0113193 -0.0194235 0.0868673)
(-0.589152 -0.969669 3.48486)
(-1.04582 -1.23312 4.98335)
(-0.303875 -0.40942 1.48354)
(-0.0744987 -0.222482 0.0465734)
(-0.470055 -1.2693 0.246808)
(-21.2042 -40.0096 11.6704)
(-0.63675 -2.00994 0.490391)
(-4.03236 -11.0785 2.59403)
(-115.161 -205.797 73.6126)
(-29.341 -60.5215 23.5472)
(-0.174559 -1.1167 3.65836)
(-0.000717558 -0.0246538 0.104142)
(-0.000846849 -0.00499077 0.0200538)
(-0.00894024 -0.280327 0.92487)
(-0.0385648 -0.244154 0.812251)
(-0.0425742 -1.24398 4.07825)
(-0.00362931 -0.022041 0.0927556)
(-12.2623 -13.658 27.4398)
(-7.42771 -9.94578 19.2933)
(-51.7943 -63.2044 105.735)
(-1.12935 -1.34065 3.77718)
(-0.0247596 -0.032166 0.0910241)
(-0.22142 -0.250727 0.763163)
(-0.133916 -0.183347 0.510576)
(-21.4967 -7.07042 14.5153)
(-110.988 -54.8242 83.0084)
(-263.211 -114.286 202.349)
(-20.5475 -7.26172 17.5747)
(-0.170837 -0.0457229 0.126411)
(-4.97419 -1.78418 4.18495)
(-0.782533 -0.205436 0.601208)
(-5.44242 -2.18798 7.86635)
(-56.5061 -30.0978 60.2937)
(-154.665 -71.3871 159.461)
(-13.0327 -4.86472 14.2188)
(-0.0720548 -0.0255268 0.0964935)
(-3.19491 -1.28397 3.57244)
(-0.301012 -0.0978572 0.413445)
(-63.2801 -51.8871 105.873)
(-1.34268 -1.13186 3.7839)
(-9.96421 -7.44352 19.3255)
(-1.77769 -1.42545 3.96683)
(-0.250848 -0.221778 0.763909)
(-0.183705 -0.134225 0.511599)
(-0.032205 -0.0248138 0.0911769)
(-0.0197789 -0.0896023 0.0343905)
(-0.953492 -3.31546 1.51128)
(-0.0937885 -0.43465 0.173542)
(-1.67128 -6.48149 2.27568)
(-4.41499 -14.955 7.57104)
(-59.2454 -149.033 79.0206)
(-16.6675 -42.4744 19.6063)
(-0.00480584 -0.00985677 0.0415992)
(-0.219138 -0.507991 1.69439)
(-0.043232 -0.0987629 0.335391)
(-0.252635 -0.835127 2.74861)
(-0.00105461 -0.00359747 0.0142011)
(-0.0536274 -0.173143 0.585517)
(-0.00480677 -0.0162078 0.068819)
(-0.000387763 -0.000295016 0.000424437)
(-0.000536812 -0.000333678 0.00031235)
(-3.85377e-06 -2.07561e-06 3.12029e-06)
(-6.38344e-06 -4.48921e-06 3.34302e-06)
(-0.000113664 -0.000101008 7.63568e-05)
(-3.18366e-07 -2.28204e-07 2.37973e-07)
(-5.12647e-06 -4.5762e-06 5.19834e-06)
(-130.578 -100.616 105.833)
(-0.388099 -0.267608 0.372402)
(-0.469523 -0.289281 0.316499)
(-7.2461 -4.27387 5.17095)
(-5.77521 -3.75018 5.61035)
(-0.221474 -0.117864 0.1908)
(-0.0142397 -0.00854622 0.0118462)
(-0.000566194 -0.000566276 0.00249368)
(-0.00821062 -0.00821702 0.0438772)
(-0.00214148 -0.00259136 0.011074)
(-0.125031 -0.112207 0.474841)
(-0.439009 -0.439319 1.80336)
(-0.112036 -0.124956 0.474409)
(-0.0264785 -0.0264857 0.108433)
(-0.32808 0.0235202 0.315808)
(-0.1876 0.0147603 0.239018)
(-7.78733 0.697894 8.15676)
(-9.22231 0.148783 9.68334)
(-0.0100986 9.04869e-05 0.0113064)
(-0.223142 0.00260833 0.286548)
(-0.395371 0.00436282 0.383637)
(-9.09163 -0.214011 9.57584)
(-0.00995779 -0.000141371 0.0111751)
(-0.308944 -0.0265409 0.299718)
(-0.17538 -0.0168913 0.224866)
(-7.31015 -0.78726 7.72131)
(-0.219618 -0.00406818 0.282744)
(-0.390302 -0.00628654 0.379826)
(-0.000244187 -0.000301094 0.00108863)
(-0.000375613 -0.000935714 0.00337442)
(-0.00218132 -0.00460766 0.0204548)
(-0.139525 -0.245877 0.845575)
(-0.0237348 -0.0438514 0.147052)
(-0.0647861 -0.0895856 0.326981)
(-0.00923147 -0.014416 0.0476902)
(-22.9047 -10.6569 16.093)
(-0.0846726 -0.0311487 0.0473884)
(-2.82044 -1.27873 1.82468)
(-0.0261815 -0.00789366 0.0186564)
(-0.804483 -0.295974 0.652424)
(-0.0900375 -0.0365436 0.0701883)
(-0.00282829 -0.00100552 0.00195047)
(-11.692 -6.19558 13.5523)
(-0.033151 -0.0169411 0.0476489)
(-1.51711 -0.843828 1.83304)
(-0.0126064 -0.00475492 0.016211)
(-0.551286 -0.225886 0.607769)
(-0.065346 -0.029641 0.0698179)
(-0.00153433 -0.000671274 0.00187553)
(-0.069715 -0.15971 0.0679445)
(-48.3262 -71.883 37.7046)
(-2.99298 -5.61063 2.88387)
(-0.198893 -0.357979 0.166099)
(-3.63305 -5.97905 2.36902)
(-0.084969 -0.166956 0.0521214)
(-0.00490022 -0.00990535 0.00405072)
(-0.177744 -0.0274284 0.170323)
(-0.103551 -0.017734 0.131041)
(-4.33866 -0.833055 4.59646)
(-1.85117 -0.459513 1.94642)
(-0.00189629 -0.000379808 0.00202798)
(-0.0731983 -0.0148411 0.0685056)
(-0.0443576 -0.010354 0.0548235)
(-0.00691481 -0.0182743 0.00362118)
(-0.0426543 -0.107607 0.0179214)
(-1.95211 -4.0816 0.897881)
(-0.003167 -0.00710461 0.00108155)
(-0.136 -0.276076 0.0503659)
(-0.021829 -0.0460494 0.00939276)
(-0.000525573 -0.00118507 0.00022764)
(-12.738 -17.3024 4.77208)
(-0.100307 -0.138085 0.0331921)
(-2.16329 -3.20479 0.921309)
(-0.0161947 -0.0241495 0.00427027)
(-0.331866 -0.544341 0.107618)