/*--------------------------------*- C++ -*----------------------------------*\
  =========                 |
  \\      /  F ield         | OpenFOAM: The Open Source CFD Toolbox
   \\    /   O peration     | Website:  https://openfoam.org
    \\  /    A nd           | Version:  9
     \\/     M anipulation  |
\*---------------------------------------------------------------------------*/
FoamFile
{
    format      ascii;
    class       volScalarField;
    location    "0.0025";
    object      rhoE;
}
// * * * * * * * * * * * * * * * * * * * * * * * * * * * * * * * * * * * * * //

dimensions      [1 -1 -2 0 0 0 0];

internalField   nonuniform List<scalar> 
19849
(
777507
1.00676e+06
484017
842900
253380
258204
613097
917416
577742
503175
480011
856638
667015
557578
781468
253252
431713
655104
878557
880588
559084
467557
656482
673771
599262
540843
875235
996822
1.00387e+06
895802
434169
493097
496380
466542
463666
534893
538798
434965
540004
497350
432052
493500
464089
535380
472327
438925
445486
546600
502680
511139
556872
490060
465145
454035
536862
522234
570508
588678
519911
496876
479293
555774
579721
612445
643054
507800
673913
595928
553961
503612
590341
666899
522799
566412
513635
703064
685178
604254
617198
672089
506551
594457
553362
503100
589762
666214
930523
948823
257874
257798
930003
946364
773811
760101
865343
588363
753456
583840
649535
859123
589466
866801
761302
753898
584283
650072
859649
254665
257109
920116
955389
732374
973546
644155
597305
879594
774380
794915
609634
683787
898499
566836
545062
518500
648481
609937
682826
735415
550784
592909
534878
762738
728406
634889
658950
649780
822571
626611
707286
949280
739168
922567
333588
415747
444270
378365
332118
414858
489928
387441
358193
334621
332110
332848
356571
356489
358466
331507
356810
334160
332717
356022
356412
358108
419274
385394
386474
413500
383500
384251
416748
353374
386880
414538
384878
351550
376288
412220
413213
384197
383056
384257
419357
416857
386296
385135
353504
351647
376445
415272
378616
412548
493377
333698
388997
529840
432742
503933
343335
373726
395986
398334
509873
429668
571912
457829
368842
474545
336075
358431
336422
361007
340073
360569
364678
339154
369196
350664
364405
344684
369978
376966
358539
357621
385549
349255
376027
386168
398069
420696
385975
416993
422671
389099
393832
428256
360601
390614
356162
419019
381635
386720
425265
398756
393025
425679
400014
445236
435546
408219
412108
402985
366301
393350
444143
402070
433460
381998
383249
368870
398217
414326
413092
431596
473712
455579
442525
417910
406844
418981
432744
457730
438388
423797
395628
383363
413343
427544
488753
408421
448127
406048
485519
441526
445419
449070
444948
408856
406280
486010
441846
445828
460841
495350
453554
449168
412388
456099
418284
472379
450705
432397
517048
470898
493298
449911
410947
456275
477907
466375
519870
495063
445103
482848
515154
470401
465165
477085
426032
436240
518106
548535
498617
492254
511019
449352
465718
561692
533913
571320
638014
601102
542027
485744
597161
571259
639475
807653
691160
733873
862213
787628
253357
254107
981298
420561
988741
501767
681199
936323
722460
975733
780949
832188
998767
671696
718493
629786
788873
988846
856537
926083
1.0062e+06
752499
958514
745636
1.00561e+06
871612
954530
754244
1.00678e+06
959777
746289
1.00581e+06
872356
954998
895385
768194
1.00828e+06
1.00983e+06
967775
790184
979226
839642
973829
775442
890706
1.018e+06
951298
1.01434e+06
974673
944924
1.00991e+06
820163
1.00411e+06
858072
992116
255788
258955
256294
698784
915982
261372
622893
254857
315740
420099
255003
290928
259656
257198
880265
892293
258214
261160
940810
259910
951441
940843
940775
260129
261696
950124
829521
772787
254698
887513
258724
256580
832179
255929
841196
887638
256004
841681
887892
259138
857273
841649
257111
254222
730489
254541
763687
628845
253531
254319
255799
772740
254037
672910
748023
673013
254217
253617
609703
599178
253427
522187
486525
514046
565052
481545
479240
535645
991279
588102
897238
539519
888114
988899
502610
964469
978307
491894
469413
1.00256e+06
875437
477880
992764
465446
873437
464315
1.00842e+06
518778
888224
907748
517973
953258
485123
985054
549528
949637
928844
488622
980463
510107
957253
954802
967288
502366
916416
569802
928441
552891
918603
646194
942568
522261
947895
934948
581550
879912
620561
926094
534838
928352
620099
883651
570367
937370
896744
627702
875015
680251
870173
859931
682413
944952
895113
848600
710928
820259
483871
495106
492368
633670
629806
641091
645211
476528
472770
469771
615311
625225
621497
619072
475824
486856
481552
625199
625170
631156
619186
963370
862686
866684
776671
923387
669099
783654
471704
476000
477899
621479
614069
620177
615329
475956
471695
469387
613968
621410
620043
615292
467747
461823
464548
611402
614492
615249
610375
467027
461440
464303
610062
610115
611374
608917
838144
678241
765114
947267
741560
780592
767604
493749
497363
488636
634046
654824
640920
646976
493840
483332
485150
629957
640126
642112
628508
483282
493795
491835
629832
628326
639887
641933
493743
497332
502590
633961
640880
646840
654742
505571
515689
502710
657484
684372
661929
679613
515362
504533
502288
656475
681628
659072
678648
500769
520179
510099
666812
651796
666771
683197
504599
515466
518066
656772
659309
681925
679008
508314
528546
514016
687814
664586
673435
697719
508360
528592
522248
673562
664766
688038
697885
537582
533160
522244
686759
732459
704814
712525
533164
537604
549536
686838
704850
712635
732520
532175
556853
552988
713076
708020
743775
749047
546673
561412
569707
717421
728559
766640
754405
546743
561535
539614
717681
766833
754671
728752
532012
556260
534980
710842
743423
747152
707530
531860
556071
552693
710491
707105
742961
746775
547159
585148
565054
758074
728433
758100
789340
583128
767799
908617
965748
776742
667327
672524
556889
597253
570379
784313
745087
766665
806819
556853
597238
581504
766592
744959
784192
806757
611327
618273
646198
793672
825028
833103
861785
611327
618275
588105
793708
861789
833127
825038
584194
615594
579872
786866
838660
792078
834143
615431
583584
579647
786234
837664
790308
833814
589820
639809
599626
811036
844974
798315
856489
632990
657047
613757
828223
890159
848997
871891
871795
871749
982209
994606
876377
988933
868222
869838
998759
995997
868103
870436
992838
867072
873487
995253
1.00202e+06
870356
996938
872488
1.0038e+06
867942
995867
869715
998718
870218
867002
1.00246e+06
875722
1.00812e+06
1.01326e+06
870384
1.01523e+06
872709
1.01003e+06
867727
1.00379e+06
1.0135e+06
867802
866169
869954
1.00838e+06
878782
973607
890647
970709
883101
887178
980556
875598
974960
884146
988471
884688
875220
985185
879754
977314
987664
989292
876820
885274
979009
988296
875430
874967
883829
974792
884438
978073
878666
973567
883039
970590
886980
890528
964404
642234
729048
682418
891722
858077
891725
920758
897935
954429
966132
895333
956081
967734
905545
893958
955675
904546
964234
894231
967051
904342
906302
960414
896123
899194
944052
954729
909386
965773
895878
888786
895826
949131
957230
902718
899349
960540
896363
906551
944112
949747
909552
964410
894347
894542
904871
955888
904747
953416
658434
749879
691659
910405
872851
898170
930816
733178
669351
883762
663809
727071
880132
920879
663724
733210
727090
883464
880034
920994
923654
692962
743941
761082
889628
899302
928256
935341
904359
920949
937186
939779
947866
911281
914473
904447
939785
911317
937205
914573
920997
928840
918053
931756
931656
922575
929479
937445
920843
916471
943238
926420
928031
928265
916230
941072
917827
931725
920697
931558
922547
929310
916425
713851
814854
784816
926757
912076
944076
953166
928152
930275
919539
928167
905127
918594
935177
786095
797000
734169
923375
963140
945494
948874
632287
763906
756757
253654
255115
255162
253660
938642
896690
907997
915252
924463
925240
930560
928165
943170
941346
929536
918572
916755
928276
926357
943078
940956
916167
915844
927706
928021
915277
908036
924467
930523
925156
934902
938632
818502
849516
886899
941558
954860
961661
966327
438279
573927
493082
253421
253951
253271
253370
882714
810803
804545
950757
964047
952266
964066
945514
881312
859898
886490
903077
936092
941225
883106
906818
909319
945418
938825
938173
945271
909725
880981
907591
937943
945400
938166
945292
903027
895508
865158
940226
945590
938898
945895
886506
881360
903103
936082
941225
942575
945529
951681
887325
810370
882425
804374
950496
963762
821904
910855
839025
963599
954748
958615
962639
830295
884880
850774
942380
944992
944696
946065
887707
928081
861233
962530
953914
964700
959872
957766
954730
967829
863448
924056
965072
964906
938136
783251
829040
829054
863174
945239
944963
431088
256334
439147
253262
253453
253263
253455
759573
849620
800921
941060
945821
943993
932785
840031
783077
844432
936092
946417
947010
937707
845058
777754
841247
946926
947269
938102
936865
267489
279855
417287
253260
253433
253252
253333
832716
818546
744890
945862
943823
933882
928895
916192
981979
944580
942952
963853
957677
924439
65521
103459
106751
12695
14883.7
12763.8
13276.7
12903.3
13237
85912.2
120514
143723
17325.8
97133
15792.7
114402
13570.6
105266
36307.8
14340.2
15098
50298.7
14499.4
110141
101765
106628
105437
78738
110717
103067
13772.7
111422
103520
93072.1
19594.4
44493.8
80828.3
13074.3
14410.5
17082.9
14000.7
19816
27751.4
13203.5
30103.6
59559.1
17891.8
13883.2
97114.1
29318.8
50751.7
12858
12769.7
12861.9
12664.3
12745.6
12855.2
12676.4
13134.8
13222
14410.8
13751.8
13477.2
13119.5
15982.5
13090.6
12797.5
12974.1
12962.4
13021.9
13186.3
12854.9
13253.8
13968.2
13800.6
13080.9
63650.7
13671.1
19168.4
29820.5
101913
89559.2
108532
99267.3
62242.9
101972
113281
167085
144512
112663
143450
133781
113426
112406
116185
139664
146968
114970
133716
113853
57822.9
13911.7
15035.5
25598.4
36417.2
105470
28057
133294
62481.2
119113
82692.6
116973
108627
128010
13924.6
99013.1
49940.6
111487
92732.1
42462.4
115211
103287
124338
132472
115798
143400
117273
129977
103414
102955
102175
106408
101247
105969
103917
102595
111211
106077
108866
106844
108207
108836
13353.6
13248.9
13427.8
13143.8
13463.6
13199.2
13294.3
20275.2
29137.3
14894.4
18743.7
18889
15071.8
34302.6
41788.3
14710.7
26801.1
26410.1
19197.9
18787.8
61946.5
124133
104347
123923
121243
119581
117519
124642
17950
13835.5
17806.8
13397.3
20723.1
16371.7
13602.9
48985.2
101606
74458.2
94762.9
89931.5
57001.1
66214.2
20505.1
26057.8
14541
13682.8
13764.8
27000.2
20003.9
19364.2
13916.5
32976.7
14335
22098.1
13604.2
27077.9
105785
107365
109919
106362
105918
106069
109264
102738
101859
102897
99353
99717.6
104595
102802
103314
103488
107032
105374
102129
105891
104482
107263
109000
99328.3
110716
106810
108468
107421
106243
97931.5
96972.5
91074.9
102973
104699
104013
106319
110222
108321
110617
107324
110227
106783
102362
104419
100468
103773
100833
102555
104315
39089.6
14168.6
14994.5
19457.4
23966.7
27161.7
16800.7
92330.7
113261
91498.1
101550
74818.5
102572
107739
94901.1
104824
97654
99228
103180
83757.4
105118
85497.5
105628
69519.8
80920.2
99670.3
49127.5
96724.1
59224.6
15345.3
52903.4
37308.4
34103.4
23032.9
78772.6
69617.1
21079.2
80290.7
63907.7
91699.5
51720.7
31186
75250
45419.4
89171.6
89620.3
57724.2
60750.3
97432.3
25739.1
14989.5
34132.5
19471.7
22407.8
15283.4
38914.3
21330.8
13812.3
14662.5
18871.4
24822.2
17322.9
14243
55336.9
91235.7
86706.5
89391.4
68831.5
74923
82322.3
27066.3
21566.9
17015.3
63459
36864.5
15527.1
47232
13342.4
13580.1
13493.8
14604.6
13276.4
13584.7
13536.5
13526.4
13646.9
13692.7
13663
13614.4
13584.8
13623.7
13263.6
13097.5
13123.5
13451
13406.5
13107.5
13289.4
13395.2
14941.9
13910.2
13805.8
13595.4
13421.2
13670.9
12972.6
12989.3
13070.4
13092
12990.6
13080.3
12981.2
12866.8
12948.1
13044.4
12838.9
12874.4
12848
12981.3
12871.1
12864.9
13108.3
12895.7
12950.7
12874.3
12927.3
12923.2
12997.4
13023.5
13000.6
12888.4
13027.8
12891.3
13413.2
13253.1
13401.5
13215.1
13435
13385.7
13260.1
13508.1
13539.7
13798.1
15635.2
13594.4
13654
14493.5
13511.7
13634.8
13770
13717.1
13618.9
13540.8
13912.9
13275.2
13122.5
13102.1
13390.9
13572
13305.1
13103
14303.6
27048
29888.6
43546.7
19767.8
15564.5
18858.2
13313.4
13096.3
13223.8
16220.3
14312.1
13115.8
13526.3
13655.3
14519.2
14370.7
27602.7
15699.5
13464.1
15664
80642.2
57821.3
51943.1
36844.5
73775.8
64367.4
61231.6
100255
104573
102152
106678
103622
106789
92664
98362.3
96155.9
98016.7
100013
101752
89327.3
100181
91567
45845
88811.4
88399.4
99755.8
75475.7
75747.3
117049
112503
116976
110958
111511
116340
116921
119833
123058
115092
114742
113352
122134
121122
134959
147867
135301
142984
131788
138111
145510
119632
113330
114354
121326
112591
119327
121827
16664.4
13843.1
15399.5
14389.7
15376
14177.4
17603.4
43064.8
98127.7
93381.7
91130.6
76712.4
79343.5
61462
20998
20964.4
16083.5
61804.4
15143.6
44880.9
28021.5
27054.5
14139.7
15378.7
14730.9
16258.5
15857.3
19546.1
82866.7
64793.9
84994.4
113488
43671.1
106722
96775.6
63669.3
22085.6
66788.9
84192.8
28253
43367
96891.8
94501.4
104578
100536
113703
107047
81154.8
110456
79961.8
62094.2
79837
106776
100413
41978.3
93425
61619.6
19073.4
78876.2
61918.7
91487.7
26836.8
42394.4
103432
118541
114879
113852
111230
115467
110002
121333
111960
115210
119096
117621
119653
117138
124981
142743
131916
139579
128723
129447
138063
121592
120592
116303
121627
119776
119233
122952
13295.4
12857.8
12762.9
13226.7
12798.5
13562.3
12835.4
13258.7
13211.8
13658
13645.2
13222
13721.6
13685.7
13233.5
13224
13628.4
13216.9
13689.8
13263.3
13219.6
13692.4
12986.8
12807.7
12924.5
12890.1
12763.9
12881.6
12783.7
13313
13778.4
13824.7
13225.4
13854.5
13307.8
13683.1
13409.2
13236.3
13492.7
13238.6
13250.6
13452.7
13454.7
13611.1
13644.8
13818.6
13857.4
13644.4
13874.3
13643.2
13641.3
13668
13856.8
13778.3
13658.2
13842
13690.4
13631.2
13884.7
13627.5
13802.2
13633.3
13661.5
13839.2
13353.8
13702.2
13776.9
13238.8
13788.6
13722.6
13283.5
12921.3
12756.3
12909.2
12907
12776
12911.1
12754.6
12843
12939.2
12979.6
12916.6
12756.7
12883.9
12794.2
12923.5
13000.4
13057
12934.1
12834.5
12969.2
12792.8
13356.7
199819
15002
12960.7
13346.9
12887.6
13224.2
13205
37408
282515
15543.6
168677
16709.9
154674
180201
316789
13296.9
13633
13629.5
13257.9
14975.7
13189.3
14806.4
16243.2
47983.5
40831.1
95850.8
28619.6
25439.3
105693
13443.8
13622.5
13693.9
13328.6
14021.4
14399.9
13445.9
15069.2
29347.2
22266
74358.8
18018.4
20655.5
50465.9
12935.3
13031.3
13080.8
13177.5
13014.3
13117.5
13061.4
141960
281584
295630
203259
313895
211946
304575
176802
105958
101439
146257
65740.7
58486.7
151681
15686.9
15431.3
33500.3
13758
19316.1
13854.5
18206.9
113329
78911.1
251998
181719
241687
280862
146226
13036.4
13111.6
13185.1
13221.4
13166.7
13298.2
13090.1
14831.9
22689.9
27064.2
13510.5
15906.8
16650.9
13449.1
13245.8
13282.8
13271.8
13184.1
13141.3
13096.8
13209.7
71647.9
152651
89767.5
131950
32436.5
44248.3
106632
303531
233198
227365
230201
311084
236574
300100
13264.7
13428.5
13329
13269
13353
13366.6
13262.5
268602
215474
203504
215811
251606
275484
193881
119298
14173.4
14129.8
79803
14572.2
77364.7
14101
86287.6
14021.1
16794.1
18523.7
15229.8
14221.9
14146.3
14786.2
15295.9
14410.9
20033.5
14014.3
18735.8
14100.7
15733.4
13909.8
66185.7
21705.8
15931.4
13968
14051.7
17346.9
62711
105022
121808
27128.2
101388
40686
73852.1
14180.3
13929.9
16215.6
13957.1
14030.1
14473.2
15083.6
14489.3
13930.5
14645.6
13887
13970.5
14450.1
14899.8
16313.6
28258.8
47173.4
34972.3
27278.6
17613.1
20618.7
14086.8
14046.8
13942.7
14080.6
14034.9
14045.4
14134.8
14120.6
17030.1
16339.2
14802.6
14291.2
14207.1
14631.3
28558.2
41535.4
87499.7
20666.9
46267.1
50487.9
18418.1
65240.5
200947
222119
24325.4
147722
30080.9
115269
45012.1
30911.7
164417
19863.2
56457.1
77859.3
18685
444313
502361
328067
354092
308667
407513
306027
499820
338201
304568
338285
444077
499920
340715
447831
317096
470347
504738
354327
534925
481840
535559
342737
394328
636687
360983
551317
316201
304578
314795
339611
337878
349276
351048
366985
666361
527235
351668
527509
408121
540862
305922
316047
314764
339510
337840
349205
350903
532983
433961
369003
411465
756516
568257
547120
312472
318596
322197
342435
346734
353753
358001
322349
331608
326612
358471
352111
363400
369790
326609
336763
325206
361593
377537
363443
375575
326579
336782
325191
361566
377654
363430
375621
334650
337261
365795
344106
374352
377250
386243
329077
344306
332615
380525
366300
370605
385056
946906
438769
695703
461244
376682
797175
588269
348866
342098
337002
376112
398028
382777
390874
352816
363871
352828
397345
384709
397353
411047
384334
441640
382203
394891
459607
397142
456691
441530
384203
382131
394839
459388
456595
397047
387406
453450
392239
463389
400329
405320
469470
348043
369532
355551
406788
390708
400506
417721
351462
349910
365287
393902
391801
410804
413070
349996
367295
365426
394146
391912
410977
413454
357970
369882
374197
397133
402045
416734
422180
460942
406063
398476
411756
487667
419609
477538
409200
477693
428451
496356
411615
474512
425866
409214
496405
428644
477627
474487
411655
425952
362901
386724
379703
416245
408357
429178
438088
432234
481980
415055
420320
512257
437940
488700
415020
496006
425667
500220
428957
440314
515886
377571
380540
365270
412711
448091
427774
431336
427096
508775
522209
454388
435431
445270
497585
386546
395685
426121
407083
438485
449379
463532
385411
405385
383532
433254
462940
435744
460123
405647
385858
383726
433495
463697
436305
460443
388747
417106
393646
468096
440034
446194
475229
513579
454299
438541
454307
560654
471654
535568
522861
465743
445561
458098
572515
479966
540714
448515
523458
445702
469674
562037
472756
557823
523578
448840
445850
469886
562495
473248
558013
424440
408131
399962
454151
496604
464413
484505
452778
541573
459094
568986
477725
484867
579267
414564
399070
421341
472744
453844
481120
502861
553100
477516
467222
494136
612388
506099
593389
446113
418589
431729
512158
477536
494020
531799
473726
593304
520190
600197
493236
497814
563576
536105
539988
672161
499135
608121
502575
603245
673047
666703
536464
499417
608766
503246
603504
490585
614554
507086
637934
521479
540974
672146
683636
616858
508479
516773
700593
556957
629790
479799
467639
447951
514588
587016
540124
556392
527657
587696
673391
724542
541880
570127
648263
553941
649491
527874
565592
773087
596971
716613
269579
241868
259839
226195
295637
256035
248634
289360
228233
236324
237414
233122
235903
245447
243391
249484
233380
239934
230829
238614
238645
247237
248024
243231
243825
253155
258032
259035
251740
245370
261558
250173
249345
244499
254305
260084
261905
243333
245993
255742
270308
253727
271947
252932
278618
261385
265217
249027
258134
274800
264502
280276
290407
271109
272075
263128
281523
287310
269134
276127
266445
292646
273827
284001
335446
464375
299524
338338
252384
292509
470150
504508
408725
405339
271797
335187
304155
244903
293312
245836
280929
295298
257887
388041
272352
334719
411076
361667
334149
274874
424597
555764
484034
535497
483657
427768
440770
399069
470636
464090
467992
473899
424181
418335
450228
425264
456347
435738
370280
408817
393599
298558
383506
360231
394788
345744
336182
276733
252303
236295
241530
239325
250309
242747
255093
310177
256630
247712
275106
319198
265139
297812
392118
379775
332344
408032
349101
374012
355796
243520
257129
241527
254033
243461
257064
258983
274640
349859
319949
272986
318339
348305
290878
472256
469302
473198
435487
440806
431340
443298
450119
447885
521289
476341
480617
437798
444074
272072
316640
313021
346481
289222
342581
289721
246027
262859
250590
250409
246096
259238
263661
460750
451414
444334
436404
424313
412132
427582
308904
273252
304195
289456
337850
331803
290023
337548
362438
324748
352452
323194
346057
342599
288216
274826
257693
283168
265276
263223
269414
247669
250569
246284
260209
266169
261804
264337
432840
396229
421486
395686
400091
378703
414698
274130
296077
299498
324848
291505
319271
290660
246387
260321
250684
252440
261856
264461
266238
334107
331620
348810
348081
325587
343516
348593
298331
287176
293258
273147
268429
273083
276471
395957
314162
375097
374308
337538
313010
395922
372712
336338
392292
310793
369212
311692
394972
302660
299043
291161
272181
278528
275060
280762
378716
385302
368236
389463
367842
363010
384461
295570
281272
298564
293606
317037
318875
298385
388571
310604
364626
358515
334210
383304
310577
250981
263351
256649
270118
264927
270140
276440
256727
268821
259392
277449
269952
272547
281221
304193
277692
280602
306622
283020
286044
311439
311386
299442
306532
277588
285977
280554
282907
351003
333859
369665
311324
344225
376456
310701
313994
288629
304813
324268
316341
332960
306021
364579
381900
363844
363053
389624
367707
384574
272552
203649
208357
208387
222470
348946
210839
206327
311430
209409
209908
236271
255615
197201
200717
215280
205100
223753
192820
200475
192793
197864
211078
261279
238596
189563
186133
188458
188365
216256
229967
391117
313151
285040
196569
199331
191379
216085
191492
205309
197244
186205
210251
228249
232592
213801
198896
223638
204585
218311
206242
226502
226992
217526
201263
197328
216394
210210
197482
197019
190938
204013
187576
208571
286550
368206
377173
504226
479561
242759
179895
153080
257194
15665.9
241111
326462
362438
215897
180607
152932
254603
184079
125901
272332
257652
84342
121768
68223.3
144683
20816.2
157681
98841.4
323133
181622
225757
304361
195811
247708
343299
477204
558606
665698
380395
490754
630549
539262
157647
194698
185049
158800
195686
163660
207118
404012
407122
308106
316881
480193
406769
394195
304470
305507
236915
333169
256648
261724
327971
469200
375346
476413
317570
318151
405021
375862
157619
193371
182131
152175
183243
195490
159144
97874.2
121319
135006
117754
64042.1
133781
96008.5
25972.3
51442.5
22907.7
16100.1
25325.1
50574.1
23992.2
300870
301595
232021
297322
230503
240767
297040
246481
231835
266697
242858
283268
247542
265382
338107
253938
222410
272847
404508
375262
293650
216553
167166
205285
190765
175331
218978
229997
389925
462420
418480
488081
402700
466518
447694
515254
721358
586166
576727
480197
537893
653078
141039
161007
174477
189766
144327
153784
179558
108548
67829.1
63381.6
115806
126048
93432.6
92490.3
325723
436125
477911
379324
419303
332505
387794
307340
249691
305630
266819
321633
271944
324515
281320
204170
219881
232120
264099
217750
283929
386638
451679
377827
430972
367481
437771
421058
216255
167451
204934
207632
185036
170693
218258
139360
152585
141520
156754
142945
121986
141959
17331.8
36496.9
27618.7
54896.3
40682.6
64268.8
28430.7
254657
278072
366658
299688
287912
385318
351535
302485
247699
300789
247041
296933
253275
296143
52105.3
118812
118513
85291.7
121678
121564
55962.4
373123
380307
390373
449194
427018
436146
435412
543744
720082
582952
543856
613918
654595
521381
490745
500086
508337
494717
485984
480861
494049
554827
435493
457692
507185
589960
619843
479094
352171
353572
393880
319706
346966
390997
357290
208612
218574
225051
217818
225297
228444
233868
204268
186509
164155
209053
169125
195172
216186
477494
451889
451822
473394
466595
444455
451386
234278
253725
218067
234260
206837
219136
245455
260224
247631
213419
225194
221934
206857
216231
219871
212403
213641
215522
210819
206295
218078
222972
240540
286145
237105
268052
228088
247441
284721
88907.4
131469
87968.6
133034
95444.2
126134
68438.1
158090
135207
140123
119453
142822
117142
142655
367383
353074
358959
420963
427575
413855
408146
238795
223428
230166
235027
244546
230176
238886
231774
230833
224700
227926
240041
229256
240207
235799
234953
224575
232322
222124
230747
242479
320998
269997
293778
300593
328687
276651
309736
481900
463684
482049
480158
470693
471037
487043
519002
494167
586153
591736
622418
495863
506394
336907
318654
341233
389107
362930
360781
387303
414362
372843
413007
411797
385988
377212
419578
238536
238709
229481
240185
233380
242090
249685
190240
225566
369333
460053
15903.2
88324.6
122930
71755.4
254563
150105
116349
175990
289040
294960
177511
100078
122425
135375
127818
78794.9
109939
141645
171221
68412
84858.4
180676
261891
286748
157881
27918.6
54797.8
24624.6
20424
33793.6
76605.1
51858.1
223841
325507
391511
237596
343501
270462
203862
139417
151530
141222
136023
161595
158559
148478
276079
363848
433676
407846
367077
355718
276733
59976.7
123818
136307
135388
264490
196949
139589
456035
469873
459612
440442
453054
439859
451104
255202
239405
250370
241714
236462
245967
252443
342677
336481
323453
362521
350083
332076
347187
237618
249204
229788
217002
237257
248628
229293
238535
249372
241938
252000
224230
235439
231216
255786
230076
239712
260755
252173
236184
244526
259288
285782
289608
260413
265144
298593
294346
297031
340929
335937
286966
281614
318625
325383
412453
430315
390402
395083
382489
416411
424232
258839
242489
273596
266659
249928
256428
249990
260735
241950
271623
259896
270547
241809
253477
262171
270632
272116
256050
246250
243168
254034
274912
258338
249313
278708
269666
253080
261512
309187
328748
313138
321838
337006
318375
339136
368580
373295
358217
342187
373024
354405
359110
17902.1
72052.6
247560
196595
64721.1
600833
647637
117668
38861.5
14486.1
20128.5
38725.9
14588.8
16333.9
24024
36755
104806
76041.3
68221
53712.9
23568.7
118655
13165.4
406761
496091
149583
59693.3
218068
97437.2
208060
518479
231104
349553
145910
212256
121273
200308
395699
291645
122221
327199
59025.2
187563
144844
26269.3
59781.7
26164.2
16602.9
38218.8
192583
101320
19355.8
13687
13529.5
97199.6
25713.1
19777.2
53442.3
83012.6
157214
305057
148946
133673
769383
285291
564356
823986
528084
655806
512912
366923
417397
655589
592460
306966
268279
498910
826015
391888
771771
58532.7
77965.7
225529
212573
99576
178383
115356
17981.4
19684.1
13734.9
15596.6
32739.9
15296.3
37973.4
73037.6
27713.3
14471
17459.6
128004
49467.5
51299.9
381965
226865
466263
352852
312298
168438
517643
12622.7
12796
13159.3
13611.6
14107
30167.3
14748.1
13032.6
13025.3
13805.8
13480
13067.4
13466.7
13225.3
13402.6
18478.5
37575.3
17632.9
13043.1
22571.9
15039.6
14800.6
12735.9
13134.2
13895.7
12798.6
12789.4
12744.4
13045.6
12911.9
12717.9
12801
12896.8
12838.2
12975.2
12782.3
12981.4
19839.6
16043.6
16619.8
14657.3
13281.9
14026.1
13097
13592.9
15064.9
13225.5
13268.3
13665.6
13095
12907.1
13039.7
14297.4
12960.7
13034.2
12833.5
13138.9
12991.8
12918.2
12956.2
13149.1
13066
13047.2
12863.4
13027.9
13135.9
12974.7
13110.5
13219.9
13198
13064
269911
445117
669936
317665
323331
235359
481305
17820.7
13215.5
13258.5
30892
24767.7
13914.9
13530
759108
641191
635623
635757
816984
518286
696116
22767.8
65013
41137.3
102215
21178.6
71518.6
45370.5
143450
215015
180356
26924.8
117245
84058
58436
198440
130487
179577
155432
182116
139632
188448
451096
325168
351354
266080
176327
169975
223234
42590.1
105682
93239.8
16755.4
24679.1
30550.4
14833.2
260534
304688
230745
342237
226148
380539
251847
678856
539536
438058
375501
445137
542872
314713
14388.7
13152
16845
14219.2
14246.6
17945.7
13066.2
73852.5
13227.4
197235
291944
214489
13404.3
13629.7
13420.9
13608.2
94029.7
15681.6
77546.5
40388.8
184671
130556
299401
148056
111086
246881
13479.3
15892.3
16583.2
26912.8
14963.5
14807.2
22772.7
105493
32424.9
43593.6
88205.4
166099
71658.8
151632
222035
1.13056e+06
444193
264528
231034
467607
229916
13319.5
13332.3
13232.4
13302.5
13221.3
13288.6
13386.8
251451
220886
193013
282688
214401
202548
267632
106334
17055.2
74655.9
13476
16154.9
18408.6
82732.9
210287
92689.1
129383
58125.7
178562
105680
225786
85286.7
85604
30251.7
67139
61236.8
125874
108832
14563.8
18795.6
16296.6
15204.9
29699.7
16684.6
22935.7
126301
175705
176338
144447
115767
170866
174339
57179.7
36729.4
19322.3
18385
86700.8
32909.8
47599.2
13422.2
13451.7
13451.3
13405.8
13484.5
13966.2
13461.3
129344
211014
154513
171896
207839
144353
237480
290810
221751
213314
207268
293857
218386
283070
13303.4
16453.7
14148.8
14138.6
13838.6
16436.5
13436.5
917279
1.03179e+06
738579
630909
434650
513587
276575
19114
53085.2
79366.6
42466.5
23597.5
33696.9
44432.1
91571.3
129025
100191
149603
142465
125579
160573
26531.8
42517.5
44907.4
20444.1
21186.5
32495.9
61048.3
93981
73592.1
77472.8
100068
105906
109470
86922.9
186077
229410
273612
185420
164441
203503
258199
123981
183200
130294
195716
139467
143914
195634
14597.3
13925.5
14530.6
20556.7
15678.6
17312.9
13561.9
259624
256657
293158
221656
241305
225229
226169
13822.8
13643.5
13697.3
14955.5
15158.8
17905.5
14771.3
791034
291733
371880
252884
320001
235923
237995
321362
208522
228617
214089
244293
217710
216004
49119.4
59905.8
31747.4
49093.7
83374
64508.8
73846.5
65271.8
55906.3
35180.4
51040.4
88156.5
68822.4
76153.9
118031
85413.9
106925
118059
102808
129384
92696.6
93206.9
136280
119592
123281
110124
95952.6
139732
226297
259308
270863
237491
290050
246927
304704
243617
61072
195540
314935
14794.3
13425.3
14413.7
13499.1
15231
13134.9
13510.9
86901.1
36484
163179
237256
60903.3
15512.7
145000
13522.2
13698.4
14013.1
14388
13496.9
13501.5
15436.7
17012.9
22869.4
32763.2
18401.1
43880.5
57948.7
23223
311160
307109
282260
299503
407224
340273
239427
13282.8
13286.3
13378.3
13284.6
13372.6
13425.2
13387.5
155603
67655
82681.9
188918
115318
109990
162516
18129.6
13487.7
15300.3
14421.9
25870.2
18137.3
16017.5
22893.7
16306.4
13655.8
14585.7
29713.7
16715.9
18812.2
75704.5
22397.9
54113
75670.1
56323.6
36488.8
91107.6
125401
30168.2
85438.4
85109.2
67019.5
108518
40356.6
359662
268362
298117
316461
255446
375115
320552
13426.6
13387.1
13447.9
13434
13429.7
13705.6
13433.8
13442.9
13433.4
13451.2
13474
13515.7
14002.2
13475.7
115597
150083
102100
115532
171675
163099
119228
171753
211811
154829
129110
207373
143982
184459
13431.1
124205
1.34864e+06
13018
12790.6
13659.8
13421
13060.9
13263.4
13476.3
14208.9
17814.6
182823
416692
76309.2
23227.6
162479
13661
13238.9
13349.1
13787
13287
13291
13772.1
15954.1
14116.5
13998.1
16374.9
14222.5
14718.3
14094.8
786324
319340
1.07962e+06
820505
890204
255157
230136
12936.7
13045.9