/*--------------------------------*- C++ -*----------------------------------*\
  =========                 |
  \\      /  F ield         | OpenFOAM: The Open Source CFD Toolbox
   \\    /   O peration     | Website:  https://openfoam.org
    \\  /    A nd           | Version:  9
     \\/     M anipulation  |
\*---------------------------------------------------------------------------*/
FoamFile
{
    format      ascii;
    class       volScalarField;
    location    "0.0025";
    object      T;
}
// * * * * * * * * * * * * * * * * * * * * * * * * * * * * * * * * * * * * * //

dimensions      [0 0 0 1 0 0 0];

internalField   nonuniform List<scalar> 
19849
(
488.709
467.987
354.873
422.088
287.971
289.696
507.022
493.865
515.58
545.993
557.2
498.598
506.171
516.106
410.363
287.928
578.821
505.379
493.91
494.121
516.65
558.247
505.773
495.593
506.907
526.496
429.605
462.098
484.46
495.48
579.748
545.247
546.062
557.597
556.782
526.471
527.238
580.306
527.783
546.63
579.144
545.557
557.137
526.762
558.43
580.625
579.57
527.919
546.81
545.6
526.714
553.128
568.302
575.639
535.13
541.724
523.135
517.427
536.704
546.466
558.185
526.801
517.908
510.683
504.002
536.438
498.799
511.222
515.612
535.376
510.254
497.8
535.253
516.78
536.548
498.715
499.203
511.368
510.29
498.417
535.805
510.754
515.314
535.033
510.003
497.598
444.661
488.138
289.582
289.554
444.406
488.327
408.912
502.778
497.097
517.491
502.166
516.767
504.621
496.728
517.965
497.324
503.1
502.311
517.007
504.821
496.831
288.421
289.302
441.472
487.524
400.608
482.331
384.468
518.153
497.382
503.496
502.984
517.102
505.626
496.406
516.336
522.534
534.3
501.863
509.354
498.31
494.302
524.948
512.227
531.353
494.972
497.175
507.376
503.129
509.64
501.248
514.134
503.763
491.243
500.988
494.257
693.212
658.129
576.495
623.35
691.038
658.353
544.084
612.687
689.973
668.191
691.651
666.595
688.674
654.594
655.972
690.684
688.751
667.351
666.261
688.098
654.548
655.806
614.117
677.904
637.499
657.257
676.83
636.36
613.209
641.624
612.289
590.586
611.156
640.24
622.152
589.612
657.347
677.493
676.612
636.542
614.764
613.536
637.838
611.407
641.583
640.278
622.375
591.221
623.724
589.963
577.484
691.703
676.568
531.528
642.031
542.807
687.234
633.43
612.575
612.46
536.944
581.026
513.265
587.783
642.658
556.539
691.092
689.361
668.334
688.37
667.979
656.631
655.918
689.662
679.854
661.565
685.364
665.955
652.745
646.298
653.958
673.489
658.404
682.377
671.014
636.23
622.876
656.812
677.927
658.533
615.044
638.412
637.337
613.645
642.022
613.295
642.467
591.645
624.401
623.624
590.667
664.41
672.274
651.527
633.235
600.032
608.846
625.321
602.277
609.183
639.309
620.11
579.383
613.012
586.799
628.385
645.605
660.76
642.892
625.915
607.353
590.898
573.407
612.388
628.604
637.69
652.723
613.731
599.39
568.921
579.191
591.992
611.439
624.032
602.404
589.12
543.39
601.214
567.189
600.211
542.623
575.663
566.349
567.917
577.23
601.849
600.555
542.996
576.052
566.739
566.949
544.185
568.163
577.419
602.28
576.058
601.185
594.933
602.901
620.62
543.261
567.483
558.258
583.607
596.715
565.053
550.584
559.182
530.294
543.385
574.378
555.271
538.585
562.775
571.516
563.417
597.051
589.207
533.96
522.678
545.248
552.574
540.307
578.129
564.983
515.763
527.78
511.532
496.496
504.266
522.485
550.977
508.958
517.105
501.084
492.966
498.745
495.163
491.456
411.266
287.963
288.224
461.414
339.578
473.573
357.593
504.889
492.104
500.751
487.838
498.199
495.825
484.121
494.749
491.25
501.199
492.618
489.332
491.184
490.57
480.596
498.285
490.218
497.563
480.988
493.403
490.155
498.586
480.507
490.31
497.716
480.973
493.514
490.21
494.415
499.095
479.173
476.562
489.747
498.827
488.084
495.156
488.487
497.558
493.616
474.236
491.295
479.833
490.065
492.338
472.741
497.601
481.752
495.759
485.306
288.813
289.965
288.994
393.588
447.524
290.871
379.829
288.486
310.043
338.501
288.534
301.611
290.222
289.321
435.329
438.913
289.691
290.783
456.842
290.319
459.536
456.928
456.837
290.397
290.988
459.549
421.611
408.642
288.426
437.509
289.879
289.097
422.156
288.864
424.254
437.984
288.89
424.332
437.665
290.031
428.784
424.314
289.289
288.259
400.104
288.371
406.727
380.698
288.022
288.293
288.816
408.634
288.195
388.704
403.717
388.722
288.258
288.051
377.398
375.215
287.986
533.368
521.292
533.918
531.907
522.87
514.542
530.289
474.197
529.383
496.716
532.775
497.04
493.349
532.988
478.173
485.324
526.767
508.978
499.844
513.679
518.47
495.907
503.407
513.442
504.886
501.065
530.4
511.3
503.646
531.626
470.024
524.483
490.735
533.494
468.322
456.472
527.842
487.812
533.872
473.817
472.101
478.076
529.248
449.921
531.167
454.968
527.922
450.829
521.423
476.417
534.289
467.943
486.009
530.594
435.154
521.041
454.098
531.24
454.983
521.452
436.182
531.802
460.86
441.109
522.466
433.652
518.745
431.762
428.565
516.497
463.816
437.007
499.754
514.754
418.355
521.005
526.641
526.277
513.903
513.605
516.101
516.453
514.208
508.597
508.111
507.14
510.365
510.082
507.453
517.169
527.281
522.827
514.788
514.811
517.076
511.742
470.109
428.661
429.661
409.472
490.207
516.218
410.809
512.077
515.203
518.398
512.318
507.543
510.568
509.077
515.288
512.107
509.016
507.555
512.355
510.607
509.09
504.908
502.517
504.251
504.957
504.601
505.425
503.931
507.389
502.935
504.897
505.272
505.271
506.648
504.123
422.272
517.002
407.128
488.549
512.388
409.663
407.15
530.891
531.161
527.761
517.259
519.254
518.621
518.592
528.732
521.81
524.384
515.446
516.309
517.361
514
521.929
528.837
526.897
515.494
514.056
516.36
517.405
530.939
531.259
533.062
517.298
518.644
518.637
519.292
529.507
529.802
529.018
517.032
517.228
517.442
516.792
530.099
530.956
529.379
517.169
517.65
518.03
516.881
532.936
534.224
533.91
519.33
519.305
519.351
518.84
530.861
529.976
531.548
517.124
517.995
517.632
516.849
532.879
534.223
533.997
518.439
518.959
519.27
518.553
532.79
534.158
533.3
519.23
518.92
518.415
518.524
534.233
534.191
534.348
518.918
516.483
517.906
517.921
534.156
534.166
533.434
518.884
517.886
517.886
516.451
529.554
528.677
527.811
515.995
515.535
513.274
513.723
533.389
530.717
531.151
516.991
516.993
514.338
514.52
533.356
530.739
532.746
516.993
514.36
514.548
516.988
529.685
529.368
531.2
516.293
513.316
513.972
515.573
529.782
529.36
527.978
516.288
515.583
513.306
513.943
533.402
529.423
531.871
514.398
516.425
514.378
511.567
373.698
407.567
493.35
484.268
508.302
388.829
389.09
533.062
528.684
531.736
513.104
516.099
514.182
510.607
533.111
528.737
530.607
514.213
516.118
513.102
510.628
525.945
525.609
521.487
511.421
507.679
507.003
502.288
525.907
525.535
529.319
511.39
502.261
506.971
507.661
525.468
520.092
524.529
509.824
505.081
510.181
504.913
520.218
525.987
524.669
509.864
505.316
510.386
504.978
527.159
522.584
527.409
510.25
505.319
510.744
504.318
524.345
521.489
526.621
508.466
498.085
505.24
501.899
513.497
513.504
489.054
497.058
513.218
493.355
514.033
513.695
499.057
497.092
513.986
513.764
495.918
514.178
513.894
496.607
499.269
513.929
497.294
513.803
499.924
513.984
497.079
513.698
499.054
513.76
514.178
499.839
513.329
500.465
501.087
513.364
501.631
513.092
501.084
513.435
500.526
501.572
513.437
513.838
513.061
501.063
512.874
483.741
509.158
481.608
511.938
510.803
487.827
512.825
483.956
511.384
492.235
511.397
512.701
490.76
512.576
484.794
491.792
492.527
512.694
511.375
485.595
492.209
512.841
512.709
511.395
483.935
511.404
485.29
512.89
483.738
511.944
481.599
510.811
509.17
478.172
521.656
511.133
516.53
496.615
502.715
496.626
490.231
508.205
470.09
477.441
508.385
470.844
478.193
503.88
508.328
470.801
503.588
477.097
508.08
478.058
503.841
502.801
475.185
507.277
505.52
465.427
472.103
501.04
479.088
506.579
509.689
506.588
468.697
473.819
503.162
505.507
475.188
507.27
502.797
465.421
468.319
501.031
477.108
508.332
508.082
503.594
470.811
503.85
470.026
520.665
510.045
516.035
493.308
500.853
495.566
487.877
510.183
515.853
498.267
515.039
509.552
498.293
490.414
515.164
510.522
509.676
498.527
498.366
490.483
490.451
516.881
511.04
510.611
498.176
496.694
489.779
487.889
502.754
494.271
461.407
462.916
467.947
499.073
498.164
502.74
462.913
499.065
461.401
498.152
494.259
456.467
497.458
458.052
489.215
452.7
491.146
460.849
495.653
498.256
463.169
454.29
492.299
492.019
498.503
462.462
497.456
458.062
495.655
489.213
452.72
491.144
449.937
515.416
505.456
508.736
489.697
493.802
484.613
480.253
489.592
457.211
494.696
489.586
444.439
450.827
484.134
505.546
504.983
510.899
489.653
475.353
483.191
481.914
381.511
406.776
405.422
288.064
288.574
288.59
288.066
481.644
441.1
445.994
449.258
454.121
492.645
488.524
454.93
463.154
462.362
491.919
498.223
498.508
492.284
454.309
463.17
462.469
498.247
498.491
492.288
492.012
449.265
446.006
454.129
488.534
492.651
486.01
481.649
503.662
501.315
496.576
484.783
479.293
475.196
469.542
342.876
370.57
354.699
287.984
288.166
287.934
287.967
496.751
504.333
503.749
481.452
470.234
481.19
470.738
470.474
435.332
428.563
437.108
443.608
483.541
477.774
436.084
445.131
446.002
476.138
484.574
485.045
476.717
446.082
435.443
445.401
485.073
476.351
484.733
476.765
443.756
440.875
430.56
481.587
475.179
483.726
472.809
437.109
435.338
443.612
483.55
477.778
476.424
470.477
480.993
496.797
504.029
496.658
503.63
481.392
470.699
504.506
495.193
503.653
468.78
480.139
477.789
465.974
420.779
436.829
426.242
478.144
464.527
473.6
469.168
497.573
492.333
501.238
474.107
456.853
469.479
461.899
486.412
455.617
466.379
498.671
491.546
473.208
463.176
456.211
410.435
420.471
420.47
429.522
471.206
463.816
341.209
289.013
343.06
287.931
287.995
287.931
287.996
405.563
425.69
414.02
459.065
468.261
462.241
452.784
423.649
410.714
424.682
456.101
466.724
467.386
456.881
424.785
409.689
423.919
466.953
467.446
456.946
456.312
293.119
297.645
337.919
287.93
287.988
287.928
287.955
421.852
418.353
402.925
465.604
462.991
454.682
451.714
493.212
479.595
488.6
450.922
464.206
458.123
443.825
409.511
485.005
471.876
253.417
261.752
250.316
249.703
247.563
246.169
426.138
519.76
592.943
268.282
443.005
250.424
453.85
249.608
450.588
352.678
253.579
255.097
377.193
257.078
470.2
457.691
534.582
434.948
391.003
501.279
511.943
248.938
453.482
445.773
409.629
277.499
344.403
417.42
254.42
264.084
278.176
255.416
293.51
323.335
252.302
326.939
381.82
274.125
251.498
437.227
311.578
371.768
249.775
254.023
253.438
253.434
252.858
249.242
249.531
252.794
252.943
255.162
246.535
250.902
247.722
256.187
246.915
248.049
247.744
246.37
246.091
244.773
247.316
248.308
243.609
245.106
245.378
371.632
245.804
271.729
318.356
466.361
430.417
463.23
452.984
371.959
483.342
484.935
606.845
552.909
502.468
583.729
552.501
524.394
496.821
552.788
585.011
588.071
527.215
565.085
538.724
374.36
244.813
253.156
297.61
332.494
442.225
306.827
517.219
382.638
488.857
418.577
484.565
469.93
522.894
243.141
420.01
362.793
452.616
409.776
340.8
485.636
449.561
507.8
529.725
480.165
580.014
512.966
540.509
474.194
473.436
501.841
469.058
490.709
457.406
486.78
430.073
464.365
461.081
455.496
444.051
443.516
453.405
243.901
246.502
245.374
244.29
245.808
244.861
243.326
280.171
312.334
255.008
272.265
273.672
253.053
325.351
339.376
244.905
300.601
299.843
267.323
266.749
371.059
494.734
436.096
489.692
477.245
476.873
463.428
505.061
277.079
249.515
274.483
249.959
289.149
267.098
249.608
370.389
451.548
400.237
437.914
437.062
378.299
395.521
289.354
314.777
254.202
250.527
250.57
316.12
287.958
280.912
249.03
324.774
252.051
291.631
248.575
310.763
469.883
445.923
477.552
485.842
462.824
493.749
454.123
464.508
464.116
440.311
472.882
480.707
447.782
457.708
496.001
519.278
527.357
526.705
509.427
517.708
507.864
458.923
453.453
421.145
456.108
441.725
444.038
470.858
449.366
420.883
419.786
406.76
430.592
441.751
432.113
479.891
487.796
516.236
477.019
504.229
464.266
493.074
486.878
500.075
493.854
517.96
501.617
478.914
507.742
336.771
249.747
253.662
280.652
298.422
309.286
262.674
413.566
459.069
415.534
438.171
395.605
429.885
445.844
416.942
452.56
423.086
434.293
433.332
404.039
443.875
399.29
435.887
378.477
392.238
422.088
351.654
416.351
367.575
255.541
360.541
331.011
327.211
290.885
391.794
380.026
283.01
393.286
371.437
408.136
358.815
316.568
394.587
359.276
427.327
423.937
376.737
378.368
433.143
311.263
260.525
330.171
279.189
298.577
260.485
341.354
290.456
253.041
254.099
282.046
303.989
272.978
254.189
373.35
428.874
410.566
425.585
390.216
397.565
415.955
310.49
286.19
264.553
374.75
334.199
258.411
354.103
249.8
253.025
250.736
253.567
251.823
250.978
248.687
248.797
248.252
248.183
245.181
249.925
247.065
247.053
248.922
247.713
249.682
247.435
249.466
249.6
247.046
247.605
252.719
245.66
247.045
248.286
245.617
246.736
246.433
247.451
247.13
245.593
247.724
245.796
246.236
245.936
246.526
245.342
246.837
245.859
247.106
245.353
245.9
245.808
246.18
246.035
245.973
245.576
246.579
245.262
244.27
244.369
244.998
244.858
244.631
244.863
245.021
247.24
247.57
247.053
246.479
246.227
245.971
242.705
243.852
243.188
250.805
244.379
243.015
245.044
243.426
246.537
243.803
243.592
245.29
244.89
243.106
243.555
245.865
244.095
245.138
244.653
245.025
244.414
245.596
302.976
312.411
342.653
275.093
252.363
268.752
242.846
243.278
243.858
258.263
247.577
243.608
243.55
243.377
246.585
247.98
305.03
254.078
243.811
251.469
407.208
372.651
361.066
333.293
396.276
383.12
375.198
450.1
455.456
437.918
479.243
457.76
475.015
425.457
444.866
446.485
433.147
467.643
451.974
422.516
463.81
421.481
350.073
408.395
408.439
432.98
394.944
393.198
540.13
505.838
522.273
512.415
520.356
534.244
529.852
555.645
566.572
546.526
545.649
537.742
561.954
561.87
571.968
594.467
572.034
581.941
562.952
579.479
590.014
549.018
515.356
538.174
549.445
528.308
540.214
556.573
257.817
246.466
250.302
245.923
251.673
247.414
261.999
349.313
432.598
418.265
411.885
396.445
404.366
374.039
279.949
281.26
254.437
371.6
251.298
348.091
306
301.109
242.963
247.61
245.787
251.217
250.55
269.649
397.256
375.928
400.429
449.365
343.785
432.953
416.776
372.716
282.932
380.579
401.595
305.489
344.114
415.354
411.919
430.393
424.629
461.95
436.562
394.833
442.528
392.455
370.603
391.827
437.434
422.909
339.702
411.273
369.625
269.216
391.12
369.711
407.438
301.41
340.266
427.791
470.25
472.619
461.673
448.779
456.392
442.788
500.516
457.708
487.909
510.085
515.21
493.517
469.559
531.159
569.711
561.278
572.594
550.579
545.372
559.522
508.284
496.192
499.166
538.438
526.239
481.889
522.348
262.847
264.247
252.073
251.321
263.453
259.603
250.382
248.35
254.053
249.969
252.694
254.231
255.076
253.032
256.386
257.614
259.823
262.121
256.099
262.239
257.671
256.157
249.95
250.622
250.142
253.788
254.14
253.688
254.308
249.97
244.724
246.986
253.375
252.351
253.55
252.085
249.783
248.453
247.804
250.345
250.452
249.813
247.857
248.839
246.387
245.306
247.573
248.771
247.923
246.754
249.432
248.417
246.135
248.767
250.128
248.203
247.665
251.319
250.212
253.411
252.269
253.523
251.362
250.18
264.342
260.53
261.9
258.24
258.326
256.779
259.92
251.699
255.047
254.665
254.773
257.42
257.018
255.161
263.645
262.998
263.174
258.297
258.647
258.173
258.805
265.767
263.816
265.362
259
261.169
260.742
259.441
267.265
550.243
286.468
269.1
280.079
268.237
266.237
279.1
447.594
528.395
268.774
543.449
284.368
597.364
550.44
559.317
266.5
263.726
263.537
269.937
276.985
269.697
274.687
277.671
484.317
452.242
558.394
396.305
372.237
570.304
268.776
263.779
264.895
270.712
269.604
271.304
272.163
264.266
377.412
312.736
518.099
291.527
324.691
441.122
268.461
267.789
268.022
272.337
272.734
272.033
272.963
588.681
608.958
614.306
580.724
589.149
584.353
584.735
548.725
546.992
541.885
563.053
524.106
506.278
566.234
296.073
292.044
426.109
275.611
329.497
276.426
315.364
559.022
490.94
594.272
568.804
538.611
572.373
533.607
270.535
268.704
270.169
273.107
274.914
274.511
273.586
284.267
339.269
379.823
274.576
284.594
295.117
274.914
278.195
279.417
278.218
275.397
276.52
275.029
276.8
484.429
524.861
524.497
551.222
384.362
452.644
516.396
548.641
543.941
539.705
563.478
568.48
566.388
561.122
278.494
281.17
279.45
276.235
278.653
277.539
277.435
506.306
529.845
511.719
555.081
517.651
544.019
532.489
530.705
256.544
247.348
432.876
258.825
549.436
243.659
421.586
249.619
254.963
263.266
247.867
252.069
250.069
247.302
251.198
257.741
307.607
252.203
291.351
252.656
253.898
244.795
377.416
282.243
250.244
250.53
248.76
257.496
382.525
457.246
490.865
297.021
486.182
343.082
433.116
243.98
243.304
251.564
245.26
245.873
244.867
245.994
246.179
243.799
246.199
246.879
246.274
246.667
246.87
252.948
304.186
351.211
326.456
303.644
258.799
273.837
245.929
248.191
250.521
247.783
248.497
247.769
245.717
256.756
268.118
259.187
248.607
254.8
253.502
248.096
299.647
340.902
422.147
264.814
383.29
368.77
253.133
522.231
621.82
638.088
323.004
649.674
358.697
598.878
441.833
354.531
592.369
276.83
435.11
510.478
260.824
555.429
540.118
626.784
638.857
607.471
600.635
603.769
548.999
634.699
601.924
635.109
556.763
549.621
637.793
559.42
614.126
561.8
550.908
640.892
545.518
560.333
542.436
640.989
610.823
513.463
639.546
539.045
613.467
602.257
612.039
597.857
596.356
603.185
604.659
631.451
508.912
540.553
637.202
541.081
600.985
533.206
603.382
614.26
612.14
598.386
596.334
603.442
605.849
541.936
590.101
636.712
601.479
505.114
534.457
533.428
611.355
618.374
621.748
602.513
606.271
609.85
613.081
618.771
629.641
624.671
612.423
608.898
615.438
618.341
625.155
633.069
623.692
609.945
614.456
611.481
612.802
626.134
633.144
623.893
610.229
615.096
612.616
612.992
635.496
636.254
617.191
641.057
620.693
620.79
620.267
629.846
639.245
632.452
617.512
616.049
618.279
618.637
491.412
576.971
506.329
567.315
631.466
501.654
527.675
640.185
638.113
634.643
619.574
616.936
620.527
618.612
640.889
635.191
640.971
615.01
620.38
615.101
605.281
580.447
554.398
579.134
582.72
556.118
584.054
554.968
554.707
581.601
579.345
583.049
557.236
555.253
585.408
585.167
561.093
588.001
559.526
588.733
591.01
560.735
641.116
634.134
640.684
612.154
619.404
614.407
603.391
637.232
635.544
629.901
610.764
609.147
598.894
600.291
635.553
631.312
629.937
611.064
609.302
599.078
600.529
639.342
632.368
632.242
612.547
612.774
601.421
601.015
561.807
591.685
589.824
592.201
559.59
592.813
560.833
584.445
554.213
583.397
547.749
585.903
552.952
581.882
584.743
547.968
584.106
555.047
553.197
586.971
582.128
638.91
625.899
630.44
607.251
611.391
598.374
592.443
585.945
556.848
589.629
591.061
551.02
586.532
557.525
592.948
556.813
591.949
556.257
591.568
587.212
550.524
624.731
624.183
635.073
604.968
576.474
591.986
591.051
591.238
554.203
549.516
582.18
589.893
585.594
556.878
622.266
617.873
599.569
606.356
588.39
583.053
570.922
618.543
599.545
617.235
583.468
565.806
584.594
564.881
599.786
618.61
617.366
583.712
566.313
584.962
565.174
619.328
600.655
618.801
566.606
585.482
584.64
565.502
550.843
579.159
587.473
579.241
532.807
568.114
542.495
549.034
575.572
585.79
578.294
530.793
565.869
541.538
575.712
539.456
574.294
562.379
529.902
563.567
528.981
539.671
576.204
574.524
562.625
530.396
564.036
529.195
597.121
609.818
615.95
581.136
554.551
574.24
561.61
577.388
541.541
577.28
530.955
564.769
564.148
530.264
594.614
609.535
592.289
559.982
574.724
557.325
543.539
539.245
570.115
575.202
561.158
522.869
555.093
527.632
579.843
600.192
587.664
545.094
564.332
552.503
534.471
567.686
522.682
541.145
521.861
555.02
553.971
532.386
531.891
532.692
509.669
547.661
518.895
548.629
518.077
510.066
509.089
532.154
547.924
519.349
549.132
518.28
561.906
519.962
551.292
516.878
546.366
536.025
510.854
510.561
519.797
549.556
548.604
510.082
532.291
519.113
553.729
558.571
573.399
540.031
513.765
527.945
523.784
545.129
522.96
512.881
508.186
538.823
528.773
516.792
527.541
512.559
539.454
525.253
501.08
515.143
505.464
583.352
544.635
575.503
526.332
615.895
561.157
556.665
608.08
525.682
534.879
533.966
543.054
542.561
551.408
552.133
551.559
525.008
531.077
525.709
533.04
543.249
551.632
557.157
544.018
543.388
561.347
575.265
575.596
561.463
540.354
575.747
554.397
555.64
542.199
561.629
575.993
575.647
560.563
560.209
569.865
585.967
570.487
585.894
565.24
592.617
573.642
578.563
561.894
571.427
588.769
580.373
595.563
609.718
594.011
594.969
580.203
596.342
602.786
583.864
598.439
582.459
613.315
597.257
599.763
705.367
660.316
620.651
702.996
610.029
645.182
665.214
684.157
637.726
636.289
608.972
697.67
634.424
562.238
606.132
544.654
590.466
610.029
561.348
625.61
607.845
696.851
679.593
637.48
701.678
628.81
645.414
669.565
645.065
673.395
653.751
659.005
664.907
632.177
639.319
633.9
644.304
649.029
657.094
653.211
625.74
621.197
637.226
633.68
621.273
647.681
644.4
696.55
742.855
695.615
701.811
654.764
707.382
651.154
550.586
523.611
529.741
524.634
545.268
533.166
553.149
646.329
634.073
585.23
668.776
657.128
632.983
653.436
625.61
653.059
641.743
639.406
625.561
649.366
665.198
543.987
562.822
531.11
550.495
544.057
562.92
579.977
614.105
652.991
619.958
612.701
618.29
651.461
643.397
667.942
654.166
657.842
676.243
692.666
673.088
695.01
701.414
683.585
679
671.161
661.995
678.278
696.991
610.703
616.144
612.675
649.157
639.218
645.587
641.007
540.536
577.639
556.424
566.371
547.26
567.129
586.23
648.228
657.187
645.106
689.51
668.68
665.87
687.19
609.108
607.653
607.455
638.153
641.953
639.873
637.761
672.741
671.864
665.208
690.372
688.319
687.663
708.961
598.041
587.252
567.399
594.84
574.199
569.15
576.738
585.341
585.592
562.859
581.195
623.794
601.611
602.827
663.155
666.586
651.282
671.006
706.347
686.522
691.805
613.329
631.869
613.71
644.793
655.733
660.917
642.486
562.668
580.99
585.3
609.84
601.501
602.558
623.637
689.919
723.83
720.12
706.738
708.27
725.401
736.713
619.525
595.834
606.175
585.661
574.087
585.749
601.507
714.598
675.944
685.133
684.009
701.502
674.181
713.259
681.55
699.262
708.265
669.939
678.238
671.707
710.91
625.314
618.632
604.797
584.804
600.662
590.267
608.493
687.28
721.581
706.596
726.031
708.001
726.841
741.747
657.558
672.546
682.721
674.081
683.922
704.754
689.804
705.669
669.009
674.884
672.553
695.771
703.549
668.341
610.354
654.091
634.015
643.404
623.76
643.371
657.983
609.425
653.416
633.193
644.071
624.47
643.147
658.045
634.38
602.81
620.573
635.787
622.19
638.602
646.538
646.538
620.777
635.89
602.995
638.69
620.66
622.392
676.15
696.838
715.461
680.957
689.561
705.81
671.451
716.208
687.836
702.49
718.926
701.314
726.722
698.776
732.795
735.404
721.991
739.427
752.06
746.211
750.095
556.962
506.973
522.024
523.846
537.43
614.22
512.562
509.452
587.569
521.352
522.662
534.88
554.708
513.315
515.652
519.597
513.208
531.761
508.999
511.461
505.959
512.482
524.828
570.105
548.102
507.63
504.572
504.438
507.97
528.959
539.789
640.336
604.747
581.791
514.412
518.312
506.231
517.636
505.76
507.258
509.605
502.175
512.239
533.036
536.717
524.561
512.879
525.755
515.614
521.099
521.868
531.742
532.26
520.679
516.169
512.699
519.437
512.748
512.304
511.63
506.683
506.363
503.907
510.737
585.347
582.37
602.679
609.058
625.685
512.487
498.961
502.89
523.714
297.404
501.194
681.47
572.978
513.937
494.368
501.332
514.972
489.454
459.858
556.756
506.443
498.836
509.036
488.584
552.046
327.878
491.121
466.623
570.675
527.545
528.694
578.596
526.013
534.028
572.702
642.421
679.66
681.487
572.724
611.073
644.78
648.066
495.193
498.754
500.063
508.031
509.204
501.275
509.601
583.404
589.424
554.02
557.019
609.443
585.541
588.744
539.106
536.428
511.768
559.857
528.159
529.277
559.535
636.025
558.721
598.148
588.97
551.161
656.543
622.248
491.682
491.064
493.006
496.576
485.642
484.387
487.586
502.6
511.959
503.959
505.883
474.709
500.496
497.245
374.895
459.658
347.775
299.41
363.138
450.657
350.165
524.757
519.884
498.968
508.775
488.219
492.855
516.424
554.891
535.939
579.985
533.099
594.829
551.625
578.686
587.065
551.665
536.119
545.54
600.47
584.754
558.403
506.877
494.669
501.241
509.795
502.843
513.685
519.702
569.574
596.716
592.711
615.485
591.495
614.605
600.321
625.204
670.827
646.517
640.195
620.823
640.042
664.404
480.143
460.264
472.901
476.7
466.167
477.932
471.371
488.677
457.231
462.979
469.666
487.192
486.239
475.056
563.87
608.679
616.648
593.231
595.324
571.723
591.196
550.694
516.825
544.193
532.821
563.831
537.678
561.129
504.679
473.917
479.013
488.715
524.551
489.598
517.108
553.179
581.239
544.29
573.32
552.065
587.467
581.191
500.041
490.377
493.769
488.343
491.042
486.583
496.005
512.629
496.787
496.205
495.287
494.072
506.621
511.803
307.144
400.094
370.547
450.146
414.353
457.678
370.503
604.438
653.229
726.294
608.177
560.688
679.025
635.271
540.972
506.407
531.893
500.349
536.336
511.062
525.766
463.667
525.597
553.042
495.413
548.506
524.592
465.632
577.042
593.149
591.805
615.128
609.081
616.897
604.243
648.605
680.378
650.648
645.654
677.554
674.13
648.196
622.838
631.69
624.449
626.606
628.888
616.282
636.08
643.276
618.367
620.009
637.816
667.556
665.572
634.987
544.958
582.788
575.268
567.132
556.132
585.633
597.06
509.19
517.159
519.687
524.183
530.338
534.031
537.961
484.865
488.978
476.387
499.131
480.867
484.404
495.897
612.925
608.561
592.373
620.218
605.089
599.823
616.5
535.653
572.125
535.01
530.231
509.053
533.904
551.221
575.742
537.697
525.946
524.367
523.275
521.842
531.452
534.053
515.156
515.625
518.81
520.518
520.087
530.94
531.305
500.692
541.663
524.168
541.203
506.651
514.402
529.443
492.21
548.151
498.869
525.676
492.348
523.971
479.204
491.996
478.187
486.255
498.105
506.032
490.135
508.218
565.433
567.833
559.857
601.118
594.063
588.921
596.447
540.534
517.726
520.507
521.17
542.195
520.478
540.593
531.395
533.794
527.782
542.152
552.368
543.666
551.59
533.183
541.971
524.408
533.433
525.32
541.924
551.465
592.408
574.137
580.179
604.213
610.102
594.904
623.895
629.129
626.434
647.054
634.901
632.227
621.084
640.913
644.61
653.664
678.925
676.486
675.273
643.429
650.418
573.436
579.259
565.362
594.601
618.198
608.775
602.425
613.11
605.016
596.073
605.2
634.682
617.507
622.356
532.782
543.215
525.045
531.025
524.86
544.719
551.539
712.134
691.698
624.213
791.363
300.166
509.835
511.32
498.045
627.828
548.514
597.341
617.761
614.076
688.129
547.434
506.631
513.408
504.488
518.782
512.752
524.207
510.612
708.792
610.22
624.906
706.161
739.934
738.523
715.107
392.135
473.552
363.861
354.861
429.467
551.017
543.09
620.991
613.558
681.725
565.371
680.957
626.351
552.413
514.018
499.443
497.76
530.472
510.415
537.803
505.613
728.546
769.119
754.912
791.481
748.661
734.782
764.478
500.389
536.735
591.58
609.138
738.624
634.779
689.194
619.502
627.5
612.043
607.391
632.441
615.508
623.981
553.055
524.65
545.259
529.721
523.608
544.714
550.542
616.123
649.97
628.781
651.013
632.059
647.13
667.675
546.631
562.536
548.223
533.769
546.401
562.176
547.499
547.121
562.193
549.684
563.47
536.014
548.653
547.485
567.419
540.707
551.823
573.677
562.808
547.599
556.829
588.726
633.323
617.901
622.809
608.671
637.851
651.95
595.579
637.197
625.155
626.39
611.76
641.018
654.944
613.517
639.204
639.238
645.666
628.42
622.216
630.464
571.61
554.756
585.316
579.9
561.427
565.161
561.51
577.248
561.385
588.4
576.448
587.177
560.815
571.466
575.82
586.167
585.945
569.909
560.262
560.317
570.519
588.748
571.413
562.034
592.61
583.479
565.368
573.616
658.837
665.828
643.298
662.378
698.511
677.234
683.889
660.366
665.3
646.472
664.291
699.925
680.396
684.292
271.736
396.926
697.346
606.004
528.028
800.374
802.879
580.93
339.265
254.075
275.828
390.766
258.764
268.292
334.097
337.318
451.291
400.898
414.612
374.666
301.423
463.388
276.674
623.117
793.167
631.886
423.744
646.513
457.545
657.267
826.15
662.847
733.935
534.351
590.074
480.417
596.123
774.178
710.233
566.135
685.185
416.125
559.264
592.976
345.069
510.864
372.655
282.515
447.393
659.05
587.219
310.315
275.349
284.218
517.46
382.383
359.862
565.773
622.511
572.923
535.726
518.933
639.131
724.728
618.14
621.053
857.335
767.089
812.831
804.926
704.014
753.591
862.617
733.751
658.925
687.496
758.261
834.106
744.484
860.068
503.158
546.701
637.832
580.067
539.955
549.997
561.029
313.118
330.406
275.981
295.378
422.734
291.342
448.579
561.996
419.003
282.017
313.473
661.77
502.578
547.704
727.769
680.483
742.508
674.647
716.599
638.863
729.912
257.523
258.562
257.095
259.409
283.614
385.928
274.293
272.837
256.577
256.389
254.94
261.202
258.909
261.898
258.619
284.708
342.834
276.098
260.771
301.085
266.325
269.604
256.972
260.171
263.359
261.895
262.574
262.818
262.916
258.035
258.193
257.538
262.607
263.434
262.975
263.176
264.734
300.048
295.104
292.824
269.082
270.156
270.395
265.55
263.281
278.481
269.788
266.297
263.868
269.239
266.921
268.627
284.289
272.386
271.544
267.732
267.832
267.523
268.296
272.469
272.228
267.878
271.713
268.029
276.065
275.256
274.535
277.737
279.251
277.997
278.591
592.497
692.615
736.175
596.779
558.997
544.075
635.647
337.779
277.29
276.6
462.901
412.936
285.069
282.511
783.108
770.692
723.695
769.685
792.312
686.366
703.964
364.629
505.12
452.286
524.018
350.98
519.092
467.543
674.687
656.535
687.503
395.487
550.888
555.312
521.559
538.436
532.271
508.649
524.03
526.446
541.393
515.834
668.424
685.647
596.505
588.228
544.087
582.717
538.722
523.374
658.792
650.381
314.344
411.237
438.265
299.129
545.364
539.778
514.694
563.483
522.878
582.297
530.992
660.531
651.957
598.544
600.352
599.764
633.735
561.283
287.662
280.491
311.266
290.283
285.999
321.629
280.495
441.425
277.37
474.115
549.713
505.149
280.184
276.789
274.876
284.657
511.84
296.802
458.257
394.521
454
547.792
517.85
518.277
458.506
488.356
274.511
284.694
294.783
379.289
286.473
284.338
340.2
513.822
384.441
450.01
521.867
540.273
484.22
523.314
495.814
1012.11
649.336
506.988
515.421
628.638
517.35
278.604
277.485
276.172
280.024
278.444
279.41
281.121
515.478
556.37
529.934
527.344
527.72
510.502
505.334
453.37
307.494
472.772
283.42
294.258
314.396
451.055
541.115
433.804
453.013
427.14
447.198
444.864