/*--------------------------------*- C++ -*----------------------------------*\
  =========                 |
  \\      /  F ield         | OpenFOAM: The Open Source CFD Toolbox
   \\    /   O peration     | Website:  https://openfoam.org
    \\  /    A nd           | Version:  9
     \\/     M anipulation  |
\*---------------------------------------------------------------------------*/
FoamFile
{
    format      ascii;
    class       volScalarField;
    location    "0.00265";
    object      impulse;
}
// * * * * * * * * * * * * * * * * * * * * * * * * * * * * * * * * * * * * * //

dimensions      [1 -1 -1 0 0 0 0];

internalField   nonuniform List<scalar> 
20978
(
40.0252
22.4842
0.00840213
3.86116
3.46621e-05
4.45179e-05
1.64879e-06
9.90735e-07
82.7006
168.33
43.368
26.9705
0.000113939
5.76229e-05
5.24528e-06
3.24273e-06
182.506
51.6042
160.278
57.1777
164.937
87.4609
186.56
62.4156
74.2814
179.933
32.6491
143.281
47.9827
157.278
150.478
45.34
155.479
11.6855
8.74935
131.122
125.072
131.775
36.5855
143.072
7.05677
115.951
2.25327
109.706
184.49
176.057
178.11
157.572
159.906
152.203
149.74
185.824
180.272
179.498
162.34
161.465
153.845
154.766
176.724
173.38
170.028
154.496
150.617
146.474
142.346
172.871
161.216
165.993
140.23
145.893
137.292
131.217
164.079
173.119
172.306
144.992
135.66
134.624
145.966
168.71
162.548
170.855
143.241
129.917
132.744
140.613
165.895
153.49
162.359
126.138
137.107
132.663
121.355
175.226
159.948
230.531
179.532
233.656
147.263
141.824
208.749
204.593
172.478
217.849
225.219
138.245
142.494
201.97
200.583
234.352
226.661
225.937
217.761
217.072
209.186
209.913
232.355
222.739
224.611
213.936
215.779
207.859
205.949
228.166
220.3
211.543
217.274
208.552
203.46
200.355
221.778
209.68
213.743
200.967
205.033
196.691
192.429
218.159
207.983
217.417
200.362
191.267
190.474
201.12
178.734
199.724
199.001
190.665
170.305
191.431
169.455
214.133
206.589
216.06
198.992
186.963
189.043
197.005
195.762
177.31
197.678
189.287
165.732
187.291
167.949
211.61
198.72
208.49
184.209
194.404
191.155
180.777
193.256
169.036
190.126
162.797
184.653
181.363
159.098
190.374
204.828
194.867
187.298
171.801
176.659
182.775
164.885
182.054
186.401
177.427
149.19
172.785
154.598
181.229
159.686
146.266
171.344
170.47
182.044
158.773
179.783
154.752
144.488
166.661
168.929
177.666
157.154
151.556
163.646
174.87
171.363
133.663
159.85
147.495
148.863
152.974
158.081
127.218
108.616
115.53
120.706
136.423
162.111
149.698
155.236
121.075
127.983
167.135
123.638
85.5518
126.477
116.974
73.1386
114.046
75.9903
47.406
0.13558
0.0190156
19.087
0.187784
0.0272964
23.0091
128.372
88.5068
129.422
118.927
78.9242
120.005
77.8959
154.562
144.361
143.367
123.594
122.497
108.524
109.668
138.883
152.923
141.575
117.468
120.489
106.408
103.226
36.3733
0.0388749
0.0821224
7.90004
0.00474324
0.0147639
16.6541
78.9366
115.165
119.874
69.3774
110.161
105.301
64.7402
130.664
147.219
135.275
113.429
108.346
98.9822
93.6662
108.241
56.206
97.3754
68.4448
96.2676
109.337
67.4359
68.7643
102.835
109.495
99.4668
53.0033
92.6445
59.2643
106.233
62.7268
91.1489
54.3602
94.2208
103.221
65.5485
137.965
124.979
118.117
94.9448
102.19
87.2822
79.8435
271.265
233.38
296.659
246.104
249.978
292.716
224.6
220.489
266.922
243.713
279.02
290.103
217.927
206.804
264.153
252.555
296.061
288.926
280.438
288.261
279.799
271.996
272.675
294.742
276.531
284.819
286.879
278.479
270.612
268.613
286.782
274.05
282.19
278.879
270.911
266.067
262.885
283.075
263.267
270.992
275.14
267.299
259.254
255.206
280.515
270.499
279.816
263.371
254.748
253.995
264.081
247.952
261.252
263.177
255.34
238.315
253.393
240.212
265.179
249.277
264.511
256.719
242.273
257.41
241.562
269.019
276.29
278.379
261.952
250.599
252.575
259.947
258.812
240.73
255.745
235.869
250.904
247.815
232.841
273.604
260.75
270.229
248.012
257.392
254.207
244.823
248.286
237.278
252.236
244.28
225.374
240.293
229.349
262.155
256.871
266.402
250.572
236.964
241.143
246.465
248.194
239.628
233.868
223.843
238.888
248.917
233.136
246.794
229.834
222.449
235.527
237.491
244.835
231.759
227.33
232.991
242.315
239.211
214.773
229.854
224.245
417.138
439.608
389.55
419.113
434.427
451.428
400.826
393.903
436.699
437.368
433.362
454.635
448.352
434.297
439.545
428.61
412.03
424.116
423.004
436.7
424.974
414.041
401.933
397.439
422.092
399.633
418.439
415.468
395.37
402.404
395.262
411.265
409.257
386.059
401.637
391.451
445.106
439.233
434.172
421.122
433.044
428.308
417.325
422.698
417.244
426.356
420.565
403.905
411.455
411.473
411.776
379.542
389.941
408.688
377.591
398.24
387.934
374.084
384.243
369.029
387.757
378.947
396.688
403.51
357.441
296.332
290.533
315.2
358.903
311.208
373.196
285.717
353.052
351.705
308.329
362.283
282.579
269.875
343.466
325.523
380.653
375.511
379.592
374.293
358.192
351.843
352.751
377.053
353.476
367.582
371.679
356.408
349.806
346.577
368.376
363.001
349.491
356.142
344.64
342.216
337.01
367.703
355.956
366.246
343.355
334.603
333.445
344.457
336.614
314.701
336.064
329.085
307.967
307.314
329.822
357.403
334.27
343.751
349.883
339.529
331.606
326.184
313.392
332.163
334.613
327.37
303.535
324.696
305.819
363.402
348.837
359.116
341.121
327.739
331.145
337.725
328.8
304.672
324.543
300.553
321.094
316.692
296.827
353.601
337.458
347.318
323.352
333.277
328.078
318.325
315.237
300.643
319.997
312.023
288.371
307.194
292.746
334.878
331.435
340.984
322.702
307.755
313.09
317.289
320.624
312.047
299.726
289.712
311.103
298.961
321.471
318.777
288.091
295.059
306.408
309.215
315.991
297.387
291.992
302.766
312.323
307.928
278.758
298.441
288.237
303.262
279.573
274.501
288.796
293.749
298.388
284.086
235.635
216.568
211.081
222.048
226.218
231.577
220.668
766.571
448.87
380.838
414.949
422.025
501.842
524.943
431.154
475.22
490.767
841.973
400.935
593.133
545.559
663.581
569.089
381.819
401.077
391.807
464.259
489.45
492.391
464.658
425.938
480.245
495.377
519.85
551.47
530.942
561.195
427.702
417.857
406.048
459.393
481.762
489.559
451.202
396.923
421.957
400.832
453.057
458.52
456.773
452.662
541.025
460.344
518.398
533.967
537.232
570.723
575.39
827.61
607.067
608.303
739.646
604.221
604.481
729.35
608.491
801.016
608.33
603.173
685.242
600.761
709.692
409.889
420.678
406.571
445.23
428.939
434.657
442.357
488.297
522.782
520.091
493.583
487.836
518.301
493.543
568.922
564.832
598.629
590.686
566.77
593.459
597.122
476.753
494.576
510.649
467.232
477.568
507.129
463.94
472.767
456.035
464.566
469.21
450.46
467.233
457.804
544.904
555.316
557.342
591.238
581.803
590.436
585.756
613.453
592.002
598.228
598.08
610.156
591.438
657.296
595.796
628.143
584.291
602.319
588.376
591.977
643.984
457.712
433.093
447.037
441.29
457.371
445.144
446.111
625.69
460.736
517.047
728.833
503.067
565.979
525.659
583.696
538.14
451.615
394.281
405.432
491.278
495.938
401.052
434.251
555.915
503.933
563.183
524.822
574.597
572.237
519.898
419.678
449.251
418.735
471.015
441.658
436.407
466.314
606.26
690.917
602.072
658.879
596.004
590.507
633.214
405.985
397.626
401.778
416.216
423.598
417.216
407.482
592.223
655.607
597.017
585.442
594.076
582.409
610.698
451.949
427.383
421.64
435.674
475.911
437.69
468.924
571.776
507.638
567.741
570.6
526.977
569.127
521.593
611.437
579.808
586.59
581.574
575.614
576.48
596.248
534.496
572.985
578.36
571.962
533.593
565.755
530.212
405.741
393.919
401.531
414.724
399.82
415.122
402.284
485.021
459.377
453.387
447.354
493.159
454.704
482.194
437.797
421.567
421.46
427.025
412.953
430.417
412.809
578.373
575.889
573.633
569.592
574.427
577.346
584.044
566.891
529.92
554.243
529.668
559.681
562.743
529.705
445.095
486.849
491.71
452.592
452.423
446.1
483.536
422.496
401.824
421.641
406.187
424.903
419.976
406.235
366.411
389.108
404.815
383.487
394.495
407.796
362.644
342.095
396.028
401.211
410.762
393.505
401.734
404.187
395.792
390.98
384.812
388.346
390.317
394.929
388.49
382.532
394.4
377.747
387.954
379.69
393.891
386.381
372.834
411.815
398.806
402.419
395.26
402.12
393.049
386.401
377.563
372.038
382.452
379.105
359.298
372.48
365.904
388.417
391.119
384.88
384.689
370.949
378.179
377.561
380.282
372.373
388.933
380.72
355.612
372.235
365.087
372.677
350.974
357.39
348.677
364.482
365.411
357.804
59.0065
87.07
99.2232
94.2373
43.5571
82.0009
54.4367
130.037
114.229
115.396
92.7976
76.764
75.6213
93.9616
108.81
128.058
112.071
90.6174
70.1411
73.4339
87.3336
88.2742
42.9893
68.9982
38.4085
75.9655
81.3323
49.0718
98.9334
121.059
104.443
65.7894
82.9663
77.5359
60.4241
11.7615
0.0121657
14.9237
1.28392
0.000914453
0.000658613
0.851216
44.4223
84.1664
83.0678
68.8015
33.297
69.8769
32.4634
77.9
42.6558
81.0042
66.7598
28.4226
63.693
30.8341
102.264
84.475
92.2778
71.0832
46.9862
54.1216
63.6654
0.00918556
0.00645593
9.87556
0.000528569
0.641322
0.0130899
0.000301633
73.795
32.4262
68.72
25.3128
59.6486
54.6857
21.6301
48.2844
40.1517
39.3157
16.4885
15.9405
11.1508
11.6011
55.8766
27.6676
62.7292
48.8763
13.3158
42.3111
17.5473
45.7774
35.4265
37.7453
13.4689
14.923
10.31
9.12438
53.8229
21.6987
11.1744
39.5721
38.6412
54.8396
20.9926
51.8524
17.5727
10.171
34.0852
36.8114
48.8999
19.6015
40.2149
32.4053
28.7597
11.6551
9.60095
7.6818
6.10455
31.9206
20.0669
24.5987
5.39586
7.45805
4.53612
3.12603
15.0277
30.5424
45.0299
40.3204
5.27989
26.313
12.1398
27.195
21.0077
29.361
6.34951
2.8649
3.39486
5.48578
22.3242
31.6091
30.8345
6.97289
3.99718
3.78787
7.3048
34.8773
6.29679
3.61974
16.5622
21.5714
28.8504
9.13813
24.4005
13.849
21.0795
2.26735
4.46987
3.41575
1.67671
13.5014
10.8531
17.3776
2.43525
0.749061
1.15878
1.60923
14.3694
8.20215
7.81965
1.88613
1.77779
0.741399
0.787396
13.298
6.04703
7.07919
1.30625
1.57438
0.653731
0.53855
7.80192
4.84004
3.60241
1.01491
0.73883
0.414358
0.297398
5.73063
1.56287
2.4777
0.319985
0.50348
0.198235
0.122427
0.00121032
0.000125951
7.1852e-05
6.24997e-05
0.00151969
0.00145664
0.00211194
2.22074
0.177871
2.10455
1.21952
0.107157
1.2889
0.101428
1.61482
0.159696
1.89412
1.09287
0.0765876
0.925628
0.0907699
3.6203
1.20362
3.41454
0.281396
0.101037
0.0947566
0.299344
196.11
3.90367
0.311485
1.39281e-05
4.85568e-07
163.038
21.6823
3.18416e-05
1.11208e-06
208.331
129.31
154.111
129.12
185.172
164.225
79.4326
141.085
30.3025
55.2864
8.44295
26.4453
120.969
136.602
213.391
205.047
196.315
199.745
190.967
187.508
181.827
202.602
186.805
193.697
177.819
184.843
175.286
167.743
195.695
179.145
190.08
166.107
177.514
171.407
159.441
17.1127
93.8006
115.609
1.26612
93.5967
43.2386
0.132192
176.997
147.217
171.127
142.723
167.341
160.992
135.01
156.866
155.602
148.985
133.501
125.583
124.019
115.614
176.253
172.199
183.641
164.331
142.623
151.674
156.107
139.04
156.399
164.314
153.572
114.955
144.869
125.82
149.631
131.865
141.157
105.786
116.366
105.932
94.9444
156.176
143.093
112.827
149.196
103.15
135.228
120.392
146.9
128.638
139.683
100.56
113.05
104.202
91.3533
227.666
242.65
224.078
274.548
201.904
247.799
230.321
182.493
269.607
258.843
266.397
261.346
253.957
250.722
245.779
248.586
258.179
264.154
249.712
255.795
240.29
234.18
239.035
228.991
243.891
220.878
235.832
230.875
215.81
257.493
242.561
252.355
232.275
241.908
236.845
227.033
536.263
398.994
343.514
576.71
604.304
528.001
563.88
528.804
557.033
508.017
499.898
473.263
396.002
449.244
398.871
485.223
395.814
382.291
360.785
388.07
383.664
335.853
370.858
319.088
588.903
590.226
587.674
583.083
581.799
582.592
576.64
574.032
535.998
573.396
531.857
567.216
564.187
533.268
434.378
485.84
441.904
484.553
442.275
448.361
491.763
410.863
397.58
415.501
398.635
416.308
417.843
398.047
586.416
581.754
587.791
582.217
570.418
579.547
572.978
570.93
572.369
577.514
577.206
562.315
569.603
568.264
381.549
386.657
386.653
377.937
377.18
383.568
372.174
564.673
538.359
570.007
559.871
527.548
554.488
531.447
558.663
549.109
521.29
554.409
516.79
543.997
526.161
457.31
494.795
449.757
455.023
497.981
496.482
460.355
490.454
454.128
490.959
453.768
490.179
493.237
456.075
421.729
398.605
418.699
420.17
397.213
423.829
397.694
574.841
564.236
560.367
558.147
564.878
570.017
566.351
418.744
397.279
420.658
419.667
395.065
421.994
396.979
372.715
355.285
367.829
353.042
366.315
360.558
347.095
384.536
369.152
373.712
378.545
380.866
367.414
363.141
379.922
364.787
371.244
375.995
379.985
365.861
359.781
549.457
517.858
512.293
532.297
538.398
543.7
522.317
457.803
492.702
488.266
456.925
494.054
456.986
460.022
422.347
395.989
394.787
426.019
424.244
425.763
395.744
356.971
349.556
362.564
354.974
335.322
349.554
341.231
344.562
350.976
358.806
352.876
329.998
345.211
338.558
374.68
372.903
377.009
361.323
352.276
355.702
357.602
347.386
327.161
324.476
335.594
340.066
342.317
332.787
275.186
328.547
291.68
346.042
264.883
319.657
311.315
247.298
340.41
328.911
337.795
323.457
331.999
320.673
315.081
334.659
311.81
317.817
320.104
326.181
309.38
303.321
310.248
286.659
305.019
283.611
302.099
296.784
278.419
328.924
313.91
323.099
302.249
311.744
306.122
296.538
293.583
299.51
281.189
291.147
266.654
285.012
272.757
302.183
317.278
308.091
300.324
284.454
290.621
294.143
274.662
283.53
293.242
287.777
259.501
277.956
269.341
281.952
257.368
253.668
265.744
272.05
275.709
263.597
212.43
218.593
233.656
225.339
203.632
219.131
210.087
240.452
246.699
236.756
231.193
214.537
221.169
224.857
211.903
217.3
227.009
221.884
196.28
211.93
206.595
216.109
193.709
189.835
198.925
205.837
209.584
200.563
140.947
98.2384
91.9975
114.839
125.903
131.2
110.131
108.272
131.108
119.235
94.1254
69.5943
81.0003
82.8344
0.0240393
0.00382972
6.81447
0.795542
0.000594022
5.24589
0.00284449
95.162
47.4529
86.4662
46.0254
84.8269
76.0264
38.4472
124.364
109.997
86.6036
100.561
77.1826
71.3927
62.009
66.1325
39.0503
76.759
66.3117
22.389
55.8042
30.46
36.2917
61.1609
73.4397
64.6508
20.0547
52.5353
29.1542
105.425
77.802
89.8073
55.5318
66.7741
51.8317
41.0792
75.5561
65.601
83.7298
39.1471
55.3641
46.3155
30.8206
55.0642
14.853
13.8707
33.5808
43.2645
44.8475
21.8618
60.7232
54.7484
72.7124
36.7229
14.3792
22.3669
26.923
0.000691818
0.0698689
0.00514043
0.00368564
0.00023391
0.000898918
0.000147458
48.2535
11.9197
39.9934
9.25128
35.1235
27.5321
5.73443
16.2998
15.3868
10.8669
3.58976
2.18228
1.98424
1.15808
7.36298
22.5687
31.3063
19.8952
1.44697
12.7692
3.09598
3.89435
11.6448
22.4759
16.1052
0.651185
7.27169
2.1366
11.1934
3.81758
6.88882
0.618139
1.20834
0.626779
0.313953
9.71205
3.12517
6.33013
0.452036
0.987836
0.565131
0.252674
10.26
0.461791
0.308426
1.77148
3.90156
5.56336
1.04014
1.85429
1.6597
3.65485
0.299467
0.0606221
0.129202
0.144827
0.000270785
1.64765e-05
0.042202
1.93842e-05
0.000228257
1.36678e-05
0.00020069
8.39001e-06
0.000297591
2.6218e-05
0.000293477
1.41636e-05
0.000265715
0.111704
0.0698817
0.0929695
0.000294369
0.000334239
0.147752
0.000351625
0.114428
0.151629
0.000297995
0.119341
0.000355632
0.157814
0.000238173
0.000200809
0.0931489
0.0578107
0.0241209
0.000218853
0.0407544
0.000225406
0.000278003
0.0955628
0.000281808
0.0996857
0.000232111
0.0439089
0.0541624
0.0724352
0.000253141
0.000174206
0.00184088
0.000186107
0.00225992
0.000155741
0.000104502
0.0445176
0.0180218
0.00523686
0.000148253
0.0108879
8.8718e-05
0.00286783
0.00624018
0.000463397
3.35688e-05
4.81774e-05
0.00114846
0.108605
1.30197
0.991812
0.0607824
0.740048
0.557996
0.0454021
2.49202
1.05038
3.02003
0.246575
0.0665266
0.0824875
0.200777
0.0582939
0.262592
0.020756
0.482437
0.713029
0.395665
0.0316976
0.907816
0.187927
2.36544
1.30994
0.48883
0.101641
0.036931
1.91016
0.449532
1.35812
0.0496824
0.15184
0.106753
0.0344484
0.653971
0.0257903
0.0564016
0.342319
0.32328
0.691575
0.0533408
0.00157802
0.000238641
1.71421e-05
1.78566e-05
0.000205966
9.373e-05
9.1113e-06
0.161861
0.0125765
0.305001
0.0139058
0.178708
0.0925676
0.00716478
0.584027
0.039816
0.239286
0.0228732
0.287184
0.491423
0.04754
0.0422381
0.17514
0.551296
0.292217
0.896983
0.0696869
0.0220263
0.0312587
0.186615
0.388874
0.289019
0.0107844
0.136251
0.0230512
0.66479
0.108718
0.242207
0.0231356
0.0507032
0.0178561
0.0079379
0.0591912
0.1301
0.0102699
0.200693
0.00733258
0.0928814
0.0158509
0.00715178
0.0236136
0.0487856
0.0963168
0.313833
0.16381
0.0122005
0.100051
0.127977
0.114768
0.00951323
0.00925696
0.00836885
0.0105148
0.1325
0.14047
0.126023
0.0121142
0.0104587
0.0109695
0.0115459
0.131068
0.120603
0.138059
0.0112459
0.00942209
0.0106959
0.00990754
0.159646
0.143943
0.151571
0.012296
0.0129348
0.0123225
0.011715
0.122639
0.136614
0.140363
0.0114444
0.00984668
0.0100836
0.0111789
0.162243
0.14994
0.154079
0.0128619
0.0131659
0.0125436
0.0122567
3.1164e-05
0.000528456
0.000750818
0.000127071
0.000103808
1.59331e-05
1.74069e-05
0.011478
0.153138
0.144329
0.0587684
0.00501889
0.0624018
0.00474424
0.0855423
0.080427
0.0982619
0.00822809
0.00600589
0.00722922
0.00683961
0.113482
0.0884373
0.107955
0.00905084
0.00790174
0.00753606
0.00949231
0.10078
0.0763935
0.0805857
0.00792645
0.00834386
0.00678154
0.00644586
0.102495
0.0796596
0.0819531
0.00829579
0.0084906
0.00690246
0.00674482
0.105106
0.0101516
0.127365
0.0516264
0.00348067
0.042281
0.00419238
0.0832929
0.0743359
0.0663369
0.00783528
0.00708516
0.00576638
0.00637843
9.23696e-06
0.000138979
1.46465e-05
2.1151e-05
0.000329667
7.00282e-05
1.11095e-05
0.0809417
0.00469179
0.0583015
0.00264262
0.0321548
0.0228225
0.00194156
0.00748879
0.0481672
0.096317
0.0488685
0.00202632
0.0238663
0.00388999
0.0581411
0.0445523
0.0613516
0.00523688
0.00374713
0.00498483
0.00392959
0.0710215
0.0456433
0.0563628
0.00507448
0.00610602
0.00496184
0.00412255
0.0452827
0.0605694
0.0623782
0.00532965
0.00390614
0.00520476
0.00399952
0.0625336
0.0398646
0.0462154
0.0047289
0.00539099
0.00411307
0.00361148
0.0536961
0.0688794
0.0510321
0.0062499
0.0059603
0.0047746
0.00455668
0.0348901
0.0782628
0.00615456
0.0438731
0.0016978
0.0191179
0.00355928
0.0563809
0.0360832
0.050143
0.0044394
0.0036999
0.00491927
0.00334169
0.0340346
0.030253
0.0423377
0.00378088
0.00236673
0.00313521
0.00284414
0.00235841
0.0232049
0.0244617
0.037338
0.0354473
0.00335759
0.00320725
0.0348898
0.0325501
0.0253033
0.00397767
0.00322867
0.0030484
0.00248397
0.000928129
0.00208029
0.0243091
0.00316423
0.0389616
0.0149628
0.00132753
0.00180942
0.00956352
0.0225458
0.0337966
0.0775969
0.00586616
0.00262315
0.0020698
0.01778
0.0208365
0.0273983
0.0319455
0.00291351
0.00256644
0.0257066
0.0127982
0.0184414
0.00182644
0.00241219
0.00186019
0.00142561
0.00131394
0.00157265
0.0142469
0.0221227
0.0170314
0.00215995
0.00177459
0.0212712
0.00202616
0.00764848
0.000875114
0.00718702
0.0226191
0.00192217
0.0185546
0.00140361
0.000748296
0.00504071
0.00622675
0.0150453
0.00166736
0.0015141
0.0138901
0.0146566
0.00834326
0.00791279
0.00106099
0.00102865
0.0223546
0.00104493
0.0044893
0.000954022
0.00951359
0.0106467
0.00189802
0.00134622
0.01051
0.0123942
0.00596986
0.0070489
0.000963923
0.000885202
0.00769312
0.000968572
0.000780918
0.00834989
0.0121854
0.00129386
0.0010106
0.0010757
0.00372133
0.0111873
0.00782521
0.000452265
0.00262455
0.000833463
2.51565e-05
6.71091e-06
5.99974e-06
6.2445e-05
8.87805e-06
3.25278e-05
7.14343e-06
0.00063583
0.00126477
0.01375
0.000821069
0.0073839
0.00277551
0.000478734
0.000862977
0.00100826
0.00824815
0.00465586
0.00352243
0.000754236
0.000665584
169.465
187.697
178.581
74.6384
173.228
93.212
178.98
75.2586
101.922
196.316
89.885
177.678
63.279
169.768
73.6344
100.283
195.07
184.101
148.867
38.0846
112.54
84.6814
58.1042
165.774
196.037
167.095
190.886
196.853
191.721
174.19
168.078
196.982
191.205
191.867
173.608
174.361
168.268
167.516
193.153
189.954
188.03
172.19
170.022
166.09
163.899
190.708
182.489
185.56
163.674
167.197
161.018
157.385
152.182
160.147
185.103
179.482
185.966
161.167
153.251
179.668
185.463
186.132
161.377
152.692
160.611
153.48
179.898
178.792
174.458
159.434
154.419
152.975
147.718
184.191
175.678
182.242
151.171
159.152
156.899
148.817
176.551
173.068
179.716
153.903
141.619
150.101
145.652
175.044
163.615
169.43
141.611
148.528
141.497
134.173
172.723
161.033
168.22
136.657
145.452
139.873
130.684
134.547
101.27
142.214
102.458
143.367
135.721
94.3815
102.726
142.761
143.598
135.968
93.8618
135.129
94.6493
97.7012
141.127
138.579
92.2387
133.479
130.892
89.6719
156.822
155.447
162.956
133.246
115.326
123.601
125.446
130.899
94.2294
135.179
127.422
81.8564
123.041
86.2045
116.116
84.3434
125.883
127.079
75.7719
85.4931
117.339
127.337
76.0315
116.749
84.978
126.493
85.7577
117.605
115.022
83.3567
124.807
122.167
71.0765
80.7928
112.315
125.729
119.63
78.61
76.6376
117.735
111.466
70.5579
118.605
72.9703
104.017
67.6122
114.103
77.3231
108.651
71.6687
63.8719
104.399
104.189
55.8989
63.6297
95.859
67.7528
98.4114
108.644
102.202
52.1315
61.6993
91.8207
228.93
256.359
257.638
218.047
250.421
222.964
214.669
250.629
199.998
259.259
214.928
207.434
249.744
198.821
191.789
244.045
259.049
213.842
251.518
248
191.37
204.279
173.854
188.272
241.056
259.426
259.129
257.548
245.427
245.845
243.237
242.706
259.213
257.549
257.656
245.761
245.985
243.391
243.075
258.535
257.07
256.166
245.155
244.139
242.314
241.071
240.968
257.71
253.075
254.905
242.789
239.464
237.359
228.962
185.773
167.484
141.374
163.792
204.331
215.993
234.5
254.601
250.811
254.743
239.688
239.044
235.238
250.994
254.641
254.885
239.866
234.964
239.458
235.433
253.941
248.296
252.719
233.963
238.574
237.149
232.404
254.312
238.58
250.605
247.478
235.553
234.68
231.406
246.446
248.935
251.103
235.334
227.931
232.998
230.439
243.815
239.37
243.717
227.6
231.889
227.55
223.118
230.831
215.384
231.451
227.944
210.317
227.265
211.048
215.487
231.134
231.563
228.064
210.595
227.588
211.167
246.168
237.542
242.796
224.863
230.095
226.638
221.266
230.247
212.174
228.865
209.487
226.627
225.139
207.775
224.867
210.051
227.101
223.233
202.9
220.835
205.603
234.416
233.506
238.884
222.646
212.442
217.144
218.082
217.923
199.659
205.331
223.681
200.452
206.089
218.688
223.818
200.608
218.294
205.633
223.305
206.227
218.839
222.113
200.575
218.781
199.63
217.896
214.393
195.791
234.452
238.998
233.602
222.695
218.093
217.171
212.443
217.203
204.497
222.282
220.695
197.023
202.743
215.542
218.679
197.703
194.711
210.745
216.137
200.509
213.427
210.335
196.284
214.858
210.317
186.285
191.359
205.653
223.796
223.797
229.386
207.124
212.914
207.112
201.112
222.855
227.597
220.881
204.094
211.008
206.122
199.004
194.313
207.496
213.027
209.378
184.149
190.339
203.721
205.161
194.377
180.488
179.373
185.756
199.357
200.356
205.188
180.494
200.365
179.406
199.372
194.38
173.876
211.6
210.511
217.542
200.599
186.613
193.22
194.327
188.7
174.448
194.896
188.699
160.103
182.217
167.501
172.135
185.415
192.812
187.602
157.499
179.921
166.281
297.133
244.408
298.308
271.569
289.769
282.162
284.99
270.074
311.496
313.173
299.524
310.604
307.994
296.109
293.078
300.268
289.638
304.809
293.792
308.647
304.48
289.339
301.914
306.855
303.564
286.453
291.721
288.283
282.857
284.717
266.993
269.617
266.058
281.185
278.132
263
294.27
274.3
279.871
295.255
299.659
284.338
278.835
313.968
267.516
353.174
325.197
296.75
317.446
265.647
319.409
272.012
313.104
311.061
304.883
264.913
274.545
286.162
272.258
312.534
314.682
298.621
312.81
299.567
298.968
299.159
356.072
324.2
354.04
340.454
342.509
311.951
313.054
328.327
320.612
330.142
298.995
303.01
304.022
299.786
313.581
312.14
312.703
300.666
300.559
299.13
298.141
319.776
323.858
355.992
339.989
342.603
312.01
308.343
327.601
320.203
330.156
303.18
295.881
298.889
299.99
313.894
308.539
311.588
294.381
297.652
297.061
293.212
296.763
274.244
275.18
272.307
288.521
288.813
271.746
271.778
284.74
284.995
285.439
271.295
284.947
271.279
307.065
309.27
310.721
296.161
289.46
294.379
291.722
285.275
272.371
286.011
271.172
285.024
285.039
270.706
271.316
272.183
286.517
284.623
268.34
283.364
269.849
290.166
294.623
271.677
287.252
266.209
269.715
283.628
284.238
265.974
280.324
269.172
283.54
269.346
281.14
279.581
268.706
283.167
282.484
263.612
267.765
278.423
279.464
264.395
259.539
281.351
261.886
266.394
276.822
274.621
278.749
263.57
259.434
254.926
274.381
259.267
276.779
261.692
256.561
273.393
253.02
258.331
268.027
259.385
265.005
249.935
269.468
248.976
254.405
263.967
254.251
284.713
280.003
265.103
242.261
265.919
258.057
281.913
295.38
284.747
300.09
294.638
289.875
279.169
274.428
269.193
274.833
290.269
279.161
284.739
269.224
263.494
288.578
277.103
283.799
266.276
273.032
268.263
261.446
269.793
254.623
249.999
249.152
264.252
259.484
244.476
272.909
278.648
271.801
262.979
250.297
256.127
257.219
259.94
239.322
244.912
254.276
233.648
248.559
239.334
251.282
243.084
236.377
253.278
231.572
246.476
238.357
235.337
220.3
227.33
226.242
233.128
241.182
248.03
307.151
339.02
363.987
316.419
301.343
336.495
299.022
348.083
363.177
350.016
362.517
359.661
347.642
347.163
343.422
385.08
373.36
362.396
373.194
366.043
385.068
373.221
371.402
366.525
271.437
366.717
432.318
368.23
365.815
320.884
372.52
342.938
364.541
307.155
296.975
302.07
334.652
341.578
338.553
364.772
379.143
411.804
383.482
407.013
378.909
399.02
385.446
369.724
373.768
374.823
351.397
388.184
367.22
388.046
318.397
311.979
360.023
362.631
360.062
332.462
320.332
338.323
374.831
363.793
375.659
366.776
375.217
379.505
346.163
365.408
362.351
370.586
368.48
372.321
368.693
340.594
375.699
366.982
374.205
365.207
374.493
377.909
381.144
371.852
391.457
353.866
368.477
367.448
352.328
431.925
406.896
412.545
400.309
402.89
383.75
379.516
354.178
336.613
329.03
337.695
367.805
354.226
329.131
378.618
380.555
379.422
381.2
382.422
384.586
384.094
377.424
371.176
374.938
375.997
374.026
371.482
378.67
380.078
380.792
375.375
379.147
384.595
382.662
381.86
375.868
368.128
371.107
376.209
374.042
379.344
371.504
344.316
356.094
360.234
359.807
344.363
347.034
348.365
382.683
369.011
388.111
364.533
353.458
352.693
361.957
334.358
324.358
323.224
341.871
324.006
335.447
324.77
237.186
159.777
300.812
111.89
156.823
262.141
260.68
292.38
102.155
138.618
128.916
112.428
142.782
149.354
121.905
240.938
184.595
243.045
177.175
197.061
196.851
247.934
137.072
123.015
147.397
160.983
158.468
184.115
135.624
174.845
190.379
205.02
130.053
161.233
167.531
139.161
200.822
190.63
237.803
204.193
249.446
218.625
243.63
272.243
239.72
241.814
283.86
214.795
212.893
258.792
222.646
238.364
289.66
188.691
208.041
226.181
160.693
292.857
319.435
297.096
223.48
274.397
247.021
258.97
1531.18
184.484
1488.64
149.835
156.365
1277.11
162.494
1221.13
156.086
96.8539
167.671
106.93
158.733
339.354
152.693
314.196
148.231
93.9304
100.835
161.689
98.6311
101.836
163.576
150.728
103.475
105.73
164.738
111.332
105.852
173.158
125.516
133.775
112.466
134.971
116.814
110.432
140.459
104.074
120.596
122.778
137.065
106.28
108.776
137.864
439.503
1512.12
428.174
459.21
1473.28
471.499
1461.62
159.239
190.541
162.137
181.165
210.701
233.276
174.844
425.979
1481.96
431.98
455.49
1421.93
1437.41
463.237
163.108
224.778
207.731
193.349
274.019
263.59
197.409
195.003
128.68
259.471
152.99
120.895
205.94
246.413
191.153
118.728
150.626
256.191
117.186
197.606
243.829
162.225
131.318
202.64
155.399
125.981
161.552
206.726
166.82
125.951
155.257
191.695
126.525
162.971
202.657
499.583
1335.44
1251.35
557.251
1358.99
508.277
550.268
229.726
268.189
274.164
355.841
308.234
211.289
286.111
240.815
297.103
342.295
251.593
318.773
227.686
272.942
503.848
1389.3
566.922
1274.86
516.624
1383.18
554.892
147.942
554.597
443.81
968.956
108.98
322.072
1471.05
1115.93
98.277
159.121
177.717
106.557
178.376
203.806
121.543
1448.81
450.522
477.92
1397.35
483.02
512.201
1360.03
242.975
124.433
204.992
240.818
181.102
292.839
145.101
282.163
171.695
201.187
129.61
217.694
250.513
149.776
1358.31
1413.36
513.201
549.064
1238.43
588.289
1308.28
591.744
1175.27
571.264
1298.06
526.452
553.271
1246.81
336.241
379.088
255.231
298.92
239.94
364.452
183.928
625.713
1045.48
611.368
584.368
1102.78
615.261
1181.62
451.588
467.144
354.261
343.846
315.062
378.884
336.957
268.761
366.667
303.296
338.679
293.418
326.046
292.79
349.995
330.968
386.237
381.044
395.827
361.819
451.063
347.278
346.176
276.952
301.513
310.384
281.896
281.575
319.999
322.146
349.221
358.097
342.343
393
369.005
361.832
394.41
321.934
332.355
303.95
395.087
363.962
349.168
384.464
351.43
312.444
298.687
345.601
377.204
354.303
379.1
336.234
364.449
336.499
359.144
381.238
361.856
390.419
407.857
357.311
356.444
387.941
407.232
416.937
422.61
368.059
411.593
385.373
385.212
409.768
413.107
408.247
432.489
437.031
401.032
393.973
425.348
421.57
421.041
385.928
397.582
384.024
381.136
380.276
401.335
401.165
448.167
466.303
448.001
431.97
444.165
438.966
436.757
399.641
368.778
389.54
399.725
385.097
372.857
409.128
461.468
442.781
446.976
426.195
418.432
417.329
430.888
373.891
356.912
381.338
390.752
348.651
380.702
360.442
456.027
468.9
336.765
365.462
365.918
334.155
386.217
206.204
282.59
322.983
250.211
282.005
325.202
356.872
366.059
220.96
229.665
248.439
245.721
280.788
317.757
282.648
314.435
348.904
342.172
370.018
390.877
375.725
385.683
308.761
322.849
264.088
319.836
283.229
347.425
375.236
348.957
390.54
369.335
397.789
410.858
384.222
427.384
420.134
353.052
315.986
403.217
359.695
386.693
433.859
477.488
427.935
387.678
406.133
480.596
434.211
463.988
414.748
477.874
437.461
450.149
409.805
438.42
460.663
405.252
416.742
386.886
373.986
374.728
407.426
414.225
395.206
360.78
381.961
349.223
382.87
361.922
396.064
656.246
466.493
702.954
450.703
511.333
894.485
499.104
416.177
183.676
956.672
595.688
375.325
350.304
385.997
351.181
376.607
244.111
182.102
294.835
238.992
363.434
237.276
362.286
441.381
324.972
158.907
202.683
220.233
204.006
222.547
279.977
289.096
1278.99
1177.81
630.42
1149.95
624.187
646.949
1051.34
215.664
264.928
240.305
268.105
242.911
288.105
308.732
528.165
468.443
857.205
542.638
585.198
640.062
518.437
392.226
368.999
417.152
398.744
497.903
459.48
391.003
415.563
325.713
438.845
502.706
464.826
413.969
538.896
325.923
506.557
441.797
506.972
471.331
547.493
417.065
343.842