/*--------------------------------*- C++ -*----------------------------------*\
  =========                 |
  \\      /  F ield         | OpenFOAM: The Open Source CFD Toolbox
   \\    /   O peration     | Website:  https://openfoam.org
    \\  /    A nd           | Version:  9
     \\/     M anipulation  |
\*---------------------------------------------------------------------------*/
FoamFile
{
    format      ascii;
    class       volScalarField;
    location    "0.0023";
    object      rho.c4;
}
// * * * * * * * * * * * * * * * * * * * * * * * * * * * * * * * * * * * * * //

dimensions      [1 -3 0 0 0 0 0];

internalField   nonuniform List<scalar> 
19338
(
2.22045e-16
2.22045e-16
2.22045e-16
2.22045e-16
2.22045e-16
2.22045e-16
5.98974e-12
2.22045e-16
2.22045e-16
2.22045e-16
2.22045e-16
2.22045e-16
2.22045e-16
2.22045e-16
2.22045e-16
2.22045e-16
2.22045e-16
2.22045e-16
2.22045e-16
2.22045e-16
2.22045e-16
2.22045e-16
2.22045e-16
2.22045e-16
2.22045e-16
2.22045e-16
2.22045e-16
2.22045e-16
2.22045e-16
2.22045e-16
2.22045e-16
2.22045e-16
2.22045e-16
2.22045e-16
2.22045e-16
3.81355e-12
2.22045e-16
2.22045e-16
2.22045e-16
3.58599e-07
55.1221
3.55324e-07
1.56634e-12
2.22045e-16
2.22045e-16
14.4378
33.6135
4.68613e-05
1.55754e-14
2.22045e-16
4.62629e-08
35.4762
16.0655
6.14921
4.02689e-12
5.92833
39.875
10.5019
4.34897
2.22045e-16
1.85689e-08
72.5393
66.4028
15.6794
2.22045e-16
2.22045e-16
2.22045e-16
2.22045e-16
2.22045e-16
2.22045e-16
2.22045e-16
2.22045e-16
2.22045e-16
2.22045e-16
2.22045e-16
2.22045e-16
2.22045e-16
2.22045e-16
2.22045e-16
2.22045e-16
2.22045e-16
2.22045e-16
2.22045e-16
2.22045e-16
2.22045e-16
2.22045e-16
2.22045e-16
2.22045e-16
2.22045e-16
2.22045e-16
2.22045e-16
2.22045e-16
2.22045e-16
1.33337e-15
2.22045e-16
2.22045e-16
2.22045e-16
2.22045e-16
2.22045e-16
2.22045e-16
2.22045e-16
2.22045e-16
5.79456e-14
1.83447e-09
2.22045e-16
2.22045e-16
2.22045e-16
2.22045e-16
2.22045e-16
2.22045e-16
2.22045e-16
4.08521e-12
5.35582e-10
5.19005
2.22045e-16
2.22045e-16
2.22045e-16
2.22045e-16
2.22045e-16
2.22045e-16
1.24034e-12
1.54631e-10
0.00223968
57.9571
2.22045e-16
2.22045e-16
2.22045e-16
2.22045e-16
2.22045e-16
4.24875e-15
2.29149e-10
0.00254025
9.67367
9.62801
2.22045e-16
2.22045e-16
2.22045e-16
2.22045e-16
2.22045e-16
0.00036434
74.0004
11.4363
4.89857
2.22045e-16
2.22045e-16
2.22045e-16
2.22045e-16
2.22045e-16
2.22045e-16
2.22045e-16
2.22045e-16
2.22045e-16
2.22045e-16
2.22045e-16
2.22045e-16
2.22045e-16
2.22045e-16
2.22045e-16
2.22045e-16
2.22045e-16
2.22045e-16
2.22045e-16
2.22045e-16
2.22045e-16
2.22045e-16
2.22045e-16
2.22045e-16
2.22045e-16
2.22045e-16
2.22045e-16
2.22045e-16
2.22045e-16
2.22045e-16
2.22045e-16
2.22045e-16
2.22045e-16
2.22045e-16
2.22045e-16
2.22045e-16
2.22045e-16
2.22045e-16
2.22045e-16
1.66134e-11
2.22045e-16
2.22045e-16
2.22045e-16
2.22045e-16
2.22045e-16
2.22045e-16
2.22045e-16
1.38322e-15
4.55439e-12
0.178668
2.22045e-16
2.22045e-16
2.22045e-16
2.22045e-16
2.22045e-16
2.22045e-16
2.22045e-16
2.30587e-11
0.000957972
77.2071
2.22045e-16
2.22045e-16
2.22045e-16
2.22045e-16
2.22045e-16
2.22045e-16
3.52728e-11
0.000172522
15.0047
11.7026
2.22045e-16
2.22045e-16
2.22045e-16
2.22045e-16
2.22045e-16
2.30321e-09
84.3622
19.5821
8.8657
4.46078
2.22045e-16
2.22045e-16
2.22045e-16
2.22045e-16
2.22045e-16
2.22045e-16
2.22045e-16
2.22045e-16
2.22045e-16
2.22045e-16
2.22045e-16
2.22045e-16
2.22045e-16
2.22045e-16
2.22045e-16
2.22045e-16
2.22045e-16
2.22045e-16
2.22045e-16
2.22045e-16
2.22045e-16
2.22045e-16
2.22045e-16
2.22045e-16
2.22045e-16
2.22045e-16
2.22045e-16
2.22045e-16
2.22045e-16
2.22045e-16
2.22045e-16
2.22045e-16
2.22045e-16
2.22045e-16
2.22045e-16
2.22045e-16
2.22045e-16
2.22045e-16
2.22045e-16
2.22045e-16
2.22045e-16
2.22045e-16
2.22045e-16
2.22045e-16
2.22045e-16
2.22045e-16
2.22045e-16
2.22045e-16
8.41227e-14
8.77254e-08
2.22045e-16
2.22045e-16
2.22045e-16
2.22045e-16
2.22045e-16
2.22045e-16
2.22045e-16
3.41773e-14
6.08734e-12
261.981
2.22045e-16
2.22045e-16
2.22045e-16
2.22045e-16
2.22045e-16
2.22045e-16
7.72312e-15
1.07105e-11
0.000301192
132.123
2.22045e-16
2.22045e-16
2.22045e-16
2.22045e-16
2.22045e-16
2.22045e-16
1.43528e-11
1.26171e-05
148.812
36.283
2.22045e-16
2.22045e-16
2.22045e-16
2.22045e-16
2.22045e-16
2.22045e-16
2.22045e-16
2.22045e-16
2.22045e-16
2.22045e-16
2.22045e-16
2.22045e-16
2.22045e-16
2.22045e-16
2.22045e-16
2.22045e-16
2.22045e-16
2.22045e-16
2.22045e-16
2.22045e-16
2.22045e-16
2.22045e-16
2.22045e-16
2.22045e-16
2.22045e-16
2.22045e-16
2.22045e-16
2.22045e-16
2.22045e-16
2.22045e-16
2.22045e-16
2.22045e-16
2.22045e-16
2.22045e-16
2.22045e-16
2.22045e-16
2.22045e-16
2.22045e-16
2.22045e-16
2.22045e-16
2.22045e-16
2.22045e-16
2.22045e-16
2.22045e-16
2.22045e-16
2.22045e-16
2.22045e-16
2.22045e-16
2.22045e-16
5.37613e-15
2.22045e-16
2.22045e-16
2.22045e-16
2.22045e-16
2.22045e-16
2.22045e-16
2.22045e-16
2.22045e-16
1.25554e-13
5.90902e-08
2.22045e-16
2.22045e-16
2.22045e-16
2.22045e-16
2.22045e-16
2.22045e-16
2.22045e-16
1.2614e-14
3.99316e-11
189.839
2.22045e-16
2.22045e-16
2.22045e-16
2.22045e-16
2.22045e-16
2.22045e-16
2.22045e-16
2.21043e-12
80.9862
96.8703
2.22045e-16
2.22045e-16
2.22045e-16
2.22045e-16
2.22045e-16
2.22045e-16
2.22045e-16
2.22045e-16
2.22045e-16
2.22045e-16
2.22045e-16
2.22045e-16
2.22045e-16
2.22045e-16
2.22045e-16
2.22045e-16
2.22045e-16
2.22045e-16
2.22045e-16
2.22045e-16
2.22045e-16
2.22045e-16
2.22045e-16
2.22045e-16
2.22045e-16
2.22045e-16
2.22045e-16
2.22045e-16
2.22045e-16
2.22045e-16
2.22045e-16
2.22045e-16
2.22045e-16
2.22045e-16
2.22045e-16
2.22045e-16
2.22045e-16
2.22045e-16
2.22045e-16
2.22045e-16
2.22045e-16
2.22045e-16
2.22045e-16
2.22045e-16
2.22045e-16
2.22045e-16
2.22045e-16
2.22045e-16
2.22045e-16
2.22045e-16
2.22045e-16
2.22045e-16
2.22045e-16
2.22045e-16
2.22045e-16
2.22045e-16
2.22045e-16
2.22045e-16
2.22045e-16
2.59303e-15
2.22045e-16
2.22045e-16
2.22045e-16
2.22045e-16
2.22045e-16
2.22045e-16
2.22045e-16
2.22045e-16
2.37068e-14
1.53061e-08
2.22045e-16
2.22045e-16
2.22045e-16
2.22045e-16
2.22045e-16
2.22045e-16
2.22045e-16
9.01941e-16
0.417668
140.493
2.22045e-16
2.22045e-16
2.22045e-16
2.22045e-16
2.22045e-16
2.22045e-16
2.22045e-16
2.22045e-16
2.22045e-16
2.22045e-16
2.22045e-16
2.22045e-16
2.22045e-16
2.22045e-16
2.22045e-16
2.22045e-16
2.22045e-16
2.22045e-16
2.22045e-16
2.22045e-16
2.22045e-16
2.22045e-16
2.22045e-16
2.22045e-16
2.22045e-16
2.22045e-16
2.22045e-16
2.22045e-16
2.22045e-16
2.22045e-16
2.22045e-16
2.22045e-16
2.22045e-16
2.22045e-16
2.22045e-16
2.22045e-16
2.22045e-16
2.22045e-16
2.22045e-16
2.22045e-16
2.22045e-16
2.22045e-16
2.22045e-16
2.22045e-16
2.22045e-16
2.22045e-16
2.22045e-16
2.22045e-16
2.22045e-16
2.22045e-16
2.22045e-16
2.22045e-16
2.22045e-16
2.22045e-16
2.22045e-16
2.22045e-16
2.22045e-16
2.22045e-16
2.22045e-16
2.22045e-16
2.22045e-16
2.22045e-16
2.22045e-16
2.22045e-16
2.22045e-16
2.22045e-16
2.22045e-16
2.22045e-16
2.22045e-16
2.14734e-14
2.22045e-16
2.22045e-16
2.22045e-16
2.22045e-16
2.22045e-16
2.22045e-16
2.22045e-16
2.22045e-16
2.21722e-15
0.924384
2.22045e-16
2.22045e-16
2.22045e-16
2.22045e-16
2.22045e-16
2.22045e-16
2.22045e-16
2.22045e-16
2.22045e-16
2.22045e-16
2.22045e-16
2.22045e-16
2.22045e-16
2.22045e-16
2.22045e-16
2.22045e-16
2.22045e-16
2.22045e-16
2.22045e-16
2.22045e-16
2.22045e-16
2.22045e-16
2.22045e-16
2.22045e-16
2.22045e-16
2.22045e-16
2.22045e-16
2.22045e-16
2.22045e-16
2.22045e-16
2.22045e-16
2.22045e-16
2.22045e-16
2.22045e-16
2.22045e-16
2.22045e-16
2.22045e-16
2.22045e-16
2.22045e-16
2.22045e-16
2.22045e-16
2.22045e-16
2.22045e-16
2.22045e-16
2.22045e-16
2.22045e-16
2.22045e-16
2.22045e-16
2.22045e-16
2.22045e-16
2.22045e-16
2.22045e-16
2.22045e-16
2.22045e-16
2.22045e-16
2.22045e-16
2.22045e-16
2.22045e-16
2.22045e-16
2.22045e-16
2.22045e-16
2.22045e-16
2.22045e-16
2.22045e-16
2.22045e-16
2.22045e-16
2.22045e-16
2.22045e-16
2.22045e-16
2.22045e-16
2.22045e-16
2.22045e-16
2.22045e-16
2.22045e-16
2.22045e-16
2.22045e-16
2.22045e-16
2.22045e-16
2.22045e-16
1.31858e-15
2.22045e-16
2.22045e-16
2.22045e-16
2.22045e-16
2.22045e-16
2.22045e-16
2.22045e-16
2.22045e-16
2.22045e-16
2.22045e-16
2.22045e-16
2.22045e-16
2.22045e-16
2.22045e-16
2.22045e-16
2.22045e-16
2.22045e-16
2.22045e-16
2.22045e-16
2.22045e-16
2.22045e-16
2.22045e-16
2.22045e-16
2.22045e-16
2.22045e-16
2.22045e-16
2.22045e-16
2.22045e-16
2.22045e-16
2.22045e-16
2.22045e-16
2.22045e-16
2.22045e-16
2.22045e-16
2.22045e-16
2.22045e-16
2.22045e-16
2.22045e-16
2.22045e-16
2.22045e-16
2.22045e-16
2.22045e-16
2.22045e-16
2.22045e-16
2.22045e-16
2.22045e-16
2.22045e-16
2.22045e-16
2.22045e-16
2.22045e-16
2.22045e-16
2.22045e-16
2.22045e-16
2.22045e-16
2.22045e-16
2.22045e-16
2.22045e-16
2.22045e-16
2.22045e-16
2.22045e-16
2.22045e-16
2.22045e-16
2.22045e-16
2.22045e-16
2.22045e-16
2.22045e-16
2.22045e-16
2.22045e-16
2.22045e-16
2.22045e-16
2.22045e-16
2.22045e-16
2.22045e-16
2.22045e-16
2.22045e-16
2.22045e-16
2.22045e-16
2.22045e-16
2.22045e-16
2.22045e-16
2.22045e-16
2.22045e-16
2.22045e-16
2.22045e-16
2.22045e-16
2.22045e-16
2.22045e-16
2.22045e-16
2.22045e-16
2.22045e-16
2.22045e-16
2.22045e-16
2.22045e-16
2.22045e-16
2.22045e-16
2.22045e-16
2.22045e-16
2.22045e-16
2.22045e-16
2.22045e-16
2.22045e-16
2.22045e-16
2.22045e-16
2.22045e-16
2.22045e-16
2.22045e-16
2.22045e-16
2.22045e-16
2.22045e-16
2.22045e-16
2.22045e-16
2.22045e-16
2.22045e-16
2.22045e-16
2.22045e-16
2.22045e-16
2.22045e-16
2.22045e-16
2.22045e-16
2.22045e-16
2.22045e-16
2.22045e-16
2.22045e-16
2.22045e-16
2.22045e-16
2.22045e-16
2.22045e-16
2.22045e-16
2.22045e-16
2.22045e-16
2.22045e-16
2.22045e-16
2.22045e-16
2.22045e-16
2.22045e-16
2.22045e-16
2.22045e-16
2.22045e-16
2.22045e-16
2.22045e-16
2.22045e-16
2.22045e-16
2.22045e-16
2.22045e-16
2.22045e-16
2.22045e-16
2.22045e-16
2.22045e-16
2.22045e-16
2.22045e-16
2.22045e-16
2.22045e-16
2.22045e-16
2.22045e-16
2.22045e-16
2.22045e-16
2.22045e-16
2.22045e-16
2.22045e-16
2.22045e-16
2.22045e-16
2.22045e-16
2.22045e-16
2.22045e-16
2.22045e-16
2.22045e-16
2.22045e-16
2.22045e-16
2.22045e-16
2.22045e-16
2.22045e-16
2.22045e-16
2.22045e-16
2.22045e-16
2.22045e-16
2.22045e-16
2.22045e-16
2.22045e-16
2.22045e-16
2.22045e-16
2.22045e-16
2.22045e-16
2.22045e-16
2.22045e-16
2.22045e-16
2.22045e-16
2.22045e-16
2.22045e-16
2.22045e-16
2.22045e-16
2.22045e-16
2.22045e-16
2.22045e-16
2.22045e-16
2.22045e-16
2.22045e-16
2.22045e-16
2.22045e-16
2.22045e-16
2.22045e-16
2.22045e-16
2.22045e-16
2.22045e-16
2.22045e-16
2.22045e-16
2.22045e-16
2.22045e-16
2.22045e-16
2.22045e-16
2.22045e-16
2.22045e-16
2.22045e-16
2.22045e-16
2.22045e-16
2.22045e-16
2.22045e-16
2.22045e-16
2.22045e-16
2.22045e-16
2.22045e-16
2.22045e-16
2.22045e-16
2.22045e-16
2.22045e-16
2.22045e-16
2.22045e-16
2.22045e-16
2.22045e-16
2.22045e-16
2.22045e-16
2.22045e-16
2.22045e-16
2.22045e-16
2.22045e-16
2.22045e-16
2.22045e-16
2.22045e-16
2.22045e-16
2.22045e-16
2.22045e-16
9.36382e-16
2.22045e-16
2.22045e-16
2.22045e-16
2.22045e-16
3.28126e-13
1.52176e-07
41.4121
43.2801
2.22045e-16
2.22045e-16
2.22045e-16
2.22045e-16
6.38645e-10
0.285511
60.6199
8.81408
4.29735
2.22045e-16
2.22045e-16
2.22045e-16
1.14219e-14
1.45587e-08
0.0037686
53.0096
3.39547
2.22045e-16
2.22045e-16
2.22045e-16
6.32874e-12
1.61503e-06
29.4499
25.7
3.0873
2.22045e-16
2.22045e-16
2.22045e-16
3.09059e-09
25.1796
22.3663
4.02337
2.22045e-16
2.22045e-16
2.22045e-16
2.22045e-16
2.22045e-16
2.22045e-16
1.26231e-14
0.000208351
78.9432
14.169
6.23516
2.22045e-16
2.22045e-16
2.22045e-16
2.22045e-16
5.17241e-10
0.000510046
62.6548
4.89037
2.22045e-16
2.22045e-16
2.22045e-16
2.04864e-14
2.16143e-08
0.0867499
43.4828
4.46592
2.22045e-16
2.22045e-16
2.22045e-16
3.10127e-12
0.000570435
63.0462
16.5741
5.00316
2.22045e-16
2.22045e-16
2.22045e-16
2.22045e-16
2.22045e-16
2.22045e-16
2.22045e-16
7.64346e-12
5.38397e-10
200.31
247.098
2.22045e-16
2.22045e-16
2.22045e-16
2.22045e-16
3.07528e-16
1.41374e-10
0.0234827
84.6576
2.22045e-16
2.22045e-16
2.22045e-16
2.22045e-16
7.45758e-11
3.33904e-07
95.9442
12.558
2.22045e-16
2.22045e-16
2.22045e-16
3.64897e-16
1.42594e-09
0.0293393
64.8271
8.44347
2.22045e-16
2.22045e-16
2.22045e-16
2.22045e-16
2.22045e-16
2.22045e-16
2.22045e-16
2.22045e-16
2.1975e-12
196.443
150.783
2.22045e-16
2.22045e-16
2.22045e-16
2.22045e-16
2.22045e-16
2.58914e-14
4.49563e-09
111.554
41.1328
2.22045e-16
2.22045e-16
2.22045e-16
2.22045e-16
1.27284e-15
4.95957e-09
0.000550129
55.5873
2.22045e-16
2.22045e-16
2.22045e-16
2.22045e-16
4.91489e-15
2.52033e-06
56.0767
13.155
2.22045e-16
2.22045e-16
2.22045e-16
2.22045e-16
2.22045e-16
2.22045e-16
2.22045e-16
2.22045e-16
2.22045e-16
2.22642e-10
43.4253
2.22045e-16
2.22045e-16
2.22045e-16
2.22045e-16
2.22045e-16
2.22045e-16
3.80215e-11
0.000369868
82.3025
2.22045e-16
2.22045e-16
2.22045e-16
2.22045e-16
2.22045e-16
1.60716e-14
1.30868e-08
0.00494333
2.22045e-16
2.22045e-16
2.22045e-16
2.22045e-16
2.22045e-16
6.62253e-13
8.26096e-07
54.5749
2.22045e-16
2.22045e-16
2.22045e-16
2.22045e-16
2.22045e-16
3.10572e-12
0.134135
56.7842
2.22045e-16
2.22045e-16
2.22045e-16
2.22045e-16
2.22045e-16
2.22045e-16
2.22045e-16
2.27344e-16
6.80446e-09
67.9629
2.22045e-16
2.22045e-16
2.22045e-16
2.22045e-16
2.22045e-16
2.22045e-16
2.22045e-16
3.29663e-10
0.710011
86.2554
2.22045e-16
2.22045e-16
2.22045e-16
2.22045e-16
2.22045e-16
2.22045e-16
3.57189e-14
8.1935e-09
2.22045e-16
2.22045e-16
2.22045e-16
2.22045e-16
2.22045e-16
2.22045e-16
1.01976e-11
2.61841e-05
2.22045e-16
2.22045e-16
2.22045e-16
2.22045e-16
2.22045e-16
2.22045e-16
3.36948e-11
15.4652
2.22045e-16
2.22045e-16
2.22045e-16
2.22045e-16
2.22045e-16
2.22045e-16
2.22045e-16
2.22045e-16
2.22045e-16
7.95077e-06
2.22045e-16
2.22045e-16
2.22045e-16
2.22045e-16
2.22045e-16
2.22045e-16
2.22045e-16
2.22045e-16
2.13434e-10
0.0151975
2.22045e-16
2.22045e-16
2.22045e-16
2.22045e-16
2.22045e-16
2.22045e-16
2.22045e-16
3.00645e-14
2.22045e-16
2.22045e-16
2.22045e-16
2.22045e-16
2.22045e-16
2.22045e-16
2.22045e-16
6.51382e-11
2.22045e-16
2.22045e-16
2.22045e-16
2.22045e-16
2.22045e-16
2.22045e-16
2.22045e-16
1.32649e-10
2.22045e-16
2.22045e-16
2.22045e-16
2.22045e-16
2.22045e-16
2.22045e-16
2.22045e-16
2.22045e-16
2.22045e-16
2.22045e-16
2.22045e-16
2.22045e-16
2.22045e-16
2.22045e-16
2.22045e-16
2.22045e-16
2.22045e-16
2.22045e-16
2.22045e-16
6.02739e-12
2.22045e-16
2.22045e-16
2.22045e-16
2.22045e-16
2.22045e-16
2.22045e-16
2.22045e-16
2.22045e-16
2.22045e-16
2.22045e-16
2.22045e-16
2.22045e-16
2.22045e-16
2.22045e-16
2.22045e-16
2.22045e-16
2.22045e-16
2.22045e-16
2.22045e-16
2.22045e-16
2.22045e-16
2.22045e-16
2.22045e-16
2.22045e-16
2.22045e-16
2.22045e-16
2.22045e-16
2.22045e-16
2.22045e-16
2.22045e-16
2.22045e-16
2.22045e-16
2.22045e-16
2.22045e-16
2.22045e-16
2.22045e-16
2.22045e-16
2.22045e-16
2.22045e-16
2.22045e-16
2.22045e-16
2.22045e-16
2.22045e-16
2.22045e-16
2.22045e-16
2.22045e-16
2.22045e-16
2.22045e-16
2.22045e-16
2.22045e-16
2.22045e-16
2.22045e-16
2.22045e-16
2.22045e-16
2.22045e-16
2.22045e-16
2.22045e-16
2.22045e-16
2.22045e-16
2.22045e-16
2.22045e-16
2.22045e-16
2.22045e-16
2.22045e-16
2.22045e-16
2.22045e-16
2.22045e-16
2.22045e-16
2.22045e-16
2.22045e-16
2.22045e-16
2.22045e-16
2.22045e-16
2.22045e-16
2.22045e-16
2.22045e-16
2.22045e-16
2.22045e-16
2.22045e-16
2.22045e-16
2.22045e-16
2.22045e-16
2.22045e-16
2.22045e-16
2.22045e-16
2.22045e-16
2.22045e-16
2.22045e-16
2.22045e-16
2.22045e-16
2.22045e-16
2.22045e-16
2.22045e-16
2.22045e-16
2.22045e-16
2.22045e-16
2.22045e-16
2.22045e-16
2.22045e-16
2.22045e-16
2.22045e-16
2.22045e-16
2.22045e-16
2.22045e-16
2.22045e-16
2.22045e-16
2.22045e-16
2.22045e-16
2.22045e-16
2.22045e-16
2.22045e-16
2.22045e-16
20.262
8.00391
88.4955
56.3856
20.8452
87.4726
33.6852
61.3045
19.0833
54.5364
14.0897
3.93841e-09
78.6982
2.04364e-05
54.5174
7.50895
53.0255
9.76309e-15
8.27164e-08
2.08475e-12
4.02643e-05
8.44984e-12
0.00162383
2.22045e-16
2.89002e-15
2.22045e-16
1.27546e-14
2.22045e-16
5.60302e-14
2.22045e-16
2.22045e-16
2.22045e-16
2.22045e-16
2.22045e-16
2.22045e-16
5.98575
3.77165
2.40325
2.98058
4.85171
3.73371
5.89661
4.42366
3.91147
14.3664
8.07619
7.8971
3.34889
24.1875
5.88985
3.37022
32.9844
10.4033
24.6382
5.9437
3.94201
7.39573
7.32002
3.3601
4.72637
4.74804
10.7569
4.35362
3.38442
5.2413
6.99462
8.44704
4.56269
2.94007
5.52138
3.78487
10.9437
4.39635
3.53664
3.94901
4.82178
4.88489
13.4696
4.12798
9.36044
4.6903
5.46162
12.424
5.66691
6.76096
8.13551
70.1102
31.6518
39.9396
16.5024
4.4798
11.1982
4.26628
9.83202
5.29673
7.23366
5.23788
25.6754
15.3088
8.30309
9.20369
5.48709
6.17751
14.4885
9.34232
25.273
2.45988
2.5933
2.65342
2.80882
2.86492
3.07379
3.0142
5.50638
7.93971
29.1012
5.52462
7.81116
48.7722
16.9898
10.2398
14.6865
33.8355
6.55285
4.56946
13.4482
10.0947
5.61278
7.98612
49.5019
17.3542
13.3556
22.3937
63.4535
3.02982
3.34375
3.43469
3.43
3.51707
3.95745
3.86739
7.89496
3.64292
3.89902
3.89869
12.7046
9.2009
3.64603
2.64052
3.20415
2.84194
3.37931
3.03584
3.25543
3.62677
3.4078
4.20105
3.36477
3.85998
4.1424
4.85257
4.92412
3.34786
3.83768
3.83855
4.12155
4.11995
4.82266
4.82092
2.82515
3.36623
2.82671
3.25621
3.25347
3.92877
3.93557
2.85023
3.36419
2.83151
3.27606
3.25781
3.93193
3.95201
3.15526
2.82094
2.88501
3.32492
3.55361
3.62397
3.26081
12.9294
9.34529
3.68485
11.9557
4.1177
16.613
4.40592
3.44509
3.85384
3.92718
4.14653
4.24083
4.84569
4.9556
3.28856
4.20485
3.69422
4.26669
3.76795
4.21703
4.74568
2.96946
3.43503
2.89144
3.31738
3.39563
4.00234
4.10373
8.12818
5.70799
6.03148
19.6076
6.53208
26.4154
7.0133
4.94728
6.28669
5.6999
4.95643
6.29211
5.49176
6.94732
12.8989
16.6147
8.5329
8.45422
72.1565
17.8961
31.9587
3.35992
3.46658
3.08106
3.51989
4.27885
3.83549
3.92416
3.61666
4.47604
4.11104
4.9086
4.46708
5.23523
5.8005
3.70482
3.09509
3.27405
3.70957
3.52313
4.27311
4.52445
6.08179
8.40333
10.3353
21.7151
7.86505
29.5094
8.4302
4.39311
3.79065
3.8831
4.46471
4.97297
5.07572
4.36943
11.0833
36.1522
49.2438
12.1922
5.3298
16.5347
5.74785
3.46787
3.75332
3.83185
3.90391
3.98181
4.41575
4.32941
6.16807
13.9066
4.42012
34.152
7.89248
19.3475
4.74847
3.23622
3.79661
3.2934
3.52981
4.02099
4.08991
3.46713
3.95573
4.6576
4.04361
4.55238
5.18487
5.28942
4.45748
3.5044
3.78037
4.64446
3.95664
4.26188
4.86046
5.27454
28.657
57.8406
37.2449
43.1382
16.6449
53.8009
60.0883
60.192
8.3269
36.3757
57.7843
37.5419
12.5908
34.7992
14.2682
53.4135
29.7723
48.6914
36.7418
58.5861
56.437
28.0379
58.6036
36.2783
13.9418
27.8546
35.8993
57.7065
5.76324
5.04603
5.09865
6.36167
6.41103
5.65104
7.10868
4.22619
4.82315
4.08974
6.11639
4.93091
5.07418
6.32956
41.0514
20.8223
21.4649
47.2878
26.1422
118.933
74.3445
18.2988
78.6611
38.4147
86.4964
39.1029
104.402
86.6251
58.0571
47.3368
38.0768
12.9127
17.5956
47.7138
35.67
4.66771
5.9108
4.60656
6.14934
8.80846
6.24092
8.68291
3.83913
3.9909
3.46819
3.72036
4.78998
4.30491
4.12774
5.8833
4.58186
4.58188
6.11336
8.66193
6.11666
8.64063
4.00438
4.75
4.01785
4.84218
6.02436
4.85434
6.00164
4.02784
4.72593
4.00641
4.84459
6.02864
6.00242
4.86691
4.66925
4.68108
4.1473
4.74035
6.01212
5.37471
5.31425
4.93521
4.8258
4.29954
4.8285
6.25751
5.59567
5.40682
3.68434
4.5485
4.06474
4.70449
4.21362
4.67218
5.22252
5.29386
5.10152
5.66391
6.08012
6.86453
6.80685
8.45906
5.21798
25.7741
15.3619
16.2738
5.19683
62.6092
17.6113
3.74703
4.3409
3.74189
4.59067
5.44976
4.59843
5.44047
4.09953
5.56065
5.07506
5.05808
4.62617
5.76436
6.34032
5.39118
62.2873
17.9373
23.0683
6.01075
65.8599
20.7624
3.82186
4.10382
4.3863
4.93703
4.18102
4.46211
3.75248
4.60432
6.12661
4.70315
8.80342
6.17499
6.3754
9.19973
3.76016
4.3391
3.74355
4.592
5.45412
5.43847
4.61034
3.80146
4.48456
3.88147
5.50625
4.65978
4.76266
5.62317
20.3418
36.3108
17.6873
57.8384
33.7588
45.1573
274.207
40.8764
13.2504
38.801
12.9495
52.0813
38.9846
42.309
5.49366
7.94132
5.40962
6.74263
10.8708
6.85482
10.6922
7.89002
5.37941
5.37729
6.6971
10.6115
10.6149
6.69916
5.86034
5.33588
4.46414
5.32586
7.3483
5.70706
6.72567
4.17666
4.78578
4.26305
4.95157
5.52243
5.62752
4.85597
7.50037
11.2214
9.96251
11.2391
8.30687
9.20818
12.6494
39.4435
16.4932
7.95214
36.3319
11.2954
150.71
36.1288
12.9311
16.939
48.1582
40.8142
11.4094
153.133
37.1649
51.645
45.0547
17.5553
39.1519
41.2927
59.0923
33.4427
5.42257
8.33098
5.5777
10.7635
6.77116
7.01094
11.2436
4.03183
4.92409
5.22188
5.26539
4.41449
4.70524
4.4848
4.63939
4.21908
4.01547
4.94047
6.18826
5.21525
5.83787
6.94358
7.72743
6.12465
6.91397
6.12176
7.72364
8.71083
5.5106
7.78677
6.96475
6.96861
6.13979
7.74376
8.77769
5.59846
4.91831
4.81699
5.56731
5.67623
6.67452
6.55388
5.00034
5.64552
5.75613
5.72665
5.83901
6.81521
6.69179
5.58846
7.85294
7.04204
7.13799
6.31425
7.9454
8.99195
101.397
35.9975
62.6911
33.8997
22.3987
88.7383
46.7425
6.5583
5.45582
4.95397
6.84466
11.5667
7.75399
10.0357
5.17182
5.83407
7.12223
5.97097
5.94823
6.08632
5.06805
6.46735
9.76846
7.55389
11.5341
8.71118
11.0599
15.0666
6.59035
7.5093
5.86808
8.21256
6.22013
6.8524
9.30769
3.70488
3.63798
3.69882
4.5047
4.43701
4.42113
4.52184
3.70671
3.63506
3.69552
4.49568
4.42348
4.50742
4.41227
14.7035
32.3925
7.25409
56.2127
20.3956
40.5895
9.47512
65.6377
55.7652
131.491
22.5746
9.84146
95.3019
22.2232
6.11496
5.39072
5.57615
6.76398
6.21046
7.03012
7.88503
10.1918
26.7324
6.59267
81.3147
42.5661
69.0328
23.8873
29.9236
80.6015
58.9047
2.20537
80.3715
48.3634
63.2531
9.0514
6.68459
5.94988
7.55981
14.2367
12.2914
8.61174
4.54014
5.56465
4.62573
5.18463
6.30372
6.43289
5.09043
5.05221
5.06639
4.51738
5.23806
6.68861
5.95264
5.86564
4.49949
5.71633
4.85937
6.70824
5.59786
6.09131
7.43573
5.54536
6.50824
6.44651
7.49519
7.45126
9.56687
9.66101
5.50191
6.45851
6.43499
7.47986
7.44772
9.55433
9.60673
5.73394
8.25455
7.20336
7.44105
6.41808
8.07262
9.42783
7.53889
11.4306
8.38181
11.5701
8.44458
9.42163
13.1267
3.74563
3.76607
3.8272
4.47487
4.5599
4.68472
4.5966
5.21258
5.83518
6.7369
6.69862
5.99786
7.03698
7.85399
346.916
309.806
301.959
130.382
295.608
213.582
254.41
41.3201
87.9486
151.35
66.9758
208.873
43.4278
93.4669
236.365
1.7301e-15
0.000348766
1.95415e-06
2.22045e-16
2.6145e-08
3.24433e-08
0.00841189
3.11734e-09
4.09459e-09
0.00208172
4.04539e-11
4.12723e-11
3.75193e-05
4.7624e-12
0.0239384
9.38894e-09
6.33612e-07
0.00048931
4.65529e-05
2.00759e-08
9.93952e-11
4.62602e-14
2.22045e-16
2.22045e-16
2.22045e-16
1.02355e-15
1.87895e-13
2.22045e-16
2.22045e-16
2.22045e-16
2.22045e-16
2.22045e-16
2.22045e-16
2.22045e-16
2.22045e-16
2.22045e-16
2.22045e-16
2.22045e-16
2.22045e-16
0.13845
53.6973
0.0561222
290.344
343.774
298.477
11.1241
251.993
188.019
254.013
213.308
4.33422e-13
0.000346412
1.23649e-07
2.24195
2.09624e-09
1.07029e-08
0.00197378
1.41863
7.22208
342.76
7.35971e-13
2.12431e-06
3.10868e-16
2.22045e-16
91.5881
0.0489039
1.00262e-08
9.54886e-06
0.000814837
0.285581
0.000108664
6.63544
2.77478
145.234
0.00260798
3.05449e-09
2.36808e-08
1.73657e-14
1.84164e-12
2.39931e-06
2.22045e-16
2.38174e-11
2.22045e-16
9.56611e-10
6.78256e-15
1.4642e-08
2.66635e-11
7.20872e-15
0.00077022
2.22045e-16
3.41577e-15
6.51881e-09
2.22045e-16
2.81216e-08
7.91783e-15
1.15776e-15
1.95974e-08
2.22045e-16
4.44403e-08
8.29205
0.003081
0.00484653
2.78247e-08
5.94505e-15
2.22045e-16
2.22045e-16
2.22045e-16
2.22045e-16
2.22045e-16
2.22045e-16
2.22045e-16
1.25829e-08
2.22045e-16
2.22045e-16
2.22045e-16
1.90566
1.04163e-10
2.22045e-16
2.22045e-16
2.22045e-16
2.22045e-16
2.22045e-16
165.631
11.3035
8.20828e-06
79.5149
3.02788e-08
0.0009442
2.22045e-16
2.22045e-16
2.22045e-16
2.22045e-16
2.22045e-16
2.22045e-16
2.22045e-16
2.22045e-16
2.22045e-16
2.22045e-16
1.79567e-14
2.22045e-16
2.22045e-16
2.22045e-16
2.22045e-16
2.22045e-16
2.22045e-16
2.22045e-16
2.22045e-16
3.85305e-14
4.60081e-14
2.22045e-16
2.22045e-16
2.22045e-16
2.22045e-16
2.22045e-16
2.22045e-16
2.22045e-16
2.22045e-16
2.22045e-16
2.22045e-16
2.22045e-16
2.22045e-16
2.22045e-16
2.22045e-16
2.22045e-16
2.22045e-16
2.22045e-16
2.22045e-16
2.22045e-16
2.22045e-16
2.22045e-16
2.22045e-16
2.22045e-16
2.22045e-16
2.22045e-16
2.22045e-16
2.22045e-16
2.22045e-16
2.22045e-16
2.22045e-16
2.22045e-16
2.22045e-16
2.22045e-16
2.22045e-16
2.22045e-16
2.22045e-16
2.22045e-16
2.22045e-16
2.22045e-16
2.22045e-16
2.22045e-16
2.22045e-16
2.22045e-16
2.22045e-16
2.22045e-16
2.22045e-16
2.22045e-16
2.22045e-16
2.22045e-16
2.22045e-16
2.22045e-16
2.22045e-16
2.22045e-16
2.22045e-16
2.22045e-16
2.22045e-16
2.22045e-16
2.22045e-16
2.22045e-16
2.22045e-16
2.22045e-16
2.22045e-16
2.22045e-16
2.22045e-16
2.22045e-16
2.22045e-16
2.22045e-16
2.22045e-16
2.22045e-16
2.22045e-16
2.22045e-16
2.22045e-16
2.22045e-16
2.22045e-16
2.22045e-16
2.22045e-16
2.22045e-16
2.22045e-16
2.22045e-16
2.22045e-16
2.22045e-16
2.22045e-16
2.22045e-16
2.22045e-16
2.22045e-16
2.22045e-16
2.22045e-16
2.22045e-16
2.22045e-16
2.22045e-16
2.22045e-16
2.22045e-16
2.22045e-16
2.22045e-16
2.22045e-16
2.22045e-16
2.22045e-16
2.22045e-16
2.22045e-16
2.22045e-16
2.22045e-16
2.22045e-16
2.22045e-16
2.22045e-16
2.22045e-16
2.22045e-16
2.22045e-16
2.22045e-16
2.22045e-16
2.22045e-16
2.22045e-16
2.22045e-16
2.22045e-16
2.22045e-16
2.22045e-16
2.22045e-16
2.22045e-16
2.22045e-16
2.22045e-16
2.22045e-16
2.22045e-16
2.22045e-16
2.22045e-16
2.22045e-16
2.22045e-16
2.22045e-16
2.22045e-16
2.22045e-16
2.22045e-16
2.22045e-16
2.22045e-16
2.22045e-16
2.22045e-16
2.22045e-16
2.22045e-16
2.22045e-16
2.22045e-16
2.22045e-16
2.22045e-16
2.22045e-16
2.22045e-16
2.22045e-16
2.22045e-16
2.1319e-11
1.07347e-10
9.0273e-13
1.88638e-12
2.22045e-16
3.81973e-15
1.60076e-15
2.22045e-16
2.22045e-16
2.22045e-16
2.22045e-16
2.22045e-16
2.22045e-16
2.22045e-16
2.22045e-16
2.22045e-16
2.22045e-16
2.22045e-16
2.22045e-16
2.22045e-16
2.22045e-16
2.22045e-16
2.22045e-16
2.22045e-16
2.22045e-16
2.22045e-16
2.22045e-16
2.22045e-16
2.22045e-16
5.51229e-14
2.22045e-16
5.28846e-15
2.22045e-16
2.22045e-16
2.22045e-16
2.22045e-16
2.22045e-16
2.22045e-16
2.22045e-16
2.22045e-16
2.22045e-16
2.22045e-16
2.22045e-16
2.22045e-16
2.22045e-16
2.22045e-16
2.22045e-16
2.22045e-16
2.22045e-16
2.22045e-16
2.22045e-16
2.22045e-16
2.22045e-16
2.22045e-16
2.22045e-16
2.22045e-16
2.22045e-16
2.22045e-16
2.22045e-16
2.22045e-16
2.22045e-16
2.22045e-16
2.22045e-16
2.22045e-16
2.22045e-16
2.22045e-16
2.22045e-16
2.22045e-16
2.22045e-16
2.22045e-16
2.22045e-16
2.22045e-16
2.22045e-16
2.22045e-16
2.22045e-16
2.22045e-16
2.22045e-16
2.22045e-16
2.22045e-16
2.22045e-16
2.22045e-16
2.22045e-16
2.22045e-16
2.22045e-16
2.22045e-16
2.22045e-16
2.22045e-16
2.22045e-16
2.22045e-16
2.22045e-16
2.22045e-16
2.22045e-16
2.22045e-16
2.22045e-16
2.22045e-16
2.22045e-16
2.22045e-16
2.22045e-16
2.22045e-16
2.22045e-16
2.22045e-16
2.22045e-16
2.22045e-16
2.22045e-16
2.22045e-16
2.22045e-16
2.22045e-16
2.22045e-16
2.22045e-16
2.22045e-16
2.22045e-16
2.22045e-16
2.22045e-16
2.22045e-16
2.22045e-16
2.22045e-16
2.22045e-16
2.22045e-16
2.22045e-16
2.22045e-16
2.22045e-16
2.22045e-16
2.22045e-16
2.22045e-16
2.22045e-16
2.22045e-16
2.22045e-16
2.22045e-16
2.22045e-16
2.22045e-16
2.22045e-16
2.22045e-16
2.22045e-16
2.22045e-16
2.22045e-16
2.22045e-16
2.22045e-16
2.22045e-16
2.22045e-16
2.22045e-16
2.22045e-16
2.22045e-16
2.22045e-16
2.22045e-16
2.22045e-16
2.22045e-16
2.22045e-16
2.22045e-16
2.22045e-16
2.22045e-16
2.22045e-16
2.22045e-16
2.22045e-16
2.22045e-16
2.22045e-16
2.22045e-16
2.22045e-16
2.22045e-16
2.22045e-16
2.22045e-16
2.22045e-16
2.22045e-16
2.22045e-16
2.22045e-16
2.22045e-16
2.22045e-16
2.22045e-16
2.22045e-16
2.22045e-16
2.22045e-16
2.22045e-16
2.22045e-16
2.22045e-16
2.22045e-16
2.22045e-16
2.22045e-16
2.22045e-16
2.22045e-16
2.22045e-16
2.22045e-16
2.22045e-16
2.22045e-16
2.22045e-16
2.22045e-16
2.22045e-16
2.22045e-16
2.22045e-16
2.22045e-16
2.22045e-16
2.22045e-16
2.22045e-16
2.22045e-16
2.22045e-16
2.22045e-16
2.22045e-16
2.22045e-16
2.22045e-16
2.22045e-16
2.22045e-16
2.22045e-16
2.22045e-16
2.22045e-16
2.22045e-16
2.22045e-16
2.22045e-16
2.22045e-16
2.22045e-16
2.22045e-16
2.22045e-16
2.22045e-16
2.22045e-16
2.22045e-16
2.22045e-16
2.22045e-16
2.22045e-16
2.22045e-16
2.22045e-16
2.22045e-16
2.22045e-16
2.22045e-16
2.22045e-16
2.22045e-16
2.22045e-16
2.22045e-16
2.22045e-16
2.22045e-16
2.22045e-16
2.22045e-16
2.22045e-16
2.22045e-16
2.22045e-16
2.22045e-16
2.22045e-16
2.22045e-16
2.22045e-16
2.22045e-16
2.22045e-16
2.22045e-16
2.22045e-16
2.22045e-16
2.22045e-16
2.22045e-16
2.22045e-16
2.22045e-16
2.22045e-16
2.22045e-16
2.22045e-16
2.22045e-16
2.22045e-16
2.22045e-16
2.22045e-16
2.22045e-16
2.22045e-16
2.22045e-16
2.22045e-16
2.22045e-16
2.22045e-16
2.22045e-16
2.22045e-16
2.22045e-16
2.22045e-16
2.22045e-16
2.22045e-16
2.22045e-16
2.22045e-16
2.22045e-16
2.22045e-16
2.22045e-16
2.22045e-16
2.22045e-16
2.22045e-16
2.22045e-16
2.22045e-16
2.22045e-16
2.22045e-16
2.22045e-16
2.22045e-16
2.22045e-16
2.22045e-16
2.22045e-16
2.22045e-16
2.22045e-16
2.22045e-16
2.22045e-16
2.22045e-16
2.22045e-16
2.22045e-16
2.22045e-16
2.22045e-16
2.22045e-16
2.22045e-16
2.22045e-16
2.22045e-16
2.22045e-16
2.22045e-16
2.22045e-16
2.22045e-16
2.22045e-16
2.22045e-16
2.22045e-16
2.22045e-16
2.22045e-16
2.22045e-16
2.22045e-16
2.22045e-16
2.22045e-16
2.22045e-16
2.22045e-16
2.22045e-16
2.22045e-16
2.22045e-16
2.22045e-16
2.22045e-16
2.22045e-16
2.22045e-16
2.22045e-16
2.22045e-16
2.22045e-16
2.22045e-16
2.22045e-16
2.22045e-16
2.22045e-16
2.22045e-16
2.22045e-16
2.22045e-16
2.22045e-16
2.22045e-16
2.22045e-16
2.22045e-16
2.22045e-16
2.22045e-16
2.22045e-16
2.22045e-16
2.22045e-16
2.22045e-16
2.22045e-16
2.22045e-16
2.22045e-16
2.22045e-16
2.22045e-16
2.22045e-16
2.22045e-16
2.22045e-16
2.22045e-16
2.22045e-16
2.22045e-16
2.22045e-16
2.22045e-16
2.22045e-16
2.22045e-16
2.22045e-16
2.22045e-16
2.22045e-16
2.22045e-16
2.22045e-16
2.22045e-16
2.22045e-16
2.22045e-16
2.22045e-16
2.22045e-16
2.22045e-16
2.22045e-16
2.22045e-16
2.22045e-16
2.22045e-16
2.22045e-16
2.22045e-16
2.22045e-16
2.22045e-16
2.22045e-16
2.22045e-16
2.22045e-16
2.22045e-16
2.22045e-16
2.22045e-16
2.22045e-16
2.22045e-16
2.22045e-16
2.22045e-16
2.22045e-16
2.22045e-16
2.22045e-16
2.22045e-16
2.22045e-16
2.22045e-16
2.22045e-16
2.22045e-16
2.22045e-16
2.22045e-16