/*--------------------------------*- C++ -*----------------------------------*\
  =========                 |
  \\      /  F ield         | OpenFOAM: The Open Source CFD Toolbox
   \\    /   O peration     | Website:  https://openfoam.org
    \\  /    A nd           | Version:  9
     \\/     M anipulation  |
\*---------------------------------------------------------------------------*/
FoamFile
{
    format      ascii;
    class       volScalarField;
    location    "0.0016";
    object      overpressureMax;
}
// * * * * * * * * * * * * * * * * * * * * * * * * * * * * * * * * * * * * * //

dimensions      [1 -1 -2 0 0 0 0];

internalField   nonuniform List<scalar> 
13257
(
1.35782e+06
567447
1.08265e+06
448413
636389
589418
36988.1
710927
685828
591360
12687.9
419456
703355
744234
657795
726754
2149.89
361524
8.47329
1.15913e+06
466841
1.05545e+06
300696
658681
271358
8682.1
1.26175e+06
1.21016e+06
1.25087e+06
887720
915555
1.02196e+06
964281
596665
503035
607878
377914
592486
531083
407457
894786
1.12275e+06
871098
869953
714666
927728
804170
600634
605313
121711
457883
491234
606667
348057
1.31179e+06
1.27212e+06
1.31729e+06
1.23725e+06
1.19624e+06
1.15619e+06
1.19468e+06
692447
953582
929926
1.00759e+06
745737
945347
722131
1.12134e+06
857814
879787
777181
761326
1.00621e+06
976306
1.22525e+06
1.20979e+06
1.17791e+06
1.11584e+06
1.10163e+06
1.0743e+06
1.14932e+06
1.28756e+06
1.19426e+06
1.22053e+06
1.13145e+06
1.17514e+06
1.14086e+06
1.10729e+06
600782
565779
559406
574262
573468
523765
520098
593141
545559
552455
581801
575615
517086
515197
486210
310074
8296.7
513400
372105
439662
44543.6
642638
813973
835493
695843
679455
927673
888143
990898
1.12584e+06
1.08831e+06
1.05323e+06
988662
960273
1.08689e+06
1.01683e+06
1.13618e+06
1.01551e+06
1.0695e+06
979275
1.05287e+06
972477
893557
845365
702650
758157
954130
776436
428926
1.16751e+06
1.13649e+06
1.16699e+06
1.10294e+06
1.05148e+06
1.08134e+06
1.06372e+06
718289
853561
697456
714514
854688
862595
731487
887658
119312
697618
858970
712960
701243
282885
1.13091e+06
1.10826e+06
1.08333e+06
1.05647e+06
1.03191e+06
990519
1.01103e+06
547132
523264
539632
477280
495447
490143
471234
1.01809e+06
1.00415e+06
897159
952414
929572
981085
1.04617e+06
973681
1.04749e+06
1.06993e+06
1.03813e+06
940996
945894
1.02351e+06
593051
540196
536725
592848
515869
608358
521095
520473
513887
530746
484413
456928
478820
464280
981541
992104
966597
876462
911181
889924
897617
1.10515e+06
1.00344e+06
1.01313e+06
1.00806e+06
1.03252e+06
962314
948960
436795
209334
95.1868
400775
474377
262471
3498.31
607708
224754
112.941
604490
59623.1
323343
629.445
728878
954933
929260
806076
618552
787963
465018
551232
40056.5
450863
587320
301016
111735
240.525
576097
594650
578244
501430
500609
499946
503192
1.10336e+06
1.06475e+06
1.07254e+06
1.01716e+06
1.02165e+06
980405
979771
525711
907888
781941
688364
297009
880375
763091
1.0054e+06
967531
887960
915672
917714
996936
970366
886465
763516
741931
865220
759844
747497
862837
926506
975230
947817
861070
863227
843193
882155
804552
630835
2885.52
663379
860513
63552.1
764815
593794
599857
584055
501393
514845
505954
507574
998766
877470
931164
910356
980504
920774
865649
960830
933284
947096
862163
864413
873825
853767
1.0577e+06
987389
1.03533e+06
948262
921573
906661
966274
1.05235e+06
943386
984420
1.43046e+06
1.32205e+06
1.47664e+06
1.11299e+06
1.3921e+06
1.02964e+06
1.14707e+06
712584
836668
1.15963e+06
979477
812032
705229
1.455e+06
1.45019e+06
1.42777e+06
1.34162e+06
1.3138e+06
1.29283e+06
1.32392e+06
1.39829e+06
1.36105e+06
1.39914e+06
1.267e+06
1.27363e+06
1.23426e+06
1.30211e+06
1.37367e+06
1.2804e+06
1.29369e+06
1.20416e+06
1.27578e+06
1.25738e+06
1.18965e+06
993804
1.16443e+06
989275
1.11167e+06
986753
1.10376e+06
985838
1.35085e+06
1.24416e+06
1.26433e+06
1.23537e+06
1.15335e+06
1.20683e+06
1.17331e+06
668590
805871
668246
674676
825272
828610
678316
1.22316e+06
1.08263e+06
1.19175e+06
1.17323e+06
1.09509e+06
1.06537e+06
1.20607e+06
1.15489e+06
1.00987e+06
1.00166e+06
1.08367e+06
1.09511e+06
985438
983889
1.15008e+06
1.01919e+06
1.15943e+06
1.07604e+06
1.1213e+06
1.04503e+06
1.18546e+06
682116
822334
672803
835362
698670
844862
686231
1.05794e+06
1.11433e+06
1.16324e+06
1.14616e+06
1.01733e+06
1.04234e+06
1.1011e+06
1.12508e+06
999790
1.06766e+06
1.00202e+06
1.09988e+06
1.02298e+06
1.08544e+06
1.0483e+06
911336
956973
969013
1.03859e+06
951541
903840
818603
694469
831631
831567
705282
814706
696899
1.01496e+06
956997
1.02807e+06
946271
887968
939480
896632
833980
808528
712098
708339
836600
811576
702989
615517
543807
536968
646533
627325
531565
546300
603725
786880
804576
206286
33375.2
716040
702567
510396
479336
500898
449142
474196
471559
441819
963574
864595
943669
907112
844886
832280
923570
505817
492077
484980
460715
454484
443396
437488
837206
722674
716131
835330
717912
798483
732551
910283
919661
902926
847577
825782
830998
841035
902292
898290
876835
841417
822950
801760
816686
988238
1.02442e+06
981467
967678
930586
952193
907894
442432
435830
460165
457268
403710
442145
431749
1.02163e+06
976543
1.02393e+06
938943
898020
897166
939430
408478
9078.17
227.68
1.496
5773.11
160189
46.1679
617503
522331
513948
627328
621593
525368
514914
797638
736196
823608
737006
727499
808445
811831
934916
856882
934490
898718
825725
825268
899538
496813
467214
476890
439385
447386
430678
422787
455014
423077
441291
395216
453959
443262
427360
936851
891206
960078
907960
834029
851170
892194
822094
867536
850008
778801
763558
754750
790791
883824
862351
864760
808831
812327
792223
789424
938961
904619
891152
877512
864852
823621
833524
784332
703451
782089
724673
769357
716127
798381
914929
742659
214395
768329
289462
531098
588.002
490006
467973
493935
471777
431448
436195
476383
870540
810584
768782
845236
834322
800764
884410
780227
787427
885736
764776
855426
843284
762676
908711
898606
850902
841053
831882
803288
795455
118988
865641
758950
33254.4
122.649
728549
383825
830863
741479
781675
717291
791052
739112
824055
892790
865030
852800
832115
821270
786085
794851
556689
677273
662897
573954
563678
673388
572336
787129
713945
729098
789863
720306
797434
780083
814473
839120
840315
770899
746871
768919
748293
990251
911989
942106
885995
920129
881641
852425
875017
842670
833028
809664
821673
787013
777105
787655
698873
781982
679721
748870
742873
673108
461900
456255
430770
444304
421889
414082
400876
928409
880951
881371
855706
856024
815026
813725
780968
557028
764.452
6540.79
695661
173.262
87238.4
419616
426922
454792
458703
300575
395219
412269
774801
697113
755545
704082
760310
709521
769003
862625
793452
762262
825940
826278
793799
863414
467158
434253
460936
386984
423712
418333
372509
911635
813792
872136
818432
883779
848842
791715
882402
841242
843656
810183
812691
778152
775448
424909
21995
76.4914
41739.7
529.558
139.283
17.3486
649191
628746
636416
539831
425118
484763
546543
417673
359929
413083
308216
401587
395897
286357
689205
763893
752643
734177
679521
673605
744136
605258
504316
498345
555346
537857
382461
355199
821635
844123
808922
795575
779718
765555
753127
793652
774512
765736
737261
729981
705418
711518
777037
771477
696707
736636
644936
730047
662837
854748
797434
843731
782375
748772
742199
790718
490768
444169
497309
403613
478793
446676
339570
445070
427849
453625
412058
313630
399649
349538
737239
807108
798215
762248
711694
706150
769679
402446
340354
407935
384452
203043
364047
252859
683260
740382
744495
726983
664647
667720
723762
823270
774098
813210
751701
723775
717624
758768
129784
21678.4
69.5792
16040.6
47.5621
190.511
4.22879
785124
852641
871646
826488
743555
805365
755414
449214
417901
431835
384983
412706
368021
308924
604330
463599
486369
469697
510688
312367
251687
787174
759496
759649
723369
724323
699898
699140
878825
873097
848810
843499
821554
809993
788995
11.7416
591420
74488.1
12.5098
1.66932
26591.1
69.0377
457059
248885
335251
223571
340899
385829
429464
714591
636483
699716
661559
656709
693627
722380
739162
768791
813297
798724
662487
752332
733062
789005
820246
853361
823309
742453
796097
768026
730841
789086
790178
754864
697031
699653
752530
833893
789786
835098
775134
733084
735627
773060
825550
777182
794128
742070
761591
738862
722196
25648.3
146823
88591.5
432007
79120.2
1032.86
7548.96
11.9802
425271
556796
363409
407234
174096
316696
94304
745930
696475
757468
731541
607103
722141
642336
764385
697497
756089
725536
675761
670625
732262
705264
775568
767308
681180
747337
739841
665764
435383
365512
424551
259426
374986
333333
181089
404172
303207
390096
128380
237623
206414
101002
692798
689362
590905
640797
675651
537145
441570
766048
801957
804768
743986
707105
710643
740950
694850
690246
757411
615136
722729
708787
568073
744926
709954
737798
681208
661025
656186
686183
832506
831915
801729
804522
777137
770132
751020
463037
423374
461144
486588
455881
419028
325719
2220.17
13.9924
1.35474
1.20302
488.057
12.7237
0.279207
389440
192446
360838
137426
331174
277934
70927.5
655952
317075
520409
450923
633309
452608
168619
708021
616575
686302
630852
651259
705647
687998
691288
746378
749010
719047
633369
663289
716048
389101
379752
327520
302111
206866
222325
84454.5
331590
271829
367059
162022
36946.4
108505
67793.1
726547
679676
696319
601888
691467
674953
732420
731082
704206
731661
675785
598615
640369
671637
758189
755745
720199
737708
683720
693342
607046
184267
237360
356979
339715
30195.7
152441
206134
543004
566935
701632
690110
239742
512476
542280
732952
620802
718046
554597
710658
686477
476599
588720
677274
672438
650946
526265
501711
655295
799052
828125
762328
717716
780150
752027
637477
806627
784542
829258
730067
769979
754943
686474
785972
689584
767227
675161
750202
734173
564036
779995
579346
659702
668297
757744
726411
718428
439405
402141
494461
364696
70107.9
209251
214964
737110
671332
748492
676264
378061
493339
619540
796054
743137
774895
693710
736953
708301
593075
435584
532255
838.549
345366
425931
8515.26
556917
441504
445545
39290.1
459417
388821
2368.51
98792.3
261138
376733
1447.01
549859
499274
519130
512479
493315
469664
464039
541718
496075
504824
478621
486467
457708
450310
469577
508538
521002
486077
474665
442025
432604
371188
27973.4
112.919
248.715
105685
672.156
2.84487
481767
440195
475695
395106
439874
434640
381533
382711
446634
392334
320535
423493
418606
301545
479052
448120
494682
447730
461893
413359
370941
429291
435840
367835
410229
231264
394825
272890
460714
433851
468716
428787
327185
419423
360122
525750
588841
703308
459016
541899
806764
618474
574993
480813
580798
609182
383570
568078
559849
660626
449394
527011
794412
744674
721468
734231
710204
673449
663606
756311
777757
720638
677221
695831
651742
636789
704714
683430
731749
656186
633198
619046
599351
681699
610133
672173
570508
622688
614057
563096
644285
565941
634144
546973
607564
598640
539014
646800
600529
660809
603728
543780
591308
554148
606033
555057
621383
587958
518028
574841
529280
518381
503650
372310
314506
491856
402300
8458.69
645477
636156
676114
582116
608389
577522
554218
575169
611410
630276
531663
576724
560060
517834
588045
511115
568512
504771
559409
542181
490322
524564
515046
567123
559176
474553
507878
517658
551961
581041
613555
554989
527977
529717
504647
523800
590813
542885
541561
485276
502380
521375
547518
477026
494260
523572
458344
474830
503670
549948
500176
490024
467386
538894
499764
509490
489380
478678
525997
511138
438361
465863
476929
454600
515911
477058
547630
521781
501396
479273
543768
503369
481851
466965
499883
477505
447581
460103
444731
482309
441408
482907
461849
421657
494968
436987
448022
422488
451947
463205
477364
312010
408229
421999
173052
369162
327993
105957
441274
409188
451652
277255
400081
365377
203451
409127
428422
459478
465301
422715
492033
454684
444060
426339
462226
406990
343133
294485
171585
184713
426970
309033
411930
458779
439549
349497
445543
243523
364950
426404
462399
441464
364033
180119
238669
370474
354606
27518.9
209349
152217
228797
320334
426066
307258
39979.8
113394
215054
325811
186042
378364
262595
14529.7
47202.5
166667
230337
106055
312316
195135
6487.24
24334
96466.8
549003
661741
667350
637366
317060
440161
598590
312637
108183
66766.7
17085.1
271361
111027
161961
357259
403856
305169
264566
29264.5
92632.5
162097
719751
630879
557205
671625
685308
665069
717167
128001
243358
369231
255519
8374.22
37677.1
115240
695457
636169
670903
498391
622257
664594
701132
787378
684197
764332
607434
738582
681262
467542
117234
74629.6
16432.4
168233
115361
330364
293986
672289
401860
450313
183111
645272
467044
504884
276378
88097.5
197813
15735.1
57757.9
22600.2
5800.9
672246
552658
701272
641107
222763
364844
566884
173279
24830.3
242556
63951
1858.12
34185.5
3742.88
741076
528581
718663
543610
711806
640944
337046
615025
521084
680255
551152
259441
366485
73567
0.462387
0.453943
1286.84
0.349521
0.970607
0.532979
0.0654407
337730
41942.1
298683
9259.57
126800
97356.9
6360.49
688998
429894
509502
595830
586189
645278
684231
500825
149327
267629
94218.2
203023
36677.1
10822.7
728684
608624
698827
495681
623015
475850
276554
332431
341314
435369
22628.8
169459
349367
157466
15173.5
295881
135527
334675
424571
296337
135962
296818
400418
226358
58679.2
9474.85
273009
114814
8035.29
79798.2
303990
263464
401856
226514
52050.5
104757
78577.3
295024
56722.8
230926
263756
396459
55882.6
30323.6
210667
131070
1226.03
10813
21015.2
288321
444237
570425
318972
9664.99
141023
51777.8
601899
396741
171138
524935
499785
361153
616269
712462
431934
655448
229128
526990
383302
91531.4
313841
371464
604700
543636
26267.7
207633
268411
683508
714823
767660
682524
186887
514327
462824
166403
159572
307413
15116.8
86676.1
16675.7
2490.08
339225
472084
325486
157306
61256.3
136854
11505.9
3806.42
7646.19
33066.7
237300
116955
69064.9
16110.2
1893.44
9334.52
111335
195864
317115
101395
25236.4
606161
93579.5
448755
139388
497133
280377
23920
564936
143337
102493
312811
437031
274014
487906
539371
607000
713120
640586
83813.5
437296
333820
143337
94133.7
273211
6699.78
60574.4
12628.4
1328.94
107976
20776.8
304634
10346.8
56966.5
7562.41
1237.33
26446.6
15094.9
3845.27
64835
37955.5
240657
166187
1.0415e+06
302979
604906
761.618
442302
606058
406918
535008
589739
593031
537344
409437
961152
763657
734092
1.02227e+06
753405
955065
728711
607578
571074
574008
576471
578118
529504
527290
601009
568065
572916
572029
576353
528244
523912
53076
376278
517481
519557
378950
444099
55939.9
868119
722276
704504
872372
719052
708480
310353
550549
540452
555880
501624
479904
484307
497206
541382
553179
556892
502619
482114
499890
485214
1.01052e+06
1.04158e+06
1.01136e+06
915191
938878
939459
915264
67864.8
330561
604112
607831
72707.6
334703
806.551
572065
593087
575674
502578
497954
500835
498791
594346
576531
577349
503966
501584
502466
502175
1.03474e+06
994078
1.00473e+06
909370
923269
900257
933500
983485
964961
985359
895063
879440
882654
893586
962809
972076
980604
890676
873294
883146
880272
1.51973e+06
991615
1.14944e+06
1.04482e+06
1.41696e+06
1.51899e+06
1.12925e+06
1.42111e+06
1.03947e+06
1.16709e+06
705272
797125
1.17677e+06
988532
805012
707285
1.52513e+06
1.48895e+06
1.49371e+06
1.35424e+06
1.38125e+06
1.35124e+06
1.38564e+06
1.4998e+06
1.48762e+06
1.47178e+06
1.34752e+06
1.36196e+06
1.33288e+06
1.37927e+06
1.42366e+06
1.30816e+06
1.31487e+06
1.30707e+06
1.22053e+06
1.30078e+06
1.22697e+06
1.40847e+06
1.31496e+06
1.30593e+06
1.30354e+06
1.21588e+06
1.29094e+06
1.22592e+06
1.17436e+06
982959
989533
993290
1.11975e+06
986711
1.12576e+06
1.1704e+06
989927
992977
995146
1.11969e+06
1.12675e+06
990488
802637
669790
664622
825924
668638
820716
673186
670297
805918
672052
828349
674538
826230
675655
1.22888e+06
1.26072e+06
1.11438e+06
1.1509e+06
1.22635e+06
1.11579e+06
1.26378e+06
1.22166e+06
1.14402e+06
1.24124e+06
1.09668e+06
1.20826e+06
1.109e+06
1.25691e+06
1.19278e+06
1.08223e+06
1.13072e+06
1.04991e+06
1.18803e+06
1.08523e+06
1.13635e+06
1.18862e+06
1.04809e+06
1.07069e+06
1.12559e+06
1.17685e+06
1.08065e+06
1.13477e+06
968991
1.05949e+06
920146
996900
963343
1.06485e+06
925074
969488
996154
1.05732e+06
918704
1.06466e+06
963611
924948
836511
823482
691028
709164
831591
828055
695219
838044
710282
823756
695176
834288
828412
697113
522851
495801
500866
463667
468064
450596
446299
523804
497781
501797
465584
468946
451428
448096
463826
436887
440601
409939
443492
440730
460112
464903
410893
443625
439322
463056
444672
441635
829196
846478
753678
763645
753833
846129
828888
824361
759419
833196
743892
817284
749974
841279
920204
872708
925150
851168
855837
816571
812310
924190
866116
916859
848116
854800
816015
810156
814804
803515
743357
735930
744100
806067
814334
811250
733661
735737
797212
805069
740777
803736
794442
708254
798471
759746
685106
688805
755710
798433
704922
793194
759427
684642
754279
688785
392910
470293
446632
475070
430311
398694
426281
419363
381224
422958
407118
317475
325310
403543
382246
421337
423798
407874
320865
405253
326611
447449
472229
475917
431063
395451
428015
399729
607128
503767
508082
561770
569773
401439
390641
605809
507708
509594
565982
571382
404118
397844
785632
725614
789120
759560
692667
697988
755679
724434
782534
788002
758886
690700
753373
697385
407129
337902
413145
261435
141929
153158
249827
339445
411793
414849
263794
146706
256002
155074
251445
370923
199451
60414.7
211407
262554
364313
372048
61691.6
204236
256051
367158
213346
264392
714518
322701
561707
582021
709008
571236
589698
714781
560228
578876
319992
570733
588522
710290
78701.9
361215
371370
155077
11627.2
146439
12783.2
502178
452742
46032.7
442176
562812
450651
449877
48523.3
560437
522275
565929
527280
506863
476612
472223
566990
504200
524523
528190
507768
477445
474174
400454
396109
448855
328543
425484
429140
335733
484685
400577
448089
452258
489166
446139
406186
398123
453462
401268
429841
331823
427196
337020
453074
486655
490019
446887
403132
443974
407229
622354
483751
579857
749884
816575
625144
582264
485896
812837
727435
821005
735005
757503
685569
678696
822650
753264
730661
736428
759020
686853
681538
574419
686358
628705
692975
633586
627001
580110
649743
585885
656737
618824
551271
612467
557328
629904
689339
694262
634804
576820
629771
581259
586911
652532
657981
620043
553599
614967
558357
528080
577174
518756
488621
571053
524011
533246
578258
489532
530276
520881
573616
524937
534282
193121
376947
251528
383162
52006.8
262143
204041
384311
53134.1
197883
256229
379846
264028
206013
10799.6
139318
352372
76705.5
367969
152131
12419.9
2805.66
13141
46558.1
52777.4
876.775
3229.07
15159.3
53966.5
896.492
2987.7
13925.4
49326
3307.6
15516.7
117735
1520.7
1811.87
27234.3
32150.5
5506.68
306.785
2342.16
39597.3
10903
27085.7
419.33
1565.43
7379.42
108237
1537.9
4373.03
1231.43
22372
7328.01
27427.3
37858.3
33566.3
106675
7324.26
491.918
1844.48
2076.38
101782
793.569
14930.7
2254.13
46257
5785.33
295.643
528844
557542
721044
624766
49532
305661
353963
644119
581184
732536
561616
63471.8
344642
251759
54378.3
123351
12873.5
28959.2
2865.18
7084.55
655.006
350071
479592
637129
489921
18086
121118
246349
15660.3
437.2
2113.21
236.837
7848.63
893.249
4304.01
453091
36880.7
63360.1
9203.9
104396
154498
323331
255286
303655
590796
431509
6076.46
81406.8
115831
253920
381688
552428
197827
4170.04
55456.3
21700.7
111117
4286.33
23267.4
1498.65
7606.3
1289.53
236.268
56867.9
883.029
1708.93
370.479
3391.96
6478.41
15750.5
190494
130233
458732
15320
125972
9184.03
914.81
2044.75
22169.7
168710
1774.97
163.426
2047.53
22233
15525.4
10697.7
124310
1139.06
107.549
1626.93
17361.7
127.09
1484.73
466.371
8516.83
5171.16
85553.6
28352.1
11592.7
20565.8
136343
15970.8
1016.81
1693.35
108.899
36199.3
135494
328472
110945
899.194
23023.9
4978.42
511.446
1109.63
73.9822
6019.51
895.752
80280.1
13485.4
4835.88
29833.9
1526.39
454.825
23.9275
155.669
2995.91
9729.47
637.438
45.2137
4751.64
318.577
63616.4
4410.17
430199
5950.49
8328.23
12968.1
151264
80145.1
112606
240957
1545.14
29871.7
3118.86
62432.7
4203.49
209.031
269383
4827.85
34828.4
3899.77
27991.6
1830.88
243.893
9389.14
462.157
2086.15
116.834
505.788
109.339
24.3486
5050.41
761.19
16163.2
1919.25
26.5835
94.533
550.975
181.847
873.918
3427.98
1243.27
16.2533
64.7235
314.518
9758.27
17846.6
172573
57624.8
183.068
2365.99
4425.35
5353.42
3740.67
36526.4
2172.45
31.2713
312.707
221.223
44796.2
162.417
3311.8
389.723
8374.41
589.659
28.3021
204802
1710.73
934.5
2918.39
13027
41818
21529.5
1339.22
14052.4
2149.31
830.553
11.3722
77.8706
126.473
50.9227
16948
3875.86
4277.24
0.273695
0.635118
20886.8
3.32563
447686
6569.3
0.0356502
2695.72
0.0974294
0.00144503
0.660681
0.00736939
0.000417326
3394.36
0.198405
0.00154197
4.39993e-05
71350.5
0.394743
0.0038095
0.0002124
5.19675e-06
256904
0.273658
0.00630788
0.000377752
1.00633e-05
2.8596e-07
0.0358156
0.00410707
0.000292576
1.02058e-05
3.58385e-07
1.17579e-08
0.000851831
0.000106655
6.44721e-06
2.9245e-07
1.1918e-08
3.49246e-10
2.24688e-05
2.40504e-06
1.64349e-07
8.3237e-09
3.0559e-10
0
5.87461e-07
5.93282e-08
3.97267e-09
1.60071e-10
0
0
47039.9
692140
672288
683842
119510
667439
44454.2
10.9316
34.3519
10626.3
249921
36.3439
3599.51
11.6113
278963
28.2757
6718.73
407147
470.659
4848.27
30.0524
261451
143.313
2.76257
21651.2
134.569
137.993
2.90965
35.5724
20090.7
385256
635148
2609.59
20653.6
3.50371
686949
691943
687301
622290
628143
628841
620926
688764
679210
684010
618756
620429
612900
625687
680036
673672
680524
597993
527856
534527
595223
671715
673480
677603
594130
519858
586625
530983
404706
278013
410190
288569
289384
93235
83414.7
411198
282440
283432
290364
291213
94990.8
87488.1
0.267671
177.676
174.974
188.327
0.686984
43.8459
0.283573
262947
120356
127136
51080.8
55013.6
9286.66
8506.48
253173
48788.7
116435
125449
54008.3
9088.62
8076.12
38301.6
16879.8
31718.8
2244.63
1183.32
1836.63
953.137
125411
53227.4
245634
255524
136366
60222.8
12274.9
257173
129693
138170
55927.6
61416.3
12562.1
11247.7
8540.62
12531
24253.7
958.424
473.893
1386.23
704.536
158511
639652
504677
645068
515565
396732
170286
643181
503140
514759
379857
394000
169475
157615
9947.69
3344.75
7945.18
225.491
554.513
438.978
173.389
125853
97537.2
416602
423940
133531
104529
453936
0.45914
0.203068
1998.08
6155.81
9.73476
75.1671
2.7253
419556
130592
437732
92397.5
406920
102148
449478
0.00394578
0.000380514
1.45469e-05
1889.46
0.0607258
0.00021897
7.5305e-06
20218.7
4986.88
0.00720703
0.000406736
1.50043e-05
0.00517487
0.000527777
1.9613e-05
0.00795429
0.000211298
6.44605e-06
1.59256e-07
0.340149
0.00153547
7.09954e-05
1.35902e-06
32.0324
0.0163386
0.00176986
6.25959
0.00122185
0.000229013
0.0143643
0.00236519
5.25779e-05
2046.94
0.0503947
0.000278151
9.90728e-06
2845.27
0.0182104
0.000875795
2.69351e-05
8.36008e-07
725.017
0.544953
0.00146042
4.46285e-05
1.50905e-06
4.74247e-08
0.000737444
3.911e-05
1.62529e-06
6.15546e-08
1.9354e-09
1.99337e-05
1.16798e-06
5.3551e-08
2.03727e-09
0
5.5274e-07
3.29601e-08
1.49885e-09
0
0
1.35187e-08
7.71252e-10
0
0
0
22771.4
0.138145
0.0222239
392.675
0.0623869
0.000816848
0.0826057
0.00450008
0.000246309
112907
0.127375
0.000901463
2.66547e-05
141034
0.353708
0.00364501
0.000111179
2.76817e-06
33798.6
0.22882
0.00483889
0.000218108
5.44074e-06
1.57888e-07
0.0302267
0.00287309
0.000171955
5.65351e-06
1.98779e-07
6.53381e-09
0.000546657
5.92469e-05
3.70062e-06
1.65091e-07
6.59202e-09
1.74623e-10
1.47456e-05
1.46282e-06
9.56497e-08
4.80213e-09
1.45519e-10
0
3.85597e-07
3.63798e-08
2.34286e-09
5.82077e-11
0
0
1644.42
1.80011
0.00725939
0.00016391
4.13293e-06
0.00934654
0.00020005
5.47897e-06
1.20344e-08
1.36788e-09
4.36557e-11
0
0
0
0
5.4008e-07
6.58183e-08
4.42378e-09
1.74623e-10
0
0
0
2.46109e-05
2.78527e-06
1.86454e-07
9.1095e-09
2.61934e-10
0
0
0.00132538
9.59932e-05
6.94004e-06
3.53e-07
1.3184e-08
3.34694e-10
0
0.157153
0.00237945
0.000222841
1.19213e-05
4.57454e-07
1.40135e-08
3.0559e-10
6408.34
2.28973
0.011796
0.000378773
1.33132e-05
4.16374e-07
1.06229e-08
316325
39.2288
0.023406
0.000315005
9.84102e-06
2.54178e-07
529882
47.3415
0.0126285
0.0001619
4.48758e-06
54320.2
0.22575
0.00117171
6.15915e-05
3.27418e-09
3.0559e-10
0
0
0
0
0
1.29425e-07
1.39407e-08
9.31323e-10
0
0
0
0
4.60481e-06
5.65371e-07
4.0076e-08
1.8772e-09
1.45519e-11
0
0
0.00015318
2.60016e-05
1.60342e-06
7.41857e-08
2.73576e-09
4.36557e-11
0
0.00988563
0.000675651
6.07897e-05
2.64925e-06
9.35834e-08
2.92493e-09
1.45519e-11
98.5013
0.0964155
0.00126704
7.89572e-05
2.8558e-06
8.28877e-08
2.15368e-09
15144.3
0.593586
0.00158052
7.03785e-05
2.00287e-06
4.90545e-08
243876
0.719579
0.00123357
4.13996e-05
8.512e-07
1030.64
0.0280752
0.00032394
7.99164e-06
4.65661e-10
0
0
0
0
0
0
2.12749e-08
2.25555e-09
8.73115e-11
0
0
0
0
7.6677e-07
8.67149e-08
6.02449e-09
2.61934e-10
0
0
0
2.60259e-05
3.17828e-06
2.25089e-07
1.07102e-08
3.7835e-10
0
0
0.000947714
0.00010413
7.92558e-06
3.60335e-07
1.3446e-08
4.07454e-10
0
0.0735573
0.00384153
0.000235111
1.08975e-05
3.8564e-07
1.21508e-08
3.0559e-10
1.32852
0.00535126
0.000253337
9.30854e-06
2.79644e-07
7.61065e-09
14.9294
0.0489574
0.000154033
4.70878e-06
1.26136e-07
0.266426
0.00929205
6.63622e-05
1.44508e-06
0
0
0
0
0
0
0
2.92493e-09
2.61934e-10
0
0
0
0
0
1.13636e-07
1.17434e-08
6.98492e-10
0
0
0
0
4.02141e-06
4.29063e-07
2.80124e-08
1.32422e-09
0
0
0
0.000118483
1.40182e-05
9.3675e-07
4.40195e-08
1.67347e-09
0
0
0.030058
0.00037315
2.70781e-05
1.28378e-06
4.82396e-08
1.5425e-09
0
2.41081
0.259124
0.00065197
3.11332e-05
1.16741e-06
3.70492e-08
9.8953e-10
81.3093
0.0479915
0.000544896
2.16415e-05
6.91609e-07
1.87138e-08
69.6801
0.124841
0.000293847
9.34294e-06
2.4453e-07
0
0
0
0
0
0
0
2.18279e-10
0
0
0
0
0
0
1.04483e-08
9.31323e-10
0
0
0
0
0
3.73664e-07
3.64817e-08
2.18279e-09
5.82077e-11
0
0
0
1.21581e-05
1.23197e-06
7.4986e-08
3.37604e-09
5.82077e-11
0
0
0.00033049
3.67623e-05
2.22717e-06
1.00335e-07
3.73984e-09
8.73115e-11
0
0.0124722
0.00101934
5.65833e-05
2.49947e-06
9.13569e-08
2.92493e-09
1.45519e-11
8.35303
0.0651362
0.00129269
4.95616e-05
1.78321e-06
5.60103e-08
1.52795e-09
0.0581969
0.000665368
2.44692e-05
7.66813e-07
2.06928e-08
0
0
0
0
0
0
0
0
0
0
0
0
0
0
5.23869e-10
0
0
0
0
0
0
1.96451e-08
1.76078e-09
5.82077e-11
0
0
0
0
6.32586e-07
5.9692e-08
3.60887e-09
1.16415e-10
0
0
0
1.80767e-05
1.74473e-06
1.04454e-07
4.75848e-09
1.45519e-10
0
0
0.000426787
4.33633e-05
2.57828e-06
1.16372e-07
4.36557e-09
1.01863e-10
0
0.0284198
0.000898001
5.06127e-05
2.27247e-06
8.41828e-08
2.75031e-09
0
19078
1.93395
0.0036222
0.000670631
3.08508e-05
1.15925e-06
3.72966e-08
1.01863e-09
0
0
0
0
0
0
0
0
0
0
0
0
0
0
0
0
0
0
0
0
0
6.98492e-10
0
0
0
0
0
0
2.33995e-08
2.13913e-09
1.01863e-10
0
0
0
0
6.39106e-07
6.10307e-08
3.72529e-09
1.01863e-10
0
0
0
1.44972e-05
1.4539e-06
8.91741e-08
4.11819e-09
1.16415e-10
0
0
0.000213728
2.64064e-05
1.68737e-06
7.86822e-08
2.98314e-09
2.91038e-11
0
0.00466109
0.00105306
0.000263795
2.11154e-05
1.04831e-06
4.09054e-08
1.36788e-09
0
0
0
0
0
0
0
0
0
0
0
0
0
0
0
0
0
0
0
0
0
0
0
0
0
0
0
0
0
6.98492e-10
0
0
0
0
0
0
1.90921e-08
1.77533e-09
5.82077e-11
0
0
0
0
4.17349e-07
4.14439e-08
2.54659e-09
8.73115e-11
0
0
0
6.52838e-06
7.36705e-07
4.7934e-08
2.28465e-09
4.36557e-11
0
0
0.000297056
5.19314e-05
7.90658e-06
5.99015e-07
3.02971e-08
1.20781e-09
0
0
0
0
0
0
0
0
0
0
0
0
0
0
0
0
0
0
0
0
0
0
0
0
0
0
0
0
0
0
0
0
0
0
0
0
0
4.65661e-10
0
0
0
0
0
0
1.06957e-08
1.00408e-09
0
0
0
0
0
1.68671e-07
1.83063e-08
1.17871e-09
0
0
0
0
8.13442e-06
1.5266e-06
2.01777e-07
1.5003e-08
7.27596e-10
0
0
0
0
0
0
0
0
0
0
0
0
0
0
0
0
0
0
0
0
0
0
0
0
0
0
0
0
0
0
0
0
0
0
0
0
0
0
0
0
0
0
0
0
0
1.89175e-10
0
0
0
0
0
0
3.88536e-09
3.63798e-10
0
0
0
0
0
2.07045e-07
3.68746e-08
4.52565e-09
3.0559e-10
0
0
0
0
8.31449
1.5855
0.0642847
5.02942
0.00303357
42.6517
0.0124509
0.000237166
0.162564
0.0150446
0.000294778
1.10075e-05
0.0029768
0.000188037
9.66189e-06
3.63303e-07
7.13401e-05
5.04639e-06
2.57569e-07
1.06375e-08
1.46587e-06
1.17958e-07
6.43195e-09
2.32831e-10
3.08064e-08
2.60479e-09
1.01863e-10
0
731.391
0.125875
0.0107917
0.000377012
9.13418e-05
9.27738e-06
1.9993e-06
2.25758e-07
0.00919972
0.000274804
0.000682096
5.81324e-05
0.000278946
9.0463e-06
7.93577e-05
1.74047e-06
7.02168e-06
1.78989e-07
3.35858e-07
9.28412e-09
1.218e-08
3.0559e-10
3.34694e-10
0
0
0
0
0
0.754689
2550
3.82709
5198.84
0.796373
7.63028
44888.5
2002.96
648733
607363
677845
99780.2
661862
34615.5
3.20465
4591.16
0.31599
1741.86
0.697073
6.95068
41390.3
13209.9
89.6008
0.113403
10.7238
2.0242
0.207961
1002.16
757.538
792.145
0.650354
399465
363.652
3841.21
23.3384
395.019
261283
491385
10158.4
868.294
636183
561725
486.413
0.358228
25.5311
233539
28.1298
2783.06
8.87454
84290.4
27.6438
452.9
0.284376
110.361
109.813
2.36535
581.367
741943
515208
76560.9
46.041
725470
267559
1031.81
752807
450636
291235
82.8027
743065
189220
149978
1.92863
81.7881
2.21825
2640.48
43.3393
0.0761206
5252.38
687498
665511
372428
99.2529
116987
8.36876
171.818
8.54733
0.382468
33695.4
117.471
323.815
0.469551
6729.58
6.57913
0.209651
0.699871
13.1911
74.5541
0.263278
513658
0.624346
6570.8
621457
2013.11
16116.2
2.7317
20.3549
645138
197669
523.858
1.65593
541696
28894.1
669647
673112
665338
586686
612463
603200
598899
0.474596
0.182063
5.18923
61669.9
611.201
0.275411
3.69411
0.163696
564.311
0.317185
7.71045
0.0860468
1.48284
0.135639
27.5347
0.181752
0.160674
1905.88
0.344283
1.78404
0.180901
644447
660018
655616
559947
540776
518685
576398
653169
667789
660067
549224
498995
572888
465261
759576
715120
708300
709785
703123
655543
665354
99748.8
0.109638
119.058
171.932
440861
0.324029
2988.25
8.64709
721648
96307.4
13.6127
0.0531633
130875
85.736
710767
113091
15.6954
54793.1
103.869
0.0805476
1096.17
102.102
124709
375165
0.88755
0.13053
13881.8
1289.52
29.8735
0.102636
0.176014
0.0264057
0.0841867
2.15843
17.6424
386439
265179
266572
235800
238012
51427.5
71971.6
735560
703378
698111
689197
684144
621344
636274
605974
27.2331
15446.5
26804.5
1.63426
25.1576
0.0978055
638146
636543
650695
513067
348772
461170
416274
630867
613032