/*--------------------------------*- C++ -*----------------------------------*\
  =========                 |
  \\      /  F ield         | OpenFOAM: The Open Source CFD Toolbox
   \\    /   O peration     | Website:  https://openfoam.org
    \\  /    A nd           | Version:  9
     \\/     M anipulation  |
\*---------------------------------------------------------------------------*/
FoamFile
{
    format      ascii;
    class       volScalarField;
    location    "0.00135";
    object      alpha.c4;
}
// * * * * * * * * * * * * * * * * * * * * * * * * * * * * * * * * * * * * * //

dimensions      [0 0 0 0 0 0 0];

internalField   nonuniform List<scalar> 
11317
(
0.218744
1.59407e-08
0.00623319
9.95306e-10
0.000682724
1.67318e-06
1.19812e-10
0.000168695
7.15783e-07
0.0132439
4.81909e-11
2.09904e-06
7.9439e-06
1.49354e-06
0.0158009
0.0101982
0.00119877
8.10843e-06
2.80783e-05
9.76861e-09
1.44325e-09
0.00135394
0.000697321
2.95086e-05
1.13043e-08
1.11864e-07
5.1143e-07
7.63204e-10
3.15447e-13
5.66283e-10
7.65171e-14
0.0407713
1.92423e-09
0.00374487
1.20092e-10
0.000241209
5.18894e-10
1.14695e-11
0.112977
0.0530293
0.080081
0.00102579
0.00472087
0.0260034
0.00631154
0.0301401
0.00199758
0.000147115
1.98442e-06
0.000850641
0.0059598
2.65408e-05
0.0128856
0.199471
0.176363
0.0039929
0.00312926
0.0553885
0.0475252
0.0017008
0.0162348
0.00652912
0.00030426
1.55961e-06
0.00231554
0.00031612
0.00244898
0.153903
0.0578391
0.00234153
0.000408392
0.0389844
0.0128063
0.000992953
0.0268559
0.0220884
1.9839e-05
6.94471e-06
0.0068365
0.00445273
0.00363301
2.75743e-07
1.33502e-09
4.66371e-05
0.00101004
0.000468061
4.514e-07
0.164954
0.136415
0.185247
0.130547
0.108076
0.0734845
0.0894674
9.05849e-06
0.0144089
0.0111201
0.0294041
0.000615665
0.00792193
6.27463e-05
8.80487e-05
0.0173505
0.00492874
2.74856e-06
3.5255e-08
0.00292356
0.000343686
0.0202731
0.000463719
0.00227106
0.000121096
1.21388e-05
0.00565226
0.00151775
0.196691
0.172367
0.170129
0.087507
0.104694
0.0888725
0.102876
4.5855e-05
0.0341809
0.00452959
0.000163156
1.98078e-06
0.00771966
0.00104008
0.189948
0.151546
0.164174
0.0838905
0.0893495
0.0760425
0.098455
0.0921464
0.0704671
0.0575469
0.0460836
0.0324383
0.0270688
0.0559145
0.113843
0.0353673
0.0528074
0.0291752
0.0643846
0.0432985
0.0192597
0.0361811
0.0240368
0.0201721
0.0135978
0.0110255
0.00829353
0.00672782
0.130781
0.123308
0.103435
0.0747715
0.0634035
0.0477628
0.056508
5.33567e-09
0.00179527
0.000154966
2.51898e-09
2.71589e-11
0.000110276
3.13367e-06
0.111669
0.0549732
0.110518
0.0554418
0.0271583
0.056063
0.0269504
0.021507
0.00877455
0.0144255
0.00434723
0.0075285
0.00457381
0.0026063
0.000727376
1.88982e-07
2.6664e-11
0.00239216
3.2228e-06
2.35025e-05
5.08013e-10
0.0972739
0.0528583
0.106557
0.0533373
0.0232189
0.0482509
0.0259118
1.02636e-06
0.00023589
0.00139276
7.3166e-05
2.71876e-06
0.00929271
0.00493293
0.0220523
0.0632633
0.0526758
0.0337998
0.015951
0.0135476
0.0404479
0.00928773
0.0254615
0.0156001
0.013282
0.00715437
0.00835658
0.0041152
0.0890918
0.0480369
0.0740703
0.0323857
0.0235599
0.0199328
0.038335
0.000785564
0.000124039
1.92154e-07
1.42622e-06
0.000523523
8.18631e-06
1.09561e-10
0.0334608
0.014604
0.0229705
0.0274294
0.00746139
0.012219
0.01652
0.00500094
0.0117629
0.00953182
0.0032501
0.00462442
0.00239381
0.00155232
0.082119
0.0290752
0.063348
0.01884
0.0399237
0.0298187
0.013726
0.0018379
2.00739e-10
7.09494e-05
0.00123454
7.95961e-06
0.000217866
4.13375e-09
0.0337725
0.0222917
0.0188321
0.0177591
0.0150613
0.00793182
0.00921469
0.0129494
0.00490907
0.0108346
0.0016834
0.00407858
0.00328992
0.00132558
0.0266052
0.0151196
0.0148373
0.0121451
0.0120228
0.00561093
0.00573018
3.29e-06
0.00486958
0.00382844
1.52436e-07
5.5282e-08
0.00103939
0.000740931
0.0370713
0.0154999
0.0438401
0.0136929
0.0134413
0.0376916
0.0430437
1.35166e-07
0.00283413
0.000311415
5.45814e-09
7.66553e-12
0.00012275
1.15192e-06
0.020157
0.013249
0.00401938
0.00902764
0.00768381
0.0112677
0.0239416
0.0138504
0.0147091
0.0320678
0.0206946
0.00376486
0.00849103
0.00939397
0.0353564
0.0146662
0.0366163
0.0111385
0.0127136
0.0315762
0.0409862
0.0289235
0.0199646
0.0446225
0.0201192
0.00544672
0.0123749
0.00904623
0.0252698
0.0114658
0.013738
0.00989191
0.0113909
0.00515106
0.00422558
0.00989262
0.00655033
0.00958332
0.00296867
0.00181702
0.00307796
0.00172593
0.00727198
0.00468769
0.00225871
0.0021999
0.00127744
0.000993777
0.000539293
0.00461371
0.00341623
0.00769628
0.00221657
0.000442454
0.0012295
0.000855833
0.00686537
0.00577685
0.00862771
0.00263211
0.00108119
0.00203627
0.00148109
0.0253559
0.0253819
0.0218764
0.00738903
0.0101349
0.00873839
0.00860032
0.0285715
0.0186885
0.015785
0.0132722
0.0112592
0.00585509
0.00688489
0.0101376
0.00300669
0.0053606
0.00295795
0.00507008
0.0022513
0.00116641
8.95852e-06
1.64812e-09
4.78078e-13
4.9782e-07
0.000336787
4.11281e-08
6.0632e-12
2.34633e-05
4.06407e-08
1.48184e-12
8.67855e-05
1.00493e-09
7.73473e-07
8.02894e-12
2.65396e-08
0.0029207
0.000526889
2.33187e-08
3.68972e-10
0.000504525
4.88732e-05
0.0298159
0.00876236
0.0256418
0.0186306
0.00715043
0.00609394
0.0217464
1.50101e-06
0.0025533
0.00065127
9.58829e-05
8.76269e-09
1.09379e-05
1.454e-10
2.83463e-08
1.30768e-10
9.75522e-06
2.55534e-07
5.15164e-09
1.12399e-11
1.72612e-13
0.0040408
0.000609291
0.00316548
0.000383873
0.00225108
0.00174242
0.000266415
0.00843026
0.0123017
0.00551418
0.00765643
0.00527056
0.00301989
0.00189284
0.00907388
0.00542269
0.0117569
0.00433597
0.00946056
0.00509859
0.00234137
2.17976e-09
0.00197221
6.52269e-05
1.87925e-07
3.35833e-11
0.000423039
5.4011e-06
0.012498
0.0031804
0.00248412
0.00205519
0.00479526
0.0056498
0.00708852
0.0239848
0.0088463
0.00392638
0.011644
0.00869627
0.0242976
0.01152
0.00343402
0.00107455
0.00242024
0.00115054
0.00025556
0.000673184
0.000513236
0.0123407
0.0201153
0.0172945
0.00565177
0.00454813
0.00385424
0.00661772
5.20661e-05
3.12074e-08
6.86036e-13
1.88282e-07
0.000653863
4.49594e-11
3.71962e-05
9.91812e-13
4.49829e-05
1.30957e-07
4.23712e-12
1.56307e-13
5.04966e-07
5.11116e-10
0.00107548
0.000340991
0.00204092
0.00109154
5.42125e-05
0.000541369
0.00014056
0.0229358
0.00713446
0.00367578
0.00965727
0.00821013
0.0204436
0.0109792
0.00616593
0.000818031
0.00273591
0.00128524
0.00371809
0.00147527
0.00040681
0.0164747
0.00671851
0.0141836
0.00468372
0.00248381
0.00558997
0.00203766
0.00471343
0.0016482
0.00282326
0.000646503
0.00133799
0.000751372
0.000314976
0.0115688
0.00493545
0.00996288
0.00390825
0.00201898
0.00175352
0.00449727
0.0174229
0.00434898
0.00980155
0.00299765
0.0069921
0.00361797
0.00149668
0.0387572
0.00381838
0.00968905
0.305402
0.151151
0.352905
0.0740404
0.239883
0.0197124
0.0385219
0.000320382
0.0199665
0.0716521
0.00900628
0.0432871
0.00152801
0.333572
0.322331
0.30143
0.258364
0.226642
0.207092
0.238355
0.2669
0.23194
0.2714
0.179678
0.172844
0.145368
0.209898
0.217697
0.124515
0.142838
0.0805377
0.152502
0.136359
0.0702087
0.051352
0.0846074
0.0617194
0.0438369
0.0294561
0.0373261
0.0244798
0.187255
0.075256
0.100554
0.114445
0.0419948
0.089202
0.0565045
0.037611
0.0523586
0.0454374
0.0185383
0.0230513
0.0188554
0.0150594
0.155782
0.0629012
0.132391
0.117925
0.0647146
0.0550016
0.139414
0.0548847
0.025125
0.0378192
0.0201791
0.0287153
0.0179337
0.0117719
0.0983062
0.032866
0.0903104
0.0524511
0.075341
0.0445269
0.117093
0.0167993
0.0311995
0.0268627
0.013324
0.00617151
0.00825081
0.0104048
0.0399691
0.0417892
0.083784
0.0740619
0.0171025
0.0349765
0.0364922
0.0608997
0.0207148
0.0215762
0.013529
0.0460777
0.0282077
0.0293009
0.0211165
0.00440771
0.0124999
0.00757912
0.0179845
0.010275
0.00353944
0.00251037
0.0060754
0.00853381
0.00681061
0.00113485
0.00193947
0.00477789
0.00959069
0.00569305
0.0137941
0.00738908
0.001496
0.00470849
0.00245997
0.00462852
0.000678375
0.00174694
0.00067471
0.00271382
0.00125082
0.00314572
0.00165441
0.000377668
0.000988449
0.000123297
0.000388323
0.000188026
5.18751e-05
1.32059e-07
8.19426e-05
0.000601561
7.48768e-11
1.33512e-12
1.25234e-05
4.18964e-07
0.0120903
0.00443307
0.00830694
0.00204455
0.00374388
0.00705309
0.0141656
0.0055235
0.00758458
0.0164709
0.0118223
0.00151775
0.00375569
0.00524552
0.0024072
0.000443415
0.00112777
0.00018461
0.000568723
0.000217735
6.25727e-05
0.00688666
0.00192845
0.00591129
0.00287392
0.000997545
0.000843
0.00333731
0.00193066
0.000793768
0.000615929
0.000560444
0.000418232
0.000133105
9.21282e-05
0.00142121
0.000836372
0.000124179
0.000677995
3.86627e-05
0.000126873
0.000344419
0.00782575
0.00511499
0.00345972
0.00352388
0.000929663
0.00234908
0.00147638
0.00804264
0.00183098
0.00329678
0.00184509
0.00326935
0.00106555
0.000547006
0.00952918
0.00389771
0.00814371
0.00278242
0.0014144
0.00119715
0.00327449
0.000955726
0.000943075
0.000469389
0.000300182
0.000130882
0.000119996
4.632e-05
0.00791789
0.00542141
0.00459102
0.00278533
0.00233781
0.00125689
0.00151947
0.00162246
0.00215054
0.0016291
0.000821428
0.000563859
0.000820016
0.000250114
0.000123613
0.00031159
0.000968229
0.000724131
1.5761e-05
8.03778e-05
0.000221191
0.00302685
0.00324961
0.0064344
0.00253237
0.000476777
0.0011205
0.00113266
5.20315e-09
2.58516e-11
6.37983e-13
2.51283e-13
1.03135e-11
8.86226e-09
1.1978e-12
0.00755487
0.00118162
0.000850065
0.00176054
0.00224642
0.00432662
0.00321073
4.84029e-05
1.54512e-05
0.000216644
1.19533e-05
0.000167899
6.93061e-05
3.22667e-06
0.00204468
0.000473669
0.0029432
0.000488869
0.000371043
0.00249075
0.0024339
0.000745445
0.000808745
0.00151733
0.000367649
4.16511e-05
0.000156596
0.000126793
0.00164425
0.00117466
0.00374921
0.00181262
0.000179983
0.000499648
0.00076549
0.0024586
0.00224956
0.00513264
0.0016975
0.000264179
0.000715645
0.000673737
0.00130572
0.000195732
0.000389666
0.00011629
0.000249116
4.83906e-05
1.8627e-05
0.00476204
0.00417191
0.0040791
0.000945076
0.00119141
0.000977752
0.00115413
0.00441442
0.000982427
0.00372243
0.00178024
0.000505161
0.000402326
0.00212472
3.49695e-09
0.000271995
0.000173684
4.81362e-12
3.07564e-12
4.64125e-07
1.39501e-07
0.0013256
0.00460703
0.00454114
0.00170484
0.000390722
0.000376305
0.00174882
0.000429206
5.05563e-05
1.3329e-05
6.66046e-06
0.000198837
3.86766e-05
0.000122113
0.00110557
0.000655257
0.00210541
0.000742121
7.12041e-05
0.000181979
0.000347016
0.00121599
0.00359793
0.00424776
0.0015439
0.000249146
0.000329904
0.00123383
0.00116355
0.00287788
0.00242187
0.000590247
0.000297009
0.00023308
0.000728724
0.00208948
0.00113785
0.00280564
0.000504686
0.00138081
0.000709517
0.000232545
0.00445636
0.00325647
0.00381006
0.00085254
0.000849405
0.000680796
0.00104917
0.000945228
0.00150694
0.000451623
0.000948875
0.000255397
0.000444038
0.000104781
0.00223653
0.00102582
0.000889882
0.000807746
0.000695006
0.00023408
0.000278443
0.0014871
0.000125585
0.00114643
0.000310933
0.000934796
0.000238466
0.00179131
0.000203642
5.07953e-08
6.80534e-12
7.025e-08
9.40129e-12
7.46193e-11
1.04996e-13
0.000157874
0.000161688
0.00046565
6.71483e-05
2.83687e-06
1.61313e-05
1.54933e-05
0.00126919
0.000387777
9.63822e-05
0.000588743
0.000500062
0.00032141
0.00147955
0.000423968
6.16112e-05
0.000190462
1.11097e-05
4.39803e-05
1.33349e-05
2.81885e-06
0.000433545
0.000150727
0.000333768
7.98708e-05
0.00020916
7.36445e-05
1.96982e-05
0.00312116
0.00255298
0.000957759
0.000826811
0.000646627
0.000227662
0.000163894
2.35332e-11
0.000107393
5.72332e-06
1.38225e-12
4.13782e-13
5.13955e-08
6.08489e-10
0.0026737
0.000416618
0.00173353
0.000155315
0.000845389
0.000497191
7.86468e-05
2.26123e-12
0.000114907
5.06816e-07
8.52285e-13
1.95133e-13
1.09429e-07
2.31914e-11
0.000291265
3.29301e-05
1.19434e-05
9.31268e-06
4.35103e-05
0.00011847
0.000109372
0.00068969
9.45843e-05
1.76836e-05
0.000294922
8.84634e-05
0.000722519
0.000273975
0.000377214
4.53448e-05
0.000174533
5.93709e-06
3.34463e-05
1.1461e-05
1.76043e-06
0.00258859
0.00101187
0.00253001
0.000504264
0.00015596
0.000524769
0.000148371
0.00245908
0.00193595
0.00160522
0.000586022
0.000461659
0.000258131
0.000336344
0.00169366
0.000768226
0.000654433
0.000545954
0.00045547
0.000139176
0.000173313
0.000114979
6.62441e-05
3.03293e-05
2.61428e-05
1.00559e-05
4.9475e-06
1.17235e-06
0.000591176
4.62882e-05
1.27871e-05
0.000144011
7.14953e-05
0.000428551
0.000220863
0.00120055
4.21536e-05
0.000242441
0.000557319
0.000176312
0.00149512
0.000424511
0.000536628
0.000869317
0.00223774
0.00104544
5.29269e-05
0.00020093
0.000377505
0.000674895
0.000555978
0.00145022
0.000310733
2.78661e-05
8.96635e-05
0.000112527
0.00113521
0.000151807
0.000376645
0.000140444
0.000365124
9.81043e-05
3.05546e-05
0.00116331
0.00063054
0.000353319
0.000246834
0.000433503
9.66147e-05
4.56825e-05
0.000518136
0.000143483
0.000369808
1.15088e-05
5.32994e-05
3.33787e-05
6.30965e-06
0.00197261
0.000920234
0.00234742
0.00044666
9.17713e-05
0.000345114
0.000126962
0.00012903
7.88065e-05
4.24696e-05
2.45478e-05
1.14682e-05
5.17856e-06
1.05613e-06
0.00146313
0.000232606
0.000563248
0.000168627
0.000430909
0.000134569
4.43791e-05
1.47451e-05
3.43666e-09
3.53166e-13
2.24318e-13
2.78207e-08
5.84299e-14
2.06446e-12
1.55157e-05
3.28935e-06
7.18167e-05
1.95496e-05
8.04147e-08
6.19594e-07
3.47473e-06
0.00084067
5.07489e-05
0.000147565
2.24338e-05
0.000498375
0.000106066
0.000274582
0.000786402
5.4522e-05
4.78628e-05
0.000105529
0.000297465
0.000177722
0.000315195
0.000761154
0.000172826
0.000340915
3.33835e-05
0.000132645
0.000274523
0.000919685
0.000188996
1.45532e-05
0.000135418
9.16826e-07
1.70815e-05
1.01917e-05
4.96351e-07
0.000530644
2.2609e-05
0.000147239
4.06483e-05
0.000229266
5.35459e-05
5.36791e-06
0.000333492
3.58009e-05
0.000132274
1.05965e-05
5.73802e-05
1.68826e-05
1.91007e-06
0.00105083
0.000142585
0.000392781
8.16563e-05
0.000257302
7.05859e-05
1.86929e-05
1.24965e-06
1.35794e-11
5.14428e-13
2.72056e-11
6.58808e-13
5.28112e-13
4.08729e-14
9.98802e-06
2.10998e-06
4.78459e-05
1.65387e-05
5.96382e-08
4.9695e-07
2.68252e-06
0.000210277
0.000510377
0.000993831
0.0002558
1.03e-05
3.2369e-05
0.000113031
2.30777e-05
7.27244e-05
0.000254814
0.000125219
8.1101e-07
8.78542e-06
2.82071e-05
7.20741e-05
1.74735e-06
4.67369e-05
2.35247e-07
8.99131e-06
5.10378e-06
1.22469e-07
5.19607e-05
0.000625603
0.000496684
0.000220496
2.43513e-05
1.63412e-05
0.000285974
0.000724598
7.3546e-05
0.000196378
6.21878e-05
0.000184252
3.46844e-05
8.6724e-06
5.33085e-05
2.72852e-05
1.56883e-05
2.92154e-06
1.54608e-06
6.96824e-07
3.60726e-07
0.00110038
0.000414081
0.000892339
0.00011597
5.71943e-05
3.98838e-05
0.000156938
0.00144472
0.000283814
0.000898889
5.29678e-05
0.000221453
0.000114144
2.33943e-05
0.000171126
0.000327157
7.16379e-05
0.000118825
4.73394e-05
1.7317e-05
5.05734e-06
0.000494296
0.000218795
0.000173906
9.83726e-05
7.42715e-05
1.76425e-05
2.48044e-05
1.7353e-05
1.39641e-05
6.34688e-05
2.84547e-06
7.225e-08
5.42392e-07
4.02596e-07
0.00021169
9.78575e-05
2.60986e-05
1.55609e-05
6.96392e-07
5.43314e-06
2.44694e-06
0.000352135
7.80627e-05
0.000299475
5.91817e-05
1.2266e-05
8.86431e-06
7.39767e-05
4.12503e-05
1.18459e-06
7.17693e-06
3.24462e-07
2.3028e-06
2.17713e-07
2.74564e-08
3.16826e-05
6.55253e-06
7.55398e-05
4.3685e-06
5.44195e-08
1.33266e-06
1.92701e-07
2.10097e-05
0.000197539
0.000162505
3.86594e-05
3.74278e-06
2.4813e-06
4.9571e-05
0.000426087
1.27502e-05
1.2835e-05
3.7887e-05
5.9681e-05
0.000139907
0.000135306
7.65005e-06
6.78094e-07
2.2362e-05
2.06418e-06
1.24293e-08
6.01015e-07
4.56032e-08
1.8724e-05
6.50451e-05
0.000247283
0.000100928
6.19825e-07
5.03008e-06
2.23832e-05
0.000199402
0.000131133
0.000465423
4.55879e-05
1.81139e-06
1.36098e-05
7.61694e-06
0.000256578
5.12766e-05
0.000212611
3.10956e-05
5.7365e-06
3.86568e-06
4.09478e-05
1.48182e-05
9.65244e-06
2.43017e-06
2.02304e-06
4.42971e-07
2.6997e-07
5.4162e-08
2.07045e-05
1.37659e-07
1.10402e-07
6.53137e-06
5.30497e-06
1.52469e-06
2.95211e-08
2.48875e-10
9.58449e-13
1.89051e-13
1.00972e-12
5.83451e-14
2.71786e-13
1.3953e-14
4.1242e-05
3.89789e-05
0.000126313
2.08781e-05
3.15369e-07
4.15542e-06
3.29667e-06
3.97949e-05
8.29327e-07
5.57321e-06
2.92494e-07
2.20557e-06
1.62152e-07
1.93362e-08
7.2705e-06
1.80137e-06
6.3151e-06
1.51769e-07
5.72171e-07
1.30994e-07
3.46825e-08
0.000270032
2.23492e-05
8.63699e-05
6.28439e-06
3.19009e-05
6.34072e-06
9.02764e-07
0.000262021
4.6305e-05
4.34324e-05
2.50407e-05
2.32607e-05
1.53868e-06
1.70643e-06
5.04544e-05
6.36071e-05
4.21397e-05
1.17812e-05
6.56849e-06
8.46632e-06
7.17788e-07
0.000116479
7.17222e-06
0.000166906
4.9456e-06
4.4431e-06
0.000123874
0.000157856
0.000231424
2.43644e-06
4.13724e-05
7.34409e-06
8.76362e-05
1.18761e-05
4.08102e-07
3.52913e-14
9.88362e-09
1.89571e-12
6.91897e-14
5.53626e-15
3.54121e-11
2.64603e-13
3.87197e-06
1.06401e-08
6.84048e-08
1.14336e-08
9.05001e-08
5.56794e-07
5.2305e-07
5.10113e-05
5.62712e-07
1.86781e-07
1.7934e-06
2.52661e-06
1.65675e-05
8.15124e-06
7.99133e-05
6.12106e-07
3.16677e-05
5.94408e-06
3.72607e-06
2.20788e-05
0.000107857
6.92511e-06
2.41224e-06
3.4728e-05
8.59804e-06
1.87888e-08
3.24481e-07
9.33335e-07
9.84066e-06
2.30636e-05
8.39449e-05
1.48724e-05
7.14253e-08
2.73969e-06
7.90485e-07
9.78711e-05
5.46989e-06
9.6862e-05
1.99365e-06
3.35383e-06
6.90142e-05
0.000134573
8.58868e-06
2.59582e-05
8.76005e-05
1.78512e-05
9.45598e-08
7.57235e-07
3.84027e-06
6.38255e-05
4.06512e-05
0.000178435
2.94409e-05
5.0178e-07
3.31924e-06
7.28719e-06
0.000143287
6.59343e-06
2.47219e-05
3.42403e-06
1.48505e-05
1.10792e-06
1.81778e-07
0.00023017
2.33621e-05
3.54231e-05
1.19013e-05
1.86068e-05
1.14034e-06
6.49575e-07
6.71037e-12
1.3554e-10
6.05748e-11
1.14643e-07
5.6063e-11
3.50449e-13
1.95276e-12
9.09488e-14
3.98598e-07
3.06339e-07
6.87418e-08
3.25432e-08
7.44261e-09
5.65175e-09
1.26745e-09
2.49066e-05
2.10632e-06
5.45256e-05
5.49175e-06
3.35548e-08
1.91933e-06
1.07424e-07
9.89834e-05
5.37384e-06
7.65447e-05
1.50368e-05
7.82129e-07
4.71555e-07
2.1045e-05
4.70587e-06
0.000132589
9.43875e-05
4.84311e-07
1.91141e-05
1.17773e-05
2.64198e-07
1.15892e-05
7.99867e-06
4.44395e-05
3.70995e-06
2.45928e-08
5.27057e-07
2.45585e-07
9.7257e-06
9.33603e-08
2.16596e-06
1.21753e-08
3.06635e-07
5.58263e-08
2.21071e-09
5.65153e-06
4.06248e-07
3.07629e-06
1.52888e-08
1.22126e-07
6.30714e-08
7.79666e-09
1.37535e-06
1.2829e-05
3.48864e-06
3.13644e-08
4.72896e-07
9.0545e-08
5.42678e-09
2.41767e-05
3.54626e-05
0.000116905
1.31923e-05
1.50426e-07
1.20983e-06
2.43177e-06
7.20149e-06
1.49327e-06
1.10824e-05
1.55605e-07
1.4458e-06
3.07541e-07
2.83075e-08
6.21254e-05
8.78769e-06
4.74527e-05
2.61435e-06
3.75456e-07
2.27315e-07
4.04874e-06
2.09686e-05
3.2155e-05
1.55295e-05
4.033e-06
1.35345e-06
2.3766e-06
1.20478e-07
2.3798e-06
8.64831e-08
1.71365e-06
1.90727e-05
1.31317e-06
5.86694e-08
3.40254e-09
5.57426e-05
8.92481e-07
3.84669e-05
1.6108e-05
5.06704e-07
2.96661e-07
2.45243e-05
2.69924e-12
1.0388e-13
2.50554e-14
1.25527e-14
5.90962e-13
6.20509e-14
2.11317e-15
3.0097e-08
2.87466e-07
1.54283e-06
3.42161e-07
1.11927e-09
6.42188e-09
6.02239e-08
1.97496e-08
1.33916e-07
1.01894e-06
2.81582e-07
6.68967e-10
5.23162e-09
3.61041e-08
4.61513e-05
1.33103e-06
1.35401e-07
8.59589e-06
1.18585e-06
4.974e-05
7.80206e-06
1.88022e-06
7.26282e-09
3.55711e-07
2.72493e-09
1.34082e-07
2.38708e-08
4.8216e-10
1.35776e-06
5.89492e-09
2.9875e-07
2.44067e-09
1.29084e-07
2.55326e-08
4.88843e-10
3.45069e-06
6.24964e-08
4.70317e-07
1.03711e-08
8.0198e-08
9.56952e-09
1.22204e-09
5.28498e-05
1.18193e-05
4.48568e-06
5.74702e-06
2.04571e-06
2.7627e-07
8.82028e-08
3.22233e-05
1.52338e-07
1.03479e-06
1.11955e-07
9.9714e-07
5.73104e-06
7.62671e-06
3.73832e-05
5.03503e-07
9.84603e-08
3.57456e-06
8.75168e-07
2.46496e-05
5.95685e-06
1.21242e-06
5.4478e-06
2.59165e-05
2.39938e-06
5.31715e-09
5.2278e-08
3.0881e-07
1.60526e-06
7.3954e-06
3.49407e-05
5.48531e-06
1.28682e-08
1.21264e-07
7.89666e-07
1.12961e-07
8.75122e-08
2.94207e-08
7.12555e-09
1.88377e-09
2.38882e-09
1.51909e-10
1.00307e-07
3.01437e-07
4.12917e-06
7.37656e-07
7.09412e-10
1.4348e-08
4.04312e-08
3.29623e-07
1.50484e-07
1.19228e-06
2.30541e-08
7.50867e-10
6.09301e-09
2.82172e-09
5.31148e-06
2.29629e-07
5.0017e-07
5.1328e-09
3.05525e-07
1.38461e-07
7.61223e-06
1.34595e-06
2.38715e-08
2.75379e-07
2.47867e-09
2.82673e-08
5.44492e-09
4.58076e-10
4.09098e-06
3.05817e-06
2.08062e-05
7.47921e-07
6.4528e-09
5.87114e-08
8.80896e-08
2.01822e-05
2.79745e-07
1.27056e-06
1.1539e-07
5.46552e-07
2.19472e-08
4.5687e-09
1.23819e-06
2.89677e-06
5.34548e-07
1.57089e-07
2.38207e-08
6.12333e-08
2.57587e-09
1.22097e-08
2.2583e-08
5.50521e-07
2.91933e-07
2.60636e-10
6.28843e-09
1.17971e-08
3.02675e-08
2.40324e-07
1.74634e-06
9.40665e-07
2.08554e-09
1.57577e-08
1.23054e-07
4.88724e-06
1.283e-07
1.85137e-06
1.5315e-08
7.41838e-08
1.10781e-06
7.88119e-06
2.16199e-07
1.61258e-06
1.24255e-05
4.61584e-06
7.41273e-09
6.98555e-08
5.42667e-07
8.75051e-06
3.9764e-08
2.28422e-06
8.36677e-09
5.17278e-07
1.1292e-07
1.76403e-09
7.60038e-08
6.64358e-06
4.25677e-06
5.22568e-07
1.30144e-08
7.52174e-09
8.67047e-07
4.41729e-06
4.04342e-07
3.966e-06
7.57203e-08
8.09326e-09
8.52992e-08
7.03775e-09
1.06676e-06
8.75013e-06
8.81347e-07
2.0042e-08
4.46361e-07
2.70032e-08
1.00421e-09
1.43704e-06
1.39885e-06
1.36719e-05
3.40607e-08
8.0332e-07
3.74425e-08
1.36596e-09
4.08595e-06
4.68935e-09
2.6175e-07
5.97055e-09
3.45233e-07
1.50605e-08
2.48508e-10
6.1035e-08
2.03019e-10
1.48968e-10
1.38834e-09
1.13538e-09
1.07923e-08
7.91183e-09
1.40638e-06
1.55332e-09
2.4964e-09
6.19116e-09
1.36659e-07
3.20053e-08
8.63362e-08
4.28344e-08
8.96708e-08
6.90259e-07
1.537e-08
1.08207e-10
8.96025e-10
1.87636e-09
4.21539e-07
2.41695e-07
2.52868e-06
5.29688e-08
5.37174e-10
4.24852e-09
7.58063e-09
1.60384e-06
2.76772e-07
2.89639e-06
5.38059e-08
2.38043e-09
2.8693e-08
4.78094e-09
5.87356e-06
2.16705e-08
3.94608e-07
9.25055e-09
1.84901e-07
7.46155e-09
3.68405e-10
1.32573e-06
0.00101161
4.38598e-13
4.32959e-07
2.35456e-06
3.27783e-11
0.00274324
6.58447e-05
2.42256e-05
4.82204e-10
2.93069e-05
7.33959e-08
2.41444e-12
6.13188e-10
2.48774e-08
1.11116e-07
3.05135e-12
0.00230755
0.000666054
0.000871083
0.000702104
0.000533191
0.000153463
0.000113089
0.00166291
0.000262523
0.000473862
0.000193136
0.000355188
6.58682e-05
2.93255e-05
8.49735e-05
0.000237171
0.000526839
0.000117985
4.19395e-05
9.6839e-06
2.33366e-06
2.09699e-08
1.73303e-11
7.37908e-13
2.18795e-13
8.41462e-11
3.12535e-13
4.35047e-14
0.00020302
1.53048e-05
0.000150322
9.41145e-07
1.87245e-05
1.18539e-05
5.29983e-07
2.65746e-06
9.13104e-05
4.2872e-06
2.66498e-07
1.05925e-05
6.62954e-06
1.55311e-07
2.56814e-05
7.5468e-06
8.93694e-05
2.03531e-06
1.12313e-05
4.17054e-07
5.63618e-08
1.59308e-05
3.72147e-05
1.24036e-06
3.0849e-06
2.17657e-08
1.05689e-06
6.71995e-08
3.96264e-05
7.09765e-06
8.81092e-05
5.53929e-06
6.50261e-08
1.8718e-06
2.16992e-07
0.000477817
0.00351561
0.019159
4.04648e-05
0.00276276
0.0747943
0.00823634
0.00756748
0.000217137
0.000932984
0.00192281
6.70625e-08
0.00067386
0.000998154
0.00698159
1.32157e-05
0.00145444
0.0668171
0.0394601
0.039365
0.0352585
0.0347604
0.0196787
0.0172928
0.0364208
0.0526014
0.0277626
0.018201
0.0269048
0.0132791
0.00884485
0.0137853
0.0119645
0.0230148
0.0111326
0.00635338
0.00525014
0.00284424
0.0193032
0.00716611
0.0171362
0.00318836
0.00879403
0.00760043
0.00266763
0.0186975
0.00635821
0.0162185
0.00298306
0.00856646
0.00731829
0.00244206
0.00906797
0.00542249
0.0133651
0.00569063
0.00114509
0.00364305
0.00190371
0.00794688
0.00455762
0.012219
0.00538121
0.000978384
0.00336608
0.0016883
8.29136e-05
0.000170528
2.10617e-08
2.85075e-09
2.15923e-05
4.91249e-08
2.37337e-12
0.0042986
0.00382269
0.00791422
0.00164892
0.00339247
0.0013968
0.000609156
0.00198788
0.00302816
0.00548488
0.000594455
0.00203164
0.0010087
0.000270243
0.00458425
0.00068385
0.00239501
0.000482097
0.00183281
0.000889207
0.000202377
0.000968483
0.000941225
0.00327115
0.00271249
0.000158984
0.000747237
0.000779489
0.000320803
0.000851831
0.00214476
0.000704795
0.000257837
0.000230525
6.95967e-05
0.000175405
0.00151684
0.000447265
0.000447796
2.99142e-05
0.000103192
0.000173125
0.00113209
9.30654e-05
0.000279898
0.000385113
1.80674e-05
6.93948e-05
0.000141526
0.0019105
0.000288843
0.000262232
9.17367e-05
0.00113107
0.000491568
0.000524826
0.000128797
0.000112383
0.000577326
0.000255651
3.13023e-06
3.79878e-05
4.53442e-05
1.60646e-06
9.72978e-05
1.42644e-05
0.000338081
9.83706e-05
7.35104e-05
1.47545e-05
0.000260568
5.46496e-05
1.19028e-05
6.04949e-06
5.29808e-05
1.13115e-05
6.95219e-07
2.37618e-05
3.84772e-06
4.63829e-05
3.07338e-06
4.03651e-05
7.87387e-06
3.05842e-07
9.44492e-05
1.60557e-06
2.16347e-06
5.30572e-07
9.59856e-06
1.20901e-05
2.65511e-05
1.14708e-07
1.18687e-06
5.02676e-06
5.42991e-09
2.72199e-07
5.66329e-08
1.14544e-09
3.22101e-06
5.74419e-07
1.32601e-05
1.51761e-08
4.68636e-07
9.38346e-08
2.92496e-09
5.07029e-08
9.13768e-08
1.41642e-06
2.23246e-06
8.18606e-08
1.86684e-05
1.30336e-06
5.86322e-07
2.41474e-07
5.10014e-06
1.61052e-07
1.46427e-08
6.02226e-09
5.2095e-10
5.44273e-10
2.5011e-07
6.68684e-09
1.78135e-07
5.11597e-06
5.59349e-07
1.47038e-08
7.61792e-07
1.18263e-09
1.95611e-08
3.34976e-07
8.50517e-06
8.11499e-07
2.12391e-08
1.23443e-08
2.24198e-08
5.85198e-07
3.35434e-07
2.64843e-10
1.2381e-08
6.9575e-09
2.06012e-09
1.68175e-08
5.63249e-07
1.4753e-08
5.57463e-11
4.46429e-10
1.8708e-09
3.0812e-08
4.36964e-09
2.18119e-07
9.36686e-09
2.59994e-11
1.91396e-10
1.2435e-09
6.11518e-09
1.02059e-09
5.19202e-08
3.41045e-09
8.47664e-12
7.03074e-11
3.98819e-10
4.20925e-08
1.59441e-10
8.6503e-09
9.2873e-11
5.10765e-09
1.02101e-09
1.92433e-11
1.80195e-08
1.38526e-07
1.19282e-06
1.33488e-07
1.93459e-10
1.80166e-09
1.42727e-08
1.10484e-07
1.21829e-09
6.32113e-10
9.60821e-11
3.05839e-08
2.31891e-09
4.419e-09
4.29185e-08
3.49935e-07
1.37698e-08
8.08906e-09
3.86e-11
3.21124e-10
9.5431e-10
1.2768e-06
3.57459e-09
1.80765e-09
2.7758e-08
1.7511e-08
2.72842e-07
1.37097e-07
1.81759e-06
4.07282e-09
1.28275e-09
9.27869e-09
8.1511e-08
3.59677e-08
2.48305e-07
1.03765e-09
6.72977e-09
5.36924e-08
4.44047e-09
1.08247e-11
8.52188e-11
5.47867e-10
1.56669e-06
4.69779e-08
1.4533e-07
1.26015e-09
2.73146e-08
8.60457e-08
2.46851e-06
2.02658e-06
7.86185e-09
2.01099e-07
2.04414e-09
5.17307e-08
3.87467e-09
1.43283e-10
1.48998e-09
8.96194e-10
1.06747e-10
4.98571e-09
2.88752e-09
1.4093e-07
4.38505e-08
3.69642e-07
1.7433e-09
1.2064e-08
7.46566e-10
1.09464e-07
5.9938e-09
4.46452e-08
4.09517e-09
6.21056e-09
4.88428e-08
9.46798e-10
1.02358e-11
7.89853e-11
1.20621e-10
7.07249e-08
1.54146e-09
1.23165e-08
1.66913e-10
1.31054e-09
2.31166e-10
3.05539e-11
6.59149e-07
1.42949e-08
2.05606e-07
8.65053e-10
1.1338e-08
3.41872e-09
2.38889e-10
6.91545e-08
6.89903e-09
4.49425e-07
1.99526e-08
4.47273e-11
3.05733e-10
2.94935e-09
2.66339e-09
1.76865e-10
1.02373e-08
2.35361e-09
1.23069e-11
6.13446e-10
4.40447e-11
8.7146e-09
6.54726e-07
5.87492e-07
2.63461e-08
4.51372e-10
4.03478e-10
2.94541e-08
6.68369e-07
4.49997e-10
2.83736e-08
7.73584e-10
5.17936e-08
2.0399e-09
3.1924e-11
3.7432e-09
1.31803e-08
8.32344e-08
1.67093e-09
2.75621e-10
7.61353e-11
1.2537e-11
5.65136e-15
7.19298e-14
4.48869e-13
7.2573e-15
1.10705e-13
6.83326e-15
2.59931e-15
9.89073e-08
1.76723e-10
7.89557e-11
4.37422e-10
1.7368e-09
1.04204e-08
4.55653e-09
5.65386e-08
5.03831e-10
2.87675e-08
2.43905e-10
1.30367e-08
6.6027e-09
1.23508e-10
4.35701e-07
3.05418e-10
7.16362e-10
2.32919e-09
6.66173e-09
2.13752e-08
4.98159e-08
4.37418e-08
1.11891e-09
9.66254e-09
9.49794e-11
7.92296e-10
1.77483e-10
2.14604e-11
6.31948e-09
2.45153e-07
4.33008e-07
1.91175e-08
1.59743e-10
2.9228e-10
1.05467e-08
3.43514e-07
1.16196e-09
1.50492e-08
4.0651e-10
5.47558e-09
2.33299e-10
1.7816e-11
3.80898e-09
4.3367e-09
1.26089e-07
6.07849e-12
1.7592e-10
5.00234e-09
1.52108e-10
3.96554e-12
1.97624e-09
1.16549e-10
3.87628e-09
6.71846e-08
1.98788e-09
1.1697e-10
2.28462e-09
3.87177e-08
9.22635e-10
3.7821e-11
2.55145e-12
1.53954e-09
9.15451e-11
2.48182e-12
6.42463e-11
2.56998e-09
1.45518e-09
4.41153e-08
1.06496e-09
3.73259e-11
8.03184e-11
5.53757e-11
2.20789e-09
3.70971e-11
9.8163e-10
1.42153e-09
3.9791e-08
2.72838e-10
1.38421e-10
6.75865e-09
1.20643e-09
1.41073e-12
2.66238e-11
4.95838e-11
1.76369e-10
6.00698e-10
9.59997e-09
1.80162e-09
2.39485e-12
1.08004e-10
3.56781e-11
4.61619e-08
1.07278e-09
4.33943e-11
5.56063e-09
3.25215e-09
6.18756e-10
7.90841e-08
5.55496e-08
3.25484e-10
5.96631e-09
5.84995e-11
9.29056e-10
9.81264e-11
5.74062e-12
1.03051e-07
4.52168e-10
3.26827e-08
6.60086e-11
4.3283e-09
1.35036e-09
2.08601e-11
4.11212e-10
2.65891e-09
2.5934e-08
5.23804e-09
9.08682e-12
8.51101e-11
4.833e-10
2.77091e-11
1.97039e-10
1.53097e-09
1.80553e-10
6.58074e-13
3.64956e-12
2.32758e-11
2.11743e-09
2.21299e-09
5.96723e-08
1.19797e-09
1.68353e-12
4.42911e-11
4.24426e-11
1.02676e-08
3.22605e-09
4.99955e-08
8.21659e-10
1.12292e-11
1.70365e-10
5.48393e-11
4.76546e-10
4.33183e-10
7.69463e-09
9.45438e-12
1.59287e-10
1.16782e-11
9.27895e-13
1.70748e-09
6.25098e-10
1.83344e-10
1.03583e-10
3.34945e-11
1.2014e-11
2.43023e-12
3.02741e-12
6.64179e-12
6.96213e-11
3.47961e-09
3.17154e-10
1.33664e-10
1.20015e-11
7.78444e-13
5.99268e-12
2.06116e-10
6.25341e-10
7.51497e-09
1.92834e-10
1.66972e-11
8.54362e-09
5.83558e-12
3.67347e-10
1.27861e-11
8.89924e-10
3.9046e-11
7.36404e-13
1.12764e-08
1.69132e-11
1.05931e-11
8.85286e-11
7.97097e-10
1.49106e-10
1.23069e-09
2.56533e-10
5.79725e-10
1.62021e-08
6.60625e-10
4.8057e-13
2.43248e-11
1.10374e-11
3.39763e-10
1.61902e-10
4.2167e-09
4.10334e-12
9.23125e-11
7.80025e-12
6.75202e-13
8.8851e-11
1.09976e-11
2.10972e-09
5.9518e-12
4.42198e-11
2.13543e-12
4.93202e-13
7.13966e-11
4.7935e-11
9.14349e-12
3.51828e-10
2.17207e-10
1.05471e-08
2.12407e-09
0.035444
5.43393e-09
0.0385838
1.02694e-11
2.86297e-05
0.0388311
3.27826e-05
0.00638975
0.000956438
0.000980438
0.00639821
3.39884e-05
0.00919199
0.000791552
8.43579e-05
0.032053
0.000712181
0.00862166
7.81428e-05
0.0388543
0.0254856
0.0256057
0.0147016
0.0148714
0.00905233
0.00895536
0.0384366
0.0253746
0.0255918
0.0145743
0.0148427
0.00903553
0.00887468
6.84136e-10
4.204e-06
0.00259665
0.00260226
4.4125e-06
2.95317e-05
7.21513e-10
0.0014007
1.11368e-05
0.000252971
0.00143908
1.063e-05
0.00027597
5.87796e-09