/*--------------------------------*- C++ -*----------------------------------*\
  =========                 |
  \\      /  F ield         | OpenFOAM: The Open Source CFD Toolbox
   \\    /   O peration     | Website:  https://openfoam.org
    \\  /    A nd           | Version:  9
     \\/     M anipulation  |
\*---------------------------------------------------------------------------*/
FoamFile
{
    format      ascii;
    class       volScalarField;
    location    "0.00135";
    object      rho;
}
// * * * * * * * * * * * * * * * * * * * * * * * * * * * * * * * * * * * * * //

dimensions      [1 -3 0 0 0 0 0];

internalField   nonuniform List<scalar> 
11317
(
1.0264
1.23012
2.15639
1.2257
3.20226
1.29878
1.22512
2.67522
1.28377
2.13902
1.22502
1.36647
1.42321
1.28129
2.03238
2.26395
3.04205
1.87147
2.73107
1.22682
1.22543
3.24003
3.21319
2.44669
1.23153
1.27378
1.24871
1.22534
1.225
1.22551
1.225
1.26535
1.22618
2.37525
1.22515
3.25461
1.22534
1.22502
1.11106
1.28185
1.21667
3.03863
2.28128
1.61754
2.36887
1.82468
2.63095
2.46648
1.31949
2.87566
2.27311
1.72013
2.14762
1.12317
1.16783
2.79702
2.8778
1.51089
1.5527
3.38813
1.83266
2.63825
3.32739
1.3925
3.0974
3.49743
2.85704
1.19862
1.34187
2.96427
3.13193
1.59564
1.88176
3.21663
1.98477
2.05038
1.58835
1.40192
3.06729
3.1812
2.69608
1.25895
1.22571
2.53514
2.75983
2.99573
1.26201
1.06544
1.1439
1.1098
1.15333
1.23068
1.27525
1.19751
1.58245
1.9673
2.14977
1.69197
2.97044
2.45961
2.23412
2.88985
2.12584
2.60418
1.32562
1.23187
3.29573
3.47231
1.48142
3.18998
2.61722
3.17577
2.35372
1.8669
2.59831
1.12893
1.22217
1.2257
1.37505
1.28582
1.37063
1.2917
2.65709
1.44657
2.17457
3.03071
1.47973
2.06012
2.94873
1.144
1.25475
1.23676
1.38921
1.33608
1.41389
1.30843
1.18866
1.17327
1.25176
1.34371
1.36949
1.44526
1.26408
1.16947
1.43112
1.35424
1.56971
1.31993
1.38687
1.66896
1.75345
1.80169
1.88269
2.35503
2.43589
2.38123
2.45613
1.27859
1.23429
1.30913
1.37496
1.45126
1.5082
1.43157
1.22628
3.03121
2.87985
1.22557
1.22503
2.38413
1.4311
1.29447
1.51371
1.29719
1.48361
1.77967
1.47918
1.78381
1.94851
2.20584
2.01785
2.75286
2.57135
2.57488
2.71696
2.81111
1.24383
1.22502
2.62131
1.34231
1.88634
1.22518
1.32771
1.52672
1.30816
1.49955
1.84258
1.52968
1.80262
1.31431
3.17653
2.92642
2.35275
1.38547
2.15113
2.47862
1.70063
1.31771
1.39718
1.47903
1.77476
1.8615
1.40047
2.32256
1.71125
2.11058
2.06359
2.71598
2.22694
2.97682
1.27752
1.41758
1.35205
1.59719
1.65355
1.73325
1.51959
3.64378
3.26349
1.26599
1.55525
3.21394
2.32827
1.2252
1.36868
1.64388
1.52758
1.47917
1.95584
1.79442
1.60356
2.74458
2.32267
2.40297
3.12293
3.09322
3.37764
3.3654
1.35699
1.66046
1.3997
1.91181
1.57861
1.65378
2.01926
3.21346
1.22508
2.15965
3.49335
1.5204
2.63008
1.22554
1.34188
1.39897
1.47126
1.52182
1.59357
1.81494
1.73948
1.98069
2.35535
2.06535
2.69286
2.51352
2.57674
2.72357
1.98768
2.6452
2.6529
2.46457
2.46799
3.22903
3.23437
1.32126
2.65867
2.76116
1.23793
1.23084
3.10132
3.06753
1.64218
2.04151
1.54621
2.12288
2.13114
1.63477
1.55415
1.26315
2.83496
3.31939
1.22699
1.22502
3.28101
1.43395
1.6029
1.7078
2.36762
1.99459
2.08584
1.78765
1.52595
1.90181
1.8728
1.53502
1.64045
2.57707
2.08907
2.02023
1.66547
2.07534
1.62553
2.22978
2.1634
1.71058
1.57871
1.5528
1.75329
1.4622
1.7667
2.38534
1.932
2.17557
2.00704
2.76407
2.68827
2.55437
2.49437
3.24187
3.28125
3.03173
3.07246
3.03924
3.53542
3.4028
3.54702
3.38838
2.39396
2.44132
2.69417
2.94799
2.8361
3.09314
2.89058
2.37644
2.48251
2.19667
2.66774
2.76079
2.75124
2.75572
3.16404
3.10511
3.07858
3.53601
3.36484
3.55539
3.37596
1.78464
1.74535
1.83685
2.39613
2.24628
2.32794
2.31726
1.52151
1.60689
1.68196
1.84786
1.93343
2.20732
2.11796
1.98061
2.89746
2.58984
2.67929
2.43249
3.23137
3.42806
1.87988
1.22601
1.225
1.27972
2.82584
1.23192
1.22501
1.60001
1.23017
1.225
1.96649
1.22517
1.2595
1.22501
1.22903
2.8664
3.07375
1.22825
1.22519
3.03971
2.40419
1.7023
2.33813
1.78671
1.90368
2.4258
2.49458
1.81906
1.53817
2.28031
2.99243
3.27843
1.23091
2.55491
1.22528
1.23229
1.22513
1.92005
1.27525
1.22798
1.22502
1.225
2.8514
2.82005
2.89631
2.57895
2.75447
2.77565
2.47381
2.88476
2.24057
3.04127
2.65357
2.78577
3.34576
3.41832
1.7848
1.96611
1.63049
2.17564
1.77509
2.02463
2.47746
1.22672
2.59892
3.13201
1.27135
1.22508
3.18881
2.04509
1.79038
2.47737
2.6148
2.81351
2.33048
2.21937
2.00415
1.81352
2.34567
2.79781
2.22819
2.35237
1.80583
2.23453
3.01638
3.455
3.12569
3.60252
3.5334
3.51764
3.70903
2.05658
1.83397
1.92454
2.50977
2.60361
2.66612
2.4365
2.92759
1.23344
1.225
1.25047
3.29504
1.22503
2.42039
1.225
2.41597
1.25398
1.22501
1.225
1.28233
1.22543
3.00974
2.70383
2.96064
2.79714
1.98469
2.78524
2.28367
1.83994
2.45293
2.82153
2.32843
2.38403
1.89326
2.26438
2.58765
3.5342
3.31404
3.21714
2.79461
3.45516
3.52794
1.98885
2.52665
2.05
2.63171
2.97565
2.5604
3.02028
3.29472
3.41219
3.44767
3.33327
3.58352
3.59364
3.23057
1.58966
1.9428
1.65918
2.1407
2.488
2.56311
2.05448
1.68336
2.30857
1.87403
2.6375
2.16244
2.45298
2.90862
1.50905
2.96407
2.19759
0.95656
1.13665
0.908186
1.36168
1.09491
1.93921
1.61793
3.12256
2.09232
1.51102
2.68546
1.84326
3.28988
0.928873
1.02253
1.03652
1.04417
1.14629
1.15869
1.06342
0.989769
1.08132
1.05663
1.17686
1.11857
1.20017
1.08874
1.10144
1.23915
1.22875
1.38941
1.21151
1.22309
1.40869
1.76801
1.4886
1.72686
1.75285
2.14859
1.78755
2.21305
1.11491
1.29769
1.26057
1.24308
1.49471
1.27381
1.44235
1.84408
1.78919
1.78233
2.3975
2.34273
2.43509
2.4923
1.18564
1.44747
1.27115
1.28589
1.39089
1.47429
1.20524
1.55198
1.95088
1.83973
1.93843
1.84732
2.32553
2.49363
1.30924
1.59115
1.26611
1.43762
1.34423
1.51947
1.23164
2.13818
1.9392
1.95633
2.59273
2.86158
2.81777
2.64478
1.58572
1.60958
1.35746
1.37754
1.98875
1.62025
1.63925
1.41073
1.76831
1.76528
2.07237
1.46119
1.67817
1.68942
2.13583
3.32691
2.78769
2.74728
2.18831
2.86665
3.3651
3.52255
3.04938
3.08835
3.17027
3.27338
3.53898
3.11707
2.41088
2.84236
2.27776
2.9904
3.49205
3.14713
3.42736
3.30164
3.55905
3.34229
3.23607
3.45761
3.56142
3.22656
2.99641
2.97284
2.88795
2.98946
3.1396
2.8302
2.4717
1.2479
3.01414
3.11806
1.22511
1.22501
2.1887
1.3263
2.06981
2.63246
2.20659
2.89202
2.69027
2.28848
1.98517
2.56659
2.43322
1.98327
2.11747
3.05603
2.72011
2.57941
2.58327
2.82698
2.76213
2.6875
2.79627
2.74897
2.44809
1.96466
2.68988
2.05351
2.40022
2.96018
2.99329
2.31459
2.67793
2.82387
2.82816
2.76438
2.74366
2.52921
2.39732
3.5866
3.41407
2.83858
3.65459
2.33861
3.3085
3.3939
2.29288
2.63241
2.77341
2.74169
3.12667
2.87376
3.07782
2.40004
3.36715
3.21114
3.09211
2.93678
3.47922
3.50086
1.84082
2.26323
1.92232
2.54047
2.84111
2.89444
2.45905
3.07924
2.82221
2.80495
2.75048
2.50061
2.27092
1.96321
2.23758
2.38145
2.46034
2.80144
2.84203
2.99472
2.98801
3.20124
2.65084
2.94442
3.42303
3.53535
3.1656
3.55616
2.21552
2.6162
2.72583
2.71449
1.58451
2.05783
2.53945
2.22737
2.15411
1.83911
2.37683
3.12739
2.7811
2.82814
1.22668
1.22503
1.225
1.225
1.22501
1.2269
1.225
2.29874
3.01847
3.12275
2.95641
2.88757
2.526
2.76139
2.07478
1.64098
2.67288
1.64315
2.82945
2.35118
1.37867
2.9134
2.92606
2.84103
2.88919
2.82948
2.87235
2.89592
3.6613
3.48737
3.58327
3.55309
2.48699
3.40875
2.96769
2.77058
2.9075
2.29498
2.63908
3.20812
3.106
3.04735
2.50748
2.62172
2.1495
2.77995
3.22316
3.05638
3.13351
2.75147
2.75975
2.81922
2.55419
2.68938
2.17223
1.85917
2.66343
2.71458
2.71873
2.97221
3.019
2.98476
3.01007
2.47529
3.04004
2.55165
2.83874
3.13117
3.0866
2.78086
1.2258
3.04979
2.86142
1.225
1.225
1.24637
1.23461
3.22648
2.98341
2.97869
3.47177
3.31471
3.28318
3.48832
2.67254
2.12189
1.58355
1.43109
2.55882
1.83763
2.39302
3.17454
3.30074
2.99649
3.54265
3.22916
3.44637
3.56261
3.21818
3.02944
2.99142
3.45862
3.14751
3.23083
3.45229
2.96091
2.65252
2.71928
3.0786
3.11435
3.04064
3.1069
2.93357
3.08534
2.70138
3.14033
2.9905
3.06535
3.08505
2.69327
2.80274
2.74429
2.95456
2.99195
2.92588
3.0017
3.47572
3.05196
3.52724
3.22205
3.45964
3.29902
3.31203
2.36454
2.78942
2.84351
2.9383
2.97769
3.22569
3.24488
2.96866
2.51006
3.04294
2.84313
3.01369
2.72001
2.97153
3.33724
1.25492
1.22502
1.27238
1.22504
1.22519
1.225
2.82305
2.79238
2.85757
2.50406
1.48158
1.96554
1.95955
2.7848
3.18214
3.08869
3.08988
3.10304
3.15797
2.72253
3.05916
2.3364
2.67668
1.65502
2.09676
1.62456
1.3704
3.6256
3.60095
3.73609
3.30449
3.69601
3.51628
2.63797
3.13264
3.16408
3.47977
3.25338
3.2374
3.11785
2.99529
1.22502
2.68606
1.60604
1.225
1.225
1.23024
1.2253
3.0934
3.18771
3.16985
3.00321
3.4462
3.4198
2.74999
1.22501
3.29754
1.39533
1.225
1.225
1.26452
1.22507
3.63927
2.62686
2.23488
1.7699
2.89166
3.17956
3.48709
3.48901
2.5859
1.55407
2.92624
2.52567
3.51691
2.87599
2.67424
2.10718
2.55279
1.42503
1.81994
1.56601
1.31595
2.89458
3.08911
2.89393
2.90733
2.68548
2.93016
2.63855
2.88826
2.97762
2.97212
2.95992
2.86953
2.74555
2.86806
2.67147
3.01741
3.04822
3.14439
3.13911
3.15415
3.22183
2.88011
2.99655
2.42679
2.34367
1.81089
1.66939
1.3576
3.44416
2.19362
1.48682
2.57996
2.39758
3.37618
2.76774
3.0013
2.05978
2.72448
3.06556
2.61278
2.98462
3.02765
3.08217
3.12043
2.78595
3.01235
2.69901
3.01443
3.19087
3.07686
3.17818
2.92727
3.0572
2.41289
2.88035
2.89343
2.96604
3.52548
3.52657
3.33954
3.30379
3.46967
3.17058
3.26393
3.4583
3.40384
3.13654
3.20806
2.78902
2.46952
3.3564
2.43967
3.2703
1.43379
2.14986
1.95453
1.36542
2.94168
3.07926
2.90843
2.86823
2.38471
2.80142
2.54385
2.74923
2.58324
2.25241
2.19203
1.8118
1.53521
1.32924
2.59175
3.2465
3.01611
3.25851
3.11285
3.21508
3.10194
2.35513
1.22689
1.225
1.225
1.24044
1.225
1.22501
1.76532
1.37101
2.29538
1.86971
1.23687
1.27306
1.4399
3.01296
2.1284
2.80427
1.8324
2.98928
2.41497
2.95394
2.97541
3.01594
2.90153
3.20755
3.16942
3.14516
3.21908
3.05928
3.05702
3.18099
2.45396
2.95156
3.13544
3.05041
2.69395
1.71875
2.60429
1.2822
1.73645
1.58841
1.26206
3.29381
2.75217
3.49178
2.9971
3.33792
3.26627
2.00902
3.66297
2.76718
3.54642
1.88514
3.06851
2.45638
1.44123
2.88753
3.23901
3.15263
3.11559
3.16651
3.01662
2.56935
1.40033
1.22503
1.225
1.22505
1.225
1.225
1.225
1.75621
1.35689
2.37771
1.83411
1.23549
1.26855
1.41601
3.10207
3.26969
3.23611
3.3414
1.88215
2.36242
3.16701
1.91985
2.29449
3.25979
3.03932
1.27435
1.63194
1.93324
2.19032
1.30055
2.02101
1.24323
1.5199
1.42043
1.23647
2.16662
3.07132
3.00808
2.89651
1.92822
1.76909
3.00314
3.2266
3.33335
3.49398
3.11911
3.29027
2.94661
2.2406
1.80182
1.59396
1.48299
1.28819
1.2673
1.2492
1.24059
3.06001
3.00283
3.02625
2.48925
2.26157
2.0753
2.65972
2.9861
2.96055
3.01689
2.14983
2.67966
2.44826
1.85543
3.27561
3.28375
3.01528
2.97708
2.64987
2.05334
1.63835
3.10397
3.16292
3.09424
2.92543
2.78297
2.16102
2.3609
1.84752
1.75058
2.27595
1.36274
1.23636
1.27051
1.26058
3.12019
2.84644
1.8187
1.71103
1.26379
1.48634
1.30472
3.19773
3.20162
3.20021
3.10704
2.46449
2.25034
3.20678
2.49803
1.3921
1.79639
1.27846
1.44309
1.26419
1.23419
2.1298
1.5241
2.42847
1.43217
1.23365
1.31965
1.24482
2.53674
3.25178
3.2045
2.91489
1.76721
1.61591
3.04906
3.12306
2.01815
2.05995
2.75603
2.69981
3.06171
3.11795
1.54114
1.26643
1.79366
1.33105
1.2276
1.27338
1.23098
1.79235
2.51077
2.89556
2.66212
1.2845
1.47612
2.07274
2.86077
2.77811
2.99049
2.09818
1.34852
1.70833
1.55399
3.25488
3.01226
3.22086
2.72742
1.92879
1.75249
2.89943
1.81842
1.77994
1.40873
1.36323
1.26681
1.26095
1.23509
1.60563
1.23564
1.23282
1.41413
1.36252
1.28801
1.22844
1.22529
1.225
1.225
1.225
1.225
1.225
1.225
3.23746
3.40429
3.68381
2.99392
1.32164
2.06959
1.75858
2.457
1.34378
1.6804
1.27352
1.42885
1.25395
1.23157
1.41198
1.29166
1.37026
1.23551
1.24853
1.23326
1.22864
3.11509
2.51105
2.96179
1.79243
2.42666
1.76778
1.37053
3.01779
2.25924
2.20336
1.90834
1.86065
1.30698
1.31584
3.37586
3.29862
3.18021
2.80783
2.38214
2.47275
1.49269
2.31442
1.40349
2.53946
1.36012
1.34629
2.36383
2.49234
3.24197
1.48802
2.79613
1.84903
3.07955
2.18949
1.29937
1.225
1.22962
1.22501
1.225
1.225
1.22506
1.225
1.46549
1.22805
1.23938
1.22813
1.23831
1.2848
1.28331
2.66023
1.29435
1.2453
1.35942
1.41024
2.14065
1.58595
2.59826
1.28541
2.26125
1.52881
1.43273
2.06924
2.76349
1.8758
1.60814
3.06382
2.29968
1.23336
1.31519
1.39065
2.32202
2.89493
3.26374
2.71495
1.26069
1.84128
1.4348
2.21313
1.3664
2.2333
1.29067
1.32079
2.05584
2.39421
2.10299
2.84978
3.12632
2.56937
1.26404
1.38961
1.90164
3.22114
3.03743
3.23897
2.87928
1.38742
1.81479
2.27793
3.19423
1.92023
2.53927
1.60937
2.13221
1.37222
1.26762
2.95969
1.90357
2.08518
1.62039
1.76208
1.28976
1.26913
1.22502
1.2252
1.22511
1.26745
1.2251
1.225
1.22501
1.225
1.25154
1.25048
1.23338
1.22893
1.22633
1.22623
1.2254
2.06385
1.34356
2.38555
1.48549
1.23116
1.35752
1.23796
3.06535
1.7061
2.94556
2.23513
1.34772
1.30654
2.44683
1.42978
2.77499
2.62333
1.25938
1.7942
1.64501
1.24808
2.48617
1.99894
3.19853
1.75417
1.23586
1.35611
1.27793
1.74662
1.24264
1.42258
1.22816
1.26162
1.2365
1.22594
1.35569
1.24733
1.31003
1.22683
1.23248
1.22975
1.22614
1.44323
2.18515
1.57712
1.23695
1.30719
1.24603
1.22765
2.71748
2.96851
3.17355
2.30486
1.27869
1.45721
1.66339
1.51108
1.32889
1.91039
1.24059
1.33888
1.26812
1.23023
2.93126
1.99637
2.78344
1.51913
1.29797
1.27456
1.64621
2.88
3.02025
2.54791
2.00431
1.53434
1.69478
1.27602
1.66992
1.25819
1.5588
2.54656
1.48681
1.24883
1.2277
2.00694
1.26375
1.84349
1.60254
1.25333
1.24415
1.7367
1.22501
1.225
1.225
1.225
1.225
1.225
1.225
1.22904
1.25142
1.30072
1.25022
1.22538
1.22626
1.23295
1.22738
1.23641
1.26985
1.24552
1.22524
1.22601
1.22998
1.93953
1.27973
1.23653
1.49173
1.27412
1.98747
1.46513
1.35149
1.22713
1.26641
1.22592
1.24348
1.23069
1.22527
1.36107
1.22711
1.26593
1.2263
1.25194
1.23222
1.22534
1.45339
1.23879
1.28053
1.228
1.23762
1.22791
1.22568
2.39507
1.6819
1.4749
1.46659
1.34614
1.25062
1.23726
2.2082
1.24893
1.34509
1.24447
1.30729
1.62623
1.6976
1.84421
1.25135
1.2339
1.3541
1.26377
1.70317
1.41543
1.4069
1.88941
2.62461
1.58826
1.22857
1.2431
1.30665
1.43014
1.97983
2.64874
1.81465
1.23187
1.25703
1.38549
1.25538
1.24913
1.23473
1.22886
1.22624
1.22656
1.22519
1.24745
1.26777
1.6357
1.34801
1.22548
1.23084
1.23617
1.2467
1.23679
1.27205
1.2275
1.22525
1.22607
1.22559
1.94231
1.29134
1.35466
1.22885
1.31125
1.26958
2.14193
1.36981
1.23205
1.26472
1.2264
1.2328
1.22705
1.22534
1.76416
1.63392
2.40408
1.34368
1.22927
1.24465
1.253
2.00421
1.26545
1.33387
1.24366
1.27629
1.22995
1.2267
1.45081
1.67337
1.32607
1.27595
1.23543
1.24739
1.22716
1.22705
1.2284
1.26212
1.24875
1.22511
1.22626
1.22712
1.22845
1.23662
1.29683
1.27384
1.22534
1.22725
1.23258
1.39474
1.23657
1.31786
1.22769
1.23272
1.28834
1.47246
1.23986
1.29945
1.53094
1.38092
1.22652
1.23203
1.26235
1.70754
1.23406
1.42645
1.22751
1.28258
1.2467
1.22586
1.24006
1.68157
1.54694
1.29681
1.22966
1.22807
1.3321
1.38772
1.24415
1.37194
1.23247
1.22601
1.23331
1.2259
1.60579
2.61715
1.47421
1.23819
1.39568
1.24592
1.22638
1.71904
1.67522
2.80789
1.2492
1.49994
1.25282
1.22713
2.00413
1.22973
1.33244
1.23055
1.35341
1.23775
1.22549
1.23253
1.22511
1.22508
1.22555
1.22536
1.22734
1.22683
1.56582
1.22641
1.2277
1.22974
1.28533
1.24267
1.25659
1.23848
1.24993
1.32948
1.23068
1.22514
1.22567
1.22627
1.30426
1.25785
1.49621
1.23861
1.22536
1.22649
1.22861
1.30405
1.23978
1.34114
1.23081
1.22544
1.22883
1.22569
2.1696
1.2415
1.36993
1.23253
1.29395
1.23153
1.22565
1.39673
2.82742
1.225
1.25958
1.3814
1.22502
2.62633
2.23139
1.90815
1.22516
2.25902
1.24446
1.225
1.22539
1.23036
1.24524
1.225
2.67398
2.82778
2.85116
2.86346
2.82452
2.62649
2.53124
2.74565
2.85096
2.87347
2.7506
2.80875
2.35412
2.07818
2.5985
2.90399
2.89143
2.74981
2.48258
1.73048
1.43074
1.23415
1.22503
1.225
1.225
1.22513
1.225
1.225
2.73774
1.74329
2.66279
1.28382
1.78732
1.64477
1.26407
1.33507
2.36333
1.38258
1.24513
1.57931
1.4768
1.23859
2.44367
1.77806
2.80202
1.48588
1.98558
1.28623
1.24009
1.77283
2.03114
1.29127
1.37462
1.22875
1.2996
1.23277
2.25653
1.54655
2.52128
1.48192
1.23477
1.35069
1.24661
2.87026
2.43482
1.41898
2.27064
2.50857
1.03908
2.04669
2.09673
2.75703
2.66634
2.38516
1.24333
2.84144
2.79824
1.74125
1.88244
2.6907
1.06858
1.23004
1.24382
1.26789
1.28367
1.51382
1.57018
1.1794
1.1133
1.32837
1.44722
1.34843
1.66704
1.81827
1.40922
1.55081
1.27537
1.59354
1.8084
2.03925
2.33019
1.52727
2.13016
1.58096
2.56721
1.98125
2.06926
2.62754
1.55658
2.18851
1.62175
2.5706
1.99716
2.0905
2.6356
1.81471
2.26303
1.67185
2.21105
2.81556
2.39785
2.71586
1.90306
2.33016
1.73236
2.2381
2.82268
2.42818
2.72694
2.94246
2.9186
1.23436
1.22723
2.62315
1.24527
1.22501
1.85933
2.01626
1.59396
2.47886
2.10909
2.63029
2.85212
2.6224
2.3035
2.02328
2.89922
2.60429
2.79372
2.93486
2.14305
2.8288
2.42872
2.88378
2.63536
2.81051
2.87496
2.84979
2.84432
2.54675
2.61341
2.68162
2.86278
2.86945
2.93907
2.74046
2.23828
2.78267
2.93807
2.95884
2.89115
2.95755
2.60292
2.92027
2.92284
2.54619
2.86126
2.95939
2.69494
2.80545
2.88318
2.91839
2.2565
2.72112
2.91656
2.71004
2.87946
2.85456
2.54117
2.81661
2.87737
2.88974
2.7892
2.7395
2.90161
2.92916
1.50021
2.43891
2.53537
1.53984
2.96155
2.36898
2.91601
2.97103
2.89652
2.39617
2.96796
2.8155
2.25915
1.88655
2.80924
2.23218
1.3685
2.41448
1.69496
2.7478
1.61227
2.69567
2.02393
1.29491
2.8377
1.43904
1.50432
1.30269
1.91356
2.03305
2.48137
1.24002
1.3339
1.51163
1.22651
1.25677
1.23594
1.2255
1.50566
1.28644
1.8803
1.22869
1.27612
1.2422
1.22614
1.24528
1.25917
1.50371
1.64543
1.25635
2.53913
1.48457
1.34595
1.27994
1.79512
1.2629
1.23158
1.22802
1.22548
1.22552
1.28245
1.22846
1.26844
1.80859
1.3434
1.232
1.38389
1.22609
1.23423
1.30119
2.06429
1.39332
1.2348
1.22698
1.22829
1.26422
1.25137
1.2251
1.22712
1.22629
1.22619
1.23032
1.30603
1.22965
1.22507
1.22529
1.22606
1.23371
1.22659
1.25939
1.2281
1.22503
1.22514
1.22573
1.22755
1.22554
1.23623
1.22647
1.22501
1.22507
1.22532
1.23239
1.2251
1.22714
1.22508
1.22678
1.22549
1.22502
1.23051
1.25514
1.35377
1.2537
1.22523
1.22611
1.23127
1.23744
1.22546
1.22527
1.22505
1.23041
1.22564
1.22608
1.23769
1.27966
1.22958
1.22798
1.22505
1.22524
1.22566
1.2922
1.22596
1.22559
1.23035
1.22785
1.25023
1.24063
1.5848
1.22875
1.22639
1.23244
1.25903
1.24228
1.31238
1.22558
1.22782
1.23713
1.227
1.22502
1.22509
1.22545
1.46179
1.24147
1.26733
1.22611
1.23575
1.25321
1.57388
1.67392
1.23087
1.30503
1.22682
1.25019
1.22872
1.22525
1.2255
1.22532
1.22505
1.22613
1.22571
1.23974
1.23187
1.2531
1.22556
1.22686
1.22518
1.23843
1.22622
1.22912
1.22693
1.22771
1.23659
1.22556
1.22502
1.22509
1.22513
1.23296
1.22557
1.22747
1.22509
1.22538
1.22511
1.22503
1.2712
1.2274
1.24777
1.22523
1.22711
1.22597
1.2251
1.24355
1.22773
1.29026
1.23167
1.22506
1.22525
1.22677
1.2255
1.22505
1.22617
1.2254
1.22501
1.22517
1.22502
1.22663
1.26804
1.26379
1.2288
1.22516
1.22515
1.22923
1.37641
1.22558
1.23997
1.22591
1.24863
1.22714
1.22508
1.22781
1.23067
1.25321
1.22637
1.22528
1.22513
1.22502
1.225
1.225
1.225
1.225
1.225
1.225
1.225
1.25596
1.22525
1.2251
1.22547
1.22633
1.2313
1.22751
1.2285
1.2251
1.22725
1.22506
1.22625
1.22578
1.22504
1.31799
1.22539
1.22581
1.22721
1.22891
1.23544
1.24637
1.23202
1.22551
1.22723
1.22508
1.22532
1.2251
1.22502
1.22625
1.24543
1.25552
1.22795
1.22507
1.22511
1.22693
1.3189
1.22645
1.23462
1.22558
1.22897
1.22536
1.22505
1.22793
1.22822
1.27073
1.22502
1.22525
1.22872
1.22523
1.22501
1.2267
1.22519
1.22803
1.25187
1.22671
1.22519
1.22691
1.24159
1.22589
1.22507
1.22501
1.22637
1.22515
1.22501
1.2251
1.22699
1.2262
1.24266
1.2259
1.22506
1.22513
1.2251
1.22682
1.22507
1.2259
1.22621
1.24163
1.22516
1.22509
1.22695
1.22558
1.225
1.22503
1.22505
1.22519
1.22556
1.22927
1.22604
1.22501
1.22512
1.22505
1.23862
1.22578
1.22507
1.22809
1.22704
1.22551
1.24564
1.24507
1.22536
1.22918
1.22508
1.22583
1.22516
1.22501
1.23642
1.2252
1.23036
1.22504
1.22606
1.22548
1.22502
1.22522
1.2257
1.23045
1.22689
1.22501
1.22507
1.22522
1.22503
1.22514
1.2256
1.22513
1.225
1.22501
1.22503
1.22767
1.22821
1.2664
1.22689
1.22501
1.22514
1.22512
1.22822
1.22591
1.23425
1.22538
1.22501
1.22513
1.22504
1.2255
1.22547
1.22918
1.22502
1.2252
1.22502
1.225
1.22602
1.2256
1.22521
1.22512
1.22505
1.22503
1.22501
1.22501
1.22501
1.22508
1.22685
1.22531
1.22514
1.22502
1.225
1.22501
1.22522
1.22557
1.22873
1.2252
1.22503
1.22931
1.22501
1.2254
1.22503
1.22586
1.22508
1.225
1.23005
1.22504
1.22502
1.22515
1.22573
1.22518
1.22608
1.22549
1.22598
1.23788
1.22614
1.225
1.22508
1.22504
1.22536
1.22518
1.22739
1.22501
1.22512
1.22502
1.225
1.22512
1.22503
1.22638
1.22501
1.22507
1.22501
1.225
1.22506
1.22504
1.22501
1.22519
1.22512
1.22767
1.22585
1.66319
1.22565
1.72031
1.22501
1.97148
1.71089
1.79232
2.24001
2.88815
2.91005
2.23579
1.81288
2.42179
2.99873
2.35287
1.66375
2.99676
2.42596
2.34699
1.70961
1.76369
1.75186
2.32008
2.31205
2.34415
2.34977
1.72527
1.76835
1.75293
2.32209
2.3119
2.34319
2.34988
1.22522
1.37009
2.59876
2.59666
1.37842
1.99657
1.22524
3.50909
1.59264
2.69698
3.52836
1.59487
2.78917
1.2257
1.94469
2.22878
1.92967
2.48214
2.67922
2.68212
2.48645
2.22818
1.94007
1.92867
2.48319
2.68083
2.48619
2.68389
1.75871
1.65124
1.74577
2.27742
2.20082
2.19186
2.28528
1.2252
1.26736
2.03984
2.1203
1.22522
1.26973
1.22501
2.8254
2.91887
2.83106
2.74912
2.61604
2.65426
2.74064
2.9284
2.83558
2.8365
2.75356
2.6361
2.74895
2.66284
1.6526
1.75709
1.74622
2.28202
2.21005
2.29459
2.19695
1.95339
2.4123
1.9422
2.50638
2.94468
2.94505
2.51282
2.41532
1.95695
1.94459
2.51126
2.95289
2.52407
2.94837
0.903332
2.67007
1.35654
1.91946
1.11858
0.889851
1.34566
1.09964
1.91431
1.50806
3.28988
1.77925
1.48164
2.65626
1.76457
3.30813
0.892118
1.03021
1.01846
1.14341
1.03871
1.15509
1.02873
0.894651
1.01372
1.01429
1.13851
1.03154
1.13905
1.02693
1.10702
1.25323
1.2396
1.21601
1.40114
1.22771
1.38807
1.09436
1.23125
1.22643
1.20955
1.3808
1.2069
1.38175
1.49059
1.73071
1.71099
2.12071
1.76314
2.14556
1.74413
1.48028
1.70795
1.70352
2.11252
1.73743
1.73601
2.11944
1.76195
1.74876
1.763
2.29541
2.36515
2.32042
2.34639
1.75444
1.75726
1.74609
2.28958
2.35457
2.30069
2.34374
1.26776
1.18332
1.44546
1.34362
1.27974
1.43297
1.17255
1.26275
1.34018
1.17374
1.43331
1.26344
1.42924
1.16964
1.3509
1.57473
1.60818
1.90732
1.3624
1.56365
1.59594
1.34631
1.90669
1.56773
1.5949
1.34742
1.56197
1.59213
2.75236
2.13578
3.32636
2.6542
2.77693
2.11503
3.32381
2.7449
2.65106
2.11154
3.31532
2.10749
2.75169
3.3215
3.05604
3.52759
3.02401
3.31509
3.07022
3.53751
3.02294
3.05239
3.32378
3.52633
3.02533
3.05552
3.53982
3.02535
2.59579
2.82325
2.83256
2.77328
2.78838
2.62582
2.58313
2.59625
2.82599
2.83523
2.77899
2.79208
2.63314
2.59927
2.74027
2.64717
2.28743
1.84858
2.34453
2.67615
2.72726
2.74433
1.85777
2.31006
2.65902
2.73495
2.35416
2.68173
2.84256
2.80694
2.92693
3.01661
2.94858
2.80389
2.84383
2.84365
3.01125
2.81485
2.92358
2.85041
2.94278
2.80665
3.12097
3.52603
3.12397
3.26165
3.28034
3.21952
3.17286
3.12493
3.51012
3.12129
3.2675
3.28267
3.22633
3.1887
2.97518
3.08493
2.79153
2.40966
2.82437
3.10442
2.97075
2.9738
2.40384
2.78668
3.08742
2.97416
2.81854
3.10245
3.3926
2.77093
3.43326
2.31601
1.4672
1.50275
2.23371
3.44241
2.74096
3.41129
2.33407
1.48632
2.2762
1.51143
1.2954
2.73316
2.03768
2.76758
1.87762
1.30681
1.81581
2.27127
1.39366
2.33219
1.63002
1.24775
1.25153
1.58087
1.39762
2.29329
2.3422
1.63839
1.24911
1.59863
1.25215
2.04906
2.74575
2.77383
1.88826
1.29958
1.83884
1.30881
2.10649
1.65534
1.70456
1.30029
1.31156
1.25896
1.25449
2.07219
1.67419
1.71297
1.30528
1.31382
1.25973
1.25622
2.85359
1.63421
2.90185
1.94447
1.26705
1.27294
1.87987
1.63345
2.86031
2.90265
1.95288
1.26872
1.90103
1.27358
1.38537
1.27397
1.4106
1.23584
1.22729
1.22768
1.2343
1.27506
1.39452
1.41484
1.23609
1.22743
1.23486
1.22774
1.22926
1.27817
1.22757
1.22526
1.22801
1.22998
1.27081
1.27942
1.22527
1.22773
1.22952
1.27348
1.22809
1.2301
1.32508
1.22578
1.22944
1.23993
1.31567
1.22993
1.2415
1.32236
1.22914
1.23877
1.22576
1.2298
1.241
1.30941
1.22524
1.22954
1.23004
1.22685
1.22508
1.22665
1.22509
2.8305
2.46812
1.2252
1.86221
2.60706
2.44037
2.01533
1.22521
2.609
2.84739
2.60744
2.85417
2.8399
2.69976
2.66559
2.60755
2.83345
2.84907
2.85628
2.84252
2.70633
2.67897
1.43418
1.41061
2.42183
1.24912
1.63414
1.67868
1.25249
2.77024
1.29642
1.99011
2.05498
2.79986
1.92123
1.30741
1.41994
2.47682
1.43867
1.68715
1.25044
1.65188
1.2531
2.06644
2.78142
2.8058
1.93227
1.30057
1.88502
1.30944
2.01484
2.78889
2.0586
1.21533
1.02266
2.00758
2.05132
2.8001
1.02696
1.22693
1.01727
1.21559
1.20457
1.47792
1.49152
1.01585
1.21059
1.2228
1.21443
1.20325
1.47658
1.48623
2.5445
1.50725
1.99909
1.49495
1.92925
1.94681
2.53919
1.53032
2.04031
1.51536
1.93984
2.54471
1.95958
2.53777
1.99737
1.50181
1.49361
1.9274
2.541
1.93925
2.53898
2.0385
1.52486
1.51401
1.93783
2.54093
1.95148
2.53745
2.84298
2.51304
2.83764
2.81799
2.52053
2.84365
2.84845
2.51262
2.82377
2.84401
2.83884
2.51649
2.84578
2.85045
1.22741
1.27216
1.22904
1.27896
1.22523
1.22968
1.22777
1.28023
1.22523
1.22755
1.22929
1.27478
1.22979
1.22784
1.22507
1.22655
1.22925
1.22524
1.22992
1.22681
1.22509
1.22502
1.22511
1.22546
1.22554
1.22501
1.22503
1.22513
1.22555
1.22501
1.22502
1.22512
1.22549
1.22503
1.22513
1.22547
1.225
1.225
1.22506
1.22507
1.22501
1.225
1.22502
1.22537
1.22509
1.22523
1.225
1.22501
1.22505
1.22527
1.225
1.22501
1.225
1.22503
1.22501
1.22506
1.22502
1.22506
1.22536
1.22509
1.225
1.225
1.22501
1.22514
1.22514
1.22563
1.22503
1.225
1.22501
1.22501
1.22518
1.225
1.22506
1.225
1.22505
1.22502
1.225
1.22533
1.22557
1.23329
1.22588
1.225
1.22503
1.22506
1.22507
1.22571
1.22714
1.22519
1.225
1.22501
1.22506
1.2261
1.2257
1.23576
1.22544
1.225
1.22504
1.22503
1.2251
1.22506
1.22502
1.22501
1.225
1.225
1.225
1.2251
1.22528
1.22787
1.22525
1.225
1.22501
1.22502
1.22511
1.225
1.22501
1.225
1.22505
1.22501
1.22503
1.22555
1.22501
1.22502
1.225
1.22502
1.22506
1.22514
1.22531
1.22501
1.225
1.22504
1.22501
1.22535
1.22504
1.22504
1.22507
1.22605
1.22514
1.225
1.22501
1.22501
1.22506
1.2251
1.22572
1.22503
1.225
1.225
1.225
1.22526
1.22501
1.22503
1.225
1.22501
1.225
1.225
1.22514
1.225
1.225
1.225
1.22501
1.22501
1.22503
1.22524
1.22501
1.225
1.22502
1.22501
1.22515
1.22503
1.22502
1.22504
1.22522
1.225
1.22501
1.225
1.225
1.225
1.22502
1.22525
1.225
1.225
1.225
1.22502
1.22501
1.22501
1.22516
1.225
1.225
1.225
1.22501
1.225
1.225
1.225
1.22502
1.22501
1.22522
1.22505
1.22501
1.22501
1.22518
1.22501
1.225
1.225
1.225
1.22502
1.225
1.225
1.225
1.225
1.225
1.22501
1.225
1.22501
1.22508
1.22504
1.225
1.225
1.225
1.22501
1.22502
1.22514
1.22501
1.225
1.225
1.225
1.225
1.225
1.225
1.22501
1.225
1.22509
1.22501
1.225
1.22504
1.225
1.225
1.225
1.225
1.225
1.22501
1.225
1.225
1.225
1.225
1.22507
1.225
1.22507
1.225
1.225
1.225
1.22501
1.225
1.225
1.22506
1.225
1.22501
1.225
1.22501
1.225
1.225
1.22506
1.225
1.22501
1.225
1.225
1.225
1.225
1.22502
1.225
1.225
1.225
1.225
1.225
1.225
1.225
1.225
1.22501
1.225
1.225
1.225
1.225
1.225
1.225
1.22501
1.225
1.225
1.225
1.225
1.22501
1.225
1.225
1.225
1.225
1.225
1.225
1.225
1.225
1.22503
1.22501
1.225
1.225
1.225
1.22501
1.225
1.22504
1.225
1.225
1.225
1.225
1.22501
1.225
1.225
1.225
1.225
1.225
1.225
1.22501
1.225
1.225
1.225
1.225
1.225
1.225
1.225
1.22501
1.225
1.225
1.225
1.225
1.225
1.225
1.22559
1.22509
1.2251
1.225
1.225
1.22576
1.225
1.22902
1.225
1.225
1.225
1.225
1.225
1.225
1.225
1.225
1.22501
1.225
1.225
1.225
1.22528
1.225
1.225
1.225
1.225
1.23515
1.225
1.225
1.225
1.225
1.225
1.225
1.225
1.225
1.225
1.225
1.225
1.225
1.225
1.225
1.225
1.225
1.225
1.225
1.225
1.225
1.225
1.225
1.225
1.225
1.225
1.225
1.225
1.225
1.225
1.22503
2.19411
1.34455
2.18223
1.22514
1.34251
1.22503
1.225
1.225
1.22506
1.23389
1.225
1.22501
1.225
1.23032
1.225
1.22502
1.31186
1.225
1.22502
1.225
1.23594
1.225
1.225
1.22511
1.225
1.225
1.225
1.225
1.22501
1.22575
1.24411
1.225
1.22501
1.225
2.01855
2.24523
2.0683
1.29242
1.31332
1.32315
1.28551
2.23607
2.00815
2.06056
1.29146
1.31103
1.28413
1.32152
1.6727
1.35951
1.71508
1.25243
1.23045
1.23115
1.2494
1.35788
1.66542
1.70992
1.2521
1.23036
1.24891
1.23108
1.30694
1.23042
1.32013
1.23133
1.23119
1.22539
1.22533
1.32249
1.23076
1.23064
1.23148
1.23134
1.2254
1.22535
1.225
1.225
1.225
1.225
1.225
1.225
1.225
1.23617
1.2262
1.22633
1.22546
1.2255
1.22506
1.22505
1.23463
1.22544
1.22614
1.2263
1.22549
1.22506
1.22505
1.22663
1.22559
1.2263
1.22508
1.22504
1.22506
1.22503
1.22619
1.22542
1.23339
1.2348
1.2264
1.22549
1.22507
1.23503
1.22627
1.22643
1.22545
1.2255
1.22507
1.22506
1.22525
1.2254
1.22593
1.22503
1.22501
1.22504
1.22502
1.22507
1.24396
1.22685
1.24651
1.22713
1.22585
1.22508
1.24647
1.22692
1.22715
1.22576
1.22585
1.22508
1.22507
1.2253
1.22507
1.22522
1.225
1.22501
1.22501
1.225
1.22515
1.2251
1.22767
1.228
1.22516
1.22511
1.22949
1.225
1.225
1.225
1.225
1.225
1.225
1.225
1.22796
1.22516
1.22892
1.22509
1.22761
1.22511
1.22942
1.225
1.225
1.225
1.225
1.225
1.225
1.225
1.225
1.225
1.225
1.225
1.225
1.225
1.225
1.225
1.225
1.225
1.225
1.225
1.225
1.225
1.22503
1.225
1.225
1.225
1.22572
1.22512
1.225
1.225
1.225
1.225
1.225
1.225
1.225
1.225
1.225
1.225
1.225
1.225
1.225
1.225
1.225
1.225
1.225
1.225
1.225
1.225
1.225
1.225
1.225
1.225
1.225
1.225
1.225
1.225
1.225
1.22501
1.225
1.225
1.225
1.225
1.225
1.225
1.225
1.225
1.225
1.225
1.225
1.225
1.225
1.225
1.225
1.225
1.225
1.225
1.225
1.225
1.225
1.225
1.225
1.225
1.225
1.225
1.225
1.225
1.225
1.225
1.225
1.225
1.225
1.225
1.22502
1.225
1.225
1.225
1.225
1.225
1.225
1.225
1.225
1.22594
1.225
1.225
1.225
1.22562
1.225
1.225
1.225
1.225
1.22516
1.225
1.225
1.225
1.225
1.225
1.225
1.225
1.225
1.225
1.225
1.225
1.225
1.225
1.225
1.225
1.225
1.225
1.225
1.225
1.225
1.225
1.225
1.225
1.225
1.225
1.225
1.225
1.225
1.225
1.22503
1.225
1.225
1.225
1.225
1.225
1.225
1.225
1.225
1.225
1.225
1.225
1.225
1.225
1.225
1.225
1.225
1.225
1.225
1.225
1.225
1.225
1.225
1.225
1.225
1.225
1.225
1.225
1.225
1.225
1.225
1.225
1.225
1.225
1.225
1.225
1.225
1.225
1.225
1.225
1.225
1.225
1.225
1.225
1.225
1.225
1.225
1.225
1.225
1.225
1.225
1.225
1.225
1.225
1.225
1.225
1.225
1.225
1.225
1.225
1.225
1.22891
1.225
1.225
1.225
1.225
1.225
1.225
1.225
1.225
1.225
1.225
1.2262
1.225
1.225
1.225
1.225
1.225