/*--------------------------------*- C++ -*----------------------------------*\
  =========                 |
  \\      /  F ield         | OpenFOAM: The Open Source CFD Toolbox
   \\    /   O peration     | Website:  https://openfoam.org
    \\  /    A nd           | Version:  9
     \\/     M anipulation  |
\*---------------------------------------------------------------------------*/
FoamFile
{
    format      ascii;
    class       volScalarField;
    location    "0.00135";
    object      T;
}
// * * * * * * * * * * * * * * * * * * * * * * * * * * * * * * * * * * * * * //

dimensions      [0 0 0 1 0 0 0];

internalField   nonuniform List<scalar> 
11317
(
1070.84
288.718
1129.09
288.015
762.712
300.26
287.938
675.107
301.063
937.773
287.928
312.614
341.836
300.642
1366.98
1322.26
1043.15
452.361
639.236
288.175
287.978
1022.25
941.993
595.149
288.978
298.637
291.416
287.962
287.926
287.983
287.926
1411.8
288.084
1139.24
287.944
681.631
287.962
287.928
1223.56
1296.01
1233.32
1115.06
1294.22
1417.28
1228.09
955.98
787.787
501.88
303.777
623.896
857.744
377.267
1349.89
1088.18
1130.02
1176.1
1148.29
1183
1205.2
963.243
1115.66
992.284
970.698
322.487
1112.25
747.747
1137.13
1164.11
1364.05
1117.68
917.818
1222.45
1259.83
980.784
1128.73
1141.73
360.839
323.254
910.734
885.554
876.09
293.276
288.005
518.072
742.063
636.283
293.625
1135.33
1185.23
1115.88
1198.93
1244.7
1320.19
1284.4
386.533
1372.18
1304.68
1398.93
850.122
1220.35
561.399
715.703
1148.36
1159.66
307.037
288.889
858.098
712.445
1372.3
1034.88
1205.63
823.943
571.609
1373.49
1212.54
1095.73
1131.76
1138.57
1293.05
1250.36
1286.49
1258.57
637.01
1419.84
1322.07
805.66
356.442
1255.28
1155.96
1108.85
1171.17
1150.51
1303.97
1295.68
1322.31
1272.66
1269.83
1325.87
1355.09
1388.24
1431.89
1427.39
1371.44
1168.07
1207.09
1174.62
1226.24
1275.67
1323.44
1241.58
955.074
933.82
930.626
919.288
908.724
866.445
850.923
1205.73
1216.29
1256.97
1329.29
1349.32
1379.96
1370.06
288.073
745.721
568.835
287.988
287.928
494.897
324.254
1177.97
1186.52
1183.26
1297.01
1235.09
1292.58
1237.96
951.366
896.17
919.095
852.52
886.999
822.82
782.193
710.137
290.594
287.928
799.145
308.167
405.706
287.944
1212.21
1193.45
1193.42
1304.58
1248.93
1316.67
1242.98
308.633
902.929
1101.55
580.414
329.461
1331.62
1237.45
1402.19
1355.04
1371.5
1408.96
1404.02
1382.83
1409.75
1047.62
1109.52
1051.65
1130.04
1057
1133.63
1051.81
1287.53
1380.28
1320.56
1402.87
1418.41
1404.14
1405.3
941.666
873.133
295.312
378.435
1123.36
503.256
287.948
1345.23
1248.08
1231.55
1355.9
1247.1
1248.58
1366.14
940.126
1003.38
963.009
895.654
979.624
956.415
851.359
1243.14
1240.66
1283.49
1254.79
1332.76
1347.2
1256.94
1060.85
287.934
459.126
913.251
369.524
534.404
287.986
1418.31
1452.25
1440.87
1444.71
1425.75
1386.09
1407.65
904.104
845.112
895.519
740.598
808.465
789.154
717.55
1131.09
1070.95
1072.63
1157.5
1159.04
1054.27
1054.94
311.695
1209.56
1164.7
290.213
288.843
991.627
930.655
1391.81
1366.71
1385.48
1350.21
1349.42
1388.08
1390.21
295.991
1155.03
1029.69
288.178
287.928
641.664
334.556
1418.04
1417.01
1272.48
1362.16
1339.35
1394.32
1433.91
1333.98
1244.97
1342.81
1354.37
1205.83
1310.13
1243.31
1396.23
1363.12
1403.31
1329.47
1344.65
1399.46
1396.59
1354.44
1254.45
1324.3
1351.88
1237.44
1339.98
1252.45
1135.79
1075.96
1075.03
1164.67
1162.19
1052.1
1045.53
995.24
908.93
995.304
914.767
771.81
917.436
767.399
912.717
861.565
814.889
805.491
729.396
746.696
664.169
847.162
822.003
876.733
757.544
634.691
713.486
682.008
986.028
901.893
993.398
906.959
729.723
890.732
754.395
1388.99
1401.06
1387.11
1271.83
1314.27
1292.2
1295.56
1416.9
1432.73
1415.08
1397.46
1376.9
1320.22
1342.44
1121.25
1049.24
1046.54
1143.38
1138.5
1044.92
1033.64
403.397
288.043
287.926
296.716
655.404
288.812
287.926
356.645
288.576
287.926
421.037
287.943
293.217
287.926
288.519
1118.67
879.297
288.4
287.948
876.934
598.153
1407.29
1299.61
1397.89
1385.45
1277.45
1253.41
1401.07
372.062
1285.4
1153.89
857.888
288.837
610.955
287.96
288.894
287.94
409.497
296.042
288.288
287.928
287.926
802.356
595.989
780.73
543.271
725.799
701.059
515.302
1073.3
1153.88
1066.34
1164.37
1158.71
1032.38
1011.78
1255.87
1252.58
1372.9
1237.82
1351.76
1316.22
1219.18
288.159
1222.46
771.843
297.978
287.934
1067.03
497.484
1346.94
1217.04
1208.24
1169.86
1268.28
1234.89
1320.34
1341.26
1281.53
1173.01
1244.41
1279.8
1338.81
1245.44
979.145
866.443
908.21
927.327
728.296
796.1
888.899
1350.5
1393.98
1375.84
1236.24
1209.67
1184.45
1261.12
714.119
289.154
287.926
292.896
980.475
287.929
523.539
287.926
485.279
292.457
287.926
287.926
297.139
287.973
696.639
555.119
745.324
663.119
420.282
613.062
474.072
1344.01
1258.58
1165.48
1244.6
1274.19
1343.92
1246.77
1145.64
942.925
1034.32
1082.69
1142.24
1014.1
897.742
1323.63
1213.82
1318.83
1199.86
1111.96
1220.56
1089.6
971.219
820.09
949.082
693.002
864.836
829.13
644.649
1436.66
1356.46
1417.21
1318.99
1242.96
1228.95
1335.34
1362.91
1240.83
1346.16
1207.22
1307.81
1253.33
1157.8
1405.23
1131.13
1239.21
996.638
1109.36
955.096
1324.91
1004.88
1236.7
1099.25
624.768
1010.96
1067.15
1148.4
1010.12
738.78
973.482
986.882
1005.43
1030.67
1069.54
1093.63
1053.76
1027
1065.31
1030.34
1128.63
1132.19
1178.49
1085.73
1028.54
1065.32
1041.87
1135.54
1112.52
1138.54
1154.08
1042.7
1052.45
1033.57
1101.89
1056.55
1110.8
1060.7
1062.56
1136.21
1097.75
1175.49
1203.85
1223
1178.14
983.609
1004.32
980.29
971.344
1012.24
1012.72
966.635
1158.2
1344.74
1201.47
1230.64
1350.2
1363.48
1189.06
1084.09
1053.63
1050.58
1126
1119.49
1062.41
1060.96
1270.63
1400.14
1290.22
1379.21
1320.74
1383.98
1232.48
977.435
1013.32
983.678
1007.94
929.428
997.006
953.128
1321.06
1205.8
1234.99
1257.22
1241.12
1331.38
1217.14
1286.07
1342.61
1240.01
1242.77
1316.99
1340.07
1229.74
1134.78
1027.32
1066.41
1147.8
1140.12
1065.92
1018.01
883.483
893.862
983.759
975.443
713.766
865.64
877.438
1146
1142.48
1144.24
1060.31
976.337
1049.56
1001.1
958.589
797.606
808.398
675.548
933.075
836.847
848.826
826.777
678.787
754.739
589.59
674.838
587.108
496.721
292.298
772.188
992.221
287.938
287.926
521.072
312.459
1355.64
1215.42
1327.64
1111.58
1190.72
1305.26
1375.61
1228.78
1235.33
1337.22
1319.6
1071.01
1183.4
1215.97
806.507
682.664
753.794
575.669
657.423
590.082
503.589
1362.68
1185.8
1341.79
1264.41
1099.41
1080.1
1282.18
781.211
710.346
685.028
651.615
624.305
529.546
498.435
899.179
756.505
562.213
857.042
485.761
684.401
694.204
1278.14
1198.97
1173.15
1165.19
1000.67
1115.26
1053.24
1157.93
1040.01
1055.5
1122.24
1145.78
983.021
942.48
1396.29
1303.15
1374.46
1237.6
1152.04
1132.42
1258.39
697.889
657.332
607.528
556.945
504.081
469.409
415.843
1308.12
1271.77
1248.29
1142.5
1117.07
1035.2
1061.4
1052.9
1149.12
1141.8
1048.5
1011.19
1122.37
967.843
465.124
568.944
652.471
625.861
352.704
435.347
540.281
1239.01
1296.43
1345.69
1261.37
1104.47
1180.44
1179.19
288.126
287.929
287.926
287.926
287.926
288.149
287.926
1286.94
1041.82
1005.3
1134.7
1121.89
1237.19
1183.57
435.721
361.886
551.763
364.049
564.861
479.417
314.348
1057.97
809.753
1117.39
814.785
773.259
1090.51
1086.08
882.221
771.454
919.703
783.154
509.753
723.904
584.267
1182.3
1128
1274.75
1207.3
919.308
1023.51
1122.98
1242.74
1210.64
1306.15
1176.59
972.344
1074.94
1082.95
751.807
596.973
647.248
532.67
584.557
454.931
400.585
1204.83
1184.97
1179.82
923.787
964.431
932.179
956.575
1257.8
1015.58
1234.6
1144.05
930.733
899.886
1167.25
288.028
790.186
720.086
287.926
287.926
291.226
289.282
1017.4
1138.59
1137.27
966.284
794.883
788.498
969.581
586.907
445.888
351.189
324.491
536.697
395.807
499.399
1109.33
1038.04
1131.89
985.782
751.183
836.261
943.604
1005.03
1125.61
1134.16
957.656
741.164
771.68
940.341
1078.67
1194.67
1171.63
937.397
853.74
822.38
965.79
1134.34
1080.01
1181.15
930.138
1048.95
965.113
839.376
1192.39
1137.59
1166.35
902.422
898.097
862.743
936.479
1016.16
1137.36
978.35
1082.47
884.51
1020.05
802.322
1273.28
1176.52
1163.38
1128.41
1113.41
968.317
988.339
1008.08
635.106
971.359
751.369
940.941
713.609
1037.28
1046.99
293.522
287.928
298.292
287.93
287.948
287.926
604.628
608.668
686.907
509.777
334.201
417.182
414.226
1165.3
974.726
795.258
1062.1
1044.45
952.207
1181.49
638.941
475.451
547.141
366.618
438.384
358.632
312.866
810.937
738.188
906.574
645.367
836.421
761
538.755
1095.69
1082.88
892.911
941.932
913.643
710.005
677.438
287.928
662.984
392.475
287.926
287.926
288.623
287.959
1108.46
886.731
1080.35
696.018
912.515
872.545
635.445
287.927
915.757
332.126
287.926
287.926
295.338
287.933
804.829
530.118
501.793
396.13
604.213
620.385
737.503
764.164
551.611
354.72
579.46
543.662
769.092
572.926
580.557
441.759
530.63
323.053
391.728
347.741
303.028
1114.1
984.243
1108.17
834.393
690.505
844.111
679.326
1090.66
1055.25
1026.18
840.364
804.035
727.756
765.272
1205.58
1101.38
1084.15
1025.93
1004.28
845.95
873.604
586.071
581.008
487.086
474.067
390.856
371.497
310.98
750.579
489.531
341.264
524.883
523.676
725.31
555.529
981.546
515.06
721.183
885.848
675.681
1016.65
846.636
940.91
1065.62
1168.63
1079.85
668.483
817.224
968.684
1015.64
1004.56
1108.32
862.165
590.964
726.418
740.069
1150.43
968.218
1026
976.093
1072.42
889.115
759.906
1027.71
861.523
817.973
812.787
871.1
630.616
568.136
712.687
503.601
685.419
329.384
476.676
442.381
314.974
1062.64
965.693
1093.16
810.612
605.843
768.522
651.96
587
533.051
467.846
455.345
391.93
344.066
305.647
1225.66
1044.05
1119.51
980.475
1066.91
909.302
794.081
570.933
288.168
287.926
287.926
290.753
287.926
287.926
383.735
312.782
473.849
399.74
289.539
295.368
326.135
929.073
531.785
715.815
454.49
859.197
611.594
789.903
1114.93
764.61
716.984
888.031
990.989
887.67
1029.18
1033.26
797.029
926.154
596.173
762.27
898.279
1057.65
575.386
376.547
544.425
297.219
380.253
353.839
293.646
1065.94
637.328
878.118
737.973
991.52
779.136
488.32
834.45
553.629
770.94
418.958
646.055
544.978
334.397
1152.73
929.752
1031.07
818.63
940.591
768.204
622.934
319.024
287.928
287.926
287.931
287.926
287.926
287.926
384.557
311.48
480.563
394.28
289.336
294.652
321.697
812.413
977.771
1038.42
817.859
456.133
556.551
744.037
440.964
480.914
687.211
636.096
296.54
383.266
423.793
461.322
300.421
430.315
290.517
341.856
322.899
289.473
539.261
890.022
857.912
759.237
473.058
434.825
793.81
1099.41
820.214
916.632
792.607
925.972
688.596
538.853
392.795
354.774
333.999
298.308
294.539
291.413
290.051
975.402
845.763
944.442
631.856
560.328
518.098
672.523
1013.85
803.871
946.396
540.985
706.687
624.494
462.005
759.785
915.693
683.71
736.128
639.14
487.818
395.694
967.474
862.486
833.798
722.847
687.012
524.227
564.148
395.295
380.454
468.439
311.147
289.458
294.904
293.351
644.907
591.574
402.658
396.019
294.349
348.187
302.397
1037.82
830.162
1020.29
778
574.342
534.46
808.243
504.874
317.414
387.698
296.539
326.488
293.937
289.155
445.355
342.074
500.918
324.996
289.069
303.919
290.769
602.474
917.377
893.565
701.599
424.386
389.514
734.827
965.039
494.194
506.511
677.179
669.056
820.52
839.4
344.959
294.356
389.672
306.01
288.235
295.585
288.685
442.219
623.334
773.219
668.644
301.349
354.78
511.416
756.734
711.407
860.315
525.899
319.026
420.815
378.931
955.812
739.216
933.008
650.03
462.216
423.581
686.239
391.297
389.249
320.335
312.752
294.337
293.647
289.278
357.579
289.359
288.917
322.228
311.308
297.969
288.336
287.957
287.926
287.926
287.926
287.926
287.926
287.926
639.815
748.722
847.561
648.118
308.428
488.234
403.116
502.777
308.55
369.405
295.715
324.269
292.291
288.784
321.45
298.631
312.76
289.322
291.34
288.98
288.362
898.946
612.148
756.1
439.418
592.558
431.02
324.978
781.561
531.823
522.207
472.179
461.334
306.843
309.114
853.86
901.901
818.739
666.966
572.312
597.254
361.402
597.731
336.127
652.398
323.312
319.397
609.355
641.342
893.685
358.296
648.133
454.49
780.729
525.029
305.183
287.926
288.527
287.926
287.926
287.926
287.931
287.926
330.347
288.296
289.961
288.309
289.735
297.617
297.299
570.193
302.566
291.122
314.976
331.531
485.448
361.947
642.048
301.331
547.493
368.308
342.107
506.869
680.577
419.26
382.389
645.769
522.056
289.171
308.572
323.607
564.217
704.915
874.214
637.827
295.405
452.372
344.439
570.022
324.934
568.132
303.38
311.945
525.015
614.238
508.67
696.444
825.786
613.799
296.142
329.042
463.86
864.417
753.461
967.658
696.247
328.957
438.574
548.963
828.624
464.394
587.13
392.543
520.409
324.913
296.873
759.329
459.003
498.471
397.882
436.069
302.327
297.135
287.927
287.947
287.937
294.515
287.936
287.926
287.926
287.926
291.781
291.719
289.002
288.408
288.075
288.067
287.968
505.506
317.394
580.378
355.101
288.875
320.116
290.133
768.169
414.633
734.854
537.879
317.306
306.672
578.266
342.503
679.457
638.35
294.716
430.618
395.494
292.212
558.7
442.806
681.717
417.567
289.625
319.759
298.007
380.729
290.428
323.093
288.312
293.553
289.483
288.033
310.159
291.174
301.851
288.14
288.875
288.507
288.055
330.737
455.342
351.864
289.643
302.533
290.986
288.248
651.476
737.13
866.343
555.286
299.764
347.932
405.39
345.756
307.738
438.583
290.245
312.73
296.214
288.623
707.828
482.516
673.522
365.123
304.174
298.482
396.549
678.764
747.443
616.382
489.899
373.007
415.219
299.23
366.508
292.964
347.637
513.792
334.944
291.415
288.254
504.966
296.206
464.09
394.261
293.572
291.507
429.927
287.926
287.926
287.926
287.926
287.926
287.926
287.926
288.426
291.881
300.738
291.555
287.966
288.067
288.941
288.202
289.458
294.786
290.797
287.951
288.038
288.547
491.671
300.303
289.933
362.619
298.883
503.374
354.968
309.708
288.176
294.35
288.029
290.552
288.647
287.955
312.72
288.173
294.255
288.078
292.071
288.858
287.962
327.899
289.864
296.778
288.291
289.624
288.277
288.002
587.724
407.101
353.739
353.755
318.321
292.836
290.032
543.581
292.527
317.666
291.571
306.974
396.97
414.011
465.085
293.155
289.412
321.289
296.213
423.992
339.692
335.893
464.214
635.663
386.715
288.461
291.355
307.372
341.022
484.996
644.028
441.708
289.03
294.361
328.996
292.516
291.485
289.227
288.405
288.068
288.107
287.946
291.995
295.494
387.348
316.679
287.983
288.829
289.644
290.997
289.522
295.202
288.218
287.952
288.045
287.99
467.652
302.439
318.885
288.495
307.692
297.22
507.639
314.723
288.84
294.06
288.091
288.974
288.165
287.962
431.668
395.672
581.589
316.607
288.572
291.562
293.534
493.997
296.332
314.244
291.418
299.236
288.681
288.158
348.479
410.223
312.84
299.189
289.737
292.285
288.232
288.167
288.343
293.669
291.403
287.937
288.07
288.177
288.396
289.574
302.378
297.223
287.963
288.221
288.951
332.58
289.892
310.172
288.305
289.166
302.399
354.991
290.574
305.67
373.276
328.269
288.131
289.038
295.857
418.274
289.428
341.168
288.278
300.348
291.98
288.036
290.631
407.425
373.927
304.29
288.619
288.364
313.345
324.804
290.855
321.08
289.056
288.043
289.193
288.03
388.21
592.42
346.394
290.11
331.588
291.915
288.109
421.908
408.162
677.612
292.666
361.934
293.561
288.235
491.256
288.667
314.733
288.807
320.229
290.222
287.988
288.878
287.937
287.934
287.986
287.964
288.199
288.139
375.473
288.106
288.317
288.611
301.15
291.131
293.591
289.787
291.628
305.596
288.646
287.941
288
288.072
305.025
293.4
353.05
290.182
287.967
288.107
288.446
304.484
290.117
313.492
288.78
287.974
288.465
288.004
528.722
291.012
325.501
289.17
303.839
288.994
288.01
318.902
775.187
287.926
293.33
315.546
287.928
840.372
471.342
409.901
287.943
470.061
290.783
287.926
287.969
288.619
290.855
287.926
828.317
703.295
742.932
721.143
680.342
558.674
530.346
806.905
642.689
687.87
600.929
646.394
490.468
439.565
542.382
672.642
731.452
584.03
509.472
379.796
325.212
289.162
287.929
287.926
287.926
287.939
287.926
287.926
592.389
381.18
563.415
297.599
390.473
364.852
294.05
307.209
498.35
316.445
290.898
353.797
334.358
289.843
500.448
387.986
596.644
335.517
421.283
297.996
290.105
388.27
434.049
299.012
314.653
288.397
300.496
288.961
468.537
346.514
522.009
334.954
289.245
309.947
291.089
757.704
868.453
911.309
469.582
832.372
890.275
887.512
878.437
597.253
833.456
859.166
290.583
810.427
812.506
888.639
403.519
797.473
898.644
906.151
913.463
910.077
916.724
900.336
900.533
922.789
911.616
913.151
912.9
917.765
897.325
890.045
915.332
902.328
924.805
901.161
885.832
879.275
863.649
897.229
886.865
898.353
853.045
887.345
886.506
842.727
903.796
871.769
903.354
833.789
885.05
882.514
819.764
892.128
881.26
896.883
880.458
792.761
867.373
823.158
887.327
856.719
897.987
873.398
759.582
856.222
795.098
647.026
678.082
289.187
288.195
529.093
290.856
287.926
877.629
874.803
897.321
846.595
869.022
838.039
794.587
846.379
870.875
883.779
750.196
845.374
811.455
692.166
871.474
749.707
847.682
710.887
829.83
790.565
646.77
755.63
744.361
850.308
839.142
567.266
721.289
733.893
771.086
829.948
860.395
805.906
735.939
725.047
622.921
689.034
848.946
761.557
760.267
518.061
615.995
686.692
811.778
599.729
684.599
734.656
465.187
565.231
656.323
818.303
654.288
637.908
524.465
786.444
685.883
700.31
594.269
575.652
742.288
682.249
337.577
498.216
517.905
344.496
666.201
482.557
772.778
671.415
628.019
487.084
745.334
590.363
464.397
403.828
586.5
459.574
313.106
492.964
372.084
569.281
357.752
552.729
426.405
299.466
604.027
326.405
338.569
300.887
408.323
427.918
504.673
290.064
306.861
340.635
288.104
292.826
289.432
287.981
338.92
297.961
404.039
288.387
296.173
290.391
288.058
290.871
293.152
338.077
362.452
292.668
512.7
334.557
309.026
296.849
389.907
293.915
288.795
288.301
287.979
287.984
297.247
288.355
294.758
390.926
308.4
288.842
315.94
288.051
289.157
300.59
433.116
317.785
289.244
288.163
288.335
294.141
291.908
287.936
288.181
288.077
288.065
288.614
301.549
288.522
287.933
287.958
288.051
289.124
288.115
293.279
288.311
287.929
287.94
288.01
288.234
287.985
289.452
288.097
287.927
287.933
287.961
288.897
287.936
288.176
287.934
288.139
287.979
287.928
288.781
294.125
319.76
293.618
287.952
288.07
288.917
289.62
287.976
287.954
287.931
288.609
287.996
288.049
289.692
296.734
288.51
288.292
287.931
287.951
287.999
303.379
288.049
287.999
288.75
288.331
292.852
290.765
381.652
288.489
288.112
289.141
294.746
291.052
308.527
287.989
288.268
289.559
288.16
287.928
287.935
287.975
349.121
290.85
296.613
288.071
289.734
293.421
377.695
402.654
288.805
306.357
288.167
292.773
288.485
287.955
287.982
287.961
287.931
288.057
288.006
290.011
288.83
292.888
287.992
288.15
287.945
290.083
288.079
288.453
288.15
288.254
289.476
287.987
287.928
287.935
287.939
288.942
287.988
288.215
287.935
287.966
287.937
287.928
296.906
288.226
291.96
287.951
288.208
288.048
287.937
291.413
288.316
302.763
288.979
287.933
287.955
288.17
287.98
287.931
288.058
287.969
287.926
287.943
287.928
288.147
297.19
296.167
288.485
287.945
287.942
288.554
326.866
287.999
290.665
288.044
292.555
288.233
287.934
288.288
288.656
292.476
288.091
287.956
287.94
287.928
287.926
287.926
287.926
287.926
287.926
287.926
287.926
294.016
287.956
287.937
287.982
288.105
288.918
288.262
288.348
287.936
288.188
287.932
288.066
288.011
287.929
309.695
287.973
288.03
288.239
288.506
289.681
292.019
288.844
287.981
288.188
287.934
287.961
287.936
287.928
288.091
291.811
294.152
288.348
287.934
287.938
288.191
310.659
288.125
289.569
287.999
288.526
287.97
287.931
288.285
288.325
295.091
287.927
287.953
288.39
287.95
287.927
288.126
287.946
288.297
291.907
288.127
287.946
288.153
290.268
288.026
287.933
287.926
288.085
287.942
287.926
287.936
288.166
288.066
290.469
288.03
287.932
287.939
287.936
288.142
287.932
288.029
288.066
290.286
287.943
287.935
288.156
287.989
287.926
287.928
287.93
287.946
287.989
288.474
288.044
287.926
287.939
287.93
290.288
288.024
287.933
288.365
288.205
287.988
291.72
291.594
287.967
288.548
287.934
288.032
287.945
287.927
289.894
287.948
288.754
287.93
288.063
287.985
287.928
287.95
288.006
288.716
288.176
287.927
287.934
287.95
287.928
287.94
287.991
287.94
287.926
287.926
287.929
288.305
288.411
296.645
288.196
287.927
287.942
287.939
288.38
288.034
289.387
287.971
287.927
287.94
287.93
287.981
287.977
288.447
287.928
287.947
287.928
287.926
288.042
287.995
287.948
287.939
287.93
287.928
287.926
287.926
287.927
287.934
288.149
287.96
287.941
287.928
287.926
287.927
287.949
287.99
288.394
287.947
287.929
288.589
287.927
287.975
287.929
288.038
287.934
287.926
288.69
287.93
287.928
287.943
288.018
287.946
288.068
287.988
288.057
290.224
288.082
287.926
287.935
287.93
287.965
287.945
288.214
287.927
287.938
287.927
287.926
287.938
287.928
288.087
287.927
287.932
287.926
287.926
287.932
287.93
287.927
287.946
287.939
288.254
288.023
1387.58
287.999
952.752
287.926
420.053
948.57
390.002
860.576
633.45
638.435
862.22
393.453
1226.54
888.486
596.84
1393.12
873.918
1222.01
591.133
949.866
933.011
930.684
922.259
921.712
872.867
872.22
949.449
930.683
929.83
918.893
920.677
872.015
869.208
287.949
313.384
805.455
807.464
314.959
424.224
287.951
923.515
390.681
544.426
928.046
390.348
556.851
288.005
903.89
862.181
903.968
818.34
749.357
754.838
814.309
862.592
905.726
904.506
819.035
752.031
817.011
755.507
1384.76
1386.75
1383.11
1310.8
1332.99
1330.41
1313.05
287.947
294.57
432.851
444.507
287.949
294.98
287.926
807.846
641.401
813.204
740.294
554.854
562.821
734.178
642.851
812.01
814.359
741.265
558.74
737.868
563.957
1388.02
1385.94
1382.79
1306.43
1322.12
1301.52
1326.29
1325.97
1224.56
1323.68
1240.19
1132.44
1132.89
1241.47
1222.72
1323.19
1322.15
1236.34
1123.81
1230.81
1129.92
921.037
1148.59
1280.28
1230.3
969.474
931.163
1305.19
978.319
1231.64
1034.62
745.709
994.741
1037.7
1146.8
999.656
751.159
925.548
954.041
958.173
1033.78
993.276
1030.81
996.272
940.812
963.266
972.744
1039.83
1013.49
1051.93
1001.98
972.987
1010.16
1012.96
1075.39
1108.94
1071.81
1110.66
988.508
1017.58
1026.54
1081.89
1122.45
1094.1
1114.35
1035.55
1021.47
1021.25
1048.91
1090.84
1050
1090.37
1042.85
1026.92
1022.84
1049.43
1095
1091.16
1052.33
994.397
972.501
972.938
1006.4
968.332
1007.29
968.665
977.135
996.067
974.069
1007.11
971.294
1009.65
969.63
1157.08
1109.77
1309.23
1283.26
1153.37
1311.44
1113.02
1165.19
1291
1135.9
1329.2
1180.16
1317.6
1120.77
1200.55
1301.46
1188.67
1228.37
1197.79
1301.56
1188.7
1206.79
1228.25
1311.52
1196.63
1218.42
1304.39
1190.66
1063.04
1129.39
1030.86
1146.89
1063.89
1127.45
1032.46
1062.97
1145.97
1129.66
1030.96
1126.87
1064.48
1032.27
985.595
888.859
896.694
753.249
984.048
893.852
900.847
986.045
754.816
891.883
900.491
986.057
894.605
901.894
809.348
720.803
727.581
663.378
670.886
553.275
543.713
809.865
723.784
728.382
666.577
671.755
554.477
547.636
670.026
581.63
478.756
399.024
488.065
589.801
663.103
670.903
400.262
482.628
585.148
666.49
489.269
590.768
1124.16
1151.05
853.211
891.783
857.655
1150.11
1124.21
1118.74
886.487
1134.63
839.779
1108.71
852.645
1144.44
1104.99
928.177
1105.84
961.81
966.303
735.881
726.83
1104.57
923.838
1101.68
957.697
964.726
736.281
728.814
1051.83
918.483
759.565
607.733
766.782
923.594
1050.11
1047.12
605.327
749.144
909.025
1036.74
762.792
920.088
722.21
554.642
730.74
502.419
336.156
343.304
490.103
732.132
551.217
727.163
504.701
340.225
496.86
344.93
299.615
589.31
430.412
598.706
403.974
301.666
394.003
475.97
317.723
485.878
361.294
291.243
291.856
352.941
318.382
479.875
487.166
362.529
291.467
356.081
291.951
431.917
593.261
599.875
405.409
300.382
397.927
302
442.736
365.473
373.582
300.498
302.522
293.008
292.278
438.004
368.799
374.769
301.427
302.905
293.125
292.565
707.139
400.964
716.618
462.973
296.549
297.91
450.297
400.455
704.373
715.27
464.13
296.901
453.981
298.032
315.642
295.695
320.215
289.345
288.198
288.246
289.129
295.865
317.341
320.901
289.379
288.215
289.208
288.253
288.458
296.47
288.234
287.954
288.29
288.554
295.188
296.674
287.954
288.255
288.493
295.662
288.299
288.57
308.844
288.014
288.546
290.103
306.736
288.62
290.351
308.265
288.5
289.912
288.011
288.601
290.272
305.29
287.951
288.484
288.548
288.137
287.934
288.114
287.935
712.493
519.55
287.947
403.329
845.27
514.531
427.953
287.948
843.424
751.279
845.843
757.433
719.299
579.918
571.083
846.319
715.804
754.36
758.327
720.285
581.237
575.089
326.455
321.937
510.621
291.563
363.868
371.73
292.126
604.874
299.903
423.702
433.901
613.747
412.866
301.9
323.781
520.911
327.23
373.002
291.787
367.161
292.223
435.427
608.886
614.993
414.394
300.675
407.259
302.241
884.725
610.27
878.567
901.189
885.061
885.057
879.276
614.244
883.499
908.757
881.209
905.97
897.612
894.196
897.108
881.445
901.518
909.47
905.829
897.416
893.914
897.339
855.233
893.451
882.51
890.033
882.602
884.762
856.958
901.077
877.975
898.687
881.541
837.979
883.402
840.448
882.421
893.564
889.802
882.474
856.763
885.018
857.322
878.071
901.449
898.555
881.445
839.529
883.638
840.819
763.904
854.769
753.446
619.259
852.963
759.597
769.863
855.102
620.449
766.851
756.306
854.415
760.383
770.688
288.219
295.555
288.436
296.761
287.95
288.523
288.267
296.97
287.951
288.238
288.47
296.028
288.537
288.275
287.933
288.102
288.445
287.951
288.532
288.133
287.934
287.928
287.937
287.975
287.984
287.926
287.928
287.939
287.985
287.926
287.928
287.938
287.978
287.928
287.939
287.977
287.926
287.926
287.932
287.933
287.927
287.926
287.927
287.965
287.935
287.949
287.926
287.927
287.931
287.954
287.926
287.926
287.926
287.929
287.927
287.932
287.927
287.932
287.965
287.935
287.926
287.926
287.927
287.94
287.941
287.995
287.928
287.926
287.926
287.926
287.944
287.926
287.932
287.926
287.931
287.927
287.926
287.966
287.996
289.302
288.043
287.926
287.929
287.932
287.934
288.016
288.224
287.947
287.926
287.926
287.932
288.075
288.013
289.782
287.981
287.926
287.93
287.929
287.936
287.931
287.927
287.927
287.926
287.926
287.926
287.937
287.96
288.348
287.956
287.926
287.927
287.928
287.937
287.926
287.927
287.926
287.93
287.926
287.928
287.992
287.926
287.927
287.926
287.928
287.932
287.942
287.962
287.927
287.926
287.93
287.927
287.966
287.93
287.93
287.934
288.066
287.942
287.926
287.926
287.927
287.932
287.937
288.018
287.928
287.926
287.926
287.926
287.953
287.926
287.929
287.926
287.927
287.926
287.926
287.941
287.926
287.926
287.926
287.926
287.927
287.929
287.953
287.926
287.926
287.928
287.927
287.943
287.929
287.927
287.93
287.951
287.926
287.927
287.926
287.926
287.926
287.927
287.953
287.926
287.926
287.926
287.927
287.927
287.927
287.943
287.926
287.926
287.926
287.927
287.926
287.926
287.926
287.927
287.927
287.95
287.931
287.927
287.927
287.945
287.927
287.926
287.926
287.926
287.928
287.926
287.926
287.926
287.926
287.926
287.926
287.926
287.927
287.935
287.93
287.926
287.926
287.926
287.926
287.928
287.942
287.927
287.926
287.926
287.926
287.926
287.926
287.926
287.926
287.926
287.935
287.927
287.926
287.93
287.926
287.926
287.926
287.926
287.926
287.926
287.926
287.926
287.926
287.926
287.933
287.926
287.934
287.926
287.926
287.926
287.926
287.926
287.926
287.932
287.926
287.927
287.926
287.926
287.926
287.926
287.932
287.926
287.927
287.926
287.926
287.926
287.926
287.928
287.926
287.926
287.926
287.926
287.926
287.926
287.926
287.926
287.927
287.926
287.926
287.926
287.926
287.926
287.926
287.927
287.926
287.926
287.926
287.926
287.927
287.926
287.926
287.926
287.926
287.926
287.926
287.926
287.926
287.929
287.926
287.926
287.926
287.926
287.926
287.926
287.93
287.926
287.926
287.926
287.926
287.926
287.926
287.926
287.926
287.926
287.926
287.926
287.927
287.926
287.926
287.926
287.926
287.926
287.926
287.926
287.926
287.926
287.926
287.926
287.926
287.926
287.926
287.99
287.934
287.936
287.926
287.926
288.009
287.926
288.522
287.926
287.926
287.926
287.926
287.926
287.926
287.926
287.926
287.927
287.926
287.926
287.926
287.956
287.926
287.926
287.926
287.926
289.319
287.926
287.926
287.926
287.926
287.926
287.926
287.926
287.926
287.926
287.926
287.926
287.926
287.926
287.926
287.926
287.926
287.926
287.926
287.926
287.926
287.926
287.926
287.926
287.926
287.926
287.926
287.926
287.926
287.926
287.929
558.921
318.823
550.729
287.942
317.907
287.929
287.926
287.926
287.932
289.092
287.926
287.927
287.926
288.609
287.926
287.928
302.684
287.926
287.927
287.926
289.436
287.926
287.926
287.937
287.926
287.926
287.926
287.926
287.926
288.021
291.501
287.926
287.926
287.926
516.399
568.322
526.295
303.83
309.681
312.214
302.099
564.904
509.411
523.295
303.533
308.74
301.544
311.703
416.457
322.863
426.824
293.394
288.776
288.896
292.724
322.338
412.474
424.99
293.309
288.756
292.566
288.883
301.768
288.619
304.167
288.744
288.729
287.968
287.962
304.563
288.666
288.654
288.764
288.749
287.969
287.964
287.926
287.926
287.926
287.926
287.926
287.926
287.926
289.47
288.066
288.082
287.976
287.982
287.932
287.931
289.241
287.974
288.058
288.078
287.981
287.931
287.931
288.112
287.989
288.072
287.934
287.929
287.932
287.928
288.061
287.971
289.02
289.221
288.086
287.979
287.933
289.252
288.07
288.09
287.974
287.98
287.933
287.932
287.952
287.969
288.029
287.928
287.927
287.93
287.928
287.933
291.493
288.176
292.035
288.217
288.035
287.935
292.019
288.187
288.221
288.021
288.035
287.935
287.934
287.957
287.933
287.949
287.926
287.927
287.927
287.926
287.942
287.936
288.306
288.356
287.944
287.938
288.597
287.926
287.926
287.926
287.926
287.926
287.926
287.926
288.349
287.944
288.501
287.936
288.294
287.938
288.585
287.926
287.926
287.926
287.926
287.926
287.926
287.926
287.926
287.926
287.926
287.926
287.926
287.926
287.926
287.926
287.926
287.926
287.926
287.926
287.926
287.926
287.929
287.926
287.926
287.926
288.005
287.938
287.926
287.926
287.926
287.926
287.926
287.926
287.926
287.926
287.926
287.926
287.926
287.926
287.926
287.926
287.926
287.926
287.926
287.926
287.926
287.926
287.926
287.926
287.926
287.926
287.926
287.926
287.926
287.926
287.926
287.926
287.926
287.926
287.926
287.926
287.926
287.926
287.926
287.926
287.926
287.926
287.926
287.926
287.926
287.926
287.926
287.926
287.926
287.926
287.926
287.926
287.926
287.926
287.926
287.926
287.926
287.926
287.926
287.926
287.926
287.926
287.926
287.926
287.926
287.926
287.927
287.926
287.926
287.926
287.926
287.926
287.926
287.926
287.926
288.03