/*--------------------------------*- C++ -*----------------------------------*\
  =========                 |
  \\      /  F ield         | OpenFOAM: The Open Source CFD Toolbox
   \\    /   O peration     | Website:  https://openfoam.org
    \\  /    A nd           | Version:  9
     \\/     M anipulation  |
\*---------------------------------------------------------------------------*/
FoamFile
{
    format      ascii;
    class       volScalarField;
    location    "0.00035";
    object      overpressure;
}
// * * * * * * * * * * * * * * * * * * * * * * * * * * * * * * * * * * * * * //

dimensions      [1 -1 -2 0 0 0 0];

internalField   nonuniform List<scalar> 
4969
(
2.47805e+06
2.27183e+06
23801.4
737158
1.42798e+06
2.29605e+06
110901
503935
383021
882574
465538
1.0774e+06
1.24752e+06
1.77808e+06
1.60692e+06
1.48468e+06
1.30541e+06
2.08854e+06
753232
1.6934e+06
2.1719e+06
2.4618e+06
2.13534e+06
1.44141e+06
1.62854e+06
2.22485e+06
1.96016e+06
1.9502e+06
2.11783e+06
952745
1.36285e+06
873293
1.85427e+06
1.97146e+06
2.01883e+06
1.99054e+06
2.53673e+06
2.07855e+06
2.628e+06
2.37014e+06
1.09489e+06
1.77015e+06
2.1059e+06
1.89118e+06
1.09837e+06
577774
153264
2.12862e+06
1.93098e+06
1.41899e+06
307014
258468
17864.9
1.54448e+06
678920
605681
1.59053e+06
14354.8
739.889
6225.21
1.27321e+06
59511.2
339136
597055
5.37688e+06
1.10126e+06
3.42477e+06
93439.4
80002.4
2.58235e+06
111185
2.41102e+06
3.94065e+06
90070.9
140490
104726
105660
25577.9
103967
96024
57848.3
138775
76359.6
77196.1
102508
121489
107692
88870.3
68190.2
103960
71507.9
117661
69523.1
57572.1
102000
85149.6
66277.1
70853.5
86722.4
119145
85190.9
100492
51981.9
89987.4
67337.6
118278
69954.6
84284.8
55364.3
101604
296420
2.87803e+06
321706
306288
2.49245e+06
292569
2.73293e+06
274007
298258
2.42739e+06
2.68146e+06
301259
283787
2.65312e+06
34188
21595.7
53047
32147.3
34096.9
66259.6
36250.8
29400.6
33540.4
35417.7
37608.3
25722.5
67940.9
37435.6
5.02343e+06
360017
457659
2.12743e+06
1.54738e+06
2.35167e+06
1.58477e+06
248817
495542
212290
1.60014e+06
790911
1.64878e+06
826008
168723
144799
92759.6
102096
62642.1
76605.9
65833.1
155395
91752
88909
72847
54787.9
69871.5
62692.5
91657.2
100052
92619.6
54009.4
57042.6
63470.2
49741.1
92686
100406
47909.5
100235
58807.6
53579.5
64725.5
460122
4.36454e+06
839601
4.04419e+06
731022
411504
3.20425e+06
719860
4.11693e+06
803280
403485
3.19536e+06
436443
3.10916e+06
365845
117973
299414
138275
41679
42903.7
93258.7
118208
366775
300158
43871.1
108613
44553.8
94399.3
434493
242063
200852
958039
747407
609102
1.13034e+06
367012
207425
260817
973549
782420
622274
1.17083e+06
247796
307151
261848
761139
781919
626662
928052
208541
298509
245525
753816
751352
617603
905134
1.55003e+06
5.11565e+06
1.3654e+06
2.21583e+06
5.38846e+06
2.40647e+06
5.32868e+06
406198
932881
501806
1.17187e+06
2.04251e+06
1.9056e+06
1.34962e+06
1.34903e+06
5.18028e+06
1.50327e+06
2.19535e+06
5.30107e+06
5.27758e+06
2.36163e+06
404378
1.09676e+06
931667
1.1673e+06
2.04187e+06
1.90459e+06
1.33781e+06
1.82309e+06
1.60651e+06
1.58796e+06
1.66967e+06
1.43331e+06
1.96943e+06
1.75709e+06
1.79501e+06
1.56604e+06
1.66685e+06
1.65143e+06
1.41231e+06
1.92745e+06
1.75701e+06
1.62593e+06
1.62042e+06
1.56926e+06
1.71664e+06
1.44379e+06
1.77364e+06
1.70533e+06
1.61881e+06
1.59015e+06
1.72779e+06
1.61279e+06
1.43305e+06
1.75635e+06
1.71791e+06
2.70189e+06
4.4125e+06
2.55638e+06
1.81525e+06
4.51803e+06
2.75269e+06
1.94512e+06
1.99535e+06
2.0613e+06
1.36531e+06
979352
2.15148e+06
2.05895e+06
1.54141e+06
1.99616e+06
2.09174e+06
993151
1.40981e+06
2.16088e+06
2.06737e+06
1.55713e+06
2.71629e+06
4.3019e+06
1.69594e+06
2.50486e+06
2.73744e+06
4.50291e+06
1.92715e+06
3.3063e+06
2.11212e+06
1.58029e+06
1.39823e+06
4.46661e+06
283021
2.70302e+06
4.45302e+06
39103.4
225690
158225
2.67938e+06
232030
54115.6
230615
6445.77
464186
70313.2
54058.6
84755.5
46357.2
47860.9
42133.5
32458.2
84500.5
39120.9
71964.5
27247.3
49459.1
35456.7
37105.6
298018
2.49938e+06
273242
417278
2.85108e+06
332556
3.13703e+06
36912.7
21762.9
20269.7
22242.3
46600.7
16248.9
87022.8
95597.2
153667
51580.8
35768
26548.5
95977.9
51234.1
54679.1
182065
52330.8
28839
18251.6
53012.2
54847.9
3.55133e+06
16243.3
13715.2
738422
872943
5.38567e+06
1.00087e+06
117620
128879
216334
53067.1
411196
79783.9
70699.8
122716
276686
136744
77403.1
56146.3
75336.8
51863.9
3.61007e+06
1.11894e+06
625863
3.04783e+06
385282
629089
3.60701e+06
739929
5.01379e+06
3.44288e+06
1.00809e+06
1.44027e+06
531092
3.86549e+06
738153
302582
74832
10900.1
64978.3
76418.3
236737
1.03795e+06
564593
218346
114367
161054
57081.6
329859
1.39225e+06
591017
711816
543155
651760
202416
172520
1.90125e+06
593776
876031
546817
311571
942466
166897
379177
645284
1.12862e+06
1.07218e+06
1.48748e+06
2.00456e+06
1.59215e+06
6.49717e+06
5.85592e+06
2.17642e+06
1.20348e+06
5.84135e+06
2.25684e+06
4.61755e+06
2.03926e+06
1.08564e+06
1.91247e+06
1.81866e+06
998941
340121
814889
5.71001e+06
1.84104e+06
2.43316e+06
5.325e+06
2.65568e+06
3.06606e+06
5.30536e+06
2.53165e+06
1.44156e+06
1.91233e+06
2.41797e+06
1.89886e+06
2.04403e+06
2.0838e+06
1.38951e+06
1.35969e+06
890792
1.81857e+06
2.11381e+06
2.11732e+06
1.93703e+06
5.63736e+06
6.03967e+06
3.18057e+06
3.21095e+06
3.59577e+06
2.47143e+06
4.84815e+06
833449
1.8384e+06
1.47386e+06
4.16096e+06
2.78274e+06
2.56186e+06
3.62953e+06
20841.4
245642
277077
1.5837e+06
625934
589693
1.51798e+06
10913.5
224803
191799
1.77307e+06
774804
552256
2.43736e+06
2.61788
0.275291
0.0185376
1.14258e-05
57.5647
9.91647
483.01
541.672
0.0529775
13.91
0.819796
0.000464349
0.00320833
0.000238211
1.99376e-07
1.75551e-06
24210.9
317720
620.945
475168
949.496
430065
229.957
36468.3
3.55313
67.2564
0.0065551
0.060946
0.000650981
0.00195365
1.07106e-05
3.66606e-05
3.57407
312.325
10.1034
355.488
5.65093
206.869
6.35017
1.23023
39.2027
0.701562
135.136
83.9791
2.02602
0.466838
3.20467
313.692
279.315
9.11454
187.355
5.54668
5.11076
1.0192
110.48
8.21879
0.214574
64.2219
1.79272
0.123909
0.000888736
0.481734
0.0126125
0.0317917
0.00781927
0.0204361
0.000735492
0.000103106
0.00306457
0.00320704
0.000101965
0.00249511
0.000115115
9.72619e-05
0.000199863
4.68502e-05
3.43527e-05
2.4995e-06
1.74769e-06
2.22727e-06
0.000136852
417035
551150
618542
26163.4
18079
15200.4
10904.8
519219
569978
669510
29966.5
17348.9
20209.5
11880.7
259406
337336
424059
4991.72
3448.76
9205.01
5900.09
42029.4
841.356
53110.8
239180
203626
5036.93
3690.08
679.486
61058.8
45628.3
211655
265031
5681.17
3986.05
219723
59871.7
312648
881.915
6797.55
528.439
4087.07
241.488
337.615
26268.8
138584
117524
1280.29
1939.24
29.1449
15954.8
2130.88
12102.5
87105.7
173.705
1278.51
1.11099e+06
434797
0.131321
0.015017
1.3192e+06
4.67341
1.59431
0.00918957
0.000583969
0.00111952
829564
875725
1.8111e+06
892464
1.58475e+06
1.61146e+06
1.42268e+06
2.08954e+06
1.62499e+06
2.16307e+06
2.61751e+06
1.28009e+06
2.04979e+06
227.717
143195
397827
1.10141e+06
1.12517e+06
2.00025e+06
332761
941991
2.12876e+06
1.65032e+06
1.7551e+06
1.79397e+06
1.66611e+06
1.41119e+06
1.5648e+06
1.92705e+06
1.64735e+06
1.71623e+06
1.7265e+06
1.43193e+06
1.61751e+06
1.58852e+06
1.75457e+06
1.6227e+06
1.03355e+06
585723
2.07969e+06
1.47599e+06
2.36922e+06
2.61637e+06
0.0827325
60474.2
302546
0.0641547
0.0140454
27.5545
0.0270558
1.69446e+06
2.15678e+06
907867
2.06933e+06
2.18545e+06
2.14389e+06
797539
1.36271e+06
953754
1.42732e+06
1.98984e+06
2.01859e+06
1.85225e+06
1.96907e+06
2.34258e+06
2.54456e+06
1.93987e+06
4.50881e+06
2.69875e+06
4.40551e+06
2.75078e+06
1.3609e+06
871231
1.38894e+06
2.11847e+06
1.93857e+06
1.81841e+06
2.11477e+06
824665
1.40811e+06
2.15783e+06
990026
1.55456e+06
1.99403e+06
2.06476e+06
2.33756e+06
2.3708e+06
1.90203e+06
2.35312e+06
1.60027e+06
1.4594e+06
2.35842e+06
1.45755e+06
2.39926e+06
2.30707e+06
2.02521e+06
243452
563440
1.71056e+06
1.47054e+06
997051
1.83207e+06
3.62482e+06
2.55995e+06
4.1557e+06
2.78203e+06
1.89098e+06
155017
504974
580849
1.09873e+06
1.93216e+06
2.12621e+06
2.32854e+06
1.90487e+06
2.2487e+06
576133
1.13333e+06
2.2864e+06
1.9874e+06
142530
1.48218e+06
212225
315428
6999.05
4336.46
226923
1.38731e+06
4896.26
274895
3191.86
199241
1.25465e+06
101625
368034
7345.72
540.537
40445
28627.6
5424.19
379.238
968160
8695.06
50508.9
16613.2
239.457
1402.74
92802.8
16699.6
1163.18
84752.2
953722
9542.24
42682.5
482871
184280
3313.62
12843.5
708.222
2612.74
165.364
39.7586
87.5138
2.59737
142.187
119.793
7578.5
75.4537
4826.58
111.123
2135.18
3570.21
53.2773
31.7859
1.82472
1.09218
1981.43
68.8158
1.02163
44.6107
0.658084
1331.37
18.4138
15.7402
0.183449
10.8671
1.58443
1.02565
95.3617
63.8407
0.168203
0.252851
14.2151
0.938369
1.44192
85.5878
58.5081
0.096017
293.038
4.90408
0.519922
28.6502
25.8298
1642.96
1.10778
0.118482
1.57892
107.333
7.84385
77.1035
5.39252
4.60997
0.0313646
0.0667018
0.164495
0.380249
14.3318
27.052
3.41066
0.00867613
0.409739
0.297294
0.0400965
2.54525
19.7458
21.4141
116.479
680.297
1.66746
0.0724424
9.94326
0.349013
3.15708
16.221
0.247224
116.476
530.529
7.14055
1.53653
0.0190591
0.0415747
0.480682
9.16336
34.9346
2.21222
0.517308
0.00937962
0.0345686
0.0512154
1.86977
0.0368046
1.17207
0.026349
0.0803127
0.014986
0.474578
0.00663583
0.0048812
0.00700786
0.014153
1.52559
0.0798789
2.50649
0.0337363
0.0738706
0.033524
0.057792
8.29459e-07
6.1118e-10
0
4.98403e-08
3.07773e-08
1.32422e-09
6.1118e-10
3.08501e-08
1.38243e-09
4.7934e-08
1.45519e-11
0
1.45519e-11
0.000119093
0.0195001
2.88921e-05
578.588
4.26412e-05
3.85626e-09
0
0.000114371
0
5.67525e-10
0
0
5.23869e-10
6.1118e-10
4.07454e-09
0
0
0
1.32728e-06
2.45927e-08
2.85363e-08
1.27056e-06
5.95434e-06
1.40251e-07
1.35944e-07
6.01783e-06
3.04135e-09
2.89583e-09
1.79949e-07
7.25863e-06
1.7097e-07
1.45519e-10
2.47383e-10
0
0
1.60071e-10
1.45519e-10
0
0
0
1.45519e-11
0
1.45519e-11
0
0
0
0
0
0.00104141
0.0950525
0.00299791
0.223012
0.00391504
0.255203
0.00138391
0.00419157
0.000127268
0.000140643
3.97068e-06
3.39655e-06
9.43255e-08
1.51605e-06
2.73576e-08
0.517417
0.0512445
1966.62
6.17263e-05
42472.8
50236.3
2.24963e+06
0.00618102
729.841
1.61765e+06
64.4146
2.3328e+06
2.2867e+06
2.6203e+06
1.98433e+06
1.90191e+06
1.13199e+06
572489
0.00365648
0.00256246
0.00281394
3.7765e+06
5.72074e+06
2.59992e+06
384945
139051
1.49355e+06
766562
596986
1.81931e+06
2.67055e+06
2.97605e+06
2.79052e+06
700139
1.78209e+06
1.55794e+06
390841
2.24637e+06
1.67938e+06
846292
2.47705e+06
390327
1.63948e+06
97397.7
3.00106e+06
53610.9
4.21377e+06
6.45246e+06
70601.8
1.53047e+06
31697
157250
14464.2
51829.2
1.48826e+06
243373
1.9298e+06
2.48826e+06
51.7762
1.62037e+06
516.01
1.285e+06
0.805174
1.85148
1.21459e-05
2.16106e+06
4464.39
68.8229
1.75256e+06
1.8245e+06
24985.7
460.776
0.733013
464.543
7.89619
1.91818e+06
28166.3
548.967
2.05982e+06
1.80674e+06
849.969
21.9048
9.41637
13.5911
0.309841
359573
51.7339
1.23507
118.607
3.70852
0.00380703
0.000453993
0.01714
0.000234933
2.05788e-05
0.0140873
0.000202969
6.99195e-05
0.000929883
0.000657895
2.32973e-06
5.02754e-07
2.75995e-06
6.84668e-08
8.89122e-09
25.5764
124.236
59.1289
259.319
342.664
179.565
0.444835
0.0289903
0.0156456
4.18982e-06
4.36262e-06
2.26019e-06
251260
311937
2227.21
8465.65
404708
4186.03
185930
73605.4
6885.16
540.518
121.336
9428.22
966.901
53585.8
358300
16999.4
608120
12588.9
536768
8475.36
430520
133265
280.528
28758.3
3398.6
18519.8
2135.99
181520
6.15826
1.63977
13.8082
296.171
231.782
144.695
4.49723
57.9589
34.5832
391206
650822
14192.2
19220.8
466675
555345
10164.8
168488
34564.4
3923.51
448.277
203251
29298.4
2948.24
198874
6520.45
57795.8
476.54
303650
3582.11
32743.8
68835.6
166.301
1572.06
144.137
11258.6
1013.91
10001.9
66.8046
7.37123
48.5819
107.346
7.53503
57.4485
2.52163
2.13231
16.166
61.9886
3469
29.0344
1.76827
1943.43
108.782
0.990448
18.1182
88.7266
8.37031
0.039772
568.197
2.73698
0.277023
1.45161
0.0466847
0.0570525
0.0010885
2.53855
0.025047
0.0343881
0.419241
0.00129132
0.00714559
0.000587194
0.0658113
0.00705242
0.0140419
0.121939
0.000582027
0.00416822
0.000969017
4.24828e-05
0.000439551
3.1811e-05
2.414e-05
0.000124356
0.00129859
0.00200817
9.28017e-05
0.000134366
0.00170984
0.00124618
6.54692e-05
0.00131799
0.00140287
7.03872e-05
3.29784e-05
0.0014059
0.00121172
4.22253e-05
0.000132153
6.65935e-06
5.66618e-05
6.50412e-07
0.000124089
5.4394e-06
1.86705e-05
7.35166e-05
1.44461e-06
2.72812e-05
5.97996e-07
6.10659e-05
2.25262e-06
2.3112e-05
2.83473e-06
7.54226e-07
1.14768e-06
2.4063e-07
1.98197e-08
1.64611e-07
3.45608e-08
1.33587e-08
6.26169e-08
2.32344e+06
1.88746e+06
1.2348e+06
414864
1268.31
93.3862
1.56314
0.429687
0.239285
0.0195484
1.09154e+06
1.6407
0.0476006
1.67625e-06
9.45874e-10
1.3308e+06
16.412
0.000126169
0.789052
7.69449e-06
7.75617e-09
2.32799e+06
6746.91
40759.7
0.00937824
3.86318e-06
0.00133758
3.07031e-07
1.30967e-10
0.208037
0.0192348
7231.88
0.00657966
0.00182973
4.69125e-06
3.81508e-07
1.74623e-10
5109.04
4.53641
0.000311023
1.22936e+06
9286.97
38.7206
0.00297514
0.00138022
4.62305e-05
6.65939e-07
12.357
0.00488012
0.000256769
3.90032e-06
3.94502e-08
2.38142e-07
1.07069e-05
0.637054
6.02665e-05
1.51194e-08
7.6357e-06
9.06439e-08
6.0536e-09
21261.5
48.0102
0.00392315
1.07989e+06
8685.53
1.81772
0.000250983
0.00556289
0.000240816
3.68293e-06
0.6873
0.00150538
4.55993e-05
7.71732e-07
2.86193e-07
3.8111e-05
5.78148e-08
7.98583e-05
0.0248454
9.99177e-06
1.01048e-07
1.74758e-06
1.80153e-08
1.32422e-09
1.59941
0.0977902
8.5046e-05
0.320264
0.00915546
9.41572e-05
2.81188e-06
0.000248763
1.03716e-05
1.06258e-07
0.000301483
1.04148e-05
2.42246e-07
2.09548e-09
6.28643e-09
1.77155e-07
1.45519e-10
3.11187e-06
4.03629e-06
6.98346e-08
2.31375e-09
5.84987e-09
4.36557e-11
0
0.00013413
9.531e-06
1.14349e-07
5.66613e-05
3.67493e-06
6.92671e-08
2.40107e-09
2.20942e-07
7.61065e-09
1.01863e-10
1.65077e-07
6.4756e-09
1.16415e-10
0
3.04135e-09
1.39698e-09
2.91038e-11
0
0
0
0.00200822
0.10849
0.00484706
7.63728e-07
2.2779e-06
1.30426e-06
1.83354e-09
0.0440272
0.632316
0.0351211
5.70866e-06
7.93058e-06
6.01375e-06
8.93488e-09
4.04543e-09
8.41303e-05
6.22052e-05
2.16324e-05
1.47178e-07
2.99609e-07
1.68817e-07
5.82077e-11
1.01863e-10
2.91038e-11
8.24075e-08
7.69069e-08
4.05416e-08
5.82077e-11
1.01863e-10
4.36557e-11
26.0542
435.617
0.188764
8.0857
604.5
0.353601
18.1682
0.835427
0.0142505
0.00579998
0.000494988
0.0243236
0.0119118
0.529424
68.4386
21.5177
2407.66
2.10341
1398.97
1.07578
126.964
2.4992
0.00143102
0.162237
0.0846814
0.0772144
0.0405367
4.9874
0.00143768
0.00120756
3.68089e-05
6.44005e-05
0.0016892
4.95895e-05
0.00130377
0.000145939
2.58178e-05
3.10624e-06
1.38022e-06
5.74139e-05
4.39989e-06
0.000131038
0.00524887
0.000223212
0.0079772
0.000224044
0.00575549
0.000230916
0.00498481
0.000668915
3.16383e-06
0.000138627
2.57012e-05
0.000103638
2.59219e-05
0.000639913
1.40832e-06
6.69679e-08
2.24802e-06
2.26311e-07
8.5178e-06
7.91551e-06
7.14247e-05
1.42678e-05
0.00017686
0.33511
0.034566
0.0168429
3.27155e-05
0.00143134
0.000661237
6.31408e-08
3.28437e-08
1.13199e-07
7.35529e-06
6.6038e-06
6.7714e-06
8.46194e-08
7.2777e-07
7.36603e-07
5.96629e-09
143.176
3015.34
2.67882
40.37
161.734
2649.17
2.25277
5.63836
0.213265
0.109861
0.00318737
6.46484
0.180656
0.09068
52.6567
14.3751
131.792
0.0927608
974.776
0.774346
6.70218
2.00678
0.00110827
0.0087276
0.00357969
0.0624193
0.0301883
0.244019
0.0028701
0.00813938
0.00015949
0.00022458
0.0029808
0.00704291
0.0001601
0.000555312
0.00011795
2.37651e-05
4.20523e-06
0.000546337
0.000142603
2.43814e-05
0.00120541
8.54995e-05
0.000999774
3.86264e-05
0.00254656
5.85084e-05
0.00104754
0.00017251
2.09946e-06
2.96746e-05
4.34052e-06
8.07424e-05
6.93509e-06
0.000147349
7.24132e-06
9.44406e-06
3.12401e-07
9.82685e-06
1.78567e-07
1.94674e-06
1.05239e-07
2.35125e-06
3.73548e-08
3.34448e-06
4.38013e-08
1.85806e-06
0.0018595
6.50622e-05
0.00145547
0.211431
0.0012887
0.0113414
2.53437e-05
5.88182e-05
0.000456642
7.7275e-07
1.24026e-07
8.14412e-07
3.13019e-06
9.6421e-07
1.94315e-06
5.27943e-08
9.62027e-08
2.0265e-07
2.96859e-09
6.98492e-10
9.45874e-10
0.0145226
7.14988
0.00515688
0.00338907
0.358816
0.221019
0.000484888
0.00227817
0.00181969
0.000287441
8.6828e-05
0.0141949
0.00179251
0.00013251
0.00131534
0.000162631
0.00147422
4.64332e-05
0.00601688
8.25283e-05
0.000945149
0.000525404
1.33396e-05
0.000105771
1.07303e-05
0.00045725
2.27226e-05
0.000416205
0.000382514
0.000390259
7.00488e-06
1.25094e-05
0.000359223
0.000476523
8.0679e-06
1.66685e-05
4.51956e-06
4.93645e-07
7.97736e-08
1.67869e-05
3.46306e-06
4.88697e-07
1.69508e-05
9.78034e-07
9.3523e-06
1.02198e-07
2.52376e-05
5.17e-07
4.53544e-06
7.97139e-07
6.65023e-09
1.07102e-07
9.21136e-09
2.60188e-07
3.18687e-08
4.08618e-07
1.54832e-07
2.42653e-07
3.85626e-09
4.86034e-09
2.07147e-07
2.89583e-09
7.68341e-09
3.49246e-10
7.79983e-09
1.01863e-10
1.16997e-08
1.60071e-10
6.38829e-09
8.00702e-06
2.76927e-06
6.04049e-06
5.89732e-06
1.52038e-06
4.07179e-06
3.63143e-07
2.73591e-07
9.67237e-07
1.20053e-08
1.70257e-09
1.16415e-08
2.78524e-08
2.15368e-09
1.31986e-08
1.30967e-10
1.60071e-10
8.58563e-10
0
0
0
7.70377e-05
0.00016368
2.80947e-06
2.93426e-06
9.39306e-05
0.000109068
1.68922e-06
7.58132e-06
3.69031e-06
4.27579e-07
5.02769e-08
1.27727e-05
2.09112e-06
2.04076e-07
3.52788e-06
1.44209e-07
2.80151e-06
4.24625e-08
4.4488e-06
1.08819e-07
2.33395e-06
2.95055e-07
3.69619e-09
1.38331e-07
4.00178e-09
1.67856e-07
1.11759e-08
1.72426e-07
1.96917e-07
2.16183e-07
3.62343e-09
5.06407e-09
1.3721e-07
2.27534e-07
3.7835e-09
1.05938e-08
5.04951e-09
3.63798e-10
2.91038e-11
1.38534e-08
2.2992e-09
2.76486e-10
7.82893e-09
2.47383e-10
6.97037e-09
7.27596e-11
9.95351e-09
1.74623e-10
5.326e-09
5.96629e-10
0
2.61934e-10
0
4.07454e-10
0
3.63798e-10
1.21363e-08
1.1205e-09
5.07862e-09
4.10364e-09
6.8394e-10
2.96859e-09
5.82077e-11
5.82077e-11
3.34694e-10
0
0
0
0
0
0
0
0
0
514673
455933
1.10993
136.919
0.014664
4.54517
318.786
0.0149577
587050
2.56646e+06
384598
11.9825
803.403
0.02808
17.1986
16513.2
0.0118443
1.08715e+06
257520
436033
5732.22
62567
113.246
0.910516
122.55
0.00965895
1.66696
0.00999907
0.0445344
0.000253116
27.5087
9.6057
0.00610984
0.016095
0.00159672
0.000799496
6.582e-05
0.000135494
0.000192539
4.01976e-06
7.54658e-05
2.76307e-06
2.45283e-06
1.08164e-07
5.30345e+06
3.2089e+06
113271
75070.8
64575.6
74139
1.10449e+06
14.0408
365985
1.61737e+06
5.3245e+06
3.08995e+06
65694.8
268032
972424
826012
293306
782103
932366
366905
334334
1.35207e+06
2.09625e+06
2.18192e+06
1.69019e+06
1.02886e+06
48948.3
3.86303e+06
71158.9
2.00968e+06
3.1097e+06
5.27169e+06
62590.9
957072
174340
76088.1
32810.3
85065.7
22225.4
36317.5
83221
1.60481e+06
327668
2.08099e+06
63456
617194
108548
1.09525e+06
897341
188198
1.43684e+06
482899
582903
1.90397e+06
1.96465e+06
96862
136106
96823.9
89210.4
115892
113280
71070
112769
158843
147267
144791
132559
130965
123731
84656.2
119306
66678.5
57936.9
105258
97194.2
48472.5
70719.8
66217.7
51947.3
86755.7
119099
104681
100516
164139
169870
165492
163105
159471
163967
163788
148993
163617
157606
147475
122783
159621
156372
142537
152199
148006
132611
147364
152105
112580
150100
146901
138264
135420
147547
151560
119930
85212.8
56446.4
63950.4
58528.3
94029.8
64061.4
44560.4
65973.1
30466.2
52899
50354
84526.1
21805.9
36462.6
10924.7
66796.3
34603.1
66837.5
53789.6
89285.8
32813.2
36761.5
30597.5
52957.2
50343.9
31820
66028
84509.4
159897
133339
69783.3
69179
135679
65244.9
152993
32198.2
34290.6
21680.6
53139.2
34191.5
66353.8
25613.2
168618
76426
62387.9
92561.1
79807.4
144514
101849
72779.7
88767.4
140326
155219
54650.3
69792.4
91567.7
91618.4
53974.1
92556.6
100055
57041.5
96005.7
49802.9
100389
58645.8
93259.3
53434.9
100055
47840.1
92488.7
344281
588684
529461
1.86342e+06
1.13666e+06
1.14132e+06
2.56113e+06
321665
2.71999e+06
297259
3.11349e+06
355732
456953
3.52021e+06
41218.9
16033.3
10107.1
28656.8
-2186.46
15996.8
82737.8
16173.9
16451.5
-2021.6
41555.1
10413.7
28755.1
14515.2
698350
491279
1914.16
4706.7
1.25439e+06
2.2698e+06
1.55898e+06
243554
136115
65532.2
160061
266014
477966
89476.8
130372
54390.8
37860.5
200656
376538
129901
70259.2
61338.1
12976.2
29463.3
184842
198172
51489.4
61051.4
90169.8
481495
161174
244535
65608.6
97719.7
136438
216665
129565
226769
53179
80007.6
117796
412945
61403.8
290263
67552.4
187916
65683.8
147558
61332
48773.5
132230
59020.8
75492.1
255672
81611.2
290959
485892
10265
1.31561e+06
10082.4
453734
1.53378e+06
1.66132e+06
841355
3.43537e+06
4.0502e+06
411570
460926
731189
4.37828e+06
136239
230050
76783.9
56008.4
122493
51633
274985
76314.2
257343
82192.6
139814
59162.6
132486
49090.8
93320.8
299549
138656
42908.7
105964
41842
117919
3.94029e+06
403349
719405
802608
3.19334e+06
436213
4.11469e+06
366299
94425.2
300040
43901.7
118177
138680
44598.3
123830
136497
561102
254822
73156
72518.1
228427
416.973
4.63361
113.161
1.29886e+06
868648
918579
1.29802e+06
509295
344721
956974
1.148e+06
370357
460489
1.23261e+06
1.17117e+06
782345
621455
457739
207034
366447
260609
929060
626268
760783
307405
212015
261723
247487
608397
746469
1.12953e+06
200574
359556
434005
241700
753358
750757
904312
208428
245382
298293
248700
729933
3.45799e+06
427304
5.48345e+06
1.38621e+06
728028
4.20531e+06
567574
219231
52499.1
1.05541e+06
112329
476743
332264
62507.8
75469.5
6202.63
781687
322798
75053.4
242637
5.68038e+06
4.41639e+06
835042
1.08738e+06
3.79257e+06
573300
4.87211e+06
1.06117e+06
480306
113558
570465
220682
158164
53076
1.00809e+06
5.01326e+06
740575
3.44074e+06
531140
4.45112e+06
1.44205e+06
1.26126e+06
371405
126791
191353
780776
343872
80088.1
80117.2
190987
582926
126678
370396
780566
1.26014e+06
570942
4.85086e+06
1.08268e+06
830592
5.65368e+06
1.60862e+06
4.3959e+06
217443
667264
198880
1.63891e+06
1.49312e+06
627708
714158
213413
1.12457e+06
397602
2.09405e+06
1.53632e+06
667711
1.09584e+06
160315
1.03255e+06
562461
217346
113293
56722.6
461037
652012
1.74429e+06
975160
651110
1.11779e+06
447151
1.43521e+06
2.08772e+06
665194
1.09236e+06
395025
694675
1.11676e+06
211816
625683
1.6342e+06
712022
215818
662739
197557
761530
2.13068e+06
1.12337e+06
2.0003e+06
331371
941598
396307
1.28072e+06
805967
1.81558e+06
1.67244e+06
1.12948e+06
1.28637e+06
487915
413487
1.59492e+06
1.07225e+06
1.48871e+06
645890
740661
379485
1.13235e+06
412456
801956
927135
1.1277e+06
1.28281e+06
1.66894e+06
1.81039e+06
2.21383e+06
5.39043e+06
2.40787e+06
1.55231e+06
5.11839e+06
1.36503e+06
5.38758e+06
1.67867e+06
2.11537e+06
1.25989e+06
1.5704e+06
1.1338e+06
700802
418947
2.04599e+06
1.10414e+06
933327
1.90574e+06
1.17184e+06
503023
406143
2.19316e+06
5.29647e+06
2.36013e+06
5.02076e+06
1.34778e+06
1.5019e+06
5.17713e+06
1.77272e+06
1.07601e+06
1.24488e+06
464183
735952
382506
878510
2.03888e+06
931053
1.90263e+06
1.16639e+06
1.33608e+06
404162
494995
1.38269e+06
1.91522e+06
1.51812e+06
864131
1.57989e+06
767180
1.66182e+06
417731
821332
1.25264e+06
1.13188e+06
1.56697e+06
2.1104e+06
1.67479e+06
1.93647e+06
1.13026e+06
356702
2.04446e+06
2.62254e+06
1.86176e+06
1.05358e+06
2.04462e+06
865783
310263
2.6858e+06
1.85211e+06
864430
2.04335e+06
1.30612e+06
1.34217e+06
1.33384e+06
523952
492333
372754
414107
6.58844e+06
5.54517e+06
1.44428e+06
6.45226e+06
3.452e+06
6.8216e+06
2.61872e+06
1.10949e+06
1.96491e+06
1.55497e+06
1.90537e+06
1.80734e+06
2.22111e+06
1.75724e+06
2.62e+06
2.03993e+06
1.85906e+06
1.05109e+06
354431
1.12394e+06
842745
1.77451e+06
1.70283e+06
1.7145e+06
1.44296e+06
1.62494e+06
1.56663e+06
1.59781e+06
1.82103e+06
1.96871e+06
1.60611e+06
1.66702e+06
1.43186e+06
1.58322e+06
1.5446e+06
1017.48
44.0914
15.3358
42729.3
209049
24.8564
0.337834
4.62513
21594.5
147.848
467248
0.0373605
0.0103685
568.707
1.05786e+06
2.58292e+06
2.09923e+06
1.49034e+06
2.37226e+06
590483
1.63437e+06
1.55452e+06
1.75717e+06
2.22125e+06
1.90537e+06
1.80672e+06
1.10801e+06
1.81772e+06
1.48559e+06
2.09326e+06
1.05436e+06
2.3685e+06
1.63203e+06
2.17912e+06
2.58182e+06
1.94197e+06
6.10253e+06
2.6323e+06
5.40422e+06
2.75204e+06
3.08898e+06
5.11042e+06
768089
2.08867e+06
1.33248e+06
2.28209e+06
1.70831e+06
2.15574e+06
2.39312e+06
6.81335e+06
3.44765e+06
2.61395e+06
1.43774e+06
6.56967e+06
2.58891e+06
5.52467e+06
3.0696e+06
5.32231e+06
2.65668e+06
1.8412e+06
5.7105e+06
5.38363e+06
2.43672e+06
2.6428e+06
5.10233e+06
6.11779e+06
5.40597e+06
2.75722e+06
1.94866e+06
5.73856e+06
1.33955e+06
2.16109e+06
1.7139e+06
2.39272e+06
2.28664e+06
1.49946e+06
771720
1.48034e+06
2.45948e+06
2.2914e+06
2.16526e+06
1.68887e+06
750651
1.2988e+06
2.50757e+06
1.74686e+06
2.12779e+06
2.12703e+06
2.50829e+06
1.53984e+06
2.11408e+06
1.83808e+06
2.12893e+06
1.92222e+06
2.12837e+06
1.49158e+06
2.24572e+06
1.63499e+06
1.52957e+06
2.15696e+06
2.06408e+06
1.65045e+06
1.70465e+06
2.21844e+06
2.10391e+06
1.71363e+06
2.10278e+06
2.2169e+06
1.52333e+06
1.67309e+06
2.06524e+06
2.15747e+06
2.03148e+06
2.28133e+06
2.06927e+06
2.43335e+06
1.54464e+06
1.55811e+06
2.09458e+06
2.13034e+06
782369
906814
2.06726e+06
2.18435e+06
1.60701e+06
2.15358e+06
1.57065e+06
2.09369e+06
2.43517e+06
1.55101e+06
2.06136e+06
2.28591e+06
2.03368e+06
1.17411e+06
1.32601e+06
1.29866e+06
282362
418733
282690
155907
1.92087e+06
2.11799e+06
1.84678e+06
695601
607715
1.22453e+06
1.25056e+06
1.88135e+06
1.86962e+06
1.96921e+06
726777
758703
1.27049e+06
1.31198e+06
2.05968e+06
2.1496e+06
976442
1.53855e+06
1.99429e+06
1.36216e+06
787389
2.05476e+06
2.34701e+06
2.37115e+06
1.90415e+06
2.3523e+06
1.59764e+06
1.43249e+06
1.8471e+06
1.23082e+06
2.11908e+06
1.9286e+06
701971
1.82926e+06
616401
1.8699e+06
1.27427e+06
1.96797e+06
764748
1.88545e+06
1.92169e+06
733521
1.91889e+06
2.36042e+06
2.66015e+06
2.59528e+06
1.49244e+06
2.56035e+06
2.67007e+06
2.43715e+06
1.81857e+06
1.2582e+06
2.43882e+06
2.47715e+06
2.63391e+06
2.03573e+06
1.91934e+06
4.49155e+06
2.71168e+06
4.2921e+06
2.734e+06
1.68723e+06
2.10839e+06
59122
43402.8
836603
1.26718e+06
1.21727e+06
186173
223303
1.9894e+06
5.1361e+06
3.29232e+06
5.14132e+06
6.61232e+06
3.29483e+06
3.51017e+06
3.30159e+06
4.10313e+06
5.95628e+06
4.81426e+06
3.13234e+06
2.24597e+06
1.60377e+06
2.57785e+06
1.7957e+06
2.2011e+06
2.3335e+06
2.24519e+06
495425
1.06978e+06
2.5759e+06
2.24607e+06
2.20243e+06
1.89196e+06
1.80181e+06
1.07457e+06
500637
2.07731e+06
2.24063e+06
1.94132e+06
1.52431e+06
2.40984e+06
2.29262e+06
887119
1.41575e+06
1.98764e+06
2.2975e+06
2.35287e+06
207947
1.62248e+06
1.03001e+06
2.16776e+06
1.30925e+06
2.48024e+06
2.14112e+06
537355
2.48031e+06
1.30966e+06
1.49634e+06
2.65704e+06
2.59727e+06
2.66857e+06
1.91482e+06
2.66942e+06
2.36351e+06
2.56371e+06
2.29759e+06
896071
2.41087e+06
2.07065e+06
2.24368e+06
1.94889e+06
2.08416e+06
1.2936e+06
1.81945e+06
117247
473794
1.01326e+06
449639
2.3527e+06
1.61972e+06
1.98726e+06
206760
528203
1.41557e+06
2.29846e+06
1.62175e+06
4.82613e+06
3.14019e+06
5.95916e+06
3.29663e+06
2.80193e+06
4.12204e+06
1.82294e+06
1.01797e+06
2.08366e+06
1.81172e+06
119925
479495
1.30137e+06
0.0011663
0.00165497
0.000550543
2.36831
8.67358
0.0305596
0.230434
614426
33033.7
682979
714922
33383.7
1.80305e+06
1.87734e+06
2.97243e+06
3.87588e+06
2.65974e+06
476519
477335
1.19388e+06
1.38097e+06
606578
1.87204e+06
678988
1.79608e+06
711457
32340.6
32826.9
487512
1.40098e+06
1.20597e+06
3.88911e+06
2.66573e+06
2.1743e+06
2.99463e+06
374875
6819.96
21629.3
656706
1.09848e+06
118299
44919.3
118033
656269
1.09813e+06
868381
374890
44876.8
6821.99
0.000965456
0.00362781
0.00119759
1.89055
0.211897
0.227631
0.0807818
14039.4
459580
514514
25022.1
590385
1.71061e+06
1.73707e+06
1.72744e+06
381261
504411
585995
1.70252e+06
24428
13718.4
21326.6
497.22
25235
10856.9
253.324
199.796
13497.2
0.00141767
0.011132
17.6383
1990.69
0.0531255
0.0014254
0.010869
1.45359
0.44176
0.000994745
0.0417188
2138.87
0.010779
0.00101265
1.47398e+06
207761
3999.79
312598
131048
214096
6873.21
97044.3
143159
1.38732e+06
4873.72
274287
3013.75
190384
1.31527e+06
403047
401486
165783
176674
9260.57
9916.29
1.1681e+06
246700
340661
145904
95228.8
4503.43
7778.17
98907.5
8089.14
150587
255184
350130
1.18285e+06
1.24088e+06
180628
170033
9553.29
412607
409457
1.32532e+06
1.34009e+06
2.47087e+06
291934
1.24069e+06
208839
1.09333e+06
103370
5456.82
484758
122232
1.16773e+06
84845.4
14249.5
2006.11
1.75771e+06
315435
1.62442e+06
307770
9121.54
316649
1.64208e+06
2.67251e+06
1.75204e+06
1.16159e+06
482515
121457
1982.75
14053.6
83277.4
2.34028e+06
938209
1.40744e+06
206549
73299.6
140255
3543.04
2.01856e+06
866293
27714.3
151844
1.13986e+06
53508.2
1799.19
7282.21
27443.2
363.341
5199.97
538.01
40327.7
293784
53689.3
1813.48
153051
2.02003e+06
27973.7
870053
437228
266.383
6533.27
14111.9
6548.51
41.1104
113.478
2643.11
2.3447e+06
1.41461e+06
142896
3608
1.09398e+06
947149
74809.9
0.382821
0.00307763
0.231056
0.110288
0.000616378
0.00102202
6.2604e-05
952214
9448.99
480112
1156.18
84334.8
16504.6
225.068
966867
8575.37
431262
1393.47
92352.1
16393.6
236.111
273089
9335.44
7022.23
517577
341770
2.80041e+06
1.90607e+06
899381
12715.6
6580.6
184.623
1178.61
41992
79016.1
902288
7603.13
37386.8
180.093
13018.5
1005.12
73322.8
0.000517647
5.69216e-05
0.00295324
0.0506286
0.00141156
6.34006
0.586714
471442
223183
9826.16
70967.3
3681.61
36492.2
475.297
339146
2.78727e+06
1.89532e+06
377770
266711
9194.79
6890.79
72960.8
487.731
3795.77
228383
37473.1
1.08972e+06
478757
37709.9
74223.2
905374
7695.82
418415
13236.2
182.925
1199.29
188.669
6732.56
80221.8
904951
364856
12976.4
101166
1169.71
9999.61
116.075
101265
9695.26
1171.13
1.38174e+06
181050
149311
49322.3
47108.9
1984.22
1839.79
10.0451
871.534
635.419
3512.75
77.0582
57.5613
4571.22
2667.26
11420.8
32.2766
147.111
577.471
2319.49
168054
2069.21
49087.8
51414.7
187055
154788
1.10917e+06
1.40517e+06
2322.16
11473.3
168159
2688.01
49109
579.422
32.5256
0.000489789
5.38036e-05
1.65865e-05
0.000907498
9.33067e-05
0.367519
0.00730059
16305.7
472.263
151.32
248.173
8.90434
4.40869
285.367
20848.3
619.163
340.616
11.6794
588.238
369.339
10.4592
157.371
9.16898
296.043
9654.15
255.193
16928.9
485.352
15636.4
609.388
27921.9
603.19
315.542
14.0177
6.88011
381.657
350.243
10.688
22003.1
21432.7
634.359
600.061
37143.4
38120.2
774.253