/*--------------------------------*- C++ -*----------------------------------*\
  =========                 |
  \\      /  F ield         | OpenFOAM: The Open Source CFD Toolbox
   \\    /   O peration     | Website:  https://openfoam.org
    \\  /    A nd           | Version:  9
     \\/     M anipulation  |
\*---------------------------------------------------------------------------*/
FoamFile
{
    format      ascii;
    class       surfaceScalarField;
    location    "0.00035";
    object      phi;
}
// * * * * * * * * * * * * * * * * * * * * * * * * * * * * * * * * * * * * * //

dimensions      [0 3 -1 0 0 0 0];

internalField   nonuniform List<scalar> 
14171
(
-5.13897
-10.2708
10.7758
-14.7852
5.45618
-1.77309
-11.2461
14.5808
3.76086
-16.8936
-0.580294
0.0111925
-1.56317
-0.00329857
-7.53235
2.64858
22.069
9.53682
-24.1499
0.330602
3.94441
0.912745
-16.2558
-3.38287
0.0777563
-20.0398
-6.71248
6.81682
16.8115
-4.70514
7.60443
-1.39265
-0.356714
0.124986
0.191784
-3.54324
-8.88315
-2.21255
1.19252
-1.57812
0.673816
2.8303
25.1528
-5.38775
-26.2929
0.258302
-7.30847
21.6531
4.88916
9.46937
-23.7214
24.6909
5.39333
-5.24979
-26.0914
2.43518
6.82773
21.7825
-4.57638
0.286557
6.88125
4.65945
21.4048
-4.5643
-2.13751
4.29533
9.00266
18.5272
8.94875
18.7473
0.260999
7.06849
-7.60698
-4.63913
-22.0164
9.27123
7.11959
-7.00179
20.1318
9.5331
-22.2053
18.0881
9.44113
-19.6598
8.49284
22.9466
-4.89819
-25.0014
7.0261
19.868
-4.61535
6.03316
8.83876
17.1132
7.84997
13.9404
6.5381
-11.1995
14.6592
0.225292
-17.006
2.23398
18.4079
-20.6674
0.318766
18.2566
4.35943
-20.3022
9.4392
-1.73418
3.61808
14.5618
1.11896
-9.45408
9.1732
0.127609
2.32447
8.78553
14.7392
0.196986
0.490166
-12.3788
2.84577
0.0218962
3.72972
-15.8108
1.91136
-3.20929
-11.9248
1.15494
2.54317
1.88424
6.36601
-4.4761
0.192036
6.31814
3.77189
-4.50719
-1.48914
3.0131
6.91701
7.02599
0.149556
-11.0653
13.6257
-16.3006
6.45485
17.3671
-19.0458
15.3112
-17.3582
7.32867
8.86144
4.79849
13.0378
-3.06681
-6.91838
2.40829
1.83005
6.57504
8.88376
4.71293
-4.95932
4.70263
-3.73099
4.69288
2.89986
-13.7221
-2.66493
1.01325
-9.60041
-4.14555
0.241053
0.164174
5.92882
-4.40194
3.89501
6.18573
4.07679
2.97325
0.140472
-6.68579
-0.0368367
0.46893
-6.09681
-1.33561
0.0250044
5.26364
-0.896106
1.89346
0.287906
-5.55009
-0.0295148
0.759619
0.0906587
0.0269918
-1.22136
0.0163868
-0.00641691
-0.172672
0.00074634
-0.744434
3.77287
2.33143
-0.47928
-1.08224
0.0623846
0.748257
-23.8423
-5.4915
-2.98588
23.9694
5.82668
-23.712
-2.62817
-8.00498
21.6662
4.74125
9.79689
-19.4038
-11.1107
21.8148
-2.90263
5.67872
27.5935
0.0955372
-0.116754
3.17892
3.35812
-25.6636
-20.5296
25.8485
-3.38836
-3.61987
6.15389
7.16602
-12.6397
16.8068
-3.25753
6.42293
-0.111899
16.8758
3.22968
-3.51467
6.80551
-12.6453
-3.05107
16.7606
6.21236
24.2889
0.202563
-8.76379
2.50091
-22.1091
-3.19306
16.7873
-3.2888
6.23987
6.71778
27.0324
0.19341
2.88435
-3.68731
-26.0466
5.02295
16.8789
3.29118
-3.46
6.79673
-22.9117
24.1189
-10.8438
-3.31707
6.38645
13.1736
17.5805
-9.73217
-3.53176
7.00926
15.1284
0.126971
3.26175
-3.28762
16.9716
6.70466
27.2467
0.142672
-3.16435
3.09159
-25.8019
6.11773
-6.52345
9.76121
16.7076
-3.23837
6.67211
26.365
-6.12558
-2.92767
9.2471
-25.9259
5.75746
-16.887
-3.1726
3.5393
-0.138903
6.25925
20.5636
-3.49127
3.18307
-0.101974
20.2517
6.85088
-3.53969
16.6306
6.31147
6.81962
3.28702
17.0022
-0.162862
-0.0949868
-0.173665
6.35965
-0.168218
-0.104125
20.3303
6.26922
6.98374
-3.2386
16.9231
6.65796
3.29727
-16.856
-3.17799
6.22351
20.5931
3.2766
16.9607
-0.111832
3.14729
-3.21542
-0.138904
20.3248
6.66438
6.16379
20.8333
6.82734
6.32835
-0.138218
20.2955
-3.25711
-16.9543
3.43161
-0.112293
6.53339
20.3451
-3.43407
3.25506
20.2948
6.8165
-3.44256
16.8011
6.52548
6.80371
16.972
3.33118
-0.102873
-0.107877
20.2994
-0.102436
6.5599
6.54876
20.3388
6.83185
16.8701
-3.26331
6.69402
-3.22982
3.2303
-16.9988
6.52922
20.397
17.0088
3.31931
-3.2468
3.223
20.3773
6.69405
20.3536
6.55226
20.3797
6.70116
6.56505
16.7839
-3.4028
6.64056
-12.4819
-3.08181
6.1161
-3.28511
20.5653
6.52244
-16.9957
12.5452
-0.113831
20.742
-12.611
17.1374
-0.115603
-0.121847
-0.116457
19.7967
16.8422
-3.17452
6.44988
3.0835
-16.9647
12.5009
20.6864
-12.6068
17.0991
-12.4231
-2.88805
19.3197
5.91232
20.504
6.33635
19.733
-10.5053
-3.58197
7.20891
15.4992
-16.6701
-3.47761
21.3687
6.97408
-3.43774
6.80367
-16.7436
10.2959
-0.12371
21.0167
-9.71306
17.4314
-0.12476
14.5217
-0.106308
-0.134275
22.9823
15.458
-3.31074
17.5815
6.86677
15.1385
3.25858
-16.7766
10.3271
21.0431
-9.74023
17.4371
14.5708
-10.5343
-3.35364
22.9118
7.04342
15.5088
21.3563
6.83224
22.9935
15.4903
0.302396
-5.69788
2.4646
24.5592
2.61772
-3.70293
26.5915
0.225669
4.07257
-26.652
-2.98041
-3.6633
25.8326
3.99254
5.33185
-17.993
-2.06935
-2.03008
3.45324
5.3834
-0.167863
-18.1212
1.53449
-2.06691
3.51355
8.69869
-18.8024
-1.36918
-2.04592
2.99694
6.45714
-0.111557
-18.4485
-1.71524
1.49719
3.24606
9.17381
0.218824
-2.78818
2.86011
26.9333
-5.66074
-2.70292
7.9931
24.9743
0.193799
2.89021
2.98517
27.436
-0.109242
-18.5735
1.16295
-2.06698
3.52975
9.08104
-11.3662
-2.88798
-0.838252
1.58556
1.38678
1.99798
-18.9894
-1.81023
1.24556
9.63943
-11.6174
-0.757813
-2.99322
2.10546
1.48355
-3.21931
-3.63788
4.97165
5.9823
-3.66447
-26.0488
5.09768
27.0728
3.38436
-25.6664
-0.200221
27.5357
-25.5561
-0.117256
26.8982
6.21098
-3.57822
-0.0289852
7.12231
-3.30735
-0.119734
6.20565
-0.149802
-0.0504908
-3.7347
-25.952
4.79769
26.6618
5.73342
-3.06034
-25.6952
27.0363
5.98751
-25.6458
-0.140073
27.5194
3.3861
-3.35874
6.16884
3.46016
-3.29193
-0.0784434
6.9123
6.04796
6.95597
-0.102455
3.16431
-25.7543
27.7101
-3.0859
-25.9132
27.0369
5.94594
-25.9557
0.110663
6.24715
27.4408
-3.28782
3.31949
0.124661
6.77357
-3.31784
3.3053
6.9568
0.113822
6.78898
6.94314
3.26794
-25.8779
6.24971
27.3442
-25.8535
-3.092
6.10447
26.9297
6.0274
-3.31362
-3.53768
6.74993
7.07302
-25.699
27.0957
6.2264
-3.51844
7.09378
-3.30923
6.76295
23.3273
-3.13148
6.0649
-8.39476
-2.8072
5.43055
-2.95077
24.1974
5.54478
-8.93305
-22.1844
24.3377
-23.7866
-0.217115
24.9508
11.466
-0.147857
-0.146216
2.63459
-23.695
24.8705
-8.12647
-21.7725
24.0109
5.12916
-23.3211
24.3356
5.2551
2.89751
11.3445
-10.9378
-2.68225
5.46975
5.86034
-2.98677
-9.25105
5.23804
11.3448
9.3955
3.08635
-26.1083
-0.0908535
26.7796
-24.5863
-0.079623
24.4681
11.5547
-25.8774
26.2861
5.85541
-3.52035
6.93188
10.8709
-0.123176
-0.103265
13.4941
9.39126
-26.1531
26.8354
-2.84418
-24.1411
23.7531
5.16351
11.3238
-24.6022
24.4806
11.5447
3.31046
10.9037
-10.8928
-3.1343
6.26513
13.1799
6.79729
13.4991
-3.54879
25.8652
3.73053
5.04457
-2.67904
26.6698
5.22897
27.3225
0.22352
-0.221713
-3.20316
2.30117
0.268259
3.22168
24.0782
-2.34223
3.03833
-0.279866
23.6846
4.40519
0.240015
-0.294195
24.752
3.04995
23.1712
4.4723
-3.74068
26.6645
4.19654
3.0112
27.3451
26.5344
-0.212285
5.44938
-3.26599
2.70517
3.34777
24.173
-2.66991
3.19217
-0.286002
23.5028
4.72841
-0.271168
24.807
3.32724
23.0205
4.90124
2.9552
27.0689
-0.0919621
5.77806
-2.885
26.3616
5.67131
5.30188
26.7662
5.47099
-2.67213
2.59869
-0.0893676
5.00573
24.5121
-2.65081
2.59172
23.8782
4.70887
-0.108739
25.0406
4.8904
23.3872
4.66019
2.84932
27.5522
-2.78994
26.5075
27.1659
5.75081
-2.6336
2.48345
4.98289
24.5941
-2.49394
2.59138
24.1312
25.1308
4.89432
23.6256
-2.87109
23.6978
5.31411
-5.87256
24.5943
24.4724
-0.292584
2.90921
4.21877
-0.353674
23.0288
-4.08585
-3.30401
22.4802
6.20901
22.168
5.40222
-0.435314
23.2506
8.18729
2.82996
25.7306
-0.0771849
22.5271
-0.0615244
10.0206
24.8557
4.97583
7.22305
2.59201
-0.0778181
22.6292
-2.55513
-7.06497
18.5081
4.83688
8.18811
-0.0664055
19.4386
8.47703
21.6519
4.74839
2.40938
24.3801
-5.17884
24.2395
5.19534
23.8863
4.83399
4.06973
2.30153
22.972
-2.44798
-3.81421
22.8956
5.26793
23.2588
22.4744
4.72162
8.16686
25.7874
-2.5235
21.7411
9.80058
22.5394
10.0114
7.22059
2.47291
22.6729
-2.43224
-7.09539
18.6467
8.23953
19.4571
8.4864
21.8068
-2.76082
2.71126
19.4855
-0.323836
3.10692
-2.60303
2.64002
-0.266008
4.76168
-17.8788
-2.01573
2.09809
3.42684
7.95572
-19.827
1.74791
-0.237456
-0.143667
10.5903
-0.280455
-0.234414
3.0443
4.91308
-0.274398
2.35256
9.96779
-2.70962
2.18548
19.4408
3.00275
-2.17591
2.54146
-0.211088
4.33103
-19.7768
1.71764
-0.130991
10.6347
-18.3302
-1.60587
2.04791
3.11354
8.65958
-0.232861
2.83948
4.40049
2.30025
10.0638
-2.16643
2.52367
19.5658
-0.118523
4.28524
-2.5599
2.03215
4.70284
-18.059
-1.88909
2.34379
3.29789
8.29013
-20.2447
1.38458
-0.174699
11.0056
-0.160925
4.09465
4.65543
-0.120119
2.70958
10.0954
-2.15178
2.33441
19.6434
4.29256
-2.30346
2.08594
-20.3189
1.3987
11.1193
-18.3932
-1.71408
2.46918
8.74494
4.16441
2.74262
10.1985
3.34683
2.17726
18.8145
0.391724
-2.1747
-3.15505
4.775
-19.2763
-2.28088
0.328475
8.04458
-18.0697
-1.44308
2.97814
7.83309
0.474324
4.52612
0.289266
9.03941
5.84946
2.47389
17.2403
-0.102437
-2.09383
-5.51338
3.81735
5.50798
-15.9361
-1.50491
2.72368
5.15583
-12.6617
-3.31047
-0.0287463
1.9408
2.64304
-0.073407
5.9585
4.52841
-0.0750002
7.14876
5.87275
2.31621
17.3019
-1.97286
-5.60412
5.60671
-12.7217
-3.34208
1.97312
2.68543
-16.2051
-1.38065
5.60726
5.98866
7.24175
2.88631
3.45178
18.7766
-3.30834
-3.14181
5.67174
-17.4169
-1.94489
3.33364
6.58213
-19.1603
-2.32612
7.5075
5.17896
8.8405
17.8816
-2.3672
3.10012
-18.0033
-12.9202
-16.6878
1.97945
-11.017
14.3207
-2.26509
-12.2767
-18.0903
4.3575
-0.356979
2.42809
-12.2931
-18.076
-14.1309
-6.27116
-14.1247
17.2803
-16.9852
-4.05574
-16.9288
4.52439
18.0821
-12.5234
-9.39643
15.7101
12.3715
23.362
7.86113
-21.3284
-6.81852
-9.99267
-3.10789
17.149
6.10813
13.6827
-0.236385
23.846
-8.68511
3.57773
-24.066
10.823
0.217103
-17.7648
3.11159
-17.7008
18.9164
-6.56235
-11.7275
-15.8485
7.57198
14.7738
-10.3842
-17.4281
12.467
0.141524
-9.97568
3.23584
16.6284
13.297
-8.804
2.93132
-24.304
10.9669
-6.52399
-9.99763
10.6785
17.7908
14.0654
-5.82419
8.09983
-8.12595
-23.5738
10.0129
-3.13697
16.6148
6.15996
-9.9372
16.5805
13.2566
16.6456
-0.132723
-10.5325
-3.48659
5.96967
14.6503
22.7109
3.19223
10.1531
-0.119191
20.6136
6.15424
21.663
-0.0631824
14.3333
22.1615
3.24479
16.6978
-9.96128
16.6719
13.3382
16.6269
6.46708
-3.28866
-10.2294
6.79651
14.5121
22.4838
10.1834
3.2642
20.6542
14.3508
22.2496
6.65049
20.9117
-9.80509
16.7956
13.192
-12.6967
16.3117
16.8613
-9.48328
10.999
12.36
19.6325
-12.0879
8.83992
18.822
20.2537
11.4873
18.1456
9.8815
16.6648
-10.5757
19.4796
15.047
15.7903
18.2471
15.5769
-10.626
11.286
14.6693
23.0026
-11.0613
10.5313
22.5269
14.9369
22.7241
13.0278
20.9096
13.7039
-3.96559
-18.9832
5.44781
-17.635
-17.565
18.6934
-18.0076
-0.104845
-3.42165
19.1886
6.07209
18.0651
-0.0753093
-3.97291
5.41896
20.8716
-0.101955
21.4734
3.21171
-18.0369
-17.4964
-17.4004
6.41972
18.6145
-18.3921
6.724
3.27252
18.0893
18.4559
6.82017
-3.21683
6.72136
21.4602
21.6548
-2.17803
2.53725
-12.1023
15.7201
-0.0153397
-0.439925
-1.27959
0.0168363
-0.0117588
-0.324759
-1.35039
-7.34803
2.93897
21.6581
9.36446
-3.69576
-0.678396
-11.9534
0.943769
2.4805
8.1545
-4.40212
23.346
-0.937231
-3.75682
-13.2593
2.2286
3.75235
-25.4533
-0.170503
26.0879
23.712
-10.0366
-4.00338
4.98206
12.17
8.36019
-25.3461
4.46937
25.5384
3.70373
10.3513
-0.0599736
3.72795
10.4201
22.9784
5.65096
-0.118595
12.909
2.97109
-25.5973
-8.61936
-24.0951
10.6502
-25.5932
6.03432
-3.12374
-10.3341
6.41893
12.7533
10.4256
3.30594
13.0313
6.71426
-9.08603
-14.9363
-14.816
-14.8076
16.9261
-16.1927
-11.3537
14.9212
16.1934
9.0156
18.3703
17.4847
21.2749
-8.59373
8.23978
11.0205
-5.25684
-20.8142
10.9793
22.3351
-9.97171
8.11399
7.70554
-22.5665
23.075
10.1763
21.4193
10.7815
-9.01427
-14.7715
15.7705
10.7848
-16.7815
-16.6752
17.5058
-19.3875
11.5905
19.4706
17.4608
14.1882
10.3433
20.6334
18.4234
12.4184
-7.19293
-20.721
9.57692
9.89472
-8.81839
-23.2332
10.7388
-25.1222
-9.81632
9.67372
11.9143
-10.4467
8.7632
12.5055
10.6525
11.6922
-12.462
-18.3844
2.78252
-22.0588
0.358222
-21.6888
5.10037
2.88973
-14.8588
0.37477
-14.5178
5.32201
-3.05078
6.18679
0.215739
-17.8221
-12.2806
16.9289
3.08114
-21.8063
20.3131
-3.24819
-14.2699
3.07759
-14.723
20.977
-3.89043
4.26241
2.88613
19.9107
3.32554
24.7875
7.18267
24.0377
3.26235
21.2302
2.80516
9.49132
2.79548
6.65962
21.3105
6.87862
2.84226
21.1857
-2.45899
2.60034
9.00439
18.4911
8.76575
18.3014
-19.2871
-14.1642
19.3762
-4.30828
-14.028
-13.4825
19.5879
5.96204
-3.99456
-20.2522
21.0179
19.6683
-12.026
-17.1544
7.26343
-20.2301
-18.1141
8.88946
-7.48501
-12.5683
9.07591
-13.6918
8.67933
10.4441
-3.67902
22.067
11.2103
7.32866
22.6544
21.1152
10.1648
-3.46374
8.1022
21.7803
7.376
21.1695
3.06552
9.5713
19.0096
10.4025
20.1195
-11.2993
14.6362
2.45704
18.029
18.2592
2.45642
9.45299
-1.96363
2.22651
14.5542
1.24547
-9.23762
8.82259
1.50547
8.74523
14.3123
-1.12477
-15.8463
1.59911
3.78006
-15.7492
-11.9084
2.67193
2.22786
6.18634
6.26148
2.55523
-1.68913
2.05764
6.89761
6.81399
-13.3458
17.7612
-3.09439
20.3398
19.133
10.1188
2.53849
15.4177
-1.63424
-11.2302
10.7373
8.98762
17.1977
-3.59737
-12.1804
2.11015
-1.60009
-17.0961
-16.0423
-2.80406
6.91621
6.45717
2.2479
7.18271
7.85497
-0.528057
-1.45082
-0.203032
-5.9359
0.266323
-6.33253
5.20517
-1.09059
1.35517
0.468614
-5.32321
0.534764
-0.313014
-1.10786
-0.227475
-5.63821
-4.98628
5.16297
1.40255
-0.499434
-6.01325
-0.00127626
-2.28486e-06
1.38631e-05
-1.38521e-05
-9.15878e-05
8.04557e-08
-3.24538e-06
3.59295e-08
-6.67264e-08
-6.64072e-07
1.09701e-07
-5.82154e-08
-6.35533e-09
1.26883e-10
-1.4338e-08
-1.39327e-10
-5.55365e-11
2.15314e-05
0.000315023
-9.52728e-05
-0.0240534
-9.32605e-07
-0.00353976
5.73382e-05
-6.97822e-06
-8.05098e-05
8.50663e-06
5.921e-05
0.000362955
0.000398115
0.00292223
-0.119311
-9.22161e-05
0.00045055
0.00326278
0.000258191
-0.132043
-0.000111275
-1.30276e-07
-1.93312e-05
6.23668e-08
-5.24919e-07
1.34383e-05
-0.00010496
8.05729e-06
7.98589e-05
-0.00496658
-2.08736e-06
4.21706e-07
4.59891e-06
1.08341e-06
-0.00029721
-1.31229e-07
-9.53611e-10
-3.90505e-09
-3.83594e-09
-9.76268e-10
-6.10009e-08
-6.91729e-08
-6.2865e-08
-1.18874e-07
-5.88384e-08
-4.11791e-08
-5.88301e-08
-4.1089e-08
1.44959e-08
-2.49312e-08
1.23266e-09
2.17356e-08
-2.70897e-07
3.40049e-09
-2.31963e-08
1.01057e-10
1.28403e-09
1.70732e-10
-1.96529e-10
-1.32072e-12
-1.75548e-12
-3.53771e-10
-3.00664e-11
3.51275e-13
8.64642e-13
0.090666
-0.0275613
-0.218191
-1.9621
-0.578383
0.384955
-0.289927
0.841685
0.646075
-7.81001
-0.15647
-0.000546115
-0.00624675
0.000666474
0.377075
-0.5358
1.32986
0.0581462
1.08505
-9.18114
-9.5485e-05
0.000387986
-0.213526
-0.0102519
0.00539797
-0.260742
-0.478068
1.16481
0.964352
0.670347
-8.73709
-0.000848218
0.000209907
-0.0706298
-0.0020055
0.00130713
-0.337155
-0.0469301
0.138363
0.0769287
-2.10264
0.0452209
-0.00120466
-2.61404e-05
-0.000157954
1.8892e-05
6.58768e-06
-0.0195271
-6.91361e-05
-0.00330695
0.000356255
0.000106366
0.000136896
3.47185e-08
-5.40269e-07
-2.49154e-07
-5.08733e-08
1.44259e-07
2.86995e-07
-7.81235e-06
8.39187e-08
-4.2206e-06
-3.15006e-08
1.16706e-06
-7.82919e-09
8.21336e-09
-6.9101e-08
-3.81537e-08
-3.52354e-08
-1.53987e-07
-1.12232e-07
-1.56778e-07
-1.41351e-07
3.26665e-08
2.26679e-08
7.23835e-09
5.47349e-09
-8.65882e-08
-8.76599e-08
-2.3948e-07
-3.34994e-07
-3.65974e-07
-1.83313e-07
-2.26353e-07
6.83755e-10
-3.20466e-10
2.86408e-10
-5.95357e-10
-1.55536e-10
-1.07604e-08
3.61292e-10
3.53759e-10
3.58646e-10
-2.35552e-08
-7.94875e-12
-1.29452e-12
3.69882e-12
-4.9615e-11
-2.0355e-06
-0.00123619
-4.26152e-06
3.64608e-06
4.6211e-06
0.0018793
0.000139748
-3.27975e-05
-0.0841931
0.000618015
7.21596e-06
3.86693e-06
-7.41721e-07
0.000279778
0.00213344
0.000471025
-0.0949417
-7.45693e-05
-4.02891e-07
7.70085e-06
0.000258935
-0.0602506
0.000386016
6.76278e-06
-0.000480648
-9.85714e-07
6.66739e-07
-3.05875e-06
1.37835e-06
-5.52019e-05
0.000213467
-0.016956
4.89904e-05
-1.16837e-06
2.34767e-07
7.43978e-05
0.000779518
-0.00039077
-0.0459107
-9.391e-06
-0.000216302
-0.0300948
0.00013001
-5.58913e-06
4.24436e-07
-0.00111639
-3.46963e-06
-2.80902e-06
4.12181e-06
0.000224805
0.00187762
-0.0861645
-4.16935e-05
0.000192266
0.00168619
-0.0758246
0.000554165
5.47107e-06
6.47596e-06
-0.0557586
0.000342942
7.01064e-06
-0.000373338
-1.05291e-06
8.0047e-07
1.19609e-06
7.42863e-05
0.000647232
-0.0356009
-2.008e-05
-5.85098e-05
4.69955e-05
7.60245e-06
-0.00300229
1.18519e-05
-1.45391e-06
1.12311e-07
1.88548e-07
-0.0218212
0.00010474
1.0766e-07
1.30959e-07
-1.23638e-08
-1.28205e-07
2.1996e-09
1.78226e-09
2.25838e-08
2.70709e-06
6.30529e-07
-0.000176966
4.09299e-07
7.36264e-10
1.64494e-08
1.15209e-08
1.80563e-07
6.89036e-08
-9.91897e-06
4.9545e-09
4.49168e-08
2.07146e-08
4.69056e-08
-5.97141e-06
3.27969e-08
1.4941e-09
-1.67233e-08
6.90972e-11
6.83771e-10
1.36394e-09
2.01425e-08
-4.42084e-07
3.13718e-09
-2.24862e-08
2.17282e-08
1.40293e-08
-3.2044e-07
-5.91406e-10
-4.69162e-11
-3.54367e-07
1.01104e-09
-1.7256e-11
1.44769e-10
4.35989e-11
1.09958e-10
9.98757e-13
1.70086e-12
-2.66394e-11
-0.427743
1.11088
0.910677
-8.65173
-0.496242
1.48134
0.765967
-10.0479
0.0575099
1.77009
0.0131107
-10.6327
0.0721933
0.0235593
0.0245659
0.00467994
-0.00680943
0.0154552
0.0287965
-0.00349442
0.0134086
0.00277065
0.038057
0.0166511
0.0255754
-0.5768
1.43301
1.16517
-9.63403
-0.357981
1.55979
0.872563
-10.185
0.0215723
1.89666
-11.1107
0.0540208
0.0280401
0.0170253
-0.00815556
0.00988914
0.0430043
0.018851
0.0340096
-0.0058369
0.0284492
0.0195886
-0.174699
0.651002
0.451009
-6.3983
-0.53179
0.816662
-7.94972
-0.0241991
1.0674
-9.00364
0.019616
0.00255012
-0.00945996
-0.000248836
-0.00567727
0.00560371
0.00665483
-0.00113729
0.0116732
-0.0403179
-0.459463
0.0513898
-2.29915
-0.192763
-0.00910238
0.00481984
-0.577774
0.00793613
-2.52716
0.187858
0.697349
0.0364616
-6.23466
0.586534
0.266511
-5.33952
0.0038833
0.000796875
0.0272293
0.00464998
0.0198504
-0.16693
-0.00683998
0.00387275
0.0289662
-0.639906
-2.70712
-0.486659
0.066031
-2.36655
-0.13394
0.61145
0.319203
-5.51118
0.752056
-6.59829
0.0028819
0.0303877
0.0056272
0.0214394
-0.25221
0.623058
0.471538
-5.59872
-0.527545
0.205519
-2.6756
0.0731273
-0.0163528
0.843769
-7.22495
-0.0146074
-0.00824619
0.0006368
0.00102902
-0.000183016
0.00586773
-0.00182426
-0.00469339
0.000952734
0.000590974
0.00832358
-0.000230478
-0.00163993
-0.104806
-0.00294661
0.0018797
-0.281572
-1.92801
0.152529
0.405236
-4.49857
0.330714
-4.37259
-0.00162369
0.00656721
0.0103744
-0.0110197
-0.000229975
0.000160969
2.64403e-05
0.0187399
-0.176735
-1.35611
-0.0205973
-0.404297
0.00234874
-0.10635
0.0559594
-1.15828
0.0148655
0.276437
-3.27056
-0.00134412
0.000982467
0.000173547
0.00711094
1.95518
-3.39246
-8.58146
3.63533
-7.44572
-2.98785
-7.49985
-2.34902
0.909168
0.503769
3.40046e-07
-9.07971e-07
-4.06278e-05
-2.37009e-06
9.57689e-08
-4.48416e-07
2.98201e-07
-5.11189e-07
-5.77078e-08
-5.6031
-13.3292
3.86331
-1.09628
2.67485
2.23388
-0.000849841
1.98215e-05
-0.000813508
-3.36892e-05
1.51007e-05
-0.000242916
-1.50658e-06
-0.000309593
2.31307e-06
5.18246e-06
6.55389e-08
-7.77793e-09
-3.02682e-07
-3.14372e-07
2.45487e-08
-6.75168e-09
-1.3393e-07
-1.36418e-07
-1.14658e-07
-1.00397e-07
-1.01879e-07
-6.71116e-08
-6.92134e-08
-6.59434e-08
-2.22031e-07
-1.62914e-07
-2.89473e-09
-1.65922e-07
-1.54113e-07
-1.66432e-07
-1.42621e-07
-0.941418
-3.59102
0.931656
-12.155
-3.72492
-0.489221
-11.9426
1.15414
-2.05237
2.04778
-1.43745
-18.055
2.97254
-0.0299988
-3.78741
0.685719
-11.9229
1.50479
-1.71348
-18.4586
-0.113908
3.24869
-1.24577
-1.70544
-18.3822
3.19987
2.46768
-4.69694
4.16999
-3.89924
-13.9613
11.6045
-1.9584
-5.60153
3.71673
-18.6345
4.91576
-1.29266
-11.0654
7.10692
2.56968
-9.32399
-6.87951
-12.2099
14.7387
11.6733
-14.5363
-16.9084
-6.92077
14.4106
8.32631
-8.49635
-14.1255
-2.50635
16.8592
4.61122
13.4104
-16.7171
-19.8276
17.9697
-2.42275
10.1209
4.65422
-9.8019
-0.0390859
-0.00179944
-0.028341
0.000782736
-2.71043
-2.60412
0.325901
0.101516
0.266811
0.00228719
20.7634
-2.88162
5.2482
-13.1817
-19.922
-2.5367
11.9905
4.64529
-11.3276
17.2913
-14.4617
13.7134
0.0651274
-17.1238
-12.2728
2.34196
11.4989
16.3278
0.054289
21.2557
-13.4981
0.0916505
-20.1325
20.4295
-11.5453
0.0679457
4.50015
11.1917
15.8592
-1.60397
-18.3283
3.11386
-19.4328
-1.72399
2.30537
0.280631
-2.71668
2.18539
3.01044
-24.0783
0.328833
-19.7796
-0.13494
0.243897
2.17684
-0.240377
-24.7578
0.283817
2.54873
-0.214709
4.3357
-23.6942
2.84677
4.40405
-23.1745
-1.80398
-18.982
3.37646
-1.39678
-19.6315
2.74041
0.129337
-20.3124
0.181412
2.14747
2.29532
-25.1271
0.167236
2.3235
4.28971
-24.5867
0.128107
2.08657
4.46744
-24.1252
4.49745
4.16316
-23.6171
-13.3648
15.8793
12.6649
-15.7271
-7.32025
17.5802
-11.6991
-17.5867
19.3767
-12.5099
-19.2375
-7.01041
10.4046
-9.89843
11.3054
18.4791
-10.7438
6.66385
10.4135
14.7634
9.13354
13.148
-2.06812e-06
-3.26321e-08
-2.41239e-05
9.55664e-08
3.93209e-07
-0.44643
0.130558
0.141491
-1.00005
-0.262663
0.695366
0.561147
0.583914
-3.33952
-1.20802e-05
-4.27842e-07
-4.57506e-06
4.91701e-07
-1.89905e-07
-5.23753e-08
1.88692e-07
-3.80005e-07
-0.00138849
-0.00759826
7.62401e-05
1.54872e-05
-4.77835e-06
0.000116712
-4.58334e-07
1.72902e-08
-1.86845e-06
3.15523e-07
9.01968e-09
7.55905
-11.4439
5.42243
0.0306612
-9.59736
-2.1528
12.9596
4.17339
-13.4369
-7.79053
0.62588
1.55694
0.0153979
13.3177
0.0490538
-13.7265
1.75081
10.7618
0.0399895
7.32155
3.4078
10.275
1.34642
2.03626
1.31312
-0.911956
-15.8103
1.9098
-3.94079
-12.3852
-16.2531
0.0830459
1.48177
-6.36027
0.165389
-18.7463
-6.31299
3.01113
-18.5384
1.88198
0.200148
-21.7775
3.76911
-21.406
-1.35544
-18.7798
2.98169
-2.28359
-19.2463
0.342448
-18.7941
0.297527
-3.35004
2.15886
-23.2474
0.494803
2.17144
-22.9665
0.4028
-3.1578
4.76299
-22.8875
4.52262
-22.472
1.13555
-15.7609
-3.6964
-11.9392
-15.8416
1.60053
-1.70861
-6.26538
2.06111
-18.4824
-6.19408
-18.306
2.24063
-21.3153
2.56312
-21.1836
-2.99052
-0.750784
1.56979
1.48097
-1.37097
-16.1916
2.65417
12.6976
-5.86887
5.9815
-19.4403
0.087599
-3.33744
1.96522
0.0350329
-17.2832
0.0847186
2.30215
-22.6607
0.116618
4.38923
-21.7949
-2.09443
7.35673
4.04265
-8.23749
-10.3757
13.0971
2.00594
8.43439
0.0531822
18.5578
-10.011
0.0654087
7.75128
14.1516
-8.48255
0.0688757
1.13985
6.0365
3.56388
0.0378641
-12.4708
2.32324
4.90581
2.77442
3.8964
8.01208
-10.1419
5.91833
3.33518
-8.63169
-6.0344
10.7644
-11.9561
12.1087
-12.7865
6.09066
4.56511
8.99431
-1.38629
-3.67577
0.481962
0.397533
1.23255
0.847213
6.33683
1.59877
-16.0276
-3.74516
-13.239
-17.0781
-2.24249
-6.90822
-20.1177
-6.4536
-19.0008
-2.80328
-21.7772
-21.1652
8.89301
-4.95894
4.69629
-16.8124
-1.19787
-1.02153
0.16627
-2.21434
0.676382
-2.89885
-9.63104
-13.725
-5.92197
-17.1269
-19.867
16.5527
9.45375
-9.27334
-5.35249
4.5118
-6.54542
6.39919
11.3323
-7.60579
-2.65098
-7.87449
1.143
0.705831
-10.9546
2.83828
1.74444
5.23593
6.952
4.87354
-0.154552
0.18231
0.273771
0.38513
4.90194
3.27525
0.0443652
0.265599
0.543764
-0.0319163
0.715679
0.22635
0.423201
0.000698009
0.00535259
0.0147365
0.0306162
-0.00184426
-0.542724
0.00818769
0.00907485
0.437263
0.316806
4.93411
0.957473
0.0259517
-0.41684
0.00360216
0.0165308
0.0157558
-0.000774918
0.194821
0.603744
0.00523461
-0.316822
-0.238946
0.00618292
0.010949
0.010456
-4.02885
0.380564
0.456876
2.21361
1.98159
0.196966
0.199986
0.660158
0.872222
0.00383179
-3.70609
0.0182023
0.00545556
0.0288742
-0.00148373
-0.139755
-0.108143
0.000348298
0.00235296
-0.000103292
0.0299588
0.100834
-0.000604083
0.0820061
0.0609021
0.0731009
0.0132066
0.0117474
0.0217375
-0.106845
0.000717185
0.000964091
0.00165504
2.3405
1.43584
-0.0910368
0.0130486
0.0386254
0.0694466
0.164107
0.0612868
-0.171388
0.0317041
-0.00206557
0.000490184
-0.248417
0.00293635
0.00671019
0.141055
-0.164683
-0.930527
0.0545925
-0.150639
-0.110661
0.00415336
0.00392769
-2.28792
0.214583
1.44857
2.25599
-0.0893685
-0.63423
0.0282471
0.0985638
0.387077
0.359215
-2.42475
-0.0291527
0.0120643
0.00853273
0.0421201
0.0337668
-0.00566516
0.00158608
0.0030063
-0.0183199
0.00603705
0.0107139
-0.0561857
0.000280937
0.000403663
0.00071545
9.49279e-05
0.000167939
-9.04056e-05
-0.0189327
0.000143649
0.000418083
-0.000400176
-0.00048729
8.48457e-06
1.22694e-05
-5.11067e-07
-0.0290735
0.000674638
-2.69485e-05
-0.02003
7.50997e-05
0.000414636
-2.31096e-05
0.00573809
-0.00205326
-0.0129058
0.000125092
0.000258784
0.00925611
-0.00559705
0.000587929
0.00023043
-1.95264e-05
-0.00267521
0.0110037
0.00394451
0.0178784
-0.000856147
3.19333e-05
7.57595e-05
-8.40399e-06
4.41663e-05
4.67824e-05
9.207e-07
3.77726e-06
-1.68499e-07
1.45314e-06
2.35967e-06
0.00587909
0.00139252
-0.000133491
0.000271972
4.10714e-05
0.00023136
-1.28355e-05
5.28162e-07
3.35404e-06
-1.47181e-07
4.51672e-06
0.000175202
-0.00399121
7.34182e-05
0.000151264
-5.11604e-05
9.13328e-07
2.23906e-06
3.04581e-06
0.00517744
0.00259002
2.90516e-05
7.77329e-05
4.90615e-06
-0.000138725
-9.79626e-07
-6.28578e-05
-1.98723e-06
-8.85554e-05
1.06132e-05
4.65496e-07
-0.000560002
2.32239e-07
-0.00037186
7.52035e-07
3.53835e-05
-7.94146e-06
6.98085e-05
-9.44998e-08
-1.81439e-06
1.09102e-07
-8.30014e-05
-2.97591e-06
-0.000125291
-5.62569e-07
-0.000340139
6.34342e-07
-0.000503737
4.87332e-05
5.762e-05
-1.26668e-05
-6.46798e-07
4.81534e-07
0.00130125
-0.00247497
-3.63902e-05
2.35756e-05
-7.70732e-05
-0.000107579
2.46627e-06
1.78046e-06
-0.00681623
0.000137582
-0.00449525
8.58137e-05
-7.41426e-07
-0.000352784
1.30659e-06
-1.80503e-05
-2.93055e-06
-3.52029e-05
3.44716e-08
-0.000494034
2.43387e-07
-2.4866e-05
0.000221247
6.02511e-05
-1.83606e-05
-0.00191023
4.03526e-06
-1.1503e-06
1.70148e-05
0.000156774
0.000132987
-0.00140859
8.13491e-06
1.16971e-05
2.57318e-05
-3.23841e-05
-6.83935e-08
-2.12008e-07
-6.33225e-07
-4.00673e-07
-7.7086e-05
-0.000152837
-1.54764e-05
2.52621e-06
-2.47926e-05
-2.34332e-06
-6.26337e-08
-2.74422e-06
3.65355e-07
3.51968e-07
-0.000113265
-1.43896e-05
1.17393e-07
-1.6423e-05
1.88156e-06
-0.00101776
0.000113138
4.18708e-05
-0.000968031
0.000626973
0.00363824
2.19595e-06
-1.20971e-05
9.15845e-06
-5.20513e-07
1.86066e-07
8.16466e-07
1.31795e-05
5.34419e-05
6.94131e-07
2.23193e-06
-2.11315e-05
-0.000349423
1.10155e-05
6.26718e-05
-0.0016062
5.49258e-05
-1.99803e-05
1.01803e-06
1.19772e-06
-0.000877488
0.000458189
0.00209394
9.73364e-06
2.9083e-05
6.28853e-06
-8.37989e-08
-2.44819e-06
-9.73423e-07
-9.88533e-06
2.32366e-07
-0.000156974
-8.49436e-06
-5.89042e-05
1.76411e-05
-0.000196144
6.87389e-05
-0.000678404
3.09241e-06
4.414e-06
1.1726e-06
-3.08823e-07
-3.30607e-07
-6.222e-09
-2.96097e-08
-4.63366e-06
6.02617e-08
-7.24803e-06
-2.7255e-09
7.07721e-06
9.92253e-07
-2.79137e-07
2.10147e-08
-8.75752e-09
4.44057e-06
1.56544e-06
5.19405e-08
-5.14031e-07
5.12136e-07
-1.22582e-06
2.45028e-07
2.50119e-06
-2.06334e-06
7.61112e-08
-7.07251e-08
-4.19356e-08
-1.26146e-07
-6.84619e-08
-9.57322e-08
-1.45933e-06
8.34337e-06
-6.79638e-06
1.30937e-06
3.20449e-08
1.32311e-05
4.54637e-07
-6.4636e-07
1.02217e-08
4.2418e-08
2.44681e-08
2.53944e-08
-5.67402e-07
6.3527e-12
6.1684e-12
6.16973e-12
6.33804e-12
-1.38307e-09
-5.28022e-12
-2.60821e-10
3.55271e-15
-1.803e-13
-1.28786e-14
-4.44089e-16
0
0
8.13571e-13
2.69562e-13
6.92779e-14
-4.71889e-12
-1.17018e-13
-3.41949e-14
-7.8515e-13
-2.22045e-15
-2.62901e-13
7.99361e-15
-7.63833e-14
-1.81188e-13
-1.28786e-14
3.55271e-15
-4.44089e-16
-3.84137e-14
7.99361e-15
-7.28306e-14
-5.10703e-15
-4.64517e-12
-2.22045e-16
-1.33227e-15
0
0
-1.33227e-15
-2.22045e-16
-2.98553e-08
1.90911e-09
6.12099e-10
4.01996e-09
-8.21351e-08
-1.10297e-07
-1.29252e-07
-1.28409e-07
9.01087e-08
-5.15908e-06
-3.97826e-08
-1.25095e-06
3.05248e-07
-3.13611e-10
2.99334e-10
2.98753e-10
-1.77888e-08
-2.6144e-08
1.53384e-10
3.08457e-10
-0.00361828
-0.144069
0.000858827
0.000820384
0.00311314
-0.012415
4.50378e-10
-2.9348e-09
-7.08072e-10
-4.22067e-09
1.03029e-13
2.70894e-14
2.84217e-14
2.79776e-14
2.75335e-14
-1.51168e-12
-1.93179e-12
-3.91687e-12
0
0
0
0
0
1.04498e-09
1.04583e-09
-5.91733e-08
-2.33957e-10
-1.06329e-07
1.06974e-09
1.06361e-09
2.3429e-09
-1.33227e-15
0
0
-2.22045e-16
0
7.99361e-15
7.99361e-15
8.43769e-15
7.99361e-15
-6.66134e-13
-1.95399e-13
0
0
-4.44089e-16
0
0
0
0
0
-8.88178e-16
-1.46105e-13
-6.21725e-15
-1.68754e-13
-1.9984e-15
-9.76996e-15
1.11022e-15
-1.10445e-12
-5.06262e-14
-2.22045e-16
8.88178e-15
0
0
0
0
0
0
0
0
0
7.88924e-12
2.24665e-12
-3.54339e-12
-3.24962e-11
-3.41949e-14
-7.57661e-12
-3.66818e-13
-1.02807e-13
-5.66214e-13
-2.20091e-11
3.64633e-11
-4.03633e-12
-1.22691e-10
2.50666e-11
9.34808e-14
-3.69011e-11
8.53095e-13
-4.26326e-14
-2.27773e-12
4.71623e-13
8.25118e-13
-2.18181e-12
4.61853e-13
-2.52842e-12
-1.32112e-10
2.47695e-11
1.77636e-15
-3.90799e-14
6.66134e-15
-3.90799e-14
6.21725e-15
-4.49174e-11
-2.74314e-12
6.66134e-15
6.45706e-13
-1.27162e-09
1.07891e-12
-1.44347e-10
3.09384e-11
-3.21116e-11
-1.54587e-12
6.09957e-13
-3.76765e-12
1.01519e-12
6.59917e-13
-1.77636e-15
-2.66454e-15
8.88178e-16
2.22045e-16
3.55271e-15
2.44249e-15
-1.42109e-14
-1.77636e-14
-8.88178e-16
0
-2.22045e-16
-8.88178e-16
0
0
0
-1.15463e-14
2.22045e-16
-8.88178e-15
0
-4.44089e-16
4.44089e-16
0
-4.44089e-16
0
0
0
0
0
-4.44089e-16
0
-4.44089e-16
0
-1.33227e-15
0
0
0
0
-9.87709e-09
-1.22477e-07
-1.34963e-07
-6.39935e-08
-6.52482e-08
-1.2357e-07
-2.48224e-07
-3.30655e-07
2.28363e-08
4.60155e-07
-2.2488e-05
-7.39218e-06
-1.09406e-07
9.6386e-07
7.12143e-08
-6.78336e-09
-1.54599e-07
-9.03725e-07
-1.8965e-07
-1.78842e-06
-8.13323e-07
-2.24502e-07
-2.27449e-07
6.03585e-08
9.95299e-07
-5.98191e-05
-1.85835e-05
3.89331e-08
1.35931e-06
7.07397e-08
7.69052e-09
6.73937e-08
-2.78884e-07
-8.37128e-07
-1.43097e-07
-1.56523e-07
-2.39994e-06
-2.66131e-07
-2.09369e-06
8.18754e-08
3.59754e-07
-8.64907e-05
-1.46704e-06
7.95391e-07
1.65109e-06
-1.39509e-05
5.35184e-09
2.6976e-08
-1.04923e-07
-7.1633e-07
-1.68111e-07
-8.74971e-08
-3.07416e-07
-1.13513e-07
-8.38265e-08
-1.15299e-07
2.88326e-08
5.56998e-08
3.38729e-08
-6.76677e-06
-3.60538e-07
-1.7419e-07
-3.34892e-07
-9.72343e-07
-1.45386e-07
-1.04511e-07
-8.00931e-08
-6.579e-08
-5.2089e-08
-4.47361e-08
8.87105e-08
6.62471e-10