/*--------------------------------*- C++ -*----------------------------------*\
  =========                 |
  \\      /  F ield         | OpenFOAM: The Open Source CFD Toolbox
   \\    /   O peration     | Website:  https://openfoam.org
    \\  /    A nd           | Version:  9
     \\/     M anipulation  |
\*---------------------------------------------------------------------------*/
FoamFile
{
    format      ascii;
    class       volVectorField;
    location    "0.00035";
    object      U;
}
// * * * * * * * * * * * * * * * * * * * * * * * * * * * * * * * * * * * * * //

dimensions      [0 1 -1 0 0 0 0];

internalField   nonuniform List<vector> 
4969
(
(1044.33 -804.916 574.091)
(1267.69 -943.126 274.446)
(37.4403 -20.3843 0.740757)
(1846.72 -688.045 130.819)
(957.807 -320.177 41.7593)
(1482.41 -472.856 764.666)
(121.964 -63.3141 37.0569)
(390.287 -139.989 185.919)
(2070.21 -535.722 137.867)
(1811.65 -669.677 385.079)
(2038.1 -519.652 418.295)
(1871.68 -459.107 120.3)
(1841.81 -459.629 360.299)
(1614.66 -658.193 323.497)
(1638.6 -651.375 103.717)
(1688.57 -465.827 863.102)
(1694.34 -653.714 600.326)
(1521 -675.03 815.528)
(1913.59 -484.504 664.554)
(1720.14 -468.331 582.665)
(1496.81 -663.522 538.612)
(1282.13 -619.956 674.67)
(1275.74 -940.794 82.7435)
(1568.02 -844.252 110.102)
(1549.61 -849.654 331.248)
(1312.52 -780.959 269.946)
(974.278 -721.247 48.4277)
(965.19 -714.851 184.141)
(1325.55 -779.506 79.2622)
(649.431 -310.567 24.3512)
(915.969 -304.755 162.325)
(609.504 -290.706 102.586)
(1524.14 -450.543 87.1713)
(1491.39 -450.218 292.092)
(1226.46 -565.539 236.59)
(1246.93 -570.798 66.7602)
(1204.06 -912.301 468.798)
(1465.35 -856.199 545.137)
(1308.06 -827.997 731.223)
(1221.36 -750.277 451.56)
(579.642 -432.416 303.22)
(860.899 -640.602 309.907)
(1005.79 -634.585 524.621)
(1070.53 -364.348 532.733)
(738.896 -251.787 247.931)
(434.578 -209.854 148.939)
(155.732 -68.144 66.6747)
(1350.19 -432.291 470.964)
(1101.02 -523.885 384.347)
(798.978 -394.385 400.33)
(272.148 -156.584 8.62946)
(238.022 -134.62 38.0399)
(29.4169 -15.4539 3.2359)
(875.943 -534.395 157.085)
(451.809 -321.101 16.1394)
(415.891 -295.776 70.9158)
(898.315 -548.176 39.5635)
(24.5906 -9.65345 7.20725)
(1.60632 -0.631092 0.334314)
(11.7517 -5.36689 2.30233)
(730.648 -449.039 255.564)
(70.5007 -43.2328 27.4433)
(268.34 -186.664 93.6897)
(402.545 -249.416 201.292)
(1952.66 354.49 -724.168)
(1817.75 302.529 910.441)
(1663.47 346.045 -1294.47)
(2158.44 138.385 154.817)
(1840.02 430.214 -491.797)
(1209.76 387.065 -1488.48)
(1229.69 413.919 -171.797)
(1208.64 -371.388 -1494.63)
(1866.29 -96.5783 -1070.11)
(1223.96 -402.113 -473.087)
(2163.44 -109.243 -477.031)
(1229.12 411.41 157.741)
(1917.17 389.156 1234.65)
(1238.93 424.157 1173.53)
(1235.76 -400.851 155.464)
(2163.4 -376.036 149.686)
(1213.23 -397.703 814.342)
(2121.58 -349.899 766.498)
(1486.84 147.35 -471.924)
(1481.15 414.908 -169.801)
(1214.59 415.581 -479.244)
(1237.55 144.87 -171.374)
(1232.26 148.649 -484.353)
(1493.43 145.549 -169.348)
(1467.53 421.2 -473.113)
(1231.77 -396.757 -171.042)
(1485.79 -126.342 -469.975)
(1233.66 -120.29 -172.111)
(1486.16 -397.115 -170.714)
(1483.04 -405.181 -464.883)
(1228.94 -123.793 -481.86)
(1490.39 -120.396 -171.79)
(1487.91 140.203 495.557)
(1482.91 411.988 158.366)
(1226.74 411.192 497.154)
(1235.61 139.688 157.613)
(1490.65 139.948 157.778)
(1236.56 140.025 498.899)
(1475.99 412.021 495.749)
(1231.34 -399.617 495.426)
(1492.07 -123.012 493.88)
(1238 -124.193 156.137)
(1490.38 -399.675 154.962)
(1494.34 -123.562 154.91)
(1481.43 -398.644 494.38)
(1239.13 -124.5 498.606)
(1204.01 402.358 -830.717)
(1465.96 367.817 -1452.22)
(1490.42 391.513 -832.364)
(1504.94 135.602 -831.63)
(1232.74 135.088 -1483.94)
(1223.32 141.636 -831.942)
(1493.41 128.334 -1464.89)
(1207.33 -385.397 -824.982)
(1502.6 -118.089 -826.894)
(1229.75 -117.235 -1485.99)
(1461.02 -353.614 -1451.81)
(1493.44 -376.817 -821.759)
(1219.46 -122.739 -829.094)
(1489.8 -110.723 -1462.12)
(1589.9 430.925 1272.4)
(1488.46 419.621 834.83)
(1210.15 411.414 812.698)
(1487.64 142.381 828.366)
(1239.48 144.86 1162.76)
(1217.04 139.922 815.003)
(1576.18 146.02 1251.62)
(1239.16 -409.263 1176.74)
(1490.18 -123.547 829.586)
(1239.35 -125.893 1166.48)
(1589.73 -415.77 1274.64)
(1490.57 -404.977 836.791)
(1219.51 -123.49 816.591)
(1576.95 -125.842 1255.36)
(1994.27 -90.549 -755.846)
(2161.22 -100.181 -430.577)
(2110.73 341.894 -424.689)
(1041.74 255.645 -179.462)
(1100.53 253.429 -78.6837)
(1127.11 -194.475 -186.426)
(1128.32 -223.559 -72.9632)
(2184.98 -333.318 138.493)
(2058.9 -316.164 702.46)
(2220.17 128.83 141.072)
(1131.68 252.599 50.0202)
(562.007 124.945 267.702)
(1166.31 -233.371 56.7974)
(580.522 -120.724 278.06)
(2137.42 373.286 -467.024)
(2166.26 138.661 -479.894)
(2158.12 143.613 -170.928)
(2139.6 388.753 -170.742)
(1790.11 426.407 -165.859)
(1834.9 146.618 -485.4)
(1789.46 147.386 -166.994)
(2139.61 -349.358 -460.373)
(2152.98 -366.903 -171.1)
(2157.02 -113.678 -173.825)
(1838.34 -127.822 -486.765)
(1797.32 -406.452 -170.08)
(1862.18 -413.207 -491.337)
(1786.98 -124.052 -171.821)
(2166.66 -120.977 151.445)
(2166.14 -367.685 464.99)
(2179.88 -119.022 474.958)
(1807.7 -124.882 505.34)
(1802.7 -409.748 160.847)
(1793.56 -125.922 159.471)
(1815.55 -409.959 506.916)
(2172.2 135.445 474.867)
(2158.73 378.837 463.25)
(1813.86 423.974 505.133)
(2153.18 388.291 151.461)
(1796.68 422.935 163.985)
(1803.49 143.68 505.913)
(1788.23 143.183 162.943)
(1776.96 368.866 -762.589)
(1840.63 334.098 -1026)
(1935.53 343.645 -569.759)
(1872.29 125.161 -1084.8)
(1984.74 131.851 -605.535)
(1796.29 132.441 -782.815)
(1696.58 124.245 -1333.51)
(1978.11 -101.355 -592.083)
(1842.47 -310.36 -1007)
(1941.82 -321.012 -545.496)
(1790.71 -110.854 -773.137)
(1656.64 -330.152 -1284.83)
(1772.42 -352.9 -744.164)
(1690.47 -103.348 -1323.88)
(1951.2 341.519 1078.43)
(2149.87 130.349 778.043)
(2001.07 127.738 1097.97)
(2115.9 360.43 765.322)
(1901.95 418.076 855.209)
(1878.4 142.757 858.833)
(1931.03 137.151 1240.95)
(2154.2 -116.445 777.166)
(1954.66 -331.738 1076.88)
(2002.77 -115.605 1097.58)
(1880.77 -124.313 860.923)
(1917.38 -377.048 1236.5)
(1901.34 -404.633 859.724)
(1931.83 -121.502 1243.45)
(2113.79 -314.928 -410.128)
(2166.12 -323.31 -168.181)
(2213.1 -102.642 -172.217)
(2022.74 -90.5587 -362.938)
(2005.01 -281.339 -159.161)
(2077.57 -94.4687 -165.66)
(1959.16 -279.193 -342.633)
(2165.33 133.572 -437.006)
(2214.43 135.616 -171.718)
(2155.65 347.18 -171.725)
(2029.9 129.338 -371.243)
(1992.49 305.532 -164.683)
(2081.1 128.566 -166.296)
(1951.77 311.163 -361.278)
(2192.84 125.759 433.348)
(2148.85 339.412 429.567)
(2172.33 345.928 140.233)
(2057.8 118.65 391.427)
(2018.05 304.71 127.138)
(2095.21 121.758 131.614)
(1984.41 299.67 380.82)
(2229.78 -112.092 137.42)
(2159.3 -329.36 428.321)
(2200.79 -111.364 430.384)
(2064.91 -105.155 388.95)
(2035.02 -294.328 127.701)
(2103.44 -104.811 128.152)
(1999.95 -292.587 381.769)
(1935.58 331.356 -375.847)
(1998.01 136.513 -772.428)
(2002.93 133.807 -403.807)
(1913.61 137.167 -299.356)
(1881.37 384.352 -512.356)
(1848.64 335.037 -304.584)
(1938.08 151.317 -544.626)
(2111.07 123.474 718.08)
(1882.66 118.656 934.164)
(2050.17 324.773 702.965)
(1932.1 117.414 621.902)
(1618.59 303.013 811.249)
(1689.81 112.041 832.853)
(1861.11 300.997 609.493)
(1996.54 -91.5899 -385.398)
(1970.74 -309.469 -699.808)
(1949.33 -294.695 -337.712)
(1907.74 -82.9231 -282.445)
(1907.83 -311.33 -494.873)
(1936.52 -82.0703 -531.808)
(1866.72 -284.868 -267.844)
(2115.93 -111.5 716.094)
(1822.55 -294.191 909.444)
(1883.85 -109.123 932.379)
(1935.77 -105.32 620.583)
(1626.92 -292.332 815.54)
(1690.84 -101.233 833.388)
(1871.53 -292.017 610.642)
(1757.23 130.607 -315.563)
(1669.5 306.949 -134.262)
(1077.41 249.784 -189.187)
(1231.18 99.1203 -86.9644)
(1792.31 128.165 -139.14)
(1641.93 319.499 -303.14)
(1206.91 98.5233 -213.781)
(1752.1 -81.6947 -307.577)
(1691.81 -272.078 -126.428)
(1230.29 -63.1793 -84.9892)
(1119.8 -212.897 -183.432)
(1788.11 -86.8368 -136.462)
(1667.93 -274.742 -288.361)
(1207.51 -56.2472 -209.143)
(1771.6 116.454 329.796)
(1704.01 302.318 94.5194)
(1091.78 235.184 194.074)
(1263.32 97.7356 63.2118)
(1819.18 122.052 105.762)
(1662.52 299.456 313.324)
(1208.76 86.6874 224.906)
(1777.76 -97.257 330.212)
(1731.79 -283.286 100.4)
(1270.05 -69.6249 64.0131)
(1119.28 -222.476 206.628)
(1825.59 -96.3052 104.354)
(1686.19 -285.953 320.454)
(1215.05 -66.9424 228.138)
(1677.31 -73.2499 -291.593)
(1693.97 -283.634 -351.693)
(1185.7 -40.5224 -205.754)
(1095.96 -198.817 -208.502)
(1725.97 -66.6006 -376.354)
(1626.16 -275.702 -277.618)
(1168.72 -47.3795 -233.347)
(1601.03 108.749 541.075)
(1216.13 256.908 600.348)
(916.28 197.597 302.673)
(660.992 40.1841 316.682)
(1296.61 88.5723 640.006)
(1507.7 295.49 515.329)
(1024.05 68.2592 341.188)
(1605.05 -92.6602 542.568)
(1229.82 -246.803 610.175)
(666.255 -32.946 320.102)
(939.585 -188.843 313.458)
(1299.11 -76.4754 642.927)
(1524.83 -283.254 523.093)
(1029.79 -54.8065 344.057)
(1677.59 134.771 -305.156)
(1647.65 366.811 -356.387)
(1032.49 244.746 -213.894)
(1167.79 98.2196 -206.818)
(1586.25 335.743 -303.291)
(1722.08 143.617 -383.625)
(1160.85 95.361 -238.983)
(1446.82 -1113.79 -199.116)
(1249.23 -924.758 -101.758)
(1414.15 -1040.57 332.563)
(1403.15 -1027.72 -141.432)
(1239.25 -1240 -821.56)
(1446.57 -1447.14 -474.891)
(1168.21 -880.961 -1465.98)
(1801.73 -524.911 -880.039)
(1195.79 -941.233 -458.093)
(1951.89 -806.761 -172.17)
(1506.75 -1502.08 148.727)
(1242.75 -993.452 744.338)
(1150.76 -1486.16 1199.51)
(1194.59 -931.93 156.183)
(1971.17 -815.744 141.846)
(1210.25 -948.725 835.153)
(1850.73 -743.75 718.191)
(1205.08 -671.358 -463.822)
(1191.28 -928.756 -170.47)
(1213.29 -666.234 -170.302)
(1575.11 -995.265 -490.69)
(1468.75 -673.182 -170.57)
(1488.6 -694.011 -469.959)
(1500.01 -965.536 -168.694)
(1216.82 -669.576 155.428)
(1189.84 -931.722 494.677)
(1212.85 -669.259 492.493)
(1523.03 -972.896 506.165)
(1474.09 -675.711 158.366)
(1505.09 -968.239 161.914)
(1472.12 -678.522 501.042)
(1208.41 -921.201 -823.158)
(1195.09 -623.808 -1499.48)
(1202.16 -649.44 -825.016)
(1474.96 -882.192 -741.318)
(1425.6 -595.53 -1409.71)
(1493.81 -635.378 -807.838)
(1371.7 -829.042 -1295.99)
(1198.21 -670.932 812.689)
(1307.15 -1004.63 1301.76)
(1248.89 -698.505 1209.79)
(1631.01 -998.64 872.235)
(1635.58 -700.707 1306.42)
(1516.79 -696.841 854.816)
(1645.48 -957.643 1292.35)
(1290.68 -1627.63 -506.507)
(1493.89 -1491.73 -183.786)
(1286.73 -1596.27 -174.865)
(1280.94 -1278.48 -489.581)
(1225.21 -1221.34 -168.917)
(1628.13 -1279.44 -504.893)
(1598.79 -1280.02 -174.6)
(1290.42 -1600.95 155.714)
(1490.15 -1483 473.858)
(1293.74 -1618.51 494.172)
(1229.61 -1225.13 160.551)
(1241.71 -1236.74 506.939)
(1623.54 -1285.93 494.18)
(1604.04 -1284.38 156.288)
(1348.94 -1014.87 -191.616)
(27.3983 -14.2508 -2.61069)
(22.9348 -10.1853 -1.13505)
(1816.92 -672.563 -163.015)
(605.527 -289.53 -87.2436)
(1904.89 -534.995 -606.975)
(623.092 -296.316 -82.2721)
(2096.7 -591.705 -169.614)
(1895.7 -907.844 -477.957)
(2059.16 -572.705 -438.488)
(1835.3 -690.329 -169.644)
(1897.93 -774.831 -412.788)
(1909.85 -681.065 -494)
(1881.74 -934.999 -171.685)
(2111.22 -601.7 145.107)
(1949.98 -799.11 439.245)
(2099.32 -588.195 449.348)
(1904.46 -930.069 475.552)
(1839.87 -694.895 161.901)
(1889.58 -942.238 152.386)
(1865.63 -690.138 502.503)
(1029.05 -1297.73 -1090.73)
(1266.88 -1269.72 -433.254)
(1107.38 -1406.83 -617.495)
(1113.58 -1110.98 -1333.08)
(1192.54 -1187.32 -763.833)
(1403.23 -1101.7 -612.193)
(1293.7 -1026.69 -1084.42)
(1661.41 -795.53 -554.939)
(1747.98 -746.487 -717.658)
(1611.26 -554.477 -1189.83)
(1858.86 -527.823 -458.262)
(1725.22 -713.431 -334.677)
(1737.1 -586.081 -673.893)
(1549.08 -759.786 -1011.79)
(1214.43 -1214.61 994.746)
(1413.51 -1408.06 793.323)
(1288.33 -1631.21 854.84)
(1320.03 -1312.58 883.874)
(1331 -1324.41 1332)
(1637.04 -1279.09 853.168)
(1485.48 -1149.27 1194.37)
(1619.26 -658.031 902.727)
(1828.37 -507.875 1010.79)
(2035.67 -571.395 756.557)
(1901.76 -893.456 809.347)
(1875.58 -616.031 1195.73)
(1946.53 -665.545 839.804)
(1715.58 -800.127 1117.91)
(1428.03 -1041 112.145)
(1723.28 -951.155 136.553)
(1687.94 -917.632 402.401)
(1521.81 -1245.86 140.557)
(1487.51 -1208.41 417.968)
(1774.48 -1124.92 461.531)
(1790.93 -1145.88 146.471)
(1408.41 -1049.58 -268.486)
(1696.64 -936.467 -172.249)
(1446.84 -1186.61 -363.267)
(1497.04 -1231.49 -179.79)
(1720.41 -1098.55 -453.613)
(1643.04 -902.296 -344.004)
(1774.72 -1137.22 -179.068)
(2046.05 -521.585 -167.575)
(1985.66 -503.361 -378.848)
(1769.22 -661.881 -328.047)
(1837.98 -444.621 -149.262)
(1812.75 -456.491 -313.507)
(1599.82 -658.097 -276.229)
(1604.69 -638.041 -128.991)
(1573.01 -1221.9 -421.832)
(1484.27 -1249.43 -607.738)
(1399.29 -1160.43 -254.039)
(1525.89 -975.115 -399.945)
(1682.96 -1009.09 -564.877)
(1578.11 -912.361 -236.15)
(1500.98 -977.578 -792.592)
(1355.27 -1033.47 542.197)
(1575.75 -867.453 617.191)
(1435.18 -868.233 826.562)
(1286.35 -1075.62 840.473)
(1389.61 -1128.33 638.916)
(1682.65 -1061.63 765.345)
(1465.57 -911.585 960.278)
(1804.93 -775.264 -502.603)
(1842.17 -488.206 -275.43)
(1709.21 -693.88 -234.692)
(1825.48 -537.096 -437.283)
(1765.43 -484.71 -255.309)
(1608.97 -698.664 -242.854)
(1705.28 -754.432 -368.648)
(1270.21 -946.286 -223.824)
(1539.07 -830.914 -137.543)
(1537.69 -855.877 -273.231)
(1311.49 -781.316 -224.587)
(949.041 -703.261 -60.5956)
(970.96 -716.733 -151.666)
(1293.84 -762.979 -97.1038)
(917.427 -300.87 -140.306)
(923.679 -308.012 -53.8129)
(620.65 -296.214 -32.5269)
(1484.72 -437.49 -108.304)
(1485.78 -443.609 -254.44)
(1228.34 -563.805 -201.106)
(1211.46 -554.779 -81.8982)
(1509.95 -1123.13 -292.905)
(1676.15 -1000.03 -400.516)
(1564.59 -917.525 -217.913)
(1381.43 -830.659 -210.082)
(1208.76 -877.896 -173.752)
(1045.19 -768.606 -143.859)
(1527.05 -905.911 -278.433)
(576.639 -278.529 -97.2304)
(947.909 -309.981 -143.019)
(903.072 -297.582 -163.329)
(1587.44 -484.408 -302.291)
(1492.52 -455.918 -254.179)
(1275.44 -586.965 -209.794)
(1389.41 -632.49 -232.21)
(33.8746 -18.2024 -1.10733)
(230.2 -129.556 -31.5245)
(253.678 -144.956 -12.3328)
(876.859 -532.311 -131.675)
(429.32 -304.764 -22.4704)
(406.515 -290.619 -59.6472)
(868.84 -530.466 -50.4454)
(19.3139 -9.24965 -1.53554)
(210.697 -110.331 -20.6067)
(190.965 -104.053 -26.349)
(905.784 -552.631 -138.569)
(483.225 -337.23 -52.2643)
(390.94 -277.123 -51.5864)
(1023.14 -620.289 -141.683)
(-0.000725413 0.00624453 -0.000144985)
(-0.000131923 0.000653326 3.23577e-06)
(-5.27997e-06 4.36136e-05 1.05094e-05)
(-3.66728e-09 2.38553e-08 1.53694e-08)
(-0.000931217 0.137819 -0.00548472)
(-0.00380104 0.0235729 -0.00128267)
(-0.0190995 1.15401 -0.0278936)
(-0.0219348 1.29112 0.0147877)
(-2.22141e-05 0.000125868 1.06521e-05)
(-0.000383723 0.033083 0.00542295)
(-2.25667e-05 0.00193207 0.000492395)
(-1.70534e-07 1.012e-06 6.47847e-07)
(1.97407e-07 7.62786e-06 2.46187e-06)
(1.37884e-08 5.02185e-07 4.12319e-07)
(-6.25126e-11 3.73879e-10 3.3693e-10)
(6.20215e-11 4.10193e-09 2.24612e-09)
(-11.1678 38.6589 -2.6296)
(-58.0216 302.282 -60.0424)
(-0.296723 1.45127 -0.0925121)
(-90.639 421.36 -23.078)
(-0.478772 2.19522 0.0232189)
(-82.3737 385.995 66.641)
(-0.0984291 0.542586 0.0737786)
(-8.91054 54.4626 18.5368)
(-0.00129856 0.00800104 0.0033772)
(-0.014383 0.150176 0.0688383)
(-2.73697e-06 1.32627e-05 9.39757e-06)
(-1.21399e-05 0.000123944 8.95386e-05)
(-2.31283e-07 1.34808e-06 9.57452e-07)
(-1.15114e-07 3.26179e-06 3.86315e-06)
(-3.01138e-09 1.93452e-08 1.96283e-08)
(-3.65728e-09 5.41834e-08 7.13626e-08)
(-0.000833218 0.00857949 0.000597457)
(-0.0862939 0.747899 0.0079826)
(-0.000338078 0.0242741 0.00020259)
(-0.0138253 0.850417 0.0722791)
(-0.00140044 0.0135629 0.000106295)
(-0.0537005 0.496155 0.0396649)
(-0.000201335 0.015256 0.00111925)
(-0.000225088 0.00294464 -0.000235125)
(-0.00576035 0.0939507 -0.00328826)
(-9.82585e-06 0.00168236 -5.74768e-05)
(-0.00335015 0.323038 -0.0310773)
(-0.0169035 0.201032 -0.0177087)
(-4.27417e-05 0.00484885 -0.0004153)
(-6.20139e-05 0.0011198 -3.35452e-05)
(-0.000716332 0.00769033 -0.00049714)
(-0.0104135 0.750522 -0.059427)
(-0.0769923 0.669796 -0.0146208)
(-0.000299827 0.0219098 -0.000409296)
(-0.0463138 0.449302 -0.0321337)
(-0.000156051 0.0133171 -0.000940361)
(-0.00126683 0.0122726 -0.00020717)
(-0.000213331 0.0024365 0.000273199)
(-0.00368189 0.263795 0.0360528)
(-0.00167997 0.0195614 0.00306774)
(-5.29019e-06 0.000511764 7.55082e-05)
(-0.0146149 0.153494 0.0200797)
(-4.93952e-05 0.00428687 0.000496781)
(-2.3025e-05 0.000295529 4.2127e-05)
(7.10027e-07 2.15736e-06 5.86288e-07)
(-8.72388e-05 0.00113614 0.000282812)
(-3.00886e-07 2.97257e-05 7.08625e-06)
(-1.24615e-07 7.3164e-05 2.69692e-05)
(-2.14409e-08 1.85855e-05 4.29867e-06)
(-2.12317e-06 4.7286e-05 1.6829e-05)
(3.14571e-08 1.70354e-06 4.98269e-07)
(1.86162e-08 2.43354e-07 8.64016e-08)
(1.53279e-07 7.18345e-06 2.58384e-06)
(-4.56035e-07 7.62923e-06 2.43151e-06)
(9.78222e-10 2.42174e-07 4.68617e-08)
(-3.79477e-07 5.85554e-06 2.07593e-06)
(2.70713e-09 2.70274e-07 7.2485e-08)
(1.44744e-08 2.33938e-07 5.41697e-08)
(-3.03729e-08 4.23334e-07 3.42018e-07)
(3.55084e-09 1.06659e-07 5.87124e-08)
(-5.73387e-09 7.85411e-08 4.33899e-08)
(1.29577e-10 5.33982e-09 3.9352e-09)
(-2.21818e-10 4.09976e-09 2.22967e-09)
(-3.43652e-10 4.90944e-09 3.2875e-09)
(1.21599e-08 3.25171e-07 6.51429e-08)
(-77.537 374.883 -57.3667)
(-18.2731 464.059 -74.7752)
(-22.6267 515.88 -30.0375)
(-1.27084 45.365 -1.80845)
(-0.775348 33.3195 -3.75588)
(-4.64258 29.166 -1.01308)
(-3.09358 21.7522 -2.15625)
(-96.6332 447.042 15.4503)
(-21.8126 478.724 83.9826)
(-24.8632 542.947 19.5621)
(-1.47484 50.2172 1.07081)
(-5.24674 32.4002 0.620496)
(-1.00346 36.5176 4.56675)
(-3.51105 23.4367 2.67044)
(-41.1914 253.906 -32.1305)
(-8.15321 307.622 -42.2012)
(-12.8097 372.185 -80.3937)
(-0.126049 10.2914 -0.676578)
(-0.646899 7.32765 -0.423891)
(-0.329774 18.4164 -2.50974)
(-1.44293 12.2901 -1.48581)
(-21.738 61.4331 -6.53958)
(-0.424954 1.95424 -0.0411823)
(-27.7558 74.4259 -2.93895)
(-84.3455 243.853 -12.2627)
(-71.0127 212.661 -29.637)
(-2.25946 10.7729 -0.297988)
(-1.56566 8.00911 -0.640113)
(-0.325482 1.58539 0.116537)
(-31.2531 82.4346 1.88004)
(-23.2892 65.2149 8.16899)
(-73.9227 219.269 35.5396)
(-91.3799 262.364 8.20387)
(-2.54536 12.011 0.180546)
(-1.70426 8.60879 0.805837)
(-46.3281 223.778 71.7091)
(-2.63653 79.8611 29.343)
(-12.5901 292.896 96.9585)
(-0.0333873 2.03822 0.426043)
(-0.315686 14.0841 2.76109)
(-0.125649 1.23727 0.244561)
(-1.10584 8.79214 1.60007)
(-0.0884621 0.571435 -0.0178153)
(-0.145348 0.795162 -0.0598286)
(-13.5179 42.5281 -4.98909)
(-49.5677 158.233 -26.507)
(-38.2628 135.682 -13.9151)
(-0.423636 2.89082 -0.127465)
(-0.756596 4.34012 -0.417776)
(-0.0110555 0.068773 0.0110121)
(-8.30003 28.1386 6.10709)
(-1.03731 4.63729 1.0231)
(-4.99733 22.4453 6.2548)
(-32.4789 106.984 30.6784)
(-0.0595167 0.409702 0.072065)
(-0.500444 2.91916 0.461946)
(-293.228 485.926 580.896)
(-160.692 319.915 195.791)
(-5.18322e-05 7.98189e-05 0.000306068)
(-5.33257e-06 2.45596e-05 2.84112e-05)
(-158.338 764.975 480.455)
(-0.00177789 0.00832381 0.00811046)
(-0.000312474 0.00298355 0.00266441)
(-5.04579e-07 1.56873e-05 1.69192e-05)
(-1.44539e-07 8.72492e-07 1.20258e-06)
(-9.91699e-08 1.98818e-06 2.13138e-06)
(-277.783 574.74 -96.6903)
(-290.844 611.065 102.261)
(-198.379 1094.41 -208.891)
(-296.948 621.448 -33.5124)
(-223.588 1128.96 -73.461)
(-221.65 1118.51 206.494)
(-394.68 801.125 401.251)
(-245.389 1228.8 609.847)
(-166.84 688.145 858.079)
(-651.022 1202.37 1228.53)
(-637.31 1263.86 887.842)
(-289.897 1358.47 1409.2)
(-287.915 1527.15 1048.29)
(-0.0965267 0.351967 0.417665)
(-5.54142 113.768 126.541)
(-335.313 1685.03 1416.27)
(-293.726 1635.6 1191.51)
(-105.752 1393.44 1435.59)
(-96.3462 1369.5 1235.41)
(-115.944 1716.02 1453.53)
(-108.837 1684.7 1217.6)
(-278.163 1334.77 1205.06)
(-212.873 1119.43 -184.221)
(-55.9002 1206.61 -209.888)
(-81.4355 1751.75 -308.41)
(-62.8005 1230.33 -85.5546)
(-86.645 1788.46 -137.278)
(-272.404 1692.6 -127.04)
(-274.959 1667.94 -289.114)
(-232.848 1165.81 56.7605)
(-66.2542 1214.03 227.968)
(-69.1121 1269.44 63.7618)
(-95.7257 1825.19 103.793)
(-96.4422 1776.98 329.911)
(-282.602 1731.26 100.34)
(-285.032 1685.42 320.441)
(-459.489 1283.01 1337.28)
(-668.17 1411.88 1210.57)
(-514.605 1578.91 1333.56)
(-668.09 1399.73 1056.12)
(-464.28 1526.91 1132.13)
(-451.098 1252.28 1126.13)
(-613.294 1138.12 1010.9)
(-1.23251e-05 6.02351e-05 0.000192687)
(-26.959 44.0755 69.8847)
(-45.1792 178.579 246.124)
(-3.01816e-05 8.83153e-05 0.000131734)
(-4.24804e-06 1.50572e-05 3.10889e-05)
(-0.000753514 0.028384 0.0611985)
(-2.37277e-07 2.62937e-05 6.11198e-05)
(-49.9096 715.265 897.81)
(-257.856 1089.24 1252.52)
(-26.404 455.033 512.171)
(-86.9556 1115.27 1288.72)
(-67.3527 985.846 1001.62)
(-216.566 953.919 965.796)
(-95.9544 413.573 464.067)
(-304.023 916.118 162.029)
(-310.624 650.143 23.8739)
(-319.624 957.794 41.4895)
(-570.592 1247.18 65.6161)
(-565.447 1227.55 236.022)
(-449.817 1523.85 86.7303)
(-449.475 1491.44 291.788)
(-193.151 1124.43 -186.014)
(-39.453 1182.09 -205.302)
(-46.8293 1166.59 -233.834)
(-65.2348 1724.43 -376.18)
(-72.6108 1676.23 -292.394)
(-282.437 1692.87 -351.528)
(-275.341 1625.42 -278.313)
(-308.483 924.578 -54.5823)
(-289.365 604.418 -87.9013)
(-301.06 916.924 -141.18)
(-564.035 1227.45 -202.09)
(-555.522 1212.08 -83.585)
(-437.959 1485.38 -109.393)
(-444.075 1485.5 -255.418)
(-119.813 579.879 277.741)
(-187.799 938.738 313.223)
(-75.3544 1297.48 642.393)
(-32.3951 664.681 319.428)
(-54.0352 1028.34 343.743)
(-91.5718 1603.79 542.275)
(-282.016 1523.83 522.865)
(-257.784 1262.79 830.32)
(-78.0157 1191.82 984.722)
(-100.4 1574.3 1070.18)
(-81.6098 1317.93 864.149)
(-45.2148 819.03 635.163)
(-160.219 759.658 587.545)
(-245.975 1149.82 949.465)
(-257.825 616.894 756.363)
(-550.526 937.174 1037.5)
(-415.438 1026.8 1164.22)
(-338.047 873.686 877.775)
(-94.2845 162.159 184.69)
(-131.322 315.198 349.614)
(-404.203 729.339 718.366)
(-297.252 901.499 -163.309)
(-295.469 621.609 -81.8156)
(-309 946.014 -142.587)
(-631.946 1388.69 -231.576)
(-586.646 1274.29 -209.536)
(-483.678 1586.7 -301.981)
(-455.698 1491.79 -254.561)
(-363.388 1070.82 532.883)
(-68.7702 157.205 67.3911)
(-139.732 391.1 186.244)
(-210.426 436.828 149.448)
(-251.125 739.432 247.951)
(-523.71 1102.37 384.494)
(-431.392 1350.24 470.768)
(-468.965 1416.97 988.249)
(-468.269 929.251 610.752)
(-397.973 1136.19 749.75)
(-194.735 368.468 279.564)
(-229.001 614.606 472.371)
(-384.52 1051.18 864.446)
(-464.103 885.44 720.134)
(-29.4913 147.959 81.1453)
(-44.2407 836.656 527.723)
(-8.43522 200.85 113.305)
(-11.6857 252.559 183.312)
(-0.30217 12.4127 7.30258)
(-1.05469 8.04881 4.55456)
(-42.0851 198.071 142.292)
(-38.428 677.405 632.034)
(-0.202107 6.48863 8.04086)
(-10.1363 209.358 187.247)
(-0.723634 4.34702 5.3958)
(-36.0867 164.299 146.918)
(-137.255 627.342 584.274)
(-19.2437 86.3414 97.0659)
(-12.3093 207.147 285.257)
(-0.28965 5.81074 14.2064)
(-0.018072 0.489088 1.2006)
(-1.6568 34.61 52.7136)
(-5.82452 25.5479 40.2775)
(-1.11288 4.29648 10.7898)
(-0.0738052 0.34327 0.848223)
(-215.222 592.367 368.954)
(-4.41496 15.8859 6.30645)
(-19.0213 65.7171 32.6396)
(-8.30554 24.9739 15.917)
(-0.103922 0.515212 0.252859)
(-0.535311 2.82213 1.49273)
(-32.5437 97.9563 68.3964)
(-8.1495 21.9902 19.86)
(-0.431523 1.67662 2.06019)
(-29.2123 82.9949 74.33)
(-196.407 503.724 467.365)
(-4.60614 11.1918 14.4806)
(-15.1545 41.8766 49.0912)
(-165.467 298.832 274.445)
(-52.7587 116.655 166.358)
(-1.55428 3.24694 6.29314)
(-4.72179 12.23 21.0274)
(-0.310893 0.55654 1.56357)
(-0.909762 2.03837 5.45602)
(-0.0532283 0.147398 0.371643)
(-0.0147208 0.0355835 0.089369)
(-0.0188865 0.175107 0.126036)
(-7.70873e-05 0.00481894 0.00438385)
(-0.00473606 0.280693 0.206494)
(-0.00390696 0.198067 0.216848)
(-0.324178 11.6332 10.089)
(-0.0158768 0.126722 0.136147)
(-1.14114 7.69542 6.60227)
(-0.00357728 0.246394 0.115638)
(-0.523512 4.57324 1.56973)
(-0.149235 7.36558 2.64602)
(-0.001589 0.124688 0.0351642)
(-0.00666495 0.0745225 0.0205251)
(-4.08313e-05 0.00414975 0.00172113)
(-0.000209765 0.00249059 0.00101362)
(-0.0762742 2.21572 3.90395)
(-0.00209249 0.0909821 0.142329)
(-2.47896e-05 0.00125858 0.0021824)
(-0.00884362 0.0599042 0.0920972)
(-0.000117905 0.000826973 0.00140415)
(-0.284174 1.5162 2.67647)
(-0.0034336 0.0191971 0.0408596)
(-0.00640123 0.037382 0.000257615)
(-8.24814e-05 0.000436101 2.84686e-05)
(-0.00417477 0.0258428 0.00156814)
(-0.000434785 0.00378996 1.96693e-05)
(-0.000266452 0.00245346 0.000162241)
(-0.0350719 0.227231 0.00198218)
(-0.0222773 0.152297 0.0105264)
(-7.5867e-05 0.000399772 -2.47189e-05)
(-0.000121785 0.000599817 -6.29886e-06)
(-0.00579721 0.0337688 -0.000506052)
(-0.000242666 0.00224441 -0.000137626)
(-0.000396983 0.00344827 -4.01317e-05)
(-0.031529 0.204062 -0.00367848)
(-0.0202811 0.139554 -0.00846326)
(-3.65449e-05 0.000186665 0.000150379)
(-0.12828 0.550115 0.429868)
(-0.00183705 0.010154 0.00667665)
(-0.000147111 0.000989821 0.000847186)
(-0.00938645 0.0583022 0.0402768)
(-0.0083219 0.0445577 0.0458642)
(-0.624523 2.82848 2.34423)
(-0.000182206 0.000651096 0.00259837)
(-3.63987e-07 8.544e-05 0.000275449)
(-3.05673e-05 0.00091941 0.00370459)
(-0.00294368 0.0706882 0.250575)
(-0.000186327 0.00612814 0.0180709)
(-0.0133048 0.0508086 0.180166)
(-0.000924566 0.00422899 0.0124195)
(-0.00157164 0.0109612 -0.000703359)
(-9.40449e-06 7.48328e-05 -3.71458e-06)
(-2.65719e-05 0.000158792 -8.46464e-06)
(-3.02537e-05 0.000393361 -1.8384e-05)
(-8.70394e-05 0.000910481 -5.05094e-05)
(-0.00363459 0.0342518 -0.000948208)
(-0.00833383 0.0644835 -0.00488311)
(-0.00119424 0.00809561 0.000874247)
(-3.07056e-06 2.08376e-05 3.18677e-06)
(-0.000135323 0.000971776 0.000137433)
(-7.08793e-05 0.000710879 6.1516e-05)
(-8.18097e-06 9.54781e-05 1.64743e-05)
(-0.000699662 0.00603785 0.000874573)
(-0.00624737 0.0469583 0.00564617)
(-0.00679514 0.0480177 0.0212173)
(-0.0477005 0.269072 0.0765301)
(-0.251625 1.5303 0.485348)
(-0.000668565 0.0038878 0.000974319)
(-3.51661e-05 0.000163412 6.49481e-05)
(-0.00280235 0.0232872 0.00613247)
(-8.73331e-05 0.000791411 0.000314052)
(-0.00114895 0.00452277 0.00635139)
(-0.00501211 0.0223764 0.0331347)
(-5.81047e-05 0.000320934 0.000520905)
(-0.0463274 0.139632 0.244843)
(-0.187077 0.621571 1.09435)
(-0.00195038 0.00758058 0.0157398)
(-0.000577355 0.00168691 0.00334741)
(-7.21427e-06 1.60786e-05 4.38927e-05)
(-7.17304e-06 3.25187e-05 9.59467e-05)
(-9.52831e-05 0.000288979 0.00112648)
(-0.00317788 0.00608038 0.0212074)
(-0.00999661 0.0229853 0.0812783)
(-0.000551214 0.00174013 0.0050729)
(-0.000185367 0.00042377 0.00117948)
(-7.50692e-07 1.59761e-05 1.72505e-05)
(-5.21579e-06 6.02213e-05 6.23267e-05)
(-1.83502e-06 8.80058e-05 9.33857e-05)
(-4.8438e-05 0.00287759 0.0036649)
(-1.31863e-06 5.48675e-05 7.33563e-05)
(-0.000221679 0.00182893 0.00228145)
(-3.53741e-06 4.00967e-05 5.21339e-05)
(-2.58544e-05 0.000171992 0.00010046)
(-5.79964e-06 3.04045e-05 2.1619e-05)
(-0.000133491 0.001013 0.000608193)
(-2.81007e-06 1.39595e-05 8.7008e-06)
(-1.91536e-06 1.00604e-05 6.68961e-06)
(-5.07519e-06 1.44581e-05 9.58235e-06)
(-6.53953e-06 3.02277e-05 1.80104e-05)
(-0.000282627 0.00323696 0.00200473)
(-1.90606e-07 0.000161881 0.000118237)
(-7.90681e-05 0.00529682 0.00333686)
(1.41149e-06 7.1325e-05 4.55824e-05)
(-2.40282e-07 0.000159935 9.22192e-05)
(-5.87127e-06 7.06159e-05 4.52127e-05)
(-1.01396e-05 0.000125513 7.16415e-05)
(1.83031e-09 9.69734e-10 -1.29039e-10)
(5.3688e-13 1.47121e-12 -3.47888e-14)
(4.64028e-15 2.70424e-14 6.99883e-15)
(9.00549e-11 1.02498e-10 -9.52913e-12)
(4.66061e-11 7.10232e-11 -3.40627e-12)
(1.93175e-12 3.01804e-12 -1.16599e-13)
(5.49519e-13 1.49084e-12 -2.59998e-14)
(4.68912e-11 7.12807e-11 -3.67319e-12)
(1.95285e-12 3.12449e-12 -4.1717e-13)
(8.60313e-11 1.00163e-10 -5.43257e-12)
(3.80503e-14 7.74927e-14 1.02062e-14)
(5.10431e-15 2.75105e-14 -2.01565e-14)
(3.83202e-14 8.19142e-14 -2.5238e-14)
(9.12217e-08 2.49224e-08 2.76804e-07)
(4.18633e-05 2.29927e-05 -2.30309e-06)
(5.51766e-08 4.63193e-08 -6.52636e-09)
(1.30821 0.219684 0.408414)
(8.46866e-08 1.45625e-08 7.3763e-08)
(6.80691e-12 4.25368e-12 5.08488e-12)
(0 0 2.50535e-15)
(2.24121e-07 1.58631e-07 -9.00926e-09)
(3.71222e-15 1.13016e-14 8.55365e-15)
(6.30662e-13 1.21483e-12 4.01193e-13)
(1.61821e-16 -1.10535e-16 3.93046e-15)
(0 2.77943e-18 -5.93803e-15)
(2.24125e-13 1.10578e-12 -5.07187e-14)
(3.48021e-13 1.40461e-12 -2.01515e-13)
(2.04399e-12 9.20742e-12 -1.12887e-13)
(0 0 -7.81185e-15)
(0 0 -5.31628e-15)
(0 0 -6.57474e-15)
(1.62155e-09 3.06093e-09 -2.89355e-10)
(1.70761e-11 5.78177e-11 -2.03416e-12)
(2.18631e-11 6.62743e-11 -8.71422e-12)
(1.52197e-09 2.96417e-09 -1.82503e-10)
(7.91003e-09 1.38241e-08 -6.9086e-10)
(1.07646e-10 3.29653e-10 -6.32909e-12)
(1.04644e-10 3.19085e-10 -1.30403e-11)
(8.0065e-09 1.39638e-08 -3.2953e-10)
(1.54841e-12 6.90655e-12 -1.33199e-13)
(1.49737e-12 6.57672e-12 -2.24537e-13)
(1.36389e-10 4.23067e-10 -2.71449e-12)
(9.45547e-09 1.68616e-08 -2.50757e-11)
(2.35453e-10 3.93188e-10 7.72272e-11)
(1.66122e-13 3.34902e-13 1.2381e-13)
(3.89319e-13 5.46487e-13 3.47818e-13)
(1.39208e-15 9.63313e-15 3.3365e-15)
(1.39208e-15 4.63824e-15 -1.14378e-14)
(2.31086e-13 4.4025e-13 2.60083e-13)
(2.29694e-13 3.76415e-13 1.46355e-13)
(4.64028e-16 4.20935e-15 1.11758e-14)
(2.36654e-14 9.72686e-14 1.28703e-14)
(0 1.01397e-15 1.27466e-15)
(2.90103e-14 9.70422e-14 1.36711e-14)
(1.17326e-18 -7.98594e-16 7.96985e-15)
(4.64028e-14 1.11003e-13 1.81507e-14)
(0 0 -1.69941e-14)
(2.35976e-14 9.40133e-14 1.22589e-14)
(0 0 6.41406e-15)
(6.90371e-21 4.52244e-23 -1.06476e-14)
(0 0 1.64079e-14)
(2.1611e-06 1.41937e-06 -2.0184e-07)
(0.000200508 0.000120815 -1.8808e-05)
(5.79084e-06 4.71494e-06 -2.72348e-07)
(0.000475136 0.00027603 8.57473e-08)
(8.08642e-06 5.3553e-06 1.38372e-07)
(0.000569246 0.000250223 7.92384e-05)
(2.72126e-06 2.18544e-06 4.06149e-07)
(9.23597e-06 4.51663e-06 3.29149e-06)
(2.63642e-07 1.71509e-07 7.22939e-08)