/*--------------------------------*- C++ -*----------------------------------*\
  =========                 |
  \\      /  F ield         | OpenFOAM: The Open Source CFD Toolbox
   \\    /   O peration     | Website:  https://openfoam.org
    \\  /    A nd           | Version:  9
     \\/     M anipulation  |
\*---------------------------------------------------------------------------*/
FoamFile
{
    format      ascii;
    class       volScalarField;
    location    "0.0023";
    object      rho.air;
}
// * * * * * * * * * * * * * * * * * * * * * * * * * * * * * * * * * * * * * //

dimensions      [1 -3 0 0 0 0 0];

internalField   nonuniform List<scalar> 
16647
(
2.43795
1.84672
2.05656
2.05375
1.71583
1.9438
1.82847
2.2396
1.73714
1.85647
1.76269
2.22192
2.27538
2.23678
2.28976
1.94614
1.89726
1.79998
2.28578
2.33979
2.25895
2.31175
1.93677
2.0817
1.96454
2.39198
2.33294
2.34761
2.40436
2.1398
1.81795
2.03834
1.98179
2.21429
2.26139
2.03297
1.99371
2.33828
1.71316
2.22968
2.04359
1.75792
2.15563
1.96338
2.32471
1.72101
1.8792
2.43015
1.33946
2.41869
2.16208
1.6524
2.21858
1.7221
2.2682
1.81233
1.71458
1.80475
2.21224
2.26674
1.71178
1.80413
1.80219
2.20884
2.21047
2.26556
2.2642
1.73959
1.81364
1.83514
2.21188
2.22224
2.26764
2.27843
1.77171
1.92072
1.87115
2.26896
2.24177
2.29805
2.32538
2.38588
2.32592
1.92089
2.0323
1.91389
2.32483
2.38538
2.03073
1.91408
1.91177
2.32412
2.38412
2.32302
2.38515
1.95284
1.98246
2.05757
2.30255
2.34347
2.35985
2.39747
1.92439
2.06663
1.94669
2.38789
2.32689
2.33842
2.39831
2.03334
2.1042
1.983
2.35881
2.43463
2.38528
2.41506
2.1769
2.12365
2.00535
2.44033
2.39597
2.36984
2.42183
2.03971
2.24226
2.14555
2.43025
2.38888
2.43238
2.45921
2.09679
2.28889
2.1726
2.45346
2.41418
2.44123
2.46796
2.43989
2.31518
2.43377
2.20486
2.2902
2.43475
2.43927
2.44157
2.3321
2.43457
2.34276
2.43738
2.44473
2.27432
2.34546
2.43422
2.43775
2.44541
2.269
2.44209
2.27751
2.30378
2.43174
2.43164
2.2519
2.43952
2.43842
2.22393
2.34173
2.36097
2.25673
2.46239
2.46273
2.47345
2.47332
2.43688
2.2736
2.43404
2.43866
2.11753
2.43747
2.18033
2.43694
2.20042
2.25431
2.1532
2.08032
2.43492
2.43864
2.42064
2.11856
2.43881
1.88692
2.07132
2.43474
2.40979
2.42812
2.14907
2.44238
2.44651
2.00282
2.16619
2.43406
2.44752
2.00794
2.43097
2.15906
2.44388
2.17042
2.43553
2.42462
2.13512
2.4402
2.43658
1.91474
2.0959
2.41562
2.43782
2.43379
2.06625
2.02911
2.4315
2.41546
1.91239
1.81047
2.00404
1.91432
2.36064
2.41529
2.42841
2.39191
2.43214
1.95701
2.37687
1.84608
2.42312
2.03754
2.40176
1.93626
1.77595
2.38201
2.38044
1.61084
1.76987
2.31386
1.85289
2.33494
2.40408
2.36647
1.53467
1.72817
2.26908
0.967128
0.64763
0.667373
1.14095
0.746131
1.0849
1.267
0.744075
1.50526
0.637108
1.26103
1.32308
0.744197
1.5165
1.638
0.778409
0.635983
1.26442
0.686524
0.719403
1.61819
1.36577
2.07153
1.71712
0.807118
0.639598
0.639389
0.667182
0.793823
0.792128
0.824195
0.825968
0.638263
0.664782
0.666013
0.790208
0.790746
0.822838
0.822378
0.635907
0.663684
0.664021
0.789777
0.791425
0.822162
0.82477
0.810361
0.639019
0.680336
0.668779
0.797703
0.833463
0.849529
0.962941
1.75751
2.20761
2.52307
2.26711
1.38478
1.16853
0.920122
0.70204
0.745637
0.701782
0.864998
0.866901
0.917909
0.744691
0.69967
0.700696
0.86378
0.917163
0.863604
0.916845
0.698919
0.748292
0.700612
0.919188
0.864144
0.868947
0.927066
0.66318
0.830192
0.699608
0.727881
0.858533
0.87374
0.908353
0.759444
0.723406
0.708246
0.88105
0.967947
0.901184
0.943029
0.76402
0.819018
0.767194
0.952431
0.898262
0.956238
1.01945
0.991615
1.26224
0.988562
1.02873
1.32545
1.03199
1.32016
1.26034
0.987144
0.98704
1.02725
1.31958
1.0276
1.3183
0.74705
0.847707
0.781203
1.00453
0.931011
0.973258
1.05512
0.987982
1.27415
0.992498
1.32467
1.02918
1.03568
1.3378
1.02219
1.29324
1.00352
1.05004
1.39959
1.07306
1.36207
0.886517
0.900991
0.827497
1.03001
1.20293
1.12097
1.1025
1.15431
1.51128
1.40419
1.08132
1.50365
1.39794
1.15016
1.07993
1.50177
1.15037
1.39824
1.08074
1.3961
1.14886
1.04943
1.42635
1.08758
1.45354
1.10628
1.1527
1.5272
0.884031
0.821799
0.893652
1.02312
1.09939
1.11188
1.19747
1.15555
1.4061
1.08377
1.09327
1.54029
1.42436
1.16871
1.11176
1.50326
1.57996
1.22727
1.14013
1.45609
1.19205
1.21111
1.50891
1.1402
1.21578
1.74973
1.62487
1.29891
1.04492
1.04668
0.958679
1.30225
1.19189
1.29981
1.42226
1.05701
0.980476
1.08398
1.35156
1.22037
1.31581
1.45975
1.56925
1.27772
1.18097
1.23755
1.81845
1.65745
1.34633
1.31284
1.55057
1.90621
1.93999
1.7701
1.43564
1.41005
1.30405
1.90047
1.40583
1.92376
1.42327
1.54239
2.06235
1.25237
1.26795
1.14699
1.43035
1.75516
1.59132
1.5692
1.69389
2.05371
1.53418
1.68992
2.33921
1.86752
2.20395
2.09754
1.76761
1.57622
1.7139
2.3716
1.92158
2.22421
0.666514
0.750204
0.764305
0.687012
1.08588
1.23653
1.09127
1.27519
0.638737
0.668702
0.641598
0.795033
0.797729
0.827598
0.831256
0.664192
0.761323
0.750635
0.847071
0.808972
0.842353
0.875642
0.746646
0.933195
0.924302
0.701518
0.703771
0.86943
0.875199
0.81141
0.778505
0.719072
0.977036
0.917356
0.947698
0.887257
0.995588
1.28947
1.0025
1.33544
1.03687
1.04596
1.35344
1.03887
1.41777
1.34031
1.31093
1.01446
1.06058
1.3806
1.16279
1.52764
1.41714
1.17905
1.5571
1.10353
1.44069
1.15
1.2031
1.52328
1.66155
1.60187
1.12209
1.47622
0.355677
0.791717
0.404347
0.538577
0.485578
0.443153
0.463085
0.552141
0.286875
0.264594
0.335144
0.294212
0.321381
0.365009
0.39016
0.395434
0.42222
0.355346
0.385465
0.318184
0.356105
0.423634
0.371927
0.330409
0.360761
0.445285
0.402103
0.430592
0.476274
0.423126
0.551446
0.530621
0.563121
0.453785
0.478079
0.588247
0.442781
0.558854
0.508371
0.438572
0.397596
0.466659
0.514566
0.256889
0.609252
0.35518
0.355549
0.435572
0.336591
0.60893
0.260371
0.514727
0.251059
0.334308
0.348839
0.607911
0.516832
0.412283
0.512798
0.252956
0.276106
0.32831
0.272847
0.324603
0.348818
0.345608
0.315833
0.337453
0.305369
0.271441
0.287181
0.330601
0.351584
0.262197
0.279598
0.280286
0.330929
0.330627
0.35208
0.351946
0.253496
0.277922
0.27242
0.325041
0.322838
0.345231
0.350234
0.410416
0.380025
0.332473
0.338783
0.310056
0.378773
0.411501
0.337093
0.305253
0.30586
0.379673
0.411688
0.379084
0.412596
0.302121
0.33336
0.299741
0.409283
0.375921
0.37352
0.408381
0.413254
0.539702
0.514882
0.516237
0.414347
0.437563
0.541305
0.515934
0.414609
0.415
0.438263
0.539337
0.43723
0.540839
0.336968
0.310148
0.301289
0.375214
0.42377
0.383562
0.412319
0.412123
0.51137
0.409451
0.537387
0.434442
0.432139
0.536226
0.51795
0.512414
0.408918
0.432823
0.546779
0.438903
0.538506
0.498717
0.464012
0.570731
0.466716
0.610755
0.572411
0.501841
0.467334
0.610233
0.500829
0.570363
0.465969
0.571894
0.50228
0.49896
0.568698
0.463321
0.461723
0.609488
0.568402
0.49895
0.473936
0.58469
0.632206
0.464504
0.617112
0.572983
0.504209
0.509197
0.47211
0.581086
0.620373
0.667722
0.511207
0.62296
0.492403
0.604777
0.656243
0.520435
0.690762
0.634474
0.570044
0.658748
0.60176
0.724635
0.557241
0.736004
0.674458
0.610355
0.715505
0.532907
0.507521
0.600357
0.859455
0.715725
0.666989
0.547941
0.438251
0.464365
0.396477
0.441489
0.485133
0.511795
0.557542
0.609374
0.555458
0.483325
0.585927
0.532832
0.608937
0.667343
0.491428
0.597111
0.537469
0.627594
0.565586
0.61463
0.680879
0.553784
0.669856
0.722676
0.730148
0.606044
0.656492
0.788487
0.646182
0.588591
0.652555
0.670447
0.813066
0.742197
0.734488
0.653901
0.858193
0.785173
0.714652
0.936473
0.781827
0.856908
0.738443
0.802149
0.887431
0.721949
0.958034
0.798832
0.866319
0.950723
1.13596
1.02823
1.04035
0.941249
0.869099
0.78563
0.432552
0.417857
0.265416
0.347275
0.604828
0.525625
0.492764
0.43592
0.30254
0.291706
0.305599
0.343977
0.331858
0.334375
0.375704
0.224353
0.205278
0.194905
0.185879
0.140684
0.225688
0.307662
0.200822
0.133306
0.0678483
0.118105
0.186922
0.199162
0.224063
0.290726
0.112975
0.147772
0.155642
0.0916574
0.0864044
0.0893387
0.109691
0.113082
0.109144
0.133769
0.143389
0.186815
0.158713
0.134743
0.121123
0.154278
0.134529
0.34703
0.235898
0.162685
0.485288
0.339908
0.359532
0.308675
0.316642
0.388507
0.341975
0.2278
0.134312
0.173539
0.306533
0.108006
0.159882
0.132536
0.160049
0.132576
0.159173
0.1883
0.104684
0.141244
0.124597
0.143437
0.127566
0.150695
0.169583
0.113402
0.167399
0.138301
0.165417
0.13535
0.162163
0.193853
0.105603
0.137379
0.121813
0.12874
0.117508
0.138833
0.154774
0.185367
0.168466
0.142548
0.191919
0.16423
0.159064
0.19167
0.147149
0.197276
0.193622
0.215152
0.168967
0.16565
0.212875
0.190966
0.191493
0.196214
0.2257
0.220957
0.227227
0.257165
0.185519
0.172649
0.154692
0.180922
0.236875
0.201634
0.214361
0.193678
0.19073
0.161109
0.189426
0.255546
0.22018
0.223159
0.179103
0.16908
0.149699
0.17829
0.233585
0.209567
0.19984
0.150552
0.161576
0.162795
0.193029
0.179824
0.18108
0.213986
0.176278
0.166455
0.146401
0.166525
0.222061
0.18596
0.200302
0.155382
0.19273
0.196945
0.168921
0.221464
0.180679
0.213667
0.0253106
0.00341536
0.00595371
0.0020432
0.0116992
0.0993337
0.027656
0.0852178
0.00520975
0.00985366
0.0248464
0.00910663
0.0343445
0.0129211
0.00339834
0.138617
0.037239
0.0758034
0.0800975
0.0741682
0.0324355
0.0562905
0.00163567
0.00142727
0.00382654
0.00577776
0.00247712
0.00551094
0.00208263
0.00629933
0.0244114
0.0146037
0.0114442
0.03034
0.0134721
0.00495904
0.00883445
0.0131363
0.0337013
0.0158447
0.0382273
0.0137831
0.0378878
0.0791461
0.0428131
0.0304184
0.0675296
0.0505831
0.0271728
0.057836
0.00500307
0.0113162
0.0133633
0.00815202
0.00387237
0.00860854
0.00325764
0.0650051
0.0773821
0.0345503
0.0193423
0.0555398
0.0219797
0.0484113
0.00632212
0.18778
0.00195606
0.00413177
0.013762
0.00911444
0.0355961
0.00168422
0.00974937
0.0121336
0.111809
0.0346046
0.0689066
0.279905
0.0250808
0.114168
0.00193018
0.00402659
0.00881025
0.00495725
0.00544771
0.0111024
0.00231162
0.00824677
0.0167529
0.0251687
0.00955054
0.0278923
0.0194293
0.0152895
0.0660138
0.0775904
0.0449173
0.0829153
0.0503193
0.0404929
0.0895107
0.022547
0.0416431
0.0546414
0.0763358
0.0189491
0.0298844
0.0610426
0.00794117
0.00378002
0.00480848
0.00556315
0.00715923
0.00891944
0.00441292
0.121206
0.202124
0.125761
0.160211
0.234952
0.239868
0.155083
0.00247659
0.00125453
0.00136612
0.00298377
0.00132947
0.00236418
0.00150698
0.121945
0.1877
0.210449
0.150467
0.157923
0.213422
0.121006
0.0109925
0.0311501
0.0189116
0.027333
0.0229272
0.0168787
0.0128102
0.00601656
0.00780103
0.0182128
0.00380271
0.014463
0.00291604
0.00738212
0.103016
0.0578688
0.126682
0.0588836
0.0497185
0.10948
0.10815
0.0894861
0.0254072
0.0441853
0.0475688
0.0400114
0.0621047
0.0799032
0.00354604
0.0014648
0.0033248
0.00208467
0.0028182
0.00173559
0.00422382
0.175673
0.269586
0.201737
0.220657
0.238887
0.187761
0.164685
0.14216
0.121453
0.15888
0.0711745
0.179133
0.0937908
0.116114
0.00639068
0.00806011
0.0112711
0.00586258
0.00997566
0.00508895
0.00740096
0.00119792
0.00114256
0.00169019
0.00117765
0.00119957
0.00135552
0.00116884
0.00115888
0.00175867
0.00125054
0.00113409
0.00228511
0.00131343
0.00113372
0.00133741
0.00116359
0.00117268
0.00115441
0.00117355
0.0011815
0.00114253
0.00115462
0.00111391
0.00112817
0.00112212
0.00111355
0.00141874
0.00117309
0.00126087
0.00180987
0.00455753
0.00244813
0.0034059
0.0014569
0.00119293
0.00169589
0.00115171
0.00116032
0.00115271
0.00114179
0.00114823
0.00113667
0.00115618
0.00116254
0.00121007
0.00127635
0.00118717
0.00120869
0.00113705
0.00115506
0.00304514
0.00141791
0.00235161
0.0012082
0.00195966
0.00132581
0.00158634
0.00127477
0.00115954
0.00119302
0.00114082
0.0011516
0.00116509
0.00115595
0.18786
0.332035
0.188649
0.13543
0.130282
0.177291
0.104946
0.0566529
0.102079
0.171511
0.188857
0.113188
0.140434
0.094481
0.154232
0.125492
0.372807
0.323492
0.236998
0.210285
0.260561
0.273912
0.205373
0.0691358
0.0822472
0.1005
0.0742499
0.0752964
0.101502
0.0984827
0.190402
0.156006
0.152295
0.185799
0.171036
0.141398
0.148387
0.124139
0.108281
0.101558
0.162028
0.155552
0.127476
0.128121
0.119546
0.0954428
0.0864888
0.109114
0.144135
0.119022
0.127062
0.0938461
0.115261
0.114442
0.11104
0.122417
0.110747
0.114574
0.245905
0.219889
0.208591
0.239533
0.234993
0.26488
0.268787
0.206451
0.218574
0.209942
0.235386
0.229681
0.252718
0.211897
0.192387
0.177388
0.175844
0.137547
0.150081
0.140422
0.138991
0.120363
0.1553
0.159922
0.147839
0.132941
0.130991
0.140581
0.284359
0.318263
0.269519
0.29882
0.356399
0.342602
0.308768
0.289549
0.263168
0.279353
0.293707
0.337541
0.267545
0.316015
0.306532
0.241562
0.261672
0.276932
0.22014
0.21393
0.301038
0.181503
0.221012
0.23674
0.235267
0.219917
0.18479
0.23154
0.347585
0.253247
0.227854
0.281086
0.165844
0.181317
0.336293
0.24419
0.23219
0.243919
0.270714
0.284984
0.246237
0.251699
0.192772
0.273117
0.277914
0.296752
0.301562
0.29496
0.309612
0.326744
0.271587
0.208458
0.232025
0.239849
0.204271
0.196918
0.219189
0.259779
0.320604
0.286695
0.244532
0.287352
0.290832
0.246935
0.157664
0.201226
0.207427
0.220949
0.198154
0.183145
0.230083
0.3557
0.350327
0.329528
0.26087
0.278483
0.291211
0.278735
0.330899
0.301869
0.338427
0.277517
0.296975
0.258247
0.285748
0.227414
0.285541
0.2279
0.225271
0.205402
0.240096
0.255325
0.312855
0.390275
0.35481
0.297095
0.278665
0.333364
0.34969
0.240386
0.277556
0.226851
0.243059
0.200604
0.250752
0.2529
0.00523717
0.0408505
0.00307168
0.0260147
0.0114306
0.00124513
0.00228144
0.00373496
0.00138188
0.00119308
0.00112858
0.00798341
0.0965145
0.18082
0.0902001
0.00725271
0.0339621
0.00487316
0.00115947
0.00178928
0.00127045
0.00183372
0.00128928
0.0015258
0.00260698
0.00229912
0.00339879
0.0074185
0.00351004
0.00765957
0.0110882
0.00502077
0.0011386
0.00112905
0.00113022
0.00113803
0.00114267
0.00121158
0.00113969
0.011962
0.0489028
0.0186431
0.050694
0.0193688
0.0292281
0.0683897
0.0178397
0.0054346
0.0013653
0.0703309
0.0152884
0.00591861
0.0197475
0.21564
0.118138
0.010792
0.294155
0.132641
0.0445445
0.226412
0.00410234
0.00274413
0.00157908
0.00212548
0.00561985
0.00381633
0.00323599
0.002581
0.00208304
0.00151264
0.00206605
0.00529784
0.0030393
0.00370316
0.018669
0.00530603
0.0117536
0.0172261
0.0111516
0.00741039
0.0274037
0.0168768
0.0049647
0.0109784
0.0167018
0.0104955
0.0259794
0.00718522
0.00145754
0.00115469
0.00123455
0.00140343
0.00140953
0.00187904
0.00121282
0.00138188
0.00113128
0.00120404
0.00138123
0.00135566
0.00178129
0.00119808
0.0473511
0.0715256
0.030947
0.0442297
0.120358
0.0917368
0.0648495
0.0434641
0.0676404
0.0289219
0.0430399
0.11599
0.0621137
0.0895527
0.0262001
0.0167235
0.060185
0.0162786
0.0399731
0.0106051
0.0408221
0.00307432
0.00645519
0.00781223
0.00760224
0.00437165
0.00535486
0.00451111
0.00311551
0.00764633
0.00439148
0.00795372
0.00457304
0.00649368
0.0115401
0.026718
0.0164044
0.0402972
0.0171466
0.0418792
0.0609652
0.02636
0.00179902
0.00414811
0.00185642
0.00179462
0.00267311
0.00276904
0.00136702
0.00181618
0.00179801
0.00268583
0.00187117
0.00281051
0.0041605
0.00308104
0.0625455
0.117274
0.14859
0.146344
0.0864451
0.116722
0.0879032
0.0635771
0.14704
0.0869912
0.150805
0.0896233
0.118397
0.182158
0.00612515
0.00299739
0.00407697
0.00612013
0.00793684
0.00904014
0.00523381
0.086851
0.0258041
0.0598993
0.0872332
0.0630295
0.041041
0.12147
0.00954879
0.0113035
0.00636487
0.00956441
0.0287117
0.0145927
0.0179002
0.00334437
0.00678506
0.00441141
0.00632939
0.00844081
0.00956805
0.00544946
0.0121923
0.0105534
0.00686112
0.00988256
0.0303154
0.0154544
0.0185084
0.0277833
0.0929613
0.0635871
0.0892792
0.0657581
0.125756
0.0422449
0.151879
0.179896
0.116755
0.152375
0.253317
0.19153
0.216209
0.187407
0.16042
0.122273
0.155343
0.260832
0.197507
0.220126
0.272918
0.19215
0.240744
0.192092
0.27262
0.23937
0.225006
0.212103
0.270223
0.274002
0.248548
0.244142
0.281938
0.309704
0.193004
0.263501
0.251645
0.226763
0.214122
0.250803
0.29027
0.261112
0.299504
0.261809
0.291193
0.254241
0.29196
0.330722
0.230236
0.265332
0.227634
0.254309
0.215715
0.251255
0.291909
0.210379
0.270855
0.28011
0.269176
0.243257
0.233871
0.245733
0.266857
0.234016
0.274938
0.305472
0.263875
0.297152
0.341082
0.210907
0.23599
0.201495
0.240859
0.204032
0.236176
0.27055
0.00916187
0.011325
0.0189401
0.011587
0.0135438
0.0132315
0.00805312
0.196935
0.248996
0.276893
0.253084
0.212045
0.241956
0.231331
0.01481
0.0458382
0.0343539
0.0467866
0.023102
0.0225683
0.0291379
0.337887
0.297944
0.255545
0.193288
0.28219
0.238421
0.235403
0.122744
0.0937563
0.210089
0.0952087
0.165262
0.0638135
0.163109
0.317492
0.307106
0.279113
0.318359
0.389286
0.358275
0.347986
0.383146
0.344384
0.302211
0.333752
0.422187
0.379967
0.3747
0.315107
0.33112
0.288176
0.323264
0.398612
0.368231
0.352399
0.278818
0.276341
0.239145
0.274229
0.3514
0.309053
0.316099
0.302523
0.301468
0.263302
0.290005
0.374148
0.330992
0.332063
0.273839
0.268946
0.235831
0.273308
0.346294
0.31354
0.30659
0.373697
0.341688
0.383338
0.384261
0.427123
0.418584
0.464
0.388699
0.356116
0.314645
0.391232
0.358415
0.4013
0.434268
0.388223
0.394955
0.348629
0.429513
0.380111
0.42236
0.472743
0.440054
0.392079
0.434931
0.361211
0.452129
0.40821
0.402948
0.433891
0.400278
0.355525
0.313589
0.39107
0.347197
0.357057
0.474018
0.478959
0.429733
0.466465
0.567833
0.51837
0.513471
0.479891
0.445602
0.399489
0.44612
0.530103
0.493979
0.480151
0.439301
0.457579
0.405763
0.44986
0.539725
0.502957
0.484111
0.648918
0.585848
0.546525
0.496372
0.591311
0.551585
0.53252
1.87899
2.45122
2.46296
2.2587
2.08971
2.06291
2.34627
2.30205
1.99664
1.45323
1.42535
1.58866
2.15996
2.19389
0.383846
0.718253
0.611521
0.606995
0.495464
0.606973
0.541011
0.525669
0.393251
0.370923
0.379602
0.42579
0.458367
0.459438
0.473145
0.482589
0.561042
0.617257
0.45137
0.500145
0.525246
0.562277
0.532569
0.409809
0.42653
0.426898
0.402375
0.503188
0.488783
0.678945
0.555369
0.613257
0.638884
0.747409
0.681567
0.60284
0.463676
0.419747
0.514244
0.439183
0.538152
0.54643
0.475995
0.652403
0.589818
0.572621
0.600003
0.734436
0.694469
0.586669
0.497942
0.465002
0.568514
0.519719
0.611264
0.574081
0.494275
0.643511
0.775619
0.756779
0.616237
0.747218
0.739421
0.600235
0.364608
0.433411
0.407084
0.700211
0.397034
0.580966
0.361369
0.36366
0.362658
0.355097
0.384408
0.383607
0.433497
0.358215
0.438174
0.372692
0.375955
0.376792
0.467843
0.471727
0.472677
0.470982
0.36998
0.401656
0.387831
0.363834
0.36052
0.441854
0.448632
0.516816
0.486615
0.395998
0.413176
0.388086
0.479847
0.496985
0.482572
0.395319
0.480232
0.493064
0.439435
0.446129
0.497209
0.400419
0.487636
0.497452
0.450742
0.511237
0.502496
0.455814
0.67086
0.659949
0.57557
0.556895
0.533863
0.54109
0.566583
0.618227
0.581581
0.559032
0.59418
0.683517
0.548234
0.574055
0.00141479
0.0420364
0.00140667
0.00111456
0.00112155
0.00130792
0.00599983
0.0012302
0.00675917
0.0451461
0.00636337
0.00804808
0.0117959
0.0142701
0.106454
0.10128
0.00149205
0.00114811
0.00116512
0.00250979
0.00128668
0.00131556
0.00225832
0.0098096
0.00308106
0.00361503
0.00632857
0.0161547
0.0135763
0.00559145
0.00136632
0.00115811
0.00113729
0.00128067
0.00215188
0.00132424
0.00210159
0.00114283
0.00114465
0.00112153
0.0011302
0.00113382
0.00113665
0.00113195
0.0514661
0.0198342
0.0246109
0.068505
0.0348312
0.0295712
0.0634154
0.00676231
0.00266934
0.00268191
0.0118045
0.00474083
0.00495775
0.0110109
0.0422902
0.0157493
0.0168798
0.0268767
0.0625887
0.0264044
0.0617628
0.00111809
0.00113235
0.00113844
0.00112859
0.00112665
0.00114669
0.00112907
0.0102171
0.0295585
0.0222492
0.0194028
0.0129757
0.0266738
0.00907841
0.00435343
0.00178258
0.00632582
0.00320413
0.00307671
0.00187268
0.00401839
0.00176296
0.00373759
0.00316628
0.0060271
0.0030198
0.00184428
0.00374779
0.00124333
0.00113284
0.00123554
0.0015841
0.0015703
0.00125163
0.00113375
0.0177072
0.00781666
0.0121319
0.0256987
0.025507
0.00820967
0.0170954
0.0850067
0.0597377
0.046961
0.0421342
0.0991054
0.0560628
0.0815788
0.00124701
0.00115855
0.00169227
0.00125508
0.0015936
0.00127902
0.00113832
0.0402101
0.084475
0.0574859
0.100535
0.0552064
0.040794
0.0815059
0.00391574
0.0462319
0.0016222
0.00120364
0.00111428
0.0038534
0.0133881
0.00143447
0.00644775
0.093797
0.007626
0.00709792
0.0301995
0.0124505
0.194286
0.118453
0.00120987
0.00208191
0.00133986
0.0025506
0.00146563
0.00177376
0.00328294
0.00317487
0.00412962
0.00914096
0.0052055
0.0115542
0.014401
0.00641521
0.0174907
0.0577055
0.0232324
0.0677324
0.0290259
0.0369822
0.0810905
0.00112594
0.001122
0.00114997
0.00112661
0.00119052
0.00127751
0.00115339
0.0028651
0.00217949
0.00161161
0.00239094
0.00579327
0.00332252
0.00429649
0.0178447
0.00555792
0.0123906
0.0198459
0.0115931
0.00838314
0.0285749
0.00416627
0.00363314
0.00216763
0.00281089
0.00764799
0.00440873
0.00503487
0.00822672
0.0285202
0.0182982
0.0231292
0.0153484
0.0364066
0.009818
0.00140899
0.00113697
0.00122895
0.00147516
0.00140952
0.00192258
0.00123089
0.00120087
0.00198592
0.00138727
0.0016225
0.00172377
0.00259882
0.00128788
0.0737993
0.0455847
0.0324797
0.0497942
0.123415
0.0671586
0.100128
0.0921531
0.0644985
0.0448689
0.0558075
0.138736
0.0793207
0.10842
0.00371357
0.00858882
0.00753327
0.00972488
0.00562974
0.0049542
0.00646597
0.031855
0.0186203
0.021037
0.0678128
0.0495196
0.0130393
0.0449092
0.00214602
0.00205077
0.00487216
0.00241685
0.00355381
0.00307782
0.00150876
0.0727928
0.157302
0.128288
0.165288
0.101203
0.094699
0.130996
0.0601616
0.0959861
0.171464
0.110491
0.0491169
0.09685
0.0563325
0.0299359
0.0130138
0.0215282
0.0242909
0.0422113
0.0351605
0.0436893
0.056586
0.0402015
0.0739996
0.0528876
0.0831578
0.0619604
0.0757204
0.097504
0.0336379
0.0728675
0.0564525
0.06663
0.0492707
0.0720575
0.0896889
0.0461612
0.0661262
0.0572406
0.066739
0.0565829
0.069333
0.0800198
0.107445
0.0853303
0.0745863
0.0885834
0.124936
0.111192
0.100704
0.0909469
0.0869314
0.06868
0.0917789
0.135243
0.114727
0.110147
0.0857454
0.0796498
0.0702675
0.0847908
0.117158
0.102907
0.0969914
0.105167
0.146121
0.152314
0.142154
0.129798
0.125196
0.119477
0.00470076
0.0302251
0.0102864
0.00315009
0.0131279
0.00125949
0.00162121
0.00129298
0.00340921
0.0263596
0.144022
0.119972
0.0037158
0.0086232
0.0319599
0.0735118
0.00444593
0.0163145
0.0066249
0.00718012
0.0033978
0.00934899
0.00840671
0.0016566
0.00215715
0.00346848
0.0020722
0.00135445
0.00173005
0.00445174
0.0441018
0.0311642
0.0476067
0.0172922
0.0216718
0.0374431
0.0546829
0.0110864
0.0299125
0.00883808
0.00504882
0.0116082
0.0150305
0.0239604
0.00401459
0.00390884
0.00496482
0.00262752
0.00163111
0.0020391
0.00203311
0.00124556
0.00145058
0.00129227
0.00123142
0.00123119
0.00134867
0.00131269
0.131993
0.0889338
0.0788866
0.0771431
0.107946
0.0678759
0.119846
0.0682849
0.061594
0.0914225
0.0811342
0.0406115
0.0524991
0.103253
0.0121002
0.00694328
0.0143533
0.0224336
0.0194816
0.00564989
0.0118747
0.0016571
0.00321124
0.00721072
0.00273967
0.00259337
0.00146574
0.00577261
0.0181986
0.0265109
0.0430391
0.036047
0.00662948
0.0148496
0.0196957
0.0573871
0.069435
0.0619788
0.0403281
0.0358509
0.0506674
0.026067
0.00595786
0.00550464
0.00696004
0.0031733
0.00407238
0.00333578
0.00257958
0.00202479
0.00122557
0.0012846
0.00166902
0.00122138
0.00124269
0.00140949
0.157156
0.0986428
0.152664
0.110966
0.0997883
0.0869937
0.132037
0.085768
0.159145
0.157205
0.0714054
0.103314
0.0512411
0.118246
0.00115522
0.00213675
0.00110706
0.00119253
0.00117602
0.00125492
0.00117874
0.00122405
0.00116604
0.00105555
0.0160162
0.00293996
0.0012094
0.00150119
0.00429842
0.0281611
0.00122112
0.00118931
0.00126108
0.00119549
0.00131271
0.00120135
0.00116718
0.00165151
0.00158496
0.00412849
0.00203761
0.0020798
0.00125291
0.00579555
0.00124485
0.00126224
0.00124655
0.00121878
0.00122984
0.00121474
0.00122819
0.0130874
0.0150797
0.0386387
0.00684521
0.0532133
0.0189161
0.028968
0.00119295
0.00113689
0.00116326
0.00121472
0.00118214
0.00119267
0.00115412
0.00109317
0.00113515
0.00102943
0.00112261
0.00109838
0.00116654
0.00109568
0.00152497
0.00117089
0.00121704
0.00139385
0.0011511
0.00120042
0.001164
0.00346902
0.00499274
0.0131997
0.00287301
0.00264947
0.00132836
0.00825709
0.00121122
0.00118905
0.001206
0.00123635
0.00122982
0.00120854
0.00121372
0.0011933
0.00117965
0.00120064
0.00117654
0.00117169
0.00119003
0.00120189
0.00544487
0.00179681
0.00121867
0.00147323
0.00512513
0.00225411
0.0124181
0.0869825
0.136348
0.0551857
0.0132704
0.0899694
0.0291123
0.0620019
0.0012548
0.00119107
0.00207555
0.00111505
0.00140419
0.0013783
0.0010873
0.00113284
0.00109279
0.00115574
0.00110489
0.00117003
0.00114605
0.00112435
0.00115883
0.00117457
0.00117199
0.00118731
0.00117327
0.00116885
0.00119129
0.00537477
0.00925056
0.0328296
0.00949024
0.0031612
0.00465662
0.0241167
0.212741
0.186047
0.180462
0.238676
0.238698
0.230453
0.11131
0.181883
0.158718
0.169694
0.148507
0.158414
0.172892
0.179654
0.195008
0.147289
0.133814
0.128586
0.145544
0.160876
0.173224
0.175596
0.204347
0.204257
0.187825
0.196814
0.215523
0.210876
0.211247
0.196957
0.209408
0.170895
0.198402
0.228335
0.245764
0.205114
0.235489
0.177917
0.169044
0.213639
0.272822
0.272954
0.243448
0.220551
0.209704
0.181539
0.203656
0.233875
0.218952
0.227267
0.223145
0.221808
0.246672
0.233638
0.259521
0.220074
0.222327
0.244443
0.235869
0.270077
0.240951
0.276912
0.228416
0.274006
0.0426259
0.0888613
0.0869687
0.215081
0.209275
0.234027
0.0388068
0.0500359
0.0806769
0.128932
0.131769
0.112872
0.0990577
0.191483
0.190572
0.0107745
0.0189097
0.027619
0.0961101
0.0553172
0.134076
0.0537069
0.244996
0.147053
0.181354
0.144943
0.247122
0.216679
0.187119
0.238552
0.209552
0.19892
0.246778
0.255951
0.238364
0.230693
0.0742381
0.0305296
0.0760559
0.137667
0.0709114
0.114478
0.0624754
0.185643
0.076271
0.168291
0.179307
0.0850888
0.172147
0.0825419
0.242428
0.23912
0.267005
0.236424
0.18196
0.19395
0.215068
0.162097
0.085075
0.0839029
0.124921
0.129161
0.147394
0.082279
0.0026595
0.0289769
0.00125253
0.0011872
0.00112994
0.00111799
0.00113589
0.0011707
0.0011509
0.069498
0.00512727
0.00414751
0.0213515
0.00307004
0.00111999
0.00429258
0.00116751
0.00110322
0.00112978
0.00114074
0.00109011
0.00112235
0.00111011
0.00106089
0.00136792
0.00113197
0.00113718
0.00147249
0.00209956
0.00126357
0.00118474
0.00116758
0.0011811
0.00116208
0.00115881
0.00114513
0.00114915
0.00727311
0.00275161
0.00172866
0.00316393
0.00852315
0.00488856
0.0136137
0.0011107
0.00112953
0.00110603
0.00110433
0.00137282
0.00115127
0.00118789
0.00156864
0.00124184
0.00198765
0.00313561
0.00227982
0.00483783
0.00158847
0.00110812
0.00111139
0.00112616
0.00109798
0.00145388
0.00116901
0.00120601
0.00190874
0.00132545
0.00241604
0.00341705
0.00260042
0.00567912
0.0016762
0.00114354
0.00115411
0.00115096
0.00112956
0.00113003
0.00112044
0.00113746
0.00747962
0.0126202
0.00452597
0.00767075
0.0334729
0.0117977
0.0217338
0.0102487
0.00585155
0.0164305
0.00845027
0.0387003
0.0139248
0.0240245
0.00113189
0.00114199
0.00113699
0.00112405
0.00112306
0.0011108
0.00113367
0.00115344
0.00188512
0.00180285
0.00153717
0.0012888
0.00126974
0.0013917
0.0050703
0.0113494
0.0036539
0.00344001
0.00804806
0.00752221
0.00236511
0.00111484
0.00120743
0.00111923
0.0011228
0.00113215
0.00112675
0.0011251
0.0124013
0.0522857
0.0299086
0.0493402
0.0203055
0.0189307
0.0349996
0.475634
0.481797
0.478527
0.234721
0.241944
0.259456
0.518672
0.266088
0.517807
0.416469
0.23251
0.230498
0.386558
0.260735
0.47345
0.524074
0.242581
0.242842
0.242906
0.306719
0.308059
0.309277
0.308703
0.239735
0.235244
0.239848
0.303093
0.30668
0.307325
0.303937
0.229178
0.232517
0.299723
0.233667
0.29882
0.301893
0.303525
0.250103
0.265221
0.2496
0.317039
0.335351
0.334283
0.317393
0.242687
0.261856
0.246168
0.314604
0.330186
0.33181
0.312112
0.243708
0.259463
0.241662
0.314196
0.302579
0.311738
0.328982
0.477635
0.383466
0.384912
0.387721
0.481561
0.387006
0.482786
0.241997
0.269335
0.246632
0.332033
0.312145
0.317068
0.340273
0.478567
0.383055
0.384852
0.386983
0.483111
0.483067
0.385369
0.478796
0.381346
0.381983
0.484847
0.384919
0.388347
0.491144
0.319073
0.353649
0.285429
0.289186
0.260761
0.330467
0.358429
0.397765
0.495308
0.517915
0.417877
0.417295
0.397833
0.495827
0.396605
0.496158
0.415551
0.517644
0.416015
0.495697
0.395489
0.401112
0.523634
0.506715
0.490526
0.387608
0.398417
0.503852
0.499884
0.418842
0.397072
0.40383
0.535695
0.428362
0.509226
0.440749
0.548685
0.582667
0.418041
0.554707
0.446243
0.525175
0.0024394
0.0103246
0.00144193
0.00462585
0.00136804
0.00129782
0.00133185
0.0012658
0.00146814
0.00313564
0.00187782
0.00143611
0.00164913
0.00237798
0.00138472
0.00141436
0.00509334
0.0100546
0.00582709
0.00260223
0.00290971
0.00392895
0.00135892
0.0015732
0.00159611
0.00140005
0.00138019
0.00186655
0.00138307
0.00135488
0.00843742
0.00176701
0.00138439
0.00136254
0.00221644
0.00318818
0.00135441
0.00138686
0.00136085
0.00134248
0.00141037
0.00138699
0.00137427
0.00127689
0.00133696
0.00131633
0.00132926
0.00130425
0.0013174
0.00133396
0.00134759
0.00127264
0.00130189
0.00132676
0.00129811
0.00137101
0.00146383
0.00129945
0.0013692
0.00124571
0.00132543
0.00369375
0.00145673
0.00169765
0.00254906
0.00569313
0.00332936
0.00301057
0.00195532
0.00379546
0.00402867
0.00133811
0.00134129
0.00131422
0.00133476
0.00132782
0.00134956
0.00132008
0.00268669
0.00152471
0.0015248
0.00186156
0.00212273
0.00228812
0.00179678
0.00554842
0.0115122
0.00716969
0.00676027
0.00860396
0.00470493
0.00782001
0.00471663
0.00829583
0.00362075
0.00480617
0.00712974
0.00310177
0.00540334
0.00379307
0.00186893
0.00478806
0.00376633
0.0058728
0.00316846
0.00241192
0.00140983
0.00136118
0.00141963
0.00135365
0.00141407
0.00140606
0.00136157
0.00143933
0.00151516
0.0014038
0.00178147
0.00140052
0.00146247
0.00162073
0.00138301
0.00138768
0.0013976
0.00139274
0.00138542
0.0013867
0.00139537
0.001372
0.00137023
0.00136885
0.00138347
0.00136906
0.00137371
0.00137496
0.00149534
0.00134456
0.00138258
0.00150715
0.00175842
0.00141488
0.0013396
0.00326594
0.00699323
0.00581959
0.00553802
0.00393455
0.00473649
0.00474743
0.00175561
0.00229981
0.00140047
0.00221539
0.00149078
0.00150974
0.00291742
0.00156148
0.00180347
0.00131619
0.00149704
0.00141765
0.00134226
0.00228425
0.00138809
0.0013512
0.00135284
0.00133608