/*--------------------------------*- C++ -*----------------------------------*\
  =========                 |
  \\      /  F ield         | OpenFOAM: The Open Source CFD Toolbox
   \\    /   O peration     | Website:  https://openfoam.org
    \\  /    A nd           | Version:  9
     \\/     M anipulation  |
\*---------------------------------------------------------------------------*/
FoamFile
{
    format      ascii;
    class       volVectorField;
    location    "0.0023";
    object      U;
}
// * * * * * * * * * * * * * * * * * * * * * * * * * * * * * * * * * * * * * //

dimensions      [0 1 -1 0 0 0 0];

internalField   nonuniform List<vector> 
16647
(
(84.1706 55.35 343.728)
(92.9191 62.7085 341.744)
(121.234 66.0148 355.656)
(131.703 31.1246 355.665)
(45.3949 22.6742 122.655)
(61.9833 14.3025 178.268)
(102.104 29.19 338.468)
(67.3513 18.5532 259.566)
(88.9649 28.3788 327.369)
(103.377 40.1856 342.056)
(90.0246 39.0501 331.642)
(92.174 28.9379 373.242)
(104.61 29.3956 370.338)
(92.7974 39.8027 372.41)
(105.212 40.4822 368.916)
(106.681 64.306 350.091)
(104.866 51.6552 346.136)
(91.3225 50.2446 336.709)
(94.5059 62.5714 368.323)
(106.835 63.4423 363.072)
(93.5834 50.8869 370.803)
(105.975 51.7312 366.509)
(116.502 30.1432 348.375)
(132.995 42.9102 356.638)
(117.807 41.4957 351.1)
(129.435 30.2006 357.58)
(117.204 29.8333 365.239)
(117.72 41.1483 363.122)
(129.68 41.6471 354.817)
(102.17 -110.638 354.567)
(92.6145 -58.1149 338.695)
(130.499 19.5516 354.123)
(64.5288 9.10559 187.672)
(91.518 18.2369 373.238)
(68.4298 11.741 266.535)
(130.483 -15.5462 353.65)
(65.4975 -6.81063 190.502)
(65.1553 -8.69211 294.071)
(87.8835 -14.5266 322.529)
(61.0354 -36.8855 255.669)
(131.602 -27.1938 355.036)
(48.9851 -22.7802 132.552)
(136.136 -63.6564 355.944)
(63.6226 -12.3213 183.076)
(64.9294 -16.2375 289.867)
(88.8201 -25.0558 325.544)
(94.6962 -70.1837 344.555)
(141.396 -115.12 338.017)
(11.6731 -9.57216 30.8807)
(83.2398 -79.9597 314.431)
(58.0266 -41.8803 234.881)
(40.6634 -22.5683 107.402)
(138.067 -76.546 354.262)
(87.8772 17.9221 323.68)
(103.948 18.4719 370.751)
(100.878 18.418 335.202)
(87.0924 7.27209 321.044)
(99.946 7.50052 332.701)
(91.0306 7.49808 372.801)
(103.395 7.52906 370.462)
(86.9777 -3.68671 320.608)
(100.898 -14.8288 334.184)
(99.8618 -3.72348 332.326)
(91.7713 -13.7396 373.281)
(91.0536 -2.94086 372.754)
(103.456 -3.04653 370.471)
(104.204 -14.0417 370.939)
(89.6965 -35.7587 328.864)
(101.969 -25.6721 336.914)
(103.054 -36.7034 339.739)
(92.5121 -24.6268 373.477)
(93.1993 -35.6961 372.553)
(104.953 -25.1405 370.795)
(105.621 -36.418 369.373)
(90.9184 -46.6563 333.289)
(106.412 -59.8302 347.54)
(104.482 -47.9729 343.331)
(95.0963 -58.4948 368.911)
(94.0476 -46.9365 371.025)
(106.464 -47.8315 367.117)
(107.464 -59.5005 364.069)
(128.994 18.8635 358.913)
(116.607 18.6876 366.103)
(115.228 18.989 345.729)
(129.467 7.933 352.366)
(114.2 7.7313 343.528)
(116.022 7.55164 365.966)
(128.417 7.5546 358.982)
(129.433 -3.82047 352.149)
(115.202 -15.1723 344.961)
(114.162 -3.77465 343.208)
(116.089 -3.1528 366.029)
(129.264 -14.5871 359.289)
(116.873 -14.3343 366.377)
(128.501 -3.25043 359.092)
(97.1108 -82.9864 350.102)
(108.659 -72.2448 351.74)
(111.126 -85.3027 354.565)
(96.3055 -70.4128 365.866)
(97.4775 -82.5845 361.362)
(108.506 -71.4248 359.829)
(109.296 -83.383 354.107)
(116.356 -26.401 347.191)
(132.748 -39.0131 355.876)
(117.51 -37.7932 349.366)
(129.815 -26.0674 358.373)
(117.561 -25.6399 365.837)
(118.157 -37.1251 363.881)
(130.164 -37.6832 355.889)
(121.002 -61.6813 354.194)
(134.292 -51.1137 356.271)
(119.06 -49.4842 351.806)
(118.823 -48.6676 360.871)
(130.577 -60.6932 346.951)
(119.568 -60.3786 356.837)
(130.463 -49.2241 352.074)
(136.275 67.8233 356.134)
(134.562 55.0081 356.946)
(119.388 53.2606 353.801)
(129.681 64.2957 344.983)
(118.881 64.1701 355.454)
(118.314 52.5347 359.879)
(129.823 53.0026 350.635)
(99.6328 -96.4947 353.934)
(115.918 -112.849 352.026)
(113.654 -98.931 354.806)
(98.5869 -106.424 346.407)
(98.3461 -94.774 355.012)
(109.524 -94.9662 346.323)
(108.723 -105.582 336.297)
(123.278 -74.4395 355.46)
(139.861 -89.6148 350.758)
(125.601 -87.6493 354.862)
(130.177 -71.882 340.286)
(120.112 -72.059 351.482)
(120.131 -83.467 344.327)
(128.909 -82.4498 331.698)
(93.8574 26.0438 348.487)
(63.8456 19.6251 286.424)
(84.0799 26.0716 357.559)
(65.5959 25.0335 248.531)
(62.7464 26.6421 277.349)
(84.1459 35.8567 354.457)
(93.7586 35.8558 344.7)
(93.7471 16.3069 350.565)
(64.4916 12.4314 292.144)
(83.8952 16.3984 359.238)
(64.8141 5.13033 294.914)
(83.7331 6.76277 359.785)
(93.5679 6.63892 351.237)
(68.956 4.74905 269.906)
(65.0232 -1.41214 295.554)
(84.3701 -11.8689 359.785)
(83.8557 -2.21445 359.918)
(93.7135 -2.32285 351.425)
(69.1549 -8.41307 268.755)
(94.2205 -11.9954 351.238)
(69.1971 -1.43508 270.667)
(64.2437 -23.7422 282.319)
(84.8016 -21.8176 358.646)
(85.0733 -31.9199 355.842)
(68.5664 -15.5561 263.516)
(94.5966 -21.9855 349.767)
(94.7099 -32.0969 346.414)
(67.2907 -22.5399 254.334)
(129.363 -114.549 346.368)
(141.189 -102.67 345.362)
(127.707 -101.113 351.802)
(119.191 -94.1265 335.135)
(121.959 -99.2646 304.627)
(126.308 -91.824 320.255)
(116.884 -103.381 323.09)
(85.4962 -51.9996 346.238)
(63.0066 -30.7009 271.084)
(85.3117 -41.9532 351.716)
(94.679 -42.031 341.382)
(61.9601 -33.8599 222.115)
(94.4206 -51.826 334.552)
(65.1708 -28.7491 240.667)
(84.2038 45.5689 349.929)
(58.6816 38.5214 246.873)
(61.099 33.0375 264.42)
(62.9547 30.6283 232.828)
(59.1986 34.9626 212.363)
(92.9742 54.9526 331.352)
(93.498 45.4798 339.099)
(109.271 25.287 317.592)
(67.3137 16.8575 223.233)
(102.647 25.8439 335.961)
(58.0176 18.6539 164.114)
(64.5948 22.4776 210.406)
(102.155 35.5544 331.028)
(108.038 34.6455 310.72)
(109.849 15.7691 321.608)
(69.0313 10.6699 231.661)
(102.771 16.1327 338.751)
(102.652 6.47245 339.698)
(65.7812 3.53816 192.408)
(69.8779 4.2315 235.885)
(109.933 6.22622 323.139)
(102.805 -2.3942 339.953)
(66.1238 -1.2121 193.427)
(110.385 -11.9123 322.746)
(69.8625 -7.82416 234.315)
(103.246 -12.0394 339.565)
(70.1614 -1.37598 236.825)
(110.106 -2.4031 323.513)
(110.159 -21.6743 319.705)
(68.7244 -14.3226 227.784)
(103.41 -21.9913 337.51)
(103.182 -31.9932 333.266)
(60.346 -17.228 170.861)
(66.569 -20.4665 216.819)
(109.295 -31.3583 313.872)
(85.4448 -61.961 338.878)
(84.8368 -71.4973 328.799)
(53.5076 -44.9507 208.128)
(57.328 -37.3734 198.599)
(93.6589 -61.2576 325.142)
(91.9648 -69.8598 311.874)
(50.7431 -38.4584 169.402)
(52.5149 21.5678 145.371)
(60.6151 26.9188 192.848)
(55.0823 29.6886 170.351)
(102.788 51.008 285.947)
(99.8103 53.749 313.232)
(101.292 44.9062 323.66)
(106.001 43.3442 300.459)
(102.613 -41.6722 326.793)
(58.3512 -29.2242 180.655)
(105.073 -48.7163 292.216)
(55.4919 -20.8527 153.849)
(101.524 -50.9412 317.673)
(63.2192 -25.5854 201.204)
(107.71 -40.4641 304.953)
(46.9964 -45.0504 175.158)
(38.2422 -41.1484 136.4)
(79.951 -86.133 293.574)
(88.6367 -76.6783 292.899)
(31.3848 -30.4295 97.3021)
(42.0679 -36.3667 135.042)
(82.9796 -80.4695 266.207)
(51.6842 -30.8423 155.079)
(100.91 -55.633 274.714)
(99.4805 -59.4361 304.909)
(95.8463 -66.4358 286.882)
(30.6978 -19.7799 79.2918)
(43.1319 -29.9374 125.264)
(94.6176 -60.4801 251.162)
(101.852 -84.481 183.514)
(62.9251 -40.7569 137.062)
(67.97 9.64434 126.963)
(109.21 -108.36 196.111)
(88.0809 10.8644 151.313)
(95.3173 15.3621 221.82)
(80.5343 16.3423 252.107)
(87.4423 -11.5049 149.782)
(117.225 -15.0691 284.918)
(59.1741 -11.1241 112.228)
(80.4094 -14.2201 251.252)
(83.609 -53.6457 268.727)
(88.8678 -19.1761 152.845)
(118.417 -25.6302 287.848)
(123.721 -58.6298 301.327)
(92.4445 -44.5533 164.163)
(60.4871 -17.3802 117.069)
(81.2223 -23.9917 254.634)
(65.876 -58.1459 151.432)
(67.6575 -67.3852 157.41)
(92.5252 -100.886 299.431)
(85.1442 -64.1743 275.514)
(139.779 -114.012 330.155)
(126.91 -71.0226 308.238)
(94.3784 -54.0807 168.303)
(59.6964 9.24643 113.196)
(58.0907 2.78066 109.115)
(66.1108 3.09282 123.017)
(68.2978 12.0228 157.153)
(67.0325 4.26688 153.346)
(75.534 4.58416 165.365)
(77.0648 12.4265 169.053)
(57.7614 -4.82207 108.887)
(67.4532 -11.1211 125.684)
(65.8584 -4.58729 122.668)
(67.8867 -12.4921 156.128)
(66.7564 -4.62317 153.104)
(75.3804 -4.45803 165.035)
(76.7215 -12.4963 167.882)
(60.8683 -24.9078 122.483)
(68.7756 -17.6855 129.927)
(69.4719 -25.5396 134.314)
(68.85 -20.507 160.287)
(69.1689 -29.1054 164.85)
(77.7512 -20.7529 171.601)
(78.3711 -29.558 175.494)
(70.6492 -46.1648 177.613)
(61.6297 -32.6105 129.432)
(71.9791 -41.7254 146.504)
(70.6077 -33.4368 140.15)
(69.7546 -37.5741 170.775)
(79.2324 -38.1608 180.62)
(80.3145 -46.86 186.39)
(85.3904 -101.163 183.266)
(96.5398 -116.083 310.477)
(143.963 -129.641 333.286)
(146.243 -168.235 312.826)
(109.297 -167.846 332.634)
(118.952 -137.175 211.929)
(92.5835 -127.691 198.76)
(98.3161 13.6182 190.557)
(77.3541 10.163 139.631)
(85.9826 3.89125 147.67)
(75.4154 3.4543 135.785)
(85.4743 4.91232 176.578)
(87.1261 12.906 180.185)
(96.4761 5.3296 187.136)
(85.7924 -4.3025 147.213)
(76.813 -11.2359 138.138)
(75.2011 -4.41563 135.365)
(85.3597 -4.35619 176.215)
(97.8744 -12.8897 189.326)
(86.8011 -12.6452 178.912)
(96.3644 -4.28761 186.767)
(78.1783 -18.3127 141.789)
(89.9555 -27.5412 155.852)
(79.2098 -26.5034 145.347)
(99.0214 -21.8348 192.211)
(87.8944 -21.2413 182.204)
(88.7353 -30.1786 185.517)
(99.859 -30.8746 195.076)
(64.3366 -49.213 144.758)
(71.8071 -55.0075 184.668)
(73.5636 -50.4088 152.651)
(75.3479 -59.6608 158.083)
(73.2705 -64.3918 191.06)
(81.7381 -56.0241 192.134)
(83.4888 -65.8108 197.404)
(91.0063 -35.7013 159.999)
(81.7615 -42.9341 155.474)
(80.4594 -34.5594 150.224)
(89.5888 -38.79 189.904)
(102.235 -49.185 202.58)
(90.799 -47.7854 194.625)
(100.75 -39.7189 198.75)
(69.8339 -77.0005 163.653)
(79.6803 -79.1048 169.574)
(77.3205 -69.2252 163.537)
(76.9074 -84.6634 202.634)
(74.9839 -74.2938 196.881)
(85.3776 -75.9591 202.595)
(87.568 -86.6172 208.019)
(74.8232 14.4376 201.099)
(79.6169 6.52493 249.191)
(73.809 5.54055 197.803)
(83.2071 5.82168 208.274)
(91.4214 16.7737 262.854)
(84.4159 14.8319 211.574)
(90.3135 6.78208 259.869)
(79.4682 -4.09643 248.886)
(74.5773 -13.5523 200.277)
(73.6136 -4.40196 197.566)
(83.0871 -4.32573 207.985)
(91.2997 -14.387 261.922)
(84.2395 -13.6379 210.629)
(90.2373 -4.0967 259.537)
(83.5221 -52.0254 160.377)
(96.4462 -63.883 172.823)
(85.4667 -61.6312 165.15)
(104.069 -59.2312 206.608)
(92.5007 -57.4422 199.269)
(94.3702 -67.5317 203.92)
(106.182 -69.609 210.904)
(75.4077 -22.6654 203.957)
(81.7933 -33.883 258.164)
(75.801 -32.0309 207.823)
(92.238 -24.3565 265.188)
(85.204 -22.9671 214.041)
(85.8424 -32.4405 217.532)
(92.9989 -34.3935 268.543)
(77.1858 -50.2483 218.927)
(82.535 -43.6116 262.872)
(76.3835 -41.1381 212.901)
(86.5849 -41.5487 222.08)
(95.4501 -54.7254 278.33)
(87.6381 -50.8739 227.299)
(94.0252 -44.3313 272.984)
(90.2668 -81.6042 176.233)
(98.9156 -73.9082 177.904)
(87.6434 -71.4083 170.393)
(96.5292 -77.9834 208.743)
(111.712 -92.0379 221.04)
(108.684 -80.4353 215.642)
(99.0959 -89.0513 214.034)
(107.25 16.0201 231.993)
(117.437 17.9895 285.902)
(103.665 17.2996 274.187)
(93.9352 6.14888 218.548)
(116.003 7.40983 282.981)
(102.41 7.07737 271.205)
(105.714 6.52262 228.787)
(93.8457 -4.27154 218.231)
(115.917 -4.18144 282.637)
(106.95 -14.0884 230.973)
(103.534 -14.6741 273.218)
(95.0816 -13.7958 220.812)
(102.334 -4.1226 270.867)
(105.624 -4.26848 228.459)
(78.3531 -59.6914 225.368)
(87.0464 -75.366 282.408)
(79.8504 -69.7619 231.628)
(97.4031 -65.7701 284.347)
(89.1425 -60.7502 232.851)
(90.9185 -71.2114 238.426)
(99.8601 -77.56 291.28)
(82.3987 -89.679 176.156)
(72.2479 -87.2659 170.43)
(74.8694 -98.41 177.736)
(79.1147 -95.7303 208.64)
(90.1773 -98.0938 213.896)
(81.6806 -107.729 215.21)
(93.2502 -110.589 220.63)
(108.086 -23.8889 233.847)
(104.597 -24.893 276.25)
(96.1462 -23.3525 223.941)
(96.8655 -32.8959 227.066)
(119.594 -36.2231 291.011)
(105.525 -35.1396 279.259)
(108.862 -33.5499 236.714)
(97.7515 -42.1648 231.067)
(108.673 -56.3475 288.413)
(121.282 -47.0445 295.532)
(111.62 -53.3862 244.452)
(99.0774 -51.899 235.622)
(106.799 -45.428 283.295)
(109.987 -43.1612 240.295)
(83.6497 -91.7204 244.05)
(89.4254 -87.4596 289.975)
(81.5868 -80.3838 237.741)
(93.0089 -82.2399 244.195)
(107.002 -104.757 309.915)
(102.989 -90.4172 299.974)
(95.5458 -94.0819 250.582)
(96.7792 -104.489 189.343)
(105.278 -95.9148 189.536)
(93.3403 -92.5708 182.534)
(115.334 -104.659 227.542)
(102.179 -101.038 220.029)
(105.871 -114.15 227.237)
(119.73 -118.523 235.53)
(88.7599 -113.754 190.803)
(77.7427 -110.62 185.501)
(80.9855 -124.101 193.574)
(88.3225 -135.614 231.752)
(84.703 -120.917 222.731)
(96.915 -124.381 228.679)
(101.319 -139.832 238.538)
(111.138 -67.9712 294.923)
(113.698 -64.1883 249.13)
(100.876 -62.2584 240.54)
(102.95 -73.1047 245.827)
(130.866 -84.4179 315.864)
(114.324 -80.5307 302.859)
(116.197 -75.5312 254.463)
(105.478 -84.6323 251.64)
(123.24 -101.026 267.991)
(122.999 -109.371 320.804)
(135.288 -98.8314 323.438)
(118.337 -94.2877 311.737)
(119.363 -87.7211 260.725)
(108.64 -97.1223 258.456)
(86.1857 -104.066 251.13)
(111.725 -120.651 320.211)
(98.7176 -107.088 258.098)
(101.189 -132.938 321.753)
(89.3529 -117.805 259.614)
(102.654 -121.585 267.135)
(116.439 -137.466 329.088)
(113.765 -122.051 203.376)
(105.197 -132.04 204.698)
(100.726 -117.562 196.666)
(110.265 -128.641 236.113)
(131.53 -151.518 258.05)
(115.642 -145.092 247.144)
(125.089 -134.002 245.537)
(128.21 -115.906 278.045)
(127.727 -125.334 328.843)
(112.577 -110.939 266.528)
(117.554 -126.487 277.497)
(147.122 -144.897 331)
(134.69 -132.984 291.407)
(132.036 -141.683 332.916)
(105.661 -150.554 330.811)
(98.4825 -151.204 284.349)
(93.3274 -133.211 269.776)
(107.697 -138.127 279.6)
(123.268 -170.112 329.056)
(114.24 -157.627 295.489)
(120.563 -154.429 332.879)
(69.6376 17.3772 130.858)
(91.0137 28.7756 156.297)
(93.3828 37.1276 161.81)
(74.9465 27.7453 151.448)
(88.8067 54.4516 228.289)
(112.039 57.8654 244.593)
(96.7 24.9495 225.391)
(81.5807 26.0947 255.996)
(61.2945 16.7178 117.558)
(71.0145 25.526 134.772)
(62.4921 24.162 123.239)
(69.5612 20.6436 161.608)
(70.1547 29.9012 166.025)
(78.4682 21.1554 173.134)
(79.333 30.6085 176.977)
(66.0421 22.3513 144.604)
(87.512 -1.75205 187.709)
(76.9424 -20.2929 188.71)
(75.1994 37.0483 194.632)
(71.2741 38.1916 172.686)
(80.4835 39.6632 181.705)
(84.8006 43.3905 198.387)
(89.8807 19.4485 154.232)
(100.858 32.3956 196.919)
(99.9 22.782 193.784)
(79.1131 18.3538 142.993)
(80.4962 27.2047 145.603)
(88.6586 21.8783 183.823)
(89.6709 31.5214 187.213)
(101.456 34.4148 183.331)
(94.6519 17.9837 185.197)
(84.0217 33.1034 156.576)
(104.258 52.8267 204.079)
(94.3309 48.9687 200.827)
(101.55 42.704 199.046)
(90.6022 41.2354 190.318)
(75.9202 23.7293 205.191)
(82.3127 36.0645 260.416)
(76.5716 33.541 209.658)
(92.6292 26.708 266.632)
(85.6824 24.2439 215.433)
(86.5922 34.0499 219.556)
(93.5788 36.7577 270.873)
(78.5724 52.7341 221.334)
(95.9217 59.1605 279.9)
(84.1029 57.8519 270.277)
(83.0953 46.5309 265.385)
(77.0835 43.4977 214.109)
(87.2539 44.1933 223.549)
(94.6685 47.3521 275.677)
(108.674 25.8301 235.302)
(118.897 28.5339 289.345)
(104.994 27.4962 277.68)
(109.785 35.5791 238.833)
(120.353 39.1386 293.444)
(97.7037 34.6968 229.165)
(106.183 37.754 281.52)
(99.7977 56.1472 235.843)
(110.854 46.1403 242.213)
(109.25 60.8324 290.607)
(124.546 63.0569 304.29)
(122.231 50.3074 298.723)
(98.5144 45.0704 232.733)
(107.579 48.546 286.083)
(32.0011 -28.548 29.7923)
(91.1147 -76.1949 146.418)
(33.055 -23.6056 24.9571)
(70.0278 -40.7995 90.0915)
(42.1156 -37.3018 45.9423)
(46.7849 -41.3918 70.4331)
(44.0881 -44.67 50.2662)
(59.0509 -59.1506 89.4909)
(10.0349 -9.22371 -10.4194)
(8.96726 -4.52312 -15.5221)
(30.4603 -22.0975 24.7471)
(16.0564 -7.42001 -7.91303)
(16.4008 -12.3102 -2.23144)
(37.8297 -24.0049 31.8165)
(38.7081 -30.7152 36.4081)
(23.27 -24.4199 15.6863)
(37.0458 -41.8128 42.0988)
(16.625 -20.4119 4.96459)
(33.8148 -35.226 34.7889)
(12.2894 -14.5836 -4.31386)
(18.6869 -18.0379 5.09302)
(40.6279 -37.6628 42.0238)
(31.7216 -17.7897 17.8999)
(23.0941 -11.9873 3.44408)
(23.783 -17.4448 9.76126)
(53.5674 -31.4134 52.0463)
(44.9831 -27.3343 41.0021)
(46.1206 -34.4257 45.5916)
(55.0939 -38.6908 57.2633)
(45.0258 -33.731 64.6303)
(57.2806 -50.6218 111.083)
(55.5833 -42.1725 104.59)
(64.0783 -43.5938 112.506)
(52.8728 -35.2942 72.1153)
(54.269 -43.1725 76.9328)
(65.7415 -52.2249 117.803)
(36.537 -29.9546 34.2452)
(62.4329 -53.9105 73.8539)
(52.3329 -48.9587 61.0895)
(31.579 -30.3834 29.7429)
(26.5011 -23.4761 18.3066)
(48.4072 -41.4863 52.148)
(58.0437 -45.9902 64.5219)
(-0.660954 7.97208 -56.1295)
(75.7124 8.28563 110.727)
(31.3727 -29.8851 17.6538)
(28.0932 -7.25864 1.94959)
(43.5046 3.59765 36.1921)
(23.6996 -2.65583 -14.8443)
(75.0004 -10.0366 109.459)
(-5.32624 6.33452 -68.7904)
(48.2769 -9.43394 67.974)
(4.90173 4.13584 -29.7886)
(27.8379 -2.79563 -8.0373)
(31.3931 -12.6765 12.0665)
(76.8135 -15.9838 112.98)
(68.291 -32.6606 86.1117)
(42.6209 -26.4615 57.1438)
(50.1347 -13.5017 73.8094)
(2.57741 6.22054 -41.4184)
(9.71929 4.0454 -40.7228)
(22.8897 -2.4418 -11.6507)
(12.6426 2.58611 -29.3157)
(24.3568 -6.03513 -1.25215)
(30.4731 -4.05463 3.10995)
(32.2538 -7.71757 11.2935)
(15.7396 -68.3648 10.8138)
(19.9037 -10.8883 -11.5734)
(5.95933 -86.1827 11.2681)
(-4.45552 -18.3556 -50.9744)
(4.12754 -13.4459 -41.4051)
(16.0884 -2.01998 -30.0192)
(24.2271 -1.35897 -13.4973)
(-7.25696 -1.67123 -68.3252)
(5.26557 3.30647 -52.9411)
(2.09995 -1.7176 -55.928)
(19.2917 -1.55601 -22.3706)
(16.4008 -2.53965 -30.637)
(24.4888 -2.66325 -12.3907)
(27.4051 -3.2663 -5.46143)
(7.13815 -0.183158 -21.4737)
(15.886 -3.52194 -13.7767)
(14.8082 0.647161 -20.4106)
(28.0447 -15.921 18.0897)
(25.6828 -9.85964 9.30771)
(34.4296 -11.8182 19.609)
(36.4379 -17.9445 26.2938)
(44.2448 0.165703 29.9307)
(35.5527 -3.27237 15.9191)
(23.9309 -48.0802 12.0347)
(20.6672 -5.32225 -12.7768)
(12.0937 -8.88435 -28.6271)
(31.6762 -0.544987 4.29142)
(40.7198 0.0811868 22.2897)
(20.1664 -2.8311 -19.6169)
(14.6144 0.138282 -34.6326)
(10.8283 -2.10611 -39.4115)
(31.9005 -3.00776 6.08602)
(43.9193 -6.40223 27.3544)
(34.9761 -4.91072 11.1633)
(40.8905 -3.50118 23.9046)
(19.1927 0.460231 -25.228)
(30.3956 -5.60509 -1.18012)
(21.8714 -1.24686 -16.4763)
(47.1082 -8.24356 32.3239)
(38.1775 -5.9692 17.6176)
(40.3649 -10.2118 23.8412)
(49.4972 -13.295 36.9703)
(35.197 2.65035 20.0256)
(56.8561 6.86651 82.7042)
(48.6486 6.38787 67.1498)
(46.7348 1.46252 63.8363)
(32.7817 0.326487 16.4883)
(40.8612 0.61536 33.7063)
(54.5862 1.75642 79.4372)
(46.4939 -4.92629 64.0289)
(35.2755 -6.74899 23.7822)
(32.8919 -4.25558 18.2223)
(40.9195 -4.21965 34.8763)
(56.3047 -9.47592 82.6649)
(43.2012 -7.2468 39.2875)
(54.3647 -4.63652 79.3238)
(31.4629 -8.05762 6.11799)
(23.2763 -7.56103 -2.38873)
(23.3786 -3.39281 -8.68881)
(42.7472 -14.7371 30.6521)
(52.3415 -24.4543 47.8018)
(43.985 -20.84 36.32)
(51.3318 -18.0302 43.0313)
(37.8478 -8.78591 31.2866)
(50.8354 -19.7768 80.2409)
(38.9112 -13.6849 39.1583)
(57.9907 -13.867 87.7594)
(45.4684 -9.50244 45.5791)
(46.7883 -14.8263 51.8655)
(58.9141 -20.6039 92.8846)
(53.6791 -34.2222 96.6907)
(51.8809 -26.518 88.388)
(40.2663 -19.2537 48.4651)
(48.8953 -20.6196 59.3982)
(62.356 -35.4786 106.236)
(51.0623 -27.9345 66.1713)
(60.5589 -27.5907 99.5444)
(60.993 5.77175 67.5864)
(51.5763 4.76219 52.1325)
(65.5706 7.47224 97.2576)
(48.8872 1.02607 50.3013)
(73.2451 2.48175 107.431)
(63.2466 2.07586 93.9216)
(58.3352 1.36055 65.9211)
(48.8524 -4.20105 50.8795)
(73.0003 -4.33111 106.953)
(60.5716 -8.44003 68.6029)
(64.9909 -9.70745 96.4556)
(51.2088 -7.79254 54.2566)
(63.0032 -4.47304 93.5959)
(58.2321 -4.2486 65.9831)
(63.0511 -12.3485 72.7268)
(66.7269 -14.7432 100.752)
(53.5868 -10.688 59.3707)
(55.2859 -16.7237 64.1185)
(78.3937 -23.5355 116.111)
(68.0333 -22.0049 104.704)
(65.0449 -18.8958 76.2937)
(59.2901 -30.0724 75.8687)
(71.3444 -37.0649 115.759)
(81.2115 -39.065 125.248)
(57.6675 -22.9286 70.2039)
(79.7327 -30.8766 120.812)
(69.8074 -29.2827 110.175)
(66.8777 -25.2025 81.5641)
(51.1339 -56.7204 82.4282)
(48.412 -49.0878 75.7273)
(59.0112 -59.1679 116.863)
(61.4465 -67.8534 123.41)
(70.372 -70.0997 129.937)
(56.1112 -51.1745 82.2758)
(67.731 -61.092 123.271)
(60.7797 -37.776 80.6445)
(73.0578 -45.5553 120.719)
(83.1689 -47.9889 129.366)
(62.4387 -45.9801 85.0098)
(85.1896 -57.179 134.051)
(74.9448 -54.5518 125.384)
(71.8685 -49.1694 94.8008)
(78.3104 -66.319 108.902)
(67.9148 -62.4394 98.4965)
(80.1292 -72.9281 137.721)
(64.5968 -54.0726 90.8869)
(87.8126 -66.429 139.776)
(77.1723 -63.5698 130.999)
(74.5738 -57.4908 101.111)
(82.7518 -76.2855 117.754)
(49.1882 -46.4121 59.2795)
(48.7607 -52.8843 60.9188)
(62.6644 -68.0912 98.3975)
(93.3599 -100.351 137.252)
(73.7301 -85.2454 102.21)
(61.9576 -86.2332 112.287)
(43.866 -62.8814 69.2832)
(29.6814 -32.4785 29.3785)
(41.4101 -49.3135 52.061)
(22.7115 -27.6404 17.8806)
(29.6389 -37.1067 33.6567)
(36.8701 -42.6027 45.416)
(46.2473 -58.5884 64.296)
(53.9763 -62.7852 73.5348)
(67.8882 -63.2136 84.6451)
(57.4406 -57.7342 72.0068)
(38.4037 -39.0711 43.5175)
(57.0593 -57.4269 73.5557)
(45.9739 -49.6894 58.9383)
(63.1826 -68.1247 84.3921)
(74.0599 -74.1095 96.3773)
(36.8462 -48.8447 51.1947)
(52.0399 -69.4708 79.6607)
(44.4161 -54.9403 62.5484)
(56.485 -83.0446 92.6708)
(51.3244 -69.7927 78.1328)
(59.5475 -74.5729 87.2941)
(65.355 -88.3611 101.306)
(54.4268 -65.0867 90.9648)
(64.201 -77.2411 131.076)
(73.4587 -79.9121 137.649)
(67.2092 -87.7488 139.682)
(58.0549 -74.8625 101.038)
(66.7078 -78.3817 108.688)
(76.8685 -90.8443 146.193)
(65.3083 -70.366 88.0862)
(53.8734 -62.2911 75.0534)
(61.9415 -77.0011 90.8428)
(69.2662 -80.2902 97.5975)
(87.5029 -101.124 120.639)
(75.6511 -94.4208 110.766)
(80.6608 -86.7465 108.52)
(71.9667 -71.8821 107.498)
(94.9545 -86.9075 153.677)
(83.6209 -83.1886 145.26)
(76.5691 -82.6766 117.554)
(99.262 -98.7043 161.424)
(87.8027 -87.5662 127.343)
(87.5022 -94.5373 153.48)
(66.1595 -99.3368 124.101)
(70.4524 -99.5402 149.023)
(74.0562 -112.755 158.662)
(71.1487 -90.2478 119.855)
(84.7235 -116.581 164.605)
(75.9511 -103.791 131.304)
(80.5994 -103.025 155.319)
(99.2041 -114.635 147.252)
(109.089 -125.996 177.745)
(103.988 -111.701 169.471)
(96.3671 -120.993 170.956)
(91.7425 -107.084 162.174)
(86.9345 -108.923 139.077)
(81.5716 -94.9687 128.288)
(12.4079 -13.4462 31.8299)
(-41.1809 38.1716 97.1129)
(-133.726 136.496 88.2292)
(-4.78365 3.00253 -1.12832)
(35.8454 -41.1494 112.257)
(-4.84742 4.45902 160.601)
(25.9414 -36.435 62.3416)
(-38.8652 44.5134 145.277)
(-114.648 114.617 100.305)
(-88.2318 91.2522 42.2202)
(-107.021 113.4 104.218)
(-89.7572 92.0684 114.367)
(-75.0309 75.1201 60.1196)
(-67.6802 73.459 64.9262)
(-55.4131 57.4279 80.2971)
(-153.483 149.882 187.801)
(-178.94 171.288 129.714)
(-163.946 158.537 62.6117)
(-12.5659 -352.155 256.873)
(-194.876 222.75 222.973)
(-147.024 153.847 188.814)
(-119.265 114.21 146.035)
(-199.42 195.943 123.398)
(-229.875 217.864 233.06)
(-258.386 281.045 264.256)
(-259.526 261.706 73.4059)
(-130.534 30.889 56.3283)
(-147.118 136.823 75.1586)
(-34.6253 21.9142 -60.688)
(1.5431 6.05953 -12.5615)
(-203.811 199.617 -23.0515)
(-68.9861 64.5933 -94.3091)
(-63.9291 28.1787 -105.925)
(-294.478 306.187 209.478)
(-255.395 270.701 259.106)
(-238.415 275.412 251.654)
(-283.367 291.553 209.43)
(-269.047 289.439 203.302)
(-233.464 256.193 244.569)
(-254.731 265.607 203.383)
(-62.3115 -131.022 111.654)
(-12.9601 -224.342 179.696)
(-43.7767 -108.379 33.518)
(-128.619 41.1605 22.9887)
(-106.945 56.947 -84.3605)
(-73.9571 -11.3446 -36.7141)
(-109.336 82.3718 -85.3856)
(-95.1815 91.3173 150.016)
(-170.888 170.055 133.367)
(-206.988 191.696 218.061)
(-22.9413 22.9817 168.559)
(-77.1429 71.971 150.545)
(-78.8129 86.6307 158.68)
(-99.187 89.7076 160.743)
(0.892458 3.76233 -2.56469)
(3.02158 -3.99153 14.8974)
(-93.2112 86.2324 116.333)
(-158.944 157.238 71.651)
(-202.185 206.963 9.88696)
(-71.9588 70.1177 -63.6501)
(-13.8863 11.1263 -19.0211)
(-247.282 246.8 246.468)
(-238.505 230.09 200.704)
(-263.98 262.922 205.457)
(-202.649 198.965 219.658)
(-220.954 227.634 233.606)
(-233.007 235.691 200.917)
(-208.068 204.401 196.138)
(-292.552 294.048 140.295)
(-245.783 246.033 97.427)
(-276.552 278.74 152.233)
(-235.156 238.546 94.9494)
(-264.853 271.236 149.557)
(-246.379 250.222 157.89)
(-220.077 218.191 113.533)
(-218.255 254.62 236.809)
(-209.231 219.504 194.955)
(-240.914 257.081 198.348)
(-183.191 201.603 215.723)
(-209.13 230.751 230.686)
(-223.378 233.477 199.453)
(-190.585 200.623 195.585)
(-177.259 127.667 -27.9611)
(-188.259 190.54 12.1742)
(-184.373 167.315 -15.4684)
(-131.627 131.034 -70.8314)
(-128.235 112.611 -94.5954)
(-117.802 111.138 -68.4933)
(-120.34 121.46 -44.8731)
(-79.6168 -74.5817 92.7234)
(-155.163 115.623 41.333)
(-157.833 114.449 5.86637)
(-86.909 45.9658 -45.3654)
(-86.5598 35.6663 -63.4536)
(-101.282 82.0891 -62.6127)
(-87.9178 71.0789 -25.0878)
(-70.2258 54.6401 -107.876)
(-33.3876 22.6027 -94.7364)
(-29.3424 27.2386 -81.5038)
(-21.6873 17.2415 -82.023)
(-59.0355 33.3662 -100.159)
(-58.4357 49.1397 -91.8905)
(-17.1514 19.489 -68.188)
(-209.875 199.396 195.56)
(-180.344 171.242 204.769)
(-181.976 164.648 202.137)
(-181.288 168.036 189.266)
(-181.508 173.951 189.579)
(-157.342 143.942 186.96)
(-155.213 143.758 179.272)
(-201.681 201.063 162.733)
(-208.577 205.835 113.114)
(-234.492 237.757 155.999)
(-215.454 217.907 163.611)
(-162.973 157.582 141.461)
(-192.623 188.107 127.771)
(-182.864 185.744 169.423)
(-167.366 178.115 204.523)
(-174.926 176.367 205.68)
(-194.934 203.592 219.403)
(-202.139 205.864 196.63)
(-146.493 151.564 180.965)
(-177.37 177.483 190.488)
(-170.061 177.175 191.445)
(-226.61 220.69 161.916)
(-224.706 221.023 112.507)
(-253.378 250.9 158.421)
(-223.931 222.397 162.42)
(-174.233 170.26 132.657)
(-197.935 194.017 164.925)
(-199.154 194.648 124.376)
(-133.228 134.927 -46.7494)
(-194.648 193.406 34.2234)
(-184.148 185.644 37.1648)
(-175.681 171.956 56.9666)
(-131.149 128.517 -24.6945)
(-121.767 121.251 -21.5324)
(-119.191 114.8 0.721476)
(-149.775 133.128 59.7222)
(-169.512 166.414 44.8975)
(-172.959 159.11 20.8932)
(-104.671 98.5942 -37.7614)
(-93.2339 84.5819 20.4916)
(-107.985 104.488 -13.9423)
(-90.7771 80.3389 -0.498256)
(-70.1968 68.1652 -78.3875)
(-26.0369 27.6847 -67.2208)
(-24.9987 25.6942 -57.8547)
(-58.1767 56.6851 -76.6026)
(-16.3536 19.7503 -48.611)
(-61.6547 59.8985 -61.2396)
(-15.5832 20.5931 -57.1269)
(-151.693 122.649 214.184)
(73.3688 -15.071 161.901)
(97.4304 42.0105 2.23639)
(261.047 -289.089 248.552)
(122.647 -599.016 -254.283)
(-226.125 -552.348 -38.112)
(-45.4304 125.288 127.821)
(-40.0243 -196.424 148.105)
(224.666 -545.522 70.3013)
(31.19 -575.278 -18.6008)
(45.4915 -731.5 -100.638)
(142.28 -644.532 -89.0635)
(-41.3531 -718.871 -231.078)
(-0.904605 -576.075 -158.423)
(179.139 -396.772 86.8733)
(-350.349 -738.305 -46.7721)
(-149.217 -638.075 -148.216)
(-220.431 -562.123 -55.5623)
(-197.854 -791.382 -148.127)
(-164.516 -681.308 -183.916)
(-66.2045 -532.773 -125.953)
(-77.472 -387.588 54.8067)
(241.62 -145.486 312.506)
(281.665 -179.242 339.581)
(86.4013 -225.643 171.895)
(55.0981 -196.707 23.8582)
(173.752 -58.278 193.215)
(45.6441 34.732 66.5265)
(231.562 -151.713 248.664)
(145.185 -313.316 -100.587)
(68.5871 -505.642 -166.234)
(84.56 -249.945 -53.1269)
(89.1219 -668.071 -219.515)
(3.09299 -647.649 -248.723)
(62.8995 -467.698 -150.363)
(136.308 -429.581 -60.338)
(-60.5624 66.1676 95.7667)
(-68.2734 -312.644 -30.628)
(-143.524 -253.284 75.5858)
(-35.156 -188.384 16.0286)
(-146.363 187.787 235.541)
(-53.6929 106.168 124.246)
(-73.9358 -56.2285 173.939)
(-85.8113 -364.668 68.7713)
(48.4669 -328.241 -8.63805)
(16.3971 -76.6838 80.8213)
(-105.624 45.9284 192.689)
(-58.0743 -523.524 -129.916)
(33.2045 -330.541 -18.6641)
(-36.8207 -151.167 166.339)
(120.688 -13.9748 13.0388)
(40.2388 42.7229 25.3119)
(38.4348 93.3243 59.4538)
(59.0426 -79.0257 0.48542)
(121.117 10.2432 64.698)
(31.1387 73.4525 50.0624)
(159.014 -90.762 114.332)
(-147.258 187.345 211.782)
(-149.493 210.128 221.578)
(-55.9968 156.069 146.31)
(-11.9715 11.2988 94.1957)
(-149.128 214.524 232.364)
(-48.4706 140.377 144.689)
(-121.556 127.973 215.593)
(113.509 -740.484 -40.2686)
(-178.335 -940.183 301.834)
(215.046 -366.302 15.7349)
(187.312 -584.712 -69.0121)
(154.267 -677.429 -97.7298)
(248.849 -828.349 -34.2542)
(233.72 -732.259 -53.3164)
(375.202 -319.6 29.206)
(197.165 -719.301 -226.615)
(211.931 -692.533 -41.337)
(-163.784 -854.971 -12.1379)
(180.103 -743.124 -1.16818)
(131.771 -704.381 -3.40844)
(-232.369 -532.869 155.141)
(96.8784 -676.063 -298.015)
(-92.3664 -335.489 68.5204)
(257.34 -297.141 101.566)
(227.402 -533.415 11.0225)
(201.662 -662.147 -80.4584)
(226.997 -659.069 -86.6664)
(256.511 -613.341 -36.7973)
(242.163 -713.741 -99.2657)
(280.423 -401.365 52.1172)
(164.395 -676.842 -112.983)
(191.626 -683.427 -83.2034)
(168.902 -674.882 -41.6623)
(209.97 -725.301 -113.897)
(204.163 -708.787 -35.1825)
(231.409 -725.18 -87.1957)
(196.579 -712.401 -89.9795)
(105.019 -835.043 128.374)
(53.9347 -829.046 184.486)
(139.36 -734.805 70.5348)
(69.337 -805.666 86.0875)
(154.642 -754.596 67.2732)
(192.404 -766.352 -15.1648)
(49.6822 -822.265 161.66)
(204.233 -728.669 -47.0868)
(89.6897 -796.855 -67.2747)
(120.652 -825.35 35.7354)
(21.661 -789.28 -46.1609)
(168.303 -733.406 -134.432)
(190.12 -763.958 -95.917)
(-39.2155 -779.751 -189.468)
(129.981 -709.322 -92.5426)
(132.44 -676.821 -24.2694)
(143.588 -674.643 -90.4543)
(183.734 -735.402 -92.8673)
(158.787 -774.995 -40.4099)
(174.762 -744.173 -87.2017)
(169.095 -749.607 -28.9356)
(-34.0657 -917.213 225.791)
(-220.309 -924.876 262.699)
(-58.2106 -911.032 274.906)
(-140.968 -802.51 136.678)
(-244.384 -827.063 236.007)
(-327.688 -739.682 174.234)
(-104.86 -850.159 203.52)
(197.829 -451.637 -15.9421)
(308.519 -105.282 44.8826)
(294.773 -143.83 114.927)
(221.124 -567.486 -42.7862)
(334.817 -147.928 42.2074)
(225.559 -507.857 3.56973)
(315.298 -213.468 91.7944)
(-74.3305 -868.291 140.156)