/*--------------------------------*- C++ -*----------------------------------*\
  =========                 |
  \\      /  F ield         | OpenFOAM: The Open Source CFD Toolbox
   \\    /   O peration     | Website:  https://openfoam.org
    \\  /    A nd           | Version:  9
     \\/     M anipulation  |
\*---------------------------------------------------------------------------*/
FoamFile
{
    format      ascii;
    class       volVectorField;
    location    "0.00305";
    object      U;
}
// * * * * * * * * * * * * * * * * * * * * * * * * * * * * * * * * * * * * * //

dimensions      [0 1 -1 0 0 0 0];

internalField   nonuniform List<vector> 
26281
(
(47.6886 -148.836 1.61438)
(56.1914 -106.438 17.3764)
(76.6754 -134.388 57.9293)
(85.5399 -156.346 9.45911)
(-8.66478 -84.4302 -1.66505)
(39.7595 -99.3869 -1.11709)
(52.1591 -111.599 6.82074)
(84.6594 -131.149 25.5155)
(4.59356 -41.6848 -6.63702)
(41.0541 -71.2143 -0.250776)
(85.8881 -130.972 36.0134)
(16.6439 -37.781 0.48828)
(45.6329 -70.4476 9.79165)
(73.2309 -128.121 46.4863)
(103.57 -155.132 64.4345)
(43.4075 -63.3822 28.325)
(71.795 -94.5036 40.0851)
(-8.06596 -75.3726 -7.35725)
(6.13947 -88.0453 -2.06816)
(6.35317 -79.9059 -7.53497)
(10.1387 -105.886 -0.97051)
(10.5794 -97.3084 -6.18955)
(24.6518 -101.126 -5.90136)
(24.7751 -108.958 -1.10836)
(-3.0195 -57.1073 -6.24741)
(15.5993 -50.844 -6.4591)
(10.3094 -63.8103 -6.74228)
(21.2019 -65.2111 -4.29311)
(15.3132 -80.2927 -3.8527)
(27.9777 -86.2786 -2.67733)
(32.0203 -73.2248 -2.46916)
(22.5797 -93.0356 -2.10064)
(38.3572 -92.6251 -5.29126)
(22.0521 -85.7438 -7.07294)
(39.5927 -106.265 -4.35242)
(56.2251 -119.429 2.01499)
(54.8017 -112.344 -1.16127)
(40.4594 -113.644 -0.257822)
(103.026 -146.571 78.4105)
(47.227 -69.7902 40.1587)
(77.1083 -101.232 52.0356)
(85.0972 -135.089 93.8246)
(96.4391 -144.804 98.6149)
(55.8684 -82.3664 80.9969)
(87.0646 -114.257 89.9111)
(29.2207 -127.281 -0.129343)
(47.4001 -140.493 -1.46295)
(29.2636 -119.075 -4.64829)
(42.6437 -122.072 -3.14904)
(60.4206 -150.429 3.68252)
(60.0255 -142.413 1.39501)
(43.148 -129.889 0.684506)
(38.9708 -80.996 -1.62844)
(27.8443 -60.7709 -4.24256)
(24.4335 -71.8546 -5.16777)
(41.1804 -93.7499 0.362896)
(56.5322 -91.6463 7.09416)
(55.1517 -101.907 5.11759)
(43.8101 -82.2768 1.3386)
(29.2338 -42.7295 9.08051)
(25.201 -48.5456 1.99525)
(30.664 -60.7682 4.16403)
(36.9091 -53.341 11.1152)
(41.3331 -65.0276 13.6463)
(39.0956 -70.294 7.13967)
(48.9466 -74.7524 17.0234)
(49.4859 -126.575 5.98688)
(37.1014 -88.6828 -0.0684304)
(32.8025 -103.691 -0.0253759)
(44.8011 -108.875 2.76561)
(62.2186 -117.268 12.4209)
(60.9224 -130.54 10.1685)
(47.6409 -95.6416 3.60836)
(34.7242 -59.5567 5.20707)
(55.0305 -75.9992 19.5477)
(45.3407 -64.616 14.6933)
(59.9018 -90.3472 17.3434)
(48.7129 -80.2201 11.5378)
(57.456 -85.2595 21.6255)
(67.6065 -96.0929 27.0539)
(56.5583 -126.316 0.000608287)
(73.0825 -153.079 6.68521)
(71.5244 -138.461 5.90177)
(86.842 -149.6 8.91486)
(73.1032 -145.684 5.19054)
(70.9116 -131.331 4.02314)
(57.4793 -133.907 2.76043)
(36.2819 -52.6595 19.6605)
(51.5603 -73.0699 31.7491)
(44.5549 -62.8209 21.9921)
(53.9776 -84.4502 33.5794)
(47.7855 -74.291 24.2406)
(56.0435 -83.963 27.4635)
(62.7538 -93.6853 37.1058)
(43.6037 -83.7384 9.73286)
(62.4298 -110.24 28.0961)
(52.2292 -87.5038 20.0341)
(65.2645 -113.914 23.0244)
(52.4655 -92.0391 14.0155)
(60.1323 -96.5059 24.4921)
(70.9034 -118.877 33.0805)
(57.4454 -115.152 7.40343)
(86.1368 -140.747 19.8705)
(73.0293 -123.786 19.0874)
(71.0528 -111.496 16.3223)
(73.1536 -135.365 15.1276)
(70.8654 -121.938 12.8181)
(58.9897 -103.437 9.25815)
(50.5739 -74.5574 51.5978)
(55.7976 -79.7996 43.7899)
(57.6422 -91.014 45.4087)
(59.4244 -84.88 55.1736)
(60.7627 -96.1008 56.6855)
(66.8502 -100.344 49.1141)
(70.174 -105.664 60.5953)
(63.5622 -85.1079 30.2764)
(61.1382 -83.5488 35.4038)
(53.5659 -73.7554 25.6182)
(65.1876 -94.4284 31.8427)
(83.1527 -114.439 47.0158)
(75.5504 -105.299 37.0945)
(72.6101 -103.835 41.4169)
(75.1342 -122.179 29.5975)
(73.4037 -110.547 26.6207)
(62.3963 -101.116 19.6906)
(69.1821 -106.538 29.6425)
(91.0488 -137.862 44.4416)
(80.4778 -128.355 38.5632)
(79.7621 -116.925 35.3733)
(67.7336 -118.982 37.4315)
(63.9212 -106.014 39.404)
(58.0628 -96.4508 30.072)
(66.7341 -105.594 34.2274)
(82.7193 -136.698 51.6107)
(76.8273 -127.78 42.3001)
(73.1649 -114.995 43.5114)
(53.1209 -78.1148 64.9535)
(65.0386 -92.441 82.8092)
(62.2494 -88.5136 67.852)
(65.5267 -103.77 84.5887)
(63.1515 -99.7638 69.4603)
(72.8068 -109.608 73.0332)
(75.359 -113.482 87.4376)
(65.8377 -90.276 47.6241)
(81.0395 -106.53 63.9214)
(69.6156 -95.5693 59.2512)
(88.5189 -121.022 58.5299)
(77.3221 -110.425 53.2377)
(80.8669 -115.69 65.0271)
(92.5765 -126.279 70.1897)
(67.4736 -112.461 51.1797)
(79.5539 -139.66 69.5674)
(70.3829 -117.746 62.6297)
(86.7472 -143.068 62.8207)
(77.2474 -121.444 55.1614)
(80.4648 -126.713 66.8459)
(90.089 -148.337 74.4997)
(76.2416 -115.651 39.3268)
(97.5337 -147.021 53.5366)
(92.7598 -145.856 57.7444)
(93.7788 -134.761 55.1567)
(86.7175 -137.392 47.699)
(86.9516 -126.021 44.9714)
(83.0997 -124.7 48.9125)
(0.000104419 -0.000337354 6.14944e-06)
(7.92066e-06 -2.33298e-05 1.68328e-06)
(2.02375e-06 -5.34228e-06 3.34535e-07)
(3.35721e-07 -7.0231e-07 3.90787e-08)
(4.10488e-08 -7.37215e-08 3.7299e-09)
(3.97789e-09 -5.91713e-09 2.85189e-10)
(2.73288e-10 -3.8503e-10 1.8231e-11)
(4.06547 -12.1698 0.160908)
(0.000236192 -0.000692131 2.0226e-05)
(2.61799e-05 -7.04773e-05 3.33257e-06)
(7.54104e-06 -1.37879e-05 9.54705e-07)
(9.23304e-07 -1.54921e-06 8.92111e-08)
(8.83524e-08 -1.25288e-07 6.58536e-09)
(5.98668e-09 -8.03147e-09 4.06929e-10)
(108.259 -287.425 6.08351)
(0.782078 -1.94222 0.021565)
(0.00296002 -0.00771224 0.000106699)
(0.00015019 -0.000315889 9.89188e-06)
(2.03868e-05 -2.85066e-05 2.17417e-06)
(1.78843e-06 -2.23521e-06 1.42743e-07)
(1.17511e-07 -1.37164e-07 8.24363e-09)
(145.756 -373.73 11.752)
(182.347 -355.181 9.07424)
(80.1172 -126.286 2.30251)
(0.120601 -0.210166 0.00229185)
(0.000536642 -0.000662333 2.06858e-05)
(3.79256e-05 -3.95831e-05 3.37256e-06)
(2.06971e-06 -2.03575e-06 1.52316e-07)
(125.611 -290.381 13.38)
(163.193 -293.907 12.4982)
(220.115 -332.42 10.7759)
(218.985 -282.953 6.51472)
(1.07557 -1.31628 0.0166389)
(0.00108886 -0.000959004 3.68199e-05)
(3.12664e-05 -2.74987e-05 2.65251e-06)
(104.605 -223.848 11.5808)
(142.964 -225.852 11.9379)
(184.654 -246.887 12.4571)
(238.019 -275.221 11.0536)
(275.658 -280.066 7.68645)
(1.46444 -1.25964 0.0188977)
(0.000695591 -0.000490885 2.08698e-05)
(98.1195 -160.505 10.8618)
(154.252 -181.004 10.9869)
(207.634 -212.364 12.1005)
(269.451 -241.951 10.991)
(288.168 -230.875 6.77128)
(0.301003 -0.182126 0.00324084)
(108.444 -123.91 7.45555)
(174.544 -157.315 10.586)
(240.805 -188.079 12.2722)
(322.914 -222.404 10.7176)
(164.115 -107.496 3.04431)
(9.58367e-06 -3.49507e-05 7.43153e-06)
(2.84812e-06 -7.86634e-06 1.834e-06)
(8.00349e-07 -2.28291e-06 5.35765e-07)
(1.22197e-07 -2.76228e-07 7.23417e-08)
(1.57304e-08 -2.87898e-08 7.77046e-09)
(1.54692e-09 -2.30693e-09 6.40638e-10)
(1.0716e-10 -1.50658e-10 4.31796e-11)
(0.000481956 -0.00207531 0.000369567)
(7.39647e-05 -0.000264023 3.89269e-05)
(1.25401e-05 -3.28398e-05 6.66044e-06)
(2.81734e-06 -5.41121e-06 1.39478e-06)
(3.5359e-07 -6.00412e-07 1.62472e-07)
(3.42899e-08 -4.89414e-08 1.36613e-08)
(2.33051e-09 -3.13846e-09 9.04699e-10)
(9.40132 -26.7108 6.57635)
(0.120233 -0.320494 0.0618626)
(0.000814693 -0.00205488 0.000362722)
(4.18666e-05 -8.4408e-05 1.50288e-05)
(6.64753e-06 -9.4902e-06 2.62238e-06)
(6.66921e-07 -8.25795e-07 2.49934e-07)
(4.57109e-08 -5.36079e-08 1.6899e-08)
(146.34 -376.579 98.2205)
(164.886 -327.89 84.974)
(19.3119 -33.4274 8.48807)
(0.0183289 -0.0325548 0.00519292)
(0.000180138 -0.000238863 4.70221e-05)
(1.13002e-05 -1.18596e-05 3.55412e-06)
(7.55572e-07 -7.57889e-07 2.64289e-07)
(120.645 -284.195 75.7401)
(163.913 -299.505 82.5257)
(225.467 -340.907 91.7633)
(162.13 -207.368 56.8951)
(0.161745 -0.200855 0.0469648)
(0.000371666 -0.000307237 7.39727e-05)
(9.84563e-06 -8.66721e-06 3.02396e-06)
(96.3676 -197.82 53.4497)
(136.913 -224.005 61.6828)
(185.721 -251.177 74.5134)
(246.571 -286.783 84.4301)
(235.487 -239.69 70.9595)
(0.224729 -0.192021 0.0543126)
(0.000260337 -0.000175419 4.74649e-05)
(97.4729 -140.324 41.1933)
(150.512 -180.162 54.2821)
(210.395 -215.626 71.0576)
(280.068 -250.914 83.6162)
(222.514 -179.033 60.6935)
(0.0475166 -0.0283464 0.00881047)
(92.404 -87.2522 45.3079)
(173.833 -154.757 53.3786)
(245.02 -190.209 73.1094)
(335.546 -230.305 89.5698)
(55.599 -34.9579 14.5221)
(2.08379e-06 -7.21717e-06 2.3418e-06)
(7.5995e-07 -2.46684e-06 6.6832e-07)
(1.55305e-07 -4.03479e-07 1.13135e-07)
(2.54155e-08 -5.65563e-08 1.53708e-08)
(3.2005e-09 -5.82716e-09 1.57302e-09)
(3.07434e-10 -4.52658e-10 1.25943e-10)
(2.09433e-11 -2.92576e-11 8.42234e-12)
(5.26329e-05 -0.000241024 5.75636e-05)
(1.00852e-05 -3.43471e-05 8.98623e-06)
(3.58043e-06 -8.28784e-06 2.58717e-06)
(5.87744e-07 -1.24461e-06 3.55829e-07)
(7.36371e-08 -1.33416e-07 3.62599e-08)
(6.8835e-09 -9.8613e-09 2.76331e-09)
(4.55418e-10 -6.10507e-10 1.77188e-10)
(0.0187742 -0.0685424 0.0247867)
(0.0011833 -0.00391982 0.00107267)
(0.000104454 -0.000268161 7.0305e-05)
(1.50997e-05 -2.66511e-05 8.89522e-06)
(1.72759e-06 -2.8564e-06 8.58139e-07)
(1.49386e-07 -1.92721e-07 5.81437e-08)
(9.20224e-09 -1.07608e-08 3.44022e-09)
(123.412 -326.901 150.231)
(46.8332 -91.5326 42.8834)
(0.175869 -0.387465 0.134816)
(0.000803376 -0.00131979 0.000461239)
(2.43295e-05 -3.35174e-05 1.13026e-05)
(3.33823e-06 -3.63894e-06 1.26643e-06)
(1.78929e-07 -1.73282e-07 6.23243e-08)
(122.765 -296.675 146.965)
(175.407 -332.353 162.11)
(197.451 -302.092 145.627)
(5.62532 -8.20674 3.48762)
(0.00184897 -0.00232676 0.000837655)
(3.90415e-05 -3.77236e-05 1.47368e-05)
(3.23452e-06 -2.53581e-06 1.08481e-06)
(104.902 -221.35 102.878)
(137.62 -205.747 140.631)
(194.146 -266.41 143.923)
(254.561 -297.079 159.106)
(22.5365 -23.108 11.9357)
(0.00252026 -0.0021403 0.000922831)
(3.169e-05 -2.20217e-05 1.12804e-05)
(114.854 -156.704 86.3074)
(169.533 -203.499 115.716)
(222.911 -228.698 139.129)
(291.947 -261.685 158.873)
(11.1915 -8.21135 4.91712)
(0.001179 -0.000696231 0.000413028)
(113.069 -104.68 94.661)
(172.561 -136.569 90.2336)
(259.575 -199.538 142.131)
(307.119 -211.214 149.779)
(0.733727 -0.357389 0.264673)
(3.67716e-07 -1.29591e-06 4.74846e-07)
(1.03024e-07 -3.15126e-07 1.17535e-07)
(2.13461e-08 -5.81614e-08 2.0818e-08)
(3.50576e-09 -7.99063e-09 2.77908e-09)
(4.3221e-10 -7.84666e-10 2.76916e-10)
(4.09214e-11 -6.00024e-11 2.17888e-11)
(2.7588e-12 -3.8505e-12 1.41374e-12)
(7.81564e-06 -2.6264e-05 1.17602e-05)
(2.27806e-06 -6.24768e-06 2.7481e-06)
(4.98461e-07 -1.27958e-06 4.92867e-07)
(8.27434e-08 -1.89611e-07 6.61322e-08)
(1.00177e-08 -1.80092e-08 6.37532e-09)
(9.17736e-10 -1.3118e-09 4.79721e-10)
(6.02045e-11 -8.08833e-11 3.05187e-11)
(0.000340729 -0.00119466 0.00059646)
(4.48415e-05 -0.000149748 6.25982e-05)
(1.27211e-05 -2.68949e-05 1.31131e-05)
(2.01031e-06 -4.14397e-06 1.64217e-06)
(2.31614e-07 -3.7606e-07 1.46906e-07)
(1.96174e-08 -2.51127e-08 9.99379e-09)
(1.2177e-09 -1.43362e-09 5.93303e-10)
(0.310019 -0.968424 0.596428)
(0.0373183 -0.0967921 0.0499556)
(0.000656368 -0.00129158 0.000708831)
(3.01099e-05 -5.27051e-05 2.55621e-05)
(5.23113e-06 -6.69815e-06 3.39911e-06)
(4.09678e-07 -4.46194e-07 2.06976e-07)
(2.31479e-08 -2.28628e-08 1.06916e-08)
(131.109 -328.677 241.21)
(132.248 -254.456 181.55)
(4.11545 -7.34059 4.57404)
(0.00389456 -0.00621248 0.00345127)
(7.07179e-05 -8.39725e-05 4.83696e-05)
(6.96372e-06 -6.28592e-06 3.84024e-06)
(3.9575e-07 -3.10186e-07 1.77205e-07)
(93.8958 -176.269 125.233)
(139.876 -210.683 160.135)
(210.609 -292.174 231.721)
(51.2726 -60.0711 45.5017)
(0.0147543 -0.0151947 0.0103813)
(8.43494e-05 -6.62293e-05 4.78314e-05)
(5.01596e-06 -3.37661e-06 2.45914e-06)
(87.5084 -140.051 111.335)
(106.289 -135.369 130.601)
(160.771 -172.919 147.397)
(251.743 -258.599 232.548)
(68.8178 -61.7463 53.3724)
(0.00806494 -0.00549334 0.00465266)
(4.05521e-05 -2.25791e-05 2.08044e-05)
(91.2344 -91.1005 120.892)
(136.76 -124.189 164.676)
(190.818 -149.188 151.046)
(287.302 -218.618 232.182)
(12.6406 -7.74354 8.19267)
(0.00111306 -0.000520767 0.000586042)
(150.631 -98.6132 116.538)
(239.589 -128.729 174.654)
(0.110104 -0.0409922 0.0840215)
(0.00041084 -0.000176326 0.000293888)
(4.33459e-08 -1.40001e-07 5.97898e-08)
(1.11761e-08 -3.32183e-08 1.45999e-08)
(2.28497e-09 -6.02762e-09 2.63546e-09)
(3.68541e-10 -7.98407e-10 3.48371e-10)
(4.49183e-11 -7.81448e-11 3.45006e-11)
(4.2194e-12 -6.06191e-12 2.69531e-12)
(2.81665e-13 -3.91021e-13 1.56068e-13)
(9.76401e-07 -3.25024e-06 1.51709e-06)
(2.39597e-07 -6.6293e-07 3.24178e-07)
(4.97332e-08 -1.28456e-07 5.97608e-08)
(8.05887e-09 -1.74304e-08 7.99134e-09)
(9.78962e-10 -1.683e-09 7.73396e-10)
(9.09605e-11 -1.27298e-10 5.88199e-11)
(6.06825e-12 -8.09307e-12 3.75646e-12)
(1.19368e-05 -3.65519e-05 2.12814e-05)
(4.50254e-06 -1.03338e-05 6.37754e-06)
(1.09074e-06 -2.61634e-06 1.39165e-06)
(1.69783e-07 -3.39694e-07 1.81087e-07)
(2.0101e-08 -3.15667e-08 1.65695e-08)
(1.80338e-09 -2.26475e-09 1.18473e-09)
(1.17106e-10 -1.3861e-10 7.2434e-11)
(0.000548003 -0.00156677 0.00109161)
(9.44783e-05 -0.000245366 0.000190511)
(1.55407e-05 -3.05109e-05 2.15235e-05)
(3.65279e-06 -5.83725e-06 4.05997e-06)
(4.01019e-07 -5.43124e-07 3.47729e-07)
(3.35306e-08 -3.64431e-08 2.25469e-08)
(2.06369e-09 -2.08519e-09 1.26773e-09)
(0.31921 -0.849148 0.774631)
(0.068136 -0.147229 0.132222)
(0.000784208 -0.00138247 0.00120963)
(4.21454e-05 -6.14255e-05 4.96754e-05)
(6.56277e-06 -7.13411e-06 5.85217e-06)
(5.59418e-07 -4.97176e-07 3.90157e-07)
(3.23595e-08 -2.64246e-08 1.97651e-08)
(117.624 -267.704 229.544)
(110.112 -194.445 179.997)
(3.0801 -4.50375 4.72472)
(0.00405335 -0.00532385 0.00545538)
(7.77042e-05 -7.32798e-05 7.3898e-05)
(6.71624e-06 -4.99134e-06 4.95512e-06)
(4.07868e-07 -2.6085e-07 2.51602e-07)
(96.4748 -185.92 175.142)
(119.7 -158.895 168.823)
(183.403 -225.789 233.313)
(14.708 -15.2138 17.7727)
(0.00604719 -0.00507202 0.00642339)
(5.54565e-05 -3.51716e-05 4.35717e-05)
(3.62553e-06 -1.93114e-06 2.41173e-06)
(89.3392 -104.716 149.645)
(124.541 -124.319 155.232)
(143.58 -130.015 165.695)
(220.738 -192.722 233.04)
(6.8243 -4.91462 7.23427)
(0.00151312 -0.000834197 0.00125969)
(1.76473e-05 -9.09848e-06 1.26777e-05)
(180.94 -110.823 173.122)
(0.0896896 -0.0405181 0.0685734)
(0.000737093 -0.000326646 0.000503277)
(2.94404e-05 -1.2843e-05 2.26857e-05)
(4.79607e-09 -1.49342e-08 6.69873e-09)
(1.15887e-09 -3.42601e-09 1.57361e-09)
(2.28699e-10 -5.76139e-10 2.74681e-10)
(3.50662e-11 -7.17698e-11 3.54031e-11)
(4.08597e-12 -6.8458e-12 3.45399e-12)
(3.49946e-13 -5.22959e-13 2.50652e-13)
(1.65503e-14 -2.61402e-14 1.00539e-14)
(9.9599e-08 -3.13893e-07 1.44715e-07)
(2.46948e-08 -7.06602e-08 3.3279e-08)
(4.83893e-09 -1.20195e-08 5.89303e-09)
(7.41711e-10 -1.50876e-09 7.663e-10)
(8.66245e-11 -1.42509e-10 7.4314e-11)
(7.92222e-12 -1.08605e-11 5.74412e-12)
(5.24816e-13 -6.67283e-13 3.48021e-13)
(2.106e-06 -6.44284e-06 3.34492e-06)
(4.81409e-07 -1.21732e-06 6.36138e-07)
(9.5243e-08 -2.12841e-07 1.17605e-07)
(1.45288e-08 -2.7153e-08 1.54867e-08)
(1.68156e-09 -2.51466e-09 1.47043e-09)
(1.51153e-10 -1.86506e-10 1.10328e-10)
(9.94752e-12 -1.17845e-11 6.99306e-12)
(2.72617e-05 -7.4264e-05 4.43245e-05)
(8.45482e-06 -1.76303e-05 1.05306e-05)
(1.77084e-06 -3.37928e-06 2.33895e-06)
(2.66974e-07 -4.45778e-07 2.98537e-07)
(3.02647e-08 -3.99538e-08 2.72131e-08)
(2.63131e-09 -2.84248e-09 1.93374e-09)
(1.68764e-10 -1.73662e-10 1.17837e-10)
(0.000186269 -0.000508094 0.000326308)
(0.000148709 -0.00034337 0.000249837)
(2.92312e-05 -4.5245e-05 3.43295e-05)
(4.51815e-06 -6.63426e-06 4.90043e-06)
(4.93353e-07 -5.44303e-07 4.50057e-07)
(4.08003e-08 -3.68813e-08 3.02212e-08)
(2.52129e-09 -2.16174e-09 1.7299e-09)
(0.501914 -1.11506 0.790785)
(0.0404583 -0.0760923 0.0614836)
(0.000854989 -0.00116374 0.00102178)
(4.68335e-05 -5.46011e-05 4.8334e-05)
(7.05638e-06 -6.18801e-06 5.66759e-06)
(5.23498e-07 -3.79098e-07 3.83269e-07)
(3.12627e-08 -2.14131e-08 2.08958e-08)
(117.208 -225.31 182.526)
(88.9222 -131.52 106.529)
(0.64526 -0.842486 0.821966)
(0.00165993 -0.00165351 0.00176996)
(5.63949e-05 -4.30398e-05 4.68668e-05)
(5.24334e-06 -3.01893e-06 3.55043e-06)
(2.91173e-07 -1.62103e-07 1.87004e-07)
(98.8501 -124.005 140.226)
(122.003 -135.571 150.603)
(187.146 -170.072 186.706)
(1.06442 -0.908325 1.08226)
(0.00118019 -0.000819474 0.000978804)
(2.88196e-05 -1.56959e-05 1.91465e-05)
(1.87143e-06 -9.28825e-07 1.15019e-06)
(178.431 -153.748 179.486)
(216.624 -134.233 182.635)
(0.00110771 -0.000588849 0.000813094)
(6.63761e-05 -2.36442e-05 4.322e-05)
(1.04663e-05 -4.41582e-06 6.23404e-06)
(4.29445e-10 -1.29804e-09 6.94536e-10)
(9.89934e-11 -2.84794e-10 1.55672e-10)
(1.8997e-11 -4.55578e-11 2.56615e-11)
(2.76836e-12 -5.46377e-12 3.13319e-12)
(2.84068e-13 -5.07183e-13 2.76097e-13)
(1.67463e-14 -3.01618e-14 1.46942e-14)
(0 0 0)
(8.68277e-09 -2.62881e-08 1.43185e-08)
(2.04201e-09 -5.82431e-09 3.24164e-09)
(3.90325e-10 -9.3512e-10 5.37733e-10)
(5.76157e-11 -1.11933e-10 6.63842e-11)
(6.51898e-12 -1.04093e-11 6.2882e-12)
(5.55439e-13 -7.62068e-13 4.62017e-13)
(2.92338e-14 -3.95948e-14 2.1964e-14)
(1.64753e-07 -4.72664e-07 2.83103e-07)
(3.92188e-08 -1.02085e-07 6.25623e-08)
(7.45978e-09 -1.63258e-08 1.03608e-08)
(1.09221e-09 -1.94471e-09 1.28053e-09)
(1.22913e-10 -1.78088e-10 1.19986e-10)
(1.09897e-11 -1.33997e-11 9.10972e-12)
(7.24657e-13 -8.29961e-13 5.63253e-13)
(3.1901e-06 -8.86826e-06 6.01155e-06)
(7.04586e-07 -1.59969e-06 1.0974e-06)
(1.3239e-07 -2.54876e-07 1.82689e-07)
(1.91161e-08 -3.04105e-08 2.27716e-08)
(2.11463e-09 -2.71826e-09 2.08552e-09)
(1.85178e-10 -1.99282e-10 1.54002e-10)
(1.20902e-11 -1.2577e-11 9.71203e-12)
(2.73684e-05 -7.02702e-05 5.71348e-05)
(1.14411e-05 -2.0253e-05 1.64851e-05)
(2.09693e-06 -3.3969e-06 2.7789e-06)
(3.0139e-07 -4.13486e-07 3.63285e-07)
(3.25659e-08 -3.57308e-08 3.22744e-08)
(2.76408e-09 -2.53601e-09 2.29141e-09)
(1.76313e-10 -1.5618e-10 1.39953e-10)
(0.000176621 -0.000378185 0.000395485)
(0.000169124 -0.000309217 0.0002699)
(2.89414e-05 -3.85596e-05 3.68243e-05)
(4.1985e-06 -4.67417e-06 5.12233e-06)
(4.27111e-07 -3.80781e-07 4.1451e-07)
(3.49048e-08 -2.6185e-08 2.84644e-08)
(2.17447e-09 -1.57444e-09 1.68245e-09)
(0.28597 -0.513635 0.588066)
(0.0300194 -0.0462639 0.0481427)
(0.000721203 -0.000833391 0.000944063)
(4.30007e-05 -3.88394e-05 4.51684e-05)
(4.34904e-06 -3.16848e-06 4.18426e-06)
(3.432e-07 -2.08444e-07 2.69167e-07)
(2.11476e-08 -1.23346e-08 1.57091e-08)
(105.46 -173.588 207.078)
(38.4448 -47.8969 54.1965)
(0.157105 -0.166852 0.21425)
(0.000899326 -0.000706107 0.000939961)
(2.84328e-05 -1.79994e-05 2.49966e-05)
(2.42192e-06 -1.25641e-06 1.81243e-06)
(1.52926e-07 -7.33817e-08 1.0956e-07)
(160.171 -116.191 199.784)
(3.88327 -2.5609 4.31782)
(5.3448e-05 -1.96049e-05 4.66577e-05)
(1.3079e-05 -6.01067e-06 1.01493e-05)
(8.43021e-07 -3.5123e-07 6.01795e-07)
(3.08738e-11 -8.99682e-11 5.86138e-11)
(6.89463e-12 -1.93113e-11 1.26795e-11)
(1.26695e-12 -3.0004e-12 1.97552e-12)
(1.58115e-13 -3.4369e-13 2.12911e-13)
(9.49182e-15 -2.52122e-14 1.35341e-14)
(2.42832e-16 0 0)
(0 0 0)
(6.05272e-10 -1.76617e-09 1.18137e-09)
(1.3799e-10 -3.82525e-10 2.58007e-10)
(2.60476e-11 -6.0013e-11 4.10612e-11)
(3.73886e-12 -7.04749e-12 4.88583e-12)
(3.86697e-13 -6.2682e-13 4.31933e-13)
(2.49889e-14 -3.5453e-14 2.42068e-14)
(0 0 0)
(1.08919e-08 -2.92055e-08 2.1938e-08)
(2.52386e-09 -6.41772e-09 4.84247e-09)
(4.76739e-10 -1.01137e-09 7.71072e-10)
(6.90287e-11 -1.18829e-10 9.18289e-11)
(7.70106e-12 -1.09415e-11 8.51909e-12)
(6.59847e-13 -8.00317e-13 6.26283e-13)
(3.72769e-14 -4.03633e-14 3.2714e-14)
(1.80098e-07 -4.43088e-07 3.87936e-07)
(4.26149e-08 -9.65478e-08 8.35833e-08)
(8.02938e-09 -1.52674e-08 1.3264e-08)
(1.15547e-09 -1.78401e-09 1.57019e-09)
(1.27981e-10 -1.61887e-10 1.4335e-10)
(1.1348e-11 -1.21932e-11 1.07734e-11)
(7.44919e-13 -7.5714e-13 6.65184e-13)
(2.83179e-06 -6.32616e-06 6.86886e-06)
(6.43516e-07 -1.22985e-06 1.26684e-06)
(1.21139e-07 -1.97836e-07 2.0158e-07)
(1.72896e-08 -2.31494e-08 2.39319e-08)
(1.88636e-09 -2.06039e-09 2.13573e-09)
(1.64368e-10 -1.52319e-10 1.56636e-10)
(1.07747e-11 -9.74864e-12 9.89942e-12)
(2.37255e-05 -4.686e-05 5.6364e-05)
(7.81758e-06 -1.20922e-05 1.42074e-05)
(1.52313e-06 -2.03723e-06 2.52316e-06)
(2.20256e-07 -2.44316e-07 3.08653e-07)
(2.37274e-08 -2.14603e-08 2.69262e-08)
(2.02399e-09 -1.55742e-09 1.92416e-09)
(1.30611e-10 -9.85603e-11 1.1908e-10)
(4.88553e-05 -9.1391e-05 0.000148891)
(7.24941e-05 -0.000106122 0.000146247)
(1.38426e-05 -1.48786e-05 2.15399e-05)
(2.13496e-06 -1.90495e-06 2.94733e-06)
(2.34837e-07 -1.71332e-07 2.64303e-07)
(1.99133e-08 -1.23662e-08 1.872e-08)
(1.27487e-09 -7.77892e-10 1.14283e-09)
(0.0117334 -0.0200199 0.0337557)
(0.00256589 -0.00337674 0.00553107)
(0.000145949 -0.000144349 0.00025673)
(1.35143e-05 -1.03053e-05 1.75868e-05)
(1.63553e-06 -1.01316e-06 1.85044e-06)
(1.44624e-07 -7.37005e-08 1.35654e-07)
(9.36482e-09 -4.63652e-09 8.31468e-09)
(0.130674 -0.0982132 0.221698)
(2.66399e-05 -1.27868e-05 3.49542e-05)
(8.28321e-06 -4.48195e-06 9.47623e-06)
(7.65765e-07 -3.46932e-07 7.36932e-07)
(4.95844e-08 -2.20175e-08 4.42529e-08)
(1.83276e-12 -5.27087e-12 4.02058e-12)
(3.76483e-13 -1.10856e-12 8.19937e-13)
(5.50353e-14 -1.59471e-13 1.11985e-13)
(2.86654e-15 -1.12913e-14 7.03776e-15)
(1.0427e-16 0 0)
(2.18934e-18 0 0)
(0 0 0)
(3.5704e-11 -1.00728e-10 7.95335e-11)
(7.98514e-12 -2.15641e-11 1.70174e-11)
(1.46326e-12 -3.30322e-12 2.61457e-12)
(1.80498e-13 -3.58008e-13 2.83908e-13)
(1.21015e-14 -2.47332e-14 2.04172e-14)
(2.5166e-16 0 0)
(0 0 0)
(6.15569e-10 -1.59135e-09 1.41874e-09)
(1.40519e-10 -3.46179e-10 3.07184e-10)
(2.64904e-11 -5.43839e-11 4.8153e-11)
(3.78663e-12 -6.37554e-12 5.64737e-12)
(3.91236e-13 -5.64987e-13 5.00067e-13)
(2.64465e-14 -3.11594e-14 3.10125e-14)
(0 0 0)
(9.54271e-09 -2.20102e-08 2.28916e-08)
(2.23433e-09 -4.90879e-09 5.04186e-09)
(4.23417e-10 -7.84278e-10 7.96676e-10)
(6.141e-11 -9.26546e-11 9.3621e-11)
(6.84836e-12 -8.57052e-12 8.62187e-12)
(5.81307e-13 -6.26822e-13 6.29377e-13)
(3.10899e-14 -3.07085e-14 3.17859e-14)
(1.27916e-07 -2.54418e-07 3.27616e-07)
(3.13361e-08 -5.8821e-08 7.28533e-08)
(5.98779e-09 -9.67572e-09 1.16737e-08)
(8.73129e-10 -1.15119e-09 1.36966e-09)
(9.74278e-11 -1.06157e-10 1.24568e-10)
(8.69856e-12 -8.13426e-12 9.40492e-12)
(5.7756e-13 -5.00368e-13 5.82278e-13)
(1.40397e-06 -2.39101e-06 3.9245e-06)
(3.63175e-07 -5.57834e-07 8.52165e-07)
(7.10421e-08 -9.54431e-08 1.43047e-07)
(1.05282e-08 -1.16477e-08 1.70096e-08)
(1.17622e-09 -1.07483e-09 1.52862e-09)
(1.04607e-10 -8.21929e-11 1.13694e-10)
(6.97929e-12 -5.4087e-12 7.29444e-12)
(9.37783e-06 -1.42509e-05 2.36898e-05)
(3.04607e-06 -3.69499e-06 7.2542e-06)
(6.39574e-07 -6.89801e-07 1.30308e-06)
(9.89656e-08 -8.85267e-08 1.64507e-07)
(1.13175e-08 -8.37937e-09 1.49461e-08)
(1.00974e-09 -6.46083e-10 1.10452e-09)
(6.74171e-11 -4.30819e-11 7.06705e-11)
(1.60417e-05 -2.74869e-05 5.62633e-05)
(1.7641e-05 -1.87409e-05 3.93208e-05)
(3.64484e-06 -3.39823e-06 7.47039e-06)
(6.46062e-07 -4.86286e-07 1.08689e-06)
(7.85806e-08 -4.82982e-08 1.06884e-07)
(7.27628e-09 -3.80725e-09 8.06925e-09)
(4.94729e-10 -2.57894e-10 5.20326e-10)
(1.69823e-05 -1.31841e-05 3.15298e-05)
(2.86286e-06 -1.99203e-06 5.06281e-06)
(3.84527e-07 -2.18029e-07 5.47529e-07)
(3.71008e-08 -1.78534e-08 4.21928e-08)
(2.59215e-09 -1.22835e-09 2.7577e-09)
(6.66653e-14 -2.62794e-13 2.12138e-13)
(8.48732e-15 -4.47014e-14 3.54208e-14)
(6.27517e-16 -2.16546e-15 2.32014e-15)
(2.67459e-17 0 0)
(7.2176e-19 0 0)
(1.11007e-20 0 0)
(0 0 0)
(1.79811e-12 -5.00751e-12 4.16978e-12)
(3.67842e-13 -1.03153e-12 8.76317e-13)
(5.27971e-14 -1.4091e-13 1.25829e-13)
(2.9024e-15 -8.04315e-15 9.04854e-15)
(8.02637e-17 0 0)
(1.34442e-18 0 0)
(0 0 0)
(3.07324e-11 -7.70495e-11 7.2393e-11)
(6.93512e-12 -1.66936e-11 1.55358e-11)
(1.27668e-12 -2.57242e-12 2.40722e-12)
(1.58689e-13 -2.75323e-13 2.73158e-13)
(9.20383e-15 -1.65503e-14 2.00305e-14)
(1.60788e-16 0 0)
(0 0 0)
(4.57039e-10 -1.02182e-09 1.12345e-09)
(1.05646e-10 -2.26878e-10 2.45303e-10)
(2.01498e-11 -3.63131e-11 3.86282e-11)
(2.90019e-12 -4.31268e-12 4.54933e-12)
(2.94271e-13 -3.74161e-13 4.1778e-13)
(1.76744e-14 -1.87158e-14 2.52895e-14)
(0 0 0)
(5.81768e-09 -1.11993e-08 1.49823e-08)
(1.39619e-09 -2.58632e-09 3.38359e-09)
(2.70787e-10 -4.28555e-10 5.44488e-10)
(4.00863e-11 -5.21388e-11 6.44657e-11)
(4.52546e-12 -4.92798e-12 5.98008e-12)
(3.78294e-13 -3.54517e-13 4.55985e-13)
(1.80971e-14 -1.29928e-14 2.2892e-14)
(5.89134e-08 -9.61657e-08 1.58542e-07)
(1.52715e-08 -2.32979e-08 3.83446e-08)
(3.03991e-09 -4.05497e-09 6.44342e-09)
(4.61477e-10 -5.09296e-10 7.74518e-10)
(5.31959e-11 -4.91395e-11 7.16915e-11)
(4.8656e-12 -3.89026e-12 5.5135e-12)
(3.25129e-13 -2.32787e-13 3.556e-13)
(4.33249e-07 -6.38631e-07 1.18544e-06)
(1.27775e-07 -1.54699e-07 3.29289e-07)
(2.64007e-08 -2.86177e-08 5.84632e-08)
(4.18611e-09 -3.78602e-09 7.35953e-09)
(4.97568e-10 -3.7734e-10 6.90215e-10)
(4.6502e-11 -3.06777e-11 5.31615e-11)
(3.20999e-12 -2.08534e-12 3.5321e-12)
(2.42559e-06 -3.00726e-06 6.89622e-06)
(7.36738e-07 -7.72268e-07 1.77936e-06)
(1.59595e-07 -1.47158e-07 3.60506e-07)
(2.7252e-08 -2.06332e-08 4.96365e-08)
(3.43256e-09 -2.16055e-09 4.92584e-09)
(3.33748e-10 -1.81096e-10 3.88887e-10)
(2.36391e-11 -1.27868e-11 2.62591e-11)
(7.17425e-07 -5.78997e-07 1.46146e-06)
(1.22383e-07 -8.87759e-08 2.31545e-07)
(1.65813e-08 -9.83474e-09 2.46844e-08)
(1.7024e-09 -8.49152e-10 2.02584e-09)
(1.26108e-10 -5.9957e-11 1.4206e-10)
(140.486 -174.193 10.479)
(56.7215 -106.862 1.21995)
(103.403 -130.912 9.25539)
(96.7798 -139.666 30.7853)
(136.607 -169.663 39.2793)
(54.99 -81.8315 5.59263)
(99.1792 -113.951 26.8931)
(158.261 -148.238 9.64725)
(71.0996 -69.9517 -2.65924)
(133.255 -105.995 9.15414)
(101.791 -108.767 26.8092)
(154.908 -143.995 37.4803)
(61.8799 -61.9184 5.74643)
(119.631 -101.514 27.4247)
(133.386 -223.058 11.8511)
(64.7454 -169.676 5.05467)
(98.685 -173.808 10.9033)
(98.5183 -199.631 42.8348)
(127.793 -217.822 46.1984)
(65.8325 -133.311 16.8607)
(97.1999 -151.764 32.9461)
(75.8526 -74.0498 0.0894029)
(87.7758 -91.1612 2.9016)
(95.419 -85.8818 3.68644)
(82.9684 -86.5766 1.28012)
(90.2048 -82.7708 1.90577)
(100.963 -98.4228 5.90684)
(106.406 -101.193 5.58119)
(136.483 -170.269 50.8632)
(58.1645 -81.3413 15.8063)
(100.857 -115.21 37.0689)
(115.029 -164.197 71.4863)
(151.545 -189.469 92.6676)
(83.325 -105.629 45.916)
(123.796 -138.836 66.8416)
(73.2234 -70.4044 24.2009)
(103.881 -110.068 36.7319)
(155.865 -144.459 49.0727)
(121.983 -102.395 37.5383)
(127.821 -133.111 66.544)
(175.111 -161.577 90.3985)
(128.787 -111.158 59.5395)
(54.7356 -100.317 -2.02695)
(72.8916 -114.778 4.51936)
(71.1036 -108.377 2.38955)
(71.4023 -125.823 5.21365)
(70.1641 -119.041 3.16097)
(85.9978 -126.108 7.28508)
(85.9243 -132.38 8.41148)
(65.4216 -65.3202 2.00705)
(74.9815 -77.004 13.328)
(80.635 -75.7831 13.5919)
(78.0193 -81.571 8.63294)
(84.7911 -79.0918 8.80892)
(96.4827 -94.2014 15.1412)
(93.096 -90.08 21.0127)
(54.0733 -90.7812 3.4109)
(69.4216 -92.1592 13.0342)
(69.7188 -100.408 9.60795)
(69.8076 -100.975 14.3527)
(69.7148 -110.31 11.0402)
(84.8809 -118.555 16.5792)
(83.559 -110.426 21.7021)
(125.992 -217.083 58.9035)
(68.0379 -128.992 27.4141)
(90.8154 -150.093 47.9008)
(102.192 -215.227 88.9298)
(133.134 -232.673 104.855)
(91.4281 -158.524 61.1805)
(112.321 -175.303 74.4885)
(70.4522 -73.1547 99.6177)
(108.387 -107.957 159.56)
(95.3276 -99.5046 158.459)
(91.7143 -110.969 105.32)
(119.57 -133.93 116.388)
(100.06 -120.002 161.235)
(146.35 -158.946 175.434)
(75.4813 -119.925 165.8)
(86.446 -116.885 162.841)
(53.7809 -70.0917 156.783)
(89.6086 -147.17 143.632)
(122.264 -165.263 156.488)
(73.4168 -105.809 126.825)
(92.7187 -116.335 134.47)
(64.7242 -161.173 3.45083)
(75.9388 -169.771 7.74702)
(76.6471 -162.016 6.75127)
(79.7142 -189.049 9.19854)
(81.0125 -180.546 9.09662)
(92.2999 -180.113 12.1505)
(89.7438 -188.177 10.5845)
(98.7265 -149.478 115.721)
(68.3848 -98.0083 101.118)
(90.2036 -118.741 106.381)
(93.3177 -177.731 175.725)
(127.078 -200.493 190.026)
(76.0432 -124.013 166.692)
(94.0368 -137.22 165.482)
(193.583 -204.905 12.0407)
(119.167 -138.874 8.60609)
(167.811 -161.75 10.4531)
(150.867 -179.894 41.9406)
(195.661 -207.898 52.5015)
(115.027 -125.631 31.3061)
(165.967 -159.43 40.7621)
(98.6604 -107.677 5.42341)
(108.389 -117.295 10.0648)
(95.2173 -102.401 5.73252)
(112.216 -113.065 10.4144)
(125.47 -131.463 7.50839)
(124.869 -127.466 13.7453)
(116.363 -116.621 6.10221)
(88.2442 -122.744 7.71673)
(104.745 -124.629 10.1222)
(87.7333 -116.656 6.57981)
(102.29 -133.196 10.6457)
(115.007 -146.53 9.81057)
(118.768 -140.037 13.9541)
(100.273 -139.312 10.1839)
(65.3306 -148.088 13.8162)
(75.607 -138.006 22.8307)
(76.4377 -150.622 18.0634)
(78.2354 -154.408 27.7276)
(80.1138 -167.894 22.0627)
(90.5791 -169.778 25.4111)
(87.7965 -159.263 32.1744)
(64.5529 -63.4716 15.5262)
(77.7088 -78.5249 22.668)
(83.3028 -77.195 23.0739)
(86.0897 -85.2134 30.6551)
(91.6908 -83.6846 31.1253)
(95.7726 -91.5237 30.4374)
(103.964 -98.1201 37.9211)
(224.341 -181.066 12.2251)
(151.138 -116.402 9.36423)
(201.96 -147.265 11.1034)
(173.353 -154.719 41.0178)
(228.307 -183.264 53.8362)
(143.141 -117.294 24.6266)
(202.66 -143.999 43.843)
(114.601 -96.1157 7.12392)
(127.457 -108.128 10.5041)
(109.026 -95.3962 6.5205)
(118.469 -110.667 10.3094)
(142.009 -119.697 8.49813)
(136.593 -122.456 13.9789)
(124.859 -109.91 7.51375)
(66.375 -87.3905 25.3774)
(71.8016 -92.4306 23.0621)
(72.2758 -100.597 24.4767)
(79.282 -99.0652 31.6484)
(79.294 -107.129 33.1162)
(85.3208 -110.979 31.8865)
(92.0705 -118.111 39.7291)
(173.249 -240.869 12.4725)
(110.96 -177.019 10.5521)
(151.239 -189.714 11.2087)
(138.605 -224.851 48.3719)
(174.395 -245.805 56.5651)
(112.56 -165.968 28.3812)
(147.36 -189.029 43.0488)
(85.0775 -143.486 8.97222)
(101.158 -153.926 12.2157)
(85.7162 -137.028 8.05436)
(101.132 -142.84 11.4078)
(111.225 -165.344 10.4683)