/*--------------------------------*- C++ -*----------------------------------*\
  =========                 |
  \\      /  F ield         | OpenFOAM: The Open Source CFD Toolbox
   \\    /   O peration     | Website:  https://openfoam.org
    \\  /    A nd           | Version:  9
     \\/     M anipulation  |
\*---------------------------------------------------------------------------*/
FoamFile
{
    format      ascii;
    class       volScalarField;
    location    "0.00095";
    object      p;
}
// * * * * * * * * * * * * * * * * * * * * * * * * * * * * * * * * * * * * * //

dimensions      [1 -1 -2 0 0 0 0];

internalField   nonuniform List<scalar> 
8303
(
471644
437347
101408
621718
101731
576130
925954
800495
711153
911494
722861
914974
928649
929347
938321
751138
957727
946220
927841
940578
912556
876528
910976
645366
920905
673964
276265
255461
696682
598815
923906
913245
659294
241684
681789
224458
850733
566927
891628
621505
161909
213489
531064
524453
851823
892849
607860
150001
190759
519830
261844
101656
112146
110459
110303
282488
108953
219747
104156
103806
101527
107165
106355
166995
378443
329624
604556
638356
765798
572329
588342
882316
314318
378312
388738
437426
447350
498282
490226
354413
424042
405185
483762
462982
513162
537879
543939
717982
448734
553083
457162
581562
729337
578857
769284
764448
822778
819772
646160
655835
493994
571823
471861
601275
803399
756676
636832
606520
804716
782127
849472
833055
677028
713950
884352
763921
847583
859767
902863
771972
903903
871788
924495
820290
881118
912703
792645
827915
590148
414392
509922
840746
1.06963e+06
569034
364544
687740
931069
1.04106e+06
329821
800250
273922
225535
710068
560923
391216
348885
316045
608341
587353
587307
608435
243453
223589
199502
500121
522350
415041
435961
346575
335438
276915
587719
554711
469988
505786
442560
492804
412610
641228
674482
640632
680732
577003
445456
462348
588390
614136
574356
624263
266942
246441
203353
401076
388648
406155
415153
607206
524963
487817
610466
659497
641057
640451
345916
272293
304823
433797
460022
436372
463977
770282
792067
995995
782720
1.00552e+06
940600
801221
946505
612894
852854
957858
719835
625777
865518
795976
838441
703369
714414
805186
848166
696941
781261
750945
551320
572256
757654
791035
561920
733058
733928
888317
820061
864844
758251
713278
801472
842164
983340
1.02745e+06
957601
817276
826113
764067
986344
736181
646135
939527
892868
679352
592477
844859
611052
774089
811823
580390
625588
28858.7
564678
44561
434962
275681
543900
230481
427672
23015.7
69720.3
53960.8
140067
114276
181803
224594
25802.6
86344.3
57859.8
154970
118582
180640
215284
425953
225662
359503
154855
124197
277714
338985
358202
475776
292973
363781
598001
439971
512144
213711
329749
329529
151246
124068
262885
279582
436608
309019
283861
340166
459072
467374
347203
680521
470521
604582
419524
630251
495431
550167
551372
420148
537692
383398
490948
501211
382352
280256
124040
648598
611357
519226
589386
363527
621259
51718.8
108786
178537
195224
258591
332898
289759
499684
505723
311281
528771
368307
404780
531590
499345
334941
491313
208545
263926
422454
404228
434785
641178
451305
515683
678574
673180
515150
406047
547035
495819
510514
354509
448684
537625
561928
597834
479475
512616
618963
621894
567187
740473
615657
748649
572286
705939
703668
569017
586799
653372
682626
548469
632063
649452
575966
8998.25
141635
174379
41691.8
9250.7
440575
481875
110293
32618.7
34910.3
8718.98
8922.1
33599.4
37171.3
8647.29
395357
153195
417547
405026
146710
161282
429213
39784.5
56355.1
13888
8503.4
35226.1
42501.7
9642.91
61798.9
15146.3
9416.04
48287.1
25550.2
10809.1
83052.2
444680
214326
471564
189415
479622
239049
456020
168875
462727
201536
420155
155000
175814
445667
224347
45722.9
163290
64867.1
64644.5
17202.9
134945
256198
499022
325599
215087
489617
277305
468885
101298
104703
101812
388812
101302
101314
408055
101565
670302
230510
616722
321878
191284
118352
111452
164504
531385
239629
120309
149382
106223
103152
101403
102812
151175
103156
129735
102157
101355
105939
101313
101436
101307
101382
104181
101603
101299
101302
101339
101852
102706
101441
101351
102091
101306
105949
114089
101685
101322
101435
5476.84
78089.1
4451.26
8166.7
10043.4
4894.16
5121.8
19306.5
31200.8
5188.96
4831.83
5124.13
5357.86
5050.43
4460.47
4805.94
279603
21896
4414.43
52581.7
5810.89
299926
142691
4969.68
5061.12
4646.76
4797.9
4915.06
4391.05
4404.18
4580.54
6329.4
7677.75
4947.22
4696.19
4721.53
5322.74
4585.58
5065.85
6868.08
5229.19
13796
5937.35
11080.7
4597.84
8026.96
6490.14
4427.31
4562.1
4756.35
5107.93
4676.35
4281.24
4330.19
4841.67
5034.59
6018.08
8557.2
5049.27
4656.71
7357.13
5346.29
18400.9
6186.12
11931
26112.4
117266
91450.9
7462.62
38511.4
9206.73
29209.6
20359.4
115243
91846.8
7853.15
48645.9
10564.7
31129.3
12064
53184.6
15425.2
4481.6
6274.88
6889.5
17377.9
23344.3
6331.74
41802.4
8968.54
16020.1
31836.5
116801
6705.53
46259.6
10203.9
72345
15698.2
32742.8
115765
146559
83681.9
17966.8
235304
135830
72129
176070
70635.7
238328
170570
98016.1
24193.6
76160.8
179081
179527
172995
67568.5
107793
305371
223177
219653
229475
367529
298263
169175
334262
263707
262278
101301
101343
101299
101299
101298
101323
101300
101298
101298
101298
101298
101298
101309
101299
1.39794e+06
350694
102956
101300
1.17539e+06
101298
1.37461e+06
101298
101313
101298
101298
953033
105024
102216
101536
101303
101298
101465
524689
107864
1.28516e+06
107091
514566
1.2947e+06
1.39237e+06
601668
101724
101318
101672
101318
974731
348807
431576
1.32317e+06
1.3599e+06
1.50254e+06
1.04646e+06
138040
101525
101311
912674
303051
120816
447231
101312
101299
1.60823e+06
1.2831e+06
201927
101335
111157
1.62873e+06
737405
166066
101306
101298
101306
101298
256693
102925
123283
101298
101353
1.5462e+06
816125
111295
101356
101298
221242
102332
101347
109553
101298
101298
1.35667e+06
1.28199e+06
1.35532e+06
1.48927e+06
1.4746e+06
1.48056e+06
1.48042e+06
1.36907e+06
1.28396e+06
1.35856e+06
1.49179e+06
1.4837e+06
1.48865e+06
1.48218e+06
105294
101335
455945
101298
101300
168843
101554
1.39384e+06
1.36923e+06
1.43338e+06
1.49635e+06
1.48387e+06
1.46284e+06
1.50645e+06
1.23278e+06
1.35497e+06
1.41944e+06
1.42132e+06
1.47991e+06
1.59576e+06
1.57837e+06
1.49201e+06
1.41093e+06
1.49658e+06
1.39621e+06
952895
1.37914e+06
975565
335099
101298
103326
101298
101298
101398
101298
101311
101298
101298
106029
251933
101301
101298
1.50285e+06
1.40845e+06
1.49936e+06
1.39522e+06
933821
969158
1.3762e+06
1.4324e+06
1.52164e+06
1.4824e+06
1.39965e+06
1.39396e+06
1.2687e+06
1.48284e+06
992449
1.00994e+06
620920
394933
414745
179673
171179
589416
1.00388e+06
616898
374945
407287
178052
166662
1.51216e+06
1.30156e+06
1.52101e+06
857858
1.33451e+06
1.25726e+06
733470
441453
369201
460243
139068
118521
134089
121346
437462
369019
459457
138644
118084
121219
132789
1.43537e+06
1.54132e+06
1.59756e+06
1.41823e+06
1.60385e+06
1.54275e+06
1.10419e+06
1.2027e+06
1.45772e+06
1.51107e+06
1.12801e+06
362988
928306
560831
526612
807691
424945
312410
145338
231279
123401
385234
236459
302787
112577
122071
111782
107225
1.51149e+06
1.50453e+06
1.40842e+06
1.2088e+06
1.04804e+06
719396
907390
101766
101298
101298
102303
101301
1.33424e+06
205185
1.15978e+06
386534
1.26133e+06
552451
1.13314e+06
410520
1.28517e+06
1.15976e+06
551724
374819
1.26143e+06
407640
1.12764e+06
1.28702e+06
1.58982e+06
1.11799e+06
1.56367e+06
1.36169e+06
776579
577694
1.48169e+06
1.55084e+06
1.57704e+06
1.58969e+06
1.50432e+06
1.23229e+06
1.0535e+06
1.58263e+06
886408
1.07418e+06
454837
846793
298085
386176
123411
308252
1.20008e+06
1.05382e+06
927455
319700
224799
1.08959e+06
257612
273529
176386
108867
110088
104014
103581
273567
165355
176379
108756
110066
104009
103546
583883
172048
232957
134240
168368
106633
103868
167310
138725
209691
105516
101957
102533
103608
649520
182587
296089
120286
159843
109941
104017
1.33636e+06
515508
1.11693e+06
199750
649792
353631
123164
173421
144239
122538
106369
103891
102747
102009
754932
1.31926e+06
1.16578e+06
364854
210151
151738
513531
828546
299325
182824
108743
799098
194325
317616
738051
209665
669196
118661
502112
154235
915978
846343
692148
1.39739e+06
1.00607e+06
110582
370628
248627
1.27323e+06
1.35621e+06
1.61838e+06
1.22491e+06
165791
606476
573816
149744
231354
691180
552381
103139
125435
173875
101298
101298
101298
101298
101307
101298
101298
823872
108438
175648
282499
191713
311245
782120
202349
130692
114578
109291
104996
102317
101567
851796
256334
105603
400052
268007
174953
1.05025e+06
129753
103702
109391
101576
102251
101567
101373
1.16858e+06
533835
609926
427353
366037
114475
132254
113956
103281
116358
101817
101353
101364
101736
385059
102012
110706
104486
230309
110984
131021
113777
103275
116341
101816
101352
101729
101363
365142
241575
767021
160476
101804
109283
105094
399020
106105
281893
146449
103503
102298
196429
109977
102145
102941
101454
101589
101351
101326
121676
138887
105324
106370
101936
102338
101420
101298
101298
101298
101298
101298
104735
101310
101442
101298
101298
101298
101298
101298
101298
116055
101779
117943
104048
101373
103709
101384
101759
114287
117226
103981
101367
101382
103524
109505
101795
105463
101332
101578
101433
101314
559146
104173
149079
103427
135896
102901
101392
109765
101343
101415
102738
105610
102007
101320
102607
101909
101336
101322
102434
101341
102005
102590
101321
101334
101892
101341
102000
102383
425020
101948
101913
102863
129249
129425
112417
226026
101549
109534
101658
114453
102003
101319
120138
101438
102649
101364
101921
101343
101303
730275
104187
105246
173674
154166
103186
101403
101321
101695
102012
101657
101304
101309
101499
101343
101825
102984
101573
101300
101380
101306
101562
101308
101606
101386
101300
101301
101372
101308
101557
101605
101386
101300
101301
101371
109293
103793
101322
101686
102391
101475
118390
103797
102098
137576
108958
101310
101468
101809
101479
101724
102825
101346
101300
101311
101304
101372
102423
103598
101475
101301
101385
101304
106010
101841
111134
101643
101307
101317
101463
101298
101298
101298
101298
101298
101303
101298
101469
101301
101382
101300
101345
101321
101299
101298
101298
101298
101298
101298
101298
101298
101435
101300
101319
101299
101337
101302
101373
103171
101323
101787
101302
101363
101315
101299
101750
101302
101417
101299
101332
101307
101298
101371
107964
101899
101322
101475
101316
101300
101497
121174
109924
101626
101317
101306
102075
101720
137252
116521
101721
101328
101310
102304
101381
101306
101303
101302
101301
101298
101298
102591
101310
101302
101300
101472
101326
101385
101324
101418
101530
101305
101298
101299
101302
101299
101307
101329
101306
101298
101300
101298
101324
101356
102287
101347
101298
101301
101299
101432
101299
101317
101299
101325
101302
101298
101437
101399
101431
101304
101303
101302
101298
101326
101369
102528
101344
101298
101301
101299
101315
101300
101298
101298
101299
101300
101312
101315
101298
101298
101300
101299
101312
101300
101356
101418
103478
101356
101298
101301
101300
101306
101308
101303
101299
101298
101298
101298
101298
101299
101307
101302
101298
101298
101299
101299
101300
101318
101299
101298
101298
101298
101306
101302
101378
101301
101298
101298
101298
101303
101298
101307
101300
101298
101298
101299
101329
101298
101298
101299
101299
101298
101298
101309
101298
101298
101298
101299
101304
101298
101324
101298
101299
101299
101299
101298
101298
101299
101298
101302
101299
101298
101298
101298
101309
101299
101298
101299
101298
101298
101324
101299
101298
101298
101298
101298
101298
101298
101298
101298
101300
101299
101298
101298
101298
101299
101298
101298
101298
101298
101298
101298
1.06765e+06
1.29989e+06
636423
1.04341e+06
1.09063e+06
1.48002e+06
1.28291e+06
101461
598074
103968
101313
1.47673e+06
713764
782104
800853
682824
1.47129e+06
1.05661e+06
716798
719542
572628
722852
998555
561291
716127
1.48452e+06
732611
801036
1.26656e+06
1.45404e+06
793419
958826
685026
735823
592707
376086
1.05714e+06
910236
732011
148496
149348
588962
904564
846608
824195
516823
131801
607172
913174
102850
274405
756606
868268
800827
791696
769586
930250
1.0045e+06
995028
939846
777350
792742
768701
927786
998616
931027
994207
625593
709833
612775
852173
956822
945677
864752
712168
627860
615031
853722
954647
864577
946493
696332
686899
702521
837785
804700
847645
795272
704628
682338
699882
834082
790104
836556
789835
562312
551780
561369
781460
758187
751553
791155
574408
552312
563009
783105
759737
792776
752925
816941
841748
825850
1.02641e+06
956983
982845
1.06843e+06
712970
733903
758065
819828
864520
888174
840710
645882
763450
678795
985094
892016
938553
1.03949e+06
1.53429e+06
1.52871e+06
523775
1.36396e+06
1.36232e+06
835757
1.06693e+06
134697
101705
738038
219757
860469
1.05562e+06
816710
580759
611378
625630
774519
811837
844768
800575
760437
827299
789102
919194
904027
958494
868209
885452
904325
858649
1.02088e+06
1.24117e+06
1.07486e+06
1.13962e+06
816885
832129
738402
999553
1.23345e+06
1.12476e+06
1.06789e+06
579487
656736
647035
770007
765204
820488
823488
770942
656100
587215
579403
647149
766092
821058
974444
1.15158e+06
919458
1.05735e+06
1.1402e+06
984365
909775
636177
101299
124991
101638
159283
829550
746766
1.13879e+06
905527
972351
970377
1.05423e+06
1.1362e+06
905214
660053
759569
678826
887126
865599
929525
834549
638963
677966
714798
782771
805211
833628
849794
1.10869e+06
1.34229e+06
1.2821e+06
1.4752e+06
1.32974e+06
1.26897e+06
1.11948e+06
1.27074e+06
1.32561e+06
1.1063e+06
1.10462e+06
1.47451e+06
1.32499e+06
1.26656e+06
1.06849e+06
987872
1.24722e+06
1.31154e+06
1.00512e+06
1.24185e+06
1.06768e+06
1.17432e+06
935798
1.00155e+06
1.02686e+06
1.12948e+06
1.21117e+06
959734
1.07297e+06
1.30777e+06
1.24728e+06
1.0718e+06
1.31504e+06
1.00924e+06
1.24347e+06
875454
887114
933814
950975
1.01035e+06
1.08169e+06
1.01699e+06
1.36708e+06
1.31132e+06
1.14036e+06
1.17511e+06
1.49401e+06
1.40501e+06
1.35946e+06
689322
827862
766034
850070
833370
859610
834409
955460
1.26747e+06
1.07324e+06
1.08132e+06
1.24892e+06
898100
1.30162e+06
109222
105602
622319
105503
910408
108865
101299
929383
803860
857294
729439
817639
860666
926521
858337
805746
928670
930747
728770
817980
861385
962381
1.21168e+06
1.03446e+06
1.3644e+06
1.14851e+06
1.24823e+06
1.4822e+06
890781
106291
101298
101298
101423
627179
101571
1.06379e+06
1.18725e+06
1.33901e+06
1.04481e+06
1.26553e+06
1.11712e+06
994844
774007
854792
926087
923058
624200
717874
847476
773096
903577
765009
884568
846552
882437
858978
906129
882546
773902
904512
765803
884763
858579
961234
1.24556e+06
1.10073e+06
1.34524e+06
1.11606e+06
1.09274e+06
1.40677e+06
860931
886674
953433
859591
939176
874614
777352
832122
651410
836144
815786
517342
536834
807953
1.09891e+06
951519
1.00434e+06
1.1804e+06
1.25162e+06
1.31699e+06
1.1139e+06
1.22847e+06
1.49031e+06
1.50569e+06
1.48261e+06
1.4533e+06
1.30297e+06
1.42056e+06
806272
635225
831503
650414
835966
814942
535953
793706
924526
828708
819051
881023
871280
764334
824470
528865
805536
469331
789229
749402
385649
899833
523925
471556
747293
621163
836350
817766
1.07528e+06
1.1788e+06
642550
1.34479e+06
800154
1.33609e+06
1.02928e+06
1.42618e+06
1.11764e+06
1.19259e+06
1.29408e+06
1.47468e+06
1.51409e+06
1.22108e+06
878298
871812
812984
860803
745896
696676
575444
919721
904431
872870
832968
512809
745016
666678
1.25795e+06
1.38208e+06
1.12759e+06
1.37668e+06
1.55106e+06
1.51285e+06
1.5571e+06
1.12658e+06
1.4197e+06
1.18605e+06
957569
1.19238e+06
673655
1.36491e+06
418471
666877
759536
672731
172602
274232
544883
1.54461e+06
1.52366e+06
1.39365e+06
1.48658e+06
1.19218e+06
1.53021e+06
1.51625e+06
735400
321550
158114
499524
344008
720003
524306
500960
322661
718854
734352
158222
343797
524033
1.41771e+06
1.4993e+06
1.43727e+06
1.56068e+06
1.5387e+06
1.54552e+06
1.35465e+06
854912
876766
970870
712701
321766
427198
597753
423365
1.29801e+06
920814
724817
576551
215294
1.16917e+06
912091
676258
920939
643927
695966
275876
257496
920498
619860
672340
643822
695314
275019
254038
274220
441972
681736
611053
116026
210213
349537
285896
615380
716662
517085
126445
150378
411093
849576
564863
619609
529200
469621
212229
161135
817275
487812
735034
225782
484920
324672
142130
882810
539169
773307
311662
590702
361368
156192
1.56249e+06
1.21765e+06
1.1479e+06
912286
1.56079e+06
1.41303e+06
1.42575e+06
512199
117252
358361
111439
299875
184923
104200
767670
245108
394413
204389
337113
123668
107733
497254
106841
114286
148984
147956
336003
238559
423471
558389
103765
285212
177553
120571
927869
262978
102098
113247
104949
125477
108283
199016
268081
271546
560050
166722
102074
108422
108617
101668
265084
110508
282702
112159
110548
101732
209453
106405
224558
110233
101573
108861
101626
106382
207545
224221
110162
101565
108630
101623
110382
260495
281380
112037
101652
110189
101727
106265
102754
145017
113124
101340
102626
101687
174678
102558
137841
101466
106025
103555
101377
104304
111641
188387
116879
101355
101806
103100
218523
103777
166248
101524
107085
104120
101407
101753
105142
114643
102108
101306
101326
101523
102231
108740
126519
102325
101309
101589
101338
127152
488804
703856
101431
231576
635638
751305
808860
770332
730488
813097
766972
824585
759959
709099
814318
844149
789078
838095
740315
670926
607779
854967
822815
457680
796412
852745
596864
400801
373159
157466
120464
142983
455403
332092
114536
669534
748742
841818
534667
230212
320609
440284
114702
331852
404192
275110
105234
109121
210622
102258
132971
106316
199396
101905
104697
121413
161771
102120
101613
105829
103164
111698
128965
909805
958135
1.0229e+06
928490
106356
227935
758752
845139
915822
916848
569424
570255
923844
223459
102943
840039
117149
781262
176780
113346
743352
601689
920825
189860
928879
574494
107276
816009
577566
442982
435413
552208
544311
741387
750450
580685
436076
445343
554359
544802
741775
753379
461155
485193
573775
607163
637627
781077
828009
128962
151036
101302
833606
652284
102693
696232
773957
693596
741625
726142
775961
773925
755877
734584
890578
559888
101303
130564
816106
206821
101701
626376
834112
167012
101305
508470
102396
521549
742668
775831
660722
693572
887951
946821
810755
716786
765866
758670
810784
716751
644882
923630
941197
807252
927327
800617
941383
855649
912291
723992
712132
926592
928968
929437
937958
930842
929656
722343
913197
712167
927233
938549
927177
801393
810733
941027
842286
941508
855031
797338
667028
846039
850161
824619
703150
597461
752297
946428
801469
911849
941155
957848
875496
832656
912485
868594
814211
947378
954763
762318
771364
855693
880081
964627
971945
982371
950089
581620
441371
860580
930853
773352
657721
688834
745736
404388
450957
515595
493814
579055
569363
644902
498220
657936
558582
771194
654041
742043
850944
528979
741086
584212
863957
693610
776312
925803
833130
859640
765426
849988
756337
827557
834620
800455
878309
708887
864129
922387
889173
841949
894088
797159
955462
951022
854104
670315
870571
137146
211083
571954
164099
502920
523617
440920
575218
696107
871526
745963
812756
829424
878179
834133
827463
843937
634090
339944
523838
490801
955332
936077
867472
964477
671128
939393
801346
883303
950478
912337
949630
540036
910453
675243
843882
634147
827405
758728
523877
490856
340009
513910
868976
668138
833740
920183
872498
904497
187860
206498
101299
101299
111704
101298
101299
927205
893868
905535
1.00139e+06
994759
814710
542548
107076
141923
117140
352102
453393
352039
245528
663013
581061
915159
924115
242348
599291
681694
923437
240876
657800
574759
912838
597813
680577
104645
108312
125604
400294
265400
322655
199269
978840
646503
948774
472607
853707
678641
248394
959740
503232
904959
355561
811772
632452
188455
721745
926823
971854
846864
954897
711362
423737
606127
522894
892087
850801
149472
518103
435929
324301
484111
816607
225256
635291
487259
141999
927873
705765
908626
436187
745572
617992
274647
768714
407445
626381
194393
358498
194416
119397
539445
156280
361447
591128
312190
747334
883029
723365
321003
590502
140247
286204
173043
110685
102944
233144
156542
102516
142791
113174
101648
101648
106352
102515
233072
113166
156516
142757
773272
120439
244780
203034
643929
388262
319786
627704
635922
690632
257541
255274
218858
110245
470585
266332
748567
365337
102993
154827
115369
524051
366134
806187
403736
103867
166165
125346
271562
108617
166664
267886
102073
124974
108411
556013
488856
815480
389146
105439
140780
160849
532273
523560
695246
687104
494103
509897
385786
369488
515081
743282
738046
523001
506868
734518
739517
518379
503002
499976
728735
737717
728814
736038
492931
498644
493966
729195
729293
725275
734375
739711
743053
512189
507359
503447
737289
741195
694676
389235
694644
381897
699343
688215
385901
381419
382015
697117
698213
390055
701704
387675
690734
375850
367555
373712
690573
692990
381319
372268
688697
685542
689825
375616
684679
379164
364137
294212
355346
266438
548942
522234
637835
609914
741931
742666
521229
540757
544089
748274
747407
530644
749697
743528
573471
554754
751929
758051
571775
613837
575800
758647
768467
757643
768947
603749
623212
586299
761779
773042
770321
767052
121727
415142
372873
277639
15704.8
11405.5
8061.53
7325.32
7286.01
7772.98
7877.87
21958
22491.8
25767.4
26851.5
7498.66
9001.66
8205.19
28752.9
24101.1
29836.9
36040.5
10995.3
50391.4
8837.21
9028.69
34066.3
35729.8
53554.7
100292
274524
98090.7
296073
111388
114913
301021
12600.9
10940.8
9601.4
40317
81539.7
62161
50783.5
310404
288521
106907
124589
337756
314523
144239
181871
330430
137170
143011
379169
336589
190185
157594
371444
393175
241655
350538
209462
184981
365996
685339
682729
677984
352662
352948
676172
681669
364842
686267
335051
677229
348201
671020
641413
292639
664724
329396
328647
663590
641438
305358
283773
661595
623523
321281
635574
652904
695514
565847
671099
611339
206569
768429
280547
658678
576341
759161
599003
629900
766016
769164
772098
774163
773855
686078
626211
655098
771155
773909
649677
712425
667260
780356
776743
776622
776290
17055.9
447723
531249
26213.9
415659
73035.6
522202
15971.1
406553
674566
525665
503406
107481
885566
463373
591251
554660
24708
434181
681613
245631
540942
226849
487121
441895
117576
706258
579140
760015
301620
14067.8
13883.3
11553.5
90593.3
68906.6
55718.8
73450.8
730549
730189
348902
186354
257258
67632.6
445538
82665.6
66196.2
13077.5
13657.6
11345.3
67127.9
54123.6
15604.6
20033
12675.6
62180.2
118300
80719.6
98266.9
111507
23492.6
14366.6
19463.1
12409.2
60417.8
96378.7
757940
225432
285376
569627
270860
925921
456395
123950
101451
19691.4
56378.6
44144
163993
198169
248455
44259.5
175724
88793.8
163948
258554
316902
284790
373772
555025
542171
316753
412039
570185
146418
38716.5
22060.5
77545.6
48694
165501
204934
349983
773444
257391
773917
164129
783871
264345
289124
503994
247907
203165
442934
235457
418266
436011
273736
223713
500055
243403
199799
415171
679722
906965
1.27741e+06
738679
603315
838021
418568
627797
1.37969e+06
931850
773893
355967
621071
294279
62634.7
146797
51933.4
131051
167599
263677
279962
53160.7
150506
132184
191012
169283
263639
280180
131299
206999
107324
257807
405543
307073
348024
177286
346926
243227
475030
374657
409375
500145
206591
410402
272373
401980
235127
390900
248577
415576
225985
267586
203884
401568
389139
247152
144366
203240
111571
249686
328192
323384
273624
91889.3
184616
140924
233848
272960
308361
334867
469997
335238
277012
346536
587524
414101
505655
640710
640494
412219
674403
492526
509534
680478
558673
417086
360649
459917
609611
516176
590008
523601
889754
423831
654107
317508
950786
513448
436786
272741
305408
330130
460376
464251
346323
589744
609834
640035
524433
659430
640699
607134
330067
437842
314829
378775
498739
490744
389093
339743
256957
242093
348683
438869
357714
431841
351109
340579
242550
349562
441165
360302
432514
329511
437240
314392
377898
495961
386212
490051
209741
316507
279826
351688
314948
360697
393618
451018
501852
534780
546895
573428
640289
616486
307348
436578
384318
474916
414371
488373
549140
569322
606528
627211
756804
765673
769314
774821
409930
625515
535248
607346
480387
465088
547013
367341
387231
313385
456436
377081
395584
479721
479014
624463
542523
630775
571657
625626
656361
288065
350389
353149
377022
380377
446329
437603
685935
581351
678031
596424
554976
686338
785432
282246
560270
753999
551253
588488
751054
764672
766251
548554
593069
586608
751566
749455
764437
766448
378848
491596
552805
420718
425466
498791
381526
568775
681217
647926
714393
615684
675788
626453
708206
613200
558215
575747
762803
634034
719081
354787
484187
378829
513675
405533
424492
538466
778370
619795
653862
686041
780567
653857
778407
638073
682074
632317
776855
782552
776391
784303
687286
778550
637367
682136
631358
777570
785435
659716
648053
601483
679347
728353
737024
689173
570775
518740
463761
588743
797497
729076
650575
356973
368001
396230
411378
442536
457997
510988
683107
579477
608029
709490
820444
783797
704904
449263
582286
719107
553707
573067
457589
544568
448498
719540
551746
580402
454893
572670
544174
515982
441588
404721
451408
645333
494153
579622
415412
373696
340977
421864
567155
462690
515017
698023
779006
649892
716495
668659
780924
781387
674468
757909
661966
710505
781760
809757
706738
674416
815873
690824
752502
946665
879737
757661
600208
699260
532414
627736
917566
695681
841700
521033
415639
424463
536066
638722
664498
519758
638331
475239
484899
570385
740376
767474
553853
259720
96581.2
616045
607602
511278
461579
390455
94816.1
31714.3
25971.7
85936.4
186640
137113
208732
109995
204942
29919.1
127958
25611.2
85638.4
185618
107882
495573
495117
250740
331762
528057
342985
529367
263445
348281
543947
500573
251973
333727
535080
365407
363121
609038
590404
395159
587496
319934
607624
608125
348402
363794
587039
586512
315666
441974
559758
580370
607740
454822
571310
562205
576272
587609
623512
444573
613090
573411
568004
722171
750271
766388
735862
691004
775288
767909
602100
572528
472333
494535
804443
637681
605317
755954
726140
776008
741660
693619
781363
774077
420146
589943
482899
645242
521422
602826
766680
349161
317201
660701
682054
357355
325157
665499
361968
328532
360601
325429
687684
669019
669166
334743
301951
650984
311962
278334
657873
633841
312671
682809
660700
289548
328838
672637
645701
765306
800561
950563
837767
831848
874753
747018
434684
579752
483450
667546
542462
605897
754194
498282
742265
558766
771147
581525
657955
851041
529499
864603
776795
741559
584628
694372
658398
821397
1.01297e+06
1.04491e+06
1.09078e+06
901417
954318
868067
765608
1.04849e+06
1.22743e+06
1.12879e+06
983380
838994
1.04252e+06
241218
246664
209732
600880
565970
635274
606298
297607
651588
218519
257317
619519
580464
619625
699376
847230
1.02689e+06
872532
894870
928022
674976
272899
630160
220182
280094
225940
635498
587633
277911
227013
222416
586140
636837
638529
589957
258044
617794
207575
235311
188350
595987
539041
209889
571185
625440
189861
241267
605037
544370
689054
705872
565953
729256
1.00544e+06
900815
922973
870729
854241
670547
797198
893878
930871
955370
8751.64
5153.34
8623.67
378793
416017
374883
8762.96
8872.3
345837
4648.69
5462.2
5135.27
5640.98
5116.48
5466.07
5971.48
8915.54
28794.3
8923.33
28410.7
8930.46
28608
28246.3
5864.08
5911.08
5728.65
5609.27
5907.98
5791.35
5797.54
125968
356278
354776
121727
363339
124217
122994
5832.85
5634.62
5669.69
5504.18
5564.17
5332.5
5715.44
8783.95
30680.8
29837.6
8787.46
31668.9
8741.66
29280.1
29343.3
8549.37
29218.8
8980.62
8797.8
30701.6
28585.2
5260.52
5672.74
5492.68
5347.66
5387.2
5168.76
5537.38
5437.66
5292.43
5442.09
5835.16
5645.21
5112.64
5659.51
5044.47
5201.16
5368.77
5220.87
4981.49
5070.47
5080.47
134032
130874
386381
366518
137836
373222
128148
129363
383075
129716
364220
135123
371762
125430
5314.68
4877.15
5319.54
5410.79
5110.49
4977.28
5564.25
34515.3
30983.4
8835.78
8726.5
33072.6
8639.47
32819.4
4896.68
5126.09
5322.52
5275.25
5061.06
5310.45
5028.85
5960.36
5992.8
5737.38
5766.78
5600.21
5297.6
5304.44
5370.03
6035.29
5991.24
5984.02
5878.25
5920.25
5935.52
5822.04
5967.03
5990.17
6037.85
5877.55
5914.89
5940.18
5819.34
393339
5059.14
5564.01
5728.67
5906.5
5770.25
5950.04
5781.25
5609.63
5734.7
5556.29
5909.65
5724.6
5950.67
5779.42
5604.55
5422.58
5534.42
5353.21
5769.74
5608.8
5683.48
5834.44
5616.75
5553.47
5775.74
5599.15
5426.4
5685.09
5829.48
31773.3
480425
11693.9
8979.73
138625
166574
38844.3
5282.79
7124.9
6415.94
5560.47
4663.96
6543.28
7506.56
5129.67
5232.99
5092.31
5295.8
5484.9
5558.33
5363.64
5088.64
5245.06
5496.17
5302.03
5127.33
5562.72
5370.04
5555.03
5562.63
5311.87
5176.96
5413.61
5092.88
5513.91
9001.89
8983.08
31702.4
33388.9
8930.83
33608.6
9029.39
8992.06
31977.5
31723.4
33424.3
8928.22
9031.53
33881
5307.49
5531.96
5263.47
5167.3
5386.09
5508.64
5059.48
329288
337139
29253.4
30070.8
373527
8750.94
8755.23
375802
30136.3
8419.12
8766.99
29526.6
8942.14
29012.4
8893.66
29108.4
8746.23
8409.22
29498.5
8916.06
8886.45
28949.9
123275
338413
122160
123724
350381
344218
123806
122113
328869
123250
123761
350420
123787
344348
29467.8
8822.51
30256.3
8771.02
8856.34
30230.4
29194.1
29479.2
8841.77
8771.73
30131.2
29164.1
8859.77
30220.4
126563
361475
131891
369968
131018
357113
126955
126630
362583
370827
131952
126963
131114
357631
387255
138875
137432
146886
418067
149365
410037
5154.13
5189.31
5095.04
4994.05
4707.68
4912.35
4823.45
389153
385832
137263
148669
410862
146581
407745
5056.17
5143.8
4886.65
5186.82
5096.2
4983.44
4811.96
152140
135641
398097
396210
143587
142444
382466
4795.4
5002.63
4892.1
4922.35
4956.08
4914.55
4931.91
37627.8
8941.11
52556.4
11088.3
38527.5
8877.2
49787
53092.1
11942.9
8989.55
37657.9
11137.3
8882.86
49831.1
4572.59
4890.04
5614.29
6086.63
4520.32
4904.73
5405.03
4507.32
4883.92
5718.69
4564.01
6112.21
4899.33
5423.55
437653
200515
466107
163251
464915
194706
435076
4515.05
4610.46
5824.34
6567.28
4488.84
4541.27
5564.4
4687.84
4493.58
5991.06
4512.67
6656.11
4557.37
5598.86
163883