/*--------------------------------*- C++ -*----------------------------------*\
  =========                 |
  \\      /  F ield         | OpenFOAM: The Open Source CFD Toolbox
   \\    /   O peration     | Website:  https://openfoam.org
    \\  /    A nd           | Version:  9
     \\/     M anipulation  |
\*---------------------------------------------------------------------------*/
FoamFile
{
    format      ascii;
    class       volScalarField;
    location    "0.0024";
    object      rho;
}
// * * * * * * * * * * * * * * * * * * * * * * * * * * * * * * * * * * * * * //

dimensions      [1 -3 0 0 0 0 0];

internalField   nonuniform List<scalar> 
19925
(
0.609875
0.577731
0.849239
0.812185
1.56873
1.27841
2.02691
0.698045
0.477759
0.56245
0.546449
0.724576
0.657195
0.850878
0.756844
0.502458
0.559538
0.729308
0.890468
0.583892
0.670992
0.48183
0.496818
0.503656
0.505499
0.5129
0.536989
0.526697
0.651038
1.02717
1.27341
0.884642
0.969682
1.16522
1.51296
1.01697
0.67599
0.776698
1.36374
1.60585
1.02144
1.21013
0.506404
0.517366
0.524119
0.532592
0.539899
0.559762
0.549369
0.503633
0.591336
0.528526
0.602484
0.538168
0.565251
0.632694
0.52746
0.609668
0.548069
0.626291
0.56383
0.586879
0.65409
0.519063
0.558593
0.528985
0.565724
0.588008
0.60154
0.553293
0.591218
0.537491
0.548489
0.57653
0.612746
0.627263
0.563563
0.535673
0.57197
0.545578
0.584791
0.604192
0.617948
0.572279
1.43997
1.45014
2.08087
1.49581
1.80955
1.94316
2.10172
0.757237
0.684139
0.699075
0.797098
0.817236
0.73311
0.8573
1.93259
1.14236
1.37719
2.32608
2.51179
1.60831
2.07183
0.624062
0.646818
0.577273
0.608373
0.737496
0.662621
0.679981
0.622401
0.589406
0.556771
0.596954
0.705874
0.635228
0.66643
1.4278
1.29062
1.47164
1.10632
1.45394
1.6567
1.67224
2.04105
0.566764
0.62239
0.577365
0.601398
0.642529
0.656527
0.589019
0.601938
0.638383
0.57247
0.615375
0.724201
0.651643
0.686018
0.790534
0.706509
0.726554
0.827981
0.854195
0.759379
0.893251
0.998964
1.12019
1.03061
0.932501
1.04386
1.15914
1.24563
0.655395
0.673573
0.605071
0.633073
0.769677
0.692884
0.705351
0.612128
0.660313
0.644753
0.738982
0.658938
0.675049
0.598165
0.91198
0.861319
0.963397
1.05782
0.937354
0.988451
1.12247
0.838438
0.758583
0.719131
0.814637
0.770965
0.901153
0.951848
0.751888
0.955508
0.882267
0.854198
0.788856
0.924905
1.00307
0.73953
0.910169
0.867067
0.83801
0.795984
0.935861
0.984218
0.646442
0.786739
0.776018
0.76745
0.694666
0.711754
0.718978
0.63474
0.690157
0.666365
0.771771
0.704918
0.680981
0.620789
0.905035
1.08117
0.953008
1.12477
0.987073
1.03669
1.18617
0.783376
1.00551
0.924633
0.893142
0.820123
0.967681
1.05512
1.14676
1.17478
1.06541
1.18396
1.32446
1.26499
1.42709
2.58603
2.4364
1.56369
2.55073
2.25519
2.42385
2.64395
0.669561
0.81103
0.82179
0.793468
0.743332
0.717797
0.744079
1.19893
1.14838
1.06802
1.43494
1.27693
1.18531
1.33337
1.57745
1.30126
1.39811
1.23789
1.15162
1.30043
1.39714
1.27047
1.18309
1.35685
1.51421
1.61861
1.31898
1.41567
1.09393
1.02179
0.964704
1.04261
1.26467
1.10356
1.1905
1.27682
1.21779
1.27311
1.37284
1.4437
1.34849
1.53747
0.904897
0.881958
0.831203
0.973389
1.12817
1.03054
1.05907
1.4304
1.59869
1.30008
1.66719
1.48767
1.6184
1.83044
1.11095
1.16051
1.01978
1.07251
1.34325
1.16809
1.22675
1.05624
1.14387
1.00305
1.08931
1.32163
1.14738
1.25128
0.94722
0.91387
0.862434
1.01594
1.18685
1.11378
1.07264
1.17899
1.23763
1.07724
1.13016
1.43448
1.23813
1.30228
1.43373
1.75746
1.5554
1.871
1.64673
1.76529
2.02177
1.31947
1.3851
1.23074
1.44072
1.34986
1.53269
1.64412
1.60359
1.49307
1.32606
1.67766
1.79967
1.6027
1.49202
1.45868
1.54567
1.35738
1.71654
1.84058
1.61978
1.5093
1.40774
1.40107
1.25966
1.4159
1.5807
1.57204
1.75673
1.90062
1.78739
2.03509
1.69612
1.81041
1.48184
1.5871
1.1307
1.42139
1.31258
1.37837
1.19831
1.23387
1.29786
1.31136
1.65646
1.48455
1.53546
1.39352
1.58619
1.76076
1.29533
1.57053
1.46983
1.51364
1.42814
1.63483
1.73878
1.41343
1.81562
1.62044
1.65339
1.49163
1.71579
1.91982
1.18813
1.38661
1.51379
1.45082
1.30574
1.25447
1.37229
1.70557
1.5663
1.76829
1.75102
2.17746
1.89006
1.99809
1.225
1.225
1.225
1.225
1.225
1.225
1.225
1.225
1.225
1.225
1.225
1.225
1.225
1.225
1.225
1.225
1.225
1.225
1.225
1.225
1.225
1.25269
1.22512
1.225
1.225
1.225
1.225
1.225
2.79755
2.67241
1.23314
1.22501
1.225
1.225
1.225
1.11446
1.92466
3.03053
1.30746
1.22501
1.225
1.225
0.847122
1.54169
2.9453
1.3205
1.225
1.225
0.779696
1.52628
3.02294
1.23751
1.225
0.995027
2.49533
1.30152
1.225
1.225
1.225
1.225
1.225
1.225
1.225
1.225
1.225
1.225
1.225
1.225
1.225
1.225
1.225
1.225
1.225
1.225
1.225
1.225
1.225
1.225
1.22759
1.22501
1.225
1.225
1.225
1.225
1.225
2.94257
1.81225
1.22575
1.225
1.225
1.225
1.225
1.44735
2.33396
2.98219
1.23305
1.225
1.225
1.225
1.1093
1.8374
3.05344
1.23453
1.225
1.225
1.24389
1.81268
3.01714
1.22621
1.225
1.29054
2.82995
1.22554
1.225
1.225
1.225
1.225
1.225
1.225
1.225
1.225
1.225
1.225
1.225
1.225
1.225
1.225
1.225
1.225
1.225
1.225
1.225
1.225
1.225
1.225
1.22501
1.225
1.225
1.225
1.225
1.225
1.225
1.63096
1.22723
1.225
1.225
1.225
1.225
1.225
2.67262
3.13546
1.33302
1.22502
1.225
1.225
1.225
2.06477
2.92424
1.69252
1.22502
1.225
1.225
2.12927
2.08575
1.39489
1.225
1.225
2.3807
2.71921
1.225
1.225
1.225
1.225
1.225
1.225
1.225
1.225
1.225
1.225
1.225
1.225
1.225
1.225
1.225
1.225
1.225
1.225
1.225
1.225
1.225
1.225
1.225
1.225
1.225
1.225
1.225
1.225
1.225
1.225
1.22506
1.225
1.225
1.225
1.225
1.225
1.225
3.15719
2.92622
1.22501
1.225
1.225
1.225
1.225
2.64402
2.82455
3.11746
1.22505
1.225
1.225
1.225
2.02227
2.85507
3.0909
1.22502
1.225
1.225
1.96864
2.87833
2.0995
1.225
1.225
1.225
1.225
1.225
1.225
1.225
1.225
1.225
1.225
1.225
1.225
1.225
1.225
1.225
1.225
1.225
1.225
1.225
1.225
1.225
1.225
1.225
1.225
1.225
1.225
1.225
1.225
1.225
1.225
1.225
1.225
1.225
1.225
1.225
1.225
1.225
1.22519
1.225
1.225
1.225
1.225
1.225
1.225
2.3223
2.64552
1.22501
1.225
1.225
1.225
1.225
2.00119
2.66596
2.73314
1.22502
1.225
1.225
1.225
2.72751
2.2478
1.225
1.225
1.225
1.225
1.225
1.225
1.225
1.225
1.225
1.225
1.225
1.225
1.225
1.225
1.225
1.225
1.225
1.225
1.225
1.225
1.225
1.225
1.225
1.225
1.225
1.225
1.225
1.225
1.225
1.225
1.225
1.225
1.225
1.225
1.225
1.225
1.225
1.225
1.225
1.225
1.225
1.225
1.225
1.225
1.225
1.22591
1.22501
1.225
1.225
1.225
1.225
1.225
2.61082
2.44795
1.22947
1.225
1.225
1.225
1.225
1.41426
1.25278
1.22559
1.225
1.225
1.225
1.225
1.225
1.225
1.225
1.225
1.225
1.225
1.225
1.225
1.225
1.225
1.225
1.225
1.225
1.225
1.225
1.225
1.225
1.225
1.225
1.225
1.225
1.225
1.225
1.225
1.225
1.225
1.225
1.225
1.225
1.225
1.225
1.225
1.225
1.225
1.225
1.225
1.225
1.225
1.225
1.225
1.225
1.225
1.225
1.225
1.225
1.225
1.225
1.225
1.22525
1.225
1.225
1.225
1.225
1.225
1.225
1.30758
1.22511
1.225
1.225
1.225
1.225
1.225
1.225
1.225
1.225
1.225
1.225
1.225
1.225
1.225
1.225
1.225
1.225
1.225
1.225
1.225
1.225
1.225
1.225
1.225
1.225
1.225
1.225
1.225
1.225
1.225
1.225
1.225
1.225
1.225
1.225
1.225
1.225
1.225
1.225
1.225
1.225
1.225
1.225
1.225
1.225
1.225
1.225
1.225
1.225
1.225
1.225
1.225
1.225
1.225
1.225
1.225
1.225
1.225
1.225
1.225
1.225
1.225
1.225
1.225
1.225
1.225
1.225
1.225
1.225
1.225
1.225
1.225
1.225
1.225
1.225
1.225
1.225
1.225
1.225
1.225
1.225
1.225
1.225
1.225
1.225
1.225
1.225
1.225
1.225
1.225
1.225
1.225
1.225
1.225
1.225
1.225
1.225
1.225
1.225
1.225
1.225
1.225
1.225
1.225
1.225
1.225
1.225
1.225
1.225
1.225
1.225
1.225
1.225
1.225
1.225
1.225
1.225
1.225
1.225
1.225
1.225
1.225
1.225
1.225
1.225
1.225
1.225
1.225
1.225
1.225
1.225
1.225
1.225
1.225
1.225
1.225
1.225
1.225
1.225
1.225
1.225
1.225
1.225
1.225
1.225
1.225
1.225
1.225
1.225
1.225
1.225
1.225
1.225
1.225
1.225
1.225
1.225
1.225
1.225
1.225
1.225
1.225
1.225
1.225
1.225
1.225
1.225
1.225
1.225
1.225
1.225
1.225
1.225
1.225
1.225
1.225
1.225
1.225
1.225
1.225
1.225
1.225
1.225
1.225
1.225
1.225
1.225
1.225
1.225
1.225
1.225
1.31024
0.592143
0.783829
0.981566
1.45214
0.709546
0.906978
1.26522
0.595068
0.810436
0.901572
1.40121
0.697723
0.936465
1.1474
0.632424
0.761957
0.838011
1.49923
0.968122
1.65161
1.66821
0.670342
0.888945
1.28645
1.84918
0.802259
1.0303
0.581782
0.628876
0.634496
0.642512
0.648315
0.711128
0.69733
1.58975
0.819667
1.02359
1.71617
2.26502
1.2823
1.57617
0.938328
1.01689
1.53199
1.05611
1.5627
2.16472
1.47274
0.605654
0.636994
0.65099
0.648883
0.663221
0.725259
0.710987
0.88395
1.7294
1.40059
1.09173
1.80074
1.67684
2.5873
0.62838
0.747612
0.754669
0.677303
0.683458
0.746778
0.818381
0.63865
0.757794
0.685975
0.772367
0.6989
0.761863
0.835863
0.647501
0.682093
0.697369
0.711279
0.726943
0.797899
0.782571
2.03223
0.931394
1.24384
2.23122
2.86864
1.59094
1.79877
1.67327
2.3398
2.04238
2.22272
2.74623
2.41652
2.4905
1.67225
2.34033
2.70056
2.2608
2.42512
2.83434
2.16961
2.00103
2.10541
1.32102
2.62159
1.88941
2.02373
2.47355
0.684358
0.813356
0.735532
0.8484
0.76706
0.838112
0.919495
0.684559
0.721296
0.73638
0.762302
0.778001
0.856071
0.840144
2.87246
1.92502
2.32153
2.77586
1.60625
2.13413
2.62439
2.60668
0.898711
1.50219
1.69148
2.79619
1.02389
1.64621
0.692646
0.793355
0.706361
0.79613
0.897718
0.911139
0.782486
0.698973
0.797566
0.712943
0.809616
0.909445
0.923053
0.795668
0.72274
0.858741
0.776789
0.907114
0.820773
0.900063
0.988884
0.804205
0.85809
0.866591
1.00077
1.01131
0.932108
1.0832
2.76043
0.954421
1.73493
1.67182
2.89902
1.00575
1.8988
0.707676
0.824375
0.721696
0.806105
0.924229
0.937762
0.792363
0.959925
0.871065
0.888718
1.01839
1.04103
0.953607
1.11092
2.88707
1.01445
1.59789
2.13025
2.97284
1.06995
1.75307
0.730001
0.861778
0.7446
0.830698
0.966127
0.98033
0.816435
0.829128
0.812883
0.741794
0.831913
1.0221
0.947244
0.904437
0.8612
0.830735
0.757865
0.842242
1.05142
0.974501
0.915726
0.749108
0.852292
0.763979
0.891215
0.997976
1.01213
0.876477
1.01088
0.826911
0.842735
0.943042
1.1325
1.14776
0.927796
2.6887
1.22949
1.29127
1.85839
3.00806
2.04116
2.96621
0.901083
0.85859
0.782288
0.868532
1.10168
1.0194
0.945758
0.833706
0.821215
0.748842
0.846435
1.03685
0.959985
0.921326
1.04085
0.936204
0.976962
1.09741
1.14645
1.04812
1.21993
0.88
0.890227
0.802337
0.930783
1.13342
1.05096
1.01232
0.792737
0.904022
0.808041
0.959799
1.07809
1.09322
0.944149
2.91685
1.40769
2.1122
2.89383
2.69867
1.59525
2.34972
0.903981
1.13153
0.920676
1.03345
1.26674
1.28334
1.01704
1.61321
1.79083
2.51863
1.94282
2.45739
3.00988
2.27964
1.05533
0.971395
0.885306
0.984824
1.28268
1.19078
1.07114
0.945394
0.93297
0.849404
1.00387
1.22832
1.13654
1.09447
1.10277
0.990111
1.04539
1.16552
1.2305
1.12919
1.31621
2.9223
1.1434
1.78511
2.59503
2.98936
1.71948
2.49588
1.08666
1.33337
1.3491
1.16151
1.17439
1.258
1.44754
2.9891
1.3788
2.06211
2.54036
2.87085
1.81038
2.85318
2.65337
1.85298
1.80804
2.93387
2.93186
2.24706
2.26512
1.11591
1.36455
1.1852
1.40114
1.21439
1.2943
1.4943
0.925836
1.17276
1.07582
1.14082
1.01986
1.17585
1.30143
0.94643
1.21776
1.10036
1.17327
1.03262
1.19058
1.33759
1.78884
1.48365
1.58956
1.69915
1.81486
1.90236
2.03834
1.45065
1.50316
1.47587
1.61966
1.6481
1.68025
1.84937
3.02108
1.47248
1.90541
2.98556
2.54999
1.93997
2.70035
0.980099
1.2815
1.14302
1.23169
1.06857
1.23456
1.40552
1.96262
2.53704
2.87996
1.92827
2.92476
2.72415
2.47503
0.945319
1.11914
1.08182
1.32433
1.13306
1.09544
0.931465
0.919315
1.05673
1.07359
1.27883
1.07
1.0869
0.905892
1.18189
1.06279
0.967708
1.08068
1.43972
1.33317
1.17794
0.936254
1.18119
1.08944
1.15865
1.04046
1.20151
1.32296
0.912185
1.06018
1.05236
1.07358
1.06565
1.26854
1.25486
1.21542
1.47825
1.28116
1.5492
1.34057
1.42089
1.64022
1.00306
1.2585
1.16759
1.26349
1.14121
1.3143
1.43704
1.56837
1.74444
1.85836
1.81726
1.93294
2.00883
2.15082
0.968183
1.10479
1.1183
1.15203
1.16592
1.35651
1.3424
1.10683
1.47823
1.28685
1.42574
1.20667
1.38679
1.61282
2.93309
1.73917
2.29322
2.2241
2.90273
2.94229
1.62053
3.02717
2.04819
2.50428
2.95937
1.7081
2.9278
3.1358
0.983139
1.36415
1.25706
1.21584
1.17219
1.13362
1.06231
0.955578
1.3172
1.18599
1.20417
1.10696
1.12413
1.03098
1.07118
1.29989
1.21654
1.51461
1.23093
1.3149
1.05653
0.948526
1.19125
1.18174
1.11104
1.10268
1.30709
1.3914
1.02907
1.17296
1.18731
1.24409
1.25891
1.45834
1.44326
1.91717
2.19462
2.37612
2.041
1.90794
1.69034
1.81809
1.34397
1.06576
1.16444
1.37156
1.23635
1.42396
1.55947
2.24601
2.05616
1.75559
1.86762
2.05361
2.20212
2.43282
1.08499
1.2379
1.15609
1.28882
1.20455
1.39581
1.48283
1.91175
2.18094
2.35871
2.0191
1.80392
1.67813
1.88754
1.36903
1.50945
1.29835
1.68484
1.44647
1.53639
1.78426
1.15637
1.31601
1.22777
1.39415
1.30133
1.50097
1.59625
1.5769
1.73536
2.00521
1.87453
1.62872
1.48089
1.69321
2.16201
2.51584
2.70985
2.13276
2.27322
1.8737
1.99534
1.11186
1.449
1.55704
1.3584
1.27086
1.35684
1.19856
1.17603
1.45077
1.33479
1.68477
1.467
1.35023
1.16021
1.35805
1.43728
1.24933
1.3612
1.71341
1.49503
1.56593
1.62283
1.27888
1.41011
1.37838
1.7585
1.53513
1.58598
1.76557
1.54136
1.41536
1.52209
1.74184
1.65687
1.90465
2.32142
1.81547
2.05585
1.59768
1.7883
1.77318
1.9993
2.35607
1.89623
2.16941
1.91913
2.06674
1.80899
1.6866
1.97681
1.97425
1.75476
1.74711
1.56433
1.75404
1.97368
2.41634
1.7755
2.55705
2.33984
1.28216
2.68664
3.00909
1.21157
1.65597
1.40782
1.60397
1.32857
1.52534
1.81684
1.7755
1.60037
1.79057
2.03087
1.8196
2.05933
2.32432
2.61986
2.6311
2.27265
2.62156
1.64153
1.41507
1.22579
2.25075
2.3687
2.64572
2.68754
1.28174
1.44653
1.22542
1.39032
1.34505
1.18764
1.35614
1.76925
1.56577
1.51591
1.54254
1.48685
1.33388
1.43252
1.85255
1.61369
1.65258
1.3687
1.46076
1.26729
1.39336
1.74429
1.52065
1.60613
1.31026
1.32995
1.15054
1.31211
1.70278
1.47567
1.49693
1.81117
1.89775
1.68918
2.07103
1.92395
2.17318
2.35944
1.24547
1.40556
1.42127
1.54012
1.55661
1.77629
1.75906
1.30497
1.31737
1.30611
1.48484
1.47167
1.52267
1.69402
1.67758
1.608
1.4651
1.5626
1.7949
1.71633
1.98458
2.17425
1.85489
1.66929
2.03711
1.74735
1.57609
1.81857
2.15212
2.1831
1.90901
1.7941
1.61011
1.81623
2.03892
2.30566
1.88775
2.12636
2.38649
2.1268
2.30721
2.63764
2.70353
3.05536
3.13103
2.39182
1.72456
1.22628
1.53774
2.12341
1.89863
1.76931
2.04919
2.21853
2.29815
2.49943
2.60351
2.39305
2.57332
2.51721
1.23538
1.24217
1.22511
1.22233
1.73556
1.62506
1.49501
1.51648
1.39556
1.32074
1.56858
1.45697
1.35969
1.51981
1.88372
1.64462
1.749
1.21039
1.36645
1.42109
1.53639
1.59534
1.61906
1.79725
1.81725
1.87388
2.95381
3.01972
1.41648
2.04963
3.02136
1.27336
1.55657
1.28719
1.52342
1.81954
1.83604
1.50875
2.02209
1.80564
2.99177
3.01748
1.52656
1.96882
3.03551
1.29447
1.54094
1.30826
1.58657
1.84674
1.8632
1.57164
3.15702
2.09214
3.05162
1.32215
1.22568
2.87192
1.65883
1.28152
2.38278
2.69525
1.23368
1.22512
2.47516
1.33694
2.42512
1.31923
2.44611
1.22837
1.22506
1.70913
1.23954
1.94421
2.42094
2.08384
2.46377
2.15872
2.34506
2.72474
2.07716
2.15744
1.94084
2.46474
2.22102
2.41305
2.72029
1.7207
2.22318
1.89221
2.29671
1.94086
2.15624
2.50972
1.69176
2.24933
1.86591
2.34713
1.94616
2.16652
2.52155
1.25251
1.51672
1.26609
1.51102
1.78861
1.80485
1.49647
1.38958
1.56513
1.46621
1.71404
1.60576
1.82811
1.94434
1.84828
2.07826
1.69728
1.60481
1.78375
1.89078
2.21697
1.59331
1.49567
1.33448
1.51405
1.9987
1.676
1.78251
1.68549
1.45351
1.55742
1.64658
2.05651
1.78466
1.90478
1.97579
2.37533
2.18413
2.54647
2.35605
2.61187
2.72511
1.36668
1.61325
1.38124
1.69465
1.95848
1.97639
1.67863
1.4248
1.60157
1.61855
1.80158
1.82125
2.07628
2.05436
1.29228
1.45436
1.5395
1.63592
1.72981
1.74653
1.9448
1.39882
2.15843
2.96863
3.03463
1.27327
2.37557
2.78684
1.85173
2.04351
2.38637
2.34634
2.01316
2.22612
2.64523
2.99768
3.16149
3.17554
1.23963
1.49643
1.41053
1.22517
1.96078
1.49732
1.70038
1.59995
2.11347
1.83765
1.84181
2.31996
2.1067
2.45949
2.68419
2.70683
2.52736
2.93897
2.1123
2.46043
2.70244
2.53815
2.27479
2.69738
2.94786
1.59845
1.41211
1.32627
1.56438
1.98723
1.88328
1.65497
1.5571
1.38806
1.3044
1.5515
1.95044
1.85053
1.6408
1.41014
1.75125
1.42479
1.65613
2.01712
2.03562
1.64065
1.58168
1.43209
1.34696
1.62822
2.01462
1.91061
1.72056
1.797
1.55504
1.46514
1.69932
2.21267
2.09125
1.79517
1.47875
1.79544
1.67357
2.03275
1.88753
2.14959
2.30467
2.46586
2.25838
2.36943
2.82574
2.58735
2.19047
1.95257
1.27541
2.44587
3.03237
2.19815
1.23837
2.65674
2.9723
1.54207
1.94357
1.55785
1.80248
2.24073
2.26186
1.78551
3.1791
2.16126
1.27294
1.22646
1.22503
2.18518
1.2673
2.42273
2.85923
3.04339
3.03377
2.64046
2.87598
3.13317
1.79442
1.65034
1.47314
1.67136
2.27999
2.01889
1.8534
1.65657
1.51301
1.42209
1.74017
2.14953
2.03
1.84187
2.17296
1.84445
1.74775
1.96628
2.3509
2.08672
2.51603
2.64915
1.97287
2.85979
2.43291
1.23177
2.77542
2.62571
2.93781
2.8899
2.31581
3.02214
2.54405
1.22812
1.79825
1.55848
1.98756
2.02815
1.96178
1.77618
1.7207
1.7883
1.50673
1.90908
1.90581
1.93194
1.67449
1.6974
1.72644
2.00181
1.70584
1.60368
1.85197
2.47253
2.33069
1.96305
1.61351
1.87602
1.62961
2.04215
2.34583
2.36663
2.0221
1.64473
2.07004
1.88976
1.96455
1.79414
2.07367
2.29366
1.68708
1.86225
2.16486
2.02006
1.81798
2.10499
2.37238
1.49969
1.92044
1.90215
1.6859
1.67078
1.90071
2.15601
1.67482
2.09391
1.9299
2.00495
1.84522
2.14526
2.35355
2.56706
2.16735
1.9377
2.45295
2.0868
2.34545
2.80587
1.54167
1.71953
1.88394
1.92232
2.11306
2.13081
2.37939
0.474243
0.550541
0.628517
0.762529
1.01925
1.33858
1.50053
0.525393
0.396132
0.447385
0.544519
0.626464
0.435519
0.517141
0.392139
0.412212
0.40954
0.421276
0.418612
0.435546
0.436664
0.724057
0.494507
0.594079
0.924921
1.11035
0.675321
0.854107
0.401618
0.460849
0.421082
0.470281
0.430711
0.450227
0.495615
1.25355
0.724343
0.932789
1.37496
1.82742
0.909518
1.21311
0.693127
0.466827
0.54282
0.660191
0.813772
0.547122
0.652075
0.429273
0.448039
0.428088
0.453948
0.471128
0.474185
0.453197
0.447282
0.475542
0.446377
0.463049
0.48878
0.492313
0.462077
0.493652
0.506704
0.461446
0.481019
0.56949
0.513421
0.531844
0.465598
0.48816
0.442373
0.471706
0.551199
0.49523
0.522809
0.565297
0.525978
0.537563
0.603798
0.618153
0.568835
0.655957
0.624032
0.730689
0.671378
0.750153
0.688511
0.736054
0.809112
0.481607
0.50546
0.496761
0.534868
0.511767
0.502785
0.478373
0.469846
0.491061
0.488236
0.497037
0.494352
0.523447
0.51404
0.778665
0.785914
0.807852
0.846016
0.871405
0.877049
0.949805
0.927176
0.629749
0.875471
1.17895
1.44173
0.991966
1.15137
0.559203
0.685014
0.643434
0.635525
0.601776
0.695543
0.736337
0.582281
0.730408
0.672952
0.658892
0.613317
0.710771
0.768072
0.502702
0.561712
0.596636
0.587146
0.535785
0.526852
0.558609
0.490845
0.581155
0.578612
0.521112
0.518443
0.550416
0.613855
2.01347
0.97989
1.32138
1.57131
2.51025
1.20467
1.62258
0.840628
0.992414
0.914891
1.02941
0.945283
1.03377
1.12943
0.51826
0.562697
0.527532
0.556825
0.584182
0.597489
0.544886
0.828963
0.83404
0.757023
0.804096
0.984632
0.876039
0.894209
0.771293
0.790568
0.720332
0.784732
0.933992
0.835441
0.8705
0.512728
0.554851
0.522408
0.554234
0.579145
0.592313
0.54232
0.69029
0.677998
0.645348
0.749886
0.846228
0.806346
0.789465
0.728171
0.669907
0.666373
0.778018
0.772789
0.707235
0.822636
1.65088
1.22928
1.47602
1.99258
2.63908
1.52966
1.71769
0.855593
1.01511
0.924626
1.03253
0.95244
1.03883
1.13751
0.592478
0.618316
0.554428
0.586744
0.69988
0.630229
0.653567
0.585333
0.613052
0.549503
0.584427
0.694086
0.625339
0.650866
0.906519
1.12131
0.985055
1.09576
0.98128
1.07406
1.2172
0.423397
0.652189
0.95526
0.384064
0.452433
0.525361
0.444441
0.514394
0.51447
0.615875
0.380613
0.405835
0.403219
0.400853
0.403576
0.423633
0.424587
0.479505
0.605418
0.793166
0.590648
0.710138
0.846071
1.07564
0.388554
0.455745
0.452393
0.411413
0.414378
0.437572
0.484634
0.699139
1.04044
1.2576
0.904259
1.35884
1.34789
1.52938
0.428617
0.453827
0.427894
0.448002
0.470771
0.474388
0.446972
0.42333
0.445111
0.422241
0.445112
0.465354
0.468459
0.444326
0.547103
0.519554
0.514992
0.589533
0.595624
0.554747
0.637368
0.489681
0.471812
0.442129
0.465639
0.55393
0.495807
0.518565
0.482709
0.462552
0.436067
0.462579
0.546253
0.489476
0.514915
0.602893
0.718419
0.710671
0.653782
0.66104
0.7123
0.780457
0.46998
0.491114
0.488253
0.524229
0.494565
0.497628
0.46668
0.749918
0.771781
0.763607
0.820357
0.829293
0.843364
0.909745
0.561552
0.700374
0.646589
0.639224
0.596422
0.687968
0.741202
0.552057
0.679986
0.633689
0.628389
0.591427
0.681009
0.726165
0.491118
0.58368
0.551591
0.579457
0.518768
0.522102
0.548516
0.868607
0.967276
0.884111
0.894348
0.806509
0.984793
1.06935
0.875292
0.723659
0.790314
0.774659
0.939249
0.841104
0.857018
0.775641
0.764776
0.707902
0.765938
0.917518
0.822291
0.847048
0.673553
0.667571
0.631615
0.730625
0.826208
0.774315
0.782583
0.925376
0.857291
0.955731
1.0366
0.934802
1.01613
1.13996
1.00318
0.923003
0.83828
1.01159
0.92367
1.00352
1.11074
1.0732
1.05056
1.11569
1.15203
1.19845
1.22762
1.31817
1.38874
1.24692
1.13723
1.09113
1.00302
1.10831
1.21202
1.22303
1.19497
1.09369
1.06218
0.978666
1.09364
1.19462
0.852771
0.976192
1.04594
1.01889
0.925106
0.90341
0.95544
1.2399
1.18214
1.07663
1.18098
1.51442
1.3576
1.30223
1.10848
1.09227
1.00341
1.13755
1.39038
1.25712
1.24873
0.593111
0.63002
0.627428
0.7069
0.643754
0.641028
0.579913
0.921091
0.881696
0.824908
1.00053
0.888612
0.945285
1.07165
0.993669
1.00553
0.949315
0.88349
0.893792
0.827807
0.923759
0.713239
0.890986
0.831224
0.807252
0.753668
0.87871
0.943248
0.82091
0.706186
0.751665
0.799586
0.750054
0.87352
0.932511
0.625912
0.74241
0.749106
0.745812
0.678417
0.675662
0.694803
1.1733
1.13947
1.05916
1.17089
1.41694
1.31597
1.27288
1.11724
1.10561
1.01645
1.11663
1.24376
1.20544
1.35577
1.23031
1.20912
1.10705
1.24688
1.12092
1.01847
1.11843
1.41867
1.18563
1.27364
1.51785
1.36091
1.45911
1.62362
1.12212
1.32348
1.23158
1.37226
1.27932
1.40498
1.50604
1.28754
1.60263
1.38177
1.6527
1.42022
1.5201
1.76033
1.06807
1.01031
0.94276
1.00814
1.23555
1.07964
1.14915
1.37134
1.35886
1.23162
1.55325
1.39016
1.53203
1.73004
1.73055
1.53417
1.37179
1.39168
1.5526
1.23179
1.35795
1.29902
1.61046
1.66731
1.5993
1.48244
1.42738
1.44216
0.860304
0.85604
0.800612
0.934159
1.0779
1.00431
0.998505
1.03134
1.08594
0.956678
1.01518
1.25463
1.09411
1.15838
1.34893
1.3029
1.20053
1.40512
1.30071
1.47399
1.60098
1.22332
1.52209
1.3787
1.43047
1.31281
1.48963
1.63405
1.82411
1.74942
1.57398
1.68014
2.16101
1.94416
1.86606
1.46841
1.81431
1.69375
1.61096
1.99964
1.86044
1.72393
1.4619
1.36098
1.51256
1.55134
1.84528
1.72195
1.6616
1.08209
1.25242
1.34112
1.33082
1.16688
1.15909
1.23909
1.91528
1.68176
1.52264
1.68008
2.11237
1.83736
1.91437
1.74179
1.76688
1.56163
1.70037
2.17074
1.88082
1.94027
1.533
1.51936
1.41033
1.60821
1.89838
1.75701
1.739
1.77792
2.31046
2.23001
2.13104
2.06177
1.97714
1.90624
1.84724
2.21925
2.37934
2.34411
2.03503
2.01038
2.12613
2.72315
2.2812
2.9046
3.05466
2.62859
2.43559
2.1286
1.34525
2.12823
3.04561
2.46114
1.22696
2.88387
2.19264
2.72396
3.03195
1.80067
2.97381
1.3615
1.22599
2.20339
2.34332
1.98372
1.77599
2.14593
1.90309
2.22654
2.56322
1.90821
1.90939
1.63965
1.7599
2.43177
2.08122
2.04265
1.51829
1.96723
1.6884
2.10775
1.77994
1.9623
2.32141
1.58076
1.98179
1.74036
2.05816
1.80497
2.01515
2.29559
2.25688
2.09481
1.80262
2.18118
2.01907
2.38794
2.60829
1.30017
2.22585
3.05337
1.7608
1.22619
2.95101
2.40005
1.54592
2.02937
1.72042
2.15243
1.79649
1.98212
2.37822
1.5649
1.99759
1.7383
2.18055
1.86548
2.05668
2.4064
2.67722
2.1557
2.48804
2.49011
2.85468
2.82999
2.67883
1.77758
1.92688
1.67551
2.10287
2.56642
2.43464
2.2344
1.83142
2.13345
1.84995
2.37519
2.64931
2.6602
2.35406
2.75196
2.3151
2.15974
2.4839
2.93682
2.67893
3.07708
1.99011
2.30279
2.55113
2.2674
2.59116
2.56955
2.6672
2.26634
2.58939
2.66667
2.29943
2.56823
1.9883
2.27133
2.02505
2.58873
2.31744
2.56012
2.63133
2.58865
2.31717
2.51129
1.95046
1.97075
2.26183
2.75069
2.75576
2.24026
1.49121
2.88873
2.94158
2.82233
1.22889
2.46965
1.22601
1.72872
2.31794
2.25285
2.1664
1.89456
2.01477
1.98232
2.22336
2.74862
2.61361
2.53234
2.86629
2.88843
2.70552
2.52608
2.21545
2.40932
2.60328
2.85838
2.88066
2.73999
2.37475
2.4774
2.66012
2.40871
2.6729
2.6309
2.59999
2.59648
2.35048
2.08495
2.41428
2.62809
2.58674
2.60834
2.5705
2.17183
2.03432
2.33218
2.87312
2.79473
2.47129
1.6558
2.10791
1.84282
2.33953
2.00426
2.22553
2.58638
1.68794
2.12369
1.85491
2.25757
1.96164
2.19556
2.52781
2.01506
1.98943
2.25753
2.24933
2.53013
2.52095
2.74729
2.59775
2.09893
2.40429
2.46919
2.65435
2.62819
2.671
1.82195
2.15039
2.16978
2.18724
2.2073
2.64159
2.6244
1.24417
2.57089
2.54665
1.94832
1.22531
3.02101
1.31012
2.20257
2.04518
1.91074
2.44448
2.80963
2.71062
2.58037
1.6964
2.28524
1.88223
2.4037
1.94669
2.14969
2.64065
2.09152
2.3204
1.95632
2.42611
2.23453
2.70602
2.88896
1.89069
2.2159
2.23632
2.30904
2.3303
2.72694
2.71542
2.62811
2.59607
2.41248
2.60797
2.47301
2.08341
2.34945
1.23008
2.81294
2.88046
1.23837
1.22508
2.97281
1.50785
1.86775
2.58797
2.08542
2.66422
2.14402
2.38896
2.84998
2.004
2.30176
2.78068
2.49667
2.14012
2.56773
2.93741
3.11397
1.23383
2.62214
3.04104
1.30115
1.50717
1.22511
2.56254
2.82993
2.94336
3.05271
3.10915
3.10874
3.14444
2.61046
2.82534
2.81708
2.71015
2.8391
2.97622
2.78354
2.79662
2.72436
2.44202
2.84464
2.85458
2.99404
2.83418
1.80889
2.16228
2.14273
2.62489
2.1821
2.16196
1.79262
1.93309
2.25996
2.37364
2.76875
2.2804
2.39464
1.91609
2.4059
2.65782
2.74883
2.96766
2.99775
3.01052
3.12714
2.34257
2.52579
2.60559
2.53895
2.59369
2.59187
2.51994
1.86795
2.3577
2.22909
2.40051
2.26865
2.70107
2.80805
1.91099
2.58148
2.66654
2.44147
2.30753
2.10611
2.21451
2.40557
3.00844
2.70275
2.66014
3.12889
3.00041
2.96859
2.56481
3.11284
2.94996
2.81808
3.13805
3.04826
3.10222
2.5639
2.56931
2.28712
2.49551
2.57676
2.62743
2.61988
1.85495
2.68624
2.37441
2.34938
2.24297
2.22091
1.95589
2.0981
2.604
2.44396
2.88699
2.61889
2.46436
2.07822
1.97977
2.52131
2.17985
2.7448
2.40447
2.66183
2.90783
1.93975
2.46751
2.16062
2.73631
2.4365
2.66746
2.88965
3.06157
2.46304
2.63839
3.15216
2.86438
2.99283
3.16979
1.94024
2.43755
2.30051
2.53929
2.39899
2.77703
2.87167
2.58164
2.65561
2.58826
2.65261
2.7174
2.65438
2.60235
2.56139
2.58543
2.59269
2.61378
2.58512
2.5615
2.42466
2.1786
2.52558
2.54351
2.68727
2.69789
2.92477
2.92726
1.22553
2.93801
2.22157
1.23201
1.22513
2.85568
1.68859
2.34213
2.79945
2.36198
2.60978
2.92068
2.91284
2.59809
3.06198
3.15197
3.18268
3.06061
3.08539
3.151
3.1465
2.99299
2.79531
2.78246
2.94221
2.57725
2.99956
2.84225
1.98321
2.81364
2.48253
2.59791
2.34566
2.46316
2.09373
2.19357
2.2277
1.98014
2.31526
2.92574
2.60335
2.65024
2.92096
2.61991
2.20621
2.4617
3.08003
2.75861
2.92387
2.71575
2.59545
3.02537
2.50758
3.10647
2.85015
2.96241
2.36162
2.27058
2.06174
2.43748
2.99337
2.81635
2.71
2.70266
2.49404
2.95396
2.57149
3.10269
2.83207
3.01307
2.30638
2.21457
2.1894
2.59816
2.50796
2.63429
2.91991
1.23487
2.96689
2.96042
1.2257
1.22502
2.16756
1.27033
2.25846
3.01462
2.7506
2.84141
2.42886
2.90025
3.05417
3.04819
3.06882
3.15693
3.13626
3.13664
3.18428
3.06686
2.1587
2.9151
2.78536
2.66367
2.67669
2.53295
2.29067
2.83245
2.57097
2.43106
2.66441
2.93503
2.91868
2.77321
2.27191
2.19427
1.93135
2.21325
2.90858
2.65607
2.52354
2.19329
2.14629
1.89345
2.18826
2.86848
2.59391
2.4904
2.46515
3.12767
2.83708
2.6891
3.13757
2.99984
3.07796
2.24129
2.72513
2.60624
2.83863
2.74709
2.94786
2.99316
2.38234
2.93918
2.62316
2.95044
2.65489
2.83358
2.9818
1.25617
2.96298
2.26496
2.10755
1.22538
1.25455
1.22501
2.46849
2.29398
2.39826
2.73634
2.68581
2.84938
3.0039
2.22891
2.21269
1.94867
2.30045
2.91866
2.67926
2.62309
2.36906
2.37498
2.07294
2.50799
2.99153
2.83034
2.8199
3.09112
2.95758
2.50136
2.87957
3.14115
3.02172
3.13912
2.25641
2.77301
2.52281
2.91872
2.75581
2.90565
2.98209
2.32087
2.85551
2.56145
2.96003
2.7885
2.91883
2.99456
2.46526
2.75647
2.76269
2.87544
2.87366
2.98782
2.99886
2.34534
2.55345
2.59687
2.77199
2.8054
2.93001
3.02118
2.26349
2.4942
2.66761
2.92617
2.894
3.00698
3.05973
2.57576
2.92954
2.82695
2.99473
2.82863
2.92498
2.56059
2.56461
2.41988
2.11303
2.41224
2.99885
2.85957
2.7365
2.72944
2.54633
2.31415
2.77952
3.06445
2.9552
3.02793
2.46381
2.6358
2.72607
2.83717
2.89722
2.97334
3.04108
2.57903
2.7263
2.66388
2.74129
2.72733
2.66414
2.375
1.59578
1.29302
1.22512
1.26555
1.2251
1.22501
1.22507
2.65113
2.61756
2.66945
2.70616
2.73129
2.61599
2.24997
2.63161
2.97086
2.98316
2.92663
2.86051
2.9405
2.74114
2.57325
2.54538
2.11522
2.33177
3.01744
2.78972
2.76618
2.67327
2.76978
2.27125
2.50769
3.04384
2.8596
2.92013
2.8287
2.71074
2.36619
2.67495
3.01985
2.97591
2.91987
3.15511
2.9773
2.82207
3.07
3.09483
3.10136
3.15603
2.53012
2.88408
2.80358
2.95093
2.90046
2.98453
2.98251
1.22507
3.06249
1.33826
1.24665
1.22502
3.00314
1.25533
2.59986
2.94359
2.61824
2.94718
3.06403
3.04972
2.94916
3.1931
3.14601
3.18486
3.10292
2.94328
3.12437
2.64214
2.84288
2.8625
2.8428
3.0154
3.01906
3.00139
2.48602
1.23739
1.22507
1.28241
1.22503
1.22501
1.24788
1.22509
1.25795
1.24457
1.22508
1.22502
1.22501
1.22835
1.22502
2.60999
2.52704
2.37638
2.48985
2.63535
2.64583
2.61529
2.81539
2.96589
2.95365
2.88697
2.94973
2.94539
2.81473
2.90674
2.82271
2.49434
2.72619
3.01778
2.99656
2.9542
3.15338
3.09702
3.1579
3.01443
3.07922
3.11376
3.16404
2.76955
2.73238
2.44316
2.86982
3.00777
2.98839
2.99719
2.56738
2.6439
2.56309
2.54283
2.64527
2.61258
2.16183
2.73704
2.7096
2.61652
2.73077
2.67075
2.65197
2.24693
2.64588
2.95119
2.66189
2.97094
3.05732
3.04069
2.97471
2.73981
2.5338
2.65952
2.5068
2.70963
2.34839
1.82042
2.77836
2.86312
2.93991
2.97325
3.00645
3.02315
3.00069
2.61281
2.16257
2.56319
2.64526
2.54315
2.63116
2.56711
1.22504
3.03661
1.25042
1.25048
1.22501
2.90517
1.23153
1.22505
2.72376
1.43009
1.22504
1.225
1.39579
1.22866
2.75077
2.92926
2.90046
2.9242
2.89471
2.96363
2.81621
1.77486
1.22666
1.23084
1.22501
1.22505
1.22502
1.22501
2.84664
2.86445
3.00541
2.84872
3.02499
3.01738
2.85898
2.96215
2.84254
2.63644
3.00071
3.03038
3.06713
3.05349
2.49056
2.6091
2.61538
2.37803
2.6353
2.52827
1.89245
2.60439
2.46363
2.60419
2.23379
2.52794
2.23322
1.69317
2.6798
2.98733
2.69382
2.96186
3.05536
3.03747
2.96489
2.94302
2.80354
3.03315
2.69853
3.03228
2.9246
2.18301
2.88616
2.97835
2.96652
2.95415
2.93425