/*--------------------------------*- C++ -*----------------------------------*\
  =========                 |
  \\      /  F ield         | OpenFOAM: The Open Source CFD Toolbox
   \\    /   O peration     | Website:  https://openfoam.org
    \\  /    A nd           | Version:  9
     \\/     M anipulation  |
\*---------------------------------------------------------------------------*/
FoamFile
{
    format      ascii;
    class       volScalarField;
    location    "0.0033";
    object      rho.air;
}
// * * * * * * * * * * * * * * * * * * * * * * * * * * * * * * * * * * * * * //

dimensions      [1 -3 0 0 0 0 0];

internalField   nonuniform List<scalar> 
29914
(
0.215489
0.451513
0.799971
0.319714
0.141829
0.215934
0.358818
0.427732
0.296403
0.349137
0.50877
0.385446
0.432225
0.720208
0.796096
0.588855
0.665919
0.160485
0.164165
0.182214
0.16291
0.181146
0.205361
0.188059
0.213604
0.314
0.233532
0.315773
0.233175
0.254605
0.333792
0.18883
0.2316
0.205832
0.231753
0.245848
0.260527
0.215707
0.929104
0.636414
0.734875
1.0158
1.07232
0.775883
0.953958
0.187132
0.232226
0.204727
0.232042
0.247825
0.263211
0.215616
0.276237
0.331364
0.254235
0.277226
0.37151
0.301551
0.352119
0.465388
0.401624
0.406965
0.482879
0.492217
0.422786
0.509187
0.279635
0.336139
0.25482
0.27842
0.380196
0.306173
0.35539
0.417168
0.515973
0.499886
0.454135
0.438278
0.525485
0.54138
0.261745
0.282665
0.280176
0.332486
0.296675
0.293854
0.246681
0.532564
0.614875
0.553138
0.631684
0.566526
0.58671
0.656641
0.42858
0.546528
0.519055
0.469085
0.444708
0.535693
0.563747
0.303653
0.365476
0.402963
0.397381
0.334658
0.330937
0.3756
0.681535
0.670246
0.689925
0.723663
0.746282
0.722098
0.787294
0.59371
0.640299
0.573686
0.606663
0.706988
0.626038
0.681766
0.487946
0.479308
0.461304
0.552124
0.601864
0.581846
0.569427
0.63661
0.675184
0.601082
0.620984
0.745103
0.656589
0.69983
0.726352
0.832816
0.776319
0.862617
0.802193
0.852679
0.922123
0.702675
0.805302
0.764887
0.785474
0.753556
0.826795
0.866037
0.744312
0.881071
0.813187
0.830608
0.775226
0.851993
0.918322
0.640592
0.698515
0.770305
0.749983
0.676889
0.660344
0.724894
1.22516
1.225
1.225
1.225
1.225
1.225
1.225
2.26915
1.22504
1.225
1.225
1.225
1.225
1.225
2.61454
1.78917
1.22972
1.22501
1.225
1.225
1.225
1.77199
2.36872
2.68471
1.38298
1.22509
1.225
1.225
0.830945
1.28235
1.85881
2.63746
1.9555
1.22523
1.225
0.398105
0.633005
1.03328
1.65113
2.52544
2.00865
1.22511
0.359035
0.561969
0.95127
1.6401
2.62035
1.45299
0.350424
0.562099
1.0173
1.82195
2.70436
1.225
1.225
1.225
1.225
1.225
1.225
1.225
1.22542
1.22501
1.225
1.225
1.225
1.225
1.225
2.47359
1.39068
1.22593
1.22501
1.225
1.225
1.225
1.96516
2.54548
2.60956
1.2588
1.22502
1.225
1.225
1.01182
1.44007
2.01903
2.71239
1.45652
1.22504
1.225
0.592604
0.780674
1.16818
1.7956
2.66548
1.48869
1.22502
0.532413
0.690482
1.07775
1.7827
2.70775
1.27493
0.673363
0.686979
1.14692
1.97318
2.66731
1.225
1.225
1.225
1.225
1.225
1.225
1.225
1.22501
1.225
1.225
1.225
1.225
1.225
1.225
1.2716
1.22801
1.22502
1.225
1.225
1.225
1.225
2.5431
2.68157
1.54663
1.2255
1.225
1.225
1.225
1.53884
1.90363
2.54616
2.54232
1.22855
1.225
1.225
1.06247
1.36498
1.60996
2.23079
2.69775
1.22913
1.225
0.968653
1.11062
1.50295
2.20957
2.6019
1.22578
0.983881
0.949981
1.57978
2.47555
1.74539
1.225
1.225
1.225
1.225
1.225
1.225
1.225
1.225
1.225
1.225
1.225
1.225
1.225
1.225
1.22533
1.22501
1.225
1.225
1.225
1.225
1.225
1.81448
1.33183
1.22555
1.225
1.225
1.225
1.225
2.30719
2.70694
2.54065
1.23706
1.22501
1.225
1.225
1.27325
1.51446
2.30501
2.74802
1.26425
1.22501
1.225
1.11014
1.21994
1.40867
2.14769
2.74925
1.24208
1.225
0.979216
1.44683
1.45319
2.2562
2.63201
1.22609
1.18049
1.64207
1.34755
1.22502
1.225
1.225
1.225
1.225
1.225
1.225
1.225
1.225
1.225
1.225
1.225
1.225
1.225
1.225
1.225
1.225
1.225
1.225
1.225
1.225
1.225
1.22615
1.22502
1.225
1.225
1.225
1.225
1.225
1.73242
1.40096
1.2262
1.22501
1.225
1.225
1.225
2.54483
2.76226
2.41622
1.23656
1.22501
1.225
1.225
1.75223
1.65316
2.6215
2.63731
1.23895
1.22501
1.225
1.14983
1.45443
1.59668
2.59377
2.50651
1.22711
1.225
1.75976
1.28027
1.22502
1.225
1.225
1.225
1.225
1.225
1.225
1.225
1.225
1.225
1.225
1.225
1.225
1.225
1.225
1.225
1.225
1.225
1.225
1.225
1.225
1.225
1.225
1.225
1.225
1.225
1.225
1.225
1.225
1.225
1.22501
1.22502
1.225
1.225
1.225
1.225
1.225
1.51993
1.27118
1.2253
1.225
1.225
1.225
1.225
2.13449
2.47671
1.63369
1.2261
1.225
1.225
1.225
1.31294
1.48783
1.96353
1.71364
1.22547
1.225
1.225
1.83016
2.15237
1.22503
1.225
1.225
1.225
1.225
1.225
1.225
1.225
1.225
1.225
1.225
1.225
1.225
1.225
1.225
1.225
1.225
1.225
1.225
1.225
1.225
1.225
1.225
1.225
1.225
1.225
1.225
1.225
1.225
1.225
1.225
1.225
1.225
1.225
1.225
1.225
1.225
1.225
1.22501
1.22502
1.225
1.225
1.225
1.225
1.225
1.38142
1.24636
1.22509
1.225
1.225
1.225
1.225
2.25439
2.30176
1.30349
1.22511
1.225
1.225
1.225
2.28625
1.87088
1.225
1.225
1.225
1.225
1.225
1.225
1.225
1.225
1.225
1.225
1.225
1.225
1.225
1.225
1.225
1.225
1.225
1.225
1.225
1.225
1.225
1.225
1.225
1.225
1.225
1.225
1.225
1.225
1.225
1.225
1.225
1.225
1.225
1.225
1.225
1.225
1.225
1.225
1.225
1.225
1.225
1.225
1.225
1.225
1.225
1.22501
1.22501
1.225
1.225
1.225
1.225
1.225
1.23185
1.22646
1.22501
1.225
1.225
1.225
1.225
1.27049
1.225
1.225
1.225
1.225
1.225
1.225
1.225
1.225
1.225
1.225
1.225
1.225
1.225
1.225
1.225
1.225
1.225
1.225
1.225
1.225
1.225
1.225
1.225
1.225
1.225
1.225
1.225
1.225
1.225
1.225
1.225
1.225
1.225
1.225
1.225
1.225
1.225
1.225
1.225
1.225
1.225
1.225
1.225
1.225
1.225
1.225
1.225
1.225
1.225
1.225
1.225
1.225
1.225
1.225
1.225
1.225
1.225
1.225
1.225
1.225
1.225
1.225
1.225
1.225
1.225
1.225
1.225
1.225
1.225
1.225
1.225
1.225
1.225
1.225
1.225
1.225
1.225
1.225
1.225
1.225
1.225
1.225
1.225
1.225
1.225
1.225
1.225
1.225
1.225
1.225
1.225
1.225
1.225
1.225
1.225
1.225
1.225
1.225
1.225
1.225
1.225
1.225
1.225
1.225
1.225
1.225
1.225
1.225
1.225
1.225
1.225
1.225
1.225
1.225
1.225
1.225
1.225
1.225
1.225
1.225
1.225
1.225
1.225
1.225
1.225
1.225
0.500614
0.245521
0.350185
0.455481
0.57179
0.368193
0.440748
0.495646
0.26301
0.359693
0.439799
0.563582
0.366147
0.44936
0.563247
0.249239
0.365444
0.505292
0.645467
0.385146
0.464415
0.249543
0.280064
0.28237
0.292596
0.294882
0.327198
0.315529
0.636692
0.44794
0.512191
0.823828
0.935905
0.691638
0.779726
0.521375
0.510457
0.625948
0.521547
0.775219
0.916304
0.750487
0.259824
0.277646
0.2907
0.278445
0.291784
0.325724
0.313533
0.301397
0.387535
0.389979
0.326904
0.329068
0.357347
0.413574
0.300081
0.389356
0.326276
0.39276
0.328093
0.357307
0.416505
0.719787
0.477565
0.616455
0.939249
1.05589
0.793176
0.847085
0.825357
1.19755
1.09211
1.01252
1.16671
1.22132
1.69778
1.13282
1.17255
0.843854
1.40891
1.66013
1.07975
1.22586
0.264978
0.285777
0.300141
0.28981
0.304632
0.344163
0.330636
1.17723
0.897506
1.0378
1.59362
1.85071
1.11661
1.29397
0.826754
0.391756
0.556487
0.628183
0.888562
0.473133
0.620312
0.313479
0.361266
0.325188
0.362765
0.392489
0.402321
0.351893
0.312418
0.361178
0.324372
0.362603
0.392751
0.403039
0.351371
0.308994
0.409317
0.339122
0.41654
0.344569
0.378957
0.444458
0.441692
0.461133
0.464383
0.541878
0.546199
0.486058
0.568742
0.867726
0.406183
0.607116
0.626264
0.930323
0.439783
0.675136
0.318855
0.370586
0.330514
0.365747
0.399411
0.409364
0.354959
0.531957
0.465965
0.471807
0.549866
0.558555
0.492418
0.578912
0.912732
0.409072
0.572357
0.709274
0.979625
0.445506
0.640228
0.315988
0.370754
0.328442
0.36576
0.40131
0.41204
0.354299
0.387928
0.41176
0.355491
0.389286
0.473153
0.425895
0.440843
0.397015
0.417292
0.360608
0.392191
0.480411
0.432715
0.443957
0.39921
0.421364
0.360691
0.393594
0.48759
0.436789
0.448533
0.388085
0.413282
0.355383
0.389904
0.475467
0.426829
0.443627
0.324555
0.377468
0.337665
0.385916
0.419113
0.430267
0.373562
1.15389
0.47045
0.664787
0.923569
1.23698
0.570585
0.745327
0.338777
0.41111
0.352831
0.396636
0.447986
0.459961
0.383948
0.821489
0.869908
1.03087
0.934328
1.07702
1.4267
1.034
0.4067
0.43543
0.37153
0.416086
0.510299
0.456735
0.4753
0.576358
0.49759
0.508345
0.595602
0.610798
0.531504
0.632769
0.949914
0.541549
0.680567
0.988641
1.24514
0.81804
0.972047
0.598475
0.703855
0.710355
0.62291
0.628381
0.654031
0.741114
0.99301
0.646286
0.739905
0.980671
1.29407
0.844435
1.05037
1.05345
0.906023
0.87534
1.18396
1.45717
1.01534
1.03022
0.613346
0.718037
0.634177
0.732353
0.645889
0.668281
0.759202
0.483942
0.594535
0.566156
0.541116
0.511385
0.595409
0.626195
0.490805
0.608006
0.574907
0.54927
0.515042
0.599876
0.635697
0.894338
0.759236
0.820495
0.83354
0.903213
0.905604
0.984446
0.901077
0.924021
0.936937
0.998861
0.988245
1.02618
1.09417
1.04696
0.666213
0.704099
1.11109
1.36265
0.877914
1.00821
0.499685
0.624701
0.589209
0.560217
0.523216
0.612433
0.651244
0.406379
0.447915
0.442054
0.509359
0.45755
0.451454
0.395857
0.404773
0.440121
0.444138
0.503807
0.449078
0.453038
0.394949
0.443511
0.455395
0.38854
0.427889
0.54544
0.488871
0.488544
0.487261
0.597168
0.571429
0.544866
0.516466
0.603185
0.631596
0.401786
0.439062
0.438541
0.448224
0.447447
0.500334
0.492115
0.416343
0.450792
0.459911
0.460576
0.469912
0.520417
0.511978
1.18802
0.950768
1.06501
1.46853
1.63016
1.15376
1.25587
0.430574
0.529244
0.525715
0.518151
0.479531
0.472962
0.48023
0.428268
0.522951
0.513596
0.517821
0.470154
0.474113
0.475515
0.425338
0.513755
0.512286
0.469428
0.46861
0.519649
0.560603
0.420027
0.456755
0.466653
0.468498
0.47874
0.533235
0.523898
0.639573
0.519412
0.54381
0.587389
0.557352
0.656905
0.684485
1.00004
0.932113
0.834048
0.905411
0.975756
1.01637
1.0925
0.488151
0.525254
0.480957
0.536279
0.491189
0.539775
0.581531
0.892643
0.981988
1.04094
0.950331
0.877582
0.827051
0.902056
0.69528
0.767749
0.67416
0.818955
0.715722
0.739014
0.845674
0.497608
0.536656
0.489313
0.551031
0.502295
0.554471
0.599399
0.957639
1.05586
1.10975
0.964977
1.0101
0.882824
0.931069
0.443176
0.502327
0.483373
0.573133
0.513239
0.493978
0.431718
0.683353
0.737367
0.650878
0.684227
0.816336
0.719144
0.776155
0.7948
0.661823
0.699744
0.689663
0.829322
0.730271
0.782667
0.876313
0.791893
0.746259
0.784464
0.868248
0.829648
0.922212
1.3179
0.655474
0.820495
1.39192
1.66136
1.0149
1.16266
0.545479
0.699883
0.651142
0.627778
0.573316
0.676736
0.731944
1.04239
0.96678
1.06949
1.14507
1.06149
1.17108
1.25774
1.53741
1.40168
1.24069
1.3659
1.85433
1.76128
2.1682
0.594175
0.585101
0.551059
0.63967
0.723245
0.683219
0.672242
0.77591
0.722875
0.681913
0.706989
0.855354
0.751149
0.804494
0.68693
0.746748
0.658233
0.694873
0.825097
0.726261
0.789586
0.578555
0.583208
0.543652
0.629033
0.709721
0.663464
0.668733
1.00029
0.980189
0.897515
1.10269
0.989853
1.08116
1.20369
0.627083
0.579554
0.577381
0.665295
0.662353
0.623221
0.707122
0.84586
0.817835
0.767694
0.801303
0.88745
0.851107
0.946929
0.994977
0.893898
0.838229
0.956258
0.861989
0.806489
0.890222
1.07488
0.900801
0.984981
1.07049
0.985272
1.07527
1.17368
1.15812
1.26092
1.32263
1.58588
1.81222
2.18633
1.85339
0.470847
0.596756
0.591544
0.569075
0.539299
0.51868
0.525938
0.558138
0.591524
0.603815
0.678278
0.692318
0.645676
0.731751
1.48032
0.64526
0.956789
1.10065
1.55516
0.709658
1.02087
0.494648
0.570007
0.503118
0.564063
0.634734
0.642428
0.556229
1.44595
0.634028
0.98581
1.01476
1.51951
0.695557
1.04995
0.501979
0.569794
0.510205
0.579893
0.643434
0.650965
0.572053
1.30795
1.61872
1.25721
1.93828
2.24042
1.50076
1.82415
2.0194
1.26516
1.4458
2.00302
2.37674
1.53576
1.79803
1.4931
1.74837
1.16355
1.99803
2.30748
1.56818
1.85546
0.918535
1.10565
0.998672
1.08919
0.994729
1.08571
1.19473
1.01959
1.21244
1.09145
1.24945
1.12995
1.20417
1.32935
1.01203
1.14909
1.07784
1.18014
1.10812
1.17869
1.25246
0.492477
0.56411
0.500633
0.562256
0.629668
0.637077
0.554568
0.819369
0.7176
0.742042
0.764186
0.90489
0.792292
0.873957
0.995869
1.201
1.07369
1.25889
1.12206
1.2066
1.35026
0.510366
0.58065
0.51938
0.59617
0.661901
0.670035
0.587615
0.482714
0.5273
0.538443
0.561418
0.57271
0.638836
0.628422
0.572333
0.606974
0.623548
0.698352
0.717661
0.66808
0.759095
1.60126
0.708778
1.17577
1.08217
1.67614
0.775161
1.24574
0.900073
0.965718
1.0623
1.05301
0.957121
1.02076
1.1278
1.44115
1.38361
1.40306
2.09874
1.71137
1.89324
2.38927
0.965864
1.07024
1.14063
1.1346
1.0525
1.17253
1.25422
0.588203
0.56429
0.522628
0.581962
0.697749
0.659327
0.621161
0.58176
0.560382
0.519807
0.579974
0.69115
0.653671
0.61866
0.526049
0.615403
0.534758
0.594999
0.68042
0.688343
0.586954
0.587446
0.57048
0.529416
0.59765
0.705514
0.667558
0.637024
0.633875
0.597168
0.554473
0.613002
0.744818
0.705366
0.653176
0.512724
0.620035
0.565874
0.657117
0.601214
0.66525
0.718734
1.70507
0.749514
1.07938
1.36289
1.78633
0.825024
1.14872
0.541307
0.642077
0.550941
0.616529
0.713571
0.722135
0.607711
1.39
1.63186
1.80415
2.30307
2.58144
1.76419
2.00376
1.04215
1.15802
1.22128
1.27738
1.14251
1.21994
1.35013
0.669522
0.644161
0.605601
0.706176
0.817259
0.770319
0.741457
0.599286
0.583442
0.539833
0.615452
0.728028
0.687725
0.657589
0.987708
0.889166
0.858152
0.920264
1.02412
0.95212
1.06158
1.37257
0.919379
1.09182
1.53136
1.82062
1.14234
1.50779
1.18126
1.10138
1.42354
1.17782
1.51954
1.87367
1.61163
0.736537
0.824932
0.892265
0.876376
0.784534
0.771201
0.83761
0.722347
0.808438
0.862828
0.869617
0.760004
0.76601
0.820012
0.663461
0.619864
0.573237
0.636719
0.785056
0.741539
0.680436
0.825274
0.969847
0.917359
0.917326
0.870935
0.970974
1.0242
0.840432
0.892666
0.995703
0.932412
0.878556
0.979696
1.04168
0.720468
0.866217
0.861762
0.762659
0.758929
0.805876
0.913686
0.836578
0.97623
0.930505
0.927734
0.887047
0.989699
1.03639
1.09904
0.998748
0.927689
1.07638
0.978253
1.04827
1.15766
0.123109
0.216479
0.363549
0.42707
0.584589
0.719585
0.74997
0.189652
0.076438
0.126035
0.27725
0.329145
0.218626
0.272684
0.0938331
0.0910495
0.109325
0.0906676
0.108902
0.125711
0.106955
0.411921
0.295683
0.350467
0.546414
0.626292
0.427349
0.514016
0.143252
0.236816
0.160434
0.23837
0.160385
0.178112
0.256433
0.686219
0.450425
0.548853
0.700052
0.868747
0.531356
0.656045
0.312473
0.146295
0.219849
0.346793
0.411705
0.290473
0.345097
0.107617
0.144676
0.126313
0.143935
0.145263
0.163603
0.12515
0.106173
0.141931
0.124874
0.143045
0.143104
0.161691
0.124205
0.195307
0.257916
0.177685
0.195922
0.294886
0.214213
0.275794
0.19617
0.254818
0.17812
0.196178
0.291635
0.214652
0.27417
0.356626
0.314266
0.318483
0.377257
0.383955
0.336507
0.403585
0.398839
0.455762
0.423443
0.464894
0.431766
0.455511
0.493764
0.162699
0.165236
0.166292
0.206367
0.183103
0.183966
0.144208
0.16443
0.167394
0.16851
0.184858
0.185764
0.207975
0.191731
0.475135
0.481362
0.4909
0.507836
0.517648
0.523911
0.553675
0.484391
0.368549
0.499252
0.652697
0.739312
0.574199
0.638564
0.332381
0.417445
0.397269
0.371344
0.354041
0.422787
0.442138
0.341172
0.438387
0.411224
0.380333
0.358595
0.430007
0.456476
0.21451
0.253948
0.312047
0.310305
0.233632
0.233704
0.29319
0.214728
0.308942
0.308221
0.233832
0.234111
0.254106
0.326332
0.938781
0.567436
0.701683
0.895319
1.2512
0.742861
0.921008
0.501425
0.568444
0.536094
0.579276
0.546271
0.584881
0.620848
0.190619
0.231804
0.207082
0.232398
0.24581
0.25978
0.21736
0.498925
0.504831
0.465298
0.487781
0.573846
0.520238
0.533352
0.471176
0.484667
0.447439
0.478269
0.550557
0.500833
0.522252
0.192929
0.234541
0.208989
0.233325
0.247855
0.261399
0.218497
0.39646
0.391854
0.375451
0.44853
0.491428
0.474301
0.466864
0.437884
0.388249
0.386313
0.461246
0.458238
0.404733
0.479948
0.827758
0.670301
0.768991
0.931684
1.12597
0.767839
0.834365
0.514181
0.582585
0.54351
0.592886
0.557942
0.592251
0.633362
0.275679
0.327426
0.253897
0.275584
0.365899
0.299359
0.345202
0.276833
0.32614
0.254644
0.275958
0.364716
0.300008
0.344564
0.535792
0.62104
0.566245
0.619316
0.570153
0.605339
0.662383
0.607014
0.611245
0.618686
0.653638
0.666511
0.663372
0.714795
0.509448
0.562181
0.600134
0.587913
0.541222
0.531163
0.56084
0.658014
0.634988
0.598103
0.641079
0.752084
0.705072
0.681601
0.617069
0.609669
0.574322
0.627224
0.718143
0.673731
0.66681
0.260335
0.277745
0.278565
0.324243
0.290538
0.291187
0.246622
0.54379
0.51966
0.495104
0.578963
0.523675
0.546839
0.608002
0.407593
0.507791
0.484493
0.443266
0.423326
0.501809
0.524647
0.478525
0.403876
0.421934
0.439846
0.421482
0.498782
0.51895
0.29935
0.354836
0.38734
0.386701
0.325545
0.325777
0.364688
0.65309
0.638922
0.604565
0.646117
0.746045
0.7042
0.688282
0.62489
0.62298
0.585153
0.628561
0.676658
0.66517
0.721923
0.756738
0.651357
0.701624
0.769642
0.713265
0.769407
0.831815
0.666612
0.79394
0.712636
0.811942
0.727464
0.780183
0.87023
0.678865
0.811142
0.732293
0.807011
0.729399
0.787494
0.873972
0.605526
0.570945
0.544848
0.570497
0.669871
0.595474
0.638167
0.71733
0.708468
0.664667
0.775414
0.724318
0.7787
0.838739
0.687411
0.805808
0.808464
0.789238
0.754574
0.737055
0.732844
0.462089
0.460406
0.44045
0.520131
0.567105
0.543917
0.541156
0.582692
0.615205
0.552904
0.574624
0.679683
0.603424
0.643088
0.718506
0.70321
0.662246
0.742359
0.702955
0.768855
0.817439
0.673407
0.787921
0.731398
0.753927
0.708615
0.775455
0.830411
0.869927
0.848612
0.78567
0.849666
1.02141
0.943952
0.919864
0.800689
0.99597
0.889251
0.861265
1.07149
0.958504
0.96186
0.852757
0.76533
0.826399
0.840463
1.01414
0.909923
0.937092
0.597224
0.652325
0.707997
0.703096
0.626044
0.62216
0.672132
0.907103
0.836148
0.774786
0.836142
0.979309
0.895794
0.907258
0.857885
0.850529
0.789385
0.843711
0.995907
0.910455
0.915776
0.789593
0.783747
0.745207
0.820684
0.920367
0.874284
0.867627
0.930153
1.1229
1.15638
1.12386
1.03625
1.00849
1.03763
0.899447
1.01894
1.06056
1.05244
0.963834
0.956521
0.983503
1.12789
1.02453
1.16279
1.21662
1.10144
1.05527
0.977792
1.58642
0.755108
1.11385
1.37555
1.8778
1.04755
1.41524
1.1062
1.2447
1.49454
1.13242
1.69333
1.94842
1.5583
1.03469
0.927051
0.870486
0.963225
0.904546
1.00945
1.07679
0.817752
0.875448
0.762994
0.789171
0.972448
0.84916
0.904455
0.622583
0.762498
0.706087
0.750507
0.679031
0.761036
0.831325
0.743028
0.882443
0.777111
0.901386
0.79344
0.83335
0.944554
1.62305
0.771943
1.0846
1.48071
1.9181
1.0731
1.38492
0.627854
0.774634
0.712819
0.758576
0.682251
0.765027
0.841031
0.633521
0.769509
0.718182
0.765806
0.698684
0.782388
0.847825
1.31658
1.07548
1.18324
1.18367
1.44032
1.29529
1.31696
0.591326
0.67414
0.601486
0.715271
0.794594
0.803681
0.705627
1.12926
1.24005
1.3424
1.22849
1.34677
1.35456
1.46108
1.09696
1.3555
1.21782
1.19523
1.46715
1.31903
1.32978
1.26391
1.30101
1.39879
1.2871
1.51282
1.41718
1.37921
1.31006
1.23551
1.15222
1.25757
1.41829
1.34492
1.33181
0.650037
0.790082
0.738606
0.792113
0.723418
0.811673
0.878372
0.769836
0.913715
0.802618
0.940469
0.825385
0.866005
0.982899
0.763255
0.70109
0.741237
0.805633
0.849691
0.800352
0.906106
0.641441
0.720905
0.728365
0.729037
0.736544
0.839589
0.831757
1.74194
0.840166
1.31448
1.4512
2.04077
1.15341
1.62764
0.696937
0.677633
0.626567
0.739516
0.874842
0.825826
0.790759
0.662808
0.82732
0.750737
0.807809
0.716174
0.801524
0.893146
0.953994
1.02582
0.921061
1.02065
0.985283
1.10052
1.14138
0.653169
0.731905
0.739685
0.749192
0.757171
0.859936
0.851795
1.8565
0.897976
1.218
1.77018
2.18919
1.23349
1.53529
0.691104
0.875189
0.785086
0.854299
0.748728
0.839791
0.94648
1.11122
1.18439
1.20989
1.306
1.33542
1.27868
1.41555
1.39465
1.25141
1.15921
1.29619
1.54783
1.38852
1.4474
0.637318
0.722023
0.718631
0.834616
0.729628
0.726115
0.629802
0.666433
0.743979
0.766565
0.875821
0.751635
0.774407
0.658719
1.07539
1.17897
1.1682
1.27597
1.28701
1.2459
1.37834
0.658003
0.781568
0.744338
0.78997
0.75252
0.855434
0.893209
0.818572
0.931249
1.01058
0.972551
0.886209
0.853081
0.936238
1.07527
1.2441
1.15764
1.17907
1.37667
1.28583
1.27559
1.33764
1.29016
1.21677
1.29155
1.48529
1.41556
1.36473
0.654015
0.850566
0.783584
0.779487
0.745791
0.742149
0.691802
0.693006
0.806436
0.774088
0.921308
0.81484
0.782281
0.684651
1.2042
1.04784
1.09133
1.25284
1.13344
1.17687
1.30236
0.670386
0.794567
0.756061
0.813239
0.773864
0.876253
0.915521
1.35167
1.41597
1.38436
1.46834
1.50662
1.53205
1.61745
1.23519
1.26611
1.27196
1.33914
1.3437
1.37436
1.44729
0.716928
0.797089
0.805166
0.835818
0.844129
0.949166
0.940573
2.19356
1.02285
1.37656
1.87342
2.31905
1.1154
1.4614
0.678711
0.840846
0.689193
0.769237
0.92678
0.936509
0.759381
1.24275
1.28302
1.34495
1.29755
1.49177
1.42115
1.37376
1.42132
1.42095
1.26629
1.35266
1.6803
1.50282
1.51386
0.683154
0.891768
0.805584
0.829158
0.767662
0.79059
0.721746
0.970569
0.978233
0.921578
1.02915
1.15258
1.08468
1.09338
1.19364
1.12242
1.01563
1.07825
1.26562
1.13946
1.19491
1.14188
1.10564
1.22435
1.08803
1.28715
1.15933
1.20549
1.0048
0.986336
0.942475
1.05332
1.17774
1.12362
1.10271
1.13807
1.08439
1.20175
1.09937
1.28108
1.1535
1.21798
1.02665
0.974572
0.969438
1.08339
1.02813
1.08928
1.14968
1.79601
1.1484
1.30008
2.04435
2.36176
1.58811
1.75754
0.987728
1.18954
1.10306
1.09925
1.02119
1.14175
1.23071
1.29951
1.2489
1.29143
1.3791
1.42879
1.35532
1.50179
0.711403
0.938457
0.874697
0.839894
0.832773
0.799459
0.753049
0.867025
0.772217
0.71651
0.7947
1.01629
0.9612
0.848775
0.875658
0.921674
0.812688
0.864628
1.05464
0.940961
0.976073
0.861322
0.911892
0.80445
0.859876
1.04187
0.929687
0.970552
1.07218
1.27192
1.14872
1.12102
1.32945
1.19806
1.24151
0.734498
0.861135
0.821695
0.902007
0.861268
0.965706
1.00572
1.06165
0.992925
1.01462
1.11008
1.06261
1.1344
1.18757
0.869067
0.927145
0.818013
0.883331
1.06142
0.947588
0.996572
0.893087
0.956321
0.842656
0.917126
1.09969
0.982154
1.03485
0.75547
0.91909
0.85689
0.952192
0.870189
0.973415
1.05307
0.885485
1.05572
0.92605
1.11018
0.97485
1.02875
1.1627
0.758318
0.846587
0.855218
0.896041
0.904965
1.01909
1.00989
0.836203
0.841207
0.850085
0.922078
0.931575
0.954251
1.0365
0.989386
1.02957
1.06035
1.15147
1.10668
1.18594
1.23685
0.932413
0.968527
0.854601
0.904344
1.11409
0.996458
1.01976
0.856083
0.856393
0.876675
0.939786
0.961993
0.979284
1.06479
1.34031
1.4639
1.57549
1.59054
1.4644
1.57617
1.69844
1.77999
1.97664
2.42004
2.01848
2.34753
2.5783
2.39302
0.844128
0.839261
0.751602
0.832903
1.03251
0.926042
0.920267
0.866625
0.891473
0.783192
0.866656
1.07739
0.949299
0.975751
0.986962
1.01587
0.895301
0.948159
1.17896
1.05603
1.06889
1.30931
1.18231
1.13614
1.22216
1.40826
1.26947
1.35417
0.779009
0.918298
0.874241
0.972199
0.925347
1.03827
1.0833
2.25007
1.09852
1.62581
1.72881
2.3626
1.1652
1.70243
0.825832
0.959731
0.833644
0.962385
1.09675
1.10609
0.95393
1.33116
1.41211
1.3878
1.47792
1.54451
1.4436
1.6068
1.30108
1.56953
1.58308
1.41206
1.42434
1.52948
1.69888
2.11925
2.48884
1.99026
2.49239
2.55254
1.90901
2.3651
1.81832
1.85761
2.31425
2.34228
2.12531
1.98958
2.33761
1.37409
1.59255
1.5687
1.53473
1.5005
1.46434
1.44612
0.861624
1.03477
0.957551
1.16424
1.04462
0.966873
0.852214
0.942584
0.90528
0.819389
0.908278
1.13688
1.03322
0.992964
1.32772
1.42851
1.50081
1.51219
1.44049
1.54387
1.61402
1.50518
1.61823
1.61574
1.47783
1.48026
1.58936
1.72532
0.834999
0.965316
0.842977
0.980366
1.11021
1.11968
0.971712
1.54687
1.6556
1.55881
1.70204
1.60246
1.70838
1.80523
0.927834
0.925089
0.96812
1.01139
1.05692
1.07122
1.15913
2.33988
1.15153
1.75794
1.71681
2.45551
1.21891
1.83691
2.41418
1.20559
1.54098
2.40021
2.66723
1.58084
1.87837
0.857688
1.12486
0.968023
1.10295
0.93269
1.04088
1.21352
1.61804
2.05629
1.95055
2.34245
2.36644
2.33942
1.99547
1.30132
1.56934
1.52799
1.58248
1.42342
1.41177
1.44711
1.14037
1.0971
1.05708
1.18267
1.32665
1.27573
1.22719
0.845323
0.994478
0.853254
0.973524
1.12207
1.13157
0.965001
1.34817
1.60898
1.44668
1.6487
1.48115
1.57275
1.74868
2.45478
1.21502
1.68439
1.94575
2.55854
1.28562
1.76283
0.877773
1.04239
0.886126
1.00605
1.16857
1.17852
0.997195
0.899456
1.02619
0.90778
1.06864
1.19286
1.20291
1.05945
1.99895
1.17162
1.54346
1.94997
2.56457
1.60604
1.99361
1.69834
2.00112
1.6733
2.36671
2.73095
1.93458
2.31996
2.0155
2.55022
2.29522
2.06139
2.63017
2.4351
2.38209
1.39697
1.50408
1.41826
1.50572
1.42128
1.52706
1.61542
0.885183
1.18631
1.12097
1.03878
1.06789
0.988744
0.937374
1.24019
1.46765
1.37223
1.40512
1.3239
1.46886
1.56179
1.33128
1.477
1.39131
1.42197
1.34887
1.49641
1.58036
1.60813
1.70438
1.53114
1.77078
1.58971
1.67143
1.85802
1.02602
1.22021
1.14734
1.16542
1.09025
1.21857
1.29932
1.26882
1.34108
1.20609
1.34888
1.21302
1.28019
1.42312
2.04217
1.1998
1.51269
2.0698
2.62451
1.63832
1.96003
1.03722
1.17961
1.24073
1.09651
1.1597
1.2254
1.31463
2.17664
1.28502
1.75615
2.03421
2.71608
1.73299
2.26852
1.68579
2.06237
1.78251
2.33938
2.74676
1.99177
2.51151
2.43644
1.61907
1.89806
2.28963
1.67633
2.18462
2.34421
1.14518
1.2834
1.34278
1.3539
1.20763
1.2177
1.27182
1.17229
1.31115
1.39059
1.3655
1.25135
1.22818
1.30144
1.03474
1.10419
0.975045
1.09333
1.29966
1.17021
1.22528
1.35516
1.50248
1.39476
1.42802
1.33502
1.48063
1.58622
0.981598
0.897627
0.859081
0.996819
1.17759
1.13669
1.03667
0.975899
0.887235
0.849513
0.978511
1.16309
1.12289
1.01728
1.01068
0.907203
0.869122
0.989666
1.18889
1.14842
1.02859
1.46907
1.61429
1.54875
1.67185
1.60859
1.68992
1.75479
1.31058
1.37394
1.23632
1.40238
1.26292
1.32166
1.4681
1.04301
1.23049
1.16592
1.18678
1.11901
1.24957
1.32218
1.08945
1.24338
1.14452
1.31289
1.21703
1.2771
1.38214
0.934915
1.13315
1.14408
1.02026
1.03045
1.13537
1.24879
0.994182
0.989466
1.04748
1.08378
1.14612
1.1566
1.25306
1.44007
1.66189
1.76569
1.70113
1.58276
1.52655
1.60789
0.93169
1.13162
1.13878
1.1314
1.02515
1.01852
1.04424
1.32323
1.35689
1.22446
1.26886
1.51938
1.36942
1.40703
1.05942
0.942843
0.902759
1.02273
1.23784
1.19595
1.06322
1.37596
1.56934
1.45025
1.60279
1.48378
1.55924
1.68358
1.0425
0.963062
0.923914
1.0852
1.26093
1.21998
1.12536
0.956506
1.08883
0.965361
1.14538
1.27195
1.28274
1.13551
1.07668
1.2645
1.20357
1.2285
1.16177
1.29642
1.36678
0.957703
1.15536
1.04036
1.18125
1.06447
1.16676
1.28275
2.64084
1.38364
2.12034
1.9039
2.67914
1.45648
2.23214
2.45432
1.23067
1.76828
2.09449
2.71931
1.53228
2.06057
0.948113
1.16204
1.03015
1.22812
1.08011
1.16418
1.31436
1.87076
2.15595
1.72659
2.66872
2.75658
2.09225
2.41946
2.7465
1.9255
2.19561
2.53126
1.93184
2.22477
2.535
1.58082
1.83848
1.6711
1.85159
1.68805
1.77357
1.9394
0.96799
1.17847
1.16439
1.19418
1.04943
1.07756
1.08355
1.40866
1.56419
1.44902
1.47498
1.37473
1.52551
1.63962
0.991455
1.18575
1.00034
1.12165
1.30897
1.31987
1.11212
1.31593
1.53407
1.4566
1.48693
1.42019
1.57542
1.65132
1.03291
1.1314
1.14189
1.25005
1.26127
1.37703
1.36502
1.28661
1.19137
1.25206
1.33258
1.30478
1.39925
1.45283
2.54116
1.28497
1.90403
2.07654
2.73615
1.58748
2.2215
1.23043
1.42386
1.282
1.46524
1.31996
1.37574
1.52652
2.77089
2.07492
2.2886
1.83451
2.40284
2.60251
2.69637
1.01469
1.24312
1.26217
1.21664
1.14086
1.09778
1.13473
1.20357
1.05893
1.01758
1.13871
1.37961
1.33776
1.17968
1.51929
1.68922
1.55707
1.581
1.46519
1.62691
1.75775
1.10646
1.02611
0.983353
1.16395
1.34453
1.30123
1.20778
1.45091
1.61281
1.54424
1.56284
1.50199
1.67179
1.73924
0.968913
1.19932
1.05203
1.25443
1.0918
1.17637
1.34129
0.960009
1.16982
1.04386
1.24393
1.10152
1.18812
1.33181
1.03347
1.23377
1.11524
1.2838
1.16315
1.26376
1.38238
2.68106
1.50942
1.94585
2.47335
2.686
1.59248
2.04018
1.0748
1.29348
1.08449
1.21306
1.41807
1.43006
1.20264
1.02698
1.23344
1.11294
1.32739
1.1911
1.27884
1.41513
2.35218
1.37042
1.66473
2.50797
2.74553
1.82871
2.13948
2.33316
1.79143
2.14125
1.72813
1.27089
2.27491
2.00318
1.20518
1.11863
1.01948
1.12537
1.42127
1.31253
1.22185
1.25315
1.23406
1.0953
1.16522
1.47229
1.33802
1.30105
1.40384
1.64977
1.47699
1.68651
1.50856
1.58555
1.77782
1.14359
1.31298
1.19896
1.38584
1.27772
1.3367
1.45564
1.05823
1.22156
1.1662
1.34258
1.28619
1.40139
1.45562
2.62393
1.35466
1.83003
2.38683
2.73955
1.66471
2.13562
1.00821
1.25803
1.09571
1.30601
1.12935
1.21747
1.39587
1.57651
1.84204
1.64983
1.93065
1.72796
1.79655
2.00533
1.76282
1.75859
1.80417
1.86838
1.90865
1.90925
2.02306
1.70404
1.72129
1.73449
1.82715
1.83929
1.85417
1.96446
1.65421
1.72437
1.60793
1.65497
1.84881
1.77483
1.72504
1.72153
1.73526
1.59749
1.70543
1.96586
1.84143
1.82783
1.69214
1.63129
1.56209
1.66748
1.87559
1.80082
1.7372
1.31467
1.15291
1.10508
1.23286
1.49699
1.45075
1.27878
1.10735
1.31868
1.19469
1.38706
1.26053
1.3647
1.48782
1.10789
1.26715
1.25974
1.27769
1.27023
1.45167
1.43979
2.70548
1.52492
2.3249
2.31389
2.66323
1.83036
2.64136
2.63504
1.76308
1.94309
2.74141
2.44263
2.53326
2.73337
1.58661
1.59776
1.59875
1.70139
1.7034
1.71521
1.83115
1.31559
1.47316
1.57289
1.51486
1.41889
1.36544
1.45961
1.11363
1.26271
1.27631
1.45781
1.27321
1.28688
1.10425
1.50649
1.82145
1.67995
1.6867
1.56226
1.74127
1.88091
1.12656
1.40523
1.21685
1.44719
1.24673
1.33593
1.53565
1.09604
1.3099
1.18896
1.41472
1.27939
1.37366
1.50651
1.24117
1.44473
1.38454
1.43931
1.36663
1.51444
1.58577
1.12475
1.33768
1.32979
1.29558
1.288
1.47065
1.51364
1.16125
1.30195
1.31271
1.34022
1.3513
1.51147
1.49928
1.30596
1.25921
1.27096
1.39712
1.40958
1.37631
1.5164
1.56578
1.49099
1.49945
1.65917
1.66842
1.58215
1.76031
1.61376
1.52594
1.55647
1.69653
1.72987
1.62985
1.81106
1.85665
1.85718
1.92436
1.95752
2.01885
2.02701
2.1367
1.49271
1.50456
1.4117
1.56872
1.76406
1.66086
1.67346
1.6918
1.63205
1.52284
1.63316
1.92911
1.73832
1.81306
1.71905
1.6702
1.54783
1.64593
1.95745
1.76466
1.82672
1.14306
1.31829
1.28631
1.49249
1.32928
1.29701
1.1334
1.64256
1.71674
1.54474
1.66452
1.95321
1.75921
1.84901
1.92693
1.85893
1.76404
1.8652
2.14462
2.03617
1.96471
1.7293
1.70101
1.63524
1.77918
1.9579
1.87854
1.84885
1.26544
1.25739
1.16813
1.30227
1.51247
1.40372
1.39519
1.37999
1.43559
1.29132
1.36369
1.61524
1.45952
1.51381
1.35819
1.42011
1.27757
1.35649
1.59889
1.44364
1.5059
1.24991
1.38852
1.26107
1.49999
1.61584
1.62934
1.48722
1.17818
1.37252
1.33056
1.41117
1.36921
1.53045
1.57325
1.22535
1.36255
1.37392
1.41773
1.42959
1.58376
1.57088
1.28327
1.33623
1.31076
1.42246
1.45112
1.41213
1.55285
1.16026
1.5117
1.39026
1.35755
1.34747
1.31505
1.20166
1.13043
1.47673
1.33265
1.34648
1.29097
1.30467
1.17067
1.54469
1.51747