/*--------------------------------*- C++ -*----------------------------------*\
  =========                 |
  \\      /  F ield         | OpenFOAM: The Open Source CFD Toolbox
   \\    /   O peration     | Website:  https://openfoam.org
    \\  /    A nd           | Version:  9
     \\/     M anipulation  |
\*---------------------------------------------------------------------------*/
FoamFile
{
    format      ascii;
    class       volScalarField;
    location    "0.00315";
    object      p;
}
// * * * * * * * * * * * * * * * * * * * * * * * * * * * * * * * * * * * * * //

dimensions      [1 -1 -2 0 0 0 0];

internalField   nonuniform List<scalar> 
26016
(
233055
254796
159922
272885
101307
101470
101298
101298
190036
135514
237158
254669
101359
101319
101302
101300
127752
219267
140164
212847
137828
186343
125625
208489
197003
129132
242776
149326
223650
141740
145527
226399
143020
266156
269222
155827
158924
155426
237453
149407
271205
163763
276216
167258
126709
131407
130346
142592
141342
145392
146692
126015
129267
129659
140027
140518
144552
144046
130885
132826
134629
144229
146271
148398
150530
132996
139470
136823
151669
148731
153134
156282
138244
133287
133690
149144
153932
154493
148617
135502
138978
134388
150027
156931
155442
151405
136988
143765
138878
158907
153212
155492
161467
130924
139568
104803
128834
103111
146980
149789
119648
121862
132389
111887
107703
151713
149424
123197
122974
102718
107818
108240
108027
108372
113198
112815
103814
109956
108942
109982
109015
113875
114911
106107
111265
111288
112874
112926
116280
118003
109620
117133
114816
117328
114926
120112
122651
113463
120108
113908
118700
124476
124920
118284
129185
116935
117255
122081
134027
121722
134415
115640
120806
114607
119408
126821
125661
120508
118858
129844
117872
122751
136324
123835
135138
116954
124882
118587
128332
121942
123757
130263
120206
134295
121942
137925
125295
127178
140011
129500
120576
126962
125993
135588
132660
128699
136671
126710
124095
129508
145744
132322
142606
127679
140040
147461
133687
134122
127283
140472
128407
142578
148352
136185
134911
129584
141274
144333
137893
131161
133193
154214
140104
146604
146280
144044
141211
158328
168631
164683
161877
152850
138770
146211
142857
161227
157348
135715
161681
187824
160100
165191
197581
166892
195090
232438
237480
185425
260724
244023
196994
257285
159054
185505
158428
164080
192534
163421
193444
143462
148947
149436
160311
160921
168622
167952
151705
144251
150309
163640
161978
169805
171659
245126
206910
226666
270297
143835
177583
262919
193070
166422
163780
201099
169155
172019
205727
155952
147223
153558
165849
168701
174140
177351
170076
213954
176495
201475
177261
169371
202509
202093
173681
169695
175589
218515
179966
211501
171278
207351
180625
216057
178587
173122
204432
152122
158950
162712
176690
172287
181410
186459
137856
110792
130828
104770
102729
129234
121849
123378
137517
105860
127290
128647
124175
128529
137734
139321
130378
133042
126013
132710
125837
130174
130358
129791
124935
131926
132283
125434
129801
129367
128083
124381
131626
131367
123913
128936
128613
127567
123835
131117
131137
123689
128508
128748
135278
137652
135015
134291
138667
138519
134464
103896
113796
113575
120215
110840
120271
110069
112951
103203
113303
120083
109015
119857
109457
137514
134556
134728
133969
138068
138284
133639
114007
107177
114361
111783
120303
120489
112957
134505
138117
134545
137995
133364
133248
138122
116155
108810
115050
120982
116310
121880
114448
135033
138611
134690
133361
139108
138464
133784
126198
131834
115400
122243
131960
126041
115813
126249
117044
122731
131954
131986
126230
116352
117886
131986
126218
126379
125246
132216
118975
62042.7
60799.4
90197.6
79731.1
65603.5
63938
82560.1
83843.7
61121.1
69338.3
69504.5
62098.7
62619.8
70728
70342.9
61517.4
70182.4
69779
64184
63335.1
71256.1
71928.2
90072.8
90288.1
79044.3
89862.7
78902.2
79845.3
90156
79438.1
89958
79073.1
80154.1
90498.1
80671.6
90212
64599.7
66574.8
67379.6
73915
71792.9
72312.4
74576
66783.1
69836.5
68537.3
73142.7
76687.8
75537.8
74142.1
80855.2
92264.7
90989.6
81219.3
92598.3
83084
91179.4
93171.7
91528.7
93926.5
84833.1
92081.6
82619.8
81809.6
102588
124718
132682
128445
111767
126788
101193
132239
103128
100910
126243
101235
132279
133364
104265
106787
101423
101287
101182
100977
111310
111569
112034
101185
110698
100977
100892
111045
111284
111144
101107
100986
110317
101675
109935
111109
111172
101668
102734
101676
112351
113443
113348
112564
121240
127917
120500
121404
129681
129324
121989
100928
109377
102668
102262
109680
111305
111256
127346
119219
119840
120857
128517
120412
128915
101860
103634
102178
112275
113635
113436
112300
118698
125724
118210
128143
120074
119797
127858
102617
105069
103232
113910
112398
112633
114353
117208
125224
117765
119558
127368
119245
127594
104561
105973
103971
112945
115404
114880
113163
122353
123913
130968
132461
123642
130713
122729
122025
132302
130242
123331
123433
121760
130457
130061
123282
121552
121459
132474
123403
129970
121420
130141
132805
123987
123638
121410
129976
126832
122202
126671
133654
132737
127676
120391
67292.2
44167.4
37222.5
54791.2
53083.8
63766
60355.6
64609.4
52361.7
47273.1
69669.5
38157.8
76433.6
67507.3
77090.7
67456.4
40215
38837.7
41278.5
45922.1
43672.4
45647.2
44453.6
40778.6
48794.8
51502.8
48348.1
60229.4
50548.2
61237.4
41199.3
44877.4
42781.6
47776.1
50518.5
48013.8
49923.4
46154.9
53503.1
46753.3
49748.8
54791.8
48720.7
55471.8
56189.9
44017.9
54185.5
54781.7
52781.8
61850
62102.9
69407.8
57221.2
58520.7
73208.2
64418.8
64569.8
72492.2
60277.2
68491.9
59558.6
64585.6
69953.4
64497.5
71242.4
48868.4
54028
47601.9
51115.8
57557.1
52760.8
56428.5
51583.3
51641.8
61651.3
56605.2
58159.7
53475.6
49946.3
58553.3
67654.6
74556
68605.3
59734.1
68231
73601.7
53497.8
57080.6
62737.6
61529.9
59841.5
55304
55538
57104.5
60757.4
57275
53640.2
61754.6
58453.3
58159.7
61519.4
67590.8
60701.6
67613
71489
72502.3
66977.3
80981.9
75892.1
70540.8
70011.3
79683.7
74954.1
76029.7
69322.7
73049.4
72725.8
78065.4
73851
68636.4
74542.1
55291.7
60808.9
61894.3
63125.6
60143.8
57114.6
59401.9
58061.3
52570.7
53123.8
65714.8
50057.1
70805.2
68505.3
74885.6
67516.1
47262.4
60043.2
55870.1
67776.1
64841.7
71897.9
58947.6
57251.5
51912.3
57143.8
56354.3
62115
61561.1
57451.1
47469.2
49788.7
49999.8
52939.2
52357.9
54649.5
55044.1
60293.6
63279.4
59280.8
68480.8
64049.8
63013.6
66532.3
50678.6
57260.2
52582.3
58875.1
54599.7
56499.5
60449.9
55979.6
60320.4
57541.2
61681.2
62387.5
60603.2
64217.4
51528
53394
51952.2
56524.4
57618.7
58110.4
56584.9
55257.5
52773.3
56238.8
60758.7
58327.3
60098.2
57929.7
71543.6
71777
67780.2
66835.8
73342.8
70936.5
69872.8
62190.3
70688.8
66404.9
65764.7
67730.4
70089.6
62625
55605.8
58692.1
54217.9
58306.7
63834.7
59934.9
62144.5
58817.5
63080.4
57619.8
59538.8
65878.5
64608.2
60454.8
63565.3
62348.2
66220.3
60789.5
67969.9
65301.5
64047.2
65791.2
66599.5
69715.2
71838.2
70138.8
65080.3
67985.7
65105.5
63418.2
69532.4
68074
69631.2
64775.3
62982
61253.7
62641.3
66784.2
67748.3
66166.5
62861.3
61645.2
62620.6
67751.8
68894.5
69922
67115.6
64328.5
65903.7
91325.2
66200.3
62766.4
90424.5
71314
71304.6
94864.8
98297.8
63842.3
70817.2
65219.9
71722.7
66525.5
72801.1
73987.9
65050.5
73774.9
72786.5
69502.2
68037.7
75405.9
76669.5
79970
90672.6
80647.2
90995.9
81402.6
82417.5
91719.8
68092.2
72948.1
69591
78033.6
75283.8
76679.3
79578.9
82146.2
90976.6
81411.7
83666.2
93454.2
84715.2
92667.3
72955.8
74813.1
76619.5
78300.6
82949.1
81345.8
79712.3
86010.9
92821.1
83589.5
84826
95988.5
87398.1
93771.5
86257.1
95756.4
90298.5
97238.1
88961.4
87421.8
94874.3
211354
183364
175592
178754
229141
186888
216481
156375
164772
164158
177852
188435
189279
177111
167692
157359
165899
179189
193357
190858
181279
182707
230243
197037
235604
191372
187531
222794
173288
161015
170105
196834
184121
187882
201436
266749
171822
264185
272592
110822
108111
271428
227525
185058
185902
196861
241270
195922
242282
189715
229723
187395
198618
247345
201384
244306
171588
182367
177351
192777
214925
207387
198934
178359
152272
268429
106741
270462
203803
103254
192899
242726
197073
251192
205337
210550
255563
231441
240415
241299
267978
268198
269986
269870
209532
248656
202507
217114
264836
225130
260248
234344
245611
243043
269385
268698
270309
270747
211273
255254
266597
227978
229154
210182
256024
213413
259901
267640
235126
231528
216754
257594
240820
248849
252547
270179
270963
271208
271537
249816
260590
256560
271835
271565
271604
271368
262756
239892
221392
227358
273254
245707
265922
253597
258993
251449
271238
270928
271137
271357
257835
249257
249984
271133
271397
271240
271167
234531
272256
275001
259213
252375
242552
269132
256325
265344
259388
270515
271391
271262
269768
265866
267849
262640
270794
266486
268539
269812
264556
269675
269881
270285
269960
266183
266732
265430
271312
270475
268887
269560
265382
264124
270214
272186
272874
267831
266244
262288
259602
271798
273113
273263
260444
263911
255657
250053
108129
101376
101314
101310
115267
109933
120183
271266
242864
270833
266929
232799
267439
231450
269085
240747
270163
266132
224840
264855
228897
272745
272294
272680
258871
246950
245784
259654
125278
274843
267344
101300
101298
138482
259443
101307
101298
117620
157249
143024
156967
132579
145717
185926
150735
246212
216194
269964
250325
161571
152950
114540
119877
120169
123098
123493
125671
129226
121179
131228
126858
131826
127355
133384
138215
125852
136270
129271
139116
131943
135788
143309
260840
177144
164329
276713
176858
215314
268059
129818
147068
133459
149472
135672
139615
153868
141969
142626
146345
155163
159370
160139
164826
138010
140634
133302
140299
153899
148223
145546
151763
142617
137698
144229
165240
149584
159049
146041
155665
150660
170555
164478
170411
177046
142422
150228
165965
146738
171589
154960
161916
147426
157234
151385
173393
166184
171338
179127
125562
130192
115932
127459
130914
140344
146631
142054
128130
124487
131462
132262
125720
129426
130663
127614
131451
129434
135842
133689
132559
135171
119779
113156
117719
118597
123252
125179
121363
135670
141811
136769
140169
134609
135980
141767
59918.3
68018.8
94239.5
59914.5
57020
53866.2
70386.8
64164.9
73841.6
74643.7
60731.5
53731.2
61662.8
64531.7
69704.1
75360.2
80767.5
72969.5
91843.3
67614.3
74696.4
99469.4
84701.1
103887
55442.2
57068.9
55914.5
61553.1
60253.2
60776.1
61677.2
55077.6
55263.6
55888.7
59091.6
60115.1
60881.6
60373.6
54926.6
55485.2
56882.7
58830.9
59753.8
61681.2
60555.3
57285.5
63475.7
59255.6
65671.8
61722.8
63695
67545.6
59617.2
58081.6
57323.6
62210
64403.1
64392.1
62616.3
65951.3
69837.9
64968.3
65638.1
70793.7
70657.7
66123.2
74996.4
69093.5
71136.8
76110.7
78113.8
72741
79385.9
59889
57306.7
57519.5
62383.2
64687.2
64619.2
62243.7
64977.2
69916.3
69264
65760.8
70502.5
70797.9
65377
61989.4
57823.5
59234.2
63943.6
65537.7
62815.4
66573.7
63901.1
69431
69052.6
66443.3
70740.8
65602.2
71333.6
64239.5
65632.5
61606.1
66009.1
72088.5
68598
69713.7
67065.5
68977.3
71959.4
74259
72149.6
69223.5
67136
66159.9
73942.6
70787
68156.7
75969.9
72815.3
71646.5
83119.1
92304.2
83934.4
94225.7
85886.1
86871.3
94920.4
70933.7
79298.9
77598.2
76666.3
74610
80946.5
82702.7
78489
84656.3
81266
80327.6
76408.6
82702.6
86269.7
67251.6
69567.7
72308.1
74381.3
72283.6
69412.3
67185.6
68645.2
70361
72840.1
76089.1
67770.5
73512.9
71223.1
70473.8
76292.3
78261.1
77776.7
75153
73065.9
73868.8
86484.8
93118.9
85081.9
88134.9
97164.9
89624.9
95888.3
96740.7
91751.7
88729.7
89862.4
100601
93108.6
97603.8
80527.9
82396.6
78366.1
84385.8
90211.6
88106.4
86290.2
91283.3
100324
102070
96634.9
94723.9
92949.8
98805.6
126894
102349
124480
100875
134221
107679
108212
139726
100935
109012
102954
108951
103324
111202
111421
101459
110289
109422
105121
104020
112038
113126
116727
124710
116707
127428
119110
119369
127886
105158
108625
105784
116059
113456
113960
116906
118236
117223
125466
120066
130536
121326
128876
111784
106785
109987
114896
120097
118241
116342
130568
124598
121645
122212
135480
125549
131397
123271
134772
137276
129086
127022
124903
132755
122910
119168
122385
127719
128547
130915
124660
140873
138463
143867
138003
147030
144025
140758
124490
135086
129012
130935
133919
137150
127322
133535
134890
137615
143537
139946
136870
130769
151772
174712
178186
166839
160460
157595
167815
168686
156013
162443
177486
194552
186002
184835
193165
139145
271550
271938
107869
272211
131929
178486
225281
184230
226786
185219
191618
236096
159422
167327
182052
172875
188593
192813
200636
199973
235537
191170
199701
255327
210088
245845
238547
204257
193510
201073
257684
213373
247265
170197
187277
179483
206635
196734
210167
221871
188421
195748
183161
223976
206494
215873
234590
210752
263406
264334
236565
224228
222410
255766
199756
204594
190673
227050
258835
246422
239949
116286
242066
161555
165743
102006
126141
101492
218094
266325
228229
269077
234423
244447
272876
263980
264526
268183
271723
270965
270545
268845
271101
251221
239486
254829
276731
264266
275581
274794
265735
251291
259869
276059
271502
276336
268110
273218
271323
265798
269199
265733
260618
268968
273252
271589
263290
268001
264939
258432
267513
275153
273400
279237
276282
273855
276711
273516
273344
273158
260090
240283
251171
252676
101762
101309
101564
101306
101520
101301
101853
101346
101640
239255
223051
232205
101747
102028
247060
101583
101425
233984
216676
185787
101483
205987
213881
223806
101649
101394
111764
101419
114513
101369
101331
207184
175349
137386
101360
157926
101337
125864
142419
105895
101303
101308
112695
232927
267606
265610
218963
263036
260549
211054
272997
271984
272811
257570
240166
243624
255468
218053
252594
188412
259380
262942
257202
200984
272087
255301
273383
272985
269736
247846
230587
273065
268829
272777
235108
252328
247854
227808
261864
195024
217431
255644
254834
262499
215707
118300
104367
101302
101301
101943
101351
101300
246192
173250
254536
176424
247753
237234
156404
260835
207373
251181
191221
253428
259204
212413
232717
262234
270121
266233
271883
241550
217440
200460
247914
256864
253592
167791
243324
191394
271209
257926
265403
220434
236929
213671
191321
228437
242785
166509
249059
156328
237009
179979
186416
219911
246693
256007
267019
261925
202674
235462
243091
239389
153366
152853
148285
158149
243439
245643
241997
163792
156919
158808
161830
101305
108490
111096
102194
101935
101300
101301
169761
245344
244237
227896
145208
229422
143456
230190
227648
234367
147192
136051
142506
140150
238563
230619
237083
150541
144740
143127
152335
238960
165789
242196
224941
135489
220211
140129
229961
226858
222467
146233
142062
135269
138878
101300
102352
101301
101304
107153
101802
101300
234361
143347
227930
129883
213459
204444
123758
157754
224471
238126
224688
125070
206843
139449
224260
208413
216348
131117
136897
130766
125694
218814
202753
207904
129315
132853
125620
122639
213175
222071
211340
136768
135398
128919
127769
216324
234175
151638
222086
121371
200498
136931
217502
201140
212837
128294
124024
131370
121475
198210
194433
206444
124434
115148
120149
118393
115165
183443
185440
200479
198573
121486
120556
198625
195744
186732
125060
120418
119146
115556
112524
125165
206803
134112
218841
192844
117705
144201
212296
233075
241355
253726
180820
155931
113332
174086
179662
189467
194943
118864
116608
187959
163430
175840
112024
115949
112181
109247
108213
109996
166803
182109
172972
114052
111450
202693
123897
171807
110319
169611
204683
122773
198795
117730
109367
158873
165293
192738
120630
110360
166488
168420
150415
148633
106956
106693
205429
114329
158052
113172
180707
184323
124212
109158
157423
162811
140609
145291
106210
105565
147776
106564
105135
150346
162290
109031
106944
114481
150579
184355
173647
105416
141106
111275
101359
101299
101299
101971
101300
101308
101300
108544
117138
191628
111058
173084
143939
105752
105809
106974
150466
134973
128741
104832
104082
134907
124907
185727
129825
208201
135228
198505
179215
119519
126853
146497
236901
168197
189453
213612
137284
121354
122597
124447
135014
136390
138415
139776
123140
127962
126221
139650
137884
141262
143052
129132
129919
132230
141821
144418
145264
147943
126025
131662
127870
146416
142181
143543
147803
131379
133424
129623
145062
151318
146907
149386
131806
138206
134978
151015
147468
151126
154879
133371
139793
135752
153757
149200
152015
156789
180625
153421
154603
184352
157358
158604
185954
142043
142855
138627
155403
165113
160557
159508
158377
182792
156237
160332
191646
162580
188392
167310
190690
161939
163268
200643
192513
168750
161040
164287
194092
195784
165408
168888
201016
165119
198923
173376
203897
167523
195257
170759
199864
207243
172876
173100
215721
207666
178161
203743
176729
170581
174358
220217
209762
180887
104495
89152.3
111340
112196
169382
116039
121456
97951.9
148087
106683
89079.8
91805.7
121429
114234
131658
123553
96617.7
114545
156443
121457
102860
94250.1
107048
97377.5
91877
94957.5
91966.5
99033.1
91783.3
94455.5
94369.7
104500
124615
135423
150565
137404
120042
112735
163653
131998
127417
114360
110933
100592
103859
87979.3
93550.6
90539.4
91744.1
96012.8
96015
98511.4
106095
94928.4
102851
97376.9
100287
97182.3
100496
95013.8
97817.8
94604.9
101326
98660.8
101215
103903
93407.6
98335.2
94823.8
102045
98821.7
101398
104677
98837.5
107957
97736.4
109543
101769
100426
110744
100708
110053
98736.4
101303
114955
103238
112829
100966
101334
97775.5
104122
110257
107427
106860
103095
116326
105418
116971
105610
107924
119092
101044
98266.4
101690
104151
106812
107368
110171
107997
112650
104806
103349
117278
113846
106571
104167
118013
119339
109239
106061
115910
107313
110199
118691
107704
110264
124357
121508
112838
107706
107744
104190
113449
109897
113419
117150
108376
105492
109762
115333
111083
114045
118465
120060
111665
108429
110799
125802
122225
114070
113199
119442
127746
128464
124744
116569
115898
113060
127697
115839
128297
116398
119362
131569
115419
116146
111673
117469
126260
122088
121401
122849
131279
119084
122823
139800
126821
135382
132530
124714
120262
123438
141173
128114
136031
174175
101997
214216
142634
119771
103480
105540
96283.4
232255
251817
214347
256766
230376
218607
171080
123022
102942
130807
122291
187256
175313
118101
255362
257938
224377
216239
219436
165141
156506
142807
87369.2
91483.4
94136.3
145328
103967
89969
149813
112413
108754
120093
162298
116240
116587
205384
242376
223176
269083
221968
197707
184937
198166
224634
211596
220620
230261
236982
226943
242754
253054
260436
248067
232882
239766
246882
240047
217644
240439
235224
240091
233358
248363
254270
259305
265992
253688
252977
248369
245506
257996
221220
179937
220370
207422
229323
228237
189366
111017
146397
210069
217834
116034
192016
155138
242795
215232
236254
234817
203169
196944
240915
196654
119500
120782
224181
165763
161740
229398
92690.1
91384.7
88250.6
91394.7
94538.9
94181.8
91213.6
145522
96798
99442.8
104867
96575.7
93042.2
106355
104776
100338
98078.8
97864.5
98550.3
94651.9
102121
108485
118299
107668
100583
116362
127611
107224
123350
114060
104831
113712
114805
116125
109492
111927
114584
110940
115759
120809
118201
114804
118076
118916
124147
120057
119646
114668
116535
121074
97077.6
95314.9
98395.9
99322.6
102146
105232
102290
124103
121800
125555
118911
125767
123108
121794
104391
105605
101821
108628
109309
112347
105611
112380
103537
108133
109881
110963
114694
106427
120733
117874
113358
114198
109693
117471
112923
117644
111456
169413
125140
115437
99720.1
121358
98692.1
143222
162865
115478
103657
138372
115736
108050
77078.4
192477
205124
156186
138613
103293
150267
196879
138757
110976
169380
166406
191370
195712
256697
176551
201481
185787
129425
129907
117745
150879
135050
137375
156876
162729
159441
172608
166553
180370
175914
183649
101067
161989
106180
91414.3
65893.6
90329.3
65581.5
264925
141092
159578
211433
189071
229088
175158
147067
157634
167594
127014
143678
162466
145324
148710
191814
170925
174190
153551
176755
197649
127545
154603
144556
147001
144207
162235
163419
169600
179564
172244
193473
187273
189827
197691
163152
171281
169443
181580
179086
186149
187798
194063
195402
206488
200630
189887
197814
211309
124903
89779.8
70544.9
83325.7
105377
64951.9
74943.3
172238
183837
163147
181319
201407
201868
181481
135272
115729
139619
157185
118405
132592
151564
177321
207147
187248
181913
183804
164995
201910
206433
211273
195263
217849
230431
215746
236347
177795
184935
174157
191822
210982
203995
195669
210149
219286
236258
204668
244107
216676
224239
88333.2
65126
72834.6
54986.1
66574.1
84289.9
86754.7
93448.3
54513.6
62622.2
60879
57673.5
65178.4
67115.5
58664.3
79682.8
72096.9
82430.9
69584.5
74375.6
76320.4
86477.3
56798.2
55505.5
63450.3
67707.2
60639.2
69161.1
59316.9
68263.3
74829.5
76193.9
61686.1
69974.3
71602.4
63158.2
76054.2
73734.6
84982.8
77170.2
91627.7
79150.5
88468.6
88753.4
83015.6
84733.2
95634.3
78757.2
80074.1
90959
69722
77515.7
80422.9
72185.5
65743.9
73913.2
63923.7
98230.6
106432
91737.5
81314.9
97661.3
84126.6
92816.5
51890.2
50133.3
78754.7
139533
50079.5
59434.8
23014.4
76929.6
48733.8
40692.8
45089.6
52409.5
46617.4
48717.7
52931.2
28091.6
30268.5
36654.5
29786.7
38109.6
43493.4
38343.8
49548.8
50386.3
46671.8
50185.6
55497.4
54728.3
53616.7
56091.3
60113.1
61979
55920.5
51227.1
52664.1
56727.3
55580.3
37280.6
42030.1
49605.6
81599.7
61317.6
53034
64496.9
57278
55095.9
40891.4
45849.1
51727.4
54264.3
70488.9
65472.3
64609.6
56393.5
60965.4
62809.9
58185.7
104767
105853
79933.7
61725
112015
79521.5
77131
150102
139241
105250
96456.5
171292
110595
102463
156349
91972.9
106181
94788.6
109232
99185.5
110456
113465
98015.6
118150
112866
106002
101296
115452
121200
122198
144217
125950
142599
125961
129948
148153
100986
107433
103399
118741
114827
117354
120722
120903
112438
105323
118954
135507
127647
124608
136252
149742
130186
132628
159393
139322
152292
146585
133812
130067
133490
153422
151272
136090
135783
159001
152143
164767
145076
154732
140891
129590
58836.5
180599
87298.5
100661
167888
102311
87552.2
54668.6
168103
64194.5
78994.9
121624
91465.9
122434
85708.7
93660.9
68152.9
54474.4
60245.4
64499.4
59412.9
62639.5
79425.6
67803.8
59396.1
64027.5
73376.1
63381.7
71838.5
77983.1
68684.6
92447.3
142074
90762.4
124468
83282.9
117074
166850
79511.2
107558
87559.9
99347
83295.8
93959.5
115586
65343.3
78873.1
99630.6
55214.6
55899.1
52162.8
48875.6
62024.9
90792.5
77033.4
60194.7
55875.8
49100
57974.9
82224.1
67822.3
77593.2
103250
100235
81330.7
129113
72137.7
100623
83402.2
102582
95652
112853
83032.5
87114.9
69448.6
77524
86233.1
91179.2
77334.2
98463.4
93485
73714.7
84490.8
89084.7
89278.1
91987.3
79948.8
133469
152382
109024
139809
187251
155592
181167
131921
178509
122527
144770
177665
144056
191001
102616
109202
90878.4
103618
131470
124927
114200
107111
124786
102031
105963
111878
100271
125291
95945.8
101066
81726.6
90770
88307.3
89700.5
102006
124953
127450
113818
100551
122050
97985.4
144095
82004.6
75432.4
81781.2
51783
51126.1
50683.4
49705.9
77229.3
71171.1
68775.7
52170.1
52108.5
49258.6
49106.7
159924
154573
194585
181200
151352
167943
195585
87417.3
114786
94501.1
50899.3
49611
51730.8
55228.4
109709
83129.9
121083
101857
92009.1
123948
110180
81293.5
77381.9
69982.3
60480.2
54241.8
51611.4
56958.7
102221
124725
99518.7
54535.5
64503.6
57432.4
60067.5
56000.4
64522.8
61180.2
49212.5
49995.6
48598.7
50842.9
79703.4
70440.7
81136.2
51570.5
50695.9
53262.8
49487
48600.8
50474.7
47073.8
48178.5
52382.5
51164.1
49687.8
45514.6
50082.9
46830.4
47718.8
50324.9
50984.9
46689.9
45830.9
50697.6
47253.5
48503.5
50727.8
52261.5
46938.8
57019.2
67534.5
61647.6
51521.5
57858.3
53320
56553.1
55855.8
53252.6
50305.5
51513.4
59455
54872.8
56589.8
208715
193285
205187
200653
218595
215167
202499
144438
137175
109592
97275.4
122414
86019.3
96406.6
224031
197046
217014
218944
238046
231459
199386
69575.3
64098.7
63493.7
79589.8
89552.8
71993
71792.2
213220
219625
221142
232178
225815
237277
234024
176134
188121
135113
168366
151123
195694
169651
63315.2
63459.7
64495.2
72361
72445
71485
73051.6
255716
258846
251489
263313
239999
253364
256816
50211.8
54288.5
55184.8
53741.3
52756.8
52857.8
51695.8
208206
231669
234659
251241
224268
229398
212984
49677.2
51653.9
55314.5
52456
52814.1
52289.3
48863.3
63934.9
61493.5
58020.9
53525.7
59888.6
57142.4
56012.4
50707.4
51984.6
57372.5
52916.3
54482
49149.5
53489.2
90758.4
115662
103472
81334.4
89097.6
80285.3
90762.3
69264
67203.8
64101.8
71644.3
75909.1
74261
72895.7
92567.9
80987.3
82396.6
80496.6
89906.6
81206.8
89819
250539
266247
247768
250571
242718
251060
244934
203839
179636
212212
223105
157967
179629
212717
207366
230675
245610
235995
156248
187030
219267
121030
122118
108188
98968.1
97462.2
105251
104556
119283
128058
145349
117039
116228
112557
116380
98364.7
99341.3
101194
106991
107487
105209
106518
90400
88623.9
88964.2
79915.4
83382.7
82088.5
80676.6
130406
146758
165782
224846
189290
205358
210291
97395.5
98921.5
97104.6
104542
107626
106800
105210
117846
114148
118246
111193
118120
111332
116733
118252
114407
113259
111825
121531
114055
118337
123695
120705
112850
111891
122292
114451
119180
127130
144823
145541
136590
132048
131371
140115
178950
192108
225702
228034
217050
185915
184461
42059.8
127748
20310
32551
20289.8
65229
39201.3
65544.6
30244.9
93435.2
83271.8
42547.5
38048
32382.2
53290.1
51713.3
19037.2
17538.9
16639.1
21340.4
21338.1
19946.9
21888.7
33611.6
28481
25058.3
26160.8
32808.8
34424.1
26825.8
25752.2
29925.9
20433.3
24293.6
28962.2
29808.1
23929.7
35420.4
32085.7
18565.9
30181.6
47086.1
26892.3
51228.1
67950
64208.6
46522.2
52559
41707.7
44789.1
57558.5
63723.4
61685.2
41204
38670.4
35496.7
29454.4
46558.5
115183
104828
88272.4
50927.8
75080.8
59494.8
66068.9
24246.5
45695.3
40415.4
35322.3
58152.5
41168.5
55840.4
28787.9
37086.2
34658.8
34885.8
33369.8
37616.8
29133.3
24991.2
29113.9
32220.9
36651.3
39966.8
26469.8
26088.1
33129.6
32229
48121.6
35308.8
44103.5
38203.7
28310.3
41050.5
58991.1
66289.4
47916.7
50779.8
37276.3
61620.3
36249.3
33747.4
35128
40655
38588.3
30552.7
38900.1
50728.5
44239.6
42475.1
42904.5
51994.4
44440.4
51956.3
45561.3
62890.5
55673.2
66245.2
53566.5
49543.3
63148.4
44563.8
55584.4
46186
52430.5
44986.2
46590.1
53978.9
80895.3
132130
61967.4
81491.9
48169.1
53278.6
48237.3
63103.8
43297.9
106240
81909.5
93987.7
48014.2
41819.1
56984.2
54410.5
50679.5
74872.2
69169.1
38207.5
38406.3
47379.4
48534.2
76989.1
83915.5
96007.2
45636.3
55631.5
60719
54747.9
112811
128879
111842
80766.2
66981.1
68902.8
80308.4
51194.5
57048.6
63625
56690
46559.9
49599.3
52596.3
80379
81346
78000.2
52173.1
54092.2
52297.2
53996.9
85665.9
84797.6
92556
60556.4
56235
58168
56657.3
37545.6
50976
43347.8
46957.3
46386.1
51984.3
42450.4
38571.8
43557.3
42451.2
45411.3
45092.6
46233.3
42953.5
80515.3
66387.2
73178.5
49273.4
48336.2
48847.8
49046.7
60055.1
56386.5
51674.2
51436.5
59693.9
55250.5
55328.6
119873
93928.6
104957
65767.3
67624.4
59992
75165.2
57237.6
48070.4
48844.4
50505.4
55531.7
49938.4
57986.4
47911.8
45384
50363.8
47816.7
51416.2
47141
44957.7
46893.3
45736.2
47007.3
49430.8
48180.7
45261.8
47062.8
49210.7
48878.4
51055
55814.5
52991.5
47517.5
50892.7
50853.4
56375.7
52219.5
56386.7
51290.3
50365.5
57436.9
178034
223085
209718
151824
110094
164865
202878
170395
153675
133788
158979
150464
143591
177534
161818
172584
172191
163188
200726
193987
183290
192138
118442
127302
134198
126512
131593
149548
146611
188012
183686
166941
213962
196472
179543
197317
245648
232291
213580
201523
233092
211890
219570
163740
149889
154940
175551
170450
182517
171512
145258
169369
150762
166806
185452
165532
185496
193790
221697
189726
209789
201486
190719
212352
42617.4
62382.8
49350.6
21661.5
42248.9
15991.9
19313.6
19406.7
47448.5
57004
86790
115879
41761.9
52207.4
66480.3
67332.9
16509.6
28177.5
19701.8
25495.9
27066.9
19381
36590.7
28860.2
55204.7
41703.9
53523.8
38942.1
46309.2
49202.2
16245.2
15537
15429.9
18406.7
16172.3
16568.2
16857.4
54064.9
78894.1
66539.9
62647.1
68066
58234.4
74047.4
41122.4
48904.5
55159.2
27514.4
41662.2
34427
43638.5
68925.1
66816.1
82177.9
56128.3
69026.4
58441.5
51005.9
43736.3
33427.7
33160.1
36234.7
40223
25219.8
43462.3
51291.3
58727.7
57561.3
55661.2
46808.5
49941.6
54222.8
18324.5
31596.6
25428.5
16608.4
18639.4
23189.2
18299
22759.2
21919.4
17277.8
23179.4
29518
18790.4
18598.5
97931.2
80518.9
97165.9
80481.4
94741.5
69137.5
83187.9
77975.3
74839.4
64879.8
63995.8
70192.3
61056.2
73679.9
54403.9
52674.3
60044.5
53575.2
62295.5
57998
50939.1
46305.1
48131
44008.7
47871.6
40223.4
43875.6
45963.1
38656.7
28148.9
37410.1
29941.8
27462.9
36288.2
21508.3
73184.1
69328.1
81588.7
89349.3
74929.6
67932.7
79650.3
101416
154662
180514
135898
87159.4
146495
150406
92727.4
81076.7
108913
97662.9
80372.1
87153.1
95447.9
102083
134805
116054
110660
126642
98634
114320
132150
101890
90528
82185.9
86116.9
97557.9
101643
105186
138373
126727
117631
134082
113872
118860
137756
95096.4
104891
93451.8
109213
117444
110406
120870
159647
165600
142686
130399
164254
147819
147576
118435
133484
115021
118533
140075
121962
136789
125771
135116
155655
146655
127834
144015
137317
82068
156008
83268.7
52205.3
151204
65505.5
53082.9
30194
50510.3
133733
84830.4
112202
94171
67165.8
66227.6
133980
56322.8
56553.8
68405.2
67429.2
78224.6
58681.5
65709.8
80980.8
79044.8
94531.2
87848.5
101608
89012.6
75300.9
21988.7
41939
38657.5
32871.5
51202.8
51769.8
49682.1
114764
95879
113390
119472
138986
105452
124052
50687.7
48891.4
52073.7
55006
57130.5
57151.5
58505.7
57622.9
59040.4
70079.5
78819.6
62945.7
73582.1
66331
73684.2
76173.7
84584
70307
84651.5
81994.2
75959.3
95195.4
93495.7
108003
99456.3
92839.3
108562
84760.5
63426.7
43271.7
46207.6
58021.5
109316
70488
75596.1
79370.7
101988
85318.9
94281.6
105843
87424
112614
133498
127353
149564
118669
151723
129354
141081
59249
56425.6
62271.3
68982.2
92955.7
87335.6
85650.3
67299
81924.8
67005.3
90215.2
84329
71480.5
68806.5
90783.1
96655.3
87932.3