/*--------------------------------*- C++ -*----------------------------------*\
  =========                 |
  \\      /  F ield         | OpenFOAM: The Open Source CFD Toolbox
   \\    /   O peration     | Website:  https://openfoam.org
    \\  /    A nd           | Version:  9
     \\/     M anipulation  |
\*---------------------------------------------------------------------------*/
FoamFile
{
    format      ascii;
    class       volScalarField;
    location    "0.00315";
    object      rho.air;
}
// * * * * * * * * * * * * * * * * * * * * * * * * * * * * * * * * * * * * * //

dimensions      [1 -3 0 0 0 0 0];

internalField   nonuniform List<scalar> 
26016
(
1.89916
2.08713
1.66586
2.2706
1.22508
1.22647
1.225
1.225
1.52606
0.945752
1.91277
2.07243
1.22552
1.22518
1.22504
1.22501
0.870682
1.78247
1.00962
1.73504
0.993092
1.49792
0.860702
1.68941
1.58692
0.880525
1.98485
1.12328
1.81891
1.02523
1.0768
1.84894
1.05727
2.18375
2.21091
1.21635
1.24249
1.20163
1.93612
1.12171
2.23139
1.2974
2.29165
1.33854
0.864903
0.906931
0.900093
1.04348
1.03477
1.07748
1.08727
0.862217
0.895406
0.896918
1.02783
1.03021
1.07236
1.06987
0.895308
0.918315
0.93574
1.05696
1.07644
1.10241
1.12466
0.916565
0.994554
0.960831
1.13839
1.1033
1.15525
1.19449
0.995205
0.939257
0.940988
1.12418
1.183
1.18628
1.12137
0.953087
1.00003
0.944936
1.13011
1.206
1.19321
1.14128
0.966405
1.04898
0.986894
1.22576
1.15856
1.18389
1.25429
0.904704
1.01402
0.575806
0.889867
0.567898
1.12116
1.14496
0.742812
0.757079
0.919397
0.648471
0.598914
1.16638
1.13944
0.769847
0.775891
0.566718
0.617268
0.618841
0.645387
0.646555
0.701021
0.699378
0.570547
0.628245
0.622099
0.65544
0.649485
0.704702
0.71181
0.584697
0.638327
0.665572
0.654293
0.681769
0.723626
0.742163
0.620058
0.708064
0.677496
0.737049
0.7055
0.768584
0.802846
0.675887
0.745084
0.677825
0.764743
0.83558
0.838036
0.762666
0.891658
0.752173
0.753499
0.813413
0.956567
0.811576
0.958853
0.688517
0.749291
0.681565
0.769101
0.852399
0.843056
0.777314
0.763975
0.895988
0.756928
0.817712
0.974416
0.826139
0.964151
0.69986
0.789692
0.717641
0.867728
0.79084
0.811705
0.891032
0.776005
0.942165
0.79509
0.991476
0.840308
0.862246
1.01723
0.853125
0.743002
0.817523
0.840774
0.962767
0.922883
0.877743
0.973827
0.858212
0.822476
0.892749
1.0947
0.931405
1.05194
0.883504
1.0337
1.12428
0.961287
0.963944
0.881225
1.03642
0.888641
1.05455
1.1315
0.981118
0.969896
0.898448
1.04268
1.07386
0.999468
0.914709
0.939318
1.19712
1.02669
1.10223
1.08178
1.05392
1.01594
1.21817
1.33852
1.29207
1.2612
1.18439
1.01405
1.1068
1.06279
1.28361
1.23663
0.972672
1.25416
1.5084
1.24177
1.29356
1.5947
1.3073
1.57495
1.87582
2.16558
1.84382
2.13036
2.19828
1.92079
2.10002
1.23471
1.49267
1.23108
1.28579
1.55761
1.28192
1.5633
1.05986
1.13166
1.13476
1.25543
1.25923
1.34386
1.33955
1.15445
1.06566
1.14164
1.28192
1.2673
1.35317
1.36981
1.98252
1.98533
2.10761
2.23376
1.54838
1.7902
2.15267
1.55189
1.29808
1.2725
1.62413
1.3277
1.35623
1.66429
1.2044
1.09487
1.17487
1.30434
1.33605
1.39498
1.42984
1.34758
1.74205
1.41628
1.63726
1.42105
1.34331
1.64374
1.63262
1.37425
1.33188
1.39374
1.77697
1.44032
1.71528
1.3563
1.68026
1.44827
1.75715
1.43094
1.37167
1.65735
1.15759
1.24287
1.2893
1.42677
1.37714
1.47409
1.52693
0.553965
0.588971
0.45105
0.524946
0.517193
0.449387
0.689083
0.698896
0.558791
0.532218
0.502555
0.452811
0.708235
0.777835
0.56659
0.628325
0.450238
0.482655
0.492893
0.482356
0.492164
0.533049
0.533593
0.449185
0.49041
0.483307
0.482065
0.490875
0.53219
0.532433
0.462655
0.49267
0.488141
0.499156
0.500555
0.535726
0.544669
0.479867
0.537348
0.540316
0.517017
0.515728
0.560566
0.582857
0.516573
0.55442
0.516665
0.576673
0.624351
0.624239
0.577018
0.520727
0.506937
0.50523
0.556182
0.577249
0.557865
0.57275
0.503861
0.518511
0.504592
0.555578
0.568845
0.554976
0.570291
0.555509
0.519257
0.517033
0.576179
0.626061
0.624255
0.577139
0.511112
0.544344
0.520247
0.58492
0.562257
0.571838
0.597894
0.525476
0.580764
0.537857
0.632028
0.581603
0.591955
0.644235
0.559253
0.563174
0.536304
0.588261
0.644676
0.611556
0.617755
0.58165
0.601634
0.556985
0.609244
0.689269
0.663452
0.63296
0.608867
0.665128
0.62605
0.690866
0.66577
0.608295
0.627644
0.609475
0.635033
0.693653
0.66895
0.666569
0.611363
0.630238
0.643375
0.675132
0.616433
0.627041
0.723914
0.687335
0.657479
0.107584
0.0839353
0.174886
0.131934
0.117803
0.105867
0.167237
0.182671
0.0864881
0.100186
0.103291
0.0935869
0.0966388
0.115107
0.111397
0.0932896
0.127255
0.111371
0.119432
0.104294
0.12389
0.140236
0.144648
0.159381
0.118924
0.148421
0.122269
0.135957
0.163512
0.148253
0.157958
0.131322
0.145334
0.189395
0.162182
0.17295
0.109352
0.122188
0.126206
0.143101
0.125151
0.129213
0.147628
0.133736
0.151975
0.135413
0.138687
0.175011
0.157653
0.155656
0.14743
0.198602
0.176738
0.151942
0.203786
0.17218
0.181542
0.214341
0.19162
0.231311
0.200265
0.208384
0.179276
0.161959
0.24171
0.455542
0.468554
0.384462
0.235946
0.38855
0.210721
0.478851
0.256969
0.32246
0.395593
0.249286
0.488854
0.555919
0.294648
0.391091
0.182325
0.198678
0.186204
0.202717
0.239014
0.258114
0.254672
0.195319
0.258056
0.226795
0.211722
0.246202
0.265523
0.277699
0.23343
0.262275
0.276452
0.278722
0.301732
0.296303
0.321895
0.217895
0.246882
0.22271
0.2802
0.301656
0.306164
0.276041
0.306829
0.384837
0.308297
0.330397
0.409876
0.410921
0.328263
0.293277
0.359292
0.342682
0.311466
0.330954
0.351786
0.381329
0.38581
0.318944
0.312055
0.334754
0.4163
0.342307
0.41266
0.232331
0.272523
0.24767
0.288202
0.327466
0.3146
0.300728
0.331514
0.409843
0.351478
0.424225
0.355281
0.375284
0.439034
0.269943
0.323624
0.299166
0.346058
0.319289
0.344711
0.37133
0.403304
0.431053
0.376972
0.400811
0.485398
0.42785
0.460394
0.365078
0.357096
0.332376
0.374813
0.43353
0.401591
0.405561
0.354736
0.379629
0.437472
0.470376
0.382826
0.439003
0.351931
0.359836
0.47339
0.446032
0.397256
0.388403
0.368081
0.441452
0.454927
0.411042
0.381427
0.401519
0.505334
0.431375
0.470343
0.427154
0.518304
0.528213
0.486631
0.457408
0.455128
0.492199
0.644578
0.707233
0.747122
0.733196
0.706701
0.669065
0.678738
0.0105314
0.0293978
0.0259717
0.0866284
0.0679123
0.0642264
0.0504439
0.129699
0.0691585
0.0191448
0.0105076
0.0179888
0.0158244
0.04263
0.0137046
0.0368601
0.0373693
0.0257545
0.0375023
0.0449379
0.0320107
0.0322757
0.0440798
0.0177657
0.0139595
0.0137241
0.0232738
0.0174788
0.0231037
0.017032
0.0261631
0.0449774
0.0389679
0.0478609
0.0388795
0.0336268
0.0563671
0.052015
0.0695861
0.0527572
0.0608512
0.0762234
0.0593037
0.0784824
0.0139795
0.0177213
0.0135045
0.0258001
0.0233438
0.0167503
0.0175446
0.0103895
0.0106469
0.0105264
0.0119934
0.0125608
0.0123561
0.0118447
0.0107659
0.0103199
0.0104518
0.0122661
0.0120223
0.0126874
0.0117694
0.0649701
0.0746408
0.0558505
0.0654587
0.0979596
0.0767049
0.0846381
0.0546267
0.0399851
0.0513868
0.0653708
0.0676291
0.0406651
0.0530418
0.0296101
0.0366499
0.0247343
0.0209489
0.0294074
0.0204387
0.0242697
0.0591617
0.0504974
0.0549094
0.0867133
0.0736834
0.0430962
0.0701352
0.0827597
0.102047
0.0871413
0.0714732
0.105551
0.0858573
0.0899978
0.0337086
0.0377928
0.030037
0.0203031
0.026319
0.0244207
0.0216006
0.0156649
0.017047
0.0146493
0.0144168
0.0154678
0.0168183
0.0135212
0.0143748
0.0137603
0.0176751
0.0154449
0.0168732
0.0149485
0.0134626
0.0775895
0.11187
0.108426
0.113907
0.093433
0.0908645
0.0972433
0.0140887
0.0934717
0.0578112
0.0111141
0.0240326
0.0245883
0.103629
0.0169446
0.0526724
0.0384271
0.189363
0.107297
0.157016
0.0811159
0.256771
0.113357
0.0161147
0.033003
0.0201436
0.0325731
0.0204724
0.0256025
0.0437277
0.0589089
0.0538459
0.0802224
0.050956
0.0734581
0.0978567
0.069577
0.0117542
0.0119025
0.0133362
0.012732
0.0139554
0.0161393
0.0138251
0.0829462
0.13412
0.107822
0.120188
0.0970712
0.124583
0.149068
0.018131
0.0128162
0.0154616
0.0190704
0.0170062
0.0224016
0.0152085
0.0731734
0.130095
0.105074
0.125551
0.11417
0.153144
0.0916259
0.0317489
0.0447348
0.025535
0.0322276
0.0726052
0.0398738
0.0575489
0.0146374
0.0198498
0.0166054
0.0194959
0.0188277
0.0233129
0.0161006
0.0422432
0.0309768
0.0254053
0.0315815
0.0674399
0.0382771
0.0552271
0.16156
0.162473
0.135102
0.154737
0.210268
0.184048
0.180209
0.0652612
0.108511
0.0898741
0.11678
0.104263
0.137391
0.0864345
0.132552
0.135557
0.154495
0.143074
0.18647
0.163896
0.166223
0.023038
0.0204494
0.0326592
0.0213347
0.0275584
0.0271675
0.0180105
0.0395316
0.0878618
0.0580044
0.0850376
0.047516
0.0485722
0.0710189
0.146841
0.135287
0.130436
0.201175
0.169367
0.176676
0.110669
0.17563
0.232421
0.232283
0.22185
0.198381
0.207364
0.199745
0.290855
0.215598
0.130435
0.19974
0.223658
0.177117
0.255629
0.357207
0.158954
0.151844
0.14314
0.182035
0.173096
0.165128
0.196386
0.188367
0.241157
0.212959
0.235358
0.205037
0.229564
0.26054
0.173646
0.230224
0.20458
0.213892
0.187446
0.219288
0.245122
0.158259
0.209335
0.189536
0.2006
0.18099
0.213111
0.233192
0.265092
0.261762
0.236217
0.253234
0.3106
0.284704
0.278955
0.25657
0.245071
0.280184
0.248113
0.304888
0.269456
0.281457
0.225738
0.232817
0.204695
0.23704
0.286916
0.258225
0.26419
0.272405
0.332322
0.329893
0.322266
0.294495
0.305962
0.298947
1.71353
1.47407
1.39454
1.4264
1.86643
1.50969
1.75783
1.21992
1.31619
1.31216
1.44127
1.54759
1.55305
1.43647
1.34185
1.2279
1.32533
1.4519
1.58686
1.56534
1.47068
1.46788
1.87824
1.61118
1.92307
1.55547
1.51877
1.8131
1.40193
1.26524
1.36703
1.61849
1.4987
1.53693
1.66094
2.19106
1.75007
2.16698
2.28895
1.30155
1.28031
2.29171
1.85629
1.50229
1.50761
1.61037
1.97161
1.60437
1.97828
1.53881
1.87247
1.51898
1.62356
2.01815
1.64646
1.9934
1.3875
1.49719
1.44575
1.58496
1.77808
1.71397
1.64204
1.79329
1.61045
2.20958
1.26946
2.29384
1.95997
1.2413
1.56813
1.98151
1.60806
2.05146
1.68067
1.72684
2.09079
1.86903
1.94652
1.95268
2.18146
2.18353
2.21433
2.21269
1.72185
2.03326
1.65904
1.78418
2.1752
1.85173
2.13324
1.89002
1.98738
1.96598
2.19913
2.18923
2.21953
2.22859
1.73491
2.08793
2.18684
1.87386
1.88145
1.7279
2.09315
1.75065
2.12555
2.19568
1.92726
1.89878
1.77743
2.10547
1.94409
2.01643
2.05152
2.21314
2.22987
2.24082
2.25427
2.02602
2.13133
2.0908
2.26257
2.24694
2.26699
2.27813
2.15213
1.96633
1.81604
1.86641
2.25374
2.01454
2.18257
2.06122
2.11395
2.04212
2.24709
2.27284
2.26783
2.25416
2.10411
2.02511
2.03034
2.24306
2.26485
2.26499
2.24221
1.92656
2.24518
2.27441
2.12556
2.06933
1.99229
2.21399
2.08729
2.17854
2.11818
2.27896
2.26335
2.27314
2.2842
2.1855
2.2059
2.15176
2.28144
2.28559
2.28703
2.28676
2.16981
2.22392
2.22567
2.27927
2.27847
2.27854
2.28059
2.17763
2.24266
2.2319
2.28183
2.27963
2.2774
2.27589
2.23118
2.25637
2.27026
2.28388
2.28369
2.27247
2.26455
2.25242
2.29237
2.28277
2.26825
2.2793
2.24917
2.22389
1.28045
1.22567
1.22514
1.2251
1.3358
1.29458
1.37334
2.28566
2.19209
2.28444
2.28047
2.14045
2.28224
2.13281
2.28478
2.18169
2.28447
2.27933
2.09607
2.27773
2.11888
2.26577
2.28796
2.26602
2.25798
2.20708
2.20091
2.26164
0.822003
2.27194
2.29008
1.22502
1.225
0.983507
2.11939
1.22508
1.225
0.724207
1.24199
1.06167
1.23603
0.895837
1.06422
1.536
1.14723
2.01371
1.75714
2.22293
2.04953
1.28102
1.17236
0.683473
0.745301
0.775737
0.788488
0.820722
0.844172
0.891872
0.770311
0.892565
0.837444
0.928632
0.871623
0.945792
1.00623
0.81564
0.945208
0.861678
1.00987
0.921846
0.972539
1.06369
2.14026
1.44774
1.31094
2.30501
1.44351
1.78833
2.29599
0.901445
1.11579
0.951256
1.14443
0.97728
1.02965
1.20042
1.02996
1.03698
1.08766
1.18196
1.23401
1.24215
1.29803
0.973029
1.00125
0.913994
1.02975
1.19072
1.12401
1.09368
1.17588
1.0695
1.00724
1.08833
1.33065
1.15337
1.26242
1.08482
1.21039
1.14573
1.36366
1.29455
1.36208
1.43443
1.06252
1.15771
1.33708
1.11749
1.3967
1.21482
1.2939
1.10027
1.22814
1.15396
1.39304
1.31248
1.37173
1.45536
0.70063
0.66511
0.657888
0.528325
0.815445
0.659441
0.777051
0.968004
0.556051
0.563662
0.567057
0.596309
0.593604
0.610063
0.641395
0.627242
0.619721
0.586222
0.664745
0.628574
0.676946
0.71733
0.620961
0.62086
0.587826
0.677906
0.640728
0.67502
0.716703
0.610143
0.694293
0.641828
0.720693
0.661883
0.695389
0.757106
0.117744
0.284168
0.383787
0.0257797
0.0159178
0.0716713
0.0287973
0.104885
0.0497213
0.180878
0.176822
0.113737
0.214461
0.204775
0.262826
0.255541
0.376343
0.30835
0.316608
0.240648
0.287002
0.390268
0.400044
0.481443
0.0213422
0.0183743
0.025213
0.0194181
0.0263401
0.0310391
0.0225927
0.0388626
0.0861693
0.046831
0.0880577
0.0482663
0.0573768
0.103808
0.154172
0.134158
0.177622
0.136283
0.179317
0.204219
0.158046
0.186695
0.237893
0.210602
0.238163
0.21154
0.237176
0.263657
0.0356158
0.0215775
0.0298726
0.0366985
0.0320859
0.0436749
0.0266927
0.0236355
0.038716
0.0320539
0.0378446
0.0341778
0.0458601
0.0277686
0.266577
0.263462
0.263262
0.28908
0.288787
0.288393
0.313712
0.0657908
0.101452
0.0557188
0.0674344
0.137612
0.078839
0.120227
0.058346
0.0693333
0.122456
0.0688498
0.141509
0.0814762
0.122148
0.22468
0.155054
0.200944
0.228477
0.202401
0.179986
0.252781
0.159168
0.231178
0.182713
0.231232
0.207625
0.182423
0.259288
0.258132
0.260952
0.234261
0.262078
0.312732
0.286876
0.28828
0.0447994
0.0399993
0.0410061
0.0648957
0.0544246
0.0533674
0.0330842
0.237039
0.289498
0.264108
0.264559
0.319495
0.293595
0.290518
0.290831
0.339305
0.313378
0.338878
0.313072
0.338021
0.364048
0.285869
0.33327
0.311101
0.336443
0.312517
0.337654
0.361458
0.313028
0.338103
0.312226
0.343051
0.314528
0.339745
0.368298
0.0804072
0.158744
0.160951
0.10958
0.0947782
0.0934401
0.140029
0.256628
0.228671
0.231875
0.311906
0.205521
0.285968
0.28175
0.290993
0.343183
0.348194
0.349238
0.321756
0.317035
0.317058
0.357461
0.361336
0.33527
0.361996
0.412856
0.386026
0.38827
0.363105
0.36313
0.336844
0.364335
0.420817
0.393445
0.390779
0.366697
0.371723
0.340783
0.365989
0.425876
0.397157
0.392001
0.390773
0.444994
0.450811
0.452171
0.42271
0.41722
0.41769
0.561861
0.416122
0.480741
0.348014
0.586641
0.423709
0.479068
0.695205
0.370847
0.384522
0.370611
0.407794
0.395957
0.408548
0.434084
0.393225
0.454709
0.430915
0.445795
0.420538
0.459299
0.485578
0.428067
0.506309
0.451967
0.511878
0.454298
0.480267
0.539203
0.395418
0.454505
0.423323
0.465145
0.43493
0.462937
0.496036
0.501644
0.476168
0.532917
0.506652
0.599847
0.534818
0.568124
0.517279
0.450755
0.485299
0.491036
0.561115
0.527648
0.52057
0.546565
0.517215
0.483513
0.511902
0.619688
0.548594
0.576415
0.541313
0.643728
0.655538
0.617427
0.581648
0.572922
0.608432
0.746621
0.699722
0.658449
0.7143
0.810767
0.759001
0.760859
0.716627
0.677022
0.7332
0.733593
0.846233
0.798713
0.777168
0.742331
0.766136
0.699707
0.735901
0.859542
0.80508
0.783432
0.777699
0.884088
0.910232
0.902166
0.850218
0.825648
0.830521
1.17865
1.42818
1.46268
1.34633
1.27772
1.24585
1.35785
1.35994
1.21418
1.29055
1.43896
1.60536
1.52571
1.51445
1.89569
1.51391
2.2458
2.29791
1.27834
2.25863
1.46116
1.4255
1.836
1.48621
1.849
1.49607
1.56151
1.92913
1.25288
1.34293
1.48433
1.40346
1.54993
1.58817
1.65859
1.64002
1.92396
1.55715
1.63801
2.09178
1.72874
2.01142
1.94978
1.6776
1.57922
1.65022
2.11298
1.75652
2.02371
1.37586
1.54565
1.47082
1.71056
1.62468
1.74018
1.836
1.55572
1.62231
1.50646
1.85265
1.70853
1.78707
1.93766
1.73464
2.16266
2.17145
1.94624
1.84661
1.83171
2.09623
1.65702
1.69891
1.57694
1.87777
2.12343
2.02889
1.97871
1.34331
2.18437
1.67573
1.7036
1.23098
1.41751
1.22666
1.79515
2.1895
1.87875
2.21477
1.92811
2.00858
2.25171
2.16496
2.17142
2.20928
2.27593
2.2853
2.28571
2.28856
2.2341
2.06206
1.96949
2.0908
2.30115
2.16696
2.28131
2.27237
2.17978
2.06236
2.13144
2.31275
2.2287
2.29301
2.20722
2.2721
2.2446
2.28441
2.28912
2.2841
2.2678
2.21848
2.27791
2.24921
2.27765
2.28779
2.28217
2.2599
2.19435
2.31236
2.31084
2.30402
2.27215
2.24872
2.30733
2.29
2.29172
2.27327
2.26597
2.17417
2.22801
2.23463
1.22893
1.22509
1.22727
1.22507
1.22689
1.22503
1.2297
1.22541
1.22791
2.16646
2.08338
2.13515
1.22881
1.23116
2.20289
1.22743
1.22608
2.14135
2.04582
1.84753
1.22658
1.97881
2.029
2.0889
1.22798
1.22582
1.30883
1.22604
1.33
1.22561
1.22528
1.98754
1.77576
1.50173
1.22553
1.65213
1.22534
1.41653
1.53876
1.26271
1.22504
1.22509
1.31602
2.14222
2.28467
2.28256
2.06111
2.27467
2.26854
2.01191
2.27647
2.28924
2.26968
2.25342
2.1741
2.19065
2.24607
2.05583
2.23886
1.86391
2.26598
2.27688
2.25755
1.94725
2.29747
2.24729
2.28515
2.29488
2.29594
2.21267
2.12277
2.2848
2.29318
2.29218
2.14854
2.2336
2.21346
2.10819
2.26836
1.90772
2.05089
2.24749
2.24374
2.27097
2.04003
1.35881
1.2504
1.22503
1.22503
1.23046
1.22545
1.22502
2.20898
1.75964
2.24729
1.78166
2.21643
2.16298
1.63984
2.2656
1.988
2.22978
1.88263
2.23841
2.26138
2.01962
2.13545
2.27479
2.2966
2.28766
2.29657
2.1823
2.04585
1.94382
2.21603
2.25438
2.24232
1.7217
2.19442
1.88416
2.29773
2.25538
2.28443
2.06231
2.15703
2.02095
1.87731
2.11511
2.19206
1.71233
2.22262
1.63959
2.16215
1.80653
1.84561
2.06016
2.20447
2.24888
2.28986
2.27268
1.95194
2.14882
2.18378
2.16745
1.61809
1.6142
1.58142
1.65185
2.18771
2.19548
2.17994
1.69167
1.64348
1.65709
1.67772
1.22506
1.28329
1.30366
1.23255
1.23039
1.22502
1.22502
1.73554
2.20196
2.19616
2.11046
1.55891
2.11938
1.54601
2.12261
2.1094
2.14413
1.5736
1.49234
1.53947
1.52227
2.16612
2.12588
2.15792
1.5979
1.55583
1.54399
1.611
2.17076
1.70761
2.18641
2.09364
1.48776
2.06584
1.5217
2.12093
2.10375
2.07918
1.56635
1.5361
1.48646
1.51273
1.22502
1.23386
1.22503
1.22505
1.27273
1.22928
1.22502
2.14751
1.54507
2.11233
1.44642
2.02452
1.96733
1.40046
1.64955
2.09114
2.16754
2.09252
1.41016
1.98129
1.51616
2.08997
1.99505
2.04348
1.45602
1.49847
1.45338
1.41549
2.05874
1.95954
1.99192
1.44268
1.46882
1.41496
1.39224
2.02513
2.07818
2.01338
1.49756
1.48748
1.4397
1.43109
2.04185
2.14685
1.60529
2.07703
1.38211
1.94085
1.4978
2.04956
1.94846
2.02165
1.43497
1.40269
1.45772
1.38323
1.93017
1.90525
1.98243
1.40589
1.33486
1.37308
1.35963
1.33502
1.83156
1.84528
1.94503
1.9325
1.38339
1.37622
1.93302
1.91432
1.85414
1.41071
1.37515
1.36543
1.33799
1.31464
1.41099
1.98193
1.47737
2.05791
1.89149
1.35427
1.54944
2.00878
2.13291
2.17669
2.2373
1.80723
1.63383
1.32094
1.76717
1.80572
1.87259
1.90885
1.36327
1.34606
1.86232
1.69153
1.77925
1.31081
1.34098
1.31202
1.2892
1.2811
1.29508
1.71586
1.82272
1.75932
1.32648
1.30638
1.95553
1.40162
1.74866
1.2976
1.73326
1.96844
1.39302
1.93056
1.35458
1.29017
1.6575
1.70306
1.89107
1.37668
1.29791
1.71342
1.72718
1.59746
1.58437
1.27118
1.26908
1.97236
1.32846
1.65036
1.31959
1.80869
1.83312
1.4037
1.28852
1.64859
1.68729
1.52558
1.55991
1.26524
1.26009
1.57799
1.26806
1.25662
1.59674
1.68344
1.28751
1.27107
1.32977
1.59752
1.83488
1.76132
1.25886
1.52832
1.30502
1.22552
1.22501
1.225
1.23069
1.22502
1.22509
1.22502
1.28367
1.34991
1.88283
1.30327
1.75646
1.54842
1.26154
1.26204
1.27132
1.5979
1.48421
1.43812
1.25418
1.24809
0.940182
0.849828
1.485
0.913308
1.68334
0.951117
1.60203
1.4299
0.826684
0.863202
1.09131
1.93448
1.31766
1.51889
1.73129
0.9734
0.832596
0.849033
0.855696
0.989969
0.995862
1.01805
1.02495
0.840007
0.875889
0.864402
1.01785
1.0048
1.03524
1.05001
0.881488
0.891534
0.913293
1.03587
1.05997
1.07068
1.09853
0.877175
0.923008
0.885219
1.09686
1.05319
1.06136
1.10635
0.909178
0.935219
0.895666
1.07319
1.13957
1.09016
1.1199
0.906556
0.981701
0.94298
1.13187
1.09153
1.13459
1.17959
0.927849
1.00392
0.953853
1.16725
1.11413
1.14619
1.2035
1.44084
1.18354
1.19103
1.47622
1.21902
1.22774
1.48878
1.03217
1.0433
0.98848
1.18677
1.30169
1.24833
1.23617
1.22212
1.45908
1.20374
1.24202
1.53827
1.26248
1.50936
1.31591
1.53298
1.26279
1.27279
1.61887
1.5474
1.32736
1.2467
1.27819
1.5612
1.5759
1.29002
1.32531
1.62314
1.28879
1.60304
1.37139
1.64592
1.31178
1.57059
1.34542
1.61336
1.67863
1.36638
1.36913
1.75281
1.68203
1.42243
1.64602
1.40622
1.34281
1.38225
1.78962
1.69943
1.44995
0.577376
0.438731
0.657011
0.709744
0.709697
0.762627
0.793608
0.501276
0.629067
0.692766
0.439596
0.456086
0.781766
0.720669
0.914392
0.812474
0.501843
0.526255
0.65281
0.549815
0.553672
0.516774
0.571759
0.532034
0.499553
0.460703
0.45438
0.478567
0.502504
0.516963
0.514828
0.574281
0.818505
0.9652
1.16174
0.987381
0.759999
0.667592
0.680277
0.604243
0.576293
0.61626
0.592768
0.551439
0.575518
0.4333
0.505083
0.450269
0.459683
0.51711
0.522535
0.537292
0.525372
0.47512
0.500241
0.536337
0.563378
0.535866
0.561692
0.478677
0.505581
0.479559
0.555039
0.533767
0.557108
0.582431
0.473048
0.518346
0.485819
0.576504
0.546052
0.563889
0.597736
0.594968
0.69469
0.586379
0.710896
0.610895
0.601704
0.712996
0.592178
0.70101
0.586666
0.602477
0.730711
0.60946
0.720321
0.538593
0.545025
0.509187
0.587458
0.658728
0.625176
0.617062
0.602294
0.734913
0.615326
0.743695
0.62168
0.637182
0.760824
0.536971
0.506618
0.540789
0.583022
0.614862
0.619106
0.655069
0.655379
0.733509
0.630645
0.621489
0.767486
0.736506
0.647584
0.623471
0.758178
0.778844
0.66321
0.632693
0.745667
0.651453
0.654591
0.754471
0.631906
0.657413
0.817246
0.784684
0.684918
0.613151
0.614533
0.573109
0.698928
0.653669
0.69748
0.745844
0.617771
0.581623
0.629118
0.715636
0.663417
0.702834
0.757963
0.773799
0.680761
0.647382
0.666177
0.837967
0.794822
0.703438
0.690922
0.769994
0.861557
0.871832
0.823714
0.732821
0.723461
0.685681
0.859288
0.721132
0.865267
0.726133
0.766254
0.910705
0.705305
0.711209
0.659058
0.748273
0.860068
0.806124
0.799429
0.8151
0.908397
0.764447
0.813638
1.02363
0.867687
0.963715
0.921758
0.834348
0.775824
0.819843
1.03938
0.881518
0.970912
0.466139
0.520099
0.585185
0.528474
0.462548
0.383303
0.410683
0.416141
0.476833
0.437298
0.488116
0.486516
0.520919
0.526952
0.494443
0.42402
0.380272
0.414383
0.402205
0.475131
0.494108
0.418931
0.584302
0.536642
0.557897
0.608596
0.568648
0.518646
0.535774
0.453673
0.387248
0.395484
0.413326
0.478432
0.402504
0.407623
0.508058
0.476679
0.442861
0.440971
0.50391
0.440461
0.466699
0.313462
0.36438
0.37936
0.541738
0.722311
0.620576
0.520948
0.648337
0.337486
0.325916
0.433927
0.353764
0.466001
0.443104
0.479618
0.396629
0.43784
0.390852
0.483535
0.477044
0.501518
0.517701
0.348761
0.420613
0.38197
0.499059
0.465567
0.506987
0.546095
0.479357
0.487963
0.430296
0.537652
0.610355
0.561187
0.58304
0.564096
0.61175
0.569916
0.666301
0.576207
0.585623
0.633817
0.445103
0.532073
0.559032
0.580903
0.467069
0.549854
0.558798
0.630307
0.691215
0.598721
0.611824
0.695308
0.661921
0.647174
0.584341
0.491319
0.515872
0.612195
0.620427
0.588897
0.651609
0.385027
0.365967
0.397636
0.420685
0.448879
0.392392
0.422198
0.504712
0.436494
0.464136
0.426661
0.465749
0.433978
0.454863
0.489213
0.451166
0.482232
0.42438
0.487839
0.4524
0.460314
0.524399
0.480809
0.438297
0.450522
0.603465
0.580085
0.495974
0.492245
0.424999
0.406677
0.400035
0.424561
0.452039
0.442511
0.473559
0.50592
0.471345
0.452
0.510867
0.480724
0.506189
0.540769
0.457486
0.51941
0.484833
0.5212
0.481127
0.511138
0.550695
0.417631
0.450752
0.481612
0.485531
0.455366
0.488359
0.518328
0.544204
0.513525
0.548419
0.543321
0.619175
0.583162
0.578216
0.486208
0.556325
0.516972
0.523999
0.596028
0.562322
0.555243
0.539876
0.525205
0.570176
0.528724
0.605792
0.572561
0.5595
0.649178
0.690213
0.640329
0.645753
0.597878
0.608884
0.564467
0.426604
0.376155
0.389971
0.398289
0.47194
0.388894
0.451489
0.347584
0.376202
0.406851
0.327703
0.323716
0.39114
0.347229
0.351773
0.230245
0.254597
0.254348
0.197011
0.165477
0.270348
0.383911
0.353141
0.227493
0.0858202
0.154401
0.185748
0.218626
0.251239
0.434737
0.153295
0.206586
0.220269
0.109094
0.119944
0.102211
0.155673
0.130247
0.154172
0.194393
0.158085
0.185247
0.207022
0.156561
0.179143
0.20221
0.182501
0.322823
0.358006
0.232579
0.356856
0.25653
0.297254
0.239672
0.513724
0.455496
0.417805
0.397176
0.181654
0.271032
0.459866
0.17952
0.274081
0.224922
0.24892
0.214146
0.259628
0.294555
0.13111
0.21441
0.184499
0.181004
0.154784
0.226109
0.259171
0.130709
0.19706
0.162155
0.232136
0.195204
0.235455
0.269441
0.148225
0.166002
0.153288
0.180679
0.17391
0.182798
0.19986
0.181514
0.175677
0.162956
0.213439
0.203859
0.193594
0.210538
0.206167
0.249542
0.250585
0.260604
0.223848
0.216062
0.265562
0.278262
0.232757
0.201603
0.238103
0.274434
0.20698
0.238183
0.223759
0.217553
0.188651
0.26749
0.336041
0.302025
0.300783
0.274333
0.263373
0.24644
0.289497
0.310598
0.306396
0.314649
0.312344
0.296144
0.259663
0.295749
0.374658
0.334006
0.334065
0.216421
0.25052
0.213504
0.299807
0.298733
0.257394
0.352324
0.182885
0.18972
0.164613
0.198526
0.265798
0.230172
0.222118
0.219931
0.262253
0.292832
0.221333
0.332713
0.249609
0.285192
0.0615667
0.0523098
0.0333395
0.0650712
0.0735688
0.114874
0.0556522
0.103053
0.0648306
0.0838161
0.0916485
0.0696364
0.0934409
0.0777941
0.0663723
0.126387
0.0907787
0.0896361
0.113677
0.108131
0.0785777
0.0787535
0.0516392
0.061007
0.0683108
0.0577869
0.0440518
0.0436321
0.0567273
0.0578899
0.087008
0.0608448
0.0726804
0.0915665
0.0689195
0.0637396
0.0528809
0.0665788
0.0672212
0.0566781
0.0621654
0.0490128
0.063127
0.10638
0.0944915
0.0657525
0.0766583
0.100587
0.0692454
0.0750914
0.0420493
0.0455325
0.0408325
0.049162
0.0368175
0.0401113
0.0492791
0.0727939
0.0844438
0.0579368
0.0533905
0.0693684
0.0506804
0.0652488
0.0421735
0.0137473
0.0296386
0.0201305
0.0422895
0.0335209
0.0050897
0.0159335
0.0375952
0.0172987
0.0211907
0.0438012
0.022349
0.0258106
0.0464188
0.00556459
0.00811823
0.00955201
0.00664623
0.0107886
0.0124293
0.00765764
0.0269377
0.0437609
0.0243651
0.0285328
0.040588
0.0296142
0.0454313
0.0320463
0.0527647
0.0488139
0.0488448
0.0272116
0.0298276
0.0484511
0.00891139
0.00660968
0.0112061
0.0146043
0.0134213
0.017839
0.0096102
0.0204781
0.0132036
0.018081
0.00923072
0.0140388
0.0159188
0.0109836
0.0314672
0.0326156
0.040084
0.0316179
0.0360098
0.0301787
0.0441948
0.0238789
0.019166
0.0233143
0.0188946
0.017772
0.021834
0.0142614
0.163273
0.184084
0.113773
0.121842
0.184495
0.0917078
0.0756603
0.129926
0.135811
0.148145
0.0925193
0.102971
0.0860869
0.133309
0.0978037
0.0756428
0.0918477
0.0894081
0.0794316
0.0752811
0.0901006
0.0978956
0.166093
0.138183
0.118852
0.168032
0.149595
0.114239
0.134195
0.115164
0.0912055
0.0856496
0.127474
0.1274
0.0998078
0.107452
0.112443
0.0922936
0.0807267
0.0970727
0.136169
0.114134
0.110263
0.109753
0.125845
0.106158
0.107636
0.139528
0.117568
0.128588
0.16184
0.143976
0.143218
0.117209
0.147945
0.138076
0.125709
0.115673
0.153212
0.158419
0.159462
0.135371
0.137705
0.129917
0.019575
0.0987399
0.0196836
0.086941
0.0513452
0.0189877
0.0258337
0.0215957
0.0363585
0.0158108
0.0166418
0.0307488
0.122001
0.228032
0.168533
0.0316292
0.0644065
0.0417315
0.0264459
0.0274327
0.0228866
0.0324161
0.0274067
0.0230197
0.0249065
0.0403188
0.0307554
0.0374946
0.0337185
0.038031
0.0386136
0.0284403
0.0130422
0.0158739
0.0176561
0.0168178
0.0202199
0.0195807
0.0173873
0.0492969
0.0808531
0.0524548
0.0719361
0.0499496
0.0605041
0.103554
0.0615102
0.02741
0.0118952
0.0992052
0.0208717
0.0129691
0.056467
0.201455
0.18154
0.0464904
0.231074
0.151949
0.0927125
0.192111
0.0265196
0.0282738
0.0266815
0.022923
0.0265823
0.0242554
0.0233812
0.0207983
0.0170058
0.0182482
0.0195734
0.0266414
0.0202406
0.0221878
0.0443753
0.0304142
0.0385161
0.0446483
0.0354343
0.0295962
0.0623142
0.055142
0.0269272
0.0400006
0.0479595
0.0416276
0.0750464
0.0296596
0.0218047
0.018571
0.021769
0.0197682
0.017998
0.0192458
0.0179059
0.0155723
0.0165472
0.0167877
0.0181325
0.0171484
0.0173479
0.0174782
0.0751419
0.0915017
0.0571924
0.0811276
0.180472
0.139475
0.116078
0.103914
0.121466
0.0686959
0.0907498
0.193972
0.13171
0.154105
0.0674653
0.0555063
0.133985
0.0607321
0.10408
0.0371616
0.100848
0.0220733
0.0314866
0.0338816
0.0362472
0.0248464
0.025875
0.0253577
0.0174679
0.0364541
0.0216595
0.033088
0.0179325
0.0229057
0.0433386
0.0806319
0.0625159
0.10053
0.0587223
0.0922364
0.10989
0.0743377
0.0188259
0.0216183
0.0184837
0.0182867
0.0192175
0.0196868
0.0180103
0.0126928
0.0143669
0.0152605
0.00935107
0.0111772
0.0136327
0.0110984
0.124743
0.181695
0.224258
0.214667
0.160091
0.190319
0.164073
0.129376
0.188733
0.143853
0.164506
0.128002
0.14348
0.175397
0.0221961
0.0169047
0.018478
0.0168369
0.0161068
0.0207024
0.0133418
0.136508
0.080921
0.119288
0.12892
0.110211
0.0917187
0.149266
0.034744
0.0482918
0.0275254
0.0293243
0.0690634
0.0368552
0.0555941
0.0106135
0.0169544
0.0133229
0.0161203
0.0149261
0.0202473
0.0122826
0.0427652
0.0303506
0.0229376
0.0289692
0.0697178
0.0373373
0.0547645
0.0731818
0.130766
0.108286
0.128451
0.111555
0.152002
0.0907394
0.170169
0.193811
0.156578
0.160794
0.209264
0.18139
0.19071
0.172855
0.163284
0.141488
0.1615
0.213004
0.184814
0.191034
0.30269
0.234299
0.279128
0.233257
0.319135
0.288748
0.255155
0.318335
0.348446
0.30313
0.271988
0.312627
0.267845
0.296483
0.338818
0.416533
0.438579
0.378331
0.390127
0.429256
0.451018
0.231762
0.236065
0.219487
0.263493
0.266712
0.24774
0.262799
0.294741
0.378653
0.344088
0.348858
0.304444
0.396529
0.431513
0.325641
0.388327
0.34771
0.384245
0.345275
0.36437
0.350299
0.219137
0.203193
0.219569
0.246054
0.232033
0.246628
0.265878
0.35565
0.435306
0.365207
0.411824
0.322964
0.419069
0.484937
0.0195822
0.017254
0.0290457
0.0175031
0.0242091
0.0237901
0.0144525
0.245012
0.334825
0.361398
0.381696
0.289536
0.318951
0.277333
0.0362831
0.0830124
0.0543697
0.0839024
0.0453393
0.0446581
0.0683269
0.256734
0.234423
0.210151
0.182533
0.230308
0.207075
0.204455
0.149769
0.129746
0.197181
0.131063
0.173956
0.10973
0.172109
0.29382
0.332938
0.301073
0.274413
0.31485
0.288167
0.30185
0.281532
0.260107
0.236539
0.26288
0.30656
0.285742
0.281863
0.286817
0.270766
0.259139
0.272548
0.316339
0.290304
0.299495
0.423307
0.465541
0.37579
0.462115
0.559344
0.525803
0.49753
0.431889
0.422535
0.408589
0.457961
0.441028
0.4515
0.478079
0.465876
0.482678
0.446188
0.481528
0.459126
0.471545
0.511884
0.378539
0.359685
0.350265
0.331824
0.345635
0.364174
0.380122
0.409181
0.399872
0.408539
0.401177
0.37279
0.386034
0.42245
0.32967
0.327849
0.316109
0.362414
0.34707
0.362687
0.383376
0.336086
0.314077
0.332118
0.287687
0.330664
0.310063
0.306024
0.454358
0.453677
0.46534
0.505918
0.536132
0.528853
0.518452
0.363789