/*--------------------------------*- C++ -*----------------------------------*\
  =========                 |
  \\      /  F ield         | OpenFOAM: The Open Source CFD Toolbox
   \\    /   O peration     | Website:  https://openfoam.org
    \\  /    A nd           | Version:  9
     \\/     M anipulation  |
\*---------------------------------------------------------------------------*/
FoamFile
{
    format      ascii;
    class       volScalarField;
    location    "0.00315";
    object      rho.c4;
}
// * * * * * * * * * * * * * * * * * * * * * * * * * * * * * * * * * * * * * //

dimensions      [1 -3 0 0 0 0 0];

internalField   nonuniform List<scalar> 
26016
(
7.59586
10.257
38.5448
16.509
0.089716
24.3718
1.26035e-07
6.92596e-08
4.5643
2.50287
6.90751
8.58225
22.1327
2.99488
0.131105
0.00340528
2.16603
6.42052
2.74881
6.24918
2.70492
4.48447
2.1358
5.49155
4.82263
2.20187
8.42901
3.34397
6.60521
2.8004
3.0662
7.34781
3.0098
14.0093
14.6519
3.90559
3.99807
3.79494
7.85197
3.25535
15.3315
4.29267
21.0088
4.61795
2.1474
2.3098
2.29046
2.67034
2.6473
2.83306
2.85597
2.13946
2.27949
2.28289
2.63096
2.63638
2.82359
2.81887
2.2631
2.34893
2.42028
2.71305
2.78792
2.90258
2.99042
2.36012
2.71475
2.53818
3.08785
2.90884
3.13802
3.36077
2.71225
2.46648
2.47149
3.07458
3.38619
3.39675
3.06751
2.50145
2.72398
2.48045
3.08488
3.4391
3.41055
3.1086
2.54495
2.90192
2.6289
3.5014
3.1602
3.26388
3.62857
2.49714
3.09152
1.5771
2.44734
1.53516
3.60539
3.69837
2.13121
2.20068
2.55289
1.98451
1.70313
3.79752
3.68463
2.26534
2.47088
1.52953
1.69257
1.69986
1.73963
1.74531
1.93891
1.93134
1.54909
1.74716
1.71603
1.78689
1.75913
1.9552
1.9866
1.62534
1.80016
1.83603
1.88686
1.91864
2.04206
2.13647
1.82082
2.20579
2.01945
2.23125
2.04757
2.28494
2.49776
1.89093
2.14255
1.90014
2.17772
2.46025
2.4722
2.1681
2.45477
2.03655
2.04271
2.27845
2.74485
2.27021
2.75456
1.95255
2.1632
1.91846
2.19653
2.53367
2.49395
2.23173
2.08384
2.46879
2.05631
2.29498
2.80653
2.32714
2.77214
2.01076
2.3747
2.10746
2.60499
2.2943
2.40219
2.72962
2.13502
2.65719
2.2259
2.8741
2.38707
2.49402
3.00007
2.79482
2.25739
2.54669
2.57357
3.22232
2.92977
2.8215
2.83146
2.58775
2.37295
2.66736
3.52146
2.92088
3.20965
2.57459
3.12346
3.62087
2.93335
2.94649
2.56406
3.13578
2.59436
3.19923
3.64762
3.01375
2.97003
2.63176
3.15752
3.28097
3.09598
2.70174
2.82733
3.98148
3.24457
3.43274
3.07717
2.98986
2.77225
3.44454
4.19926
3.8527
3.72203
4.05962
3.33203
3.8468
3.48765
4.74234
4.28676
3.03173
3.39532
4.51306
3.36483
3.61959
4.97485
3.64987
4.91891
6.735
27.0769
35.5424
10.1849
26.6174
35.7404
9.89466
3.34875
4.46814
3.33988
3.60624
4.87685
3.5987
4.89209
3.01965
3.40115
3.41382
3.79814
3.81235
4.35666
4.33867
3.47359
3.03518
3.43411
3.86981
3.8318
4.38353
4.43559
7.41085
31.6515
28.4494
13.512
40.0658
35.7626
10.504
4.65798
3.55117
3.45132
5.08871
3.71246
3.83159
5.29806
3.70893
3.13027
3.55411
3.95044
4.11178
4.54303
4.75178
3.95946
6.28164
4.40629
5.45331
4.42246
3.94863
5.47565
5.09043
3.95549
3.71373
4.03278
6.16271
4.33904
5.64224
3.97349
5.5767
4.48257
6.32935
4.44225
4.00501
5.50899
3.46976
3.97186
4.36959
4.82818
4.39362
5.11032
5.66078
1.56607
1.83728
1.34814
1.46093
1.41651
1.38315
1.94753
2.00928
1.62693
1.50586
1.74207
1.42901
2.06669
2.53155
1.69027
2.09965
1.35111
1.41534
1.4214
1.4197
1.4243
1.52324
1.51926
1.36031
1.44902
1.45844
1.43156
1.43093
1.53191
1.5534
1.50512
1.48801
1.5095
1.59192
1.55631
1.59737
1.67252
1.61163
1.79138
1.85003
1.70707
1.6582
1.78436
1.93246
1.486
1.5728
1.49145
1.63171
1.74919
1.75576
1.62649
1.43523
1.45152
1.43116
1.56619
1.61506
1.58888
1.58679
1.41688
1.42251
1.42195
1.55537
1.56481
1.5496
1.57206
1.59069
1.53755
1.50614
1.64294
1.80058
1.77009
1.66865
1.49061
1.57853
1.55776
1.66347
1.63154
1.70455
1.74267
1.59427
1.78843
1.68387
1.8574
1.71845
1.80195
1.95091
1.79875
1.68768
1.65999
1.81651
2.03104
1.97088
1.86319
1.96712
1.92535
1.80938
1.92599
2.27482
2.08908
2.09155
1.70564
1.86856
1.74076
1.95803
1.87673
1.69873
1.74958
1.71825
1.79664
1.9763
1.91972
1.8913
1.74359
1.7661
1.84902
1.97256
1.79079
1.87131
2.16355
2.06267
1.93591
0.5868
0.497273
0.828618
0.644808
0.576396
0.533611
0.692961
0.737039
0.508836
0.558076
0.570041
0.512537
0.52491
0.5849
0.572382
0.537631
0.658434
0.602138
0.606139
0.554624
0.616687
0.673685
0.722067
0.735393
0.631141
0.733272
0.64224
0.656337
0.745883
0.737003
0.767189
0.676158
0.688873
0.83654
0.748752
0.777349
0.546312
0.563099
0.576033
0.620875
0.592431
0.605147
0.633825
0.629029
0.657095
0.605474
0.637102
0.720232
0.664703
0.694422
0.664797
0.784583
0.755877
0.677185
0.796742
0.705762
0.767576
0.827482
0.798704
0.883945
0.794429
0.856776
0.768631
0.709359
0.897382
1.64862
1.37527
1.22407
0.948681
1.2726
0.929858
1.44254
0.938081
1.30168
1.32817
1.02202
1.50861
1.89333
1.07434
1.43494
0.829713
0.844773
0.840455
0.854025
0.956953
0.979045
0.97173
0.872078
1.0328
0.939259
0.883318
0.983142
1.00422
1.05416
1.01147
1.10742
1.10805
1.12415
1.20336
1.13111
1.23116
0.867286
0.908531
0.877833
1.00868
1.03395
1.04325
1.00011
1.08211
1.22815
1.08682
1.12184
1.27142
1.27683
1.11667
1.20665
1.41119
1.34443
1.2351
1.30823
1.34467
1.45835
1.24204
1.14425
1.10523
1.14119
1.32661
1.182
1.29305
0.907277
0.992311
0.962433
1.0347
1.11996
1.0698
1.08476
1.21001
1.41387
1.30223
1.38512
1.24955
1.34427
1.47425
1.04507
1.18147
1.15031
1.1971
1.16176
1.26369
1.30074
1.52484
1.52507
1.41227
1.45878
1.7238
1.57972
1.59071
1.38748
1.305
1.26811
1.38201
1.55807
1.42407
1.50551
1.15928
1.19435
1.32011
1.38225
1.2018
1.32641
1.15272
1.18055
1.40255
1.38166
1.26831
1.22418
1.22311
1.34484
1.44362
1.33845
1.29167
1.38796
1.60637
1.43715
1.53631
1.50648
1.8033
1.73623
1.70212
1.5609
1.63696
1.6588
1.99536
2.25919
2.31496
2.3977
2.20196
2.16818
2.06992
0.419271
0.375912
0.316177
0.518856
0.443263
0.530329
0.476308
0.606168
0.441969
0.376177
0.420839
0.31185
0.479052
0.514625
0.471072
0.499501
0.346313
0.328754
0.356706
0.390123
0.362093
0.3773
0.376896
0.329616
0.357838
0.373684
0.37954
0.426518
0.394337
0.432865
0.348928
0.403351
0.37498
0.412874
0.425587
0.398735
0.446756
0.393281
0.454064
0.403216
0.426201
0.460129
0.413931
0.472152
0.404266
0.352381
0.390435
0.427636
0.410952
0.437834
0.441512
0.421148
0.376796
0.384291
0.445564
0.419096
0.420979
0.44358
0.39901
0.419937
0.391805
0.423347
0.439001
0.425989
0.440753
0.456045
0.478402
0.423347
0.450794
0.54355
0.490117
0.498896
0.431313
0.417152
0.487479
0.465676
0.480685
0.431402
0.416491
0.444189
0.501746
0.51068
0.47603
0.452488
0.474423
0.505493
0.45677
0.47706
0.504524
0.546972
0.506838
0.450949
0.494775
0.479957
0.51519
0.483191
0.455841
0.528588
0.495017
0.495948
0.473407
0.506179
0.462047
0.4725
0.498236
0.500949
0.471431
0.495527
0.486718
0.455335
0.453671
0.490485
0.482562
0.467427
0.452096
0.459143
0.474102
0.484815
0.47823
0.450945
0.463102
0.483546
0.571728
0.571463
0.557399
0.52438
0.52806
0.524047
0.387388
0.512843
0.44966
0.417687
0.397916
0.46101
0.591448
0.4735
0.527898
0.407288
0.778548
0.572035
0.702715
0.565701
0.974508
0.588738
0.413255
0.416719
0.416103
0.443772
0.444453
0.44469
0.461105
0.442689
0.441093
0.489452
0.457778
0.492552
0.546166
0.495285
0.403184
0.409888
0.401492
0.436002
0.426723
0.423402
0.428955
0.501653
0.634562
0.556269
0.60448
0.543881
0.608198
0.677239
0.387404
0.397241
0.394289
0.417745
0.4114
0.413377
0.419058
0.476733
0.595116
0.540331
0.604826
0.575926
0.667453
0.535189
0.412877
0.433536
0.414628
0.444152
0.497117
0.444771
0.478347
0.454257
0.470776
0.448507
0.444923
0.467957
0.467967
0.447894
0.487283
0.497573
0.471327
0.471585
0.546306
0.498977
0.503816
0.683098
0.703903
0.617009
0.679332
0.844262
0.755522
0.757869
0.511044
0.600594
0.545408
0.60487
0.60808
0.664986
0.551452
0.636244
0.638925
0.676802
0.661321
0.765055
0.715189
0.720405
0.440946
0.435452
0.467949
0.462891
0.466198
0.439276
0.440382
0.472516
0.543943
0.51088
0.56775
0.502691
0.47652
0.522903
0.670077
0.638948
0.653999
0.812131
0.736114
0.739514
0.594204
0.741611
0.908768
0.899061
0.865919
0.803995
0.827004
0.811509
1.19176
0.88231
0.6509
0.912154
0.892471
0.732966
0.968803
1.32721
0.723505
0.73325
0.67613
0.816928
0.758124
0.752582
0.844978
0.801133
0.989866
0.903384
0.940267
0.84743
0.943517
1.04201
0.818705
1.0064
0.909789
0.921502
0.832897
0.931757
1.02282
0.703109
0.828654
0.792793
0.802013
0.77595
0.874637
0.904926
1.0905
1.10124
1.00168
1.03647
1.23604
1.13887
1.13048
0.996615
0.937924
1.05404
0.982689
1.14298
1.02153
1.09208
0.879691
0.942395
0.854304
0.958998
1.07754
0.987527
1.04859
1.07271
1.28034
1.23325
1.20054
1.10879
1.18558
1.16474
5.71692
4.5726
4.07599
4.22006
6.952
4.75697
5.98116
3.92153
4.58076
4.56075
5.07886
6.02331
6.05243
5.05638
4.67936
3.94764
4.61429
5.1154
6.20671
6.10398
5.18712
4.4727
7.1077
5.59537
7.53563
5.08346
4.86549
6.42604
5.05275
4.09971
4.8091
6.40954
5.33216
5.60732
6.7841
12.164
39.0971
11.7633
22.6693
47.7497
46.8083
23.6566
7.39207
5.01536
5.03769
5.88301
8.88348
5.85327
8.93966
5.12869
7.46344
5.06861
5.93106
9.23327
6.02405
9.04188
5.10888
6.07467
5.4604
6.07368
8.37327
7.41057
6.78769
44.4475
38.606
12.5918
46.8717
24.7129
48.9791
52.6437
5.25509
8.31765
5.5042
9.58983
6.2117
6.56408
10.2162
6.70045
7.46116
7.49294
10.7928
10.8437
12.0793
12.0357
6.62226
9.08867
5.93892
7.15853
12.7665
8.07275
11.2343
6.79832
7.668
7.55224
11.1114
10.9393
12.1654
12.3446
7.08488
11.0277
14.0921
8.76161
8.81643
7.0441
11.096
7.16015
11.4997
14.2804
9.14447
8.92837
7.30512
11.2344
7.09727
7.88593
8.26184
11.417
11.922
12.6935
13.2996
7.8906
9.73182
8.85634
13.8047
12.6931
14.2564
15.6699
11.9895
9.54432
7.58135
8.07653
16.4849
10.2371
12.8375
8.7334
10.0262
8.60697
13.8765
16.4365
16.1826
14.075
9.94547
8.50537
8.54387
13.7835
15.9858
16.0576
13.7314
8.88983
16.2289
18.3068
13.009
11.35
10.1214
14.197
8.98711
11.0877
9.44518
16.9456
14.4824
15.2227
17.8702
11.3206
12.0512
10.1936
16.4257
21.6794
19.3889
18.2243
11.8294
14.3212
14.4024
19.0007
19.0934
23.1298
23.0201
11.9437
14.8728
14.5626
19.6064
19.2664
23.3616
23.819
13.3593
15.4549
16.4736
20.2652
21.4443
24.6837
26.2108
14.6144
20.594
18.1225
26.3006
23.3774
28.7055
32.445
33.2881
30.4608
1.39176
0.632442
36.7901
33.9976
37.8098
17.3262
26.6721
17.3949
19.3182
29.1207
19.264
29.1294
17.7942
26.8062
17.5349
19.4384
29.3855
19.6981
29.1885
17.8329
22.7852
17.9299
28.4967
35.5044
35.631
28.3728
3.09183
21.1569
33.8349
0.000267505
8.8706e-10
2.69921
9.54562
0.129637
2.03368e-07
2.44798
5.11702
3.44453
4.57141
3.12554
4.66066
8.49639
3.70429
9.43024
6.06173
16.8314
9.70552
4.7766
3.71177
2.19447
2.4475
2.47149
2.74298
2.76692
2.77824
3.12655
2.74502
3.5077
3.09356
3.53699
3.1192
3.5464
4.04926
2.75171
3.54146
3.10006
3.6164
3.15188
3.56722
4.11751
11.9178
6.46556
4.82532
24.822
5.78963
11.5396
45.6768
2.87434
3.89354
3.2331
3.94517
3.26044
3.68826
4.48653
2.95743
2.95851
3.27716
3.3358
3.66584
3.67138
4.08412
4.02024
4.04836
3.51918
4.07371
5.48806
4.73502
4.68634
4.44542
4.19003
3.66774
4.21068
5.97713
4.84294
5.15611
3.28818
4.18187
3.68026
4.65189
4.09627
4.61881
5.30406
3.73705
4.3348
5.36784
4.25197
6.18046
4.96053
5.23038
3.29068
4.18733
3.68086
4.68658
4.11123
4.62736
5.33241
2.65763
2.54635
2.25182
1.8875
2.81702
2.30483
3.07933
4.10621
2.0421
1.94974
2.01205
2.18696
2.1281
2.11089
2.31394
2.32569
2.38732
2.20702
2.58409
2.37576
2.54071
2.7963
2.17225
2.02663
1.97116
2.24621
2.16502
2.39387
2.50512
2.14887
2.53534
2.34908
2.50481
2.2935
2.52645
2.77424
0.560473
1.13979
1.54793
0.405848
0.382951
0.46952
0.464335
0.568091
0.526349
0.74543
0.706209
0.553058
0.86054
0.812776
1.01296
0.951029
1.49606
1.24991
1.28059
0.968915
1.10652
1.45759
1.59767
1.88646
0.385162
0.383631
0.388607
0.408315
0.412966
0.418702
0.411003
0.415656
0.494426
0.425055
0.519025
0.45007
0.461846
0.545154
0.655303
0.598728
0.721218
0.620038
0.734296
0.805708
0.668194
0.757
0.94725
0.836729
0.937272
0.838242
0.926462
1.03458
0.41767
0.390969
0.399082
0.432692
0.439985
0.455235
0.421074
0.434719
0.475539
0.44221
0.452194
0.475663
0.490681
0.440713
1.07944
1.05736
1.03841
1.16707
1.14339
1.13887
1.24384
0.465285
0.52455
0.441446
0.480951
0.615687
0.508443
0.576983
0.485599
0.52466
0.61926
0.501188
0.653036
0.545087
0.597138
0.870839
0.64936
0.792546
0.882662
0.782109
0.72179
0.967376
0.68667
0.892467
0.754613
0.890907
0.812165
0.738709
0.978706
1.01718
1.04013
0.923247
1.02196
1.25071
1.12588
1.13877
0.470598
0.479498
0.495948
0.548191
0.514488
0.498167
0.4554
0.91878
1.09083
1.00109
1.01698
1.21431
1.11075
1.12248
1.18041
1.36602
1.2668
1.33845
1.24104
1.34053
1.43787
1.15088
1.3555
1.25874
1.35742
1.24482
1.3489
1.4601
1.17717
1.27044
1.20561
1.30658
1.22054
1.32087
1.40227
0.524556
0.676841
0.694477
0.612762
0.573877
0.556968
0.632938
0.975437
0.863332
0.877036
1.17791
0.797073
1.07283
1.06928
1.12374
1.36842
1.34888
1.36367
1.23099
1.24061
1.24064
1.45081
1.45417
1.35616
1.44388
1.65015
1.55354
1.54049
1.3963
1.36222
1.30046
1.41497
1.59055
1.49424
1.51112
1.47215
1.44602
1.34192
1.44239
1.6955
1.54296
1.57224
1.53544
1.76162
1.73224
1.7872
1.63472
1.66435
1.63181
2.17261
1.66162
1.77507
1.39167
2.06975
1.56857
1.87974
2.69661
1.47774
1.50681
1.44839
1.59845
1.54954
1.56738
1.67443
1.56676
1.793
1.69278
1.76524
1.65355
1.78432
1.90242
1.63162
1.90205
1.73542
1.86442
1.70008
1.82011
2.00862
1.50588
1.70507
1.62352
1.69786
1.62938
1.75383
1.84212
1.95423
1.84135
2.03233
1.94343
2.32275
2.07636
2.15921
2.0094
1.74661
1.85055
1.88381
2.16435
1.99597
2.02471
1.96053
1.85445
1.7727
1.91146
2.26074
2.01491
2.12621
2.05701
2.49518
2.46768
2.37534
2.18672
2.21513
2.30232
2.80862
2.51104
2.39989
2.65595
3.15827
2.9566
2.80703
2.81184
2.56807
2.79145
2.78982
3.43803
3.08311
3.08954
2.50531
2.65022
2.38824
2.65139
3.17131
2.9569
2.8061
2.95744
3.58289
3.59742
3.74469
3.31894
3.31321
3.16251
4.88616
7.07145
7.20676
6.6945
5.73793
5.65942
6.05297
5.52225
4.17005
4.78307
5.29251
7.2339
6.16455
6.14212
34.1873
43.7918
15.1126
27.081
54.8065
15.5885
43.002
4.29467
6.85542
4.75718
6.90836
4.77413
5.36978
7.94183
4.24349
4.91965
5.4399
5.63666
6.25423
6.43934
7.48766
6.22327
7.94659
5.3812
6.17342
11.2278
7.26113
9.34589
8.08496
6.33634
5.42969
6.20511
11.4473
7.36178
9.42953
5.55636
7.67925
6.5424
8.69221
7.31351
8.87277
10.714
6.93123
8.07285
6.6833
9.75306
7.80445
9.1999
11.6547
7.25656
13.6228
13.7654
10.5753
8.7386
8.66599
11.2325
9.2915
9.56823
7.8265
11.0709
17.6871
14.2267
13.5749
64.375
37.6037
48.9368
62.2142
62.2127
76.0334
13.7764
7.60747
14.1797
8.96115
14.944
9.38492
11.1833
17.9084
10.8695
10.9693
12.6722
15.3601
17.4939
17.6576
20.3671
17.1912
13.1862
10.776
13.5865
26.9979
16.7551
21.8397
19.1015
15.355
11.877
14.2694
29.987
18.557
22.9985
12.6749
18.042
14.9738
24.2007
20.3726
23.9815
28.733
12.9241
18.4164
15.1199
24.9143
20.7632
24.2023
29.2812
17.4526
34.9199
36.7934
28.5542
22.848
21.6702
28.1676
21.9378
22.1757
18.0544
28.7448
42.1988
35.0002
34.6671
37.6066
2.04382
33.6677
0.991541
33.0701
0.0444908
39.2353
20.0291
34.8946
35.5231
33.8164
33.6927
35.8338
41.7072
36.198
34.0756
32.5962
35.0327
33.6498
33.4477
33.5276
34.3915
33.4163
33.2853
34.4544
32.4688
33.3122
32.7682
33.9738
28.8678
7.41438
33.2885
33.2857
33.8518
23.073
33.0156
10.6842
34.6722
33.3282
40.0211
0.0197205
0.259823
36.6449
27.5882
18.257
19.0212
29.8544
20.2115
21.1129
30.738
18.5798
23.0751
18.1478
28.8023
36.738
35.9936
29.4212
29.7695
24.6754
34.3698
21.8816
20.1906
22.5465
32.2293
24.0755
30.4362
19.2023
22.8513
28.7555
35.9461
44.2017
19.3753
26.4936
20.7335
38.0901
30.5679
32.5357
40.3731
21.9257
35.6744
32.2398
25.2537
25.338
21.8636
32.2219
36.1904
42.8014
0.00598656
0.00512578
40.3793
3.08948
0.00147017
27.6485
37.0402
24.2339
37.1131
27.4366
31.5662
40.1299
22.0513
32.3375
25.8497
35.5657
25.5025
22.3302
32.2167
40.184
33.4686
26.0966
29.3019
22.8917
35.6565
43.9387
32.7361
26.5551
22.9135
23.9912
36.4254
27.8467
33.5632
27.644
42.7649
34.8625
51.1713
42.8873
52.1226
60.8913
33.1361
28.414
37.2159
25.7685
37.8242
29.9742
35.022
55.2397
46.2026
47.0578
39.3138
30.582
36.6049
53.5548
34.7806
35.9944
34.9702
41.1543
41.715
40.1958
43.0692
34.8832
36.2062
34.9909
44.0637
41.6398
41.7434
43.842
0.0440689
38.6789
39.6434
46.7933
45.8069
0.00270447
0.00514347
38.9566
29.6516
29.7458
35.1306
42.0666
35.0642
41.8514
34.2474
33.895
34.3342
39.4919
37.3301
38.7359
37.9948
34.1487
33.8489
34.2931
39.8564
38.3485
38.3104
39.9148
30.3555
38.7149
29.9453
35.3202
41.2154
35.748
41.4928
34.4908
34.6581
34.2129
40.1489
38.9429
37.638
38.6505
0.00070448
45.433
0.00531791
0.0247457
38.5818
45.9759
0.00181464
31.1705
39.1305
32.6572
41.1881
36.6158
38.2129
41.7003
40.3579
36.8074
31.6059
36.4983
47.1015
42.3867
43.5035
34.0515
33.4964
33.8403
36.4267
37.6973
36.5679
35.464
33.4846
33.1041
33.1682
35.9361
36.5271
35.1712
34.6644
32.9911
33.4393
33.1225
36.842
36.8101
35.4887
35.4387
37.3927
32.0389
40.0182
36.6896
46.4525
42.6399
43.2458
34.4041
34.0627
34.0479
36.4333
36.2129
37.2969
35.4771
33.4125
33.7326
33.723
35.5167
34.0661
34.6218
34.727
34.1023
33.3015
33.3384
33.0011
33.0601
34.5206
34.4302
33.181
32.9958
32.9529
35.1692
34.4257
34.0865
33.6214
45.9363
42.8769
38.7161
40.5123
35.1118
40.8037
43.2463
69.257
68.154
56.7425
54.4029
44.4788
61.5828
69.5016
33.6809
33.0317
33.19
32.9424
33.0465
34.1613
33.7505
33.16
33.2826
33.0449
33.5743
33.8712
33.3533
33.3028
32.9395
33.0402
32.9527
32.8602
32.9007
33.3634
33.1322
41.2303
44.7648
47.1389
47.482
46.9706
41.2419
44.509
41.3164
43.8356
47.0697
46.7704
46.7893
41.6128
44.1073
34.1721
33.8895
34.0247
35.0378
34.8293
34.7831
34.5614
42.2976
50.7764
54.3058
50.4318
48.44
48.454
46.8008
33.6562
33.3879
33.6456
34.0876
34.4538
34.1419
33.738
33.2721
33.0595
33.54
33.439
33.0834
33.0862
33.2552
43.871
47.0791
42.2962
43.6564
47.6079
48.047
44.5395
2.84504
1.41351e-05
9.89147e-08
48.8539
0.000788866
0.00780019
0.000144217
49.5205
46.0989
43.3518
49.9937
48.6302
53.8743
53.7735
33.0491
33.0677
33.2619
33.9091
34.0146
33.5372
33.6257
2.49842
2.10413
4.41455
2.44624
5.64542
2.541
5.40103
4.35122
2.05388
2.15233
3.32121
8.08974
3.68017
4.52473
5.93501
2.63593
2.06392
2.14132
2.15487
2.56579
2.56811
2.66921
2.67622
2.0783
2.20901
2.17448
2.59896
2.5761
2.69079
2.72597
2.231
2.27084
2.37039
2.65181
2.74608
2.79875
2.92149
2.2715
2.46423
2.28731
3.0642
2.83501
2.8433
3.07246
2.35276
2.491
2.31086
2.86171
3.14974
2.90704
3.09346
2.34483
2.70707
2.51407
3.08021
2.88717
3.10109
3.3449
2.42929
2.79266
2.55419
3.2673
3.00013
3.156
3.4648
4.35095
3.27116
3.26942
4.55352
3.40407
3.4086
4.56331
2.97704
3.01956
2.73503
3.38366
4.14397
3.75361
3.69221
3.30325
4.36576
3.27639
3.42519
4.67915
3.47071
4.5973
3.94289
4.89729
3.62711
3.63242
5.42156
4.91221
3.94759
3.3701
3.49291
4.72003
4.8385
3.56678
3.72963
5.10332
3.65481
5.07554
4.05315
5.49009
3.71619
4.96161
3.97465
5.02009
5.45458
3.94109
3.9707
6.0684
5.50265
4.30463
5.2929
4.21531
3.8419
4.05204
6.4061
5.64735
4.48767
1.81738
1.12581
2.21435
1.73701
2.02024
1.99335
2.09727
1.39207
1.62043
1.67452
1.1936
1.27899
2.07909
1.78664
2.74155
2.18276
1.42565
1.34424
1.74791
1.45802
1.33963
1.25091
1.42814
1.32607
1.23876
1.16755
1.2007
1.25272
1.2269
1.29858
1.31235
1.80052
2.24284
3.04554
4.42999
3.04038
2.74861
2.19903
1.88351
1.696
1.57733
1.63634
1.52832
1.41523
1.51863
1.13976
1.2862
1.21848
1.2834
1.35833
1.36715
1.45095
1.44932
1.28949
1.34765
1.38578
1.5149
1.40355
1.49053
1.3809
1.50267
1.38348
1.54595
1.4448
1.55276
1.67458
1.31359
1.52062
1.39211
1.59116
1.4679
1.56548
1.70522
1.42175
1.68239
1.40514
1.752
1.49741
1.47809
1.76139
1.45128
1.70344
1.41672
1.49041
1.82681
1.53028
1.7863
1.64801
1.65673
1.50907
1.68641
2.02364
1.84891
1.833
1.50652
1.85709
1.57707
1.88662
1.59448
1.67739
1.9725
1.64059
1.4985
1.63559
1.6685
1.82272
1.81837
2.0019
1.70319
1.85806
1.59106
1.57032
2.00798
1.8688
1.68421
1.58488
1.94539
2.04253
1.75885
1.63157
1.89805
1.70392
1.77209
1.95271
1.66347
1.78235
2.24989
2.09164
1.91662
1.99293
2.00196
1.80818
2.23282
2.01016
2.2217
2.48019
1.9854
1.7951
1.97977
2.21525
1.99941
2.21543
2.46775
2.01651
1.84516
1.70581
1.80442
2.31361
2.12216
1.96361
1.9332
2.32226
2.46814
2.49878
2.27113
2.12109
2.09845
1.90992
2.45297
2.08608
2.45155
2.08297
2.29583
2.70813
2.46033
2.45385
2.20623
2.47162
3.11882
2.76687
2.77196
2.57019
2.71787
2.30462
2.55634
3.41859
2.86948
3.02753
2.71391
2.55759
2.29671
2.55135
3.4143
2.86005
3.02454
1.67162
1.6899
2.20137
1.71787
1.69471
1.19863
1.41743
1.36661
1.8875
1.74212
1.7465
1.90199
2.03001
1.88973
1.76498
1.5518
1.30201
1.52697
1.38893
1.84757
1.88659
1.44639
2.1765
2.04825
2.13671
2.13732
2.0236
1.83526
1.87235
1.44875
1.10759
1.10372
1.18471
1.54757
1.27766
1.19674
1.88016
1.67343
1.54207
1.61306
1.89316
1.51832
1.60867
1.25976
1.4631
1.52092
2.0109
2.15029
2.02508
1.65128
1.76672
1.34735
1.34157
1.44754
1.43912
1.55605
1.5362
1.65148
1.59118
1.73148
1.57222
1.68755
1.62448
1.7387
1.82266
1.42886
1.64084
1.53578
1.74757
1.63621
1.75877
1.87954
1.81339
1.87324
1.68944
1.86299
2.11161
1.96599
1.99801
1.65245
1.70064
1.70168
1.88403
1.75236
1.80638
1.82487
1.24741
1.49953
1.71092
1.82709
1.34691
1.77678
1.62615
1.98666
2.01273
1.86365
1.92409
2.09509
1.95712
2.05414
1.90447
1.4481
1.54009
1.95532
1.87466
1.7537
2.09391
1.24207
1.15472
1.17418
1.27449
1.39575
1.25954
1.27918
1.64292
1.27739
1.37941
1.36645
1.42172
1.30183
1.46341
1.65303
1.50377
1.53442
1.38035
1.53961
1.40146
1.51305
1.81353
1.77934
1.53137
1.50351
2.18293
2.2145
1.64865
1.76848
1.55047
1.4028
1.45369
1.53632
1.65364
1.53301
1.66732
1.81235
1.66684
1.65947
1.91352
1.78007
1.81223
1.96984
1.65002
1.90821
1.77909
1.80362
1.66614
1.81054
1.96241
1.36674
1.39433
1.5312
1.52787
1.50472
1.65095
1.68074
2.05854
1.91442
2.05538
1.96781
2.33048
2.13693
2.14073
1.65223
1.85972
1.68592
1.81039
2.04995
1.98868
1.85339
1.80101
1.67488
1.83846
1.80652
2.03459
1.97822
1.84634
2.40319
2.51577
2.26613
2.25969
2.04269
2.17845
1.98385
1.63028
1.53257
1.77727
1.53301
1.84394
1.56475
1.68576
1.40692
1.65774
1.77511
1.40848
1.36226
1.65707
1.44328
1.43948
0.993562
1.43918
1.43963
0.940384
1.04574
1.20975
1.74007
1.75496
1.18252
0.698912
1.03508
1.04897
1.29354
1.2448
1.79412
1.00543
1.13305
1.09042
0.821499
0.855859
0.798725
1.0205
0.933629
0.986981
1.16785
0.927228
0.967495
1.02052
0.975977
1.01612
1.05566
1.06905
1.37254
1.68659
1.10414
1.45142
1.04853
1.23084
0.975869
2.05967
1.77821
1.84597
1.89976
1.1408
1.41201
1.86587
1.06228
1.39535
1.26234
1.21392
1.15715
1.36455
1.43077
0.930598
1.28195
1.15547
1.16858
1.05318
1.31986
1.45991
0.919211
1.18581
1.06267
1.22789
1.1207
1.30354
1.40122
0.948297
1.09786
1.014
1.10221
1.04233
1.11161
1.20273
1.00729
1.07438
1.02814
1.14208
1.09849
1.12407
1.17574
1.09674
1.15749
1.18864
1.22437
1.14125
1.16105
1.26872
1.3208
1.04559
0.875064
1.04163
1.24085
0.874771
1.01854
1.31177
1.3139
1.19025
1.46014
1.70303
1.60603
1.55489
1.31293
1.22922
1.24213
1.44623
1.40436
1.43808
1.50824
1.58212
1.57747
1.4257
1.54111
1.80052
1.62632
1.70396
1.25286
1.40965
1.28654
1.59857
1.55561
1.41577
1.74437
1.13999
1.1982
1.07584
1.17815
1.41805
1.31153
1.25086
1.21492
1.26221
1.39852
1.21279
1.53243
1.33228
1.3593
0.542119
0.396415
0.461867
0.348951
0.453737
0.574357
0.587263
0.646502
0.350822
0.406475
0.410221
0.38138
0.445419
0.441185
0.379571
0.54333
0.4708
0.53362
0.478326
0.511994
0.504567
0.568964
0.343053
0.344242
0.398264
0.433422
0.373886
0.432649
0.374594
0.45283
0.517444
0.513709
0.416062
0.481318
0.476649
0.41446
0.464515
0.463583
0.531343
0.498825
0.591835
0.502725
0.572819
0.608408
0.578341
0.57852
0.652912
0.544336
0.538956
0.609849
0.453086
0.514387
0.5259
0.47143
0.412443
0.474162
0.410227
0.672924
0.740636
0.618867
0.539515
0.658154
0.552657
0.620914
0.310628
0.294603
0.45028
0.632463
0.309278
0.367253
0.164114
0.414995
0.304802
0.2573
0.278286
0.332129
0.290699
0.29979
0.332447
0.189939
0.201902
0.233713
0.199357
0.242488
0.268271
0.240492
0.294494
0.30764
0.28366
0.304667
0.336657
0.323879
0.332433
0.351963
0.395761
0.40043
0.361562
0.319636
0.325179
0.362548
0.315516
0.234868
0.259297
0.295329
0.419075
0.343961
0.306636
0.372562
0.333656
0.331056
0.25505
0.283035
0.309483
0.315145
0.431794
0.394278
0.408595
0.341407
0.373635
0.369117
0.365126
0.527129
0.52364
0.435829
0.352473
0.532097
0.422021
0.408345
0.958776
0.854139
0.716031
0.641679
1.17867
0.759313
0.630799
0.907086
0.611184
0.68392
0.599971
0.672465
0.640424
0.714572
0.716284
0.604706
0.722485
0.682795
0.694522
0.653226
0.735012
0.794598
0.765652
0.83912
0.752939
0.880613
0.79475
0.798253
0.885642
0.677901
0.726947
0.684776
0.7905
0.752594
0.762623
0.803381
0.860055
0.773531
0.705292
0.788447
0.966345
0.88078
0.84664
0.813847
0.854552
0.765676
0.822771
0.995845
0.895624
0.9166
0.919206
0.871499
0.832937
0.846158
0.977299
0.935097
0.886092
0.879393
1.03599
1.0698
1.09043
0.984882
0.975667
0.938332
0.645518
0.554039
0.785287
0.663479
0.651052
0.71323
0.541436
0.508877
0.319367
0.71616
0.34976
0.490462
0.878033
1.02662
0.964417
0.525794
0.576608
0.404579
0.31502
0.34632
0.358367
0.351035
0.356841
0.426685
0.391225
0.349257
0.373529
0.434904
0.381697
0.441708
0.479425
0.410049
0.451207
0.607458
0.446293
0.560158
0.425533
0.543987
0.691434
0.478818
0.677689
0.531281
0.65004
0.526074
0.601252
0.782081
0.515117
0.508638
0.51195
0.509124
0.379
0.356374
0.421735
0.835687
0.898612
0.541556
0.932444
0.633453
0.488649
0.784454
0.483012
0.401968
0.428916
0.531945
0.571637
0.467067
0.647998
0.412886
0.540835
0.445363
0.532244
0.5652
0.602702
0.475243
0.565495
0.426198
0.491633
0.550436
0.564556
0.470656
0.653042
0.609658
0.435109
0.51117
0.564555
0.573574
0.653287
0.482751
0.620926
0.655792
0.525463
0.631378
0.773979
0.696946
0.745847
0.623179
0.729754
0.565786
0.653406
0.756405
0.674701
0.779299
0.700867
0.753146
0.598282
0.701439
1.03154
0.908839
0.822647
0.763027
0.839914
0.643959
0.720396
0.999109
0.804493
0.931716
0.646082
0.657558
0.734188
0.626404
0.700453
0.558726
0.744902
0.635859
0.697076
0.661695
0.615014
0.655526
0.563075
0.727729
0.493955
0.515786
0.507355
0.404922
0.372678
0.376969
0.408207
0.610931
0.547834
0.614002
0.451931
0.51333
0.528509
0.458344
0.716754
0.733802
0.809317
0.777363
0.7114
0.754267
0.803201
0.488758
0.574213
0.524807
0.340415
0.344074
0.357628
0.362998
0.817394
0.860145
1.10773
1.02428
0.839341
1.02508
0.91196
0.730629
0.865946
0.719711
0.722435
0.601171
0.621803
0.738329
0.570175
0.618849
0.552007
0.373813
0.40883
0.390419
0.38662
0.623833
0.551583
0.616778
0.567454
0.522353
0.482495
0.62375
0.525469
0.517476
0.519072
0.38784
0.445438
0.403009
0.422293
0.33577
0.357268
0.337122
0.344021
0.357798
0.361198
0.342615
0.385545
0.382378
0.358931
0.367643
0.445487
0.391088
0.406126
0.43699
0.579679
0.512485
0.562089
0.531275
0.638164
0.471715
0.717406
0.839324
0.711879
0.668461
0.850887
0.734712
0.785693
0.723746
0.677536
0.608817
0.667141
0.859714
0.747323
0.78312
1.36319
1.19357
1.29353
1.22555
1.42976
1.34884
1.28725
1.51824
1.57684
1.32971
1.19742
1.42403
1.15221
1.2691
1.72183
1.93638
2.00303
1.85349
1.86963
1.99308
2.01381
0.972474
0.972455
0.913163
1.11931
1.16238
1.04227
1.09336
1.56936
1.84154
1.74468
1.7055
1.57567
1.88271
1.97609
1.62605
1.84837
1.58512
1.79711
1.62995
1.79186
1.68548
0.906421
0.852177
0.900373
1.0176
0.982332
1.03015
1.09073
1.62392
1.87993
1.7358
1.79446
1.58876
1.90747
2.03384
0.35567
0.367902
0.386914
0.365412
0.370871
0.371385
0.353506
1.29352
1.57397
1.56255
1.66584
1.45402
1.45942
1.38015
0.382942
0.467461
0.427496
0.474638
0.406275
0.402909
0.434337
1.03293
0.942304
0.851776
0.736614
0.912723
0.825689
0.815686
0.623408
0.569013
0.778027
0.579024
0.70386
0.517181
0.693472
1.25486
1.45516
1.32128
1.15987
1.30642
1.20205
1.2695
1.14629
1.05731
0.97065
1.08875
1.25502
1.16955
1.16098
1.21671
1.12474
1.10333
1.14295
1.29531
1.19356
1.25043
1.86955
1.93956
1.74566
2.03297
2.23748
2.15153
2.12244
1.994
1.91653
1.94057
2.06982
1.87403
1.96906
2.10827
2.02579
2.0268
2.00225
2.10966
1.82161
2.00706
2.1092
1.56778
1.54235
1.4653
1.37433
1.4154
1.47356
1.52684
1.56366
1.61345
1.68502
1.52024
1.48212
1.5259
1.60748
1.35787
1.34003
1.32085
1.44734
1.41248
1.46149
1.52368
1.36967
1.29743
1.36201
1.19442
1.3528
1.27009
1.26187
1.75262
1.84351
1.93358
2.17109
2.13548
2.14468
2.18117
1.47432
1.48218
1.40743
1.52224
1.69199
1.60457
1.59737
1.70986
1.61085
1.58836
1.58401
1.79954
1.65311
1.6997
1.59435
1.56356
1.50505
1.57511
1.8001
1.65333
1.6987
2.03907
1.91586
1.7415
1.6541
1.91596
1.74552
1.8046
2.85991
3.87356
3.87334
3.66164
3.22519
3.22855
3.40779
4.36305
5.45769
6.91879
7.10608
6.17388
4.893
4.79525
0.293011
0.881071
0.176258
0.220456
0.155345
0.401293
0.319237
0.392105
0.256278
0.662595
0.55235
0.338543
0.327156
0.280757
0.502737
0.429496
0.168692
0.149552
0.144319
0.188354
0.178169
0.169598
0.191383
0.285982
0.239779
0.219194
0.231524
0.285994
0.29828
0.235633
0.207505
0.218399
0.166589
0.196556
0.236835
0.231047
0.204366
0.220334
0.206024
0.146107
0.215063
0.285101
0.19796
0.304905
0.509917
0.480683
0.376166
0.426838
0.351788
0.376991
0.466731
0.454242
0.413893
0.309551
0.327988
0.290758
0.252383
0.379714
0.798212
0.704363
0.616716
0.424305
0.624286
0.490314
0.538596
0.176442
0.272628
0.244175
0.242273
0.345012
0.275417
0.32915
0.253444
0.322635
0.302762
0.306577
0.288549
0.329272
0.255863
0.217192
0.232183
0.2698
0.282555
0.302101
0.215767
0.224455
0.256877
0.266648
0.352802
0.29129
0.327167
0.288609
0.239231
0.278952
0.350967
0.397307
0.322112
0.337459
0.259302
0.364577
0.32018
0.289984
0.30303
0.365557
0.341891
0.266041
0.34479
0.419174
0.376785
0.36106
0.369859
0.439856
0.384229
0.436057
0.303961
0.379533
0.368829
0.40032
0.354051
0.328781
0.374878
0.392839
0.511985
0.429332
0.46377
0.401078
0.423396
0.470305
0.50025
0.924451
0.391809
0.43896
0.297548
0.360879
0.40454
0.398345
0.3488
0.923683
0.537997
0.604101
0.453346
0.359284
0.717026
0.550816
0.321609
0.456208
0.4108
0.294352
0.283148
0.335384
0.356435
0.487916
0.522705
0.617761
0.353449
0.440921
0.484223
0.412791
0.749816
0.935535
0.757568
0.696558
0.554613
0.590525
0.731537
0.303744
0.333578
0.370599
0.346937
0.308711
0.330975
0.337012
0.487218
0.479106