/*--------------------------------*- C++ -*----------------------------------*\
  =========                 |
  \\      /  F ield         | OpenFOAM: The Open Source CFD Toolbox
   \\    /   O peration     | Website:  https://openfoam.org
    \\  /    A nd           | Version:  9
     \\/     M anipulation  |
\*---------------------------------------------------------------------------*/
FoamFile
{
    format      ascii;
    class       volScalarField;
    location    "0.0026";
    object      overpressure;
}
// * * * * * * * * * * * * * * * * * * * * * * * * * * * * * * * * * * * * * //

dimensions      [1 -1 -2 0 0 0 0];

internalField   nonuniform List<scalar> 
22970
(
78619.7
68907.3
89579.1
78806.4
123363
85087.8
139686
75534.2
37160.6
40784.5
60009.9
93007.7
66167.5
102604
99977.6
44446.5
64238.2
85877.9
110061
48026.2
70529.9
37901.5
44334.7
45298.3
47264
48376.2
55879.6
54442.2
42086.1
66000.7
99152.6
74045.1
108189
88315.1
136893
115846
49473.3
73609.6
111266
146411
63311.4
92838.3
45554.8
50467.3
51838.9
55277.4
56886.9
63298
61354.9
39033.1
48680
46425.2
51702.9
49520.2
56978.5
59713.9
47121.4
54861.7
53286.4
59968.6
58384.3
64659.3
66922.5
51984.9
61860
53307.1
63940.4
70142.7
72442.6
62051.4
71151
57859.9
59480.4
67041.7
76139.5
78751.5
64985.4
57103.5
66380.5
58800.4
70313.4
75167
77933.8
67963.9
104616
109850
158416
110257
146797
147282
167331
45463.3
50386.1
53409.3
54194.1
57250.6
62003.5
66324.3
157011
71567.1
102947
177637
194010
117296
156853
72407.2
63291.1
60594.7
68242.1
83790
80192.9
71361.5
57151.8
63070.6
54396
65139.1
77414.7
73977.3
68248.5
105623
95018.1
114386
90586.7
121588
124411
130989
152830
66641.1
81405.7
68855.3
75358.7
85006.8
87706.1
72737.7
67655.7
62392
60107.3
71681.1
82733.5
79359.4
74528.8
52718.1
56711.4
61897.8
60461.9
65683.9
69425.9
73743
81013.9
92410.6
78129.4
69571.4
79778.9
89296.7
102953
82928
72599.7
70295.8
76746.4
93144.4
89628.5
79613.3
75127.7
84167.2
81102.1
95561.3
83587.1
86777.5
72659.4
59167.7
49959
56399.5
69191.3
62304
71997.9
79409.9
63703.1
69230.1
59437.5
81297.8
71330.8
76219.2
86908.9
65645.7
83970.3
70056.9
87798.3
74494.5
79494.6
93737.5
64763.6
78434.2
69017.7
86670.2
77732.9
82649.1
92378.6
76534.4
92776.5
98176.8
89509.9
85598.1
88780
80063.1
82309.5
92027.1
87073.7
102659
94753.4
89794.3
79517.1
56890.2
72098.6
65230
77602.9
70507.3
79307.7
86993
75313.1
94964.3
79758.7
97416.4
83023.1
88150.3
103602
74355.9
74619.2
64336.1
77708.2
88838.5
88550.1
100244
176131
151313
97125.6
171955
146470
150048
205164
83928.8
105541
101171
95871.1
97168.8
91947
87357.1
97105.9
83172.2
85516.7
106389
93503.6
95360.4
107944
130153
100518
115355
101942
88311.6
100683
115429
105827
91891.9
106451
118679
134577
102640
117494
76611.1
80345.8
69287.4
82608.4
102993
94098.4
90679.4
82770.8
80799.6
86731.8
92436.3
99166.8
96747.1
109775
97531.1
94155.2
83989.7
89725.1
115726
100708
104262
99107.6
117108
87956.2
122735
103608
115851
136382
90658.2
83403.3
75841
86010.3
110602
101256
94248.8
84709.8
81937.8
74502.8
89048.9
108865
99665
97409
106150
100638
91433.3
97350
123734
113111
107306
101955
93587.7
85517.4
94771
121781
111635
103506
97825.7
128947
108191
138752
116195
127569
151365
98087
96920.9
85592.8
113859
100611
113155
127579
119723
120790
107012
135823
135001
119659
120780
108716
126502
110670
139741
138224
121247
122707
85141.7
92308
81228
93686.5
98539.6
105840
111723
150316
147334
166986
133320
149642
115520
131279
97043.8
123140
125371
119100
109013
112801
106123
92829
123807
105118
122207
104468
117592
137226
91260.7
116026
103475
120389
107966
121836
135307
103974
139646
118066
134799
114721
129650
152126
104920
133934
133480
126619
122224
115976
114491
126254
111817
131309
129750
169077
145530
151676
0.00118048
0.000259857
4.68839e-05
5.1549e-06
4.18935e-07
2.7183e-08
1.38243e-09
0.240663
0.0076512
0.00118994
0.000136961
1.11967e-05
7.16347e-07
3.71947e-08
88.3161
0.317191
0.0169617
0.00293977
0.000252715
1.63238e-05
8.36604e-07
164944
2094.7
3.17381
0.0729417
0.00519259
0.000321563
1.65104e-05
261268
351854
117838
57.6967
0.149727
0.0057247
0.000271448
138621
186342
302111
286859
179.57
0.160187
0.00353121
109007
160648
265256
294619
75.6091
0.0632077
99176.7
159282
293349
151787
4.9577
123508
221263
246919
17.4712
0.000535577
8.54482e-05
1.53309e-05
1.71921e-06
1.41168e-07
9.21136e-09
4.36557e-10
0.00790612
0.00203493
0.000461065
4.75537e-05
3.77659e-06
2.40238e-07
1.26311e-08
0.810847
0.0802045
0.00689849
0.00109364
8.83388e-05
5.54664e-06
2.80081e-07
40729.2
238.243
0.558154
0.0168069
0.00164323
0.000112014
5.62002e-06
318282
336212
20232.8
6.03279
0.0331491
0.00169196
9.43466e-05
160176
215898
354717
151087
18.2823
0.0293801
0.00120772
126604
186334
317879
165463
7.91708
0.0136562
101092
184699
348559
33245.1
0.717702
143313
263198
13215
0.444247
7.08408e-05
1.82728e-05
2.6537e-06
2.87066e-07
2.29484e-08
1.39698e-09
0
0.00171655
0.000519993
7.07868e-05
7.74457e-06
6.15648e-07
3.87372e-08
1.94996e-09
0.0616684
0.00792294
0.00159425
0.000182799
1.45863e-05
8.96558e-07
4.49945e-08
178.828
1.19812
0.0553368
0.0041297
0.000317279
1.87499e-05
9.13526e-07
347506
61875.7
82.8718
0.179157
0.00707096
0.000345807
1.60398e-05
230448
346107
325399
989.536
0.334818
0.00545362
0.000226795
173061
263628
373205
1212.99
0.178091
0.00236463
165414
190180
342960
146.337
0.0439787
196795
235286
6.18546
0.0421774
9.45198e-06
2.07775e-06
3.08253e-07
3.29892e-08
2.57569e-09
1.01863e-10
0
0.000230556
5.33647e-05
7.94524e-06
8.64937e-07
6.85395e-08
4.36557e-09
1.74623e-10
0.00564873
0.00113022
0.000178102
2.01699e-05
1.57898e-06
9.84728e-08
5.03496e-09
0.272546
0.0209725
0.00384384
0.00047436
3.3511e-05
2.0162e-06
1.00932e-07
2026.81
12.6156
0.164842
0.0101857
0.00073015
3.66629e-05
1.75384e-06
277377
381663
636.639
0.583476
0.0130252
0.000611008
2.54565e-05
209289
227071
338735
3048.67
0.568942
0.00658024
0.000272369
165786
242441
360783
1021.25
0.162959
0.00197673
159040
230487
372866
0.112366
0.00765315
1.16538e-06
2.34839e-07
3.31784e-08
3.34694e-09
2.03727e-10
0
0
2.83568e-05
5.91493e-06
8.43967e-07
8.67876e-08
6.75209e-09
3.63798e-10
0
0.00066721
0.00013083
1.89765e-05
1.96407e-06
1.51267e-07
9.4733e-09
4.36557e-10
0.0131609
0.00242569
0.000383504
4.07655e-05
3.08815e-06
1.90528e-07
9.79344e-09
0.606173
0.0429533
0.00707478
0.000782145
5.61784e-05
3.36465e-06
1.6806e-07
2227.9
14.2239
0.233602
0.0130613
0.000903345
5.02072e-05
2.43814e-06
269976
271577
238.695
0.389632
0.010318
0.000566826
2.75346e-05
128985
205958
261400
317.319
0.237604
0.00429091
0.000222287
222761
271844
0.262114
0.0137243
0.00156804
1.19224e-07
2.21771e-08
2.89583e-09
2.32831e-10
0
0
0
2.90795e-06
5.54966e-07
7.39674e-08
7.21775e-09
4.80213e-10
0
0
6.47796e-05
1.24736e-05
1.66165e-06
1.6093e-07
1.21945e-08
7.13044e-10
0
0.00159299
0.000257308
3.45906e-05
3.30807e-06
2.44603e-07
1.5134e-08
7.13044e-10
0.0242579
0.00453328
0.000639691
6.13532e-05
4.41085e-06
2.66184e-07
1.35187e-08
1.22472
0.0844222
0.0102767
0.000977398
6.87685e-05
4.02262e-06
1.99027e-07
7522.95
28.2707
0.311134
0.0128715
0.00084591
4.90238e-05
2.37336e-06
204686
241106
39356.9
0.335277
0.0070071
0.00043308
2.11983e-05
203059
123139
5376.42
0.0144527
0.00275427
0.000137405
9.0804e-09
1.52795e-09
1.16415e-10
0
0
0
0
2.18104e-07
3.92902e-08
5.04951e-09
4.36557e-10
0
0
0
4.66109e-06
8.52029e-07
1.10158e-07
1.05501e-08
7.567e-10
0
0
9.52669e-05
1.72216e-05
2.21522e-06
2.09242e-07
1.57452e-08
9.31323e-10
0
0.00206941
0.000314222
4.03735e-05
3.75403e-06
2.74536e-07
1.70257e-08
8.44011e-10
0.0174284
0.00473406
0.000626642
5.86627e-05
4.18704e-06
2.53567e-07
1.29803e-08
0.752659
0.0708845
0.00729501
0.000729017
5.22426e-05
3.10541e-06
1.56622e-07
1714.45
9.0373
0.144411
0.00604493
0.000474037
2.87936e-05
1.44012e-06
142492
905.747
0.280767
0.00305052
0.000192049
9.5796e-06
4.80213e-10
0
0
0
0
0
0
1.30094e-08
2.19734e-09
2.32831e-10
0
0
0
0
2.6825e-07
4.78321e-08
6.0827e-09
4.94765e-10
0
0
0
5.04995e-06
9.15083e-07
1.17769e-07
1.12341e-08
7.85803e-10
0
0
8.73759e-05
1.58286e-05
2.04668e-06
1.93846e-07
1.45665e-08
8.87667e-10
0
0.00140343
0.000234951
3.0843e-05
2.91179e-06
2.15892e-07
1.35915e-08
6.69388e-10
0.0129926
0.00254042
0.00036086
3.57662e-05
2.63746e-06
1.6432e-07
8.61473e-09
0.255292
0.0214891
0.00274441
0.00031364
2.4316e-05
1.52524e-06
8.05594e-08
0.11178
0.0574415
0.00200175
0.000160712
1.01918e-05
5.44911e-07
0
0
0
0
0
0
0
5.67525e-10
0
0
0
0
0
0
1.33005e-08
2.25555e-09
2.32831e-10
0
0
0
0
2.3999e-07
4.303e-08
5.55883e-09
4.65661e-10
0
0
0
3.82993e-06
7.05826e-07
9.24774e-08
8.89122e-09
6.1118e-10
0
0
5.23241e-05
9.91936e-06
1.33058e-06
1.29192e-07
9.92441e-09
5.67525e-10
0
0.000491311
0.000107547
1.53919e-05
1.53978e-06
1.18453e-07
7.69796e-09
3.34694e-10
0.00312743
0.000946245
0.000122708
1.36496e-05
1.08521e-06
7.12898e-08
3.89991e-09
0.00323141
0.000787363
8.64368e-05
7.1104e-06
4.79864e-07
2.69793e-08
0
0
0
0
0
0
0
0
0
0
0
0
0
0
4.80213e-10
0
0
0
0
0
0
9.88075e-09
1.68802e-09
1.45519e-10
0
0
0
0
1.523e-07
2.79106e-08
3.62343e-09
2.76486e-10
0
0
0
1.95809e-06
3.74639e-07
5.08735e-08
5.04951e-09
3.0559e-10
0
0
1.89423e-05
3.94715e-06
5.72851e-07
5.87752e-08
4.70027e-09
2.03727e-10
0
0.000131684
2.97574e-05
4.65545e-06
5.17393e-07
4.25644e-08
2.86673e-09
8.73115e-11
0.000132454
2.74279e-05
3.24554e-06
2.80343e-07
1.96887e-08
1.04774e-09
144548
71908.4
100041
119999
159018
79242.1
110411
140580
70789.7
102855
109510
154709
75786
113437
135611
80702.5
88629.2
106178
158154
117017
173646
171455
91562.7
114362
151636
187721
100124
125704
68545.1
77828.8
78972
80218.5
81390.9
91045.4
88685.8
168284
83101.4
116638
160660
213343
104769
147717
85185.2
115721
163696
119835
146565
207189
133240
74526.5
80409.1
83005.7
83215.4
85910.8
94691.7
92045.4
92786.1
157863
116604
123588
183695
156684
233308
72429.2
86160.4
87329.7
82385
83497.7
93726.8
98027.5
75886.3
88745.7
84911.2
91736.4
87865.3
97241.1
101577
83367.9
88270.3
90959
93475.3
96213.3
104228
101523
198541
104684
130596
204800
259386
142150
168634
130863
174017
152961
176401
218886
179338
310235
140038
189633
205687
185141
190688
226521
307252
136357
144641
86561.6
217678
233723
119093
155219
84937.2
97182.2
93090.2
102751
98553.5
107089
111773
94221.1
98152.8
100822
105518
108064
115224
112722
228907
153142
184110
285184
292538
158259
197085
227977
111520
157435
176269
248881
123005
172799
88024.4
101564
90377.6
101734
111178
113701
99357.3
89719.5
102472
92231.4
104442
112961
115519
101926
96510.6
107684
103537
115431
111078
118613
123539
79644.2
90684.9
91899.6
97073.4
98344.9
103410
110640
240383
116814
173661
174752
263598
123079
190029
90359.7
105333
92785.5
102998
113827
116398
100590
88686.8
93268
96334.6
99717.4
102868
107014
114342
257636
124212
164645
203783
286715
130753
180529
95436.3
111609
98142.6
107473
119223
121874
104885
104684
97326.1
93050.9
104877
122659
117239
109719
108496
99774.6
95422.4
106148
125494
119980
111024
96687.8
108748
99360.1
113284
120979
123673
110656
126111
107613
110237
119024
133335
136127
116401
243915
141812
148979
181662
317800
198633
343209
114935
105218
100815
110665
131244
125594
115600
105577
99073.1
94773.6
107560
124532
119082
112428
99002.9
102147
107996
109103
115280
117815
125993
106586
111969
102049
116626
133201
127411
121844
105734
116932
108318
123548
130567
133258
121008
343649
159069
197601
293901
351919
173918
216395
121030
141228
123488
131589
147859
150701
129037
125172
161369
228028
163695
204084
375766
186047
129866
118225
113348
122556
146590
140222
128002
120445
116148
111454
127272
143450
137308
132791
111224
113001
121171
120374
129166
130065
139044
265022
130084
182660
235403
363401
165092
229993
92300.5
114970
116392
105164
106507
119884
130958
283132
145872
200780
232528
377165
172825
257403
235996
150231
162722
234669
387008
173885
184951
95819.3
117851
107888
121462
111234
123839
135283
102668
123869
109824
129732
115950
124120
139002
105234
128284
112589
132714
117314
125579
142220
147295
115225
131167
132932
149538
150051
166993
96486.5
100684
90507.1
101347
111688
105685
117867
311324
154855
190824
290011
381841
184059
242289
110784
135493
118316
138699
121994
130534
148668
159294
196576
230152
172588
262884
221596
390460
118112
130908
127561
147707
133776
130375
115503
114484
124781
126239
143635
127540
129020
111951
145379
132322
127090
135524
162024
155161
141377
104442
124824
111662
131662
118708
127015
141057
114047
125444
124518
128218
127271
142982
139926
106855
128731
117991
136032
124691
136494
149026
112360
132330
120139
140857
128680
137843
151055
123967
137916
154211
144883
161017
160122
176577
119442
128882
131723
132765
135686
149692
146496
124630
153744
133358
155121
135214
144935
166519
363993
176911
209982
210069
357962
274529
349205
303008
164110
210599
388244
371305
229766
276008
121733
152075
144121
140508
137837
134355
127257
118042
147921
137531
139096
131465
132967
123491
129183
144778
138019
161574
141020
147862
126437
117586
138231
137235
132152
131186
147259
154017
126887
135585
138504
141719
144679
158138
154830
143705
167808
184269
157464
142714
121734
135152
142006
122250
132623
151669
140144
150177
162754
178810
164773
140182
157164
170159
181802
197241
128697
141945
135715
146158
139759
154056
161077
142051
165763
182353
155518
133554
120018
140656
130071
130865
119851
152809
139695
150753
165024
136610
149181
142692
155804
149037
162735
170087
131355
150797
168387
152005
135838
117278
131515
163391
192907
209488
162322
176317
137459
150170
133080
159210
166166
151877
145230
152251
139124
141143
158735
149403
174944
161891
152433
138400
134186
129996
118991
134472
164620
150670
146871
151857
121990
139004
136060
168423
154185
148617
143419
128408
111795
126834
141652
144292
160876
150675
124352
132371
107958
113969
121362
128886
175035
153055
172991
155039
154605
135768
136790
136432
127270
119958
110991
105149
119907
127237
353480
183752
230168
367415
266457
238320
321606
139393
171830
149199
171324
149277
160098
183821
121519
108076
114016
140019
124616
132544
150930
239985
216073
147573
189370
270177
206219
8613.11
246381
163283
217375
210051
157331
251012
4483.47
152474
148648
134499
144118
180462
163572
159412
139990
146901
128120
141439
176525
161360
154632
135222
132133
120958
137599
167149
152925
150372
145514
147175
130610
139946
175490
156015
157811
135961
153138
136879
155018
155290
173246
175402
144674
153154
156350
163224
166569
179936
176268
139371
146246
145202
156805
155676
162973
174731
130043
134100
115869
130082
145508
149162
166775
181747
161744
139869
166107
147571
126639
142596
128695
130722
112189
108287
94988.4
109825
125142
187007
149007
169245
190470
169104
187044
211327
215783
254482
285470
379322
302988
32158.5
291637
158360
142355
144574
165097
164389
182032
185038
197112
240561
193366
233088
55291.5
77997.7
939.579
145396
179849
174002
164070
166614
156982
151885
142085
143414
130160
149463
179065
163915
163292
136086
150197
154673
161083
165937
170454
182720
348979
182910
267520
334258
321597
199711
296703
141573
164102
144666
161510
179424
183183
158118
357386
178392
279195
293518
336775
194845
310580
142870
162686
145976
166056
181194
184966
162573
282890
377285
253691
253219
16865.1
262297
300657
190571
162730
211694
56945.3
1176.6
239311
188204
238475
178468
152209
21314.4
485.148
209113
70220.9
153464
195287
170614
195867
171468
189763
218157
170573
171883
153993
196423
177093
195023
217889
116884
151829
129414
147052
123605
138290
166488
100628
134895
112906
141973
117897
132721
162588
139595
160796
142633
160404
177164
180862
157040
155723
168215
160927
178908
171304
184845
192969
144983
168963
142079
128882
150262
164433
184580
168543
160761
147165
157915
196834
172512
180839
154708
141459
154104
163102
193566
176845
178600
160753
175088
174635
189120
186524
205221
212883
148930
168198
152167
173859
188017
191978
170193
162066
169773
173093
182756
186230
199595
195872
144387
157856
164894
169404
176979
179968
192962
307201
199616
349073
325926
252901
218003
359422
142614
163140
188957
186154
160930
182508
211527
280399
323202
340705
127227
348651
276379
3875.73
182461
144526
166944
157301
197487
180773
171838
185070
168781
196125
215713
215041
203532
239974
167738
194903
213857
203973
185440
216394
240559
168717
155802
148976
166093
196004
187978
173568
165362
153649
146906
164972
193588
185628
172406
151550
177404
154853
170942
191555
195560
167336
167260
157164
150286
170650
197755
189738
178230
182132
166538
159309
175583
208951
200481
183298
166723
185639
177956
199683
191338
205096
214474
194478
175259
192048
224716
203071
173823
150390
240036
216721
322996
345671
156740
237974
348723
162332
190166
165717
181132
204314
208440
177384
337999
373322
278042
21070.9
652.117
299572
205859
192895
228312
249478
257383
212915
233615
285560
184002
173612
160633
172422
213281
197404
186281
172861
163748
156626
178608
205253
196894
186444
177751
157366
145024
169423
192328
182847
207743
387953
181687
255487
390506
174491
231567
390155
246586
259039
387466
295206
390027
110618
377373
156312
195580
194039
189007
177543
172957
170923
151699
190106
184791
186870
169173
171126
165731
195264
178073
170473
186012
223594
213965
194084
166378
185521
169919
195568
210369
214555
191615
143236
179807
159740
181120
161682
180142
201709
146749
167188
186526
185283
163624
182351
206803
151075
185830
184458
170068
168825
189349
206465
145643
181479
162616
184049
165725
185093
205538
201229
171956
148939
193257
166021
190343
222922
164814
178022
189246
190921
203062
204232
219558
34169.5
61504.7
37835.5
70652.3
58253.6
99480.4
118977
53862.3
6417.56
25497.3
36790.3
58982.7
6829.54
28200.4
6157.03
12103.4
12143.5
15169.8
15199.6
21181.3
20912.9
61280.1
7350.01
29232.9
50563.7
78261.7
20013.8
42382.4
6886.98
13336.4
12939.3
16230.2
16170.1
22259.7
22796
87321.4
27413.2
49921.3
98985.8
135161
60671.1
85882.7
88385
33090.5
58906.5
67618.4
97667.9
36470.9
65063.9
18482.5
25917.5
18733.8
27822.8
34435.3
35079.7
27360.3
24418.7
34852.1
24742.6
30791.2
40084.8
41005.8
30238.7
36331
26197.9
25998.5
32140.1
43490.7
42497.1
32842.9
26865.9
20480.1
19566.3
28976.2
37844
36348.4
30035.8
10077.9
13960.8
16803.2
16771.1
19465.9
23558
26403.3
13784.6
26514.5
20419.6
29089.1
23040
30076.1
36103.5
37515.5
46678.7
43896.2
55354.6
47845.8
44896.2
36753.9
33668.5
42089.3
41238.8
42978.9
42073.2
51546.1
50257.7
36599
33862.1
36421.6
43128
45820
43459.9
52992
103004
37867.8
72888.5
89639.7
130393
62506
87047.7
21271.2
32322.4
24180.9
39165.9
31031.6
34084.6
42512.8
26949.8
40710
29660.8
44936.3
33876.9
36867.6
48211.1
38909.5
56614.5
50907.5
48053.7
49251
46245
40159.6
34833.1
46234
45394.4
44252.8
43276.6
52704.3
55320.4
159331
74683.9
102153
118397
186284
88993.4
121442
47761.8
67588.8
54438.5
71220
57480.9
64957.7
79101.5
51586.3
63457.3
52936.7
61550.5
69648.5
72060
59712.4
44505.9
39213.3
33232.3
40729.1
58771.3
52434.1
46809.1
36244.8
33945.3
27877.3
37995.8
53178
46819.2
44122.5
49875.2
60792.1
51159.4
60671.8
67927.5
70187
58825.4
52715.9
49834.6
41479.2
44820.4
65505.7
56459.5
53572.6
41222.3
48013.2
47183.8
51755.1
50930.1
57605.3
61797.4
143728
81107.8
108746
150570
211007
111368
127142
41317.1
59510
50725.6
60986.4
51643.3
61339.1
70979.8
64698.3
56647.1
54149
62784.4
76845.9
73512
65775.3
62006
54974.5
52269.6
61897.2
75139.2
71818.2
64924.8
46601.1
68566.5
56360.4
66756.4
54370.6
64298.3
77372
3245.52
16887.4
64388.6
2385.22
27607.5
30482.2
24600.4
50452.4
27368.9
55582.2
2264.56
10191.6
9202.53
9315.71
10292.6
17411.5
17143.6
3906.44
31539.1
34501.1
28361.2
57873.6
41607.4
74909.9
2641.02
11748.4
10720.4
9748.18
10808.3
18004.6
19353.5
24344.3
62223.8
84607.9
49178.1
94921.1
97041.5
111552
18614.4
28087.3
18890.3
26092.2
34726.6
35361.5
25659.2
16629.4
25011.4
16894.9
25075.4
32692
33250.8
24657.7
6849.45
12448.7
11421.2
14325.3
15342.2
20118.2
23120
20808.1
29041.5
19616.9
26928.2
38254.9
36439.9
28506
18804.6
25820.9
17439.9
25843.4
36121.1
34340.6
27481.7
10640.8
25212.7
24178.3
18048.6
19084.2
26898.9
33003.6
33819.3
42367.8
41330.6
51739.7
42158.6
43234.1
33242.4
33454
32629.1
31594.4
40808.3
41868.6
40436.5
49824.6
21642.6
34641.3
24611.5
39607.3
29516.8
32676.4
42996.1
19549.5
31504.2
22544.6
37485.3
28456.4
31623.9
40880.3
34878.5
46614.4
52828.1
45527.3
43305.3
44355.7
36722.4
56550
65734.1
51826.2
52978.4
44307.4
61263.6
74455.9
44860.4
28402.2
38666.1
36690.4
53855.3
47439.3
42866
32396.7
35466.9
26301.3
35622.7
51589.6
45251.2
41775.2
48369.9
47304.8
38068.5
41480.4
62103.1
51074.3
52160.2
51392.1
41942.1
52465.6
61725.9
50449
60079.1
71762.9
58720.9
49164.2
39817.8
59434.5
49346.4
58918.5
69299.4
82202
87102.8
86747.2
95503.6
100665
95346.9
110100
100468
89341.2
74555.4
76529.6
63009.7
72109.5
86362.9
81785.8
84647.5
70615
73659.6
60568.1
70809.6
84811.9
49104.2
70958.5
68000.2
65105.5
61222.2
58361.6
55450.3
82109.7
83802.5
68817
77140.8
109421
91443.7
92885.6
71552.4
75923.4
62359.9
73685.8
99804.1
83832.6
88584.3
70608.9
78595
77709.4
90784.1
81052.6
80121.2
68313
51892.5
55739.4
45539.8
63283.6
56549.3
67250.8
74506
62708
63861.5
67625.3
55926.2
57069.9
45881
52259.9
58924.6
75429.6
63126.3
80669.6
68808.6
73552.2
86202.9
61465.8
57264
68123.4
78983.8
67979.9
72717.9
84490.6
72163.1
93390.2
86844.4
85997.6
83044.9
82229.4
75488.2
76424.7
73384
63294.3
73516.4
98963.6
87480.4
84067.8
69600.6
70735.8
59718.6
71521.5
81991.4
83332.2
94453.2
81336.9
83783.5
70954.3
82638.2
72143.9
60112.3
70018.4
117288
91261
105495
118082
105685
121269
134382
91748.2
98091.1
100359
102680
105465
115151
112832
101323
135596
116708
130445
111254
127360
147417
74234.6
79132.7
66946.7
78937
100338
91572.5
86839.3
94433.9
97636.5
82180.4
112892
95547.1
108943
127867
128279
109402
94652.6
96183.9
113441
82587.7
97978.5
86856.3
114549
121498
116215
102232
98088.9
103667
91349.4
90502.4
79320.3
84823.6
110166
97744.5
96878.6
81651.9
75809.5
68573.5
79757.8
102066
93271.8
87670
94114.9
96707.9
83040.9
110962
96472.5
108501
124218
84729.5
112002
96022.8
112888
97376.4
109534
126582
143987
137276
123107
139807
176706
160955
154084
121526
136326
139921
132339
149352
151835
129662
108867
110622
122743
126594
138631
139929
124755
91888.4
119348
115646
114730
105827
104937
100643
145023
124433
108458
124188
164058
141496
144798
128586
130494
110923
125534
168174
144550
146616
127620
126565
111296
124653
160321
142622
141371
144925
182949
165518
159096
165854
159502
143013
142104
181966
188248
185915
162354
160659
164952
212745
180490
228622
251717
209910
192001
164537
313122
205529
335254
383370
74208.3
260983
380078
230883
342209
374448
273625
335770
43517.3
388550
199273
177395
154475
194715
170554
190901
219207
186624
177425
161940
173942
219472
199619
190574
162578
195497
174303
204232
182262
195100
218210
158201
190716
174701
196443
179999
197849
215551
192957
175235
156628
197206
180021
202080
222029
290902
210811
321537
365567
47489.6
271973
382882
164870
199446
176778
206795
183486
196398
221105
166305
197627
178278
208583
188356
201504
222963
202525
171979
195310
195490
240461
225347
202760
182415
190404
174667
200750
230317
220254
209624
182365
201485
185981
216238
233367
237596
212309
215350
182978
167070
195287
232300
213274
255710
137358
159159
172048
156866
184553
175050
208144
156753
184219
207892
158795
174754
137198
147453
124265
178890
144402
169831
214177
178909
144388
225362
188249
192047
208437
244537
249091
204401
295915
274283
307185
354927
60099.6
355461
19535.8
171439
214109
213149
204181
187121
196043
187279
176838
213895
204867
198605
250238
233861
206428
198040
176292
178563
203858
249077
232930
212589
163941
171851
198018
156972
225353
192221
181455
182344
146691
127838
151548
221590
176286
189717
231850
206106
197248
214111
272956
257380
224078
173291
204289
185840
216938
197049
211112
233021
168193
201038
183920
210120
192115
209177
229067
197172
196306
211739
211076
229055
228301
248792
180917
144109
156556
170842
196862
191413
224528
182111
200476
204446
202683
206670
233436
229267
198581
231120
363536
373667
11481.9
312760
297435
206977
199455
191077
222304
258900
244860
233191
176219
215059
188879
220885
193666
207219
237340
186413
193140
171136
214652
197833
225660
246945
186748
204135
208177
209121
213259
240293
236081
221638
182396
151456
189803
155321
127842
146642
96453.9
254977
362604
173524
2728.4
358716
345537
188334
232858
201947
237799
205215
220343
258484
174404
201923
230823
218880
189703
214370
252625
348005
161454
384459
320892
299185
358739
4776.9
203092
225739
236719
256589
271133
265179
308202
195265
227511
241171
213360
274977
259161
224010
225964
214884
192102
229687
277358
261211
243759
181218
201163
199986
232153
205158
203953
177508
189407
206716
212913
244602
210773
217070
185528
192012
212912
219323
242893
247226
247653
285518
141629
166022
199040
169395
221415
224239
237736
186870
218094
209452
220482
211722
239414
250222
187284
232780
237051
221722
214614
202158
205169
191733
247279
215640
213035
285575
247395
242947
203952
266541
237949
226650
307993
256324
270838
172286
174416
140396
159643
236105
199366
201881
185993
238121
218943
217590
210213
208963
193970
199055
227078
216572
262214
231414
220823
195002
191927
226929
206968
244153
220761
239726
267755
192906
225635
206792
245312
222325
240010
267292
250351
191297
207059
280558
226821
246767
309783
191581
222332
213342
228172
218658
246775
258714
183881
201872
181013
208812
231237
229140
247838
176004
186844
207636
214187
228489
233216
237746
203737
221841
226128
234216
238577
271652
266982
8464.31
322135
340140
83467
2461.92
340436
320745
213426
265970
217183
236024
291594
296048
231913
252738
275328
307611
259777
346448
316819
291547
278061
235595
223703
250585
300885
306721
265652
194212
251245
225066
232291
215970
222556
202368
203182
205472
182300
203141
258815
227100
230094
238250
209818
181225
204388
274782
230343
238563
216346
212807
251188
207246
286569
237513
242742
214059
208167
188340
210977
271748
242658
234212
215247
206338
241760
211226
284705
236051
249390
202495
204489
202868
226764
227328
229021
257924
156961
276428
370160
22312.8
566.729
381701
281711
197171
273264
226739
249068
212087
245905
300192
259023
254574
277934
291139
316077
310506
345312
204172
270629
249437
236924
237762
226599
212996
275773
234712
223363
243513
321549
305743
258083
215672
208905
191573
212307
264089
239571
231329
211273
205895
188859
210886
259018
235941
229618
198501
281294
231004
219194
319280
256820
262061
208936
242723
232040
257729
245258
280505
297380
218795
291571
236563
296631
238825
260408
327417
198151
329922
370585
351310
8285.43
232664
197.22
212919
209822
216433
236121
238384
245600
274935
213519
210356
193088
217731
266251
241542
237525
221142
219942
201403
229112
284740
254563
252640
264963
237390
200924
234487
323932
260571
285719
211374
250179
228177
281029
250105
276443
312570
214751
258466
230881
291034
253593
279569
323055
220867
241594
246051
262828
267547
307300
302955
219589
230288
232967
247321
250493
266494
290743
203385
222422
233984
255181
257681
272799
306364
228936
277458
251598
321386
256245
282183
224705
233357
223025
204467
224160
290612
259340
245537
238678
225716
206604
234853
314096
259543
279242
225732
235280
242115
253587
262077
277355
305497
182895
218797
245605
260038
219010
245702
258936
230489
215762
2594.53
183195
1279.31
3.67659
792.898
247938
188656
214088
265423
231322
251337
256977
235396
310189
329499
280283
264584
292046
247306
231339
229762
204652
218706
288964
248733
246780
238222
246620
213589
228723
311819
256804
267161
256051
241679
219310
240361
331015
288760
267641
308590
247754
225474
271179
372198
301994
342735
226992
268048
253543
294512
276874
316956
333205
2096.97
323733
302377
214851
568.412
351012
239991
227573
269562
231732
270461
322840
326649
266139
305914
316207
341371
342624
358511
365130
363659
227095
284512
287923
266242
271048
312389
309477
104970
1372.56
206345
257.609
2.47402
114706
1087.29
132626
103571
922.54
113.046
1.57515
21608.7
185.07
185178
245251
241339
242043
228851
217651
229638
262354
321791
292364
343780
324277
296909
257685
267823
252461
225694
243541
342192
295580
275448
281850
278761
349919
252812
376132
310797
314957
247539
246145
224475
264268
341172
299083
300258
171397
205210
240481
241283
209436
240933
240876
232468
266333
251904
223430
214618
248266
257547
230681
271905
234883
278310
328896
332317
273765
245433
254609
238382
275256
259095
254274
248463
249563
258936
277639
283223
306463
322170
350426
240879
240924
240504
209280
241342
216102
171330
1089.85
343571
207783
227487
299.091
361328
118942
990.773
350550
299942
915.363
20.8561
305891
79780.2
252846
343821
280988
340963
280873
312869
357535
227529
11487.9
44907.4
36.3634
487.067
157.343
1.19185
227546
284798
312887
288803
271743
266465
243024
272107
250011
229341
268925
366823
333299
298073
242146
184918
229718
241521
228527
245106
233899
229480
241331
229513
236992
237456
237003
221446
233392
283708
237568
274859
333445
336524
270433
244842
295623
282133
302644
297111
328637
309767
279042
309843
313617
334489
335905
348572
349204
489.189
355893
264672
46865.2
132.367
363053
182953
244711
306530
249045
289714
348017
349312
285120
251011
297828
255382
317027
353437
354065
313003
15430.7
296948
359595
36594.5
28.6334
374476
20099.7
277260
256645
282003
308106
314412
345854
375186
348886
26646.6
358520
3127.79
10.2202
251891
5005.38
45140.1
46.0539
21434
147845
340.282
491.318
1.28854
231610
240446
234928
235885
238016
233121
214885
243381
294052
300212
326904
280982
295433
260546
271745
346625
342440
323671
330903
306978
289362
257071
273153
243836
253244
237424
253863
247338
245346
330392
282747
335815
285710
330331
361499
231724
235126
204970
233214
238135
235942
214866
291117
335638
294110
347297
302904
344930
364536
288634
303443
312513
299906
326402
336486
287473
226571
297212
256641
294039
255054
296582
352388
277009
324977
263602
331037
267426
310046
375215
9063.06
314459
370486
7313.68
17.2188
363062
31479.6
230364
302135
310959
257638
262802
300948
362306
2244.55
363175
200418
11739.9
4.8166
303555
989.053