/*--------------------------------*- C++ -*----------------------------------*\
  =========                 |
  \\      /  F ield         | OpenFOAM: The Open Source CFD Toolbox
   \\    /   O peration     | Website:  https://openfoam.org
    \\  /    A nd           | Version:  9
     \\/     M anipulation  |
\*---------------------------------------------------------------------------*/
FoamFile
{
    format      ascii;
    class       surfaceScalarField;
    location    "0.0026";
    object      phi;
}
// * * * * * * * * * * * * * * * * * * * * * * * * * * * * * * * * * * * * * //

dimensions      [0 3 -1 0 0 0 0];

internalField   nonuniform List<scalar> 
68656
(
-3.20314
0.132535
1.49342
3.47197
-1.30297
0.102483
-2.51776
1.64353
2.80488
-0.423204
-2.40257
0.542043
1.44146
2.72879
-1.28012
-0.329403
-2.00052
0.464159
1.54449
2.324
-0.949819
-2.60457
1.12218
1.62752
2.93658
-1.45818
-0.88498
-1.29791
1.84695
1.06042
1.49528
-1.55693
-1.63838
1.62255
-1.68491
-2.07655
2.29888
1.86225
-0.240356
-2.05063
1.55987
2.36203
0.0209792
1.09634
1.93102
-1.63721
0.0589858
-0.0052645
0.985992
1.41625
-1.09717
-1.66942
0.0584411
2.2304
1.92193
-1.94235
-2.03219
-2.75929
0.204716
2.23739
2.97136
-1.43415
-0.179028
1.86654
0.267081
1.65816
-1.58155
0.604807
-1.93705
-0.481122
-2.4451
2.13516
2.74378
-1.87946
-3.19801
0.232222
2.08673
3.37681
0.0440803
0.822821
2.63861
-2.35139
-0.560366
-1.35964
0.08495
2.73692
1.60334
-2.47267
-0.321533
-2.52487
1.44998
2.82874
-1.27949
0.65795
-0.533468
-1.80995
-2.77608
2.00053
3.07592
0.0727491
-0.0156332
0.850416
1.8869
-1.5594
-0.649679
0.282416
-0.193966
-1.28059
2.20705
1.49783
-1.92394
1.04325
1.80768
0.00251168
-1.5069
0.0184458
2.01544
1.39173
-1.71915
1.90147
0.00710882
1.32488
-1.6039
0.032772
1.3014
2.22494
1.25057
0.0283792
2.10328
-0.0428299
0.0505575
1.51424
2.19032
1.56715
2.30847
0.192585
1.01107
1.37259
-1.06714
-0.558949
-1.22979
1.74392
0.721364
1.42122
-1.4545
0.879571
-0.734042
-2.19919
1.7116
2.52055
-1.46797
-0.408614
1.90566
0.55128
1.68402
-1.61978
-1.91847
-2.43136
0.740311
2.11581
2.72838
-1.62463
-0.698976
2.07609
0.850162
1.83821
-1.80076
-2.08324
-1.02721
-2.64513
2.9302
1.18442
2.27789
-1.78927
-2.73258
0.792299
1.97759
3.03776
0.195119
0.924748
1.75287
-1.42757
-0.765366
-1.28822
0.421225
2.138
1.49481
-1.84592
-0.800571
-2.54737
1.58986
2.87792
-1.42545
-1.08478
-1.93584
-2.92131
2.11828
3.21764
1.24789
0.677334
-0.511939
1.18873
1.89339
-1.57868
-1.03895
0.854949
-0.706126
-1.53646
2.3203
1.72604
-2.0231
0.783237
2.47878
0.031892
-2.18329
-0.528662
0.0440435
2.65745
1.09521
-2.37743
2.50977
0.035674
1.04923
-2.22477
0.0620072
1.07124
2.92304
-0.824999
1.03339
0.0600789
2.76992
-0.788618
-0.072445
0.0809324
1.28334
2.78649
1.31545
2.93238
0.997213
1.59048
-1.27179
-0.0325788
1.56531
0.100814
1.21099
-1.25723
1.72247
1.2532
-1.40885
-0.0547055
1.19276
0.117619
1.73557
1.21028
1.91266
0.109248
2.03174
1.45292
0.183005
1.87202
1.4058
0.806085
2.17409
-1.8524
-0.569371
-0.0494284
1.98784
1.06346
0.117549
-1.67278
2.24815
1.04649
-1.93487
-0.0812333
1.07045
0.150565
2.21226
-0.875077
1.04276
2.49583
-0.821332
0.139212
1.27025
2.55118
1.27141
0.219767
2.29622
0.0294703
2.11621
-1.82113
-1.5963
2.11234
0.0849066
1.85042
-1.83607
2.00404
0.0337133
-1.71503
1.76484
-0.0710231
0.0966724
2.28198
0.105981
-1.8071
2.50996
2.02596
0.169672
2.36747
1.99758
2.40399
-2.39451
1.64113
0.135017
2.67661
0.0590511
1.48691
1.45112
0.071925
2.47044
-0.0868268
0.113266
1.69337
0.134227
-2.59517
1.83787
2.87254
0.194816
1.86655
2.72983
1.71329
0.0550539
2.69226
-2.41795
-1.31565
2.5995
0.104729
1.57674
-2.34044
2.55246
0.0582733
-2.27854
1.53193
-0.100417
0.125875
2.81039
0.137313
-1.54487
2.98592
1.75822
0.192876
2.82828
1.77786
2.95501
1.36977
-1.25091
1.80059
1.50413
-1.51295
-2.252
1.03975
1.75045
2.57279
-2.25439
-1.66696
2.56056
-1.40998
1.66143
1.86391
-1.00728
-1.70617
2.18763
1.17653
1.92983
-1.9138
1.39225
-2.47091
2.23561
-1.21618
2.75785
-2.0294
-1.37328
-1.77201
2.28473
1.99512
1.60891
-2.0121
-2.51819
2.26873
1.60022
2.81086
-2.05556
1.09356
1.40067
0.34099
-1.09745
0.248561
1.52799
1.20635
-1.2317
0.261816
1.19809
1.68234
1.56845
0.396582
1.27142
-1.27279
1.26736
0.4069
1.71432
0.3328
1.38993
1.83271
0.477159
1.44633
1.87636
-2.73904
2.08929
3.04723
-1.26749
-1.90169
1.46207
0.85035
1.2282
1.949
-1.62822
-1.07347
-1.58665
1.01409
2.37909
1.7824
-2.08105
1.75586
-2.57929
1.76804
-1.56761
2.92214
-1.49848
1.84662
-2.71674
1.95508
3.06722
-1.58284
-1.27833
1.31029
2.12572
1.55357
-1.79973
-1.15501
1.65798
1.87013
-1.66767
2.54047
-1.40562
-2.2346
-2.22771
1.60864
2.52455
-0.134409
1.38722
0.206471
1.41615
2.32588
0.210925
1.64326
-0.329438
-2.17481
0.430065
1.74572
2.48056
1.81473
2.60821
0.297836
1.58475
-0.0919366
1.71545
0.170229
-1.41796
-1.50622
1.98438
1.75013
-1.69937
1.85563
-1.55332
1.68895
0.191021
2.14557
-0.294384
-1.61569
0.390212
2.15255
1.82829
2.26028
1.913
0.278322
2.0103
-1.4378
1.64287
-1.6927
1.64447
1.57271
-1.68399
-1.40044
1.37103
1.63349
1.54764
1.60733
1.71483
-1.38234
-1.38178
1.60069
-1.47363
-0.961461
-1.6945
1.21505
1.73505
1.15346
-1.56145
-1.73873
1.40588
1.78011
1.82778
-1.87053
-1.72844
1.59779
1.61915
2.10204
1.84439
1.72093
-1.53679
1.75306
-1.4925
-1.95449
2.0478
2.1604
-1.72285
-1.85509
1.66241
0.0903707
1.29682
-1.07819
-3.04972
1.51173
0.192323
3.29268
-1.29857
1.27806
0.107524
-1.04897
3.04114
-0.115634
0.153662
1.51143
0.156635
-3.19789
1.68295
3.43638
0.260217
1.72403
3.26385
1.50834
-1.28883
2.41107
1.53326
-2.1366
-0.108575
2.09666
0.185793
-1.79676
2.3314
-2.03203
1.50125
0.223509
2.60687
-0.325305
-1.47307
0.425688
2.48703
1.6777
2.66313
1.72998
0.314769
2.38754
1.04634
1.73498
0.339443
-1.41393
-0.904171
0.253148
1.87246
1.09826
-1.56269
0.282889
1.10574
2.07699
-0.944748
1.8665
1.20027
0.397817
-1.55409
1.199
0.423258
2.06221
-1.0551
0.35913
1.28191
2.18631
1.35785
0.4986
2.19039
1.06006
-1.67721
1.72168
-1.70919
1.11776
1.7507
1.30442
-0.817712
1.0548
1.01084
-1.47232
0.882812
-1.47589
0.988362
1.12916
-1.48269
1.71311
1.17675
1.29069
-1.47392
1.75239
1.30557
1.45124
-2.79677
1.48263
3.06542
-1.28837
-0.182172
1.27279
0.268739
-1.08921
1.2713
-1.06038
2.8239
0.264934
1.48456
-0.407064
-2.5939
0.515346
1.6263
2.8942
1.67671
3.08218
0.360953
1.45771
1.92603
2.53998
-0.121411
0.178986
0.161947
-2.68209
2.93046
0.153207
-1.91895
2.12054
-2.61552
-2.07812
0.336349
2.27101
2.87753
0.262017
2.1403
0.271399
2.78998
-1.16653
1.65785
1.35162
-1.36193
0.512388
1.48985
-1.18797
1.57782
0.677165
-1.28275
-0.566253
1.4048
0.726528
1.8835
1.34339
1.80254
0.626663
1.52529
1.96424
0.780312
1.59359
2.04326
-0.321715
1.73603
0.469157
-1.44607
-1.4138
1.84833
1.6353
-1.5606
1.68543
-1.39391
-1.59569
0.518367
2.1393
1.80898
0.419383
1.98543
1.64495
0.559851
2.03853
0.652242
2.19868
1.85659
0.353183
1.37678
-2.03944
1.58802
0.596522
2.3716
1.43147
0.493883
-2.14399
0.556022
1.72793
2.45817
0.43739
1.56722
2.19434
1.6143
0.574725
1.77045
0.685508
2.51346
0.330257
2.00252
-1.70277
-1.37097
2.16612
0.561541
1.56385
-1.86379
2.01404
0.474931
-1.70619
-1.4713
0.547545
2.43329
1.67037
0.447509
2.30753
1.53542
0.58339
2.33188
0.676932
2.47165
1.72804
1.8596
2.42445
0.307465
-0.415571
-2.30605
0.526313
2.60941
-2.53762
-2.01265
2.2093
2.82392
-0.40036
-1.78344
0.50893
1.98775
2.06711
2.70662
0.405331
3.03547
1.74304
-0.14777
0.220875
0.195405
-3.20153
3.40536
0.175787
-1.71051
1.91535
-1.92848
-3.04148
0.385057
2.12398
3.27248
0.33405
3.2535
0.300376
1.96673
1.12345
1.81273
-1.49358
-0.973417
-0.560117
2.02627
0.722502
1.35669
-1.71665
1.94649
1.28524
-1.63383
-0.581109
1.33594
0.741879
2.21687
-1.1783
1.27309
2.13967
-1.12017
0.644747
1.43641
2.26834
0.797588
1.50593
2.34523
0.400618
1.28105
-1.11651
-2.39964
1.4815
0.666326
2.73817
-1.32566
1.34464
0.533823
-1.19346
-2.50361
0.631847
1.6102
2.8221
0.487439
1.45479
2.52162
1.50907
0.617933
1.64602
0.754779
2.84746
-1.27025
1.80237
1.46417
-1.51531
-0.844693
1.67657
1.03062
-1.37655
1.63547
-1.33892
0.890622
1.44126
1.93902
1.4659
1.07012
1.9838
0.942183
1.63614
2.09916
1.11775
1.66324
2.14452
-1.69946
2.67544
1.99554
-1.89291
-2.32557
2.14169
-2.00711
-1.79708
-1.69455
2.01538
2.25292
2.01669
-1.49279
-1.47813
1.77225
1.67307
1.50288
-2.16525
1.79344
2.31521
-1.66463
2.4404
-2.06063
-1.61052
-1.95044
-1.951
2.16589
1.67971
-1.89455
2.00167
-1.68795
2.12461
2.12507
2.58096
-2.35279
2.71514
2.08165
-2.2374
2.86194
1.69742
0.360905
-1.87138
-2.91604
2.06788
3.1876
-0.480499
-2.6778
0.595068
2.97849
-0.447853
-1.64802
0.558308
1.84561
3.12313
1.90796
0.464426
-1.24217
1.25354
1.48587
-1.64309
1.24361
1.49712
1.10979
-1.52529
-1.69865
1.55905
1.7495
1.57725
-1.66997
1.53643
1.38414
1.30667
1.44378
1.61774
-1.51251
-1.51027
1.75291
1.73639
1.72902
1.71143
-1.2202
1.44331
-1.46679
-1.36207
1.75079
1.58617
-1.70619
1.36533
1.74434
1.22106
-1.46813
1.71369
1.45046
-1.46995
1.75213
1.59528
-1.73061
1.26519
1.77004
1.38494
1.14757
-1.48409
1.29993
1.65154
-1.48826
1.73348
-1.53811
1.48579
1.7977
-1.48634
-1.69949
1.76896
1.58944
1.95417
1.72338
1.33421
-1.47624
1.76296
1.4515
-0.622267
1.91031
0.777982
-1.62806
-1.54987
1.99496
1.76428
-1.71307
1.82678
-1.53805
1.72204
0.704683
2.12543
-0.795252
-1.79122
0.94371
2.35902
1.99882
2.28355
1.9319
0.853563
2.20231
1.25373
1.99328
1.0447
-1.66423
-1.09487
0.892464
2.0829
1.40001
-1.77172
0.915429
1.37438
2.27399
-1.21208
2.13072
1.07863
1.42805
-1.81308
1.39802
1.10983
2.3242
-1.23276
0.966387
1.55055
2.40273
1.15643
1.57846
2.45395
-2.28795
0.651509
2.59298
-1.76585
0.633839
1.96909
0.533218
1.81061
2.34545
0.665562
-2.4897
-1.96053
0.880006
2.15488
2.77882
0.764276
2.01291
0.781598
2.64897
1.26852
-1.32459
1.89079
1.52304
-1.59916
1.95804
1.56248
1.51516
-1.67361
1.72125
-1.42322
-1.28552
1.52281
1.54245
2.10411
1.48878
2.03152
1.32525
1.68693
2.19151
1.71667
1.57533
-2.12501
1.65493
2.45258
-0.63956
1.56616
0.790935
1.50518
2.27823
0.715907
1.68732
-0.824266
-2.35084
1.89311
0.970346
2.66217
1.83674
2.59478
1.751
0.862322
-1.45866
2.24493
1.64901
-1.94389
-0.624862
2.17139
0.778585
-1.86707
2.09362
-1.78575
1.61366
0.724495
2.40922
-0.816957
-1.68386
0.966258
2.62149
1.8712
2.54991
1.80468
0.872747
2.48264
-2.61552
0.717466
2.92719
-1.63776
0.679039
1.83039
0.583408
2.64939
1.68637
0.709739
-1.82205
-2.77264
0.933667
2.00776
3.07213
0.845794
2.96069
0.80583
1.87391
-2.47351
1.5378
2.80866
-1.37625
-0.676503
1.4703
0.829548
-1.30738
1.4103
-1.25326
2.59634
0.755307
1.57791
-0.889185
-2.66825
1.03977
1.75926
2.98877
1.7059
2.92136
0.903215
1.63983
1.27639
2.04369
-1.71043
-1.11605
-1.30187
2.25441
1.57012
1.48175
-1.9358
2.1819
1.45171
-1.85841
-1.34401
1.44248
1.62327
2.45557
-1.28104
1.41717
2.37964
-1.25173
1.38507
1.5977
2.50928
1.65645
1.61868
-1.67248
2.13791
1.89205
-1.86478
-0.939017
2.01777
1.11035
-1.73715
1.97078
-1.69087
-1.84084
1.09769
2.41928
2.05165
1.01017
2.26064
1.87392
1.1826
2.3087
1.26741
2.09241
-1.70839
1.75491
1.60392
1.85244
-1.51672
1.64822
1.73582
1.51974
1.7163
-1.64563
1.8591
1.85318
-1.7538
1.95149
1.62886
-1.70916
1.85635
1.60375
1.74255
-1.71337
1.49092
1.58879
-1.73638
1.50969
1.98576
1.38747
1.72586
-1.85549
2.08899
1.68669
-1.97324
1.7702
2.1925
-1.71694
1.6098
1.6706
1.57152
-1.4276
1.68304
1.44964
-1.37354
1.65504
1.56141
1.54876
1.48886
1.4843
1.7656
1.58726
1.88423
1.51317
1.53045
1.86451
1.66622
1.96919
1.76359
1.5598
1.73496
-1.6858
1.89872
2.09161
-1.53718
1.96588
-1.65248
1.86273
1.7582
-1.78322
2.19348
1.77513
1.98153
1.72817
-1.69219
1.94516
-1.49944
-1.83546
1.76465
2.07707
1.72082
-1.47759
1.75772
1.88189
2.42847
0.806845
-0.922565
-2.50036
1.0741
2.79965
-2.57318
-2.02706
2.22069
2.86026
-0.905597
-1.94428
2.14639
1.05677
2.08429
2.73066
0.953732
0.953585
1.60369
-2.29761
1.77528
1.22437
2.61986
1.62561
1.13492
-2.4054
1.12751
1.9357
2.7162
1.0196
1.79589
2.45205
1.19706
1.82454
2.76678
1.3076
1.96813
0.944637
2.2283
-1.92337
-1.61808
2.42987
1.19264
1.82076
-2.12756
2.27668
1.12756
-1.96798
-1.73458
1.12655
1.9239
2.682
1.03513
2.54119
1.77003
1.2201
2.59462
1.96629
1.30774
1.00247
1.50883
-1.34064
-2.65851
1.65597
2.99642
1.3258
-1.48105
1.53392
1.20041
-1.36076
-2.7275
1.21009
1.79996
3.05005
1.07005
1.68409
2.78387
1.26366
1.71617
1.41296
1.83329
3.11415
2.72602
1.7564
0.846524
-1.88235
-2.8514
2.06611
3.14687
-0.985477
-2.79501
1.14135
3.10404
-0.94458
-1.81696
2.00346
1.09894
3.03635
1.94365
0.995706
-1.73576
2.23306
1.96122
-1.95774
1.31027
2.06271
-1.77927
2.1211
1.55055
-1.84167
1.8991
1.38607
2.35494
-1.4681
-1.92569
1.70128
2.14996
2.56984
2.12274
1.62866
2.41029
6.2366e-08
3.61248e-08
-2.21041e-07
-7.92857e-07
-6.365e-07
-4.95528e-07
-4.30704e-07
1.33641e-08
-7.93834e-07
6.20029e-09
2.20739e-09
-1.25942e-07
1.04381e-09
2.78185e-10
-1.40447e-08
1.1001e-10
2.57856e-11
-1.09993e-09
8.58691e-12
1.8332e-12
-6.67271e-11
5.32907e-13
-3.36797e-12
2.84217e-14
-4.4958e-06
7.31926e-06
1.2387e-06
4.272e-06
-5.42018e-05
-4.60741e-05
-2.14334e-05
-1.96674e-05
-4.04413e-06
-3.67601e-06
-4.52659e-06
4.08688e-07
-1.16729e-05
1.68607e-07
-3.3651e-06
-7.06771e-06
-2.43676e-06
-3.62489e-07
-1.05523e-06
-3.36586e-07
-7.6326e-07
6.36349e-08
-6.93018e-07
3.11549e-08
-4.08939e-07
-5.80603e-07
-3.81969e-07
8.05008e-09
-2.97855e-07
3.1723e-09
7.2567e-10
-2.45867e-08
2.41148e-10
5.01075e-11
-1.49419e-09
1.45377e-11
-7.39035e-11
7.38964e-13
-0.0101474
-0.00117698
0.000632352
3.98686e-05
0.000399446
-5.47082e-06
6.14924e-06
1.2171e-06
-7.64585e-05
-6.47408e-05
-2.17181e-05
-2.33891e-05
-8.52781e-06
-5.76216e-06
-7.78659e-06
-1.2955e-06
6.43623e-07
-5.28306e-06
8.95415e-08
2.02308e-07
-2.68169e-06
8.39142e-08
-6.87892e-07
-1.75343e-06
-5.97458e-07
-3.13378e-07
-6.43827e-07
-3.17268e-07
-5.06945e-07
1.83175e-08
-4.79674e-07
6.14599e-09
1.24541e-09
-2.81635e-08
3.6275e-10
-1.38976e-09
1.78311e-11
1.27451
-4.34267
0.0884943
1.06731
-1.41826
-0.0462817
0.0143231
-0.196971
0.00104795
0.00976996
-7.14641e-05
3.02778e-05
-0.000319612
1.76744e-06
1.88999e-05
-9.32117e-06
1.68813e-06
3.0408e-07
-7.00881e-06
-6.81625e-06
-7.94213e-06
-7.52228e-06
4.13689e-07
-4.45044e-06
1.3924e-07
-8.57105e-07
-3.20314e-06
-7.67571e-07
-6.88387e-07
-3.07575e-06
-5.4799e-07
-2.03939e-06
2.67638e-08
-4.72796e-07
7.9193e-09
-2.16414e-08
3.83032e-10
5.3656
-4.88421
0.30212
2.30322
-2.10789
-2.87004
5.05682
-5.1374
0.257603
2.93086
-1.98297
0.696696
-3.32116
0.0564265
0.749204
-0.00229434
0.000351669
-0.00531843
2.62561e-05
0.000276702
-8.39427e-06
3.84746e-06
6.14668e-07
-1.18347e-05
-1.07485e-05
-5.69455e-06
-5.82108e-06
-1.04427e-05
-8.52329e-06
-9.92701e-06
5.01971e-07
-3.90531e-06
1.47385e-07
-9.03063e-07
-4.75639e-06
-7.53347e-07
-3.34202e-06
-8.17042e-07
-2.83958e-06
-6.23523e-07
-2.76133e-07
6.90153e-09
4.26167
-4.05374
0.298696
2.08565
-1.9399
-2.50449
4.23025
-4.01867
0.283901
2.64674
-3.22016
4.78085
-4.32812
0.27111
3.57398
-3.5528
3.00763
-4.18025
0.149918
2.7412
-0.0114494
0.0010003
-0.012055
7.98807e-05
0.000994514
-1.12684e-05
4.47324e-06
6.06482e-07
-7.94398e-06
-7.40467e-06
-5.04552e-06
-4.73334e-06
-1.49092e-05
-1.19366e-05
-1.41311e-05
-1.31048e-06
1.02477e-07
-7.14224e-07
-3.26772e-06
-6.30358e-07
-2.43347e-06
-4.58282e-07
-9.06526e-07
-4.05216e-07
3.3651
-3.19039
0.250243
2.29468
-2.85976
3.58834
-3.36748
0.268227
3.03932
-3.60974
4.0307
-3.68251
0.266357
3.94691
-4.14694
2.88751
-3.67181
0.155367
3.1123
-0.00672542
0.000355487
-0.00321858
3.29013e-05
0.000475681
-9.47812e-06
2.28743e-06
-7.57199e-06
2.41485e-07
-7.03688e-06
-9.42608e-06
-6.90034e-06
2.75347
-2.56977
0.217894
2.60766
-2.37787
-3.27858
3.09924
-2.91386
0.263714
3.50314
-4.21087
3.62105
-3.26776
0.267252
4.6935
-3.69044
1.05514
-2.31305
0.0682564
0.976935
-0.000518941
2.368e-05
-0.000123147
2.63751e-06
4.30411e-05
0.256386
-3.54514
2.1825
3.77818
0.286934
-4.46616
2.42815
4.75419
0.751203
2.82433
-0.630625
-4.81724
1.7281
4.62971e-05
-0.00212209
-8.43062e-05
7.19878e-05
2.29282e-08
-3.27113e-07
1.50094e-08
-9.08739e-08
-2.55748e-07
-2.5512e-07
-3.00459e-07
4.48682e-09
-2.14296e-07
2.85338e-09
7.39817e-10
-4.76804e-08
4.6273e-10
9.22995e-11
-4.81813e-09
5.07399e-11
8.71836e-12
-3.68324e-10
4.08207e-12
6.25278e-13
-2.22258e-11
2.59348e-13
-1.13687e-12
1.42109e-14
-2.74547e-07
-1.44907e-07
1.36543e-07
-1.91831e-06
2.18186e-07
1.34474e-07
-3.0259e-06
8.24061e-08
-7.5015e-07
-1.11179e-06
-4.34782e-07
-1.69154e-07
-2.30811e-07
-1.36771e-07
-1.48454e-07
2.21624e-08
-2.74173e-07
1.29177e-08
-2.65678e-07
-2.3154e-07
-3.25118e-07
2.63012e-09
-1.09972e-07
1.38519e-09
2.3946e-10
-8.54371e-09
1.09374e-10
1.67191e-11
-5.04478e-10
6.81055e-12
-2.45919e-11
3.55271e-13
-8.29785e-06
-4.20651e-06
8.16312e-06
-6.78476e-05
3.03488e-06
4.79824e-06
-5.11208e-06
-1.4842e-06
1.2154e-06
9.92889e-07
-1.13355e-05
-7.37504e-06
-6.44955e-06
-5.39304e-06
-4.15995e-07
-1.31958e-07
3.0555e-07
-1.46968e-06
1.26253e-07
7.11657e-08
-6.34633e-07
3.39501e-08
-3.15449e-07
-3.87775e-07
-2.98167e-07
-1.80157e-07
-1.88549e-07
-1.7205e-07
-1.46756e-07
6.23508e-09
-1.5223e-07
2.69411e-09
4.16385e-10
-9.7127e-09
1.63521e-10
-4.67359e-10
8.27072e-12
-0.28399
0.245638
-2.06845
0.138838
0.217071
-0.541869
-0.00464504
-0.00156217
0.00159295
-0.0258655
0.000644913
0.000985018
-9.99121e-06
-2.82128e-06
5.45087e-06
-3.54337e-05
2.21301e-06
5.84105e-06
-2.0256e-06
-3.48914e-07
7.4631e-07
-5.33427e-06
2.64761e-07
1.33397e-07
-1.08861e-06
5.64097e-08
-3.12138e-07
-5.24347e-07
-2.61668e-07
-2.48234e-07
-6.22467e-07
-2.7647e-07
-3.45708e-07
9.22643e-09
-1.42419e-07
3.49445e-09
-7.37776e-09
1.72388e-10
-1.09777
5.28215
-5.07135
1.38015
2.35577
-2.13163
-2.67759
-1.05055
4.53426
-5.00176
1.21147
2.62269
-0.558794
-0.140312
0.118786
-1.05048
0.0626591
0.0940032
-0.000235116
-3.04158e-05
5.00698e-05
-0.000554145
1.97615e-05
3.33537e-05
-7.42666e-06
-7.15974e-07
1.03376e-06
4.94061e-07
-3.19271e-06
-4.31879e-06
-4.65546e-06
-4.62466e-06
1.5124e-07
-7.92252e-07
6.00872e-08
-3.0181e-07
-1.09453e-06
-2.53213e-07
-5.22902e-07
-2.53654e-07
-4.18432e-07
-2.2576e-07
-9.35513e-08
3.05175e-09
-0.845213
4.01101
-3.70813
1.02504
1.9236
-1.76142
-2.42051
-0.929393
4.24254
-3.97746
1.14119
2.59732
-3.39681
-1.05211
4.69528
-4.58757
1.30983
3.53016
-2.68288
-0.594342
0.87869
-3.25583
0.497822
0.912291
-0.00118173
-0.000110247
8.85217e-05
-0.00125045
4.81703e-05
0.000104013
-1.05624e-05
-7.06814e-07
1.1106e-06
-6.09874e-06
4.44663e-07
-3.24775e-07
4.21977e-08
-2.81909e-07
-7.56111e-07
-2.3733e-07
-4.2915e-07
-2.13189e-07
-2.16167e-07
-2.34699e-07
-0.705771
-2.8534
0.855681
2.17258
3.15044
-2.7891
-0.854553
3.57277
-3.33717
1.05412
2.99417
-3.71529
-0.980593
4.20423
-3.79816
1.23748
4.11906
-3.30395
-0.618871
1.06802
-2.87619
0.540902
0.994845
-0.000718217
-3.96974e-05
4.43377e-05
-0.000333706
2.5494e-05
5.42582e-05
-4.58198e-06
-2.95599e-07
8.38623e-07
-1.65516e-06
2.20316e-07
-0.788509
2.06205
2.2393
0.938292
-1.97264
-3.2435
-0.845526
3.07183
-2.86588
1.04437
3.48364
-4.47742
-1.02566
3.65558
-3.43252
1.28635
4.64738
-1.49218
-0.210666
0.152637
-0.879038
0.102966
0.185528
-6.16411e-05
-3.72244e-06
3.6125e-06
-1.33966e-05
2.77959e-06
1.45148e-05
-0.740805
-3.30634
0.911925
2.05841
3.62425
-0.979507
-4.47216
1.2168
2.4421
5.019
0.038313
0.0823358
-0.184731
-0.842853
0.067321
2.89871e-06
-2.57074e-05
-3.92742e-06
3.69858e-06
3.95001e-09
-1.78806e-07
2.45376e-09
-1.29105e-08
7.77455e-10
-5.39656e-08
5.21517e-10
1.25361e-10
-7.23046e-09
7.61133e-11
1.52411e-11
-7.70122e-10
8.07177e-12
1.39266e-12
-5.87477e-11
6.35936e-13
9.9476e-14
-3.50298e-12
3.55271e-14
-1.77636e-13
0
1.21225e-07
-2.31394e-06
6.59746e-08
-7.85544e-07
-5.34791e-07
-3.29524e-07
-1.30674e-07
-9.78989e-08
-1.50166e-07
-8.69164e-08
-9.60387e-08
-1.30113e-07
-1.06536e-07
-1.20381e-07
2.30244e-08
-3.16484e-07
1.56698e-08
-2.2467e-07
-2.19192e-07
-2.98418e-07
3.59825e-09
-1.60997e-07
2.15177e-09
4.26063e-10
-1.81619e-08
2.24475e-10
3.83764e-11
-1.38385e-09
1.72058e-11
2.64322e-12
-7.98863e-11
1.05516e-12
-3.86535e-12
5.32907e-14
-3.38801e-06
1.12523e-06
-8.49145e-06
6.86367e-07
-2.73573e-06
-4.47345e-06
-5.18599e-06
-3.74982e-06
-3.24169e-07
-3.68253e-07
2.47454e-07
-2.16609e-06
1.87993e-07
9.56947e-08
-2.0267e-06
5.71418e-08
-4.5019e-07
-4.82217e-07
-2.81602e-07
-1.61891e-07
-2.54603e-07
-1.41743e-07
-1.38665e-07
-8.74896e-08
-8.17972e-08
-1.12443e-07
-7.53379e-08
1.1178e-08
-3.88168e-07
5.94071e-09
9.84009e-10
-2.91581e-08
4.39282e-10
6.57678e-11
-1.60374e-09
2.5608e-11
-7.46212e-11
1.27542e-12
-0.00242338
-0.0194314
0.000765969
0.000454089
-0.00226011
0.00118797
-1.54285e-05
-1.686e-05
1.13445e-05
-0.000106975
7.93536e-06
6.19856e-06
-4.48624e-06
-2.22913e-06
9.40956e-07
6.44182e-07
-6.22718e-06
-4.86415e-06
-4.86235e-06
-6.45115e-06
2.87614e-07
-5.47753e-06
1.56061e-07
-9.65528e-07
-1.33935e-06
-5.26101e-07
-4.52187e-07
-2.33904e-06
-2.70691e-07
-5.11501e-07
-1.93473e-07
-1.37864e-07
-5.46199e-07
-2.11482e-07
2.34169e-08
-5.93119e-07
1.05092e-08
1.49668e-09
-2.73576e-08
5.75984e-10
-1.21013e-09
2.70859e-11
-1.97161
4.4023
-4.92849
1.95329
1.97842
-1.93351
-0.772732
-0.98001
0.32119
-2.38724
0.319294
0.180715
-0.00211842
-0.00109793
0.000504367
-0.0080864
0.000205817
0.000338365
-5.71645e-06
-2.44913e-06
3.75968e-06
2.05011e-06
-3.88916e-05
-9.89628e-06
-8.17758e-06
-5.47355e-06
-1.63722e-05
-4.86462e-06
-6.14662e-06
-4.43893e-06
-2.08024e-06
-2.56314e-06
5.61906e-07
-8.54544e-06
2.65338e-07
-1.07739e-06
-1.85049e-06
-6.01654e-07
-9.92052e-07
-6.92172e-06
-5.46914e-07
-1.50418e-06
-3.02324e-07
-1.88056e-07
-1.13714e-06
-3.15847e-07
2.98808e-08
-4.01262e-07
1.14778e-08
-1.5731e-08
5.05405e-10
-1.62043
4.21935
-3.88725
1.87135
1.97469
-1.80331
2.68629
-3.856
-2.46002
-2.39902
2.7151
4.26009
-3.0138
-1.77646
3.50511
-4.29755
1.68085
2.66686
-0.0434816
-0.0141294
0.00569816
-0.0701761
0.00255048
0.00480412
-1.31332e-05
-4.67879e-06
7.67169e-06
3.6531e-06
-6.35487e-05
-1.4315e-05
-1.25504e-05
-6.58301e-06
-6.72529e-05
-9.16413e-06
-1.74552e-05
-1.03348e-05
-3.28269e-06
-4.72761e-06
4.83555e-07
-3.91057e-06
2.08548e-07
-1.0898e-06
-7.50986e-06
-6.32576e-07
-1.73534e-06
-6.75187e-07
-8.35091e-07
-3.64033e-07
-2.56926e-07
-1.51744e-07
-8.45611e-07
-2.28841e-07
-1.55604e-07
7.74441e-09
-2.87975
3.17211
-1.38317
2.28055
1.58573
-1.7028
-2.9292
3.82915
-3.5306
3.15812
1.97133
-3.79474
-1.88535
3.7329
-3.89767
1.95104
3.6421
-0.0804313
-0.0172939
0.00604533
-0.0574778
0.00313494
0.00684376
-8.65112e-06
-2.35714e-06
4.67873e-06
1.98517e-06
-3.5259e-05
-5.96955e-06
-1.02437e-05
-1.35683e-05
-5.45226e-06
-5.47645e-06
-4.15882e-06
-3.86189e-06
-2.4219e-06
-2.66457e-06
-7.0412e-07
9.09975e-08
-6.44697e-07
-3.29773e-06
-3.57115e-07
-7.35318e-07
-2.57783e-07
-2.30282e-07
-1.86535e-07
-1.24526e-07
-1.09165e-07
-2.26386e-07
-1.39695e-07
-1.45715
2.44673
2.23164
-2.17851
1.68563
-1.42891
-2.43428
-3.11295
1.61463
2.62545
3.37846
-4.27731
-1.80746
2.91712
-3.19234
1.77264
3.71228
-0.0137889
-0.00192615
0.000600544
-0.00413569
0.000362121
0.000922261
-3.8957e-06
-1.81528e-06
1.45975e-06
-3.51549e-06
4.70161e-07
-4.91564e-06
-5.15086e-06
-3.91096e-06
1.71214
-3.27287
-1.48066
3.5985
2.10742
-1.61144
-3.83309
1.85895
2.2452
4.16693
2.10405e-05
4.4088e-05
-0.000153137
-0.000591846
2.57976e-05
-2.70038e-06
6.07526e-07
6.08738e-07
-4.23826e-06
-4.74754e-06
-3.91562e-06
-5.13223e-06
4.53419e-10
-2.37692e-08
3.4176e-10
-1.85235e-09
9.28466e-11
-5.44667e-09
7.23794e-11
1.48361e-11
-8.00441e-10
1.04663e-11
1.78346e-12
-8.48388e-11
1.08358e-12
1.56319e-13
-6.45883e-12
8.17124e-14
7.10543e-15
-3.90799e-13
3.55271e-15
-1.42109e-14
0
1.27706e-08
-5.56091e-07
8.99902e-09
-4.74519e-08
2.4943e-09
-1.14061e-07
2.02772e-09
3.96291e-10
-1.79061e-08
2.86942e-10
4.75566e-11
-1.97085e-09
2.96012e-11
4.30589e-12
-1.47679e-10
2.25242e-12
2.98428e-13
-8.68283e-12
1.35003e-13
-4.33431e-13
3.55271e-15
2.95555e-07
-9.00376e-06
2.64846e-07
-2.99348e-06
-1.50355e-06
-8.18232e-07
-3.62874e-07
-2.09208e-07
-1.92746e-06
-7.28334e-07
-2.73377e-07
-2.47381e-07
-3.25043e-07
-6.0045e-07
6.11308e-08
-7.63146e-07
5.26077e-08
-3.48991e-07
-2.85498e-07
-2.39315e-07
-1.01016e-07
-1.00222e-07
-1.63305e-07
-9.75262e-08
9.92353e-09
-3.63258e-07
7.3676e-09
1.18413e-09
-4.55281e-08
7.58668e-10
1.05757e-10
-3.03667e-09
5.61684e-11
7.16938e-12
-1.70687e-10
3.30758e-12
-8.20677e-12
1.66978e-13
-5.84017e-06
5.51689e-06
-1.31105e-05
3.73007e-06
-3.11997e-06
-7.94147e-05
-2.88223e-05
-8.94264e-06
-2.40849e-05
-4.05592e-06
-9.36899e-06
-3.93829e-06
-3.89059e-06
-5.11405e-06
-2.12213e-06
-1.2852e-06
5.64289e-07
-7.59056e-06
5.16288e-07
2.44609e-07
-4.96059e-06
1.85858e-07
-1.12262e-06
-8.4519e-07
-4.98705e-07
-2.99349e-07
-1.70476e-07
-1.56109e-06
-3.22846e-07
-3.16774e-07
-1.11222e-06
-2.18493e-07
-3.60895e-07
2.9151e-08
-3.11024e-07
1.93727e-08
-4.757e-07
-4.75916e-07
-4.7401e-07
2.41789e-09
-6.16223e-08
1.30713e-09
1.5816e-10
-2.88586e-09
7.30012e-11
-1.32246e-10
3.50653e-12
-0.0730677
-0.148387
0.00916404
0.00711348
-0.0258948
0.0122416
-0.000424616
-0.000195182
0.000100332
-0.00108969
4.9676e-05
4.43681e-05
-3.62353e-06
-4.68355e-06
3.04761e-06
2.36526e-06
-2.82048e-05
-8.13305e-06
-7.39795e-06
-4.91444e-06
-1.06094e-05
-3.22041e-06
-3.99703e-06
-7.00239e-06
-4.75048e-06
-4.28997e-06
-6.05629e-07
-8.41828e-07
6.70851e-07
-1.20669e-06
4.66503e-07
5.63512e-08
-3.3952e-07
3.03498e-08
-3.61758e-07
-2.49586e-07
-3.60522e-07
-3.62867e-07
-4.99181e-07
-5.00366e-07
-4.97753e-07
3.10592e-09
-4.11824e-08
1.4359e-09
-1.70775e-09
6.49401e-11
-2.08603
-3.30149
1.88558
2.30457
3.8717
-1.68136
-4.04052
-2.53065
2.70543
2.64216
4.08412
-0.0238624
-0.0162688
0.00358577
-0.0421973
0.00266132
0.00221227
-1.11259e-05
-1.48488e-05
3.8344e-06
-1.34776e-05
9.84871e-06
7.15349e-06
-1.87738e-06
-8.7146e-07
1.08144e-06
-1.19875e-06
6.07814e-07
5.57673e-08
-4.35392e-07
2.50534e-08
-5.61973e-07
-3.73025e-07
-5.60332e-07
-5.62791e-07
-1.67308e-08
9.97364e-10
1.77699
-2.67022
-1.59045
3.02604
1.94339
-2.55535
-1.94083
-1.90559
2.16928
2.89177
1.96986
-3.2194
-2.9627
-2.45833
2.60376
3.30282
3.58524
-0.109024
-0.122232
0.0151404
-0.13184
0.0147758
0.0106893
-2.21078e-05
-1.17202e-05
3.06992e-06
-1.01038e-05
6.85372e-06
1.17695e-05
5.89362e-07
-2.79697e-06
3.10155e-07
-1.79726e-06
-9.21414e-06
-7.37843e-07
-1.34128e-06
-5.23731e-07
-2.46554e-07
-2.71628e-06
-4.85872e-07
-6.0593e-07
-6.7841e-07
-3.48216e-07
-1.22089e-07
1.16237e-08
-1.8697
2.08553
-1.73101
2.07474
1.77259
1.94386
-2.30914
-2.54464
-1.91904
2.63474
2.93114
-2.74131
-3.66993
-2.55599
2.62126
2.96679
3.9089
-0.0378914
-0.0628498
0.00440606
-0.0287723
0.00566324
0.00356101
-9.57849e-06
-3.43941e-06
4.40344e-06
2.24104e-06
-2.5146e-05
-8.1101e-06
-8.44785e-06
-8.46192e-06
-2.6805e-06
-3.48643e-06
-5.49533e-06
-3.71882e-06
-3.53357e-06
-2.87097e-06
9.38873e-08
-6.06253e-07
-2.17081e-06
-3.21733e-07
-4.70878e-07
-1.52614e-07
-1.21076e-07
-4.4768e-07
-1.48021e-07
-2.56827e-07
-2.02121e-07
-1.71062e-07
-2.01891e-07
-1.77613
1.73509
-1.61773
2.31667
1.78807
-1.84289
-2.82579
2.01324
1.97445
3.22299
-4.23463
-2.67328
2.5827
2.17845
4.11744
1.77887e-06
1.74701e-06
-5.67152e-06
-1.10522e-05
-6.59197e-06
-5.2315e-06
3.09808e-06
-3.12359e-06
-5.07705e-06
-3.47947e-06
-3.58552e-06
2.01884e-07
-8.59927e-07
-3.85093e-07
2.93869e-07
5.45768e-11
-2.89711e-09
4.18474e-11
-2.34444e-10
1.06724e-11
-5.98121e-10
8.34177e-12
1.63425e-12
-8.38156e-11
1.16884e-12
1.84741e-13
-8.36309e-12
1.1724e-13
1.42109e-14
-6.32383e-13
7.10543e-15
0
-3.55271e-14
0
0
0
1.37961e-09
-6.81181e-08
1.05027e-09
-5.74449e-09
2.7179e-10
-1.32106e-08
2.17238e-10
4.1986e-11
-1.88361e-09
3.06457e-11
4.87432e-12
-1.88663e-10
3.10862e-12
4.26326e-13
-1.38556e-11
2.34479e-13
2.84217e-14
-8.2423e-13
1.42109e-14
-3.55271e-14
0
3.32463e-08
-4.62028e-07
2.66092e-08
-1.45057e-07
-6.95712e-07
-6.93741e-07
-6.90823e-07
6.5717e-09
-2.40311e-07
5.33111e-09
1.01485e-09
-3.72127e-08
7.48713e-10
1.16749e-10
-3.82169e-09
7.5854e-11
1.0175e-11
-2.74561e-10
5.65237e-12
6.89226e-13
-1.58735e-11
3.37508e-13
-7.88702e-13
1.77636e-14
-7.39274e-07
-5.43109e-07
5.65074e-07
-1.54235e-06
4.82582e-07
1.45655e-07
-1.47797e-06
1.1424e-07
-6.67519e-07
-5.68708e-07
-4.64618e-07
-2.10557e-07
-1.54642e-07
-5.12317e-07
-2.21135e-07
-2.94114e-07
-2.70094e-07
-2.93025e-07
-2.89741e-07
2.27646e-08
-6.42951e-07
1.69395e-08
2.60835e-09
-6.87699e-08
1.72862e-09
2.22727e-10
-4.72649e-09
1.24849e-10
1.47011e-11
-2.63348e-10
7.24398e-12
-1.26832e-11
3.58824e-13
-1.75443e-05
1.31352e-05
9.071e-06
-0.000136144
-4.85376e-05
-2.86023e-05
-1.80671e-05
-7.67981e-06
-6.85589e-05
-1.1221e-05
-2.60941e-05
-8.80654e-06
-9.819e-06
-1.33352e-05
1.28086e-05
-6.12867e-06
-3.01613e-06
1.2778e-06
-1.207e-05
1.0742e-06
4.72503e-07
-6.33407e-06
3.61958e-07
-6.41782e-07
-3.09253e-07
-3.74358e-06
-7.95047e-07
-1.55692e-06
-1.35938e-06
-8.36282e-07
-6.71766e-07
-2.02172e-06
-4.63918e-07
-7.55829e-07
5.36152e-08
-1.03271e-06
3.81152e-08
-2.49447e-07
-2.48566e-07
-1.70071e-07
-2.50095e-07
4.37495e-09
-6.74555e-08
2.48785e-09
2.79087e-10
-3.55075e-09
1.36971e-10
-1.66068e-10
6.54765e-12
-0.0758514
0.0137576
-0.137039
0.0114828
0.00812659
-0.0334259
-0.000652353
-0.000237429
0.000103356
-0.000882905
6.60163e-05
5.85099e-05
-6.55466e-06
-6.3102e-06
4.74724e-06
3.8879e-06
-2.01287e-05
-9.19461e-06
-9.6876e-06
-6.46754e-06
-1.89419e-05
-6.62279e-06
-7.5779e-06
-8.39447e-06
-6.57051e-06
-6.59351e-06
9.76182e-07
-9.05755e-06
6.83469e-07
-1.35109e-06
-5.66763e-07
-1.009e-05
-1.50448e-06
-1.80261e-06
-1.87434e-06
-1.02564e-06
-1.59356e-06
-7.19962e-06
-8.62847e-07
-1.67427e-06
7.41352e-08
-7.29303e-07
4.49739e-08
-3.21392e-07
-3.19879e-07
-2.1886e-07
-3.21112e-07
4.45171e-09
-3.63037e-08
2.1785e-09
-1.67328e-09
9.94298e-11
-2.02344
3.4638
-3.49769
1.86677
1.89673
-1.78335
-1.97688
-3.12969
-2.32992
2.45054
1.96142
3.19639
-0.00622178
-0.0124797
0.00122968
-0.0108628
0.000951524
0.0010626
-1.13993e-05
-1.28669e-05
8.77968e-06
6.25935e-06
-5.4461e-05
-7.1122e-06
-1.12749e-05
-3.46817e-05
-1.28291e-05
-1.33593e-05
-8.30094e-06
-3.59012e-05
-9.75011e-06
-1.38244e-05
8.85417e-07
-4.41313e-06
5.30337e-07
-1.21863e-06
-4.45796e-07
-6.36059e-06
-9.62381e-07
-1.84092e-06
-8.70011e-06
-1.08194e-06
-1.78584e-06
-1.10977e-06
-1.18616e-06
-6.11672e-07
5.25247e-08