/*--------------------------------*- C++ -*----------------------------------*\
  =========                 |
  \\      /  F ield         | OpenFOAM: The Open Source CFD Toolbox
   \\    /   O peration     | Website:  https://openfoam.org
    \\  /    A nd           | Version:  9
     \\/     M anipulation  |
\*---------------------------------------------------------------------------*/
FoamFile
{
    format      ascii;
    class       volScalarField;
    location    "0.0026";
    object      T;
}
// * * * * * * * * * * * * * * * * * * * * * * * * * * * * * * * * * * * * * //

dimensions      [0 0 0 1 0 0 0];

internalField   nonuniform List<scalar> 
22970
(
918.406
936.583
872.445
861.924
607.436
606.151
497.493
932.591
803.928
857.059
919.253
1027.42
927.726
964.35
1023.33
797.562
910.531
936.023
963.597
854.959
927.493
817.157
836.551
850.263
841.048
854.232
892.349
880.297
808.263
655.875
650.395
785.662
887.753
665.319
667.784
886.588
812.508
865.131
650.225
660.98
647.704
658.372
810.106
827.145
840.902
829.108
842.441
879.983
866.923
848.046
881.422
878.732
883.725
881.766
913.723
906.837
841.433
880.202
871.706
883.117
872.915
905.999
907.034
875.621
929.464
888.254
933.461
967.692
973.826
923.929
944.897
886.057
897.538
938.621
978.619
983.673
929.726
865.368
921.553
878.612
923.006
959.437
967.266
912.039
608.566
610.531
548.414
595.486
589.031
556.405
562.909
742.994
826.265
827.135
755.622
754.139
845.363
767.836
582.613
619.583
617.63
540.487
539.383
588.955
547.878
954.276
909.351
917.754
949.574
949.476
981.66
930.072
905.322
943.186
910.704
945.857
947.803
975.774
928.502
574.429
596.06
614.085
681.208
622.582
546.276
587.623
513.719
869.323
929.795
882.25
925.965
965.986
973.306
914.658
938.746
904.644
904.596
940.373
948.573
972.425
929.24
746.235
829.638
834.321
757.08
759.984
850.654
770.956
704.076
680.163
691.313
712.099
690.294
666.936
655.244
946.161
910.552
908.272
942.671
953.377
977.759
931.922
978.418
1011.53
1008.07
1025.6
1009.81
1012.71
972.699
697.748
690.407
653.933
651.294
694.482
702.987
655.051
770.569
864.536
845.887
877.946
863.19
782.514
795.141
845.905
776.497
765.923
874.175
862.112
779.156
787.399
847.744
783.728
769.957
878.946
866.106
782.741
793.463
978.246
961.227
1008.7
962.171
1000.35
1001.45
948.387
969.804
1004.54
1002.31
1022.14
1007.2
1005.35
962.155
689.324
649.184
695.151
647.094
695.336
701.658
649.995
855.346
785.202
773.9
881.046
868.432
783.212
791.197
625.827
617.604
630.469
620.398
600.124
619.542
593.458
471.413
472.796
519.225
475.414
480.272
472.936
472.3
974.681
1006.88
963.794
963.477
1000.08
998.866
950.499
645.453
620.263
670.76
573.777
597.448
646.669
620.622
600.773
640.526
627.981
655.703
667.327
641.242
628.523
652.717
664.453
635.399
610.02
596.801
639.395
626.696
659.815
717.508
707.061
713.294
667.201
723.143
660.715
602.698
615.611
611.812
592.782
587.55
611.37
583.02
883.449
886.304
876.055
791.407
801.282
800.49
796.062
594.33
587.343
611.564
581.085
588.054
575.722
564.273
704.298
650.29
699.325
708.55
656.264
713.028
655.411
712.586
652.849
702.915
709.817
660.4
718.405
654.531
886.72
887.554
879.482
791.894
798.063
795.932
798.474
708.248
648.446
702.102
708.342
653.479
713.124
651.762
593.669
570.457
578.669
562.716
572.078
563.334
550.537
625.976
598.858
624.712
624.453
621.286
591.09
591.498
551.848
594.952
621.2
570.062
531.58
552.011
595.259
571.06
589.182
617.928
566.152
528.152
550.298
593.44
537.163
552.948
573.481
551.526
517.87
532.477
502.387
563.306
573.642
548.563
585.457
571.602
613.33
600.007
718.296
662.691
726.529
668.426
726.38
721.042
661.972
614.072
580.667
587.676
613.667
615.807
585.832
581.706
615.467
586.807
587.852
616.706
613.253
582.286
583.707
608.41
575.921
579.212
609.42
609.816
578.589
577.006
715.285
720.852
657.521
661.785
717.693
721.516
656.455
572.697
581.061
569.367
568.611
547.041
566.027
552.781
287.926
287.926
287.926
287.926
287.926
287.926
287.926
287.926
287.926
287.926
287.926
287.926
287.926
287.926
288.002
287.926
287.926
287.926
287.926
287.926
287.926
413.9
289.962
287.928
287.926
287.926
287.926
287.926
616.513
547.43
386.582
287.975
287.926
287.926
287.926
959.599
719.124
583.909
481.168
288.083
287.926
287.926
1016
797.152
594.423
485.897
287.991
287.926
1026.41
799.706
586.192
406.874
287.93
977.662
647.694
460.589
287.94
287.926
287.926
287.926
287.926
287.926
287.926
287.926
287.926
287.926
287.926
287.926
287.926
287.926
287.926
287.926
287.926
287.926
287.926
287.926
287.926
287.926
328.685
288.138
287.926
287.926
287.926
287.926
287.926
596.93
523.415
308.925
287.931
287.926
287.926
287.926
820.221
669.201
579.695
405.931
287.941
287.926
287.926
877.259
733.215
588.988
413.894
287.932
287.926
670.978
737.162
583.051
321.843
287.926
837.148
620.695
301.789
287.926
287.926
287.926
287.926
287.926
287.926
287.926
287.926
287.926
287.926
287.926
287.926
287.926
287.926
287.926
287.926
287.926
287.926
287.926
287.926
287.926
287.926
288.083
287.927
287.926
287.926
287.926
287.926
287.926
538.126
347.995
287.997
287.926
287.926
287.926
287.926
598.507
566.957
515.311
288.847
287.926
287.926
287.926
586.1
600.904
554.753
289.064
287.926
287.926
549.314
620.339
528.696
288.054
287.926
575.532
596.909
287.931
287.926
287.926
287.926
287.926
287.926
287.926
287.926
287.926
287.926
287.926
287.926
287.926
287.926
287.926
287.926
287.926
287.926
287.926
287.926
287.926
287.926
287.926
287.926
287.926
287.926
287.926
287.926
287.926
287.926
289.915
287.936
287.926
287.926
287.926
287.926
287.926
527.971
554.934
288.515
287.926
287.926
287.926
287.926
528.688
516.077
549.702
290.937
287.926
287.926
287.926
549.364
490.994
551.629
288.888
287.926
287.926
540.274
525.998
538.442
287.926
287.926
287.926
287.926
287.926
287.926
287.926
287.926
287.926
287.926
287.926
287.926
287.926
287.926
287.926
287.926
287.926
287.926
287.926
287.926
287.926
287.926
287.926
287.926
287.926
287.926
287.926
287.926
287.926
287.926
287.926
287.926
287.926
287.926
287.926
287.926
287.926
289.985
287.938
287.926
287.926
287.926
287.926
287.926
471.537
482.325
288.135
287.926
287.926
287.926
287.926
488.091
475.178
483.661
288.206
287.926
287.926
287.926
482.175
472.244
287.926
287.926
287.926
287.926
287.926
287.926
287.926
287.926
287.926
287.926
287.926
287.926
287.926
287.926
287.926
287.926
287.926
287.926
287.926
287.926
287.926
287.926
287.926
287.926
287.926
287.926
287.926
287.926
287.926
287.926
287.926
287.926
287.926
287.926
287.926
287.926
287.926
287.926
287.927
287.926
287.926
287.926
287.926
287.926
287.926
294.867
287.949
287.926
287.926
287.926
287.926
287.926
473.865
469.994
322.488
287.926
287.926
287.926
287.926
427.922
377.712
292.853
287.926
287.926
287.926
287.926
287.926
287.926
287.926
287.926
287.926
287.926
287.926
287.926
287.926
287.926
287.926
287.926
287.926
287.926
287.926
287.926
287.926
287.926
287.926
287.926
287.926
287.926
287.926
287.926
287.926
287.926
287.926
287.926
287.926
287.926
287.926
287.926
287.926
287.926
287.926
287.926
287.926
287.926
287.926
287.926
287.926
287.926
287.926
287.926
287.926
287.926
287.926
287.926
289.455
287.933
287.926
287.926
287.926
287.926
287.926
390.985
288.72
287.926
287.926
287.926
287.926
287.926
287.926
287.926
287.926
287.926
287.926
287.926
287.926
287.926
287.926
287.926
287.926
287.926
287.926
287.926
287.926
287.926
287.926
287.926
287.926
287.926
287.926
287.926
287.926
287.926
287.926
287.926
287.926
287.926
287.926
287.926
287.926
287.926
287.926
287.926
287.926
287.926
287.926
287.926
287.926
287.926
287.926
287.926
287.926
287.926
287.926
287.926
287.926
287.926
287.926
287.926
287.926
287.926
287.926
287.926
287.926
287.926
287.926
287.926
287.926
287.926
287.926
287.926
287.926
287.926
287.926
287.926
287.926
287.926
287.926
287.926
287.926
287.926
287.926
287.926
287.926
287.926
287.926
287.926
287.926
287.926
287.926
287.926
287.926
287.926
287.926
287.926
287.926
287.926
287.926
287.926
287.926
287.926
287.926
287.926
287.926
287.926
287.926
287.926
287.926
287.926
287.926
287.926
287.926
287.926
287.926
287.926
287.926
287.926
287.926
287.926
287.926
287.926
287.926
287.926
287.926
287.926
287.926
287.926
287.926
287.926
287.926
287.926
287.926
287.926
287.926
287.926
287.926
287.926
287.926
287.926
287.926
287.926
287.926
287.926
287.926
287.926
287.926
287.926
287.926
287.926
287.926
287.926
287.926
287.926
287.926
287.926
287.926
287.926
287.926
287.926
287.926
287.926
287.926
287.926
287.926
287.926
287.926
287.926
287.926
287.926
287.926
287.926
287.926
287.926
287.926
287.926
287.926
287.926
287.926
287.926
287.926
287.926
287.926
287.926
287.926
287.926
287.926
287.926
287.926
287.926
287.926
287.926
287.926
287.926
287.926
865.38
957.982
1026.12
949.766
826.604
947.476
963.064
876.205
970.346
1020.88
963.608
837.877
947.466
955.001
906.328
985.199
951.024
1015.14
810.147
947.59
778.132
778.261
970.886
1008.48
888.225
744.938
956.954
940.584
963.737
1002.48
1004.94
1005.12
1007.17
1025.71
1026.9
781.483
879.259
891.338
662.223
641.076
664.862
675.862
797.873
892.144
793.006
883.236
677.356
649.026
672.883
965.824
999.796
1003.17
1000.63
1003.98
1024.45
1024.97
872.856
648.262
650.988
875.798
739.204
663.841
621.485
973.967
963.203
962.844
998.593
999.398
1011.17
969.374
971.051
963.143
997.301
963.247
997.84
1010.28
968.793
989.525
1014.92
1015.4
1017.66
1017.36
1020.52
1023.34
706.958
883.701
792.999
632.971
608.288
653.895
656.128
587.076
500.43
513.648
540.019
529.852
498.448
491.324
591.346
528.701
492.407
535.097
513.73
528.292
485.718
497.629
493.686
564.87
472.936
453.622
481.269
471.83
985.482
959.905
1002.35
957.842
1002.5
1000.99
953.427
977.772
1007.08
1009.1
1009.53
1010.6
1015.04
1017.7
526.671
564.049
536.017
489.038
470.846
508.366
493.543
626.489
999.019
805.965
769.014
619.604
938.881
777.89
1026.26
1023.63
1025.33
1022.94
998.566
995.95
1025.81
1025.38
1023.38
1024.81
1021.83
997.027
994.343
1024.55
981.749
963.88
1001.19
962.653
1001.35
997.823
952.238
879.388
889.82
888.482
805.907
803.888
894.25
808.75
613.701
981.803
750.219
772.308
609.187
961.975
728.084
1027.46
1017.75
1025.97
1021.2
990.713
988.135
1024.19
795.654
889.349
888.397
803.967
801.334
893.102
805.944
600.902
970.393
783.394
697.367
599.663
949.792
756.454
1024.37
1012.9
1023.63
1018.44
982.879
980.099
1021.27
1006.31
970.331
1011.43
1005.46
938.764
978.994
962.59
999.163
967.461
1010.36
1003.27
930.477
970.981
959.862
1026.23
1011.85
1023.99
1002.96
968.815
966.311
1006.49
973.556
1017.92
1014.34
990.498
929.845
927.462
994.341
636.168
902.619
883.726
726.279
582.782
706.403
580.945
994.39
966.713
1009.02
1000.39
921.142
962.534
956.422
1005.96
970.001
1010.97
1004.14
936.286
977.098
960.774
783.776
880.369
876.816
791.141
786.096
875.485
788.417
959.798
992.579
1005.77
983.021
908.356
948.969
937.3
1021.42
1005
1019.56
994.064
954.225
951.252
997.979
564.157
868.923
693.461
608.865
556.407
810.915
673.77
1010.23
955.258
1006.71
978.446
905.793
903.074
982.714
594.912
632
614.308
592.028
569.34
576.702
564.899
952.71
944.676
993.629
970.007
870.489
910.301
923.753
985.901
959.091
1003.46
974.268
891.713
933.318
928.233
791.69
886.038
884.439
793.895
791.84
874.901
786.925
607.797
874.299
742.211
624.092
589.665
673.782
629.805
726.642
675.21
672.761
732.775
730.456
734.555
676.098
600.564
784.957
697.955
627.069
585.829
662.791
610.204
608.749
586.518
630.505
543.338
576.726
544.406
565.974
722.098
670.842
729.421
666.45
725.647
730.334
670.937
895.564
809.541
810.1
874.446
891.16
808.721
799.67
891.676
801.099
805.82
866.486
888.274
805.935
792.598
573.22
612.032
599.025
583.867
570.376
562.521
547.977
546.741
540.18
528.723
513.523
524.16
507.86
495.655
593.903
772.371
721.744
601.226
575.32
653.221
618.605
890.305
794.512
802.287
856.488
883.996
800.825
782.827
579.661
538.441
555.223
619.874
597.893
562.775
567.311
989.069
929.9
940.586
866.191
928.839
939.445
991.782
993.398
945.79
940.34
876.899
944.689
939.345
995.999
934.466
941.283
988.033
957.94
844.234
885.12
911.417
894.904
808.431
808.63
871.404
888.666
805.49
796.364
996.365
946.284
947.725
945.102
946.556
880.781
880.189
708.168
656.612
715.204
650.868
709.489
713.277
654.885
882.398
794.232
795.329
845.722
865.822
785.388
774.619
604.741
581.061
567.291
575.049
561.016
555.435
541.019
979.26
930.416
929.601
915.485
914.884
854.326
853.191
866.703
761.504
780.427
811.2
853.059
774.538
745.959
591.654
727.378
627.878
679.009
574.953
604.196
536.523
594.93
575.007
582.529
567.101
547.514
537.952
546.436
971.646
855.55
878.951
889.354
914.53
925.028
930.475
976.398
866.382
895.628
890.513
930.59
925.351
936.097
949.144
871.763
895.821
811.757
895.425
871.583
951.617
979.311
895.276
897.169
930.739
932.329
869.987
840.976
967.515
914.465
913.49
894.925
894.03
830.505
829.374
558.417
544.086
540.994
558.092
559.045
569.813
563.791
786.522
881.676
868.267
828.857
856.517
776.535
759.265
541.047
555.404
584.523
570.596
550.381
541.009
527.112
921.32
881.202
915.791
867.362
901.394
844.461
817.106
556.483
543.82
541.628
559.366
563.962
568.77
559.635
714.479
651.459
711.905
650.735
711.73
710.254
650.944
908.286
864.21
899.399
845.445
880.147
820.673
793.295
623.67
622.547
587.794
584.279
618.177
619.243
586.736
545.249
538.215
538.065
553.621
553.991
558.815
556.108
931.828
826.814
803.03
849.164
882.356
858.981
891.48
930.425
842.557
871.27
779.618
842.074
870.516
933.382
735.897
677.29
735.801
735.313
674.415
730.729
676.902
669.903
731.447
727.983
732.676
668.655
724.458
674.384
593.124
628.118
628.246
630.641
595.684
630.776
595.175
479.043
510.245
486.237
530.024
500.368
513.477
488.42
499.98
546.151
524.972
544.287
512.304
530.828
569.245
499.911
489.306
514.753
502.904
533.085
514.883
489.409
547.127
755.97
648.818
562.469
475.784
615.46
598.133
864.756
747.235
778.708
785.427
840.997
763.852
723.407
513.067
529.256
499.704
497.156
509.546
485.683
478.796
474.457
473.451
479.885
482.604
462.282
428.713
295.888
465.472
486.573
473.48
481.422
397.437
449.199
292.019
823.903
833.804
865.503
790.847
730.711
761.426
770.185
666.134
720.697
725.865
726.622
660.3
715.327
667.842
734.574
674.723
733.709
731.381
670.922
727.302
672.565
840.681
835.917
871.927
797.472
741.681
777.022
772.872
530.595
545.947
568.731
512.088
543.679
524.7
499.929
900.482
843.234
843.345
809.897
810.384
754.399
752.44
799.301
839.75
841.93
775.704
777.948
795.438
743.436
588.062
621.176
621.343
625.681
590.564
625.161
589.94
582.505
615.901
616.597
579.331
612.513
612.604
579.91
478.028
477.329
486.727
493.967
508.169
492.799
482.294
530.177
564.16
545.734
534.79
545.523
530.036
519.139
530.39
529.888
536.453
555.075
479.912
320.129
471.334
509.27
523.334
560.618
534.291
504.815
518.642
496.254
473.696
468.168
475.753
472.16
335.132
350.973
288.756
912.305
770.429
795.197
822.581
828.597
856.783
870.748
661.529
721.504
720.286
713.665
655.562
709.176
656.799
857.788
827.271
814.621
765.359
754.563
774.121
725.417
526.256
721.116
593.466
584.383
505.549
702.317
592.784
875.582
799.26
876.243
807.089
731.384
734.149
805.112
534.214
733.496
589.667
593.435
516.65
714.141
590.111
867.436
801.787
868.316
790.398
725.49
728.313
788.12
532.321
550.226
530.494
449.53
305.26
491.75
477.856
416.304
485.223
481.47
336.193
288.971
468.329
416.119
467.548
410.893
472.806
307.624
288.347
436.944
345.684
558.738
525.418
544.584
532.424
543.436
528.325
517.544
545.666
544.007
560.189
532.426
540.798
525.897
517.431
516.948
489.371
504.192
478.532
490.207
482.273
475.094
500.612
475.26
489.31
473.222
485.139
477.883
470.995
880.222
807.919
880.819
809.655
736.955
739.634
807.727
844.935
800.365
831.276
769.841
799.024
746.829
725.057
577.182
575.717
612.579
608.576
607.478
611.226
579.051
777.977
798.148
830.24
761.659
695.981
740.691
723.846
655.908
715.755
713.766
705.605
645.055
696.274
649.462
541.349
499.385
525.652
494.841
517.685
508.296
491.28
849.617
785.689
850.607
767.338
706.147
709.151
764.882
866.856
807.413
807.369
765.434
765.991
714.385
712.729
844.352
810.215
792.879
749.614
734.824
750.96
704.396
494.601
676.535
568.438
587.086
462.361
663.981
562.916
568.922
566.174
545.666
547.053
568.166
567.355
546.432
501.918
540.47
539.17
386.154
525.668
461.591
291.75
641.177
705.88
694.407
704.721
637.982
686.55
649.19
536.797
549.623
532.668
518.589
527.778
522.343
514.315
547.457
532.078
528.145
521.917
533.563
518.385
514.854
791.64
836.275
865.43
799.341
711.663
728.774
776.547
800.314
841.383
870.143
801.939
717.184
734.235
779.281
833.786
752.894
835.178
773.75
695.698
698.763
771.242
794.369
829.933
858.039
783.317
706.981
723.263
761.945
746.918
799.636
825.863
767.177
680.787
694.672
746.924
849.903
762.91
794.603
726.449
754.776
706.689
685.545
543.482
544.044
561.854
543.18
541.121
559.273
562.125
454.742
649.329
579.376
535.804
409.685
638.178
577.751
805.568
721.583
806.807
745.644
668.962
671.855
743.144
541.486
538.699
482.217
309.305
288.521
479.144
426.726
534.966
526.504
526.368
514.225
521.004
515.504
515.412
746.754
771.77
809.48
743.142
667.637
696.158
716.967
778.409
812.049
840.333
760.549
689.012
704.479
739.674
576.816
609.142
607.117
606.305
575.088
607.438
577.297
583.736
629.672
603.893
571.7
423.409
571.153
574.798
567.732
602.333
576.114
595.132
573.081
384.459
554.008
722.243
682.679
653.576
659.703
702.899
710.283
666.276
728.827
692.335
665.431
662.337
716.615
713.07
672.688
715.705
770.852
797.33
739.339
655.891
668.348
719.679
782.916
729.013
784.709
703.116
656.458
659.366
700.4
631.982
596.733
596.488
630.336
631.621
596.458
596.35
627.419
625.15
590.915
625.233
629.274
594.364
592.656
730.197
663.965
665.974
715.157
717.303
693.601
649.979
629.043
595.43
593.451
627.047
627.323
592.722
594.038
542.088
560.764
562.948
544.187
563.943
563.408
544.263
788.346
754.204
727.105
704.172
682.231
692.089
657.61
772.879
910.253
791.483
865.118
632.156
622.394
617.292
864.823
723.524
767.879
827.6
903.278
747.841
826.713
725.618
733.659
739.453
737.114
742.386
758.89
750.008
846.53
730.7
787.89
651.335
656.715
675.965
661.369
737.874
774.314
759.758
774.843
761.603
785.265
800.713
620.29
677.868
646.222
619.38
562.503
702.04
639.291
1025.77
794.351
915.669
926.576
970.504
852.113
927.293
748.019
780.253
757.373
780.482
793.744
807.8
768.492
753.207
783.631
761.439
781.622
795.384
808.537
770.186
812.994
801.183
786.593
812.151
852.956
840.687
826.58
811.847
800.866
784.44
811.735
851.772
840.835
826.378
700.438
750.617
751.262
710.778
710.681
770.038
721.434
680.699
669.405
681.402
667.274
680.251
682.333
661.033
807.744
825.971
825.774
878.249
840.133
840.242
794.063
808.615
826.56
828.14
841.21
842.81
880.484
866.894
683.867
667.044
664.104
670.258
666.755
651.888
650.65
895.737
806.504
787.721
662.707
676.873
662.344
668.126
769.814
733.398
722.05
806.177
787.968
732.518
744.427
771.354
733.549
721.873
808.772
789.087
732.427
744.058
840.516
904.047
878.359
877.414
871.21
871.378
852.005
841.652
877.465
878.048
872.181
873.394
905.429
903.333
553.513
706.042
637.301
556.189
496.148
612.214
549.79
693.083
682.508
676.259
678.072
672.26
653.128
656.119
865.368
921.294
878.92
922.209
957.849
965.383
911.18
684.313
658.311
681.102
685.166
650.354
689.687
654.221
689.34
664.248
684.303
687.101
657.897
693.676
657.896
869.129
926.45
882.606
924.031
960.834
967.89
913.035
826.975
825.984
806.666
743.568
770.686
756.233
756.982
745.612
826.17
826.617
758.469
759.49
847.006
773.847
631.492
613.512
598.098
552.173
546.828
594.05
573.877
656.004
640.176
655.335
634.473
641.755
635.089
621.3
938.152
902.97
904.374
938.584
947.036
970.854
926.547
941.287
903.916
906.867
939.739
947.233
972.536
926.882
647.88
623.185
645.664
624.062
636.752
629.166
608.819
748.747
679.531
689.222
719.164
774.372
830.471
768.221
871.969
827.477
904.5
721.97
733.248
731.464
737.847
739.475
758.487
748.813
731.978
790.024
665.467
788.196
846.721
663.595
663.486
735.9
776.398
775.38
759.168
760.587
785.881
802.825
682.066
637.715
617.189
660.751
602.734
618.692
594.606
751.227
786.224
760.603
783.7
800.359
814.074
771.418
747.512
780.792
757.286
781.939
795.685
809.962
769.398
702.421
752.212
751.644
712.531
712.324
770.946
723.248
803.753
816.696
787.557
814.818
855.209
845.774
829.2
802.066
812.452
784.802
813.432
852.911
842.75
828.299
683.479
672.953
673.857
684.61
683.975
686.435
667.565
811.746
833.023
830.286
885.112
844.791
847.193
797.662
688.671
671.346
672.358
676.19
675.098
660.251
660.188
771.59
732.849
722.66
807.291
789.103
733.625
744.117
770.483
734.173
723.405
806.848
788.613
734.247
746.089
844.081
879.823
908.537
878.834
874.799
876.486
853.915
707.999
688.115
682.75
681.611
698.727
663.368
666.778
658.687
684.951
687.091
689.367
657.992
693.218
661.92
668.171
690.891
686.907
690.895
662.059
696.713
663.792
826.382
826.692
807.028
745.467
772.998
759.242
757.702
657.644
657.872
643.567
635.421
647.393
641.852
623.038
643.424
649.064
660.843
640.109
649.468
644.001
627.893
684.686
697.751
680.056
674.841
669.487
656.447
645.049
614.154
637.132
636.8
664.16
660.749
641.057
641.367
621.974
642.711
642.515
667.262
663.902
643.195
643.423
691.288
705.53
652.529
656.524
696.519
699.044
654.027
620.196
649.952
647.438
627.204
597.387
601.151
627.07
639.087
661.426
658.174
633.689
611.657
614.912
633.832
966.163
999.898
1000.8
1025.04
1003.07
1003.77
958.868
660.849
703.299
695.841
660.161
701.682
711.127
663.986
662.278
659.877
710.342
703.059
700.958
695.636
660.965
846.534
785.564
772.351
879.818
865.597
787.363
797.764
774.194
847.18
865.554
880.165
865.891
788.262
799.193
971.45
1011.33
963.199
963.285
997.357
997.881
947.037
620.426
625.582
629.3
615.265
593.254
598.784
604.919
625.871
632.991
638.433
630.182
610.223
628.559
602.499
613.83
628.435
633.105
611.1
630.454
638.966
626.809
625.115
661.709
650.565
607.51
632.068
620.057
594.916
663.59
591.128
640.359
584.317
634.037
610.793
564.482
650.011
604.004
637.68
593.504
625.354
613.007
580.572
665.164
720.156
711.848
720.667
672.62
728.214
668.508
601.494
616.492
619.774
590.548
597.968
584.271
572.097
572.858
584.825
601.97
599.321
592.146
620.98
617.802
608.409
574.603
577.98
584.887
585.596
592.304
605.058
890.112
890.346
880.245
799.091
810.039
805.813
806.531
716.029
660.802
708.673
719.076
669.024
725.536
666.472
604.105
628.628
629.912
629.845
628.829
598.156
596.313
625.037
591.58
598.508
625.752
626.562
595.664
592.308
571.844
578.575
601.184
588.696
539.603
558.611
565.379
602.53
529.863
570.851
580.442
515.917
551.124
538.631
570.186
616.565
592.524
587.711
527.675
565.14
545.43
727.782
735.525
674.099
675.63
732.13
733.296
671.879
558.432
575.053
586.029
574.974
550.176
570.082
558.249
568.503
567.99
580.1
572.509
547.188
566.474
555.925
629.215
630.961
628.849
595.277
595.855
593.996
595.95
559.203
518.012
504.407
508.921
533.124
539.322
522.651
569.094
567.918
546.087
547.192
566.795
568.375
549.339
540.437
557.894
539.696
543.676
558.751
555.719
556.261
498.944
687.196
586.168
572.5
356.182
609.023
564.838
585.407
595.195
558.452
598.276
521.936
332.057
567.032
585.694
618.151
620.577
618.164
623.025
589.252
588.177
683.234
645.457
703.615
695.727
625.596
668.829
641.864
796.14
702.094
744.336
689.86
743.286
702.86
660.011
717.796
656.971
706.734
649.784
697.875
678.92
638.337
586.752
583.256
616.926
614.575
614.014
582.619
585.639
484.631
675.915
588.376
547.862
334.464
604.266
570.67
790.667
693.509
738.914
684.323
740.405
700.006
654.838
785.732
697.734
735.365
680.837
727.861
689.791
652.549
492.796
525.676
510.552
510.512
490.985
503.254
492.815
753.072
723.64
776.549
698.383
646.247
656.633
682.961
747.168
695.83
748.671
669.134
629.975
632.383
666.913
539.183
555.944
554.548
553.377
538.231
556.441
542.091
499.219
488.041
475.397
488.862
483.079
475.126
475.357
488.893
483.074
475.356
488.145
475.19
499.377
480
482.662
471.402
475.144
471.551
473.355
471.478
475.223
650.137
719.445
721.536
676.457
617.916
620.476
673.829
490.136
602.651
600.218
556.316
345.898
547.709
308.364
698.777
631.356
655.597
641.14
686.763
673.522
647.28
522.07
491.782
507.584
509.481
491.363
502.726
492.468
509.582
522.572
498.54
507.684
491.148
502.493
491.656
486.402
484.186
481.885
477.064
476.677
474.421
474.665
471.299
474.456
480.372
473.17
473.745
471.184
471.354
646.926
695.337
714.781
672.425
613.705
619.46
659.06
768.084
683.597
719.082
664.392
706.679
670.903
638.667
706.7
645.909
693.247
636.932
681.408
661.422
625.347
699.81
718.091
687.138
673.167
649.466
655.721
628.144
474.774
494.179
477.424
484.387
481.87
474.569
476.711
736.22
674.321
677.165
669.75
672.611
627.701
625.09
432.801
644.375
555.591
556.478
299.84
598.186
495.003
690.45
716.102
739.964
664.397
621.662
630.104
649.879
758.455
664.979
712.158
658.461
714.54
678.63
634.987
613.061
579.491
611.5
607.032
607.962
580.276
583.469
723.997
666.643
669.543
656.257
659.219
620.139
617.574
474.004
471.548
473.6
471.781
472.251
480.885
474.706
372.471
621.756
572.013
421.724
290.618
593.181
530.277
730.44
640.494
687.005
636.265
688.856
656.226
617.129
605.839
602.185
576.504
602.162
608.024
579.009
580.457
577.512
418.526
581.704
594.826
499.018
537.907
292.835
530.236
528.831
527.931
515.242
515.593
530.737
520.41
493.591
502.858
490.514
505.246
491.413
501.64
490.829
491.054
505.242
513.149
503.108
491.901
502.308
490.844
739.102
673.041
675.406
629.118
675.906
678.248
736.41
715.522
661.265
649.466
616.234
664.179
652.419
712.555
534.16
518.675
529.541
515.364
515.009
530.414
517.662
475.264
473.09
473.868
473.067
476.463
476.277
472.851
730.933
661.452
673.548
657.446
669.158
625.82
618.481
683.73
633.942
616.986
627.006
651.886
667.448
635.786
534.124
530.715
530.491
518.702
517.981
515.33
515.466
530.106
529.825
527.156
515.795
519.324
514.684
514.787
470.421
470.544
474.912
471.569
472.12
471.514
471.974
733.659
627.162
660.062
662.317
672.273
674.575
716.468
691.241
629.451
643.323
603.408
632.269
646.281
688.229
672.393
621.057
658.49
611.299
642.582
627.653
604.996
716.787
649.737
677.424
629.635
658.82
633.925
613.615
540.589
552.72
554.477
544.54
554.633
558.809
552.549
718.878
654.36
666.116
645.489
656.222
618.583
611.992
481.98
480.779
473.775
475.038
481.735
475.825
474.705
472.425
472.477
475.343
474.284
475.144
473.415
468.03
679.584
635.878
638.791
621.753
624.475
599.571
597.115
296.589
578.629
528.603
363.133
290.313
570.601
511.271
676.509
618.642
678.259
642.43
596.991
598.744
640.309
527.707
529.047
535.849
514.501
526.015
519.433
516.847
501.963
490.297
504.21
501.882
487.318
503.512
490.754
710.871
614.959
650.194
640.269
661.077
649.851
695.56
624.673
622.082
628.754
595.212
591.426
594.348
592.643
549.282
547.238
568.614
569.054
555.81
571.347
549.059
544.871
565.235
547.608
567.553
556.072
569.212
548.351
615.271
619.942
623.053
591.267
589.632
589.525
591.737
545.62
568.382
548.989
566.57
556.869
570.273
548.621
595.881
623.392
625.127
594.712
615.063
593.598
591.928
413.575
594.071
592.8
311.874
288.45
554.621
486.995
603.502
580.314
576.425
597.132
602.937
579.536
584.667
513.637
526.697
527.727
515.635
517.644
534.184
523.603
687.139
603.133
622.633
634.502
630.415
643.855
673.122
616.702
654.959
672.1
638.948
591.443
597.524
628.003
656.301
646.604
689.594
661.753
607.351
628.536
628.152
663.784
650.827
694.527
664.322
610.084
632.749
630.187
560.838
551.186
563.111
564.56
562.063
568.771
549.004
676.16
628.752
636.819
616.962
623.176
599.683
597.119
666.58
607.402
637.869
604.621
638.62
619.073
596.571
433.161
592.342
563.501
537.859
296.477
455.903
288.103
589.241
617.832
612.422
590.301
606.842
587.662
588.506
660.195
644.719
687.064
653.797
606.582
627.17
622.434
648.374
633.823
673.16
638.639
600.954
616.89
612.372
547.69
541.976
558.861
560.954
560.818
566.991
549.68
681.589
624.824
647.529
609.301
629.177
611.508
599.036
651.972
608.134
635.733
602.265
620.363
609.148
598.557
651.985
615.686
618.283
603.486
605.875
588.146
586.336
657.818
642.297
638.905
622.754
620.122
607.041
597.256
612.739
609.791
604.2
587.505
600.121
586.049
588.594
639.168
597.225
608.31
584.208
610.902
599.512
636.486
634.902
630.381
668.273
645.108
600.332
614.887
616.555
600.73
606.399
608.359
582.499
587.915
585.407
583.967
647.82
635.82
628.494
617.29
611.847
602.025
594.314
483.215
481.978
477.849
483.695
482.004
477.851
472.148
445.231
428.784
290.372
412.531
289.054
287.929
288.617
477.719
482.6
475.885
483.4
482.572
476.83
469.12
637.097
596.86
583.958
606.534
610.559
599.705
628.748
640.778
642.928
688.959
659.014
597.557
621.255
623.164
632.921
624.938
670.977
644.689
593.878
615.613
609.969
616.969
616.48
648.037
627.91
596.633
603.763
606.137
555.842
563.011
557.802
565.026
570.766
573.104
562.648
649.002
611.439
617.152
601.451
605.522
588.23
585.338
289.941
578.031
490.677
441.278
288.442
577.269
454.406
626.973
596.598
629.595
596.241
578.186
579.548
594.061
532.972
517.786
539.274
522.675
523.405
546.604
524.394
503.024
492.67
492.67
502.668
502.696
506.395
490.995
371.08
289.191
424.085
288.146
287.928
372.696
288.88
383.261
366.097
288.731
288.021
287.927
307.983
288.083
471.014
471.662
466.762
470.282
473.757
473.284
473.78
614.813
580.25
592.88
564.043
581.077
594.785
612.523
610.593
619.661
650.878
628.146
588.76
600.468
605.91
544.743
562.88
560.711
560.649
568.199
571.816
554.273
612.625
623.963
641.682
613.435
596.403
602.63
600.141
471.433
472.266
472.883
472.101
472.64
474.272
462.604
482.664
483.511
476.786
482.239
475.881
477.702
469.139
623.454
595.665
626.071
593.361
577.135
578.328
591.137
482.985
474.298
476.923
479.216
482.215
469.007
456.378
624.212
615.881
607.353
604.315
599.209
592.395
587.391
474.331
462.675
472.932
472.746
472.256
473.57
471.54
288.943
573.689
437.446
447.893
288.192
570.356
387.151
288.849
560.557
494.078
288.785
287.943
503.281
361.587
631.734
585.308
612.417
581.712
612.778
600.235
571.373
449.428
298.632
326.897
287.956
288.345
288.059
287.927
503.129
492.756
506.734
492.927
503.017
502.771
491.114
595.439
599.352
601.582
582.811
591.964
589.397
586.378
470.549
471.358
474.174
467.126
474.05