/*--------------------------------*- C++ -*----------------------------------*\
  =========                 |
  \\      /  F ield         | OpenFOAM: The Open Source CFD Toolbox
   \\    /   O peration     | Website:  https://openfoam.org
    \\  /    A nd           | Version:  9
     \\/     M anipulation  |
\*---------------------------------------------------------------------------*/
FoamFile
{
    format      ascii;
    class       volScalarField;
    location    "0.00035";
    object      alpha.c4;
}
// * * * * * * * * * * * * * * * * * * * * * * * * * * * * * * * * * * * * * //

dimensions      [0 0 0 0 0 0 0];

internalField   nonuniform List<scalar> 
24537
(
1.22777e-84
4.72261e-82
1.73258e-79
6.03205e-77
1.98672e-74
6.16824e-72
1.79795e-69
4.89771e-67
1.24034e-64
2.9025e-62
6.23016e-60
1.2153e-57
2.1281e-55
3.28959e-53
4.38462e-51
4.87337e-49
4.30098e-47
2.79517e-45
1.17757e-43
2.3844e-42
5.89816e-42
1.35253e-42
4.77433e-44
9.58773e-46
1.34628e-47
3.66057e-82
1.41685e-79
5.23376e-77
1.83566e-74
6.09399e-72
1.90817e-69
5.61361e-67
1.54483e-64
3.95713e-62
9.37988e-60
2.0426e-57
4.04783e-55
7.20658e-53
1.13227e-50
1.53114e-48
1.72002e-46
1.52468e-44
9.85755e-43
4.07062e-41
7.95553e-40
1.97794e-39
4.61831e-40
1.65902e-41
3.34968e-43
4.69752e-45
1.02553e-79
3.99708e-77
1.48754e-74
5.25901e-72
1.76081e-69
5.56456e-67
1.65374e-64
4.60317e-62
1.19448e-59
2.8733e-57
6.3605e-55
1.28295e-52
2.32574e-50
3.71711e-48
5.09982e-46
5.7865e-44
5.14678e-42
3.30664e-40
1.33664e-38
2.54605e-37
6.47676e-37
1.49637e-37
5.44108e-39
1.10402e-40
1.54561e-42
2.67895e-77
1.05212e-74
3.94727e-72
1.40759e-69
4.75688e-67
1.51872e-64
4.56544e-62
1.28746e-59
3.391e-57
8.29557e-55
1.87065e-52
3.84711e-50
7.10858e-48
1.15602e-45
1.6086e-43
1.84271e-41
1.64482e-39
1.05131e-37
4.16712e-36
7.89776e-35
2.09489e-34
4.61136e-35
1.68181e-36
3.42271e-38
4.77648e-40
6.49002e-75
2.57002e-72
9.72689e-70
3.50137e-67
1.19551e-64
3.86098e-62
1.17592e-59
3.36616e-57
9.01859e-55
2.2485e-52
5.17405e-50
1.08608e-47
2.04604e-45
3.38426e-43
4.77423e-41
5.52487e-39
4.96301e-37
3.17244e-35
1.23961e-33
2.40542e-32
6.74818e-32
1.3632e-32
4.91262e-34
9.98891e-36
1.38591e-37
1.44884e-72
5.78916e-70
2.2121e-67
8.04593e-65
2.77901e-62
9.09275e-60
2.811e-57
8.18505e-55
2.23519e-52
5.68887e-50
1.33712e-47
2.86502e-45
5.49956e-43
9.24667e-41
1.32328e-38
1.55259e-36
1.41534e-34
9.15688e-33
3.55426e-31
7.20429e-30
2.14552e-29
3.89423e-30
1.35968e-31
2.74539e-33
3.77446e-35
2.95808e-70
1.19361e-67
4.60907e-65
1.69586e-62
5.93361e-60
1.97023e-57
6.19404e-55
1.83793e-52
5.12323e-50
1.33209e-47
3.1976e-45
6.98762e-43
1.36548e-40
2.33467e-38
3.40257e-36
4.08886e-34
3.85065e-32
2.57504e-30
1.00287e-28
2.07715e-27
6.51823e-27
1.07333e-27
3.56088e-29
7.0881e-31
9.62351e-33
5.47345e-68
2.23238e-65
8.72042e-63
3.24983e-60
1.15353e-57
3.89306e-55
1.24646e-52
3.77318e-50
1.07406e-47
2.85169e-45
6.98275e-43
1.55433e-40
3.09226e-38
5.39667e-36
8.09664e-34
1.01741e-31
1.01871e-29
7.23969e-28
2.89618e-26
5.50854e-25
1.79885e-24
2.7831e-25
8.73387e-27
1.70736e-28
2.27989e-30
9.07595e-66
3.74508e-63
1.48147e-60
5.59819e-58
2.01812e-55
6.92967e-53
2.261e-50
6.98207e-48
2.02785e-45
5.48944e-43
1.36895e-40
3.10281e-38
6.30522e-36
1.13504e-33
1.7907e-31
2.42637e-29
2.66049e-27
2.05544e-25
8.93612e-24
1.26349e-22
4.24825e-22
6.4107e-23
1.97232e-24
3.82244e-26
4.96375e-28
1.32935e-63
5.55402e-61
2.22649e-58
8.53644e-56
3.12669e-53
1.0923e-50
3.62952e-48
1.14179e-45
3.37675e-43
9.30068e-41
2.3601e-38
5.46086e-36
1.1442e-33
2.16755e-31
3.70329e-29
5.55268e-27
6.71163e-25
5.64534e-23
2.84912e-21
2.34747e-20
8.05979e-20
1.20302e-20
4.12462e-22
8.26048e-24
9.92569e-26
1.687e-61
7.1384e-59
2.90003e-56
1.12776e-53
4.19353e-51
1.48837e-48
5.02606e-46
1.60651e-43
4.82532e-41
1.35022e-38
3.49169e-36
8.31079e-34
1.82668e-31
3.73715e-29
7.06341e-27
1.16681e-24
1.50582e-22
1.33351e-20
7.73177e-19
3.41623e-18
1.19659e-17
1.65338e-18
9.02271e-20
1.98868e-21
1.92926e-23
1.80517e-59
7.73091e-57
3.17908e-54
1.2517e-51
4.71372e-49
1.69455e-46
5.79552e-44
1.87596e-41
5.70935e-39
1.62344e-36
4.30082e-34
1.06681e-31
2.51023e-29
5.63647e-27
1.16719e-24
2.03226e-22
2.62858e-20
2.23936e-18
6.12247e-17
1.51233e-16
1.81647e-15
1.45641e-16
2.82772e-17
5.62711e-19
4.32616e-21
1.56454e-57
6.76671e-55
2.80836e-52
1.11546e-49
4.23614e-47
1.53546e-44
5.29566e-42
1.73021e-39
5.32982e-37
1.54405e-34
4.22334e-32
1.10544e-29
2.81011e-27
6.84622e-25
1.48742e-22
2.55753e-20
3.44285e-18
5.4381e-17
9.30994e-15
1.17773e-12
1.29184e-10
1.79104e-11
2.35041e-14
6.26659e-17
1.04122e-18
1.03061e-55
4.48274e-53
1.86823e-50
7.44275e-48
2.83323e-45
1.02961e-42
3.56539e-40
1.17337e-37
3.66156e-35
1.08447e-32
3.07454e-30
8.48318e-28
2.29695e-25
5.87509e-23
1.27345e-20
2.09871e-18
4.83896e-17
7.89541e-14
7.25758e-09
0.000293408
0.00177666
0.000945725
1.13702e-06
5.74949e-14
1.35746e-16
4.61484e-54
2.00526e-51
8.33066e-49
3.30321e-46
1.25141e-43
4.53582e-41
1.57459e-38
5.23517e-36
1.66484e-33
5.05905e-31
1.47569e-28
4.19329e-26
1.17185e-23
3.05915e-21
6.26073e-19
3.7797e-17
2.24096e-14
1.57048e-08
0.00694108
0.126393
0.188383
0.164374
0.0289711
7.71597e-06
6.91744e-14
1.10009e-52
4.71443e-50
1.92853e-47
7.53919e-45
2.83304e-42
1.03138e-39
3.66477e-37
1.2738e-34
4.2941e-32
1.3735e-29
4.03332e-27
1.04541e-24
2.30224e-22
4.27858e-20
7.74725e-18
4.29864e-16
9.9354e-12
0.00115864
0.213991
0.47083
0.543503
0.505001
0.318403
0.0121095
9.38826e-09
3.10205e-52
1.30134e-49
5.23622e-47
2.03154e-44
7.67121e-42
2.84984e-39
1.04975e-36
3.82728e-34
1.35922e-31
4.55877e-29
1.39575e-26
3.73789e-24
8.45036e-22
1.58661e-19
2.81881e-17
6.29473e-15
1.91023e-09
0.00718168
0.331426
0.635213
0.742386
0.701015
0.472109
0.0651636
7.18531e-06
3.37316e-54
1.03659e-51
4.3337e-49
1.73473e-46
6.71443e-44
2.53961e-41
9.50613e-39
3.6839e-36
3.08636e-33
1.45246e-29
4.63913e-27
1.36637e-24
3.4923e-22
7.24026e-20
4.80373e-18
1.42061e-15
3.15608e-10
0.00432439
0.305976
0.614668
0.734148
0.678559
0.450503
0.0471045
2.61742e-06
7.41319e-57
2.26064e-56
4.77666e-53
2.18383e-50
9.152e-48
3.67964e-45
1.43739e-42
1.45485e-39
1.96361e-35
2.09491e-31
2.83208e-29
6.27351e-27
1.81632e-24
4.53712e-22
8.46888e-20
1.42999e-17
2.06331e-13
9.46836e-05
0.12869
0.406873
2.44264e-09
1.54373e-59
8.74785e-61
4.55475e-61
4.06314e-40
3.47158e-35
8.8272e-32
2.55963e-31
8.66745e-29
2.76122e-26
7.18248e-24
6.80767e-21
1.16093e-16
1.68816e-11
0.000823363
0.0348408
3.49136e-17
3.06633e-62
6.24781e-64
3.23203e-66
2.14267e-44
2.39101e-39
2.83759e-36
8.47011e-37
4.59198e-12
2.40397e-07
5.56093e-11
8.21293e-17
1.04407e-21
5.90236e-24
5.98675e-23
5.81834e-65
1.10957e-66
3.10393e-70
1.62015e-67
1.13298e-64
1.38164e-60
9.21454e-56
5.48863e-51
1.22982e-46
1.18509e-43
8.1653e-41
1.84041e-44
2.25691e-17
1.10386e-15
2.67484e-17
5.79453e-20
1.07416e-22
1.87535e-25
1.08555e-25
1.05668e-67
2.88295e-68
1.59125e-65
8.71399e-63
4.59211e-60
2.32443e-57
1.1283e-54
5.24236e-52
2.27605e-49
7.67607e-47
2.14674e-45
6.52115e-46
4.42345e-43
2.90771e-40
1.89699e-37
5.02643e-34
3.20605e-29
2.20372e-24
3.58058e-20
1.84291e-18
7.32014e-20
2.57191e-22
9.3613e-25
2.42151e-27
1.53628e-28
1.86034e-70
1.14663e-69
7.70611e-67
5.1342e-64
3.59951e-61
2.62135e-58
1.93999e-55
1.42681e-52
1.03437e-49
7.24818e-47
4.90192e-44
3.20899e-41
2.03072e-38
1.24464e-35
7.38476e-33
4.2227e-30
2.30222e-27
1.15828e-24
1.58542e-22
6.72828e-21
1.92515e-22
8.41862e-25
3.13582e-27
9.46453e-30
2.10274e-31
3.31476e-73
1.57807e-71
1.20767e-68
9.63198e-66
7.83697e-63
6.33687e-60
5.001e-57
3.8164e-54
2.81452e-51
2.00435e-48
1.28377e-45
7.47176e-43
4.07556e-40
2.06383e-37
9.49803e-35
3.77013e-32
1.0922e-29
3.17133e-27
4.44163e-25
1.74553e-23
4.66979e-25
2.38181e-27
9.56414e-30
3.15288e-32
3.03631e-34
3.04997e-85
1.17816e-82
4.33696e-80
1.51382e-77
4.99599e-75
1.55359e-72
4.53354e-70
1.23539e-67
3.12576e-65
7.29436e-63
1.5578e-60
3.01633e-58
5.23436e-56
8.01836e-54
1.06173e-51
1.17841e-49
1.046e-47
6.89026e-46
2.96453e-44
6.07513e-43
1.44668e-42
3.10881e-43
1.01796e-44
1.92197e-46
2.57375e-48
9.15454e-83
3.55692e-80
1.31811e-77
4.63633e-75
1.54337e-72
4.84523e-70
1.42854e-67
3.93634e-65
1.00804e-62
2.38372e-60
5.16651e-58
1.01731e-55
1.79946e-53
2.81599e-51
3.81343e-49
4.32291e-47
3.89697e-45
2.57406e-43
1.08363e-41
2.07197e-40
4.85671e-40
1.09345e-40
3.67e-42
6.94334e-44
9.23261e-46
2.58107e-80
1.00976e-77
3.77152e-75
1.33841e-72
4.49899e-70
1.42738e-67
4.25649e-65
1.18736e-62
3.08187e-60
7.39852e-58
1.63155e-55
3.2777e-53
5.93312e-51
9.5254e-49
1.32443e-46
1.53769e-44
1.40888e-42
9.31106e-41
3.80483e-39
6.67661e-38
1.56613e-37
3.62931e-38
1.25442e-39
2.37733e-41
3.13542e-43
6.78525e-78
2.6762e-75
1.00874e-72
3.61583e-70
1.22872e-67
3.94402e-65
1.19096e-62
3.36807e-60
8.87717e-58
2.16909e-55
4.88358e-53
1.00527e-50
1.87113e-48
3.09614e-46
4.43582e-44
5.28434e-42
4.92061e-40
3.24728e-38
1.28062e-36
2.0466e-35
4.91936e-35
1.1378e-35
4.08098e-37
7.72614e-39
1.00601e-40
1.65501e-75
6.58933e-73
2.50949e-70
9.09625e-68
3.12822e-65
1.01707e-62
3.11426e-60
8.94487e-58
2.40002e-55
5.98898e-53
1.38255e-50
2.9304e-48
5.63547e-46
9.64671e-44
1.42678e-41
1.74396e-39
1.64842e-37
1.08494e-35
4.1258e-34
6.11974e-33
1.55062e-32
3.4084e-33
1.28159e-34
2.40811e-36
3.0666e-38
3.72304e-73
1.49818e-70
5.77144e-68
2.11776e-65
7.37872e-63
2.43307e-60
7.56715e-58
2.21256e-55
6.06258e-53
1.55136e-50
3.68944e-48
8.08967e-46
1.61308e-43
2.86086e-41
4.36518e-39
5.46312e-37
5.23191e-35
3.43526e-33
1.26767e-31
1.88146e-30
5.10243e-30
9.9859e-31
3.95825e-32
7.3104e-34
8.97884e-36
7.66702e-71
3.12186e-68
1.21778e-65
4.52818e-63
1.60029e-60
5.3596e-58
1.69657e-55
5.0642e-53
1.42239e-50
3.74878e-48
9.22457e-46
2.09908e-43
4.34446e-41
7.97198e-39
1.25103e-36
1.59825e-34
1.54954e-32
1.01895e-30
3.70814e-29
6.40738e-28
1.79523e-27
2.97458e-28
1.21522e-29
2.18514e-31
2.55562e-33
1.43188e-68
5.90556e-66
2.33488e-63
8.80681e-61
3.16083e-58
1.07704e-55
3.47832e-53
1.06335e-50
3.07324e-48
8.3743e-46
2.13802e-43
5.05229e-41
1.08329e-38
2.04895e-36
3.29433e-34
4.2903e-32
4.22827e-30
2.82155e-28
1.04234e-26
2.47862e-25
6.52991e-25
9.48964e-26
3.66697e-27
6.36636e-29
7.07765e-31
2.3961e-66
1.00185e-63
4.01809e-61
1.53884e-58
5.61625e-56
1.95065e-53
6.4433e-51
2.02359e-48
6.03683e-46
1.70453e-43
4.51625e-41
1.10577e-38
2.44613e-36
4.7489e-34
7.81125e-32
1.04236e-29
1.06301e-27
7.4821e-26
2.88482e-24
9.8573e-23
2.22431e-22
3.30131e-23
1.05e-24
1.74198e-26
1.86221e-28
3.53642e-64
1.50002e-61
6.10692e-59
2.37678e-56
8.83171e-54
3.13198e-51
1.0604e-48
3.42879e-46
1.05735e-43
3.09269e-41
8.4825e-39
2.14267e-36
4.86899e-34
9.68885e-32
1.64033e-29
2.29263e-27
2.55713e-25
2.09133e-23
7.95397e-22
3.37919e-20
6.20689e-20
1.14288e-20
2.71791e-22
4.24538e-24
4.44173e-26
4.50697e-62
1.94005e-59
8.02075e-57
3.17399e-54
1.20171e-51
4.35562e-49
1.51301e-46
5.03864e-44
1.60443e-41
4.84706e-39
1.37003e-36
3.55461e-34
8.28609e-32
1.70114e-29
3.03687e-27
4.74292e-25
6.62164e-23
7.10561e-21
2.1128e-19
8.17775e-18
1.19351e-17
3.1491e-18
6.01768e-20
8.88769e-22
9.11028e-24
4.81591e-60
2.1035e-57
8.82919e-55
3.55152e-52
1.36959e-49
5.07043e-47
1.8048e-44
6.17535e-42
2.02265e-39
6.27985e-37
1.8207e-34
4.84457e-32
1.16589e-29
2.52958e-27
5.08613e-25
1.02426e-22
2.0615e-20
2.62524e-18
6.60007e-17
5.6161e-16
8.85566e-16
2.91023e-16
1.12014e-17
1.7707e-19
1.58281e-21
4.13292e-58
1.82971e-55
7.78574e-53
3.17716e-50
1.24463e-47
4.68962e-45
1.70237e-42
5.94963e-40
1.99159e-37
6.31961e-35
1.87553e-32
5.1475e-30
1.30711e-27
3.17689e-25
8.16495e-23
2.39375e-20
6.08966e-18
2.88675e-16
3.46171e-15
5.98604e-13
2.91361e-12
4.56316e-13
4.37324e-15
5.15609e-17
2.6531e-19
2.66215e-56
1.19109e-53
5.1181e-51
2.10768e-48
8.32885e-46
3.16581e-43
1.16009e-40
4.09882e-38
1.39078e-35
4.49653e-33
1.37412e-30
3.96769e-28
1.10863e-25
3.25052e-23
1.1245e-20
4.11007e-18
4.37005e-16
1.54559e-14
1.5039e-11
1.24551e-05
0.000445742
9.17716e-05
2.17576e-09
2.98961e-14
3.84972e-17
1.14242e-54
5.13103e-52
2.20727e-49
9.06379e-47
3.55572e-44
1.337e-41
4.84538e-39
1.70289e-36
5.82776e-34
1.94395e-31
6.31088e-29
1.98545e-26
5.9977e-24
1.72363e-21
4.87636e-19
1.69263e-16
4.02403e-15
2.95099e-11
0.0013778
0.139823
0.243243
0.194101
0.0116309
1.6213e-08
1.57323e-14
2.45544e-53
1.07929e-50
4.51185e-48
1.78799e-45
6.72999e-43
2.42362e-40
8.494e-38
2.98826e-35
1.09699e-32
4.27421e-30
1.70084e-27
6.36135e-25
2.0358e-22
5.05305e-20
8.54714e-18
4.38492e-16
3.7203e-13
9.50148e-05
0.238414
0.533461
0.606086
0.570694
0.39786
0.00498658
1.00653e-10
6.32233e-53
2.67941e-50
1.08938e-47
4.26713e-45
1.62648e-42
6.12636e-40
2.32406e-37
9.0115e-35
3.55367e-32
1.39089e-29
5.17782e-27
1.71799e-24
4.76229e-22
1.0184e-19
1.52221e-17
1.36582e-15
5.0866e-11
0.00346229
0.40811
0.677309
0.783374
0.741138
0.544494
0.0626653
1.11801e-07
7.06901e-55
3.09044e-52
1.31302e-49
5.33271e-47
2.08684e-44
7.94887e-42
2.99396e-39
1.15336e-36
7.24964e-34
3.92012e-30
1.43037e-27
4.71681e-25
1.36973e-22
3.38236e-20
4.67341e-18
3.69163e-16
4.60327e-12
0.00104912
0.356443
0.647773
0.772513
0.707363
0.505437
0.0301232
1.07169e-08
1.54466e-57
6.32799e-57
1.35928e-53
6.24927e-51
2.65716e-48
1.08187e-45
4.22784e-43
3.82144e-40
4.72501e-36
5.23073e-32
1.01043e-29
3.72444e-27
1.11513e-24
2.87543e-22
6.23826e-20
1.02965e-17
1.60297e-14
8.77452e-08
0.0522955
0.458724
2.56975e-13
3.20928e-60
2.08892e-61
1.24056e-61
9.18018e-41
1.16503e-35
2.9526e-32
1.49468e-31
4.74672e-29
1.40705e-26
2.92725e-24
1.72683e-21
1.84188e-17
1.09521e-13
6.70469e-07
0.00778454
4.40863e-19
6.35932e-63
1.80608e-64
9.21729e-67
5.69007e-45
8.4839e-40
1.06005e-36
2.65383e-37
3.44036e-14
2.07923e-10
1.40004e-13
2.94689e-18
3.58891e-23
3.44814e-27
7.7042e-25
1.21202e-65
3.27563e-67
4.98276e-70
2.45664e-67
1.28323e-64
4.38808e-61
2.34441e-56
1.39851e-51
3.41812e-47
4.02818e-44
3.19079e-41
7.07891e-45
4.27478e-18
1.45726e-16
1.88171e-18
3.92553e-21
6.85442e-24
1.08942e-26
1.61145e-27
2.2515e-68
1.01641e-67
5.15944e-65
2.51208e-62
1.16609e-59
5.13522e-57
2.1345e-54
8.29665e-52
2.9185e-49
5.03854e-47
7.76961e-46
4.50996e-47
2.99657e-44
1.91942e-41
1.337e-38
6.19354e-35
2.53119e-30
1.45599e-25
4.35165e-21
4.02637e-19
6.16771e-21
1.78875e-23
5.62788e-26
1.29436e-28
2.64591e-30
4.67782e-71
3.49151e-69
1.58885e-66
6.81939e-64
2.74511e-61
1.03773e-58
3.77264e-56
1.43149e-53
7.73115e-51
4.74078e-48
3.0781e-45
1.96043e-42
1.18821e-39
6.90212e-37
3.89717e-34
2.18777e-31
1.25035e-28
7.30494e-26
1.3605e-23
8.65889e-22
1.49514e-23
5.37671e-26
1.73547e-28
4.73892e-31
4.47649e-33
1.30309e-73
2.74515e-71
1.16298e-68
4.72398e-66
1.90014e-63
8.1768e-61
4.17859e-58
2.59942e-55
1.79814e-52
1.24246e-49
8.25177e-47
4.74747e-44
2.52068e-41
1.22398e-38
5.35458e-36
2.03756e-33
5.92985e-31
1.75699e-28
2.99845e-26
1.58862e-24
3.14749e-26
1.37377e-28
4.97362e-31
1.54428e-33
8.73547e-36
1.00165e-86
3.87362e-84
1.42537e-81
4.96801e-79
1.63573e-76
5.07124e-74
1.47463e-71
4.00273e-69
1.00846e-66
2.34234e-64
4.97541e-62
9.57229e-60
1.64858e-57
2.50388e-55
3.28631e-53
3.61905e-51
3.1952e-49
2.09926e-47
8.99743e-46
1.88413e-44
4.96593e-44
9.76754e-45
3.08686e-46
5.70436e-48
7.52189e-50
3.01083e-84
1.16926e-81
4.32613e-79
1.51795e-76
5.03732e-74
1.57577e-71
4.628e-69
1.27003e-66
3.23803e-64
7.61919e-62
1.64182e-59
3.21029e-57
5.63199e-55
8.73527e-53
1.17319e-50
1.32228e-48
1.19026e-46
7.88763e-45
3.33455e-43
6.61499e-42
1.74332e-41
3.52127e-42
1.13175e-43
2.08593e-45
2.72086e-47
8.48678e-82
3.31453e-79
1.2348e-76
4.3678e-74
1.46286e-71
4.6231e-69
1.37305e-66
3.81388e-64
9.85311e-62
2.35262e-59
5.15414e-57
1.02725e-54
1.84265e-52
2.93136e-50
4.04636e-48
4.68408e-46
4.3064e-44
2.87607e-42
1.19363e-40
2.2266e-39
6.00294e-39
1.20994e-39
3.96006e-41
7.26869e-43
9.3563e-45
2.22761e-79
8.76197e-77
3.29148e-74
1.17537e-71
3.97821e-69
1.27176e-66
3.82424e-64
1.07666e-61
2.82321e-59
6.85544e-57
1.53158e-54
3.12383e-52
5.75703e-50
9.44237e-48
1.34591e-45
1.60551e-43
1.50964e-41
1.01561e-39
4.12998e-38
7.2726e-37
2.06782e-36
3.9962e-37
1.33022e-38
2.41967e-40
3.05562e-42
5.41871e-77
2.14975e-74
8.15478e-72
2.94373e-69
1.00816e-66
3.26412e-64
9.95109e-62
2.84414e-59
7.58586e-57
1.87886e-54
4.29764e-52
9.01479e-50
1.7163e-47
2.9173e-45
4.31066e-43
5.30915e-41
5.10665e-39
3.45969e-37
1.38203e-35
2.34791e-34
7.24861e-34
1.29576e-34
4.35705e-36
7.77877e-38
9.53619e-40
1.21445e-74
4.86667e-72
1.86674e-69
6.82052e-67
2.3664e-64
7.76945e-62
2.40499e-59
6.99226e-57
1.90229e-54
4.82426e-52
1.13526e-49
2.46255e-47
4.86909e-45
8.61161e-43
1.32158e-40
1.68004e-38
1.65064e-36
1.12638e-34
4.45555e-33
7.59718e-32
2.57633e-31
4.23695e-32
1.41838e-33
2.45061e-35
2.87506e-37
2.48961e-72
1.00913e-69
3.91895e-67
1.45096e-64
5.10596e-62
1.70231e-59
5.36006e-57
1.5893e-54
4.42595e-52
1.1545e-49
2.8098e-47
6.33513e-45
1.30596e-42
2.40723e-40
3.83299e-38
5.01487e-36
5.02074e-34
3.46079e-32
1.37791e-30
2.46637e-29
9.01157e-29
1.41669e-29
4.63495e-31
7.64118e-33
8.46265e-35
4.62544e-70
1.89879e-67
7.47409e-65
2.80716e-62
1.00314e-59
3.40144e-57
1.09183e-54
3.31178e-52
9.47919e-50
2.55551e-47
6.46308e-45
1.52011e-42
3.27132e-40
6.27456e-38
1.03252e-35
1.38441e-33
1.41305e-31
9.97069e-30
4.13845e-28
7.96971e-27
2.9669e-26
4.7524e-27
1.49832e-28
2.34186e-30
2.43247e-32
7.69643e-68
3.20324e-65
1.27925e-62
4.879e-60
1.77276e-57
6.12428e-55
2.00909e-52
6.25531e-50
1.84774e-47
5.16973e-45
1.36294e-42
3.34721e-40
7.50539e-38
1.4911e-35
2.52236e-33
3.46401e-31
3.65614e-29
2.74719e-27
1.27774e-25
2.53027e-24
8.79227e-24
1.52605e-24
4.59999e-26
6.84167e-28
6.70041e-30
1.12919e-65
4.76894e-63
1.93386e-60
7.49664e-58
2.77305e-55
9.7782e-53
3.28665e-50
1.05367e-47
3.22241e-45
9.37947e-43
2.579e-40
6.59894e-38
1.53425e-35
3.1394e-33
5.45485e-31
7.7932e-29
8.88918e-27
7.65942e-25
4.37401e-23
6.99466e-22
2.21987e-21
4.4006e-22
1.26908e-23
1.81504e-25
1.70162e-27
1.43043e-63
6.13378e-61
2.527e-58
9.96354e-56
3.75591e-53
1.3538e-50
4.67106e-48
1.54495e-45
4.89832e-43
1.48283e-40
4.24121e-38
1.1251e-35
2.69743e-33
5.68228e-31
1.03119e-28
1.60641e-26
2.13042e-24
2.23707e-22
1.58042e-20
1.29996e-19
4.2575e-19
9.5597e-20
3.0031e-21
4.20184e-23
3.79812e-25
1.51949e-61
6.61628e-59
2.76936e-56
1.11066e-53
4.26757e-51
1.57285e-48
5.57191e-46
1.90057e-43
6.23663e-41
1.95671e-38
5.79165e-36
1.58473e-33
3.91933e-31
8.64909e-29
1.72006e-26
3.14508e-24
5.09223e-22
6.03335e-20
4.76293e-18
2.235e-17
7.76826e-17
1.5157e-17
6.62501e-19
9.31943e-21
7.29691e-23
1.29688e-59
5.72982e-57
2.43407e-54
9.91612e-52
3.87699e-49
1.45784e-46
5.28685e-44
1.85223e-41
6.25708e-39
2.02208e-36
6.16269e-34
1.74161e-31
4.52402e-29
1.09613e-26
2.56487e-24
5.7509e-22
9.79856e-20
1.08805e-17
3.57704e-16
2.17266e-15
2.10453e-14
5.24818e-15
2.07587e-16
2.74766e-18
1.34989e-20
8.31575e-58
3.71836e-55
1.59778e-52
6.58342e-50
2.60472e-47
9.92446e-45
3.65433e-42
1.30307e-39
4.49144e-37
1.4859e-34
4.67144e-32
1.38887e-29
3.95593e-27
1.11554e-24
3.13869e-22
7.39152e-20
1.16203e-17
1.92756e-16
5.18352e-14
3.3823e-11
9.97987e-09
9.87717e-10
2.44155e-13
4.87928e-16
2.68281e-18
3.55767e-56
1.59991e-53
6.89827e-51
2.84529e-48
1.12463e-45
4.27662e-43
1.57316e-40
5.62609e-38
1.96039e-35
6.64989e-33
2.19667e-30
7.1181e-28
2.28591e-25
7.18769e-23
2.06913e-20
4.48614e-18
2.32058e-16
8.93164e-14
6.91538e-09
0.00174768
0.0165592
0.00783722
4.2361e-06
3.09652e-13
1.30443e-16
7.92606e-55
3.52204e-52
1.49288e-49
6.02183e-47
2.31795e-44
8.5763e-42
3.08833e-39
1.09961e-36
3.92197e-34
1.40447e-31
4.99732e-29
1.72443e-26
5.39281e-24
1.33908e-21
2.58496e-19
6.16728e-17
6.52756e-15
2.3244e-10
0.00395379
0.240219
0.376052
0.326722
0.0442099
3.66658e-07
1.48518e-14
2.42269e-54
1.04536e-51
4.33513e-49
1.73235e-46
6.71978e-44
2.55508e-41
9.61079e-39
3.58805e-36
1.31472e-33
4.65011e-31
1.55932e-28
4.80874e-26
1.32679e-23
3.17358e-21
6.87373e-19
1.74756e-16
5.62707e-14
2.30209e-07
0.046865
0.415611
0.502956
0.468372
0.199796
0.000154197
2.03975e-13
2.68104e-56
1.1772e-53
5.09401e-51
2.11041e-48
8.42614e-46
3.26651e-43
1.24188e-40
4.74871e-38
2.96926e-35
1.44663e-31
5.14661e-29
1.72413e-26
5.12008e-24
1.28308e-21
2.3989e-19
3.93743e-17
1.47327e-14
1.47753e-08
0.0206194
0.369493
0.467217
0.419796
0.0984298
8.84728e-06
2.60091e-14
5.78288e-59
2.39144e-58
5.05256e-55
2.3558e-52
1.02344e-49
4.26979e-47
1.73211e-44
2.0473e-41
2.38248e-37
2.09761e-33
4.34098e-31
2.16909e-28
7.41563e-26
2.2229e-23
5.30359e-21
7.91729e-19
5.14835e-17
6.94709e-13
1.83219e-05
0.0579655
6.21315e-18
1.18923e-61
7.73382e-63
4.86971e-63
5.9721e-42
4.61495e-37
1.34177e-33
6.07952e-33
2.00515e-30
6.98393e-28
2.20719e-25
4.34656e-23
1.88947e-20
1.39076e-16
4.03731e-13
4.91921e-07
6.74821e-23
2.34119e-64
6.68299e-66
3.71976e-68
3.50471e-46
5.08163e-41
6.06497e-38
2.18134e-38
4.76972e-36
1.52991e-33
4.49223e-31
1.45954e-28
4.82387e-26
6.95966e-22
3.19992e-17
9.70601e-15
1.80824e-17
4.62361e-22
6.63482e-27
4.43585e-31
1.14153e-27
4.45234e-67
1.22116e-68
5.76365e-68
3.11316e-65
1.61332e-62
8.24204e-60
1.89538e-56
9.4341e-52
4.84752e-47
8.67823e-43
3.22158e-42
1.83411e-43
9.79032e-43
3.14337e-40
7.05097e-38
1.08977e-35
3.02685e-33
1.56047e-26
9.24596e-22
3.69936e-19
3.89566e-21
1.16525e-23
2.55973e-26
4.87842e-29
3.3314e-30
2.14907e-68
1.1285e-65
5.96547e-63
3.02045e-60
1.45654e-57
6.64755e-55
2.85079e-52
1.13638e-49
4.12446e-47
4.64761e-45
2.72811e-45
2.79234e-46
2.61911e-44
4.15759e-42
7.62848e-40
1.77791e-36
5.37131e-32
1.56854e-27
2.23971e-23
1.40519e-21
2.08653e-23
9.74358e-26
2.97768e-28
7.43632e-31
7.98706e-33
6.98957e-70
3.70451e-67
1.74582e-64
7.7088e-62
3.13676e-59
1.14481e-56
3.55551e-54
8.13935e-52
1.57861e-49
1.6045e-47
4.48836e-46
2.32931e-44
1.36627e-41
7.63016e-39
4.06303e-36
2.1002e-33
1.08447e-30
5.71197e-28
7.46446e-26
3.62663e-24
6.4971e-26
3.03293e-28
1.07605e-30
3.18694e-33
1.96917e-35
5.95479e-72
2.75917e-69
1.1867e-66
4.72681e-64
1.71092e-61
5.46959e-59
1.477e-56
3.15157e-54
5.31833e-52
5.14155e-50
2.21731e-48
5.19404e-46
2.93516e-43
1.39347e-40
5.84861e-38
2.08019e-35
5.42207e-33
1.44139e-30
1.83642e-28
7.75924e-27
1.65962e-28
8.67996e-31
3.49594e-33
1.17274e-35
5.4344e-38
1.81619e-88
7.02539e-86
2.58309e-83
8.98692e-81
2.95083e-78
9.11551e-76
2.63922e-73
7.1289e-71
1.78644e-68
4.12508e-66
8.70577e-64
1.66276e-61
2.83952e-59
4.26985e-57
5.53981e-55
6.02466e-53
5.25501e-51
3.41952e-49
1.45816e-47
3.0982e-46
8.68782e-46
1.63637e-46
5.08697e-48
9.35205e-50
1.23225e-51
5.45965e-86
2.11825e-83
7.8216e-81
2.73624e-78
9.04523e-76
2.81658e-73
8.22961e-71
2.24571e-68
5.69094e-66
1.33024e-63
2.84515e-61
5.51503e-59
9.5758e-57
1.46718e-54
1.94345e-52
2.15954e-50
1.92018e-48
1.26323e-46
5.34372e-45
1.08497e-43
3.0302e-43
5.87853e-44
1.85411e-45
3.39773e-47
4.42815e-49
1.53716e-83
5.99029e-81
2.22447e-78
7.83624e-76
2.61181e-73
8.20951e-71
2.42393e-68
6.69072e-66
1.71682e-63
4.06814e-61
8.83373e-59
1.7419e-56
3.0845e-54
4.83333e-52
6.56283e-50
7.4779e-48
6.79241e-46
4.51604e-44
1.88758e-42
3.63283e-41
1.02624e-40
2.00579e-41
6.43042e-43
1.17412e-44
1.51159e-46
4.0249e-81
1.57772e-78
5.90103e-76
2.09649e-73
7.05562e-71
2.24181e-68
6.69762e-66
1.87254e-63
4.87232e-61
1.17252e-58
2.59112e-56
5.21434e-54
9.4551e-52
1.52233e-49
2.12862e-47
2.49595e-45
2.32011e-43
1.55858e-41
6.42578e-40
1.17423e-38
3.42934e-38
6.52212e-39
2.12597e-40
3.85645e-42
4.88544e-44
9.7541e-79
3.85195e-76
1.45335e-73
5.21519e-71
1.77476e-68
5.70781e-66
1.72777e-63
4.8997e-61
1.29507e-58
3.17251e-56
7.15771e-54
1.47612e-51
2.75439e-49
4.57972e-47
6.62221e-45
8.01078e-43
7.62499e-41
5.17435e-39
2.10865e-37
3.72375e-36
1.15092e-35
2.0495e-36
6.77023e-38
1.21202e-39
1.49912e-41
2.1752e-76
8.66759e-74
3.30402e-71
1.19922e-68
4.13211e-66
1.34686e-63
4.13644e-61
1.19182e-58
3.20709e-56
8.02193e-54
1.85526e-51
3.9401e-49
7.60466e-47
1.31151e-44
1.96627e-42
2.45488e-40
2.39038e-38
1.63874e-36
6.64402e-35
1.17259e-33
3.88931e-33
6.35857e-34
2.10871e-35
3.68604e-37
4.39925e-39
4.43179e-74
1.78468e-71
6.88314e-69
2.53031e-66
8.83857e-64
2.92355e-61
9.12348e-59
2.67624e-56
7.35249e-54
1.88494e-51
4.48948e-49
9.8675e-47
1.97837e-44
3.54761e-42
5.5144e-40
7.09141e-38
7.0499e-36
4.89052e-34
1.99463e-32
3.65013e-31
1.29324e-30
1.98202e-31
6.50005e-33
1.09604e-34
1.24603e-36
8.17525e-72
3.33195e-69
1.30188e-66
4.85287e-64
1.7205e-61
5.78285e-59
1.837e-56
5.49957e-54
1.54779e-51
4.08416e-49
1.00638e-46
2.29828e-44
4.7968e-42
8.93944e-40
1.43664e-37
1.89657e-35
1.92398e-33
1.35984e-31
5.68034e-30
1.0942e-28
4.04836e-28
6.15914e-29
1.97044e-30
3.18121e-32
3.41792e-34
1.34959e-69
5.5741e-67
2.20894e-64
8.35817e-62
3.01097e-59
1.02988e-56
3.33696e-54
1.02246e-51
2.95839e-49
8.0667e-47
2.06354e-44
4.90501e-42
1.06482e-39
2.0555e-37
3.40113e-35
4.6025e-33
4.79619e-31
3.52494e-29
1.561e-27
3.0284e-26
1.13185e-25
1.82496e-26
5.68461e-28
8.80499e-30
8.96353e-32
1.96348e-67
8.22695e-65
3.30966e-62
1.27234e-59
4.66239e-57
1.62529e-54
5.38276e-52
1.69263e-49
5.05049e-47
1.42687e-44
3.79381e-42
9.37505e-40
2.10926e-37
4.19858e-35
7.13985e-33
9.97499e-31
1.09367e-28
8.74879e-27
4.3899e-25
7.30337e-24
2.67735e-23
4.79591e-24
1.48262e-25
2.22628e-27
2.17255e-29
2.46611e-65
1.04905e-62
4.28696e-60
1.6755e-57
6.25086e-55
2.22352e-52
7.53966e-50
2.43778e-47
7.51285e-45
2.19992e-42
6.06923e-40
1.55326e-37
3.60529e-35
7.38716e-33
1.30102e-30
1.92631e-28
2.33576e-26
2.1733e-24
1.33255e-22
1.42964e-21
5.11848e-21
1.01631e-21
3.33215e-23
4.90745e-25
4.6383e-27
2.59836e-63
1.1225e-60
4.66028e-58
1.85197e-55
7.03563e-53
2.55464e-50
8.87202e-48
2.94945e-45
9.3788e-43
2.83901e-40
8.0926e-38
2.1351e-35
5.10495e-33
1.08541e-30
2.03408e-28
3.3585e-26
4.76861e-24
5.30316e-22
3.97122e-20
2.47291e-19
8.49505e-19
1.58064e-19
6.4758e-21
9.26518e-23
8.33381e-25
2.20276e-61
9.65866e-59
4.07057e-56
1.64294e-53
6.34695e-51
2.34833e-48
8.33361e-46
2.83952e-43
9.27634e-41
2.88761e-38
8.46321e-36
2.29874e-33
5.70795e-31
1.2932e-28
2.70881e-26
5.24482e-24
8.67455e-22
1.06455e-19
8.7758e-18
5.86739e-17
1.73602e-16
2.22158e-17
1.25725e-18
1.62489e-20
1.2337e-22
1.40781e-59
6.25176e-57
2.66678e-54
1.08914e-51
4.2588e-49
1.59655e-46
5.75068e-44
1.99326e-41
6.63949e-39
2.1126e-36
6.35621e-34
1.79133e-31
4.73142e-29
1.19173e-26
2.90339e-24
6.47569e-22
1.12692e-19
1.26017e-17
3.92464e-16
4.02101e-15
3.48707e-14
1.31809e-14
2.91911e-16
2.91433e-18
1.50763e-20
6.0593e-58
2.70863e-55
1.16084e-52
4.754e-50
1.86107e-47
6.98004e-45
2.51762e-42
8.76627e-40
2.95075e-37
9.57451e-35
2.97833e-32
8.86483e-30
2.54836e-27
7.1794e-25
1.94411e-22
4.53307e-20
7.26262e-18
2.11805e-16
2.72435e-14
1.41305e-11
3.40892e-09
3.91308e-10
1.01511e-13
2.01792e-16
9.5183e-19
1.39905e-56
6.20606e-54
2.62757e-51
1.05797e-48
4.05468e-46
1.48584e-43
5.25257e-41
1.81245e-38
6.1619e-36
2.06191e-33
6.6786e-31
2.02951e-28
5.54264e-26
1.29696e-23
2.62907e-21
5.5242e-19
1.27032e-16
1.01082e-14
4.66154e-11
1.45589e-05
0.000556464
0.000125154
1.36535e-08
2.98482e-14
1.20613e-17
4.83953e-56
2.09235e-53
8.67236e-51
3.44536e-48
1.31758e-45
4.88363e-43
1.76814e-40
6.28287e-38
2.17491e-35
7.2317e-33
2.27152e-30
6.52954e-28
1.67729e-25
3.84153e-23
8.48628e-21
2.13585e-18
5.79832e-16
1.51703e-13
3.17825e-08
0.00103181
0.00872557
0.00321672
3.80025e-06
2.71892e-13
1.71402e-17
5.31901e-58
2.31506e-55
1.00649e-52
4.16361e-50
1.65081e-47
6.30005e-45
2.33071e-42
8.5807e-40
5.35522e-37
2.31111e-33
7.30305e-31
2.2303e-28
6.1843e-26
1.50871e-23
3.03292e-21
4.91254e-19
9.03182e-17
4.89899e-14
2.54945e-09
0.000286773
0.00372744
0.00109205
2.27649e-07
1.70167e-14
2.61437e-18
1.14501e-60
4.70107e-60
1.00475e-56
4.66332e-54
2.02448e-51
8.43043e-49
3.40587e-46
4.3553e-43
5.00924e-39
4.64911e-35
1.43335e-31
5.17097e-29
8.17265e-27
1.2021e-24
1.56296e-22
1.81707e-20
2.22477e-18
4.21428e-16
2.74543e-13
3.81152e-08
3.24114e-07
4.55527e-08
6.59394e-13
1.21854e-19
3.57709e-22
2.3525e-63
1.49752e-64
9.72057e-65
5.40621e-43
1.11884e-37
9.31598e-34
3.24537e-31
3.05615e-29
7.54645e-27
2.17558e-24
2.69535e-22
2.59381e-20
3.56473e-18
5.07283e-17
2.63738e-14
1.97076e-16
1.74636e-17
1.78965e-22
8.7072e-28
1.08802e-26
4.63499e-66
1.31525e-67
7.34973e-70
5.69586e-46
3.57862e-40
2.88133e-36
8.67901e-36
7.30337e-34
2.99944e-31
5.78966e-29
7.96858e-27
7.74878e-25
4.85799e-23
1.56523e-20
5.91482e-19
3.60563e-22
2.29447e-24
1.46606e-27
3.04561e-31
1.60043e-30
1.34583e-68
6.77753e-69
3.90979e-66
2.27991e-63
1.2874e-60
7.2342e-58
1.69428e-54
7.7949e-50
3.86166e-45
6.68167e-41
7.22218e-39
4.7743e-40
2.12241e-38
8.5603e-36
1.44966e-33
1.96129e-31
2.07234e-29
2.9486e-27
3.9826e-23
5.91395e-22
7.67664e-24
2.59353e-26
6.65185e-29
1.4834e-31
6.34505e-33
5.0704e-67
2.94489e-64
1.65689e-61
8.98672e-59
4.68287e-56
2.33801e-53
1.11677e-50
5.10477e-48
2.21122e-45
3.05415e-43
1.7871e-41
5.83941e-42
8.32346e-40
1.18712e-37
1.64402e-35
2.41525e-33
1.15473e-30
7.34557e-28
1.19711e-25
3.69216e-24
6.96037e-26
2.53634e-28
8.69503e-31
2.58954e-33
2.19535e-35
1.71747e-68
8.98702e-66
4.48147e-63
2.10314e-60
9.1424e-58
3.58595e-55
1.20328e-52
2.94859e-50
7.28604e-48
9.72609e-46
4.30951e-44
2.43865e-44
3.60846e-42
5.47642e-40
9.18913e-38
2.08646e-35
7.09269e-33
2.3568e-30
3.17225e-28
1.0552e-26
2.211e-28
1.05916e-30
4.07745e-33
1.34371e-35
7.56309e-38
1.31173e-70
6.29814e-68
2.85332e-65
1.20201e-62
4.62273e-60
1.57954e-57
4.602e-55
1.08342e-52
2.20673e-50
2.77644e-48
1.0092e-46
8.77135e-47
1.38169e-44
2.35992e-42
4.81742e-40
1.19063e-37
3.09167e-35
7.06775e-33
8.2815e-31
2.57183e-29
6.35752e-31
3.64207e-33
1.58806e-35
5.74968e-38
2.65259e-40
2.25838e-90
8.74014e-88
3.21216e-85
1.11598e-82
3.6555e-80
1.12546e-77
3.24481e-75
8.72108e-73
2.17312e-70
4.98675e-68
1.04524e-65
1.9812e-63
3.3541e-61
4.993e-59
6.40225e-57
6.8708e-55
5.91121e-53
3.80175e-51
1.61194e-49
3.46923e-48
1.01308e-47
1.8482e-48
5.6858e-50
1.0456e-51
1.38427e-53
6.79044e-88
2.63299e-85
9.70651e-83
3.38664e-80
1.11545e-77
3.45757e-75
1.00485e-72
2.72557e-70
6.86134e-68
1.59226e-65
3.37848e-63
6.48981e-61
1.11499e-58
1.68711e-56
2.20245e-54
2.40859e-52
2.10887e-50
1.37182e-48
5.7925e-47
1.20092e-45
3.48149e-45
6.57535e-46
2.04825e-47
3.7537e-49
4.91663e-51
1.91016e-85
7.43034e-83
2.75126e-80
9.65395e-78
3.20197e-75
1.00072e-72
2.93585e-70
8.04726e-68
2.04928e-65
4.81565e-63
1.03589e-60
2.02028e-58
3.53058e-56
5.44587e-54
7.26214e-52
8.11903e-50
7.25048e-48
4.77054e-46
1.99851e-44
3.95077e-43