/*--------------------------------*- C++ -*----------------------------------*\
  =========                 |
  \\      /  F ield         | OpenFOAM: The Open Source CFD Toolbox
   \\    /   O peration     | Website:  https://openfoam.org
    \\  /    A nd           | Version:  9
     \\/     M anipulation  |
\*---------------------------------------------------------------------------*/
FoamFile
{
    format      ascii;
    class       surfaceScalarField;
    location    "0.00065";
    object      phi;
}
// * * * * * * * * * * * * * * * * * * * * * * * * * * * * * * * * * * * * * //

dimensions      [0 3 -1 0 0 0 0];

internalField   nonuniform List<scalar> 
19210
(
-5.56855e-06
-1.18969e-06
-1.81437e-05
4.32386e-07
3.6714e-07
-3.48439e-11
-1.3217e-09
2.43094e-11
-2.27363e-10
-0.000223016
-8.96535e-06
-0.000731131
1.11457e-05
3.27035e-06
2.75892e-09
6.64778e-10
-9.42407e-10
-4.01216e-08
-2.71886e-08
-5.00706e-11
-8.26887e-10
-1.74394e-08
4.93632e-10
-6.78355e-09
-1.09765e-09
-1.36361e-10
1.70073e-11
-6.77174e-08
3.91129e-09
-7.31475e-10
-6.5031e-08
-1.75509e-08
1.08139e-08
-5.74785e-07
-8.80171e-07
-1.25907e-06
-1.33942e-08
-2.10573e-06
-4.05653e-11
-1.96279e-09
7.23261e-09
-1.68815e-07
-2.02243e-07
-1.38207e-08
-3.09556e-09
3.84438e-10
-8.24919e-08
-5.97838e-08
7.66853e-09
1.24787
1.46933
13.5673
-0.71346
-16.7522
-0.675071
-0.230182
0.0169253
0.015841
12.4585
1.952
7.29774
-2.70721
-6.72703
-13.3748
-5.19684
-0.853076
6.80777
1.44035
4.79447
-10.303
-0.0142961
0.00418776
-0.0357056
0.00181019
-0.134111
0.00185723
1.82414
17.1892
9.59556
-8.45704
-17.3945
-9.44973
0.504169
-5.94153
1.33563
0.00107576
-0.0177255
-0.156567
-0.0422925
0.00245013
-5.39553
-0.759613
8.23709
0.622228
5.28508
-10.5375
-0.0630004
0.000217492
-0.0178174
0.00101401
-0.000223743
-0.0164147
-0.00384533
8.67765e-05
-2.36355
-1.6203
0.666141
0.556617
0.365522
-5.62844
-1.69397e-05
-0.000446983
-9.24176e-05
2.33592e-06
-3.46766e-07
-1.70315e-06
-5.23535e-07
2.36887e-07
3.89999e-07
-12.6596
0.688177
2.81679
-0.74125
3.59376
-3.02411
2.06549
12.8485
-13.4302
2.54553
-1.92201
-12.1302
2.50401
11.208
1.13401
-3.65721
-1.0626
4.86238
-10.6754
-11.3315
10.0816
0.735444
-4.87258
-0.822227
-2.55608
11.2922
-4.33068
3.35107
5.6535
-10.7744
-11.346
-1.08665
9.66185
1.87908
-4.81179
1.5496
13.8491
2.40077
-16.6877
1.20018
12.7083
2.51414
-0.962016
-13.8291
12.9088
2.1826
2.58345
-13.9795
1.10491
2.23936
13.0036
-0.951785
2.40341
1.92224
13.1414
-1.07365
1.79127
3.52064
12.5388
3.32845
12.4151
-0.974679
-6.25968
2.77799
9.55299
-10.404
6.08115
2.51334
4.42564
12.2913
-12.1546
-11.3393
2.09961
2.73664
-5.16798
5.09703
-3.90303
3.66485
-8.84398
3.21214
-4.44615
10.5578
-4.97824
5.10202
5.8961
-10.6519
-0.620512
0.0304412
-0.226198
-0.0840995
0.0146397
-8.78722
-2.76466
2.32971
-3.2588
1.63718
1.68147
13.5581
-15.2809
-2.84411
12.377
3.15357
3.51781
-12.4764
12.7614
2.77537
-13.3322
-2.65085
2.92424
3.47526
12.6862
2.66821
13.0851
2.56056
3.77207
12.5626
3.96381
3.43106
12.3412
0.957717
-4.58834
-0.966341
5.8275
11.3226
-3.74844
1.7695
-10.9422
5.04154
-4.71753
1.39519
11.3047
5.80672
1.1621
11.6906
-1.03479
-11.808
11.9456
1.98991
-12.1324
-1.02187
1.58779
11.891
11.7831
-0.978531
0.898717
2.99607
-0.872331
-12.5784
2.75832
1.14499
3.03945
1.46747
-0.873786
11.9419
1.37878
4.01835
-12.0736
0.680282
3.46532
-0.730228
4.00098
-0.87447
1.0237
3.35692
11.4544
-3.97951
-10.9588
5.33204
2.28627
-4.89411
5.87546
-5.00007
3.25358
11.0838
5.89935
-2.71385
11.8877
3.44591
-11.4579
12.0823
-12.1326
2.4384
12.0141
3.3721
11.8516
4.43687
12.0039
3.51852
-11.5472
2.81535
11.8286
5.87262
-11.3659
2.99521
4.59247
12.3414
11.4397
3.88036
5.79032
-11.1849
4.5273
4.03011
11.9701
3.02142
5.35106
11.6258
3.9763
5.11521
11.1112
-12.5596
2.69161
-2.39477
3.06441
3.37033
3.0832
11.8407
2.30353
4.03894
-1.7011
-11.5281
2.96613
2.23884
3.24374
3.98127
3.23676
11.0207
-4.68534
-10.7895
5.92559
-3.96756
-4.70702
4.13124
5.00167
-4.99534
10.406
5.64444
4.45952
11.5539
-11.0017
11.1339
5.47168
-10.9703
4.34457
11.3596
4.75079
10.2527
0.46426
-3.79843
3.42852
-0.632663
9.83815
-4.83238
5.28357
-3.60331
0.647883
3.12189
-0.829534
11.0967
1.27259
-11.2848
0.602186
-0.707506
-0.86583
0.860518
2.98703
11.1827
-11.158
-6.07329
8.86324
3.49837
-10.1287
5.61039
10.7906
3.9822
-10.8995
-5.38964
1.94846
5.44128
3.37676
2.79386
9.85897
4.93909
3.47501
8.97063
2.1889
3.48056
2.2981
1.00146
-3.40883
2.75304
8.82126
-4.66591
2.53471
4.88947
-2.95434
1.14063
1.99405
10.9745
2.15353
-1.39561
-10.5183
1.79498
2.97639
2.96228
4.11998
-10.4955
2.23686
2.36044
3.85837
3.7623
-9.321
1.36142
1.61068
2.62003
4.27856
7.93274
3.16553
3.81807
1.22849
0.825332
1.66935
5.23189
-2.93303
-5.67665
9.38049
5.90924
-5.79638
-11.3065
2.48685
0.461741
-4.08447
10.4232
2.16484
-3.023
7.15112
-12.6198
-0.972598
-5.37409
0.169194
0.44025
-2.68017
2.95423
0.651612
4.62964
-10.1736
15.6835
8.84343
-7.79188
-15.9625
2.20321
8.59024
-8.0619
7.49622
-7.26987
14.207
-2.25312
9.24616
-15.3437
1.74618
-15.8665
8.26374
6.62111
10.2462
-16.647
0.262938
1.56538
7.60868
5.05451
-10.3734
1.28404
0.345029
-0.407204
2.80215
0.545042
2.9574
-8.84109
-3.21972
0.0636617
0.217621
3.38128
-9.18883
0.0679695
0.172854
9.15921
-4.83793
-10.1207
5.31913
-2.67284
-1.76644
0.581716
0.372067
-3.79508
4.26475
3.34107
-5.73912
7.60669
-9.65543
4.78104
10.1999
-10.4725
4.1489
7.29818
1.71823
1.07879
6.28662
-4.23692
4.10255
0.51346
-1.98506
0.781382
-0.563984
0.103932
0.0722678
-9.13693
1.46478
3.4339
5.43441
2.98252
0.310817
0.483234
0.862638
5.21212
4.1
1.89778
-9.9478
0.433339
0.353778
2.26645
0.853685
2.44086
-8.53741
-0.0730923
-1.37727
0.0339832
0.0514731
0.118535
0.924659
1.33994
-7.64927
2.08707
-0.793869
3.24156
17.2251
-17.0029
0.934898
2.26579
14.9891
-15.5869
-13.3801
-1.51604
2.98287
-19.8607
1.22911
4.32468
1.02116
17.6531
-6.67397
8.07095
-16.8381
-18.1728
1.49422
18.1155
-7.15982
13.3833
1.24233
-4.28643
-1.92799
5.65654
-12.4148
-13.874
13.6351
1.70264
-5.64887
-2.40002
1.55102
13.8037
-16.2166
-1.14634
13.0057
2.60804
-13.7225
14.2433
-2.11119
3.16767
-14.3961
-1.13792
2.26949
13.5549
2.64822
-2.01903
15.2146
1.16888
-1.9762
3.79624
14.8988
3.35123
13.0325
4.00226
19.2238
-18.255
0.997467
18.8152
5.29066
-17.9278
16.8512
4.35972
-16.2179
1.13118
4.24262
19.8324
3.5588
18.0995
-1.07533
4.87811
17.7749
5.63839
19.4202
1.41118
-5.10639
-2.01389
6.51514
11.7642
-3.70835
4.9839
-11.0255
-4.6409
11.961
6.00638
-1.25225
12.1508
-12.1487
13.7021
-2.03666
-13.3751
1.24099
-1.94278
14.4576
12.4229
-1.27001
3.0064
-15.3657
3.35931
-2.24817
3.21084
-2.00013
14.9879
1.36566
-2.06395
4.42571
-1.63686
-12.8355
3.77215
-2.38037
4.45537
4.08762
16.0774
-5.69927
7.11854
-15.0777
1.09921
-7.03372
8.38398
-6.26001
16.6883
7.5853
1.11913
18.2695
-17.4645
16.5152
-15.6256
-1.08557
17.2925
18.8468
1.17866
4.35992
-18.2717
3.93932
3.89396
17.8917
-1.19737
5.2308
1.35166
-19.4653
5.74399
5.25836
5.79402
1.85748
-5.29353
-2.79168
11.1439
-5.11094
-4.239
14.4162
1.50172
-2.18723
-1.76593
-12.1232
-2.56575
16.6216
-6.52474
1.93272
-7.03097
-6.44274
17.3324
-1.30417
1.61429
-18.8599
-2.74467
0.565381
0.398978
-4.39895
0.342633
1.81686
2.58445
1.78651
1.92831
-0.104029
-0.367789
0.00651729
0.00614538
0.155044
0.303121
0.208162
1.44584
-10.1143
-14.0163
8.14481
-5.544
-3.29114
0.222391
0.437612
-8.66479
2.26708
-12.3381
5.48816
11.5735
-2.31112
3.07305
-14.3162
1.12951
-13.7775
1.51933
-15.6822
2.41754
2.54081
-8.7803
0.0728604
0.117546
0.0141751
0.00938396
-0.299026
0.106387
0.0410023
0.0674968
-1.59289
-0.556728
0.00628485
0.0117443
0.445522
-5.07466
0.000751796
0.00129395
-1.16351
-0.457678
0.0355852
-0.465356
-1.18123
0.0496014
-2.16024
0.120857
-5.21876
-7.88591
1.1141
5.69271
1.65195
-11.1751
-0.212165
-1.2374
0.0189445
0.350356
-7.57253
-0.00588736
-0.00147611
0.000266583
0.000312879
0.440574
-1.33291
0.322861
-0.0395955
0.00683606
1.2288
0.747517
-0.0303127
-0.127681
0.00165148
0.0681624
0.0116777
-0.561644
-1.07835
0.0460254
-0.0497889
-0.0138873
0.000202943
0.000799386
-0.455266
0.0109387
-0.883998
0.0357386
-0.151846
0.54627
0.17226
-4.935
-0.649549
0.00467813
-5.5197
0.00455624
-0.0356482
-0.00930724
0.000539636
-0.0119592
-0.169666
0.00491706
0.0107274
-0.418196
-0.340924
0.024759
-0.692781
0.428281
0.211996
-4.1663
-0.00479481
-0.224903
0.00192304
0.110986
-2.57687
-0.000715459
3.5752e-05
3.90322e-05
0.0826014
0.0466454
-1.3111
0.000863015
0.00876958
0.00312727
0.0043327
-0.265587
-6.00263e-05
-0.000381352
3.74e-06
3.57345e-06
8.15669e-05
0.000168671
-0.0151209
0.000159019
-0.00379816
-0.000827439
4.78406e-05
-0.000914095
-0.00479346
0.000258471
0.000111514
-0.018466
-0.041294
0.00233027
-0.126743
-0.0206198
0.00865702
0.00250207
-0.264179
-0.0637524
0.000362234
-1.09572
4.54585e-05
-0.00168008
2.68813e-05
-7.74668e-06
-0.000436197
0.000494599
0.000170606
-0.0274219
0.00117198
-0.0569104
-0.000393223
6.31776e-05
1.4504e-05
4.77638e-05
-0.00229045
-1.25509e-05
-3.6014e-07
-2.66962e-05
1.51364e-07
-2.90527e-07
5.4527e-06
1.98563e-05
-0.0010086
-0.000160607
2.44314e-06
-3.27382e-05
1.18051e-05
4.97409e-06
-0.000745199
0.000106447
-0.00639293
-1.0943e-06
8.14696e-07
3.80894e-07
5.277e-07
-2.44221e-05
-5.82127e-06
8.37102e-08
4.2278e-06
-0.000220452
8.80818e-08
-2.8884e-05
-6.15844e-06
1.02126e-06
8.97061e-06
-0.000294052
-0.00120655
2.18801e-05
-1.22883e-05
9.72996e-07
-4.89029e-05
1.46474e-06
0.000582081
0.000187207
-0.0239337
-3.85651e-06
-2.48806e-05
8.7015e-07
1.36675e-05
-0.00100397
-0.0298739
0.000421529
-0.000598913
0.000682802
0.000346803
-0.00447617
-9.0979e-09
-2.21254e-09
-2.3912e-09
-6.97697e-09
5.44187e-08
-1.53023e-07
4.70838e-08
2.69638e-08
-1.51485e-07
-3.58882e-07
-6.47083e-07
-1.79287e-07
-2.046e-07
-2.56817e-07
-3.92491e-07
2.31741e-09
5.42167e-08
1.00125e-07
-8.46647e-07
-6.38937e-07
-5.43705e-08
-3.03284e-08
-2.43563e-09
-3.2546e-09
-2.91072e-08
2.4773e-09
2.90759e-10
2.38112e-09
-0.000885658
-4.32773e-06
2.82875e-05
-0.00134524
1.2463e-05
4.30672e-05
0.000184489
0.00110788
-0.059946
-0.0276046
0.0019694
-0.0495893
0.000499926
-0.0222882
0.00158711
3.54626e-05
-0.00165328
5.36262e-05
-9.68427e-08
8.24796e-07
-3.07423e-05
1.06449e-06
2.45233e-07
-9.95845e-07
-1.12634e-08
2.90835e-08
-8.6588e-07
3.60887e-08
-3.78822e-05
1.31838e-06
3.40139e-08
-3.33715e-08
-7.45886e-07
4.33295e-08
-0.0066891
-0.00118338
-1.33537e-05
0.000146572
4.33678e-05
9.58644e-05
-1.27758e-07
-1.48845e-06
3.09116e-07
1.17042e-07
5.10187e-07
-5.35678e-06
6.20314e-07
-2.39395e-06
9.82559e-07
-8.95624e-06
-1.80214e-09
2.88141e-07
-4.96388e-07
7.1094e-09
-1.67729e-06
4.0682e-07
8.82648e-09
-3.87257e-07
-3.87891e-07
-6.64438e-07
-2.29429e-07
-1.775e-07
-2.29284e-07
-1.80496e-07
8.08174e-08
5.50478e-08
9.98857e-08
-6.98321e-07
-5.79888e-07
-2.29898e-09
4.09968e-09
3.23363e-09
4.03723e-08
1.53979e-09
-3.52825e-07
7.26347e-09
4.07048e-09
-8.75099e-10
1.68303e-09
-4.27195e-08
2.24805e-09
-3.70654e-07
5.22071e-12
-1.28249e-11
-4.12503e-11
-7.34111e-11
-4.33837e-11
4.49951e-11
3.79252e-12
2.28484e-11
7.93676e-12
-3.99236e-13
-4.69402e-13
-3.42957e-11
1.24256e-12
-8.11817e-12
-2.08022e-11
-2.27904e-11
1.75451e-11
3.35554e-11
1.60671e-12
-7.62546e-12
-6.04725e-11
-3.24878e-11
2.89102e-12
2.59965e-11
5.90044e-11
2.3161e-11
4.32099e-13
-5.36163e-08
2.09822e-09
1.69538e-09
5.63091e-10
-1.26565e-12
-5.27884e-11
1.88383e-12
-1.00919e-12
-4.32676e-11
1.70752e-12
-6.79958e-11
-4.31788e-12
2.73381e-12
-2.4716e-11
-8.75255e-12
2.57714e-11
3.64819e-11
-4.72289e-11
-1.03793e-11
-5.56799e-12
4.56168e-12
8.52651e-14
4.32543e-12
-6.03961e-14
-4.72831e-11
-1.71839e-10
-4.84015e-11
9.77574e-12
-3.7551e-10
1.35217e-10
-6.87778e-10
5.01634e-11
-1.54305e-10
9.32037e-11
-9.81562e-10
2.61253e-10
-1.93633e-09
-6.22018e-11
2.35941e-10
2.93268e-11
3.9968e-14
-3.55271e-15
0
3.33067e-14
-3.88578e-14
-2.9754e-14
-2.9754e-14
2.98428e-13
1.03917e-13
-9.59233e-14
-1.77636e-15
3.37508e-14
-4.88498e-15
-7.54952e-15
3.19744e-14
3.81917e-14
-1.06581e-14
1.11022e-15
8.88178e-16
3.10862e-15
-8.88178e-16
0
-1.11022e-15
8.88178e-16
1.33227e-15
-4.44089e-16
3.10862e-15
-9.30688e-06
-0.000198526
-0.000334731
3.78444e-06
6.65077e-06
1.05517e-05
-0.909693
0.00815807
0.0381243
-0.570327
2.02744e-07
-7.72865e-07
1.41549e-08
-8.0054e-07
-3.25868e-05
5.67238e-08
-1.96739e-05
-1.8535
0.206989
-1.74128
-0.316821
0.156935
0.176546
0.586258
-5.71267
0.162528
-3.88438
-0.00170905
-0.000116981
9.4579e-05
-0.00499225
5.52936e-05
0.000111887
-0.00527509
0.000321424
-4.33397e-05
-0.0169269
0.000133922
0.000393252
0.0313958
-0.791988
0.0209584
-0.491904
0.000170846
0.00123654
-0.0427051
0.000999406
-0.0355628
0.000466693
3.49328e-06
-0.000950158
-2.62179e-05
-1.6214e-05
1.80867e-07
-0.000781489
9.94184e-06
6.25393
-7.22289
-2.09477
4.60877
2.63038
-0.40401
-6.38699
-7.20144
0.913263
3.8862
2.19304
0.0243812
-0.0353376
-0.601569
0.022225
0.00252518
-0.0649152
-0.000842291
-0.208922
-6.44919
-7.2602
4.1548
2.35861
-0.767403
-9.39059
1.64165
8.6857
-7.15929
-9.32881
8.71549
-7.12929
7.65434
0.866525
-7.64251
0.643685
5.95089
7.6708
1.79697
-7.69581
1.3986
5.82169
-5.52076
-1.33584
1.21231
1.45879
9.06481
-2.73867
-7.29555
3.6423
-2.46049
7.78374
-6.82477
3.10863
-6.1063
-6.89429
3.17716
1.78877
-9.28717
8.39522
-7.05667
7.52638
-7.57452
5.41228
-0.61174
0.00569755
0.0338508
-3.63657
0.11069
0.436892
0.521315
-6.28973
-3.41001
0.539178
0.292931
0.390922
5.39004
1.14607
-6.23646
0.512804
0.419371
-3.65381
0.0159059
0.0282291
-0.204235
-0.0130799
0.00978368
0.00776206
0.0057758
-2.83663
-0.468005
0.311105
-1.8735
0.263873
-1.67744
-5.49908
1.89205
-2.72361
0.388389
0.289159
4.50419
-5.98396
0.368982
0.563352
-3.0499
0.0221566
0.0176755
-0.00236993
-0.0814567
0.00219725
0.00126245
-0.0450022
-0.148263
0.00345288
0.00440585
-0.88796
-0.0328028
0.0514564
-0.849898
-0.131334
0.0880906
0.0761396
-0.834542
0.820878
-1.34051
-0.129385
0.169662
-0.582961
-0.0110828
-1.11932
0.0706872
-0.0746807
-0.236702
0.00621524
0.00786583
-1.2212
0.079768
2.16278
0.240196
0.0472556
0.280572
-1.9747
0.246479
-1.77606e-06
-0.000756593
5.79096e-06
1.81064e-05
-0.000384962
-0.00092433
2.20301e-05
-0.0200987
0.000473444
-0.0199526
0.000100127
0.00273397
0.0167277
0.0078128
0.000299338
-0.000503959
-0.000796689
2.52134e-05
1.62819e-05
-0.000368102
-0.0130449
-0.00511033
0.000147895
0.000371242
-0.0305064
-0.0129785
0.000918255
-0.00794504
-0.00035883
0.000150666
0.000238225
-0.0165467
-0.176191
0.00684874
0.019075
-0.339829
0.000582952
0.000202788
-0.0107711
0.000244923
-4.73154e-06
-0.000195579
2.06526e-06
4.63385e-06
4.78982e-06
-0.000454943
1.00632e-05
1.07349e-05
0.00490535
-0.0067425
0.00324874
-0.000242838
0.000108246
0.000209627
0.0105702
0.000474941
-19.0277
1.25232
19.0227
-4.15246
5.55877
-12.0424
0.527221
-2.75694
-0.577156
3.38277
9.24873
-2.27955
-10.5223
2.24919
-2.0511
2.32018
3.83123
3.62139
18.1459
1.46007
-17.6027
-14.6944
14.7237
1.26501
-3.08168
-2.02799
4.29754
0.849155
-1.49937
2.08123
12.6588
-12.8016
2.06645
12.0771
0.86995
-12.44
-0.967417
-11.9734
1.71726
-2.65516
3.21779
8.30174
3.6776
-2.60092
1.88062
11.937
-12.351
1.58122
11.3524
4.52221
-12.0878
-0.754177
-2.37602
0.0915379
-0.29051
0.133236
0.194065
-3.38204
0.16762
0.930057
-6.28821
18.5785
1.14927
-4.02216
-17.8134
5.30288
2.14595
-0.74809
-1.15359
17.2175
2.16186
-17.1837
-14.019
1.25644
-2.58284
-2.03179
3.7663
-1.28192
-0.513499
14.2121
0.867977
0.880347
-18.2042
-1.00247
1.08054
-12.7808
-2.24103
12.4798
3.34959
-1.39298
-0.784687
14.7253
1.1326
2.55502
-19.1308
-1.77975
2.57174
-12.9921
-2.69823
12.746
3.8024
-3.1591
-0.779052
13.5691
1.35288
-14.9979
3.64773
-11.3286
-2.84694
-4.49201
11.5647
5.86429
3.884
-11.7788
-0.972466
-4.45313
12.1126
1.88767
5.93131
-10.0665
-6.11949
-2.66424
8.63099
3.35388
-10.4902
1.77989
-6.41712
-0.843163
9.68352
-0.61716
-12.967
-1.45162
1.1746
1.98226
10.6023
12.9016
0.854204
-0.811591
-13.3612
2.10317
1.4652
0.637874
-0.654416
11.0207
2.1158
12.1857
1.56133
-12.646
-0.63129
2.00617
10.8097
1.52806
-13.6294
2.1547
1.21409
11.098
-17.7631
-2.6759
-1.28121
2.21539
2.90272
17.6598
1.22066
19.1714
-19.1083
3.4012
1.66902
3.13081
18.7834
3.13184
16.9259
2.42734
-16.1333
2.08874
-17.4852
2.93606
2.36837
17.4682
3.25824
19.1058
-15.1233
-1.95156
1.33762
2.37665
14.5381
2.37948
14.4729
-13.8864
-1.23044
13.4401
-13.6247
2.09962
-1.44955
1.5548
12.034
-14.9326
2.30876
14.5243
2.09822
11.8514
-12.9821
-1.37121
2.07024
1.93419
10.2922
2.06474
12.1788
-12.5972
-2.50736
12.5281
3.54202
-13.0822
2.02804
-2.11623
1.19679
2.84164
10.1224
-13.4987
2.14644
10.8778
2.78134
1.78718
9.43307
-3.04889
-9.82917
-0.544706
1.99608
0.972405
2.8382
11.7278
4.3517
-12.6494
1.88076
0.929331
3.15443
7.71898
1.15975
9.80981
4.72909
-11.8037
1.47845
7.13235
4.56371
-11.944
1.70658
2.20955
3.17876
-5.23194
-0.137128
0.311439
0.311198
0.587033
0.655367
5.57311
-10.2783
-3.13587
0.812995
-5.93082
0.429007
-0.368496
0.00712703
0.0548243
-10.2023
1.16809
0.671026
0.0175532
0.045114
-0.526409
14.9088
1.30764
-16.5112
1.04353
14.4868
-2.24128
-17.84
14.4096
0.663371
-19.4035
-1.24362
0.845098
0.91774
1.31974
-2.21619
-1.26181
0.999805
1.36763
-2.14409
1.73165
-0.69462
14.4305
1.01172
-19.1222
-1.3215
15.1424
2.5658
-19.8409
14.8578
-19.861
0.781468
1.09423
1.17299
1.3243
0.842823
1.94258
1.43131
2.01067
-1.44527
19.0104
2.72311
-18.5594
0.750985
18.7267
-18.8254
16.8105
-17.3771
2.12816
1.21765
1.24276
2.77438
1.77651
2.35458
1.34897
-2.23653
-2.2311
-14.0927
3.18122
-12.8464
-2.26199
12.9536
3.35907
-1.58487
1.09847
-13.4324
2.63761
-1.24419
13.6614
1.03612
-15.7245
14.6622
-2.219
-15.1498
-1.24311
1.01945
13.4498
-2.09561
14.9541
-13.092
-2.40892
12.7026
3.542
1.31062
-1.50495
-13.8312
2.54232
-1.59844
2.22842
-14.1834
2.59665
-1.43921
14.0677
2.46029
-16.9012
13.6608
-16.7359
1.14382
13.0502
1.92458
13.2825
-0.729981
14.3609
1.12184
-17.8775
-3.18789
13.3218
-16.1414
3.60424
14.3942
-19.0434
-2.6823
1.08056
3.5529
0.931879
-2.7182
1.93438
3.54869
1.69523
1.11233
-4.18894
5.56876
-16.6357
-3.53213
17.4412
4.80912
-3.22081
-15.981
4.37025
-0.946325
16.9751
-16.7525
18.9793
-18.2165
1.20202
19.2988
17.6715
-12.567
-2.93899
12.5191
3.49441
3.97678
2.84847
-1.75364
-13.6322
2.80681
-2.15087
-12.7106
3.51122
3.20656
-3.02426
13.0702
-13.7402
3.57169
13.8208
-15.6812
-2.66003
12.8713
3.52719
13.2849
-5.03676
-2.16346
12.0706
4.89723
2.63511
-6.16512
14.9023
-1.21115
6.01003
1.87623
10.1109
-6.81139
-2.80789
3.76429
-6.92216
-0.932555
-10.412
1.89765
2.06666
-3.15334
-0.609258
-15.8627
4.10127
-2.6983
-1.4883
-18.1292
2.8173
2.57716
1.54802
0.334589
-1.25699
-17.1774
2.23766
0.766948
-2.28962
-1.09653
-16.7944
2.35996
-0.169549
-1.16173
-20.1884
0.159585
1.95282
-1.49425
-1.3454
-20.4844
2.26982
3.07701
-3.28741
14.3946
-4.56372
3.17286
18.8691
-1.52827
-5.25074
2.69514
-1.04533
-18.9015
1.84596
-19.4099
-0.0866111
-1.09052
-0.764879
1.56572
0.72379
-20.4859
0.0229319
1.60361
-0.245594
0.653725
-0.146588
3.1699
0.389118
2.94552
-1.31946
-20.5081
2.22919
-1.49989
-20.7094
3.10769
-20.7102
1.71293
1.7069
1.69179
3.49318
1.68149
3.27754
3.27045
3.44046
-1.51124
-19.956
2.99844
-2.64133
-18.0288
2.47305
-19.9654
-0.416081
1.60142
-4.59042
-0.126692
5.07612
-4.62445
3.29519
5.11932
1.65895
0.121982
3.41611
-1.50959
-17.5882
2.7342
-0.679473
-17.8463
-17.6356
-2.59823
1.55734
1.45812
-2.2013
2.9124
2.72356
-0.592046
-19.4417
-2.3228
-15.4863
2.88917
-17.7763
-2.0335
-0.0183535
-3.86259
-1.09061
4.16031
-4.22827
4.54993
0.456897
-0.215347
-4.12254
-0.91604
1.38949
4.43903
-1.22693
-20.0531
1.93473
19.4351
-5.30596
6.33349
-4.29466
4.69863
-20.3364
1.62146
3.19048
-0.143674
-16.5799
-3.91641
-16.9108
5.10921
-17.2867
-0.751519
-4.16488
5.33904
-3.75874
4.51218
-1.56608
17.23
-4.98236
5.77952
-1.64847
-3.45306
3.73531
2.45294
-3.88322
4.08692
-2.20431
-16.8662
2.36061
-19.3457
-4.20719
4.47011
-0.791161
4.59009
1.34
12.8743
15.9178
6.33267
4.6269
13.2326
12.1681
0.941673
5.80021
0.938444
5.29415
11.8218
-11.9927
1.69915
5.41407
1.54097
5.7744
13.5165
5.43056
-2.0703
4.37191
11.7627
2.99594
4.4753
12.3614
10.8495
-2.18241
5.31286
2.98468
-2.49925
5.54797
3.41297
-11.5187
5.47352
11.5436
5.62631
-0.986474
-10.692
1.87719
11.3334
-6.85758
-10.314
10.4354
-10.6896
11.2413
-6.20007
0.979264
0.963528
-6.47844
1.88688
1.74199
-4.36241
12.0025
5.79054
-0.956676
12.691
1.76423
12.6267
1.07328
4.70317
4.69645
1.99042
0.995883
5.50933
1.98524
5.53069
0.786001
-2.89208
-0.77657
3.92533
-12.0181
-2.71556
3.31017
8.75356
-2.93429
1.35086
3.96177
0.582548
-12.6438
-0.609405
10.2247
-12.8003
1.09789
9.97425
0.820812
-0.789194
1.44896
1.42787
-3.24519
-2.29983
4.24478
13.3945
-12.7235
-2.88511
3.61629
10.4016
-2.89956
3.99135
1.34594
-15.0703
-2.21107
14.1411
-13.2576
11.309
-1.20852
-2.00336
-6.72114
-2.87595
3.83459
10.3611
-2.53889
3.43852
-2.80971
10.9141
3.81185
-6.88505
-10.3254
10.343
-10.4833
11.2192
-6.64474
17.5065
-3.70568
5.03925
1.4202
-4.17912
5.48151
18.4358
-3.80771
5.02982
16.8286
1.27091
-19.2739
18.9709
-17.7993
17.4215
1.24618
2.33573
-2.98356
4.00552
-11.6485
-2.4658
2.94347
7.00403
-2.97108
3.30469
3.95871
1.94807
-12.7285
9.62136
-12.272
2.60009
8.6218
-2.43404
3.45426
-4.46716
11.8977
5.95903
-2.59427
12.1368
3.56265
12.437
4.65161
-2.98002
12.0844
4.02699
-2.99517
5.17737
11.1116
3.94161
4.68267
12.4748
5.41259
11.6566
-2.95386
10.7631
3.92772
-6.3223
9.32677
11.1743
-1.95971
4.9037
-2.71273
8.79194
3.3742
-1.81669
2.96235
2.02906
-5.36921
-1.25384
4.93344
-1.83076
9.69773
-0.972313
11.3868
-6.40631
9.73305
11.3388
-5.65746
0.579407
0.863785
-5.60945
3.92585
-2.88207
3.7258
-7.74698
-1.29497
1.16972
1.22986
-2.53192
3.82166
3.09948
2.76839
-11.3837
6.03865
-9.19108
1.5152
2.12736
4.20127
4.30721
1.52753
-1.71264
1.81791
-0.308521
-0.0131717
0.00522254
0.0112066
-0.467718
0.244395
0.202359
-3.86252
0.403097
-0.576422
0.0271716
-2.54828
-0.000179803
0.001862
0.000581396
-0.0113159
-0.00137096
0.000173297
0.000112881
0.00214383
-0.0128591
2.54362e-05
3.18613e-06
-0.000224343
4.53863e-05
2.61482e-07
2.7246e-06
4.2404e-06
-2.18777e-05
8.28524e-07
3.68312e-06
1.02659e-05
-0.000196217
3.91286e-05
-4.09743e-05
4.64699e-05
2.08453e-05
3.08712e-05
-0.00080463
9.53737e-05
6.26562e-05
0.00128473
-0.00802034
7.78626e-06
-1.04452e-05
4.89762e-06
-7.64166e-05
1.36849e-05
-8.1169e-07
3.78583e-07
8.73595e-07
1.30407e-06
-1.4853e-05
2.30237e-06
-0.000137851
2.63123e-05
1.91968
17.4453
6.04344
0.112548
-8.86589
-6.91504
2.52169
9.35259
7.88106
-10.1281
1.69214
8.89845
12.8514
-14.3382
-0.0754457
-5.07581
-5.63604
5.06795
5.71981
8.65934
-9.45067
-7.33864
7.38874
6.55091
7.92941
-7.30879
-5.56613
-3.24451e-06
8.15681e-08
1.09663e-07
-3.55835e-07
-4.3301e-07
-1.63446e-07
-3.5384e-07
-3.7665e-06
-5.30031e-07
-1.97424e-07
-2.13282e-07
-2.74691e-07
-3.74304e-07
-2.48681e-07
1.14468e-09
-3.74706e-09
-3.10451e-09
-1.82175e-09
1.86688e-09
-8.08959
-4.67581
6.47817
9.90742
-12.6878
9.10472
-1.51091
2.31098
-7.65176
-7.66364
9.11621
-7.39339
-1.36166
7.48629
7.4648
2.21067
-7.36332
-4.22243
-10.2903
-1.22987
9.94772
5.21842
2.02749
-4.28601
-9.46475
-2.74097
9.63733
5.59677
3.44063
-8.88101
0.983513
9.30174
-8.20453
8.8281
-1.07649
-1.19918
2.05273
9.32942
-8.44878
8.77101
-4.64457
-5.24301
6.17872
5.80938
7.79306
-6.8251
5.51509
-5.72402
7.08228
-7.97406
7.63119
-7.19365
-4.15351
8.58711
-8.12467
5.46775
9.25565
-7.24046
-5.00972
-8.6253
-4.21029
9.98502
6.44516
5.40221
-5.82759
-8.90667
-6.20879
8.9079
6.41695
6.21478
4.28661
-8.74885
-3.97188
8.138
-8.1256
7.7182
-7.8677
3.24797
5.2194
-7.28416
5.12387
2.14002
3.64168
-6.53528
3.71663
-5.77337
0.0858257
0.0624636
-0.989676
-1.03066
0.0695286
-0.399257
-0.00089734
-0.00117602
-0.000489386
2.87626e-05
3.64398e-05
3.18018e-05
13.2142
1.35584
7.20621
-1.87386
-11.9301
0.935676
17.1079
9.42087
-16.1666
2.26204
15.1078
-12.1809
-15.1138
12.697
2.50398
11.1895
-9.62779
-3.07849
-11.6765
9.58974
-10.0818
-1.0588
10.7504
1.06929
6.59185
-10.6199
-2.32395
10.7718
6.95569
3.24814
-9.14628
-0.882057
0.561882
6.66384
-7.54582
6.12192
-8.87872
-0.70588
1.21635
5.42367
-7.23449
5.13309
-10.2122
-4.20812
9.61605
6.29707
4.61743
-7.24753
-4.12829
1.73385
1.95597
1.10101
-7.39503
-1.646
1.2714
1.72178
-5.85136
1.68046
-0.055865
-0.0196468
0.00182071
-0.0247245
0.00129087
0.000926841
-0.000119608
3.9165e-06
-7.07814e-05
1.46595e-06
-9.89783e-06
0.0019591
0.00361917
-0.0902938
0.00293758
-0.0142104
-3.22237e-05
2.31308e-06
1.71809e-06
8.08123e-07
-7.02484e-05
-4.85629e-06
-3.25192e-07
5.75019e-07
-4.4871e-07
3.49285e-07
-1.68212e-06
-2.70525e-05
-1.08018e-06
-2.62015e-06
-1.10629e-06
-1.87432e-05
4.11778e-07
-3.73092e-07
-4.72188e-06
-4.88747e-07
-2.16304e-07
5.14025e-07
-1.53657e-06
-9.96324e-07
-5.56947e-07
3.73159e-07
3.95713e-07
4.37776e-07
-2.67077e-06
-2.61002e-06
-4.2637e-05
-5.68177e-07
-5.22395e-07
-6.32115e-06
-2.6909e-07
6.74071e-09
1.12259e-08
0.0785904
0.0843168
-1.41969
0.0934976
-0.563024
-0.414385
-0.00115178
-0.00664775
7.59365e-05
8.68107e-05
-0.000776563
0.000134048
-0.00835751
0.000816812
0.00058204
0.000401018
-0.0355596
-0.00245111
3.56471e-07
3.20032e-07
-1.08043e-06
-5.95037e-07
-3.91831e-07
-2.35851e-07
1.22717e-07
1.87083e-07
-9.74365e-07
1.60653e-07
7.3218
-18.0879
-5.79481
5.21578
18.8103
-19.9799
1.476
2.66824
-0.148863
4.16184
-16.9286
-3.91322
1.4702
6.4709
-5.29486
14.1163
-8.48013
1.7266
16.2076
-9.9985
0.256215
-13.747
-1.38712
11.2994
-4.34726
2.55832
-11.0501
-3.14439
10.5714
-3.24815
3.60723
17.6016
6.0612
3.93463
-2.00975
6.19399
3.97411
19.8262
6.26042
19.843
0.262556
1.97319
18.011
8.44004
0.18727
18.0717
4.00023
8.41636
-1.84026
3.70867
7.28221
18.9711
7.33323
18.9587
0.338467
-10.3251
-6.83384
2.93477
7.04961
-13.2606
1.8882
4.51953
-17.336
3.92879
8.06861
16.9665
-6.02529
6.215
-3.6622
7.88959
6.2592
10.7208
-6.74106
-9.26917
-6.51258
9.45056
-4.83437
6.70002
-8.84628
-4.33452
9.76367
-3.83743
5.27357
-5.94175
6.48599
8.13567
17.7327
6.1617
5.99179
19.3808
-5.94944
17.6124
8.13488
7.93287
17.91
8.39993
5.46151
6.80583
18.6022
5.81308
6.77249
17.7076
16.2125
-9.98475
3.57658
10.132
-1.62526
-7.63508
3.27067
6.60619
-7.67579
6.52947
13.6207
-0.0929077
1.91259
17.5139
0.296034
17.5127
3.82866
-1.68959
3.48118
17.7183
17.7344
0.140106
-1.66238
19.8957
4.6036
3.41677
4.63684
0.166561
2.63686
2.94801
-1.59293
17.9921
3.26548
5.08692
-18.0968
1.46014
2.47308
-0.421107
5.12629
0.039884
2.75518
2.52697
15.6782
-9.40812
9.58372
-4.39951
-5.37448
4.68821
4.61216
-6.98881
5.72088
12.7174
-5.67536
16.6229
7.24392
17.0662
5.01891
16.8614
14.2701
5.93671
9.63342
5.65427
4.26053
15.3422
9.95664
8.97907
16.6435
6.53058
13.3441
4.63674
8.67054
7.03193
4.05175
14.353
2.43395
7.03836
12.5411
2.71083
6.25742
11.0143
-4.97304
3.14421
5.85355
19.158
4.15352
2.06662
4.56942
16.5908
4.37424
-14.0626
-3.44645
2.36279
3.77153
3.00139
5.09113
2.29578
9.0544
12.9991
3.39439
-14.3515
-1.65816
9.01811
2.92741
-11.3141
8.70932
7.13571
-11.1476
-0.600414
-1.56201
5.6916
2.75335
5.50764
9.99667
-0.620927
-1.30278
2.13923
6.31572
8.79004
5.92929
8.48655
-1.10268
11.0277
-4.29743
4.05246
-0.720492
1.19828
-3.00674
4.24198
-1.06701
-3.13666
1.99159
4.38174
-1.55488
14.1888
3.05543
-14.0617
1.28168
-0.859772
-0.209018
2.33807
8.06458
11.6735
-13.951
-3.62694
8.1807
4.00891
6.7285
-8.3438
8.79126
7.19978
-10.2345
-3.37996
5.30666
3.74778
5.52236
10.0674
2.82692
6.45364
8.76991
3.44954
6.55027
8.54979
11.0874
-3.71365
4.15568
-2.72455
-3.54789
4.80073
3.44107
-3.25413
4.53577
3.99527
13.2469
-11.7945
-2.95266
3.52761
4.1554
8.79676
-4.20884
4.57966
-4.7492
-3.47414
4.54879
5.25379
-3.71908
4.31738
9.82065
8.07784
14.5506
10.5454
7.03882
5.59322
11.4389
5.67248
9.8879
-8.13275
2.37608
7.97835
2.6017
10.9336
-7.51675
8.38207
3.15126
7.68803
9.69992
2.935
2.13045
10.2794
6.51142
2.95444
9.58254
3.44397
9.31765
7.78032
1.90471
5.58707
-11.8316
4.38197
2.87875
4.96733
2.45132
-11.3611
2.39524
5.43257
1.96716
5.70872
10.6912
2.83479
5.38192
3.33092
5.4749
7.16116
7.17026
-7.13513
-1.1238
1.26533
7.15381
-5.93658
-1.20012
8.02475
7.37711
1.83594
-6.30739
8.25394
1.16128
-7.15685
8.88905
-1.16075
-7.39251
8.91287
8.92693
-1.25991
1.83663
8.22044
8.00594
-1.19131
9.67472
4.98451
-1.08584
1.1761
5.48835
-1.10748
5.62611
1.78742
10.3114
-1.22817
9.19403
1.82866
6.49126
-9.00359
1.12953
7.37762
10.2255
-1.11444
6.29822
-1.15428
1.54227
7.52588
10.1932
5.45006
7.68091
-7.47416
-4.3398
7.62493
5.07471
6.67919
-6.51025
7.4254
6.43567
-7.20561
-4.34495
5.77731
5.14735
5.48619
8.7242
-4.15432
5.23845
7.24776
9.14552
6.7757
8.58044
7.96079
-2.55936
-7.50867
3.21138
-6.55896
8.84847
-7.96339
3.15513
9.20521
9.21651
-7.50919
-6.44311
8.55493
-2.91172
7.48946
3.46218
-6.72408
7.46004
-7.16547
2.55997
8.51462
3.20848
8.81572
9.9277
5.3676
-2.55916
6.28534
3.29108
5.89186
10.5164
2.56672
9.49431
6.74247
-9.82232
-2.34984
3.20763
7.83878
10.2426
3.24136
7.09894
7.70531
10.3123
-4.0651
8.0386
5.11668
7.52069
-6.91136
8.11916
7.61328
8.65553
-6.39644
-4.45409
5.60513
7.26509
-3.91104
5.02588
8.88793
6.37709
9.03967
9.36703
7.59674
9.84762
-3.42045
4.60044
-4.28974
-4.41468
5.73714
5.62702
-3.94908
5.19631
-10.8541
4.34887
4.50502
9.98148
5.3081
5.52277
-6.58388
2.79965
7.63224
-10.3505
2.76396
2.41751
6.65636
10.1983
3.34646
-10.1312
-6.70185
3.92198
6.81927
3.79222
7.407
3.80266
6.41033
8.3348
-6.9376
-6.42568
8.35402
6.83656
7.73766
-7.266
8.10068
7.18177
-6.7547
-6.45622
6.79792
6.78061
6.32801
9.19054
6.28787
7.83317
9.16244
6.35394
7.27016
8.51655
8.40297
-7.69185
-6.78882
9.23445
-4.31163
-8.61512
4.91192
8.77764
-8.41549
9.14106
9.16025
-4.11884
8.08416
5.1832
-6.6774
7.67469
-6.44441
-4.14027
5.4516
9.21269
9.19977
9.61116
5.91012
-4.34309
6.98581
5.28677
6.73314
10.5539
-4.21291
9.729
5.46732
7.89757
-9.93298
4.28758
7.63111
10.12
7.55337
4.83985
7.30968
9.60523
9.21796
-8.25778
8.67689
0.821764
-8.22885
-0.996541
8.27788
-8.06766
0.991626
8.96826
8.04775
-1.15499
9.56208
1.53045
-9.55657
0.973444
9.84197
-1.06045
-1.1487
1.21083
9.74498
1.67229
7.8357
-2.24521
11.3988
6.70777
-10.5367
6.95915
0.934981
-12.7918
2.01821
-2.64432
8.587
-1.64832
10.9516
1.00981
7.90787
-10.7297
-2.06954
8.8291
-12.1042
0.868215
7.18966
0.857798
6.55449
10.6646
6.65155
1.48892
6.43892
1.18915
-10.1898
-0.721623
0.940003