/*--------------------------------*- C++ -*----------------------------------*\
  =========                 |
  \\      /  F ield         | OpenFOAM: The Open Source CFD Toolbox
   \\    /   O peration     | Website:  https://openfoam.org
    \\  /    A nd           | Version:  9
     \\/     M anipulation  |
\*---------------------------------------------------------------------------*/
FoamFile
{
    format      ascii;
    class       volVectorField;
    location    "0.00305";
    object      rhoU;
}
// * * * * * * * * * * * * * * * * * * * * * * * * * * * * * * * * * * * * * //

dimensions      [1 -2 -1 0 0 0 0];

internalField   nonuniform List<vector> 
26092
(
(139.673 -39.5969 23.3113)
(70.8137 35.9678 21.3925)
(263.897 -100.241 95.1745)
(169.882 -104.869 39.3891)
(229.042 -154.164 112.935)
(362.85 -215.896 267.338)
(327.586 -252.287 225.815)
(294.052 -258.021 294.34)
(280.375 -140.419 150.069)
(494.888 187.126 352)
(64.0359 291.25 224.226)
(56.0474 388.952 632.057)
(135.141 65.0962 10.837)
(172.021 87.4204 56.9953)
(167.699 117.585 27.6329)
(198.337 143.829 63.5698)
(186.859 96.2372 83.5371)
(268.069 124.239 199.876)
(241.245 169.219 121.85)
(314.64 190.276 201.923)
(312.917 136.826 252.595)
(590.179 97.1159 578.487)
(433.709 246.096 251.514)
(563.832 253.98 403.534)
(611.82 -11.0341 594.707)
(358.974 -19.3748 329.972)
(142.71 19.4174 14.472)
(129.442 20.9398 6.85777)
(140.368 55.6301 10.4749)
(147.168 70.3895 21.0124)
(129.433 18.2521 5.52033)
(141.962 22.6344 16.0314)
(152.526 59.9948 19.6114)
(154.986 21.3887 28.2942)
(159.554 78.2301 36.3262)
(164.939 28.1711 49.8506)
(176.379 74.6026 53.063)
(154.009 25.1701 30.2418)
(164.532 66.5764 33.7723)
(165.496 23.7254 46.4399)
(191.075 28.6589 97.4329)
(177.86 31.093 75.5531)
(189.731 82.7347 77.6307)
(206.44 104.365 116.157)
(176.913 26.3031 69.356)
(195.242 33.7316 106.713)
(206.56 90.3309 107.76)
(209.799 30.9698 131.631)
(232.931 113.337 154.901)
(251.032 39.9401 187.026)
(257.635 105.683 186.559)
(218.669 36.5306 143.406)
(228.829 97.8086 144.041)
(235.533 33.2641 172.097)
(302.295 35.9625 286.482)
(295.494 43.0517 239.57)
(292.042 116.2 236.045)
(363.775 140.624 312.831)
(268.673 36.0073 220.876)
(357.382 40.342 313.476)
(324.849 122.642 294.156)
(337.109 31.9008 386.936)
(444.478 139.063 425.37)
(628.207 -15.1669 656.336)
(401.907 108.954 512.819)
(453.674 32.0222 453.832)
(349.256 128.931 373.987)
(404.822 -1.92954 574.636)
(27.2817 124.069 75.0237)
(34.0022 168.257 166.091)
(55.5627 124.31 57.5152)
(457.899 -148.301 513.152)
(567.565 -152.289 606.555)
(475.243 17.7873 581.878)
(527.669 7.00283 432.531)
(413.542 -152.69 576.819)
(464.459 -103.679 391.087)
(513.895 0.92732 566.695)
(149.132 88.8763 11.1474)
(30.7936 -6.99127 1.18528)
(177.515 75.3439 36.3578)
(33.291 -7.78973 15.4778)
(236.831 67.7317 64.9956)
(52.9748 11.8312 19.738)
(313.338 42.1005 133.68)
(84.4212 54.8878 52.9754)
(457.399 127.366 566.288)
(56.2301 253.363 408.268)
(75.3561 46.0338 1.75838)
(144.712 145.778 3.40499)
(156.856 83.1865 27.331)
(73.0117 43.5601 15.7634)
(124.238 178.231 16.7556)
(77.6023 161.376 2.60187)
(31.4058 -8.02839 12.8646)
(77.6468 162.832 14.8079)
(72.0073 42.0047 17.6602)
(165.346 181.474 27.8699)
(204.301 72.5793 42.6698)
(80.4584 44.8866 15.1916)
(207.12 227.234 59.8409)
(80.3127 168.056 25.5885)
(47.3781 3.72485 17.2848)
(94.58 187.804 37.7356)
(85.9986 47.7775 16.9615)
(250.369 248.579 101.004)
(284.04 52.2992 104.83)
(111.683 61.2738 34.0739)
(248.53 233.531 132.592)
(129.314 210.059 71.3647)
(74.3553 40.7611 40.0364)
(166.095 228.327 111.148)
(257.681 -0.00251406 167.443)
(324.401 -5.47848 357.786)
(124.067 68.912 45.5046)
(316.026 273.25 195.899)
(392.813 128.25 324.025)
(187.213 137.471 138.615)
(419.754 397.306 294.709)
(227.824 286.251 172.218)
(126.38 151.754 107.48)
(332.226 424.126 246.613)
(-33.5101 15.7554 1.82098)
(15.0934 31.8983 1.59889)
(-10.2421 -24.6761 0.53771)
(30.7846 -6.94428 4.1983)
(14.682 31.8638 5.52669)
(-9.82798 -25.2863 1.58905)
(-33.572 16.5393 0.682048)
(-29.5009 14.5555 12.2613)
(13.2497 28.2119 19.5026)
(-5.30016 -26.0602 10.8227)
(37.0274 -6.28917 16.4183)
(-32.2151 14.1235 10.0209)
(15.8145 28.395 21.1881)
(-1.42352 -25.6444 13.0986)
(-5.25968 36.9047 33.5303)
(34.9671 44.705 27.1776)
(15.8881 -16.0658 23.5483)
(58.9887 20.5913 23.9168)
(-12.8253 27.6465 25.6748)
(42.5342 54.7756 33.5948)
(23.3057 -8.89478 28.9598)
(33.926 128.794 105.934)
(73.3658 103.651 77.2481)
(49.3718 30.9239 63.9427)
(98.6791 72.6575 71.2904)
(21.7854 92.0788 80.1003)
(89.6278 131.476 103.414)
(61.4853 55.2249 82.653)
(276.198 135.878 518.096)
(162.379 180.69 244.142)
(151.304 131.8 690.957)
(268.607 278.929 655.338)
(265.099 410.6 639.348)
(428.035 384.346 498.866)
(433.23 429.489 272.825)
(284.897 177.158 340.506)
(404.167 387.145 481.935)
(147.551 117.167 9.97658)
(154.302 72.189 2.99801)
(83.5223 84.159 2.54385)
(74.8676 46.5383 5.87724)
(153.518 73.3518 9.47697)
(82.8851 85.2417 8.30082)
(147.989 114.886 3.2492)
(149.655 117.615 17.9654)
(74.2119 45.5211 11.4934)
(158.817 70.6592 23.8856)
(81.6043 82.4604 21.8811)
(155.132 72.7673 17.4332)
(82.3852 84.4532 15.808)
(154.165 117.151 24.7253)
(-33.701 15.1776 4.99644)
(30.812 -7.52355 9.07263)
(12.98 29.0448 16.1294)
(-7.72301 -25.898 7.90538)
(13.8678 30.7144 11.4377)
(-9.45169 -25.6926 5.02464)
(-33.2618 14.523 7.2911)
(169.478 121.937 31.0092)
(163.161 68.3062 27.4405)
(81.3321 81.5243 25.4492)
(73.0254 41.6973 17.3255)
(160.115 118.278 29.2713)
(170.236 66.7794 27.3661)
(83.6345 81.9456 26.177)
(181.402 127.384 31.0959)
(75.9851 42.7868 15.8771)
(190.793 65.9409 28.081)
(95.966 87.5341 25.0754)
(179.684 65.9357 26.4565)
(88.8756 84.3067 25.1805)
(194.369 133.154 33.9211)
(-25.0872 16.7578 15.6529)
(41.9887 -2.601 16.6365)
(27.7716 36.4638 23.1161)
(9.28205 -21.1235 19.4554)
(20.9387 30.9073 21.7368)
(3.52992 -24.1614 15.7373)
(-19.4246 21.0118 19.8828)
(224.932 141.515 51.4561)
(203.29 66.4241 33.0046)
(103.942 91.6687 28.1348)
(92.7098 51.3621 20.5925)
(208.408 138.425 40.6468)
(218.011 66.5033 41.2315)
(113.053 96.1631 34.1766)
(244.443 143.569 66.2838)
(101.033 55.8288 26.1933)
(260.076 66.715 67.9893)
(138.538 108.953 55.6356)
(236.512 66.6094 52.7199)
(124.099 101.651 43.1351)
(268.428 145.987 85.184)
(2.93806 49.5203 44.6314)
(65.7945 29.9004 30.5156)
(61.4989 82.4235 58.0032)
(39.5356 13.5918 48.635)
(51.0079 66.8835 43.7492)
(30.9763 0.790624 37.0648)
(11.9641 66.8974 59.9607)
(232.358 -38.3626 163.435)
(215.862 -49.3566 147.671)
(272.52 -11.8899 119.092)
(284.233 -19.4963 213.109)
(214.06 -28.2484 117.969)
(236.925 -67.8142 195.12)
(296.742 -22.6741 160.669)
(233.561 -25.9867 133.838)
(284.237 -7.84447 97.0733)
(213.733 -24.6058 93.5492)
(311.961 -10.76 136.463)
(249.334 -39.9771 227.733)
(308.303 -23.4785 274.852)
(273.111 -64.9656 349.509)
(336.768 -13.6212 326.127)
(257.078 -73.8976 259.285)
(317.524 -22.2889 221.188)
(262.992 -37.536 329.957)
(243.164 -22.7838 194.508)
(343.666 10.4704 329.185)
(329.542 -7.45079 193.915)
(250.67 -12.3626 338.693)
(323.507 161.95 145.479)
(284.373 67.2772 89.7232)
(155.25 120.294 73.8754)
(141.351 79.4519 63.8202)
(293.377 150.879 109.603)
(311.999 70.2462 123.812)
(177.648 136.917 103.302)
(352.32 182.752 199.514)
(162.628 98.0884 93.2785)
(364.813 113.469 281.574)
(221.191 221.274 206.361)
(335.658 81.2445 176.071)
(200.558 164.699 149.31)
(382.519 229.787 284.862)
(48.1511 184.399 133.118)
(113.931 100.902 94.0268)
(121.928 241.749 159.018)
(84.2653 166.179 97.3528)
(105.794 172.972 135.329)
(71.9911 94.9838 100.766)
(70.8351 268.43 149.699)
(306.724 138.514 388.895)
(131.48 158.508 240.205)
(234.131 313.978 312.226)
(232.337 112.885 387.551)
(196.947 273.223 306.661)
(249.225 247.648 454.607)
(306.313 282.925 459.631)
(69.7799 412.106 509.526)
(-4.79382 513.892 496.785)
(-12.1256 365.999 374.97)
(192.035 311.362 541.509)
(112.963 497.645 425.994)
(33.5061 345.355 297.925)
(56.8278 505.198 426.334)
(407.036 318.53 392.469)
(213.292 237.813 245.314)
(367.715 221.401 386.224)
(277.29 347.525 289.629)
(266.056 400.591 367.072)
(357.982 341.328 486.709)
(327.665 458.659 394.418)
(0.190495 2.09886 2.32051)
(-2.62906 175.722 204.35)
(-25.5316 377.159 646.159)
(108.188 50.3166 3.21169)
(117.913 51.2595 13.6914)
(127.596 49.7976 19.9453)
(162.745 56.978 51.3189)
(175.15 62.1932 69.9139)
(230.319 68.1337 163.844)
(222.462 28.9705 207.985)
(284.515 12.4085 409.562)
(258.9 66.558 209.458)
(323.336 64.9878 452.152)
(353.141 12.0691 533.143)
(394.633 -51.4713 487.038)
(154.863 -134.928 566.521)
(306.401 10.1397 507.88)
(169.136 23.7366 587.04)
(256.149 41.3883 530.805)
(101.455 17.2888 0.895723)
(90.6551 27.0453 2.55837)
(115.846 46.5723 2.92521)
(108.549 52.5276 6.18558)
(91.9148 27.9762 0.98508)
(117.056 48.3295 3.74367)
(99.8946 16.6201 2.42251)
(105.036 17.5616 0.228501)
(111.595 52.6391 9.93943)
(99.7466 27.9996 1.22269)
(128.547 48.7318 8.0621)
(94.426 28.5259 0.825203)
(120.749 48.916 5.73156)
(112.744 17.5196 0.398192)
(137.779 18.1244 13.2211)
(108.576 27.2775 5.80369)
(139.787 49.38 13.5803)
(139.367 49.7535 27.7452)
(123.897 17.6899 4.30928)
(119.81 26.6275 15.2685)
(152.235 52.1179 21.5434)
(150.992 19.5857 27.0787)
(151.097 52.4018 37.6567)
(143.311 30.4291 46.0263)
(176.438 64.7673 49.0432)
(131.396 27.6965 29.1624)
(164.342 57.4289 32.8939)
(162.667 22.3731 45.1628)
(186.592 26.6587 93.9504)
(155.748 33.5072 66.1209)
(189.546 71.9081 70.8121)
(188.796 66.1536 94.5501)
(173.763 24.8432 67.1808)
(169.292 35.1797 90.7726)
(205.175 77.5561 98.6974)
(203.445 27.9204 126.373)
(206.574 68.1347 125.794)
(206.493 33.263 158.042)
(253.161 85.789 175.708)
(185.773 35.3061 121.348)
(225.874 81.8757 133.542)
(226.013 28.7325 164.39)
(281.279 27.5218 270.828)
(230.513 28.8826 202.621)
(284.213 91.4876 225.234)
(286.147 60.575 264.726)
(252.901 29.5016 209.674)
(254.933 20.0752 262.338)
(312.901 94.5984 283.19)
(298.459 22.4626 359.868)
(306.566 58.1398 339.213)
(280.868 -1.7573 497.811)
(347.755 95.5309 479.548)
(266.563 10.1478 345.732)
(326.318 100.009 357.18)
(324.067 -3.99509 532.434)
(159.486 -37.4989 258.865)
(185.906 46.741 214.277)
(193.617 -39.7265 187.421)
(248.329 11.5069 261.219)
(139.091 -15.1838 207.416)
(205.995 33.1463 271.122)
(217.673 -63.1953 237.813)
(180.016 -57.1146 325.196)
(271.946 0.578184 327.313)
(225.791 11.5476 466.096)
(254.163 -68.2453 380.957)
(217.319 19.636 345.53)
(239.957 -75.9736 302.585)
(190.761 -60.9962 413.479)
(382.737 -141.3 545.902)
(305.21 -95.7234 534.755)
(383.189 20.1294 551.738)
(373.636 2.0446 593.324)
(327.238 -132.449 542.034)
(338.969 -102.575 565.784)
(429.572 -1.24112 587.028)
(270.963 -52.2647 534.623)
(267.812 -48.9687 476.294)
(326.432 11.0589 596.561)
(219.849 -81.0901 505.648)
(299.066 -67.8247 591.223)
(248.505 -82.0691 585.351)
(278.064 -22.2181 579.326)
(39.4 136.817 159.466)
(20.1848 273.207 247.627)
(-11.4337 301.419 317.548)
(2.84293 163.001 173.845)
(25.6503 122.866 112.463)
(109.699 126.014 395.024)
(131.071 129.106 274.227)
(-45.0557 54.0624 3.55227)
(-98.1516 208.942 3.81569)
(-46.2327 64.6676 10.3648)
(-80.9916 186.517 33.7085)
(-59.3681 119.156 31.2981)
(-22.9357 59.8738 20.3835)
(-97.7495 286.96 120.203)
(-2.93879 8.79927 4.14036)
(117.156 278.313 157.865)
(16.5705 263.802 34.4713)
(0.00210353 0.00503282 0.00201639)
(0.0104357 0.0357885 0.0169332)
(-22.7799 19.6536 1.75629)
(-51.342 140.105 4.67751)
(-19.7031 23.2184 4.47362)
(-48.6404 139.57 9.34057)
(-56.0156 40.1894 3.31667)
(-136.977 137.649 4.11801)
(-63.8008 48.468 10.7695)
(-141.564 146.664 17.7507)
(-17.73 26.654 8.28131)
(-35.3476 140.907 18.3457)
(-9.82452 57.8419 21.6953)
(9.77554 165.782 42.0676)
(-68.1222 53.0595 15.0755)
(-148.425 160.191 33.0671)
(-8.35742 74.9119 27.8516)
(44.9612 189.839 60.2147)
(3.65118 172.57 75.8606)
(89.5799 239.172 104.878)
(8.91647 236.018 113.197)
(159.433 353.607 187.416)
(21.5027 363.662 126.813)
(252.554 480.927 243.344)
(100.18 222.835 186.718)
(51.9867 357.378 31.2992)
(215.012 596.558 451.907)
(157.944 614.265 296.979)
(-41.4991 151.611 6.38483)
(-103.603 165.255 5.06501)
(-6.13276 193.302 7.35461)
(-45.6766 60.3653 6.21746)
(-38.1335 150.759 11.9277)
(-107.305 178.54 18.939)
(-1.46147 205.262 22.0648)
(-22.6643 151.642 22.7186)
(-115.372 203.564 36.4949)
(9.07749 228.83 41.5811)
(-53.2348 100.098 24.2973)
(18.463 191.534 53.1629)
(-110.556 176.518 44.3366)
(31.4164 281.897 72.3277)
(57.4648 254.676 93.6155)
(-128.81 233.857 73.3202)
(72.1141 370.295 132.232)
(-93.8685 243.826 94.1898)
(113.004 378.891 177.735)
(-132.644 259.304 104.679)
(72.6588 304.299 136.276)
(160.254 431.501 232.636)
(-82.0683 192.096 89.5007)
(23.6208 72.0032 39.4847)
(-56.1345 275.404 71.3143)
(114.155 248.641 128.533)
(-13.464 42.5989 19.9229)
(0.428799 0.997116 0.4816)
(397.606 505.709 242.198)
(44.9203 385.925 71.057)
(273.767 438.12 167.529)
(217.612 553.139 294.848)
(127.258 358.005 152.597)
(-48.3984 23.9742 0.844845)
(-24.4996 -10.5408 0.879045)
(-52.7653 42.5736 1.39546)
(-22.5612 20.1576 1.15574)
(-24.1281 -11.1677 0.977039)
(-52.0583 42.7867 0.799856)
(-48.7209 24.478 0.742215)
(-47.7042 23.7747 3.40602)
(-21.686 20.796 3.25739)
(-21.4298 -10.9286 5.26169)
(-45.5893 44.7938 4.27605)
(-23.3154 -11.5508 3.68487)
(-50.0172 43.1774 3.20133)
(-45.8936 24.3857 4.78782)
(-98.569 18.5113 6.25228)
(-54.1087 28.102 2.62426)
(-68.4748 33.7906 3.97309)
(-58.2661 42.5293 4.69632)
(-56.3552 29.6063 5.46498)
(-71.1245 36.7795 6.01816)
(-96.0117 16.5946 2.75842)
(-102.136 20.3816 10.348)
(-60.3122 44.6997 8.04284)
(-64.5783 33.2486 12.642)
(-80.6702 42.908 14.1411)
(-59.3978 30.8669 8.94295)
(-74.4568 38.8155 10.3421)
(-107.667 23.5043 14.7494)
(-39.168 27.4791 9.74389)
(-19.4603 -10.0594 8.06589)
(-40.6683 47.7143 7.89137)
(-14.8818 33.914 11.5618)
(-43.3877 25.312 7.31698)
(-16.2676 -7.99408 10.6852)
(-34.2518 54.043 10.7766)
(-33.901 31.5645 14.0692)
(-12.0958 44.2738 16.4615)
(-8.00061 0.2584 19.0522)
(-21.351 77.2207 22.7809)
(-12.3781 -4.62998 14.4117)
(-27.8229 63.8802 16.2917)
(-28.2506 38.6159 19.9318)
(-120.164 33.2186 25.5201)
(-71.1691 36.246 17.2904)
(-88.858 48.5843 20.0925)
(-74.3296 59.9402 19.1185)
(-113.868 27.6101 20.0988)
(-79.189 39.7483 21.8673)
(-100.044 57.7865 25.9471)
(-15.6618 62.1882 37.0605)
(-3.29265 7.22433 24.9076)
(-14.6153 94.172 30.4293)
(-5.57153 96.188 36.5943)
(-22.2039 48.7212 27.4192)
(1.9881 16.5058 32.4333)
(-7.31757 116.562 41.0763)
(-8.23185 80.229 50.4947)
(-1.43907 126.545 51.0343)
(15.6624 47.7499 59.4061)
(9.72976 195.433 85.565)
(8.1996 29.1364 43.3701)
(1.01664 147.993 58.1196)
(0.385101 105.688 69.8313)
(25.3947 203.298 129.189)
(25.8325 77.6066 80.7891)
(17.7727 266.266 126.798)
(10.6921 301.466 147.673)
(11.117 143.588 96.5609)
(41.3116 126.029 105.401)
(24.0216 344.862 169.751)
(44.036 290.767 162.798)
(12.4072 344.188 159.78)
(61.8168 306.175 123.935)
(44.5925 407.665 165.019)
(55.0084 205.2 132.349)
(31.7684 388.991 186.11)
(59.6405 385.9 169.022)
(120.398 369.839 146.267)
(99.6001 201.622 193.874)
(57.2663 241.629 143.2)
(164.291 370.856 214.564)
(73.4075 208.426 155.93)
(153.494 336.908 218.073)
(120.874 403.185 139.55)
(113.522 467.917 79.3364)
(56.2201 359.753 83.0481)
(64.595 359.77 24.7021)
(91.7983 423.013 41.3575)
(69.5382 331.24 88.0848)
(116.208 464.883 78.511)
(93.8853 448.296 36.8583)
(-59.0476 73.6623 3.45834)
(-66.7617 69.6403 4.72187)
(-45.696 55.9568 2.48494)
(-58.9967 75.3352 2.36924)
(-67.6659 73.226 5.26001)
(-53.9602 104.109 5.08995)
(-53.9138 100.456 5.34817)
(-49.948 84.5084 10.0652)
(-75.1114 87.2868 18.4662)
(-47.2878 73.4093 14.0653)
(-44.7713 94.6425 13.2937)
(-79.9339 98.805 23.8817)
(-51.1526 133.582 24.9461)
(-51.3374 119.108 18.9941)
(-31.1151 152.502 37.4805)
(-104.933 167.225 52.0621)
(-70.0057 148.493 43.4146)
(-27.1169 187.659 54.3713)
(-118.582 206.847 70.9258)
(-52.6452 266.462 87.2194)
(-52.5475 217.647 61.506)
(-16.3327 360.792 161.141)
(-124.45 271.955 122.005)
(-94.2155 308.413 131.337)
(-7.54836 379.246 174.835)
(-100.378 243.437 112.755)
(-16.8829 323.884 155.244)
(-31.6824 357.853 164.595)
(167.608 372.458 206.499)
(69.9909 305.413 121.921)
(181.318 434.25 243.855)
(118.241 400.547 167.855)
(141.392 460.438 165.416)
(194.308 500.903 195.661)
(234.715 488.325 271.167)
(28.9066 47.6175 19.0289)
(0.8225 11.121 1.81603)
(0.0416611 0.0857282 0.0356806)
(41.861 113.77 49.6796)
(3.70707 7.31687 2.79756)
(0.613953 1.74348 0.703428)
(0.040295 0.0835873 0.0341373)
(119.823 549.987 435.457)
(87.4208 416.226 293.053)
(52.3923 421.407 340.949)
(0.85919 3.73119 2.57821)
(-45.6508 57.2446 4.55684)
(-53.3731 79.6218 5.84066)
(-71.3432 80.7154 12.607)
(-57.2331 76.7296 4.76798)
(-68.7847 75.5724 9.33725)
(-53.1761 106.14 9.28336)
(-51.6981 111.107 12.7676)
(-49.4487 85.1231 19.0595)
(-35.3982 127.688 27.0507)
(-94.1135 136.635 39.6162)
(-39.8619 108.895 19.54)
(-86.0358 114.683 30.9316)
(-51.3703 153.33 33.453)
(-51.8761 180.49 44.765)
(-82.9273 191.385 64.5472)
(-20.9362 307.039 124.892)
(-132.726 270.078 113.394)
(-23.8507 239.57 83.1416)
(-130.015 246.032 93.2081)
(-50.453 318.636 120.065)
(-43.0865 352.968 150.12)
(-83.2178 301.734 120.797)
(19.0487 325.281 123.657)
(-22.3571 105.02 29.2082)
(4.02238 368.293 164.988)
(-61.3508 176.246 78.4202)
(-1.30719 240.383 115.851)
(5.3346 129.378 52.9607)
(61.966 403.078 96.929)
(79.8998 406.656 116.243)
(97.5869 412.938 73.8459)
(102.933 447.662 143.477)
(126.668 475.787 112.329)
(169.887 486.516 147.558)
(128.419 394.91 103.004)
(25.4287 319.8 7.40054)
(-13.9825 38.2822 0.507569)
(8.19884 76.4634 1.0827)
(-94.3377 204.818 21.2094)
(30.0042 329.688 35.193)
(-10.8418 29.6205 3.31571)
(6.85902 59.0997 6.73249)
(39.341 338.849 64.0889)
(-5.39815 15.2696 3.03949)
(4.01795 29.0803 6.00603)
(-55.9825 140.039 34.99)
(34.4698 233.386 62.1222)
(-1.79489 5.38404 1.45043)
(1.51463 8.95757 2.47995)
(20.2244 104.273 38.1054)
(-0.378745 1.22986 0.404609)
(0.354402 1.68736 0.573454)
(-3.7695 10.7567 4.49243)
(3.71125 14.5188 6.45162)
(-0.0136759 0.0552114 0.0256989)
(0.0145397 0.0491115 0.021358)
(0.316317 1.02935 0.488904)
(-0.0036608 0.0188318 0.00651729)
(0.00184579 0.00779228 0.00295761)
(-0.169001 0.802474 0.339184)
(0.0507948 0.120277 0.0563376)
(-6.94289e-05 0.00752273 0.00271406)
(0.00136411 0.00610571 0.00248946)
(-0.00339136 0.0244933 0.000495897)
(-0.0017074 0.0143545 0.00241949)
(-6.8709e-05 0.00119462 0.000437139)
(2.43027e-06 0.00019764 6.52284e-05)
(24.3376 157.921 163.878)
(58.8715 359.369 282.428)
(257.886 477.66 184.19)
(144.545 224.263 97.666)
(98.5675 494.394 370.354)
(107.287 338.335 156.031)
(61.7824 219.157 137.667)
(145.476 489.394 332.709)
(177.163 522.033 247.114)
(86.3786 399.277 281.91)
(120.218 522.281 337.659)
(41.0553 270.69 228.291)
(16.6544 159.645 164.036)
(19.0621 115.866 80.5469)
(72.3833 124.967 92.9019)
(50.3935 223.366 14.2948)
(85.6675 212.561 53.2454)
(200.339 318.016 145.778)
(224.981 404.872 239.038)
(0.00698554 0.0108854 0.00401531)
(80.6907 374.446 273.602)
(272.149 504.185 194.68)
(158.912 293.138 114.426)
(179.556 235.644 9.15281)
(36.1357 220.701 7.91462)
(257.978 365.571 28.4808)
(52.8193 218.985 24.9438)
(189.559 240.62 36.035)
(43.3863 233.511 26.6373)
(255.899 358.301 67.5238)
(213.117 241.937 66.0025)
(58.4613 256.401 49.8818)
(249.379 348.407 83.3105)
(105.109 220.521 66.8113)
(273.806 280.667 108.689)
(90.5545 311.278 85.4464)
(210.992 288.307 96.0176)
(358.7 358.285 182.02)
(134.258 370.792 139.298)
(93.9998 118.541 54.4156)
(200.833 412.637 213.88)
(274.748 270.336 182.518)
(103.509 254.967 121.308)
(1.8629 2.58279 1.40501)
(30.8932 29.7882 22.4787)
(16.6267 33.0293 18.7297)
(0.387874 0.534245 0.298847)
(86.5211 127.831 74.5822)
(1.17197 1.14805 0.745971)
(0.187483 0.347969 0.171536)
(0.0180412 0.0241047 0.0118074)
(0.623175 2.29844 1.46661)
(158.535 515.599 344.613)
(165.82 476.337 223.389)
(25.0655 70.565 44.7144)
(22.9324 58.3602 28.3471)
(52.6117 197.593 122.768)
(4.64383 14.6967 7.36856)
(13.3695 20.6734 2.87621)
(0.554305 0.938701 0.214285)
(0.0161016 0.0268256 0.00839705)
(0.00147296 0.00248135 0.00117311)
(1.85657e-05 0.000121821 3.60709e-05)
(2.79842e-06 0.000849554 8.73746e-05)
(3.02591e-06 9.35382e-05 5.89225e-06)
(4.23667e-06 0.000442056 0.000115609)
(1.55514e-06 4.5716e-05 1.15652e-05)
(6.00923e-06 0.000156251 4.68363e-05)
(2.97503e-07 7.74425e-06 2.34438e-06)
(1.24568e-06 3.17662e-05 1.00685e-05)
(4.60305e-08 1.70673e-06 4.9253e-07)
(5.27072e-07 6.37141e-06 1.81528e-06)
(1.01651e-08 2.96096e-07 8.31393e-08)
(0.000442645 0.0013332 0.000514616)
(5.42121e-06 2.62989e-05 9.01519e-06)
(2.56256e-07 1.6004e-06 4.54898e-07)
(8.85979e-09 7.34924e-08 1.85622e-08)
(187.457 199.229 29.2661)
(112.546 118.13 32.4515)
(22.0568 25.882 12.6202)
(0.071914 0.085771 0.0493034)
(10.9971 45.2142 29.8119)
(0.00131698 0.00533757 0.00295615)
(1.17571e-05 5.58237e-05 3.06372e-05)
(6.58269e-07 3.9142e-06 1.73882e-06)
(2.98664e-08 2.19955e-07 8.2329e-08)
(1.08587e-09 9.93983e-09 3.43244e-09)
(73.2965 -130.312 199.66)
(72.9797 -163.963 288.879)
(53.302 -144.268 265.304)
(61.5807 -139.743 225.071)
(45.1033 -123.283 209.516)
(89.0136 -78.047 262.112)
(111.628 -36.2426 221.732)
(76.896 -57.7206 207.88)
(128.284 -55.2403 284.724)
(0.000125986 0.000342324 8.05892e-05)
(0.000340997 0.000878783 3.58767e-05)
(1.50864e-05 4.11454e-05 2.72808e-06)
(7.99723e-05 0.000217682 5.10939e-05)
(6.00346e-06 1.73239e-05 4.36075e-06)
(2.02564e-05 5.25244e-05 1.59052e-05)
(1.1336e-06 2.95459e-06 8.93044e-07)
(5.2903e-06 1.65586e-05 4.5673e-06)
(2.34762e-07 7.63766e-07 2.05233e-07)
(7.8025e-07 3.55265e-06 9.73379e-07)
(3.65701e-08 1.7541e-07 4.40301e-08)
(0.243112 0.42668 0.00522848)
(0.0014707 0.00295672 0.000548132)
(0.000215054 0.000416654 0.000114405)
(5.36322e-05 0.000136165 3.99048e-05)
(1.5233e-05 5.48e-05 1.84052e-05)
(-30.5742 32.3659 172.456)
(-522.781 467.448 276.598)
(-329.08 425.996 535.022)
(-262.396 339.432 439.393)
(-194.047 226.066 214.112)
(-344.426 469.056 515.984)
(-229.948 255.485 180.537)
(-314.715 413.279 299.525)
(-292.064 397.067 362.274)
(-159.159 211.067 183.461)
(-0.0207163 0.0253799 0.0348583)
(-121.013 169.76 6.73829)
(-125.808 171.722 13.25)
(-152.259 219.081 32.8161)
(-189.067 242.777 57.5226)
(-240.039 266.406 90.0929)
(-333.107 294.478 155.406)
(-477.435 232.109 264.928)
(-737.545 249.494 422.82)
(-960.682 341.824 567.026)
(-443.421 333.906 302.073)
(-204.611 -11.7028 84.171)
(-182.347 175.391 92.6295)
(-170.326 -100.829 122.017)
(-194.858 -58.8545 70.5744)
(-193.38 40.8174 33.8187)
(-247.59 -283.688 330.902)
(-310.031 -213.087 290.619)
(-347.231 -126.615 202.791)
(-334.511 -284.343 294.172)
(50.4476 -24.8332 31.7937)
(58.1279 -45.6887 46.4187)
(45.7795 -8.8767 31.254)
(49.0992 -31.5028 40.7724)
(66.7944 -63.8221 74.5653)
(51.1278 -37.0679 47.4508)
(19.1042 -8.88197 32.7027)
(22.8623 -7.44012 30.1323)
(45.7941 -6.9825 30.0611)
(46.6545 -18.1448 35.2858)
(19.6648 -4.43328 29.3711)
(21.9441 -15.8388 34.3584)
(47.1282 -12.1037 33.1684)
(15.1574 -7.67736 28.4232)
(44.2006 -6.26433 27.0429)
(16.2855 -5.41952 27.2243)
(45.0703 -8.03289 27.092)
(17.9558 -12.3112 35.1586)
(47.7692 -25.625 37.4251)
(19.1306 -27.2935 41.3275)
(49.2607 -19.0317 37.3568)
(20.7082 -22.4414 37.4995)
(48.3957 -15.9292 34.8648)
(16.1759 -14.8346 37.8735)
(13.7544 -9.67974 28.5446)
(47.1359 -11.4818 26.5732)
(46.0389 -9.72614 26.3845)
(12.2594 -11.8005 29.3423)
(12.6006 -20.971 50.6738)
(17.9543 -31.8956 47.9746)
(50.3092 -21.8786 42.6412)
(53.8779 -44.4664 57.5053)
(14.2265 -17.1393 42.9024)
(17.3064 -38.7035 57.6874)
(52.0448 -26.1734 50.6475)
(9.30091 -14.5009 36.9411)
(48.4961 -13.0007 29.9217)
(10.7883 -13.257 32.3229)
(50.0764 -14.7468 35.8866)
(62.9555 21.5287 3.77109)
(67.4805 -2.52176 30.1334)
(84.8368 -32.7959 44.478)
(122.068 -85.0782 125.304)
(169.242 -2.79948 543.809)
(111.664 73.2458 3.8887)
(64.4783 8.48685 25.4156)
(117.276 68.9066 29.1112)
(124.877 62.145 36.0389)
(79.6644 -26.6174 37.6054)
(159.977 49.4258 51.3092)
(174.198 45.8161 62.9789)
(109.211 -66.9735 92.3)
(231.089 17.6323 131.37)
(154.538 -106.299 330.743)
(89.2233 18.3923 10.4694)
(80.1348 33.9656 3.61131)
(67.6588 12.045 3.67238)
(61.1395 20.9971 10.7519)
(78.4588 34.1079 10.9303)
(66.2872 11.6142 10.6024)
(90.41 18.5312 3.50649)
(100.798 -5.26655 27.3925)
(88.6923 8.68251 31.3637)
(69.9259 -3.42073 26.9469)
(71.26 -12.6968 32.8782)
(95.7414 0.633776 26.6353)
(95.1028 -2.64501 33.6104)
(72.6935 -8.81106 28.5602)
(129.117 -24.2082 47.2579)
(117.967 -25.7987 47.8443)
(84.936 -19.4198 38.0916)
(90.7524 -40.7787 54.9711)
(120.676 -18.8467 37.3992)
(127.472 -34.7851 59.7677)
(90.4381 -24.3776 46.8282)
(186.218 -63.4414 157.56)
(172.698 -80.6061 133.492)
(120.653 -53.8561 106.304)
(133.714 -101.935 173.939)
(171.441 -53.3516 110.696)
(188.557 -97.9047 181.661)
(131.52 -63.7108 153.678)
(134.158 215.846 449.552)
(152.884 368.134 673.492)
(109.296 38.0809 11.0988)
(95.6829 54.1298 3.70911)
(132.576 63.0695 3.70129)
(110.487 75.2485 11.4014)
(94.0159 55.3087 11.2632)
(131.258 64.32 11.6127)
(110.727 37.3859 3.65475)
(89.5772 1.13985 9.35153)
(68.6901 2.19231 3.57666)
(67.2854 1.91761 10.006)
(90.8687 1.22876 3.28919)
(109.96 9.24797 9.47373)
(150.353 24.0319 3.14136)
(149.602 24.6549 10.0943)
(110.833 8.91618 3.12379)
(90.4365 14.903 18.2291)
(62.3839 17.1717 18.8763)
(83.7999 21.0541 27.0395)
(68.0995 2.5616 23.517)
(80.331 30.3045 19.7111)
(66.9028 8.55808 18.0884)
(92.5549 7.81701 23.6453)
(110.795 34.9026 19.8983)
(112.476 74.0288 20.7167)
(99.3519 44.6148 28.7553)
(137.668 55.5141 28.7683)
(95.7402 52.5701 20.6094)
(133.162 62.0232 21.1434)
(113.971 27.6694 26.3778)
(90.1577 -0.747538 15.5516)
(68.3778 -2.83735 20.7558)
(67.4254 -0.0302538 16.4169)
(91.6989 -3.49034 19.5235)
(111.103 7.21222 16.7968)
(152.239 19.462 24.7841)
(150.364 22.8735 18.6218)
(113.626 3.46498 21.7961)
(124.817 13.0099 30.0961)
(105.398 33.6041 34.1746)
(144.855 47.748 33.4005)
(135.024 56.3637 40.5947)
(118.611 19.879 29.8632)
(114.304 23.4482 37.561)
(154.595 40.058 34.444)
(98.9387 -7.40682 19.7288)
(69.7137 -5.81292 22.685)
(93.8749 -5.79148 20.8752)
(72.66 -8.41973 22.1153)
(123.374 -3.68653 22.5848)
(154.775 15.9729 27.0343)
(116.999 -0.490054 23.4912)
(161.057 12.435 25.8563)
(106.88 -9.94551 27.7546)
(75.3402 -20.3581 34.2713)
(109.402 -18.6667 39.67)
(80.2304 -16.1449 32.1148)
(101.986 -11.3033 35.348)
(76.2716 -12.7813 29.5749)
(113.404 -14.5196 30.5059)
(132.622 8.19245 30.3118)
(146.71 52.6991 44.4408)
(134.588 8.74092 45.6831)
(179.5 28.8061 37.1924)
(124.241 15.6148 40.4015)
(166.374 33.9497 34.4161)
(141.531 4.31413 33.4572)
(105.197 -9.26249 19.1838)
(80.3479 -12.232 22.3796)
(76.2223 -10.6004 21.4923)
(112.417 -10.6006 20.4645)
(130.852 -6.3578 22.3451)
(182.921 6.97438 26.7831)
(170.769 9.43032 24.9927)
(139.62 -8.6966 24.2551)
(162.794 -3.46505 51.4649)
(145.897 2.07792 55.0177)
(193.459 24.1896 43.9916)
(189.682 40.1334 79.7521)
(151.554 0.882333 40.5853)
(158.704 -5.94409 68.6445)
(208.782 18.4508 55.1157)
(128.512 -13.2522 32.5449)
(84.9723 -13.2048 25.8382)
(120.172 -11.5915 24.7577)
(90.1054 -14.6736 31.7773)
(160.437 -13.9901 38.6379)
(196.6 4.71311 32.2954)
(149.285 -11.109 29.9943)
(212.314 2.03442 41.2089)
(140.11 -31.6277 60.6875)
(98.5382 -51.8548 70.2306)
(154.834 -62.365 99.7685)
(108.47 -41.9512 76.7707)
(139.263 -46.7297 76.4198)
(97.8721 -31.756 58.8497)
(155.06 -41.7997 80.123)
(176.935 -9.59024 66.4316)
(208.221 31.0643 102.366)
(193.951 -31.4549 112.878)
(249.064 -0.144664 90.4115)
(174.374 -16.6043 87.533)
(226.866 10.4691 70.2133)
(195.124 -18.1587 87.2706)
(139.592 -15.5688 44.4228)
(107.772 -20.1767 58.1274)
(97.3744 -16.8429 41.8005)
(154.357 -19.0256 62.3939)
(174.925 -17.4626 50.4145)
(256.996 -4.73549 70.9122)
(231.988 -1.06367 53.5567)
(194.016 -21.5521 67.3288)
(184.707 -26.3493 139.533)
(119.172 -23.803 86.6032)
(169.83 -22.9348 91.9802)
(129.702 -26.6067 135.065)
(198.819 -64.2375 223.475)
(145.382 -108.86 239.589)
(216.552 -100.546 339.153)
(147.049 -60.8821 324.272)
(203.815 -104.731 247.235)
(141.672 -64.0454 220.431)
(207.007 -61.1291 329.111)
(191.452 -25.5425 208.959)
(139.009 -26.6281 343.176)
(136.201 -25.12 206.19)
(195.778 -27.2368 348.882)
(110.611 230.796 302.153)
(126.447 95.5237 382.016)
(70.4415 141.046 224.669)
(101.48 146.553 234.664)
(181.456 97.6277 393.629)
(157.16 243.794 309.474)
(193.898 224.785 456.636)
(33.1828 -6.64662 2.9012)
(37.941 -14.23 8.81402)
(42.3391 -34.4667 20.1016)
(47.8128 -63.5964 36.3609)
(53.6429 -85.6191 64.8194)
(55.5299 25.004 3.69889)
(47.7293 14.9904 13.7482)
(59.9015 -14.9363 33.7073)
(70.708 -34.3883 48.7411)
(84.4788 -51.5395 78.1904)
(146.341 -64.2253 126.535)
(165.745 -87.6654 164.423)
(148.356 -164.21 359.663)
(36.5041 -18.4443 2.82306)
(45.1049 -51.5891 24.0051)
(94.0503 60.9865 3.30661)
(38.9531 -28.2404 10.1516)
(100.285 61.6725 16.8506)
(107.485 58.443 24.4725)
(136.852 52.8217 56.2484)
(148.428 53.786 73.4261)
(196.809 40.6625 162.108)
(22.5592 2.08469 1.61243)
(33.5948 9.10624 2.58145)
(33.7477 9.54856 0.761277)
(23.0001 1.85551 2.76227)
(22.7012 1.4183 3.42545)
(38.2057 6.56535 2.42942)
(34.743 9.31273 1.66759)
(24.4445 -2.45085 4.97562)
(33.4774 -14.8067 18.7402)
(45.166 2.32455 7.79119)
(28.6733 -8.31948 10.2145)
(53.0505 -2.59553 17.337)
(36.9693 -18.9829 31.4256)
(58.6041 -5.87858 31.3006)
(86.2712 -16.489 131.004)
(52.378 35.8525 2.8212)
(72.5305 46.2604 2.84475)
(76.0435 52.2844 3.42797)
(93.3175 63.7011 6.63536)
(73.0272 47.8217 1.53298)
(74.2216 54.1982 8.01709)
(53.2074 34.7362 3.21137)
(53.0351 35.5776 5.47249)
(95.5188 63.7555 11.6096)
(78.1556 47.5396 3.6842)
(79.4709 48.5482 21.4236)
(74.403 48.4795 2.57681)
(75.807 53.1413 14.7395)
(55.6825 32.221 8.30256)
(64.4732 22.3132 25.6744)
(84.3487 45.9591 9.09788)
(85.3551 41.5201 29.5472)
(116.641 54.9897 33.0019)
(60.0292 27.3089 15.5188)
(91.9622 44.9655 19.0748)
(93.0127 32.9576 36.791)
(68.9769 19.9976 38.4924)
(126.436 52.8724 42.8132)
(107.541 51.5359 50.9154)
(109.957 20.2535 53.7525)
(100.118 47.1707 33.5379)
(100.944 25.6108 43.6919)
(74.7465 20.3703 53.5828)
(92.2137 17.5765 95.5208)
(117.515 55.6936 71.7747)
(120.758 15.2576 68.011)
(161.181 52.4896 95.4935)