/*--------------------------------*- C++ -*----------------------------------*\
  =========                 |
  \\      /  F ield         | OpenFOAM: The Open Source CFD Toolbox
   \\    /   O peration     | Website:  https://openfoam.org
    \\  /    A nd           | Version:  9
     \\/     M anipulation  |
\*---------------------------------------------------------------------------*/
FoamFile
{
    format      ascii;
    class       volVectorField;
    location    "0.00305";
    object      U;
}
// * * * * * * * * * * * * * * * * * * * * * * * * * * * * * * * * * * * * * //

dimensions      [0 1 -1 0 0 0 0];

internalField   nonuniform List<vector> 
26092
(
(165.903 -47.033 27.6891)
(99.7032 50.6415 30.12)
(269.936 -102.536 97.3527)
(192.652 -118.925 44.6685)
(251.697 -169.412 124.105)
(285.192 -169.69 210.122)
(261.685 -201.534 180.388)
(268.919 -235.969 269.183)
(228.329 -114.353 122.211)
(227.07 85.8592 161.508)
(38.9471 177.141 136.376)
(24.3798 169.188 274.936)
(297.146 143.133 23.8283)
(275.41 139.962 91.2507)
(332.294 232.993 54.7544)
(312.469 226.594 100.151)
(268.757 138.417 120.151)
(275.637 127.746 205.519)
(305.704 214.433 154.408)
(317.625 192.081 203.839)
(279.249 122.104 225.417)
(312.268 51.3847 306.082)
(338.752 192.215 196.447)
(304.009 136.941 217.579)
(307.602 -5.54758 298.998)
(241.979 -13.0603 222.43)
(302.262 41.1263 30.652)
(284.545 46.0308 15.075)
(325.237 128.896 24.2707)
(293.687 140.469 41.9321)
(302.273 42.6253 12.892)
(283.575 45.2132 32.0234)
(319.733 125.765 41.1106)
(295.356 40.7606 53.9204)
(285.329 139.898 64.962)
(264.386 45.1563 79.9069)
(298.883 126.418 89.9181)
(276.004 45.1079 54.1972)
(309.549 125.256 63.5389)
(284.806 40.8296 79.9195)
(272.837 40.9223 139.125)
(256.1 44.7708 108.789)
(291.695 127.198 119.351)
(267.293 135.129 150.398)
(276.997 41.1833 108.592)
(253.354 43.7715 138.475)
(288.918 126.347 150.725)
(271.879 40.1339 170.581)
(270.531 131.632 179.905)
(258.594 41.1432 192.66)
(293.552 120.416 212.567)
(254.768 42.5612 167.079)
(290.147 124.017 182.638)
(274.07 38.7066 200.255)
(269.45 32.0551 255.355)
(262.329 38.2198 212.682)
(295.818 117.702 239.096)
(276.93 107.052 238.148)
(276.548 37.0627 227.35)
(265.869 30.0118 233.206)
(289.396 109.258 262.052)
(256.057 24.2307 293.903)
(282.181 88.2856 270.05)
(319.56 -7.71517 333.869)
(272.688 73.9239 347.94)
(279.015 19.694 279.113)
(272.36 100.544 291.646)
(264.097 -1.25879 374.881)
(33.2707 151.305 91.4931)
(30.2949 149.911 147.982)
(54.6147 122.189 56.5338)
(291.109 -94.282 326.236)
(309.28 -82.9861 330.527)
(291.467 10.9089 356.866)
(274.322 3.64059 224.862)
(280.465 -103.554 391.199)
(276.229 -61.6612 232.592)
(289.32 0.522076 319.046)
(394.402 235.046 29.4808)
(125.631 -28.5228 4.83567)
(380.672 161.571 77.9674)
(131.969 -30.8793 61.3559)
(357.37 102.205 98.0761)
(166.467 37.1781 62.0243)
(373.339 50.1622 159.279)
(183.769 119.48 115.317)
(272.033 75.7496 336.794)
(33.6195 151.483 244.1)
(336.305 205.443 7.84743)
(375.177 377.941 8.82768)
(394.325 209.125 68.7083)
(331.401 197.72 71.5502)
(298.781 428.63 40.2957)
(200.43 416.799 6.72006)
(127.449 -32.5803 52.2063)
(195.093 409.128 37.2059)
(328.685 191.735 80.6119)
(348.683 382.695 58.7724)
(361.36 128.375 75.4727)
(341.076 190.281 64.3997)
(317.667 348.517 91.7801)
(180.284 377.25 57.4407)
(159.353 12.5283 58.1361)
(168.936 335.45 67.4023)
(343.597 190.889 67.7675)
(315.466 313.212 127.266)
(367.543 67.6743 135.648)
(351.606 192.905 107.273)
(267.384 251.248 142.651)
(165.719 269.196 91.4557)
(181.488 99.4905 97.7218)
(172.002 236.447 115.101)
(284.652 -0.00277721 184.969)
(282.349 -4.76832 311.407)
(351.712 195.355 128.999)
(261.167 225.817 161.893)
(334.251 109.13 275.717)
(297.908 218.754 220.575)
(234.227 221.701 164.451)
(179.221 225.183 135.477)
(153.29 184.067 130.366)
(180.217 230.067 133.775)
(-103.765 48.787 5.63874)
(49.4538 104.515 5.23878)
(-33.3394 -80.3243 1.75032)
(125.463 -28.3015 17.1102)
(47.9366 104.035 18.0446)
(-31.8319 -81.8999 5.14677)
(-104.609 51.5356 2.12523)
(-74.7552 36.8835 31.0701)
(40.3551 85.926 59.3997)
(-16.0133 -78.7351 32.6983)
(140.656 -23.8907 62.3681)
(-89.4667 39.2235 27.8297)
(45.2596 81.2637 60.6382)
(-4.01479 -72.3257 36.9423)
(-8.51846 59.7701 54.305)
(78.8339 100.788 61.2723)
(34.3053 -34.6889 50.8451)
(172.096 60.0739 69.7757)
(-23.2647 50.1498 46.5732)
(88.0413 113.38 69.5378)
(45.659 -17.4261 56.7362)
(32.4271 123.104 101.254)
(111.375 157.35 117.269)
(68.0355 42.6138 88.1146)
(186.415 137.257 134.675)
(24.2963 102.692 89.3325)
(117.946 173.016 136.088)
(72.7347 65.3289 97.7753)
(219.383 107.927 411.521)
(222.267 247.331 334.186)
(90.0817 78.4699 411.374)
(149.866 155.625 365.637)
(140.522 217.647 338.9)
(243.172 218.352 283.412)
(186.556 184.945 117.483)
(164.338 102.191 196.415)
(199.224 190.833 237.557)
(412.957 327.919 27.9218)
(461.167 215.753 8.96023)
(271.085 273.152 8.25649)
(334.123 207.694 26.2293)
(457.206 218.456 28.2243)
(268.296 275.924 26.8694)
(416.026 322.967 9.13413)
(413.367 324.869 49.6227)
(333.599 204.627 51.6655)
(457.152 203.39 68.754)
(260.221 262.951 69.7748)
(457.864 214.769 51.4534)
(265.783 272.454 50.9983)
(412.923 313.783 66.2255)
(-103.187 46.4716 15.2984)
(125.938 -30.7509 37.0824)
(41.257 92.3193 51.2675)
(-24.4165 -81.8769 24.993)
(45.0178 99.7053 37.1292)
(-30.4695 -82.8253 16.198)
(-98.4737 42.9963 21.5858)
(400.149 287.902 73.2147)
(450.509 188.603 75.7671)
(252.904 253.501 79.1347)
(330.561 188.749 78.4266)
(407.226 300.821 74.4468)
(441.987 173.381 71.0513)
(249.609 244.568 78.1258)
(393.654 276.432 67.48)
(335.952 189.173 70.197)
(422.884 146.155 62.2404)
(256.301 233.782 66.97)
(432.255 158.617 63.6446)
(251.566 238.633 71.2743)
(387.803 265.668 67.679)
(-57.1177 38.1536 35.638)
(150.547 -9.32567 59.6488)
(67.9983 89.2809 56.5993)
(22.0105 -50.0902 46.1346)
(55.5488 81.9949 57.6662)
(9.16346 -62.7216 40.853)
(-39.4839 42.7103 40.4153)
(385.75 242.693 88.2452)
(416.182 135.985 67.568)
(261.051 230.227 70.6607)
(345.486 191.403 76.7388)
(384.503 255.387 74.9914)
(413.338 126.087 78.1727)
(265.991 226.252 80.4105)
(389.084 228.522 105.505)
(347.714 192.14 90.1468)
(418.035 107.235 109.283)
(278.033 218.658 111.655)
(413.767 116.53 92.2312)
(271.253 222.187 94.2841)
(394.316 214.453 125.134)
(4.23668 71.4083 64.3585)
(176.616 80.2634 81.9148)
(104.998 140.723 99.0295)
(62.0422 21.3293 76.3216)
(96.3662 126.359 82.6527)
(54.5786 1.39304 65.3063)
(15.263 85.3432 76.4938)
(272.411 -44.9754 191.607)
(253.345 -57.927 173.312)
(337.83 -14.7394 147.633)
(291.185 -19.9732 218.322)
(273.929 -36.149 150.963)
(256.321 -73.3658 211.094)
(338.379 -25.8556 183.213)
(290.055 -32.2723 166.211)
(383.302 -10.5785 130.906)
(290.471 -33.4402 127.137)
(383.243 -13.2185 167.644)
(268.433 -43.0394 245.178)
(292.655 -22.2869 260.903)
(249.095 -59.253 318.776)
(315.732 -12.7704 305.756)
(257.192 -73.9305 259.401)
(331.999 -23.305 231.271)
(256.014 -36.5401 321.202)
(278.977 -26.1394 223.155)
(339.391 10.3402 325.09)
(368.871 -8.33999 217.057)
(257.252 -12.6872 347.586)
(394.671 197.575 177.481)
(419.383 99.2181 132.321)
(281.185 217.873 133.801)
(352.611 198.199 159.205)
(395.419 203.357 147.725)
(419.879 94.5352 166.623)
(282.573 217.785 164.315)
(379.003 196.593 214.625)
(337.421 203.515 193.535)
(378.566 117.747 292.188)
(228.675 228.761 213.344)
(406.715 98.4434 213.344)
(266.217 218.618 198.192)
(344.709 207.074 256.705)
(38.6378 147.968 106.818)
(177.445 157.152 146.445)
(106.449 211.058 138.83)
(67.535 133.186 78.0241)
(115.756 189.26 148.073)
(70.602 93.1511 98.8213)
(47.4576 179.841 100.294)
(301.415 136.116 382.163)
(208.226 251.031 380.416)
(200.359 268.689 267.189)
(248.459 120.718 414.444)
(196.132 272.093 305.392)
(219.221 217.834 399.878)
(243.523 224.929 365.414)
(34.1086 201.439 249.058)
(-2.08825 223.858 216.406)
(-6.49652 196.091 200.898)
(103.586 167.951 292.095)
(51.7656 228.047 195.213)
(18.6118 191.836 165.489)
(24.5301 218.072 184.03)
(291.001 227.726 280.586)
(215.738 240.54 248.127)
(316.206 190.387 332.122)
(204.235 255.966 213.323)
(180.688 272.055 249.291)
(242.231 230.962 329.335)
(184.308 257.99 221.855)
(0.154406 1.70124 1.88089)
(-2.12545 142.062 165.205)
(-11.006 162.583 278.541)
(296.123 137.722 8.79074)
(294.961 128.226 34.2491)
(293.528 114.556 45.8831)
(269.043 94.1937 84.8382)
(264.675 93.9823 105.649)
(271.051 80.1831 192.82)
(233.962 30.4682 218.738)
(241.487 10.5319 347.622)
(278.343 71.5566 225.189)
(267.039 53.6725 373.426)
(271.831 9.2902 410.387)
(267.51 -34.8908 330.149)
(122.425 -106.665 447.854)
(244.469 8.09015 405.224)
(118.062 16.5688 409.772)
(182.053 29.4159 377.259)
(286.401 48.8052 2.52857)
(264.054 78.7758 7.45184)
(320.518 128.854 8.09335)
(294.164 142.349 16.7628)
(264.427 80.4838 2.83394)
(319.888 132.074 10.2307)
(286.057 47.593 6.93705)
(288.452 48.2279 0.627513)
(294.637 138.979 26.2424)
(264.241 74.1744 3.23906)
(324.438 122.993 20.3478)
(264.556 79.922 2.312)
(321.328 130.172 15.2524)
(293.016 45.5325 1.03488)
(297.449 39.1284 28.5428)
(264.69 66.4981 14.1485)
(325.447 114.965 31.6172)
(287.093 102.491 57.1545)
(297.136 42.4248 10.3347)
(261.524 58.1229 33.3284)
(319.523 109.39 45.217)
(292.177 37.8993 52.3985)
(277.165 96.1234 69.0756)
(252.086 53.525 80.9605)
(300.321 110.243 83.4782)
(255.793 53.9178 56.7715)
(309.407 108.122 61.9295)
(284.876 39.1815 79.0926)
(275.469 39.3568 138.701)
(251.276 54.0586 106.676)
(294.766 111.826 110.121)
(262.832 92.0954 131.627)
(278.804 39.8609 107.792)
(252.214 52.4111 135.234)
(292.569 110.591 140.737)
(275.335 37.7864 171.028)
(264.961 87.3925 161.349)
(259.694 41.8329 198.76)
(298.761 101.241 207.357)
(255.012 48.4647 166.574)
(294.149 106.624 173.908)
(278.302 35.3798 202.421)
(276.798 27.0833 266.514)
(263.475 33.0127 231.595)
(302.354 97.3274 239.611)
(281.548 59.6015 260.471)
(280.622 32.7353 232.656)
(262.044 20.6352 269.656)
(299.701 90.6079 271.244)
(258.026 19.4195 311.116)
(277.225 52.5754 306.748)
(234.476 -1.46704 415.587)
(270.061 74.1877 372.409)
(247.109 9.40719 320.5)
(282.16 86.4762 308.847)
(245.501 -3.02653 403.352)
(164.767 -38.7406 267.437)
(206.077 51.8122 237.526)
(209.841 -43.0554 203.126)
(240.739 11.1552 253.235)
(154.248 -16.8384 230.019)
(210.621 33.8907 277.211)
(219.564 -63.7442 239.879)
(174.253 -55.2861 314.785)
(245.517 0.521993 295.503)
(199.166 10.1859 411.135)
(224.259 -60.2158 336.135)
(206.467 18.6555 328.276)
(226.281 -71.6437 285.34)
(173.61 -55.5123 376.305)
(280.721 -103.638 400.395)
(261.16 -81.9078 457.575)
(274.651 14.4278 395.459)
(265.02 1.45023 420.844)
(262.05 -106.064 434.056)
(271.076 -82.0299 452.462)
(279.05 -0.806232 381.333)
(230.165 -44.3953 454.126)
(220.843 -40.3805 392.76)
(239.205 8.10381 437.152)
(188.324 -69.4623 433.142)
(239.096 -54.2243 472.669)
(197.197 -65.1245 464.495)
(209.442 -16.735 436.357)
(40.2753 139.857 163.008)
(12.7708 172.856 156.672)
(-6.835 180.186 189.828)
(2.45502 140.76 150.125)
(28.7821 137.868 126.194)
(81.2146 93.2925 292.451)
(105.39 103.81 220.498)
(-64.5002 77.3937 5.0853)
(-58.4452 124.417 2.27209)
(-60.0252 83.9597 13.4568)
(-48.8371 112.468 20.3259)
(-57.0688 114.541 30.0859)
(-16.4484 42.9388 14.6181)
(-59.6624 175.149 73.3673)
(-2.34749 7.02883 3.3073)
(100.222 238.086 135.047)
(9.09324 144.764 18.9165)
(0.00171715 0.00410837 0.00164601)
(0.00851814 0.0292122 0.0138217)
(-44.2927 38.214 3.41489)
(-96.9703 264.618 8.83447)
(-36.2726 42.744 8.23573)
(-89.7308 257.476 17.2313)
(-63.7535 45.7411 3.77483)
(-91.9382 92.3896 2.76399)
(-70.7656 53.7589 11.9452)
(-93.5771 96.9487 11.7337)
(-30.6021 46.0049 14.2936)
(-55.2769 220.351 28.6892)
(-12.7209 74.8946 28.0914)
(10.5893 179.582 45.5695)
(-73.4062 57.1752 16.2449)
(-94.7838 102.298 21.1166)
(-9.68756 86.8347 32.2844)
(45.6125 192.588 61.0869)
(2.83475 133.982 58.8976)
(70.6818 188.715 82.7523)
(5.87277 155.452 74.5561)
(94.2034 208.934 110.737)
(10.7012 180.983 63.1109)
(117.584 223.909 113.295)
(112.597 250.455 209.862)
(26.9322 185.144 16.2149)
(107.12 297.209 225.143)
(71.7942 279.218 134.994)
(-58.3604 213.211 8.97901)
(-74.1345 118.25 3.62432)
(-5.19356 163.699 6.22829)
(-62.3817 82.4425 8.49135)
(-52.6308 208.074 16.4622)
(-74.9886 124.77 13.2352)
(-1.20478 169.211 18.1894)
(-27.4181 183.448 27.4838)
(-76.1581 134.374 24.0906)
(6.84974 172.671 31.3765)
(-55.7733 104.871 25.4559)
(16.4441 170.59 47.3497)
(-79.606 127.101 31.9245)
(20.7419 186.116 47.7527)
(41.1015 182.156 66.9581)
(-82.3379 149.487 46.8678)
(38.117 195.725 69.8932)
(-63.2565 164.311 63.473)
(62.5111 209.593 98.3183)
(-76.9331 150.396 60.7136)
(38.5493 161.447 72.3016)
(76.7211 206.58 111.374)
(-48.5148 113.558 52.9085)
(16.4499 50.1443 27.4979)
(-30.7025 150.631 39.005)
(60.7192 132.252 68.3669)
(-9.96863 31.5398 14.7507)
(0.349091 0.811766 0.392078)
(169.234 215.246 103.087)
(22.366 192.154 35.3797)
(122.938 196.743 75.2308)
(99.6969 253.415 135.082)
(63.0028 177.241 75.5478)
(-125.933 62.3811 2.1983)
(-62.764 -27.0038 2.25197)
(-107.384 86.6424 2.83992)
(-43.453 38.8235 2.22596)
(-61.3763 -28.408 2.48536)
(-104.826 86.1563 1.61061)
(-127.951 64.2841 1.94921)
(-122.295 60.9488 8.73167)
(-41.2993 39.6043 6.20345)
(-52.7169 -26.884 12.9436)
(-86.5389 85.0288 8.11691)
(-58.8839 -29.172 9.30629)
(-99.1232 85.5682 6.34434)
(-112.871 59.9741 11.7752)
(-75.265 14.1348 4.7741)
(-46.2017 23.9954 2.24077)
(-63.8702 31.5184 3.70592)
(-66.1703 48.2987 5.3334)
(-47.9484 25.1898 4.64974)
(-66.0038 34.1315 5.58487)
(-73.6143 12.7234 2.11494)
(-77.298 15.4251 7.83151)
(-68.0085 50.4038 9.06918)
(-53.8497 27.7249 10.5418)
(-72.3666 38.4914 12.6855)
(-50.1615 26.0671 7.55234)
(-68.3012 35.6065 9.48705)
(-80.3036 17.5308 11.0009)
(-80.6547 56.5849 20.0646)
(-45.2065 -23.3681 18.7371)
(-71.6172 84.0252 13.8968)
(-23.5516 53.6715 18.2974)
(-99.0656 57.794 16.7066)
(-34.8305 -17.1161 22.8781)
(-54.6441 86.2183 17.1926)
(-62.0246 57.7499 25.7408)
(-17.3768 63.6039 23.6486)
(-13.9212 0.44962 33.1511)
(-27.3067 98.761 29.1355)
(-24.0423 -8.99288 27.9922)
(-39.8361 91.462 23.326)
(-45.6008 62.3318 32.1729)
(-85.8567 23.7346 18.234)
(-58.3035 29.6936 14.1648)
(-77.143 42.179 17.4435)
(-77.1027 62.1764 19.8318)
(-83.2655 20.1899 14.6972)
(-63.5327 31.8897 17.5439)
(-83.4437 48.1978 21.6416)
(-19.5584 77.6604 46.281)
(-5.09388 11.1764 38.5332)
(-16.65 107.282 34.6654)
(-5.74444 99.1731 37.73)
(-31.5429 69.2134 38.9517)
(2.719 22.5739 44.3569)
(-7.37975 117.553 41.4254)
(-9.00849 87.7983 55.2587)
(-1.30073 114.38 46.1285)
(16.4103 50.0299 62.2428)
(7.4053 148.744 65.1233)
(9.84979 35.0002 52.0985)
(0.897395 130.635 51.3025)
(0.367316 100.807 66.6064)
(17.9878 144.002 91.5088)
(23.5164 70.6484 73.5456)
(11.503 172.335 82.0675)
(6.12865 172.799 84.6454)
(9.17772 118.54 79.7168)
(32.2473 98.3763 82.2744)
(13.4684 193.357 95.1759)
(26.6308 175.842 98.4521)
(6.47121 179.517 83.3361)
(35.2842 174.761 70.7403)
(21.8096 199.383 80.7084)
(36.3832 135.722 87.5375)
(16.3042 199.638 95.5157)
(31.7213 205.25 89.8985)
(82.5773 253.661 100.32)
(134.327 271.921 261.471)
(45.3943 191.537 113.513)
(125.071 282.323 163.342)
(67.9354 192.889 144.306)
(134.604 295.446 191.236)
(75.067 250.392 86.6656)
(62.1205 256.05 43.4139)
(32.578 208.467 48.1242)
(33.9793 189.252 12.9942)
(45.8686 211.366 20.665)
(43.6686 208.012 55.3155)
(60.6658 242.689 40.9862)
(47.0391 224.608 18.467)
(-90.3078 112.66 5.28921)
(-72.8753 76.0174 5.15426)
(-64.9042 79.478 3.52948)
(-89.346 114.09 3.58804)
(-73.4172 79.45 5.70709)
(-62.6668 120.908 5.91122)
(-63.119 117.608 6.26131)
(-67.6118 114.394 13.6247)
(-75.0568 87.2233 18.4528)
(-57.4749 89.2236 17.0953)
(-55.9733 118.322 16.6199)
(-75.6958 93.5665 22.6155)
(-50.4208 131.671 24.5893)
(-54.0162 125.323 19.9852)
(-29.5052 144.611 35.5412)
(-80.7258 128.647 40.0517)
(-60.5884 128.518 37.5744)
(-22.8362 158.035 45.7881)
(-82.9643 144.717 49.6221)
(-36.083 182.633 59.78)
(-40.3139 166.977 47.1869)
(-9.2302 203.897 91.0665)
(-70.7106 154.52 69.3214)
(-53.5778 175.386 74.6876)
(-4.00783 201.362 92.8293)
(-56.9096 138.017 63.927)
(-8.90611 170.856 81.8947)
(-16.9277 191.199 87.942)
(112.327 249.612 138.391)
(45.4379 198.273 79.1507)
(114.264 273.659 153.674)
(67.4215 228.393 95.7116)
(78.2032 254.666 91.4912)
(98.3973 253.657 99.0828)
(127.238 264.719 146.999)
(20.9575 34.5229 13.796)
(0.654439 8.84864 1.44496)
(0.0340009 0.0699654 0.02912)
(27.2047 73.937 32.2859)
(2.96776 5.85765 2.23964)
(0.49892 1.41681 0.571631)
(0.0328862 0.0682185 0.0278607)
(51.8353 237.924 188.378)
(40.0191 190.538 134.152)
(23.5005 189.022 152.932)
(0.694065 3.0141 2.08271)
(-64.1539 80.4469 6.40382)
(-76.8759 114.683 8.41258)
(-74.4063 84.1809 13.1483)
(-85.4711 114.587 7.12044)
(-73.7346 81.0108 10.0092)
(-60.904 121.565 10.6325)
(-57.2927 123.131 14.1492)
(-55.9549 96.3232 21.5672)
(-37.1193 133.896 28.3659)
(-78.5626 114.058 33.0702)
(-45.7718 125.04 22.437)
(-76.803 102.376 27.6123)
(-47.1331 140.683 30.6937)
(-43.872 152.642 37.8581)
(-63.4144 146.352 49.3592)
(-13.1868 193.389 78.6638)
(-79.054 160.864 67.5398)
(-17.4186 174.963 60.72)
(-83.1505 157.348 59.6107)
(-30.97 195.591 73.7004)
(-24.2745 198.858 84.5759)
(-45.3889 164.572 65.8854)
(9.81589 167.619 63.7214)
(-14.9134 70.0535 19.4834)
(2.0632 188.909 84.6275)
(-36.9521 106.155 47.2332)
(-0.724469 133.225 64.2071)
(3.38286 82.0435 33.5843)
(32.4401 211.017 50.7437)
(39.0332 198.663 56.788)
(48.2453 204.15 36.5082)
(51.3077 223.141 71.5175)
(62.9259 236.36 55.8026)
(81.1791 232.477 70.5091)
(62.8873 193.389 50.4413)
(15.0471 189.237 4.37917)
(-10.4969 28.7392 0.381042)
(5.76738 53.7874 0.761611)
(-56.2891 122.21 12.6552)
(17.4861 192.138 20.51)
(-8.28417 22.6328 2.53351)
(4.97333 42.8519 4.88159)
(22.0205 189.666 35.8728)
(-4.25472 12.0352 2.39566)
(3.08228 22.3082 4.60739)
(-35.494 88.7873 22.1844)
(19.7522 133.737 35.5978)
(-1.44648 4.33892 1.16888)
(1.21132 7.16376 1.98332)
(13.4849 69.5254 25.4073)
(-0.308246 1.00094 0.329296)
(0.288126 1.37181 0.466213)
(-2.9979 8.55484 3.57284)
(2.9269 11.4504 5.08811)
(-0.0111624 0.0450642 0.0209758)
(0.0118676 0.040086 0.0174329)
(0.257528 0.838039 0.398039)
(-0.00298827 0.0153722 0.00531999)
(0.00150674 0.00636093 0.00241433)
(-0.137681 0.653758 0.276326)
(0.0414515 0.098153 0.0459748)
(-5.66755e-05 0.00614089 0.00221552)
(0.00111354 0.00498418 0.00203218)
(-0.0027683 0.0199934 0.000404791)
(-0.00139375 0.0117176 0.00197503)
(-5.60888e-05 0.000975195 0.000356847)
(1.98389e-06 0.000161339 5.32476e-05)
(14.0381 91.0898 94.5261)
(31.6276 193.065 151.729)
(114.867 212.758 82.0409)
(86.658 134.45 58.5528)
(43.0346 215.853 161.697)
(60.0408 189.341 87.3192)
(42.2121 149.737 94.0595)
(66.4788 223.64 152.039)
(78.114 230.172 108.957)
(44.4187 205.321 144.968)
(52.2977 227.204 146.889)
(25.6061 168.829 142.385)
(14.7879 141.753 145.652)
(22.8831 139.091 96.6925)
(67.9974 117.395 87.2728)
(51.519 228.355 14.6141)
(71.4336 177.243 44.3985)
(114.999 182.549 83.6802)
(105.024 188.999 111.586)
(0.00570229 0.00888571 0.0032777)
(37.8129 175.471 128.214)
(117.02 216.793 83.7096)
(80.7733 148.999 58.1617)
(127.996 167.978 6.52453)
(27.8542 170.121 6.10076)
(129.24 183.141 14.2681)
(53.1896 220.521 25.1187)
(132.616 168.338 25.2101)
(32.5629 175.258 19.9922)
(126.942 177.74 33.4961)
(137.638 156.251 42.6264)
(40.2793 176.658 34.3681)
(123.424 172.436 41.2325)
(80.5595 169.017 51.2069)
(154.687 158.563 61.4037)
(55.0248 189.146 51.9209)
(107.652 147.1 48.99)
(174.368 174.167 88.4822)
(68.6767 189.67 71.2547)
(58.5542 73.8413 33.8965)
(101.997 209.566 108.623)
(134.381 132.223 89.2707)
(56.2382 138.528 65.9086)
(1.50866 2.09167 1.13785)
(22.8332 22.0166 16.6141)
(12.4784 24.7886 14.0567)
(0.316099 0.435385 0.243546)
(53.0871 78.4337 45.7616)
(0.952678 0.933231 0.606387)
(0.152893 0.283771 0.139888)
(0.0147264 0.0196758 0.00963801)
(0.505449 1.86424 1.18955)
(69.2344 225.17 150.498)
(74.1067 212.88 99.8352)
(17.3497 48.8433 30.9502)
(16.355 41.6216 20.2167)
(29.9248 112.388 69.8286)
(3.65224 11.5585 5.79517)
(10.3521 16.0076 2.22707)
(0.451328 0.764312 0.174476)
(0.0131432 0.0218968 0.00685422)
(0.00120241 0.00202558 0.000957634)
(1.51557e-05 9.94455e-05 2.94456e-05)
(2.28442e-06 0.000693512 7.13261e-05)
(2.47013e-06 7.63577e-05 4.81e-06)
(3.4585e-06 0.000360862 9.43744e-05)
(1.2695e-06 3.73192e-05 9.44097e-06)
(4.90549e-06 0.000127552 3.82337e-05)
(2.4286e-07 6.32183e-06 1.91378e-06)
(1.01688e-06 2.59316e-05 8.21918e-06)
(3.75759e-08 1.39325e-06 4.02065e-07)
(4.30262e-07 5.20115e-06 1.48186e-06)
(8.298e-09 2.41711e-07 6.78688e-08)
(0.000361342 0.00108833 0.000420093)
(4.42548e-06 2.14685e-05 7.35933e-06)
(2.09188e-07 1.30645e-06 3.71345e-07)
(7.23248e-09 5.99938e-08 1.51528e-08)
(102.857 109.315 16.0581)
(69.5076 72.9562 20.0417)
(16.6858 19.5794 9.54707)
(0.0586886 0.0699971 0.0402362)
(8.03223 33.0243 21.7745)
(0.00107507 0.00435714 0.00241315)
(9.59765e-06 4.55703e-05 2.501e-05)
(5.37363e-07 3.19527e-06 1.41945e-06)
(2.43807e-08 1.79555e-07 6.72073e-08)
(8.86426e-10 8.11415e-09 2.80199e-09)
(91.6908 -163.015 249.765)
(80.9065 -181.773 320.256)
(63.44 -171.708 315.765)
(73.7136 -167.276 269.416)
(57.5625 -157.338 267.392)
(98.5282 -86.3894 290.129)
(124.55 -40.4382 247.401)
(91.0972 -68.3805 246.272)
(132.845 -57.2043 294.847)
(0.000102845 0.000279448 6.5787e-05)
(0.000278365 0.000717372 2.9287e-05)
(1.23154e-05 3.3588e-05 2.227e-06)
(6.52835e-05 0.000177699 4.17093e-05)
(4.90078e-06 1.4142e-05 3.55979e-06)
(1.65358e-05 4.28771e-05 1.29839e-05)
(9.25386e-07 2.41191e-06 7.29015e-07)
(4.31861e-06 1.35172e-05 3.72841e-06)
(1.91642e-07 6.23483e-07 1.67537e-07)
(6.36938e-07 2.90012e-06 7.94595e-07)
(2.98532e-08 1.43192e-07 3.59429e-08)
(0.198231 0.34791 0.00426324)
(0.00120056 0.00241363 0.000447451)
(0.000175554 0.000340125 9.33917e-05)
(4.37814e-05 0.000111155 3.25754e-05)
(1.24351e-05 4.47347e-05 1.50246e-05)
(-42.5 44.9905 239.724)
(-203.934 182.349 107.899)
(-136.642 176.883 222.153)
(-126.676 163.867 212.125)
(-127.257 148.256 140.416)
(-143.288 195.137 214.66)
(-139.59 155.092 109.595)
(-147.107 193.178 140.006)
(-126.297 171.703 156.657)
(-83.6841 110.976 96.4615)
(-0.0169094 0.0207159 0.0284526)
(-317.289 445.099 17.6674)
(-321.049 438.218 33.8127)
(-286.877 412.778 61.83)
(-294.458 378.108 89.5873)
(-303.625 336.977 113.959)
(-329.084 290.921 153.529)
(-331.925 161.368 184.185)
(-345.527 116.884 198.084)
(-321.188 114.283 189.576)
(-180.967 136.272 123.281)
(-173.771 -9.9389 71.4843)
(-151.194 145.427 76.8045)
(-156.993 -92.9361 112.466)
(-168.47 -50.8845 61.0173)
(-164.591 34.7407 28.7839)
(-182.454 -209.055 243.848)
(-194.624 -133.766 182.437)
(-208.357 -75.9755 121.685)
(-210.899 -179.27 185.467)
(119.846 -58.995 75.5308)
(111.357 -87.5266 88.9251)
(125.123 -24.2615 85.4225)
(100.181 -64.2779 83.1914)
(106.1 -101.378 118.443)
(94.5356 -68.5389 87.7368)
(47.6279 -22.1433 81.53)
(61.9573 -20.1629 81.6592)
(127.416 -19.4279 83.641)
(117.002 -45.5041 88.4907)
(53.5126 -12.064 79.9258)
(54.355 -39.2324 85.1049)
(120.331 -30.9041 84.6879)
(38.2392 -19.3684 71.7059)
(124.994 -17.7148 76.4741)
(44.8449 -14.9236 74.9666)
(116.727 -20.8043 70.1653)
(40.2293 -27.5827 78.7715)
(108.16 -58.0206 84.7385)
(38.4315 -54.83 83.0229)
(101.814 -39.3355 77.2105)
(46.1882 -50.0538 83.6399)
(111.158 -36.587 80.0791)
(32.639 -29.9327 76.4195)
(31.2409 -21.9859 64.8343)
(98.8556 -24.0802 55.7306)
(107.232 -22.6536 61.4536)
(25.157 -24.2154 60.2122)
(21.1636 -35.2223 85.1102)
(32.7221 -58.1303 87.4347)
(94.3072 -41.0126 79.9332)
(90.4906 -74.6836 96.583)
(26.1138 -31.4604 78.7507)
(28.69 -64.1614 95.6323)
(88.8286 -44.672 86.4438)
(15.9852 -24.9224 63.4897)
(92.3961 -24.7693 57.0075)
(20.1811 -24.7993 60.4649)
(87.2258 -25.6868 62.5092)
(187.375 64.0758 11.2239)
(182.061 -6.80366 81.2994)
(156.204 -60.3847 81.8941)
(150.274 -104.737 154.258)
(132.552 -2.19257 425.915)
(288.596 189.304 10.0504)
(183.117 24.1024 72.1797)
(282.259 165.844 70.0645)
(279.305 138.996 80.6061)
(161.653 -54.0114 76.3081)
(264.49 81.7157 84.8295)
(263.74 69.3669 95.3519)
(149.209 -91.5019 126.104)
(276.046 21.0626 156.928)
(147.905 -101.737 316.548)
(262.449 54.1008 30.7957)
(225.102 95.411 10.1443)
(207.508 36.9419 11.2631)
(180.767 62.0807 31.7896)
(218.854 95.1411 30.4892)
(202.083 35.407 32.3224)
(267.455 54.8199 10.3731)
(256.431 -13.3981 69.6863)
(225.386 22.0641 79.7018)
(196.206 -9.5983 75.6109)
(176.817 -31.5045 81.5804)
(262.532 1.73787 73.0366)
(222.743 -6.19495 78.72)
(187.993 -22.7864 73.8599)
(222.955 -41.802 81.6034)
(207.338 -45.344 84.0914)
(161.585 -36.9449 72.4666)
(151.953 -68.2783 92.0416)
(228.765 -35.7275 70.8974)
(205.04 -55.9524 96.1373)
(156.286 -42.1269 80.9236)
(215.741 -73.4992 182.538)
(208.936 -97.5199 161.504)
(151.498 -67.6245 133.481)
(150.299 -114.579 195.514)
(217.693 -67.7449 140.559)
(209.237 -108.642 201.585)
(150.436 -72.8739 175.781)
(129.069 207.657 432.497)
(86.7613 208.916 382.207)
(302.688 105.463 30.7375)
(253.967 143.674 9.84492)
(351.036 166.996 9.80027)
(283.634 193.173 29.2688)
(247.768 145.76 29.6828)
(345.993 169.547 30.611)
(308.123 104.034 10.1701)
(282.841 3.59907 29.5275)
(219.359 7.00105 11.4219)
(213.503 6.08476 31.7501)
(288.557 3.90199 10.445)
(334.402 28.1242 28.8107)
(425.28 67.9752 8.88548)
(421.55 69.4726 28.4439)
(338.808 27.256 9.54918)
(263.998 43.5041 53.2135)
(181.968 50.0882 55.0603)
(224.207 56.3303 72.3443)
(200.882 7.55629 69.3711)
(221.047 83.3887 54.2389)
(201.847 25.8199 54.573)
(265.242 22.4018 67.7621)
(304.663 95.9752 54.7162)
(282.898 186.196 52.1063)
(248.346 111.522 71.8785)
(349.231 140.826 72.9783)
(247.988 136.168 53.3829)
(347 161.623 55.0966)
(307.465 74.6449 71.1606)
(282.379 -2.34133 48.7085)
(208.462 -8.65015 63.2779)
(211.506 -0.0949028 51.4978)
(280.948 -10.6937 59.8163)
(336.591 21.8498 50.8867)
(423.413 54.1285 68.9307)
(422.859 64.3257 52.3689)
(340.228 10.3751 65.2632)
(302.705 31.5513 72.9884)
(248.083 79.0964 80.4392)
(348.824 114.981 80.4313)
(274.059 114.401 82.395)
(307.236 51.4922 77.3541)
(246.759 50.6201 81.0869)
(345.597 89.5498 76.9997)
(266.844 -19.9767 53.21)
(201.355 -16.7896 65.5215)
(274.629 -16.9429 61.07)
(192.62 -22.3205 58.6269)
(333.611 -9.96859 61.0704)
(419.205 43.2623 73.2222)
(338.681 -1.41857 68.0005)
(412.255 31.8299 66.1841)
(246.896 -22.9745 64.1142)
(169.139 -45.7038 76.939)
(211.023 -36.0056 76.5181)
(168.526 -33.9129 67.4578)
(216.864 -24.0353 75.1639)
(178.015 -29.8311 69.0268)
(236.848 -30.3245 63.7124)
(295.287 18.2408 67.4905)
(268.037 96.2802 81.1925)
(240.066 15.5913 81.4855)
(336.839 54.0558 69.793)
(243.46 30.5986 79.1701)
(341.105 69.6049 70.5612)
(287.143 8.75265 67.8791)
(256.516 -22.586 46.7784)
(172.044 -26.1915 47.92)
(181.905 -25.2979 51.2916)
(246.364 -23.2315 44.8485)
(323.366 -15.7117 55.2202)
(394.297 15.0336 57.7324)
(403.238 22.2679 59.0155)
(312.639 -19.4736 54.3125)
(276.168 -5.87822 87.3067)
(238.774 3.4007 90.0413)
(333.702 41.7252 75.882)
(265.118 56.0943 111.469)
(280.76 1.63455 75.1856)
(239.675 -8.97677 103.667)
(332.514 29.3853 87.7791)
(232.202 -23.9447 58.8036)
(164.784 -25.6077 50.1071)
(238.712 -23.0256 49.1792)
(159.169 -25.9207 56.134)
(297.474 -25.9398 71.6406)
(387.492 9.28939 63.6533)
(303.94 -22.6176 61.0677)
(383.289 3.67272 74.394)
(219.544 -49.559 95.0939)
(149.501 -78.6736 106.553)
(206.376 -83.1251 132.98)
(151.97 -58.7749 107.558)
(204.535 -68.6318 112.238)
(152.952 -49.6275 91.9689)
(218.762 -58.9718 113.039)
(274.022 -14.8525 102.884)
(269.22 40.1647 132.354)
(247.994 -40.2193 144.33)
(336.37 -0.195374 122.104)
(242.775 -23.1177 121.869)
(333.327 15.3819 103.162)
(274.544 -25.5498 122.792)
(228.078 -25.4378 72.582)
(154.308 -28.8891 83.2269)
(155.653 -26.9234 66.8183)
(226.223 -27.8835 91.4433)
(293.865 -29.3362 84.6937)
(383.333 -7.06342 105.772)
(381.92 -1.75112 88.17)
(293.088 -32.5575 101.71)
(222.361 -31.7207 167.978)
(152.944 -30.5486 111.146)
(223.464 -30.1779 121.028)
(152.386 -31.2601 158.688)
(213.132 -68.8619 239.562)
(151.409 -113.373 249.52)
(203.754 -94.6038 319.109)
(144.946 -60.0115 319.635)
(209.571 -107.69 254.218)
(150.524 -68.0472 234.204)
(203.48 -60.0877 323.504)
(215.33 -28.7282 235.021)
(144.379 -27.6566 356.432)
(150.74 -27.8015 228.2)
(202.752 -28.207 361.309)
(129.566 270.349 353.933)
(143.017 108.041 432.074)
(129.45 259.2 412.874)
(176.27 254.561 407.61)
(200.317 107.775 434.544)
(172.76 267.993 340.192)
(180.115 208.806 424.176)
(104.482 -20.9282 9.13497)
(109.801 -41.1817 25.5078)
(107.865 -87.8091 51.2119)
(99.535 -132.393 75.6947)
(92.0779 -146.965 111.262)
(162.85 73.3282 10.8476)
(133.62 41.9663 38.4886)
(133.912 -33.3908 75.3541)
(128.119 -62.3098 88.3162)
(128.408 -78.34 118.849)
(182.882 -80.2619 158.129)
(190.366 -100.688 188.847)
(142.307 -157.514 344.997)
(102.868 -51.9756 7.95531)
(99.2937 -113.568 52.8446)
(249.447 161.753 8.77003)
(101.797 -73.8009 26.5293)
(243.77 149.912 40.9601)
(240.212 130.61 54.692)
(217.461 83.9347 89.3798)
(215.684 78.1578 106.697)
(225.427 46.5751 185.679)
(59.3559 5.48507 4.2425)
(82.9919 22.4959 6.37718)
(82.2585 23.2742 1.85558)
(61.3539 4.94966 7.3685)
(58.3372 3.64474 8.80268)
(86.4279 14.8519 5.49576)
(82.5871 22.1372 3.96401)
(59.8914 -6.00484 12.1908)
(68.9579 -30.4994 38.6016)
(94.8847 4.88341 16.3677)
(65.2399 -18.9292 23.2408)
(101.456 -4.96381 33.1561)
(68.6217 -35.2358 58.3316)
(101.734 -10.205 54.3366)
(111.117 -21.2377 168.733)
(139.05 95.1791 7.48956)
(195.566 124.733 7.67036)
(200.488 137.847 9.03783)
(245.177 167.364 17.4333)
(194.572 127.415 4.08443)
(193.926 141.609 20.947)
(142.837 93.2502 8.621)
(137.5 92.2394 14.1881)
(244.833 163.418 29.7577)
(193.025 117.411 9.09906)
(193.288 118.078 52.1062)
(193.583 126.134 6.70437)
(193.635 135.74 37.6492)
(137.128 79.3496 20.4465)
(130.034 45.0028 51.782)
(191.643 104.421 20.6707)
(191.637 93.2197 66.3385)
(232.675 109.693 65.8318)
(135.698 61.7324 35.0805)
(186.468 91.1745 38.6771)
(187.307 66.3695 74.0891)
(123.84 35.9032 69.1086)
(223.753 93.5679 75.7661)
(175.647 84.1737 83.1603)
(178.218 32.8267 87.1215)
(180.681 85.1285 60.5254)
(181.33 46.0059 78.4858)
(121.561 33.1283 87.1419)
(128.182 24.4322 132.779)
(176.802 83.7916 107.986)
(179.073 22.6255 100.854)
(216.356 70.4578 128.183)