/*--------------------------------*- C++ -*----------------------------------*\
  =========                 |
  \\      /  F ield         | OpenFOAM: The Open Source CFD Toolbox
   \\    /   O peration     | Website:  https://openfoam.org
    \\  /    A nd           | Version:  9
     \\/     M anipulation  |
\*---------------------------------------------------------------------------*/
FoamFile
{
    format      ascii;
    class       volScalarField;
    location    "0.0001";
    object      alpha.c4;
}
// * * * * * * * * * * * * * * * * * * * * * * * * * * * * * * * * * * * * * //

dimensions      [0 0 0 0 0 0 0];

internalField   nonuniform List<scalar> 
1991
(
3.55962e-56
1.69906e-58
6.02923e-61
4.89166e-68
1.91327e-70
5.73146e-73
2.51656e-63
2.35189e-57
1.02661e-59
3.79791e-65
9.74156e-68
6.40686e-68
4.87158e-65
4.86692e-65
4.47206e-65
2.28675e-70
9.38321e-68
1.80939e-67
1.25384e-72
7.47555e-70
5.56996e-70
5.69987e-68
1.58548e-70
4.98881e-73
1.04025e-53
5.09371e-56
1.8444e-58
5.43263e-61
7.15865e-55
3.25599e-57
1.10084e-59
3.01059e-62
3.60854e-60
1.57804e-62
6.62579e-65
2.10252e-67
3.56324e-56
4.18993e-56
4.19485e-56
7.38774e-59
4.79586e-59
7.41798e-59
4.81268e-59
1.70077e-58
1.00872e-58
1.01322e-58
2.40512e-61
2.23287e-61
2.41979e-61
2.24056e-61
6.0352e-61
4.07034e-61
4.09331e-61
7.77518e-64
7.74906e-64
1.21368e-63
1.22065e-63
1.74271e-63
2.51978e-63
1.74443e-63
4.77757e-66
4.7616e-66
2.19936e-66
2.19198e-66
2.79867e-57
2.31213e-57
2.74444e-57
2.87796e-60
4.76091e-60
4.76047e-60
3.04986e-60
6.14356e-60
1.20707e-62
1.00816e-59
6.00161e-60
1.57935e-62
1.4083e-62
1.28445e-62
3.28346e-62
3.3473e-62
2.34252e-62
6.09635e-65
2.26809e-62
4.05793e-65
6.52837e-65
2.44504e-67
1.24579e-64
8.68054e-65
6.92281e-65
2.97575e-65
1.61917e-67
3.90509e-68
4.16528e-64
1.98943e-66
6.39698e-69
5.22001e-71
2.09846e-73
6.04772e-76
2.69024e-65
1.14587e-67
3.0544e-70
2.64403e-72
9.81947e-75
6.40355e-62
1.05414e-66
2.90043e-64
1.54931e-68
4.46666e-69
4.14236e-64
2.89095e-64
1.52923e-68
4.42476e-69
9.81094e-67
6.56468e-71
1.40988e-71
1.97966e-66
9.77976e-67
6.48775e-71
1.39714e-71
2.60458e-69
1.06028e-71
5.13176e-71
1.04613e-71
3.21238e-74
2.0662e-73
3.17123e-74
5.95661e-76
4.87021e-73
1.36689e-75
2.40086e-73
2.69898e-69
1.97343e-73
3.20295e-72
6.37095e-69
2.684e-69
1.95171e-73
3.18303e-72
1.56587e-71
5.21991e-71
1.56583e-71
6.6858e-74
2.09842e-73
6.68564e-74
2.67912e-76
6.04745e-76
2.41112e-76
1.48697e-65
8.12377e-70
2.07698e-70
2.33915e-65
1.39647e-65
3.51744e-68
1.56256e-68
4.54573e-68
3.1386e-72
6.00327e-73
9.1777e-68
4.25228e-68
1.40834e-70
4.62388e-71
8.55196e-73
3.22702e-72
1.1065e-72
3.34506e-75
1.09483e-74
5.00354e-75
2.59296e-77
2.75838e-75
5.65005e-76
1.9535e-73
2.66724e-69
2.60451e-69
2.66705e-69
1.07815e-71
1.06027e-71
1.07814e-71
5.20146e-71
1.54068e-71
1.55819e-71
1.05712e-71
1.06374e-71
1.07492e-71
3.27704e-74
3.21233e-74
3.27699e-74
2.09144e-73
6.58052e-74
6.65672e-74
3.20318e-74
3.23482e-74
3.2676e-74
6.02931e-76
2.64484e-76
2.40129e-76
4.95467e-73
6.49157e-73
5.66874e-73
1.39705e-75
1.80893e-75
1.8442e-75
4.96882e-71
1.05992e-70
3.17665e-70
8.4391e-75
5.7595e-74
4.52109e-73
1.12064e-73
1.45155e-75
5.70171e-76
7.29947e-73
2.39701e-73
2.41598e-73
1.25006e-75
2.41208e-73
4.83424e-76
1.00402e-77
3.19461e-77
1.43677e-77
2.75332e-75
2.27359e-75
2.27221e-75
4.47525e-65
5.76455e-68
4.88931e-68
1.81041e-67
8.92697e-68
2.1089e-70
1.91106e-70
5.5732e-70
7.48261e-70
1.22422e-72
5.72506e-73
4.17499e-64
4.15539e-64
1.06979e-66
1.05412e-66
4.15535e-64
1.06976e-66
4.17504e-64
2.63536e-66
3.68698e-66
6.51991e-69
1.54928e-68
3.68693e-66
6.51977e-69
2.63539e-66
1.8314e-66
1.82471e-66
4.51363e-69
4.46661e-69
1.82469e-66
4.51357e-69
1.83141e-66
2.62133e-66
1.54273e-68
3.65926e-66
6.44542e-69
3.66814e-66
6.48651e-69
2.61642e-66
1.82557e-66
4.45288e-69
1.81548e-66
4.47107e-69
1.8189e-66
4.49965e-69
1.82212e-66
1.21728e-68
1.66335e-68
2.89879e-71
6.56456e-71
1.66333e-68
2.89874e-71
1.2173e-68
6.00636e-69
5.97643e-69
1.42796e-71
1.40987e-71
5.97639e-69
1.42795e-71
6.0064e-69
1.21152e-68
6.54057e-71
1.65238e-68
2.868e-71
1.6562e-68
2.88562e-71
1.20933e-68
5.98786e-69
1.40569e-71
5.9472e-69
1.41499e-71
5.95803e-69
1.4237e-71
5.97692e-69
5.17919e-71
1.03832e-73
1.97359e-73
5.17916e-71
9.14557e-74
3.76376e-71
3.7781e-71
1.96721e-73
5.14874e-71
1.02825e-73
5.16024e-71
9.10998e-74
3.74903e-71
3.75667e-71
2.06554e-67
3.68375e-70
9.20256e-70
1.55422e-67
3.76296e-70
1.5023e-67
1.97268e-67
8.64197e-68
2.09942e-70
2.44644e-70
8.67828e-68
2.0242e-70
8.317e-68
8.28326e-68
8.3776e-70
1.48371e-72
3.07293e-72
6.42387e-70
1.88362e-72
6.19955e-70
7.97606e-70
2.56483e-70
6.08874e-73
7.03348e-73
2.57934e-70
7.12301e-73
2.47177e-70
2.45765e-70
5.64553e-76
5.68422e-76
5.67988e-76
2.23503e-72
4.13608e-75
9.65257e-75
1.66914e-72
2.12093e-72
5.17185e-75
1.60445e-72
1.81846e-74
1.66766e-82
1.80449e-74
1.65892e-82
3.29708e-76
1.6676e-82
1.67071e-82
1.67065e-82
8.32189e-80
8.3382e-80
8.32215e-80
8.33795e-80
1.66196e-82
8.27662e-80
8.215e-80
8.1992e-80
8.2926e-80
1.93377e-81
1.93007e-81
3.97072e-77
1.81457e-74
3.97889e-77
1.81844e-74
1.81454e-74
3.97081e-77
3.9788e-77
3.94811e-77
1.8076e-74
1.80064e-74
3.93345e-77
1.80373e-74
3.92548e-77
3.95615e-77
3.29004e-76
8.2583e-79
8.24161e-79
6.00891e-79
2.99134e-76
2.98569e-76
6.01904e-79
1.33113e-77
7.71058e-78
4.44339e-78
6.07932e-78
1.1188e-78
3.28145e-78
1.78265e-78
1.10677e-78
1.37718e-60
1.86701e-61
1.27717e-51
9.86931e-53
1.97447e-61
5.09408e-59
4.82535e-59
3.45314e-58
3.58841e-58
1.13208e-57
1.13348e-57
1.48879e-60
1.13112e-57
1.51601e-60
1.13016e-57
1.60633e-58
2.03974e-61
1.60501e-58
1.58999e-58
1.59127e-58
1.25169e-59
6.5762e-67
2.44781e-64
5.91145e-67
6.58892e-67
5.9112e-67
8.538e-62
8.83901e-62
2.28178e-64
2.44621e-64
8.82504e-62
2.28171e-64
8.53812e-62
4.52272e-54
1.13219e-61
5.56801e-69
9.51116e-61
5.52257e-68
7.33151e-64
8.68581e-60
4.28954e-65
1.24831e-59
8.65738e-60
1.01838e-64
4.60211e-65
2.11445e-66
1.12299e-67
3.3162e-67
1.19826e-67
1.83831e-68
4.73388e-69
5.58538e-69
4.73286e-69
5.7058e-61
1.98354e-65
8.07643e-66
8.98281e-61
5.40438e-61
6.48617e-64
3.08847e-68
4.01189e-67
1.1075e-67
4.01044e-67
1.0569e-66
1.7443e-67
5.85732e-67
3.89474e-67
1.20177e-67
3.99932e-67
1.03208e-68
1.86818e-68
1.89931e-68
1.50495e-68
3.38712e-55
3.05556e-63
2.08707e-60
6.14505e-61
7.31345e-64
2.085e-60
6.14135e-61
5.8403e-62
1.6028e-62
1.54885e-64
4.16715e-65
1.53118e-62
1.54831e-64
5.84204e-62
8.49499e-62
3.32287e-64
2.86518e-62
6.64649e-65
9.62575e-62
2.26425e-64
2.45736e-62
5.82879e-62
1.51911e-64
1.72767e-62
4.57924e-65
5.79674e-62
1.54443e-64
1.70455e-62
7.39766e-64
7.81499e-64
1.89565e-66
2.11328e-66
7.79929e-64
1.89534e-66
7.39814e-64
3.1901e-66
8.72215e-64
6.53746e-63
1.35719e-65
5.77161e-63
3.44894e-63
8.16103e-66
5.55663e-66
3.46248e-63
3.67452e-66
1.12947e-63
1.11163e-63
1.78985e-63
6.12477e-58
4.52744e-54
4.90644e-54
8.24456e-57
6.29053e-57
4.91199e-54
8.27867e-57
6.31311e-57
3.33466e-55
4.33087e-58
6.00823e-58
3.7024e-55
3.76456e-55
6.34223e-58
4.56246e-58
7.42889e-63
4.90912e-70
3.97727e-66
1.10295e-61
2.24304e-66
6.33016e-69
1.70683e-67
6.71003e-63
8.75621e-66
2.61989e-70
5.30681e-70
3.21392e-70
4.56411e-69
4.63001e-69
1.50065e-65
1.1395e-62
3.47517e-63
1.38029e-65
1.13828e-62
3.47243e-63
7.20561e-64
7.64258e-64
1.83455e-66
1.8494e-66
7.19163e-64
5.24924e-65
1.09009e-67
1.52876e-67
4.44538e-65
1.09201e-67
4.29682e-65
4.55153e-65
1.04942e-65
1.51773e-60
4.98898e-60
5.944e-58
1.23648e-65
3.60156e-58
6.48737e-62
2.11701e-66
5.68668e-58
3.92292e-63
5.92164e-58
5.66601e-58
1.26718e-62
3.61224e-65
3.9614e-64
1.9032e-64
1.9033e-64
1.89788e-64
1.87123e-64
4.95846e-60
3.3376e-62
3.36409e-62
3.14509e-57
2.8893e-57
3.12708e-57
2.87447e-57
1.20646e-65
3.37452e-65
3.37272e-65
8.63048e-64
5.24702e-59
5.02081e-59
2.1037e-66
1.91894e-66
2.05838e-66
2.47852e-64
1.36303e-65
7.68474e-66
3.36329e-65
3.78518e-58
5.22514e-61
4.99015e-61
4.59102e-61
7.24383e-63
3.9534e-64
2.06588e-66
9.47343e-67
9.05107e-67
3.89972e-64
3.89164e-64
2.02639e-66
1.70548e-65
1.04355e-65
1.48873e-60
2.03765e-61
1.97274e-61
3.75716e-63
4.2953e-60
1.19017e-60
1.21931e-62
1.1099e-60
1.21866e-62
4.29741e-60
4.44154e-63
4.27856e-60
1.3923e-60
2.68652e-63
4.3353e-60
1.21494e-62
9.15506e-61
3.3815e-62
6.56793e-62
6.56828e-62
2.20826e-59
2.20834e-59
7.20066e-60
7.12369e-60
6.54402e-62
3.32739e-62
6.48811e-62
2.19235e-59
2.19797e-59
7.16426e-60
7.07578e-60
5.779e-64
3.37676e-61
8.0969e-64
3.31174e-61
5.72817e-64
1.07663e-61
1.08156e-61
6.52324e-63
1.99518e-63
2.42786e-60
3.76737e-63
2.39631e-60
4.98323e-61
7.84854e-61
3.18209e-63
3.59503e-63
8.8902e-66
9.88936e-66
1.81624e-66
3.63912e-64
7.71013e-64
6.07564e-62
2.34897e-64
3.17346e-65
8.71741e-66
3.17196e-65
3.09259e-65
6.76252e-66
3.15645e-65
1.82013e-66
1.91352e-66
1.93244e-66
8.44841e-67
3.63166e-64
3.64782e-64
3.64056e-64
1.9074e-66
4.09627e-60
1.10447e-60
1.15745e-62
3.06725e-63
1.04389e-60
1.15691e-62
4.0979e-60
4.07995e-60
1.13835e-62
1.26819e-60
2.40148e-63
4.07025e-60
1.1519e-62
8.30351e-61
3.16677e-61
7.71835e-64
5.37967e-64
3.16488e-61
5.40837e-64
1.02936e-61
1.02243e-61
6.84437e-60
4.75638e-57
1.25146e-58
8.41248e-56
8.42201e-56
1.25615e-58
1.15525e-63
6.90309e-68
4.52372e-68
1.90105e-66
8.38109e-67
3.04577e-63
2.03214e-65
1.49673e-65
5.71084e-63
5.95706e-63
6.37325e-62
1.04247e-66
2.56489e-69
1.30736e-70
2.35491e-70
8.37309e-71
9.04538e-73
3.66206e-63
5.41961e-68
3.44894e-63
3.9855e-66
6.53666e-71
5.15372e-71
7.22925e-71
5.16426e-71
3.46859e-73
2.86609e-73
1.95741e-73
2.59301e-69
2.62036e-69
2.64489e-69
1.33426e-70
1.76899e-70
1.54603e-70
1.43746e-75
5.69678e-76
2.20424e-68
3.90987e-73
2.3511e-70
1.88416e-70
1.88086e-70
6.54144e-73
1.75798e-73
8.35901e-71
8.41352e-71
3.81994e-73
8.3993e-71
1.73691e-73
3.84095e-73
1.47304e-75
9.02809e-73
7.31163e-73
3.93401e-75
2.67969e-75
2.83093e-75
4.90831e-76
1.25853e-75
3.81336e-71
1.28091e-73
4.01622e-76
3.96532e-66
4.1552e-64
1.04935e-66
4.12804e-64
1.05681e-66
4.13607e-64
1.06251e-66
4.1471e-64
2.19601e-65
5.48926e-68
6.45542e-68
2.20675e-65
5.34045e-68
2.12136e-65
2.1151e-65
8.78942e-87
2.57636e-74
1.67521e-76
1.84497e-79
5.13055e-82
1.14511e-77
3.19196e-85
3.17595e-85
3.0188e-78
5.29547e-79
1.10221e-79
3.98534e-80
1.23652e-80
5.89771e-79
5.12207e-82
2.9333e-82
1.57815e-83
1.04332e-81
3.16198e-84
9.65508e-85
4.24958e-84
1.80282e-71
1.2926e-73
1.93535e-76
5.5026e-79
5.67566e-68
2.20325e-68
1.17789e-75
2.30057e-76
5.0607e-78
2.07333e-76
6.24484e-81
1.96097e-79
2.58604e-87
2.76124e-83
1.60616e-86
2.66051e-87
7.35133e-91
1.64541e-87
3.6941e-82
1.41537e-82
2.89418e-84
2.31207e-84
4.7452e-75
1.90771e-74
4.37429e-74
2.64485e-77
1.05429e-77
8.02264e-75
7.57381e-75
5.17817e-77
2.31154e-76
7.48944e-77
1.19541e-79
8.00063e-80
4.86318e-77
4.11727e-77
5.58715e-79
7.60487e-79
5.70289e-79
7.42195e-82
2.70956e-82
1.76864e-79
1.37856e-79
3.19183e-85
3.19749e-85
3.19737e-85
5.83247e-88
5.84231e-88
5.83271e-88
5.84207e-88
3.18146e-85
3.13213e-85
3.12671e-85
5.80468e-88
5.70905e-88
5.69967e-88
5.81424e-88
1.11311e-78
2.37464e-76
1.18444e-76
3.58032e-80
7.71827e-77
1.27279e-79
2.19096e-77
4.33948e-79
2.91166e-77
5.63356e-77
2.89151e-80
5.00841e-78
8.51258e-81
1.816e-77
2.78745e-82
1.99785e-82
2.62142e-79
1.00502e-79
6.59123e-82
1.48815e-82
1.4231e-79
1.65834e-82
5.85553e-83
4.94709e-80
4.00233e-80
8.88639e-83
5.94516e-83
7.49738e-80
3.70687e-81
4.45088e-79
9.03098e-79
1.26327e-82
2.94187e-79
4.72004e-82
8.03919e-80
2.74877e-81
2.70193e-81
5.90784e-79
1.0186e-82
4.75718e-80
7.48815e-83
6.52902e-80
1.07429e-84
9.92922e-85
1.07429e-81
4.39715e-82
2.59713e-84
6.30102e-85
5.88208e-82
7.78529e-85
4.16783e-85
3.81071e-82
2.94124e-82
6.76121e-85
4.20143e-85
4.15217e-82
3.14137e-81
7.25543e-81
5.90074e-83
9.50609e-85
2.19004e-81
3.47771e-84
6.41874e-82
5.24203e-84
7.15995e-84
1.67064e-81
8.77711e-85
1.80144e-82
2.6916e-85
6.04306e-82
6.91286e-87
6.15425e-87
7.23393e-84
2.6441e-84
1.86023e-86
3.65387e-87
3.78975e-84
4.36649e-87
1.3326e-87
1.28942e-84
9.69536e-85
2.2525e-87
1.35127e-87
2.05207e-84
5.06755e-82
6.44324e-81
4.63254e-72
1.7904e-71
3.35082e-71
1.6054e-68
4.36366e-69
1.73519e-68
4.37125e-69
5.24957e-74
1.68515e-73
7.14537e-74
4.43115e-76
4.8707e-76
4.71487e-76
1.64101e-82
1.63802e-82
4.77256e-76
7.62517e-74
2.22334e-74
2.18899e-73
6.5018e-73
4.37238e-73
3.945e-73
2.03233e-76
5.32432e-75
1.90775e-74
9.97709e-74
1.5272e-73
9.78259e-74
1.54685e-73
1.64366e-78
8.42339e-77
2.95621e-76
7.85071e-76
2.73061e-75
1.93768e-75
1.57555e-75
1.00745e-78
9.89546e-79
2.07458e-76
3.5567e-76
9.61965e-76
3.49177e-76
9.69147e-76
5.66593e-79
2.20512e-78
2.0579e-80
2.87679e-78
1.11943e-77
6.87049e-78
7.23407e-78
2.06692e-81
2.61908e-81
5.32493e-79
9.66395e-79
3.137e-78
9.44684e-79
3.16725e-78
8.77438e-87
1.71508e-89
1.71261e-89
1.01904e-89
3.91742e-87
3.91413e-87
7.77107e-90
3.9604e-81
1.62492e-81
3.29871e-81
4.15868e-84
7.62982e-85
5.42943e-82
4.14941e-82
4.2419e-84
1.16541e-81
2.17991e-84
2.17701e-84
1.16736e-81
1.62859e-78
1.30929e-78
2.56094e-78
1.04721e-70
5.67739e-68
4.85445e-68
2.51357e-70
4.85503e-68
1.66237e-70
1.53908e-70
4.78734e-71
2.21404e-68
6.51785e-71
2.21504e-68
4.72654e-71
6.5749e-71
1.08288e-72
7.29369e-73
1.46666e-85
1.44914e-83
2.0832e-86
6.34944e-87
2.49497e-83
4.45892e-84
7.6853e-86
2.71189e-89
4.18043e-86
9.59279e-89
4.05151e-89
1.44089e-86
1.93476e-89
2.21413e-86
6.20221e-91
7.28023e-90
5.3029e-88
7.28522e-90
4.41803e-88
1.58644e-88
1.57415e-88
5.16178e-83
3.66803e-80
1.89543e-80
8.4237e-81
6.02075e-81
2.40383e-83
1.74542e-80
3.76459e-72
2.11124e-74
7.284e-77
2.25269e-79
6.44592e-69
1.01734e-90
1.01897e-90
1.01739e-90
1.01893e-90
1.0127e-90
9.93591e-91
9.92042e-91
1.01428e-90
3.16428e-92
3.16157e-92
3.25609e-92
2.07527e-92
1.24938e-77
3.66669e-80
1.86398e-80
3.65775e-81
3.09488e-81
4.2839e-78
4.07906e-78
7.66916e-88
2.75074e-84
1.18412e-86
3.21256e-84
5.34873e-85
1.84406e-84
1.33411e-86
3.62207e-90
2.64231e-87
3.54385e-90
1.22623e-89
6.10605e-90
3.57695e-87
5.87453e-87
1.08853e-84
3.20938e-82
8.19147e-85
2.06961e-85
1.47872e-82
2.73252e-85
1.34811e-82
3.81103e-85
1.4244e-82
3.14347e-85
1.07893e-85
6.81139e-83
1.07101e-85
6.83647e-83
2.13025e-81
4.5612e-84
7.40365e-82
8.15463e-81
4.98356e-84
5.4129e-81
2.10057e-81
2.09945e-75
7.10186e-70
4.70829e-73
1.41544e-70
1.40575e-70
1.09542e-77
4.76675e-75
1.28146e-77
4.29776e-75
5.22146e-67
2.35332e-64
2.14163e-86
5.10809e-83
4.89117e-77
8.60513e-64
5.12897e-67
6.42904e-68
2.92442e-70
3.54275e-71
1.11912e-64
3.75322e-62
3.44465e-63
1.9224e-63
6.14217e-69
7.34789e-70
1.60256e-72
1.99274e-64
1.47464e-66
3.72366e-62
1.99431e-64
1.46275e-66
4.01322e-72
2.45408e-64
5.8719e-69
1.7666e-61
1.75586e-61
2.34896e-64
2.33312e-64
6.46205e-64
2.8884e-63
2.69979e-65
3.91587e-68
7.19986e-68
2.00146e-66
1.82279e-71
7.64415e-74
3.15412e-70
2.00468e-64
8.28117e-67
8.25025e-67
2.8716e-67
2.84957e-66
4.2717e-69
1.47462e-66
2.84892e-66
4.27159e-69
2.87171e-67
2.87399e-69
1.69169e-71
1.69346e-71
2.86635e-69
1.97247e-64
8.25026e-67
8.11348e-67
2.87436e-67
1.46473e-66
2.62008e-66
4.21114e-69
3.13651e-66
4.24979e-69
2.80898e-67
2.86761e-69
1.65684e-71
1.68725e-71
2.80474e-69
2.10986e-74
1.90376e-74
3.57476e-72
1.95287e-75
1.33127e-72
2.26451e-75
1.09175e-72
5.38678e-67
2.85775e-67
1.26213e-69
2.15672e-69
6.8809e-72
6.16053e-72
9.69822e-70
2.02816e-69
5.70849e-69
9.35305e-63
1.17555e-65
5.20447e-74
3.3067e-76
7.55544e-75
9.63682e-78
1.87061e-63
1.9193e-63
1.86768e-63
4.31784e-66
2.26734e-66
2.43617e-65
2.63729e-65
2.62156e-69
4.1474e-68
1.29658e-68
1.80682e-71
4.48742e-68
1.37433e-68
8.72059e-70
8.86226e-68
1.20971e-67
2.28383e-65
1.25753e-72
2.65635e-70
4.06992e-70
4.20461e-71
3.14325e-69
1.61204e-68
6.62298e-71
3.24514e-68
1.3956e-68
1.15067e-68
5.19109e-68
2.31262e-67
2.49487e-70
2.30422e-68
3.60064e-68
7.81397e-68
2.38695e-67
9.41003e-69
2.36035e-73
3.37471e-72
3.107e-74
5.5147e-71
2.45047e-71
1.76309e-76
8.34094e-74
4.82922e-76
1.02601e-73
2.44681e-73
2.88789e-63
2.88557e-63
1.25768e-65
6.97387e-66
8.97787e-66
1.65145e-65
2.88333e-63
3.75316e-62
3.6528e-62
3.65275e-62
1.04315e-64
5.34819e-64
5.34273e-64
1.04319e-64
3.35966e-63
3.39796e-63
6.67863e-65
8.98838e-66
1.13066e-65
6.853e-65
3.31455e-63
4.35733e-74
1.60238e-72
2.17243e-71
2.26875e-75
6.38507e-73
2.97707e-72
1.8213e-71
3.73144e-62
3.63158e-62
3.62399e-62
1.04095e-64
4.5027e-64
6.51122e-64
1.02561e-64
1.4655e-78
6.47596e-76
1.76016e-76
3.15499e-76
4.71334e-79
7.91028e-77
2.53995e-76
2.08557e-86
4.86806e-84
8.08965e-83
2.21153e-73
5.98579e-83
8.007e-84
3.37208e-86
1.82447e-74
2.05295e-75
5.99857e-72
6.96551e-83
3.64061e-83
7.34645e-78
6.06022e-80
4.85488e-80
4.25378e-73
2.11428e-88
2.11403e-88
7.34896e-86
6.03553e-83
1.13338e-85
1.94856e-83
1.14521e-85
1.91012e-83
7.49788e-86
2.81784e-88
2.50337e-88
2.0993e-88
4.07042e-88
6.74876e-76
3.55304e-78
1.90149e-75
2.98393e-78
5.2913e-78
1.71979e-75
2.69164e-78
2.51428e-75
2.68283e-67
1.18002e-69
1.88375e-69
5.36308e-69
4.02112e-86
1.95589e-84
3.96653e-83
1.03945e-85
2.22954e-83
6.70299e-84
1.18623e-83
3.12394e-86
8.87022e-86
2.19758e-83
5.7437e-84
7.2547e-89
1.57839e-87
8.40469e-89
9.30731e-86
5.15588e-86
6.60097e-86
5.15971e-86
7.11638e-83
8.07784e-83
7.11574e-83
9.96969e-80
9.49652e-80
9.95856e-80
9.48767e-80
7.00895e-76
6.07922e-76
6.33064e-77
6.03334e-77
2.23835e-73
7.4706e-74
7.40355e-74
2.03442e-80
6.43541e-78
1.53036e-80
4.36912e-81
3.06774e-78
5.74429e-81
2.72024e-78
5.72575e-78
1.50702e-80
3.79068e-81
2.36242e-78
7.78791e-94
2.53478e-98
5.15806e-91
9.24046e-88
2.96877e-90
8.35056e-85
9.49784e-72
6.24053e-76
3.99403e-91
7.63142e-87
4.52182e-89
8.39004e-97
7.25716e-90
1.24701e-91
1.31115e-90
1.31526e-91
4.14283e-88
1.72091e-88
3.20201e-93
4.68361e-93
1.75587e-90
1.71622e-75
5.39557e-76
1.0774e-76
3.0526e-77
5.16532e-78
7.11485e-69
7.47794e-66
3.72141e-66
1.75172e-73
4.41328e-74
3.24121e-92
5.51035e-95
5.88755e-92
9.05532e-94
5.82631e-95
9.60895e-92
3.17919e-92
2.25826e-95
2.07284e-98
1.38702e-95
7.01138e-98
5.46515e-98
2.41845e-95
1.30319e-95
3.25323e-86
5.70695e-78
9.16362e-89
5.48057e-85
9.69602e-86
1.06236e-79
1.66735e-80
6.73103e-82
1.30782e-82
2.16588e-87
2.94045e-70
5.34949e-72
9.69369e-73
2.19352e-72
6.97366e-75
1.31671e-75
1.4453e-72
4.11528e-73
1.72456e-88
1.50208e-89
4.34417e-91
3.51639e-89
1.72478e-88
6.81661e-91
2.15422e-88
1.48241e-88
7.33922e-94
4.39345e-97
5.17864e-94
1.86331e-96
2.36634e-96
7.57263e-94
2.12022e-94
5.03329e-91
6.15344e-93
5.93351e-91
5.75329e-90
1.60732e-93
2.01295e-90
2.85308e-90
3.95316e-91
4.82708e-94
1.28237e-91
8.95107e-91
8.35422e-94
1.79556e-91
1.07277e-90
7.33949e-93
1.99321e-95
2.16517e-93
2.23155e-92
1.48195e-95
7.63296e-93
1.12783e-92
1.79679e-74
3.71182e-72
3.69993e-72
3.00646e-73
5.21257e-76
3.89159e-73
2.67271e-78
2.32536e-75
4.6463e-78
1.96967e-76
7.17551e-74
3.29645e-74
1.05852e-77
2.22587e-74
3.78283e-77
6.47717e-75
8.807e-77
1.19655e-74
6.39062e-75
6.43257e-78
1.1586e-75
2.00782e-78
3.93803e-75
8.07532e-80
5.87731e-80
7.53398e-77
2.72153e-77
2.05378e-79
4.11621e-80
3.98845e-77
3.24613e-80
7.89224e-81
7.46317e-78
5.21254e-78
1.53273e-80
8.13045e-81
1.29987e-77
4.38416e-69
9.21378e-70
1.69217e-69
3.73811e-66
8.37581e-67
3.74968e-66
8.38362e-67
5.91452e-72
1.17805e-69
5.33726e-69
1.85939e-69
7.38612e-74
2.10377e-71
5.62272e-72
3.15597e-71
1.07614e-70
5.4826e-71
6.09453e-71
3.88704e-74
3.92621e-72
1.2091e-72
1.81018e-71
2.90984e-71
1.77948e-71
2.94259e-71
4.4168e-88
2.66348e-87
5.70978e-85
8.05376e-88
3.20249e-85
8.58715e-86
1.30082e-85
1.59114e-90
1.00622e-89
1.82495e-87
2.93023e-90
1.15117e-87
3.02389e-88
4.27507e-88
1.47474e-68
7.46364e-66
6.63811e-66
3.6957e-68
6.63484e-66
2.11538e-68
2.0103e-68
8.37431e-69
3.72287e-66
3.73662e-66
1.1849e-68
3.73807e-66
8.28175e-69
1.19461e-68
4.84515e-86
2.30416e-83
5.70729e-84
8.85249e-89
1.16043e-88
6.35608e-86
2.40706e-88
6.06418e-86
1.65289e-86
1.57966e-86
6.17957e-70
1.12815e-66
3.0116e-91
9.49157e-91
7.40975e-91
6.51202e-88
4.38386e-88
6.42455e-88
4.39692e-88
6.20651e-85
8.45996e-85
6.21463e-85
9.42296e-82
8.52801e-82
9.40372e-82
8.5228e-82
2.33061e-75
1.00949e-77
1.78996e-78
7.25308e-79
1.65566e-79
7.30973e-76
2.08456e-76
1.58684e-80
2.35729e-78
3.76951e-81
3.3317e-82
8.94468e-80
2.26224e-82
5.84407e-83
4.25359e-80
8.21006e-83
3.7951e-80
4.35995e-83
1.69249e-80
4.10355e-83
1.09978e-83
6.78724e-81
1.06622e-83
6.8572e-81
2.0554e-88
5.548e-85
4.53604e-79
3.25899e-73
9.55036e-101
1.44414e-92
1.6971e-92
8.76e-95
3.1257e-86
6.01762e-80
3.84229e-85
4.93744e-99
7.62598e-94
1.0047e-93
1.13876e-90
2.08696e-101
1.1259e-95
3.51376e-96
2.64688e-95
5.25214e-96
1.54581e-92
5.34546e-93
1.2575e-97
1.31068e-94
3.6303e-98
2.11557e-101
4.94408e-98
4.28078e-100
1.04808e-100
1.3342e-97
1.3533e-98
4.17315e-93
1.97239e-89
7.9448e-90
1.82194e-84
9.39014e-85
2.34421e-86
1.14742e-86
7.78478e-92
3.4222e-87
2.99149e-87
8.59854e-89
3.29531e-96
1.64517e-99
3.10635e-96
1.13848e-98
1.05647e-98
4.61146e-96
9.73863e-97
1.77453e-93
3.19647e-96
8.59149e-94
1.45013e-92
4.05962e-96
1.15484e-93
1.45255e-92
2.29796e-98
6.68439e-102
1.37426e-98
4.85744e-101
7.15491e-101
2.04364e-98
4.2718e-99
1.80379e-95
1.46135e-97
8.56246e-96
2.13688e-94
3.94448e-98
6.45707e-95
9.56352e-95
1.47604e-95
1.47116e-98
4.99756e-96
3.32869e-95
2.94933e-98
5.33585e-96
4.67511e-95
5.1004e-97
3.76564e-100
3.80377e-98
5.90398e-97
8.12333e-100
1.32245e-97
9.1133e-97
6.54072e-93
9.78304e-92
1.03533e-89
2.53859e-92
4.923e-90
1.45724e-90
2.59461e-90
3.05338e-95
3.43965e-94
5.69767e-92
3.21465e-94
2.41124e-92
6.38192e-93
1.27348e-92
3.95534e-93
9.12044e-93
3.22581e-90
1.9309e-92
3.04131e-90
8.78132e-91
8.70357e-91
5.77091e-103
1.46228e-101
1.09312e-94
2.20784e-100
2.06444e-94
1.31563e-88
4.45496e-91
5.03333e-87
1.69661e-93
1.65121e-93
8.83316e-104
8.50574e-98
1.23085e-98
1.44005e-98
1.75853e-95
7.13631e-100
1.48566e-103
3.41979e-100
1.31397e-102
1.98507e-102
5.14213e-100
9.94288e-101
2.69737e-96
1.07676e-100
2.62011e-101
4.11208e-100
2.62088e-96
1.37077e-97
4.27545e-98
6.10024e-95
1.18384e-95
2.50615e-92
3.72505e-89
1.6941e-93
1.69654e-93
1.69402e-93
1.68911e-93
1.64876e-93
1.6866e-93
9.84556e-101
2.1797e-104
4.64228e-101
1.69108e-103
2.91812e-103
6.758e-101
1.44197e-101
6.9131e-98
4.32828e-101
1.27978e-98
9.17203e-98
1.21996e-100
1.74924e-98
1.52127e-97
1.01058e-98
5.68258e-103
1.4626e-101
1.01054e-98
1.22474e-102
4.28525e-101
4.26936e-101
2.81963e-95
1.95645e-94
6.79295e-95
4.86988e-89
8.10148e-90
2.61996e-91
1.04236e-91
1.58923e-101
9.98358e-99
1.6868e-99
1.00652e-98
5.41726e-100
1.81075e-100
8.47619e-100
6.10983e-95
4.61812e-93
4.7384e-93
1.03792e-95
2.72046e-95
9.45485e-93
6.61457e-95
8.1881e-93
2.62519e-93
2.57507e-93
4.71115e-95
1.1325e-94
2.9452e-97
1.37723e-97
8.59797e-97
2.44872e-97
2.96189e-95
1.69008e-93
6.1087e-93
4.36572e-93
2.50798e-90
4.20446e-90
2.51162e-90
1.44732e-92
9.40447e-96
2.43033e-95
1.72092e-95
3.40698e-95
2.35752e-92
2.39398e-92
3.62801e-87
5.54425e-87
3.62963e-87
5.88462e-84
5.10712e-84
5.87409e-84
5.10285e-84
2.15606e-89
2.15756e-89
3.12338e-86
3.04351e-89
3.25128e-89
3.58056e-86
3.57373e-86
1.57368e-83
7.79441e-80
1.84238e-82
1.17639e-82
2.56981e-83
2.51973e-80
2.13143e-80
5.26495e-86
7.28406e-83
1.99256e-82
2.89836e-82
1.01496e-85
9.95234e-85
9.24869e-83
5.97556e-87
1.44275e-84
3.63828e-87
1.01081e-87
7.77347e-85
1.63872e-87
6.55305e-85
2.42464e-87
9.42986e-85
2.28042e-87
6.26113e-88
4.16599e-85
6.21955e-88
4.17776e-85
4.667e-90
1.87098e-89
1.048e-86
3.42524e-89
7.98922e-87
4.14491e-87
8.45156e-90
1.32152e-87
7.33428e-90
1.91669e-90
1.3274e-87
1.93248e-90
6.30775e-90
3.01191e-87
1.10038e-94
7.89112e-98
1.58461e-97
3.5905e-98
1.05988e-97
5.70608e-95
5.71861e-95
8.31064e-101
4.56866e-100
2.54078e-100
3.12104e-97
1.36719e-97
3.38028e-97
1.36826e-97
1.58576e-88
1.39976e-91
1.5115e-91
1.58294e-88
8.80013e-92
8.80827e-92
1.31476e-88
4.04667e-94
2.17783e-94
4.66712e-94
2.18037e-94
3.35551e-91
4.44695e-91
3.35331e-91
3.18412e-88
2.8229e-85
8.77654e-85
1.07237e-87
5.87737e-85
1.51768e-88
2.17301e-85
2.68346e-96
2.69724e-96
2.68333e-96
4.07499e-99
4.10277e-99
4.07512e-99
4.10262e-99
2.68591e-96
2.60738e-96
2.67205e-96
4.1032e-99
4.19666e-99
4.20266e-99
4.11648e-99
3.07546e-95
1.37239e-97
1.34266e-97
6.79445e-98
7.90346e-98
6.75223e-96
6.59458e-96
1.9068e-89
1.36006e-91
3.3428e-92
4.10155e-89
9.052e-92
2.28547e-92
1.68184e-89
1.65147e-92
8.01735e-90
1.88297e-92
5.14182e-93
3.58169e-90
3.60365e-90
5.05969e-93
1.27712e-90
7.32678e-93
3.56707e-95
9.03245e-98
3.43869e-87
2.02302e-89
8.68604e-92
2.42751e-94
2.79283e-81
1.75911e-83
7.62647e-86
2.00367e-88
1.13117e-77
3.97947e-80
1.21965e-82
3.26265e-93
5.26296e-87
4.29591e-90
)
;

boundaryField
{
    ground
    {
        type            zeroGradient;
    }
    outlet
    {
        type            zeroGradient;
    }
    wall
    {
        type            zeroGradient;
    }
    wall2
    {
        type            zeroGradient;
    }
    wall3
    {
        type            zeroGradient;
    }
    internalPatch
    {
        type            internal;
    }
    procBoundary0to1
    {
        type            processor;
        value           nonuniform List<scalar> 
134
(
1.60342e-67
4.14719e-70
4.14719e-70
1.60342e-67
4.97318e-65
4.97318e-65
1.01652e-70
3.08374e-73
8.03128e-76
6.39385e-79
4.48147e-82
2.87528e-85
6.37059e-86
6.37059e-86
1.30518e-91
1.30518e-91
1.38475e-97
8.86565e-101
3.22551e-98
7.28886e-96
1.30874e-93
2.10511e-91
2.3976e-89
3.35204e-86
3.42418e-80
3.42418e-80
1.8734e-74
1.8734e-74
1.03525e-73
1.23336e-72
2.03963e-69
2.57029e-66
2.68959e-63
1.40468e-57
3.27834e-55
3.27834e-55
2.52127e-55
2.59806e-55
1.29693e-54
2.13136e-53
2.13136e-53
1.92102e-54
1.83654e-54
3.93947e-55
3.83963e-55
3.83963e-55
2.55343e-52
6.69112e-50
1.69245e-48
1.17185e-50
4.89996e-53
1.49975e-55
3.70228e-58
2.17339e-59
1.50932e-64
1.50932e-64
5.98458e-62
1.7219e-59
4.23336e-57
1.21406e-62
1.21406e-62
2.34716e-68
1.62327e-71
7.41693e-74
2.34674e-76
1.60668e-79
1.01668e-82
2.09245e-83
2.09245e-83
4.69639e-89
4.69639e-89
4.86909e-95
1.15672e-92
2.03807e-90
3.27825e-88
3.1327e-82
3.1327e-82
1.73545e-76
1.73545e-76
1.06053e-75
1.7528e-72
1.67326e-70
2.52149e-67
3.50336e-64
1.99714e-58
4.91214e-56
3.27834e-55
3.27834e-55
2.47365e-55
2.54809e-55
1.82948e-54
1.9148e-54
3.9244e-55
3.8252e-55
3.8252e-55
2.55064e-52
2.73141e-53
7.57796e-51
1.29227e-49
7.94695e-52
3.15313e-54
9.2564e-57
5.98458e-62
1.7219e-59
4.23336e-57
6.78834e-55
6.78834e-55
1.99752e-60
1.99752e-60
3.87155e-66
2.71274e-69
4.91214e-56
4.91214e-56
4.91214e-56
4.91214e-56
3.80177e-56
3.95726e-56
3.8312e-56
3.8312e-56
3.68368e-56
2.69895e-53
3.68368e-56
1.04997e-74
4.91545e-77
3.03339e-80
5.8593e-81
5.8593e-81
1.12962e-86
1.12962e-86
1.93603e-84
1.93603e-84
1.10599e-78
1.10599e-78
6.40659e-78
)
;
    }
    procBoundary0to6
    {
        type            processor;
        value           nonuniform List<scalar> 
24
(
2.40343e-75
2.40343e-75
4.86998e-78
4.86998e-78
4.85817e-78
7.12578e-81
6.51213e-84
1.63127e-84
1.39429e-83
2.07505e-83
6.55974e-81
6.5048e-81
8.4777e-84
1.5329e-77
5.80428e-72
2.59662e-69
2.59662e-69
2.59662e-69
1.50004e-71
1.59128e-73
2.40343e-75
2.40343e-75
2.40343e-75
2.59662e-69
)
;
    }
    procBoundary0to7
    {
        type            processor;
        value           nonuniform List<scalar> 
103
(
3.40928e-62
3.10249e-65
2.40333e-68
4.42414e-66
4.42414e-66
2.19936e-71
2.19936e-71
9.66283e-72
2.6685e-76
1.90902e-77
2.6279e-80
2.6279e-80
8.07269e-81
8.02571e-84
8.02571e-84
8.02571e-84
7.53497e-86
1.15575e-85
1.15564e-85
1.15564e-85
6.09207e-83
3.07012e-80
3.05498e-80
2.57246e-81
5.87391e-81
5.87391e-81
2.0276e-78
2.662e-74
2.662e-74
1.4112e-73
1.17819e-71
3.14269e-71
3.14269e-71
1.92525e-73
5.8027e-75
8.5279e-74
8.67323e-74
8.71379e-74
8.71005e-74
2.20894e-71
5.3063e-69
2.97104e-67
2.36576e-64
1.77334e-61
1.25801e-58
8.41491e-56
8.4054e-56
4.75239e-57
4.65331e-57
4.65331e-57
9.03505e-60
9.03505e-60
9.03505e-60
7.18179e-63
7.18179e-63
4.42414e-66
4.42414e-66
2.38825e-69
2.38825e-69
2.19936e-71
2.19936e-71
2.662e-74
1.4112e-73
1.17819e-71
3.14269e-71
2.38825e-69
2.38825e-69
2.35569e-71
1.22022e-72
2.17498e-71
2.19597e-71
2.20886e-71
5.30617e-69
5.26898e-69
2.94509e-67
2.34663e-64
1.76267e-61
1.25333e-58
6.85323e-60
6.36236e-60
6.36236e-60
9.03505e-60
7.18179e-63
7.18179e-63
2.78926e-65
2.78926e-65
1.46393e-68
2.60095e-70
2.54381e-70
5.25471e-69
1.22588e-65
9.38974e-63
8.27931e-63
8.27931e-63
5.04262e-79
1.77898e-81
1.77898e-81
8.8322e-82
9.78894e-81
9.58619e-81
1.95664e-83
7.52222e-86
7.52222e-86
)
;
    }
}


// ************************************************************************* //
