/*--------------------------------*- C++ -*----------------------------------*\
  =========                 |
  \\      /  F ield         | OpenFOAM: The Open Source CFD Toolbox
   \\    /   O peration     | Website:  https://openfoam.org
    \\  /    A nd           | Version:  9
     \\/     M anipulation  |
\*---------------------------------------------------------------------------*/
FoamFile
{
    format      ascii;
    class       volScalarField;
    location    "0.00155";
    object      alpha.c4;
}
// * * * * * * * * * * * * * * * * * * * * * * * * * * * * * * * * * * * * * //

dimensions      [0 0 0 0 0 0 0];

internalField   nonuniform List<scalar> 
12683
(
0.359016
5.68086e-05
0.0178268
1.16585e-05
0.0037102
0.00027435
2.56183e-07
0.00395104
0.000343818
0.0344242
1.20378e-07
0.000208074
0.000673721
0.000956719
4.36944e-05
9.38996e-05
1.15115e-09
2.75823e-06
1.72654e-12
0.131403
1.74059e-05
0.0117968
2.83345e-06
0.00190884
2.30632e-06
3.23644e-08
0.251512
0.134334
0.180413
0.00785693
0.028809
0.109452
0.0276143
0.0677108
0.00944442
0.00230706
0.000226844
0.00645994
0.019896
0.000796401
0.00624806
0.0409556
0.0174624
0.00326975
0.000227967
0.012118
0.00332242
0.0122689
9.4421e-05
1.96381e-06
0.000765741
0.00569572
0.00394312
9.79132e-05
0.309597
0.271984
0.323415
0.279466
0.244716
0.194167
0.226652
0.00105957
0.0728305
0.0527238
0.123304
0.00807334
0.0347682
0.00242418
0.0643241
0.00472645
0.0162761
0.00216404
0.000672602
0.0283626
0.00775937
0.215247
0.189562
0.15879
0.143053
0.116763
0.097516
0.169975
0.229437
0.0881561
0.122766
0.0790523
0.161597
0.121878
0.056063
0.0780487
0.0597047
0.0525741
0.0386706
0.0334731
0.0282615
0.02469
0.0514563
0.0271697
0.040469
0.0166412
0.0252589
0.0187349
0.0122756
0.0045432
6.19233e-05
6.1831e-08
0.00987069
0.000266806
0.000611021
7.68723e-07
0.000348891
0.00353949
0.0121022
0.00253188
0.000634161
0.0521435
0.0295346
0.0933238
0.191308
0.163892
0.121203
0.0757651
0.0645424
0.143305
0.023839
0.0609291
0.0373251
0.0369358
0.0213426
0.0249545
0.0136647
0.00370041
0.00193986
9.38136e-05
0.000242125
0.00332398
0.00032656
2.27916e-06
0.0950164
0.0414527
0.0611028
0.0867091
0.0257589
0.0384322
0.0585311
0.0145389
0.0285112
0.0244556
0.0122998
0.0152798
0.00927924
0.00714233
0.0118903
1.31667e-06
0.00182536
0.00867804
0.000896263
0.00318389
1.21457e-05
0.108976
0.0840596
0.0700171
0.0738242
0.0619883
0.0372478
0.0436957
0.0373941
0.0177668
0.0333596
0.00850975
0.0168895
0.0148341
0.00742791
0.0826693
0.0618692
0.0249384
0.0483172
0.0413875
0.0524
0.098186
0.0588882
0.0483381
0.103494
0.0746844
0.0190057
0.040734
0.0338771
0.0210902
0.0165143
0.00944405
0.00992945
0.00718002
0.0055457
0.00387632
0.0176519
0.0139239
0.0260609
0.0113127
0.00362473
0.00739516
0.00562109
0.106754
0.110475
0.0956278
0.0440009
0.056539
0.0496568
0.0500198
0.0270645
0.00944719
0.0150164
0.0109139
0.0165649
0.00861838
0.00540586
0.000309428
3.11272e-06
8.09018e-11
0.000101508
0.00267996
2.39854e-05
1.53586e-08
0.00104441
2.39112e-05
4.34255e-10
0.001918
1.57885e-06
0.000134241
6.38734e-09
0.000280708
0.0151967
0.00467236
0.00165724
3.33484e-05
0.000565014
4.63532e-06
2.97788e-05
2.77007e-07
0.000325713
7.03004e-05
6.99405e-06
1.70367e-07
1.99874e-10
0.0171873
0.00538753
0.0147082
0.00390217
0.0116714
0.00999836
0.00323441
0.0278323
0.0185564
0.0419951
0.01698
0.0378269
0.0235356
0.0109751
1.77704e-05
0.0143111
0.0014764
0.000161228
1.59515e-06
0.00429518
0.000465302
0.0506862
0.0149737
0.0163055
0.0124806
0.0264666
0.0228603
0.032646
0.0104946
0.00475002
0.0084041
0.00550456
0.00214333
0.00398816
0.00321017
0.0629381
0.0932591
0.0806261
0.0363792
0.0313636
0.0276437
0.0413129
0.00139085
4.48284e-05
2.98014e-09
0.000189241
0.00613783
3.73636e-07
0.00118918
0.00694165
0.00382766
0.0108813
0.00735175
0.00133258
0.00459202
0.00226689
0.0217015
0.00594065
0.0116589
0.00813355
0.014704
0.00746864
0.00374781
0.069838
0.0311662
0.0626409
0.0297739
0.0170408
0.0334793
0.0151604
0.0502417
0.0245451
0.0425269
0.0213578
0.0131923
0.0116918
0.0245812
0.144706
0.0172097
0.0378979
0.428081
0.276691
0.464413
0.219374
0.373968
0.0647187
0.0874206
0.00357423
0.044846
0.147951
0.031666
0.0866972
0.00923351
0.449584
0.442392
0.42511
0.400942
0.37256
0.353336
0.383442
0.398313
0.36643
0.400174
0.325978
0.323825
0.289576
0.358288
0.350644
0.239085
0.265782
0.180023
0.290343
0.268628
0.160695
0.104192
0.170579
0.121716
0.102343
0.0685127
0.0890743
0.0590026
0.317924
0.162723
0.203331
0.238678
0.106374
0.201947
0.134984
0.0774231
0.101442
0.0901488
0.0465229
0.0544651
0.0467318
0.0400015
0.318306
0.192136
0.286949
0.267526
0.201278
0.175443
0.299081
0.118239
0.0565195
0.0804023
0.0528228
0.0713273
0.04575
0.0322515
0.240321
0.124142
0.235577
0.176329
0.2051
0.152532
0.27188
0.0393557
0.065785
0.058548
0.0355233
0.0201058
0.0241676
0.0301728
0.128015
0.111986
0.204789
0.187227
0.0579644
0.115817
0.0999752
0.163208
0.0792767
0.0656294
0.0485966
0.134249
0.0991291
0.0837716
0.0580233
0.0184764
0.0364528
0.0280407
0.0509716
0.0316091
0.0160758
0.0126514
0.022018
0.0272997
0.0234618
0.00778302
0.0108102
0.0188491
0.0308222
0.0228822
0.041234
0.0247044
0.00897439
0.0175388
0.0126151
0.0178415
0.00543692
0.00922138
0.00567189
0.012099
0.00814333
0.0140863
0.0068755
0.00266291
0.00514857
0.00145462
0.00292995
0.00194379
0.000898276
0.000135249
0.001956
0.00656965
1.54404e-06
6.13409e-08
0.000694628
0.00018635
0.0107026
0.00316135
0.00603865
0.00203667
0.00425242
0.00222094
0.00103059
0.0365023
0.0142759
0.0313334
0.0178838
0.00876877
0.00779328
0.0204928
0.00874055
0.00460484
0.00401693
0.0038781
0.00332766
0.00157481
0.00132105
0.00758194
0.00548098
0.00201398
0.00452742
0.00104559
0.00190869
0.0030497
0.0410923
0.0260351
0.0200819
0.0246397
0.00937216
0.0187102
0.0124715
0.0451428
0.0343399
0.0298589
0.0217724
0.019214
0.0122807
0.0138841
0.00597662
0.00784061
0.00715661
0.0037981
0.00337876
0.00463902
0.00208621
0.00193616
0.00294945
0.00643818
0.00549208
0.000640417
0.00159669
0.00248349
0.0121932
0.0160243
0.0264841
0.0140703
0.00408258
0.00801401
0.00686828
1.06538e-05
5.36601e-08
1.8236e-10
1.13837e-12
2.99784e-08
7.80293e-06
1.06815e-10
0.00121985
0.000670703
0.00250923
0.000584074
0.00205205
0.00124001
0.000293293
0.0178188
0.00698688
0.0227082
0.00723782
0.00624635
0.0202992
0.0199344
0.00952991
0.00957258
0.0201198
0.011891
0.0026867
0.00534373
0.00584803
0.00678342
0.00197466
0.00304782
0.00154299
0.00246087
0.000948646
0.0005745
0.00400596
0.0010793
0.000627644
0.000425777
0.00246322
0.00110463
0.00178412
0.00631094
0.00525627
0.00972287
0.00467987
0.00132621
0.00227611
0.00287925
0.0106735
0.0210364
0.0184089
0.00728006
0.00452316
0.00401223
0.0082143
0.014337
0.00955614
0.0196756
0.00643498
0.0129951
0.00830291
0.00406195
0.0134504
0.00773064
0.00697214
0.00674623
0.00608217
0.00297641
0.00326569
0.0144657
0.00349856
0.0119967
0.00553553
0.0106965
0.0049279
0.0161965
0.00201682
4.7954e-05
3.14632e-07
6.48281e-05
7.20404e-07
2.59094e-06
8.24893e-11
0.00159081
0.00162592
0.00321297
0.00106579
0.000196759
0.000476696
0.000468122
0.00977032
0.00449132
0.00195437
0.00564251
0.00508155
0.00403521
0.0110088
0.00262001
0.00139556
0.00217313
0.00110169
0.00183803
0.00102291
0.000533085
0.0164346
0.0145773
0.00751299
0.00772107
0.00677461
0.00353144
0.00300371
1.75838e-07
0.00176967
0.000164187
2.97788e-08
1.59373e-11
7.02061e-05
1.06765e-06
0.00261075
0.000792774
0.000536112
0.000505541
0.00104012
0.0016024
0.00145661
0.0126411
0.00713518
0.0064045
0.00597364
0.00535238
0.00254098
0.0028141
0.00128132
0.000918724
0.00066912
0.00055848
0.000378972
0.000282323
0.000141258
0.0123427
0.0020502
0.00497556
0.00720512
0.00426535
0.0140678
0.00628454
0.00719905
0.00599077
0.012263
0.00491399
0.00126796
0.00236601
0.0026952
0.00517646
0.00146749
0.00239663
0.0017405
0.00292191
0.00124542
0.00069563
0.0088812
0.00585043
0.00410338
0.00392912
0.00542434
0.00227737
0.00153485
0.00512999
0.00260971
0.0043103
0.000864222
0.00169325
0.00138662
0.000681624
0.00143063
0.00111255
0.000838513
0.000561317
0.000408094
0.000296072
0.00013114
0.00918898
0.00259974
0.00493285
0.00225314
0.00429887
0.00213542
0.00112282
0.000735196
1.46503e-05
4.38108e-10
5.50854e-09
5.65327e-05
3.35277e-11
8.47744e-08
0.000559971
0.000295703
0.00131198
0.000627245
3.46598e-05
0.000116299
0.000252441
0.00997889
0.00232645
0.00359065
0.00156368
0.00732107
0.00332729
0.00500842
0.00670888
0.00141702
0.001363
0.00184778
0.00357284
0.00280996
0.00340886
0.00187114
0.00050544
0.00159059
0.00014121
0.000538612
0.000439208
0.000108555
0.00400888
0.00073114
0.00172844
0.0010763
0.00245804
0.000995715
0.000372879
0.00858454
0.00229291
0.00447318
0.00186098
0.00370727
0.00177216
0.00087631
0.000120278
5.56609e-08
3.99626e-11
1.1466e-07
3.50095e-10
7.53003e-11
5.01914e-12
0.000439801
0.000251572
0.000988072
0.000561491
3.31503e-05
0.000108778
0.000227357
0.00118992
0.000203914
0.000984943
6.72389e-05
0.000413494
0.000329379
4.84196e-05
0.00222826
0.00806434
0.00717001
0.00436964
0.00146388
0.00127796
0.00493339
0.00154849
0.00101086
0.000797261
0.000403438
0.000300955
0.000154775
0.000109703
0.00264497
0.00397788
0.00159492
0.00258753
0.0015617
0.000934656
0.000522785
0.00584149
0.00336094
0.003005
0.0023086
0.00204555
0.000958278
0.00108452
0.00316766
0.00204227
0.00109207
0.000983498
0.000244585
0.000606322
0.000448318
0.00371692
0.00151684
0.00339295
0.00133855
0.000584913
0.000529032
0.00146616
0.000717465
0.000120206
0.000289634
6.71861e-05
0.00018244
5.75635e-05
1.77103e-05
0.000720196
0.000355693
0.00116369
0.00030138
3.30005e-05
0.000169788
6.76469e-05
0.000861424
0.00273275
0.0024828
0.00111134
0.000377366
0.00033708
0.00122391
0.00039982
0.000126301
0.000690086
0.00021699
1.14057e-05
0.00011481
2.71773e-05
0.00145404
0.00231139
0.00485183
0.00291474
0.000332651
0.000812172
0.00134612
0.00336753
0.0013411
0.00305468
0.00110262
0.000473676
0.000423322
0.00122315
7.82962e-07
1.46243e-08
3.09735e-11
1.02458e-08
6.36804e-12
9.45788e-11
6.63547e-13
0.000704339
0.000682144
0.00124759
0.000540566
9.67351e-05
0.000262152
0.000238466
0.000697921
0.000102333
0.000256625
6.31961e-05
0.000175638
4.87658e-05
1.463e-05
0.000582637
0.000262454
0.000512752
8.50902e-05
0.000179808
5.99514e-05
2.45744e-05
0.0039825
0.000992858
0.00205533
0.00062342
0.00136177
0.000630348
0.000278879
0.000840791
0.00111522
0.000946398
0.000430035
0.000347427
0.000449556
0.00014788
1.45845e-12
1.94853e-05
5.47952e-08
4.28632e-12
3.55446e-13
1.04465e-07
2.98202e-11
0.000266034
9.51288e-06
2.97768e-05
9.56848e-06
3.77387e-05
9.62417e-05
9.50133e-05
0.00243441
0.000294991
0.00141833
0.000760971
0.000655817
0.00124348
0.00276326
0.00036786
0.000259659
0.000779869
0.000394168
3.37077e-05
0.000116916
0.00015891
0.000542146
0.000748663
0.00142011
0.000534082
7.04466e-05
0.000256821
0.000172002
0.000591725
0.00090504
0.00176345
0.000780427
9.98072e-05
0.000225464
0.000384926
0.00130238
0.00109051
0.00244595
0.000954252
0.000174281
0.00036578
0.000485002
0.00242977
0.000476611
0.000903027
0.000442608
0.000866664
0.000270082
0.000127592
3.93595e-08
5.86648e-07
2.86016e-07
3.663e-05
2.4696e-07
7.36618e-10
1.04018e-08
2.45524e-12
0.000109319
0.000110361
3.7276e-05
3.24974e-05
7.65905e-06
1.00889e-05
1.82363e-06
0.00134858
0.000540779
0.00197024
0.000689109
8.47063e-05
0.000440729
0.000147528
0.00220671
0.00059392
0.00197585
0.000842321
0.000253653
0.000220287
0.00094424
0.000740028
0.00300226
0.00256348
0.000278187
0.00114358
0.000945414
0.000218572
0.000384675
4.07632e-05
0.000180276
1.25088e-05
7.83401e-05
2.97436e-05
3.57648e-06
0.000421168
9.74433e-05
0.000319763
9.99402e-06
4.6333e-05
3.08234e-05
6.16123e-06
0.000156878
0.000401972
0.000216394
3.36459e-05
0.000106949
4.23857e-05
9.60882e-06
0.000942489
0.00110833
0.00216354
0.000759023
0.000126695
0.000283762
0.000360451
0.000578265
0.000276556
0.000641828
0.000113454
0.000332896
0.000165417
4.57128e-05
0.001599
0.000618769
0.00143017
0.000409292
0.000175354
0.000151186
0.000465878
0.000659972
0.000926229
0.000714082
0.000317368
0.000225789
0.000315883
9.18598e-05
0.000133528
3.231e-05
0.000120582
0.000376707
0.000109411
2.81175e-05
6.0817e-06
6.5376e-09
3.10217e-12
8.0321e-13
3.44101e-13
2.69605e-10
4.70842e-12
1.03277e-13
0.000192594
7.10955e-06
7.74101e-05
3.57936e-06
4.93696e-05
1.71301e-05
8.44708e-07
0.000178643
7.92358e-06
7.73618e-05
7.70221e-06
6.28609e-05
2.09296e-05
1.31755e-06
0.00159819
0.000169807
0.000344267
0.000149617
0.000400833
0.000715171
0.000803257
0.000384564
0.000633181
0.00134465
0.000564402
4.97883e-05
0.000135414
0.000255726
3.71678e-05
3.31567e-05
1.80483e-05
8.23724e-06
3.19941e-06
3.77088e-06
4.41418e-07
9.27931e-05
5.55749e-05
0.000194767
1.53991e-05
9.20788e-07
5.62037e-06
2.78453e-06
0.000437989
0.000128138
0.000166485
2.7907e-05
0.000147151
0.00011197
0.000486921
0.000455724
0.000413776
0.000971002
0.000262311
3.24927e-05
9.10018e-05
0.00010738
0.000232698
0.000354169
0.000206396
0.000103746
5.35226e-05
8.4389e-05
1.8449e-05
1.0399e-05
1.70714e-05
0.000107984
8.08365e-05
4.47164e-07
6.63871e-06
1.13737e-05
6.90481e-05
0.000150518
0.000436479
0.000342611
7.64543e-06
5.00291e-05
0.000109106
0.000826727
8.94062e-05
0.000458283
4.09786e-05
0.000249537
0.00012623
1.64674e-05
0.00011133
0.000666412
0.000579917
0.000238011
4.24871e-05
3.37905e-05
0.000277801
0.00014864
0.000341083
0.00013476
3.37981e-05
0.000112492
4.15367e-05
9.30743e-06
0.000185418
0.000214077
0.000537735
5.76934e-05
0.000178444
5.24323e-05
1.43735e-05
0.000345546
2.37226e-05
0.000107388
2.87208e-05
0.000136135
3.78838e-05
5.76956e-06
0.00018377
1.0125e-05
1.59193e-05
2.04384e-05
7.72917e-05
4.73574e-05
6.2043e-05
2.5713e-05
3.43705e-05
9.91242e-05
1.37675e-05
3.35098e-07
2.12266e-06
3.24329e-06
0.000152409
0.00011893
0.000324025
7.40403e-05
4.44159e-06
1.59308e-05
2.91645e-05
0.000423952
4.59339e-05
0.000131383
3.71939e-05
0.000120903
3.11499e-05
7.68286e-06
0.000125811
0.0052425
1.05509e-09
8.6538e-05
0.000218781
6.72835e-08
0.0097611
0.00106693
0.000615133
6.54108e-07
0.000614017
3.32858e-05
4.97169e-09
9.97317e-07
1.54323e-05
4.53941e-05
4.23087e-09
0.00892779
0.00398221
0.00471629
0.00421716
0.00355748
0.00163883
0.00141959
0.00730458
0.00227799
0.00333209
0.00192259
0.00281039
0.00107151
0.000690403
0.00114925
0.0019438
0.00334352
0.0013608
0.000727226
0.000383506
0.000186843
1.63059e-05
7.22663e-08
6.89378e-11
1.70588e-10
3.58561e-07
4.66366e-10
8.08839e-13
0.00191549
0.00051252
0.00165585
0.000141226
0.000548396
0.000458036
0.000111098
0.000219265
0.00123222
0.000268707
6.51891e-05
0.000421256
0.000349874
4.99944e-05
0.000500788
0.00029571
0.0010366
0.000150766
0.000349577
7.94548e-05
2.79421e-05
0.000519369
0.000806521
0.000151589
0.000247513
1.51144e-05
0.000145235
3.10848e-05
0.0007938
0.000365838
0.00124307
0.00032715
3.65715e-05
0.000195493
7.16703e-05
0.00270467
0.0114137
0.0393839
0.000802802
0.0106053
0.119481
0.020282
0.0211951
0.00199399
0.00370758
0.00608914
3.14792e-05
0.00316261
0.00459997
0.01665
0.000436947
0.00661443
0.110613
0.0695311
0.0726903
0.0644769
0.0668155
0.040222
0.0369688
0.0673029
0.0916961
0.0536195
0.0395993
0.0547953
0.0303667
0.0219651
0.0289284
0.026293
0.0451631
0.0260216
0.0162415
0.0143805
0.00887793
0.0386287
0.0187529
0.035844
0.0107142
0.0214473
0.0196796
0.00976074
0.0409299
0.0191061
0.0373023
0.0107137
0.021692
0.0197252
0.00959554
0.0219982
0.0155781
0.0298843
0.0161443
0.00563768
0.0116498
0.00792802
0.0214949
0.0152356
0.0302248
0.0159568
0.00520932
0.0113198
0.00758389
0.000847303
0.00140229
1.64615e-05
5.34431e-06
0.000389731
2.46336e-05
1.20459e-08
0.0110429
0.0102225
0.0180783
0.00577776
0.00983545
0.00527125
0.00299967
0.00751666
0.00915923
0.0146396
0.00356713
0.00756388
0.00457902
0.00206679
0.0138198
0.00383063
0.00837489
0.00317635
0.00722245
0.00429851
0.00176952
0.0050621
0.00501686
0.0110102
0.00995536
0.00171237
0.00442842
0.00450647
0.00187886
0.00348369
0.00654216
0.00325447
0.00171756
0.00160467
0.000781333
0.00143244
0.00549909
0.0026547
0.0026221
0.000533517
0.00110385
0.00140634
0.00487282
0.00104824
0.0020851
0.00241761
0.000417685
0.000903521
0.00126995
0.00798929
0.00239429
0.00228028
0.00127246
0.00559648
0.00342616
0.00353399
0.00141797
0.00132367
0.00348801
0.00199314
0.000211243
0.000688221
0.000751246
0.000115556
0.000937361
0.000330397
0.00196623
0.000922432
0.00081704
0.00032912
0.0017127
0.000703142
0.0003018
0.000228106
0.000686665
0.000293173
8.51884e-05
0.00047369
0.000189081
0.000653279
0.000172122
0.000603087
0.000250889
5.96148e-05
0.00105018
0.000135661
0.000154055
8.96649e-05
0.000323067
0.000358888
0.000500921
4.07427e-05
0.000135026
0.000285131
5.69024e-06
7.10018e-05
2.85548e-05
1.6201e-06
0.000214207
0.00010956
0.000437452
1.4657e-05
9.79522e-05
4.05745e-05
4.4731e-06
2.57314e-05
3.31741e-05
0.000110238
0.000130019
3.15098e-05
0.000364609
0.000106654
7.93062e-05
5.62856e-05
0.000214085
4.51663e-05
1.25555e-05
7.43514e-06
1.34498e-06
1.49921e-06
5.71867e-05
8.35752e-06
4.81e-05
0.000211552
7.74097e-05
1.31328e-05
8.84663e-05
2.76934e-06
1.53752e-05
6.24749e-05
0.000262577
8.90429e-05
1.5809e-05
9.381e-06
1.62239e-05
0.000106934
8.346e-05
4.04179e-07
1.12201e-05
6.37465e-06
3.73556e-06
1.4967e-05
9.26565e-05
1.33805e-05
1.71634e-07
1.01924e-06
3.32409e-06
1.829e-05
4.52689e-06
5.49006e-05
9.057e-06
6.42789e-08
3.61697e-07
2.15339e-06
6.62085e-06
1.58438e-06
2.57358e-05
4.48837e-06
2.28428e-08
1.56012e-07
8.47557e-07
5.96588e-05
0.000144417
0.000364029
0.000141622
3.98566e-06
1.63784e-05
4.97591e-05
4.84322e-05
2.11062e-06
1.09304e-06
1.92817e-07
2.23348e-05
3.15217e-06
5.72713e-06
2.40485e-05
7.29173e-05
1.29988e-05
8.81456e-06
1.20788e-07
7.61873e-07
1.9247e-06
0.000298722
2.67488e-05
1.54506e-05
3.92259e-05
9.51312e-05
6.99356e-05
0.000138927
1.71808e-06
7.0791e-06
2.70781e-05
5.73937e-06
3.00918e-08
2.09125e-07
1.11171e-06
0.000320692
7.767e-05
0.000118363
1.41652e-05
6.51921e-05
0.000102106
0.000362408
0.000220632
2.40989e-05
9.3416e-05
1.27599e-05
6.09772e-05
2.10149e-05
3.01278e-06
2.38014e-06
1.31703e-06
1.89705e-07
5.98459e-06
3.33807e-06
5.33425e-05
2.69174e-05
0.000227623
1.3859e-05
2.98754e-05
3.64055e-06
0.000127514
2.94012e-05
6.3531e-05
3.45981e-05
1.91065e-06
9.97468e-06
2.33519e-07
1.50649e-06
3.25469e-07
4.87432e-08
0.000100167
3.59173e-05
0.000228638
5.59572e-05
1.26932e-06
5.25945e-06
2.08159e-05
5.10502e-06
3.83647e-07
1.39614e-05
2.57088e-06
1.74061e-08
8.26681e-07
5.72586e-08
0.000213788
7.99211e-06
5.7076e-05
1.14494e-05
7.91131e-05
1.77123e-05
1.47519e-06
1.35191e-05
1.72454e-05
5.23296e-05
8.26185e-06
1.37636e-06
1.31861e-06
1.07311e-07
2.36432e-13
2.30142e-13
9.80515e-10
3.80071e-13
3.14775e-13
2.84852e-13
1.66971e-14
4.24939e-05
9.09732e-07
2.80207e-05
2.51727e-07
9.72782e-06
5.87778e-06
1.40932e-07
0.000208264
6.8008e-06
1.15435e-05
2.18235e-05
3.66426e-05
6.13285e-05
8.64118e-05
3.76867e-05
2.03256e-06
1.00134e-05
4.39853e-07
2.41111e-06
3.41091e-07
5.15555e-08
0.000153571
1.2208e-05
4.02827e-05
7.17722e-06
2.8094e-05
4.86465e-06
8.49506e-07
6.47118e-06
6.9912e-06
3.77166e-05
3.4608e-08
7.48401e-07
7.70539e-06
6.64941e-07
2.27661e-08
4.33722e-06
5.24475e-07
6.63975e-06
3.01169e-05
4.36867e-06
5.28093e-07
4.5806e-06
2.2579e-05
2.33974e-06
1.71556e-07
1.37003e-08
3.56904e-06
4.11357e-07
1.18095e-08
2.53638e-07
4.84213e-06
3.25579e-06
2.35967e-05
2.37937e-06
1.49046e-07
3.52398e-07
2.41183e-07
4.45462e-06
1.60151e-07
2.40806e-06
3.25668e-06
2.24454e-05
5.7801e-07
2.86349e-07
7.82639e-06
2.05381e-06
3.26003e-09
6.11931e-08
1.26521e-07
1.42633e-06
4.01559e-06
1.79641e-05
4.2123e-06
1.26966e-08
5.15115e-07
1.47582e-07
8.02073e-05
1.00955e-05
1.07338e-06
2.62163e-05
2.10197e-05
7.60887e-06
9.63916e-05
6.52127e-05
3.79708e-06
2.43639e-05
9.49598e-07
9.49171e-06
2.38004e-06
1.46415e-07
5.24297e-06
1.12485e-05
6.20511e-05
2.59346e-05
8.78543e-08
1.55372e-06
3.37851e-06
1.36624e-05
1.599e-05
5.4496e-05
1.20349e-05
1.46593e-07
2.22541e-06
1.68674e-06
1.28734e-06
1.20029e-06
8.6489e-06
3.77242e-08
4.67096e-07
4.15546e-08
3.05545e-09
4.29492e-06
4.54895e-06
1.72795e-06
5.44717e-07
1.56726e-07
2.16755e-07
1.37615e-08
9.08818e-09
2.03702e-08
1.62173e-07
4.56422e-06
7.64646e-07
3.55773e-07
4.31859e-08
2.37672e-09
2.24007e-08
6.27973e-07
1.67576e-06
9.02695e-06
5.62149e-07
6.62948e-08
3.69271e-05
2.24258e-07
6.15452e-06
4.77036e-07
1.09219e-05
1.32573e-06
3.10125e-08
4.41368e-05
5.93857e-07
3.762e-07
2.53401e-06
1.03656e-05
3.16749e-06
1.34992e-05
6.28733e-06
1.01209e-05
4.36892e-05
9.97175e-06
5.32854e-08
1.57007e-06
8.07068e-07
9.68251e-07
4.97697e-07
5.9781e-06
1.50109e-08
2.81818e-07
3.04466e-08
1.53417e-09
3.89807e-07
4.87548e-08
4.41537e-06
2.29329e-08
1.80424e-07
1.06792e-08
1.26137e-09
1.66125e-07
9.5293e-08
1.85439e-08
7.10033e-07
3.98025e-07
1.06115e-05
3.17073e-06
0.144287
1.4582e-05
0.0817903
8.20553e-09
0.000656669
0.0821489
0.00085703
0.0205519
0.00682436
0.0068964
0.0204963
0.000866501
0.0396828
0.0098025
0.00288916
0.132218
0.00877655
0.0369036
0.00265756
0.0821533
0.0618983
0.0618736
0.0405247
0.0406818
0.0294069
0.0294002
0.0817427
0.06175
0.0618484
0.0404377
0.0406695
0.029384
0.0292766
9.71017e-07
0.00029466
0.0102741
0.0102271
0.00029871
0.000658932
1.01861e-06
0.00949616
0.0010545
0.00341338
0.00944712
0.00099103
0.00350031
1.52607e-05
0.0384649
0.0204919
0.0383957
0.017502
0.00886013
0.00888826
0.0174627
0.0204601
0.038494
0.0383858
0.0175096
0.00886882
0.0175211
0.00888526
0.124918
0.142573
0.123332
0.0582443
0.0677814
0.0666029
0.0592508
1.93162e-06
0.000151036
0.00204929
0.00211488
2.0847e-06
0.000154531
8.68399e-09
0.0180139
0.00694466
0.0181854
0.0122831
0.00411833
0.00419735
0.0121687
0.00696263
0.0181082
0.018205
0.0123042
0.00417313
0.0122632
0.00421117
0.138403
0.11435
0.119605
0.0561289
0.0609738
0.0534451
0.0641524
0.0811559
0.0392153
0.0800604
0.0387217
0.0195829
0.0193272
0.0393604
0.0382215
0.0745027
0.0776638
0.0374262
0.0181401
0.035829
0.0188086
0.479301
0.0352351
0.245687
0.0735968
0.398328
0.478504
0.231807
0.396112
0.0688393
0.190352
0.0097982
0.109195
0.189408
0.0336211
0.108124
0.00983786
0.480116
0.460179
0.460937
0.394746
0.420528
0.394571
0.420903
0.473696
0.458913
0.453235
0.391883
0.412236
0.384962
0.418484
0.399075
0.292718
0.293618
0.315587
0.20142
0.315624
0.201482
0.388488
0.29041
0.282184
0.312054
0.192076
0.304241
0.198552
0.191423
0.133434
0.134471
0.075284
0.114398
0.0748283
0.114727
0.18367
0.130653
0.133662
0.0747891
0.109894
0.113335
0.073208
0.110083
0.0963753
0.0956927
0.0588221
0.0492179
0.0583849
0.0495679
0.0953599
0.109783
0.0962817
0.0586554
0.0491115
0.0578524
0.0495257
0.311444
0.342723
0.216724
0.244389
0.312116
0.21526
0.342349
0.307586
0.239875
0.331137
0.203457
0.299829
0.210823
0.338819
0.227002
0.145906
0.126598
0.0729811
0.227851
0.144638
0.12611
0.223198
0.0713291
0.136019
0.119462
0.216256
0.14121
0.123754
0.0398508
0.0646723
0.0201078
0.0351002
0.0396836
0.0646385
0.0201657
0.0395708
0.0345704
0.0619288
0.0196198
0.0637738
0.0387834
0.0200113
0.0294096
0.0135511
0.0232732
0.00993639
0.0291915
0.0136783
0.0234788
0.029331
0.00994433
0.0134582
0.0232764
0.028953
0.0136462
0.023472
0.010262
0.00483215
0.00484504
0.0040846
0.00411456
0.00170242
0.00167945
0.0102403
0.00481312
0.00483615
0.00408545
0.00411232
0.00170231
0.00168214
0.00679936
0.00311609
0.00205256
0.000878181
0.00209314
0.00315673
0.00673047
0.00680999
0.0008804
0.00207728
0.00313439
0.00678091
0.00209921
0.00316011
0.0239522
0.0273758
0.00877776
0.00963176
0.00864029
0.0268638
0.0243838
0.0230453
0.00925869
0.0245327
0.00788035
0.0219169
0.00831354
0.0258253
0.0183253
0.00952693
0.0182147
0.00869273
0.00864301
0.00394208
0.00391813
0.0179112
0.00924572
0.0174234
0.00823496
0.00848944
0.00390563
0.00380354
0.016436
0.00839927
0.0059996
0.00287115
0.00592347
0.00830458
0.0167042
0.0158676
0.00279133
0.00542934
0.00775329
0.0151512
0.00571874
0.00807607
0.0055404
0.00349236
0.00561842
0.00189442
0.000940308
0.000972501
0.00185569
0.00560755
0.00344474
0.00551046
0.00189111
0.000954176
0.00184705
0.000976261
0.000156113
0.0019861
0.000668947
0.00200569
0.000593854
0.000161787
0.000581616
0.00127274
0.000305768
0.00129515
0.000462348
7.64178e-05
8.0719e-05
0.000450235
0.000306781
0.00127923
0.00129632
0.000463092
7.79262e-05
0.000453624
8.11297e-05
0.000669288
0.00198469
0.00200412
0.000594319
0.000157821
0.000584193
0.00016222
0.00210569
0.00108642
0.00112133
0.00044341
0.000466024
0.000184867
0.000173662
0.00208284
0.00110811
0.00112714
0.000456567
0.000469776
0.000186655
0.000179832
0.00344814
0.00105865
0.00344174
0.00131102
0.000325823
0.000332985
0.00129586
0.00103779
0.0032535
0.00337768
0.00129759
0.000314232
0.00125381
0.000329207
0.000461575
0.000159233
0.000480595
5.83432e-05
1.20912e-05
1.33847e-05
5.38359e-05
0.000160185
0.000471553
0.000483202
5.89436e-05
1.26189e-05
5.5918e-05
1.35454e-05
2.01062e-05
0.000126333
1.24881e-05
1.10259e-06
1.36673e-05
2.17243e-05
0.000120887
0.000126803
1.1188e-06
1.29105e-05
2.06815e-05
0.000122648
1.37979e-05
2.18974e-05
0.000503832
1.639e-05
8.09605e-05
0.000174251
0.000487621
8.54002e-05
0.00018136
0.00050463
8.13862e-05
0.000169725
1.6173e-05
8.55744e-05
0.000180029
0.000489472
2.27306e-06
5.1526e-05
5.43511e-05
1.32836e-05
3.37309e-07
1.23751e-05
3.69531e-07
0.00414845
0.00131106
8.02034e-07
0.00058654
0.0099753
0.00129802
0.000661035
8.38277e-07
0.0100923
0.00490861
0.0100065
0.00489621
0.0041429
0.00173891
0.00172719
0.00995665
0.00412005
0.00487306
0.0048812
0.00413107
0.00173698
0.00172362
0.000297693
0.000290588
0.00130042
7.2274e-05
0.000451758
0.000460099
7.53137e-05
0.00201924
0.000154697
0.000659028
0.000670484
0.00203239
0.000596247
0.000159701
0.00029228
0.00130973
0.000298114
0.000460395
7.32724e-05
0.000453314
7.56046e-05
0.000670778
0.00201494
0.00203003
0.000596479
0.000156202
0.000588138
0.000160095
0.0209394
0.00210751
0.0219568
0.0720284
0.121191
0.0206169
0.0217664
0.00210372
0.123653
0.0752388
0.12181
0.0742727
0.0709155
0.0411531
0.0416863
0.120768
0.0705271
0.0739772
0.0737322
0.070277
0.0408456
0.0409677
0.0110914
0.0399338
0.0206824
0.0393596
0.0219476
0.0221995
0.0109973
0.0423565
0.021815
0.0419353
0.0222851
0.0111438
0.0224966
0.0110906
0.0205445
0.0391898
0.0390415
0.0218054
0.0109631
0.0218678
0.0109424
0.0217309
0.041819
0.0417017
0.0221588
0.0110457
0.0222024
0.0110488
0.00527713
0.0113449
0.00524625
0.00212323
0.0114275
0.00524404
0.0052659
0.0112913
0.00212084
0.00523939
0.00521341
0.0113025
0.00522998
0.00524996
1.09603e-05
0.000117603
1.87909e-05
0.000121795
8.97577e-07
2.01633e-05
1.18423e-05
0.00012216
9.10203e-07
1.12895e-05
1.92964e-05
0.000118924
2.03214e-05
1.19489e-05
3.14069e-07
1.1661e-05
4.90024e-05
2.2207e-06
5.35651e-05
1.30548e-05
3.61805e-07
5.516e-08
3.68782e-07
2.33484e-06
2.65673e-06
9.44219e-09
6.34207e-08
4.2215e-07
2.70199e-06
9.59685e-09
5.86554e-08
3.8975e-07
2.47442e-06
6.45562e-08
4.2899e-07
1.17115e-06
2.76096e-09
3.33268e-09
1.13805e-07
1.38521e-07
1.18893e-08
2.80271e-10
4.35123e-08
1.87917e-06
2.9042e-07
1.09058e-06
3.53154e-09
2.42957e-08
1.63806e-07
7.62526e-07
2.6639e-09
8.65574e-09
1.52424e-09
6.62938e-08
1.9606e-08
1.12629e-07
3.56419e-07
3.59086e-07
2.21027e-06
5.68469e-08
1.18162e-09
8.31535e-09
8.1482e-09
1.41962e-06
4.19076e-09
2.06443e-07
6.46256e-09
3.21441e-07
4.28522e-08
8.73565e-10
3.93958e-06
5.21479e-06
2.79945e-05
7.62347e-06
2.63397e-08
5.8618e-07
8.50487e-07
9.40452e-06
6.31315e-06
3.40702e-05
5.31339e-06
3.63796e-08
8.19199e-07
4.37127e-07
2.95022e-07
3.51637e-07
3.38979e-08
6.39827e-08
6.51185e-09
7.78007e-09
7.08452e-10
1.94794e-06
4.57119e-06
2.26785e-05
3.91307e-06
1.07509e-08
1.54536e-07
4.80138e-07
4.62438e-07
2.97582e-09
2.0858e-08
1.4296e-09
1.43817e-07
9.86801e-09
6.75922e-08
9.00998e-06
6.77479e-08
1.49568e-07
1.7503e-08
3.60099e-07
8.00164e-07
2.45451e-06
7.17192e-07
1.04442e-06
1.04884e-05
2.33204e-06
2.87589e-09
8.13045e-08
1.302e-07
7.00893e-07
1.52922e-06
7.2038e-06
4.0383e-07
1.76687e-09
4.59578e-08
1.77422e-08
7.24574e-07
8.12799e-09
6.39823e-08
2.46678e-09
1.86492e-08
1.4723e-09
1.87611e-10
4.0575e-07
1.51669e-09
3.23387e-09
5.63201e-10
1.05982e-08
2.2352e-08
6.18786e-08
1.95966e-07
2.1756e-07
2.34478e-06
5.53503e-09
1.07941e-07
5.80724e-09
2.61201e-10
1.55184e-09
3.37992e-08
7.48058e-07
1.32104e-09
6.214e-11
1.55804e-09
3.39844e-08
2.33032e-08
1.56022e-08
4.58092e-07
8.12204e-10
3.89718e-11
1.21446e-09
2.62449e-08
1.29028e-10
3.1104e-09
8.17924e-10
3.19565e-08
1.91027e-08
7.16341e-07
1.23498e-07
1.76717e-08
3.16184e-08
5.26197e-07
2.42429e-08
7.57991e-10
1.28942e-09
4.17764e-11
5.79584e-08
3.01529e-07
2.30452e-06
1.88079e-07
3.32419e-10
1.95437e-08
3.48234e-09
3.22341e-10
7.83268e-10
2.49028e-11
8.11266e-09
6.17832e-10
2.52486e-07
2.01027e-08
7.02943e-09
8.47098e-08
2.05389e-09
3.22237e-10
8.31087e-12
1.01443e-10
4.11e-09
1.41914e-08
4.52609e-10
1.58227e-11
6.38568e-09
2.09817e-10
1.84931e-07
6.03251e-09
1.30873e-06
1.62248e-09
2.33219e-09
3.78424e-09
1.03904e-07
4.4962e-08
7.10199e-08
5.54605e-07
9.15617e-10
4.12853e-08
1.00865e-09
4.51578e-08
2.5735e-09
5.70289e-11
6.62454e-07
2.78876e-09
4.44877e-08
1.27576e-09
1.87822e-08
1.00327e-09
6.27466e-11
4.57043e-08
6.7384e-10
4.81548e-09
1.43491e-10
9.88359e-10
1.02929e-10
1.49998e-11
9.39514e-09
1.16715e-09
6.00507e-08
7.37542e-09
2.22403e-11
1.49895e-10
1.06674e-09
7.10705e-10
5.04599e-09
3.46077e-08
7.1961e-09
2.35821e-11
1.50991e-10
1.05251e-09
1.04617e-08
2.30948e-08
4.9595e-07
7.37838e-08
5.6587e-11
1.38213e-09
3.02312e-09
7.20994e-09
4.83925e-09
9.72422e-08
2.62732e-09
9.95952e-12
1.90582e-10
1.31743e-10
5.40653e-08
7.32791e-11
3.5135e-09
1.05802e-10
5.10531e-09
2.95769e-10
6.31588e-12
3.01063e-07
4.50151e-10
2.32526e-10
7.90331e-10
6.73119e-09
2.31361e-08
1.14261e-08
8.53942e-10
2.0425e-08
2.30139e-09
5.22169e-10
2.74132e-12
2.24886e-11
6.03808e-11
8.08368e-10
1.96296e-06
1.65612e-07
1.97176e-07
1.42579e-12
2.82095e-12
2.57101e-06
2.42985e-11
9.73769e-05
8.21125e-08
5.32514e-14
1.3378e-08
8.50228e-14
8.43505e-16
3.27922e-12
2.27438e-14
4.50146e-16
2.65863e-08
2.81239e-13
1.54235e-15
2.94094e-17
1.33328e-06
1.06225e-12