/*--------------------------------*- C++ -*----------------------------------*\
  =========                 |
  \\      /  F ield         | OpenFOAM: The Open Source CFD Toolbox
   \\    /   O peration     | Website:  https://openfoam.org
    \\  /    A nd           | Version:  9
     \\/     M anipulation  |
\*---------------------------------------------------------------------------*/
FoamFile
{
    format      ascii;
    class       volScalarField;
    location    "0.00155";
    object      impulse;
}
// * * * * * * * * * * * * * * * * * * * * * * * * * * * * * * * * * * * * * //

dimensions      [1 -1 -1 0 0 0 0];

internalField   nonuniform List<scalar> 
12683
(
481.633
25.691
354.841
9.4482
188.392
44.7579
0.340232
150.687
62.788
241.323
0.0751379
45.2878
113.257
151.293
36.4819
71.8548
0.00713383
4.93554
6.31346e-05
413.117
12.0348
337.044
3.12727
169.235
2.59185
0.0752903
452.272
423.66
440.437
253.6
301.914
362.135
307.588
259.123
168.32
114.062
33.756
146.337
192.525
58.999
280.451
384.57
303.751
226.966
81.4107
280.465
198.003
217.832
39.6823
1.6369
99.029
155.736
151.936
23.1139
468.05
466.227
481.814
447.015
443.473
426.502
431.658
96.431
328.854
312.013
361.587
187.522
303.437
131.701
385.467
230.745
277.154
188.123
140.914
335.445
292.167
448.365
433.95
428.304
407.319
393.919
386.131
413.974
455.727
411.522
425.333
389.38
417.597
402.012
375.484
264.912
236.123
230.365
231.811
225.781
201.986
195.814
251.131
212.63
222.458
207.551
217.598
187.343
176.546
145.155
16.5188
0.0726939
170.92
36.1868
72.4116
0.441349
64.6685
201.699
249.861
132.314
79.5604
312.77
283.711
353.529
407.199
400.575
382.628
344.335
335.157
390.233
348.72
397.017
359.214
362.59
328.457
349.182
316.409
264.842
203.177
58.5639
108.221
268.354
137.092
5.8762
405.48
380.408
396.704
384.741
342.317
359.891
365.664
256.92
312.83
267.182
236.658
284.161
272.866
224.791
257.884
0.664436
114.778
238.422
94.6992
134.44
3.22648
406.138
389.487
381.989
371.312
363.11
338.294
346.392
213.171
186.601
207.362
154.754
177.545
171.153
147.979
362.721
349.754
292.841
324.288
315.012
340.91
371.14
332.198
350.553
376.704
360.54
291.847
315.346
335.844
230.121
201.079
187.719
195.684
163.216
181.662
147.135
189.484
178.542
199.449
162.346
126.483
150.972
138.611
353.5
353.474
344.91
291.234
309.247
299.884
300.786
370.662
323.094
336.941
317.011
334.046
302.466
286.101
72.0757
3.70735
0.000679032
33.2182
131.37
9.49389
0.0284284
71.2822
6.64772
0.001126
89.5364
0.405703
20.0238
0.00686229
103.063
304.857
262.905
195.591
33.163
151.165
8.65437
22.3022
0.364746
74.1657
44.6515
8.24458
0.459698
0.00161966
194.155
138.507
187.485
110.895
161.244
154.077
103.122
362.108
341.451
363.433
322.557
344.556
321.353
300.344
17.2931
281.652
178.373
64.209
2.63428
236.072
130.661
342.478
300.201
275.499
273.915
296.512
319.107
322.405
293.23
232.465
245.717
259.365
192.539
210.408
243.12
319.473
342.517
333.477
279.795
275.317
265.719
289.446
170.678
32.3654
0.0103674
48.4996
231.705
0.291139
137.427
166.538
127.77
178.345
144.151
79.1397
131.433
92.4825
323.724
246.215
291.248
265.162
309.471
277.279
229.961
330.382
296.112
322.528
270.976
253.242
279.128
245.53
363.614
327.937
355.915
311.6
290.252
282.746
319.407
377.773
293.605
321.154
502.155
469.58
514.095
408.725
500.326
348.782
408.218
160.599
321.084
426.666
320.836
335.309
191.576
509.111
521.78
515.109
483.471
486.448
479.572
478.289
493.045
495.187
506.315
470.198
460.094
458.108
470.569
492.112
459.879
467.906
429.522
461.174
453.488
422.129
383.822
433.125
388.886
400.16
361.801
393.515
355.999
481.822
438.178
449.862
443.585
401.803
431.531
412.818
292.958
340.249
298.491
268.828
314.263
309.066
263.295
449.382
403.11
447.401
439.92
401.306
394.885
443.163
418.254
368.691
377.031
374.511
384.885
348.333
339.05
429.609
369.861
421.868
390.951
416.379
383.753
433.999
276.73
328.734
285.48
302.17
246.891
293.838
255.86
377.195
390.258
420.348
412.932
341.796
369.645
383.299
403.134
347.02
363.361
332.575
390.963
359.562
374.316
362.639
287.365
327.946
313.811
355.798
321.601
280.365
241.917
234.909
282.695
276.759
184.057
234.724
228.783
336.244
304.722
346.964
313.323
259.868
303.187
271.206
268.831
212.917
210.248
173.785
258.937
225.096
220.603
204.215
153.174
171.951
144.207
164.824
127.9
105.173
41.8315
176.053
224.019
1.67395
0.133683
127.304
79.1631
177.568
140.307
163.365
111.474
136.756
119.456
93.6329
326.031
268.623
317.374
291.937
250.152
242.149
300.15
164.682
145.51
138.608
129.307
122.074
99.1318
91.6822
246.958
197.409
144.336
232.652
125.19
180.026
181.587
299.037
286.433
274.346
260.14
222.355
246.751
235.249
303.15
294.208
284.652
258.558
249.136
230.066
239.133
306.666
317.067
297.823
286.97
266.721
275.966
243.939
83.2316
108.139
133.926
126.538
52.4163
75.8885
100.678
318.283
312.244
339.076
295.806
247.584
267.566
275.399
8.06942
0.0844897
0.000993829
4.60338e-05
0.0312181
3.10809
0.0004663
97.5268
63.6231
115.807
78.8394
134.283
97.2596
46.9354
233.404
178.47
251.544
178.304
169.233
242.194
242.836
278.864
252.202
300.256
275.817
204.875
226.373
254.99
156.148
116.879
129.131
99.5875
112.182
81.6551
69.303
116.368
77.8407
54.1055
43.8157
103.386
66.0339
90.5069
274.804
247.475
293.293
260.934
187.863
210.633
241.689
241.162
273.217
264.031
208.412
192.409
183.813
217.188
259.959
243.151
266.206
206.751
230.845
212.32
188.172
297.558
271.52
264.414
258.559
251.246
216.766
223.997
221.673
141.732
216.264
166.143
207.048
157.018
231.002
238.767
66.1068
1.07665
80.2403
2.05077
9.80708
0.00136857
125.143
121.39
146.161
99.0871
52.4034
73.5628
76.2876
264.292
220.739
180.374
241.613
234.131
213.042
272.057
216.015
195.097
245.66
170.176
223.269
198.941
143.385
274.663
267.407
230.635
222.627
214.742
178.811
170.184
0.460122
209.227
98.1665
0.107676
0.000331547
64.5484
3.72595
215.426
139.224
134.829
103.884
158.884
162.184
194.58
273.526
250.385
242.644
231.429
223.514
190.456
198.26
130.452
145.084
119.48
103.529
79.8261
91.8848
53.7265
214.248
122.87
159.169
196.675
150.236
222.783
188.244
224.332
223.873
246.505
190.932
141.275
166.359
166.391
294.325
236.799
263.76
222.611
251.023
217.487
186.581
246.018
220.28
207.183
190.752
204.195
158.687
144.327
187.818
126.083
179.466
73.9701
124.307
116.007
66.7496
114.455
101.75
84.4033
83.9784
67.1059
55.1194
39.9609
282.51
230.27
249.801
216.484
236.475
202.012
181.122
143.344
17.2828
0.00261599
0.0235094
50.0601
0.000508389
0.301683
63.1092
40.7392
87.7071
69.8793
13.159
27.026
47.1034
202.85
123.213
162.543
111.034
188.521
138.21
176.896
248.91
175.175
164.39
198.317
219.128
197.447
228.401
112.216
65.4571
104.739
31.4829
64.6632
57.829
26.3748
253.69
161.531
219.045
175.536
229.518
192.625
131.989
257.384
205.843
227.104
184.937
207.464
174.279
150.555
48.8874
0.155934
0.000505253
0.30478
0.00311845
0.000896046
0.000114424
89.9675
59.1314
113.377
76.41
15.8265
30.3509
54.5313
80.8334
30.7708
73.6355
16.2321
51.938
45.628
12.6459
123.591
198.551
189.502
169.042
111.317
102.94
177.932
81.7533
57.8522
51.0737
37.51
31.8646
17.2237
13.4977
191.155
214.587
172.088
174.265
154.628
127.308
107.935
215.744
195.337
187.235
164.457
155.958
125.107
133.343
168.251
154.212
100.827
104.984
46.2023
91.5743
57.2909
235.375
188.224
228.267
178.112
141.645
133.873
185.63
100.323
48.7314
72.9681
31.8825
52.5398
29.9462
14.456
81.9275
56.2672
94.5893
48.9051
13.32
38.4123
20.0674
143.393
208.363
200.893
163.164
110.675
103.104
170.906
52.5117
23.9701
64.0595
37.511
4.83002
28.1687
8.57054
105.463
145.13
171.252
150.962
61.2864
85.5629
124.717
216.376
170.583
208.768
153
119.306
111.505
161.015
1.30189
0.0692288
0.000416273
0.0512545
0.000147206
0.00104064
2.65429e-05
168.685
192.642
221.922
169.53
81.8565
135.77
113.42
94.4488
44.0415
64.3288
30.5569
48.6621
25.0216
12.1654
58.6761
31.8301
42.1788
17.0408
24.7266
9.20256
5.22554
199.256
146.598
170.67
113.165
138.582
107.995
83.2529
205.395
205.068
189.967
168.3
150.46
151.773
110.185
5.07088e-05
24.324
0.232368
8.94821e-05
1.45416e-05
0.214298
0.000417448
50.9028
5.74208
16.4309
5.61713
14.6143
30.9961
32.1085
145.656
57.7493
128.159
88.35
80.5444
119.639
154.4
113.584
108.546
169.628
140.958
36.6671
81.0734
86.5309
143.613
169.565
201.786
161.936
67.924
127.322
100.202
127.066
163.563
185.649
147.197
64.897
87.3521
123.703
193.676
173.197
213.823
162.674
94.3954
117.809
139.93
194.398
125.294
150.02
106.497
131.888
86.7102
64.5185
0.154538
1.43853
0.690355
36.617
0.614476
0.00588327
0.0468581
8.6066e-05
21.101
30.6226
11.553
9.98051
2.37157
4.68427
0.863707
126.393
75.6736
140.99
93.7975
29.0963
80.6335
38.412
175.671
105.144
167.435
130.97
77.2163
70.0937
139.091
86.4677
161.329
152.657
53.0301
112.905
104.661
46.602
67.1009
21.1175
50.7891
7.25095
27.1212
16.2241
2.98038
36.4996
15.9968
30.9676
2.36294
7.30161
5.27188
1.5733
84.1659
116.058
73.8581
37.2219
63.6483
29.5931
11.282
154.471
171.04
193.278
136.349
71.7227
95.2017
111.755
84.8422
67.5578
118.234
34.2818
76.2588
59.6349
22.5094
163.107
119.414
155.01
92.1832
66.1679
59.622
99.8429
169.892
177.158
153.425
134.87
109.164
117.323
75.341
70.1108
33.1171
64.633
101.699
60.1561
28.875
10.4337
0.0187303
6.62577e-05
2.94292e-05
2.23795e-05
0.00208534
0.000100324
5.09016e-06
39.6577
4.20418
26.4728
2.12953
18.4995
9.85137
0.736608
65.5964
5.89232
33.3913
9.37728
42.0963
15.6919
1.4373
127.716
43.7913
77.0578
42.7954
64.5386
101.659
102.087
88.2244
125.236
150.382
113.982
35.4244
55.359
89.102
27.2381
24.9965
14.8566
9.97174
3.91844
4.60883
0.77972
16.2847
11.2435
23.9548
3.19871
0.418602
1.5765
0.880111
120.607
69.507
83.5243
28.3689
76.5042
62.9234
128.337
113.668
102.969
138.297
76.2738
28.2896
46.1779
54.0049
98.6026
112.893
79.5248
71.0568
42.658
52.8988
23.1324
3.85988
6.40342
24.9188
20.3515
0.287428
2.61488
4.52766
19.0235
26.0081
63.7383
56.9423
2.24589
15.2686
21.4935
109.065
33.8211
89.3949
19.5586
65.688
49.6339
11.0381
36.1875
99.6822
91.7198
63.4928
21.8977
17.9635
70.4317
117.628
157.385
101.955
50.8281
99.4814
63.2585
23.7491
125.351
120.265
165.887
64.5674
108.461
69.2605
32.6943
132.343
37.8505
90.5562
38.4988
91.9374
54.5575
14.3744
109.742
18.0663
29.3979
33.8741
77.5946
53.9602
59.3127
21.1227
25.3524
45.3505
11.9743
0.586186
2.66571
3.87435
74.6634
49.7219
97.0744
42.5709
5.12591
12.3019
26.4574
139.679
59.363
96.9743
43.6628
79.2994
43.2255
17.2966
50.2974
164.644
0.00587597
22.8681
47.3117
0.0753887
186.878
85.7515
73.9051
0.389575
88.636
24.1984
0.0166261
1.13389
8.53642
22.9702
0.0112047
181.44
145.413
156.218
149.963
139.07
108.613
101.745
174.127
130.15
141.386
119.114
130.376
92.4504
80.8081
105.164
137.83
152.69
116.032
98.9866
67.0814
51.779
18.3808
0.194134
0.000715919
0.00157326
0.871506
0.00386081
4.33721e-05
117.511
67.1251
110.419
32.3805
68.5761
62.1779
27.5006
36.4074
92.2243
41.2667
17.1735
56.9475
51.1461
13.9557
97.7327
70.0275
119.535
58.2656
79.4005
35.8332
20.7406
66.3131
77.0622
30.1209
43.552
6.34498
34.5531
10.1354
88.5927
58.1366
100.771
53.7028
14.6764
43.5334
21.3796
158.605
198.757
249.651
88.7802
182.282
289.714
219.147
205.378
118.546
183.891
199.139
23.3152
174.092
175.509
227.825
73.8809
170.597
285.031
269.554
264.39
264.806
259.241
243.738
238.595
269.553
278.298
258.196
243.048
252.101
231.621
222.747
247.603
239.52
259.286
232.503
220.461
212.237
199.997
246.267
214.14
241.42
191.777
219.966
214.766
186.285
236.242
199.659
230.803
183.27
215.21
209.719
177.298
226.374
207.402
234.828
207.752
169.34
198.839
178.882
214.145
191.967
223.405
202.329
158.924
193.003
169.235
131.15
137.736
18.6543
9.27377
105.193
26.582
0.0531603
219.699
214.449
234.476
191.141
206.757
185.743
169.042
188.186
204.311
216.21
157.397
187.996
175.045
142.599
203.267
156.543
190.631
146.065
181.785
168.415
130.181
159.354
155.688
190.431
184.726
111.239
149.13
153.031
160.924
181.538
202.995
173.097
151.832
149.205
124.98
141.606
190.416
160.24
159.539
102.208
124.298
140.674
175.918
118.588
139.49
152.359
88.1105
110.79
132.791
177.075
132.995
128.351
101.316
167.23
140.113
144.358
118.64
113.594
154.949
139.775
57.2243
95.8528
101.227
63.3671
134.85
94.3345
161.569
136.042
125.931
95.5076
154.756
118.636
91.338
77.2201
117.47
89.9244
51.3265
93.8505
66.8147
112.187
63.5627
108.852
81.2564
39.2963
121.086
54.2582
59.4804
39.8501
75.6851
81.1726
98.6511
15.3268
40.2812
53.8603
3.25887
24.7765
15.1984
1.31337
57.8092
35.2575
74.1009
8.39399
32.25
20.8183
3.67985
27.31
33.9813
61.9625
69.3983
32.6322
102.071
60.4588
48.3767
37.1364
73.3788
30.9776
14.4214
8.76733
2.25656
2.56181
37.8297
9.9893
33.2957
73.5429
47.9159
15.3821
51.6275
4.82026
17.4605
40.1511
82.407
52.6868
18.2421
3.68231
6.31187
26.0614
21.829
0.264602
4.588
2.61934
4.43119
12.0373
40.6781
10.7453
0.300844
1.17627
3.90111
14.1431
3.65406
26.5292
7.31625
0.122172
0.434622
2.47901
5.67164
1.33709
14.446
3.84454
0.0538953
0.216418
1.02933
25.0828
52.6189
75.3213
49.2676
3.86411
10.7456
30.3686
14.8392
1.28455
0.692287
0.157761
9.2404
1.47368
2.66919
18.7931
34.1388
10.6378
7.42024
0.225283
0.899702
2.2979
104.608
31.3409
19.0809
42.103
62.0116
49.4271
81.3858
1.48929
6.0111
15.759
5.06836
0.0703771
0.298148
1.33981
92.0815
43.7139
60.7747
13.9366
38.1463
54.4044
99.6722
116.958
37.8099
83.7105
21.6387
60.6656
34.2292
7.51182
1.43725
0.810447
0.153437
2.82694
1.58308
16.6055
11.0528
48.1479
6.71337
10.4317
1.32261
37.9747
10.9152
16.0069
9.22238
1.1141
4.04649
0.169802
0.643287
0.227113
0.0576409
47.0396
20.1792
68.2418
33.5108
1.55006
4.8482
18.9454
1.54653
0.155711
3.04119
0.633024
0.0155543
0.30588
0.0330663
91.1574
12.5471
52.1017
15.334
58.0096
26.6479
3.13375
25.2033
19.8735
52.7098
15.8424
2.37034
3.72845
0.297818
1.03126e-05
2.79288e-05
0.00732774
1.73163e-05
3.71886e-05
1.40186e-05
1.2857e-06
6.83183
0.273366
4.95682
0.0899347
1.65982
1.11376
0.0593917
76.2235
7.95509
13.4933
24.3605
26.9974
41.3823
53.9584
17.7959
1.43171
4.79493
0.484877
1.68166
0.269124
0.0720541
80.9238
21.555
44.4357
11.2255
29.0456
8.90376
2.02666
11.2021
12.0682
37.9127
0.137151
1.84802
13.206
1.63438
0.0945198
7.33001
1.27653
11.3577
30.5344
7.36136
1.28131
7.9362
24.1566
3.96069
0.430676
0.0604569
6.02402
1.00073
0.0508898
0.62054
8.3906
5.61933
25.3687
4.05834
0.37413
0.861932
0.60242
7.78114
0.407074
4.19224
5.65315
24.5864
0.513276
0.277317
4.61219
1.72647
0.00941853
0.0937249
0.175018
2.54198
7.61594
21.7371
4.7831
0.0434232
0.870138
0.270283
37.2653
7.93013
1.17117
19.808
16.2039
6.01516
42.7744
52.1666
6.72511
31.2534
1.52519
13.1238
4.55787
0.354419
3.40204
5.68509
27.2011
16.944
0.110578
1.38041
2.4708
33.2706
39.1575
76.7942
30.847
0.704904
8.51674
6.28895
2.22437
2.03549
10.3419
0.113359
0.817619
0.124094
0.0166095
5.20685
8.94235
3.23139
0.968455
0.302069
0.588277
0.04875
0.0289637
0.0608651
0.284728
5.3363
1.26413
0.593729
0.119543
0.012144
0.0659303
1.05095
2.84559
10.6725
0.932466
0.177452
27.5555
0.390453
8.0683
0.714306
12.2717
2.28412
0.0876031
26.2584
0.786125
0.504279
3.42024
9.60996
2.93115
13.007
13.3838
20.8105
52.7469
23.8858
0.248128
5.3451
2.66862
1.66234
0.847104
7.27072
0.0483135
0.502692
0.0929676
0.00874972
0.725194
0.139126
5.62938
0.0721944
0.356471
0.0398881
0.00765359
0.217494
0.13253
0.0315482
0.605802
0.355589
6.08947
2.58342
370.865
3.73915
268.653
0.00843222
75.8
269.267
62.1453
195.207
149.153
151.275
196.422
63.2347
309.404
196.139
138.99
366.857
193.367
308.27
137.54
270.043
239.835
241.318
235.697
237.275
207.653
205.953
266.61
238.08
240.643
233.704
236.503
206.981
204.205
0.541373
38.9179
173.894
175.032
39.7708
76.9152
0.574773
243.055
100.73
137.747
246.476
100.147
142.185
3.99094
215.542
197.798
218.087
182.964
157.82
160.688
180.195
198.296
216.96
218.648
183.536
159.113
181.656
161.201
363.224
371.792
364.244
310.579
318.47
319.701
309.31
0.474046
22.0914
92.4927
96.5294
0.51308
22.7609
0.00893659
196.384
152.657
199.486
167.088
113.94
117.151
163.966
153.462
198.416
200.276
167.769
115.735
165.775
117.831
370.108
359.124
362.529
309.025
314.711
305.589
318.133
338.193
311.599
339.727
288.787
259.65
261.861
287.149
311.121
335.534
338.59
287.666
258.388
284.507
261.306
519.333
325.969
416.875
354.413
508.638
520.162
413.41
510.114
353.43
437.87
194.325
341.533
440.465
325.618
343.699
196.403
521.582
528.468
530.62
494.876
487.978
493.233
489.657
517.713
529.094
526.141
493.465
486.629
490.808
488.543
511.153
475.15
477.759
470.814
435.96
468.614
438.334
506.201
477.381
473.745
469.807
434.662
466.383
437.938
440.33
391.217
393.726
367.527
405.178
365.08
407.587
437.851
392.605
394.318
367.912
404.844
407.595
365.858
344.149
302.633
299.971
318.589
270.369
315.944
273.133
302.162
344.995
303.474
319.345
272.488
317.789
273.971
456.281
455.341
412.046
417.803
454.989
413.15
456.433
454.854
416.217
453.084
408.334
452.076
411.517
455.157
429.257
384.493
395.999
356.59
427.463
386.089
398.267
428.259
356.206
382.094
394.974
425.241
385.047
397.909
334.472
367.847
291.724
328.534
331.879
370.267
294.555
334.731
328.474
367.382
292.128
370.196
332.321
294.803
288.021
245.225
236.956
197.842
285.137
248.467
240.03
288.693
198.649
246.675
238.977
286.711
249.084
240.837
176.602
148.84
151.738
132.749
135.737
105.779
102.763
177.071
149.99
152.212
133.966
136.229
106.256
103.936
140.175
111.572
86.4803
64.747
89.3999
114.562
137.078
140.756
65.1727
87.8607
112.882
138.622
89.9288
115.067
252.638
260.483
186.762
197.981
188.705
261.956
251.004
251.334
196.767
257.222
184.227
247.957
187.578
260.578
279.722
246.207
282.431
228.033
230.87
187.211
183.842
282.399
243.591
279.55
227.836
230.783
187.466
184.449
232.644
203.626
167.122
141.351
169.238
205.97
230.712
231.637
140.673
165.046
202.25
228.383
168.305
205.346
191.744
141.4
195.36
131.744
76.9086
79.9837
128.305
195.986
139.743
193.242
132.29
78.5684
129.657
80.641
34.0537
115.848
78.5963
118.913
70.7375
36.1162
68.0364
84.3066
41.1004
87.1416
57.5877
18.1431
19.6766
55.0842
41.442
85.4425
87.6013
57.9913
18.7276
56.0546
19.9201
79.0575
117.043
119.409
71.1744
34.8799
69.0941
36.4554
95.7928
60.7186
63.4674
39.7695
42.1645
20.5669
18.9614
94.417
62.1559
64.0185
41.1393
42.7112
20.8841
19.7546
167.463
103.288
170.332
120.897
57.0821
59.3651
117.854
102.968
167.036
170.11
121.065
57.3277
118.293
59.4294
39.1193
23.7533
41.3343
9.35068
2.85178
3.26836
8.40636
24.0284
40.1082
41.7209
9.51424
3.01023
8.7995
3.33777
7.47338
29.1433
4.60549
0.629221
5.22753
8.36238
27.2703
29.4467
0.644486
4.84067
7.82064
28.0024
5.33404
8.51281
70.2784
4.35747
21.6285
29.0091
68.1687
22.8633
30.3533
69.8884
21.1018
27.9744
4.25237
22.6577
29.9408
67.1614
0.564365
8.18524
8.79665
2.32129
0.115311
2.10504
0.127686
148.38
97.903
0.465961
71.6434
190.496
96.3815
78.2935
0.493679
189.459
159.161
191.883
161.884
151.08
114.674
111.846
192.339
149.518
160.297
162.374
151.566
115.172
113.027
45.5427
43.5997
95.2709
18.7926
59.7107
62.0216
20.1399
120.878
34.7854
77.165
79.9163
123.828
74.2111
36.7771
44.4297
98.3649
45.8907
62.4324
19.3609
60.6921
20.3866
80.385
122.088
124.343
74.6661
35.6126
72.7074
37.1251
221.581
122.034
208.101
271.846
292.666
222.519
209.183
123.261
291.871
266.804
293.525
268.801
273.645
248.308
246.228
293.835
272.63
267.718
269.181
273.983
248.696
247.128
194.448
248.64
223.79
250.629
224.816
222.524
196.925
238.815
210.57
241.068
220.235
186.188
217.884
188.772
224.219
249.488
251.013
225.237
195.467
223.467
197.386
211.023
239.831
241.496
220.657
187.233
218.868
189.223
162.379
195.73
158.863
125.062
193.201
161.676
165.141
196.182
125.572
163.503
159.979
194.237
162.149
165.629
4.27947
28.1471
7.25811
29.8665
0.534073
8.06543
4.79872
30.1751
0.546831
4.49458
7.59068
28.875
8.21386
4.8957
0.107763
1.9669
7.67452
0.547704
8.5842
2.2616
0.124488
0.0317482
0.160566
0.583777
0.672871
0.00976577
0.0366566
0.185831
0.688606
0.009983
0.0336949
0.170138
0.619518
0.037489
0.190033
1.42658
0.011767
0.0141597
0.22512
0.271532
0.0417338
0.00215991
0.0260727
0.483569
0.131102
0.321722
0.00444134
0.0170293
0.085352
0.975864
0.0115056
0.0313465
0.00748249
0.146841
0.0509947
0.222158
0.339942
0.330901
1.2994
0.0670691
0.0042176
0.0167763
0.0171682
0.661363
0.00620318
0.125536
0.0112562
0.246661
0.043858
0.00213733
10.937
13.7762
46.7162
20.6592
0.140223
2.10629
3.04745
23.4845
16.0244
51.3651
13.4997
0.180129
2.76334
1.43607
0.344136
0.603115
0.0724747
0.123304
0.0169435
0.0273393
0.00350687
3.67131
8.88961
28.9412
8.75515
0.0538921
0.452467
1.40698
0.180353
0.00428567
0.0218081
0.00242546
0.0843834
0.00930589
0.0468628
8.5622
0.135232
0.251345
0.0360619
0.460074
0.850188
3.22367
1.62065
2.42337
18.3241
5.7103
0.0178887
0.268349
0.425793
1.68581
4.09441
14.2739
1.01784
0.0124523
0.176914
0.0718809
0.970202
0.0305005
0.14746
0.0111364
0.0509663
0.00756022
0.00159645
0.504038
0.00659299
0.0122883
0.00266795
0.0267228
0.0499019
0.12646
0.788168
0.580333
6.89057
0.0398705
0.439025
0.030761
0.00271908
0.0113119
0.135349
1.84617
0.00991822
0.000879486
0.0113156
0.135622
0.0957508
0.0676736
1.12262
0.00650737
0.000586281
0.00908297
0.107407
0.000901576
0.0109461
0.00338201
0.065159
0.0413245
0.827843
0.220931
0.0733998
0.125455
1.2842
0.0982421
0.00582211
0.00942139
0.000596812
0.140312
0.631696
3.5493
0.45229
0.00286938
0.077455
0.017021
0.00294284
0.00632032
0.000422391
0.0378197
0.00516889
0.613516
0.0845441
0.0319865
0.222077
0.0107319
0.00271638
0.000152133
0.000987626
0.019685
0.0605353
0.00368701
0.000265427
0.0297164
0.00188029
0.46042
0.0278099
4.91226
0.0149962
0.020549
0.0317742
0.501952
0.229204
0.350572
1.48913
0.00601267
0.124253
0.00874611
0.194211
0.0149216
0.000745699
1.8204
0.0164569
0.138108
0.0106609
0.0868902
0.00673549
0.00082568
0.0774283
0.00356432
0.0152325
0.000966356
0.00384118
0.000762222
0.000202686
0.0219691
0.00350256
0.0788945
0.0132051
0.000192735
0.000649042
0.00345833
0.00167554
0.00856327
0.0335468
0.0114217
0.000183181
0.000592789
0.00287168
0.0340776
0.0645405
0.877451
0.200214
0.000613565
0.00771536
0.0146525
0.0344374
0.0238268
0.261376
0.0143353
0.000222281
0.00191651
0.00136682
0.16085
0.000712665
0.0147853
0.00118876
0.0269359
0.00233803
0.000132605
0.959207
0.00450224
0.00254642
0.00753099
0.0376469
0.115862
0.061926
0.00583786
0.0702259
0.012702
0.00381823
8.35888e-05
0.000343661
0.00072726
0.000814377
0.330212
0.0633737
0.0706921
2.42025e-05
2.88085e-05
0.408168
8.31467e-05
15.0953
0.0397651
7.56018e-07
0.0129512
1.95367e-06
4.4644e-08
2.92174e-05
5.76841e-07
1.49666e-08
0.0307648
5.7993e-06
7.14287e-08
2.25112e-09
0.739632
1.52971e-05
2.55052e-07
7.49733e-09
2.1526e-10
10.0352
6.99767e-06
3.57193e-07
1.15259e-08
3.77614e-10
1.11954e-11
1.31423e-06
1.66714e-07
9.35813e-09
3.85121e-10
1.39349e-11
4.07332e-13
4.18464e-08
4.27641e-09
2.57822e-10
1.15168e-11
4.21157e-13
4.72937e-15
1.17487e-09
1.10577e-10
6.68066e-12
2.89583e-13
3.51671e-15
0
2.8617e-11
2.54731e-12
1.32059e-13
4.85064e-16
0
0
0.288138
126.447
72.3155
124.167
0.944117
71.1445
0.274974
0.000122951
0.000364166
0.115041
9.3997
0.000381684
0.032673
0.000129471
9.32123
0.000249692
0.0583258
37.703
0.00380681
0.0430338
0.000284232
10.5253
0.00155089
5.45016e-05
0.229777
0.00145252
0.00123901
5.55258e-05
0.000169378
0.0901055
7.1481
41.088
0.0126539
0.0935659
4.73054e-05
117.597
128.338
119.581
55.1764
60.5093
62.1967
53.517
127.293
115.494
118.601
54.5271
58.9782
52.1669
61.4743
98.7802
74.3658
100.827
40.7501
21.6311
22.8614
39.1918
73.7883
97.0539
100.016
40.2766
21.089
38.2255
22.5856
36.8366
9.3755
38.961
10.3986
10.3177
1.03105
0.8886
39.3165
9.78396
9.72382
10.5766
10.4978
1.05713
0.944735
7.42368e-06
0.00183442
0.00113732
0.0012153
2.94896e-05
0.000471635
7.59442e-06
10.6854
1.95661
2.1455
0.653934
0.714514
0.105495
0.0961378
9.6738
0.621108
1.85527
2.09906
0.69945
0.10323
0.0911372
0.779407
0.327593
0.63796
0.0417445
0.0211697
0.0339016
0.0168082
2.05522
0.651658
9.02206
10.0099
2.37686
0.754787
0.133697
10.1719
2.17461
2.43058
0.690111
0.772139
0.136787
0.12197
0.156792
0.239254
0.4809
0.0169331
0.00779186
0.0251879
0.0120798
1.01593
41.5458
14.7051
43.3488
15.8364
7.78239
1.14834
43.0782
14.7723
15.8326
6.99271
7.68487
1.14607
1.02054
0.184983
0.0537554
0.144172
0.00342865
0.00920777
0.00712996
0.00259901
1.00296
0.690983
11.8497
12.6386
1.10429
0.762163
15.9866
1.14455e-05
9.61093e-06
0.011018
0.0376215
4.70825e-05
0.000402793
1.0565e-05
12.4
1.07494
14.4713
0.653233
11.3566
0.74327
15.6866
5.98149e-07
3.66309e-08
1.00324e-09
0.0285115
2.35774e-06
1.82401e-08
4.20918e-10
0.394125
0.0839155
7.91403e-07
3.89876e-08
1.03758e-09
8.37442e-07
5.11766e-08
1.38624e-09
3.61601e-07
1.29333e-08
3.04603e-10
6.34172e-12
1.19872e-05
9.86489e-08
2.2195e-09
4.96858e-11
0.000140627
4.90227e-07
4.28517e-08
3.92509e-05
1.33078e-07
9.67573e-09
4.81848e-07
7.0665e-08
1.97206e-09
0.0174405
1.52609e-06
1.81585e-08
4.60582e-10
0.0195673
5.52116e-07
3.69766e-08
1.21788e-09
3.37061e-11
0.00567108
8.46647e-06
5.04663e-08
1.85966e-09
6.09398e-11
1.68717e-12
3.4251e-08
1.68037e-09
6.61173e-11
2.22074e-12
5.21444e-14
9.47474e-10
4.79472e-11
1.92801e-12
5.17806e-14
0
2.29175e-11
1.18889e-12
3.55309e-14
0
0
4.78758e-13
1.6856e-14
0
0
0
0.141099
3.36252e-06
3.86331e-07
0.00173286
1.2021e-06
2.44879e-08
3.22708e-06
3.45368e-07
9.36162e-09
1.69713
3.68073e-06
4.37236e-08
1.39452e-09
1.88215
1.04588e-05
1.32164e-07
4.01353e-09
1.17147e-10
0.357919
5.26231e-06
1.97412e-07
6.13642e-09
2.01288e-10
5.97878e-12
8.93209e-07
9.62383e-08
5.09152e-09
2.07249e-10
7.48611e-12
2.15611e-13
2.57039e-08
2.46334e-09
1.42567e-10
6.32305e-12
2.19734e-13
4.85064e-16
7.37291e-10
6.46226e-11
3.77683e-12
1.59829e-13
1.21266e-16
0
1.8035e-11
1.52419e-12
7.67614e-14
0
0
0
0.0248425
4.72912e-05
3.27191e-07
8.37061e-09
1.6499e-10
4.37457e-07
1.18469e-08
2.43348e-10
3.53733e-13
2.75274e-14
0
0
0
0
0
1.66583e-11
1.75908e-12
1.01621e-13
4.85064e-16
0
0
0
6.92926e-10
8.39794e-11
4.93552e-12
2.03848e-13
1.33393e-15
0
0
2.93502e-08
4.0078e-09
2.2188e-10
9.12223e-12
2.82428e-13
2.06152e-15
0
2.09676e-06
1.20185e-07
9.0737e-09
3.75266e-10
1.14861e-11
2.91281e-13
2.54659e-15
0.0293261
1.74397e-05
2.31321e-07
1.34794e-08
4.09587e-10
1.02347e-11
2.21432e-13
3.42708
0.000124562
3.38735e-07
1.21007e-08
2.92101e-10
6.12672e-12
15.0125
0.000146042
2.17615e-07
6.15048e-09
1.23224e-10
0.248873
6.43399e-06
6.80555e-08
1.3859e-09
8.92517e-14
2.54659e-15
0
0
0
0
0
4.40486e-12
3.77501e-13
1.49157e-14
0
0
0
0
1.77595e-10
1.61952e-11
1.01536e-12
3.55309e-14
0
0
0
6.3076e-09
6.10993e-10
4.04457e-11
1.79959e-12
5.40846e-14
0
0
2.01597e-07
2.23736e-08
1.55956e-09
6.42318e-11
2.20825e-12
6.12393e-14
0
0.000330093
1.72154e-06
5.41415e-08
2.24181e-09
6.78165e-11
1.95141e-12
4.28069e-14
0.0467734
5.83041e-06
5.67731e-08
1.85746e-09
4.80476e-11
1.18465e-12
1.10531
5.51446e-06
3.31348e-08
8.15071e-10
2.07648e-11
0.00337935
5.21282e-07
8.82818e-09
2.44692e-10
7.63976e-15
0
0
0
0
0
0
6.94854e-13
5.40846e-14
0
0
0
0
0
2.83659e-11
2.73467e-12
1.56918e-13
1.69772e-15
0
0
0
1.0458e-09
1.07226e-10
6.58438e-12
2.74061e-13
3.15291e-15
0
0
3.47956e-08
4.07666e-09
2.43489e-10
1.02304e-11
3.50822e-13
4.72937e-15
0
1.43844e-06
1.31557e-07
9.00676e-09
3.30113e-10
1.09902e-11
3.17959e-13
2.54659e-15
9.31677e-06
2.33118e-07
1.00215e-08
2.88548e-10
8.23165e-12
2.02272e-13
8.01336e-05
5.56056e-07
5.75164e-09
1.56512e-10
4.00069e-12
3.96276e-06
6.80466e-08
1.92663e-09
5.1007e-11
0
0
0
0
0
0
0
7.93079e-14
1.69772e-15
0
0
0
0
0
3.82618e-12
3.3906e-13
1.26117e-14
0
0
0
0
1.49222e-10
1.40637e-11
8.06297e-13
2.72848e-14
0
0
0
5.80741e-09
5.37668e-10
3.00212e-11
1.25813e-12
3.80775e-14
0
0
5.70409e-07
1.92666e-08
1.02884e-09
4.06298e-11
1.38692e-12
3.29843e-14
0
2.20388e-05
4.39777e-06
3.1296e-08
1.17006e-09
3.68921e-11
1.06496e-12
1.87962e-14
0.000436546
1.00184e-06
2.73184e-08
8.1418e-10
2.20647e-11
5.46788e-13
0.000383259
2.22571e-06
1.32857e-08
3.2519e-10
7.72416e-12
0
0
0
0
0
0
0
1.69772e-15
0
0
0
0
0
0
3.2378e-13
1.87962e-14
0
0
0
0
0
1.26702e-11
1.07478e-12
4.93552e-14
0
0
0
0
4.73536e-10
4.07649e-11
2.18594e-12
8.01568e-14
0
0
0
1.66655e-08
1.44399e-09
7.28462e-11
2.90468e-12
9.17983e-14
0
0
4.00148e-07
4.56137e-08
2.19067e-09
8.13715e-11
2.64639e-12
6.92429e-14
0
6.52129e-05
1.42835e-06
5.34024e-08
1.90811e-09
5.83604e-11
1.6594e-12
3.24993e-14
1.07175e-06
3.03244e-08
9.11497e-10
2.48866e-11
6.19184e-13
0
0
0
0
0
0
0
0
0
0
0
0
0
0
7.88229e-15
0
0
0
0
0
0
5.99903e-13
3.75924e-14
0
0
0
0
0
2.10179e-11
1.7603e-12
9.02219e-14
0
0
0
0
6.88307e-10
5.72076e-11
3.03868e-12
1.16294e-13
1.21266e-16
0
0
2.04693e-08
1.68222e-09
8.42512e-11
3.36719e-12
1.09139e-13
0
0
5.89788e-07
4.02066e-08
1.96543e-09
7.4272e-11
2.47686e-12
6.59687e-14
0
0.18127
3.02205e-05
2.72778e-07
3.0541e-08
1.16613e-09
3.76811e-11
1.10934e-12
2.24342e-14
0
0
0
0
0
0
0
0
0
0
0
0
0
0
0
0
0
0
0
0
0
1.06714e-14
0
0
0
0
0
0
7.14257e-13
4.64449e-14
0
0
0
0
0
2.13594e-11
1.79583e-12
9.20409e-14
0
0
0
0
5.64628e-10
4.82766e-11
2.61425e-12
1.0538e-13
0
0
0
1.16095e-08
1.06245e-09
5.62051e-11
2.32018e-12
7.4336e-14
0
0
2.08014e-07
8.35394e-08
1.38605e-08
8.35845e-10
3.47235e-11
1.22091e-12
3.18929e-14
0
0
0
0
0
0
0
0
0
0
0
0
0
0
0
0
0
0
0
0
0
0
0
0
0
0
0
0
0
1.26117e-14
0
0
0
0
0
0
5.88261e-13
3.94114e-14
0
0
0
0
0
1.42777e-11
1.23461e-12
6.16031e-14
0
0
0
0
2.71313e-10
2.53374e-11
1.42791e-12
5.38421e-14
0
0
0
1.38123e-08
2.81308e-09
3.2957e-10
2.05611e-11
9.24895e-13
2.6921e-14
0
0
0
0
0
0
0
0
0
0
0
0
0
0
0
0
0
0
0
0
0
0
0
0
0
0
0
0
0
0
0
0
0
0
0
0
0
4.9719e-15
0
0
0
0
0
0
3.28388e-13
1.70985e-14
0
0
0
0
0
6.0901e-12
5.69586e-13
2.67998e-14
0
0
0
0
3.94702e-10
6.51e-11
7.34593e-12
4.64327e-13
1.09139e-14
0
0
0
0
0
0
0
0
0
0
0
0
0
0
0
0
0
0
0
0
0
0
0
0
0
0
0
0
0
0
0
0
0
0
0
0
0
0
0
0
0
0
0
0
0
9.70128e-16
0
0
0
0
0
0
1.2163e-13
4.72937e-15
0
0
0
0
0
9.45341e-12
1.4313e-12
1.41881e-13
2.54659e-15
0
0
0
0
4.88868e-05
1.23171e-05
1.36603e-06
5.8196e-05
8.57864e-08
0.000238141
3.39034e-07
9.36815e-09
3.84443e-06
3.34376e-07
1.24296e-08
3.59298e-10
9.72495e-08
7.83076e-09
3.19305e-10
1.14331e-11
2.15928e-09
1.73436e-10
8.27834e-12
3.24265e-13
5.12013e-11
3.99365e-12
1.916e-13
1.69772e-15
1.15227e-12
7.6155e-14
0
0
0.0102152
2.72088e-06
2.06615e-07