/*--------------------------------*- C++ -*----------------------------------*\
  =========                 |
  \\      /  F ield         | OpenFOAM: The Open Source CFD Toolbox
   \\    /   O peration     | Website:  https://openfoam.org
    \\  /    A nd           | Version:  9
     \\/     M anipulation  |
\*---------------------------------------------------------------------------*/
FoamFile
{
    format      ascii;
    class       volScalarField;
    location    "0.00155";
    object      overpressure;
}
// * * * * * * * * * * * * * * * * * * * * * * * * * * * * * * * * * * * * * //

dimensions      [1 -1 -2 0 0 0 0];

internalField   nonuniform List<scalar> 
12683
(
194266
432677
315382
238078
454504
507790
8930.56
657236
640438
315017
2257.99
395637
696211
674752
546436
705340
260.031
144899
1.41441
294680
276184
344120
100567
534770
82139.2
2056.27
241517
263954
243813
474165
426540
362186
397323
291417
294244
606260
331905
560340
250343
394384
411796
271296
353623
540608
694504
434568
662273
359686
511385
42015.1
445619
324887
550993
283434
216794
242184
223265
249022
274015
293266
270477
692447
404505
414923
372808
620245
407907
693491
313306
512392
455488
602238
706199
385484
424874
263373
267488
286800
314068
318041
335939
293501
226358
251977
235349
282248
274304
293110
301079
283734
265194
272835
338130
348074
316742
327276
301510
295484
282563
382951
362112
343007
367615
338015
236852
1976.54
278932
335862
439662
11363.2
609307
575330
495417
670611
668237
421179
445206
381564
306335
328653
345842
380229
397214
325687
305327
255444
290571
304015
343884
323063
365018
456686
599719
644029
755476
459670
755217
179481
287126
295594
272052
314676
348876
323283
339069
366596
334044
341590
417960
399425
427770
457406
479018
21736.3
697618
567982
710645
691449
96121
311794
323124
338074
343686
359740
385652
371379
245483
259782
253426
332770
308416
321947
347846
364889
369513
439045
401365
416183
385732
346455
385931
336916
328833
348236
418863
404609
357215
333490
313700
341296
414879
403726
463508
451253
279403
273441
264131
342007
392559
370378
368842
393358
380831
400021
459002
437406
451594
446196
291196
352811
325893
374287
346411
393050
429098
436795
93321.4
19.0651
356693
373762
169911
786.044
574440
128140
28.1932
595388
11468.3
254863
169.219
727298
420715
466896
582549
508417
698153
237869
399262
9567.89
449907
514992
173373
16364.3
47.3435
428650
572620
445499
499655
415052
430700
503192
322635
353237
342556
377696
365915
394945
409868
357365
449219
626638
654037
90255.1
502760
726323
369888
407571
451297
444221
426256
380678
393619
378534
446729
400411
466638
589663
513940
519397
420681
391444
408965
469751
473999
484366
458352
684130
505840
368.542
585679
532585
9649.58
755541
506748
589339
470956
451986
503586
476982
505900
362684
528809
418321
461785
385026
448336
574864
395509
417143
403837
468382
483382
459693
494538
353043
397728
366640
414943
436891
448973
402265
346231
412823
379411
155984
211480
127712
310342
182179
344318
243200
656033
318403
227855
374062
298149
576267
140368
166843
177979
185856
220524
230301
197809
173965
206381
191247
242524
229629
257003
212541
189410
204047
199017
238673
226594
234426
245071
266496
223959
262724
262681
303126
268464
308537
199136
222020
211650
244902
266697
258160
254375
299727
291930
292380
348648
344650
352862
358327
247240
336740
277616
286864
320252
344893
258385
234125
280183
272263
288814
277079
316589
327975
298828
367601
288333
332284
312912
355246
272198
323155
306821
309663
364062
390758
379030
371810
335600
287080
277939
286594
352940
344376
294897
298015
370039
319792
364724
312084
356038
305852
312330
441061
358968
382973
319776
367155
452688
532662
431423
416280
427294
595610
550707
445614
344700
395809
330528
378988
494767
395554
470174
443570
615692
501579
623000
467161
578170
467559
397862
447052
384965
599685
528441
501841
544051
523471
635923
534538
54824.1
4685.98
693486
692479
302907
367088
339227
416713
405861
440547
434858
395447
466215
409356
437318
489519
500710
425012
291647
343414
359594
377263
388820
423295
426322
501027
549710
689117
548814
712894
711178
609681
428632
429788
445847
480797
534274
498126
510950
435475
442074
453811
493979
504466
531739
520050
386717
377439
407017
428103
473516
444966
528267
441616
413589
409352
419800
382532
437695
418778
387236
408495
374067
427047
487018
463271
445772
203293
2250.13
31.9311
0.443322
956.075
71130.9
11.2906
616055
487590
504788
607564
597475
525368
450961
541681
630019
518641
634135
641785
530927
529336
438197
481317
420316
450662
566808
522038
473259
310632
406922
381801
418342
403576
427656
422732
433500
423077
409203
362930
447528
428380
423145
445100
495834
412343
487499
696619
632125
537771
506444
466355
476346
568740
597942
614013
553705
465956
491763
465532
566394
522243
555080
607724
432958
460320
473222
476859
489219
542618
527430
558141
665186
566504
642728
580570
652747
544894
512638
703495
40388.1
756123
74895.2
277237
54.6503
445184
412264
389567
467910
408470
435118
471161
470511
535797
620208
500298
512660
550635
459221
511120
598477
516910
671687
590184
674276
734213
451828
462840
585488
565421
582086
720717
730459
16891.3
575434
758950
4011
12.0965
683025
127722
611509
720982
773207
715950
751547
672937
682901
460765
490734
501945
519550
532459
598667
581235
518330
623175
655375
572375
553320
669203
518286
562563
697153
655446
597594
662996
549943
612296
527791
526885
491538
597409
694142
652887
642946
415555
541658
478336
545856
489532
599776
689624
501441
611766
646932
638955
606862
743383
755357
694808
694563
707614
644511
747809
742873
626875
409621
429319
426677
439912
420591
405090
369901
446286
517058
489449
541155
506873
569842
624087
732308
366725
93.9258
847.555
622087
18.8545
11090.8
411497
375550
454792
447906
210889
321332
383268
581159
682061
656246
699095
605435
672990
632246
486554
639389
653454
581533
535425
580516
517158
426012
432344
433419
340278
421977
411842
315544
484061
751154
602242
672350
532525
679231
779111
475767
562274
521390
612608
558260
633601
692138
404372
4564.74
14.4146
8796.89
95.8732
26.4382
3.10206
642629
575208
634183
524811
280260
387337
494657
416126
315689
413083
235391
388163
373703
203660
675101
594066
607832
637973
675216
673218
624928
587979
459005
442277
457667
427246
262069
226206
688808
573804
729334
674870
710291
760438
753127
548918
588465
605981
644148
657119
687360
681090
724515
742439
693539
734857
560188
719645
600128
508543
600983
522985
625595
695585
704164
607101
485817
414503
488644
349477
440179
367563
240177
442417
419074
440494
394486
222964
366255
278131
685271
558016
574481
658309
706105
704563
642285
387637
283829
405120
350773
104480
315416
158231
682410
681836
633568
662519
620911
661971
702670
544485
644218
559431
675332
709269
710242
662122
36982.7
2575.77
12.4307
1878.8
5.05387
32.2517
0.621317
692567
692371
595534
751059
727429
791212
755269
435275
392764
430292
336911
392179
310891
213899
549522
373147
414992
311532
379603
175798
115790
577743
692696
637984
715961
682353
697423
692657
628208
585022
626578
734622
770405
724800
788306
1.39272
440491
8733.72
2.37629
0.323857
5918.2
12.2629
418343
124613
248910
118372
235013
333503
360775
665705
589050
678301
658178
646754
682909
655353
739162
768791
746190
781734
548758
733462
720302
735570
684545
599024
751569
706214
785896
767000
705737
667765
607522
687830
666132
697731
729764
591629
637506
546188
661883
733084
720540
715934
626547
772145
759916
740983
736814
727674
674947
4804.54
42939.6
20425.6
393977
18016.6
184.133
1427.42
1.98644
308327
440920
217428
222583
60111.3
127066
23206.1
730573
675815
721605
725262
472459
701739
535368
629357
695708
645566
695513
664438
649241
688026
697405
700352
710162
608064
747337
738912
578905
434689
294037
410005
150459
321396
251874
75485.7
348349
226372
325958
53623.4
134962
105637
36931
682961
683537
574589
537742
632407
427345
254413
677512
649507
589433
700601
689626
710643
732634
678049
647000
757228
499885
692276
647746
410365
649792
697137
663009
680153
631625
613022
686183
732142
661458
717816
783722
777137
758537
729207
463037
378155
458932
458707
450654
360350
210490
508.172
1.83681
0.416298
0.302259
68.5813
2.45666
0.0891727
357139
94028.4
307622
53257.5
260884
180847
19323.9
614636
143947
425669
236696
544129
296107
43079.7
685494
537838
672400
545587
615813
705388
687998
689073
720860
675363
709821
525932
610221
714627
331922
319987
240095
193812
95305.2
107961
21753.6
238269
183531
290604
70661.8
10094.6
37866.6
21071
709862
659251
693010
473886
682182
642802
705800
722569
703055
688580
661338
470431
566445
612419
756372
750680
707238
705357
585833
625988
441136
87659.8
133101
300178
272994
7483.48
63283.7
102280
371019
426963
646516
622952
69860.7
324960
385995
731283
504791
713662
383761
664106
606433
267769
493527
677274
670840
615110
388102
347133
632490
797159
774026
761447
644084
778999
706626
467976
795385
767272
691255
698679
765565
725164
554071
752068
576870
762547
570007
749618
668975
346892
779995
386362
513933
543435
736515
655465
662463
328205
330478
441625
228494
16387.7
72858.4
94371.8
705867
594261
743582
576650
152845
287622
468449
744598
690215
773675
603616
727221
611465
391234
417920
310532
172.39
284336
404246
2043.41
260841
439765
445545
9993.38
454685
322908
483.752
30008.9
160956
308667
316.126
271343
374429
341580
357101
388212
444368
448042
287547
408226
379879
427806
406789
451020
449638
445603
386186
343179
436415
457194
440277
416888
287941
5701.37
21.0298
47.475
26019.9
120.199
0.611431
435544
438462
443004
347811
438431
429744
324905
344219
441676
360272
245592
412616
400401
218086
462449
447471
432114
440569
461277
372355
296807
426904
435840
320117
381398
128864
352377
178483
455576
426021
451206
415214
238528
391193
289989
306103
232494
156864
452489
253241
114501
201092
219496
428101
256877
226208
316150
274612
276458
184146
449394
275371
120269
133370
145087
139195
151193
164816
171280
136901
127751
147070
168948
159153
179948
190859
162137
169067
148225
181215
196591
204913
223252
161961
208546
168254
247469
197162
204571
257070
179156
227440
185804
253124
202289
209840
263535
187654
218930
176842
214846
292476
228439
271473
205565
238251
194518
220244
303573
234058
279624
394325
364893
290069
195446
452828
342676
1619.85
199409
202721
179002
240924
215938
247480
280977
250852
219377
201484
323931
246665
272012
367528
220076
309077
239441
338021
253158
280631
383332
325511
325843
244766
254444
436975
342211
341359
301547
257371
224482
274960
326098
331929
404322
369347
242817
314348
309549
458804
419103
364812
266204
411279
356483
321974
450369
427288
379746
268923
395920
396855
446720
290349
366284
364936
428283
427565
322387
366969
430730
449739
453691
452876
377077
462583
302665
371910
402216
461321
322328
434196
471282
466639
430393
467713
433369
446984
443603
431845
439742
438272
459331
388469
418426
427108
442503
389728
451672
461647
456094
232386
374995
407983
76939.4
308010
241639
34065.4
433429
367833
451652
168421
352800
292482
91024.5
350163
384593
455955
465105
376840
462444
450873
424735
387747
462226
356615
248042
179815
61847.7
69694.5
390458
197688
367803
458779
421308
258550
429819
118069
276918
391583
459915
430666
283196
83883.8
132192
311723
287006
6871.88
103660
63106.1
109007
218736
393904
202242
8523.46
32793.7
97452.9
234626
85418.4
321136
151491
3387.03
11527.4
64695.3
122752
34526.1
228715
91096.1
1489.06
5793.14
27829.8
419352
599112
650747
570689
118319
251013
478369
231565
33872.3
17990.6
4207.94
172948
37470.3
66104.5
280238
362312
200579
154369
6345.16
24901.7
60869.4
717032
508845
389671
583704
652269
599502
711654
39502.5
129359
257176
118312
1937.05
8165.48
35791
695225
557193
632446
313051
528233
611676
700948
786273
572450
751580
431090
683584
553783
218268
37902.6
20924.3
4079.38
69647.9
39947.3
249855
196392
587584
184699
248036
42718.5
535874
261426
326193
167224
27982.3
90197.1
4253.66
15754.4
5731.82
1487.74
590572
388298
668821
517505
53618.4
145628
386633
45543.6
4579.72
83370.3
15906.8
412.922
7845.42
855.518
739767
308008
645254
347055
659495
487004
106869
466224
368694
617453
354170
75722.9
124435
10238.5
0.213147
0.177538
229.642
0.330389
0.269476
0.252331
0.0210662
160385
7835.38
124834
2268.67
40526.6
27606.8
1511.84
677096
214436
314139
448330
456225
558263
626362
337108
40407.6
115394
15688
52723
7429.24
2081.98
718551
432933
605677
279847
488609
241390
71828.6
221284
232643
400131
4259.72
54234.6
245560
48297.9
2907.89
165414
37955
222754
369670
165987
38106.4
173568
330513
100744
12538.7
1837.57
141808
29720.1
1546.03
18197.8
181692
135122
337716
102473
10906.7
25727
17718.7
171819
11921.9
105955
135720
331759
13747
7323.83
104747
45382.7
267.265
2570.08
4832.53
84190.1
212152
409908
129489
1425.57
28082.1
8433.73
508362
200253
38895.8
375213
333557
163253
537221
635807
194526
518704
53435.5
313734
144338
12635.7
106393
159876
461401
357013
3797.58
47521.1
79615.9
556719
605121
748761
542390
27727.8
252141
197662
60550.5
55556.2
198306
3266.13
22705.6
3581.45
494.503
141532
240907
105181
31834.9
9635.5
21228.1
1633.7
820.154
1715.68
7684.93
121284
34958.6
16522.5
3457.91
366.285
1930.49
30046.5
76698.3
207338
26541.8
5198.03
467821
13689
220113
24857.3
291705
78435.2
3162.87
437433
26996.6
16989.9
109219
237344
92707.4
297084
326202
430955
649876
472071
9544.59
173799
95933.1
46305.1
24035.4
156583
1400.55
14016.6
2697.5
261.646
22162.2
4124.98
140065
2109.74
10622.6
1249.87
231.149
6001.29
3614.22
868.802
16300.5
9323.24
130888
65956
367822
109346
279002
207.24
442302
276362
397711
244227
554410
554018
244346
400849
403054
617675
693201
367223
614551
401669
691273
276344
260058
256863
332117
328890
306853
310313
279255
258756
256361
332851
329050
306463
309474
13899.9
344065
271833
271297
347443
444049
14760.9
564196
722137
692175
554679
718711
692154
115505
239025
240937
236362
296383
324077
319859
300182
241007
240097
236767
296609
323875
300574
319893
390892
364658
387209
446103
433860
429778
450283
13322.3
266820
596905
603311
14445.4
271487
219.66
421015
552298
415828
402074
495096
496238
405969
552292
419379
415405
402249
497681
406101
497253
364350
388735
386371
444742
431700
446813
428914
391237
399155
387449
452090
477791
473337
456383
398606
389754
386907
451177
476239
453898
472773
111879
370948
300301
339514
176347
112649
303057
175433
338530
226467
569736
291992
222326
368432
288616
565548
110500
153759
152803
207509
170135
208856
168831
118266
154632
158824
209115
176773
213334
171264
175155
198229
196347
218305
235848
220060
233631
177398
195606
196215
218621
234676
221292
233113
223740
266680
263249
301624
262588
305886
259615
222236
261172
261374
299634
259421
258473
300270
288403
286347
289592
338798
344658
343581
340323
288159
287320
285938
337420
342829
339647
339748
266099
234119
330407
297724
268359
327265
231956
267095
298708
238852
330835
271021
327400
233695
268727
329289
282883
336231
271171
326226
280148
268959
335767
329562
282012
272083
326257
279710
354587
310378
440025
367087
359665
306976
433983
352532
366090
307740
434251
305958
354131
431835
408975
529315
426511
563235
414953
521465
420986
407140
561927
522581
423502
409818
519065
419991
267733
335181
330497
370263
367248
421462
421061
267584
333975
330155
370030
367224
421694
421527
400510
409156
440428
402696
443492
409056
402240
400943
403857
443518
410431
403328
444672
409578
523139
514887
631926
613878
628213
510353
527797
521806
612850
512024
629151
524401
627299
509244
447363
556859
443043
557297
552048
715615
718992
442216
557989
445049
555615
551558
714200
715111
539154
588653
653140
692011
650384
584095
544052
538421
691521
650963
588331
541980
649716
584133
693333
692688
688338
756455
653384
661121
753691
686480
690616
687869
755915
655795
751579
662125
350934
421666
446289
420249
430173
359797
425731
416177
351379
418485
399773
249495
260539
394040
352639
417713
419106
400797
253933
396555
262279
447026
421375
420206
430993
354706
427637
361276
602027
462308
469861
467743
480047
288830
275170
600131
468246
472054
475291
482881
291881
283160
696173
725614
693769
758462
627045
636181
755194
724434
694463
693388
757741
625903
752876
635774
355897
276873
364244
160997
63163.6
71040.9
148933
278677
361021
366137
163152
66232.9
154376
72335.1
148682
322316
100759
16159.9
111247
161083
312400
323886
16560.6
104805
153644
316489
113026
163149
669445
124592
399505
451411
661190
412922
462350
669054
394920
444159
122093
411252
459644
660241
15885.8
183637
193750
55358.7
2894.3
50648.2
3197
367722
444193
11900.9
441641
254634
443064
449849
12611.8
255864
334327
252107
329824
363758
442261
442073
251684
366379
332760
329334
363365
442428
442322
373419
367044
441996
257543
417500
422731
267419
431570
357525
448089
452015
430331
445948
366120
369950
444610
374561
423707
261885
419890
269195
452755
431248
430302
446764
361344
443600
367603
197476
423275
214359
130427
110565
196269
214188
422664
110784
141063
108675
138794
127937
158519
161289
108511
129524
140994
138691
127530
158191
160556
242864
158999
194114
156081
190123
193447
239127
174734
211212
172118
194736
247513
197946
243720
193660
157832
155603
189689
241609
192334
238693
211118
174676
172029
194449
246728
197291
243442
318188
236121
317999
421376
239861
313157
313434
235741
421270
316517
316490
238767
312672
312910
94578.2
322365
146137
331381
13634.7
157672
103630
332983
13966
98409.4
151022
326445
159767
105318
2696.92
47348.6
174658
15400.6
190125
53954.8
3112.92
763.366
3848.31
13445.8
15517.1
239.684
879.107
4431.31
15897.5
245.053
810.472
4071.79
14296.8
899.457
4529.39
37794.1
332.745
399.628
6187.51
7399.68
1191.31
62.8468
632.328
11203.2
3170.07
7564.61
110.073
419.363
2085.41
27436.8
327.395
901.229
225.403
4323.39
1472.82
6122.51
8858.26
8416.18
33261.6
1769.46
113.425
442.927
463.8
19891.9
169.135
3361.13
355.221
7625.39
1205.1
59.376
290401
335772
633637
436683
5411.49
77695.6
107044
470305
370762
657514
335365
6946.98
99463.2
53768.2
9995.77
20491.2
2215.37
4163.42
503.026
943.017
107.814
120989
244272
499300
244854
2063.06
16767.9
52655.1
4378.34
109.129
548.807
60.4818
2104.75
233.881
1156.87
228484
4827.27
8735.81
1255.22
16039.4
29150.1
105068
59035.5
84583
396174
178144
676.904
9980.79
15780.1
60324.5
134989
338440
37431.8
468.994
6574.04
2659.84
27568.1
877.978
4381.33
317.171
1484.85
229.143
46.2908
13684.8
188.173
355.493
76.5603
747.508
1414.33
3548.81
30386.1
20376.4
207328
1564.57
16597.4
1106.69
100.142
358.148
4195.83
54085.3
313.007
27.2066
358.477
4205.4
2956.19
2066.14
33517.4
203.72
18.1028
286.751
3315.8
25.2872
314.366
96.6485
1858.45
1154.47
22719.8
6207
2241.21
3889.63
38364.4
3035.81
181.816
297.705
18.371
4955.63
22518.2
114074
16232.9
106.689
2865.56
620.085
91.1215
197.775
12.6089
1146.41
160.957
18072.1
2593.67
955.863
6359.2
314.985
83.6238
4.27689
29.6697
588.955
1853.08
114.516
7.76875
902.219
57.8144
13553.2
842.05
163317
592.519
818.971
1268.73
19721.9
8882.38
13535.4
53775.3
205.658
4217.96
333.938
7278.34
525.748
25.3191
65568.6
587.37
4759.95
410.218
3267.07
234.557
28.562
2117.37
100.073
432.29
25.9351
107.358
21.6649
5.10254
725.53
113.356
2546.35
375.874
4.81423
18.0206
100.847
43.409
221.728
852.291
300.333
3.88899
14.9763
75.3988
1237.51
2324.78
31607.5
7235.58
21.5763
283.381
533.288
1038.12
719.225
7582.79
428.913
5.55066
57.8632
40.8907
5757.2
22.982
484.303
43.6967
991.804
78.9656
3.73585
36503.4
176.209
97.9999
295.69
1445.94
4506.74
2383.39
193.209
2250.91
389.687
124.429
1.92172
10.8066
21.9864
17.2081
6346.32
1319.31
1469.23
0.157944
0.2594
7758.67
1.16457
292044
1217.18
0.0174815
427.784
0.0312147
0.000575726
0.392037
0.00632453
0.000236499
816.72
0.0852302
0.000774481
2.36764e-05
19315.6
0.258189
0.00333177
8.92114e-05
2.5887e-06
169478
0.105825
0.0050272
0.000147762
4.72364e-06
1.46028e-07
0.0200997
0.002087
0.000117965
4.81821e-06
1.82044e-07
5.90808e-09
0.000443261
4.90883e-05
3.16346e-06
1.49754e-07
6.00994e-09
1.45519e-10
1.26313e-05
1.29706e-06
8.59145e-08
4.2055e-09
1.16415e-10
0
3.30096e-07
3.21306e-08
1.99361e-09
4.36557e-11
0
0
8796.99
678610
649821
672697
27863.5
642311
8372.85
2.54597
8.56669
2898.35
162289
9.05116
866.842
2.69639
176381
6.07696
1580.08
369752
104.624
1152.25
6.52339
175053
38.4098
0.774366
5764.43
36.0118
32.594
0.812933
4.94347
3056.64
185300
539054
416.926
3162.39
0.644009
681157
677208
680519
568203
585971
589251
563649
675076
674902
678058
563539
575733
553499
584747
679910
653923
680524
509442
381375
392580
502468
650631
672752
677603
505164
374094
493234
389141
366019
176646
374613
189478
189012
27112.4
23382.5
376077
181916
181635
191659
191234
27804
24865.5
0.0993985
46.4479
31.6265
34.0792
0.402089
11.3586
0.103549
176866
46559.8
50733.9
15353.4
16781.3
2609.57
2380.42
165125
14570.2
44231.6
49702.9
16420.4
2553.32
2256.36
14514.9
6305.86
11904.6
812.969
424.874
665.019
340.596
49303.1
15491.9
157589
169373
56320.4
17967.8
3360.17
171273
51957.5
57485.2
16420.7
18391.1
3436.97
3071.36
3173.19
4706.18
9046.93
343.126
162.338
500.819
248.255
33828
544030
316677
553659
331885
197191
38101.2
551252
316537
331402
181518
195016
37946.8
33829.9
3712.36
1123.39
2932.25
73.3429
191.757
149.361
55.8539
29739.5
20557.1
248576
259301
32698.1
22639.4
302512
0.135195
0.190271
350.266
1146.71
1.53693
12.4952
0.312846
255335
31776.3
282267
19347.7
240001
22040.1
298032
0.00293492
0.000281269
9.91613e-06
613.064
0.0296564
0.000164566
4.91091e-06
7516.24
1739.55
0.00467585
0.000298837
1.02248e-05
0.00388853
0.000388075
1.344e-05
0.00361886
0.000129145
3.75217e-06
8.52888e-08
0.22201
0.00135739
2.93137e-05
6.35948e-07
4.54384
0.00763851
0.000692425
0.899198
0.00070597
0.000104727
0.00526092
0.000995413
2.44629e-05
474.108
0.0264737
0.000187077
5.97796e-06
572.868
0.0066731
0.0004211
1.4629e-05
4.47602e-07
159.987
0.149414
0.000636633
2.22794e-05
7.94069e-07
2.40543e-08
0.000369549
1.9981e-05
8.57806e-07
3.13739e-08
9.02219e-10
1.11344e-05
6.23317e-07
2.73576e-08
9.45874e-10
0
3.00308e-07
1.68657e-08
6.98492e-10
0
0
6.91216e-09
3.34694e-10
0
0
0
4379.32
0.0632533
0.00993447
58.7103
0.0193166
0.000332548
0.038023
0.00368772
0.000142587
41420.9
0.054672
0.00044111
1.47867e-05
49400.8
0.173635
0.00175597
4.84595e-05
1.44388e-06
8928.28
0.0802494
0.0029722
8.24469e-05
2.58672e-06
8.00355e-08
0.0154976
0.0012883
6.74551e-05
2.66057e-06
9.98698e-08
3.21597e-09
0.000276747
2.93355e-05
1.79092e-06
8.34698e-08
3.28873e-09
4.36557e-11
8.11406e-06
7.74555e-07
4.92728e-08
2.40107e-09
1.45519e-11
0
2.12196e-07
1.94268e-08
1.19326e-09
0
0
0
536.485
0.564431
0.00360508
0.000114153
2.24162e-06
0.00459086
0.000145395
3.14919e-06
5.45697e-09
5.67525e-10
0
0
0
0
0
2.41358e-07
2.88128e-08
1.86265e-09
4.36557e-11
0
0
0
1.02814e-05
1.37369e-06
8.34116e-08
3.71074e-09
7.27596e-11
0
0
0.00047815
5.95597e-05
3.53635e-06
1.5831e-07
5.28235e-09
8.73115e-11
0
0.0386886
0.00125118
0.000121139
6.00456e-06
2.03567e-07
5.60249e-09
1.01863e-10
982.904
0.345102
0.00316541
0.000176794
6.66761e-06
1.82932e-07
4.2055e-09
109806
4.34768
0.00562636
0.000165187
4.86916e-06
1.09561e-07
340079
5.2286
0.00314783
9.22979e-05
2.10667e-06
8319.52
0.133011
0.00109794
2.62943e-05
1.52795e-09
1.01863e-10
0
0
0
0
0
6.43049e-08
6.19912e-09
3.7835e-10
0
0
0
0
2.33724e-06
2.44414e-07
1.67493e-08
7.42148e-10
0
0
0
7.07052e-05
9.03512e-06
6.54923e-07
3.00643e-08
1.07684e-09
0
0
0.00372816
0.000362339
2.86942e-05
1.0887e-06
3.73257e-08
1.19326e-09
0
11.9356
0.0361419
0.000748278
4.20818e-05
1.16111e-06
3.30474e-08
8.58563e-10
1772.72
0.117022
0.000752012
3.28041e-05
8.06933e-07
1.98925e-08
43916.4
0.118488
0.000641451
1.29713e-05
3.23067e-07
125.867
0.0102472
0.000130815
3.49258e-06
1.89175e-10
0
0
0
0
0
0
1.03755e-08
1.00408e-09
0
0
0
0
0
3.88405e-07
4.07308e-08
2.64845e-09
8.73115e-11
0
0
0
1.32267e-05
1.54552e-06
1.00874e-07
4.61296e-09
1.16415e-10
0
0
0.000427443
6.01739e-05
3.7549e-06
1.58892e-07
5.80621e-09
1.45519e-10
0
0.024197
0.00175908
0.00014121
5.17569e-06
1.70345e-07
5.2969e-09
1.01863e-10
0.189856
0.00261454
0.000154718
4.45072e-06
1.25903e-07
3.34694e-09
2.3859
0.0145594
8.14394e-05
2.26097e-06
5.91972e-08
0.078714
0.000942522
2.46209e-05
6.88e-07
0
0
0
0
0
0
0
1.35333e-09
8.73115e-11
0
0
0
0
0
5.51809e-08
5.38421e-09
3.0559e-10
0
0
0
0
2.13334e-06
2.08805e-07
1.27475e-08
5.52973e-10
0
0
0
7.70032e-05
7.642e-06
4.53598e-07
1.98634e-08
6.98492e-10
0
0
0.0117264
0.000234419
1.46548e-05
6.18646e-07
2.17697e-08
6.54836e-10
0
0.483394
0.0888004
0.000375169
1.68263e-05
5.61777e-07
1.67493e-08
4.07454e-10
13.7089
0.0191276
0.000331166
1.17002e-05
3.32977e-07
8.54197e-09
11.8144
0.047624
0.000175598
4.8543e-06
1.156e-07
0
0
0
0
0
0
0
8.73115e-11
0
0
0
0
0
0
4.94765e-09
4.07454e-10
0
0
0
0
0
1.84402e-07
1.68366e-08
9.31323e-10
0
0
0
0
6.59202e-06
6.10933e-07
3.44589e-08
1.44064e-09
0
0
0
0.000198309
1.99525e-05
1.10245e-06
4.59404e-08
1.65892e-09
0
0
0.00468121
0.000533045
3.01619e-05
1.2323e-06
4.17785e-08
1.26602e-09
0
1.41992
0.0274158
0.000625943
2.63293e-05
8.76098e-07
2.57278e-08
6.25732e-10
0.0212789
0.000373905
1.29118e-05
3.68906e-07
9.51695e-09
0
0
0
0
0
0
0
0
0
0
0
0
0
0
2.03727e-10
0
0
0
0
0
0
9.18226e-09
7.567e-10
0
0
0
0
0
3.09927e-07
2.75177e-08
1.58616e-09
0
0
0
0
9.66848e-06
8.63423e-07
4.7934e-08
2.06637e-09
1.45519e-11
0
0
0.000247416
2.33199e-05
1.27734e-06
5.33182e-08
1.9063e-09
0
0
0.0100626
0.000469234
2.70545e-05
1.12029e-06
3.86644e-08
1.22236e-09
0
4738.25
0.428981
0.00183539
0.000360978
1.64256e-05
5.61267e-07
1.71422e-08
4.65661e-10
0
0
0
0
0
0
0
0
0
0
0
0
0
0
0
0
0
0
0
0
0
2.61934e-10
0
0
0
0
0
0
1.09285e-08
9.16771e-10
0
0
0
0
0
3.14467e-07
2.81725e-08
1.65892e-09
0
0
0
0
7.85559e-06
7.23943e-07
4.11092e-08
1.81899e-09
0
0
0
0.000134527
1.44566e-05
8.41013e-07
3.62925e-08
1.32422e-09
0
0
0.00184345
0.000691208
0.000157951
1.14479e-05
5.13362e-07
1.88593e-08
6.1118e-10
0
0
0
0
0
0
0
0
0
0
0
0
0
0
0
0
0
0
0
0
0
0
0
0
0
0
0
0
0
3.0559e-10
0
0
0
0
0
0
8.96398e-09
7.71252e-10
0
0
0
0
0
2.07685e-07
1.92667e-08
1.07684e-09
0
0
0
0
3.66956e-06
3.71787e-07
2.2279e-08
9.8953e-10
0
0
0
0.000144879
3.44288e-05
4.35603e-06
2.98794e-07
1.41445e-08
5.23869e-10
0
0
0
0
0
0
0
0
0
0
0
0
0
0
0
0
0
0
0
0
0
0
0
0
0
0
0
0
0
0
0
0
0
0
0
0
0
1.45519e-10
0
0
0
0
0
0
5.06407e-09
4.07454e-10
0
0
0
0
0
8.59873e-08
8.65839e-09
5.23869e-10
0
0
0
0
4.3481e-06
8.47082e-07
1.02722e-07
7.10133e-09
2.76486e-10
0
0
0
0
0
0
0
0
0
0
0
0
0
0
0
0
0
0
0
0
0
0
0
0
0
0
0
0
0
0
0
0
0
0
0
0
0
0
0
0
0
0
0
0
0
5.82077e-11
0
0
0
0
0
0
1.8772e-09
1.45519e-10
0
0
0
0
0
1.12603e-07
1.90921e-08
2.19734e-09
1.01863e-10
0
0
0
0
1.22008
0.25174
0.0256263
1.08497
0.00128944
7.25974
0.00504327
0.000143669
0.0640378
0.00501793
0.000184631
5.48543e-06
0.00146526
0.000112265
4.80657e-06
1.67813e-07
3.23132e-05
2.49885e-06
1.20242e-07
4.9331e-09
6.62316e-07
5.62868e-08
2.95404e-09
8.73115e-11
1.52068e-08
1.25146e-09
0
0
231.779
0.0449131
0.00515634
0.000176765
5.38724e-05
4.6049e-06
9.59175e-07
1.19704e-07
0.00257005
0.000128863
0.000582555
3.86694e-05
0.000151862
5.15371e-06
3.16803e-05
8.36095e-07
3.44336e-06
8.2975e-08
1.54541e-07
4.23461e-09
5.63159e-09
1.16415e-10
1.16415e-10
0
0
0
0
0
0.31203
923.52
1.34705
1819.44
0.33406
2.67557
17334
324.932
641573
509846
670744
21580.1
627847
6506.48
1.14326
1585.05
0.178303
568.593
0.292072
2.44174
15780.2
4940.02
25.2221
0.108544
3.2453
0.722218
0.130823
323.226
167.303
174.162
0.442
356225
80.1969
901.824
5.07026
62.822
86020.1
339981
1852.39
138.195
607235
431498
108.555
0.310155
6.05718
142655
7.081
665.358
2.02935
27162.9
6.91654
102.665
0.253176
29.3425
25.7499
0.683199
68.7156
702893
318191
9894.27
4.77473
723989
63817.2
119.897
696126
234187
75349
8.3834
740600
34251
64544
0.45509
21.1453
0.530207
611.964
8.63016
0.0706691
684.843
685949
588863
153269
12.3801
16671.4
0.977171
33.3732
1.74715
0.198287
7476.16
24.0256
68.2556
0.394296
1668.45
1.38373
0.0716157
0.252728
3.23239
15.6916
0.261097
340285
0.20544
965.028
515455
321.186
2457.53
0.494746
2.64805
589908
45985.4
70.1751
0.251909
375641
3715.82
667367
671333
665338
503345
559731
534705
532178
0.263973
0.0631581
1.08378
17196.8
135.473
0.264526
0.945113
0.121268
177.192
0.188018
2.05741
0.0415005
0.521609
0.0676131
8.27995
0.140404
0.0719446
622.713
0.190693
0.638977
0.0882309
628393
660018
652756
456921
428597
391278
489476
603741
665324
652013
431955
344099
469870
295860
684892
713630
708300
709785
701923
573807
600330
16171
0.10488
14.7569
24.7234
240483
0.139133
420.196
0.829137
671218
11444.9
1.28328
0.0479981
16444.8
7.35062
601231
13882.7
1.47611
6234.23
8.76211
0.0719585
99.0448
15.6247
22846.1
186214
0.185672
0.0736711
2186.58
173.024
8.01724
0.0449092
0.125382
0.0153047
0.0394077
0.548772
4.73966
333389
160699
160999
127974
129195
12713.1
19243.3
709108
702813
693913
678822
664661
506724
539553
449610
2.79736
1732.27
3104.43
0.221853
2.30617
0.0962111
592653
566023
629375
376734
158623
299827
231250
587735
551143
523985
344049
301281
192802
232882
718049
651325
629366
695355
682108
506914
374738
6.37152
0.0359305
0.00884551
0.100624
94.8036
0.996537
0.0230537
246243
89097.1
298063
47371.9
87105.3
7220.09
3515.99
16485.4
487.764
8855.36
17603.7
9472.3
985.524
522.39
17959.2
9273.11
9649.8
970.707
1004.61
531.911
511.147
127806
38000.2
153141
12504.4
8983.27
1920.26
1351.61
720811
605879
668533
543332
626628
425685
273253
676242
600032
576584
508689
476830
252731
296017
13342.9
8371.67
7000.46
883.47
745.502
459.652
380.271
536717
325782
456597
89064.9
206534
115130
35909
10425.3
3763.99
5384.59
410.219
578.924
286.488
194.287
86.9961
223.973
4293.46
1889.38
4611.9
241.54
94.4502
0.198054
104.261
5.34756
382.174
0.27732
21.5165
0.0750801
16681.3
61472.4
95737
3201.59
5724.27
827.21
440.351
0.0924747
169256
644.99
0.137732
0.0375103
27.5893
0.547679
1421.28
0.243512
2.00153
3.72577
0.140995
0.246261
0.019761
1050.92
0.869617
0.216157
3.12469
0.133464
0.0927317
0.0133996
3.20421
0.401678
13601
0.0936844
0.0137609
2.51901
0.185602
296850
464925
428894
94135.1
42724.6
29817
122955
112862
40882.9
27307.8
12695.1
8438.02
2362.06
1538.55