/*--------------------------------*- C++ -*----------------------------------*\
  =========                 |
  \\      /  F ield         | OpenFOAM: The Open Source CFD Toolbox
   \\    /   O peration     | Website:  https://openfoam.org
    \\  /    A nd           | Version:  9
     \\/     M anipulation  |
\*---------------------------------------------------------------------------*/
FoamFile
{
    format      ascii;
    class       volScalarField;
    location    "0.00155";
    object      p;
}
// * * * * * * * * * * * * * * * * * * * * * * * * * * * * * * * * * * * * * //

dimensions      [1 -1 -2 0 0 0 0];

internalField   nonuniform List<scalar> 
12683
(
295564
533975
416680
339376
555802
609088
110229
758534
741736
416315
103556
496935
797509
776050
647734
806638
101558
246197
101299
395978
377482
445418
201865
636068
183437
103354
342815
365252
345111
575463
527838
463484
498621
392715
395542
707558
433203
661638
351641
495682
513094
372594
454921
641906
795802
535866
763571
460984
612683
143313
546917
426185
652291
384732
318092
343482
324563
350320
375313
394564
371775
793745
505803
516221
474106
721543
509205
794789
414604
613690
556786
703536
807497
486782
526172
364671
368786
388098
415366
419339
437237
394799
327656
353275
336647
383546
375602
394408
402377
385032
366492
374133
439428
449372
418040
428574
402808
396782
383861
484249
463410
444305
468913
439313
338150
103275
380230
437160
540960
112661
710605
676628
596715
771909
769535
522477
546504
482862
407633
429951
447140
481527
498512
426985
406625
356742
391869
405313
445182
424361
466316
557984
701017
745327
856774
560968
856515
280779
388424
396892
373350
415974
450174
424581
440367
467894
435342
442888
519258
500723
529068
558704
580316
123034
798916
669280
811943
792747
197419
413092
424422
439372
444984
461038
486950
472677
346781
361080
354724
434068
409714
423245
449144
466187
470811
540343
502663
517481
487030
447753
487229
438214
430131
449534
520161
505907
458513
434788
414998
442594
516177
505024
564806
552551
380701
374739
365429
443305
493857
471676
470140
494656
482129
501319
560300
538704
552892
547494
392494
454109
427191
475585
447709
494348
530396
538093
194619
101317
457991
475060
271209
102084
675738
229438
101326
696686
112766
356161
101467
828596
522013
568194
683847
609715
799451
339167
500560
110866
551205
616290
274671
117662
101345
529948
673918
546797
600953
516350
531998
604490
423933
454535
443854
478994
467213
496243
511166
458663
550517
727936
755335
191553
604058
827621
471186
508869
552595
545519
527554
481976
494917
479832
548027
501709
567936
690961
615238
620695
521979
492742
510263
571049
575297
585664
559650
785428
607138
101667
686977
633883
110948
856839
608046
690637
572254
553284
604884
578280
607198
463982
630107
519619
563083
486324
549634
676162
496807
518441
505135
569680
584680
560991
595836
454341
499026
467938
516241
538189
550271
503563
447529
514121
480709
257282
312778
229010
411640
283477
445616
344498
757331
419701
329153
475360
399447
677565
241666
268141
279277
287154
321822
331599
299107
275263
307679
292545
343822
330927
358301
313839
290708
305345
300315
339971
327892
335724
346369
367794
325257
364022
363979
404424
369762
409835
300434
323318
312948
346200
367995
359458
355673
401025
393228
393678
449946
445948
454160
459625
348538
438038
378914
388162
421550
446191
359683
335423
381481
373561
390112
378377
417887
429273
400126
468899
389631
433582
414210
456544
373496
424453
408119
410961
465360
492056
480328
473108
436898
388378
379237
387892
454238
445674
396195
399313
471337
421090
466022
413382
457336
407150
413628
542359
460266
484271
421074
468453
553986
633960
532721
517578
528592
696908
652005
546912
445998
497107
431826
480286
596065
496852
571472
544868
716990
602877
724298
568459
679468
568857
499160
548350
486263
700983
629739
603139
645349
624769
737221
635836
156122
105984
794784
793777
404205
468386
440525
518011
507159
541845
536156
496745
567513
510654
538616
590817
602008
526310
392945
444712
460892
478561
490118
524593
527620
602325
651008
790415
650112
814192
812476
710979
529930
531086
547145
582095
635572
599424
612248
536773
543372
555109
595277
605764
633037
621348
488015
478737
508315
529401
574814
546264
629565
542914
514887
510650
521098
483830
538993
520076
488534
509793
475365
528345
588316
564569
547070
304591
103548
101330
101298
102254
172429
101309
717353
588888
606086
708862
698773
626666
552259
642979
731317
619939
735433
743083
632225
630634
539495
582615
521614
551960
668106
623336
574557
411930
508220
483099
519640
504874
528954
524030
534798
524375
510501
464228
548826
529678
524443
546398
597132
513641
588797
797917
733423
639069
607742
567653
577644
670038
699240
715311
655003
567254
593061
566830
667692
623541
656378
709022
534256
561618
574520
578157
590517
643916
628728
659439
766484
667802
744026
681868
754045
646192
613936
804793
141686
857421
176193
378535
101353
546482
513562
490865
569208
509768
536416
572459
571809
637095
721506
601596
613958
651933
560519
612418
699775
618208
772985
691482
775574
835511
553126
564138
686786
666719
683384
822015
831757
118189
676732
860248
105309
101310
784323
229020
712807
822280
874505
817248
852845
774235
784199
562063
592032
603243
620848
633757
699965
682533
619628
724473
756673
673673
654618
770501
619584
663861
798451
756744
698892
764294
651241
713594
629089
628183
592836
698707
795440
754185
744244
516853
642956
579634
647154
590830
701074
790922
602739
713064
748230
740253
708160
844681
856655
796106
795861
808912
745809
849107
844171
728173
510919
530617
527975
541210
521889
506388
471199
547584
618356
590747
642453
608171
671140
725385
833606
468023
101392
102146
723385
101317
112389
512795
476848
556090
549204
312187
422630
484566
682457
783359
757544
800393
706733
774288
733544
587852
740687
754752
682831
636723
681814
618456
527310
533642
534717
441576
523275
513140
416842
585359
852452
703540
773648
633823
780529
880409
577065
663572
622688
713906
659558
734899
793436
505670
105863
101312
110095
101394
101324
101301
743927
676506
735481
626109
381558
488635
595955
517424
416987
514381
336689
489461
475001
304958
776399
695364
709130
739271
776514
774516
726226
689277
560303
543575
558965
528544
363367
327504
790106
675102
830632
776168
811589
861736
854425
650216
689763
707279
745446
758417
788658
782388
825813
843737
794837
836155
661486
820943
701426
609841
702281
624283
726893
796883
805462
708399
587115
515801
589942
450775
541477
468861
341475
543715
520372
541792
495784
324262
467553
379429
786569
659314
675779
759607
807403
805861
743583
488935
385127
506418
452071
205778
416714
259529
783708
783134
734866
763817
722209
763269
803968
645783
745516
660729
776630
810567
811540
763420
138281
103874
101310
103177
101303
101330
101299
793865
793669
696832
852357
828727
892510
856567
536573
494062
531590
438209
493477
412189
315197
650820
474445
516290
412830
480901
277096
217088
679041
793994
739282
817259
783651
798721
793955
729506
686320
727876
835920
871703
826098
889604
101299
541789
110032
101300
101298
107216
101310
519641
225911
350208
219670
336311
434801
462073
767003
690348
779599
759476
748052
784207
756651
840460
870089
847488
883032
650056
834760
821600
836868
785843
700322
852867
807512
887194
868298
807035
769063
708820
789128
767430
799029
831062
692927
738804
647486
763181
834382
821838
817232
727845
873443
861214
842281
838112
828972
776245
106103
144238
121724
495275
119315
101482
102725
101300
409625
542218
318726
323881
161409
228364
124504
831871
777113
822903
826560
573757
803037
636666
730655
797006
746864
796811
765736
750539
789324
798703
801650
811460
709362
848635
840210
680203
535987
395335
511303
251757
422694
353172
176784
449647
327670
427256
154921
236260
206935
138229
784259
784835
675887
639040
733705
528643
355711
778810
750805
690731
801899
790924
811941
833932
779347
748298
858526
601183
793574
749044
511663
751090
798435
764307
781451
732923
714320
787481
833440
762756
819114
885020
878435
859835
830505
564335
479453
560230
560005
551952
461648
311788
101806
101300
101298
101298
101367
101300
101298
458437
195326
408920
154555
362182
282145
120622
715934
245245
526967
337994
645427
397405
144378
786792
639136
773698
646885
717111
806686
789296
790371
822158
776661
811119
627230
711519
815925
433220
421285
341393
295110
196603
209259
123052
339567
284829
391902
171960
111393
139165
122369
811160
760549
794308
575184
783480
744100
807098
823867
804353
789878
762636
571729
667743
713717
857670
851978
808536
806655
687131
727286
542434
188958
234399
401476
374292
108781
164582
203578
472317
528261
747814
724250
171159
426258
487293
832581
606089
814960
485059
765404
707731
369067
594825
778572
772138
716408
489400
448431
733788
898457
875324
862745
745382
880297
807924
569274
896683
868570
792553
799977
866863
826462
655369
853366
678168
863845
671305
850916
770273
448190
881293
487660
615231
644733
837813
756763
763761
429503
431776
542923
329792
117686
174156
195670
807165
695559
844880
677948
254143
388920
569747
845896
791513
874973
704914
828519
712763
492532
519218
411830
101470
385634
505544
103341
362139
541063
546843
111291
555983
424206
101782
131307
262254
409965
101614
372641
475727
442878
458399
489510
545666
549340
388845
509524
481177
529104
508087
552318
550936
546901
487484
444477
537713
558492
541575
518186
389239
106999
101319
101345
127318
101418
101299
536842
539760
544302
449109
539729
531042
426203
445517
542974
461570
346890
513914
501699
319384
563747
548769
533412
541867
562575
473653
398105
528202
537138
421415
482696
230162
453675
279781
556874
527319
552504
516512
339826
492491
391287
407401
333792
258162
553787
354539
215799
302390
320794
529399
358175
327506
417448
375910
377756
285444
550692
376669
221567
234668
246385
240493
252491
266114
272578
238199
229049
248368
270246
260451
281246
292157
263435
270365
249523
282513
297889
306211
324550
263259
309844
269552
348767
298460
305869
358368
280454
328738
287102
354422
303587
311138
364833
288952
320228
278140
316144
393774
329737
372771
306863
339549
295816
321542
404871
335356
380922
495623
466191
391367
296744
554126
443974
102918
300707
304019
280300
342222
317236
348778
382275
352150
320675
302782
425229
347963
373310
468826
321374
410375
340739
439319
354456
381929
484630
426809
427141
346064
355742
538273
443509
442657
402845
358669
325780
376258
427396
433227
505620
470645
344115
415646
410847
560102
520401
466110
367502
512577
457781
423272
551667
528586
481044
370221
497218
498153
548018
391647
467582
466234
529581
528863
423685
468267
532028
551037
554989
554174
478375
563881
403963
473208
503514
562619
423626
535494
572580
567937
531691
569011
534667
548282
544901
533143
541040
539570
560629
489767
519724
528406
543801
491026
552970
562945
557392
333684
476293
509281
178237
409308
342937
135363
534727
469131
552950
269719
454098
393780
192323
451461
485891
557253
566403
478138
563742
552171
526033
489045
563524
457913
349340
281113
163146
170992
491756
298986
469101
560077
522606
359848
531117
219367
378216
492881
561213
531964
384494
185182
233490
413021
388304
108170
204958
164404
210305
320034
495202
303540
109821
134092
198751
335924
186716
422434
252789
104685
112825
165993
224050
135824
330013
192394
102787
107091
129128
520650
700410
752045
671987
219617
352311
579667
332863
135170
119289
105506
274246
138768
167402
381536
463610
301877
255667
107643
126200
162167
818330
610143
490969
685002
753567
700800
812952
140800
230657
358474
219610
103235
109463
137089
796523
658491
733744
414349
629531
712974
802246
887571
673748
852878
532388
784882
655081
319566
139201
122222
105377
170946
141245
351153
297690
688882
285997
349334
144017
637172
362724
427491
268522
129280
191495
105552
117052
107030
102786
691870
489596
770119
618803
154916
246926
487931
146842
105878
184668
117205
101711
109143
102154
841065
409306
746552
448353
760793
588302
208167
567522
469992
718751
455468
177021
225733
111536
101298
101298
101528
101298
101298
101298
101298
261683
109133
226132
103567
141825
128905
102810
778394
315734
415437
549628
557523
659561
727660
438406
141706
216692
116986
154021
108727
103380
819849
534231
706975
381145
589907
342688
173127
322582
333941
501429
105558
155533
346858
149596
104206
266712
139253
324052
470968
267285
139404
274866
431811
202042
113837
103136
243106
131018
102844
119496
282990
236420
439014
203771
112205
127025
119017
273117
113220
207253
237018
433057
115045
108622
206045
146681
101565
103868
106131
185488
313450
511206
230787
102724
129380
109732
609660
301551
140194
476511
434855
264551
638519
737105
295824
620002
154734
415032
245636
113934
207691
261174
562699
458311
105096
148819
180914
658017
706419
850059
643688
129026
353439
298960
161848
156854
299604
104564
124004
104879
101793
242830
342205
206479
133133
110934
122526
102932
102118
103014
108983
222582
136257
117820
104756
101664
103228
131345
177996
308636
127840
106496
569119
114987
321411
126155
393003
179733
104461
538731
128295
118288
210517
338642
194005
398382
427500
532253
751174
573369
110843
275097
197231
147603
125333
257881
102699
115315
103996
101560
123460
105423
241363
103408
111921
102548
101529
107299
104912
102167
117598
110621
232186
167254
469120
210644
380300
101505
543600
377660
499009
345525
655708
655316
345644
502147
504352
718973
794499
468521
715849
502967
792571
377642
361356
358161
433415
430188
408151
411611
380553
360054
357659
434149
430348
407761
410772
115198
445363
373131
372595
448741
545347
116059
665494
823435
793473
655977
820009
793452
216803
340323
342235
337660
397681
425375
421157
401480
342305
341395
338065
397907
425173
401872
421191
492190
465956
488507
547401
535158
531076
551581
114620
368118
698203
704609
115743
372785
101518
522313
653596
517126
503372
596394
597536
507267
653590
520677
516703
503547
598979
507399
598551
465648
490033
487669
546040
532998
548111
530212
492535
500453
488747
553388
579089
574635
557681
499904
491052
488205
552475
577537
555196
574071
213177
472246
401599
440812
277645
213947
404355
276731
439828
327765
671034
393290
323624
469730
389914
666846
211798
255057
254101
308807
271433
310154
270129
219564
255930
260122
310413
278071
314632
272562
276453
299527
297645
319603
337146
321358
334929
278696
296904
297513
319919
335974
322590
334411
325038
367978
364547
402922
363886
407184
360913
323534
362470
362672
400932
360719
359771
401568
389701
387645
390890
440096
445956
444879
441621
389457
388618
387236
438718
444127
440945
441046
367397
335417
431705
399022
369657
428563
333254
368393
400006
340150
432133
372319
428698
334993
370025
430587
384181
437529
372469
427524
381446
370257
437065
430860
383310
373381
427555
381008
455885
411676
541323
468385
460963
408274
535281
453830
467388
409038
535549
407256
455429
533133
510273
630613
527809
664533
516251
622763
522284
508438
663225
623879
524800
511116
620363
521289
369031
436479
431795
471561
468546
522760
522359
368882
435273
431453
471328
468522
522992
522825
501808
510454
541726
503994
544790
510354
503538
502241
505155
544816
511729
504626
545970
510876
624437
616185
733224
715176
729511
611651
629095
623104
714148
613322
730449
625699
728597
610542
548661
658157
544341
658595
653346
816913
820290
543514
659287
546347
656913
652856
815498
816409
640452
689951
754438
793309
751682
685393
645350
639719
792819
752261
689629
643278
751014
685431
794631
793986
789636
857753
754682
762419
854989
787778
791914
789167
857213
757093
852877
763423
452232
522964
547587
521547
531471
461095
527029
517475
452677
519783
501071
350793
361837
495338
453937
519011
520404
502095
355231
497853
363577
548324
522673
521504
532291
456004
528935
462574
703325
563606
571159
569041
581345
390128
376468
701429
569544
573352
576589
584179
393179
384458
797471
826912
795067
859760
728343
737479
856492
825732
795761
794686
859039
727201
854174
737072
457195
378171
465542
262295
164462
172339
250231
379975
462319
467435
264450
167531
255674
173633
249980
423614
202057
117458
212545
262381
413698
425184
117859
206103
254942
417787
214324
264447
770743
225890
500803
552709
762488
514220
563648
770352
496218
545457
223391
512550
560942
761539
117184
284935
295048
156657
104192
151946
104495
469020
545491
113199
542939
355932
544362
551147
113910
357162
435625
353405
431122
465056
543559
543371
352982
467677
434058
430632
464663
543726
543620
474717
468342
543294
358841
518798
524029
368717
532868
458823
549387
553313
531629
547246
467418
471248
545908
475859
525005
363183
521188
370493
554053
532546
531600
548062
462642
544898
468901
298774
524573
315657
231725
211863
297567
315486
523962
212082
242361
209973
240092
229235
259817
262587
209809
230822
242292
239989
228828
259489
261854
344162
260297
295412
257379
291421
294745
340425
276032
312510
273416
296034
348811
299244
345018
294958
259130
256901
290987
342907
293632
339991
312416
275974
273327
295747
348026
298589
344740
419486
337419
419297
522674
341159
414455
414732
337039
522568
417815
417788
340065
413970
414208
195876
423663
247435
432679
114933
258970
204928
434281
115264
199707
252320
427743
261065
206616
103995
148647
275956
116699
291423
155253
104411
102061
105146
114744
116815
101538
102177
105729
117195
101543
102108
105370
115595
102197
105827
139092
101631
101698
107486
108698
102489
101361
101930
112501
104468
108863
101408
101717
103383
128735
101625
102199
101523
105621
102771
107421
110156
109714
134560
103067
101411
101741
101762
121190
101467
104659
101653
108923
102503
101357
391699
437070
734935
537981
106709
178994
208342
571603
472060
758812
436663
108245
200761
155066
111294
121789
103513
105461
101801
102241
101406
222287
345570
600598
346152
103361
118066
153953
105676
101407
101847
101358
103403
101532
102455
329782
106125
110034
102553
117337
130448
206366
160333
185881
497472
279442
101975
111279
117078
161622
236287
439738
138730
101767
107872
103958
128866
102176
105679
101615
102783
101527
101344
114983
101486
101653
101375
102046
102712
104847
131684
121674
308626
102863
117895
102405
101398
101656
105494
155383
101611
101325
101656
105503
104254
103364
134815
101502
101316
101585
104614
101323
101612
101395
103156
102452
124018
107505
103539
105188
139662
104334
101480
101596
101316
106254
123816
215372
117531
101405
104164
101918
101389
101496
101311
102444
101459
119370
103892
102254
107657
101613
101382
101302
101328
101887
103151
101413
101306
102200
101356
114851
102140
264615
101891
102117
102567
121020
110180
114833
155073
101504
105516
101632
108576
101824
101323
166867
101885
106058
101708
104565
101533
101327
103415
101398
101730
101324
101405
101320
101303
102024
101411
103844
101674
101303
101316
101399
101341
101520
102150
101598
101302
101313
101373
102536
103623
132905
108534
101320
101581
101831
102336
102017
108881
101727
101304
101356
101339
107055
101321
101782
101342
102290
101377
101302
137801
101474
101396
101594
102744
105805
103681
101491
103549
101688
101422
101300
101309
101320
101315
107644
102617
102767
101298
101298
109057
101299
393342
102515
101298
101726
101298
101298
101298
101298
101298
102115
101298
101298
101298
120614
101298
101298
101298
101298
270776
101298
101298
101298
101298
101298
101298
101298
101298
101298
101298
101298
101298
101298
101298
101298
101298
101298
101298
101298
101298
101298
101298
101298
101298
101298
101298
101298
101298
101298
110095
779908
751119
773995
129161
743609
109671
101301
101307
104196
263587
101307
102165
101301
277679
101304
102878
471050
101403
102450
101305
276351
101336
101299
107062
101334
101331
101299
101303
104355
286598
640352
101715
104460
101299
782455
778506
781817
669501
687269
690549
664947
776374
776200
779356
664837
677031
654797
686045
781208
755221
781822
610740
482673
493878
603766
751929
774050
778901
606462
475392
594532
490439
467317
277944
475911
290776
290310
128410
124681
477375
283214
282933
292957
292532
129102
126163
101298
101344
101330
101332
101298
101309
101298
278164
147858
152032
116651
118079
103908
103678
266423
115868
145530
151001
117718
103851
103554
115813
107604
113203
102111
101723
101963
101639
150601
116790
258887
270671
157618
119266
104658
272571
153255
158783
117719
119689
104735
104369
104471
106004
110345
101641
101460
101799
101546
135126
645328
417975
654957
433183
298489
139399
652550
417835
432700
282816
296314
139245
135128
105010
102421
104230
101371
101490
101447
101354
131037
121855
349874
360599
133996
123937
403810
101298
101298
101648
102445
101300
101310
101298
356633
133074
383565
120646
341299
123338
399330
101298
101298
101298
101911
101298
101298
101298
108814
103038
101298
101298
101298
101298
101298
101298
101298
101298
101298
101298
101298
101298
101298
101298
101303
101298
101298
101299
101298
101298
101298
101298
101298
101772
101298
101298
101298
101871
101298
101298
101298
101298
101458
101298
101298
101298
101298
101298
101298
101298
101298
101298
101298
101298
101298
101298
101298
101298
101298
101298
101298
101298
101298
101298
101298
101298
101298
101298
105677
101298
101298
101357
101298
101298
101298
101298
101298
142719
101298
101298
101298
150699
101298
101298
101298
101298
110226
101298
101298
101298
101298
101298
101298
101298
101298
101298
101298
101298
101298
101298
101298
101298
101298
101298
101298
101298
101298
101298
101298
101298
101298
101298
101298
101298
101298
101298
101834
101299
101298
101298
101298
101298
101298
101298
101298
101298
101298
101298
101298
101298
101298
101298
101298
101298
101298
101298
101298
101298
101298
101298
101298
101298
101298
101298
101298
101298
101298
101298
101298
101298
101298
101298
101298
101298
101298
101298
101298
101298
101298
102281
101298
101298
101298
101298
101298
101298
211104
101302
101298
101298
101298
101298
441377
101303
101298
101298
101298
109618
101298
101298
101298
101298
101298
101298
101298
101298
101298
101298
101298
101298
101298
101298
101298
101298
101298
101298
101298
101298
101298
101298
101298
101298
101298
101298
101298
101298
101298
101298
101298
101298
101298
101298
101298
101298
101298
101298
101310
101298
101298
101298
101298
101298
101298
103071
101298
101298
101298
101298
101298
145214
101298
101298
101298
101298
101424
101298
101298
101298
101298
101298
101298
101298
101298
101298
101298
101298
101298
101298
101298
101298
101298
101298
101298
101298
101298
101298
101298
101298
101298
101298
101298
101298
101298
101298
101298
101298
101298
101298
101298
101298
101298
101298
101298
101298
101298
101298
101298
101298
101298
101298
101298
101298
101298
101298
101298
101298
101300
101298
101298
101298
101298
101298
101298
101298
101298
101298
101298
101298
101298
101298
101298
101298
101298
101298
101298
101298
101298
101298
101298
101298
101298
101298
101298
101298
101298
101298
101298
101298
101298
101298
101298
101298
101298
101298
101298
101298
101298
101298
101298
101298
101298
101298
101298
101298
101298
101298
101298
101298
101298
101298
101298
101298
101298
101298
101312
101298
101298
101298
101298
101298
101310
101298
101298
101298
101298
101298
101298
101298
101298
101298
101298
101298
101298
101298
101298
101298
101298
101298
101298
101298
101298
101298
101298
101298
101298
101298
101298
101298
101298
101298
101298
101298
101298
101298
101298
101298
101298
101298
101298
101298
101298
101298
101298
101298
101298
101298
101298
101298
101298
101298
101298
101298
101298
101298
101299
101298
101298
101298
101298
101298
101298
101298
101298
101298
101298
101298
101298
101298
101298
101298
101298
101298
101298
101298
101298
101298
101298
101298
101298
101298
101298
101298
101298
101298
101298
101298
101298
101298
101298
101298
101298
101298
101298
101298
101298
101298
101298
101298
101298
101298
101298
101298
101298
101298
101298
101298
101298
101298
101298
101298
101298
101298
101298
101298
101298
101298
101298
101298
101298
101298
101298
101298
106036
101298
101298
101298
101298
101298
101298
101298
101298
101298
101298
101298
101298
101298
101298
101298
101298
101298
101298
101298
101298
101298
101298
101298
101298
101298
101298
101298
101298
101298
101298
101298
101298
101298
101298
101298
101298
101298
101298
101298
101298
101298
101298
101298
101298
101298
101298
101298
101298
101298
101298
101298
101298
101298
101298
101298
101298
101298
101298
101298
101298
101298
101298
101298
101298
101298
101298
101298
101298
101298
101298
101298
101298
101298
101298
101298
101298
101298
101298
101298
101298
101298
101298
101298
101298
101298
101298
101298
101298
101298
101298
101298
101298
101298
101298
101298
101298
101298
101298
101298
101298
101298
101298
101298
101298
101298
101298
101298
101298
101298
101298
101298
101298
101298
101298
101298
101298
101298
101298
101298
101298
101298
101298
101298
101298
101298
101298
101298
101298
101298
101298
101298
101298
101298
101298
101298
101298
101298
101298
101298
101298
101298
101298
101298
101298
101298
101298
101298
101298
101298
101298
101298
101298
101298
101298
101298
101298
101298
101298
101298
101298
101298
101298
101298
101298
101298
101298
101298
101298
101298
101298
101298
101298
101298
101298
101298
101298
101298
101298
101298
101298
101298
101298
101298
101298
101298
101298
101298
101298
101298
101298
101298
101298
101298
101298
101298
101298
101298
101298
101298
101298
101298
101298
101298
101298
101298
101298
101298
101298
101298
101298
101298
101298
101298
101298
101298
101298
101298
101298
101298
101298
101298
101298
101298
101298
101298
101298
101298
101298
101298
101298
101298
101298
101298
101298
101298
101298
101298
101298
101298
101298
101298
101298
101298
101298
101298
101298
101298
101298
101298
101298
101298
101298
101298
101298
101298
101298
101298
101298
101298
101298
101298
101298
101298
101299
101298
101298
101299
101298
101305
101298
101298
101298
101298
101298
101298
101298
101298
101298
101298
101298
101298
101298
101298
101298
101298
101298
101298
101298
101298
101298
101298
101530
101298
101298
101298
101298
101298
101298
101298
101298
101298
101298
101298
101298
101298
101298
101298
101298
101298
101298
101298
101298
101298
101298
101298
101298
101298
101298
101298
101298
102222
101299
103117
101298
101301
118632
101623
742871
611144
772042
122878
729145
107804
101299
102883
101298
101867
101298
101300
117078
106238
101323
101298
101301
101299
101298
101621
101465
101472
101298
457523
101378
102200
101303
101361
187318
441279
103150
101436
708533
532796
101407
101298
101304
243953
101305
101963
101300
128461
101305
101401
101298
101327
101324
101299
101367
804191
419489
111192
101303
825287
165115
101418
797424
335485
176647
101306
841898
135549
165842
101298
101319
101299
101910
101307
101298
101983
787247
690161
254567
101310
117969
101299
101331
101300
101298
108774
101322
101366
101298
102966
101299
101298
101298
101301
101314
101298
441583
101298
102263
616753
101619
103756
101298
101301
691206
147283
101368
101298
476939
105014
768665
772631
766636
604643
661029
636003
633476
101298
101298
101299
118495
101433
101298
101299
101298
101475
101298
101300
101298
101299
101298
101306
101298
101298
101921
101298
101299
101298
729691
761316
754054
558219
529895
492576
590774
705039
766622
753311
533253
445397
571168
397158
786190
814928
809598
811083
803221
675105
701628
117469
101298
101313
101323
341781
101298
101718
101299
772516
112743
101299
101298
117743
101305
702529
115181
101299
107532
101307
101298
101397
101314
124144
287512
101298
101298
103485
101471
101306
101298
101298
101298
101298
101299
101303
434687
261997
262297
229272
230493
114011
120541
810406
804111
795211
780120
765959
608022
640851
550908
101301
103030
104402
101298
101300
101298
693951
667321
730673
478032
259921
401125
332548
689033
652441
625283
445347
402579
294100
334180
819347
752623
730664
796653
783406
608212
476036
101304
101298
101298
101298
101393
101299
101298
347541
190395
399361
148670
188403
108518
104814
117783
101786
110153
118902
110770
102284
101820
119257
110571
110948
102269
102303
101830
101809
229104
139298
254439
113802
110281
103218
102650
822109
707177
769831
644630
727926
526983
374551
777540
701330
677882
609987
578128
354029
397315
114641
109670
108298
102181
102044
101758
101678
638015
427080
557895
190363
307832
216428
137207
111723
105062
106683
101708
101877
101584
101492
101385
101522
105591
103187
105910
101540
101392
101298
101402
101303
101680
101298
101320
101298
117979
162770
197035
104500
107022
102125
101738
101298
270554
101943
101298
101298
101326
101299
102719
101298
101300
101302
101298
101298
101298
102349
101299
101298
101301
101298
101298
101298
101301
101298
114899
101298
101298
101301
101298
398148
566223
530192
195433
144023
131115
224253
214160
142181
128606
113993
109736
103660
102837
238084
136783
110980
112352
104553
102996
101821
750981
500578
618736
352219
500024
264484
162866
666321
545725
507631
384161
339822
172237
197563
101298
101468
101300
101298
101298
101300
101298
102285
101298
101298
101300
101298
101298
101298
195655
122437
275853
121119
108221
102710
101785
578180
386741
339321
256320
219129
127435
118660
101298
101466
101310
102185
101299
101308
101298
178192
108629
116578
103613
106118
102148
101699
101298
150351
101304
101298
101298
105118
101299
714412
395298
688932
388768
153088
137188
434713
101298
101654
101299
101299
101298
101298
101298
101298
101298
101306
101298
101298
101298
101298
103222
105783
105991
101544
101389
101532
101394
272968
115911
354280
116317
111505
313188
310921
104167
103625
102550
101558
101443
101415
101360
687321
373631
659057
323548
138814
127108
367784
521219
212884
278509
140946
177231
111319
106403
603701
262147
412670
151877
250013
132724
109424
825451
634411
599700
387598
345608
272040
129163
101298
118511
101299
101298
101298
106548
101298
105508
101298
101309
101298
101298
101302
101298
105294
102549
104558
101377
101505
101465
101360
304698
297782
445494
145591
104770
112936
114055
668741
293479
639038
354004
132102
122517
399057
105512
114238
132601
102820
101922
101499
101376
602922