/*--------------------------------*- C++ -*----------------------------------*\
  =========                 |
  \\      /  F ield         | OpenFOAM: The Open Source CFD Toolbox
   \\    /   O peration     | Website:  https://openfoam.org
    \\  /    A nd           | Version:  9
     \\/     M anipulation  |
\*---------------------------------------------------------------------------*/
FoamFile
{
    format      ascii;
    class       volScalarField;
    location    "0.00155";
    object      rho.c4;
}
// * * * * * * * * * * * * * * * * * * * * * * * * * * * * * * * * * * * * * //

dimensions      [1 -3 0 0 0 0 0];

internalField   nonuniform List<scalar> 
12683
(
1.77556
45.0667
5.44803
68.3808
9.05485
28.6775
59.7569
9.72341
28.2311
4.09139
44.4828
26.7924
17.855
15.5792
55.1816
44.1071
120.149
110.185
0.159359
3.3998
58.7159
6.41824
79.9491
12.4114
85.9431
65.0392
2.37445
3.05571
2.65344
7.89188
5.6309
3.84358
5.33847
3.2833
4.88703
12.3162
21.6834
7.94403
3.68706
13.8317
8.10476
4.02438
5.48784
10.5637
38.6024
6.60832
12.1014
5.67622
44.9711
53.2595
13.782
5.88532
9.40204
28.0947
2.0304
2.27765
2.01182
2.30102
2.55245
2.90338
2.63831
16.9715
4.36034
4.69347
3.67422
7.6409
4.90448
12.4556
4.18765
9.25403
6.51299
11.5856
18.7714
5.79322
8.25214
2.63417
2.82677
3.10143
3.36031
3.64545
3.92724
3.08311
2.34195
3.27164
2.8832
3.53806
2.92797
3.31919
4.0091
3.09407
3.11359
3.29163
3.80629
4.04446
3.82688
4.0607
3.60819
4.06511
3.59888
5.16388
4.47548
4.49761
5.22701
6.37732
32.0547
52.6829
4.60219
21.1201
17.0829
47.1238
24.0135
10.1702
6.92815
11.3503
20.4719
4.7821
5.5479
4.10379
2.99984
3.2629
3.69239
4.32402
4.58605
3.42241
4.80306
3.51863
4.14767
4.28813
5.10851
4.91427
5.98716
10.2132
12.944
56.2752
30.0662
10.7765
34.9692
147.683
3.56402
4.35889
3.75791
3.81476
5.31615
4.59582
4.42484
5.67628
4.66254
4.77112
6.12018
5.8654
7.04913
7.52773
6.75373
60.6962
15.9053
7.89648
20.1334
12.4917
49.6918
3.68569
4.08969
4.38025
4.31422
4.60189
5.37999
5.08589
3.22773
3.88156
3.3997
5.05226
4.11674
4.38108
5.39811
4.22789
4.58528
5.90739
4.91341
5.18063
4.86574
3.95043
4.55101
4.35099
3.67165
4.1428
6.00917
5.0885
4.9157
4.75761
4.72347
5.66216
6.20314
6.36855
7.79377
8.14594
4.20523
4.25362
3.71073
4.88898
7.2428
5.75413
6.07779
3.90816
3.82267
4.05447
4.96507
4.58467
4.79831
4.75334
4.65979
6.77168
5.66094
6.66745
5.69696
7.13459
8.63154
20.4198
72.7549
60.2176
34.9252
7.93343
39.3366
57.0043
17.5784
33.3025
39.3174
13.7295
36.9165
24.2555
34.1349
26.6773
6.85588
9.73886
12.5516
60.1787
19.9073
97.4319
65.5108
59.3707
20.2052
49.8103
69.5605
130.679
74.3933
5.09893
8.63136
5.48182
8.53189
5.32416
5.73127
9.26864
5.09179
5.97309
4.93446
6.18663
5.15547
6.01315
7.22838
66.9021
6.85542
13.0798
32.5286
93.1123
9.60462
21.2657
4.72445
6.46594
6.57208
6.8458
5.75399
5.61308
5.4238
6.59091
8.76811
6.93761
8.70347
13.008
9.65346
11.0788
4.59764
4.04687
4.27911
5.22767
5.38387
5.61101
5.01209
15.0672
67.8671
94.2965
34.4256
8.58072
67.6661
20.0441
7.44656
9.98938
6.21396
6.51992
13.3344
7.86052
10.7522
5.28281
8.83414
6.52523
7.59515
6.05959
7.74197
10.7099
4.26592
5.11423
4.43388
5.43994
6.15937
5.24724
6.41767
4.88396
6.09934
5.18059
6.2866
7.04747
7.37962
5.97972
3.46502
5.83984
4.80971
1.45136
2.10567
1.2795
2.84421
1.73717
3.93845
3.12125
11.3258
4.0349
2.60553
4.62145
3.24609
7.41538
1.35115
1.499
1.57048
1.65399
1.88361
1.97217
1.7424
1.58851
1.8155
1.67285
2.10451
2.05164
2.29247
1.87087
1.81263
2.18998
2.08999
2.55603
2.14863
2.24981
2.68328
2.99395
2.47529
2.83376
2.99134
3.40912
3.15212
3.6042
1.93221
2.57901
2.3501
2.40586
3.1662
2.62781
2.88366
3.28269
3.05565
3.0875
3.80138
3.73919
3.97448
4.04526
2.16294
3.09597
2.40691
2.51959
2.9807
3.23029
2.27578
2.81866
3.6454
3.26255
3.79321
3.41627
3.94039
4.43652
2.69051
3.72242
2.67791
3.18241
2.93339
3.43426
2.4423
4.10428
3.56836
3.61552
4.3858
5.15048
5.00465
4.47927
3.41734
3.16214
2.70258
2.83081
4.12156
3.56918
3.31769
3.02755
4.12628
3.90278
4.40797
3.30368
3.80221
3.56131
3.68181
5.56246
4.24685
4.86344
3.87923
4.50118
5.91401
6.66746
4.96892
4.77979
5.09639
8.05134
7.18523
5.32147
4.6696
5.2627
4.20407
4.94373
7.48576
5.60882
6.53508
5.67293
9.72791
7.08923
9.27864
6.58119
8.15407
5.9855
7.00528
9.42202
7.10037
14.3386
10.2917
10.9642
15.5643
33.7613
12.5504
8.17827
75.7466
89.8343
17.7415
31.633
4.94631
7.44517
6.06617
9.12517
7.12996
9.26522
12.1345
5.33001
6.8059
5.61626
6.51562
7.6358
7.96942
6.21297
4.87773
6.35357
6.82074
6.91614
7.43374
10.5057
11.3991
7.9121
8.80181
14.5232
9.85198
19.4362
15.5705
11.4317
5.05941
5.44697
5.92248
5.74914
7.50631
6.21001
6.84797
5.0247
5.32941
5.57844
5.90218
6.15562
6.91978
6.62402
8.19758
7.60324
7.86419
10.0305
10.5883
9.33404
13.1831
10.0871
7.93719
6.08045
6.54025
15.0364
10.9616
8.56895
7.01788
6.82563
5.80837
7.02405
10.0086
8.24356
8.47651
69.3552
54.5085
74.9598
0.202855
50.1269
38.4782
43.9421
16.0525
17.4917
10.0243
21.8985
12.4578
13.4615
23.9656
6.20299
8.0252
5.7192
8.0322
8.43668
5.96518
5.94698
7.50459
7.59694
6.26051
7.2696
11.1777
8.96668
8.77791
5.42228
9.35857
7.74729
10.3024
8.47229
13.2017
16.3528
7.46066
12.1101
15.7872
17.4732
9.06517
12.7294
9.85279
8.24867
8.86476
7.03269
9.35468
16.9674
13.3112
11.532
7.23477
6.02468
6.28889
8.01018
9.12955
9.60695
7.63705
6.5625
7.40882
6.18269
8.46704
6.87096
7.80804
9.85271
7.18751
8.16075
8.5316
8.38581
8.75699
10.6589
10.1961
6.59305
10.2556
6.86927
8.67905
7.19134
9.13412
6.3114
12.9587
83.6637
161.236
58.1151
125.439
184.434
149.4
10.6477
9.89096
7.82002
12.6799
24.5412
16.9325
18.2179
7.62531
9.19191
12.1831
8.69925
9.07961
9.61968
7.29777
11.5509
16.0164
13.2124
18.3712
14.6083
19.8985
26.8501
5.94314
6.24587
8.4532
8.09503
8.55273
12.3841
13.278
111.886
13.1026
34.1699
131.532
24.0604
67.9116
172.935
12.7179
21.8367
27.822
26.988
20.5792
15.511
16.9645
7.16007
8.17073
8.51009
8.45706
8.81931
11.0385
10.533
13.2957
18.0447
20.9524
19.8427
23.1626
31.8237
35.6909
6.94526
13.2555
9.28991
8.27086
9.7997
6.65984
8.68534
8.14292
8.55453
7.01226
9.15681
14.8528
11.8544
11.1306
9.03823
15.5087
12.3957
13.5401
11.1539
16.7814
22.0466
7.51169
9.44768
10.9978
10.5664
9.34486
14.8882
17.4036
10.6093
13.6411
11.5089
22.2566
17.9742
19.5385
24.3325
10.3691
11.9825
13.3189
16.1521
18.1209
21.4353
29.3585
8.03245
11.6427
9.5334
12.0673
9.79877
12.0682
15.3621
19.3552
93.7921
104.905
103.961
53.1504
47.8536
147.234
15.7871
20.7139
11.6811
15.8482
36.6382
28.1884
21.5688
7.42341
12.1439
10.5255
14.6744
8.16762
10.6916
9.39527
8.52412
14.109
14.107
12.814
10.2274
10.96
10.4208
9.95264
18.5812
10.7639
30.6954
17.5364
19.1272
33.1848
9.77658
22.0669
14.5713
16.4445
11.7652
18.8852
29.2713
7.96161
11.7137
9.50613
12.5046
9.93304
12.6679
16.5753
30.4087
85.0572
34.269
87.2347
92.1923
66.0109
2.46046
25.1018
30.9761
17.3088
18.9569
47.0577
33.7665
27.7692
11.7006
22.9501
12.7247
32.7106
18.843
20.5461
34.6354
12.009
7.69921
8.07803
9.39976
13.8823
14.729
8.92369
15.0172
14.9903
16.3531
24.319
26.4026
25.1282
26.6064
13.2339
10.0544
16.3333
12.3312
14.8543
21.0663
26.3093
8.56425
10.0259
10.545
11.3892
12.0221
15.8796
15.0068
13.2007
15.9373
19.7149
22.5197
35.1956
27.3449
28.4162
9.8742
13.1694
10.3128
13.8156
18.617
19.5867
13.1503
15.2892
30.8461
23.1263
36.6482
27.2441
41.7967
53.6925
15.241
21.5994
12.3913
22.2899
45.0083
27.7121
37.9055
16.3956
10.7234
11.2329
14.8569
22.6244
23.8437
14.1297
18.3183
26.4754
14.7766
23.9348
43.2851
29.6557
38.2306
14.4148
12.2539
9.28522
10.9691
25.7507
17.8783
14.8758
10.0094
13.7361
10.453
14.7792
20.3582
21.4293
14.0642
79.6702
144.805
25.291
135.234
6.17524
81.5021
0.0202946
23.3037
24.3954
17.6479
27.7144
60.9713
39.0919
40.1267
14.2138
33.1124
22.7519
37.1968
25.5898
41.2785
56.4183
21.9083
23.6175
19.067
36.7024
30.429
29.5668
33.7528
9.7586
16.1635
12.1873
19.5311
14.1693
19.0425
26.9685
20.0028
16.0593
17.1395
27.1254
29.9894
23.2129
42.2915
0.208769
88.1779
160.894
1.77039
0.00552617
69.8221
24.2021
22.4186
48.8216
42.9439
45.946
38.1571
30.5232
32.7298
11.4123
25.5141
13.7192
17.8286
18.9407
14.5506
10.7946
31.7166
38.3314
23.1923
32.1708
82.6559
53.648
47.0926
21.7077
18.9567
14.5908
25.0751
56.7623
34.0536
39.956
19.3211
16.7186
12.8566
17.3145
40.6293
28.6371
23.3658
14.5355
15.1587
11.6031
15.9991
32.1607
23.1686
21.2374
12.1237
26.6744
20.6172
24.0319
18.5256
33.8617
44.8279
100.166
98.6845
90.8518
52.0358
91.4202
95.0834
89.772
0.369894
30.2829
38.7341
38.7982
45.0682
38.5
54.8966
43.5345
16.3991
24.1461
14.2732
24.7252
49.7291
29.1184
42.499
11.4241
18.8871
12.01
16.3661
26.7159
28.2172
15.5378
21.5818
12.1777
12.9368
35.0137
20.3879
21.9296
37.6802
19.9083
46.6368
27.2645
53.4658
36.1131
47.6164
61.3616
17.934
25.8482
19.4383
31.4238
27.1788
28.1192
31.9022
43.3789
27.5021
30.9801
78.1253
49.5766
55.6788
82.1137
15.9203
15.1879
11.8536
17.2785
36.2828
25.6445
23.5615
25.6643
34.6535
26.0143
45.4348
34.5092
44.7874
59.6457
12.9224
18.7226
13.6184
22.2974
31.4096
33.1666
21.0704
22.1915
16.9089
18.7874
30.1957
34.3622
26.0838
49.2263
29.7605
54.1435
30.9693
18.3839
32.4148
56.189
84.944
59.7075
1.41809
0.100798
0.0242194
91.1738
2.0129
0.000455036
24.0305
47.215
32.7617
48.7563
38.0213
48.3111
54.3413
37.5706
61.5093
41.5989
90.7487
57.3019
60.8006
73.1725
13.537
31.3981
25.0287
33.7702
23.2024
18.9009
17.5454
22.7943
18.7859
13.9576
19.4292
49.5343
34.3636
27.1783
46.455
49.1781
53.316
69.2452
69.801
68.435
77.0033
26.963
28.8505
22.3597
30.2245
36.7665
33.3803
33.6682
21.2533
35.7717
31.8206
62.8628
33.557
37.6975
20.1944
21.9702
22.407
16.0067
27.0338
57.7263
40.4074
38.856
35.4746
25.9014
32.4473
48.663
60.9626
45.4658
83.234
43.0196
45.0751
31.4684
33.8608
47.4478
43.6698
46.1216
51.6746
38.3665
31.4024
34.1102
51.2143
54.6835
41.318
19.6277
43.4476
24.4484
59.3049
35.5785
44.9358
70.2214
35.6436
18.4211
19.5539
27.6745
47.7413
49.4874
26.1005
50.1106
34.6346
53.6045
93.3418
56.0322
82.5232
140.884
38.5051
31.1043
21.4209
53.3877
33.7032
63.575
101.692
25.9375
83.6999
48.1308
68.3698
37.8818
71.9813
120.736
45.1902
117.502
107.793
105.824
64.5031
75.835
70.636
57.773
48.2962
36.4252
61.2056
75.1288
75.7373
68.5504
47.1426
48.0937
34.6713
59.3433
93.8268
76.8968
79.0302
23.2233
65.1599
42.9317
61.2117
38.7067
74.0561
111.404
32.6218
6.28026
82.9961
35.5383
26.9484
55.8733
4.81216
14.4013
17.5357
50.573
16.8855
53.125
74.87
68.4027
52.2211
46.5243
64.6788
5.03452
7.56625
6.68937
7.09551
8.00787
11.5977
12.3564
5.4891
9.37753
7.92496
10.4743
8.90827
13.9343
16.7066
12.978
9.55755
7.5582
11.7059
15.3252
21.1992
28.2878
67.2767
86.3907
60.8572
91.5779
95.6242
93.2634
0.0731006
10.4509
18.9673
11.1822
32.3545
18.9658
20.3894
34.7008
26.957
13.5616
25.3746
38.4671
21.5333
23.0125
40.1556
17.5858
22.9726
12.6814
30.2579
21.0337
39.2057
54.8744
19.2122
16.1512
30.1908
26.0852
48.7188
31.3843
43.5968
15.3231
21.8934
12.6847
23.3328
46.4001
28.4401
39.3173
7.50697
4.52416
2.96808
14.8903
4.57371
1.99327
3.59385
3.54108
9.92882
6.64261
5.49446
53.199
7.04351
6.26122
3.91542
19.2784
5.38877
2.10042
2.34626
2.3901
2.46197
2.51111
2.8265
2.96321
2.54507
2.28153
2.66371
3.03406
2.7203
3.20742
3.58682
3.31853
3.38238
2.89001
3.45934
4.00675
4.12133
4.83716
2.85117
3.74974
2.98139
4.5342
3.48289
3.64452
4.74727
2.88212
3.71498
3.02259
4.42282
3.46807
3.63628
4.66051
3.58348
4.0442
3.21611
3.94636
5.91681
4.43549
5.1745
3.66447
4.03998
3.27364
3.94898
5.9619
4.4542
5.13486
12.6564
10.0064
66.9071
87.8709
18.1647
58.3849
93.6878
4.52652
4.59719
3.85016
5.64348
4.71045
5.79722
7.15249
5.23751
4.80229
4.10393
7.12038
5.15563
6.1826
9.01267
4.21673
6.62674
4.96227
7.30491
5.20274
6.28736
9.44464
6.25331
6.14236
4.40851
4.62991
10.6845
6.56594
6.65263
8.58018
6.73259
5.41686
6.95257
9.00609
9.29741
13.0935
10.2556
5.73708
7.79261
7.71213
16.8093
12.0254
10.1804
5.98553
11.696
8.55881
7.94136
18.185
12.8171
10.6307
5.06817
8.8894
8.90546
12.2115
5.82794
7.41611
7.46264
11.2012
11.3201
7.05834
9.00612
26.2844
15.1182
14.8051
31.9288
11.7719
19.6443
8.46949
11.8412
12.7369
19.8788
9.07062
14.4373
21.4751
24.6678
14.3921
21.5057
38.1234
16.7984
25.4176
14.3701
26.9897
15.1447
22.6878
41.5368
12.1157
30.7372
29.7201
37.1861
21.1176
20.5042
17.0721
43.0821
31.7139
24.1104
54.5722
39.3926
50.1783
60.3698
26.5379
34.9187
19.6404
55.0567
36.3976
47.8019
63.4147
60.3963
55.6935
33.8023
30.8088
55.8205
19.2087
33.8821
39.3194
45.1796
25.6314
47.923
69.2039
73.0521
85.0797
85.4375
44.6711
72.5216
46.1114
25.1732
38.9274
68.0112
35.4164
85.3734
63.5019
40.0627
21.9014
35.791
64.1908
48.1149
48.2819
35.0407
37.2091
50.8012
49.1681
48.5691
73.9032
61.0188
37.267
61.6063
75.5591
69.8206
73.6373
57.7252
61.1535
42.9838
62.1042
72.1233
66.3049
71.7458
56.5611
53.8613
44.4444
58.2257
65.3746
59.9547
65.279
43.1572
34.5122
23.8438
33.9427
71.7092
57.2535
48.9458
38.2768
52.3146
49.3622
49.282
44.6057
45.7174
48.5903
54.6458
38.6014
60.7723
60.2747
73.5174
67.6581
69.8578
25.3117
65.5335
74.4435
58.6138
40.7163
45.7722
35.5533
56.8192
56.0335
47.0853
61.1626
64.6518
63.1996
64.2534
24.1946
42.4977
36.5976
68.5788
44.6941
38.5633
22.9375
41.0997
101.285
58.4201
113.078
67.372
96.8054
145.46
55.18
53.9774
52.5333
51.5478
50.4764
41.4681
47.8311
39.2129
67.065
54.9495
54.9297
47.3021
60.1288
46.885
32.9948
43.673
39.6972
40.7568
37.4505
42.0907
45.2742
42.4148
55.299
31.6068
58.1123
89.0778
80.6551
75.0589
44.3317
40.2028
39.7659
32.3341
35.964
35.3813
32.9901
30.597
95.5466
58.385
79.8629
45.4604
85.4792
114.704
112.981
79.2313
69.9708
119.447
104.351
153.935
118.178
0.0114326
0.0252998
96.9406
0.039006
0.0374955
0.0151421
1.93888e-06
35.3116
37.6945
36.7093
30.5569
29.8825
30.4854
31.1588
29.1982
77.4271
73.5338
66.6961
53.8996
46.9255
41.7468
52.6137
56.0184
48.0227
75.8968
64.9311
49.1818
55.5486
36.3076
97.5385
68.7859
89.577
65.3972
106.96
121.732
85.9419
86.4797
52.464
99.4277
100.54
84.7399
98.8633
95.3646
85.1305
95.8734
84.5289
55.2013
85.1331
95.9118
85.7065
59.1358
83.7419
87.8919
93.012
84.9626
94.3732
94.0098
93.7368
88.2615
88.6068
61.7117
87.4021
90.6599
95.2496
92.4016
87.1592
90.6639
86.5159
88.3156
61.3837
57.0389
53.921
51.823
58.3332
61.7288
58.8244
62.0685
113.369
120.331
86.792
80.5606
93.4977
94.806
83.2631
40.9017
63.4841
75.4985
57.5929
59.3681
64.2118
38.8357
64.9695
118.815
90.064
107.435
101.626
120.346
120.387
74.2654
64.5819
58.6378
72.6653
75.4584
81.4461
74.5451
131.034
115.613
74.6377
124.503
189.74
171.048
182.458
82.2485
80.4813
67.5431
80.1041
75.7105
82.1046
85.8299
83.9304
123.507
118.115
99.8454
89.2475
135.315
99.8498
77.944
81.2277
75.0858
72.5491
81.698
78.6191
84.4814
85.4305
80.753
81.1883
86.3794
72.6961
80.766
86.151
58.0559
97.1972
92.3733
88.5289
76.6295
104.86
105.115
49.3516
81.3012
79.6765
83.5375
67.8456
69.9792
67.2992
103.429
96.5046
59.4467
110.989
150.794
147.763
144.603
82.1813
79.703
72.0686
78.9292
76.2929
81.6926
83.4244
88.1688
83.2545
79.5657
79.318
81.9638
86.3291
81.9142
64.7304
63.3951
60.1299
59.8048
58.5073
55.3836
62.5109
3.55669
49.6628
3.0077
34.096
16.5467
2.98702
13.4446
3.6003
7.74251
7.6853
3.60175
13.4052
4.75894
7.28516
11.7282
3.58747
7.42993
4.7904
12.0462
2.98206
3.03036
3.00321
3.7013
3.67081
3.69469
3.72484
3.02076
3.03195
3.00419
3.71906
3.67693
3.69635
3.73043
47.1387
20.493
4.48271
4.4866
20.4464
16.5399
47.6479
7.66776
18.9607
12.2003
7.57768
19.4192
12.0024
49.6287
3.14562
3.57238
3.11939
3.97211
4.91611
4.87334
4.00918
3.57305
3.14798
3.12008
3.97133
4.91099
4.005
4.87285
3.80322
3.53247
3.77529
4.65148
4.45851
4.42877
4.68139
36.9861
23.7396
13.3729
13.2111
37.1383
23.7123
34.303
4.97249
7.65371
4.91072
5.1262
8.29964
8.23092
5.17957
7.63863
4.94131
4.90146
5.12152
8.26543
5.1607
8.22453
3.54465
3.82375
3.78419
4.66123
4.48654
4.70389
4.44032
4.14615
4.72799
4.1168
5.0744
5.95942
5.93072
5.1039
4.74051
4.17094
4.12779
5.08925
6.01969
5.13922
5.95368
1.22058
4.49235
2.72037
3.82135
1.70517
1.20747
2.75927
1.68222
3.83948
2.44108
7.23617
3.00228
2.39695
4.50079
2.97008
7.1625
1.20308
1.45084
1.433
1.7991
1.5769
1.81718
1.55928
1.23149
1.4357
1.45467
1.80436
1.59662
1.82955
1.56731
1.68456
2.05714
2.02904
2.06454
2.49077
2.08532
2.46345
1.69613
2.0237
2.03931
2.06681
2.48795
2.09116
2.46268
2.40536
2.80191
2.76016
3.31262
2.92849
3.3601
2.89298
2.41371
2.76286
2.74722
3.29907
2.91241
2.88755
3.32134
2.9587
2.98154
3.02127
3.61622
3.71786
3.66937
3.66929
2.99912
2.94773
2.97372
3.60313
3.6923
3.63262
3.66026
2.29657
2.06079
2.98881
2.70006
2.3162
2.96509
2.04186
2.30524
2.71423
2.09112
3.01584
2.33899
2.9756
2.05317
2.58963
3.3072
3.06961
3.79148
2.61188
3.28146
3.04171
2.59631
3.79858
3.33141
3.07826
2.62978
3.29136
3.04487
4.11172
3.58879
5.43526
4.45531
4.16688
3.55247
5.37015
4.09928
4.45865
3.58347
5.40445
3.55055
4.13088
5.36078
4.62145
6.52169
4.85943
7.12828
4.68963
6.41986
4.79464
4.60552
7.10722
6.45065
4.8211
4.64214
6.39831
4.78231
4.4491
6.16208
6.11362
6.71685
6.66729
10.1138
10.1778
4.4508
6.16521
6.1159
6.71341
6.66784
10.115
10.1728
5.87378
7.72216
9.8087
13.3604
9.74345
7.67207
5.91966
5.8716
13.355
9.77858
7.70747
5.90622
9.73964
7.67084
5.74624
5.53345
7.65091
7.2687
7.63433
5.50457
5.77492
5.76749
7.32062
5.58811
7.80994
5.8314
7.69212
5.52488
5.75923
7.58128
5.72319
7.77994
7.73946
11.8556
11.9522
5.73618
7.64776
5.79289
7.86748
7.77224
11.8729
11.9891
6.39006
7.90784
8.80816
11.7249
8.79797
7.88374
6.41825
6.42148
11.841
9.01798
8.04862
6.50084
8.87495
7.93617
10.3478
12.0383
10.1984
17.295
21.7433
21.4751
17.4976
10.172
12.0667
10.2481
17.2664
21.5071
17.37
21.4144
29.7747
9.64197
16.4616
9.58101
16.855
29.6417
16.9579
11.3471
20.3649
11.2728
18.1282
31.9769
31.9701
18.2397
20.3598
11.3259
11.2706
18.1268
32.0178
18.2146
32.0044
16.4649
9.64385
9.58394
16.856
29.769
16.9437
29.6522
13.2355
14.5669
14.4557
23.7409
23.5461
24.6541
24.6602
13.2692
14.5073
14.4466
23.5906
23.5178
24.6803
24.6625
11.5953
18.9466
11.5663
19.4473
33.4222
33.309
19.5492
19.1109
11.8028
11.643
19.5104
33.8255
19.7111
33.4627
17.4459
23.6912
17.3366
27.1332
31.4459
31.8808
26.939
23.6984
17.3957
17.3321
27.1981
31.6341
27.0296
31.9904
44.7117
30.4579
42.8618
48.022
43.5082
45.2478
30.5667
30.4736
48.2545
43.2215
45.0368
30.5713
43.6878
45.4069
30.1691
50.0739
50.5472
37.3635
30.35
50.4647
37.3128
30.1959
50.595
37.676
49.987
50.4377
37.3789
30.4989
37.5393
35.0569
35.2782
30.3395
30.6516
30.0356
30.8704
7.39431
13.2424
50.6139
18.4767
4.73027
13.2816
17.0321
51.154
4.72025
6.53049
4.70544
6.50102
7.36648
11.3008
11.3264
4.70935
7.40523
6.53874
6.50556
7.37224
11.3088
11.3399
24.7727
24.8114
13.2625
37.8384
21.0232
20.9798
37.9469
10.1838
31.5171
17.0354
16.9665
10.1461
18.4233
31.4267
24.8388
13.2525
24.7893
20.9895
37.9568
21.0349
38.0094
16.9712
10.192
10.1519
18.4296
31.5231
18.4791
31.4405
3.5257
9.64235
3.4579
2.29408
1.94435
3.53062
3.46372
9.64602
1.94319
2.33231
1.92922
2.31613
2.27942
2.7448
2.76208
1.92988
2.29478
2.33526
2.31735
2.27953
2.74604
2.76596
4.44349
2.79352
3.51028
2.77817
3.39081
3.40931
4.42574
2.81415
3.43404
2.79436
3.36616
4.31467
3.38723
4.2886
3.51185
2.79523
2.77848
3.39244
4.45211
3.41441
4.42908
3.43609
2.81864
2.79611
3.36861
4.32394
3.39437
4.29202
6.0936
4.28751
5.9675
9.59062
4.30947
5.92646
6.05912
4.29112
9.59492
6.10021
5.97413
4.31866
5.92986
6.06286
48.0424
34.2628
48.028
34.2348
51.5131
48.6631
48.8187
34.2623
51.76
48.4893
48.3929
34.3026
48.8445
49.0364
30.4623
29.8092
35.002
37.4075
35.1938
30.2079
30.7698
31.0549
33.0807
29.9786
30.3391
34.4295
31.351
33.4879
30.4398
34.5222
31.2286
33.2904
30.1623
31.4369
33.5923
64.7467
70.6512
69.9571
71.2092
70.415
76.478
75.8556
31.1114
30
33.0637
30.5099
34.6349
31.6506
33.5201
69.3746
69.5187
74.6312
73.9156
75.4343
68.9364
69.9507
51.7441
49.1606
45.7861
47.0875
55.062
50.1844
52.3485
50.3137
39.6661
39.2498
56.7113
57.2676
43.7125
43.6345
144.182
149.28
93.7403
135.75
170.063
162.709
174.288
126.536
144.714
85.474
134.4
168.751
157.692
160.141
63.7424
101.158
72.3342
87.8925
62.7133
101.06
70.215
101.223
101.115
70.4113
116.72
132.418
124.652
133.02
32.2251
36.3293
38.2697
36.3771
35.1513
33.4057
35.2538
87.2864
98.393
95.3757
84.4004
89.6327
84.7152
99.4435
125.722
134.583
108.587
134.896
140.995
135.762
146.285
134.607
142.613
120.051
131.578
142.502
141.42
132.332
70.4391
74.5348
76.6156
69.3437
69.8173
74.8993
74.2115
64.3641
69.3947
72.6985
66.8052
64.1402
67.3935
70.0685
177.504
127.53
159.523
176.289
169.614
126.838
134.121
98.4472
98.8109
99.7192
97.4059
63.5875
98.4635
98.8397
97.2633
94.8743
96.2474
95.3048
39.0685
97.1903
97.5036
76.042
73.817
69.4746
69.7578
68.5362
68.6394
74.4951
96.4582
99.286
98.2229
97.7608
95.7716
97.9615
42.3086
96.5424
102.079
92.475
113.749
120.547
121.668
112.96
88.8719
93.761
23.4982
88.6644
92.8376
90.1168
94.7476
92.039
87.8975
86.3503
92.7833
5.88188
90.28
88.9593
94.6745
93.3911
14.0266
90.3404
90.3632
91.6286
90.2884
169.801
173.796
170.766
182.417
176.205
169.039
181.351
143.889
103.485
105.961
156.099
158.313
116.01
67.437
147.293
121.853
112.082
158.283
148.266
110.474
78.4605
57.4312
64.5073
62.9332
60.6581
57.5984
63.5388
8.82663
75.4998
64.8818
65.4393
48.9167
11.6494
48.9628
54.664
40.0225
42.0822
38.9133
43.1698
10.676
44.245
46.2754
107.522
106.704
109.451
119.754
67.7148
116.294
118.188
90.9513
89.0308
87.4771
85.9855
7.64833
90.3016
89.2234
121.421
66.1433
87.9937
134.801
134.516
98.758
4.30849
147.137
150.058
149.967
161.292
143.98
155.157
155.493
91.5896
91.4446
84.6994
88.1701
0.618822
19.9729
51.4277
32.4453
29.3831
33.9981
33.4314
0.247765
0.414173
29.1387
7.84309
32.7701
44.7818
0.000177313
55.4387
0.000252198
2.34577e-10
0.700807
2.42171e-05
4.80837e-11
46.9158
0.00189445
6.58621e-10
2.22045e-16
51.2233
0.0791767
1.06867e-07
8.45371e-15
2.22045e-16
40.9496
0.0075022
1.01407e-06
1.32077e-13
2.22045e-16
2.22045e-16
0.000157283
3.01347e-08
1.01279e-13
2.22045e-16
2.22045e-16
2.22045e-16
1.97044e-10
1.31054e-15
2.22045e-16
2.22045e-16
2.22045e-16
2.22045e-16
2.22045e-16
2.22045e-16
2.22045e-16
2.22045e-16
2.22045e-16
2.22045e-16
2.22045e-16
2.22045e-16
2.22045e-16
2.22045e-16
2.22045e-16
2.22045e-16
43.5684
10.9109
20.0012
11.2663
41.9654
20.6534
44.5973
7.71599
37.3676
40.778
32.8389
39.6557
47.4196
8.23361
47.1027
27.5486
50.572
30.0333
50.637
51.6849
30.1365
41.062
46.9497
1.46788
49.3156
46.8735
51.1457
1.56316
26.2297
59.0588
50.2021
34.291
56.2228
59.4354
1.15416
11.5531
10.9163
11.5569
20.2842
19.0884
19.1103
20.2631
11.0439
11.9351
11.6932
20.5675
19.8582
21.0637
19.3863
13.9379
20.0062
13.9408
24.9379
35.2272
35.405
24.9037
20.2348
14.4088
14.1083
25.259
36.3073
25.8192
35.7826
30.041
45.9503
29.9156
46.4397
47.6115
51.8199
50.839
29.9256
46.2533
47.4088
46.5922
47.7668
52.0898
51.3932
0.00858886
32.0614
35.9605
35.9631
0.745647
35.418
0.00947432
41.1838
47.3177
47.8651
45.4285
45.8733
48.5309
48.0985
40.6936
44.9786
46.837
47.6424
45.6761
48.3284
47.6175
27.6991
29.2525
27.797
29.0852
30.5779
29.2539
30.7819
39.8861
36.4636
32.7223
32.9545
40.5558
36.9972
41.3735
33.028
40.2425
40.7346
36.7453
37.1353
41.539
41.1523
31.3871
29.9584
28.3339
31.1005
33.2234
29.9048
31.6298
59.1928
33.4327
53.2449
33.4381
53.5533
50.7936
60.0408
33.7429
53.9716
53.8324
51.2398
51.1431
60.3328
59.9526
31.0358
33.6845
31.2061
34.8757
32.5162
32.7849
35.2133
40.8398
40.9072
33.6015
33.9392
41.4595
41.5176
33.0747
0.0285437
0.313134
46.9038
45.8422
7.30847
50.4401
0.745935
34.3447
41.8566
33.9432
42.0021
34.752
41.9023
33.4957
1.25647e-05
9.94669e-11
2.22045e-16
38.6768
0.000751866
9.60905e-12
2.22045e-16
29.1342
33.6485
1.72962e-05
1.49065e-10
2.22045e-16
5.05148e-05
6.57558e-10
2.22045e-16
7.60103e-07
8.02858e-13
2.22045e-16
2.22045e-16
0.133432
4.70873e-08
1.08023e-15
2.22045e-16
14.2761
7.87709e-07
1.63796e-09
0.689962
1.07545e-08
5.50679e-14
1.08981e-07
5.86744e-10
2.22045e-16
60.027
2.17747e-05
7.03867e-13
2.22045e-16
75.0957
7.61512e-08
4.76211e-12
2.22045e-16
2.22045e-16
71.6784
0.00935285
2.4265e-10
2.22045e-16
2.22045e-16
2.22045e-16
6.98876e-12
2.22045e-16
2.22045e-16
2.22045e-16
2.22045e-16
2.22045e-16
2.22045e-16
2.22045e-16
2.22045e-16
2.22045e-16
2.22045e-16
2.22045e-16
2.22045e-16
2.22045e-16
2.22045e-16
2.22045e-16
2.22045e-16
2.22045e-16
2.22045e-16
2.22045e-16
46.4799
0.00750304
2.44194e-05
61.5671
3.37555e-05
2.30019e-11
0.000293703
2.87043e-06
2.78501e-12
40.2386
0.000483351
9.05263e-11
2.22045e-16
55.4322
0.0283028
8.15331e-09
2.22045e-16
2.22045e-16
52.1476
0.00302466
1.97824e-07
1.41309e-14
2.22045e-16
2.22045e-16
0.00011388
6.87675e-09
1.13532e-14
2.22045e-16
2.22045e-16
2.22045e-16
3.24493e-11
2.22045e-16
2.22045e-16
2.22045e-16
2.22045e-16
2.22045e-16
2.22045e-16
2.22045e-16
2.22045e-16
2.22045e-16
2.22045e-16
2.22045e-16
2.22045e-16
2.22045e-16
2.22045e-16
2.22045e-16
2.22045e-16
2.22045e-16
36.5172
1.05631
1.9703e-06
2.83165e-12
2.22045e-16
2.64687e-06
5.53178e-12
2.22045e-16
2.22045e-16
2.22045e-16
2.22045e-16
2.22045e-16
2.22045e-16
2.22045e-16
2.22045e-16
2.22045e-16
2.22045e-16
2.22045e-16
2.22045e-16
2.22045e-16
2.22045e-16
2.22045e-16
2.22045e-16
2.22045e-16
2.22045e-16
2.22045e-16
2.22045e-16
2.22045e-16
2.22045e-16
9.38e-12
2.22045e-16
2.22045e-16
2.22045e-16
2.22045e-16
2.22045e-16
2.22045e-16
6.21816e-05
1.33174e-09
3.37382e-16
2.22045e-16
2.22045e-16
2.22045e-16
2.22045e-16
73.9387
0.012351
1.55325e-09
1.11783e-15
2.22045e-16
2.22045e-16
2.22045e-16
88.1767
6.70348
7.39069e-09
1.70313e-15
2.22045e-16
2.22045e-16
86.5554
8.59524
6.05536e-09
8.31262e-16
2.22045e-16
85.3045
0.00608789
2.27552e-09
2.22045e-16
2.22045e-16
2.22045e-16
2.22045e-16
2.22045e-16
2.22045e-16
2.22045e-16
2.22045e-16
2.22045e-16
2.22045e-16
2.22045e-16
2.22045e-16
2.22045e-16
2.22045e-16
2.22045e-16
2.22045e-16
2.22045e-16
2.22045e-16
2.22045e-16
2.22045e-16
2.22045e-16
2.22045e-16
2.48859e-16
2.22045e-16
2.22045e-16
2.22045e-16
2.22045e-16
2.22045e-16
2.22045e-16
2.271e-08
8.77433e-13
2.22045e-16
2.22045e-16
2.22045e-16
2.22045e-16
2.22045e-16
33.292
2.61e-05
1.90609e-10
2.22045e-16
2.22045e-16
2.22045e-16
2.22045e-16
119.359
0.00159429
2.02874e-11
2.22045e-16
2.22045e-16
2.22045e-16
195.003
0.00107246
1.73347e-10
2.22045e-16
2.22045e-16
111.4
7.56216e-08
3.66007e-15
2.22045e-16
2.22045e-16
2.22045e-16
2.22045e-16
2.22045e-16
2.22045e-16
2.22045e-16
2.22045e-16
2.22045e-16
2.22045e-16
2.22045e-16
2.22045e-16
2.22045e-16
2.22045e-16
2.22045e-16
2.22045e-16
2.22045e-16
2.22045e-16
2.22045e-16
2.22045e-16
2.22045e-16
2.22045e-16
2.22045e-16
2.22045e-16
2.22045e-16
2.22045e-16
2.22045e-16
2.22045e-16
2.22045e-16
3.19279e-13
2.22045e-16
2.22045e-16
2.22045e-16
2.22045e-16
2.22045e-16
2.22045e-16
9.89269e-07
6.47805e-11
2.41843e-16
2.22045e-16
2.22045e-16
2.22045e-16
2.22045e-16
0.000677173
1.23273e-09
2.49415e-16
2.22045e-16
2.22045e-16
2.22045e-16
1.28087
3.96959e-08
2.22045e-16
2.22045e-16
2.22045e-16
0.000259639
3.05609e-11
2.22045e-16
2.22045e-16
2.22045e-16
2.22045e-16
2.22045e-16
2.22045e-16
2.22045e-16
2.22045e-16
2.22045e-16
2.22045e-16
2.22045e-16
2.22045e-16
2.22045e-16
2.22045e-16
2.22045e-16
2.22045e-16
2.22045e-16
2.22045e-16
2.22045e-16
2.22045e-16
2.22045e-16
2.22045e-16
2.22045e-16
2.22045e-16
2.22045e-16
2.22045e-16
2.22045e-16
2.22045e-16
2.22045e-16
2.22045e-16
2.22045e-16
2.22045e-16
2.22045e-16
2.22045e-16
2.22045e-16
2.22045e-16
2.22045e-16
5.9793e-08
1.07001e-14
2.22045e-16
2.22045e-16
2.22045e-16
2.22045e-16
2.22045e-16
0.0122205
0.000180391
1.786e-14
2.22045e-16
2.22045e-16
2.22045e-16
2.22045e-16
26.398
2.88378e-07
2.58354e-14
2.22045e-16
2.22045e-16
2.22045e-16
22.3865
9.97258e-06
1.80507e-14
2.22045e-16
2.22045e-16
2.22045e-16
2.22045e-16
2.22045e-16
2.22045e-16
2.22045e-16
2.22045e-16
2.22045e-16
2.22045e-16
2.22045e-16
2.22045e-16
2.22045e-16
2.22045e-16
2.22045e-16
2.22045e-16
2.22045e-16
2.22045e-16
2.22045e-16
2.22045e-16
2.22045e-16
2.22045e-16
2.22045e-16
2.22045e-16
2.22045e-16
2.22045e-16
2.22045e-16
2.22045e-16
2.22045e-16
2.22045e-16
2.22045e-16
2.22045e-16
2.22045e-16
2.22045e-16
2.22045e-16
2.22045e-16
2.22045e-16
7.86018e-15
2.22045e-16
2.22045e-16
2.22045e-16
2.22045e-16
2.22045e-16
2.22045e-16
1.35808e-08
1.78622e-13
2.22045e-16
2.22045e-16
2.22045e-16
2.22045e-16
2.22045e-16
0.161927
1.54007e-06
2.7688e-13
2.22045e-16
2.22045e-16
2.22045e-16
2.22045e-16
1.27344e-06
6.32161e-14
2.22045e-16
2.22045e-16
2.22045e-16
2.22045e-16
2.22045e-16
2.22045e-16
2.22045e-16
2.22045e-16
2.22045e-16
2.22045e-16
2.22045e-16
2.22045e-16
2.22045e-16
2.22045e-16
2.22045e-16
2.22045e-16
2.22045e-16
2.22045e-16
2.22045e-16
2.22045e-16
2.22045e-16
2.22045e-16
2.22045e-16
2.22045e-16
2.22045e-16
2.22045e-16
2.22045e-16
2.22045e-16
2.22045e-16
2.22045e-16
2.22045e-16
2.22045e-16
2.22045e-16
2.22045e-16
2.22045e-16
2.22045e-16
2.22045e-16
2.22045e-16
2.22045e-16
2.22045e-16
2.22045e-16
2.22045e-16
2.22045e-16
2.22045e-16
2.22045e-16
1.44594e-14
2.22045e-16
2.22045e-16
2.22045e-16
2.22045e-16
2.22045e-16
2.22045e-16
7.73122e-08
1.55041e-13
2.22045e-16
2.22045e-16
2.22045e-16
2.22045e-16
2.22045e-16
71.868
0.0243633
2.09677e-08
4.08531e-14
2.22045e-16
2.22045e-16
2.22045e-16
2.22045e-16
2.22045e-16
2.22045e-16
2.22045e-16
2.22045e-16
2.22045e-16
2.22045e-16
2.22045e-16
2.22045e-16
2.22045e-16
2.22045e-16
2.22045e-16
2.22045e-16
2.22045e-16
2.22045e-16
2.22045e-16
2.22045e-16
2.22045e-16
2.22045e-16
2.22045e-16
2.22045e-16
2.22045e-16
2.22045e-16
2.22045e-16
2.22045e-16
2.22045e-16
2.22045e-16
2.22045e-16
2.22045e-16
2.22045e-16
2.22045e-16
2.22045e-16
2.22045e-16
2.22045e-16
2.22045e-16
2.22045e-16
2.22045e-16
2.22045e-16
2.22045e-16
2.22045e-16
2.22045e-16
2.22045e-16
2.22045e-16
2.22045e-16
2.22045e-16
2.22045e-16
2.22045e-16
2.22045e-16
2.22045e-16
2.22045e-16
5.97179e-15
2.22045e-16
2.22045e-16
2.22045e-16
2.22045e-16
2.22045e-16
2.22045e-16
9.58476e-09
2.39614e-10
1.28906e-14
2.22045e-16
2.22045e-16
2.22045e-16
2.22045e-16
2.22045e-16
2.22045e-16
2.22045e-16
2.22045e-16
2.22045e-16
2.22045e-16
2.22045e-16
2.22045e-16
2.22045e-16
2.22045e-16
2.22045e-16
2.22045e-16
2.22045e-16
2.22045e-16
2.22045e-16
2.22045e-16
2.22045e-16
2.22045e-16
2.22045e-16
2.22045e-16
2.22045e-16
2.22045e-16
2.22045e-16
2.22045e-16
2.22045e-16