/*--------------------------------*- C++ -*----------------------------------*\
  =========                 |
  \\      /  F ield         | OpenFOAM: The Open Source CFD Toolbox
   \\    /   O peration     | Website:  https://openfoam.org
    \\  /    A nd           | Version:  9
     \\/     M anipulation  |
\*---------------------------------------------------------------------------*/
FoamFile
{
    format      ascii;
    class       volVectorField;
    location    "0.00155";
    object      U;
}
// * * * * * * * * * * * * * * * * * * * * * * * * * * * * * * * * * * * * * //

dimensions      [0 1 -1 0 0 0 0];

internalField   nonuniform List<vector> 
12683
(
(691.121 -172.525 20.7473)
(470.192 -196.529 175.376)
(422.315 -219.656 100.09)
(290.756 -124.413 140.095)
(421.99 -210.177 224.491)
(489.322 -158.812 219.505)
(18.4015 -7.96575 7.01793)
(759.015 -183.253 36.0208)
(612.944 -149.81 281.501)
(381.395 -116.419 241.074)
(4.9063 -1.02741 2.00501)
(404.12 -124.089 291.946)
(378.217 -651.177 33.3992)
(628.626 -418.711 33.4751)
(276.807 -494.908 240.694)
(555.226 -362.778 268.877)
(0.186245 -0.521601 0.298501)
(167.115 -130.426 98.2956)
(0.00249295 -0.00172152 0.00175615)
(611.535 -298.322 22.8903)
(332.857 -155.822 128.769)
(433.109 -246.726 109.972)
(149.885 -69.3501 70.0798)
(451.273 -244.004 231.698)
(120.442 -59.896 67.2159)
(4.4474 -1.80471 1.50334)
(652.184 -232.687 19.6378)
(563.541 -224.737 52.28)
(576.065 -193.456 50.2758)
(578.723 -262.379 170.664)
(656.532 -288.474 35.2542)
(716.539 -207.423 29.1834)
(591.027 -186.248 123.277)
(383.429 -75.5701 253.711)
(413.239 -125.617 197.177)
(553.178 -154.216 248.034)
(414.657 -120.156 172.748)
(564.183 -66.9776 247.545)
(401.032 -55.6538 199.585)
(480.802 -58.9461 203.041)
(398.643 -202.455 205.409)
(409.625 -170.3 97.4107)
(372.75 -152.11 214.098)
(570.089 -256.875 214.3)
(538.835 -245.46 301.087)
(549.909 -176.104 158.262)
(569.215 -178.804 275.517)
(390.904 -157.722 227.915)
(458.449 -213.008 228.22)
(74.6204 -37.0721 30.4977)
(454.476 -239.867 206.208)
(425.505 -151.583 198.362)
(520.777 -171.562 239.735)
(361.608 -125.174 150.655)
(672.362 -201.041 20.2279)
(643.748 -200.02 7.24214)
(659.629 -170.066 1.74927)
(704.126 -187.685 20.6808)
(679.906 -187.346 11.4005)
(663.731 -218.109 17.5152)
(685.077 -217.742 22.7403)
(683.188 -169.115 240.93)
(731.167 -179.161 30.7344)
(691.749 -145.541 109.588)
(764.385 -90.4111 27.8239)
(782.923 -86.7444 36.6873)
(642.465 -78.2607 125.348)
(722.33 -78.2966 245.873)
(544.05 -288.524 62.8818)
(583.26 -288.09 186.014)
(639.438 -314.418 36.4498)
(624.504 -389.704 35.2564)
(612.068 -377.85 223.552)
(565.646 -379.88 31.1139)
(493.291 -343.306 147.259)
(626.878 -232.427 11.9801)
(630.979 -265.912 20.8048)
(609.616 -266.445 16.2093)
(645.747 -250.353 23.6668)
(644.717 -277.423 26.1287)
(625.619 -281.968 31.4349)
(664.709 -248.289 25.0558)
(589.852 -163.997 48.3207)
(478.01 -183.008 68.1091)
(484.953 -157.323 70.4891)
(523.397 -171.346 72.953)
(617.008 -181.599 54.428)
(604.019 -210.922 58.9826)
(517.745 -197.243 76.6436)
(383.95 -54.2842 257.758)
(391.731 -54.7248 233.191)
(392.695 -76.7554 229.605)
(428.474 -58.6923 245.395)
(430.18 -81.6729 242.46)
(439.01 -58.913 220.4)
(441.917 -82.521 217.959)
(381.645 -96.3926 247.89)
(393.662 -120.105 217.036)
(392.435 -98.6522 223.814)
(435.175 -127.388 233.681)
(431.607 -104.577 238.164)
(444.85 -106.668 214.473)
(450.589 -131.657 211.489)
(434.806 -130.412 219.559)
(312.624 -92.3082 149.71)
(4.17046 -1.01324 2.23054)
(412.529 -56.5913 213.191)
(423.304 -51.622 200.846)
(439.244 -58.1158 322.922)
(22.9565 -2.71177 13.587)
(642.033 -269.526 29.2722)
(625.854 -271.652 202.348)
(665.711 -291.69 36.8997)
(740.689 -213.897 35.3602)
(655.956 -191.828 234.877)
(713.31 -207.935 32.8374)
(665.61 -201.653 129.174)
(699.868 -210.282 49.5293)
(713.823 -201.234 25.9645)
(696.786 -202.373 27.1115)
(676.607 -232.499 34.653)
(696.286 -234.613 30.5029)
(679.145 -238.212 58.9563)
(694.879 -230.22 27.3463)
(383.847 -160.198 156.458)
(408.553 -147.761 102.138)
(378.748 -139.47 165.886)
(455.822 -159.85 101.471)
(429.566 -151.715 160.312)
(457.701 -183.527 104.866)
(435.25 -174.934 159.577)
(418.842 -233.046 211.038)
(585.094 -285.673 238.521)
(511.055 -250.352 299.72)
(587.72 -361.656 282.274)
(475.843 -330.001 178.82)
(512.18 -344.148 306.226)
(204.976 -126.106 135.747)
(552.853 -256.806 55.5488)
(474.399 -237.899 71.7967)
(474.471 -209.971 67.8774)
(591.317 -241.135 64.9913)
(512.819 -250.416 96.2144)
(514.307 -223.835 83.8965)
(578.525 -270.767 74.462)
(377.762 -151.916 231.9)
(366.392 -131.708 222.765)
(371.535 -131.729 238.161)
(427.449 -145.775 237.929)
(420.687 -145.461 219.342)
(430.047 -169.197 217.264)
(439.449 -170.359 238.136)
(598.148 -127.76 183.728)
(41.4963 -9.80944 22.6342)
(589.243 -127.917 287.808)
(595.897 -70.5269 234.044)
(666.83 -71.823 298.971)
(601.526 -68.8928 284.601)
(148.563 -16.4987 80.6734)
(592.75 -300.835 22.3863)
(595.743 -327.74 24.0358)
(575.775 -333.24 33.2249)
(626.211 -304.397 27.034)
(605.103 -311.915 43.4944)
(588.945 -338.409 59.2114)
(607.861 -331.004 29.8089)
(394.238 -54.9488 206.87)
(404.132 -78.1687 199.028)
(396.437 -77.1733 205.025)
(462.229 -60.1458 208.911)
(446.826 -59.1274 206.938)
(451.834 -83.4778 206.023)
(467.972 -85.632 209.739)
(654.512 -262.064 44.038)
(653.353 -283.435 30.2849)
(644.152 -290.334 82.5702)
(675.983 -261.528 32.9301)
(659.694 -264.856 70.3504)
(633.403 -289.455 55.9706)
(674.974 -257.637 28.2494)
(656.218 -200.793 96.9588)
(561.238 -180.926 90.8189)
(642.85 -194.472 70.2871)
(627.229 -223.278 78.843)
(583.614 -212.101 137.205)
(639.692 -227.807 108.055)
(554.604 -207.051 100.765)
(384.299 -136.359 234.081)
(398.035 -141.778 210.37)
(406.728 -165.426 205.383)
(442.962 -151.209 230.135)
(462.182 -158.689 210.371)
(457.009 -177.594 229.377)
(477.517 -188.378 210.784)
(401.916 -122.755 198.483)
(407.601 -101.518 197.889)
(398.28 -99.8148 201.783)
(458.467 -109.165 204.573)
(479.703 -140.945 211.534)
(468.181 -136.607 203.44)
(474.237 -112.698 210.609)
(752.343 -91.4903 47.7071)
(757.764 -120.392 28.1925)
(744.832 -122.987 52.1685)
(744.004 -121.468 81.5829)
(755.819 -88.2647 32.8743)
(749.133 -90.1295 77.1438)
(751.012 -118.717 33.4232)
(414.263 -194.195 96.3553)
(403.01 -209.104 150.262)
(391.898 -183.36 150.383)
(469.671 -233.962 124.791)
(462.351 -208.278 112.208)
(444.143 -199.873 163.421)
(456.988 -226.937 173.322)
(434.952 -231.719 222.96)
(126.304 -69.478 88.6219)
(0.0401078 -0.0136478 0.0192263)
(372.301 -135.257 266.578)
(447.261 -159.073 225.437)
(237.466 -84.9665 115.085)
(1.66373 -0.448577 0.861975)
(545.778 -121.893 237.291)
(197.659 -59.6651 82.7696)
(0.0646935 -0.0128167 0.0172834)
(568.032 -66.0559 245.191)
(24.4004 -2.41849 10.2467)
(351.227 -42.3824 144.415)
(0.394219 -0.0350497 0.110062)
(592.63 -392.153 223.305)
(551.005 -403.059 34.4697)
(500.384 -368.226 169.542)
(543.851 -468.742 34.3367)
(468.941 -364.339 20.8575)
(543.287 -466.02 213.269)
(257.54 -201.859 104.54)
(380.331 -192.377 203.083)
(19.5343 -8.95304 7.02575)
(439.767 -255.225 200.595)
(423.653 -292.52 209.059)
(208.989 -152.957 96.0393)
(28.6202 -15.1203 17.8557)
(0.101204 -0.0462226 0.0278596)
(488.556 -62.732 239.923)
(563.869 -96.0274 247.883)
(493.808 -88.2883 238.979)
(548.465 -66.0665 218.184)
(507.348 -63.6022 220.21)
(512.149 -90.7676 219.444)
(542.667 -95.1761 215.896)
(477.106 -265.801 82.2532)
(481.763 -292.772 99.7529)
(536.398 -318.253 76.2234)
(513.407 -276.151 113.828)
(566.998 -298.414 88.5565)
(557.979 -322.96 106.286)
(515.537 -300.777 135.522)
(264.283 -376.623 15.7949)
(363.912 -600.764 36.8025)
(442.959 -590.679 34.8243)
(329.201 -578.257 221.026)
(87.3473 -129.887 51.4675)
(334.741 -548.275 189.57)
(429.924 -578.256 224.777)
(611.36 -251.083 89.7869)
(545.634 -257.839 131.668)
(614.949 -278.022 133.178)
(578.775 -237.325 153.58)
(625.072 -253.424 120.925)
(549.11 -232.775 114.351)
(596.79 -276.941 103.611)
(383.703 -175.365 207.457)
(406.412 -202.469 230.529)
(388.642 -175.112 229.319)
(444.608 -196.074 219.987)
(485.914 -231.753 252.887)
(458.718 -198.821 242.363)
(465.192 -226.217 230.675)
(717.194 -182.445 67.1145)
(746.865 -150.13 29.2065)
(732.716 -153.102 58.877)
(735.333 -151.628 87.0448)
(729.065 -179.214 35.4305)
(724.626 -181.297 92.2505)
(741.519 -148.959 34.4697)
(627.674 -271.454 272.261)
(449.368 -197.609 263.336)
(0.781781 -0.217695 0.383597)
(572.995 -165.023 264.43)
(602.94 -183.772 210.259)
(19.4671 -4.94054 10.4152)
(600.353 -185.645 312.246)
(510.212 -142.354 237.944)
(560.394 -125.34 248.099)
(500.566 -114.716 237.999)
(516.432 -118.955 217.593)
(518.854 -149.737 205.613)
(519.183 -147.855 215.65)
(532.572 -123.5 211.64)
(503.502 -168.942 120.214)
(546.757 -174.22 216.888)
(483.56 -162.882 175.775)
(553.448 -202.479 174.141)
(505.242 -193.903 130.853)
(491.388 -188.586 183.973)
(558.266 -202.276 233.768)
(710.978 -86.2482 95.8532)
(637.595 -106.839 132.068)
(703.187 -116.495 101.548)
(710.968 -115.488 136.381)
(666.613 -77.5929 171.564)
(715.415 -85.0122 131.29)
(664.815 -106.854 177.89)
(581.559 -354.803 26.6069)
(552.301 -384.39 69.4928)
(561.604 -361.367 50.1484)
(578.231 -361.3 76.0977)
(575.251 -381.165 35.5476)
(571.777 -383.029 88.0555)
(590.999 -357.343 33.316)
(734.841 -178.682 27.9856)
(549.217 -149.982 145.744)
(599.68 -159.886 112.091)
(722.434 -123.975 23.2428)
(603.807 -137.327 46.3493)
(743.992 -82.2449 30.0497)
(767.714 -90.0884 25.2141)
(639.896 -72.152 39.2463)
(621.832 -78.3002 91.4937)
(411.347 -126.156 109.249)
(569.333 -152.794 271.362)
(363.37 -113.071 231.641)
(425.09 -83.568 125.659)
(554.614 -71.4695 124.989)
(367.025 -74.5793 246.044)
(553.494 -66.6473 262.046)
(733.341 -102.139 26.0163)
(709.976 -78.6154 -11.4458)
(699.527 -98.8318 -10.483)
(753.895 -84.2476 19.6643)
(727.42 -83.464 -6.57881)
(718.213 -107.894 -4.28594)
(744.739 -108.619 18.4017)
(707.422 -146.569 21.8209)
(674.204 -143.235 -3.15124)
(687.855 -120.263 -7.74287)
(707.892 -133.104 -0.142285)
(720.672 -159.593 19.2578)
(694.68 -159.085 5.40551)
(734.804 -133.783 18.4714)
(629.534 -92.6575 40.7178)
(515.879 -86.899 80.0256)
(526.349 -65.3055 84.2814)
(558.258 -73.4412 70.4838)
(665.007 -79.4146 40.7995)
(655.081 -104.003 43.0303)
(549.903 -98.0508 69.4239)
(382.45 -78.1825 195.488)
(432.597 -62.0669 133.367)
(386.291 -57.516 203.856)
(470.105 -67.1617 108.007)
(429.693 -62.2469 179.259)
(465.583 -90.9412 104.872)
(428.174 -85.0745 174.511)
(616.928 -113.764 43.4292)
(494.556 -132.837 73.5539)
(504.724 -109.208 76.7894)
(643.085 -128.519 46.3705)
(531.437 -146.45 71.2152)
(630.401 -154.212 50.4232)
(540.226 -122.057 69.9066)
(372.865 -74.5083 259.625)
(369.662 -54.3865 251.736)
(374.563 -53.9548 264.207)
(417.486 -58.291 250.2)
(413.656 -58.836 236.131)
(413.437 -81.0185 233.005)
(418.057 -80.5263 247.122)
(764.311 -87.5499 20.2071)
(755.732 -90.0722 24.5579)
(745.858 -87.274 5.95525)
(737.453 -115.399 8.94784)
(760.352 -119.863 25.6614)
(747.698 -120.687 28.1035)
(756.271 -115.447 20.0456)
(417.259 -104.986 117.758)
(377.037 -119.696 176.247)
(378.692 -99.2536 186.703)
(456.884 -136.864 101.025)
(460.33 -114.059 102.44)
(426.513 -107.561 169.396)
(426.768 -129.564 164.343)
(727.133 -143.544 14.1357)
(719.136 -180.894 41.322)
(731.278 -171.816 23.8947)
(750.076 -149.597 26.8557)
(713.346 -172.366 20.5273)
(735.426 -150.777 33.862)
(746.112 -143.535 21.5535)
(369.226 -113.233 246.186)
(363.996 -94.2479 239.191)
(370.125 -94.4177 253.548)
(412.842 -102.739 228.845)
(420.811 -123.776 239.731)
(414.91 -123.926 223.581)
(418.149 -102.359 243.1)
(707.969 -85.6837 68.9895)
(591.605 -76.9858 73.0242)
(689.748 -83.3254 50.551)
(681.071 -111.045 53.2767)
(616.113 -106.258 95.9884)
(699.503 -115.333 73.0742)
(585.072 -103.59 74.7703)
(669.875 -138.27 57.6542)
(672.627 -172.852 87.4597)
(569.022 -154.999 83.8427)
(608.096 -133.137 102.977)
(657.374 -166.101 63.3253)
(687.14 -144.093 79.489)
(576.836 -129.233 78.4487)
(511.914 -69.818 105.47)
(530.315 -67.8046 188.115)
(476.857 -65.1547 171.894)
(552.984 -98.0071 129.391)
(509.206 -95.1183 106.393)
(477.029 -89.6886 170.882)
(531.988 -94.0524 191.208)
(534.737 -66.324 250.296)
(472.734 -62.0125 249.02)
(465.184 -62.3737 233.378)
(467.46 -86.3676 232.365)
(558.835 -94.4679 264.034)
(539.945 -92.991 252.817)
(476.31 -86.274 248.651)
(503.703 -144.27 113.235)
(550.416 -123.968 136.246)
(505.677 -119.737 108.801)
(477.059 -113.974 170.663)
(538.97 -147.023 204.591)
(479.049 -138.178 171.926)
(534.106 -120.349 196.412)
(470.254 -110.414 231.383)
(557.527 -149.053 264.252)
(489.425 -136.349 248.582)
(564.458 -123.152 266.661)
(476.313 -134.855 231.577)
(547.265 -120.4 257.028)
(480.944 -110.924 248.144)
(402.489 -181.965 223.75)
(444.742 -223.817 206.881)
(421.363 -192.314 203.712)
(498.131 -241.14 241.555)
(478.241 -208 233.086)
(489.087 -219.292 212.014)
(487.841 -246.399 214.1)
(570.23 -261.683 25.0313)
(636.298 -302.102 215.716)
(655.678 -317.466 36.9288)
(95.9555 -52.8001 3.21984)
(10.2392 -4.20974 2.89056)
(643.557 -394.509 32.8886)
(588.773 -356.86 220.47)
(409.154 -146.594 196.009)
(442.419 -181.232 201.788)
(422.387 -172.747 195.086)
(479.209 -169.236 211.523)
(478.71 -165.857 202.648)
(483.268 -195.351 201.327)
(471.213 -194.798 208.758)
(632.723 -309.812 32.9012)
(633.852 -314.806 91.6037)
(616.364 -314.567 70.4393)
(605.021 -338.074 84.089)
(626.161 -338.757 36.6966)
(627.546 -339.017 95.5193)
(614.995 -335.952 35.2552)
(417.217 -79.6576 214.283)
(439.584 -58.5866 252.658)
(445.455 -83.422 256.312)
(478.262 -61.4509 235.796)
(479.9 -87.7774 237.165)
(475.116 -61.5044 271.767)
(470.263 -87.776 269.174)
(487.018 -160.697 234.995)
(504.371 -163.935 251.521)
(569.081 -182.137 278.455)
(502.389 -188.809 243.165)
(563.864 -208.881 286.952)
(578.966 -208.659 290.082)
(522.668 -194.459 258.764)
(678.628 -174.008 119.08)
(630.686 -134.438 141.303)
(623.879 -161.792 152.491)
(703.765 -144.977 142.327)
(660.624 -164.98 193.953)
(695.66 -174.14 147.784)
(662.038 -135.756 185.64)
(700.429 -210.961 76.4371)
(695.302 -236.627 34.905)
(685.259 -238.581 85.6399)
(715.407 -209.158 36.0531)
(713.512 -210.703 95.9205)
(704.783 -239.937 98.5767)
(702.922 -238.668 36.7038)
(417.899 -237.342 156.804)
(445.962 -274.493 127.288)
(479.343 -260.355 143.29)
(436.597 -267.695 171.165)
(474.236 -256.049 190.559)
(491.663 -287.294 166.966)
(495.159 -286.136 215.783)
(517.762 -63.4902 203.184)
(506.639 -63.4778 218.57)
(516.111 -63.9857 210.277)
(516.018 -91.7187 209.308)
(468.128 -83.5638 196.967)
(509.718 -91.082 199.592)
(501.717 -91.0138 217.108)
(487.357 -318.478 122.541)
(527.127 -366.874 116.32)
(530.437 -344.154 95.3449)
(552.952 -345.35 124.463)
(527.451 -349.636 177.52)
(552.028 -367.551 137.628)
(519.819 -324.779 158.177)
(244.384 -113.938 130.044)
(4.91855 -1.88501 1.55858)
(0.0681624 -0.0195224 0.0286575)
(0.00100505 -0.000329359 0.000281273)
(2.0719 -0.474027 0.853098)
(120.61 -43.0731 50.1344)
(0.0258392 -0.00531647 0.00720709)
(541.531 -180.159 247.055)
(499.138 -170.802 196.066)
(516.512 -176.625 214.497)
(525.551 -201.339 244.543)
(526.829 -201.517 244.06)
(506.575 -202.261 211.233)
(466.835 -182.518 182.49)
(760.738 -120.378 98.4966)
(780.372 -118.967 36.6486)
(759.02 -87.5118 35.918)
(790.257 -86.73 108.508)
(785.544 -119.919 108.764)
(762.851 -88.3791 96.7527)
(755.862 -118.475 36.1538)
(545.125 -281.922 151.893)
(609.767 -302.127 142.336)
(585.694 -300.826 119.512)
(580.022 -323.736 133.483)
(593.939 -315.759 198.362)
(608.824 -326.849 148.224)
(549.314 -306.208 171.334)
(424.133 -104.09 216.058)
(455.491 -137.568 264.628)
(451.627 -109.859 260.631)
(473.671 -142.113 236.138)
(478.854 -114.913 237.693)
(461.817 -113.208 264.85)
(449.744 -136.63 258.111)
(512.657 -120.001 207.254)
(480.531 -142.888 209.297)
(474.705 -137.724 182.406)
(447.163 -104.783 187.152)
(505.416 -148.117 204.242)
(496.276 -116.643 192.908)
(492.949 -117.996 214.211)
(516.774 -245.371 165.022)
(560.296 -229.474 193.198)
(509.268 -219.339 145.772)
(503.182 -215.639 197.997)
(587.151 -260.995 284.163)
(573.452 -231.55 256.893)
(519.417 -244.137 218.601)
(664.657 -291.702 96.6403)
(679.302 -264.938 36.2884)
(673.617 -265.475 92.8035)
(702.79 -269.587 101.263)
(695.248 -297.802 36.7336)
(703.11 -299.825 104.035)
(695.718 -267.974 37.1108)
(618.684 -188.883 165.098)
(616.312 -215.748 178.267)
(654.799 -228.477 138.323)
(662.61 -194.783 203.255)
(688.306 -203.172 152.165)
(684.918 -232.336 156.834)
(666.745 -225.203 213.817)
(546.779 -405.751 83.9884)
(540.004 -424.01 35.5518)
(543.694 -426.535 90.4364)
(563.448 -403.131 35.8633)
(567.921 -404.8 92.5463)
(569.189 -427.889 94.1107)
(560.428 -424.952 35.2564)
(756.388 -151.737 100.75)
(759.142 -184.488 109.045)
(743.34 -180.669 36.8165)
(772.601 -151.259 36.4615)
(751.134 -183.219 103.22)
(774.77 -152.59 109.164)
(749.493 -149.314 36.5803)
(492.526 -359.52 207.122)
(476.835 -361.638 322.242)
(62.6158 -37.5137 41.1192)
(502.766 -430.401 310.802)
(105.147 -78.7748 50.0545)
(247.971 -213.367 182.321)
(0.10543 -0.0590883 0.0590598)
(459.299 -236.438 198.373)
(455.648 -212.731 206.117)
(442.617 -203.388 196.331)
(477.552 -221.374 198.738)
(431.174 -221.95 188.558)
(455.458 -213.414 202.132)
(462.442 -238.753 191.734)
(598.427 -360.799 92.0621)
(618.336 -362.793 36.3339)
(634.947 -393.919 99.2455)
(589.166 -382.748 36.073)
(594.894 -384.11 94.6174)
(626.338 -364.461 97.0815)
(599.952 -360.064 36.3055)
(432.671 -235.211 238.264)
(467.204 -273.031 254.997)
(445.253 -266.816 226.638)
(513.096 -267.349 270.867)
(492.237 -258.878 250.112)
(521.901 -293.686 278.49)
(527.092 -298.501 292.952)
(598.518 -72.5649 166.66)
(598.312 -100.257 173.882)
(599.403 -98.8314 241.036)
(652.29 -74.1868 225.253)
(653.887 -103.524 233.656)
(653.762 -72.5924 301.272)
(650.954 -102.606 306.589)
(18.4528 -31.4604 12.5696)
(330.113 -547.014 238.015)
(410.172 -555.323 280.542)
(3.22452 -7.83144 4.68986)
(0.0104603 -0.0246399 0.0127393)
(297.087 -501.238 322.624)
(108.994 -150.444 106.095)
(523.407 -219.25 257.924)
(544.007 -254.862 286.646)
(575.094 -258.418 318.521)
(553.922 -230.299 295.729)
(580.785 -236.13 305.981)
(538.506 -226.233 270.828)
(545.195 -251.245 279.569)
(365.514 -596.66 93.5274)
(388.833 -585.13 36.9385)
(390.469 -588.838 96.963)
(368.337 -612.806 37.1661)
(369.917 -618.243 99.1188)
(399.126 -622.786 100.336)
(395.046 -611.889 36.2561)
(466.452 -258.608 212.737)
(479.81 -282.274 246.22)
(504.904 -270.473 254.32)
(469.766 -286.618 219.74)
(474.705 -262.72 211.1)
(498.147 -288.47 264.711)
(450.766 -266.455 202.276)
(738.721 -115.53 160.997)
(714.296 -109.927 245.555)
(765.46 -83.0413 177.084)
(711.651 -78.5529 215.719)
(758.43 -115.786 178.142)
(740.058 -84.0224 157.989)
(711.152 -109.511 220.725)
(642.925 -281.201 150.621)
(617.946 -243.025 190.354)
(647.055 -254.775 145.219)
(686.296 -262.222 162.271)
(660.838 -283.729 232.823)
(668.387 -255.322 225.433)
(685.975 -291.934 167.28)
(460.409 -302.26 151.028)
(481.859 -330.091 225.289)
(458.107 -298.734 194.201)
(524.173 -343.843 220.047)
(506.676 -314.669 193.735)
(519.106 -316.753 247.307)
(543.906 -350.366 283.244)
(599.643 -155.632 195.988)
(603.79 -127.492 251.372)
(609.625 -156.797 265.409)
(657.659 -163.499 258.573)
(655.57 -133.246 244.701)
(645.848 -132.449 312.18)
(638.316 -161.49 317.394)
(613.798 -70.3423 288.961)
(597.129 -98.8621 286.056)
(614.281 -99.9542 292.954)
(581.256 -64.3863 285.924)
(624.103 -69.1569 315.597)
(617.257 -98.7713 316.713)
(569.145 -91.9895 283.352)
(454.631 -188.906 230.785)
(452.905 -164.914 265.254)
(463.055 -166.473 231.983)
(443.549 -187.938 259.718)
(446.777 -186.012 224.21)
(432.285 -155.06 246.404)
(403.561 -165.184 226.771)
(526.896 -389.02 133.022)
(510.024 -395.102 186.209)
(528.506 -411.605 142.042)
(538.278 -376.877 191.753)
(554.009 -390.899 144.813)
(561.034 -417.277 149.574)
(556.618 -410.107 203.634)
(624.687 -299.025 286.174)
(354.408 -171.517 218.383)
(0.199484 -0.0576553 0.0950843)
(1.88737 -0.683829 0.543314)
(531.415 -314.397 252.89)
(0.0397887 -0.0129823 0.0190831)
(20.4169 -9.8759 12.5073)
(463.589 -163.646 200.408)
(440.897 -151.429 167.249)
(492.969 -173.282 199.087)
(475.984 -193.525 190.456)
(281.354 -114.772 118.588)
(385.949 -153.362 145.583)
(436.616 -176.136 186.215)
(735.462 -146.84 164.542)
(730.219 -179.252 178.634)
(704.228 -171.96 232.911)
(701.758 -140.775 243.822)
(731.382 -178.319 168.23)
(746.399 -148.157 178.802)
(708.569 -140.73 227.242)
(579.134 -346.736 142.618)
(609.897 -347.403 211.754)
(627.478 -386.167 160.8)
(571.915 -360.566 199.335)
(581.714 -371.236 148.177)
(616.536 -354.275 153.827)
(557.74 -331.873 187.128)
(458.104 -60.437 304.829)
(433.077 -82.7952 317.151)
(455.681 -86.3995 303.692)
(379.329 -48.1525 265.865)
(448.733 -58.0008 288.971)
(439.747 -82.2131 282.521)
(356.661 -66.2881 249.16)
(527.923 -272.118 188.209)
(592.403 -288.515 308.229)
(539.94 -273.698 245.224)
(600.979 -316.343 264.354)
(542.5 -299.898 212.994)
(561.364 -304.315 277.955)
(587.177 -310.688 319.854)
(351.376 -573.93 145.457)
(363.796 -559.004 201.205)
(377.024 -573.59 150.964)
(349.415 -595.913 212.146)
(358.255 -604.582 155.801)
(390.709 -616.514 161.877)
(384.153 -605.756 225.583)
(409.367 -236.232 207.066)
(8.65874 -4.40188 5.3019)
(0.0297212 -0.0116904 0.0149361)
(16.501 -10.266 7.90287)
(0.185218 -0.100759 0.10557)
(0.0553462 -0.0264644 0.0198582)
(0.00643425 -0.00300557 0.00268865)
(512.564 -247.406 253.663)
(501.872 -213.74 239.101)
(523.53 -228.423 249.866)
(490.162 -221.262 204.336)
(317.798 -156.476 131.868)
(410.938 -180.519 162.929)
(465.405 -229.955 193.538)
(482.772 -61.2892 237.718)
(402.05 -71.6976 190.696)
(475.04 -87.3326 234.416)
(309.883 -38.576 168.946)
(445.69 -55.9702 248.451)
(432.967 -78.8331 240.125)
(274.815 -50.8777 150.804)
(739.509 -214.321 108.73)
(738.363 -212.521 36.7948)
(745.91 -214.811 105.422)
(738.89 -245.745 106.956)
(716.837 -240.407 34.1306)
(713.693 -239.889 107.07)
(732.841 -243.912 36.5347)
(559.726 -95.0624 242.407)
(516.343 -60.5941 192.361)
(500.487 -86.3091 186.005)
(485.516 -54.3279 204.59)
(459.278 -76.336 195.912)
(346.144 -40.4433 125.323)
(308.035 -54.1999 112.84)
(615.343 -186.327 282.621)
(609.716 -212.251 228.371)
(616.963 -214.865 300.909)
(658.879 -193.694 273.759)
(654.702 -222.864 286.245)
(627.198 -188.038 321.629)
(612.217 -211.243 323.313)
(661.339 -318.54 98.8079)
(656.7 -344.83 36.2631)
(665.897 -347.638 101.28)
(692.166 -326.596 35.7168)
(696.679 -328.04 105.326)
(675.584 -350.203 104.625)
(675.032 -350.474 34.1931)
(612.216 -129.433 298.537)
(607.349 -158.364 305.506)
(578.364 -155.029 289.734)
(606.898 -126.835 317.795)
(517.917 -134.689 270.247)
(593.198 -152.259 318.362)
(548.805 -116.164 278.646)
(536.432 -444.335 35.1364)
(553.377 -475.695 94.8868)
(544.047 -448.128 92.7596)
(582.299 -458.031 96.4606)
(579.928 -482.542 32.3439)
(584.475 -485.527 98.3062)
(571.865 -451.653 34.3034)
(459.152 -263.568 198.572)
(412.438 -256.783 185.567)
(444.476 -276.983 192.344)
(382.728 -214.142 165.717)
(437.318 -244.378 178.385)
(380.335 -229.146 154.979)
(281.663 -174.686 123.804)
(443.182 -137.085 294.252)
(422.296 -105.525 307.544)
(450.925 -112.441 300.284)
(425.155 -103.703 271.316)
(265.411 -82.1577 185.396)
(401.009 -120.223 253.863)
(320.186 -78.7172 223.215)
(634.091 -421.094 100.504)
(588.76 -405.864 35.314)
(599.2 -409.458 96.0772)
(611.422 -440.971 98.5687)
(610.184 -431.147 31.3221)
(611.818 -431.098 98.3659)
(602.465 -435.742 33.926)
(445.138 -131.898 217.427)
(366.596 -86.2866 174.074)
(463.116 -111.62 228.241)
(411.325 -98.0131 226.817)
(158.91 -48.8504 86.7203)
(376.298 -110.861 206.969)
(224.017 -55.1999 123.403)
(708.007 -206.837 177.158)
(694.869 -202.483 237.414)
(726.025 -209.482 170.994)
(715.593 -239.612 173.195)
(618.619 -206.45 223.187)
(677.967 -228.645 173.381)
(679.551 -230.711 239.226)
(413.477 -578.819 36.165)
(448.004 -601.22 99.5616)
(416.176 -588.36 97.6869)
(430.562 -627.809 101.956)
(444.185 -608.164 32.2208)
(444.296 -610.877 100.599)
(426.572 -620.78 34.4367)
(59.5147 -43.2096 26.1808)
(4.87883 -2.38184 3.0067)
(0.0253782 -0.0144501 0.00727496)
(3.14017 -2.39181 2.14881)
(0.00925761 -0.00579943 0.00531901)
(0.0596299 -0.0463367 0.0204578)
(0.001193 -0.00078233 0.000424154)
(499.766 -313.11 280.216)
(508.967 -340.864 288.736)
(477.086 -303.021 253.195)
(541.207 -325.918 308.369)
(508.809 -328.808 319.73)
(541.376 -349.015 326.778)
(524.117 -318.11 310.92)
(450.28 -214.773 229.565)
(399.612 -209.946 230.069)
(427.165 -204.936 249.602)
(376.171 -192.386 184.224)
(422.237 -196.099 208.698)
(350.644 -162.307 196.188)
(257.175 -135.678 146.052)
(523.571 -144.123 229.772)
(431.234 -122.195 160.523)
(473.513 -107.904 175.626)
(356.233 -98.3077 161.013)
(417.297 -92.2405 181.941)
(252.499 -59.7667 93.9799)
(180.828 -53.4651 68.7606)
(647.32 -309.265 156.452)
(636.997 -331.704 226.839)
(654.331 -339.456 162.983)
(642.458 -305.392 233.178)
(674.474 -319.175 170.517)
(650.752 -337.508 169.91)
(612.866 -316.451 226.432)
(507.704 -364.334 261.09)
(511.195 -392.297 233.072)
(545.247 -376.49 246.214)
(529.546 -403.31 298.768)
(553.133 -381.64 311.982)
(560.549 -412.896 271.236)
(541.383 -398.685 317.566)
(0.00129972 -0.00274691 0.0013603)
(229.55 -383.459 235.253)
(9.19445 -15.037 10.4637)
(0.00220304 -0.00512834 0.00132485)
(0.000314221 -0.000693057 0.00017946)
(6.21352 -12.0811 4.23268)
(0.0141753 -0.0249866 0.00735098)
(448.708 -203.503 176.205)
(180.889 -92.5457 70.2954)
(305.063 -156.365 130.29)
(176.161 -82.0447 74.6596)
(298.396 -136.234 113.989)
(390.359 -177.004 165.109)
(398.067 -199.217 154.91)
(724.386 -275.088 107.555)
(631.575 -263.908 96.099)
(702.465 -299.973 34.7374)
(685.491 -260.933 32.1532)
(679.909 -258.219 103.117)
(701.41 -299.328 106.917)
(723.25 -274.182 35.8252)
(539.461 -275.256 301.245)
(563.399 -276.065 325.43)
(559.134 -281.07 303.373)
(558.878 -303.745 321.366)
(456.115 -239.613 280.65)
(542.508 -285.597 326.204)
(526.662 -288.621 311.004)
(603.602 -345.31 281.867)
(580.158 -362.6 265.013)
(561.109 -329.243 238.22)
(573.252 -334.245 307.185)
(543.168 -327.885 309.674)
(567.886 -355.917 319.342)
(570.516 -325.173 320.965)
(618.233 -410.006 164.477)
(589.222 -395.349 213.368)
(594.143 -400.64 154.024)
(601.976 -433.751 160.721)
(552.502 -385.811 210.629)
(589.352 -415.799 161.013)
(583.674 -420.507 222.111)
(525.001 -426.553 198.169)
(548.398 -470.483 153.382)
(533.254 -436.653 147.062)
(576.84 -452.332 156.637)
(547.526 -453.967 218.076)
(569.836 -473.532 161.178)
(565.997 -444.972 217.673)
(619.795 -241.823 249.968)
(602.692 -263.463 321.452)
(612.778 -241.394 314.373)
(625.027 -269.988 290.926)
(643.136 -249.228 292.02)
(593.544 -229.472 321.116)
(565.363 -239.545 311.347)
(7.11527 -7.116 5.72032)
(57.7867 -48.6871 44.6181)
(30.3665 -30.438 16.1178)
(328.546 -312.021 221.601)
(30.456 -22.3737 16.1504)
(0.338777 -0.218415 0.20821)
(2.43833 -2.25119 1.0661)
(0.00325235 -0.00301067 0.00212926)
(367.601 -124.892 139.324)
(436.237 -162.272 203.591)
(278.663 -110.694 109.309)
(276.674 -91.1105 131.237)
(104.747 -35.8428 39.6974)
(180.13 -67.9624 89.5163)
(45.6034 -16.4526 16.8029)
(668.021 -166.052 297.022)
(638.245 -127.516 291.331)
(679.732 -136.737 295.985)
(625.015 -126.788 323.726)
(477.175 -117.327 259.849)
(608.201 -151.167 320.809)
(525.126 -104.44 282.343)
(379.251 -649.851 36.0264)
(377.213 -650.784 104.532)
(383.245 -658.292 104.21)
(406.851 -646.066 103.915)
(380.183 -610.271 29.6644)
(375.222 -605.959 96.7058)
(406.489 -642.383 34.0394)
(655.489 -100.827 296.309)
(693.127 -75.3876 289.819)
(688.179 -106.191 293.187)
(576.226 -60.5951 305.093)
(645.037 -70.0454 326.119)
(637.046 -99.3361 325.214)
(556.449 -84.6339 296.542)
(431.398 -158.94 284.405)
(317.638 -133.984 225.912)
(411.997 -173.64 268.672)
(193.872 -72.4834 134.497)
(360.263 -128.174 226.604)
(292.77 -122.135 185.091)
(110.653 -47.7247 75.5355)
(445.023 -52.6971 164.068)
(316.795 -56.9546 131.107)
(420.127 -73.4562 154.756)
(99.9525 -12.5317 40.5442)
(215.48 -26.3655 78.9981)
(175.904 -32.2918 64.7157)
(72.6913 -13.1766 28.7903)
(481.067 -328.087 278.786)
(489.926 -312.716 265.327)
(456.483 -299.125 219.153)
(430.8 -279.138 256.632)
(480.491 -294.977 268.616)
(390.016 -245.545 182.794)
(265.547 -180.631 136.332)
(441.246 -593.913 162.012)
(399.411 -577.358 213.537)
(405.761 -581.831 155.384)
(420.671 -614.665 166.884)
(401.638 -555.814 217.886)
(429.425 -589.589 164.855)
(403.338 -591.041 228.547)
(564.423 -178.528 290.874)
(543.066 -195.516 290.529)
(589.622 -209.314 318.362)
(471.531 -144.789 255.288)
(573.805 -173.07 317.492)
(545.362 -187.514 311.102)
(403.786 -142.913 228.868)
(658.565 -373.96 34.7945)
(645.481 -394.401 101.559)
(664.86 -376.437 102.68)
(643.204 -361.641 100.623)
(598.246 -358.661 27.7112)
(592.18 -352.745 91.4685)
(644.857 -363.707 31.7296)
(336.884 -564.273 308.278)
(364.878 -567.434 264.073)
(349.908 -596.671 284.526)
(362.403 -562.718 324.688)
(333.887 -569.203 329.367)
(371.434 -585.488 288.793)
(340.315 -545.154 320.137)
(366.243 -329.084 249.237)
(335.573 -286.609 215.044)
(365.596 -347.133 221.294)
(378.326 -339.233 227.117)
(380.554 -324.84 218.428)
(323.55 -292.436 184.482)
(210.682 -192.148 136.649)
(1.11855 -0.41265 0.329884)
(0.00389048 -0.00121246 0.00165712)
(0.000913611 -0.000343813 0.000248513)
(0.000621624 -0.000262279 0.000261939)
(0.140892 -0.0569469 0.0602542)
(0.00529697 -0.00231787 0.00136408)
(0.000188968 -8.19269e-05 5.47359e-05)
(417.227 -145.57 201.563)
(146.031 -60.5501 70.2471)
(369.278 -148.567 177.747)
(90.5346 -32.3859 47.7009)
(319.534 -112.958 176.565)
(236.579 -98.745 132.313)
(37.4529 -14.0842 17.8654)
(494.748 -257.631 254.161)
(192.433 -103.703 84.5018)
(413.225 -220.85 175.789)
(260.076 -143.109 149.898)
(454.793 -251.614 246.221)
(312.406 -182.403 141.56)
(72.1386 -39.1698 33.0448)
(697.004 -266.784 174.655)
(578.139 -240.463 152.2)
(625.425 -266.629 228.411)
(562.657 -210.293 205.009)
(639.488 -241.153 165.955)
(658.335 -253.605 236.288)
(671.252 -287.354 172.872)
(360.531 -623.651 170.28)
(361.777 -620.193 234.427)
(374.779 -644.89 169.23)