/*--------------------------------*- C++ -*----------------------------------*\
  =========                 |
  \\      /  F ield         | OpenFOAM: The Open Source CFD Toolbox
   \\    /   O peration     | Website:  https://openfoam.org
    \\  /    A nd           | Version:  9
     \\/     M anipulation  |
\*---------------------------------------------------------------------------*/
FoamFile
{
    format      ascii;
    class       volVectorField;
    location    "0.0002";
    object      U;
}
// * * * * * * * * * * * * * * * * * * * * * * * * * * * * * * * * * * * * * //

dimensions      [0 1 -1 0 0 0 0];

internalField   nonuniform List<vector> 
4499
(
(0 0 5.16319e-18)
(0 2.05337e-16 2.89787e-15)
(0 0 -1.47756e-16)
(0 0 9.42028e-17)
(0 0 1.92249e-16)
(0 7.82611e-16 -1.72728e-14)
(0 7.82611e-16 1.01511e-15)
(0 0 -2.37278e-17)
(-1.66346e-16 1.89056e-24 1.03123e-17)
(-7.57835e-15 4.68641e-15 1.06025e-14)
(-1.05834e-10 3.01095e-11 2.30245e-10)
(-2.94121e-13 9.54628e-14 8.63817e-13)
(-1.78798e-14 1.59131e-15 1.23682e-14)
(-1.74512e-12 3.14452e-13 2.48542e-12)
(-1.46059e-09 8.4059e-10 6.12007e-09)
(-6.12895e-12 3.7495e-12 3.35442e-11)
(-1064.6 499.32 -91.7184)
(-1057.72 505.418 94.0859)
(-1.17082e-05 2.62372e-06 1.0887e-05)
(-1.63708e-08 4.01292e-09 1.93265e-08)
(-1.40392e-09 2.07715e-10 -1.90253e-11)
(-6.42059e-06 1.15527e-06 -9.66904e-07)
(-1.32614e-09 1.42081e-10 2.45183e-11)
(-0.000734368 9.89999e-05 1.20592e-05)
(-2.76097e-10 3.01039e-11 5.57208e-11)
(-1.5015e-08 2.47447e-09 5.07541e-09)
(-4.05841e-12 4.1434e-13 2.24778e-12)
(-3.56585e-10 5.3586e-11 2.66956e-10)
(-8.2317e-12 1.16692e-12 -6.6197e-14)
(-8.71379e-12 1.09394e-12 1.18603e-13)
(-1.5331e-12 1.28496e-13 2.21926e-13)
(-2.76645e-14 2.07427e-15 1.05495e-14)
(7.1226e-15 -1.6469e-19 3.69809e-15)
(-3.20514e-18 0 -3.69853e-15)
(-5.39242e-14 5.15404e-15 -3.74541e-15)
(7.12261e-15 -1.64762e-19 5.18557e-21)
(-4.53228e-18 0 1.27602e-17)
(-5.99553e-14 5.82611e-15 2.7618e-16)
(7.12466e-15 -1.63564e-19 -1.33595e-35)
(-2.5019e-31 0 1.15157e-17)
(-6.66568e-15 8.31766e-16 5.40132e-16)
(7.20095e-15 -1.62646e-22 5.17938e-17)
(1.69991e-28 0 1.06223e-15)
(0 -1.19212e-17 3.54965e-15)
(0 -1.97303e-16 -1.80616e-15)
(3.46044e-21 3.50637e-15 8.26716e-16)
(-6.7568e-05 4.92981e-05 -1.4972e-05)
(-1.33899e-10 1.34343e-10 -1.81459e-11)
(-0.0370679 0.0276465 0.00120718)
(-5.73963e-10 5.42125e-10 2.09948e-11)
(-9.36429e-07 8.82527e-07 5.6701e-07)
(-3.69076e-12 3.52065e-12 1.21156e-12)
(-6.12266e-10 5.83644e-10 5.9792e-10)
(-7.04947e-14 8.54793e-14 -3.74972e-15)
(-6.95548e-10 6.56825e-10 -1.6281e-11)
(-5.18377e-13 6.23792e-13 -2.27248e-14)
(-4.22552e-13 5.00417e-13 2.0061e-14)
(-1.00988e-10 1.02502e-10 1.66445e-11)
(-4.90803e-14 6.01714e-14 4.31218e-15)
(-1.49989e-15 2.94709e-15 0)
(-1.49319e-12 1.23964e-12 3.08914e-13)
(-1.84042e-15 1.49299e-15 -1.48489e-14)
(-1.88768e-16 3.83422e-16 0)
(-2.4846e-13 1.91977e-13 -1.46614e-14)
(-2.53601e-11 2.25643e-11 -3.29354e-13)
(-4.76197e-10 3.03352e-10 -1.03875e-11)
(0 0 -1.48489e-14)
(0 0 -1.2912e-14)
(-2.98143e-16 0 0)
(-6.56923e-14 1.61495e-13 -3.18726e-15)
(0 0 0)
(0 0 0)
(0 0 -5.55213e-15)
(0 0 -5.55213e-15)
(-1.87486e-16 3.71294e-16 0)
(-3.18171e-13 2.45322e-13 -6.61826e-15)
(-2.79983e-11 2.55335e-11 1.41898e-12)
(-2.13805e-10 2.07013e-10 1.89069e-11)
(0 0 -1.2102e-14)
(0 0 -1.25864e-14)
(-3.44171e-16 1.87486e-16 -3.22189e-19)
(-2.14645e-13 2.6862e-13 2.36606e-15)
(0 0 0)
(0 0 0)
(0 0 -1.25991e-14)
(0 0 -1.2974e-14)
(0 1.08943e-17 0)
(-2.59956e-14 2.0163e-14 -1.00997e-14)
(-8.76439e-12 6.73861e-12 1.7928e-12)
(-2.70907e-10 3.19512e-10 9.89548e-11)
(0 0 -1.2102e-14)
(0 0 -1.25864e-14)
(-3.45257e-17 0 8.30008e-18)
(-6.18157e-15 3.10405e-14 3.63898e-15)
(0 0 0)
(0 0 0)
(0 0 -1.25991e-14)
(0 0 -1.2974e-14)
(0 -3.92346e-23 2.22894e-15)
(0 0 -1.14779e-14)
(-9.69048e-15 1.08742e-14 6.3185e-15)
(-2.6024e-12 3.30451e-12 2.03562e-12)
(0 0 -1.16338e-14)
(0 0 -1.25864e-14)
(0 0 4.22232e-17)
(-8.62242e-17 5.62458e-16 1.58526e-16)
(0 0 9.33406e-19)
(0 0 0)
(0 0 -1.25991e-14)
(0 0 -1.2974e-14)
(-3.10335e-17 5.30997e-15 -2.75572e-16)
(-2.27743e-14 1.15882e-14 2.24288e-14)
(0 -1.93325e-17 2.55012e-16)
(1.93031e-21 0 0)
(-1.15763e-18 0 0)
(4.78041e-16 -7.37439e-17 2.07142e-16)
(3.17279e-26 0 0)
(-9.84636e-17 0 -1.27415e-14)
(-9.65668e-17 0 -1.29577e-14)
(0 0 -1.93687e-15)
(0 0 0)
(0 0 0)
(0 0 1.16773e-14)
(0 0 6.29319e-15)
(0 0 0)
(0 0 0)
(-1.93374e-18 0 0)
(0 0 0)
(0 0 0)
(0 0 1.1225e-14)
(-3.84794e-18 0 0)
(0 0 0)
(0 0 0)
(-3.24928e-15 8.43687e-15 0)
(0 0 0)
(0 0 0)
(-4.63424e-16 5.62458e-16 -4.02306e-17)
(-4.27691e-15 7.87441e-15 -7.18812e-16)
(0 0 0)
(0 0 0)
(-3.25464e-12 2.12183e-12 -3.5592e-13)
(0 0 0)
(0 3.74972e-16 0)
(-2.40961e-13 2.40002e-13 -4.35129e-15)
(-1.9741e-11 1.19489e-11 -3.02494e-13)
(0 4.55666e-23 0)
(-1.15715e-14 1.57488e-14 0)
(0 0 0)
(0 0 0)
(0 0 0)
(0 0 0)
(0 0 0)
(0 0 0)
(0 0 0)
(0 0 1.25864e-14)
(0 0 1.25864e-14)
(0 0 1.25864e-14)
(0 0 -6.29319e-15)
(0 0 0)
(0 0 0)
(0 0 1.16659e-14)
(0 0 6.29319e-15)
(0 0 0)
(0 0 0)
(-3.85221e-18 0 0)
(0 0 0)
(0 0 0)
(0 0 1.1225e-14)
(-5.09218e-18 0 0)
(0 0 0)
(0 0 0)
(-5.28229e-15 1.12304e-14 6.27483e-16)
(0 0 0)
(0 0 0)
(-5.1663e-16 5.62458e-16 -3.27768e-17)
(-4.12554e-15 1.16054e-14 -5.04907e-16)
(0 0 0)
(0 0 0)
(-1.61895e-11 9.86722e-12 3.74371e-13)
(0 1.98892e-20 0)
(-1.07401e-14 1.12492e-14 0)
(-6.03239e-14 1.7901e-13 9.24613e-15)
(-2.3966e-12 1.63486e-12 3.60489e-13)
(0 0 0)
(0 0 0)
(0 0 0)
(0 0 0)
(0 0 0)
(0 0 0)
(0 0 0)
(0 0 0)
(0 0 -1.3724e-14)
(0 0 1.25864e-14)
(0 0 1.25864e-14)
(0 0 1.25864e-14)
(0 0 -6.29319e-15)
(0 0 0)
(0 0 0)
(0 0 1.16642e-14)
(0 0 6.29319e-15)
(0 0 0)
(0 0 0)
(-1.06382e-20 0 2.53808e-20)
(0 0 0)
(0 0 0)
(0 0 1.1225e-14)
(5.42534e-24 0 0)
(0 0 0)
(0 0 0)
(-3.69456e-16 0 8.74561e-16)
(0 0 0)
(0 0 0)
(-1.43646e-17 0 -5.55824e-17)
(-2.44944e-16 0 -9.12614e-16)
(0 0 0)
(0 0 0)
(-1.36664e-13 9.84834e-14 2.65011e-14)
(0 0 0)
(0 0 0)
(-6.29674e-15 2.83104e-14 2.57685e-15)
(-1.03687e-13 8.287e-14 1.19371e-14)
(0 0 0)
(0 6.49932e-20 0)
(0 0 0)
(0 0 0)
(0 0 0)
(0 0 0)
(0 0 0)
(0 0 0)
(0 0 -1.3724e-14)
(0 0 1.25864e-14)
(0 0 1.25864e-14)
(0 0 1.25864e-14)
(0 0 -6.29327e-15)
(0 0 4.56329e-18)
(0 0 0)
(0 -5.71137e-16 1.1225e-14)
(0 0 6.2932e-15)
(0 1.98458e-20 4.73989e-31)
(0 0 3.10572e-26)
(3.56784e-22 0 4.99852e-19)
(0 0 0)
(0 0 0)
(0 0 1.1225e-14)
(1.99681e-20 0 -3.29614e-19)
(0 0 2.09717e-24)
(0 0 2.75083e-20)
(-2.6307e-18 0 1.01201e-15)
(0 0 0)
(0 0 0)
(0 0 -1.17026e-16)
(1.6099e-24 0 -1.07846e-15)
(0 0 1.96034e-16)
(0 0 7.08173e-19)
(-5.62458e-15 1.56121e-14 2.69797e-15)
(0 0 0)
(0 6.81284e-19 0)
(-1.47184e-17 0 1.22634e-17)
(-1.87486e-16 8.61558e-15 2.42124e-16)
(0 0 0)
(0 -3.59568e-17 0)
(0 0 0)
(0 0 0)
(0 0 0)
(0 0 0)
(0 0 0)
(0 0 0)
(0 0 -1.3724e-14)
(0 0 1.46614e-14)
(0 0 1.26572e-14)
(0 0 1.25864e-14)
(0 0 -3.60074e-15)
(4.35333e-17 0 0)
(-7.288e-18 0 -1.60959e-15)
(0 0 0)
(0 0 0)
(-6.78699e-14 7.26368e-14 -3.48327e-15)
(-7.38695e-14 7.96665e-14 -9.61437e-15)
(-7.12447e-15 7.87441e-15 0)
(-7.12447e-15 7.87441e-15 4.78971e-17)
(-4.24215e-13 4.4447e-13 5.89175e-15)
(-4.14555e-13 4.34832e-13 1.56177e-14)
(0 0 0)
(0 0 6.2679e-18)
(-1.12492e-15 3.10916e-15 6.68013e-16)
(-1.12492e-15 2.93409e-15 2.40405e-16)
(-7.57444e-14 9.3165e-14 -1.50406e-14)
(-2.45584e-12 5.28155e-12 -3.28957e-13)
(-2.53674e-12 5.45284e-12 -5.0839e-13)
(-6.15846e-12 7.54094e-12 -8.95364e-13)
(-3.8322e-12 2.337e-12 -2.68831e-13)
(-3.95427e-12 2.4016e-12 -4.08697e-13)
(-5.97937e-12 7.32963e-12 -5.99526e-13)
(-1.59531e-11 3.31314e-11 -1.00588e-12)
(-5.25368e-13 6.27665e-13 1.32505e-14)
(-1.58831e-11 3.32224e-11 -1.60108e-13)
(-4.02828e-11 4.62959e-11 -1.69378e-12)
(-2.67955e-11 1.53346e-11 -1.47078e-13)
(-2.66511e-11 1.53852e-11 -7.96063e-13)
(-3.93908e-11 4.39149e-11 -2.99493e-13)
(-8.62436e-15 1.12492e-14 -9.33911e-17)
(-8.62436e-15 1.19991e-14 -2.14799e-18)
(-5.19654e-13 5.40159e-13 -1.00391e-15)
(-5.10008e-13 5.33665e-13 -1.70829e-14)
(-4.32516e-13 5.12135e-13 8.92643e-15)
(-1.31008e-11 2.72548e-11 4.56389e-13)
(-1.30118e-11 2.7076e-11 9.67913e-13)
(-3.29946e-11 3.77736e-11 1.71389e-12)
(-2.20323e-11 1.26107e-11 3.57644e-13)
(-3.32483e-11 3.80351e-11 7.41505e-13)
(-2.18566e-11 1.25113e-11 7.75598e-13)
(-5.92456e-14 6.97107e-14 1.16941e-14)
(-1.86868e-12 4.04257e-12 4.32888e-13)
(-1.76232e-12 3.882e-12 3.63586e-13)
(-4.65838e-12 5.6565e-12 7.95626e-13)
(-2.92745e-12 1.74764e-12 2.96427e-13)
(-3.03631e-12 1.84025e-12 3.52743e-13)
(-3.41578e-12 2.90985e-12 4.51071e-13)
(0 0 2.10378e-17)
(0 0 3.71816e-17)
(-5.02463e-14 5.33176e-14 4.03462e-15)
(-5.62458e-14 5.90889e-14 8.434e-15)
(-2.24983e-15 3.29876e-15 6.94628e-16)
(-1.03547e-13 2.06203e-13 2.70577e-14)
(-1.13212e-13 2.24668e-13 4.56325e-14)
(-2.53706e-13 2.8928e-13 5.61283e-14)
(-1.86873e-13 1.17118e-13 4.17037e-14)
(-2.65993e-13 3.00511e-13 7.00142e-14)
(-1.68678e-13 1.04225e-13 2.75871e-14)
(-1.12492e-15 3.74972e-16 3.92091e-16)
(-8.20038e-14 1.51571e-13 1.45475e-14)
(-5.85389e-14 1.19424e-13 9.53278e-15)
(-8.29791e-14 7.61305e-14 1.0341e-14)
(-1.43682e-13 9.24152e-14 1.81593e-14)
(-1.34564e-13 8.39314e-14 1.54438e-14)
(-1.91134e-13 1.80338e-13 2.44635e-14)
(0 0 0)
(0 0 6.02489e-18)
(-1.87486e-15 4.03772e-15 4.48618e-16)
(-3.37475e-15 5.8631e-15 4.36439e-16)
(0 0 -1.34906e-18)
(0 0 0)
(0 0 0)
(0 0 0)
(0 0 0)
(0 0 0)
(0 0 1.48489e-14)
(0 0 0)
(0 0 0)
(0 0 1.3724e-14)
(0 0 0)
(0 0 -1.3724e-14)
(0 0 0)
(0 0 0)
(0 0 0)
(0 0 0)
(0 0 0)
(0 0 0)
(0 0 9.56309e-15)
(0 0 0)
(0 0 0)
(0 0 8.99594e-15)
(0 0 0)
(0 0 -1.48489e-14)
(0 0 0)
(0 0 0)
(0 0 0)
(0 0 0)
(0 0 0)
(0 0 0)
(0 0 9.56309e-15)
(0 0 0)
(0 0 0)
(0 0 8.99594e-15)
(0 0 0)
(0 0 -1.48489e-14)
(0 0 0)
(0 0 0)
(0 0 0)
(0 0 0)
(0 0 0)
(0 0 0)
(0 0 9.56309e-15)
(0 0 0)
(0 0 0)
(0 0 8.99594e-15)
(0 0 0)
(0 0 -1.48489e-14)
(0 0 -7.42445e-15)
(0 2.64955e-15 -2.79351e-15)
(0 4.10903e-16 -4.00661e-15)
(0 0 -3.84371e-16)
(8.92389e-19 0 0)
(5.20752e-23 -6.99304e-15 5.45808e-15)
(3.29451e-17 -6.9812e-15 7.19695e-15)
(1.71987e-19 0 -3.76442e-15)
(1.82895e-19 0 -3.7624e-15)
(0 -2.09692e-19 1.20895e-14)
(-3.23514e-17 6.99336e-15 6.30019e-15)
(2.14229e-17 1.07023e-19 -4.73727e-15)
(-6.20837e-20 0 -1.61731e-16)
(-4.44691e-20 -3.66267e-19 -1.23822e-14)
(1.5017e-20 -3.39815e-17 1.48599e-16)
(0 1.30775e-14 6.28403e-15)
(0 1.62987e-16 6.51939e-16)
(-1.07763e-18 -4.35093e-18 0)
(-3.1297e-17 7.06665e-15 3.71222e-15)
(3.65457e-20 -2.11705e-16 0)
(2.18444e-20 -7.2183e-17 4.36942e-16)
(0 0 7.56554e-15)
(-1.30231e-15 0 3.16467e-15)
(-1.35517e-15 0 -1.40932e-14)
(0 0 -5.49851e-18)
(0 0 0)
(0 6.85788e-51 0)
(0 0 0)
(0 1.80091e-48 0)
(0 0 0)
(0 0 0)
(0 0 0)
(0 2.5327e-44 0)
(0 0 0)
(0 0 0)
(0 3.67471e-42 0)
(0 0 0)
(0 0 0)
(0 0 -4.68246e-18)
(0 0 0)
(0 1.03792e-43 0)
(0 0 0)
(0 4.48554e-46 0)
(0 0 0)
(0 0 0)
(0 0 0)
(0 0 0)
(0 5.81903e-38 0)
(0 0 0)
(0 4.71345e-40 0)
(0 0 0)
(0 0 0)
(0 0 0)
(0 -3.20394e-44 0)
(0 0 0)
(0 0 0)
(0 -4.8364e-42 0)
(0 0 0)
(0 0 0)
(1.31802e-50 0 0)
(0 -3.98523e-44 0)
(1.33304e-51 0 0)
(0 0 0)
(0 -5.8401e-42 0)
(3.40445e-49 0 0)
(5.81016e-54 0 0)
(0 0 0)
(0 0 0)
(0 -8.15583e-38 0)
(0 0 0)
(0 -6.51304e-40 0)
(0 0 0)
(0 0 0)
(1.19114e-48 0 0)
(0 0 -1.84756e-17)
(0 -9.62941e-38 0)
(1.79369e-44 0 0)
(0 -7.68841e-40 0)
(8.09347e-47 0 0)
(5.23608e-47 0 0)
(0 0 0)
(0 4.35888e-44 0)
(0 0 0)
(0 0 0)
(0 6.84848e-42 0)
(0 0 0)
(0 0 0)
(3.97333e-51 0 0)
(0 4.58073e-18 0)
(1.36984e-51 0 0)
(0 0 2.0325e-15)
(0 5.51874e-17 0)
(3.50904e-49 0 0)
(5.95299e-54 0 0)
(0 0 0)
(0 0 -3.5349e-16)
(0 1.07016e-37 0)
(0 0 0)
(0 9.02411e-40 0)
(0 0 -1.81514e-15)
(0 0 0)
(1.61891e-49 0 0)
(0 0 -1.38552e-15)
(0 2.22276e-17 0)
(1.85518e-44 0 0)
(0 9.68383e-17 0)
(8.35908e-47 0 0)
(5.38957e-47 0 0)
(-1.15953e-15 6.64783e-15 0)
(0 1.66122e-15 0)
(0 0 0)
(0 0 0)
(-1.13425e-15 6.03519e-15 0)
(0 0 0)
(-1.12492e-15 6.4896e-15 0)
(0 1.12492e-15 -1.40242e-16)
(-1.07205e-13 1.33838e-13 -8.81184e-15)
(-1.126e-13 1.38522e-13 -1.29365e-14)
(-5.91132e-14 1.01556e-13 -8.43687e-15)
(-3.22987e-16 0 0)
(-4.09174e-16 0 0)
(-4.84166e-14 8.54561e-14 -4.87464e-15)
(-1.01242e-14 1.62145e-14 -5.88875e-17)
(0 0 -1.65112e-16)
(-1.1251e-15 4.67514e-15 0)
(0 3.97284e-20 0)
(-4.07296e-15 1.18754e-14 0)
(0 0 0)
(-7.1305e-15 1.43179e-14 0)
(-7.34478e-13 8.82903e-13 -2.62779e-14)
(-1.19314e-14 1.60704e-14 0)
(-7.44672e-13 8.86463e-13 -2.6248e-15)
(-3.84893e-13 6.32481e-13 -1.23741e-14)
(-1.27762e-15 3.01253e-15 0)
(-2.5776e-15 7.87441e-15 0)
(-2.78944e-13 4.51255e-13 7.49944e-16)
(0 0 0)
(0 0 0)
(0 0 0)
(0 0 4.38952e-18)
(0 0 0)
(0 0 0)
(0 0 0)
(0 0 0)
(0 0 0)
(7.84858e-51 0 0)
(0 0 0)
(2.01423e-48 0 0)
(0 0 0)
(0 0 0)
(0 0 0)
(0 0 -8.78793e-17)
(1.0643e-43 0 0)
(4.79252e-46 0 0)
(8.05314e-51 0 0)
(0 0 1.48489e-14)
(2.07298e-48 0 0)
(0 0 -1.67487e-15)
(0 0 0)
(0 0 -1.25864e-14)
(0 0 -1.10232e-14)
(1.10165e-43 0 0)
(4.94667e-46 0 0)
(0 0 0)
(0 0 0)
(4.81782e-52 0 0)
(-1.78164e-50 0 0)
(0 0 -1.49838e-15)
(0 0 0)
(0 0 0)
(0 0 0)
(0 0 0)
(-3.39349e-45 0 0)
(-2.44128e-47 0 0)
(0 0 0)
(0 0 0)
(0 2.26164e-41 0)
(0 0 0)
(0 0 0)
(0 4.55358e-39 0)
(0 0 0)
(0 0 0)
(0 6.61806e-36 0)
(0 0 0)
(0 0 0)
(0 0 0)
(0 7.18348e-34 0)
(0 0 0)
(0 0 0)
(0 0 0)
(0 7.7731e-35 0)
(0 0 0)
(0 6.4019e-37 0)
(0 0 0)
(0 0 0)
(0 0 0)
(0 0 0)
(0 5.8519e-30 0)
(0 0 0)
(0 6.71439e-32 0)
(0 0 0)
(0 0 0)
(0 0 0)
(0 -9.97627e-36 0)
(0 0 0)
(0 0 0)
(0 0 0)
(0 -1.15449e-33 0)
(0 0 0)
(7.9718e-42 0 0)
(0 -1.12098e-35 0)
(3.70062e-42 0 0)
(0 0 0)
(2.09168e-44 0 0)
(0 -1.25145e-33 0)
(7.07246e-40 0 0)
(0 0 0)
(0 0 0)
(0 -1.04358e-29 0)
(0 0 0)
(0 -1.15135e-31 0)
(0 0 0)
(0 0 0)
(9.38094e-40 0 0)
(0 0 -1.84756e-17)
(0 -1.10325e-29 0)
(1.9714e-35 0 0)
(0 -1.21927e-31 0)
(1.23449e-37 0 0)
(2.00887e-37 0 0)
(0 0 0)
(0 1.29142e-35 0)
(0 0 0)
(0 0 0)
(0 0 0)
(0 1.57535e-33 0)
(0 0 0)
(6.71076e-41 0 0)
(0 3.34671e-17 0)
(3.83527e-42 0 0)
(0 0 2.0106e-15)
(2.16016e-44 0 0)
(0 1.28172e-16 0)
(7.35636e-40 0 0)
(0 0 0)
(0 0 -3.5349e-16)
(0 1.2826e-29 0)
(0 0 0)
(0 1.87627e-31 0)
(0 0 -1.81514e-15)
(0 0 0)
(4.88167e-39 0 0)
(0 0 -1.38571e-15)
(0 1.11422e-17 0)
(2.07008e-35 0 0)
(0 7.16965e-17 0)
(1.28965e-37 0 0)
(3.23372e-37 0 0)
(-7.47189e-15 1.64272e-14 0)
(-1.15694e-15 6.16712e-15 0)
(0 1.16182e-17 0)
(0 1.97756e-20 0)
(-7.49944e-15 1.63587e-14 1.45066e-17)
(-4.41844e-15 1.34538e-14 0)
(0 1.15527e-17 0)
(-1.08292e-14 1.12492e-14 5.90735e-17)
(-6.01758e-13 7.25414e-13 1.01429e-14)
(-5.95906e-13 7.2121e-13 2.56856e-14)
(-2.4404e-13 3.94919e-13 1.10617e-14)
(-1.67114e-15 4.12469e-15 0)
(-2.19705e-13 3.56368e-13 2.61007e-15)
(-1.7523e-15 4.12469e-15 0)
(-1.12492e-15 7.16152e-15 3.56513e-17)
(0 0 -1.67562e-16)
(0 2.11271e-15 0)
(0 0 0)
(-1.11914e-15 6.63612e-15 0)
(0 0 0)
(-1.12286e-15 6.69283e-15 0)
(0 0 1.23133e-16)
(-8.24939e-14 1.03188e-13 1.2384e-14)
(-7.72514e-14 9.8505e-14 8.43687e-15)
(-4.21993e-14 7.52398e-14 7.12447e-15)
(-5.36643e-17 0 0)
(-2.72701e-16 0 0)
(-9.17791e-15 1.4937e-14 1.3124e-15)
(0 0 0)
(0 0 0)
(0 0 0)
(0 0 0)
(0 0 0)
(0 0 0)
(0 0 0)
(0 0 0)
(0 0 0)
(2.20915e-41 0 0)
(0 0 0)
(4.3094e-39 0 0)
(0 0 0)
(0 0 0)
(0 0 0)
(0 0 -8.78793e-17)
(1.23672e-34 0 0)
(7.62106e-37 0 0)
(2.29324e-41 0 0)
(0 0 1.3724e-14)
(4.48712e-39 0 0)
(0 0 -1.67487e-15)
(0 0 0)
(0 0 -1.25864e-14)
(0 0 -1.10233e-14)
(1.2999e-34 0 0)
(7.96541e-37 0 0)
(0 0 0)
(0 0 0)
(-7.16131e-43 0 0)
(4.75578e-40 0 0)
(0 0 -1.49858e-15)
(0 0 0)
(0 0 0)
(0 0 0)
(0 0 0)
(-9.04131e-36 0 0)
(3.04284e-37 0 0)
(0 0 0)
(0 1.0148e-32 0)
(0 0 0)
(0 0 0)
(0 0 0)
(0 1.15866e-30 0)
(0 0 0)
(0 0 0)
(0 4.67619e-28 0)
(0 0 0)
(0 0 0)
(0 0 0)
(0 3.42872e-26 0)
(0 0 0)
(0 0 0)
(0 0 -1.00393e-23)
(0 1.28268e-26 0)
(0 0 0)
(0 1.30514e-28 0)
(0 0 0)
(0 0 0)
(0 0 0)
(0 0 0)
(0 1.13619e-22 0)
(0 0 0)
(0 2.11224e-24 0)
(0 0 0)
(0 0 0)
(0 0 0)
(0 -9.3409e-28 0)
(0 0 0)
(0 0 0)
(0 0 0)
(0 -7.69253e-26 0)
(0 0 0)
(7.39755e-34 0 0)
(0 -9.2118e-28 0)
(2.90572e-33 0 0)
(0 0 0)
(6.76932e-37 0 0)
(0 -7.12492e-26 0)
(3.789e-31 0 0)
(0 0 0)
(0 0 0)
(0 -2.93817e-22 0)
(0 0 0)
(0 -5.1052e-24 0)
(0 0 0)
(0 0 0)
(1.93259e-30 0 0)
(0 0 -1.84756e-17)
(0 -2.71667e-22 0)
(4.39505e-27 0 0)
(0 -4.68739e-24 0)
(4.36919e-29 0 0)
(8.31639e-29 0 0)
(0 0 0)
(0 1.12357e-27 0)
(0 0 0)
(0 0 0)
(0 0 0)
(0 9.14452e-26 0)
(0 0 0)
(-3.99965e-33 0 0)
(0 5.75847e-20 0)
(3.06877e-33 0 0)
(0 0 2.0106e-15)
(1.46394e-35 0 0)
(0 1.2038e-26 0)
(4.08642e-31 0 0)
(0 0 0)
(0 0 -3.5349e-16)
(0 3.25078e-22 0)
(0 0 0)
(0 5.8771e-24 0)
(0 0 -1.81514e-15)
(0 0 0)
(-4.38427e-31 0 0)
(0 0 -1.38568e-15)
(0 5.42937e-23 0)
(5.23835e-27 0 0)
(0 8.9152e-25 0)
(4.87031e-29 0 0)
(-4.30153e-29 0 0)
(0 7.63813e-18 0)
(0 7.97316e-18 0)
(0 0 0)
(0 0 0)
(0 1.28872e-18 0)
(0 1.01922e-25 0)
(0 0 0)
(0 0 7.379e-18)
(-3.37475e-15 4.40332e-15 5.62458e-16)
(-3.37475e-15 3.78093e-15 5.61638e-16)
(-3.29373e-15 1.86937e-15 1.87486e-16)
(-3.03875e-18 0 0)
(-1.1633e-15 7.49944e-16 0)
(-2.46736e-17 0 0)
(0 1.28872e-18 0)
(0 0 -1.70309e-16)
(0 2.68185e-22 0)
(0 0 0)
(0 9.12612e-24 0)
(0 0 0)
(0 0 0)
(0 0 5.66326e-18)
(-3.3542e-15 4.88382e-15 0)
(-3.37475e-15 5.60464e-15 0)
(-1.85191e-15 7.47367e-16 0)
(-4.89156e-20 0 0)
(-7.63199e-18 0 0)
(-3.90198e-16 0 0)
(0 0 0)
(0 0 0)
(0 0 0)
(0 0 -6.3391e-23)
(0 0 0)
(0 0 0)
(0 0 0)
(0 0 0)
(0 0 0)
(1.84225e-32 0 0)
(0 0 0)
(2.53527e-30 0 0)
(0 0 0)
(0 0 0)
(0 0 0)
(0 0 -8.78793e-17)
(3.26276e-26 0 0)
(3.05405e-28 0 0)
(1.95659e-32 0 0)
(0 0 1.3724e-14)
(2.75164e-30 0 0)
(0 0 -1.67487e-15)
(0 0 0)
(0 0 -1.25864e-14)
(0 0 -1.10232e-14)
(4.08368e-26 0 0)
(3.47588e-28 0 0)
(0 0 0)
(0 0 0)
(2.51054e-32 0 0)
(3.13265e-30 0 0)
(0 0 -1.49854e-15)
(0 0 0)
(0 0 0)
(0 0 0)
(0 0 0)
(3.76072e-26 0 0)
(3.69262e-28 0 0)
(0 0 0)
(0 1.07549e-24 0)
(0 0 0)
(0 0 0)
(0 0 0)
(0 5.96679e-23 0)
(0 0 0)
(0 0 0)
(0 5.56871e-21 0)
(0 0 0)
(0 0 0)
(0 0 0)
(0 2.33572e-19 0)
(0 0 0)
(0 0 0)
(0 0 -2.20584e-23)
(0 1.70846e-20 6.09426e-30)
(0 0 1.67205e-29)
(0 9.85551e-22 0)
(0 0 0)
(0 0 4.54684e-28)
(0 0 0)
(0 0 0)
(0 2.08543e-16 9.55917e-25)
(0 0 4.53265e-28)
(0 7.50726e-18 0)
(0 0 0)
(0 0 3.1056e-26)
(0 0 0)
(0 -1.67682e-20 0)
(0 0 0)
(0 0 0)
(0 0 0)
(0 -8.27008e-19 0)
(0 0 0)
(9.85117e-25 0 0)
(0 -1.44611e-20 0)
(3.8619e-25 0 0)
(0 0 0)
(4.53828e-27 0 0)
(0 -6.59342e-19 0)
(2.78402e-23 0 0)
(0 0 0)
(0 0 0)
(0 -6.79302e-16 2.66604e-23)
(0 0 3.21269e-23)
(0 -2.7762e-17 0)
(0 0 0)
(0 0 6.32278e-22)
(5.76958e-23 0 0)
(0 0 -1.81629e-17)
(0 -6.39436e-16 5.091e-19)
(4.9967e-20 0 1.27962e-21)
(0 -2.29247e-17 0)
(1.49864e-21 0 0)
(2.2781e-21 0 2.75083e-20)
(0 0 0)
(0 1.81316e-20 0)
(0 0 0)
(0 0 0)
(0 0 0)
(0 8.74806e-19 0)
(0 0 0)
(-4.53525e-25 0 0)
(0 3.16084e-21 0)
(5.10958e-25 0 0)
(0 0 2.01061e-15)
(-2.49338e-27 0 0)
(0 1.37742e-19 0)
(4.36042e-23 0 0)
(0 0 0)
(0 0 -3.29077e-16)
(0 6.4027e-16 7.95436e-18)
(0 0 1.94673e-15)
(0 2.76222e-17 0)
(0 0 -1.75504e-15)
(0 0 9.44138e-17)
(5.35741e-23 0 0)
(0 0 -1.38552e-15)
(0 7.05523e-17 -4.52885e-22)
(5.24677e-20 0 6.37499e-17)
(0 4.29685e-18 0)
(2.99404e-21 0 0)
(4.09197e-22 0 -9.29319e-20)
(0 0 0)
(0 1.85492e-20 0)
(0 0 0)
(0 0 0)
(0 0 0)
(0 7.7511e-19 0)
(0 0 0)
(0 4.19874e-18 1.3239e-15)
(0 3.06959e-17 3.9645e-17)
(0 3.32889e-17 3.91086e-17)
(-1.12349e-25 0 0)
(3.23964e-25 0 0)
(2.97532e-27 0 0)
(3.11804e-23 0 0)
(0 0 0)
(0 0 -1.65124e-16)
(0 7.11396e-16 0)
(0 0 0)
(0 2.74365e-17 0)
(0 0 0)
(0 0 0)
(0 1.31147e-15 1.61091e-18)
(0 2.54714e-20 1.95225e-16)
(0 9.94713e-20 6.91779e-18)
(5.77341e-23 0 0)
(5.84965e-20 0 0)
(1.69546e-21 0 0)
(1.0568e-21 0 0)
(0 0 0)
(0 0 0)
(0 0 0)
(0 0 -6.74139e-23)
(0 0 0)
(0 0 0)
(0 0 0)
(0 0 0)
(0 0 0)
(3.07925e-24 0 0)
(0 0 0)
(2.58512e-22 0 0)
(0 0 0)
(0 0 0)
(0 0 0)
(0 0 -8.80754e-17)
(9.55404e-19 0 0)
(1.74788e-20 0 0)
(4.53411e-24 0 0)
(0 0 1.3724e-14)
(4.75954e-22 0 0)
(0 0 -1.68535e-15)
(0 0 1.44739e-14)
(0 0 -1.23989e-14)
(0 0 -1.10232e-14)
(1.22903e-18 0 1.87486e-15)
(4.19692e-20 0 0)
(0 0 0)
(0 0 1.73304e-16)
(3.59638e-24 0 0)
(2.91179e-22 0 0)
(0 0 -1.49838e-15)
(0 0 0)
(0 0 0)
(0 0 0)
(0 0 0)
(1.08199e-18 0 0)
(1.99567e-20 0 0)
(0 0 0)
(1.83884e-24 0 4.98951e-17)
(1.74449e-24 0 9.67538e-19)
(0 0 -1.24676e-14)
(-1.31583e-15 0 1.31089e-14)
(-1.34589e-15 0 1.06393e-14)
(0 0 -3.11156e-15)
(4.08973e-17 0 0)
(1.32049e-15 0 2.67822e-16)
(1.32719e-15 0 1.38903e-18)
(4.41713e-17 0 0)
(1.28627e-15 0 -2.20289e-15)
(1.33541e-15 0 -9.18573e-17)
(7.21058e-16 7.12194e-21 5.87739e-18)
(0 -5.3159e-27 5.0104e-19)
(4.47245e-17 0 0)
(1.26669e-15 0 0)
(-0.0412294 0.0308433 -0.000887148)
(-3.476e-06 3.39874e-06 -1.08443e-07)
(-7.28815e-07 7.24474e-07 -1.24141e-07)
(-2.72023e-06 1.56634e-06 -7.87758e-08)
(-6.24703e-07 3.23515e-07 -7.30868e-08)
(-1.25851e-08 9.07028e-09 -1.47504e-09)
(-5.13139e-08 3.62045e-08 -1.25138e-09)
(-4.97539e-05 3.6983e-05 1.50589e-05)
(-6.02296e-07 6.03647e-07 1.15992e-07)
(-2.98927e-06 2.91705e-06 1.26321e-07)
(-2.32686e-06 1.35068e-06 8.26976e-08)
(-5.32947e-07 2.87152e-07 7.67421e-08)
(-4.28387e-08 3.02708e-08 1.54054e-09)
(-1.02435e-08 7.50666e-09 1.41084e-09)
(-1.72875e-08 1.50488e-08 1.46622e-08)
(-5.5891e-10 4.25225e-10 3.27541e-10)
(-1.79676e-08 1.74041e-08 9.25909e-09)
(-1.64133e-08 1.09167e-08 6.65097e-09)
(-4.44532e-10 4.20367e-10 2.70156e-10)
(-2.59097e-10 2.03922e-10 9.99248e-11)
(-2.44892e-11 1.97445e-11 8.68964e-12)
(-4.55987e-10 2.1546e-10 3.06658e-10)
(-2.03739e-10 3.17624e-10 2.29051e-10)
(-6.68846e-12 4.38592e-12 3.5523e-12)
(-1.87486e-16 2.63961e-16 0)
(0 0 0)
(0 6.06953e-23 0)
(0 1.53163e-20 0)
(0 0 -1.36545e-14)
(0 9.3654e-23 0)
(0 2.56127e-20 0)
(-1.92633e-13 1.6096e-13 1.16616e-14)
(-8.55862e-14 9.70431e-14 -6.56201e-16)
(-3.08998e-14 3.51839e-14 -1.19171e-14)
(0 3.89987e-18 0)
(-9.3743e-16 1.16168e-15 0)
(0 7.04901e-18 0)
(-1.3124e-15 2.05963e-15 0)
(-1.03069e-11 1.08575e-11 -8.7264e-14)
(-2.48738e-11 2.2956e-11 -3.0085e-13)
(-5.17916e-12 5.5203e-12 -1.5791e-13)
(-4.77048e-14 9.18063e-14 -9.3743e-16)
(-3.64627e-13 4.99866e-13 1.00997e-14)
(-7.18547e-14 1.43303e-13 -9.3743e-17)
(-3.66953e-13 4.58838e-13 -1.7005e-14)
(-2.05735e-10 1.79085e-10 -8.51486e-12)
(-2.92937e-08 1.41227e-08 -6.885e-10)
(-7.70566e-09 3.21953e-09 -7.02495e-10)
(-1.36497e-10 8.43047e-11 -1.41479e-11)
(-6.55496e-10 3.90959e-10 -1.33977e-11)
(-4.13165e-12 6.89075e-12 -1.61698e-13)
(-1.01737e-11 9.69966e-12 -2.51769e-13)
(-5.62458e-16 2.5934e-16 1.02497e-15)
(0 0 1.2699e-14)
(0 9.27401e-23 0)
(0 2.29571e-20 0)
(0 0 -1.26085e-14)
(0 1.16213e-22 0)
(0 3.34928e-20 0)
(-2.2242e-13 1.90567e-13 1.19082e-14)
(-6.89257e-14 7.54711e-14 6.56201e-16)
(-3.62438e-14 3.9225e-14 1.87325e-16)
(0 6.02064e-18 0)
(-1.3124e-15 1.62391e-15 -3.2276e-19)
(0 1.08495e-17 0)
(-1.48962e-15 3.40606e-15 0)
(-1.63286e-11 1.76751e-11 5.09717e-13)
(-2.90986e-11 2.52106e-11 1.25194e-13)
(-5.41363e-12 5.70306e-12 -3.69587e-14)
(-5.1127e-14 9.84031e-14 -2.81229e-16)
(-4.66938e-13 6.18295e-13 8.21482e-15)
(-9.45824e-14 1.8868e-13 2.6248e-15)
(-4.45553e-13 6.27813e-13 1.35379e-14)
(-4.5168e-10 3.26093e-10 7.364e-12)
(-2.45958e-08 1.22229e-08 7.87496e-10)
(-6.45348e-09 2.90153e-09 7.28505e-10)
(-5.39678e-10 3.26613e-10 1.72815e-11)
(-1.08375e-10 7.00161e-11 1.32072e-11)
(-9.60925e-12 1.0901e-11 1.2618e-13)
(-4.17085e-12 7.73678e-12 5.46078e-13)
(0 1.47811e-17 1.02957e-15)
(0 0 1.2699e-14)
(0 2.18097e-24 0)
(0 8.08859e-22 0)
(0 0 -1.21478e-14)
(0 3.62665e-25 0)
(0 1.88706e-22 0)
(-3.77568e-14 2.65257e-14 1.79352e-14)
(-4.12291e-15 3.5534e-15 4.68715e-16)
(-1.04093e-14 7.12447e-15 1.30887e-15)
(0 2.60368e-19 0)
(0 7.52131e-17 8.35359e-18)
(0 8.21459e-20 0)
(0 2.92903e-17 0)
(-9.70841e-13 1.03276e-12 2.31194e-13)
(-7.55718e-12 6.254e-12 1.7123e-12)
(-2.57927e-12 2.86725e-12 5.96367e-13)
(-9.37044e-15 2.11681e-14 2.6248e-15)
(-7.02121e-14 9.37012e-14 3.80119e-14)
(-3.9243e-15 8.76024e-15 9.3743e-16)
(-6.48768e-14 8.71773e-14 -1.24606e-15)
(-2.25045e-10 2.60328e-10 7.99094e-11)
(-3.00647e-10 2.34919e-10 9.93362e-11)
(-2.76543e-10 3.24824e-10 1.02418e-10)
(-3.92872e-12 3.65149e-12 1.203e-12)
(-2.23581e-12 3.7355e-12 7.12536e-13)
(-1.22925e-12 2.6901e-12 5.72504e-13)
(-1.39987e-12 3.21007e-12 5.503e-13)
(0 -2.39186e-23 0)
(0 0 -2.73159e-17)
(0 -1.69549e-21 1.45072e-14)
(0 -8.91167e-22 0)
(0 0 -1.0173e-15)
(0 -3.73741e-29 -7.96163e-17)
(0 -1.98239e-26 -2.55411e-18)
(0 1.20351e-16 1.19627e-14)
(0 8.19982e-22 -1.99229e-17)
(0 0 1.34427e-14)
(0 1.07688e-25 0)
(0 0 9.0138e-21)
(0 2.29882e-23 4.46644e-19)
(0 7.99989e-21 2.79531e-17)
(-5.37836e-14 4.89339e-14 3.08498e-14)
(-9.71192e-14 8.13655e-14 7.60489e-14)
(-3.65444e-14 3.59973e-14 2.58546e-14)
(0 4.21114e-19 -1.12464e-15)
(0 1.63718e-18 1.07626e-15)
(-5.62458e-16 4.22319e-16 1.39851e-14)
(0 8.06424e-17 -1.35799e-14)
(-4.76201e-12 5.79435e-12 5.18164e-12)
(-7.78457e-12 8.12503e-12 6.98697e-12)
(-4.63758e-12 4.90931e-12 3.19317e-12)
(-5.72366e-14 4.1142e-14 1.87528e-14)
(-1.5181e-13 1.30406e-13 1.05711e-13)
(-2.56834e-14 6.17192e-14 4.57019e-14)
(-6.00173e-15 1.57708e-14 4.68715e-15)
(0 0 1.24259e-14)
(-1.30628e-39 0 0)
(-3.15375e-38 0 0)
(0 0 0)
(-2.4391e-37 0 0)
(-2.05479e-34 0 0)
(-2.33197e-41 0 0)
(-1.82095e-40 0 -3.57728e-17)
(0 0 -5.39607e-16)
(0 0 5.80063e-16)
(-9.28565e-38 0 1.21385e-16)
(0 0 2.44749e-15)
(0 0 -1.81193e-15)
(-1.8628e-36 0 0)
(0 0 -1.86509e-16)
(-2.72478e-39 0 0)
(-9.41318e-39 0 -1.68192e-16)
(0 0 -3.22117e-15)
(0 2.16347e-50 -6.94079e-18)
(-3.10377e-37 0 0)
(-4.44232e-37 0 0)
(0 4.15571e-51 0)
(0 0 2.25796e-15)
(-4.66191e-36 0 -1.3123e-16)
(0 0 -2.97066e-15)
(0 3.46313e-46 0)
(-2.19197e-34 0 0)
(-1.82446e-35 0 0)
(0 6.59308e-44 0)
(0 0 1.9172e-15)
(-2.00321e-34 0 0)
(0 0 -3.09499e-15)
(0 3.36462e-38 0)
(-1.94632e-32 0 0)
(0 1.21159e-41 0)
(-1.9306e-32 1.50358e-37 0)
(0 0 1.42384e-14)
(0 0 1.48966e-14)
(-4.78939e-33 0 0)
(1.68675e-25 0 0)
(0 0 0)
(0 0 1.55708e-14)
(-5.12603e-49 0 0)
(0 0 -2.14113e-16)
(0 0 2.03966e-14)
(-2.96408e-40 0 0)
(0 0 0)
(0 0 -1.45042e-15)
(0 0 1.44655e-14)
(0 0 0)
(-3.85775e-33 0 0)
(0 0 0)
(-2.22336e-24 0 -2.00156e-15)
(-1.31059e-19 0 4.65414e-16)
(1.69303e-25 0 0)
(-8.7288e-25 0 -1.22435e-14)
(-1.62845e-24 0 -1.29044e-14)
(0 0 0)
(0 0 0)
(3.07584e-47 0 -7.42445e-15)
(0 0 0)
(0 0 0)
(4.14473e-38 0 -6.39249e-15)
(0 0 0)
(0 0 0)
(1.56768e-29 0 -6.36491e-15)
(7.94951e-24 -1.32517e-21 0)
(1.72716e-26 -5.70749e-20 0)
(1.28759e-21 0 -6.36589e-15)
(-7.05742e-36 0 -2.95041e-16)
(0 0 -1.68697e-14)
(-1.86479e-33 0 2.41521e-16)
(0 0 -1.21386e-14)
(-1.33627e-35 0 -9.3743e-17)
(0 0 2.1912e-14)
(5.33656e-45 0 5.43233e-15)
(-3.16831e-33 0 0)
(3.9237e-46 0 0)
(-4.87549e-31 0 -2.52654e-16)
(0 0 -1.12527e-15)
(-1.24261e-28 0 2.42092e-16)
(0 0 -1.67818e-14)
(-6.63402e-31 0 0)
(2.73163e-41 0 1.83655e-14)
(5.28347e-36 0 5.4308e-15)
(-1.21714e-28 0 0)
(2.59055e-37 0 0)
(0 0 0)
(-2.95047e-26 0 -2.53874e-16)
(0 0 1.3159e-15)
(-6.2312e-24 0 2.4001e-16)
(0 0 3.09523e-17)
(-1.96968e-26 0 0)
(1.17543e-31 0 0)
(0 0 0)
(1.48258e-27 0 5.39109e-15)
(-2.78346e-24 0 0)
(1.69195e-26 0 0)
(0 0 0)
(-9.57381e-22 0 -2.40787e-16)
(-1.40807e-22 0 -1.41587e-17)
(-7.95907e-20 -7.33789e-15 5.6846e-27)
(-4.64171e-18 6.43041e-16 6.2146e-15)
(-3.30953e-22 0 -2.33684e-17)
(3.45809e-23 0 0)
(-3.52545e-23 0 0)
(6.01179e-20 -1.26428e-15 5.21987e-15)
(-1.59872e-20 -6.95252e-15 0)
(2.71428e-18 6.58845e-21 1.44213e-14)
(-1.28936e-18 4.53911e-19 0)
(4.45955e-51 0 -1.58031e-14)
(0 0 -1.75794e-14)
(0 0 -3.36406e-15)
(0 0 -1.04652e-14)
(1.05477e-41 0 -1.61637e-14)
(0 0 -3.24189e-15)
(0 0 -2.02953e-14)
(-2.17015e-35 0 2.18737e-14)
(0 0 2.59881e-15)
(0 0 -2.02322e-14)
(1.55599e-26 0 6.18677e-16)
(0 0 2.72424e-15)
(0 0 1.84365e-16)
(0 0 0)
(0 0 1.73842e-15)
(0 0 -2.02018e-15)
(0 0 -1.17838e-14)
(0 0 2.26252e-15)
(0 0 2.70581e-15)
(2.47661e-46 0 2.75631e-15)
(0 0 1.68493e-14)
(0 0 -1.00773e-15)
(0 0 -1.93988e-15)
(0 0 1.64811e-15)
(0 0 -1.09553e-15)
(0 0 2.81965e-16)
(0 0 2.26252e-15)
(0 0 2.01445e-14)
(-1.57364e-38 0 -1.0329e-16)
(0 0 -2.82864e-15)
(0 0 0)
(-4.12704e-38 0 0)
(-4.20575e-36 0 0)
(0 0 0)
(0 0 -4.85176e-16)
(0 0 1.95791e-16)
(0 0 0)
(0 0 -1.45962e-14)
(0 0 -2.58247e-15)
(0 0 3.01657e-16)
(-4.10545e-34 0 0)
(-3.42704e-32 0 0)
(0 0 1.70676e-14)
(-5.16507e-31 0 -1.25059e-16)
(0 0 -4.18428e-18)
(-1.00622e-27 0 0)
(0 0 -1.39464e-19)
(-1.096e-30 0 -3.25486e-21)
(0 0 0)
(0 0 -5.60911e-16)
(0 0 5.93074e-18)
(-7.09743e-19 0 -4.3123e-18)
(-9.24188e-23 0 -2.13505e-14)
(0 0 -3.16876e-15)
(-1.45284e-24 0 0)
(0 0 5.73517e-16)
(-2.65639e-26 0 3.13582e-17)
(1.24944e-19 0 -4.84249e-16)
(-2.97623e-23 0 -1.41669e-16)
(0 0 -4.60904e-18)
(-3.09251e-20 0 0)
(-4.16022e-23 0 -1.44922e-19)
(-5.709e-23 0 -3.43874e-21)
(0 0 1.49922e-14)
(0 0 0)
(0 0 1.00728e-14)
(0 -8.26218e-44 0)
(0 8.94581e-46 0)
(0 1.0287e-43 2.85478e-19)
(0 2.27314e-47 0)
(0 0 -1.23989e-14)
(0 0 1.56021e-14)
(0 0 1.46614e-14)
(0 -2.64264e-41 0)
(0 4.95379e-39 0)
(0 2.72342e-41 0)
(0 -2.46535e-39 1.4362e-17)
(7.19479e-49 0 -1.43093e-14)
(0 0 0)
(0 0 -1.60178e-14)
(0 -4.96275e-47 -5.62458e-16)
(0 5.44544e-47 0)
(2.15398e-47 2.76605e-45 -3.74972e-16)
(0 2.62227e-49 0)
(0 0 1.15637e-14)
(1.71395e-44 0 -5.58795e-16)
(0 0 -1.54223e-14)
(0 6.31462e-44 0)
(2.73562e-42 2.97311e-40 0)
(1.3736e-44 1.84425e-42 0)
(0 1.14231e-41 0)
(0 0 -3.53e-15)
(0 0 3.28769e-15)
(0 0 9.57675e-15)
(0 1.55882e-34 0)
(0 8.96184e-37 0)
(0 9.57985e-37 0)
(0 1.46322e-34 0)
(0 0 -1.23989e-14)
(0 0 1.36239e-15)
(0 0 1.46614e-14)
(0 2.31332e-32 0)
(0 2.93547e-30 0)
(0 2.17186e-32 0)
(0 3.1462e-30 0)
(0 0 1.22226e-14)
(1.55912e-39 0 -1.432e-14)
(0 0 -1.50394e-14)
(0 3.09792e-37 0)
(5.05025e-40 5.68984e-38 0)
(0 1.97888e-39 0)
(8.6118e-38 7.47409e-36 0)
(0 0 1.26678e-14)
(-5.73858e-37 0 0)
(0 0 -1.60824e-14)
(0 4.78175e-35 0)
(1.97246e-33 1.20082e-31 0)
(1.36219e-35 1.22608e-33 0)
(0 7.11037e-33 0)
(0 0 0)
(-2.05144e-36 0 0)
(-1.77499e-34 0 0)
(0 5.43347e-36 0)
(-5.76606e-33 1.56351e-33 0)
(-1.06135e-34 2.50502e-35 0)
(0 7.37336e-34 0)
(0 0 0)
(0 0 -2.45199e-15)
(0 0 1.36517e-17)
(0 4.08389e-26 0)
(0 3.53876e-28 0)
(0 3.79536e-28 0)
(0 3.80844e-26 0)
(0 0 0)
(0 0 -2.3224e-15)
(0 0 -2.91753e-16)
(0 3.82058e-24 0)
(0 2.87494e-22 0)
(0 3.55673e-24 0)
(0 3.09232e-22 0)
(0 0 -1.61465e-14)
(-1.00804e-33 0 2.79143e-15)
(0 0 1.14822e-14)
(0 4.55708e-29 -3.74972e-16)
(2.63875e-31 1.65647e-29 0)
(0 1.05621e-30 0)
(3.27957e-29 2.04796e-27 0)
(0 0 2.30263e-15)
(-1.69497e-32 0 0)
(-1.19487e-30 0 0)
(0 1.23635e-29 0)
(-6.92936e-31 2.22075e-31 0)