/*--------------------------------*- C++ -*----------------------------------*\
  =========                 |
  \\      /  F ield         | OpenFOAM: The Open Source CFD Toolbox
   \\    /   O peration     | Website:  https://openfoam.org
    \\  /    A nd           | Version:  9
     \\/     M anipulation  |
\*---------------------------------------------------------------------------*/
FoamFile
{
    format      ascii;
    class       volScalarField;
    location    "0.0024";
    object      p;
}
// * * * * * * * * * * * * * * * * * * * * * * * * * * * * * * * * * * * * * //

dimensions      [1 -1 -2 0 0 0 0];

internalField   nonuniform List<scalar> 
19704
(
166767
119030
101301
102616
101298
101298
101298
101298
284363
290135
179983
130943
101298
101298
101298
101298
255370
206873
307876
225241
300330
291759
246670
240849
269003
261446
142968
330848
194351
312818
323584
184858
317969
106461
104638
339008
338137
337605
155364
331175
103752
335371
101878
331625
251024
271504
266786
315887
313829
321449
322985
248196
262157
263733
311878
312495
320479
320109
269263
277985
286111
318592
321660
324929
326924
278889
305130
295380
327597
324804
328853
330247
301519
280750
282261
327082
331454
331172
327045
290062
304052
285344
327545
331066
331113
328334
296100
318637
303101
330711
329390
330301
329609
266046
307682
164169
255359
160957
334304
339221
192610
198539
273675
179454
170187
342293
338197
202460
204665
160244
169255
170060
180058
180999
192175
191115
162178
173654
171439
185057
182584
194001
196830
166830
176602
188323
180337
192445
200582
205381
174355
190790
185014
204151
197644
211494
219244
179827
193705
180757
206033
222407
223842
204817
257108
207280
208509
224468
282335
223053
284102
184877
195607
182359
208180
230531
226464
211483
213974
260570
210651
227072
293540
231177
287823
188229
207516
192503
236197
215924
221726
243840
218500
283457
224453
301043
236955
244937
309828
222167
197914
213997
229322
267870
254241
239232
295054
242869
232324
255467
329204
268970
319484
246690
310871
334906
275582
277473
244971
312244
250106
319793
336623
288033
281548
255533
315259
325534
296740
263165
273261
345031
307574
331950
324911
319176
310919
330485
323297
327290
329307
343645
301052
332262
319771
345933
346483
286074
325520
288909
326854
322641
266782
320754
272593
193183
101348
101304
115564
101369
101307
122128
327710
293311
328318
323862
278266
324682
276298
318755
331917
332137
331356
330671
323650
324774
334689
320651
333100
328447
329819
321915
319142
157547
101311
101327
104664
101300
101303
112279
277866
321018
323643
258596
318122
314450
247185
337800
327276
336549
326338
323070
315067
309252
317383
222164
308205
256687
306846
318427
254203
257164
312321
317383
309396
211745
302342
231752
315710
241695
300788
216128
304501
313086
249352
334898
337921
336301
310886
318145
300852
288015
140814
160453
113774
147082
143842
117113
171834
176592
144357
149367
129079
119196
179817
195301
146668
157803
114389
121732
120137
122367
120645
128019
127453
115535
123138
125164
123510
121655
129071
130695
121872
125136
127331
130088
127716
132868
135642
125168
134851
137550
133492
130947
139113
143313
130774
141494
131428
136550
145687
146356
135936
145405
133292
131788
139189
155374
140874
153499
130362
144396
130843
138162
151739
137609
152372
142608
134247
132550
137648
149437
147529
139404
135348
152287
137993
157920
143161
146091
161175
136481
149610
139307
152007
141767
144765
155273
145413
155954
141330
149774
170239
154279
165252
147062
153303
142826
148514
164316
159354
153058
146755
156122
160967
172686
156842
146126
161698
147892
165107
174188
160227
158126
149770
162990
167970
163082
152322
155583
183915
166720
171616
119625
127616
147505
154369
124596
127704
159188
155933
125923
144603
142118
127423
125925
142403
144351
123435
133495
138366
120916
123769
139521
136058
157187
159276
153445
155210
150712
152068
157472
141666
151840
146522
148724
151302
144960
154666
126433
129114
128063
146449
144891
143307
145011
122432
125144
126703
140987
141110
143254
138282
156108
166976
162423
154238
165655
157587
160866
164126
158652
162352
154024
156084
149073
151800
169725
129119
145122
113131
144007
116920
148840
148070
168222
141423
119089
152087
149679
158448
166184
167893
155304
159490
154347
158792
143919
152449
152551
152004
141515
154927
157211
142954
151828
150798
145009
142158
140003
149864
139570
149549
148968
164106
169097
163410
160040
167763
167824
159996
124324
113949
125203
137418
123186
123970
136720
141023
142214
149455
148920
140315
149489
151127
115254
126986
126068
138047
126712
138587
125172
162192
167214
160612
159717
167515
167719
159124
128190
121862
130040
128675
139235
140458
131208
158815
165776
157467
167298
158389
158154
167603
135776
125216
132545
142454
138124
145272
134361
158224
166351
157229
158863
170839
168739
160590
148841
158951
134012
145823
159429
134759
148254
149325
146798
137228
160210
159858
149675
135849
138961
160629
150052
150953
151839
161546
141237
152669
147860
154743
165952
163283
155279
144196
159670
181711
189032
176778
171261
164647
176166
10856.6
52714.6
52674.6
99692.1
105125
73004.1
69111.5
109569
90358.2
42805.6
8378.62
43381.7
76811.3
64737.5
43434.2
58462.6
66819.5
52612.4
66267.7
70733.6
56844.1
56973
70842.1
43430.9
32731.3
32564.6
46394.1
39824.3
46673.5
40133.2
53222.8
65457.9
66184
71067.8
58585.5
57946.9
71230
84117
103726
83057.5
86323.5
106293
87012.3
105178
32703.1
43606.9
32491.5
48404.4
47712.5
40957.1
41986.3
8486.85
19070.2
18878.2
21345.2
28952.2
29358.4
22172.3
20306.2
9040.89
18932.9
30475.8
29433.7
33052.6
24422.8
80593.4
102126
82118.5
85787.3
102325
85184.6
103879
75609.7
62355.5
69806
80822.2
81233.2
62725.9
75479.9
51264.8
59520.3
54486.5
46058.7
51793.3
46838.1
56017.5
76198.3
65444.1
71164
83181.8
82120.2
63910.2
76892.2
94508.4
110646
107883
90031.7
110223
94578.4
107120
55444.4
61808.4
53404.2
48559.5
62316.9
58786.7
50954.1
67119.7
55639.4
40878.2
42164.1
69718.2
57907.5
45387.2
44631.4
53983.1
65695.3
73108.8
61430
48533.8
48797.4
89953.1
105423
95631.6
109892
95019
90051.3
106293
48397.3
56999.4
49004
15813.3
41633.8
89127.5
81239.5
79765.7
67965.7
51481.7
89777
95982.1
84469.7
74968.1
110466
89769.1
33505.2
42207.6
35686.3
48922.3
43233.3
45855.2
50794.6
63678
51643.8
63057
58835.7
70494.9
70409
59817.3
23389.9
24955.7
28492.8
37044.2
37154.8
42930.8
46107.1
78035.4
91958.5
75856.2
99953.4
83942.4
82821.3
97412.7
44173.8
36459.1
35662.2
50168.2
64766
57983.3
55808.6
53626.2
66479.9
64193.3
71845.5
65541.5
74333
62101.9
45125.3
44670.8
39593.1
50290.1
59058.2
56298.3
54139.6
60036
70055.2
53363.8
58969.6
82709.4
74432.1
66458.8
57693.3
66206.4
53834.9
57634.6
71606.9
70457.6
60685.9
77654.2
90259.6
76164.5
83378.1
96255.1
85062.8
96248.8
66758.6
84229.8
77224.5
77965.4
77223.5
85755.1
68299.7
96008.4
104161
109131
89696.6
108582
96716.3
102798
65054.4
77508.6
83397.5
85896.3
78911.9
70978.5
72543.3
62557.7
70005.9
80644.4
76095
75303.2
68409.5
64785.3
79723.8
74720.4
80404.5
91354.2
88078.2
82593.5
70963.8
90658
103154
100413
108990
98083.8
92598.6
102332
134821
103298
114226
142195
115349
123506
160500
159948
108472
127375
117011
121269
112790
131669
127133
105184
115966
117795
108961
110219
124179
122651
135790
137719
130276
147535
140679
136639
144339
119755
121916
117046
138788
135119
131851
136486
125979
135421
127309
134308
142408
133409
142627
115096
121231
121915
129642
135288
135170
128817
151977
153459
146102
143214
159083
149933
151282
141568
150801
149382
158935
149014
141281
150386
230948
295391
309357
304181
178889
287500
216475
338621
334906
335909
308409
281407
278785
310043
331001
338441
333437
305514
265178
273598
300836
296972
176936
260350
161358
276102
286346
198218
321765
337312
327286
252470
293747
283069
234965
107364
101302
110239
101675
101299
101299
101537
181753
291471
289550
259789
144740
262538
142398
280014
175687
285906
254331
131721
245583
137884
325425
301158
313606
267826
184164
211879
245935
101300
101300
105947
101299
101471
101301
101299
271457
142363
259558
124563
233171
216356
117626
196038
169361
166737
113172
112517
107616
107983
220558
129854
242796
195230
107642
171057
111844
187835
154524
161760
109801
111343
106943
106052
213154
117680
106124
161340
158299
216673
116604
206077
111932
105478
143564
152224
195284
114563
169787
145346
135301
108094
106421
105061
104088
143941
117101
125566
103685
104925
103218
102523
109209
133710
181012
164107
102948
123771
106778
131418
118599
136747
104219
102403
102644
103726
120896
142740
140644
104587
102924
102827
104783
145850
103364
102317
109354
115354
129326
104818
125113
109213
118772
102144
103180
102658
101902
108870
106646
113196
102215
101543
101698
101874
109699
104839
104623
101981
101940
101541
101557
108686
103653
104206
101757
101861
101509
101468
104617
103059
102516
101645
101541
101424
101384
103483
101760
102078
101391
101455
101352
101330
101299
101298
101298
101298
101299
101299
101299
102246
101365
102194
101792
101337
101821
101334
101973
101358
102099
101738
101325
101665
101330
102521
101650
102442
101380
101324
101322
101385
213579
102376
101371
101298
101298
301741
119836
101298
101298
193173
347365
320491
346657
232446
285918
294276
333530
136282
219299
104363
126937
338028
335841
185649
197888
212246
206609
222396
229139
241967
202350
230633
217343
252749
235435
259163
281459
213058
245586
223453
285176
252367
269662
305567
111281
316463
335489
101600
315696
164070
101322
256759
332489
274347
338009
285717
304739
344852
313389
315169
324968
329902
330448
330108
327478
253349
262927
236474
291320
347675
327747
315928
342177
317894
295391
324478
344266
341829
347260
324504
338421
333164
321673
327951
321704
311424
317588
343606
342338
333632
334173
352030
346117
327266
338433
334025
316848
326076
320214
306874
171132
158705
172342
133645
202935
163206
186034
237913
138904
139492
142314
147860
144938
148313
154212
151301
151892
144950
161741
154289
161123
169190
156171
165880
150330
176236
159688
166116
183381
152100
169618
158017
170264
158494
164922
177316
76847.7
102455
147723
81444.3
59472.3
54925.4
93017.1
75803.9
108870
105910
79281.8
61341.9
91194.9
86191.1
105139
107071
126324
112934
136089
103572
116404
161969
136115
175923
53227.2
67400.2
61661.9
71382.8
65303.9
72295.1
77546.1
52037.2
61771.5
59834.5
65111.2
63223.7
70579.1
71766.2
70021.8
66538.5
74326.2
69971.5
77860.1
82160.1
75295
80041.9
93862.2
83588.2
97937.8
87385
90879.8
100708
76795.6
74560.2
69471.4
78963.1
90136.1
85806.2
83693.9
82290.5
87956.9
76816.3
82584.2
97637.9
92998.6
87434.3
116528
105446
109655
118421
123070
111842
124758
76049
69207.3
67974.7
78042.3
86020.1
85337.3
78771.6
74751.6
86385.2
86691.2
81431.1
92629.3
92273.5
82028.8
85363.4
72649.2
79481.5
87384.1
87795.9
81274
93430.6
79256.9
95191.5
89018.2
90672.9
94312.6
84501
99924.6
93187.9
97671.7
87996.3
95322
109649
100653
104672
88645.3
99264.7
102939
105412
98779.6
95258
93068.7
95082.8
112802
103218
98695.8
116238
107153
108130
126968
138819
129424
143859
134524
136933
146706
108619
125197
121309
119827
115250
127669
131819
123772
136659
129586
126700
118904
131559
139180
88055
95669.1
98955.8
105260
98428.5
94949.7
88617.9
96034.6
97044
100297
111913
90392.9
105488
102291
103282
117557
120731
117918
111992
108851
112325
137692
142700
133039
140501
155967
145116
150751
152455
150829
142521
144946
165378
153497
155533
127509
130798
122609
134796
148033
142927
139374
148503
165303
169996
162397
157289
153240
159794
150987
155806
133611
143169
163049
170540
174694
183281
146316
145079
151296
148937
154554
153846
157681
150504
159349
153666
164577
158972
162539
168473
139705
138693
144313
142543
148925
153412
147670
160353
174515
163891
174030
163426
167429
178405
155745
149630
144451
158754
160425
165053
153584
186385
168654
179771
172577
190903
183999
178920
152303
169639
158846
163373
168635
174399
157580
168909
171096
175323
187496
180304
175557
163792
188975
179978
163058
173687
201966
182557
191854
173035
164945
177175
172480
195301
185613
181313
188393
183390
170625
177712
212251
191236
196412
186059
217807
223692
211455
200493
195843
206066
346919
328943
319835
352793
355563
355019
340865
331333
338370
337275
310421
264015
290549
294054
101306
101299
104028
101511
101299
103234
101299
305127
192547
294501
187559
292050
276335
161440
338038
331994
300029
323999
282612
268757
240562
252771
163418
277830
253308
118729
220224
136730
154354
238078
270812
248571
115059
208625
133402
328826
287373
310673
217153
255762
202953
161559
281447
251569
299982
155102
216605
181443
130277
217666
108880
108027
141532
174268
179994
117851
234033
210457
274048
146718
106389
114101
121437
101298
101315
101299
101299
101298
101299
101298
192877
106532
162713
104849
146483
126125
103094
111831
110789
106633
102741
102105
102024
101696
103824
116568
135312
112831
101637
106187
102114
102396
105594
116606
108831
101440
103379
101833
106878
102583
104069
101493
101714
101496
101388
105811
102310
103773
101435
101631
101475
101368
104745
101391
101359
101651
102195
102698
101535
101847
101784
102517
101384
101312
101331
101336
101298
101298
101313
101298
101298
101298
101298
101298
101298
101298
101298
101298
101298
101339
101324
101333
101298
101298
101352
101298
101340
101352
101298
101342
101299
101355
101298
101298
101332
101319
101306
101298
101312
101298
101298
101333
101298
101335
101298
101314
101318
101325
101298
101298
101300
101298
101300
101298
101298
101314
101304
101300
101298
101302
101298
101299
101300
101298
101298
101298
101299
101337
101833
101696
101319
101585
101507
101313
102090
101601
102289
101369
101314
101319
101354
101318
101387
101305
101476
101574
101440
101308
101548
101349
102031
101673
101421
101324
101306
101883
101413
101697
101310
101339
101326
101306
101546
101306
101317
101417
101410
101561
101316
101298
101298
101298
101298
101298
101298
101298
101350
101302
101404
101302
101356
101326
101300
101517
101311
101378
101305
101396
101478
101314
101308
101338
101441
101368
101548
101315
101303
101308
101359
101437
101397
101302
101341
101306
101472
101320
101353
101303
101310
101302
101300
101315
101339
101301
101364
101301
101326
101303
101300
101303
101308
101318
101373
101334
101301
101335
101345
101341
101302
101302
101302
101302
101347
101350
101345
101303
101302
101303
101303
101345
101342
101348
101303
101302
101302
101302
101355
101350
101352
101303
101303
101303
101303
101343
101348
101349
101303
101302
101302
101303
101356
101352
101353
101303
101303
101303
101303
101298
101298
101298
101298
101298
101298
101298
101302
101346
101343
101315
101300
101316
101300
101330
101328
101335
101302
101301
101301
101301
101340
101331
101338
101302
101302
101302
101302
101335
101326
101327
101301
101302
101301
101301
101335
101327
101328
101302
101302
101301
101301
101330
101301
101337
101313
101300
101310
101300
101329
101325
101322
101302
101301
101301
101301
101298
101298
101298
101298
101298
101298
101298
101322
101300
101314
101299
101307
101304
101299
101300
101311
101327
101311
101299
101304
101299
101319
101314
101320
101301
101300
101301
101300
101324
101315
101319
101301
101301
101301
101300
101314
101320
101320
101301
101300
101301
101300
101321
101312
101315
101300
101301
101300
101300
101318
101323
101317
101301
101301
101301
101301
101307
101320
101300
101310
101299
101303
101299
101318
101311
101316
101300
101300
101301
101300
101310
101309
101313
101300
101300
101300
101300
101300
101306
101306
101311
101310
101300
101300
101310
101309
101307
101300
101300
101300
101300
101299
101299
101304
101299
101308
101302
101299
101299
101300
101302
101304
101313
101300
101299
101300
101304
101305
101307
101309
101300
101300
101307
101302
101304
101300
101300
101300
101299
101300
101300
101303
101305
101303
101300
101300
101303
101299
101300
101299
101300
101303
101299
101302
101299
101299
101300
101300
101301
101299
101299
101302
101302
101301
101301
101299
101299
101303
101299
101299
101299
101300
101300
101299
101299
101301
101301
101300
101300
101299
101299
101300
101299
101299
101301
101301
101299
101299
101299
101299
101300
101300
101299
101299
101299
101298
101298
101298
101298
101298
101298
101298
101299
101299
101300
101299
101300
101299
101299
101299
101299
101300
101300
101300
101299
101299
287816
246049
272999
269938
305106
300028
271929
271256
310277
232041
294917
274290
242969
290988
267852
308212
233690
253362
325945
160116
319426
287400
227942
299044
233218
312295
243674
231786
242149
304347
311731
231384
242524
241753
304050
303982
311463
311495
236405
244403
247532
304796
306303
312166
313520
240478
258509
252211
311541
308611
315627
318306
326327
319574
256849
271347
255232
319194
326199
270977
255729
254844
319006
326013
319005
326102
262704
266642
276740
315138
319253
321416
324675
257876
278219
261464
326373
319586
320781
327191
273681
283849
266741
322559
329492
324663
328318
274254
301086
288664
327128
323466
327588
329972
282349
307807
292566
330713
326864
328887
331355
332482
309586
334749
311095
335432
333233
301663
311367
334605
335391
333274
300879
332552
301993
304966
333570
332225
298649
331545
330126
295034
314004
316924
303160
330560
327610
330623
330652
328886
300609
330699
328322
282993
325990
289957
323867
287524
329152
330053
272310
289463
324942
330180
272829
324330
288589
329429
289875
325141
322979
285869
328282
326563
262317
281395
320891
326561
323543
277208
273608
322964
318993
261148
324294
266328
314115
254302
321316
275011
318010
263530
244826
313626
313582
221237
244122
305913
254703
308859
317402
312133
208521
238688
301647
165195
131904
128865
179577
140171
173277
188844
140109
211877
124182
188071
197531
141160
213661
225895
147559
125288
189362
138646
142827
224132
202013
270665
233147
150874
123859
123691
128723
141124
140525
145606
146255
123713
129065
128678
140722
140293
145348
145777
126954
130123
131712
141872
143647
146933
148701
148908
129209
136542
133904
146016
151076
153962
165111
236684
289147
340198
298069
199952
182171
158346
134225
139912
134061
151221
151962
157474
139747
134319
133961
150946
157735
151422
157195
135377
142698
136949
158952
152611
154380
160748
135056
152292
139659
143338
156200
157386
161416
144837
141706
139069
156745
166293
159689
163202
147628
152593
147608
166070
160764
166141
171705
161628
187763
160726
166073
195219
167043
194059
187469
160982
160449
165795
194447
166370
193771
144905
154846
148677
170015
163242
167439
174500
162177
191306
164004
195845
167626
169535
197927
169576
193991
166490
172078
204829
175275
200891
158395
159587
153142
172437
186471
179917
178403
180562
212710
202962
172205
211297
201690
179381
171924
210996
179827
202161
172570
201398
179099
173271
207634
177691
209829
179177
183851
216254
158378
153137
159506
172261
178299
179577
186203
181267
203714
173911
175895
216453
206072
183402
178590
213993
220518
190062
182012
209485
186350
189315
214807
182962
189521
235847
224623
196443
171736
171798
164541
194455
185578
194296
204262
172962
166895
175501
199028
188347
195803
207615
219849
194639
186179
191265
242766
227494
200299
197507
216223
251240
255131
237831
207334
205199
197041
250615
204939
253258
206534
215628
269355
188819
190210
180181
205000
231848
218264
216370
227763
268212
214860
227422
308363
243207
288500
274187
234522
218570
229610
313629
248763
291524
101634
147799
108073
121811
117291
111834
113461
123659
93746.3
90393.3
98572.2
94378.5
97899.9
102312
105458
106732
109407
102316
105269
97755.6
102053
109186
104318
99020
102665
111387
106564
109809
114787
108706
124034
120709
124911
112597
115749
128272
112412
123460
118108
111689
106920
113668
118812
81735.7
124758
177640
118598
106116
94211.5
125534
82799.3
110470
85373.9
95271.4
101173
126430
119059
106033
111673
83126.9
85650.6
90143.1
87314.1
92057.2
94558.9
96147.7
190615
118129
190226
123983
121545
93563.5
97060.6
89988.2
85894.4
91663.9
88638.6
88477.4
92617.3
93166.3
87707.4
91546.9
89326.1
96078.2
94004.1
97818.5
99764.2
116950
117819
186474
114242
117804
100567
104180
96995.8
89673.7
94020.3
97126.6
102608
97813.3
101893
90175.3
96859.7
91858.8
103703
99043.4
100376
104886
102184
114452
109663
109228
97438.2
102240
114222
109622
98641.2
97373.1
102325
115270
103464
114604
98773.9
96028.4
93760.8
101954
108591
103913
106498
100232
113234
101859
116296
104747
106104
117709
117803
115334
103784
107866
122060
109961
119702
113889
109943
119420
107153
124905
119383
112244
107337
125143
113257
120233
108297
119712
112514
114153
121170
109338
110523
127719
122505
115253
114284
126753
131973
112216
129581
124424
116916
119591
115475
127890
132268
136682
119428
132171
116947
129628
134936
120144
138499
133041
125146
133798
128346
141806
123936
142763
137080
129127
139228
122735
118264
128457
152834
143255
135404
125933
111871
114031
107342
112891
117561
119230
123694
128767
123141
116966
128821
122840
128859
134823
119056
130962
123891
131820
125120
129858
136883
124201
137220
141857
142884
129421
133957
147845
135618
129384
136707
135358
149622
142780
141724
133420
153704
147301
139284
160611
145533
153707
142308
149425
157021
140297
162898
147636
154802
161299
178029
168660
169853
161168
153922
146064
115459
131893
116116
104720
147415
148176
125410
138986
120381
114517
122291
126084
119906
121618
126521
88424.6
113158
109102
319724
84690.4
89402.3
119662
105546
76438.4
81495.7
100181
271535
115664
95182
97598.2
107299
77547.5
122906
93801.3
71570.5
78177.2
81930.8
88973.1
74623
84697.2
302834
334304
249027
260390
174880
228712
132332
123660
110933
81284.7
140436
101321
129053
99747.9
101347
109649
126156
110148
95573.3
84036.9
99007.5
72702.9
86964.6
82638.2
79860.1
76188.3
86707.7
90520.2
101047
97081.9
90669.3
101375
96772.6
94013.6
101774
80024.7
95591.2
90543.8
84160
78621.4
89289.1
95284.2
202252
102359
139849
85023.4
98687.8
91630.1
91513.7
319110
148537
193838
156164
191988
108561
109055
84322
80501.7
77572.6
81804.7
105116
82638.9
81041.7
92005.8
84383.8
86737.3
97398.7
94979.4
89458
99941.9
105329
106496
99647.4
99373.9
114548
108014
105714
86412.6
84283.9
80876.8
91718
99902
94931.3
97199.7
96908.4
100367
92141.7
96744.9
109781
100778
105428
88709.9
98911
101717
105442
94572
96406.4
101880
118798
107467
117137
97501.3
109961
100305
107255
79563.9
78721.2
81620.4
81866.7
86222
85502
83215.2
121707
39839.1
34321.6
36664.9
117121
212256
87177.9
243120
47661.5
95675.6
97370.3
75662.3
131679
124016
63146.7
205531
168697
213078
156297
173237
166030
209498
10750.6
19515.9
76951.5
99378.5
20186.4
51245.2
39972.9
97212.9
145335
125739
101552
143790
130543
85597.1
89743.9
151471
197274
140999
94203.9
75456.8
177008
227986
180553
150232
187073
173375
158402
210166
61236.1
80770.2
45550.6
99328.3
28871.3
49014.7
56518.2
102239
74512.2
56872.4
116641
76168.5
59939.4
140422
58879.5
78686.5
35308.5
39244.9
49852.5
68988.3
68542.3
34042.4
87189.8
49428.5
129597
46365
83861.6
174767
125260
250473
25066.5
34964.1
42445.3
44887.6
45322.3
50026.9
31406
47575.4
45396.1
46523.5
51751.2
50895.8
50957.4
53418.6
53392
51739.7
46808.2
73379.1
53221.6
55276.8
63127.9
47817.5
80319.7
61136.6
94625.3
75630
62957
121149
54145.2
53053.8
50105.5
54755
61815
57201.3
58025.1
72571.7
104571
62224.1
109082
110657
151021
82847.1
36733.9
14510.7
17661.1
43044.4
20492.2
42759.8
23694.6
97253.5
182095
145869
141998
208519
189365
168485
57326.2
57789.5
64746.8
75490
60048.5
58113.7
65907.8
52724.2
64905.5
86241.4
55825.5
64087.6
40965
64897.4
104475
64958.4
109146
99893
73500.6
83651.4
133268
130646
105316
120438
153871
90576.7
147080
152631
49906.4
26993.4
56505.5
39819.6
49667.8
30722.1
58145.3
144437
146953
140347
205919
185823
112805
168557
172089
224954
232492
189655
210598
179085
186480
59602.4
65054
65870.9
67721.6
60962.3
62803
65471.4
4808.57
3886.52
8583.17
4064.39
9246.52
17465.1
5025.36
4637.05
22064.5
10131.5
4683.59
34968.7
14722.3
5665.72
19160.7
4032.07
5915.33
4071.49
6408.61
7978.66
4227.04
4101.09
3851.14
5030.61
3902.82
4198.36
6817.13
4298.42
8138.47
38069.1
75020.1
52066.3
54989.9
23834.1
9155.52
35926.6
3938.34
3937.48
3898.49
3847.64
3891.81
3835.56
3907.52
5994.56
12782.3
18026.2
8920.22
11639
4674.35
4254.17
19949.3
7641.26
26948.4
5085.39
11956.9
5378.81
16454.5
4812.67
3916.35
4461.81
3927.39
3865.7
4080.88
3893.69
343436
285163
323443
316860
274794
114487
118598
162682
153768
252069
296951
269394
325429
284164
330156
341905
263946
248195
215833
251091
369406
93220.7
95496.9
263452
185795
318080
115707
230164
254653
125429
312715
355236
350696
367703
356101
361424
342652
311247
224909
278905
354767
369181
309561
234715
90154.6
92552.8
166109
171905
100561
102536
126903
186400
297729
334243
250557
115766
126302
211834
210938
180012
209824
246256
251819
279495
243393
291467
336236
279993
275228
299260
303964
290727
382999
362920
389017
310211
198648
275662
228737
165988
127484
108943
110391
109097
145332
130552
247234
339526
296797
310126
303457
334319
273112
255610
213214
265701
277296
255304
212952
272729
382526
367548
347134
322929
271186
288345
332966
189873
146803
244309
246456
91717.1
175899
138205
257728
409631
243896
194511
323982
253927
208250
100138
229615
267879
194676
228086
230223
264687
294982
142923
118951
170775
141470
192541
224467
164746
241727
282795
279396
277033
328050
311957
285790
157059
181252
137206
196502
186435
237709
242216
289814
286206
255410
295544
377943
341523
332840
240253
208077
179834
246054
222361
256919
282923
270318
233965
223426
272061
323928
282254
305612
315849
384596
386616
403503
369069
334204
362562
285478
302014
260883
199768
209040
292161
288029
244310
120722
138019
91201.2
157035
129418
234214
39540
51055.8
24033.2
45331
36968.7
4555.79
13363.4
21665.6
5997.08
4298.51
3856.42
32933.2
71171.5
76983
64074
30260.4
61128.1
28099.6
4207.31
9536.28
4968.52
9829.49
5037.1
7038.15
15671.3
14122.1
20369.4
31148.9
21203.7
33565.2
34399.7
26194.7
3894.99
3833.27
3988.26
3856.28
4026.27
4493.18
3928.84
41828.5
56103.2
40225.1
61923.3
44914.7
45065
61152.5
43347.5
27338.4
5667.56
67896.9
72954.5
43521.5
45719.2
80516.2
69024.8
34385.5
90054.9
71361.7
53703.8
84998.8
23586.8
16537.6
7403.03
12189
28365.6
22141.3
19602.9
15549.3
11886.7
6976.47
11733.5
26946.9
18301.4
21543.5
42569.2
27682.7
37289.4
39334.4
35641.2
30847.2
45447.4
38386.9
26033.5
33951.8
38255.5
33909.7
43290.8
30189.1
6282.66
3986.39
4595.84
5874.98
6004.94
10308.2
4390.1
5745.76
3882.83
4453.98
5715.95
5549.58
9379.75
4314.05
54623.7
65551
48821.1
50683.7
71764
66186.7
57199.5
49334.7
59744.4
44204.4
49143.9
68067.7
54343.8
63970.4
43735.6
40165.8
54538.4
39252.8
48822.6
34312.2
49838.5
18574.5
32322
32251.1
31466.4
24875.4
27293
25684.8
18734.2
31398.8
24861.2
32091.1
25651.7
32085.3
36762.3
43862.3
39214.5
48805.7
40135.6
49854.1
54421.8
45176.7
9546.65
26889.3
11124.2
10364.3
16819.3
17648.4
5646.1
9736.88
10397.6
16861.1
11270.5
17785.4
26678.2
23949.5
54930.3
64804.1
73908.5
72305.2
59410
68863.6
60610.9
55079.9
72344
59426.1
74009.5
60628.6
64694.6
76956.1
37451.9
23261.1
26267.2
37243.6
53785.6
48519.9
39385.9
59589.3
44791.3
54012.3
59484.5
57218.2
50924.8
65261.6
39592.1
36456.1
31780.4
39393.6
50884.9
47967.7
43175.9
26161.2
40331.8
28174.8
38145.3
56099.3
50319.9
40644.8
37958.8
41892
33283.2
40106.3
52382
49473.4
43911
46607.9
62660.4
56065.1
60469.7
58764.3
67085.2
51749.6
69292.3
76241.9
64175.4
69205.9
84876.6
74489.1
80476.4
79349.3
73044.7
66605.6
70390.9
87569.5
76745.3
81911.7
90245.9
95320.8
85113.8
86145
91991.5
86026.6
93439.7
102162
114479
116555
107689
105357
110403
119645
104274
115111
107677
110105
101016
107598
113647
92873.5
96718.2
92861
103624
98852.2
103651
108432
117072
119559
112438
113424
104779
109505
117392
101992
116555
110372
114488
105338
110886
107560
94624.2
92569.6
98089.1
109781
103271
105722
112070
85061.2
89106.4
89270.7
89768.3
90281
95455.1
93936.2
48835.9
64076.5
67978.3
65079.9
59574.6
58715.8
54256.4
88464
100687
94538.1
91527.7
92637
88507.8
96573.3
48209.4
59165.3
66624.6
59905.7
57926.2
57171.3
51139
95920.5
91286.1
85525.3
74985.7
86385.1
81237.7
80187.5
65642.9
63915.8
78050.5
64664.2
72239.9
57507.7
71373.4
114199
118681
109345
114212
128493
118968
123646
106763
102673
97471.5
109344
119298
115324
113798
122553
120013
113572
116172
131804
122504
125451
105076
95166.3
97301.8
102260
105659
99414.9
109791
122407
120408
116167
114509
126572
119907
121690
101281
93796.6
95068.4
101062
104038
107176
98716.4
125654
125168
130586
130542
135739
131853
137772
109830
113689
107965
110996
115146
120631
116139
132282
135731
128801
136869
129065
133530
140974
135557
129269
134042
119820
130816
126107
124530
115896
120539
113586
107690
110543
104278
114945
141538
143068
136499
138540
151321
145737
144190
121702
126496
119832
126516
128045
132930
121790
117883
131031
122841
128024
130509
135900
123016
142567
134964
139861
133666
136200
141327
128681
244362
326111
328227
289943
267192
263943
309445
304845
275552
191758
185239
217706
291225
294253
7299.95
80233.8
9495.17
3745.58
3760.87
5243.14
36963.9
4709.47
39826.1
92501.1
42095.7
51566.1
47363.1
49759.4
96766
103737
11619.3
4366.73
4562.1
22602.4
6377.28
7205.89
20298.8
53850.9
29594.5
32347.7
42249.9
56642
55626.3
40740.5
7685.6
4290.9
4242.97
5813.4
15413.7
5878.62
17180.5
3829.09
3826.33
3784.81
4081.25
3729.09
4151.24
3729.6
95593.9
65889.4
68899
100153
72373.3
69476.5
97454.9
48355.2
21187.1
24972.1
54777.8
34000.6
38051.9
49860.2
89155.6
55938.7
63663.3
67768.4
87333.9
62596.6
94140.3
3740.37
3809.36
3823.5
4037.92
3744.07
4092.88
3732.12
48053.3
62763.5
58647.3
57654.4
49575.1
61858.5
47327.4
32187.9
13370.1
39402
24409.1
23674.6
14837.3
31129.7
12005.2
27118.8
22403.9
38642.6
22697.3
11739.5
29239.2
5086.86
3907.01
4709.29
9991.35
9445.66
5302.14
3894.53
57307
43222.4
49444
59429.7
61541.9
46502.8
54009.7
102691
80524.4
76772.3
74790
102244
79288.3
100751
4988.27
4053.32
9671.18
4826.06
9166.09
5186.34
3923.35
73002.9
92838.4
75639.1
100365
77989.9
69413.3
97924.8
22559.7
69691.8
8646.36
4374.46
3832.91
30148.8
40449.4
6380.16
35238.5
66450.3
31111.3
37159.6
49312.1
44714.7
83619.4