/*--------------------------------*- C++ -*----------------------------------*\
  =========                 |
  \\      /  F ield         | OpenFOAM: The Open Source CFD Toolbox
   \\    /   O peration     | Website:  https://openfoam.org
    \\  /    A nd           | Version:  9
     \\/     M anipulation  |
\*---------------------------------------------------------------------------*/
FoamFile
{
    format      ascii;
    class       surfaceScalarField;
    location    "0.0024";
    object      phi;
}
// * * * * * * * * * * * * * * * * * * * * * * * * * * * * * * * * * * * * * //

dimensions      [0 3 -1 0 0 0 0];

internalField   nonuniform List<scalar> 
57781
(
-0.817448
0.187307
0.346821
-2.03358
-0.156239
0.512552
0.0937877
-0.298818
-0.78155
-0.137582
0.122572
0.091966
-3.26437e-05
7.15695e-06
2.49424e-05
-0.000199169
-6.36806e-06
2.03711e-05
-0.021563
-0.00988493
0.00824532
0.00742191
0.00632791
1.17851e-06
-1.41511e-06
1.31079e-07
-7.67161e-06
1.11792e-06
-1.3073e-05
2.07767e-06
-2.30021e-06
-9.6308e-07
5.85548e-07
7.32448e-08
-5.07328e-07
-1.11959e-06
-7.94245e-07
-8.40424e-07
-3.45482e-07
1.02323e-07
-4.93923e-07
-6.58422e-07
-7.72172e-07
-5.61205e-07
2.35782
-3.34192
-0.321762
1.08426
0.421839
-1.02799
-0.953854
1.49601
3.3927
1.11693
-1.30845
-2.97802
-0.161815
0.481746
0.472445
0.20105
-0.553752
-1.2921
-0.196297
0.184542
0.162476
0.153096
-0.281091
4.51905e-06
-1.24854e-05
-7.7427e-08
2.61111e-06
-3.24236e-06
1.16237e-06
-1.26e-05
-1.31761e-05
-1.36007e-05
1.64289e-06
8.23859e-07
-1.67894e-06
-1.21978e-06
-1.77481e-05
1.06544e-06
1.17533e-07
-4.82771e-06
-2.1749e-06
-2.00864e-06
-7.87476e-07
2.09183e-07
-5.78264e-07
-2.96592e-06
-1.04479e-06
-1.4104e-06
0.519662
-0.39083
1.37272
3.39343
-1.20029
-2.67346
0.277316
0.689065
-1.01073
-2.64955
-0.220931
0.5884
1.98662
-1.78004
-0.439184
3.34527
-3.14453
0.953271
0.906327
0.0680829
-2.83455
-1.10542
1.95165
0.148065
-1.73112
3.36195
-3.0757
0.217402
2.58706
-3.39368
-0.110598
1.11539
-1.04499
0.136572
1.32763
3.33793
-1.16301
-2.56804
-0.64207
-2.97653
0.864113
0.664771
-0.890846
1.94724
-0.511971
-3.22074
1.01166
0.58761
-0.985349
0.655012
1.3941
3.40898
-1.21703
-2.72767
0.210555
-0.548751
-1.55444
-0.282414
0.220504
2.03505
-1.05337
-1.87123
3.24995
1.2083
-3.21619
0.718564
0.562861
-0.93729
-2.48533
0.30998
-1.80655
0.741323
3.32447
2.00179
-3.16987
-3.22039
2.17058
-0.452896
3.31037
0.606322
0.477775
0.0447481
-2.3431
0.668207
-3.17684
0.150638
2.15171
3.31212
0.0284104
-0.117971
0.00237433
-0.292624
0.0104346
0.0183733
-0.0761257
-0.0100849
-0.202498
-3.17486
-2.31388
0.147764
2.42044
3.13667
-3.14637
-2.31721
2.3968
-0.459492
3.07884
0.611713
-3.17379
-1.06585
2.15595
3.14141
1.20744
0.277121
-1.82011
0.193856
0.413058
-2.01565
-3.22278
2.17703
-0.760984
3.25463
0.915234
0.0134313
-0.0558217
-0.157691
0.00901498
0.890534
-3.12221
-2.28863
2.32953
-0.756898
2.94568
-0.0132448
-0.00451425
-0.0417868
0.00270609
0.00310721
-3.09051
-2.25974
1.00873
2.27268
2.84255
1.35646
3.37553
-0.26388
-1.18757
-2.63121
-0.405193
3.41951
0.540785
1.56781
-2.81114
3.41531
-0.272728
1.54978
-2.76529
-0.420959
1.47068
0.560901
3.50909
-1.30428
1.46361
-0.283496
3.5119
-1.29568
0.429053
-0.28792
1.63171
3.48415
0.572105
1.63874
3.4703
1.3412
3.35615
-1.17442
-2.59644
0.140339
3.39037
1.51838
-2.69804
3.40478
1.53363
-2.72833
0.146135
1.44629
3.49742
-1.27828
1.4551
3.50717
-1.28664
-0.146983
1.62392
3.487
1.61716
3.48047
1.42228
3.41766
0.799782
-1.24089
-2.79671
0.683724
3.41625
1.59161
-2.87008
3.40303
0.834799
1.6218
-2.94207
0.7035
1.4798
3.49733
-1.31594
1.49342
0.848633
3.47469
-1.32959
0.716376
1.64539
3.44503
0.861618
1.65176
3.40768
1.4571
3.41372
-1.27187
-2.88139
-0.992975
3.34312
1.68688
1.15632
-3.12297
3.37888
1.65874
-3.06487
-0.994958
1.5152
3.38602
1.14074
-1.36217
1.5062
3.43853
-1.34509
1.00554
1.65582
3.3566
1.65319
3.2885
1.14421
-1.74705
3.36811
0.293413
1.96595
-3.09823
0.144579
3.39913
-2.86017
3.40857
0.283333
-2.89101
1.79029
-0.14675
0.29071
3.42773
0.145099
-1.78291
1.92679
3.33005
0.291427
1.93246
3.33053
3.42418
-0.422395
3.39989
0.56513
-2.97496
-1.76273
3.36208
1.97608
-3.1206
3.409
-2.92882
1.79414
0.434944
3.41804
-0.437634
-1.79569
0.583248
1.92564
3.28261
1.93145
3.31431
0.580225
3.39514
0.714224
3.38226
-3.07398
-1.82526
3.31435
0.897057
-3.19548
3.35583
0.869487
-3.1145
-1.79515
0.725172
1.91387
3.23252
0.725138
3.35881
1.79149
0.867812
3.30868
0.86103
1.89558
3.16858
0.551777
-2.58277
-0.411588
2.0169
-1.77057
-1.02807
-2.91264
2.19817
1.20374
-1.95253
-0.304506
1.50529
1.78918
0.409977
-1.45709
-1.34287
0.140299
-2.49065
1.94924
-1.71795
-0.099617
1.48197
1.75694
0.199927
-1.42544
-1.31888
-2.50719
0.154139
-3.03403
3.12009
0.637888
-2.53893
-0.476098
-3.05592
3.09971
-1.82928
0.120407
2.00496
-1.69683
0.486325
-1.8791
-0.362999
2.06056
-1.74367
-2.63203
0.701253
2.05216
3.22632
-1.79855
-0.757876
1.60225
1.89709
-1.57303
0.881092
-1.42977
-0.522855
1.54084
1.83085
0.639351
-1.49953
-1.37494
-2.54208
-3.04883
0.79812
3.06878
-2.38221
-0.943919
1.10419
2.53431
-3.04018
-1.89872
0.614915
2.08216
-1.76043
-1.79177
2.00058
-0.837366
2.07941
-1.75437
0.974466
1.4573
1.73451
-1.40459
-1.29389
0.106067
1.82121
1.63551
-1.5052
1.84234
0.212464
1.6593
-1.5249
0.112385
1.59389
2.06901
-1.42885
1.61566
0.223515
2.0928
-1.45047
-0.118801
0.23543
1.79853
2.18414
1.77674
2.16101
1.49445
1.77213
-1.43955
-1.33266
-0.322804
1.8725
0.433999
1.68372
-1.55268
1.85645
1.67171
-1.53735
-0.337377
1.64036
0.45129
2.13068
-1.47303
1.62802
2.11088
-1.46253
0.354017
1.81205
2.20229
0.473269
1.82649
2.22345
1.52102
1.80802
-1.47607
-1.35647
0.55146
1.89088
1.70121
-1.57061
0.571421
1.65682
2.15332
-1.48737
1.91429
0.67189
1.72339
-1.59384
1.67816
0.69552
2.1809
-1.50601
0.598522
1.8457
2.2489
0.728239
1.87108
2.28001
1.5683
1.86068
-1.53239
-1.39916
-0.795205
1.98198
-1.66353
0.924555
1.94475
1.75424
-1.62542
-0.823279
1.74376
2.26196
0.957752
-1.56143
1.70742
2.21684
-1.53073
0.86306
1.9063
2.32443
1.95041
2.39029
1.00589
0.112797
1.90868
-1.60143
-1.85223
2.02583
0.240464
-1.71623
1.92976
0.225726
-1.62116
2.00386
-0.125457
0.248331
2.29274
0.133172
-1.98197
2.43042
0.263314
2.4564
2.26976
-2.51805
1.96977
0.275466
3.19498
-1.73613
0.126626
1.73929
-1.55802
1.75959
0.248491
-1.57783
-0.132451
2.70172
0.260076
1.96671
-2.67219
0.146397
2.22848
3.22011
1.94607
0.2908
2.24878
3.23071
-0.342129
1.96105
0.459357
-1.64771
-1.86539
2.04151
-1.72872
1.9441
-1.63307
2.0192
0.372554
2.31269
-0.394272
-2.03681
0.527836
2.5272
2.48585
0.498235
2.33919
-0.371072
1.78873
0.494133
-1.60255
-2.54627
1.99025
3.20883
-1.75183
1.7737
-1.5904
0.388291
2.73602
1.98273
-2.78142
-0.436746
0.587601
2.30112
3.22054
0.51877
2.00197
2.26908
3.22994
0.582036
1.98026
-1.66514
-1.92382
2.11195
0.747471
-1.78316
2.00504
0.707687
-1.68773
-2.06046
0.668432
2.58249
0.630158
2.37385
2.09213
0.767465
2.42453
0.815857
2.65499
0.623711
1.80955
-1.61951
-2.69781
2.09824
0.86055
-1.83871
1.83682
0.759597
-1.64216
-2.85354
0.745971
2.32948
3.20141
0.656281
2.02948
2.93079
0.800291
2.06693
0.910527
2.35639
3.17433
-0.88545
2.20536
-1.84959
1.03197
1.9584
2.03769
-1.71801
2.15083
-1.813
2.13427
0.91153
2.49791
-0.970738
-2.18917
2.81521
1.13895
2.76457
2.59747
1.06526
-2.78285
2.15559
3.20517
-1.89138
-0.90237
1.92481
1.05445
-1.71067
1.87487
-1.67267
0.954219
2.97382
2.1206
-3.01319
-1.0772
2.39335
3.12098
1.24283
2.19346
1.12372
3.13344
2.21612
-0.139179
2.94738
0.274016
-2.92657
0.151538
-3.04764
-2.51959
0.315502
3.12612
0.146288
-2.1938
0.291556
0.305773
3.18009
2.23652
0.409419
2.96629
-2.98738
-0.460675
0.619549
-3.05391
-2.52918
3.11797
-0.438146
-2.26465
0.59158
0.549093
3.17004
-3.01012
0.781595
3.13845
-2.30536
0.753295
0.697474
2.36184
3.03042
0.856383
-3.02951
-2.53976
0.952216
3.02402
0.923085
-1.84856
3.29168
2.02771
-3.21451
-1.02724
3.30647
1.18659
-3.19231
3.3175
-3.15497
1.7819
1.00524
3.24239
-0.986427
-1.76134
1.82345
2.96492
1.09628
1.86676
3.08164
3.15457
1.13219
-3.03081
2.51731
3.04107
1.2559
2.52864
-1.02702
1.20865
-1.10012
2.95475
1.27519
2.99953
-2.43514
-1.09704
2.88062
1.22672
2.96291
-0.39951
1.38152
0.530777
-1.25095
-3.37615
1.10412
2.50057
-1.03916
1.38381
-0.2684
-1.24999
0.39756
3.24801
-0.266072
1.5001
-3.20523
-0.30111
0.392345
1.08823
1.88623
0.527671
1.49178
-0.202926
1.12079
2.03479
-0.052354
0.552291
0.591352
0.110554
-0.608411
-0.004099
-0.000112835
0.000256509
0.000119349
0.000292244
-0.00039212
1.31775e-05
5.46059e-05
-8.13025e-05
-0.000479102
-1.17117e-05
0.0431952
0.0986994
-0.205776
-0.0397451
0.0807248
-0.0057805
3.07093e-05
0.000362683
0.000415212
-0.000551247
4.56824e-05
7.55794e-05
3.52754e-06
-0.000115776
-0.000705359
0.144824
0.0112694
-0.288032
0.116123
-0.137654
1.38305
-1.24661
-3.39649
1.11944
2.6261
-1.04685
1.37956
-1.2427
-0.134492
3.27145
1.50306
-3.27675
0.101052
1.14805
2.17292
1.50084
1.14027
2.12924
2.16227
3.3217
0.301676
0.150779
3.25876
3.26289
0.305751
2.32189
0.141209
2.03003
3.19098
2.03264
0.287853
3.18757
-0.133784
0.277702
2.07124
2.97182
2.07285
2.98417
-0.460307
3.22576
0.615682
2.16725
3.32058
3.25068
2.32172
-0.433021
2.00815
0.575274
3.1193
2.0247
3.16289
0.417896
2.05454
2.93064
0.551798
2.02427
2.8627
-0.222534
0.350348
0.309257
0.221227
-0.446885
4.63967e-05
0.00010298
-7.37528e-05
6.79144e-05
-0.00105347
-9.22254e-05
0.000166204
-0.000120477
-0.00238874
0.000149539
8.73414e-05
-0.000231239
-0.0499151
-0.0251244
0.0192105
0.016846
8.32475e-06
1.75222e-05
-0.00010907
-2.05164e-05
-1.02278e-05
1.14272e-05
2.58146e-05
4.13382e-05
-6.34953e-05
-0.000364679
1.27966e-05
0.0756315
-0.161254
0.0402951
0.0625701
-3.2904
1.05434
2.18336
-1.01086
-0.659571
1.36845
0.784364
-1.25118
1.37679
-1.25141
-3.13339
0.469792
1.04019
1.68019
0.65279
1.47833
3.03291
0.770541
1.45857
0.527413
0.97338
1.42515
-0.768555
3.13523
0.915651
2.17373
3.28861
3.18753
2.30659
0.709969
1.9824
3.05557
1.94574
0.833937
2.96384
0.673859
1.97943
2.76223
0.780796
1.91543
2.61239
1.59245
-0.129621
3.09278
0.260556
-2.81241
-1.09215
0.148816
0.933041
0.868671
0.122096
-1.59229
1.63902
-3.10501
0.0873051
1.61836
0.249793
1.6357
0.180716
1.56881
-3.11841
0.950221
1.64601
-0.947107
-0.901863
1.32842
1.00671
-1.23644
1.3535
-1.24757
0.876698
2.89592
1.42869
-2.69772
-0.556673
0.754312
0.742672
0.545801
1.38339
0.965577
0.879317
1.05886
1.5843
0.390253
3.05487
-2.98975
-0.268449
0.346118
1.31278
-0.37399
-1.5681
0.49187
1.59039
-2.75294
-1.06129
0.888266
0.794752
1.6194
0.516309
1.46715
2.17262
3.20626
1.05406
3.06644
2.97528
2.21635
1.17716
-0.942931
1.81993
2.64826
1.03139
1.89362
2.83214
0.866536
1.82555
2.37817
1.69398
2.01101
0.919804
-1.0178
0.0789333
1.0878
-1.1286
-1.25149
-0.689546
1.4563
0.803194
-1.28285
0.0436199
0.622468
0.50506
-0.403233
-0.474262
0.366831
-0.271227
-1.12207
1.35613
-1.1956
-1.06796
0.0883869
1.30337
-1.13884
0.190726
-0.135317
0.592666
0.68951
-0.510585
-0.542662
-1.41965
-1.68173
0.109778
0.450329
-1.73122
-0.335209
-1.46513
0.318715
-0.235412
-1.08098
1.13783
-1.17558
-1.14236
0.471375
1.3707
-1.20796
-0.389817
0.782474
0.80972
-0.730197
0.466715
-0.619418
0.253522
0.628081
0.699838
-0.554488
-0.544827
-1.75039
-1.48256
0.570552
-1.8523
-0.820894
-1.57781
0.955178
-1.10539
0.410977
1.15184
-1.18174
-1.26335
-0.609039
1.24587
-1.25058
0.719079
0.650529
0.527327
0.0876995
-0.428502
-0.500754
0.0560065
0.711937
0.80278
-0.667089
0.0639316
0.900952
0.747188
-0.742144
0.733821
0.110778
0.831456
-0.690976
0.930325
0.125637
0.766042
-0.771219
-0.0736612
0.144457
1.11362
0.913851
1.08469
0.894456
0.676773
0.557543
-0.467153
-0.530152
-0.191953
0.964265
0.264524
0.811451
-0.811653
-0.16928
0.786049
0.233113
0.867757
-0.753025
0.758477
0.853959
-0.721443
0.952158
0.785951
-0.798347
0.220153
0.931128
1.13099
0.299299
0.952807
1.14285
0.715956
0.664638
0.320118
-0.598849
-0.550378
0.345812
0.976322
0.836852
-0.819667
0.305477
0.812832
0.886586
-0.782472
0.844805
0.381531
0.912328
-0.816227
0.992757
0.430457
0.865022
-0.830091
0.386935
0.975538
1.15944
0.477427
1.00429
1.18181
0.752445
0.716258
-0.6576
-0.574177
-0.515969
1.07204
0.964234
0.605616
-0.892133
-0.46122
0.951676
1.02475
-0.926005
0.549423
0.891815
0.95907
-0.864565
1.02458
0.90754
-0.85383
0.569785
1.04733
1.22034
1.10216
1.27398
0.668548
0.0674497
0.908183
-0.913217
-1.04656
1.10932
0.154506
-1.1505
0.930332
0.13243
-0.936725
1.32016
-0.082478
0.162271
1.06358
0.0911957
-1.29233
1.18807
0.179809
1.20867
1.04312
-1.1023
1.34493
-0.177641
-1.1839
-0.235306
1.18039
0.320271
-1.02428
1.1684
-0.154033
-1.01112
0.258765
1.21911
-0.169638
1.34525
-1.2359
-0.292187
0.394211
1.53465
0.35008
1.35705
-0.191375
1.52299
0.0771899
1.12254
-0.959505
-1.08726
1.33042
-1.16618
1.15097
-0.988535
-0.0852517
1.20604
1.33136
-1.18706
0.0952888
1.48444
1.30423
1.51028
-1.06598
1.12505
-1.16691
-0.202101
0.969556
0.274991
-0.978746
0.950336
-0.960108
1.33474
0.247133
1.0788
-0.273201
-1.34713
0.367826
1.23616
1.2222
0.333386
1.09625
0.414617
1.19368
-1.03515
-1.16672
1.39025
0.579867
-1.22551
1.2113
0.512675
-1.04915
-1.25504
0.503548
1.5517
0.44964
1.37379
1.28033
0.552133
1.39585
0.615947
1.57412
0.357183
0.989459
-0.995314
-1.13871
1.17266
0.507661
-1.1936
1.01546
0.443929
-1.0171
-1.36706
0.470181
1.25369
0.427731
1.1166
1.39435
0.5257
1.14378
0.576524
1.27875
-0.611256
1.28195
0.713494
-1.10706
-1.20347
1.41873
-1.24964
1.24045
-1.07251
0.656324
1.31744
1.43076
-1.36384
-0.730542
1.64686
0.850623
1.4772
0.766241
1.60648
-0.534749
1.10573
-1.09941
0.634183
-1.19245
1.2055
-1.21806
1.05608
-1.0535
1.4378
0.626801
1.18438
-0.687097
-1.49505
1.35826
0.805549
1.31483
1.23359
0.735282
1.53068
-0.0930918
1.32342
0.185312
0.100483
-1.50454
-1.30387
0.102271
-1.43883
-1.70635
0.220506
0.200633
0.205444
1.54303
0.282239
1.33557
-1.35075
-0.313336
0.421994
-1.45089
-1.71862
-0.30524
-1.5553
0.410448
0.380248
-1.36948
0.536648
-1.57513
0.522161
0.485377
1.60127
1.3946
0.593602
-1.50677
-1.77543
0.693727
0.637565
0.65397
0.807966
1.81303
-1.00671
-1.49623
-0.964658
1.62414
-0.39281
1.7577
-0.75129
-1.18746
1.55699
-1.86693
0.601896
-1.03963
1.77809
-0.722055
1.59601
-2.0529
2.13223
0.867756
-0.240381
-0.200231
0.231124
0.189671
-0.224682
0.333497
1.82435
-1.36487
0.0160842
-0.104264
0.608689
1.80376
-1.26804
-2.17939
-0.351381
2.36606
0.00591756
-2.12966
-0.0449371
2.28498
0.0655408
-0.125145
1.79284
-0.790882
-0.643976
-1.30047
1.55001
-0.387368
-0.824865
2.0053
1.61648
-0.872453
-0.626992
1.97566
1.61813
-0.255574
1.78616
-1.24702
1.80194
-0.424647
-0.0929185
-1.31336
0.256537
-0.418794
2.01905
-0.201396
-0.116015
1.83499
-0.868058
-1.43242
1.55848
0.794332
-1.0953
1.86428
-0.943379
1.70316
-0.957903
1.92879
1.63995
0.518619
1.8113
-0.420348
-1.42885
-0.602276
1.82994
-1.40078
-0.511881
2.00077
-0.340341
1.95072
-0.522891
-0.587474
-0.884215
-2.03219
-0.32332
1.9892
1.5614
-0.19643
-0.28955
2.12243
-0.373303
1.61732
-1.99415
-0.903986
-0.482933
1.93795
1.54517
-0.899068
-0.584108
1.60435
2.09087
-0.372135
-0.270494
-0.284696
-0.330747
2.08108
0.74414
-1.08512
-0.891165
1.68046
-1.94156
-0.951364
1.86858
1.55075
-0.96745
1.61975
-0.45497
2.04701
-0.386864
-1.9853
0.340217
-0.509755
1.95281
-0.396287
-0.539747
-0.529666
-0.404227
2.02785
0.505943
1.81559
-1.31447
0.0290759
1.8232
-1.30607
1.82135
0.0352189
-1.32669
-0.477877
0.0138957
-0.108076
2.11385
0.375432
-0.18741
2.09104
0.0314674
2.15918
0.11781
1.79492
-1.37067
-0.26203
-0.0432941
1.76767
-1.33766
0.0407367
1.80753
-1.3446
0.208973
-0.221495
2.07331
-0.043401
-0.011027
2.08016
0.0480841
2.02921
-0.253104
2.25153
-0.0962131
-0.211925
0.00826601
2.37948
-0.0740688
2.25391
0.265759
2.21554
-0.147271
-2.3322
-0.162248
0.0641351
2.34687
-0.0867199
2.21942
-0.0771272
0.101289
2.29987
-0.0909424
-2.17201
2.17293
-2.21958
0.0286454
2.23371
0.123315
0.0393265
0.0736996
-2.10546
2.10469
-0.10618
0.174089
-0.204693
-0.0856861
0.0152051
2.29074
-0.866476
-0.20223
0.458061
0.270266
-0.246363
-1.47046
-0.634766
0.0584282
-0.519496
0.00663186
0.211565
-0.0888626
-1.74711
-0.119759
-0.748744
1.13815
1.07453
0.0721452
-0.0450085
-0.63959
0.286355
-0.146131
0.384267
1.55679
-0.920695
-0.482958
1.35777
0.266135
-0.192951
-0.717017
-1.48552
-0.0739121
-0.0406137
0.120815
2.24688
0.564509
1.4441
-0.675824
-1.57394
-0.480267
1.02371
-0.687421
0.106524
0.302517
-0.143445
0.2188
0.94952
-0.261605
1.74194
-0.497108
-1.88679
-0.754417
-1.4594
0.346406
-0.970333
-0.518644
-1.435
0.617918
-0.159137
0.0476162
0.199689
2.10122
-2.15199
-0.0758257
-0.27533
1.90682
-1.93623
0.331822
-0.877283
-0.216368
1.39543
-0.129157
1.96966
-0.380123
-0.88208
1.6951
-0.307785
1.37567
1.92984
-0.168879
-0.393206
-0.730417
-0.175686
1.14278
1.04823
0.0696983
-0.0728972
-0.360956
1.54133
-0.371824
1.54015
-0.890083
1.63117
1.35252
0.221108
-0.656922
-0.273833
1.13953
0.955789
0.187905
1.8052
-0.460395
1.87316
-0.417548
-0.692734
1.14276
0.998459
-0.0749278
1.52316
-0.334205
-0.0822515
1.48817
-0.309614
-0.575812
1.49928
-1.71452
1.36872
-0.913683
1.46015
-0.599354
-1.6556
1.31343
-0.308966
-0.628966
1.1325
0.928331
1.68209
-0.270379
-0.489646
-1.81682
-0.571578
-0.31597
1.13554
0.87703
-0.0862913
1.44418
-0.278761
-0.0725261
1.40891
-0.226836
-0.0529383
2.14038
-0.0703597
2.28017
2.1219
-0.038363
0.0508307
0.019369
0.0116952
1.82501
0.026672
-0.0412276
2.0145
0.0873111
2.01995
1.82431
-0.0541408
-0.34558
0.502991
-0.548781
0.234393
0.0264488
-0.105885
-0.322814
-0.0707415
0.485521
0.906911
0.0240348
-0.00901656
-0.071984
0.023219
-0.880665
0.390508
0.059212
0.416597
-0.0958069
-0.827252
1.43695
-1.60124
1.20133
0.288644
-0.342667
1.18683
-0.220612
0.649577
0.238467
1.62198
-0.309966
-1.70668
-0.171798
1.63847
-0.43175
-1.75096
-0.476191
1.151
0.784436
-0.0406925
1.39219
-0.135692
1.40232
-0.00869144
0.0237579
-0.592005
0.266547
-0.134303
0.0911079
-0.236757
-0.102252
0.417232
-0.278877
0.448284
0.00165544
0.936886
-0.028738
-0.96134
-0.0945583
0.136635
0.473487
0.0195092
0.0132601
0.44876
-0.0175707
2.08045
0.00810618
2.18777
2.0161
-0.00579313
0.0689122
0.0425862
1.80242
-0.143427
-0.0785781
0.200307
1.9473
1.99957
0.0730364
1.75406
-0.101929
-0.198095
0.401912
-0.736129
0.327407
0.149456
-0.149028
-0.147146
-0.0819626
0.373454
-0.980091
0.187529
0.504656
0.0455352
0.0640008
1.00258
0.0829676
0.126389
0.24548
0.544576
-0.00504507
1.93994
-2.03217
0.0616494
2.02139
0.237774
-2.07449
1.86995
0.0109043
-1.95598
-0.103448
0.255897
1.87694
0.102369
1.68956
0.14835
0.135433
1.63381
0.30696
1.81108
0.0392151
0.0460712
0.0290275
0.209346
-0.795758
0.379241
-0.182376
-0.06543
0.309457
0.135233
1.03855
0.217531
-1.08747
-0.311614
0.699295
0.391272
0.333782
0.208853
0.610536
-0.0456198
1.77817
-1.831
0.0999738
0.0232891
1.95442
-1.99856
1.81341
-1.88645
0.232371
0.176677
1.59882
-0.36133
-0.35042
1.7344
0.432054
1.76412
1.58581
0.242204
0.259262
1.23546
-0.00877059
0.0478109
0.0377802
-0.235463
0.0411046
-1.21111
-1.49289
-0.662366
0.124221
0.100103
0.0919682
0.297
0.0855821
1.25352
-1.50136
-0.691635
-1.25407
-0.143572
0.201124
-0.163017
-0.331834
0.230749
0.131434
-1.24572
0.267541
-0.381349
0.299374
0.181064
0.445299
1.24221
0.233796
-1.43706
-0.802952
0.429942
0.366515
0.339457
0.53731
0.295349
1.25381
-1.27808
-0.417686
0.507489
-1.43024
-0.876501
-0.438171
-0.652577
0.523149
0.373723
1.64038
0.704827
1.43023
-1.47297
-0.774239
0.900921
-1.53935
-1.81034
-0.757067
-1.68951
0.883828
0.822855
-0.8269
-0.678604
2.22309
0.364645
-5.25676
1.33207
0.254396
-0.49965
0.921051
-0.573393
-0.644081
2.06124
-1.23489
0.00587194
0.446427
0.205766
-0.90314
0.86215
-0.791695
-1.02984
1.34553
-0.391314
-0.414933
-0.626831
1.44662
1.02206
-1.2694
0.631881
-0.349855
-0.791456
1.38474
-1.40204
-0.219759
-0.628819
-0.231866
-0.856055
0.0193255
-0.0366156
-0.285641
0.0367281
0.878016
0.627912
-0.170371
2.0279
-0.0749401
1.18634
-0.273087
-0.763719
0.448301
-1.0439
3.31323
-5.598
0.204086
2.78355
0.669025
0.0385275
0.00754571
-1.14055
0.84514
-1.1471
-1.61108
0.470809
1.47495
-0.699892
-0.66864
0.105909
-2.26123
-0.0454981
-1.72262
-0.0816115
1.96587
-0.295991
-0.141233
-0.434096
0.828556
-1.04609
0.575424
1.9047
-0.0523057
-0.0121539
-0.0107374
-0.551764
-0.239965
0.582732
0.814989
0.324933
-0.590608
-0.0729599
0.548241
-0.0943789
-0.95844
1.77848
0.969301
1.65348
-0.238645
1.02468
-0.201929
0.532174
2.58836
0.813332
0.246586
-0.172633
0.343188
0.724852
2.74953
-0.658269
0.83961
0.420985
2.544
-0.790061
2.6418
0.071976
1.29337
0.152866
2.79848
1.14482
2.50582
0.0589103
1.34722
0.149485
2.65792
1.17845
-0.751453
0.802742
1.63121
-0.368212
0.790803
0.19515
0.231409
-1.06641
0.0428224
0.154834
0.0312931
0.231183
0.606374
-0.789766
0.113826
0.552041
0.463321
-0.442738
1.24926
1.11598
-0.712652
1.44368
1.12987
0.258157
0.479761
-0.992343
-0.422345
-0.432514
1.24979
-0.548595
-0.63646
-0.685129
1.38344
-0.406708
-0.717654
1.10053
0.294678
0.64659
-0.539796
0.235446
-0.545099
-0.260396
0.117812
-0.454644
0.0505003
-0.229224
1.14301
2.03741
-0.210451
-1.14324
2.31538
1.03399
-0.463691
1.01773
2.28228
-0.983846
0.121061
2.0137
1.45663
-0.391474
2.26932
1.4512
-0.0526198
2.43941
1.23549
2.16757
1.24727
-0.398715
-0.918685
3.25856
0.630585
-5.6417
0.431029
1.41804
-2.53673
1.44506
0.55895
-2.75683
-2.49536
0.189379
0.189533
1.22259
2.3559
0.20541
1.19508
0.182095
0.549723
-0.486931
1.36823
0.0435172
-2.7347
-0.812837
2.9528
-5.55598
1.4449
-2.89666
-0.0152598
2.14364
1.08496
-1.9032
0.128694
0.167269
-0.781247
0.986305
-0.503671
0.35433
0.936162
-0.45858
-1.15747
0.882699
-0.755465
-0.673267
1.31874
-0.395801
0.931796
-0.717854
0.7831
0.143101
-0.876106
0.574391
-0.26081
-0.680522
-0.00607128
-0.876627
-0.0739445
1.04342
0.664259
0.250429
-0.484987
0.0633823
-0.177605
-0.773456
1.55133
-0.553218
-1.39383
1.28916
-0.444958
-0.147301
-1.10059
0.105462
-0.341662
0.174814
1.44846
-0.378919
2.3603
-0.0145424
-1.69819
1.85215
-0.243622
-1.51865
-0.0667495
2.07999
0.0383571
2.53124
2.24477
-0.109029
1.48959
-0.0392944
2.40808
-0.232041
1.96122
0.947818
0.515172
-0.66438
0.196755
0.59549
-0.411286
1.15608
-0.809114
-0.442283
-1.39456
1.15843
0.503579
-0.7977
0.321345
-0.62032
0.26387
1.28744
0.291034
-0.831942
0.720418
-0.0367915
-0.737194
0.0217631
-0.114691
0.78132
0.707514
-0.343363
-0.769314
-0.631335
-0.00313855
-0.133953
-0.226646
0.308947
1.8113
-0.556271
-1.69876
1.67576
2.04148
1.46508
-0.254171
2.19201
0.464425
-1.39777
1.53962
-0.714975
1.76964
1.93136
-0.555229
-1.71138
-0.237237
-0.990684
-0.125436
0.0119786
0.936273
2.12468
-0.133805
-1.57861
-0.0742898
-0.51929
-0.347905
-0.276613
0.869305
-0.43164
1.86402
-1.54416
0.699796
-1.20007
0.633886
-0.835677
-0.920406
-1.35783
-0.0292834
-0.82451
0.624979
-0.465801
0.807511
-0.86302
0.287608
-0.345526
0.206177
-0.420184
-0.270454
-0.828521
-0.456252
-0.578766
-1.07706
1.5839
0.118183
-1.6037
-0.191614
0.851378
1.23532
-0.141269
0.471066
-1.22728
-0.502169
1.37497
0.900727
0.984781
-0.956003
-1.03985
-1.25338
-0.431188
0.990068
-4.3343
-1.13039
1.81817
-0.570808
1.24652
-1.02016
-0.824757
-0.456111
1.23579
-1.01395
-0.430041
-0.953529
0.672224
1.06425
-0.999349
-0.0578985
-0.926803
-1.32332
-0.884348
-1.47289
1.2798
-0.911742
-0.358663
-0.893195
0.888515
-0.758804
-0.994227
1.32593
-1.03524
1.33246
-1.21333
1.33265
-0.986644
-1.22417
-0.925534
1.50727
1.37948
-0.453087
0.945113
-0.0285598
-0.838703
-1.09887
-0.257749
-0.921201
0.364095
-0.729665
0.0777637
1.05777
-0.0611396
0.181065
-0.348696
0.188468
0.880858
-0.676935
-0.581817
1.20825
1.87888
-1.2478
1.6691
1.24122
-1.02268
-0.77898
-1.14379
1.2137
1.76993
-0.798727
-1.25837
1.76827
-0.671661
-1.08112
1.3804
-0.732602
1.89778
1.23622
-1.57934
1.67496
-0.97259
1.19776
-0.993214
-0.933871
1.28946
-1.29728
0.120351
0.339436
0.0332848
-0.261124
0.829384
-1.14082
-0.790697
0.0581701
0.450665
-1.44136
0.0416917
-0.339872
-0.971803
1.00317
-1.16563
0.336344
0.346845
0.261309
0.422488
-1.26964
0.209181
-1.16801
0.84541
-0.462098
1.21825
-2.17666
-1.46033
0.382119
-1.22233
-2.54447
1.00259
-0.883628
-1.64338
-1.59995
-1.41772
0.0926813
-0.964177
0.871769
1.30514
-1.24895
0.807003
-1.67516
0.150143
-1.37785
-0.54516
0.868172
-1.0351
-1.01547
-1.32971
1.49604
1.3935
-0.615309
-1.43224
0.866664
-0.920139
-0.811426
-0.458955
1.41785
-1.03473
0.941248
-1.07722
-0.32754
-0.894953
-0.606926
1.38188
1.13146
0.693044
-1.4478
-1.18067
-0.789264
-1.35306
0.172879
-0.763946
0.807797
-1.63763
-1.17438
-1.32682
1.05666
-1.43411
0.76855
-0.871403
1.6907
0.37455
-1.52109
-1.20118
0.786921
-1.24248
0.168522
-0.210975
0.684896
0.954032
-0.696793
1.4624
-0.216342
0.538033
-1.37658
0.242808
-0.0544245
0.51637
0.109136
-1.26991
0.193167
0.469639
0.0293068
-0.121018
1.23184
0.765798
0.430842
-1.19087
0.467029
-0.15257
-1.15506
0.890877
0.661627
0.912335
0.999861
-0.936954
-1.03247
1.5352
1.15951
-1.15639
1.12864
-1.18207
-1.07355
-1.37582
1.1221
1.17465
1.06404
0.94536
-1.09983
1.0275
-1.05747
1.14571
-1.24864
-1.51303
-0.821707
-1.12387
-1.31413
-1.15124
-1.6559
0.854165
1.02904
-1.40575
-1.30583
-0.751865
-0.225728
-1.35482
-1.09601
-1.18965
-1.57901
1.57263
-0.825836
-1.01611
-1.3174
-0.938818
-0.855786
1.25079
-1.35865
-1.0598
1.08467
-1.33158
-0.741503
-1.03727
-1.05367
-0.907899
-1.03137
1.42202
-0.766739
-1.35014
0.939473
-1.04367
-1.05725
1.43258
1.38193
-0.689389
0.882467
-1.05192
0.930941
-0.457575
-0.884209
0.88765
-0.713854
1.21252
-0.799067
-0.549748
-0.986698
-0.702119
1.30533
-0.311654
-0.988847
-0.599251
-0.683015
0.36192
-0.962227
0.380611
0.222731
0.40645
-1.01094
-0.175661
-0.906045
-0.977207
0.386656
-0.678925
-1.11623
0.849562
-0.308257
-0.00453499
-0.429947
1.34711
-0.0772129
1.28698
-0.0271115
0.872623
-0.693552
-0.815931
0.199378
-0.0872591
1.21219
-0.299235
-0.47368
1.28404
0.939742
-1.28635
0.81991
-1.15846
-0.662065
1.51043
-1.27705
1.13143
-1.04409
-0.659529
-0.987707
-0.590785
-0.548323
-0.87431
-0.932893
-1.1388
1.1925
-1.1168
-1.13851
0.927009
1.11911
-0.610381
-1.10529
1.05847
-1.13612
-0.974899
0.87646
-1.15568
-0.580927
-1.05908
-0.764201
0.157286
-0.967652
0.154186
0.428972
-0.0835227
1.14127
-1.06544
-0.100732
-0.682967
0.603943
0.0200824
0.370785
-0.483927
0.388684
0.411144
-0.844324
-0.191853
-0.64996
0.850865
-0.79943
0.449928
1.12656
-0.406019
0.257877
0.279185
-0.212872
-0.791223
0.332782
1.14377
-0.589981
1.20977
-1.61935
0.861579
-0.937694
-0.750792
1.29322
1.26075
1.56451
-1.15944
-1.15626
1.53501
-1.14581
1.77851
-1.14693
1.67675
-1.81071
-0.844072
-1.11633
1.6237
0.808945
0.382043
-0.374051
-0.384881
1.54884
0.101436
0.0105626
1.68791
-2.13116
0.134502
0.129807
0.162078
-1.85798
-0.177413
0.217375
1.73617
-1.23086
-1.2476
1.69982
-1.10316
-1.22784
1.81623
1.75309
-0.715251
1.77072
-0.610913
-1.30185
-1.19213
1.76688
1.76967
1.71442
-0.79201
-0.742227
-0.684744
1.8935
-0.700197
-0.74927
1.82291
-0.81774
1.65729
-1.24075
1.65235
1.19876
-1.21032
1.61349
-1.0985
1.56717
-1.30062
1.69083
1.70322
0.797113
1.50715
-0.774228
-0.724828
1.61744
-0.750315
1.73462
-0.870795
1.64682
-0.819069
-0.680657
-1.04109
-1.19635
1.72733
-1.75233
-1.12387
-0.887858
1.58591
-1.247
-1.1077
1.72854
-1.92523
-0.469308
-0.61349
-0.622483
-0.684832
1.85585
-0.669039
-0.772108
-0.496168
-0.659972
-0.329617
1.74047
0.274184
1.58713
-0.0150045
1.65222
0.182605
0.0264721
2.0002
-0.309189
1.96907
-0.334028
-0.346072
1.88124
0.00871797
1.90139
1.09951
-1.1214
-0.980942
1.48116
-1.67978
-1.07338
1.47935
-1.22818
1.64164
-0.655894
1.77512
-0.805792
-1.70554
0.471356
-0.561445
-0.387987
-0.738889
-0.572667
-0.657951
-0.384714
1.4378
-0.323829
-0.00717771
1.48463
1.37765
0.0150306
-0.42437
-0.337168
1.78369
-0.0187802
0.398918
1.68642
0.0488255
1.79449
1.68213
-0.287438
0.198223
0.0580534
-2.03286
-0.142102
-0.255774
-0.318481
1.95011
-0.275609
-2.0361
0.212514
0.151767
0.0603246
-0.141564
-0.381402
-0.257437
1.86817
-1.78989
0.115693
-0.0609811
-0.0765737
0.335495
0.109089
-1.94296
0.234508
-0.202894
-2.89261
0.404759
1.03922
-1.54305
0.597699
1.5465
0.634013
1.50685
2.75057
0.740566
-2.24029
-0.83814
0.313423
0.591713
0.431568
0.686485
1.48279
0.436794
0.798582
2.42399
3.13611
0.304502
-0.140257
2.92387
0.2945
2.9316
2.0136
-0.121716
0.258103
2.58801
0.1008
-2.02245
1.84107
0.220485
1.79196
2.61534
-0.444035
2.83193
0.586613
2.41519
3.11508
2.89038
1.98248
0.387353
2.51342
-0.329913
-1.92957
0.423249
1.50036
1.6782
0.506174
2.38229
1.45375
0.83066
2.53486
-2.20462
-0.434161
0.416403
0.390029
-0.750822
-1.37542
1.26124
0.7795
-1.93235
-0.709004
0.448515
0.311745
1.39078
0.895138
0.599329
-0.716595
2.63087
0.829872
2.36871
3.02466
2.75217
-1.84971
0.491436
1.26927
0.60794
2.17682
1.73164
0.686298
1.88941
0.52378
0.891937
0.0185459
-0.0172056
0.0419031
0.0349686
3.34206e-05
1.75308e-06
-0.0002943
2.62614e-05
0.00454631
0.0628212
0.0511494
-0.00798485
0.000149834
0.00209143
1.06527e-05
-1.36665e-05
-3.53052e-05
1.01542e-06
2.46487e-06
8.81676e-06
-1.09516e-05
-2.34187e-06
-2.61751e-05
0.000692851
-0.00509223
-0.000679648
0.00132242
-2.29651
0.643191
0.106661
0.454567
0.11004
1.60752
1.59747
0.229837
-0.0898954
1.54575
0.195367
1.41078
-1.59665
0.0225222
0.328753
0.219975
1.43177
0.0600222
0.310061
0.208957
-0.343335
1.51593
0.44686
-2.18726
0.590239
0.408833
1.56721
0.291515
1.43602
1.35959
-1.26746
-0.0849087
0.0942746
0.221525
0.157392
0.373342
1.27545
0.272022
0.186777
2.19065
2.7034
1.10659
-0.921666
2.11728
0.980694
2.43748
1.56448
0.730745
1.54859
-0.507408
-1.32545
0.409471
0.43179
0.635393
1.11432
0.725737
1.27411e-05
-0.000180457
9.32983e-06
3.06124e-05
-3.26246e-05
-1.63764e-05
1.86706e-05
-0.000148482
6.70156e-06
1.5591e-05
0.0170899
0.0314234
0.0267648
1.05653e-05
-1.0061e-05
-2.23334e-05
3.5352e-06
-0.00370334
0.000594
0.000953051
2.83396e-05
-5.8903e-05
-0.000218436
-1.93917e-05
1.15404e-05
9.87367e-06
-7.73624e-05
-0.000129039
-4.11573e-05
-8.60529e-06
-1.67666e-05
-8.82709e-06
-5.50184e-06
-3.73215e-06
-4.10371e-06
-3.56837e-06
0.533082
1.43996
-1.54069
0.302328
0.175551
0.208008
1.33282
0.595206
-0.969945
0.0876665
0.166601
0.122255
0.430536
1.1539
0.736202
0.454175
0.992553
0.0702137
0.1154
0.0868806
0.566143
0.61798
-0.61923
0.037879
0.387685
0.449896
0.370225
0.0845298
0.433822
0.00661574
0.0705131
0.0710507
-0.107704
0.0668249