/*--------------------------------*- C++ -*----------------------------------*\
  =========                 |
  \\      /  F ield         | OpenFOAM: The Open Source CFD Toolbox
   \\    /   O peration     | Website:  https://openfoam.org
    \\  /    A nd           | Version:  9
     \\/     M anipulation  |
\*---------------------------------------------------------------------------*/
FoamFile
{
    format      ascii;
    class       volScalarField;
    location    "0.0024";
    object      rho.c4;
}
// * * * * * * * * * * * * * * * * * * * * * * * * * * * * * * * * * * * * * //

dimensions      [1 -3 0 0 0 0 0];

internalField   nonuniform List<scalar> 
19704
(
34.4474
41.6466
0.591296
42.1777
3.53729e-06
5.43858e-07
2.53588e-11
1.60896e-12
20.609
5.99489
28.0817
31.7474
0.00039769
1.65312e-05
3.22596e-09
2.69805e-10
4.49009
30.7607
7.19907
30.5484
6.88591
20.1344
4.34314
26.8594
22.4999
4.65149
38.2228
10.8179
31.4533
7.5619
8.98866
34.6365
8.54677
43.8888
43.1136
14.6105
15.5345
14.0273
34.9477
10.4152
43.5525
18.4077
51.7072
21.2342
4.40584
5.09325
4.99101
7.29481
7.15442
8.20709
8.37535
4.36543
4.9159
4.94303
7.06145
7.09247
8.13658
8.10131
4.92745
5.29629
5.65462
7.57449
8.0554
8.72614
9.35088
5.35903
7.06971
6.22547
9.91337
8.80564
10.3486
11.837
6.93046
5.72765
5.76273
9.60825
11.6386
11.7012
9.56182
5.96053
7.01671
5.82625
9.70354
12.159
11.8401
9.92775
6.22799
8.20901
6.70226
12.807
10.3946
11.2326
13.9528
5.51459
8.33821
2.43461
5.25839
2.35952
11.5368
12.3172
3.64505
3.8013
5.80102
3.26228
2.68595
13.1976
12.3148
3.96479
4.44295
2.3487
2.67424
2.68856
2.89801
2.91274
3.3653
3.34598
2.38336
2.77688
2.71744
3.00106
2.94136
3.401
3.47317
2.5281
2.8865
3.11374
3.07412
3.31027
3.61108
3.85402
2.92719
3.77252
3.3643
4.05723
3.61849
4.23845
4.79353
3.09349
3.67002
3.11241
3.96844
4.76518
4.79944
3.94298
5.29562
3.71817
3.73896
4.42709
6.57545
4.39901
6.62595
3.2184
3.71475
3.14793
4.01407
4.98412
4.86144
4.10452
3.85381
5.36754
3.77629
4.47908
6.94817
4.58569
6.73198
3.34998
4.25101
3.57794
5.22333
4.27936
4.5905
5.65191
4.00678
6.30799
4.28277
7.36132
4.79633
5.17867
8.07499
5.35819
3.9345
4.70343
5.08983
7.41094
6.35251
5.82704
7.12356
5.3977
4.73016
5.79903
10.8957
6.72922
9.2084
5.43573
8.55605
11.6262
6.93401
6.99227
5.3951
8.62351
5.51565
9.08679
11.8487
7.36703
7.11651
5.67653
8.77514
9.67753
7.84142
5.98712
6.53691
14.6987
8.66651
10.6968
9.25334
8.60167
7.4635
12.5811
18.4928
15.7806
14.5931
14.7342
8.76514
11.9413
9.97816
20.5768
17.0625
7.42535
12.362
20.2696
12.1237
13.9725
23.39
14.2532
23.0541
28.2724
29.187
3.69245
33.2184
29.5243
6.26397
33.804
12.0252
20.0856
11.9825
13.8619
22.9067
13.8154
22.9391
8.60343
10.9882
11.0618
14.6252
14.7083
19.0161
18.9083
11.6273
8.72567
11.2407
15.3688
14.912
19.3085
19.9557
28.9087
11.7272
30.572
39.2794
0.209932
2.28782
33.4824
21.3042
13.6739
12.845
24.1429
14.8477
15.9069
25.5175
13.6544
9.50643
12.372
16.2691
17.8371
21.2048
23.361
16.4064
30.5071
19.8514
26.4456
19.939
16.3426
26.4612
24.3181
16.8437
14.9589
17.5946
30.5286
20.1058
27.6501
16.556
26.887
20.672
30.5256
20.1574
16.923
26.5579
11.8666
15.6777
18.6698
23.986
20.3177
26.7508
31.6294
1.78915
2.70921
1.27439
2.02645
1.95147
1.34237
2.9137
3.04134
1.88665
2.10771
1.84746
1.41026
3.17196
4.22627
1.97984
2.62252
1.28254
1.4162
1.43806
1.42561
1.44534
1.60889
1.60001
1.30262
1.50452
1.49207
1.44797
1.46466
1.63088
1.67559
1.51583
1.57312
1.56646
1.68254
1.68067
1.75159
1.87161
1.66295
2.03238
2.05598
1.84644
1.8339
2.04535
2.27529
1.58471
1.80294
1.59595
1.80758
2.03975
2.05369
1.79659
1.9808
1.72639
1.6845
1.8849
2.28674
1.93224
2.23465
1.65769
1.95988
1.66498
1.86213
2.19859
1.85268
2.20973
1.83147
1.67024
1.62106
1.83267
2.14108
2.08314
1.88303
1.79955
2.24077
1.91621
2.37978
2.01438
2.14701
2.53432
1.75297
2.12684
1.88246
2.24068
1.96899
2.10601
2.40115
2.31176
2.43923
2.08604
2.34329
3.09088
2.60918
2.76813
2.30892
2.33976
2.06762
2.3073
2.96556
2.63963
2.57849
2.10736
2.40201
2.51122
2.93299
2.41781
2.09518
2.5259
2.13409
2.6162
2.96976
2.51287
2.44992
2.18804
2.55588
2.72499
2.62406
2.2823
2.43649
3.39439
2.80814
2.90805
0.947331
0.862393
1.18839
1.07731
0.939862
0.900921
1.17264
1.21411
0.871511
0.970282
0.97734
0.878167
0.886776
0.997765
0.989178
0.90257
1.05576
1.00683
0.971314
0.917946
1.03006
1.08922
1.11697
1.15983
1.04774
1.12235
1.0521
1.08335
1.16608
1.12574
1.14379
1.07684
1.11181
1.24326
1.16889
1.19127
0.909321
0.937006
0.945295
1.05945
1.01758
1.02662
1.06767
0.998027
1.03639
0.975895
1.05931
1.16506
1.10033
1.12272
1.11708
1.28429
1.21428
1.12445
1.29233
1.18022
1.22143
1.32373
1.24967
1.3858
1.28099
1.30697
1.21962
1.15625
1.40935
1.75389
1.66855
1.18036
1.21695
1.25317
1.24213
1.76133
1.44645
1.61724
1.32317
1.39565
1.84762
2.42115
1.58862
2.0425
1.18252
1.25027
1.1895
1.25904
1.22506
1.33175
1.32289
1.20555
1.26915
1.3244
1.28062
1.23831
1.34882
1.38478
1.30381
1.39269
1.33044
1.49567
1.42929
1.45168
1.55636
1.3245
1.41899
1.3334
1.43751
1.53974
1.55137
1.42697
1.18416
1.19075
1.19585
1.33948
1.32254
1.33385
1.32788
1.50019
1.69526
1.74834
1.61572
1.55518
1.69135
1.84394
1.2124
1.25324
1.21562
1.35961
1.40014
1.39785
1.35687
1.35781
1.50071
1.40697
1.45824
1.62315
1.57576
1.49978
1.321
1.43144
1.42739
1.47409
1.46696
1.57746
1.58986
1.48727
1.71307
1.59934
1.70489
1.5739
1.68745
1.82869
1.72856
1.57791
1.567
1.72587
1.94284
1.9004
1.7488
1.88855
1.86752
1.73602
1.83475
2.18291
1.99099
2.00444
1.48663
1.63018
1.48335
1.68295
1.64341
1.49612
1.47408
1.50869
1.7105
1.56841
1.71323
1.66775
1.55004
1.52147
1.6479
1.79315
1.62367
1.74047
1.98314
1.91895
1.77223
1.89938
2.16179
2.17492
2.30742
2.09249
2.09092
1.9453
2.6681
3.58084
3.7387
3.4775
3.08778
2.9869
3.18851
0.10023
0.408645
0.393919
0.791995
0.732289
0.55851
0.516217
0.908074
0.666477
0.326372
0.081793
0.320833
0.467317
0.477381
0.287655
0.4327
0.49441
0.395796
0.495996
0.531728
0.427309
0.430644
0.527547
0.322338
0.240558
0.240555
0.346944
0.290509
0.349918
0.293224
0.404618
0.513124
0.505707
0.544173
0.452736
0.442178
0.559358
0.607315
0.738178
0.610111
0.6388
0.752394
0.634744
0.758553
0.246715
0.326441
0.242184
0.36749
0.359364
0.300078
0.309128
0.0831248
0.148182
0.148337
0.161671
0.212737
0.216036
0.167303
0.161512
0.0876592
0.150781
0.224367
0.213176
0.241931
0.182065
0.638177
0.760914
0.623258
0.655021
0.825107
0.681386
0.783057
0.569447
0.468242
0.522093
0.606798
0.613411
0.472701
0.56437
0.383267
0.439753
0.389151
0.334111
0.387708
0.339443
0.398422
0.583989
0.502203
0.536201
0.663294
0.631758
0.485205
0.606819
0.707078
0.816161
0.778012
0.672044
0.824692
0.714964
0.785217
0.416348
0.455835
0.400414
0.351365
0.437601
0.415612
0.367896
0.413693
0.371892
0.286329
0.294155
0.427348
0.384446
0.298895
0.309411
0.349401
0.428823
0.446232
0.404454
0.333239
0.31906
0.692025
0.861712
0.784387
0.853468
0.739277
0.728667
0.811902
0.326022
0.468391
0.382702
0.132314
0.32344
0.53455
0.629097
0.484539
0.502797
0.406904
0.96885
0.820126
0.763544
0.588213
1.32031
0.776286
0.255524
0.330866
0.273186
0.374456
0.320109
0.339433
0.390226
0.513143
0.413481
0.522615
0.460765
0.571647
0.593492
0.475341
0.183125
0.189486
0.216993
0.258504
0.268458
0.304105
0.311142
0.648466
0.847845
0.664968
0.873227
0.710971
0.748624
0.925513
0.31298
0.25803
0.262044
0.346624
0.411736
0.389888
0.364898
0.433869
0.59902
0.550918
0.63617
0.54982
0.701009
0.503667
0.337024
0.350982
0.301025
0.368429
0.453472
0.404883
0.41591
0.384058
0.453345
0.362301
0.394653
0.500672
0.476884
0.419136
0.433911
0.461627
0.387456
0.411896
0.533838
0.487404
0.457467
0.775951
0.898529
0.709015
0.809372
1.08239
0.892465
0.994965
0.520442
0.707558
0.635006
0.675139
0.628723
0.767811
0.545447
0.847538
0.926705
0.986333
0.836664
1.08047
0.928255
1.00198
0.427683
0.475643
0.523864
0.517236
0.500031
0.458511
0.450636
0.441686
0.535844
0.551724
0.575172
0.516871
0.476869
0.490425
0.735374
0.648958
0.686589
0.948766
0.84736
0.818681
0.587341
0.915855
1.19956
1.14592
1.19149
1.02675
1.01636
1.09158
1.51596
1.15535
0.989507
1.2495
1.25587
1.12348
1.48026
1.91175
1.02763
1.10779
1.03284
1.15896
1.09575
1.16137
1.23768
1.08415
1.30775
1.22707
1.26014
1.17122
1.32411
1.42062
1.18424
1.32535
1.24765
1.31913
1.24483
1.33063
1.41337
1.07465
1.22697
1.15997
1.25909
1.20866
1.3049
1.37056
1.41561
1.41582
1.32657
1.42832
1.63942
1.53501
1.52141
1.36698
1.3445
1.4792
1.41034
1.63592
1.4956
1.52703
1.3791
1.39381
1.30898
1.41318
1.60294
1.49783
1.50356
1.52996
1.77062
1.78432
1.74904
1.6337
1.65777
1.63087
27.6678
21.7207
17.6973
19.0967
32.8923
23.5608
29.1284
14.7091
20.1073
19.974
25.1742
33.5069
33.6387
25.0326
21.2942
14.9704
20.484
25.5926
35.1278
34.1002
26.5019
21.3515
34.4905
30.4719
35.1952
26.4248
24.6441
31.4256
25.3683
16.6001
22.8083
37.0446
28.1999
31.0269
40.187
35.3566
1.26101
35.928
43.3203
0.0838612
0.0388224
42.6203
34.5021
24.734
24.8351
31.0801
38.0509
31.0131
37.8247
25.773
34.3839
25.1207
31.3619
37.4607
32.0499
37.558
25.4035
35.2454
29.3825
35.2861
50.3176
44.6936
41.1114
0.0861351
0.17525
35.6883
0.0251177
43.1226
0.0850851
0.00314375
27.0614
36.2538
29.2863
37.8624
33.4143
35.7401
39.2482
28.3903
30.1956
30.0288
29.6708
29.4905
30.6291
30.8126
37.1934
38.5094
32.675
39.1813
45.0567
43.531
41.7254
28.12
29.6368
29.7805
29.0447
29.2144
30.3417
30.1712
37.906
40.9442
43.5984
43.7011
43.4471
37.9609
40.692
38.004
40.2941
43.2425
43.1549
43.1898
38.4318
40.3911
28.287
29.7704
30.4375
29.12
29.6692
30.2995
31.0322
30.0732
33.9349
31.8272
32.5633
30.8387
32.5341
34.673
40.7291
43.6599
39.4673
41.4363
45.1144
45.2514
42.1945
31.2908
33.3483
31.48
31.7677
33.4065
33.4848
31.6353
33.6146
31.9701
31.7755
32.0289
33.869
33.7093
32.2009
44.4023
48.3155
47.9311
52.0661
48.1493
48.1548
44.807
31.4457
34.5369
32.311
33.7324
31.8576
32.8083
34.8934
36.5111
36.5325
34.0472
34.6214
39.7517
36.9765
37.1057
35.7296
38.1746
37.9568
35.8168
35.6445
37.7645
37.9475
35.4656
37.5827
37.6795
35.3755
35.4228
37.5297
37.4785
36.9119
37.9914
39.3953
35.8018
37.1575
37.9646
39.605
39.1521
45.1128
41.8715
42.6924
39.4867
43.1481
21.6147
0.506603
0.000426763
6.12191e-05
6.02355e-05
0.0292064
0.487462
0.0518798
29.5474
29.3955
29.3819
30.553
31.1581
30.7121
31.0795
29.021
29.2187
29.1376
30.323
31.4102
30.2417
31.0577
40.6963
43.064
40.4597
40.5042
19.5215
18.117
40.6611
5.79027
58.5121
38.9534
5.7766e-08
1.87093e-14
6.89817
33.9729
2.53112e-08
6.51063e-14
4.24285
20.4797
10.0581
18.2104
6.25658
11.5394
55.78
12.4426
42.3341
30.114
54.2427
41.7374
20.0696
13.0534
3.69712
4.31049
4.64272
4.99757
5.40388
5.55178
6.56958
4.92502
7.00978
5.87301
7.75641
6.40188
7.96307
9.92534
5.1252
7.47011
6.01564
8.94508
6.8695
8.32752
11.146
45.4026
35.1096
21.3424
56.136
31.3231
74.8044
4.57678
6.34344
12.4533
7.65451
13.3141
8.06228
9.93732
16.7138
8.16298
8.27078
9.95939
11.5049
13.7594
13.9709
16.9522
8.76382
9.14103
7.18289
10.3818
18.9025
14.3133
13.354
15.7933
12.0587
9.48101
12.562
28.0623
16.2665
21.4549
9.93928
15.6241
12.3242
21.2623
16.9094
21.0606
26.6825
10.6981
14.7812
25.6078
13.4174
32.6359
18.8217
23.0843
10.2335
16.1629
12.5198
22.3234
17.451
21.403
27.5947
3.84133
3.30005
3.47433
2.06357
4.876
2.97567
4.55911
8.23709
2.31081
2.27334
2.30676
2.59957
2.55774
2.56051
2.90372
2.89441
2.93383
2.59649
3.3545
2.94332
3.3162
3.81928
2.93229
3.05252
2.59292
3.50767
2.94669
3.36132
4.02791
2.60425
3.40417
2.95586
3.3843
2.92142
3.34132
3.90534
0.6278
1.46182
2.07764
0.49593
0.384909
0.426234
0.557092
0.59367
0.682985
0.974524
0.78742
0.519797
1.06302
0.922103
1.32657
1.25058
2.08057
1.64381
1.63056
1.24876
1.49778
2.09008
2.26198
2.80116
0.364028
0.425034
0.409006
0.445041
0.428487
0.464863
0.475825
0.379325
0.48135
0.426234
0.503811
0.446459
0.49251
0.566724
0.670614
0.590733
0.762771
0.615833
0.788761
0.896607
0.701135
0.862454
1.17607
0.970962
1.19199
0.993831
1.11698
1.32008
0.489149
0.460549
0.449601
0.501381
0.545784
0.543548
0.508016
0.499999
0.550761
0.489054
0.521472
0.587457
0.585207
0.527891
1.40937
1.36097
1.37015
1.52578
1.53485
1.49974
1.66454
0.530831
0.548897
0.476681
0.543445
0.728323
0.600721
0.641835
0.51727
0.59382
0.695069
0.564224
0.77395
0.644322
0.664345
1.01098
0.681128
0.876486
1.02599
0.9223
0.803315
1.17707
0.729106
1.06912
0.85666
1.04659
0.9679
0.82678
1.21159
1.24925
1.30838
1.09977
1.26116
1.64388
1.42874
1.46968
0.560272
0.607155
0.628413
0.693155
0.63134
0.610103
0.562349
1.13411
1.46751
1.28206
1.27391
1.63939
1.44313
1.47345
1.52344
1.76056
1.64695
1.77141
1.65898
1.7988
1.91984
1.49162
1.80702
1.65668
1.82432
1.64946
1.81312
1.98695
1.63324
1.79382
1.66046
1.81024
1.64831
1.81159
1.97367
0.61822
0.842604
0.865855
0.784575
0.706459
0.683993
0.746949
1.19283
1.07627
1.09834
1.57456
0.941669
1.3786
1.36432
1.43735
1.84783
1.84116
1.85685
1.63208
1.62946
1.64572
1.94886
1.90781
1.78737
1.95797
2.28423
2.14165
2.08866
1.92339
1.95033
1.80095
1.96155
2.29266
2.13843
2.09573
2.02794
2.017
1.82285
1.98621
2.43193
2.18301
2.19252
2.14502
2.52225
2.52609
2.61175
2.35522
2.35931
2.29247
2.69449
2.22044
1.95087
1.74338
2.71861
2.23669
2.69999
3.98488
1.88369
1.84401
1.89172
2.00445
2.0515
2.00904
2.18998
2.04053
2.38213
2.18133
2.44095
2.23203
2.39282
2.62633
1.90335
2.16816
2.09168
2.16496
2.09347
2.30612
2.41559
2.05428
2.45648
2.24016
2.40044
2.19211
2.40118
2.64714
2.53554
2.29954
2.4125
2.5451
3.03814
2.82084
2.70232
3.00934
2.45223
2.71013
2.63916
3.26773
2.93185
2.9166
2.41653
2.55864
2.30882
2.55424
3.06953
2.84783
2.71053
2.83498
3.45916
3.48498
3.58312
3.18409
3.16351
3.05278
4.6285
3.98999
3.34124
3.86827
5.48565
4.49582
4.67354
3.88324
3.37529
3.92307
3.85355
5.35463
4.54986
4.48569
4.09548
3.98791
3.39859
3.91255
5.7171
4.63497
4.74897
4.55022
6.63449
6.80451
6.48744
5.44988
5.34976
5.57498
17.2507
39.2738
42.4318
32.7736
24.5704
22.7193
29.8537
26.2947
15.6903
20.437
26.7966
43.412
34.6227
34.0583
4.38874
0.0529487
43.3204
54.1395
0.0151352
42.5443
0.060262
19.538
33.9857
23.3193
34.0785
23.6621
28.4072
38.0421
17.097
22.9026
29.1433
28.7475
35.9673
38.1176
46.1043
34.6823
38.1935
28.363
34.3918
46.1863
41.3055
42.0959
38.0794
35.7062
29.0973
34.7503
45.7128
41.7689
41.9133
27.1475
47.4225
36.7626
53.8815
44.421
54.8371
63.0886
43.2006
53.2427
39.4347
56.3482
48.2049
55.8753
62.274
41.2986
50.2208
49.9394
53.7504
48.0537
48.0077
45.9662
62.2619
64.4437
49.8993
62.9568
75.0367
68.4617
69.3166
0.00026769
6.93394
0.0225664
0.0089175
1.63722e-05
0.00453411
5.58675e-07
42.5718
49.5184
48.2251
48.9399
48.3124
53.1425
53.2446
36.7372
36.5968
39.6938
34.774
37.4434
37.2785
40.2778
53.8408
58.6803
53.5453
58.2832
62.9235
63.6731
58.0105
52.5231
56.725
52.6358
57.6345
62.4772
61.9939
57.2032
39.9005
46.7694
43.1092
43.6554
40.4782
43.4466
47.7122
39.4943
46.1644
42.8619
42.867
40.0348
43.2041
47.9896
63.0036
44.4138
25.2702
73.8918
67.6836
68.7383
62.4081
50.403
50.025
46.5279
47.5646
3.71424
17.1268
19.7381
0.0105584
4.20381e-07
27.0227
4.07735e-07
0.00502947
2.36147e-07
0.0042109
6.32434e-08
0.0101252
9.01267e-07
0.0106162
8.70056e-07
0.00870074
30.3193
28.3074
28.4872
0.0138739
0.0151515
31.9039
0.0135843
30.669
33.8652
0.0113103
31.013
0.0154867
33.5197
0.0078138
0.00333128
29.3209
28.0792
12.2059
0.0055774
25.992
0.00427045
0.00823013
29.7694
0.00876548
29.8637
0.00464059
28.2428
27.9401
28.0397
0.00867422
0.00183638
0.961396
0.00199061
0.955344
0.00134532
0.000382199
27.9793
7.13224
0.718464
0.001438
3.44112
0.00010667
0.0455887
0.62373
0.000517804
1.54263e-05
1.55575e-05
0.00669552
29.4709
29.1867
29.8897
28.2244
30.4698
31.3517
17.2989
40.0777
42.7307
40.1653
40.3638
10.4528
14.9039
40.6306
25.4029
35.1132
3.48438
33.0444
31.1969
32.9703
8.42224
48.8222
37.9115
45.6913
49.512
53.6349
12.322
1.60885
40.5162
44.9065
42.0097
5.87698
37.6666
20.6862
2.65401
31.9875
5.8368
21.7008
33.8403
33.7225
32.1257
20.3865
0.00103448
2.60774e-05
2.15533e-08
2.10546e-08
2.33589e-05
2.06971e-06
2.09033e-08
38.2429
0.969484
35.2698
1.21127
38.2022
21.4018
0.0726702
31.794
13.4981
33.5506
4.93276
33.5556
31.7493
17.57
2.9598
23.011
48.2251
49.0453
44.677
9.0876
0.732855
8.82916
34.0873
32.0462
33.1272
1.19478
35.8721
5.0028
53.7721
5.83382
28.089
0.170494
2.82303
0.076269
0.0104746
10.9412
38.8402
0.717778
34.9677
0.323461
25.6988
2.197
0.0131577
0.480404
1.30428
6.8654
50.5944
16.0374
0.0303569
29.4741
31.2848
30.072
4.27585
4.11304
3.82564
4.57378
30.3406
31.8587
30.3723
5.64888
5.0386
5.34729
5.33097
31.9039
31.1412
32.573
4.76751
4.2044
4.62746
4.32573
34.3943
33.198
33.8519
5.35425
5.54622
5.35419
5.18541
31.2748
32.3289
32.7274
4.88927
4.38701
4.43309
4.85281
34.3346
33.2705
33.8939
5.85423
5.8116
5.56032
5.54868
3.53596e-06
0.000344473
0.000472423
3.10676e-05
1.29287e-05
3.52913e-06
3.52929e-06
1.15974
36.2623
36.218
13.134
0.288843
14.1132
0.284742
28.7329
28.4869
29.0813
3.84948
2.8929
3.41804
3.2733
29.1972
28.5645
29.2523
4.6479
4.2442
4.03241
4.92164
30.023
29.2745
29.4124
3.61642
3.72377
3.09381
2.99106
30.0819
29.2264
29.422
3.77033
3.81072
3.17805
3.14174
33.7147
0.913793
36.2177
10.9478
0.262143
7.89613
0.271582
28.7947
28.8174
28.4605
3.94454
3.67753
3.11466
3.34533
5.22621e-07
9.25669e-06
5.2284e-07
5.2323e-07
5.37986e-05
3.38692e-06
5.22702e-07
22.3913
0.10537
12.6253
0.0849792
4.63462
2.28415
0.0814359
0.120201
5.93606
22.6838
6.06731
0.0483979
1.22493
0.0531729
28.976
28.5538
29.1137
2.15718
1.54473
2.08346
1.58775
28.277
28.2525
28.1592
2.66155
3.11177
2.61029
2.2408
28.9613
28.9056
29.102
2.23433
1.6458
2.2104
1.6582
27.9813
26.417
28.1557
2.15821
2.45
1.86606
1.66582
28.1017
28.0391
28.1274
3.30929
3.17685
2.59175
2.5075
3.60494
16.6296
0.0936384
5.12765
0.0579755
0.751588
0.0615801
28.5137
22.4165
28.3041
2.19873
1.84801
2.36721
1.75289
20.5707
17.099
28.295
1.60934
1.28517
1.39626
1.33985
0.958563
10.2948
10.8818
21.5128
20.2954
1.0948
1.07252
21.5296
19.3341
13.2715
1.86889
1.59108
1.54634
1.46828
0.0307349
0.031564
1.95459
0.0353342
5.51548
0.683726
0.0309325
0.00453914
0.00614514
0.0481277
0.175886
3.27299
0.0054807
0.00454821
0.96869
7.20632
8.81256
13.9481
17.3526
1.03853
1.00548
12.3133
4.33751
7.38773
0.854124
0.885321
0.857531
0.838733
0.927348
0.934219
4.86017
9.21948
6.26042
0.955147
0.941441
1.90903
0.0847581
0.129712
0.0838041
0.123024
2.06485
0.084627
1.48965
0.0391477
0.0388894
0.051863
0.0647092
0.935406
0.0393852
0.487651
3.48771
3.68321
1.69841
1.61543
0.482852
0.482797
1.01596
0.0151577
0.0166718
0.0151664
0.0420659
0.0508102
0.0153022
0.507091
2.18181
2.63417
1.07495
1.32858
0.504222
0.503716
1.43102
0.422694
0.419906
1.56679
2.64157
0.425109
0.421974
0.0251484
0.0282703
0.282892
0.0627698
0.0251071
0.025901
0.0251271
5.7782e-08
5.77663e-08
5.77655e-08
1.3469e-06
5.77662e-08
5.81895e-08
5.77655e-08
0.018788
0.0188064
0.218219
0.0187937
0.0295665
0.0190733
0.0187818
0.4276
0.427818
0.739498
0.524963
0.447091
0.427355
0.427168
5.92671
4.20527
5.53724
25.5717
6.48492
20.0792
5.51432
25.5131
18.0832
3.97815
19.1995
5.53082
27.2494
6.06039
25.4949
18.102
3.9827
4.42619
10.1652
38.5722
14.549
20.241
29.083
6.58544
4.02921
7.09904
4.36965
4.00781
4.34895
6.45226
7.0705
3.98776
4.32202
4.33018
6.38973
6.41368
7.03418
7.01028
4.00742
4.32892
4.36213
6.39831
6.44292
7.02061
7.07587
4.07336
4.62154
4.4492
6.78608
6.55856
7.22521
7.52285
9.184
7.97149
4.85698
5.52682
4.84171
7.95506
9.17808
5.51764
4.82045
4.82719
7.92687
9.14142
7.90339
9.16032
4.7594
4.91155
5.35301
7.16656
7.74204
8.0227
8.78456
4.83017
5.5938
4.87427
9.16239
7.91588
7.98706
9.26428
5.21634
5.75048
4.98851
8.18182
10.0712
8.57509
9.53295
5.24057
6.8949
5.99177
9.77908
8.57728
9.89584
11.4902
5.60368
7.38662
6.1973
10.9885
9.24453
10.2749
12.4002
12.0014
18.3515
10.9324
18.2888
10.8882
11.9633
20.0328
18.1762
10.765
10.8182
11.8969
19.8379
11.8449
19.9303
18.2254
10.7769
10.8523
19.8603
11.863
11.9616
20.0113
8.25105
8.53944
7.05105
11.7778
17.3108
14.4462
13.9158
11.4573
18.5562
11.0557
12.2263
21.2008
12.7456
20.4177
15.6364
22.4846
13.5323
13.5156
25.63
22.4855
15.6364
13.4648
25.6059
15.5654
22.3229
13.414
22.417
15.6062
15.5992
22.3283
13.435
13.5578
25.6525
22.4823
15.7698
12.1203
13.1129
21.7461
22.477
13.6068
14.9115
24.3487
13.8943
23.865
17.1305
26.1627
14.5694
22.9361
16.2229
23.8301
26.6223
16.606
16.8056
30.1666
26.9088
19.5097
25.4312
18.6756
15.7111
17.4591
31.6741
27.7208
21.0507
2.85551
1.55734
1.56385
3.6516
1.83992
2.57387
2.88947
1.84372
3.69582
1.45699
2.86071
2.98565
1.84669
3.69976
3.97407
2.00635
1.45876
2.85988
1.74815
1.88489
3.93559
3.11279
6.2701
4.26459
2.13982
1.45646
1.45733
1.56614
1.78938
1.78486
1.90992
1.91288
1.45686
1.56513
1.56552
1.77931
1.78089
1.90617
1.90433
1.46972
1.56671
1.57828
1.77987
1.79074
1.90474
1.91648
1.88419
1.50095
1.67846
1.6134
1.82352
1.95385
2.02432
2.82777
4.46357
7.53452
15.3082
7.83601
4.88823
3.66182
2.24768
1.68965
1.8449
1.69347
2.06136
2.06234
2.24824
1.84461
1.69231
1.69296
2.05848
2.24534
2.05678
2.24652
1.69407
1.86624
1.70819
2.24815
2.05779
2.07303
2.26938
1.63977
1.97448
1.77438
1.90205
2.09545
2.13055
2.27653
1.91735
1.82668
1.75039
2.11797
2.42263
2.20093
2.32394
2.05534
2.27025
2.0656
2.45444
2.25239
2.46934
2.71762
2.23757
2.87784
2.22946
2.37897
3.08381
2.38526
3.07385
2.86656
2.21941
2.22252
2.3727
3.05847
2.36959
3.06369
1.93917
2.32405
2.09187
2.5781
2.32831
2.50768
2.80017
2.21905
2.87093
2.2296
3.05788
2.36915
2.38154
3.07203
2.32981
2.90829
2.26369
2.42174
3.21485
2.4998
3.11885
2.53427
2.56173
2.28905
2.74598
3.46909
3.09467
3.0508
2.81642
3.70486
3.34825
2.57047
3.70211
3.34238
2.81547
2.56593
3.69815
2.81158
3.33054
2.56331
3.33505
2.81305
2.43179
3.29997
2.57384
3.37628
2.62293
2.79957
3.62031
2.52157
2.26562
2.52278
2.71211
3.03225
3.03799
3.42812
2.81427
3.33088
2.56365
2.57997
3.72848
3.34988
2.83674
2.62845
3.53171
3.80868
3.01226
2.72209
3.40911
2.89652
3.01897
3.56438
2.76492
3.04062
4.4668
3.97026
3.36083
3.19858
3.21344
2.8337
3.93913
3.43447
3.91691
4.53317
3.20118
2.83578
3.21905
3.96891
3.44847
3.92724
4.56511
3.744
3.205
2.87447
3.09804
4.71479
4.07074
3.49031
3.40428
4.39972
5.21516
5.36258
4.54662
3.88137
3.80943
3.35456
5.16698
3.78164
5.21511
3.79658
4.33691
6.15655
4.19641
4.20735
3.64693
4.52979
6.31779
5.32497
5.29782
5.08763
6.15114
4.34197
5.0524
9.29786
6.02378
7.46866
6.28963
5.18755
4.38424
5.08442
9.57164
6.13167
7.56509
1.12794
2.41239
1.37827
1.57085
1.69243
1.28439
1.51244
1.69624
1.0127
0.921632
1.03696
1.01709
1.12269
1.13804
1.24324
1.38314
1.36755
1.24661
1.23914
1.12226
1.24627
1.36933
1.24636
1.12622
1.24539
1.38335
1.25416
1.3736
1.51734
1.19022
1.4863
1.38647
1.50646
1.29964
1.40822
1.62225
1.52815
1.85221
1.67308
1.53097
1.3818
1.51453
1.67463
0.759721
1.5323
1.5197
1.12096
1.1267
0.989317
1.54652
0.767437
1.21316
0.805861
0.99816
1.13988
1.54971
1.46151
1.11884
1.21754
0.774598
0.826354
0.877475
0.84523
0.896208
0.956149
0.973417
1.42915
1.06661
1.3619
1.01534
1.05285
0.904877
0.975879
0.814066
0.828197
0.867613
0.866411
0.86746
0.942011
0.945209
0.852787
0.934781
0.879113
0.96896
0.924222
1.00364
1.05724
1.23986
1.17725
1.48426
1.12951
1.08855
1.05641
1.14534
1.01192
0.901993
0.934226
1.02933
1.13421
1.03501
1.12725
0.905986
1.02061
0.926907
1.14297
1.04464
1.06124
1.16156
1.04703
1.29788
1.20329
1.20496
1.01055
1.09686
1.30192
1.20907
1.02053
1.01159
1.1001
1.3092
1.10841
1.30631
1.06536
1.03114
0.965636
1.09713
1.27809
1.16092
1.20476
1.02983
1.22893
1.0437
1.31272
1.11595
1.12901
1.32443
1.31018
1.25799
1.07097
1.15964
1.41779
1.21606
1.35729
1.31555
1.21592
1.407
1.19571
1.54164
1.41358
1.3065
1.20085
1.54578
1.31827
1.41977
1.2079
1.41796
1.31276
1.32302
1.42257
1.21337
1.22692
1.5675
1.43587
1.33993
1.33061
1.54642
1.69727
1.26403
1.61545
1.47549
1.38505
1.53689
1.4003
1.6102
1.75998
1.94171
1.54098
1.76678
1.42669
1.64889
1.8159
1.55121
1.97459
1.78408
1.7133
2.08732
1.87852
2.15746
1.70255
2.1734
1.95344
1.88606
2.32043
1.8733
1.67073
1.87352
2.92453
2.59356
2.07247
1.85983
1.53077
1.51022
1.38176
1.52661
1.69096
1.66675
1.84653
2.05274
1.84972
1.693
2.07719
1.87221
2.04955
2.28388
1.68391
2.07171
1.86866
2.03868
1.84045
2.04572
2.27806
1.69319
1.93789
2.14908
2.14751
1.87029
2.07619
2.39407
2.3132
2.07553
2.31272
2.2811
2.88886
2.557
2.55723
2.08043
2.69648
2.39924
2.31444
3.03724
2.59469
2.6867
2.3085
2.39482
2.69054
2.31129
3.03805
2.59067
2.68553
3.33061
3.9705
3.45301
3.45754
3.03287
2.92578
2.59098
1.6039
1.67707
1.23675
1.30628
2.29329
2.02993
1.76459
1.73209
1.34265
1.28314
1.35258
1.46302
1.40743
1.41253
1.54203
0.990452
1.08137
1.03688
1.37159
0.786616
0.997098
1.35312
1.04859
0.734737
0.652246
0.864404
1.63384
1.05453
0.872039
1.05061
0.880202
0.684417
0.88594
0.771441
0.62776
0.670946
0.735201
0.781371
0.680319
0.791242
1.42088
1.57477
1.28428
1.45559
1.0865
1.32742
0.963677
1.46716
1.14925
0.81801
1.89641
1.33714
1.49884
1.2318
1.16289
1.44875
1.45855
1.12714
0.857609
0.815883
1.17388
0.667622
0.856744
0.777764
0.806691
0.731397
0.853199
0.937065
0.84617
0.885818
0.817185
0.910489
0.85666
0.880662
0.962071
0.717485
0.906536
0.82984
0.832347
0.746577
0.868174
0.963691
1.23627
0.890155
1.0416
0.756251
0.788619
0.788843
0.838002
1.69526
1.11671
1.28704
1.16023
1.26691
0.886939
0.931383
0.702033
0.70744
0.696205
0.751642
0.839006
0.725555
0.752753
0.948304
0.896421
0.914272
1.04974
1.03227
0.999654
1.13888
1.0009
0.987624
0.916176
0.967397
1.16264
1.05836
1.06921
0.908648
0.894569
0.812643
0.94361
1.13622
1.03073
1.04481
0.955946
0.956142
0.869183
0.95306
1.14053
1.0428
1.04574
0.830959
0.928973
0.940036
1.02568
0.928753
0.932151
1.03958
1.00449
0.960037
0.961886
0.862158
1.05211
0.940196
0.964499
0.733153
0.718109
0.770726
0.746763
0.851356
0.817487
0.787421
0.696455
0.27496
0.274291
0.231398
0.598808
0.936195
0.603326
1.25349
0.287625
0.475331
0.47572
0.398464
0.6124
0.591937
0.341424
0.8469
0.73495
0.88417
0.677591
0.771659
0.760148
0.948542
0.107069
0.146016
0.412031
0.513096
0.16649
0.344531
0.241957
0.515736
0.743529
0.674122
0.50903
0.690844
0.647962
0.442292
0.521811
0.7083
0.884115
0.70413
0.644538
0.491183
0.905415
1.08641
0.935293
0.844049
1.09739
0.830615
0.791103
1.06591
0.374147
0.512018
0.3674
0.544223
0.226639
0.359688
0.326972
0.750653
0.62435
0.468147
0.672044
0.600946
0.456867
0.866217
0.339842
0.515408
0.222469
0.252715
0.303624
0.381163
0.409553
0.202658
0.456148
0.296739
0.596553
0.285708
0.502815
1.09889
0.630923
1.25102
0.179395
0.232743
0.268442
0.277382
0.278725
0.303692
0.208484
0.292914
0.282194
0.288777
0.311927
0.312936
0.310105
0.321005
0.323994
0.326432
0.292345
0.425859
0.330264
0.333039
0.396741
0.290196
0.411729
0.346254
0.493081
0.402859
0.358664
0.576643
0.321033
0.311022
0.301352
0.320573
0.350924
0.333567
0.330814
0.429015
0.606337
0.402835
0.61665
0.708511
0.853922
0.526717
0.235108
0.113032
0.134068
0.262076
0.14164
0.255268
0.162586
0.504417
0.806672
0.734998
0.71134
0.940369
0.934512
0.766988
0.337892
0.351196
0.378961
0.430351
0.355634
0.34489
0.377594
0.312405
0.36022
0.462477
0.314979
0.365834
0.251062
0.365158
0.583825
0.397522
0.666355
0.555724
0.423407
0.514868
0.740237
0.66123
0.525841
0.62122
0.775638
0.479849
0.703551
0.785292
0.291681
0.171278
0.314089
0.234649
0.28495
0.194531
0.32723
0.807924
0.93197
0.878551
1.13887
1.03065
0.707409
0.942364
0.86146
1.06559
1.18562
0.962503
1.04616
0.853173
0.963121
0.34118
0.364049
0.373008
0.370437
0.350146
0.350192
0.366442
0.0604979
0.0503659
0.0878257
0.0510038
0.0895229
0.12254
0.0599139
0.0550006
0.165238
0.0937663
0.0584574
0.223767
0.118038
0.0643942
0.138614
0.0525336
0.0661779
0.0529371
0.0668183
0.0771417
0.0535894
0.0525025
0.0503585
0.0617198
0.0512519
0.0535703
0.0767456
0.0544405
0.0808245
0.223003
0.397535
0.291209
0.307896
0.161272
0.0828713
0.212671
0.0507618
0.0512394
0.0509349
0.0499037
0.0498709
0.0494464
0.0504264
0.0639295
0.096908
0.125342
0.0791096
0.0953135
0.0563514
0.0530873
0.169045
0.0787339
0.186921
0.0606633
0.113471
0.0636848
0.126228
0.0580651
0.0496983
0.0550096
0.0502839
0.0492831
0.0515907
0.0498641
1.85086
1.64569
1.30424
1.61238
1.18479
1.02318
0.910597
0.942251
1.0914
1.0189
1.18201
1.08653
1.29606
1.26628
1.40205
1.52652
1.81844
1.50266
1.23062
1.19403
1.93463
0.915143
0.790476
1.15613
1.12462
1.40668
0.83015
1.20833
1.40172
0.947155
1.24541
1.47236
1.40598
1.5952
1.5149
1.64286
1.64593
1.44698
1.36037
1.42996
1.8075
1.69905
1.6298
1.46139
0.783982
0.759028
1.08447
1.18519
0.891303
0.864901
1.00424
1.18735
1.48715
1.52274
1.44983
0.952871
0.988614
1.3451
1.24912
1.08177
1.12445
1.27961
1.32215
1.46879
1.3925
1.27405
1.5314
1.34766
1.34373
1.42487
1.53256
1.49745
1.83221
1.87467
1.80384
1.68392
1.34367
1.59825
1.46313
1.18997
1.03842
0.968124
0.957639
0.931301
1.10535
1.04521
1.44183
1.78647
1.54669
1.66376
1.75973
1.85078
1.57045
1.44297
1.3522
1.44811
1.56885
1.60344
1.42644
1.57683
1.94261
1.78301
1.6933
1.70733
1.66838
1.61893
1.86901
1.16088
1.05549
1.35516
1.45547
0.808245
1.17383
1.06694
1.53628
1.99737
1.17196
1.19242
1.57072
1.12836
1.28905
0.647454
0.995003
1.14255
0.959439
1.10997
1.11347
1.2558
1.29054
0.814799
0.762118
0.970818
0.896223
1.0706
1.22873
1.03638
1.17404
1.21338
1.19438
1.3121
1.44262
1.36364
1.35176
0.989868
1.13471
0.878669
1.09237
1.06143
1.28906
1.29354
1.33732
1.42194
1.24485
1.41387
1.8024
1.54785
1.61974
1.45343
1.28516
1.13008
1.33078
1.20919
1.36577
1.49718
1.58344
1.39635
1.36095
1.43433
1.68873
1.47818
1.60102
1.5062
1.87571
1.7698
1.92764
1.66927
1.59553
1.75488
1.6871
1.84951
1.70912
1.52646
1.48812
1.81154
1.71035
1.53931
1.08481
1.10964
0.850774
1.14633
1.07543
1.58484
0.278233
0.42385
0.186424
0.374992
0.299517
0.0552656
0.12182
0.18488
0.0702471
0.0526516
0.0496009
0.276636
0.628138
0.812128
0.580669
0.257978
0.486809
0.24055
0.0535159
0.096667
0.0600155
0.0990897
0.0607163
0.0762442
0.140852
0.133466
0.179819
0.269369
0.185361
0.284266
0.298292
0.224873
0.0498483
0.048835
0.0505617
0.0491137
0.0509847
0.0550283
0.0495422
0.343814
0.481528
0.347943
0.517182
0.376614
0.390897
0.533878
0.344055
0.227746
0.0642849
0.539132
0.452337
0.299834
0.360771
0.906523
0.652287
0.291311
1.15029
0.670327
0.444759
0.942322
0.198738
0.147121
0.0791356
0.113486
0.235277
0.188508
0.16555