/*--------------------------------*- C++ -*----------------------------------*\
  =========                 |
  \\      /  F ield         | OpenFOAM: The Open Source CFD Toolbox
   \\    /   O peration     | Website:  https://openfoam.org
    \\  /    A nd           | Version:  9
     \\/     M anipulation  |
\*---------------------------------------------------------------------------*/
FoamFile
{
    format      ascii;
    class       volScalarField;
    location    "0.0018";
    object      impulse;
}
// * * * * * * * * * * * * * * * * * * * * * * * * * * * * * * * * * * * * * //

dimensions      [1 -1 -1 0 0 0 0];

internalField   nonuniform List<scalar> 
14424
(
69.302
70.6407
77.2665
47.366
53.9958
39.7133
23.5932
31.2904
31.8381
0.00617362
7.44509e-05
7.03308e-06
57.6053
31.9861
61.913
36.6878
22.5129
7.83918
15.8784
6.24965
5.02603
0.55071
0.437253
0.0317304
0.752893
8.51002
47.811
39.2183
86.3681
51.5643
47.6998
35.8078
81.8522
45.3005
42.5129
22.3542
63.648
29.7434
74.2805
39.9647
27.2703
15.8286
52.0232
15.6942
33.3569
11.3465
41.5908
22.4634
11.1925
6.16873
26.4677
8.40676
33.2387
18.5784
11.1911
4.248
20.3038
2.74043
14.9434
2.60916
14.246
7.52906
1.20789
0.927019
4.22879
1.41263
8.55478
4.83944
5.13251
0.0196864
0.469066
12.3377
5.79026
2.58175
0.878616
10.9729
8.1726
1.67092
345.149
103.127
269.712
91.1795
125.052
28.5703
61.5153
0.744398
0.854549
0.00106908
188.904
176.195
316.722
177.356
114.026
103.851
96.3638
91.405
169.71
94.5535
198.204
113.947
29.8761
59.3233
48.9252
18.1764
81.6562
4.35571
78.2613
17.3298
0.0987825
0.131028
2.13735
0.0112497
114.641
63.3232
8.56365
0.00920439
22.8499
0.149337
0.000609568
0.00107819
0.00999277
0.000213161
99.8896
141.835
73.1659
102.518
139.839
71.9165
102.56
52.1969
115.692
57.2214
82.6546
70.563
98.9634
45.7255
0.712856
23.1182
5.25092
13.3909
3.40592
8.14348
1.4594
0.00487227
0.240591
0.0519557
0.21577
0.0183986
0.0646198
0.0141935
4.36445
0.0806434
0.291408
0.031912
0.00236138
0.00801701
0.000205465
0.0265554
0.00109517
257.92
418.331
194.827
187.932
414.036
192.959
260.007
250.073
183.053
380.636
179.017
399.396
187.043
238.751
93.714
100.049
126.968
64.5259
134.691
68.987
84.1281
202.353
358.22
167.753
158.452
223.131
330.352
152.036
174.984
140.624
246.661
95.5686
294.476
128.164
139.279
31.0937
68.416
47.6184
15.1985
75.177
30.407
13.1438
64.9584
189.705
61.0989
52.0628
99.8959
134.312
33.3185
40.0551
30.7643
60.5045
7.32623
90.5624
16.2303
24.1068
0.191351
5.47175
0.778968
0.16065
2.47566
0.461154
0.0603113
89.9269
142.498
89.5326
100.327
112.593
125.373
70.4461
79.7368
90.4924
124.288
54.9948
66.9125
84.0124
82.0435
30.4278
106.241
50.8418
42.6842
42.5597
8.74365
26.7589
15.9087
5.62158
38.7155
2.74813
3.13842
13.135
21.4469
0.77975
1.64092
0.757525
2.30911
0.0358717
8.95701
0.181198
0.340424
0.00114064
0.0504832
0.00296411
0.000647223
0.0151808
0.00332656
0.000226111
1.49981
0.152141
0.0145087
3.00037
0.0259692
0.338688
0.179912
3.80105e-05
2.63621e-06
2.96149e-05
0.00220886
3.97815e-05
3.76703e-05
3.18489e-06
0.0551573
0.0266996
0.366198
0.0049643
0.00364979
0.0470486
0.00069066
6.79297e-07
0.0262653
1.01433e-05
190.039
181.846
174.303
138.027
124.435
91.8232
143.697
98.1077
83.4286
52.722
40.3286
14.8515
96.2203
72.7478
21.1645
15.5684
42.9446
82.8019
119.265
192.569
87.6002
121.754
40.2587
44.9833
188.513
93.8122
118.378
92.1012
120.905
46.9482
49.9268
94.8841
114.362
164.472
48.981
92.7478
108.916
49.1836
151.7
82.1653
92.807
87.9029
101.824
46.6667
38.2464
75.8337
82.2517
112.068
42.6074
69.6733
71.9566
34.5016
101.273
59.974
54.999
64.533
62.8262
31.4778
26.0565
56.3012
47.7461
74.8164
28.9009
52.9381
39.8101
22.4337
64.7136
45.7135
20.6628
49.0243
30.5235
18.5473
200.146
183.573
177.62
130.46
217.336
169.826
161.26
182.183
116.027
138.694
121.969
155.295
143.729
160.695
25.3075
59.4709
13.6802
22.2192
28.2242
49.4664
6.65371
108.548
91.2384
42.9872
129.734
76.7916
93.9416
56.2309
7.74073
0.000124529
8.41816e-05
0.034032
8.95183
2.78233
2.06018
2.99225
5.7127e-05
0.409715
5.17637e-06
0.00166144
8.1186e-08
1.22421e-05
1.25953e-09
0.00180609
1.5495e-08
4.27369e-11
1.30945e-09
18.4803
4.8143
9.37624
3.05336
0.250727
0.000698234
0.0748812
0.000330019
5.12918
0.419994
0.128631
0.00252619
0.0299819
0.000110834
0.0284255
0.00109277
0.000702557
0.000186048
0.000214972
7.75128e-05
2.56335e-06
1.59805e-05
0.00447951
6.04652e-07
3.25908e-05
1.52358e-06
0.356983
0.00131397
0.00191754
0.968968
0.210347
0.000702467
0.000850922
0.026129
0.000121349
0.000112965
0.0077593
0.00020357
6.77134e-05
1.25597e-05
4.86859e-05
2.50922e-06
2.64056e-06
4.05802e-05
1.3761e-05
2.49944e-07
6.55488e-07
3.36439e-06
3.13371e-08
1.43066e-07
1.50292e-07
6.27645e-07
3.36971e-09
2.38492e-08
3.68644e-05
4.33327e-07
1.76094e-06
1.40956e-05
5.80844e-07
56.4868
48.6363
20.8071
16.9359
46.6557
18.8388
59.5014
49.5999
13.6595
34.7851
9.60227
41.99
14.7891
39.4702
0.00516686
0.019811
0.063385
0.212082
0.0166525
0.0529974
0.006237
0.00325661
0.144162
0.00537764
0.0170795
0.0109094
0.0345404
0.00151101
15.1477
25.3421
4.76892
2.02978
27.364
15.2595
1.61094
5.60996
0.556924
1.85922
0.0790332
6.67055
0.393684
1.2407
0.000142426
0.00201848
0.00637373
0.00929173
0.000528684
0.000589421
0.0018545
0.0493796
0.420722
0.0149078
0.00693627
0.234281
0.105525
0.00325181
0.0136655
0.00212902
0.010891
0.000306197
0.0324478
0.000935284
0.00433979
0.000352675
0.00336004
9.16709e-05
5.66181e-05
0.00136366
0.000894501
2.69687e-05
8.33299e-05
1.31082e-05
4.03581e-05
1.92182e-06
0.000209215
6.48048e-06
1.6837e-05
9.42612e-05
0.00789511
0.000238279
0.000963347
0.000393131
0.00164139
5.79766e-05
5.21207e-06
1.21433e-05
8.85765e-07
2.4857e-07
1.88413e-05
3.38715e-06
3.31431e-07
3.18806
0.250524
2.58606
2.6821
0.211702
0.201972
0.244358
0.346793
0.0277878
0.135232
0.103136
0.00841878
0.00624673
0.0223178
0.000906359
9.63935e-05
0.00040076
0.000203425
2.35794e-05
1.45155e-05
5.3028e-05
6.54405e-06
7.36612e-07
3.23681e-06
2.00163e-06
2.12551e-07
2.5816e-07
6.83783e-07
0.00039596
0.000116076
0.000260016
3.09338e-05
1.81596e-05
6.87723e-06
5.53907e-05
7.67068e-08
6.68189e-10
3.2759e-09
2.27699e-08
1.17386e-08
8.66554e-10
7.33379e-10
3.14696e-06
1.28569e-07
1.68832e-07
8.34883e-09
1.80184
0.886081
0.0709719
1.76744
0.140377
0.128268
0.0613938
0.0348505
0.00473486
0.000484371
0.0242115
0.00206077
0.00137754
0.000285022
0.000123349
2.09131e-05
2.54928e-06
6.36685e-05
7.33819e-06
4.91747e-06
2.24612e-06
7.44733e-07
1.64505e-07
1.03569e-08
4.78518e-07
4.62756e-08
8.03442e-08
2.90301e-08
7.08364e-06
3.2878e-07
1.11738e-07
2.41515e-06
1.20854e-06
6.74355e-07
1.88414e-07
2.29414e-05
1.98846e-06
1.00412e-06
2.78344e-05
1.15068e-05
1.13686e-06
5.32456e-07
3.67841e-06
2.23041e-07
1.41817e-07
1.37422e-06
5.49793e-07
4.29342e-08
2.63806e-08
1.03093e-07
2.7298e-09
4.21057e-09
9.11681e-09
2.80555e-08
3.54976e-10
1.24274e-09
5.99937e-09
5.33339e-11
2.37774e-10
1.45998e-10
9.38994e-10
8.77117e-12
4.99921e-11
3.44316e-08
3.13736e-09
7.86709e-11
3.0114e-12
5.85852e-07
2.86455e-05
8.72574e-05
0.000795744
1.82807e-06
6.38917e-05
0.000385267
2.71965e-05
1.14979e-05
1.58824e-05
1.00101e-06
0.000114461
0.0277086
6.93585
0.63615
0.00474395
9.44606e-05
7.14026e-06
5.88197e-07
6.73468e-09
1.02249e-07
6.15958e-06
2.69272e-07
9.3025e-05
0.000192859
7.43446e-06
0.00257615
4.85592e-05
5.64873e-05
3.38927e-06
1.44583e-05
8.79614e-06
7.72452e-07
2.92029e-05
2.65999e-06
1.85466e-06
1.61147e-07
5.81896e-07
4.23931e-07
3.53276e-08
2.27963e-06
1.9169e-07
1.40465e-07
1.24411e-08
4.72088e-08
3.16111e-08
2.82908e-09
1.09235e-07
1.10985e-08
6.06433e-09
9.37271e-10
5.92932e-09
1.47031e-06
6.37757e-07
8.115e-08
3.92316e-08
6.32527e-08
1.19324e-08
7.75148e-07
1.17131e-07
6.36227e-09
3.96308e-10
7.6628e-13
6.29541e-10
1.04803e-11
6.15055e-11
1.05586e-12
1.72671e-12
2.874e-14
5.60249e-14
0
8.24609e-15
0
2.84154e-11
5.89838e-13
3.88051e-15
0
1.23037e-06
2.62599e-07
4.38646e-08
5.44262e-09
1.38906e-08
3.49469e-10
8.51142e-12
1.81899e-13
0
0
293.809
251.741
271.857
266.864
290.554
241.314
251.343
259.475
235.18
1.4653e-10
4.03917e-10
6.63458e-12
4.94695e-11
9.03431e-13
2.84914e-12
4.53535e-14
1.51461e-13
0
3.77137e-14
0
2.32532e-08
2.48342e-09
1.38845e-10
8.30623e-12
2.72097e-12
142.207
3.0361e-06
2.11661e-07
1.68057e-05
0.00016774
1.41425e-06
3.03515e-05
3.69442e-06
1.72934e-07
4.04912e-07
1.0008e-08
108.485
100.164
12.4747
0.94322
0.0151058
0.00139298
4.70369e-05
1.40657e-05
1.24873e-06
1.41015e-07
6.84754
0.0274756
9.50037
2.46984
1.46775
1.80843
0.893461
0.126677
0.252349
503.805
410.373
629.637
410.253
329.051
336.774
744.409
678.511
763.81
565.688
823.372
610.681
687.903
1244.27
1272.37
1359.04
1161.3
645.791
490.067
441.429
491.506
528.864
595.545
531.645
1104.28
865.773
1030.06
923.645
297.859
358.643
384.675
273.448
410.423
285.803
287.241
486.325
672.756
706.228
478.936
695.513
567.858
312.453
164.424
22.1497
397.076
615.959
354.299
329.016
375.1
230.227
197.358
188.202
129.303
86.87
715.904
605.089
832.523
691.512
602.923
821.722
724.167
542.934
498.249
688.067
510.491
601.554
449.719
619.505
250.437
283.641
355.586
259.189
319.756
239.662
273.002
101.074
158.825
130.518
141.917
127.481
138.891
101.529
0.272704
0.00161986
591.248
503.741
476.285
395.058
501.124
471.33
597.566
1242.88
1436.95
1411.8
1262.89
1024.59
800.708
791.09
1039.71
685.282
657.407
538.734
742.262
574.001
785.952
647.68
566.73
377.025
448.33
431.173
477.449
454.239
535.837
1183.98
1259.56
1342.86
1113.11
977.468
718.095
758.704
920.968
451.479
415.751
402.333
299.582
498.625
377.172
365.32
949.677
1168.42
1036.24
1067.63
791.532
673.967
860.801
622.431
473.383
444.173
335.685
447.197
393.689
537.643
396.893
395.643
265.741
286.625
270.764
332.723
321.138
333.671
847.547
804.138
949.635
721.352
707.888
473.716
557.98
602.372
214.655
245.084
219.102
169.291
271.033
209.877
172.762
425.908
634.385
573.495
464.415
355.367
373.298
478.172
274.178
195.583
218.101
179.816
163.303
205.389
207.982
156.782
169.811
146.81
160.416
110.077
181.93
136.264
137.496
301.99
218.714
321.401
211.497
252.891
133.638
192.436
178.317
93.7733
147.495
146.68
91.2405
74.567
117.085
89.1535
44.4952
116.775
72.9181
47.305
50.01
16.1828
46.388
18.8331
0.0198795
2.70889
0.127022
0.169315
3.50065
0.0272611
0.36945
727.261
674.911
599.458
505.408
427.973
600.84
562.745
469.638
385.824
315.456
215.119
194.534
166.803
651.626
522.08
356.347
615.302
322.546
302.952
231.717
209.681
157.67
532.604
432.656
446.304
522.86
534.317
465.353
462.321
518.665
448.884
448.879
488.034
417.53
411.961
385.464
290.114
485.042
367.986
462.578
358.123
376.271
464.746
476.347
475.366
343.691
358.069
418.123
372.248
444.777
454.183
397.492
339.925
392.441
281.414
429.419
318.446
360.635
363.016
256.149
271.728
291.433
293.997
324.799
332.509
279.597
251.491
262.221
190.192
305.088
232.309
236.747
257.43
173.086
198.59
195.283
215.171
214.729
236.392
2.18172e-06
5.54101e-08
2.68575e-07
1.32901e-09
6.17215e-09
6.99603e-07
5.86671e-07
2.25008e-07
1.61174e-07
3.80118e-08
5.23302e-09
1.98411e-09
7.7147e-11
4.28498e-11
1.37115e-12
6.54597e-09
9.71624e-11
2.53903e-10
359.094
832.119
128.871
0.191897
0.000671815
9.02844e-07
2.28965e-07
1.26568e-08
4.92249e-10
295.705
690.164
91.5483
0.0159058
5.60655e-05
1.06479e-07
4.69267e-10
1.00607e-09
2.39954e-11
92.7313
377.207
3.65287
1.56386e-05
6.54793e-08
6.97971e-10
1.14111e-13
1.18467e-11
4.01027e-13
3.55011
150.243
0.00148062
3.1251e-08
1.59245e-11
3.75573e-12
1.03076e-13
1.49157e-13
3.27418e-15
8.84278e-05
4.82546
5.14402e-07
0.000186945
5.03632e-10
9.92418e-10
5.23141e-13
2.35211e-11
6.74811e-07
0.000563909
2.34676e-09
1.24315e-06
5.93039e-12
2.07109e-10
748.048
658.988
712.274
606.913
732.803
272.303
340.563
661.386
258.566
774.7
742.1
684.006
24.7043
118.612
17.4131
0.011793
0.00048426
8.43532e-05
0.0972501
0.00316248
0.000292796
5.20971e-05
5.7391e-06
1.14244e-05
2.11573e-06
0.000163008
1.19338e-06
5.28964e-06
8.68046e-07
630.689
528.874
618.379
229.987
225.258
423.829
175.471
463.135
5.49042
42.5069
0.411129
0.00116705
5.63453e-05
4.44884e-05
0.000851901
1.26504e-05
1.66911e-05
3.13595e-06
3.75125e-07
1.19993e-06
1.28621e-07
5.28463e-07
4.1736e-09
6.07154e-08
7.70759e-09
418.384
318.605
260.937
350.122
125.643
28.0198
179.186
26.6739
189.594
189.551
0.00824956
0.0289401
7.05546e-05
1.63263e-06
6.1702e-07
8.0111e-08
2.33633e-07
2.3364e-09
1.314e-08
1.45974e-09
8.7265e-10
1.76676e-09
3.66e-10
9.52718e-11
2.6114e-11
3.98503e-11
2.50187e-11
206.861
233.277
142.106
160.363
139.987
1.57085
0.099088
33.1694
0.000519081
162.901
41.96
78.8397
4.8543e-06
3.19489e-05
3.32008e-08
3.88556e-10
5.5865e-10
3.67598e-11
1.11306e-09
1.54625e-11
4.40756e-11
1.71882e-12
7.41032e-12
1.14499e-12
2.3699e-12
3.55183e-11
5.32232e-10
7.3184e-13
2.37014e-12
7.58728e-05
7.80087e-09
7.44795e-09
5.0833e-07
1.97739e-06
1.60289e-08
6.52553e-08
0.00335934
1.92684e-08
3.10859e-07
5.76705e-06
1.89463e-05
2.15323e-07
5.91143e-07
26.3651
0.00021857
4.1908
2.76221e-05
0.00178836
4.52803e-07
7.28974e-06
4.90196e-10
8.54632e-08
1.1728e-10
175.386
167.037
141.243
0.823385
18.1156
17.6424
124.651
0.432628
11.5719
134.64
43.3415
82.8385
0.00235673
2.52191
0.163858
26.6411
0.0010456
0.120436
2.88874
0.0530144
0.0470268
2.95332e-05
0.00139066
3.95032e-05
0.000487033
2.93291e-06
2.54895e-05
0.00211044
8.47855e-05
7.1917e-05
3.48846e-07
4.61835e-06
7.69357e-07
1.03247e-05
3.46229e-08
4.32002e-07
1005.28
860.379
985.25
815.962
846.19
965.617
1025.32
125.413
187.347
183.844
87.2479
138.319
136.559
88.8682
9.58763e-06
3.62979e-05
0.000204224
0.000573585
3.07611e-05
0.000170429
1.15426e-05
772.445
702.622
829.766
626.209
850.865
633.833
758.566
153.68
69.2161
132.452
58.5533
123.321
71.5459
112.05
1.93055e-07
2.59124e-06
1.44283e-05
1.49841e-05
7.31161e-07
6.6525e-07
3.63192e-06
301.484
373.561
419.132
300.013
423.81
295.9
296.974
0.354647
28.5551
6.16392
0.867745
36.5147
5.85961
12.1599
9.94063e-11
2.54601e-09
1.32779e-08
6.74446e-09
6.53304e-10
2.60051e-10
1.37487e-09
71.4973
153.024
92.8506
113.804
103.328
120.973
60.1496
8.60205e-05
0.00836036
0.000481212
0.00030217
0.0336618
0.00168869
0.00614825
1.01621e-13
6.55443e-13
3.43886e-12
2.4309e-12
2.32952e-13
2.32831e-13
6.05723e-13
1.47779e-05
0.113873
6.15295e-06
0.905123
0.00174656
0.00387142
2.88965e-05
16.4426
0.00409316
0.149926
0.00962041
0.15564
4.41944e-05
0.000846826
5.72675e-06
0.000541391
8.52109e-06
3.45677e-05
2.46152e-05
0.00010218
2.13648e-06
1.56978e-11
3.94781e-12
2.31519e-10
3.95465e-10
5.65633e-12
2.11399e-09
6.87054e-11
8.05264e-09
2.17574e-11
6.31269e-11
7.59915e-09
2.02102e-08
2.57792e-10
6.92665e-10
696.963
604.338
859.925
719.368
593.906
843.965
709.765
267.51
375.86
369.576
619.809
276.887
272.332
633.214
1172.13
1493.54
1459.62
1197.44
673.588
693.66
546.458
779.87
574.305
815.471
641.066
356.815
246.326
338.433
594.691
252.556
263.526
561.44
1122.51
1324.37
1396.7
1060.56
978.077
832.907
927.082
767.958
822.39
913.004
995.478
1691.08
1692.64
1651.27
1733.19
1641.27
1574.36
1543.74
1678.08
963.499
783.201
761.087
884.68
808.259
929.233
913.161
935.898
729.91
736.134
824.284
783.543
872.596
885.958
1606.56
1485.89
1574.14
1508.07
1559.46
1373.29
1466.59
1461.6
22.3235
74.801
70.9791
55.4833
20.7167
18.9071
57.8651
177.495
107.783
167.929
84.3116
129.968
133.805
79.5639
62.6458
11.1891
50.2724
50.4489
10.3871
15.218
42.3694
0.0331447
0.184755
0.00310498
0.0101345
0.155144
0.00260329
0.0399997
0.0212448
0.00654931
0.0534119
0.000732012
0.104216
0.0016162
0.0102082
8.26297e-07
2.36383e-06
2.42555e-06
4.71554e-06
1.97254e-06
2.00096e-06
9.82132e-07
5.68422e-06
0.000358584
8.03384e-06
4.47241e-05
1.86797e-05
0.000102501
2.40679e-06
4.49432e-07
2.81786e-06
4.73028e-07
5.18411e-07
1.15723e-06
1.1347e-06
2.00989e-07
545.381
508.454
734.796
563.092
598.855
461.284
673.942
314.054
207.647
282.439
475.505
239.405
522.674
222.212
913.384
1248.52
993.556
1153.27
478.813
497.245
351.385
492.285
408.892
593.574
397.19
241.159
187.577
129.917
415.264
158.247
197.119
336.267
810.124
857.377
1028.1
670.747
1291.3
1394.76
1407.12
1285.15
672.709
548.686
461.542
548.148
551.515
664.637
553.743
1147.46
953.685
1144.71
956.717
35.1681
1.81758
19.7806
19.2699
5.67036
31.5268
2.21393
102.333
17.6625
64.9511
40.1458
67.1314
93.742
20.048
0.067662
7.39173
1.42717
8.41353
0.112038
0.567143
2.11636
0.00103783
0.0211677
0.000249019
0.000328789
0.00370086
0.00636434
6.50279e-05
0.000208326
7.36503e-05
0.000268963
2.12426e-06
0.0014907
1.32457e-05
3.60998e-05
1.53093e-08
1.44179e-07
1.47836e-07
9.79894e-08
5.48623e-08
3.6346e-08
4.33623e-08
3.54742e-08
3.24164e-06
2.13703e-08
1.11375e-07
1.38141e-07
7.20201e-07
6.18667e-09
2.65503e-09
2.14533e-08
1.19286e-09
1.96595e-09
7.32937e-09
7.8736e-09
5.91847e-10
219.756
292.059
379.4
281.659
306.341
236.54
271.168
67.8648
77.6004
32.2922
144.985
107.206
240.285
56.6431
312.161
638.543
493.82
411.311
148.282
224.476
151.106
120.886
189.475
181.712
98.5813
7.33642
6.95344
0.851999
70.6598
3.93164
19.7076
28.2927
163.429
100.844
222.429
71.1492
478.771
711.175
719.98
461.962
204.684
237.745
188.649
133.997
234.044
198.27
142.696
209.774
224.482
188.466
160.744
228.977
211.064
153.109
279.83
125.564
256.904
152.217
303.927
206.479
317.562
183.31
0.00078009
0.180271
0.0169059
0.0422805
0.016952
0.344915
0.00193492
0.540337
0.0544417
0.00308398
0.0915315
0.21193
1.85605
0.010507
9.50932e-06
0.0014608
0.000165439
0.00425734
2.33939e-05
0.000192604
0.000501565
4.53064e-07
3.6177e-05
2.6374e-07
1.70766e-07
4.36764e-06
3.89028e-06
2.70775e-08
4.67023e-08
1.75717e-08
5.18294e-08
4.04597e-10
3.95249e-07
2.86304e-09
6.44291e-09
1.97318e-11
1.83e-10
3.33188e-10
2.35802e-10
7.6559e-11
3.14326e-11
1.07009e-10
8.89862e-12
7.03232e-10
3.88621e-12
2.11916e-11
2.74486e-11
1.45576e-10
2.17866e-12
3.5879e-12
7.9675e-11
1.61635e-12
1.0969e-11
6.37422e-12
3.13606e-11
1.18077e-12
38.3851
117.65
81.0612
102.724
64.8964
85.8326
49.8154
0.29554
0.0235028
0.131146
2.41134
0.648526
9.73214
0.121051
9.25414
43.2094
28.7344
15.5878
16.6717
66.6031
25.3958
6.28685
54.4716
23.7962
3.74588
0.0069286
0.0498328
0.00383268
0.410611
0.00274002
0.0201018
0.0566452
1.7741
0.434992
3.35245
0.232306
84.4887
158.237
125.623
138.014
115.818
130.454
95.208
40.151
59.9095
83.209
24.5262
59.9062
133.805
110.67
78.7325
43.0105
77.2039
53.4866
10.4978
87.4517
31.9874
18.5844
55.1747
110.773
66.9098
37.7905
100.244
65.8699
28.5337
13.8038
0.918541
6.41994
2.51279
24.8672
11.2351
36.9628
6.04819
4.62465e-07
1.59881e-06
2.6735e-05
1.43821e-05
3.84747e-06
8.11715e-05
6.91974e-07
0.000237734
2.14893e-06
1.33182e-05
4.8407e-05
0.000134147
0.000997507
6.46453e-06
1.43224e-07
7.47547e-07
6.83511e-08
2.25863e-06
1.59577e-08
1.06854e-07
3.04119e-07
1.92833e-10
8.53332e-09
6.66484e-11
6.09827e-11
1.08e-09
1.51048e-09
1.12059e-11
2.92355e-11
9.59893e-12
3.11269e-11
2.93888e-12
2.2746e-10
1.82384e-12
7.56809e-12
1.68681e-13
4.30858e-13
2.88019e-12
2.56732e-12
2.78184e-13
3.86353e-13
1.04422e-12
7.57427e-13
1.77315e-12
9.84909e-11
5.93597e-12
3.59614e-12
4.45774e-13
1.43222e-11
1.6018e-12
1.974e-11
2.39299e-10
6.96854e-11
8.47516e-12
3.62452e-12
3.20071e-11
4.31931e-07
3.86383e-05
3.3256e-06
1.40217e-05
1.63368e-06
6.57985e-06
8.43986e-07
2.82003e-08
1.49225e-07
3.51134e-09
6.89071e-09
7.1514e-08
5.31559e-08
3.06674e-09
1.47708e-05
0.00145259
0.00015455
0.000635265
6.6027e-05
0.000268149
3.48674e-05
3.26612e-07
3.90851e-07
5.17297e-08
1.48616e-08
1.1081e-06
1.34685e-07
3.05704e-08
8.06053e-07
6.93575e-06
1.33612e-07
1.23309e-07
2.94911e-06
1.84747e-06
6.66927e-08
9.38382e-05
3.53583e-06
1.75074e-08
6.99476e-06
9.70389e-09
8.1623e-10
1.75946e-08
2.19892e-12
8.40688e-12
1.41048e-10
6.38465e-13
1.14839e-13
0.00616606
1.48281e-08
4.48836e-11
2.82482e-06
3.84958e-10
4.64755e-05
2.11251e-05
1.88592e-05
3.52472e-06
8.39354e-08
0.000506602
2.09524e-07
8.24084e-06
0.000105215
1.07737e-08
3.97224e-07
4.90538e-10
2.59164e-06
8.38241e-10
3.16111e-08
7.80169e-07
7.95325e-11
2.8948e-09
9.97196e-10
8.06921e-09
1.14553e-11
2.19183e-10
5.95457e-07
3.04823e-05
1.47568e-06
0.000414655
0.00139447
3.46158e-05
7.75653e-05
0.00116252
2.85101e-05
0.000504534
9.96947e-06
0.000120857
2.34084e-06
1.85328e-06
3.83073e-05
3.35037e-05
6.54741e-07
2.26709e-08
3.33987e-07
5.5082e-09
4.5174e-09
8.98152e-08
8.35166e-08
1.63625e-09
1.86709e-10
2.58932e-09
4.56531e-11
3.82654e-11
7.41211e-10
6.73321e-10
1.376e-11
9.22533e-05
0.00837223
0.000289357
0.00119061
0.000399058
0.00166105
6.56073e-05
2.90258e-08
1.34208e-10
1.75167e-10
4.50868e-08
4.71203e-08
1.39583e-09
1.47707e-09
0.000253511
4.76888e-05
0.000344208
7.52836e-06
0.000737535
1.68507e-05
0.000114599
2.18757e-06
4.22059e-07
1.61047e-06
2.9961e-08
7.81487e-06
1.31243e-07
4.33639e-07
3.20689e-05
0.00232409
2.99875e-05
8.82516e-05
0.000141526
0.00041411
6.48526e-06
3.26432e-07
6.242e-06
1.70692e-05
2.52221e-05
1.34598e-06
1.52374e-06
4.13952e-06
7.78886e-09
1.50123e-09
8.89478e-09
1.68811e-10
2.70341e-08
4.8771e-10
2.45873e-09
1.09716e-07
7.83729e-06
1.59571e-07
4.36825e-07
4.84941e-07
1.34497e-06
3.49391e-08
2.67388e-09
4.71143e-08
1.32494e-07
2.1091e-07
1.05878e-08
1.23922e-08
3.48837e-08
4.99781e-11
4.34886e-11
1.44413e-09
1.28893e-10
2.05364e-10
8.81688e-12
1.89457e-10
6.35062e-10
4.85748e-08
1.84983e-09
1.36643e-09
2.93157e-09
7.98e-09
2.82416e-10
4.95415e-06
1.31904e-05
8.43494e-07
2.37692e-07
1.84459e-05
3.50357e-06
3.10874e-07
0.0428215
0.000922523
0.000241291
0.0232345
0.000118517
0.00184464
0.00359569
0.0953327
0.0117397
0.000592938
0.269077
0.00172123
0.0244306
0.00851103
0.0107199
1.58
0.0710153
0.0311987
0.706288
0.00460514
0.064997
0.157189
3.16844
2.64354
0.154407
2.76797
2.3683
0.184362
4.36196e-07
2.66912e-05
1.18111e-05
9.75504e-06
3.80139e-07
5.25967e-06
1.91337e-07
1.08177e-08
3.91993e-09
8.73354e-08
5.80462e-07
2.45615e-08
2.79292e-07
1.09332e-08
0.00426488
0.315755
0.0901139
0.00573605
0.361998
0.0194473
0.116354
2.89946e-06
1.97008e-08
5.43062e-07
1.51954e-06
3.5668e-08
8.58661e-08
2.74143e-09
1.10774e-08
2.9132e-11
6.58603e-10
5.20711e-08
1.49851e-09
2.54814e-09
1.02711e-10
2.00987e-06
0.000363066
3.51777e-05
3.35006e-06
0.000738246
3.23051e-05
8.03926e-05
1.63798e-08
1.79214e-10
5.78927e-10
2.39156e-09
8.75581e-11
5.82345e-11
6.61494e-12
2.47516e-12
1.5231e-12
3.36925e-11
8.35172e-11
3.48482e-12
2.94094e-12
2.21795e-13
9.94887e-09
1.47649e-08
9.15712e-08
1.86635e-09
1.67984e-07
7.87222e-09
3.1243e-08
2.54998e-12
5.81495e-12
2.26305e-11
1.66704e-12
2.38045e-13
1.32786e-13
6.28158e-14
1.69772e-15
6.66963e-15
2.42168e-13
9.7134e-14
4.9719e-15
3.40757e-14
3.63798e-16
3.0635e-06
8.61465e-08
2.32031e-07
1.3649e-07
1.55677e-05
7.79099e-07
1.76992e-06
2.43401e-09
6.56701e-11
1.37164e-09
1.45519e-10
2.36466e-09
6.13682e-10
2.81466e-10
4.07806e-08
1.55376e-05
8.23435e-07
3.79956e-05
3.08262e-06
2.59493e-06
1.55764e-07
2.12514e-05
1.20653e-06
1.63132e-05
0.000103818
1.00105e-05
8.40148e-06
5.20018e-07
3.21027e-10
4.38103e-08
2.02054e-09
1.47848e-07
7.47119e-09
8.7382e-09
5.2368e-10
6.81096e-08
6.52114e-08
3.93606e-09
4.92615e-07
2.60474e-08
2.915e-08
1.75754e-09
1.69835
0.0451005
0.828331
0.100641
0.859471
1.62478
0.050138
0.00014439
0.0194466
0.00305928
0.00130422
0.00524369
0.0279565
0.000258897
9.86409e-08
3.40468e-06
5.45301e-07
3.40939e-07
1.01471e-06
8.00114e-06
4.72518e-08
2.78753e-09
4.95745e-09
1.42738e-09
2.91285e-10
8.34603e-10
4.81091e-09
9.30647e-11
2.35386e-09
3.57904e-09
1.71289e-08
9.91136e-09
2.30434e-09
3.93534e-08
1.5626e-09
0.000118616
0.0951142
0.0450862
0.00293387
2.95464e-05
0.00151298
1.53618e-05
4.25326e-06
0.00586241
0.000234504
0.000140651
3.65176e-06
1.49235e-05
5.71777e-07
4.24437e-08
1.02938e-05
1.29885e-06
1.41878e-06
5.72969e-08
1.20259e-07
6.08519e-09
1.61181e-08
4.45688e-09
1.47169e-07
1.37451e-08
6.42462e-10
1.41586e-09
1.05879e-10
3.1404e-09
7.18848e-07
2.72061e-08
5.70684e-08
2.51443e-09
6.36085e-09
3.97396e-10
6.07773e-12
3.82738e-11
1.17662e-09
1.31206e-10
7.42572e-12
1.8307e-11
3.9158e-12
4.78974e-05
0.000717374
0.000307542
0.00579827
2.89544e-05
0.000479323
7.06444e-05
1.24319e-10
3.39944e-10
1.43083e-10
1.62096e-11
1.32598e-10
3.80529e-11
4.96651e-11
1.90219e-10
2.9253e-11
5.81399e-10
1.39416e-11
3.11202e-10
6.65264e-11
1.62234e-10
1.67542e-09
6.50487e-10
1.34412e-08
5.97292e-09
3.06467e-10
4.89823e-09
8.99262e-10
1.93883e-07
7.29984e-08
1.36946e-06
4.47808e-05
1.78258e-06
1.94348e-05
7.43993e-07
2.22514e-07
5.94258e-10
1.15201e-08
4.26175e-06
1.17426e-07
2.87023e-07
1.05091e-08
4.74116e-11
2.89486e-11
6.00014e-10
1.48785e-08
5.16861e-10
1.15763e-09
4.26302e-11
3.10441e-14
2.36711e-13
4.87101e-12
1.1776e-10
4.76794e-12
1.06285e-11
5.58187e-13
2.43403e-09
1.18698e-09
2.57023e-08
3.65523e-08
1.69965e-09
1.86684e-08
3.14004e-09
1.42272e-07
1.33232e-07
7.68579e-09
3.90575e-08
2.47174e-09
1.68568e-08
1.90718e-09
1.99563e-08
3.29163e-09
3.04158e-09
1.86661e-08
892.393
731.169
427.057
270.031
161.007
0.00971496
1122.1
186.919
693.876
985.212
184.809
622.408
784.884
836.889
84.7274
586.634
664.618
80.3268
437.351
526.036
449.524
68.0972
378.775
363.859
49.1237
232.837
338.91
322.658
297.797
32.7643
196.684
16.2412
78.6294
293.798
221.845
3.39872e-05
132.256
132.073
133.228
127.138
63.1141
60.6574
96.069
59.5014
46.9819
25.226
17.8022
1.74965
10.3793
2.47294
0.146229
0.00583999
1152.39
927.561
918.405
1002.46
866.987
855.328
1027.65
186.334
78.5847
79.7515
203.86
313.72
310.423
205.192
1058.91
875.26
820.645
953.877
777.072
820.337
898.466
82.4339
84.4458
180.486
201.278
292.438
303.528
197.076
916.589
696.117
763.304
783.116
731.903
844.088
677.236
83.221
172.019
160.75
180.891
275.97
190.164
255.985
750.087
558.065
624.262
711.022
546.908
613.618
634.454
75.4851
148.773
135.051
169.386
213.209
235.63
155.014
531.284
590.988
500.397
495.856
484.468
559.532
429.214
58.7679
117.869
97.6312
120.235
187.642
137.868
160.811
404.018
434.541
479.35
442.379
338.429
380.817
395.499
40.497
77.3155
59.1011
104.642
113.384
135.724
91.3731
329.057
355.956
394.405
314.317
302.242
353.913
268.939
24.8009
43.1239
28.4991
67.6819
92.9974
79.6343
72.8516
8.2452
15.3206
5.66209
54.045
29.5683
51.5748
38.3008
132.43
54.4011
55.9966
58.9593
61.9355
129.534
62.817
124.057
116.486
55.5206
106.945
93.6637
36.056
75.7361
55.1224
16.7021
35.9241
21.4788
5.67205
11.7413
5.32295
0.819279
1.7866
0.451898
66.7831
86.5575
12.3484
680.889
760.655
571.611
682.236
748.888
563.309
693.437
656.003
655.397
684.776
522.257
719.908
545.308
628.122
557.978
648.814
493.036
544.106
596.101
605.139
457.773
509.969
493.784
492.488
369.852
552.232
417.148
453.596
347.848
432.206
320.092
322.751
397.54
377.107
273.798
306.883
274.323
287.067
200.368
328.73
234.063
271.841
209.976
251.242
170.32
160.697
240.563
217.126
140.105
175.551
121.185
133.647
69.416
179.472
106.819
1.72112e-06
1.99271e-05
2.10033e-13
8.71902e-14
6.23307e-14
2.12215e-13
6.30583e-15
2.27968e-12
7.37297e-14
7.85803e-13
2.40483e-12
9.02219e-14
8.45951e-13
2.95889e-14
8.72787e-12
3.18808e-13
4.64412e-12
1.60898e-11
8.06619e-11
2.81954e-11
3.25275e-10
1.29898e-11
2.87934e-12
9.77565e-11
3.07105e-09
1.2491e-10
1.80844e-11
1.1735e-09
4.82516e-11
1.12445e-11
1.50891e-12
4.82687e-12
2.45927e-13
7.8225e-12
2.13962e-12
4.85048e-11
2.18388e-12
4.55246e-10
5.96121e-09
2.3794e-10
3.56362e-11
5.81089e-09
2.85368e-10
8.05729e-11
4.85064e-16
3.51671e-15
3.32269e-14
4.7375e-12
4.03629e-10
2.09063e-13
1.52589e-12
3.14409e-11
1.5297e-10
1.39577e-12
5.96483e-12
2.05354e-10
9.96212e-12
2.99563e-12
1.51097e-13
1.68418e-11
5.95052e-13
2.38166e-13
6.91216e-15
2.61692e-13
6.79089e-15
1.33393e-15
0
1.69772e-15
0
0
0
0
0
0
0
2.62494e-10
3.61191e-12
1.4898e-11
2.34771e-13
2.0979e-13
1.69772e-15
9.70128e-16
0
0
0
7.93079e-14
0
0
8.81264e-12
1.68317e-13
0
0
4.85064e-16
1.98876e-14
0
0
0
0
7.02615e-13
3.79041e-12
4.9719e-15
7.6155e-14
0
0
0
0
1.25753e-13
3.91489e-06
24.4954
4.70085e-05
226.895
209.944
112.675
4.84988
37.8013
0.913062
21.3877
0.000845392
0.570083
28.2776
12.538
7.44384
65.6083
55.8633
29.8204
44.7472
265.534
265.261
314.802
270.672
190.351
233.716
217.492
88.482
136.283
59.0887
3.42314
0.00331197
8.63338e-06
5.65683e-05
0.053269
0.000183229
0.00179614
2.54212e-05
132.579
169.503
161.504
94.5726
60.4341
129.701
124.358
73.4929
1.2012
1.11622
0.132539
10.002
10.7719
28.8126
1.44396
28.0829
80.8521
31.59
9.6407
74.564
36.1688
6.37393
0.393957
0.000228115
0.000734581
0.102423
0.0801902
0.0112605
0.011043
2.59973e-05
89.7566
17.9097
396.338
579.897
578.734
522.426
445.131
366.128
323.468
319.504
284.319
577.447
462.187
463.802
477.835
560.826
478.925
455.207
420.679
479.332
413.73
391.236
444.03
358.427
381.479
360.448
343.278
385.717
326.88
333.268
353.175
310.586
312.18
303.868
336.227
303.457
269.651
280.294
652.24
625.495
621.492
592.244
600.214
564.114
556.24
570.497
493.896
498.315
467.43
544.506
537.358
508.595
644.142
615.111
587.899
593.174
571.511
541.082
560.388
739.321
686.315
680.601
637.127
647.449
697.972
709.029
481.139
414.313
450.9
460.191
427.751
394.715
427.067
5.5062e-05
3.48599e-05
1.92295e-05
0.00177302
0.000762993
0.000488478
1.99491e-05
0.00438045
0.000315959
0.000124772
2.07134e-08
4.8516e-09
1.04812e-10
1.73374e-12
54.3
97.8623
97.7232
53.409
55.722
93.55
96.6006
56.5359
52.8953
88.3876
55.8082
80.7797
46.4637
53.1673
69.3021
36.1951
13.1868
34.8178
23.9147
18.8464
6.52776
3.4306
8.46841
3.20109
0.617382
1.30699
1.50541
0.453481
0.215331
0.0313115
0.133927
0.0618612
2.30405e-14
4.79003e-10
8.68495e-12
8.10619e-11
1.19398e-12
1.88253e-12
2.51021e-14
2.72848e-14
0
0
0
1.51582e-14
0
0
0
0
0
0.0058618
0.0346017
0.00104147
7.58337e-08
2.33717e-09
1.54662e-08
4.67359e-10
9.80086e-10
2.34007e-11
4.1379e-11
8.43526e-13
6.09318e-11
1.24116e-12
1.04777e-11
1.80686e-13
4.72816e-13
3.03165e-15
1.16415e-14
0
644.992
717.494
681.085
633.275
683.018
607.262
647.752
549.029
632.694
525.344
578.553
571.12
607.942
558.722
411.085
378.751
346.821
379.91
363.953
335.005
367.96
466.18
437.661
478.6
489.055
531.425
508.26
463.434
568.604
578.238
604.339
537.393
541.308
533.312
523.738
807.492
821.338
894.309
777.054
784.554
848.669
844.568
848.222
790.472
737.647
747.716
703.127
803.798
753.952
391.114
360.425
398.588
403.961
446.014
419.253