/*--------------------------------*- C++ -*----------------------------------*\
  =========                 |
  \\      /  F ield         | OpenFOAM: The Open Source CFD Toolbox
   \\    /   O peration     | Website:  https://openfoam.org
    \\  /    A nd           | Version:  9
     \\/     M anipulation  |
\*---------------------------------------------------------------------------*/
FoamFile
{
    format      ascii;
    class       volScalarField;
    location    "0.0018";
    object      overpressure;
}
// * * * * * * * * * * * * * * * * * * * * * * * * * * * * * * * * * * * * * //

dimensions      [1 -1 -2 0 0 0 0];

internalField   nonuniform List<scalar> 
14424
(
191612
256933
207893
110002
119223
224588
138760
172494
183595
105.202
0.570952
0.0786821
120561
138862
172513
169116
117784
55862.3
112618
58898.5
42628.1
7364.56
6956.54
575.209
10366.4
115575
37420.5
79519.1
105875
131396
29143.1
94069.1
103004
58210.1
142718
101989
133564
105204
117196
77312.5
79677.2
83575
139014
90723.6
84150.6
63046.8
130965
71554
70023.2
39462.8
105697
49096.3
116980
65806.7
57684.1
30786.2
97221.6
28373.8
62457.5
22022.3
86624.8
49372.6
14722.4
11139.5
47471.3
14185
69396.4
43451.4
95938.5
453.556
9978.81
135576
59636.2
38838.8
13427.5
109233
90212.7
28341.8
287105
27419.6
373475
102032
348612
234545
224186
12862.1
16610.7
26.1922
35954.6
193227
317029
78765.7
283371
308459
68402
337870
115250
292570
435438
348657
285513
372530
260293
247991
378887
69382.4
242988
168791
1844.27
3031.06
34213.6
216.491
145337
238213
108261
174.315
152459
2900.73
9.90007
19.2405
202.031
1.85874
193892
114785
79305.4
34295.2
124495
86257
184975
311172
224438
165752
155488
284006
294189
207454
14659.4
264454
83125
155493
67636.8
131543
25745.2
97.3883
4527.7
964.873
4046.44
358.99
1264.68
277.418
83712
1698.26
7075.68
749.989
57.0792
170.28
1.33587
576.984
24.2369
194056
222838
108580
44306
234210
118341
183232
209169
55482.8
278241
160839
249382
133088
236906
211802
46407.4
174464
126953
141939
101342
242545
322377
320356
202437
169106
274682
379405
268680
396600
256123
599884
430140
474751
373141
470505
282240
219995
351356
170581
352923
219901
187610
403874
664391
405654
329009
476613
619976
306008
296484
244312
372621
103249
495271
188300
208273
3761.33
77422.2
14590.8
2867.19
45702.4
7969.83
1160.73
281228
169146
254431
160340
298642
185335
242216
551929
557652
678985
438137
280144
194976
280657
221883
224519
239671
267483
406138
136302
292490
224128
80405.3
288575
46931.4
52539.9
142166
208470
14825.3
29518.2
14593.2
42019.4
717.607
121030
3518.92
6528.35
23.3197
979.648
61.402
13.5179
300.444
66.2717
4.77595
30089.2
3311.11
323.986
60140.8
600.022
7491.26
3864.02
0.415238
0.0450261
0.319212
52.8724
0.332378
0.400372
0.0533113
1115.65
553.499
7271.65
104.576
80.1471
995.967
15.0159
0.00579781
594.832
0.119317
194614
165849
147800
90887.8
90033.3
83352.4
107084
188096
86644.5
166297
221978
182967
384903
250459
253585
200387
75909.5
80626
161390
191661
69223.2
159889
89819.3
51153
178858
23972.1
138808
45413.3
150190
26871.8
-3101.94
6467.35
120342
122200
6302.71
-5429.8
96063.2
727.456
99517.2
2185.33
89916.8
-6509.86
83369.6
15247.4
37301
14337.2
100462
87406.3
30050.4
21752.4
104757
38810.6
85606.5
25692.5
100303
26171
103181
37842.8
47677.7
24817.6
104433
101594
39912
31854.3
115553
62373
128286
83144.8
132312
48817.6
127639
86099.7
125788
93812.5
131631
116899
120902
98125.7
142162
142745
140932
146465
226244
114018
170157
173604
219739
198146
141596
208708
186372
269301
102597
207599
293464
270677
232795
278999
307810
313478
132238
1.36829
0.96694
769.86
146390
60849.4
44516.9
37843.3
1.03237
6819.07
0.0779039
35.9079
0.00185975
0.252853
2.34018e-05
38.8968
0.000307455
7.48667e-07
2.01627e-05
136935
83223
97345.1
59019.5
3555.69
8.62833
1253.13
4.47966
67290.6
9796.98
2572.37
66.0148
542.021
1.6227
580.518
23.5544
13.875
2.23126
4.31928
1.09236
0.0565089
0.231563
98.6677
0.0148121
0.443285
0.0270451
7298.77
22.7134
41.4756
15068.9
4471.58
12.2416
19.1601
628.887
2.20063
2.38197
162.871
4.37166
2.01629
0.211679
0.514282
0.0567606
0.0451832
0.823333
0.160459
0.00489928
0.0086121
0.055339
0.000582984
0.0020959
0.0033723
0.0102388
6.25855e-05
0.000402236
0.511653
0.00998694
0.0258303
0.222221
0.00904822
251644
164887
174204
131288
169042
166144
248374
255725
118245
187356
117157
178168
148008
252586
90.1812
312.538
992.422
3093.39
266.029
846.106
107.348
58.9946
2245.09
95.7764
302.927
182.807
576.828
28.9923
178118
181188
73848
34048.6
228491
150291
31073.6
96070
10464.7
35022.3
1740.77
95124.7
8067.91
26336.4
3.10744
38.8079
122.621
183.047
10.8483
12.1864
38.5238
1048.14
8014.26
335.887
140.515
5088.55
2019.68
70.8664
274.941
41.9656
205.955
6.10635
608.042
19.1792
85.815
7.15003
65.4704
1.86344
1.16204
27.1863
18.0004
0.532294
1.7496
0.277579
0.867869
0.0381832
4.29376
0.131407
0.359845
2.31329
180.259
5.47621
22.3406
9.32265
39.3191
1.38285
0.130716
0.289561
0.0223818
0.00570912
0.461803
0.0825919
0.00793946
47835.1
3698.77
33770.1
41588.4
3188.03
3446.21
4108.74
6406.75
506.828
2516.63
2092.06
167.003
132.968
444.783
20.8078
2.1591
8.51518
4.49384
0.517472
0.300471
1.22076
0.132834
0.015441
0.0678666
0.0386048
0.00453852
0.00476259
0.0121974
8.59806
2.58037
5.91667
0.662459
0.417462
0.123878
1.20405
0.00120262
1.25815e-05
5.39372e-05
0.000373933
0.000192192
1.4858e-05
1.21703e-05
0.0529471
0.00232411
0.00295296
0.000144787
25383.6
15355.1
1192.76
29241
2216.22
2257.41
1131.39
694.569
108.451
10.2265
523.455
43.3716
31.4391
6.57773
2.51499
0.416262
0.0525756
1.31813
0.152757
0.0925008
0.0392792
0.0161049
0.00323834
0.000229337
0.00971759
0.00101336
0.00144072
0.000526844
0.161823
0.0061043
0.00231345
0.0516212
0.027801
0.0118682
0.00314263
0.335312
0.0351072
0.0142537
0.444541
0.150162
0.0171303
0.00740794
0.0505082
0.00336133
0.00237167
0.0294745
0.00919445
0.000955278
0.000457045
0.00174427
6.10444e-05
7.11233e-05
0.000180147
0.000413487
6.87825e-06
1.9752e-05
9.19864e-05
9.93707e-07
3.8859e-06
2.71153e-06
1.60178e-05
1.61657e-07
8.6303e-07
0.00055361
5.52927e-05
1.46416e-06
5.47443e-08
0.00760841
0.428115
0.73546
15.104
0.0271761
0.478069
7.267
0.399879
0.158331
0.227553
0.0138481
0.867827
633.493
122781
13961
112.86
1.72322
0.103952
0.00844599
0.000105632
0.00160269
0.0954095
0.00442422
1.24709
5.46669
0.113358
62.8161
0.629842
1.80275
0.0602963
0.225407
0.137587
0.0126389
0.411819
0.0480255
0.0301769
0.00265911
0.0089057
0.00654397
0.000547326
0.0276015
0.00264544
0.00196978
0.000187148
0.000701427
0.000472255
4.48198e-05
0.00174317
0.000181801
0.000100077
1.57675e-05
9.5053e-05
0.0217999
0.00928563
0.00128057
0.000569316
0.000902268
0.000142806
0.00617098
0.00187781
0.000101411
6.43487e-06
1.42609e-08
1.06572e-05
1.88869e-07
1.15416e-06
2.1304e-08
3.34403e-08
6.54836e-10
1.17871e-09
0
2.32831e-10
0
4.38682e-07
9.58971e-09
1.30967e-10
0
0.00954666
0.00367451
0.000662457
8.73382e-05
0.000178837
4.56994e-06
1.15499e-07
2.79397e-09
0
0
150831
87812.1
104095
94790
110696
118027
113203
119235
111826
2.3821e-06
7.24617e-06
1.21421e-07
8.81162e-07
1.6691e-08
4.95638e-08
9.60426e-10
2.91038e-09
0
8.14907e-10
0
0.000376086
4.25482e-05
2.30368e-06
1.42434e-07
4.68426e-08
286851
0.059921
0.00293887
0.244713
3.33328
0.0268919
0.542888
0.0663593
0.00329581
0.00629525
0.000182272
453132
462435
217641
26350.2
462.343
37.1196
0.472299
0.241001
0.0267606
0.00290308
113539
689.296
119445
41840.6
29403.2
32048.4
18362.9
2668.11
4769.72
281947
312137
924181
841853
324716
733555
1.31784e+06
1.0158e+06
1.12741e+06
929944
1.23526e+06
1.02984e+06
1.18463e+06
1.75955e+06
1.34955e+06
1.51664e+06
1.54933e+06
1.42065e+06
906075
967193
1.27102e+06
1.01906e+06
1.24774e+06
1.48715e+06
2.11236e+06
2.1441e+06
1.8238e+06
2.53283e+06
1.20309e+06
863753
1.18618e+06
586132
1.41149e+06
709286
1.00299e+06
2.46426e+06
2.27107e+06
2.69676e+06
2.09513e+06
787667
781436
576353
241651
262922
355347
780276
356393
353124
671928
309212
274171
269317
155763
359847
716638
630735
868545
795180
637588
882456
703907
792505
622849
962786
772629
776023
605592
993126
668821
438029
958199
457338
772750
351948
817562
330117
202583
397568
259720
351876
221289
366660
6547.41
41.2361
541617
476200
390076
359051
480122
403263
530050
743613
896008
932964
711815
558842
390196
411749
530821
726040
782676
627414
926796
628343
894019
751732
550499
356746
473147
441319
474709
418331
570819
769140
1.02615e+06
962209
823957
582090
473254
431837
631296
607009
467101
460988
345437
589457
451774
481097
1.04527e+06
1.13853e+06
916522
1.29461e+06
822367
539910
711004
636867
814592
737500
513721
1.02914e+06
569583
1.02414e+06
822556
634383
331864
384855
549046
425037
517948
654613
1.22934e+06
1.77035e+06
1.50798e+06
1.46636e+06
993976
998224
792175
1.21581e+06
547011
332102
529402
230215
624000
273475
462792
1.51447e+06
1.89389e+06
1.59076e+06
1.77999e+06
1.27272e+06
1.11024e+06
1.33363e+06
1.05924e+06
527375
345860
220632
472031
273782
629636
408455
437989
187246
182582
289971
221096
367270
344650
1.2891e+06
1.12887e+06
1.49053e+06
1.00388e+06
1.08032e+06
691646
887615
841688
655183
882408
807411
692316
325353
307463
329133
316604
267575
351604
305195
480561
252085
484440
268907
494.798
59826.8
3008.01
3886.56
73276.8
661.991
8630.78
171210
131496
167236
214067
269005
595478
267456
219344
230628
241354
172969
162470
235315
36438.4
128820
247404
87606.8
219112
198243
124266
121389
109506
1859.22
-32236.9
-20686.5
-11940.9
14972.3
12305.6
-4918.73
28764.5
56692.2
28961.8
43509.5
42345.4
70861.1
56476.2
126592
132689
84350.4
340578
243573
82120.8
337915
132535
117552
231243
62162.7
310277
70002.6
324696
107715
88703.4
55705.3
282209
167284
98419.4
47729.9
236601
89486
137579
64121.5
165984
49577.5
191168
103076
127316
82747.1
156523
117333
120040
93633.2
149515
129266
113614
99360.6
136460
99528.1
142328
127437
0.0295643
0.000705261
0.00334312
1.72636e-05
8.8013e-05
0.00464494
0.00645315
0.00133634
0.00172052
0.000541719
0.000105644
3.5043e-05
1.68406e-06
8.14791e-07
2.79979e-08
0.000137932
1.93711e-06
4.27729e-06
515172
909978
294376
4041.66
14.0973
0.0160755
0.00432695
0.000228789
1.07894e-05
588138
986354
449167
393.408
1.39759
0.00185816
1.22192e-05
2.19749e-05
6.09725e-07
500377
829464
98021.5
0.491246
0.00208553
1.79644e-05
2.96859e-09
2.87881e-07
1.02154e-08
72942.1
509335
38.8311
0.000731108
4.83036e-07
8.64966e-08
2.34286e-09
3.82715e-09
1.30967e-10
0.528395
103145
0.0103149
4.93328
9.995e-06
2.35004e-05
1.09576e-08
4.25454e-07
0.0113873
13.7623
4.42495e-05
0.0236612
1.21508e-07
3.46458e-06
318970
666614
322784
309856
807400
256717
538366
844867
296661
908663
948751
911906
261153
337174
220718
228.149
10.3671
0.749769
2135.84
69.0043
6.32833
0.37601
0.112869
0.209773
0.0368492
3.78842
0.0258014
0.0956474
0.0161767
331775
351017
869527
406998
611846
744141
639979
917469
106507
459690
10628.8
27.5421
1.02234
0.683679
24.3305
0.364949
0.264288
0.0911141
0.00854194
0.0340992
0.00326132
0.0158417
0.000107515
0.00179686
0.000201022
433809
453702
276097
669469
815775
308289
504263
389593
529372
330100
251.546
898.615
2.22692
0.0503501
0.0189102
0.00248295
0.00633881
7.11409e-05
0.000382575
4.6054e-05
2.20976e-05
5.50244e-05
9.571e-06
2.96817e-06
6.02886e-07
1.2519e-06
6.02056e-07
353935
235028
404157
270216
519447
37960.2
2497.24
374259
14.0802
288993
398673
377292
0.131136
0.883047
0.000682333
1.14476e-05
1.3957e-05
1.0775e-06
2.37619e-05
3.8014e-07
9.97374e-07
4.36703e-08
1.74754e-07
3.38478e-08
5.31581e-08
9.18139e-07
1.42094e-05
1.51049e-08
5.19067e-08
2.0853
0.000153796
0.000188043
0.0107293
0.0328865
0.000313498
0.00122251
84.8798
0.000488122
0.00834779
0.093938
0.419194
0.0035722
0.0113778
344782
4.83248
106056
0.442902
59.3742
0.00977104
0.120265
1.04665e-05
0.00171249
2.46444e-06
435177
455136
523155
24286.5
248727
280748
567296
12919
191274
507719
475996
619970
74.959
63150
5112.28
426845
35.1816
3627.7
74034.8
1355.19
1595.1
0.463484
47.3074
0.638782
12.3941
0.0586846
0.411857
51.9805
1.4955
0.769053
0.00686382
0.081949
0.0146932
0.202999
0.000700046
0.00796498
1.1149e+06
978409
1.03335e+06
916465
987587
1.05048e+06
1.09837e+06
307186
223968
237794
138762
75184.2
84695
128835
0.22562
0.813881
4.56521
12.0919
0.693347
3.84435
0.271579
1.37899e+06
1.0421e+06
1.23146e+06
1.00895e+06
1.27944e+06
1.06676e+06
1.33802e+06
395580
491335
490831
316882
200981
253839
280162
0.00550384
0.0678291
0.380012
0.395187
0.0199483
0.0181991
0.100305
1.34326e+06
906953
1.54208e+06
715659
1.55887e+06
762057
1.33653e+06
10921.3
431911
159291
23312.1
399838
124598
227523
3.27753e-06
8.36401e-05
0.000435048
0.000222539
2.17184e-05
8.76855e-06
4.60822e-05
418083
438477
527289
505627
497266
433345
436311
2.29341
220.795
13.0195
7.92529
859.155
44.3736
156.81
2.98314e-09
2.03436e-08
1.0636e-07
7.75181e-08
7.24685e-09
6.60657e-09
1.84518e-08
0.237315
2989.4
0.137655
23840.4
47.4624
103.013
0.246737
231512
106.454
3744.28
248.758
3916.83
0.289017
21.7837
0.149081
14.0783
0.226409
0.911974
0.650147
2.69265
0.0526782
3.16795e-07
8.5769e-08
4.80807e-06
9.15349e-06
1.07582e-07
4.02367e-05
1.2931e-06
0.0001789
4.04674e-07
1.20405e-06
0.000131545
0.000363054
4.61315e-06
1.23301e-05
808017
702834
913278
813579
706752
929924
793971
270209
426130
440192
561216
149614
160573
540081
887056
1.03911e+06
1.07949e+06
853530
831131
822547
724983
1.01345e+06
713662
959180
871981
465628
341962
509307
597123
218470
181386
660951
937526
1.2453e+06
1.13682e+06
1.02864e+06
1.09624e+06
976086
998447
916896
984383
1.01441e+06
1.08147e+06
1.2669e+06
1.17488e+06
1.21814e+06
1.2231e+06
1.22788e+06
1.05793e+06
1.09972e+06
1.18369e+06
1.14198e+06
924511
1.01122e+06
1.14376e+06
993955
1.08173e+06
1.20011e+06
1.11775e+06
907795
994911
1.07426e+06
985294
1.03069e+06
1.16818e+06
1.3153e+06
1.39052e+06
1.27645e+06
1.4146e+06
1.2687e+06
1.20987e+06
1.13462e+06
1.35451e+06
248898
389369
393323
250039
196628
187992
243845
267671
386778
319841
162485
143211
105328
200700
401011
172334
397909
266323
138523
169160
283248
651.95
3242.51
64.9793
197.109
2795.61
55.0242
770.876
438.71
133.917
1102.28
17.1295
2006.5
35.5277
225.66
0.0190061
0.0536503
0.049701
0.0935691
0.0451906
0.0411322
0.022496
0.139539
7.84713
0.197891
1.10468
0.435366
2.39736
0.061439
0.0108533
0.0577558
0.0118118
0.0115172
0.0274042
0.0243504
0.00500582
990946
731952
1.08753e+06
868526
926918
713984
1.17518e+06
568334
501183
641743
876240
274712
751873
357398
1.40875e+06
1.42884e+06
1.17818e+06
1.70764e+06
1.07057e+06
817952
589632
1.36167e+06
657849
1.28362e+06
1.11827e+06
737638
829457
741291
1.048e+06
657804
493509
1.23488e+06
1.74902e+06
2.6349e+06
2.11903e+06
2.16556e+06
1.87423e+06
1.58662e+06
1.5969e+06
1.8856e+06
1.50845e+06
986511
1.00687e+06
1.58436e+06
1.06091e+06
1.47393e+06
1.61154e+06
2.29158e+06
2.92095e+06
2.3375e+06
2.82096e+06
360729
44141.7
282803
233857
94440.3
279379
46733.2
577868
309340
583384
345123
442832
376359
275965
1913.68
155569
39113.9
149037
2858
13455.9
50884.4
26.6165
474.379
6.27789
8.33279
89.1863
155.081
1.73511
5.89736
1.9728
7.47943
0.064644
38.4861
0.375711
1.09846
0.00041941
0.00378374
0.0035021
0.00232502
0.00147025
0.00099283
0.00106896
0.00106484
0.0903826
0.000663803
0.00346576
0.00401316
0.0210266
0.0001959
7.68648e-05
0.000533969
3.55035e-05
5.17068e-05
0.00021142
0.00020254
1.72592e-05
921230
524939
1.32107e+06
591556
1.06512e+06
467292
1.16072e+06
654701
690880
481106
1.11092e+06
699705
1.29314e+06
584786
2.13314e+06
2.91668e+06
2.37232e+06
2.67346e+06
726291
523732
421392
652646
427513
916268
533666
148808
171008
23516
756450
96664
340737
390351
1.58298e+06
1.18513e+06
2.05062e+06
875281
2.7987e+06
3.22009e+06
3.07207e+06
2.92248e+06
994715
594572
491086
683038
599346
1.01125e+06
653909
884094
437274
406621
530895
533497
747193
596098
2.14511e+06
1.3097e+06
2.23418e+06
1.30604e+06
1.92595e+06
1.2021e+06
1.68821e+06
1.27824e+06
24.915
5329.52
532.029
1206.35
466.772
8879.37
57.7811
16718.8
1549.28
88.9463
2677.33
5782.4
51359
293.967
0.261512
45.6901
4.79329
127.573
0.675625
5.88488
14.3087
0.0146496
1.08718
0.00841086
0.00550787
0.136018
0.123231
0.000890326
0.00149471
0.000563577
0.00153735
1.24886e-05
0.0124778
9.31297e-05
0.000193386
5.56465e-07
5.47184e-06
8.55121e-06
5.55856e-06
2.26959e-06
9.12492e-07
2.63847e-06
2.92624e-07
2.29277e-05
1.23255e-07
6.6965e-07
9.06526e-07
4.80821e-06
6.99656e-08
9.5315e-08
1.82528e-06
4.10801e-08
2.57889e-07
1.75045e-07
7.34188e-07
2.96423e-08
353136
435389
513948
513748
431167
435906
419326
7229.89
599.758
3392.19
55683.8
16228.9
175419
2983.64
183755
590357
421611
281728
248394
472653
314459
135500
406885
315349
86152.8
181.892
1257.87
100.194
10097.9
72.0908
508.545
1449.17
44355.1
11230.1
81341.8
5959.93
408110
353615
432113
301346
465868
359344
388937
486420
713063
795782
376623
600357
895061
874802
672249
348016
477827
386972
189452
429689
346602
250382
357841
344339
387196
311592
389096
359878
292018
238080
22942.1
138926
58905.4
345783
200076
436731
125901
0.0110564
0.0422413
0.733182
0.387153
0.106506
2.19013
0.0189871
6.39636
0.055521
0.364836
1.30474
3.64346
26.084
0.180532
0.00357236
0.0207568
0.00165564
0.0625495
0.000442238
0.00300686
0.00861204
5.79623e-06
0.000244064
2.00768e-06
1.93315e-06
3.14083e-05
4.55459e-05
3.44458e-07
8.87681e-07
3.05823e-07
8.13219e-07
6.41594e-08
7.10215e-06
5.38857e-08
1.8219e-07
4.23461e-09
1.10304e-08
6.8947e-08
6.45668e-08
6.8685e-09
1.03173e-08
2.55968e-08
1.83791e-08
4.48636e-08
2.605e-06
1.32844e-07
9.4311e-08
1.02591e-08
3.57672e-07
4.15166e-08
5.38261e-07
6.43014e-06
1.84773e-06
2.31987e-07
9.67557e-08
8.44229e-07
0.0105435
1.07802
0.091254
0.378152
0.0456885
0.179046
0.0212543
0.000630986
0.00400357
8.9109e-05
0.000137444
0.00194615
0.00123151
6.33993e-05
0.388683
37.34
4.00836
16.5715
1.73516
7.0673
0.922414
0.00825303
0.0103039
0.00135697
0.000303919
0.0294979
0.00308384
0.000647466
0.0209348
0.18383
0.00357059
0.0029503
0.0787293
0.0489827
0.0015319
1.7293
0.051083
0.000329597
0.151555
0.000239051
1.84379e-05
0.000434979
5.18921e-08
1.98459e-07
3.2325e-06
1.37807e-08
2.80852e-09
151.675
0.000343385
8.38438e-07
0.0485748
6.73185e-06
0.674438
0.430365
0.289274
0.084706
0.00208407
11.1472
0.00509151
0.196622
2.37686
0.00026276
0.00944456
1.10075e-05
0.0536243
1.94906e-05
0.000721726
0.0164346
1.74083e-06
6.21299e-05
2.66156e-05
0.000199402
2.55648e-07
4.65813e-06
0.0157723
0.379934
0.0265763
7.68232
23.9234
0.66509
1.44225
20.1377
0.553063
9.23527
0.226144
2.47634
0.052931
0.0420931
0.827511
0.728156
0.0154805
0.000529787
0.0080123
0.000138367
0.000104793
0.00221015
0.0019015
3.91735e-05
4.35216e-06
5.76644e-05
1.06136e-06
9.10179e-07
1.6892e-05
1.53459e-05
3.25759e-07
2.3507
200.786
7.33274
30.4698
9.88642
41.5449
1.70712
0.00071593
2.74841e-06
3.52091e-06
0.000875983
0.000902216
2.65117e-05
2.76276e-05
4.88098
0.91752
6.57143
0.158916
13.2557
0.34098
2.32546
0.0523247
0.010034
0.0384861
0.000761107
0.17788
0.00323891
0.0108159
0.740921
48.5562
0.687547
2.11771
3.08845
9.49076
0.157353
0.00745932
0.144722
0.399533
0.553635
0.0322441
0.0339439
0.0930233
0.000174609
3.3743e-05
0.000194232
3.87231e-06
0.0005932
1.11791e-05
5.47419e-05
0.00240281
0.163929
0.00339387
0.0092411
0.0103955
0.0288499
0.000756476
6.03138e-05
0.00102111
0.00286356
0.00449577
0.00023435
0.000273615
0.000766423
1.23445e-06
1.17216e-06
3.81049e-05
3.4602e-06
5.034e-06
2.32612e-07
5.03942e-06
1.49503e-05
0.00106944
4.74543e-05
3.27832e-05
6.73274e-05
0.000180795
7.2542e-06
0.127971
0.342886
0.0219252
0.00579491
0.468922
0.0920814
0.00757698
1144.19
25.2684
6.58966
620.085
3.29727
50.8616
97.6763
2447.62
298.606
15.6917
6649.13
44.8577
624.731
222.566
273.733
37607.8
1746.62
779.559
17198.3
119.103
1647.11
3359.48
60356.5
52003.7
2902.99
44864.7
39538.8
3405.44
0.00729491
0.514663
0.212766
0.141564
0.00621643
0.075808
0.00339876
0.000231366
9.03819e-05
0.00181606
0.0104387
0.000495929
0.00532023
0.000242386
112.13
7284.72
2282.77
140.275
7527.6
439.045
2710.31
0.0453458
0.000456968
0.0155945
0.0423909
0.000969314
0.00258735
8.18088e-05
0.000290866
8.10454e-07
1.7524e-05
0.00167806
4.36974e-05
7.78116e-05
3.25804e-06
0.0565246
11.3052
1.1256
0.105595
21.3962
0.967555
2.48795
0.000496273
3.94604e-06
1.56317e-05
7.46138e-05
2.73311e-06
1.79523e-06
1.67187e-07
6.0405e-08
4.19968e-08
8.9292e-07
2.60503e-06
1.11409e-07
9.15752e-08
6.17001e-09
0.000215669
0.000335194
0.00240668
4.95946e-05
0.00472838
0.000222547
0.000869201
5.84405e-08
1.34649e-07
5.68733e-07
4.87053e-08
6.12636e-09
3.46336e-09
1.64437e-09
8.73115e-11
2.32831e-10
5.63159e-09
2.99769e-09
1.89175e-10
8.29459e-10
2.91038e-11
0.0823125
0.00170943
0.0056683
0.00313466
0.438112
0.0219599
0.0457728
6.14972e-05
1.39489e-06
2.59808e-05
3.31578e-06
4.66545e-05
1.11605e-05
5.1525e-06
0.000758793
0.258968
0.015549
0.528807
0.0500361
0.0431128
0.00277243
0.285506
0.021976
0.239089
1.27769
0.149837
0.122091
0.00856078
6.02865e-06
0.000818724
3.98063e-05
0.00259277
0.000136462
0.000150949
8.76264e-06
0.00114349
0.00109836
6.49511e-05
0.00806504
0.000449691
0.000488708
2.84206e-05
35472.3
1033.85
17950.8
1972.48
16733.9
29289.2
1042.11
4.19374
527.828
89.3892
33.9116
139.934
693.327
6.91576
0.0021526
0.10727
0.0146142
0.0107009
0.02966
0.248771
0.00137788
5.94141e-05
0.000115526
3.09322e-05
7.77573e-06
2.23176e-05
0.000136442
2.18977e-06
4.80163e-05
7.55321e-05
0.000393325
0.000211604
5.95271e-05
0.0010818
3.15182e-05
2.7794
2230.96
1103.2
88.3658
0.342517
46.1344
0.206916
0.097636
163.578
7.08335
4.10491
0.0670267
0.330213
0.0136425
0.000892865
0.166426
0.0242811
0.0369501
0.00132043
0.00255543
0.000122703
0.000332388
9.67291e-05
0.00306515
0.000287916
1.35171e-05
2.9915e-05
2.11599e-06
6.43973e-05
0.0163711
0.000553114
0.00117819
5.30938e-05
0.000132605
8.18695e-06
1.28275e-07
8.02567e-07
2.27553e-05
2.80271e-06
1.57394e-07
3.858e-07
7.97299e-08
1.31847
19.6037
8.49172
155.818
0.79025
13.2047
1.79604
2.62896e-06
7.22356e-06
3.48125e-06
3.63987e-07
2.68868e-06
7.73842e-07
1.03847e-06
4.4198e-06
6.08023e-07
1.10771e-05
2.96641e-07
6.00757e-06
1.25059e-06
3.04753e-06
3.10529e-05
1.66762e-05
0.000359573
0.000156861
7.53085e-06
0.00010276
1.64488e-05
0.00352488
0.0014472
0.0221632
0.532855
0.0273188
0.248473
0.0122539
0.00574944
1.63048e-05
0.000288456
0.10085
0.00268811
0.00690729
0.000252836
1.10132e-06
7.94476e-07
1.51272e-05
0.000366411
1.27505e-05
2.63296e-05
9.58782e-07
7.567e-10
5.326e-09
1.0652e-07
2.51005e-06
1.00947e-07
2.20854e-07
1.14669e-08
4.90291e-05
3.11876e-05
0.000684967
0.000960541
4.45135e-05
0.000437831
6.34718e-05
0.00253155
0.00230402
0.000132814
0.00100249
5.58409e-05
0.000371671
4.87261e-05
0.000461058
6.60394e-05
5.93218e-05
0.000280242
221593
238240
397701
296608
294124
224.766
263535
249199
515938
266061
244590
513396
202299
263036
24818.3
489966
276744
7430.25
376939
330880
355172
46332.5
386274
337174
91694.4
409782
380556
240389
307561
110644
438941
117805
499200
197895
193498
0.56312
215101
207196
315621
313444
29782.2
46423.4
271940
295889
111283
131644
209793
32668.9
87529.4
33005.6
2964.59
142.904
257025
240098
245135
280334
258030
261752
277724
249007
50580.1
50777.6
85691.7
323973
325831
83615.1
263912
246243
249851
277484
268037
263321
274820
47619
39952.2
233510
86093.2
319194
325381
83693.3
266170
263411
254569
263138
269230
269437
269578
10501.9
205926
159560
52273.4
287135
72015.5
226721
265119
311408
281955
267397
310189
282160
283636
20837.2
125743
129312
41229.2
154548
173142
44936.3
301163
292703
341867
326423
345518
308975
367685
73422.9
162679
200127
80723.7
165544
62074.5
187233
355220
298622
304612
336731
363785
375474
336715
100210
222150
228163
95861.3
232441
210784
106943
310534
315657
296063
374991
349589
342624
358739
120708
222631
204984
149384
253572
124388
270059
90512.5
160882
87808.3
179122
259275
282946
206788
214400
54102.3
53886.8
49664
40880.2
191531
29476.9
165556
142472
77865.6
148334
183195
134730
226979
249446
112262
227948
178381
60363.9
124641
73834
13024.7
29952.8
8515.71
388705
402329
194927
231045
295844
430669
515779
297923
431993
228229
230380
513684
296967
425731
297267
430721
232241
213626
291781
394633
442663
225501
285540
342968
209477
395502
307894
279540
290072
295492
217968
257935
337063
288590
397958
238531
362845
299755
272717
402670
378368
321931
379626
309254
278796
335881
376928
350069
487920
294562
405548
391658
410803
521127
533118
444675
472279
434567
0.0371605
0.38723
4.78758e-09
2.08092e-09
1.41154e-09
4.36557e-09
2.18279e-10
4.30446e-08
1.55705e-09
1.46683e-08
4.57803e-08
1.9063e-09
1.59926e-08
6.8394e-10
1.5866e-07
5.93718e-09
8.75443e-08
3.02636e-07
1.63175e-06
4.61587e-07
5.96787e-06
2.4066e-07
4.514e-08
1.53859e-06
5.32304e-05
2.21992e-06
2.85057e-07
2.07785e-05
8.64253e-07
1.61395e-07
2.85945e-08
9.61736e-08
4.9331e-09
1.51849e-07
3.94502e-08
8.94346e-07
4.0498e-08
7.81121e-06
0.000107276
4.3287e-06
5.87082e-07
0.000105411
5.08035e-06
1.46541e-06
4.36557e-11
1.16415e-10
7.85803e-10
8.64675e-08
5.76219e-06
4.08909e-09
2.68046e-08
4.311e-07
1.94435e-06
2.89147e-08
1.0134e-07
3.97886e-06
2.35625e-07
6.32135e-08
3.89991e-09
3.93018e-07
1.53377e-08
6.09725e-09
2.47383e-10
6.65023e-09
2.47383e-10
7.27596e-11
0
8.73115e-11
0
0
0
0
0
0
0
5.47462e-06
8.02247e-08
3.43309e-07
5.73345e-09
5.16593e-09
8.73115e-11
5.82077e-11
0
0
0
1.57161e-09
0
0
1.24346e-07
2.663e-09
0
0
4.36557e-11
4.51109e-10
0
0
0
0
1.01863e-08
4.85161e-08
1.45519e-10
1.13505e-09
0
0
0
0
2.35741e-09
0.0569749
242075
0.444003
362819
296403
445558
81312
392617
22376.2
264243
21.2993
14144
190964
140885
121374
221743
315658
276247
245829
325596
414564
358793
441042
468684
395970
540410
407690
379012
395112
75705.8
83.3882
0.129418
0.328853
1289.39
3.53541
45.5128
0.259233
491403
406135
368997
394747
405137
502943
465756
451278
27520.1
24817.2
3313.61
163220
169880
263155
35631.7
321742
490934
347813
184614
448998
372258
132168
7780.18
4.47711
18.7336
2362.49
1835.37
282.442
254.69
0.409022
377526
201944
139203
-58316.6
-20480.9
22238.4
178812
69768.5
107059
180072
111191
-44432.5
-72787.4
-61326.8
-40089.5
1814.88
-18204.1
2520.75
23191.3
41488.3
86244.7
45384.1
62256.5
77569.1
90751.5
121588
92116.5
107299
124171
101364
111152
117469
127231
115374
130412
132648
125541
131205
15394.4
-38268
-23254.7
82437.9
102439
36758.6
19085.4
110134
152922
77249.5
98147.2
56412.7
140311
84531.3
60733.1
2651.68
31672.9
113432
127586
69076.1
52473.2
183204
123387
105278
153061
169766
196360
207942
152094
196269
171750
98614.3
114098
134262
121863
1.37363
0.308546
0.404297
41.051
17.4927
11.7965
0.49989
94.5012
7.79197
3.11082
0.000211634
7.75644e-05
2.21802e-06
3.95667e-08
73540.7
190057
191456
70284.6
77320.2
182122
188195
82229.9
109654
177889
90451
187000
138885
239873
215704
160750
115629
228005
155695
173793
68392.7
50194.1
104254
37630.3
9103.09
20900.1
19877.3
7583.95
3406.14
639.696
2447.47
1120.49
6.40284e-10
6.43911e-06
1.4354e-07
1.61801e-06
2.62371e-08
4.2317e-08
6.54836e-10
7.567e-10
0
0
0
4.07454e-10
0
0
0
0
0
139.015
727.027
26.1434
0.00092672
2.93569e-05
0.000192371
7.46119e-06
1.48361e-05
4.04849e-07
7.52538e-07
1.64728e-08
9.06701e-07
2.14204e-08
1.90732e-07
3.76895e-09
9.1386e-09
1.16415e-10
3.20142e-10
0
149144
182440
190639
173099
209208
185370
218425
186426
203128
212442
220322
198067
229128
243744
195118
200327
218247
213418
150992
159357
148927
248868
268722
236700
301070
253353
272935
317771
279684
285508
591208
470392
469408
210894
207521
196172
204206
226744
214394
222872
235284
241510
225671
229715
209638
224789
235381
243814
253394
274193
294870
289478
347194
335954
357038
371868
562765
254555
542979
451918
434804
182408
194220
317830
324912
662529
323949
330494
673334
671739
220993
239674
255678
247168
263187
262337
272044
150167
239637
510484
454104
401814
346943
168275
277193
334248
288242
294095
343080
295971
337928
215563
146155
158297
392184
344401
285569
244256
634421
322804
304287
621790
324404
654856
655596
325022
595750
313699
317752
595582
646866
648936
142587
153715
196327
196345
213150
161430
151633
296343
597707
321314
313977
584870
637387
543234
287671
328774
367333
516041
537919
488592
448961
377376
401465
378861
394306
422313
389609
422094
242895
171551
174219
282193
311392
222573
204313
329896
650329
318321
593570
324933
598347
643866
260861
266200
287004
314788
341593
367477
339715
263952
246060
13837.9
15.0922
154627
145052
261572
134431
43414.9
108160
13670.9
376.105
681.087
134.43
125506
113527
185944
154132
113334
189007
121590
131880
151393
106954
194594
111709
192141
139180
153554
97660.4
198579
116903
148221
81656.3
203251
143616
85036.7
27881.1
162409
56128
195214
112779
30526.6
9460.41
104979
3796.71
68907.9
3002.55
45407.2
11289
1105.82
428.468
4676.73
1049.98
13730.5
4572.79
817.511
177.498
1734.84
44.9034
2018.9
66.7046
607.568
2.97214
0.383268
284.383
12.5366
6.03517
44.4164
21.1458
181.841
84.115
4127.79
0.0699449
0.00281927
0.00166083
8.34116e-08
4.99131e-09
1.74623e-10
63.1681
332109
241265
19.7808
0.798219
0.0470404
2491.48
318483
1564.17
249.189
55262.3
2.78729
0.979014
2.62091
0.397367
0.126442
0.37453
0.0413571
0.0175868
0.0537586
0.159881
1453.77
101.657
819.715
45.1729
20.8221
0.906143
3.66155
0.663266
0.44597
0.132972
0.368586
0.0346821
0.126515
0.00984833
0.0270348
0.00278751
0.000973998
0.00210574
0.00719793
0.00181917
0.00172634
4.53041e-05
1.2356e-06
3.24071e-08
7.27596e-10
0
0.00457838
0.000129355
2.94177e-06
7.56739e-05
1.81237e-06
4.62169e-08
3.77551e-06
9.68721e-08
2.41562e-09
0.000285247
6.83806e-06
1.74841e-07
0.00277523
8.45371e-05
2.43337e-06
8.79803e-06
2.57904e-07
8.86212e-09
1.89175e-10
0
0
2.76603e-07
9.60426e-09
2.61934e-10
0
0
0
7.94535e-09
2.18279e-10
0
0
0
0
7.72721e-07
3.29548e-06
2.37487e-08
1.06927e-07
7.42148e-10
3.92902e-09
0
5.82077e-11
0
0
0
0
2.74449e-08
1.18569e-07
9.02219e-10
4.42378e-09
0
1.01863e-10
0
0
0
0
0
0
7.85803e-10
3.62343e-09
0
8.73115e-11
0
0
0
0
0
0
0
0
1.23138e-07
3.50701e-09
4.36557e-11
3.62343e-09
4.36557e-11
0
4.36557e-11
0
0
0.0011658
2.20691e-05
0.000102291
3.81413e-05
6.86647e-07
2.74737e-06
1.11375e-06
1.87283e-08
7.68487e-08
0.000366731
1.21567e-05
3.23344e-07
0.0623335
0.000384088