/*--------------------------------*- C++ -*----------------------------------*\
  =========                 |
  \\      /  F ield         | OpenFOAM: The Open Source CFD Toolbox
   \\    /   O peration     | Website:  https://openfoam.org
    \\  /    A nd           | Version:  9
     \\/     M anipulation  |
\*---------------------------------------------------------------------------*/
FoamFile
{
    format      ascii;
    class       volVectorField;
    location    "0.0018";
    object      rhoU;
}
// * * * * * * * * * * * * * * * * * * * * * * * * * * * * * * * * * * * * * //

dimensions      [1 -2 -1 0 0 0 0];

internalField   nonuniform List<vector> 
14424
(
(104.067 603.724 180.91)
(115.646 785.027 359.5)
(141.472 602.756 202.558)
(82.9189 411.025 175.668)
(109.728 399.557 195.639)
(198.297 700.566 159.338)
(88.5177 451.782 65.1061)
(190.387 506.662 105.416)
(99.6755 632.277 107.905)
(0.0673375 0.292419 0.0493708)
(0.000166846 0.00129467 0.00116232)
(2.83441e-05 0.000113863 0.00020945)
(356.838 -65.4367 83.5289)
(462.733 -12.4581 160.122)
(571.234 28.8075 171.728)
(591.92 86.4904 211.155)
(407.32 -0.794841 126.082)
(188.321 21.6665 45.6363)
(391.437 92.6609 112.401)
(186.115 61.9538 52.5542)
(136.131 20.5835 38.6448)
(17.0635 9.66404 2.67107)
(17.1695 11.8705 6.81999)
(1.32583 0.931031 0.572842)
(10.5623 27.3968 -1.02737)
(73.0753 368.796 133.255)
(127.671 54.4231 55.0178)
(246.812 12.2324 61.3073)
(228.837 -77.0482 60.0919)
(409.032 -39.8293 120.67)
(94.0261 31.0467 35.1979)
(303.102 17.6913 93.7039)
(250.98 -26.5295 84.4702)
(197.571 73.7061 93.96)
(459.555 -24.7814 155.755)
(331.073 17.8051 120.282)
(387.122 38.5304 167.561)
(340.733 19.1092 121.222)
(315.26 13.4444 127.076)
(268.459 83.0569 128.782)
(284.092 81.3675 117.811)
(279.597 14.5291 88.3115)
(420.169 51.1775 175.345)
(320.557 10.3156 81.841)
(295.69 84.3846 133.466)
(221.142 11.8152 55.2722)
(412.61 58.2755 157.25)
(261.212 75.8846 97.9198)
(245.414 18.1969 56.3437)
(139.46 9.37636 32.2522)
(353.551 71.6712 115.813)
(174.975 9.98478 39.1351)
(383.354 63.3677 130.034)
(242.471 70.8245 88.6538)
(205.215 59.6361 84.4646)
(106.195 9.29964 27.6649)
(327.142 79.8098 111.502)
(82.8119 16.7341 28.9706)
(227.552 66.0634 86.7335)
(72.1274 8.30724 22.2327)
(291.024 80.3951 107.946)
(168.819 49.1763 71.0724)
(39.3166 10.9875 15.6479)
(21.8339 19.2366 -8.02458)
(129.783 53.4957 50.718)
(40.184 6.64259 13.0322)
(220.416 68.1902 92.4227)
(132.788 62.5388 20.9688)
(29.648 231.461 218.368)
(0.110066 0.786692 1.14244)
(2.46138 26.4771 15.5381)
(137.332 424.53 75.3204)
(42.1295 191.138 -19.0802)
(71.6409 79.0864 24.2156)
(6.79235 38.8769 3.35589)
(172.988 292.287 15.1167)
(46.1608 298.979 34.1032)
(31.8644 75.0275 17.8329)
(663.554 -103.017 59.5339)
(224.666 262.452 11.5683)
(769.412 -99.9114 339.569)
(327.667 463.345 130.162)
(690.335 373.203 530.961)
(435.909 851.168 435.928)
(473.585 585.795 312.613)
(12.4551 39.1509 13.9827)
(27.7865 36.4498 21.5167)
(-0.0117207 0.0513711 0.0593812)
(300.113 183.902 10.4964)
(614.974 161.289 20.3429)
(687.248 -117.023 163.092)
(370.977 253.609 67.7549)
(817.071 407.268 144.498)
(777.129 642.263 36.0282)
(278.835 364.737 75.8292)
(851.678 716.089 193.064)
(436.84 325.795 108.892)
(951.394 279.46 287.015)
(865.303 52.6791 628.987)
(845.346 930.939 579.35)
(896.901 422.928 453.462)
(947.784 803.59 412.885)
(526.76 981.806 487.333)
(643.226 539.773 364.565)
(852.006 1070.46 638.142)
(177.656 125.443 77.1825)
(497.863 526.264 320.63)
(323.895 568.586 225.975)
(4.2294 3.36046 1.52904)
(6.69485 5.53886 3.14116)
(42.4109 108.419 40.3794)
(0.453113 0.448537 0.177242)
(211.539 458.364 221.046)
(320.46 795.98 479.613)
(184.263 347.669 141.86)
(0.376438 0.335138 0.165706)
(425.757 303.354 228.956)
(2.76724 8.2176 3.50316)
(0.0199934 0.0199366 0.00982898)
(0.0381293 0.0408684 0.018689)
(0.111245 0.574256 0.211414)
(0.00364572 0.00389278 0.0021915)
(225.793 613.27 68.7041)
(258.561 368.065 17.4671)
(202.353 394.728 18.3366)
(235.863 280.945 24.6399)
(272.009 392.803 37.8499)
(211.549 421.684 46.8069)
(212.583 580.107 25.6922)
(439.724 969.165 428.857)
(396.935 647.675 206.07)
(274.382 686.59 216.761)
(407.626 638.905 234.769)
(368.915 883.369 321.065)
(523.428 861.509 362.74)
(311.778 802.781 330.533)
(21.3625 38.7002 16.3548)
(494.587 787.307 440.24)
(88.598 259.464 132.541)
(254.336 539.811 257.012)
(95.8293 178.31 96.6773)
(246.741 365.448 184.242)
(22.7925 76.6254 33.1826)
(0.139344 0.264206 0.0927339)
(7.81638 11.9149 4.38956)
(0.487438 2.8142 0.844151)
(3.04917 11.867 4.26749)
(0.528 0.978828 0.313367)
(2.11139 3.30981 1.29717)
(0.120079 0.798169 0.255361)
(22.1653 223.565 162.709)
(1.50261 5.12721 1.59917)
(-3.35966 16.0166 14.6605)
(0.0826582 1.75006 1.45355)
(0.00485468 0.136304 0.104913)
(0.245096 0.39118 0.223162)
(0.000953818 0.00356639 0.00111104)
(0.400735 1.47889 0.692023)
(0.0269953 0.0581307 0.031156)
(586.606 163.233 40.3219)
(634.635 73.7958 20.3221)
(373.239 263.826 14.7056)
(311.748 198.523 21.5488)
(646.507 83.7321 45.681)
(386.4 281.092 30.3733)
(572.105 150.783 18.2357)
(615.507 169.26 78.3107)
(332.27 215.413 43.8439)
(714.944 100.098 138.462)
(449.183 347.823 91.7731)
(671.813 87.6612 91.2116)
(408.605 302.156 59.442)
(668.719 189.299 121.751)
(242.275 665.453 123.221)
(251.601 309.183 46.7542)
(324.328 505.464 116.051)
(240.052 555.184 131.796)
(289.274 428.536 69.8226)
(221.456 469.167 81.8411)
(285.941 758.984 200.966)
(872.158 315.839 293.702)
(788.906 133.327 198.528)
(522.78 432.744 150.405)
(541.886 453.631 194.427)
(753.456 233.834 185.438)
(906.134 207.287 306.783)
(658.507 592.677 274.009)
(1057.86 465.584 481.366)
(700.986 668.205 365.93)
(1307.42 568.157 816.771)
(1005.48 1049.81 670.402)
(1088.75 343.187 515.47)
(889.084 849.042 503.433)
(1231.26 662.85 679.93)
(402.813 883.758 443.889)
(488.073 854.439 389.899)
(658.449 1059.57 582.145)
(210.818 594.804 304.811)
(655.099 1047.2 535.982)
(308.177 817.665 383.594)
(262.404 547.158 300.515)
(1078.28 786.867 602.837)
(1395.14 812.187 958.958)
(947.89 1051.14 661.058)
(709.006 1004.99 542.101)
(1243.23 796.206 717.266)
(1284.97 942.405 888.652)
(727.524 847.382 468.385)
(809.96 667.1 404.387)
(502.322 808.671 358.198)
(828.847 809.059 479.667)
(229.898 282.795 117.732)
(1061.38 914.258 669.582)
(444.658 538.06 243.339)
(564.875 517.884 266.12)
(5.55323 10.1796 3.52901)
(111.497 257.201 104.926)
(26.0909 38.0985 14.3689)
(1.75153 8.47159 2.54909)
(84.5364 119.534 51.0506)
(5.75266 23.7265 8.06331)
(1.72204 3.1629 0.991351)
(174.146 821.068 465.326)
(130.629 525.412 252.481)
(338.792 624.648 377.421)
(231.859 538.362 254.585)
(200.645 699.897 436.474)
(128.337 621.614 291.346)
(336.021 727.974 398.555)
(310.605 1068.41 831.155)
(743.108 967.697 769.024)
(416.906 1155.39 932.159)
(581.29 853.874 656.35)
(148.335 926.041 521.102)
(273.925 663.916 341.147)
(119.649 939.255 572.975)
(302.24 763.646 439.196)
(127.832 768.981 394.311)
(335.062 807.083 435.089)
(118.086 941.258 551.873)
(203.863 871.17 683.99)
(167.655 289.264 226.333)
(385.67 614.638 477.765)
(93.232 498.373 404.76)
(179.033 200.917 102.979)
(651.288 692.728 384.002)
(96.6758 117.682 51.881)
(74.7501 152.996 68.2936)
(361.881 369.073 180.888)
(455.052 536.019 297.121)
(29.0775 35.3049 17.0577)
(56.104 66.6895 37.3521)
(16.357 39.9226 18.0378)
(69.5545 99.0265 59.3362)
(1.27228 1.7779 0.844461)
(237.133 311.9 177.7)
(6.45413 8.54006 4.04686)
(11.6469 14.3779 7.96547)
(0.0320352 0.0632341 0.0229785)
(0.607752 2.81499 1.03046)
(0.095916 0.160212 0.0668807)
(0.00502553 0.0383267 0.0131803)
(0.484791 0.784749 0.314977)
(0.0256991 0.188981 0.0633345)
(0.00563168 0.0131204 0.00505337)
(32.573 75.2455 47.3906)
(0.753718 10.1732 3.35124)
(0.271696 0.872474 0.515995)
(18.648 156.237 103.312)
(0.0949929 1.63163 0.981975)
(1.54843 19.4024 12.5374)
(3.57668 9.8884 6.14289)
(-0.000132492 0.000912802 0.000869551)
(-1.27027e-05 9.8533e-05 9.68528e-05)
(-9.90473e-05 0.000586857 0.000764163)
(0.00352095 0.117269 0.107667)
(2.61617e-05 0.000788935 0.000631515)
(3.75519e-05 0.000774858 0.000931184)
(5.86508e-06 0.000119974 0.000110114)
(1.86069 2.49719 1.43819)
(0.643561 1.45387 0.65303)
(10.5069 17.5095 10.1656)
(0.151303 0.250729 0.133412)
(0.0964972 0.204107 0.109293)
(1.29466 2.41066 1.44451)
(0.0190201 0.0359627 0.0194093)
(-6.59278e-07 1.12021e-05 1.3617e-05)
(-0.177961 0.853572 1.58107)
(-5.81332e-06 0.000168888 0.000316758)
(278.367 -194.897 -3.21782)
(277.473 -111.236 31.7981)
(266.903 -64.8296 65.3586)
(203.514 131.051 138.123)
(205.155 171.254 160.437)
(218.566 222.268 152.235)
(172.926 343.501 165.121)
(252.356 602.51 363.706)
(235.496 241.956 156.33)
(414.076 442.694 304.75)
(479.958 590.466 394.182)
(200.147 549.096 270.64)
(-207.185 1036.46 885.692)
(301.057 774.966 553.607)
(-66.3719 694.212 673.216)
(147.004 557.765 489.057)
(110.383 -49.0161 1.45139)
(120.235 -42.9444 -4.803)
(240.437 -193.762 -0.16278)
(278.719 -175.474 -4.23854)
(120.643 -24.5848 -6.40494)
(243.391 -185.196 -0.771963)
(114.34 -64.1504 -1.18013)
(106.704 -21.015 9.92039)
(278.172 -145.603 9.54065)
(117.614 34.142 6.0249)
(242.957 -136.242 33.0695)
(120.265 5.31806 -1.4148)
(243.62 -164.428 14.4365)
(102.571 12.6502 14.252)
(94.7774 73.9208 30.186)
(111.253 62.6457 17.8428)
(229.14 -90.3326 56.8583)
(241.678 2.71299 89.2357)
(96.2445 45.1445 19.2126)
(105.325 88.7836 29.9843)
(204.926 -25.4022 71.488)
(103.653 96.3725 51.4287)
(214.147 73.3089 109.136)
(119.076 134.55 75.7198)
(218.5 75.8713 131.445)
(107.209 110.48 48.7247)
(194.044 32.8114 94.8928)
(128.439 115.539 83.8509)
(193.715 140.449 120.706)
(134.76 156.443 103.7)
(259.321 107.723 162.059)
(207.671 196.349 165.661)
(164.778 131.339 112.032)
(146.753 169.229 116.089)
(292.576 126.925 169.258)
(209.881 144.32 116.522)
(213.014 211.467 160.415)
(163.072 182.829 111.13)
(323.119 141.173 154.218)
(157.239 178.444 118.753)
(312.989 135.552 161.558)
(215.371 147.313 111.686)
(245.976 162.088 129.581)
(168.009 193.356 107.982)
(339.147 156.315 159.12)
(273.227 282.108 185.545)
(225.535 153.138 113.978)
(182.666 219.222 122.237)
(363.034 184.771 182.1)
(267.077 175.704 149.24)
(333.881 344.242 240.735)
(281.74 336.595 196.879)
(378.773 229.138 198.714)
(216.3 261.064 155.978)
(382.084 214.914 208.891)
(299.368 212.671 127.308)
(40.3679 346.146 175.752)
(113.351 283.136 148.376)
(93.7595 397.985 192.734)
(184.53 388.703 185.576)
(47.1943 312.156 172.547)
(115.663 313.104 151.413)
(91.8503 450.184 210.613)
(36.1749 404.864 218.378)
(209.479 465.121 242.636)
(148.532 454.98 282.296)
(91.488 707.24 434.353)
(124.724 367.445 188.039)
(93.1625 541.744 278.241)
(31.1313 491.566 321.423)
(351.578 624.709 233.635)
(406.545 546.788 329.528)
(334.089 315.134 169.506)
(385.941 581.711 386.97)
(396.376 462.214 168.659)
(436.187 740.168 469.458)
(177.6 253.373 128.1)
(219.435 596.472 446.645)
(100.037 902.31 659.44)
(311.238 831.281 639.477)
(64.2836 652.243 506.271)
(271.888 800.922 645.81)
(84.9291 880.589 743.368)
(96.9802 968.367 771.4)
(-53.0786 294.033 352.039)
(0.000212865 0.00260478 0.00323203)
(-0.000466117 0.00166067 0.00237888)
(0.0131334 1.19108 2.0073)
(12.7632 345.537 379.546)
(-13.47 134.25 139.094)
(23.843 100.851 94.978)
(-4.5299 121.499 2.63039)
(9.30382e-05 0.00307995 0.000121637)
(-0.0978551 20.0052 5.80484)
(5.62988e-06 0.000230024 5.20318e-05)
(0.000385291 0.10229 0.0302632)
(-2.9229e-07 5.21012e-06 2.08796e-06)
(3.12334e-06 0.00073068 0.00018146)
(-1.85145e-08 6.59443e-08 1.83021e-08)
(0.0365563 0.104771 0.0408824)
(-1.29815e-07 8.72045e-07 2.09741e-07)
(-2.28649e-10 2.16534e-09 3.81844e-10)
(-1.26118e-09 5.83231e-08 1.87549e-08)
(63.2278 516.103 13.7743)
(161.869 230.904 27.8879)
(41.0533 346.246 83.5988)
(110.509 154.349 36.1522)
(-11.0988 12.0608 0.320024)
(-0.00890476 0.0255675 0.000584822)
(-3.85277 3.98141 1.28614)
(-0.00459205 0.0131148 0.00177712)
(27.116 220.913 69.7435)
(15.5907 24.6478 8.9571)
(0.829192 7.32583 2.81555)
(0.100985 0.16033 0.0689865)
(-1.64429 1.69359 0.641906)
(-0.00199831 0.00466294 0.00118616)
(0.171361 1.65347 0.564874)
(0.0413001 0.0543973 0.0213442)
(0.00351711 0.040078 0.00995316)
(0.00385194 0.00542548 0.00180277)
(0.000990408 0.0124525 0.00329038)
(0.00152575 0.0028614 0.000856807)
(7.56148e-06 0.000157836 5.17686e-05)
(0.000242043 0.000635804 0.00021125)
(0.0678181 0.294763 0.0546323)
(5.20225e-06 4.3622e-05 3.10702e-06)
(4.75525e-05 0.00113267 0.000742003)
(4.28225e-06 7.85033e-05 2.50308e-05)
(11.3641 19.9719 2.11474)
(-0.00611343 0.0681709 0.000956302)
(0.0496398 0.114895 0.00160306)
(-0.33848 43.8802 10.9138)
(6.70003 12.1562 2.39748)
(-0.00324729 0.0364569 0.00369621)
(0.0220314 0.0527772 0.00785951)
(0.828511 1.65322 0.501991)
(-0.000294106 0.00659722 0.00123611)
(0.00261358 0.00649313 0.00151024)
(-0.000809729 0.46215 0.150396)
(0.00614005 0.0109711 0.00425029)
(-0.000252198 0.00580665 0.00145997)
(0.000194427 0.000590013 0.000189998)
(0.000644219 0.00134031 0.000472643)
(-3.43428e-06 0.000156754 6.44778e-05)
(2.75216e-05 0.000129571 3.14724e-05)
(2.35242e-05 0.00238358 0.000555732)
(0.000143634 0.000443456 0.000128534)
(-1.78565e-06 1.3736e-05 4.08665e-06)
(3.28762e-06 2.48662e-05 5.99934e-06)
(3.80989e-05 0.000159049 3.81087e-05)
(-4.59001e-07 1.66314e-06 4.82855e-07)
(5.88198e-07 6.05768e-06 1.45305e-06)
(-6.36816e-07 9.38315e-06 2.8567e-06)
(4.64032e-06 2.94405e-05 7.74938e-06)
(-7.82071e-08 1.76193e-07 5.96501e-08)
(7.30965e-08 1.1581e-06 2.90177e-07)
(0.000608093 0.00125457 0.000636686)
(2.57251e-06 2.73685e-05 9.01973e-06)
(1.57984e-05 7.14597e-05 2.89968e-05)
(0.000179074 0.0005921 0.00028699)
(5.95228e-06 2.63564e-05 6.04091e-06)
(251.973 867.193 96.4415)
(163.634 654.707 23.8899)
(133.954 645.549 17.6877)
(62.0266 497.489 47.4956)
(169.925 670.072 74.0432)
(129.624 615.575 61.1862)
(240.281 852.567 29.6094)
(261.467 873.435 170.32)
(53.0353 440.018 75.0871)
(165.044 698.254 183.349)
(89.1701 395.589 104.264)
(167.955 686.32 128.335)
(113.849 531.76 97.066)
(262.137 856.746 234.587)
(-0.225919 0.20605 0.0258105)
(-0.987984 0.572326 0.019675)
(-2.18627 3.03453 0.059385)
(-9.74047 10.5572 1.30156)
(-0.84431 0.49304 0.0875172)
(-1.86516 2.60074 0.269873)
(-0.267758 0.243772 0.00528882)
(-0.146925 0.133592 0.0318627)
(-7.00576 7.36284 1.74003)
(-0.291313 0.164442 0.0780355)
(-0.626481 0.879191 0.245598)
(-0.570253 0.327634 0.113113)
(-1.24648 1.73713 0.342342)
(-0.0718069 0.0639725 0.021752)
(186.174 573.959 238.134)
(149.509 659.027 221.696)
(57.1145 224.739 78.3482)
(13.5555 99.5171 38.7841)
(239.489 774.377 266.845)
(115.308 533.547 209.793)
(24.6241 86.537 35.1358)
(99.3774 272.301 134.369)
(3.76078 29.6868 12.1485)
(21.863 99.0114 48.1747)
(1.52382 4.86234 1.83542)
(67.5744 307.224 139.27)
(6.52152 22.6487 9.196)
(27.8643 69.8609 34.1478)
(-0.00786053 0.00634235 0.00312054)
(-0.115803 0.0644037 0.036062)
(-0.247668 0.348201 0.1065)
(-0.549146 0.555346 0.235061)
(-0.0268565 0.0234633 0.00894989)
(-0.0358235 0.019697 0.0124324)
(-0.0739176 0.105531 0.0400315)
(1.27415 2.88278 0.985407)
(4.21973 22.8917 9.50781)
(0.32966 0.92865 0.327079)
(0.0385333 0.401006 0.122541)
(5.74735 13.876 5.79338)
(0.905125 5.79623 2.03268)
(0.0761815 0.197258 0.0597242)
(0.350042 0.759369 0.228241)
(0.011067 0.120833 0.0313892)
(0.0734895 0.597352 0.158559)
(0.00656281 0.0172546 0.00461322)
(0.240975 1.75753 0.504232)
(0.0215565 0.0537018 0.0146772)
(0.110619 0.238087 0.0682103)
(0.00794164 0.0197613 0.00661411)
(0.0229746 0.189539 0.0519562)
(0.00175554 0.00536756 0.00146103)
(0.0002451 0.00332163 0.000982524)
(0.0322574 0.0755108 0.0209069)
(0.0058295 0.0515998 0.0155677)
(0.000322869 0.0015876 0.000501622)
(0.00182652 0.00482345 0.0015906)
(5.60114e-05 0.000788372 0.000243388)
(0.000255875 0.00245994 0.000812923)
(-2.20536e-05 0.000120598 4.61898e-05)
(0.0013486 0.0122492 0.00388241)
(6.79862e-05 0.000383916 0.000121905)
(0.000270167 0.00100616 0.000366587)
(0.000186826 0.00672184 0.0027444)
(0.0272209 0.54179 0.103345)
(0.00300349 0.0163121 0.00198453)
(0.0167103 0.0631108 0.0311541)
(0.000961559 0.0278081 0.00336689)
(0.00438393 0.111521 0.0550062)
(0.000895842 0.00401759 0.00161352)
(6.92225e-06 0.000382988 0.000118422)
(0.000126034 0.00086032 8.02998e-05)
(1.34972e-06 6.62664e-05 4.13133e-06)
(2.56443e-06 1.78577e-05 1.98052e-07)
(3.42832e-05 0.00137274 0.000124657)
(4.85275e-05 0.000242347 7.10073e-05)
(4.66697e-07 2.44595e-05 2.27057e-06)
(24.8138 148.709 3.48455)
(-0.785229 11.472 0.188946)
(-2.93134 107.378 10.0831)
(21.9372 127.966 13.2972)
(-0.623241 9.89078 0.840985)
(1.31099 10.591 0.951025)
(1.51265 12.5883 0.213524)
(3.63938 18.9842 5.64082)
(-0.0754857 1.47484 0.379551)
(0.00112297 7.31374 2.32697)
(1.29153 6.07423 1.98135)
(-0.0234342 0.479784 0.138004)
(0.070721 0.384566 0.113709)
(0.21349 1.30437 0.340323)
(0.018008 0.0584507 0.0185341)
(-0.000427322 0.00611919 0.00173996)
(0.000110339 0.0243237 0.00664389)
(0.00388956 0.0127431 0.00362342)
(-0.000100333 0.00146253 0.000429996)
(7.16898e-05 0.000889538 0.000264127)
(0.00083678 0.00353793 0.00106655)
(8.06232e-05 0.000383317 9.36239e-05)
(-4.29147e-06 4.39922e-05 9.39567e-06)
(-1.87292e-06 0.000193868 5.48102e-05)
(7.77984e-06 0.000111741 3.62968e-05)
(-1.57406e-06 1.23909e-05 4.6137e-06)
(-5.25472e-06 1.41983e-05 5.61547e-06)
(-5.82807e-06 3.76355e-05 9.28408e-06)
(0.0105589 0.0215895 0.0106515)
(0.00192376 0.00706809 0.00255776)
(0.00614163 0.0154588 0.00726132)
(0.000590174 0.00175161 0.000810413)
(0.000360759 0.00113138 0.000403854)
(1.66085e-05 0.000372918 0.00013245)
(0.00115057 0.00307877 0.0014931)
(2.40656e-07 3.40092e-06 1.14928e-06)
(-1.07751e-08 3.54519e-08 6.56989e-09)
(-6.0186e-09 1.55614e-07 4.4267e-08)
(1.82394e-07 1.09073e-06 1.23401e-07)
(5.84854e-08 5.41352e-07 1.54514e-07)
(3.47709e-09 4.38994e-08 1.85627e-09)
(-8.23943e-09 3.72504e-08 6.46536e-09)
(6.87545e-06 0.000134479 8.78422e-05)
(2.67729e-07 6.47373e-06 3.1055e-06)
(3.58494e-07 7.18024e-06 5.51765e-06)
(1.37527e-08 3.94705e-07 2.05885e-07)
(-1.1453 77.6875 14.088)
(8.05362 45.3342 11.7176)
(-0.195418 3.52818 0.78089)
(15.3638 87.8103 17.1108)
(-0.386784 6.72873 1.10299)
(0.889494 6.85225 1.16078)
(0.481016 3.37327 0.759618)
(-0.00296619 1.97956 0.669105)
(0.0830473 0.307166 0.101523)
(-0.00161713 0.0288671 0.0097152)
(0.350353 1.49464 0.504631)
(-0.00673665 0.12395 0.0361872)
(0.0199008 0.0904594 0.0267596)
(0.00476683 0.0187409 0.00626183)
(9.92742e-05 0.00727162 0.00172019)
(0.000242896 0.00119936 0.000333322)
(-1.43235e-05 0.000148566 4.80933e-05)
(0.00108419 0.00377181 0.000866591)
(-3.39414e-05 0.000442744 8.12241e-05)
(1.99206e-05 0.000280755 5.4545e-05)
(-1.87471e-05 0.000122256 4.17897e-05)
(-4.89724e-07 4.57515e-05 1.33612e-05)
(-2.29106e-06 9.49478e-06 3.10327e-06)
(-1.70945e-07 6.13485e-07 1.66449e-07)
(1.77874e-06 2.78045e-05 8.32862e-06)
(-4.22106e-07 2.7152e-06 7.79913e-07)
(-2.01718e-06 4.39514e-06 1.31191e-06)
(-8.42399e-07 1.45511e-06 5.64832e-07)
(9.72227e-05 0.000446487 0.000154772)
(-3.43811e-06 1.75092e-05 7.24937e-06)
(7.13789e-07 6.80009e-06 1.17945e-07)
(3.02816e-05 0.000138696 6.0143e-05)
(1.77723e-05 7.59713e-05 2.33955e-05)
(-1.96042e-06 3.38835e-05 9.90251e-06)
(-4.65093e-06 9.48054e-06 2.11648e-06)
(0.00028706 0.000981209 3.95367e-05)
(1.8771e-06 0.000104327 2.53579e-06)
(9.27216e-06 4.29563e-05 1.18562e-06)
(3.79562e-05 0.00131853 0.000212557)
(0.000130715 0.000436573 7.48175e-05)
(-8.03986e-08 5.08815e-05 8.39985e-06)
(4.63537e-06 2.25777e-05 4.18699e-06)
(3.2083e-05 0.000144375 3.45064e-05)
(-2.5776e-07 9.82738e-06 2.09368e-06)
(9.98219e-07 7.04742e-06 1.25181e-06)
(1.17016e-07 8.538e-05 1.85811e-05)
(6.25369e-06 2.62682e-05 7.56928e-06)
(-1.14236e-07 2.72045e-06 7.66766e-07)
(9.00422e-08 1.39393e-06 4.69549e-07)
(6.10544e-07 5.02009e-06 1.08792e-06)
(-1.93036e-08 1.67896e-07 6.85195e-08)
(7.05741e-09 2.07893e-07 4.79104e-08)
(-9.66703e-08 5.02596e-07 1.4839e-07)
(5.77251e-08 1.1968e-06 2.65838e-07)
(-5.4274e-09 1.90707e-08 5.54304e-09)
(-6.37334e-09 6.02347e-08 1.47955e-08)
(6.54687e-09 2.65889e-07 5.99384e-08)
(-9.54923e-10 2.80804e-09 7.25861e-10)
(-4.66727e-10 1.15082e-08 2.3818e-09)
(-2.76153e-09 7.55173e-09 2.35561e-09)
(-1.10253e-09 4.59052e-08 1.16096e-08)
(-1.97261e-10 4.53688e-10 6.77411e-11)
(-5.67256e-10 2.64817e-09 7.70358e-10)
(4.93582e-08 1.63607e-06 1.03146e-07)
(6.06512e-10 1.61944e-07 3.27188e-08)
(-3.20894e-10 4.09196e-09 1.81522e-09)
(-2.30337e-11 1.49821e-10 5.48134e-11)
(2.01409e-06 1.6777e-05 1.66769e-05)
(0.00014287 0.000979942 0.000840015)
(0.000373817 0.00197891 0.000728066)
(0.00440716 0.0420892 0.0154597)
(9.64642e-06 6.62768e-05 4.89927e-05)
(0.00018001 0.00123946 0.000683849)
(0.0032528 0.0179438 0.0115674)
(0.000249772 0.000984513 0.000648334)
(7.86931e-05 0.00040805 0.000223202)
(8.08466e-05 0.000558084 0.000401495)
(5.85763e-06 3.59462e-05 2.10481e-05)
(0.000294094 0.00189339 0.00186304)
(0.057002 1.08187 1.59974)
(21.8135 300.429 288.211)
(5.20994 35.5244 23.1406)
(0.220706 0.268137 0.0313466)
(0.00324695 0.0038399 0.00166871)
(0.000174231 0.000258151 8.33835e-05)
(1.35984e-05 2.23792e-05 6.68576e-06)
(5.69278e-08 3.03115e-07 5.01241e-08)
(4.43885e-07 4.09699e-06 2.59084e-06)
(5.46209e-05 0.000258816 8.52899e-05)
(2.26919e-06 1.22464e-05 3.7749e-06)
(0.00284673 0.0025606 7.84404e-05)
(0.00758686 0.0146538 0.00022953)
(0.000218269 0.000272744 1.24942e-05)
(0.121798 0.147458 0.0304554)
(0.00139907 0.00132684 0.000284002)
(0.00252104 0.00481046 0.00078366)
(0.000111885 0.000147827 3.64327e-05)
(0.000449229 0.000500455 0.000173464)
(0.000218558 0.000349386 0.00010572)
(2.10665e-05 3.16138e-05 8.20056e-06)
(0.000748878 0.000949107 0.000366964)
(9.52471e-05 0.000107857 3.96804e-05)
(4.14e-05 8.03174e-05 2.48268e-05)
(4.4671e-06 6.50638e-06 2.78775e-06)
(1.69951e-05 2.06719e-05 5.62789e-06)
(1.00451e-05 1.76174e-05 4.10603e-06)
(8.90636e-07 1.38604e-06 3.21342e-07)
(4.29894e-05 7.22877e-05 2.00221e-05)
(4.90257e-06 6.21058e-06 2.08449e-06)
(2.78169e-06 5.36627e-06 1.68892e-06)
(2.67959e-07 5.08358e-07 1.74997e-07)
(1.29503e-06 1.65443e-06 4.56112e-07)
(6.30424e-07 1.31442e-06 3.28508e-07)
(6.37641e-08 1.19776e-07 2.79453e-08)
(2.65957e-06 4.70228e-06 1.42077e-06)
(2.61325e-07 4.59182e-07 1.40331e-07)
(1.18978e-07 2.76303e-07 8.7426e-08)
(1.14071e-08 4.80922e-08 2.71757e-09)
(3.60182e-09 2.50613e-07 1.22226e-07)
(1.40099e-05 5.81559e-05 3.0513e-05)
(4.60646e-06 2.49249e-05 1.16257e-05)
(5.25979e-07 3.56524e-06 1.78841e-06)
(7.61904e-08 1.58922e-06 5.94424e-07)
(1.29593e-07 2.42307e-06 1.22889e-06)
(-2.42671e-07 4.26394e-07 1.48171e-07)
(8.25045e-06 1.71548e-05 1.88097e-06)
(2.43527e-06 5.21544e-06 1.37329e-06)
(1.1212e-07 2.80633e-07 8.7067e-08)
(5.97762e-09 1.80902e-08 5.07563e-09)
(-6.03696e-12 4.18484e-11 4.64525e-12)
(2.1025e-10 3.141e-08 1.45336e-09)
(-3.49038e-12 5.56716e-10 2.11109e-11)
(-4.33251e-11 3.36773e-09 8.85192e-10)
(-1.37978e-12 6.25914e-11 1.73045e-11)
(-7.50504e-12 9.21387e-11 4.36232e-11)
(-1.43814e-13 1.86541e-12 8.4141e-13)
(-4.68579e-13 3.33219e-12 1.37472e-12)
(-4.16852e-15 6.40436e-14 2.51386e-14)
(-1.02697e-13 7.50116e-13 6.64688e-14)
(0 9.4739e-15 1.57212e-18)
(-1.84843e-10 1.28542e-09 2.12801e-10)
(-5.55152e-12 2.82887e-11 2.51599e-12)
(-1.08381e-13 5.87297e-13 3.07133e-14)
(0 6.44225e-15 2.00351e-18)
(2.09687e-05 2.18396e-05 3.14181e-06)
(8.45293e-06 7.72062e-06 3.08217e-06)
(1.19677e-06 1.74737e-06 3.92273e-07)
(9.91434e-08 2.41761e-07 2.81195e-08)
(3.60301e-08 5.09045e-07 2.42442e-07)
(4.3265e-10 1.31893e-08 3.85194e-09)
(1.02887e-12 3.36903e-10 7.31042e-11)
(-1.59919e-13 8.28829e-12 1.50193e-12)
(-2.46321e-15 1.80192e-13 1.76444e-14)
(0 9.4739e-16 5.60925e-19)
(-25.0961 246.587 204.102)
(-1.37079 133.877 128.193)
(9.00923 172.084 137.231)
(1.63858 121.07 141.005)
(13.2394 157.514 151.54)
(4.71813 253.63 157.676)
(20.4961 236.666 154.675)
(11.4389 232.157 163.268)
(17.5833 258.407 150.491)
(5.38445e-10 6.99411e-09 6.83446e-10)
(3.66052e-09 2.13508e-08 8.80711e-10)
(4.63077e-11 3.58235e-10 1.25399e-11)
(3.99985e-10 2.57825e-09 6.73551e-10)
(5.07252e-12 4.89023e-11 1.19707e-11)
(1.56801e-11 1.40624e-10 4.16749e-11)
(1.92889e-13 2.79285e-12 7.88478e-13)
(6.9349e-13 8.34727e-12 2.36359e-12)
(5.49486e-15 1.54787e-13 3.987e-14)
(1.42109e-14 2.53538e-12 1.13382e-13)
(0 3.91155e-14 4.7247e-16)
(2.90788e-07 1.10464e-06 6.32495e-08)
(3.17669e-08 1.23611e-07 3.43156e-08)
(1.31895e-09 6.4944e-09 2.00708e-09)
(6.58347e-11 4.01395e-10 1.13237e-10)
(3.93565e-12 1.37351e-10 8.63681e-12)
(-256.435 478.879 701.684)
(-9.71765e-05 0.000130808 5.71982e-05)
(-3.06841e-06 4.68322e-06 7.17464e-06)
(-0.00027276 0.00041993 0.000551921)
(-0.00373799 0.00622759 0.00708445)
(-2.96936e-05 4.9239e-05 5.9622e-05)
(-0.000715314 0.00109857 0.00100805)
(-9.18995e-05 0.000142105 0.000114231)
(-4.31623e-06 6.46238e-06 6.81634e-06)
(-8.18374e-06 1.33723e-05 1.22379e-05)
(-1.67888e-07 3.42245e-07 4.31146e-07)
(-1440.38 418.469 160.025)
(-1456.34 440.894 271.372)
(-643.232 320.025 231.972)
(-66.1049 34.9159 29.7392)
(-1.18087 0.516038 0.540256)
(-0.0926033 0.0463512 0.0389592)
(-0.00116394 0.000754586 0.000449079)
(-0.000536203 0.000467834 0.000237876)
(-5.78756e-05 5.18274e-05 3.24235e-05)
(-4.66628e-06 7.07742e-06 2.48294e-06)
(-216.14 276.777 136.449)
(-0.858798 1.53131 1.1495)
(-260.908 323.88 119.276)
(-69.2068 109.391 28.5243)
(-44.6559 72.0121 32.3738)
(-70.7206 68.1079 23.9079)
(-36.2477 38.0942 21.8261)
(-4.24236 6.1751 2.62145)
(-8.41659 10.9059 1.93065)
(215.417 330.716 213.02)
(203.846 429.068 372.275)
(369.668 -251.486 548.81)
(239.128 201.606 1004.4)
(122.804 499.545 449.736)
(140.31 449.618 977.636)
(72.1111 -454.434 1080.52)
(139.916 -207.532 603.13)
(382.826 -439.263 701.934)
(347.885 -196.385 726.536)
(104.219 -427.871 781.322)
(128.478 -143.691 795.994)
(348.392 -459.042 962.618)
(109.43 13.3479 1256.58)
(453.975 -132.964 762.798)
(141.845 -96.0367 874.306)
(430.932 -46.017 1090.65)
(21.3287 -425.217 1533.17)
(311.258 -40.8752 904.66)
(83.6139 311.155 1141.6)
(159.89 -277.873 1684.64)
(111.604 32.4068 998.662)
(286.744 -437.893 1340.2)
(-73 -223.946 1979.06)
(38.3898 242.609 1958.64)
(188.38 520.928 2511.72)
(365.558 147.7 1670.45)
(-136.069 691.61 3008.76)
(-307.804 602.438 1908.14)
(35.1579 601.201 1144.65)
(3.21123 39.6029 1786.21)
(37.7784 627.044 820.985)
(-199.881 164.552 2130.23)
(-20.0372 819.191 992.636)
(-139.368 398.942 1587.07)
(-785.303 1848.77 3672.17)
(-102.548 1054.34 3036.95)
(-453.184 1323.87 3676.11)
(-401.114 1519.96 3036.3)
(533.987 -233.644 51.6088)
(497.883 -267.228 456.84)
(184.953 336.134 772.359)
(-53.1272 646.531 344.228)
(-146.957 792.065 609.819)
(540.466 -228.052 20.9795)
(517.113 -257.231 325.565)
(526.042 -205.642 133.786)
(512.48 -187.93 200.973)
(294.112 121.611 804.052)
(404.126 81.1082 399.416)
(353.516 216.452 395.072)
(-26.49 591.949 370.737)
(216.541 414.857 226.412)
(-180.562 1105.45 712.271)
(677.968 -288.027 131.258)
(585.972 -269.116 41.7074)
(593.232 -319.893 60.689)
(527.72 -191.784 121.515)
(584.447 -234.462 92.1735)
(582.246 -293.232 162.345)
(683.518 -307.786 50.888)
(610.507 -389.005 647.492)
(544.58 -262.847 367.12)
(555.833 -413.862 593.322)
(458.874 -218.281 601.761)
(654.504 -379.893 485.116)
(495.807 -211.944 476.82)
(510.046 -428.437 799.663)
(255.82 227.775 1064.57)
(233.57 267.008 601.554)
(178.05 -19.257 1450.4)
(87.4423 486.909 647.072)
(365.588 -35.2317 1186.3)
(153.191 397.877 508.981)
(48.0071 280.152 1296.71)
(11.3614 903.547 543.869)
(38.2516 578.149 295.509)
(-114.734 846.366 578.026)
(-84.2503 763.12 394.028)
(47.0876 757.759 510.271)
(19.7625 687.825 341.322)
(-144.56 989.125 604.04)
(-2.85294 16.6713 11.0781)
(-0.0173889 0.0970287 0.0770696)
(702.705 -236.576 92.6565)
(577.629 -240.888 27.2819)
(721.06 -210.772 29.2801)
(539.289 -212.169 40.8789)
(576.475 -213.47 56.6299)
(726.125 -203.999 70.2762)
(705.663 -250.82 37.342)
(726.391 -105.905 129.508)
(645.581 -122.978 58.786)
(640.042 -107.385 165.215)
(723.244 -117.718 47.2018)
(761.264 -83.4852 89.6236)
(805.924 -76.1428 27.4121)
(822.451 -70.8766 65.5339)
(749.669 -93.5365 34.9902)
(678.045 -312.762 237.198)
(521.144 -218.012 217.076)
(567.821 -265.705 261.245)
(580.966 -377.157 431.106)
(574.619 -245.04 169.259)
(582.302 -326.003 290.132)
(677.141 -352.097 356.108)
(702.973 -256.182 171.19)
(532.248 -209.826 80.7556)
(556.091 -218.902 183.256)
(757.908 -234.111 204.709)
(567.263 -214.901 114.279)
(740.09 -215.872 132.352)
(704.17 -281.545 259.579)
(734.819 -114.346 250.299)
(645.336 -134.342 461.617)
(645.159 -118.516 313.176)
(740.514 -126.393 371.854)
(775.266 -89.9734 179.532)
(884.026 -77.3549 202.937)
(845.251 -76.1308 133.809)
(793.323 -95.4417 269.211)
(668.334 -306.932 491.624)
(529.443 -206.668 264.312)
(767.569 -251.182 285.207)
(488.033 -140.288 274.802)
(691.923 -299.351 357.346)
(480.114 -155.376 348.976)
(772.041 -260.269 400.448)
(739.753 -57.0745 719.001)
(633.393 -130.808 630.503)
(741.861 -122.89 505.418)
(610.594 -57.2694 892.668)
(862.318 -6.42008 549.127)
(951.043 -62.5675 287.114)
(821.22 -80.1773 372.983)
(1058.58 0.187287 435.795)
(552.771 -373.761 886.461)
(392.889 -85.7336 736.663)
(328.839 82.7187 626.673)
(317.58 -281.631 1369.19)
(421.287 -95.7558 575.444)
(437.564 -412.324 1095.05)
(470.03 -261.97 1116.86)
(643.79 -289.663 695.436)
(450.837 -50.0831 349.892)
(339.527 97.1643 472.981)
(811.59 -146.379 775.929)
(413.007 -52.0116 427.897)
(799.09 -244.749 589.088)
(604.037 -186.442 895.948)
(732.576 100.589 1107.16)
(438.447 433.623 2050.17)
(557.204 113.222 1357.62)
(712.428 386.56 1706.41)
(931.289 145.376 886.112)
(1432.58 371.287 1195.2)
(1228.59 132.857 731.66)
(1013.96 411.371 1410.88)
(438.422 244.057 862.53)
(271.666 247.154 462.656)
(757.926 38.1062 825.019)
(300.115 319.993 340.727)
(532.215 13.5521 957.626)
(214.833 358.221 401.512)
(647.142 243.036 730.701)
(475.826 1154.89 2121.53)
(239.46 892.525 2499.61)
(624.718 792.237 2099.94)
(13.7189 1303.35 2522.48)
(909.886 1077.15 1753.15)
(1504.18 692.419 1483.69)
(1013.88 772.56 1744.62)
(1399.42 951.463 1473.76)
(154.901 452.774 807.276)
(16.146 561.622 487.965)
(58.767 517.621 311.74)
(-91.0465 691.681 675.676)