/*--------------------------------*- C++ -*----------------------------------*\
  =========                 |
  \\      /  F ield         | OpenFOAM: The Open Source CFD Toolbox
   \\    /   O peration     | Website:  https://openfoam.org
    \\  /    A nd           | Version:  9
     \\/     M anipulation  |
\*---------------------------------------------------------------------------*/
FoamFile
{
    format      ascii;
    class       surfaceScalarField;
    location    "0.0004";
    object      phi;
}
// * * * * * * * * * * * * * * * * * * * * * * * * * * * * * * * * * * * * * //

dimensions      [0 3 -1 0 0 0 0];

internalField   nonuniform List<scalar> 
77907
(
0
0
0
0
0
0
0
0
0
0
0
0
0
0
0
0
0
0
0
0
0
0
0
0
0
0
0
0
0
0
0
0
0
0
0
0
0
0
0
0
0
0
0
0
0
0
0
0
0
0
0
0
0
0
0
0
0
0
0
0
0
0
0
0
0
0
0
0
0
0
0
0
0
0
0
0
0
0
0
0
0
0
0
0
0
0
0
0
0
0
0
0
0
0
0
0
0
0
0
0
0
0
0
0
0
0
0
0
0
0
0
0
0
0
0
0
0
0
0
0
0
0
0
0
0
0
0
0
0
0
0
0
0
0
0
0
0
0
0
0
0
0
0
0
0
0
0
0
0
0
0
0
0
0
0
0
0
0
0
0
0
0
0
0
0
0
0
0
0
0
0
0
0
0
0
0
0
0
0
0
0
0
0
0
0
0
0
0
0
0
0
0
0
0
0
0
0
0
0
0
0
0
0
0
0
0
0
0
0
0
0
0
0
0
0
0
0
0
0
0
0
0
0
0
0
0
0
0
0
0
0
0
0
0
0
0
0
0
0
0
0
0
0
0
0
0
0
0
0
0
0
0
0
0
0
0
0
0
0
0
0
0
0
0
0
0
0
0
0
0
0
0
0
0
0
0
0
0
0
0
0
0
0
0
0
0
0
0
0
0
0
0
0
0
0
0
0
0
0
0
0
0
0
0
0
0
0
0
0
0
0
0
0
0
0
0
0
0
0
0
0
0
0
0
0
0
0
0
0
0
0
0
0
0
0
0
0
0
0
0
0
0
0
0
0
0
0
0
0
0
0
0
0
0
0
0
0
0
0
0
0
0
0
0
0
0
0
0
0
0
0
0
0
0
0
0
0
0
0
0
0
0
0
0
0
0
0
0
0
0
0
0
0
0
0
0
0
0
0
0
0
0
0
0
0
0
0
0
0
0
0
0
0
0
0
0
0
0
0
0
0
0
0
0
0
0
0
0
0
0
0
0
0
0
0
0
0
0
0
0
0
0
0
0
0
0
0
0
0
0
0
0
0
0
0
0
0
0
0
0
0
0
0
0
0
0
0
0
0
0
0
0
0
0
0
0
0
0
0
0
0
0
0
0
0
0
0
0
0
0
0
0
0
0
0
0
0
0
0
0
0
0
0
0
0
-7.10543e-15
0
0
0
0
0
0
0
0
0
0
0
0
0
0
0
0
0
0
0
0
0
0
0
0
0
0
0
0
0
0
0
0
0
0
0
0
0
0
0
0
0
0
0
0
0
0
0
0
0
0
0
0
0
0
0
0
0
0
0
0
0
0
0
0
0
0
0
-2.13163e-14
0
0
-1.77636e-13
0
0
-4.83169e-13
0
0
-8.52651e-14
0
0
-7.10543e-15
0
0
0
0
0
0
0
0
0
0
0
0
0
0
0
0
0
0
0
0
0
0
0
0
0
0
0
0
0
0
0
0
0
0
0
0
0
0
0
0
0
0
0
0
0
0
0
0
0
0
0
0
0
0
0
0
0
0
-6.39488e-14
0
-2.84217e-14
-1.86162e-12
0
-1.42109e-14
-1.52838e-11
1.06581e-14
4.9738e-14
-3.89022e-11
3.55271e-14
1.42109e-14
-7.17648e-12
3.55271e-15
0
-6.25278e-13
0
0
-1.42109e-14
0
0
0
0
0
0
0
0
0
0
0
0
0
0
0
0
0
0
0
0
0
0
0
0
0
0
0
0
0
0
0
0
0
0
0
0
0
0
0
0
0
0
0
0
0
0
0
0
0
0
0
-2.13163e-14
-1.20792e-13
0
-3.62377e-13
-6.36646e-12
7.10543e-15
-2.54374e-12
-1.33603e-10
1.45661e-13
-5.8975e-13
-1.51449e-09
1.01608e-12
3.97904e-12
-3.16194e-09
3.20455e-12
1.52767e-12
-6.37648e-10
5.32907e-13
1.42109e-13
-5.56568e-11
4.26326e-14
7.10543e-15
-1.54898e-12
0
-2.84217e-14
0
0
0
0
0
0
0
0
0
0
0
0
0
0
0
0
0
0
0
0
0
0
0
0
0
0
0
0
0
0
0
0
0
0
0
0
0
0
0
0
0
0
0
0
0
0
-7.10543e-14
-1.27898e-13
0
-2.70717e-12
-1.1724e-11
1.06581e-14
-3.35305e-11
-7.22636e-10
5.11591e-13
-2.12907e-10
-1.19732e-09
1.53086e-11
-6.06194e-09
-8.3082e-10
-1.55272e-09
1.47296e-10
-2.79234e-08
1.32328e-10
-8.28051e-08
-1.0649e-08
-5.37564e-08
3.20163e-10
-1.05393e-07
2.98794e-10
-7.36822e-08
-6.2607e-08
-4.72632e-08
1.09928e-10
-4.52084e-08
5.66232e-11
-1.26152e-08
-1.28441e-08
-2.57861e-09
1.42961e-11
-9.19725e-10
4.57945e-12
-5.74879e-10
-6.53905e-10
-6.51097e-10
7.74492e-13
-1.09353e-10
1.27898e-13
-2.36611e-12
0
0
0
0
0
0
0
0
0
0
0
0
0
0
0
0
0
0
0
0
0
0
0
0
0
0
0
0
0
0
0
0
0
0
0
0
0
0
0
0
0
0
0
-1.35003e-13
-7.10543e-14
0
-8.25651e-12
-8.41993e-12
1.06581e-14
-3.72609e-10
-1.51056e-09
1.0445e-12
-5.92605e-10
-2.83172e-09
6.25988e-11
-8.22978e-08
-1.64695e-09
-2.22179e-08
-7.28878e-09
-5.05636e-10
-1.83354e-09
-1.81787e-09
-2.18622e-08
5.23022e-11
-1.11873e-08
1.61823e-09
4.6524e-09
-1.83492e-07
-1.7746e-07
-1.46385e-07
-2.91447e-07
8.96698e-09
6.39051e-10
8.14351e-09
-6.59674e-07
-1.607e-06
-6.28708e-07
-1.78408e-06
-1.05648e-08
8.12544e-09
2.99788e-09
-5.26456e-07
-3.05302e-07
-2.60318e-07
-3.17602e-07
-1.75316e-09
6.33054e-10
-1.99353e-08
4.95692e-11
7.15161e-11
-4.11906e-09
1.43139e-11
-5.5226e-10
-1.36709e-09
-5.21688e-10
-3.00259e-10
-6.67942e-10
-2.91761e-10
-3.37616e-10
-1.52873e-10
2.30926e-13
0
0
0
0
0
0
0
0
0
0
0
0
0
0
0
0
0
0
0
0
0
0
0
0
0
0
0
0
0
0
0
0
0
0
0
0
0
0
0
-1.20792e-13
-2.13163e-14
0
-1.16245e-11
-2.38032e-12
1.06581e-14
-1.4097e-09
-3.8893e-10
1.02673e-12
-2.68571e-09
-2.85412e-09
1.13992e-10
-1.51548e-07
-1.82037e-09
-2.91731e-08
-2.12444e-07
-1.86582e-09
-2.59135e-08
-2.74515e-08
-1.4947e-07
9.82903e-11
6.00911e-08
1.52338e-07
-1.93583e-07
-1.72599e-06
9.64923e-09
3.87949e-05
0.000199642
-0.000177822
-0.0157634
1.90931e-05
0.000643052
0.00450328
-7.14568e-05
-0.214079
0.000546366
-0.000715708
0.00117472
-0.0731108
0.000130664
0.000300737
-1.75582e-06
9.47106e-07
-5.62535e-05
4.71139e-08
1.95586e-07
-4.50923e-08
2.5337e-09
2.41526e-10
-3.63139e-08
-3.36066e-08
-4.92865e-08
-4.97455e-08
-3.32592e-09
2.1366e-11
-4.82315e-10
-4.4635e-09
-4.51738e-10
-1.37511e-09
-5.92234e-10
-1.21909e-09
-6.27267e-10
0
0
0
0
0
0
0
0
0
0
0
0
0
0
0
0
0
0
0
0
0
0
0
0
0
0
0
0
0
0
0
0
0
0
0
0
-6.39488e-14
0
0
-6.2812e-12
-3.19744e-13
3.55271e-15
-8.06956e-10
-3.13705e-11
4.54747e-13
-3.18806e-09
-6.55584e-10
6.74234e-11
-1.31205e-07
-1.65697e-09
-1.83609e-08
-9.94437e-09
-4.69409e-10
-3.70468e-09
-1.68155e-07
-4.26301e-08
1.10307e-10
4.48935e-07
4.2647e-07
-9.96235e-06
-1.3131e-05
1.38579e-08
0.394545
0.529863
-3.31285
-5.36147
0.150683
8.99204
19.124
-7.90063
-24.9334
1.77221
2.69596
23.9059
-0.688245
-28.0595
1.27022
-5.51474
22.0107
-26.9366
1.65764
7.27742
-8.25788
3.49322
-15.8439
1.00932
4.24305
-0.0010049
2.6901e-05
-0.00201978
2.80541e-06
2.04221e-05
-3.50674e-07
5.30552e-09
-9.48498e-08
2.89782e-10
0
0
0
0
0
0
0
0
0
0
0
0
0
0
0
0
0
0
0
0
0
0
0
0
0
0
0
0
0
0
0
0
0
-1.42109e-14
0
0
-1.41398e-12
-2.84217e-14
0
-1.19798e-10
-2.52953e-12
8.88178e-14
-9.11349e-10
-2.47205e-10
1.24878e-11
-8.32578e-09
-6.14273e-10
-2.27897e-09
-2.12135e-08
-1.4898e-09
2.79758e-11
7.70691e-08
1.28523e-07
-3.55163e-06
-3.10185e-07
4.65186e-09
0.788879
0.938579
-8.52196
-5.8681
0.309309
23.1546
22.4635
-21.8607
-22.9317
0.933762
28.1327
14.9247
-12.4382
-26.3152
-3.1151
3.97171
29.4745
-0.959259
-26.8333
-4.05541
-7.92845
29.0236
-26.694
-3.65944
10.6665
-17.925
25.1503
-24.159
-0.612458
20.4196
-18.0959
9.49924
-14.5676
1.65602
9.87276
-0.000681029
3.60654e-06
-6.2854e-05
5.92156e-07
7.44907e-06
0
0
0
0
0
0
0
0
0
0
0
0
0
0
0
0
0
0
0
0
0
0
0
0
0
0
0
0
0
0
0
0
0
-1.84741e-13
0
0
-1.8737e-11
-2.13163e-14
1.06581e-14
-2.29023e-09
-1.12976e-12
1.22924e-12
-5.54065e-08
1.95506e-10
1.39053e-10
-1.71299e-07
-2.30696e-08
-7.73338e-08
-1.80075e-08
3.5907e-09
7.16911e-09
-4.8221e-07
-4.84485e-07
-2.62979e-07
-1.49735e-06
0.000328118
0.00155757
-0.105874
-0.00181311
0.000152336
11.5817
23.6455
-27.323
-9.90253
1.56356
16.1414
27.2991
-25.2691
-13.6506
-4.4056
17.4339
16.2229
-13.2909
-14.3894
-5.70263
4.03319
17.3815
-0.96613
-14.355
-5.28461
-8.48034
17.3972
11.5474
-14.3442
-5.32212
-20.658
16.9242
-14.0515
-5.52271
23.3857
-27.3479
13.7385
-11.2949
0.665692
26.4803
-3.42461
0.114799
-0.628105
0.0477492
0.229445
0
0
0
0
0
0
0
0
0
0
0
0
0
0
0
0
0
0
0
0
0
0
0
0
0
0
0
0
0
0
0
0
0
0
0
0
0
0
0
0
0
0
0
0
0
0
0
0
0
0
0
0
0
0
-7.10543e-15
0
0
-4.90274e-13
0
0
-4.66258e-11
3.55271e-14
3.19744e-14
-4.93142e-09
3.82272e-12
3.35731e-12
-3.02054e-07
3.95204e-10
3.37533e-10
-1.92441e-07
-9.82727e-08
-6.55693e-08
1.60183e-08
-1.66477e-09
1.4433e-08
-2.48482e-06
-1.03827e-05
-2.5756e-06
-9.81689e-06
0.00420142
0.0387315
-1.08979
-0.00191932
0.00500243
3.46301
27.4122
-29.6982
-1.22184
0.397264
4.95902
28.4208
-25.6376
-1.96494
-5.5494
5.16785
16.3993
-13.3487
-2.06632
-5.61966
1.2177
1.55461
-0.853556
-1.35804
-0.770062
-8.3806
5.13547
11.5627
-2.02414
-3.48375
-20.5485
4.96737
23.7479
-1.90185
-5.4729
-30.3704
3.94164
30.1685
-1.31372
-0.659433
-17.749
1.51002
-0.485631
0.762488
3.76599
0
0
0
0
0
0
0
0
0
0
0
0
0
0
0
0
0
0
0
0
0
0
0
0
0
0
0
0
0
0
0
0
0
0
0
0
0
0
0
0
0
0
0
0
0
0
0
0
0
0
-2.06057e-13
0
0
0
0
0
-2.18634e-11
3.55271e-15
1.06581e-14
1.24345e-14
1.77636e-15
1.24345e-14
-2.62372e-09
4.24549e-13
1.46017e-12
1.47793e-12
3.89022e-13
1.42286e-12
-7.01552e-08
6.02078e-11
6.52243e-11
6.26041e-11
1.95257e-11
2.55032e-11
-2.50264e-08
-3.72047e-08
-6.85495e-09
-1.87325e-08
1.02783e-08
4.51438e-09
-2.59588e-06
-6.60405e-07
-3.49844e-07
-1.10861e-06
-0.00562903
0.0109447
-0.46614
0.00124309
0.00319097
-5.19384
25.7833
-28.6342
0.882021
7.16868
-6.91112
28.0405
-25.7248
9.72544
-5.13451
-7.24305
16.5374
-13.5296
9.53483
-5.64399
1.06808
-2.01078
-0.723152
2.08162
-0.634022
-8.55707
-6.70611
11.7119
5.33683
-4.75996
-20.574
-5.46535
23.6203
2.64261
-4.24434
-30.9672
-2.14046
-1.84451
0.991105
31.43
-21.0389
-0.492953
-1.01836
1.0662
4.88245
0
0
0
0
0
0
0
0
0
0
0
0
0
0
0
0
0
0
0
0
0
0
0
0
0
0
0
0
0
0
0
0
0
0
0
0
0
0
0
0
0
0
0
0
0
0
0
0
0
0
0
0
0
0
0
0
0
0
0
0
0
0
0
0
0
0
0
0
0
0
0
0
-1.77636e-15
0
0
4.08562e-14
-3.41061e-13
3.90799e-14
2.66454e-15
5.59197e-12
-4.51763e-11
5.14433e-12
4.44977e-13
2.70439e-09
5.23576e-10
1.73804e-10
-3.46742e-09
-6.58152e-08
-4.60319e-08
-4.32285e-08
-4.66106e-08
3.68677e-05
-5.37778e-05
-0.00369375
7.1205e-06
3.03897e-06
16.9938
-11.3785
-23.9507
11.2384
2.01832
-16.5365
26.6023
-25.4071
19.1771
-2.30878
-18.2308
19.3755
-16.7131
23.0783
-2.46544
-4.60445
-3.31425
0.329114
0.129495
0.449226
0
0
0
0
0
0
0
0
0
0
0
0
0
0
0
0
0
0
0
0
0
0
0
0
0
0
0
0
0
0
0
0
0
0
0
0
0
0
0
0
0
0
0
0
0
0
0
0
0
0
0
0
0
1.77636e-15
-1.54543e-13
0
8.88178e-16
4.44089e-16
4.44089e-16
8.88178e-16
-8.88178e-14
6.72706e-12
-6.20064e-10
4.40536e-13
1.32161e-12
3.84137e-13
3.16636e-13
1.29097e-12
-3.34612e-11
2.21827e-08
2.56741e-09
6.59598e-09
1.51804e-09
2.43682e-09
6.52828e-09
-2.41588e-08
-6.79619e-08
-2.27115e-06
-3.31153e-07
-9.0123e-08
-2.78172e-07
-2.60194e-08
-5.82021e-08
0.0151685
-0.26426
0.00945045
0.00201109
-0.602133
19.4511
-24.9974
22.9545
2.9571
-19.5131
-30.6797
10.7316
-8.69901
-0.174581
29.6646
-1.83882e-06
-1.68858e-07
1.01127e-08
2.29302e-08
3.27036e-09
-5.61643e-08
-9.50784e-09
-6.68546e-09
-4.9723e-07
-1.18335e-07
-8.54071e-08
0
0
0
0
0
0
0
0
0
0
0
0
0
0
0
0
0
0
0
0
0
0
0
0
0
0
0
0
0
0
0
0
0
0
0
0
0
0.00114133
-0.218651
0.00354004
0.000366095
-0.0181348
-5.61154
0.237914
-0.0648854
0.151913
0.570252
-0.00442444
-0.0022898
0.000111765
2.48549e-05
0.000145066
-1.63165e-09
-1.18058e-07
1.56361e-09
9.25064e-10
1.8473e-10
-3.42975e-10
-8.84747e-10
-3.18199e-10
-3.9968e-15
-2.01617e-11
3.25073e-13
5.86198e-14
1.95399e-14
-5.32907e-15
-4.88498e-15
-3.55271e-15
-4.88454e-12
5.68434e-14
9.41469e-14
7.24754e-13
2.30926e-14
-1.96509e-12
-8.12874e-11
-3.2006e-11
2.4869e-12
4.9738e-14
-3.80227e-10
-1.4591e-11
-8.60272e-11
-4.18865e-12
-9.23706e-13
-1.27898e-13
-2.02505e-13
-4.08562e-14
0
0
0
0
0
0
0
0
0
0
0
0
0
0
0
0
0
0
0
0
0
0
0
0
0
0
0
0
0
0
0
0
0
0
0
0
0
0
0
0
0
0
0
0
0
0
0
0
0
0
0
0
0
0
0
0
0
0
0
0
0
0
0
0
0
0
0
0
0
0
0
0
0
0
0
0
0
0
0
0
1.22228e-09
-9.9932e-08
-7.86889e-09
1.13439e-08
7.18254e-10
6.17261e-10
1.09053e-09
2.92772e-10
-1.25067e-07
-1.57158e-07
-1.0606e-07
-4.48506e-06
2.12868e-09
4.68222e-09
6.6572e-08
7.50722e-09
-2.6318e-06
-9.38684e-07
-6.11411e-07
8.70244e-10
2.21809e-09
1.14767e-10
-1.69649e-07
-5.09221e-09
-7.8855e-08
-2.94433e-09
-3.63213e-09
-4.68724e-10
-2.66273e-09
-7.69029e-10
1.16387e-11
8.9031e-12
5.8975e-13
-7.15143e-11
-6.71818e-12
-2.6235e-11
-5.46585e-12
7.10543e-14
6.39488e-14
3.55271e-15
-3.19744e-14
-1.59872e-14
-1.77636e-14
-1.42109e-14
0
0
0
-7.10543e-15
-6.03961e-14
0
-3.55271e-15
7.10543e-15
0
0
0
0
0
0
0
0
0
0
0
0
0
0
0
0
0
0
0
0
0
0
0
0
0
0
0
0
0
0
0
0
0
0
0
0
0
0
0
0
0
0
0
0
0
0
0
0
0
0
0
0
0
0
0
0
0
0
0
0
0
0
0
0
0
0
0
0
0
0
0
0
0
0
0
0
0
0
0
0
0
0
0
0
0
0
0
0
0
0
0
0
0
0
0
0
0
0
0
0
0
0
0
0
0
0
0
0
0
0
0
0
0
0
0
0
0
0
8.88178e-16
0
0
0
-4.44089e-16
1.77636e-15
-6.92779e-14
3.55271e-15
0
-7.99361e-15
-4.44089e-16
-1.11022e-14
-6.75726e-12
1.06937e-11
7.31859e-13
1.89182e-12
1.87939e-12
1.88116e-12
1.82432e-12
-2.1822e-10
-7.67409e-10
-2.76792e-11
-1.93111e-10
1.47722e-11
1.08365e-10
1.24913e-11
-1.82535e-09
-1.56846e-09
-1.37613e-09
-1.08296e-09
5.46407e-12
1.78986e-11
1.25411e-12
1.20792e-13
1.27898e-13
1.06581e-14
0
0
0
0
0
0
0
0
0
0
0
0
0
0
0
0
0
0
0
0
0
0
0
0
0
0
0
0
0
0
0
0
0
0
0
0
0
0
0
0
0
0
0
0
0
0
0
0
0
0
0
0
0
0
0
0
0
0
0
0
0
0
0
0
0
0
0
0
0
0
0
0
0
0
0
0
0
0
0
0
0
0
0
0
0
0
0
-3.55271e-14
0
0
0
-6.57252e-14
0
-6.39488e-14
-8.52651e-14
9.9476e-14
7.10543e-15
9.9476e-14
1.52056e-12
1.1724e-13
4.26326e-14
1.42109e-13
7.10543e-15
0
0
0
0
0
0
0
0
0
0
0
0
0
0
0
0
0
0
0
0
0
0
0
0
0
0
0
0
0
0
0
0
0
0
0
0
0
0
0
0
0
0
0
0
0
0
0
0
0
0
0
0
0
0
0
0
0
0
0
0
0
0
0
0
0
0
0
0
0
0
0
0
0
0
0
0
0
0
0
0
0
0
0
0
0
0
0
0
0
0
0
0
0
0
0
0
0
0
0
0
0
0
0
0
0
0
0
0
0
0
0
0
0
0
0
0
0
0
0
0
0
0
0
0
0
0
0
0
0
0
0
0
0
0
0
0
0
0
0
0
0
0
0
0
0
0
0
0
0
0
0
0
0
0
0
0
0
0
0
0
0
0
0
0
0
0
0
0
0
0
0
0
0
0
0
0
0
0
0
0
0
0
0
0
0
0
0
0
0
0
0
0
0
0
0
0
0
0
0
0
0
0
0
0
0
0
0
0
0
0
0
0
0
0
0
0
0
0
0
0
0
0
0
0
0
0
0
0
0
0
0
0
0
0
0
0
0
0
0
0
0
0
0
0
0
0
0
0
0
0
0
0
0
0
0
0
0
0
0
0
0
0
0
0
0
0
0
0
0
0
0
0
0
0
0
0
0
0
0
0
0
0
0
0
0
0
0
0
0
0
0
0
0
0
0
0
0
0
0
0
0
0
0
0
0
0
0
0
0
0
0
0
0
0
0
0
0
0
0
0
0
0
0
0
0
0
0
0
0
0
0
0
0
0
0
0
0
0
0
0
0
0
0
0
0
0
0
0
0
0
0
0
0
0
0
0
0
0
0
0
0
0
0
0
0
0
0
0
0
0
0
0
0
0
0
0
0
0
0
0
0
0
0
0
0
0
0
0
0
0
0
0
0
0
0
0
0
0
0
0
0
0
0
0
0
0
0
0
0
0
0
0
0
0
0
0
0
0
0
0
0
0
0
0
0
0
0
0
0
0
0
0
0
0
0
0
0
0
0
0
0
0
0
0
0
0
0
0
0
0
0
0
0
0
0
0
0
0
0
0
0
0
0
0
0
0
0
0
0
0
0
0
0
0
0
0
0
0
0
0
0
0
0
0
0
0
0
0
0
0
0
0
0
0
0
0
0
0
0
0
0
0
0
0
0
0
0
0
0
0
0
0
0
0
0
0
0
0
0
0
0
0
0
0
0
0
0
0
0
0
0
0
0
0
0
0
0
0
0
0
0
0
0
0
0
0
0
0
0
0
0
0
0
0
0
0
0
0
0
0
0
0
0
0
0
0
0
0
0
0
0
0
0
0
0
0
0
0
0
0
0
0
0
0
0
0
0
0
0
0
0
0
0
0
0
0
0
0
0
0
0
0
0
0
0
0
0
0
0
0
0
0
0
0
0
0
0
0
0
0
0
0
0
0
0
0
0
0
0
0
0
0
0
-7.10543e-15
0
0
-8.52651e-14
0
0
-1.7053e-13
0
0
-3.55271e-14
0
0
0
0
0
0
0
0
0
0
0
0
0
0
0
0
0
0
0
0
0
0
0
0
0
0
0
0
0
0
0
0
0
0
0
0
0
0
0
0
0
0
0
0
0
0
0
0
0
0
0
0
0
0
0
0
0
0
0
0
0
-2.13163e-14
0
-7.10543e-15
-6.96332e-13
0
0
-7.16938e-12
7.10543e-15
1.42109e-14
-1.32161e-11
1.42109e-14
7.10543e-15
-3.24718e-12
3.55271e-15
0
-1.56319e-13
0
0
-7.10543e-15
0
0
0
0
0
0
0
0
0
0
0
0
0
0
0
0
0
0
0
0
0
0
0
0
0
0
0
0
0
0
0
0
0
0
0
0
0
0
0
0
0
0
0
0
0
0
0
0
0
0
0
-7.10543e-15
-4.26326e-14
0
-1.49214e-13
-2.17426e-12
0
-1.1795e-12
-7.21769e-11
5.68434e-14
7.10543e-14
-4.53625e-10
6.96332e-13
1.47793e-12
-7.90799e-10
1.45661e-12
6.03961e-13
-2.00814e-10
3.19744e-13
4.9738e-14
-1.38698e-11
1.42109e-14
0
-4.26326e-13
0
-7.10543e-15
0
0
0
0
0
0
0
0
0
0
0
0
0
0
0
0
0
0
0
0
0
0
0
0
0
0
0
0
0
0
0
0
0
0
0
0
0
0
0
0
0
0
0
0
0
0
-2.13163e-14
-4.9738e-14
0
-8.88178e-13
-3.55982e-12
3.55271e-15
-1.66267e-11
-1.56859e-10
2.06057e-13
-9.3479e-11
-9.1328e-10
6.11422e-12
-1.16472e-09
-1.394e-09
-9.59075e-10
2.73062e-11
-5.10627e-09
5.15961e-11
-1.19163e-08
-2.79686e-09
-3.55987e-09
1.2443e-10
-1.99635e-08
1.12493e-10
-1.37911e-08
-5.97344e-09
-5.19323e-09
4.49134e-11
-3.31056e-09
2.46914e-11
-1.84882e-09
-1.99091e-09
-1.29766e-09
4.88143e-12
-1.40778e-09
1.48503e-12
1.91847e-13
-5.99911e-11
3.90799e-14
-6.32383e-13
0
0
0
0
0
0
0
0
0
0
0
0
0
0
0
0
0
0
0
0
0
0
0
0
0
0
0
0
0
0
0
0
0
0
0
0
0
0
0
0
0
0
0
-4.26326e-14
-2.84217e-14
0
-2.54374e-12
-2.94875e-12
3.55271e-15
-8.75815e-11
-2.06271e-10
3.94351e-13
-4.40872e-10
-8.82475e-10
1.93836e-11
-4.31907e-09
-9.05612e-10
-1.25489e-09
-6.1228e-10
-4.299e-10
-3.46878e-10
-1.20055e-10
-8.35065e-10
-4.18733e-09
1.83364e-10
-9.08466e-10
-1.78504e-09
-1.02417e-07
7.10161e-10
1.13356e-09
-4.8303e-09
7.23617e-11
-8.93676e-07
2.89427e-09
1.48168e-09
-1.0769e-09
-1.55986e-09
1.16729e-09
-1.03073e-07
5.89598e-10
6.33328e-10
-1.35534e-07
1.69571e-10
-1.06534e-08
-2.0549e-08
-2.58e-09
-7.92143e-10
-5.49044e-09
-6.73232e-10
-2.17039e-09
-8.46994e-11
-1.01111e-10
-1.1684e-09
-1.40878e-10
2.88338e-11
-1.4089e-09
5.14078e-12
-2.10628e-09
-1.98964e-09
-2.10123e-09
-7.1708e-11
7.10543e-14
0
0
0
0
0
0
0
0
0
0
0
0
0
0
0
0
0
0
0
0
0
0
0
0
0
0
0
0
0
0
0
0
0
0
0
0
0
0
0
-4.26326e-14
-7.10543e-15
0
-3.6593e-12
-1.11555e-12
3.55271e-15
-1.89708e-10
-1.04784e-10
4.05009e-13
-6.28033e-10
-8.07969e-10
3.04432e-11
-4.81317e-09
-7.89877e-10
-1.04959e-09
-6.5479e-09
-1.05615e-09
-1.31831e-09
-1.61519e-10
-2.56089e-09
-6.55226e-09
1.88741e-10
-1.32021e-08
9.41633e-09
2.43537e-08
-3.31972e-07
-3.9983e-06
-9.2274e-07
-1.92499e-07
6.24395e-08
-4.26711e-08
-1.97357e-07
-7.53086e-08
-4.93057e-08
-1.67559e-08
-1.36474e-08
-2.20613e-08
-2.52134e-07
2.21958e-07
1.26203e-06
-9.2926e-07
-4.3157e-05
1.51378e-07
-6.78815e-06
2.61631e-06
3.47263e-05
2.28606e-07
-0.00124334
4.44524e-06
-2.00217e-06
-1.2104e-06
5.659e-06
-0.000216114
6.64439e-07
1.1377e-06
-6.82582e-08
-2.91033e-08
3.98465e-08
1.21698e-08
-6.47559e-06
-1.84747e-06
-4.56599e-07
-2.25424e-07
-3.05581e-07
-7.94991e-08
-1.33147e-07
-3.48175e-08
-2.23434e-08
-2.31056e-08
-4.57656e-09
-2.86651e-10
3.0978e-09
-1.09548e-08
3.35248e-10
-7.11976e-10
7.42517e-12
-1.56128e-09
-1.08592e-09
-1.55725e-09
-1.39202e-09
-1.00712e-09
-7.97204e-10
-1.00167e-09
0
0
0
0
0
0
0
0
0
0
0
0
0
0
0
0
0
0
0
0
0
0
0
0
0
0
0
0
0
0
0
0
0
0
0
0
-2.84217e-14
0
0
-2.63611e-12
-1.42109e-13
0
-1.88081e-10
-1.61364e-11
2.38032e-13
-1.04662e-09
-3.58831e-10
2.15863e-11
-6.15041e-09
-1.16414e-09
-1.49528e-09
-7.9692e-10
-3.44345e-10
-3.46724e-10
-1.27056e-10
-7.29132e-09
-3.62446e-09
1.90826e-10
-8.13422e-08
5.46781e-08
4.30111e-07
3.84445e-07
-7.81731e-07
-2.74691e-05
-5.26901e-06
-4.25069e-07
-9.74334e-07
-3.7178e-05
-7.04733e-06
-5.57584e-07
-8.4686e-08
-8.61752e-08
-3.6068e-07
-0.00046054
0.000287202
0.000633957
-0.0064355
-0.0409858
9.16156e-05
-1.44763
2.48905
2.14389
-3.18976
-11.8489
1.34943
-2.28337
1.3145
8.69989
-0.285998
-17.8145
2.75392
-2.72446
-1.74891
4.16673
-14.6072
1.9549
3.05551
-0.120089
-0.016226
0.0216887
-0.663944
0.00526308
0.00952251
-8.46952e-07
-6.98921e-08
1.34637e-07
-1.02469e-06
3.61637e-08
3.47668e-07
-1.34908e-08
-3.29506e-10
3.22517e-09
-4.32455e-09
3.20486e-10
0
0
0
0
0
0
0
0
0
0
0
0
0
0
0
0
0
0
0
0
0
0
0
0
0
0
0
0
0
0
0
0
0
-7.10543e-15
0
0
-8.45546e-13
-7.10543e-15
0
-7.85718e-11
-9.52127e-13
7.4607e-14
-7.93571e-10
-8.54996e-11
6.30251e-12
-1.22596e-09
-1.21234e-09
-8.66793e-10
-5.9698e-11
-4.27178e-09
-6.69155e-10
1.25149e-10
-2.83188e-08
1.34553e-08
4.55367e-08
-4.75042e-07
-1.03484e-05
-2.15616e-06
-2.01551e-07
1.05888e-07
-7.8587e-08
-7.67135e-07
-2.10478e-07
-5.89244e-08
-2.27688e-08
-3.00549e-08
-5.12802e-08
-0.000937177
0.000695567
0.00117877
-0.0664105
-0.0207143
0.000184962
-3.49167
14.1206
13.6762
-15.0881
-15.9866
4.5023
-4.37785
12.7917
24.01
-11.1085
-25.6709
6.23639
-4.41277
3.48768
27.6951
-0.791672
-27.5084
6.86649
-7.05864
-4.49099
26.0747
-26.3401
6.93555
9.50407
-13.9989
-3.54091
17.2689
-18.2044
4.89294
14.4987
-1.80517
-0.115731
0.0970791
-1.31054
0.0457683
0.116115
-1.69336e-06
-2.78294e-08
3.08203e-07
2.94103e-08
-2.61681e-05
-5.8101e-07
-7.32469e-06
-2.39716e-06
-7.29754e-07
-1.6181e-07
-1.1843e-07
-1.17664e-07
-2.11223e-08
-2.34064e-08
1.07396e-07
0
0
0
0
0
0
0
0
0
0
0
0
0
0
0
0
0
0
0
0
0
0
0
0
0
0
0
0
0
0
0
0
0
-6.39488e-14
0
0
-5.59197e-12
0
3.55271e-15
-4.4065e-10
-2.06057e-13
5.79092e-13
-7.23853e-09
3.88312e-11
6.08615e-11
-3.02139e-08
-2.27424e-09
-4.18697e-09
-1.60989e-09
-4.19671e-07
-4.40167e-09
8.05561e-10
1.21926e-09
-1.12851e-06
9.27506e-07
6.54287e-06
-0.00027896
-6.38308e-06
6.50148e-07
-2.11448
5.20166
5.92774
-16.071
-5.60984
2.44334
-4.46277
14.5364
24.1873
-25.2226
-12.955
6.44943
-4.92169
17.1475
15.6821
-12.9134
-14.2939
7.58456
-4.76751
3.74328
17.3876
-0.782413
-14.4094
7.69742
-4.82979
-8.14992
17.1549
11.1742
-14.3805
7.64898
-21.9096
-4.97464
17.8153
-15.1886
7.97089
24.2731
-20.5716
-3.05996
10.1067
-9.07808
4.47369
17.5087
-0.0596985
-0.000371722
0.000251292
-0.0016368
0.000173524
0.0010086
0
0
0
0
0
0
0
0
0
0
0
0
0
0
0
0
0
0
0
0
0
0
0
0
0
0
0
0
0
0
0
0
0
0
0
0
0
0
0
0
0
0
0
0
0
0
0
0
0
0
0
0
0
0
0
0
0
-1.56319e-13
0
0
-1.24771e-11
1.42109e-14
1.42109e-14
-1.11755e-09
1.47793e-12
1.42819e-12
-7.01095e-08
1.0813e-10
1.52038e-10
-4.41672e-08
-9.07482e-09
-6.53266e-09
-1.0191e-08
-4.49994e-10
6.35989e-09
5.04172e-09
-5.08192e-07
-5.11207e-07
-4.70481e-07
-4.67554e-07
-7.22526e-05
1.8164e-05
0.000195994
-0.0114536
5.75898e-07
3.40056e-05
-2.77773
2.30517
14.9908
-21.5296
-0.781402
3.76199
-4.55817
5.1275
27.9914
-26.9131
-2.21266
7.10143
-4.72894
5.35903
16.2058
-13.0881
-2.24898
7.82752
-1.10907
0.984495
1.33123
-0.582877
-0.920839
1.50899
-4.65041
-8.34183
5.22644
11.4178
-2.12605
7.75256
-4.84196
-20.183
5.33197
23.8553
-2.12113
7.77102
-4.01126
-27.1046
3.60235
23.8291
-1.53736
5.67854
-1.39984
-0.0549704
0.0218446
-0.0025328
0.0240837
0.0758631
0
0
0
0
0
0
0
0
0
0
0
0
0
0
0
0
0
0
0
0
0
0
0
0
0
0
0
0
0
0
0
0
0
0
0
0
0
0
0
0
0
0
0
0
0
0
0
0
0
0
0
0
0
0
0
0
0
0
-4.9738e-14
0
0
0
0
0
-4.51195e-12
1.77636e-15
3.55271e-15
3.55271e-15
0
1.77636e-15
-3.119e-10
3.30402e-13
4.93827e-13
3.87246e-13
1.08358e-13
3.69482e-13
-1.05961e-08
8.92442e-12
3.26672e-11
1.95399e-11
5.22782e-12
1.32374e-11
-2.25072e-09
-1.88042e-09
-1.02624e-09
-2.45998e-09
-3.67542e-09
-7.13769e-07
1.87846e-09
1.11176e-09
-1.79374e-05
-9.79699e-06
5.38529e-05
-0.0021294
6.43398e-06
1.08581e-05
-3.57599
-2.41641
10.9365
-18.7092
3.09828
4.42467
-4.27677
-6.19982
26.8224
-26.2548
8.7829
6.92627
-4.67816
-7.02763
16.0042
-13.0004
9.8064
7.59764
-1.10268
0.887706
-1.78064
-0.543694
2.14599
1.51765
-4.59799
-8.45473
-7.11112
11.4499
8.99698
7.6128
-4.79505
-20.1518
-7.79465
23.4969
7.42394
7.67928
-23.9691
-4.36616
-3.09651
0.581795
5.81323
22.1728
-0.686487
-0.0211436
-0.00843277
0.00397649
0.00459753
0.0215032
0
0
0
0
0
0
0
0
0
0
0
0
0
0
0
0
0
0
0
0
0
0
0
0
0
0
0
0
0
0
0
0
0
0
0
0
0
0
0
0
0
0
0
0
0
0
0
0
0
0
0
0
0
0
0
0
0
0
0
0
0
0
0
0
0
0
0
0
0
0
0
0
0
0
0
0
0
0
0
0
0
0
0
-1.77636e-15
0
0
-6.21725e-15
2.66454e-14
-2.00728e-13
2.66454e-14
6.21725e-15
-2.93099e-13
1.02851e-12
-8.03979e-12
9.166e-13
2.54019e-13
-6.03153e-11
1.02844e-10
-7.51242e-09
5.49107e-11
2.34497e-11
-4.35799e-10
-2.74517e-08
1.20982e-07
-1.53616e-07
-9.47758e-07
1.03054e-07
2.43524e-08
-0.346249
0.231345
-1.16126
-3.05694
0.146142
0.0894748
-3.72301
-13.8682
18.3899
-19.4683
14.9697
5.3843
-4.75133
-19.3003
18.1081
-15.2644
24.1642
7.71682
-0.00586176
-0.00018651
-0.00245634
8.31618e-05
2.00582e-05
0.000113713
0
0
0
0
0
0
0
0
0
0
0
0
0
0
0
0
0
0
0
0
0
0
0
0
0
0
0
0
0
0
0
0
0
0
0
0
0
0
0
0
0
0
0
0
0
0
0
0
0
0
0
0
0
0
0
0
0
0
0
0
0
0
0
-1.06581e-14
0
4.44089e-16
0
4.44089e-16
4.44089e-16
-3.01981e-14
-1.59872e-13
3.03757e-13
-2.50431e-11
4.26326e-14
7.59393e-14
3.19744e-14
7.59393e-14
1.9984e-14
-2.70539e-12
-1.06101e-09
7.26429e-10
-3.74728e-08
1.6292e-10
2.36982e-10
1.14095e-10
2.33178e-10
6.33591e-11
-8.00278e-09
4.81873e-07
-5.42723e-07
-9.56359e-06
3.16976e-07
9.01099e-08
-2.00983e-05
0.963588
-1.79755
-8.04303
1.04644
0.667974
-6.24797
-20.8383
-3.61812
7.2333
-4.2708
4.55054
15.5452
-2.86128e-08
-2.2693e-10
-9.05087e-10
1.23814e-10
2.05956e-10
3.9738e-11
-7.76765e-11
-4.67311e-11
-4.29252e-11
0
0
0
0
0
0
0
0
0
0
0
0
0
0
0
0
0
0
0
0
0
0
0
0
0
0
0
0
0
0
0
0
0
0
0
0
0
0
0
0
0
0
0
7.12793e-08
-1.75518e-07
-9.67148e-06
4.90938e-07
4.03538e-08
-8.84181e-07
-0.0280342
-0.000400854
0.000114674
-6.91664e-05
9.28126e-05
0.000512303
-2.4178e-05
-3.12596e-07
-7.96235e-06
4.14081e-07
5.94065e-07
8.7948e-08
-1.13292e-06
-7.89264e-06
-6.79062e-07
-2.7601e-06
-6.41569e-07
-4.29539e-07
-1.51943e-07
-1.48564e-07
-1.33744e-07
-2.56524e-11
-6.12577e-11
-6.66795e-09
7.7927e-11
5.722e-11
9.2566e-12
-1.24625e-11
-1.51714e-11
-3.85647e-12
0
-7.10543e-15
-8.95284e-13
8.88178e-15
1.77636e-15
8.88178e-16
-4.44089e-16
-4.44089e-16
0
-6.66134e-15
-2.66454e-15
0
0
1.77636e-15
0
-1.33227e-15
-1.4122e-13
-2.30926e-14
1.42109e-14
3.55271e-15
-2.19558e-12
-8.34888e-14
-1.75859e-13
-1.42109e-14
0
0
0
0
0
0
0
0
0
0
0
0
0
0
0
0
0
0
0
0
0
0
0
0
0
0
0
0
0
0
0
0
0
0
0
0
0
0
0
0
0
0
0
0
0
0
0
0
0
0
0
0
0
0
0
0
0
0
0
0
0
0
0
0
0
0
0
0
0
0
0
0
0
0
0
0
0
0
0
0
0
0
0
0
0
0
0
0
0
0
0
0
0
0
0
2.79203e-11
-3.38436e-10
-2.40133e-08
-2.45549e-10
2.50749e-10
2.72404e-11
1.52967e-11
2.21623e-11
7.08678e-12
2.58957e-10
6.21725e-09
5.60455e-10
-5.13087e-07
-1.92544e-07
-7.19778e-08
-4.48521e-08
9.98792e-11
3.13545e-11
5.15801e-11
2.89209e-11
-4.25345e-09
-2.12612e-09
-3.56735e-10
-3.53281e-10
5.03917e-11
1.18007e-10
1.26477e-11
-1.23073e-08
-2.6834e-10
-1.2327e-09
-9.28875e-11
5.68434e-13
4.26326e-13
7.4607e-14
-3.45146e-12
-3.01981e-13
-6.00409e-13
-2.45137e-13
7.10543e-15
7.10543e-15
0
-1.77636e-15
-1.77636e-15
-1.77636e-15
0
0
0
0
0
0
0
0
0
0
0
0
0
0
0
0
0
0
0
0
0
0
0
0
0
0
0
0
0
0
0
0
0
0
0
0
0
0
0
0
0
0
0
0
0
0
0
0
0
0
0
0
0
0
0
0
0
0
0
0
0
0
0
0
0
0
0
0
0
0
0
0
0
0
0
0
0
0
0
0
0
0
0
0
0
0
0
0
0
0
0
0
0
0
0
0
0
0
0
0
0
0
0
0
0
0
0
0
0
0
0
0
0
0
0
0
0
0
0
0
0
0
0
0
0
0
0
0
0
0
0
0
0
0
0
0
0
0
0
0
0
-8.88178e-15
0
0
-4.44089e-16
0
-4.44089e-16
-1.30029e-12
1.44951e-12
1.56319e-13
4.70735e-13
4.70735e-13
4.70735e-13
4.70735e-13
-1.08216e-11
-6.6736e-11
-1.66622e-12
-4.59632e-11
2.06768e-12
4.78977e-11
3.83338e-12
6.53699e-13
1.28608e-12
1.84741e-13
7.10543e-15
7.10543e-15
0
0
0
0
0
0
0
0
0
0
0
0
0
0
0
0
0
0
0
0
0
0
0
0
0
0
0
0
0
0
0
0
0
0
0
0
0
0
0
0
0
0
0
0
0
0
0
0
0
0
0
0
0
0
0
0
0
0
0
0
0
0
0
0
0
0
0
0
0
0
0
0
0
0
0
0
0
0
0
0
0
0
0
0
0
0
0
0
-7.10543e-15
0
0
0
-7.10543e-15
0
-7.10543e-15
-1.42109e-14
1.42109e-14
0
1.42109e-14
3.62377e-13
2.84217e-14
7.10543e-15
1.42109e-14
0
0
0
0
0
0
0
0
0
0
0
0
0
0
0
0
0
0
0
0
0
0
0
0
0
0
0
0
0
0
0
0
0
0
0
0
0
0
0
0
0
0
0
0
0
0
0
0
0
0
0
0
0
0
0
0
0
0
0
0
0
0
0
0
0
0
0
0
0
0
0
0
0
0
0
0
0
0
0
0
0
0
0
0
0
0
0
0
0
0
0
0
0
0
0
0
0
0
0
0
0
0
0
0
0
0
0
0
0
0
0
0
0
0
0
0
0
0
0
0
0
0
0
0
0
0
0
0
0
0
0
0
0
0
0
0
0
0
0
0
0
0
0
0
0
0
0
0
0
0
0
0
0
0
0
0
0
0
0
0
0
0
0
0
0
0
0
0
0
0
0
0
0
0
0
0
0
0
0
0
0
0
0
0
0
0
0
0
0
0
0
0
0
0
0
0
0
0
0
0
0
0
0
0
0
0
0
0
0
0
0
0
0
0
0
0
0
0
0
0
0
0
0
0
0
0
0
0
0
0
0
0
0
0
0
0
0
0
0
0
0
0
0
0
0
0
0
0
0
0
0
0
0
0
0
0
0
0
0
0
0
0
0
0
0
0
0
0
0
0
0
0
0
0
0
0
0
0
0
0
0
0
0
0
0
0
0
0
0
0
0
0
0
0
0
0
0
0
0
0
0
0
0
0
0
0
0
0
0
0
0
0
0
0
0
0
0
0
0
0
0
0
0
0
0
0
0
0
0
0
0
0
0
0
0
0
0
0
0
0
0
0
0
0
0
0
0
0
0
0
0
0
0
0
0
0
0
0
0
0
0
0
0
0
0
0
0
0
0
0
0
0
0
0
0
0
0
0
0
0
0
0
0
0
0
0
0
0
0
0
0
0
0
0
0
0
0
0
0
0
0
0
0
0
0
0
0
0
0
0
0
0
0
0
0
0
0
0
0
0
0
0
0
0
0
0
0
0
0
0
0
0
0
0
0
0
0
0
0
0
0
0
0
0
0
0
0
0
0
0
0
0
0
0
0
0
0
0
0
0
0
0
0
0
0
0
0
0
0
0
0
0
0
0
0
0
0
0
0
0
0
0
0
0
0
0
0
0
0
0
0
0
0
0
0
0
0
0
0
0
0
0
0
0
0
0
0
0
0
0
0
0
0
0
0
0
0
0
0
0
0
0
0
0
0
0
0
0
0
0
0
0
0
0
0
0
0
0
0
0
0
0
0
0
0
0
0
0
0
0
0
0
0
0
0
0
0
0
0
0
0
0
0
0
0
0
0
0
0
0
0
0
0
0
0
0
0
0
0
0
0
0
0
0
0
0
0
0
0
0
0
0
0
0
0
0
0
0
0
0
0
0
0
0
0
0
0
0
0
0
0
0
0
0
0
0
0
0
0
0
0
0
0
0
0
0
0
0
0
0
0
0
0
0
0
0
0
0
0
0
-7.10543e-15
0
0
0
0
0
0
0
0
0
0
0
0
0
0
0
0
0
0
0
0
0
0
0
0
0
0
0
0
0
0
0
0
0
0
0
0
0
0
0
0
0
0
0
0
0
0
0
0
0
0
0
0
0
0
0
0
0
0
0
0
0
0
0
0
0
0
0
-2.84217e-14
0
0
-2.77112e-13
0
0
-7.74492e-13
0
0
-1.7053e-13
0
0
-7.10543e-15
0
0
0
0
0
0
0
0
0
0
0
0
0
0
0
0
0
0
0
0
0
0
0
0
0
0
0
0
0
0
0
0
0
0
0
0
0
0
0
0
0
0
0
0
0
0
0
0
0
0
0
0
0
0
0
0
0
-7.10543e-15
-8.52651e-14
0
-4.26326e-14
-2.81375e-12
3.55271e-15
-2.13163e-14
-2.30642e-11
7.4607e-14
7.10543e-14
-6.59384e-11
1.56319e-13
2.84217e-14
-1.47509e-11
3.55271e-14
0
-9.9476e-13
0
0
-2.13163e-14
0
0
0
0
0
0
0
0
0
0
0
0
0
0
0
0
0
0
0
0
0
0
0
0
0
0
0
0
0
0
0
0
0
0
0
0
0
0
0
0
0
0
0
0
0
0
0
0
0
0
0
-3.55271e-14
-1.27898e-13
0
-5.8975e-13
-7.42517e-12
1.77636e-14
-4.12115e-12
-2.15344e-10
6.2883e-13
-1.63425e-12
-2.21099e-09
6.4091e-12
6.31672e-12
-6.38483e-09
1.54046e-11
2.75691e-12
-1.31546e-09
3.45324e-12
2.70006e-13
-8.77023e-11
1.74083e-13
7.10543e-15
-2.16716e-12
3.55271e-15
-2.84217e-14
0
0
0
0
0
0
0
0
0
0
0
0
0
0
0
0
0
0
0
0
0
0
0
0
0
0
0
0
0
0
0
0
0
0
0
0
0
0
0
0
0
0
0
0
0
0
-9.9476e-14
-1.06581e-13
0
-3.84404e-12
-8.9031e-12
3.90799e-14
-5.86766e-11
-6.48811e-10
2.12452e-12
-3.891e-10
-1.49176e-09
6.49116e-11
-9.80378e-09
-9.77533e-10
-1.17243e-09
-1.49233e-10
-1.50677e-10
-1.43412e-10
-5.46956e-10
1.49917e-10
-4.67447e-08
7.24274e-10
-2.33376e-07
-4.64842e-09
-9.50309e-09
-8.48453e-10
-1.01702e-09
-3.32931e-09
-8.08662e-09
6.53749e-10
-5.06261e-07
1.93326e-09
-3.31222e-07
-2.25609e-08
-1.91731e-08
-2.27166e-09
-2.04842e-09
-1.57839e-08
-1.03265e-08
2.36149e-10
-9.73643e-08
4.19618e-10
-1.39098e-08
-4.88999e-09
-2.56156e-09
-5.17415e-10
-4.22697e-10
-3.90381e-09
-1.11981e-09
2.91465e-11
-1.64278e-09
2.04388e-11
-7.93637e-10
-7.91761e-10
-1.15653e-09
1.26477e-12
-1.5352e-10
4.93827e-13
-2.24532e-12
7.10543e-15
0
0
0
0
0
0
0
0
0
0
0
0
0
0
0
0
0
0
0
0
0
0
0
0
0
0
0
0
0
0
0
0
0
0
0
0
0
0
0
0
0
0
-1.27898e-13
-3.55271e-14
0
-8.48388e-12
-4.17799e-12
3.90799e-14
-4.46299e-10
-5.81316e-10
3.35731e-12
-8.69898e-10
-1.98679e-09
2.55014e-10
-4.82187e-08
-8.99687e-10
-1.95684e-09
-1.32093e-08
-6.94449e-10
-9.60039e-10
-2.79202e-10
-3.6871e-10
-4.19502e-10
-4.45289e-09
-2.25478e-09
-2.47609e-09
-2.52675e-08
1.02882e-09
-3.13353e-08
-2.50303e-08
1.24135e-08
8.396e-09
-3.66862e-07
-1.57394e-06
-1.20424e-07
-8.75851e-08
-2.64461e-08
-4.348e-08
-1.16305e-07
-1.53799e-07
3.28595e-08
-4.05829e-09
1.09765e-07
-1.66766e-05
-1.80089e-05
-9.70277e-07
-9.2493e-07
-1.93227e-07
-1.11587e-06
-1.20455e-06
-4.69742e-08
-4.06428e-08
1.46005e-08
2.49051e-08
-3.12619e-06
-8.69368e-07
-2.52485e-07
-1.86412e-07
-2.02023e-07
-5.45213e-08
-8.25731e-08
-2.65726e-09
-3.35293e-09
1.36238e-09
-3.99216e-08
1.07731e-09
1.22235e-10
-3.00921e-09
5.67546e-11
-6.99554e-10
-7.37437e-10
-9.49228e-10
-4.32545e-10
-1.40201e-09
-5.50068e-10
-4.34131e-10
-2.12387e-10
-2.09871e-10
-2.1398e-10
-2.12522e-10
-1.13062e-10
6.71463e-13
0
0
0
0
0
0
0
0
0
0
0
0
0
0
0
0
0
0
0
0
0
0
0
0
0
0
0
0
0
0
0
0
0
0
0
0
0
0
0
-8.52651e-14
-7.10543e-15
0
-8.02203e-12
-6.6791e-13
2.13163e-14
-7.77177e-10
-8.11369e-11
2.44071e-12
-1.90391e-09
-9.24508e-10
3.05771e-10
-5.7883e-08
-9.76963e-10
-2.13175e-09
-2.05277e-08
-6.18067e-10
-1.15766e-09
-3.28336e-10
-4.86538e-10
-4.41362e-10
-5.61172e-09
-5.78208e-09
-2.65106e-08
-4.04735e-08
9.0629e-10
-2.02021e-07
7.20972e-08
1.24315e-07
-2.75335e-07
-1.07508e-06
1.22512e-07
-0.0087314
0.000255549
0.00102648
-0.00143917
-0.0587509
0.00035889
-0.24683
0.00784662
0.0408221
-0.000183797
-0.919511
0.0165564
-0.0631294
-0.00873974
0.0092756
-0.345353