/*--------------------------------*- C++ -*----------------------------------*\
  =========                 |
  \\      /  F ield         | OpenFOAM: The Open Source CFD Toolbox
   \\    /   O peration     | Website:  https://openfoam.org
    \\  /    A nd           | Version:  9
     \\/     M anipulation  |
\*---------------------------------------------------------------------------*/
FoamFile
{
    format      ascii;
    class       volVectorField;
    location    "0.0004";
    object      rhoU;
}
// * * * * * * * * * * * * * * * * * * * * * * * * * * * * * * * * * * * * * //

dimensions      [1 -2 -1 0 0 0 0];

internalField   nonuniform List<vector> 
25895
(
(0 0 0)
(-2.7059e-60 0 0)
(2.8159e-62 0 0)
(4.98009e-70 0 0)
(9.09994e-70 0 0)
(5.01646e-70 0 0)
(4.47299e-70 0 0)
(1.24256e-69 0 0)
(4.50974e-60 0 0)
(2.63876e-58 0 0)
(8.29568e-50 0 0)
(-4.58837e-53 0 0)
(-8.20897e-48 0 0)
(-1.18198e-44 0 0)
(-1.07876e-41 0 0)
(-9.46249e-40 0 0)
(-1.40081e-36 0 0)
(-1.05021e-33 0 0)
(-2.15076e-32 0 0)
(-4.71167e-31 0 0)
(1.43348e-31 0 0)
(1.38964e-31 0 0)
(4.77718e-34 0 0)
(7.36586e-36 0 0)
(0 0 0)
(0 0 0)
(-7.7179e-58 0 0)
(6.77589e-60 0 0)
(2.12055e-67 0 0)
(3.92326e-67 0 0)
(2.13828e-67 0 0)
(1.92703e-67 0 0)
(5.13859e-67 0 0)
(1.5337e-57 0 0)
(6.85838e-56 0 0)
(2.35253e-47 0 0)
(-3.8104e-50 0 0)
(-5.1473e-45 0 0)
(-5.88293e-42 0 0)
(-5.09883e-39 0 0)
(-4.16266e-37 0 0)
(-5.73003e-34 0 0)
(-3.84974e-31 0 0)
(-7.12372e-30 0 0)
(-1.56932e-28 0 0)
(3.78213e-29 0 0)
(4.58653e-29 0 0)
(1.68841e-31 0 0)
(2.70361e-33 0 0)
(0 0 0)
(0 0 0)
(-2.08104e-55 0 0)
(1.54878e-57 0 0)
(8.74224e-65 0 0)
(1.63357e-64 0 0)
(8.81988e-65 0 0)
(8.01737e-65 0 0)
(2.0648e-64 0 0)
(5.02355e-55 0 0)
(1.6838e-53 0 0)
(6.31571e-45 0 0)
(-2.88299e-47 0 0)
(-3.04009e-42 0 0)
(-2.76278e-39 0 0)
(-2.29754e-36 0 0)
(-1.74547e-34 0 0)
(-2.22932e-31 0 0)
(-1.36932e-28 0 0)
(-2.32457e-27 0 0)
(-5.18544e-26 0 0)
(9.37131e-27 0 0)
(1.49183e-26 0 0)
(5.79369e-29 0 0)
(9.70705e-31 0 0)
(0 0 0)
(0 0 0)
(-5.28776e-53 0 0)
(3.3393e-55 0 0)
(3.48526e-62 0 0)
(2.63377e-62 0 1.17506e-14)
(1.41116e-62 0 -1.17506e-14)
(1.29151e-62 0 1.25462e-14)
(3.23201e-62 0 1.53477e-14)
(6.35849e-53 0 1.35935e-14)
(3.89076e-51 0 0)
(1.60251e-42 0 0)
(-1.98019e-44 0 0)
(-1.68072e-39 0 0)
(-1.22818e-36 0 0)
(-9.931e-34 0 0)
(-7.03037e-32 0 0)
(-3.32667e-29 0 1.24696e-14)
(-4.726e-26 0 0)
(-7.47217e-25 0 0)
(-6.86914e-24 0 1.17506e-14)
(1.07379e-24 0 -1.25462e-14)
(4.82236e-24 0 0)
(1.94051e-26 0 0)
(3.38845e-28 0 0)
(0 0 0)
(0 0 0)
(-1.26153e-50 0 0)
(6.76839e-53 0 0)
(5.38723e-60 0 -1.17506e-14)
(3.87943e-60 0 0)
(4.99669e-60 0 -1.34469e-14)
(1.90075e-60 0 0)
(4.02559e-60 0 0)
(6.1852e-51 0 0)
(8.42764e-49 0 0)
(3.84141e-40 0 0)
(-1.23279e-41 0 0)
(-8.66614e-37 0 0)
(-5.22229e-34 0 0)
(-4.15508e-31 0 0)
(-2.75074e-29 0 0)
(-4.793e-27 0 0)
(-6.39017e-24 0 -1.25462e-14)
(-9.2687e-23 0 -1.24696e-14)
(-8.70049e-22 0 0)
(2.97599e-22 0 -1.52214e-14)
(6.18323e-22 0 -1.26307e-14)
(6.31747e-24 0 0)
(1.13656e-25 0 0)
(0 0 0)
(0 0 0)
(-2.81408e-48 0 0)
(1.28474e-50 0 0)
(7.54347e-58 0 1.17506e-14)
(5.52419e-58 0 1.34469e-14)
(6.92803e-58 0 0)
(2.70406e-58 0 1.24696e-14)
(1.20372e-57 0 0)
(1.39492e-48 0 0)
(1.70327e-46 0 0)
(8.70851e-38 0 0)
(-7.00265e-39 0 0)
(-4.17339e-34 0 0)
(-2.16297e-31 0 0)
(-1.69199e-28 0 0)
(-1.05466e-26 0 0)
(-1.68943e-24 0 0)
(-8.56801e-22 0 1.17506e-14)
(-1.00765e-20 0 1.23977e-14)
(-1.02732e-19 0 1.34469e-14)
(3.2237e-20 0 0)
(7.57494e-20 0 1.13406e-14)
(1.96228e-21 0 0)
(3.61124e-23 0 0)
(0 0 0)
(0 0 0)
(-5.84075e-46 0 0)
(2.27386e-48 0 0)
(9.29807e-56 0 -1.25462e-14)
(5.7794e-56 0 0)
(9.3176e-56 0 -1.24696e-14)
(2.82774e-56 0 0)
(3.49532e-55 0 0)
(2.92825e-46 0 0)
(3.19441e-44 0 0)
(1.86221e-35 0 0)
(-3.6996e-36 0 0)
(-1.89542e-31 0 0)
(-8.89897e-29 0 0)
(-6.64589e-26 0 0)
(-3.95184e-24 0 0)
(-5.94629e-22 0 0)
(-1.17329e-19 0 -1.25462e-14)
(-8.2571e-19 0 -1.36941e-14)
(-1.09932e-17 0 0)
(3.31544e-18 -3.78479e-16 -1.35935e-14)
(8.42778e-18 0 -1.39754e-14)
(5.64997e-19 0 0)
(1.0746e-20 0 0)
(0 0 0)
(0 0 0)
(-1.12143e-43 0 0)
(3.73404e-46 0 0)
(2.16412e-53 0 -1.53477e-14)
(1.401e-53 0 0)
(8.69878e-54 0 0)
(6.85269e-54 0 0)
(9.90474e-53 0 0)
(5.68724e-44 0 0)
(5.52327e-42 0 0)
(1.55492e-33 0 -1.24696e-14)
(-2.00984e-33 0 0)
(-8.27941e-29 0 0)
(-3.65542e-26 0 0)
(-2.44143e-23 0 0)
(-1.42115e-21 0 0)
(-2.06997e-19 0 0)
(-1.64311e-17 0 -9.4739e-16)
(-3.45826e-16 -4.77537e-15 -1.69899e-14)
(-2.57242e-15 -5.63046e-14 0)
(7.73788e-16 -1.59709e-13 6.31594e-16)
(2.01743e-15 -2.91078e-14 -1.55372e-14)
(1.46572e-16 -3.78479e-16 0)
(2.98825e-18 0 0)
(0 0 0)
(0 0 0)
(-1.97789e-41 0 0)
(5.65694e-44 0 0)
(4.65274e-51 0 -1.35935e-14)
(3.15124e-51 0 0)
(1.86017e-51 0 0)
(1.54128e-51 0 0)
(2.7505e-50 0 0)
(1.01423e-41 0 0)
(8.73523e-40 0 0)
(1.24503e-31 0 0)
(-1.14081e-30 0 0)
(-3.55575e-26 0 0)
(-1.46411e-23 0 0)
(-7.99595e-21 0 0)
(-4.77177e-19 0 0)
(-6.81485e-17 0 0)
(-5.27188e-15 -1.8839e-14 0)
(-7.86286e-14 -6.08222e-13 -8.21072e-15)
(-5.17915e-13 -5.18929e-12 5.65276e-14)
(1.59398e-13 -1.43419e-11 1.95857e-13)
(4.0735e-13 -2.66742e-12 2.19967e-14)
(3.35269e-14 -1.76674e-13 1.13687e-15)
(7.84029e-16 -2.76972e-15 0)
(0 0 0)
(0 0 0)
(-3.17662e-39 0 0)
(7.85309e-42 0 0)
(3.68841e-49 0 0)
(6.52533e-49 0 0)
(3.64229e-49 0 0)
(3.19271e-49 0 0)
(7.50027e-48 0 0)
(1.64459e-39 0 0)
(1.2514e-37 0 0)
(1.84348e-29 0 0)
(-6.48449e-28 0 0)
(-1.50453e-23 0 0)
(-5.44376e-21 0 0)
(-2.22975e-18 0 0)
(-1.45932e-16 0 0)
(-2.00087e-14 -4.08252e-14 1.89478e-16)
(-7.06056e-13 -2.01851e-12 2.98112e-14)
(-8.31598e-12 -5.51039e-11 9.3601e-13)
(-4.44632e-11 -4.55e-10 5.34621e-12)
(1.67411e-11 -1.14699e-09 1.88071e-11)
(3.25316e-11 -2.1268e-10 2.97587e-12)
(3.61072e-12 -1.8609e-11 2.8428e-13)
(1.95317e-13 -4.95232e-13 6.56857e-15)
(3.03165e-15 -7.91954e-15 0)
(0 0 0)
(-4.59437e-37 0 0)
(9.90718e-40 0 0)
(6.5511e-47 0 0)
(1.23098e-46 0 0)
(6.46108e-47 0 0)
(6.02937e-47 0 0)
(8.06783e-46 0 1.24696e-14)
(2.39275e-37 0 0)
(1.60399e-35 0 0)
(2.34025e-27 0 0)
(-1.52544e-25 0 1.29093e-14)
(-6.0384e-21 0 3.32448e-15)
(-7.13326e-19 0 1.43774e-14)
(-2.12884e-16 0 1.44146e-14)
(-4.0247e-14 -4.96599e-14 5.05275e-16)
(-2.23581e-12 -3.73109e-12 5.98751e-14)
(-7.55037e-11 -1.92225e-10 3.27534e-12)
(-7.35802e-10 -3.93343e-09 8.70896e-11)
(-3.63575e-09 -4.54893e-08 9.04779e-10)
(2.0434e-09 -9.34687e-08 2.39173e-09)
(1.97634e-09 -1.90876e-08 3.79889e-10)
(3.53045e-10 -1.63229e-09 3.86524e-11)
(2.17421e-11 -4.58354e-11 9.36561e-13)
(5.29781e-13 -8.62171e-13 1.57267e-14)
(0 0 0)
(-5.89588e-35 0 0)
(1.12339e-37 0 0)
(1.03756e-44 0 0)
(2.08447e-44 0 0)
(1.02322e-44 0 0)
(1.02332e-44 0 0)
(5.22951e-44 0 0)
(3.06514e-35 0 0)
(1.80998e-33 0 0)
(1.26665e-25 0 -1.29093e-14)
(-7.34293e-23 0 0)
(-1.06629e-18 0 1.29093e-14)
(-1.55292e-16 0 0)
(-4.86431e-14 -3.91023e-14 4.42115e-16)
(-3.85256e-12 -3.82174e-12 6.80858e-14)
(-2.4782e-10 -3.62449e-10 7.17096e-12)
(-1.07729e-08 -2.25186e-08 6.03839e-10)
(-2.37579e-08 -8.66561e-08 1.51135e-09)
(-3.03609e-07 -2.20766e-06 4.69234e-08)
(-7.43664e-08 -8.48885e-06 1.67341e-07)
(2.40823e-07 -3.64514e-06 9.32865e-08)
(1.84451e-08 -7.08938e-08 1.38665e-09)
(2.00426e-09 -3.21868e-09 9.81533e-11)
(5.19424e-11 -6.99805e-11 1.74855e-12)
(0 0 0)
(-6.57548e-33 0 0)
(1.12689e-35 0 0)
(1.44869e-42 0 0)
(3.09716e-42 0 0)
(1.41448e-42 0 0)
(1.52744e-42 0 0)
(7.4373e-42 0 0)
(3.35947e-33 0 0)
(1.7588e-31 0 0)
(6.14686e-24 0 -3.32448e-15)
(-3.36188e-20 0 -1.29093e-14)
(-1.14315e-16 0 0)
(-3.77845e-14 -1.84763e-14 -1.3983e-14)
(-3.64579e-12 -2.12477e-12 5.38749e-14)
(-3.59793e-10 -2.5434e-10 6.97081e-12)
(-4.64929e-08 -5.01475e-08 1.70359e-09)
(-1.05494e-07 -1.83477e-07 3.00694e-09)
(-1.296e-05 -4.56941e-05 9.60941e-07)
(-0.012301 -0.105245 0.00235186)
(-0.0579026 -2.2882 0.0691902)
(0.0602784 -0.603802 0.016971)
(6.60083e-05 -0.000343698 5.53573e-06)
(1.91622e-07 -3.25659e-07 7.27469e-09)
(3.84242e-09 -3.86986e-09 1.38908e-10)
(0 0 0)
(-6.17794e-31 0 0)
(9.78449e-34 0 0)
(1.76337e-40 0 0)
(3.88293e-40 0 0)
(1.6412e-40 0 0)
(1.93262e-40 0 0)
(9.13938e-40 0 0)
(3.00486e-31 0 0)
(1.42527e-29 0 0)
(2.6435e-22 0 -1.43774e-14)
(-6.62316e-18 0 0)
(-1.76311e-14 -2.89154e-15 1.40462e-14)
(-1.86312e-12 -5.84044e-13 2.3369e-14)
(-1.91682e-10 -6.61514e-11 2.74364e-12)
(-2.59359e-08 -1.15809e-08 6.4233e-10)
(-2.09176e-07 -1.33332e-07 3.76225e-09)
(-0.000103518 -0.000115574 2.42611e-06)
(-218.303 -323.172 25.2445)
(-2944.65 -7601.61 387.403)
(-596.281 -9143.72 115.019)
(2254.21 -8536.27 297.649)
(1545.26 -2326.36 209.308)
(0.0112515 -0.015287 0.000423486)
(4.30259e-07 -2.83841e-07 9.16632e-09)
(0 0 0)
(-4.64304e-29 0 0)
(7.48427e-32 0 0)
(7.39091e-39 0 0)
(3.79005e-38 0 0)
(1.48382e-38 0 0)
(1.92471e-38 0 0)
(9.16933e-38 0 0)
(2.00493e-29 0 0)
(9.15294e-28 0 0)
(2.43178e-20 0 -1.35935e-14)
(-2.62529e-15 0 0)
(-4.74283e-13 -6.63028e-14 4.358e-15)
(-4.21891e-11 -7.44739e-12 4.98953e-13)
(-3.57204e-09 -7.12957e-10 5.47498e-11)
(-6.12953e-08 -1.91608e-08 9.56823e-10)
(-3.63815e-05 -1.18437e-05 6.25367e-07)
(-635.756 -493.441 55.3577)
(-10545.7 -10958.6 -6.46126)
(-7204.46 -14394.1 -3149.86)
(-1303.3 -14927.7 -3740.49)
(4582.82 -13793.9 -3279.33)
(8825.75 -11495.5 -973.797)
(4517.96 -3837.75 440.361)
(0.00398561 -0.0013418 8.19421e-05)
(0 0 0)
(-2.52127e-27 0 0)
(3.57868e-30 0 0)
(-2.16542e-37 0 0)
(9.37635e-37 0 0)
(3.671e-37 0 0)
(5.71754e-37 0 0)
(2.44724e-36 0 0)
(3.29409e-28 0 0)
(4.23191e-26 0 0)
(7.66165e-19 0 0)
(-5.32095e-14 -2.26526e-15 0)
(-5.39834e-12 -4.91807e-13 5.07801e-14)
(-5.6573e-10 -4.73096e-11 7.20507e-12)
(-7.01417e-08 -4.85897e-09 1.4733e-09)
(-4.45451e-06 -4.65522e-07 9.33421e-08)
(-0.83315 -0.11503 0.0210012)
(-9788.72 -4170.5 267.673)
(-14229 -8047.21 -4132.38)
(-10372.6 -11170.1 -6510.25)
(-2148.11 -13658.5 -7441.14)
(7175.73 -11373.2 -6262.24)
(10922.8 -7647.06 -4449.7)
(10963 -5044.99 -183.374)
(125.65 -42.8699 7.15952)
(0 0 0)
(-3.15586e-26 -9.09495e-15 0)
(3.64837e-30 -9.09495e-15 0)
(-3.12458e-35 -9.09495e-15 1.50951e-14)
(-1.89438e-37 -9.09495e-15 1.50951e-14)
(-9.19628e-38 -9.09495e-15 0)
(6.90061e-37 -9.09495e-15 0)
(-9.54357e-35 0 -8.27388e-15)
(2.26394e-29 0 0)
(4.59162e-25 0 0)
(-8.64062e-17 0 0)
(-1.51474e-13 0 6.94753e-16)
(-1.45763e-11 8.66362e-14 1.67941e-13)
(-1.39599e-09 1.18876e-11 2.09864e-11)
(-1.50212e-07 2.72828e-09 3.42285e-09)
(-2.58067e-05 -2.35765e-07 4.96156e-07)
(-19.9702 -0.323583 0.690253)
(-10715.8 -872.574 -311.106)
(-15441.4 -1962.49 -5153.7)
(-14054.9 -3396.58 -8561.21)
(-7109.07 -9539.04 -7221.76)
(10058.7 -3646.13 -6503.31)
(13229.4 -2060.41 -5355.3)
(13560.2 -1186.05 -1366.46)
(2353.27 -254.404 122.687)
(0 0 0)
(0 0 0)
(0 0 0)
(0 0 0)
(0 0 0)
(0 0 0)
(0 0 0)
(0 0 0)
(0 0 -1.68832e-14)
(0 9.09495e-15 -1.34469e-14)
(7.29657e-16 0 1.18944e-14)
(-5.42543e-14 1.76846e-15 1.89478e-16)
(-6.09533e-12 4.68642e-13 7.73702e-14)
(-6.63082e-10 5.28975e-11 1.12023e-11)
(-3.23025e-08 2.40501e-09 7.74195e-10)
(-5.72546e-06 3.09913e-07 1.01781e-07)
(-5.73618 0.532056 0.173705)
(-10256.3 2334.4 -106.014)
(-15021.9 4603.26 -4777.84)
(-14061.4 7917.14 -8533.91)
(-6663.93 14461.1 -7444.77)
(13578 9276.89 -11030.8)
(19927.4 4320.45 -6971.74)
(22789.7 118.327 -803.741)
(3339.04 -143.323 216.125)
(0 0 9.09495e-15)
(0 0 1.20462e-14)
(0 0 0)
(0 0 0)
(0 0 0)
(0 0 0)
(0 0 0)
(0 0 0)
(1.31949e-14 -1.81899e-14 -1.81899e-14)
(0 0 0)
(9.09495e-15 1.17993e-14 0)
(0 0 0)
(-3.75259e-14 3.32887e-14 1.26319e-16)
(-4.36702e-12 4.42588e-12 4.90301e-14)
(-5.99655e-10 6.0928e-10 1.39334e-11)
(-3.13863e-07 5.14956e-08 6.65204e-09)
(-0.0205406 0.00281285 0.000430205)
(-6895.4 3823.36 479.269)
(-14617.6 9978.24 -2654.8)
(-11296.6 12995.4 -3748.76)
(264.125 188.552 20.4809)
(0 0 9.09495e-15)
(0 0 0)
(0 0 0)
(0 0 0)
(0 0 0)
(0 0 0)
(0 0 0)
(0 0 0)
(-3.98353e-16 1.07764e-14 0)
(-2.41057e-13 2.17521e-13 1.89478e-15)
(-8.36186e-10 2.38414e-10 1.50226e-11)
(-2.7414e-06 1.29508e-06 7.18766e-08)
(-8.72695 5.35329 0.388425)
(-7909.62 9606.52 686.45)
(-3281.04 10236.9 -577.419)
(1.18064e-06 2.98021e-06 8.82556e-08)
(0 0 9.09495e-15)
(0 0 0)
(0 0 1.62203e-14)
(0 0 0)
(0 0 6.74931e-15)
(0 0 0)
(0 0 0)
(-0.584668 1.99975 0.0623277)
(-20.9748 322.177 23.2336)
(0.0511921 0.0680908 0.00283067)
(1.89495e-07 6.71579e-08 6.12565e-09)
(2.98526e-11 2.18632e-12 5.76416e-13)
(-7.93799e-12 9.67489e-11 2.34233e-12)
(7.22101e-12 6.82671e-11 1.52296e-12)
(0 0 9.09495e-15)
(0 0 0)
(0 2.31275e-14 2.02479e-14)
(0 1.81899e-14 0)
(0 1.81899e-14 0)
(0 1.81899e-14 0)
(0 1.81899e-14 -8.31297e-15)
(0 1.81899e-14 -8.31297e-15)
(0 0 0)
(0 0 0)
(0 0 0)
(0 0 0)
(-1.71312e-07 1.23258e-06 3.39626e-08)
(1.7941e-08 8.3387e-06 1.90817e-07)
(2.58198e-08 6.75117e-08 2.73201e-09)
(3.56073e-10 2.63876e-10 1.27605e-11)
(2.33237e-12 8.45735e-13 3.8843e-14)
(1.12956e-14 1.79688e-14 0)
(1.4274e-14 3.10192e-13 3.53692e-15)
(0 0 0)
(0 9.09495e-15 0)
(0 9.09495e-15 -8.96863e-15)
(0 9.09495e-15 0)
(0 9.09495e-15 0)
(0 9.09495e-15 0)
(0 9.09495e-15 0)
(0 0 0)
(0 0 0)
(-9.09495e-15 -8.53863e-15 0)
(0 0 -6.54197e-15)
(0 -1.54249e-14 1.20003e-14)
(0 -1.85732e-15 0)
(0 -1.52361e-14 0)
(0 0 0)
(0 1.38951e-14 0)
(0 1.81899e-14 2.88534e-14)
(-1.36863e-13 8.55809e-14 1.13687e-15)
(-8.53795e-11 2.97541e-10 6.93123e-12)
(2.32882e-12 3.15705e-09 8.47373e-11)
(1.55954e-10 5.43121e-10 1.33693e-11)
(3.67045e-12 3.91101e-12 1.02255e-13)
(4.04994e-14 3.24392e-14 3.15797e-16)
(0 0 0)
(0 5.04798e-16 0)
(0 0 0)
(0 0 0)
(0 0 0)
(0 0 0)
(0 0 0)
(0 0 0)
(0 0 0)
(0 0 0)
(0 0 0)
(0 0 0)
(0 -1.36424e-14 -9.03179e-15)
(0 0 0)
(0 9.09495e-15 0)
(0 0 0)
(0 -1.36424e-14 9.09495e-15)
(0 -9.09495e-15 0)
(0 0 -1.39754e-14)
(-3.29682e-14 4.19378e-14 1.89478e-16)
(-1.07895e-12 2.967e-12 5.27381e-14)
(2.40713e-14 4.49763e-11 8.96042e-13)
(1.21365e-12 4.32802e-12 7.55386e-14)
(2.78232e-14 3.75826e-14 3.78956e-16)
(0 0 0)
(0 0 0)
(0 0 0)
(0 0 0)
(0 0 0)
(0 0 0)
(0 0 0)
(0 0 0)
(0 0 0)
(0 0 0)
(0 0 0)
(0 0 0)
(0 0 0)
(0 0 0)
(0 0 0)
(0 0 0)
(0 0 0)
(0 0 0)
(0 0 0)
(0 0 0)
(0 0 0)
(-6.41276e-15 2.36216e-14 0)
(0 4.61569e-13 5.93698e-15)
(6.66445e-15 3.05691e-14 1.26319e-16)
(0 0 0)
(0 0 0)
(0 0 0)
(0 0 0)
(0 0 0)
(-2.5545e-58 0 0)
(2.535e-60 0 0)
(7.92464e-69 0 0)
(9.29575e-69 0 0)
(7.94443e-69 0 0)
(4.55734e-69 0 0)
(3.98303e-68 0 0)
(1.16775e-58 0 0)
(2.74623e-56 0 0)
(6.77792e-52 0 0)
(-9.60542e-57 0 0)
(-7.15061e-51 0 0)
(-1.33449e-46 0 0)
(-2.37456e-43 0 0)
(-1.50194e-40 0 0)
(-3.76645e-38 0 0)
(-4.29964e-36 0 0)
(-2.20151e-34 0 0)
(-2.56144e-33 0 0)
(1.54907e-33 0 0)
(1.44992e-33 0 0)
(6.59419e-35 0 0)
(7.89756e-37 0 0)
(0 0 0)
(0 0 0)
(-7.27521e-56 0 0)
(6.12643e-58 0 0)
(2.68859e-66 0 0)
(3.22312e-66 0 0)
(2.69543e-66 0 0)
(1.57894e-66 0 0)
(1.35092e-65 0 0)
(3.35346e-56 0 0)
(7.03958e-54 0 0)
(1.74972e-49 0 0)
(-1.29525e-53 0 0)
(-5.49004e-48 0 0)
(-7.78191e-44 0 0)
(-1.2085e-40 0 0)
(-7.12816e-38 0 0)
(-1.63864e-35 0 0)
(-1.72308e-33 0 0)
(-7.70787e-32 0 0)
(-8.12814e-31 0 0)
(4.57628e-31 0 0)
(4.91469e-31 0 0)
(2.38322e-32 0 0)
(3.16254e-34 0 0)
(0 0 0)
(0 0 0)
(-1.95957e-53 0 0)
(1.40688e-55 0 0)
(8.66475e-64 0 0)
(1.06363e-63 0 0)
(8.68261e-64 0 0)
(5.20617e-64 0 0)
(4.34973e-63 0 0)
(9.11379e-54 0 0)
(1.70672e-51 0 0)
(4.27281e-47 0 0)
(-1.58239e-50 0 0)
(-4.00632e-45 0 0)
(-4.33474e-41 0 0)
(-5.87337e-38 0 0)
(-3.20783e-35 0 0)
(-6.78972e-33 0 0)
(-6.59856e-31 0 0)
(-2.58885e-29 0 0)
(-2.54455e-28 0 0)
(1.31422e-28 0 0)
(1.63218e-28 0 0)
(8.2576e-30 0 0)
(1.22475e-31 0 0)
(0 0 0)
(0 0 0)
(-4.97659e-51 0 0)
(3.04853e-53 0 0)
(2.64614e-61 0 0)
(3.33291e-61 0 0)
(2.64818e-61 0 0)
(1.6299e-61 0 0)
(1.32591e-60 0 0)
(2.33718e-51 0 0)
(3.89816e-49 0 0)
(9.84083e-45 0 0)
(-1.73529e-47 0 0)
(-2.75574e-42 0 0)
(-2.28805e-38 0 0)
(-2.70849e-35 0 0)
(-1.35791e-32 0 0)
(-2.66193e-30 0 0)
(-2.40742e-28 0 0)
(-8.46282e-27 0 0)
(-7.98943e-26 0 0)
(3.73241e-26 0 0)
(5.39277e-26 0 0)
(2.75443e-27 0 0)
(4.60402e-29 0 0)
(0 0 0)
(0 0 0)
(-1.18757e-48 0 0)
(6.21159e-51 0 0)
(7.63487e-59 0 0)
(9.88901e-59 0 0)
(7.62226e-59 0 0)
(4.83135e-59 0 0)
(3.81365e-58 0 0)
(5.63667e-49 0 0)
(8.35599e-47 0 0)
(2.13056e-42 0 0)
(-1.69567e-44 0 0)
(-1.77335e-39 0 0)
(-1.13727e-35 0 0)
(-1.18163e-32 0 0)
(-5.37739e-30 0 0)
(-9.82001e-28 0 0)
(-8.34398e-26 0 0)
(-2.75356e-24 0 0)
(-2.53617e-23 0 0)
(1.06339e-23 0 0)
(1.78634e-23 0 0)
(8.92904e-25 0 0)
(1.6841e-26 0 0)
(0 0 0)
(0 0 0)
(-2.65236e-46 0 0)
(1.18547e-48 0 0)
(2.07395e-56 0 0)
(2.76944e-56 0 0)
(2.0626e-56 0 0)
(1.35162e-56 0 0)
(1.03106e-55 0 0)
(1.27357e-46 0 0)
(1.67365e-44 0 0)
(4.32202e-40 0 0)
(-1.47116e-41 0 0)
(-1.06204e-36 0 0)
(-5.31293e-33 0 0)
(-4.89933e-30 0 0)
(-1.99393e-27 0 0)
(-3.4015e-25 0 0)
(-2.74141e-23 0 0)
(-9.07219e-22 0 0)
(-8.02956e-21 0 0)
(3.02228e-21 0 0)
(5.86323e-21 0 0)
(2.86752e-22 0 0)
(5.97653e-24 0 0)
(0 0 0)
(0 0 0)
(-5.51925e-44 0 0)
(2.10963e-46 0 0)
(5.28118e-54 0 0)
(7.29353e-54 0 0)
(5.22429e-54 0 0)
(3.55561e-54 0 0)
(2.60867e-53 0 0)
(2.68373e-44 0 0)
(3.11612e-42 0 0)
(8.20762e-38 0 0)
(-1.14895e-38 0 0)
(-5.92027e-34 0 0)
(-2.34898e-30 0 0)
(-1.9641e-27 0 0)
(-7.02496e-25 0 0)
(-1.11442e-22 0 0)
(-8.53806e-21 0 0)
(-2.99939e-19 0 0)
(-2.44232e-18 0 0)
(8.26804e-19 0 0)
(1.84359e-18 0 0)
(9.32877e-20 0 0)
(2.03241e-21 0 0)
(0 0 0)
(0 0 0)
(-1.06435e-41 0 0)
(3.48264e-44 0 0)
(1.25376e-51 0 0)
(1.79853e-51 0 0)
(1.23217e-51 0 0)
(8.75734e-52 0 0)
(6.14473e-51 0 0)
(5.24602e-42 0 0)
(5.3601e-40 0 0)
(1.47977e-35 0 0)
(-8.52033e-36 0 0)
(-3.10852e-31 0 0)
(-1.00325e-27 0 0)
(-7.83772e-25 0 0)
(-2.43441e-22 0 0)
(-3.56956e-20 0 0)
(-2.53199e-18 0 0)
(-9.58528e-17 -1.26319e-16 0)
(-7.02566e-16 -2.20447e-14 5.68434e-16)
(2.42285e-16 -4.96126e-14 1.76846e-15)
(5.2968e-16 -8.06547e-15 6.31594e-17)
(3.04334e-17 0 0)
(6.47978e-19 0 0)
(0 0 0)
(0 0 0)
(-1.89005e-39 0 0)
(5.30164e-42 0 0)
(2.75486e-49 0 0)
(4.13134e-49 0 0)
(2.68943e-49 0 0)
(2.00906e-49 0 0)
(1.33933e-48 0 0)
(9.44909e-40 0 0)
(8.45498e-38 0 0)
(2.53989e-33 0 0)
(-6.33013e-33 0 0)
(-1.58777e-28 0 0)
(-4.27203e-25 0 0)
(-3.17982e-22 0 0)
(-8.62905e-20 0 0)
(-1.21418e-17 0 0)
(-7.21638e-16 -3.78346e-15 0)
(-2.81596e-14 -1.71565e-13 9.97918e-15)
(-1.73966e-13 -2.49678e-12 1.56256e-13)
(6.11625e-14 -5.01655e-12 4.07929e-13)
(1.32168e-13 -1.11769e-12 7.44017e-14)
(9.10784e-15 -4.60949e-14 1.64214e-15)
(1.8889e-16 0 0)
(0 0 0)
(0 0 0)
(-3.06659e-37 0 0)
(7.39107e-40 0 0)
(5.54757e-47 0 0)
(8.78427e-47 0 0)
(5.39177e-47 0 0)
(4.26615e-47 0 0)
(2.68193e-46 0 0)
(1.55479e-37 0 0)
(1.21185e-35 0 0)
(3.94371e-31 0 0)
(-4.49957e-30 0 0)
(-8.28869e-26 0 0)
(-1.85105e-22 0 0)
(-1.28657e-19 0 0)
(-3.11575e-17 0 0)
(-4.56987e-15 -1.09666e-14 1.89478e-16)
(-1.98467e-13 -6.62577e-13 4.59169e-14)
(-3.78361e-12 -2.08113e-11 1.50678e-12)
(-1.71814e-11 -2.10672e-10 1.47427e-11)
(6.10612e-12 -3.86761e-10 3.56969e-11)
(1.33772e-11 -9.5412e-11 7.05827e-12)
(1.2803e-12 -4.58727e-12 4.00298e-13)
(4.97848e-14 -1.21899e-13 7.7686e-15)
(0 -3.78765e-16 0)
(0 0 0)
(-4.50142e-35 0 0)
(9.36102e-38 0 0)
(1.00976e-44 0 0)
(1.71493e-44 0 0)
(9.83456e-45 0 0)
(8.31796e-45 0 0)
(4.89218e-44 0 0)
(2.30998e-35 0 0)
(1.56008e-33 0 0)
(5.40604e-29 0 0)
(-2.85587e-27 0 0)
(-4.54897e-23 0 0)
(-7.99743e-20 0 0)
(-4.87389e-17 0 0)
(-1.08695e-14 -1.58804e-14 5.05275e-16)
(-7.3202e-13 -1.31553e-12 1.05729e-13)
(-2.4711e-11 -6.46037e-11 5.36465e-12)
(-4.11415e-10 -2.12855e-09 1.51899e-10)
(-1.21149e-09 -1.31314e-08 1.11103e-09)
(5.30222e-10 -2.28668e-08 2.27424e-09)
(8.66112e-10 -5.79093e-09 4.85931e-10)
(1.2857e-10 -4.14797e-10 3.41943e-11)
(5.67174e-12 -1.31131e-11 1.09565e-12)
(1.2695e-13 -1.92697e-13 1.62951e-14)
(0 0 0)
(-5.90106e-33 0 0)
(1.06727e-35 0 0)
(1.62805e-42 0 0)
(3.04057e-42 0 0)
(1.61107e-42 0 0)
(1.47318e-42 0 0)
(8.0507e-42 0 0)
(3.04783e-33 0 0)
(1.77679e-31 0 0)
(6.54044e-27 0 0)
(-1.56442e-24 0 0)
(-2.52363e-20 0 0)
(-3.25147e-17 0 0)
(-1.6087e-14 -1.19751e-14 5.05275e-16)
(-1.37471e-12 -1.44483e-12 1.3314e-13)
(-7.31869e-11 -1.04881e-10 1.01434e-11)
(-2.403e-09 -4.5854e-09 4.53885e-10)
(-1.92278e-08 -6.84867e-08 5.28712e-09)
(-5.21501e-08 -3.56169e-07 2.02006e-08)
(-1.79709e-08 -1.47885e-06 9.89439e-08)
(3.02558e-08 -2.63681e-07 1.81965e-08)
(1.64253e-08 -4.30033e-08 3.92889e-09)
(8.29271e-10 -1.78513e-09 1.23303e-10)
(1.48821e-11 -1.94927e-11 1.8764e-12)
(0 0 0)
(-6.78571e-31 0 0)
(1.0843e-33 0 0)
(2.25219e-40 0 0)
(4.81739e-40 0 0)
(2.32293e-40 0 0)
(2.33311e-40 0 0)
(1.18297e-39 0 0)
(3.48321e-31 0 0)
(1.75371e-29 0 0)
(6.9572e-25 0 0)
(-7.81945e-22 0 0)
(-1.28215e-17 0 0)
(-1.16756e-14 -5.80041e-15 1.89478e-16)
(-1.41375e-12 -8.74262e-13 1.06045e-13)
(-1.07582e-10 -8.54434e-11 1.0309e-11)
(-5.48016e-09 -6.01021e-09 7.14815e-10)
(-3.90392e-08 -6.21424e-08 5.22661e-09)
(-2.47426e-06 -7.54621e-06 6.91832e-07)
(-6.43239e-05 -0.00037638 2.06208e-05)
(-0.000226497 -0.0106432 0.000668978)
(0.000145066 -0.00176249 9.70178e-05)
(4.04188e-06 -1.12051e-05 9.55386e-07)
(7.76103e-08 -1.08292e-07 1.01443e-08)
(1.99537e-09 -1.80446e-09 1.92458e-10)
(0 0 0)
(-6.66317e-29 0 0)
(9.715e-32 0 0)
(2.52231e-38 0 0)
(6.63623e-38 0 0)
(2.84542e-38 0 0)
(3.21903e-38 0 0)
(1.53982e-37 0 0)
(3.31182e-29 0 0)
(1.45582e-27 0 0)
(6.40885e-23 0 0)
(-5.19106e-19 0 0)
(-5.28557e-15 -7.57344e-16 0)
(-8.03617e-13 -2.50257e-13 4.88853e-14)
(-7.83754e-11 -3.09027e-11 5.54454e-12)
(-5.50591e-09 -2.889e-09 4.91583e-10)
(-7.33756e-08 -5.2645e-08 5.05573e-09)
(-5.12634e-05 -5.79835e-05 6.519e-06)
(-0.140733 -0.335508 0.0352391)
(-577.707 -1362.3 336.386)
(-206.321 -3481.23 810.876)
(675.095 -2293.35 515.915)
(4.36919 -11.1513 1.31945)
(3.60952e-05 -4.11286e-05 4.51834e-06)
(8.58661e-08 -5.26403e-08 9.86239e-09)
(0 0 0)
(-5.34215e-27 0 0)
(7.61068e-30 0 0)
(1.9801e-36 0 0)
(7.50782e-36 0 0)
(2.81359e-36 0 0)
(3.67056e-36 0 0)
(1.78116e-35 0 0)
(2.43291e-27 0 0)
(9.70164e-26 0 0)
(4.99661e-21 0 0)
(-5.94202e-16 0 0)
(-2.12892e-13 -2.69539e-14 8.58967e-15)
(-2.52645e-11 -3.4255e-12 1.40807e-12)
(-2.30979e-09 -3.72494e-10 1.40909e-10)
(-5.95282e-08 -1.47376e-08 3.35511e-09)
(-1.36787e-05 -5.07853e-06 1.25534e-06)
(-0.624853 -0.353785 0.0718002)
(-5098.56 -5331.47 1762.16)
(-2240.89 -4555.75 1247.89)
(-305.814 -3956.31 1005.97)
(1285.64 -4102.16 1103.94)
(4638.95 -5710.19 1692.79)
(61.9 -50.8213 11.0509)
(3.58983e-05 -1.31022e-05 2.6066e-06)
(0 0 0)
(-3.19822e-25 0 0)
(5.29655e-28 0 0)
(1.93163e-35 0 0)
(2.38697e-34 0 0)
(9.75959e-35 0 0)
(1.2098e-34 0 0)
(7.69104e-34 0 0)
(4.74102e-26 0 0)
(4.7928e-24 0 0)
(3.20323e-19 0 0)
(-2.12616e-14 -3.78754e-16 5.68434e-16)
(-2.0445e-12 -1.69898e-13 1.45014e-13)
(-1.65245e-10 -1.49559e-11 1.35642e-11)
(-1.30591e-08 -1.13682e-09 9.8818e-10)
(-5.38185e-07 -7.8809e-08 2.92591e-08)
(-0.00202425 -0.000337824 0.000110743)
(-2920.17 -1395.08 700.971)
(-3657.17 -2064.18 1020.81)
(-1648.7 -1806.27 905.984)
(-358.069 -2534.44 1239.41)
(1431.14 -2344.48 1160.15)
(2390.12 -1680.16 819.131)
(5969.27 -3096 1507.7)
(0.510808 -0.0923756 0.0385792)
(0 0 0)
(-4.65162e-24 -9.09495e-15 0)
(1.57507e-26 -9.09495e-15 -2.7373e-17)
(-3.07926e-33 -9.09495e-15 1.90265e-17)
(-1.8104e-35 -9.09495e-15 1.67717e-16)
(-9.12198e-36 -9.09495e-15 6.56969e-17)
(-4.79317e-34 -9.09495e-15 3.16666e-17)
(-8.80752e-33 0 5.14523e-17)
(-1.15884e-26 0 4.99844e-16)
(5.91411e-23 0 0)
(1.65118e-17 0 0)
(-5.00317e-14 0 1.7053e-15)
(-4.60335e-12 4.82213e-14 3.91077e-13)
(-3.6985e-10 4.78642e-12 3.38033e-11)
(-3.33241e-08 6.14548e-10 2.37634e-09)
(-5.10647e-06 -6.96131e-08 2.75018e-07)
(-0.0969829 -0.00130095 0.00728461)
(-5032.16 -422.539 1142.13)
(-2739.59 -359.672 718.105)
(-2026.54 -527.601 1086.48)
(-620.196 -864.118 1189.72)
(1755.46 -652.284 1375.67)
(2449.67 -420.12 892.434)
(5356.87 -555.588 1307.45)
(37.3882 -2.03068 5.64646)
(0 0 0)
(0 0 0)
(0 0 0)
(0 0 1.80312e-15)
(0 0 0)
(0 0 0)
(0 0 0)
(0 0 0)
(0 0 -1.63925e-14)
(0 9.09495e-15 0)
(6.75627e-16 0 0)
(-1.39978e-14 0 4.21294e-16)
(-1.57389e-12 1.30961e-13 1.1533e-13)
(-1.3319e-10 1.35412e-11 1.15767e-11)
(-5.73691e-09 6.85876e-10 4.44167e-10)
(-8.18767e-07 6.43507e-08 4.86016e-08)
(-0.0168469 0.00138461 0.000982716)
(-4017.88 1091.16 927.754)
(-3055.65 851.099 790.565)
(-2234.99 1302.49 1183.47)
(-556.311 1545.14 1293.3)
(1919.57 1583.17 1485.76)
(3056.86 1162.98 1083.56)
(7476.16 686.527 2075.7)
(10.8888 0.609685 1.63431)
(0 0 -2.77784e-16)
(0 0 1.54184e-14)
(0 0 0)
(0 0 0)
(0 0 0)
(0 0 0)
(0 0 0)
(0 0 0)
(1.31949e-14 -1.81899e-14 -1.09259e-14)
(0 0 0)
(9.09495e-15 1.17991e-14 3.52439e-18)
(0 0 0)
(-2.23975e-14 1.83589e-14 1.26319e-15)
(-2.96313e-12 3.08815e-12 2.28373e-13)
(-1.01111e-10 1.00971e-10 7.68837e-12)
(-1.14572e-08 5.6931e-09 8.57052e-10)
(-3.71649e-05 1.04218e-05 2.92396e-06)
(-127.396 70.5964 31.9793)
(-5393.26 4064.49 1619.13)
(-2291.43 2976.82 1072.52)
(0.0605455 0.0438463 0.00915004)
(0 0 3.09534e-18)
(0 0 0)
(0 0 0)
(0 0 0)
(0 0 0)
(0 0 0)
(0 0 -1.68387e-16)
(0 0 0)
(-2.04279e-16 9.00792e-15 -8.23579e-17)
(-3.74448e-14 8.21072e-14 2.43363e-15)
(-3.68261e-11 1.35547e-11 2.19939e-12)
(-8.5498e-08 4.23059e-08 1.03276e-08)
(-0.000172558 0.000127402 1.98745e-05)
(-621.247 725.88 272.42)
(-1499.78 4879.13 1364.94)
(9.68644e-09 2.77356e-08 5.68706e-09)
(0 0 -7.65922e-17)
(0 0 0)
(0 0 1.75293e-14)
(0 0 0)
(0 0 1.54184e-14)
(0 0 2.04686e-15)
(0 0 0)
(-2.91203e-05 8.59537e-05 8.46881e-06)
(-0.00984591 0.251269 0.0273972)
(4.95066e-05 7.15978e-05 9.73478e-06)
(9.50118e-09 2.66831e-09 1.03756e-09)
(1.16012e-12 8.956e-14 8.68694e-14)
(-5.5767e-15 1.34552e-13 1.23961e-14)
(3.43587e-14 4.17949e-13 1.29951e-13)
(0 0 -7.80509e-17)
(0 0 0)
(0 2.31275e-14 2.02058e-14)
(0 1.81899e-14 6.05757e-19)
(0 1.81899e-14 0)
(0 1.81899e-14 0)
(0 1.81899e-14 -1.60544e-14)
(0 1.81899e-14 -1.60544e-14)
(0 0 0)
(0 0 0)
(0 0 0)
(0 0 0)
(-4.51639e-09 2.98128e-08 2.40912e-09)
(2.10133e-09 1.90052e-07 1.88808e-08)
(1.51456e-09 3.57456e-09 4.4407e-10)
(1.76282e-11 1.2466e-11 2.51729e-12)
(1.15589e-13 4.90117e-14 1.88625e-14)
(-1.04e-18 9.09495e-15 6.30014e-18)
(0 2.01976e-15 8.21072e-16)
(0 0 0)
(0 9.09495e-15 -5.54589e-17)
(0 9.09495e-15 -6.29116e-19)
(0 9.09495e-15 0)
(0 9.09495e-15 0)
(0 9.09495e-15 0)
(0 9.09495e-15 0)
(0 0 0)
(0 0 0)
(-9.09495e-15 -8.53863e-15 2.6936e-16)
(0 0 -1.33898e-14)
(0 -1.54272e-14 1.38904e-14)
(0 -4.70137e-15 0)
(0 -1.44782e-14 0)
(0 0 0)
(0 9.92176e-15 0)
(0 1.81899e-14 2.65021e-14)
(-1.19686e-14 2.03373e-14 1.3996e-15)
(-2.26755e-11 3.81804e-11 4.51677e-12)
(6.4011e-12 1.45818e-09 1.06468e-10)
(1.96195e-11 3.90656e-11 6.35352e-12)
(2.54419e-13 2.2765e-13 5.36855e-14)
(1.38672e-15 3.78765e-16 0)
(0 0 0)
(0 0 0)
(0 0 0)
(0 0 0)
(0 0 0)
(0 0 0)
(0 0 0)
(0 0 0)
(0 0 0)
(0 0 0)
(0 0 0)
(0 0 0)
(0 -1.36424e-14 0)
(0 0 -3.91069e-17)
(0 9.09495e-15 -3.80923e-17)
(0 0 0)
(0 -1.36424e-14 0)
(0 -9.09495e-15 0)
(0 0 -3.90912e-24)
(-2.83335e-15 3.8843e-15 2.20625e-16)
(-1.83346e-13 3.87673e-13 4.49695e-14)
(1.87378e-14 1.09854e-11 9.38801e-13)
(1.60986e-13 3.50645e-13 5.48855e-14)
(8.82943e-16 1.26214e-15 0)
(0 0 0)
(0 0 0)
(0 0 0)
(0 0 0)
(0 0 0)
(0 0 0)
(0 0 0)
(0 0 0)
(0 0 0)
(0 0 0)
(0 0 0)
(0 0 0)
(0 0 0)
(0 0 0)
(0 0 0)
(0 0 0)
(0 0 0)
(0 0 0)
(0 0 0)
(0 0 0)
(0 0 0)
(-3.78765e-16 1.76846e-15 0)
(0 7.60439e-14 5.11591e-15)
(1.26319e-16 1.26319e-15 0)
(0 0 0)
(0 0 0)
(0 0 0)
(0 0 0)
(0 0 0)
(-1.9216e-56 0 0)
(1.86877e-58 0 0)
(8.30467e-67 0 0)
(8.89515e-67 0 0)
(8.30039e-67 0 0)
(4.35747e-67 0 0)
(4.17474e-66 0 0)
(8.46842e-57 0 0)
(2.21252e-54 0 0)
(-6.3845e-52 0 0)
(0 0 0)
(-4.46277e-55 0 0)
(-1.26007e-49 0 0)
(-9.28472e-46 0 0)
(-7.73656e-43 0 0)
(-3.3882e-40 0 0)
(-4.49125e-38 0 0)
(-2.23779e-36 0 0)
(-3.46675e-35 0 0)
(1.92714e-35 0 0)
(2.13659e-35 0 0)
(7.87139e-37 0 0)
(7.79121e-39 0 0)
(0 0 0)
(0 0 0)
(-5.45739e-54 0 0)
(4.54378e-56 0 0)
(2.85193e-64 0 0)
(3.10546e-64 0 0)
(2.84817e-64 0 0)
(1.51997e-64 0 0)
(1.43255e-63 0 0)
(2.42096e-54 0 0)
(5.45909e-52 0 0)
(-1.64478e-49 0 0)
(0 0 0)
(-5.09404e-52 0 0)
(-8.5866e-47 0 0)
(-5.21027e-43 0 0)
(-3.91894e-40 0 0)
(-1.59641e-37 0 0)
(-1.94129e-35 0 0)
(-8.99547e-34 0 0)
(-1.28034e-32 0 0)
(6.55857e-33 0 0)
(8.3447e-33 0 0)
(3.15783e-34 0 0)
(3.54138e-36 0 0)
(0 0 0)
(0 0 0)
(-1.46602e-51 0 0)
(1.05042e-53 0 0)
(9.31519e-62 0 0)
(1.03272e-61 0 0)
(9.2896e-62 0 0)
(5.04996e-62 0 0)
(4.67227e-61 0 0)
(6.55044e-52 0 0)
(1.28071e-49 0 0)
(-4.00823e-47 0 0)
(0 0 0)
(-5.3698e-49 0 0)
(-5.58312e-44 0 0)
(-2.77274e-40 0 0)
(-1.89818e-37 0 0)
(-7.10395e-35 0 0)
(-8.03577e-33 0 0)
(-3.52249e-31 0 0)
(-4.65961e-30 0 0)
(2.18036e-30 0 0)
(3.19485e-30 0 0)
(1.23198e-31 0 0)
(1.56596e-33 0 0)
(0 0 0)
(0 0 0)
(-3.71403e-49 0 0)
(2.29288e-51 0 0)
(2.88714e-59 0 0)
(3.26416e-59 0 0)
(2.87254e-59 0 0)
(1.59455e-59 0 0)
(1.4446e-58 0 0)
(1.67271e-49 0 0)
(2.837e-47 0 0)
(-9.21224e-45 0 0)
(0 0 0)
(-5.2191e-46 0 0)
(-3.4686e-41 0 0)
(-1.40012e-37 0 0)
(-8.81554e-35 0 0)
(-2.97803e-32 0 0)
(-3.17782e-30 0 0)
(-1.34098e-28 0 0)
(-1.65587e-27 0 0)
(7.012e-28 0 0)
(1.1897e-27 0 0)
(4.70119e-29 0 0)
(6.69501e-31 0 0)
(0 0 0)
(0 0 0)
(-8.84418e-47 0 0)
(4.70953e-49 0 0)
(8.46677e-57 0 0)
(9.78024e-57 0 0)
(8.39473e-57 0 0)
(4.77236e-57 0 0)
(4.22071e-56 0 0)
(4.01846e-47 0 0)
(5.91224e-45 0 0)
(-1.99024e-42 0 0)
(0 0 0)
(-4.68569e-43 0 0)
(-2.07211e-38 0 0)
(-6.7418e-35 0 0)
(-3.95794e-32 0 0)
(-1.17905e-29 0 0)
(-1.20007e-27 0 0)
(-4.93145e-26 0 0)
(-5.65964e-25 0 0)
(2.14072e-25 0 0)
(4.24516e-25 0 0)
(1.75943e-26 0 0)
(2.74031e-28 0 0)
(0 0 0)
(0 0 0)
(-1.97222e-44 0 0)
(9.06671e-47 0 0)
(2.34137e-54 0 0)
(2.76967e-54 0 0)
(2.31017e-54 0 0)
(1.34983e-54 0 0)
(1.16101e-53 0 0)
(9.04953e-45 0 0)
(1.15422e-42 0 0)
(-4.02704e-40 0 0)
(0 0 0)
(-3.91947e-40 0 0)
(-1.2033e-35 0 0)
(-3.12543e-32 0 0)
(-1.73848e-29 0 0)
(-4.45622e-27 0 0)
(-4.35071e-25 0 0)
(-1.73308e-23 0 0)
(-1.82744e-22 0 0)
(6.01921e-23 0 0)
(1.42377e-22 0 0)
(6.42493e-24 0 0)
(1.06075e-25 0 0)
(0 0 0)
(0 0 0)
(-4.10099e-42 0 0)
(1.62867e-44 0 0)
(6.08064e-52 0 0)
(7.38827e-52 0 0)
(5.96141e-52 0 0)
(3.59584e-52 0 0)
(2.99385e-51 0 0)
(1.90249e-42 0 0)
(2.10056e-40 0 0)
(-7.60213e-38 0 0)
(0 0 0)
(-3.11406e-37 0 0)
(-6.86836e-33 0 0)
(-1.41115e-29 0 0)
(-7.5324e-27 0 0)
(-1.64017e-24 0 0)
(-1.53987e-22 0 0)
(-5.74169e-21 0 0)
(-5.48091e-20 0 0)
(1.50445e-20 0 0)
(4.39846e-20 0 0)
(2.25438e-21 0 0)
(3.8368e-23 0 0)
(0 0 0)
(0 0 0)
(-7.91287e-40 0 0)
(2.71545e-42 0 0)
(1.47556e-49 0 0)