/*--------------------------------*- C++ -*----------------------------------*\
  =========                 |
  \\      /  F ield         | OpenFOAM: The Open Source CFD Toolbox
   \\    /   O peration     | Website:  https://openfoam.org
    \\  /    A nd           | Version:  9
     \\/     M anipulation  |
\*---------------------------------------------------------------------------*/
FoamFile
{
    format      ascii;
    class       surfaceScalarField;
    location    "0.0029";
    object      phi;
}
// * * * * * * * * * * * * * * * * * * * * * * * * * * * * * * * * * * * * * //

dimensions      [0 3 -1 0 0 0 0];

internalField   nonuniform List<scalar> 
61898
(
-1.33329
-1.59104
-0.813006
1.474
0.92475
2.32174
0.656862
-1.83093
-0.53998
-1.84896
-2.44771
-1.13019
-2.26579
2.4677
1.24667
0.738803
-0.607723
-2.09204
2.56993
-1.16802
-0.574817
-0.277811
0.155665
0.233331
0.184639
-1.3998
-2.53589
1.50987
-0.443619
1.26617
0.500394
-1.43092
-0.422333
1.36102
-1.23208
0.512803
-1.52913
-0.295222
1.78571
-1.65622
0.391268
-1.39342
-0.251362
1.33396
0.334316
-1.2192
-0.361219
-1.10155
1.17404
0.438997
1.2598
-1.01474
-0.214009
-1.07302
1.14056
0.285183
1.22598
-0.99395
0.548692
-1.57776
-0.452775
1.49615
-1.34965
1.86452
-0.177042
-1.3569
-1.34033
1.60598
0.261877
1.48587
1.31909
-1.37369
-0.0776092
-1.21514
-1.75832
-2.69376
0.118008
2.79032
1.90562
0.0031483
-0.0151409
-0.059167
-0.000400428
0.00623491
0.00535394
0.0644177
1.00994
1.04094
0.00353214
-0.845241
-0.904481
-1.34989
1.5967
-1.33143
-0.083508
1.47533
-1.50853
1.75653
-1.63088
-0.0929724
-1.51119
-1.63606
1.75953
-0.107058
0.200382
-1.3793
1.32058
-0.0901024
0.169545
-1.21821
-1.06447
1.12645
-0.0762427
0.143812
1.21496
-0.989475
-1.35261
-1.33666
1.59964
-0.0937622
1.48048
-1.27399
-1.50125
-0.607451
1.41024
0.707301
-0.708001
-1.26044
1.31601
-1.15577
1.42218
0.81236
-0.521444
-1.16824
1.23751
0.610888
-1.07391
1.33003
-2.08834
-1.0561
-2.07395
1.21016
2.37969
-1.86654
-1.88638
0.780274
-1.70777
-0.872588
1.64349
-1.47574
2.06063
0.99455
1.89616
-1.6024
0.64996
1.52255
-1.37203
1.02263
1.05836
-0.860844
-0.922942
0.0717058
1.19186
0.003698
1.25693
-1.05666
1.20774
1.27181
-1.07332
-0.0685825
1.12278
1.20908
-0.986544
1.10942
0.00431412
1.19272
-0.973282
0.0754999
0.0043668
1.33862
1.33558
1.35394
1.0279
-0.0698471
0.131648
-0.861614
-0.929336
-1.21306
-0.0845883
0.160256
1.359
-0.0789038
0.1495
1.27474
-1.07898
1.01093
1.04342
-0.846602
-0.907258
1.1941
1.2577
-1.05912
1.11011
1.19483
-0.974678
1.34065
1.33641
-1.06586
1.1297
1.21697
-0.989283
0.196336
1.03098
-0.862388
-0.930684
1.04231
0.262163
-0.869484
-0.936098
-1.21508
0.237808
1.36244
0.222016
1.27815
-1.07997
1.22297
0.295731
1.28898
-1.08627
0.316627
1.37208
1.36796
-1.08254
1.15309
1.23777
-0.999504
-0.333199
1.07776
0.4057
-0.89583
-0.958677
1.05542
-0.877499
-0.943294
-0.374676
1.2511
0.455594
1.32143
-1.10956
1.23281
1.30123
-1.09401
0.400334
1.38411
1.38039
0.486152
1.40474
1.39973
-1.13095
1.20326
-1.04047
1.2914
-0.482361
1.14751
0.565882
-0.964998
-1.01927
1.10964
-0.926241
-0.984673
0.541054
1.27743
1.34895
-1.13327
1.30979
0.632965
1.38101
-1.16355
0.57675
1.43242
1.42561
0.673446
1.46541
1.45549
1.22459
-0.0830919
0.156604
-1.10874
-1.51615
-0.0977618
0.184216
-0.0909659
0.171965
1.43118
-1.3601
1.30397
-0.00606484
-1.20305
1.20818
-0.00517602
-1.09407
1.49814
-0.0052812
1.41459
-0.00625073
1.49433
-0.232472
1.23853
0.309285
-1.11109
-1.38265
1.32439
-1.21696
1.22817
-1.10813
-0.27256
-1.53278
0.361983
-1.52135
1.51765
0.254856
1.43633
0.338906
1.4478
-1.51116
-0.0845573
1.2225
-0.0729689
-1.1055
-0.0797473
1.42867
-1.3583
1.30353
-1.20221
1.20769
-1.09285
1.49619
1.41374
1.49333
-2.14331
-1.96484
-0.113156
2.59507
-1.80023
-1.41594
-0.0982772
2.16459
1.57162
1.57803
-1.75793
-2.46355
-0.0793326
0.185128
1.57033
-0.0898272
-2.46123
-1.75979
0.243808
-2.14615
-1.97028
-0.128988
2.59543
-1.78443
-1.40558
-0.00442853
0.107253
2.14425
1.56081
-1.77518
-2.70812
-0.124963
2.79839
1.91905
0.244402
1.44146
-1.52904
-0.0883057
-1.30396
-0.0926831
1.59383
1.88171
-0.0795717
-1.19728
-1.51382
1.42682
0.00435521
-1.28935
1.78365
1.31635
0.00403495
-1.18173
1.58209
0.00485764
1.46036
0.00537042
1.57903
1.8651
1.53195
-0.0881304
0.166911
-1.20254
-1.44677
-0.103557
0.194133
1.59906
1.88435
-0.0973353
0.183638
-1.30935
1.80287
-1.51466
1.4299
-1.29251
1.31894
-1.18442
1.58299
1.46287
1.58203
1.86583
0.433243
0.908513
-2.24657
-0.401032
-1.54964
1.48094
-2.43399
-1.7361
0.271242
-2.16924
0.360479
-1.98763
2.59652
-1.81126
-1.42915
-0.20182
0.297396
2.18529
1.58679
-1.79169
-2.72133
-0.36387
2.78581
1.92581
0.484404
-1.84127
-1.45578
-0.394311
0.496908
2.25315
1.61997
-1.81366
-2.72155
2.747
-0.604952
1.93014
0.72428
1.53673
0.24727
-1.20483
-1.45288
0.285916
1.60724
1.8953
0.27125
-1.31381
-1.54774
1.46377
0.359658
-1.32266
1.82527
1.34881
0.32868
-1.2118
1.61773
0.34785
1.49625
0.37896
1.62054
1.91187
-1.21185
1.27537
-1.11279
1.37416
-0.657461
1.23429
-1.05911
-1.10777
0.757312
1.18934
-1.00955
-1.06082
-0.731705
1.388
1.45458
-1.24029
0.836868
1.34681
1.41637
-1.19955
0.776286
1.5025
1.48865
1.54365
1.52582
0.884954
-0.390945
1.2686
-1.127
0.474864
-1.40722
1.34405
-1.22163
1.24972
-1.11478
-0.456013
-1.56836
0.552429
1.55966
-1.54652
1.54137
0.427627
1.45956
0.51862
1.47813
-0.414962
1.37701
0.503287
-1.23639
-1.55942
1.47661
-1.33338
1.35956
-1.22097
0.438397
1.63088
1.50878
-1.65045
-0.47712
0.579214
1.66055
1.96014
0.531222
1.52849
1.63674
1.93205
0.115319
1.68834
0.415075
0.166096
-2.45789
1.76672
-0.661608
0.0362134
-2.26333
0.921507
-1.3662
1.21244
-1.00174
-0.0770078
1.21666
-1.132
-0.624799
0.969137
-0.0555667
0.802079
-0.112121
-0.0688104
1.41681
0.133954
0.324181
-1.7747
-0.080267
-0.497894
1.76182
0.170702
-2.02696
0.802519
-1.22006
-1.2156
-0.0839628
0.156782
1.40905
-0.0614725
-0.817046
0.886632
0.115263
-0.749037
0.261791
1.72863
0.391921
-2.45431
0.0603833
0.322136
0.982089
-0.119832
1.42845
-0.0232686
0.133167
0.285518
-2.00285
0.258673
0.0345977
0.940387
-0.0612944
1.57229
0.0956916
0.250946
-2.02711
-0.0180952
0.0115709
0.485904
1.11179
0.543347
1.41605
-0.0675136
0.325328
-1.81053
-0.0906043
1.57232
0.20671
0.142607
-1.88427
-0.0549825
0.259937
0.948657
0.106896
-0.0632991
0.242136
0.942178
-0.0461271
1.57417
0.206665
-1.89853
0.0629857
0.471297
1.11616
0.491692
1.12434
0.124156
-0.778905
-0.0589468
1.02565
1.74747
0.131402
-2.38231
-0.0177699
1.25992
-0.53382
1.74978
0.0288284
-2.03913
0.821342
1.67746
0.0640261
-2.03694
0.732788
-0.00456193
1.25319
-0.00251044
1.36446
0.990984
0.82825
-0.03033
-0.473236
0.881769
-0.0574023
-0.744183
-0.0635948
1.03921
-0.804754
0.861784
0.00327466
-0.723359
0.595626
-0.000893744
-0.445863
0.952809
0.000855315
0.775575
0.00434038
1.02041
-0.493676
1.75408
-2.01843
0.790305
-0.0783521
1.68401
0.15634
-1.9737
1.68481
-1.96857
0.722441
0.072003
1.25824
-0.0808714
-0.744501
0.155351
1.37992
1.00857
1.36875
0.986449
0.140662
1.26732
-0.804543
0.863855
-0.725551
-0.0536809
0.617999
0.102371
-0.468958
0.593608
-0.444019
0.0624151
0.953381
0.774452
-0.966478
-0.0688951
0.128936
1.04448
0.11813
0.798447
1.02234
-0.612888
-0.899
1.46429
-1.65478
0.681206
1.14715
0.190853
-0.0592293
1.39004
0.308555
-1.73734
-0.222507
0.511209
-0.236263
1.6169
0.307473
-1.90172
-1.27539
-0.393405
-1.20643
0.477734
1.46713
-0.565315
-0.404629
1.58294
0.459203
-1.83435
0.857291
-1.23469
-0.233358
-1.20783
0.311017
1.42556
-0.271715
0.0249194
1.21083
0.289353
0.209354
-1.5129
-0.901637
0.833067
-0.257566
0.688528
0.309912
-0.533346
-0.819261
-0.17302
0.897391
0.231842
-0.758032
1.00223
-0.409572
-1.1612
0.702115
-0.520311
0.478279
-1.22167
-1.11601
1.30702
1.19217
-0.635431
0.730826
-0.49653
0.984082
0.936207
-0.770172
0.579919
-1.35746
-0.566152
-1.23457
0.659944
1.5461
-0.442898
0.506794
-1.53462
-0.877138
1.29125
1.12283
-0.316906
-1.14642
0.514782
0.356823
0.929987
-0.330024
-0.469336
-1.00763
-1.01832
0.549752
1.17666
-0.049754
1.34166
0.240567
0.294866
-1.68037
0.214374
1.54814
0.214387
-1.8579
0.15868
0.274925
0.941475
-0.0835401
1.50183
0.274982
-1.80775
0.290245
0.207872
0.928582
-0.100646
0.184328
0.50244
1.11541
0.243219
0.515923
1.09731
-0.0268638
1.27438
0.266882
-1.59959
-0.322113
1.37205
0.355252
0.285366
-1.64954
-0.249788
0.362193
0.284034
-0.176379
1.4363
0.239982
-1.7327
0.31596
0.909822
-0.128632
0.295918
0.537743
1.07352
0.34099
0.579707
1.05893
-1.16733
0.430865
0.909308
-0.24553
0.208773
-0.29819
0.309703
0.0136811
-1.39995
-0.377436
1.29373
0.402092
0.453025
-1.53196
0.107197
0.121645
-1.44303
1.32379
0.360416
-1.58009
0.384278
0.644252
1.05825
0.433672
0.723301
1.06938
-0.256586
1.7013
0.336888
-1.97034
0.811604
0.504481
1.66276
-1.94742
1.747
-2.01541
0.806863
-0.751525
0.231552
1.36887
1.01311
0.208624
1.2574
0.763045
0.276156
1.23546
0.307126
1.34627
1.02257
-0.153164
0.638848
0.204644
-0.490236
-0.816745
0.889732
-0.752869
0.626502
-0.479814
-0.964483
0.192761
1.04732
0.175981
0.804924
0.9637
0.234629
0.818216
0.257494
1.05717
-0.366699
1.49434
0.411338
-1.75609
0.526039
1.55616
-1.83501
1.64119
-1.90522
0.824809
0.780985
0.338518
1.21018
-0.377987
-0.818406
1.30122
1.07045
1.32072
1.03746
0.393926
1.19189
-0.294841
0.929427
0.358458
-0.782543
-0.820903
0.907731
-0.76529
0.656592
-0.505587
0.294991
0.962243
0.836243
-0.970399
-0.326193
0.395786
1.0946
0.354828
0.869282
1.06984
-1.1448
0.606886
0.961261
-0.423268
-0.3368
0.436142
-0.229681
-1.37063
0.382754
0.320087
-0.105475
-1.37559
0.438719
1.28023
0.554217
-1.50058
1.28232
0.660533
-1.4849
0.491332
0.49458
0.810238
1.08989
0.90104
1.11888
0.569447
-1.49861
-0.949556
0.575136
1.28996
1.18764
-0.506929
-0.713256
0.555952
-1.71965
0.983864
-0.631179
-1.7703
0.913046
-0.446273
1.4101
0.483386
-1.63813
1.44447
-1.68808
0.447601
1.18552
0.506492
1.18937
-0.963701
-0.98997
1.13122
-0.425288
-0.893643
0.498667
-0.853742
-0.858507
-0.812875
-0.364387
0.796432
0.425382
-0.634333
0.736447
-0.577411
0.417317
0.918129
0.486487
0.977981
-1.21445
-0.0726571
1.40371
1.09759
-0.0721977
-0.0683169
0.97792
1.08517
0.00327308
-1.20053
-1.1971
0.00668165
1.38691
0.00615878
1.19554
0.00555036
-1.09937
-0.0764568
0.142818
-1.00157
-0.079611
0.148768
1.21934
-0.0712886
0.133781
0.978253
1.08625
-1.20159
-1.1988
1.38839
1.19686
-0.212799
-1.09325
0.283775
-1.2234
-1.21162
1.41335
-1.09645
-1.00668
0.221393
1.22389
0.198553
-1.01992
0.294821
1.23652
0.264436
-0.803554
1.47566
-1.6819
1.06251
-0.530122
1.38301
-1.57946
0.59042
1.38947
-1.60238
-1.11376
-0.65207
1.30993
0.739126
1.3367
-0.57552
0.656557
-1.02949
1.29693
1.25958
1.20131
0.935725
0.864283
-0.699754
0.580897
1.05928
-0.902922
1.1161
-0.957669
0.673119
1.0922
-0.565428
0.655384
-0.638809
1.28537
0.737007
-1.05275
1.22869
1.04496
-0.359041
-1.09473
0.435683
-1.24903
-1.20344
1.44066
-1.08996
0.371112
-1.03727
1.25297
-1.06983
0.447511
1.28413
0.332806
0.400977
-0.516701
-1.13223
0.604339
1.17755
-1.31232
-1.21757
1.25028
1.50315
-1.11006
1.14925
0.526905
-1.1173
1.32904
-1.17502
0.612033
1.38292
0.471992
0.549353
-0.704328
1.28167
0.803948
1.50649
1.25657
-1.23894
1.44245
1.46279
-0.699479
1.24827
0.802024
-0.759715
0.865596
1.64619
-1.40806
1.30209
1.59405
-1.15962
1.21064
-0.563687
1.32566
0.658848
1.46313
1.29508
1.3836
-1.59642
0.653181
1.58395
0.61422
1.50275
1.62921
0.715396
1.53152
0.759193
1.61368
-2.14812
0.872554
2.54853
0.158572
0.196325
-1.167
-0.718086
-0.303548
0.630238
-2.11596
-1.42698
0.432283
-1.98735
-1.58543
-0.839707
0.969432
2.52696
1.78221
-0.950877
-1.82482
-2.65715
1.0536
2.61711
1.89475
-1.50595
-0.604603
0.718837
2.374
1.6818
-1.82604
-2.69154
2.67256
-0.840458
1.91569
0.595842
1.40097
-1.25844
-1.63218
1.55562
0.757986
-1.4
1.93598
1.43032
0.694192
-1.2857
-1.67675
0.687073
1.69243
2.0006
0.62887
1.55464
1.70834
0.732651
1.58639
0.801141
1.73157
2.05819
-0.760425
1.39561
0.868243
-1.54425
1.44011
1.35898
0.822162
1.66707
1.56454
-1.71071
-0.871522
1.69496
0.991681
1.60344
0.935118
1.6498
-1.76645
-0.10267
1.6711
-0.0878901
-0.0970754
1.98362
1.61577
1.65576
0.00591261
-1.74053
-1.751
0.00764251
2.12204
0.00695064
0.00643378
1.96583
1.67403
-0.100107
0.188231
-1.77165
-0.117658
0.219213
-0.109932
0.205536
1.98621
1.61828
1.65667
-1.74158
-1.7539
2.12291
1.96656
-1.6436
1.76997
1.68209
0.277811
0.322525
-1.78276
-1.79918
0.428297
2.20336
0.302608
2.00111
1.69566
0.368485
0.401574
2.02442
-0.798993
1.50436
-1.35477
0.910306
-1.66741
1.59578
-1.43461
1.46477
-1.31794
0.842606
1.74584
1.62413
-1.79214
-0.922574
1.83554
2.23756
1.05344
1.66803
0.958813
1.77843
2.13674
-0.492379
-1.69328
0.596902
1.80422
-1.67121
-1.82014
2.24785
0.463893
1.71034
-1.73204
-0.50618
0.615114
2.10131
0.562285
2.05582
0.362187
-0.0877155
-2.43332
0.135989
-0.351702
0.687122
-0.237748
-2.82369
-0.0674984
0.289379
1.3721
-0.314999
0.195146
-2.52639
-0.148579
0.338579
0.78303
-3.0122
-0.729651
-0.730065
3.02679
0.838726
0.838391
-2.89119
-0.194688
-0.297057
0.298201
3.18471
0.400656
0.0473775
-2.96211
-0.0787501
1.71559
-2.99335
-0.113964
-1.13073
2.97662
1.23997
-2.30936
-1.14404
-0.675837
0.853598
0.933107
0.637001
-2.84552
1.20013
-1.1356
-0.936255
2.5668
1.0121
-2.92617
-1.25413
1.34064
-0.540607
2.78393
0.643802
-0.0778728
-2.20969
0.120489
0.352914
0.52447
-2.81158
1.50596
2.44019
-0.0989723
-1.48684
-0.113486
0.236919
-2.85574
0.174822
-0.17862
1.4574
0.209919
-0.278449
-2.6511
-0.159373
1.01363
0.607606
-2.94196
-0.504028
0.301183
3.15122
-0.197313
-2.92251
-0.498917
0.0923216
3.15941
0.60145
0.336084
0.0421757
-2.75679
-0.294888
1.24387
-0.118821
0.0480031
0.182884
-2.93629
1.66253
-0.192075
-2.81258
0.294328
0.0894859
3.20239
-0.178586
-2.8825
-0.0716384
1.5117
-2.80065
-0.118713
0.089245
3.21417
-0.0140337
-2.81643
-0.19204
0.117782
0.293015
3.20305
-2.81195
0.0898904
0.294045
3.20219
-0.191752
0.24065
-0.0474241
-2.88431
-0.181105
1.52619
-0.0492639
0.0486884
-2.96353
1.73244
-2.78517
-0.0892065
0.0885827
3.21107
-2.99753
0.306706
-0.711038
3.11031
-0.201168
0.815855
-3.01734
-0.718535
-0.516987
3.07722
0.622975
0.825076
0.226127
0.293588
-0.208469
-2.0827
-0.296075
0.45303
-2.92962
-0.401738
0.505094
-0.300202
3.15854
0.40366
-0.109298
-2.79373
0.168378
0.286752
1.31864
0.300107
-0.266649
-2.56817
0.251002
0.855641
-2.98669
-0.509348
-0.509811
3.10449
0.613613
0.614047
0.368379
-0.356975
-2.47588
-0.0502434
0.721951
-0.0113133
-2.97985
0.11698
-0.70102
3.10681
0.805195
-2.9343
-0.117819
-0.495437
3.1597
0.597838
0.372258
-0.035022
-2.48145
-0.360178
0.731303
-2.97867
0.0949097
-0.704459
3.10606
0.808729
-2.92965
0.19779
-0.0928098
-0.500299
3.15785
0.603289
-0.0455823
-2.82519
0.292106
1.3855
-2.97046
0.711446
0.303518
3.12066
-0.198565
-2.97927
-0.704779
0.0943944
3.10651
0.809088
0.0386501
-2.64782
0.364048
1.0024
0.127958
-0.333047
-1.83886
-0.101205
0.293758
0.337188
-3.02386
-0.31227
-0.924595
3.05551
0.419771
1.03437
-0.370175
0.0247222
-2.02527
0.33909
0.419952
-3.01709
-0.91439
0.0968605
3.07026
1.02188
-0.635376
-2.99083
0.743592
-0.941069
2.97599
1.05059
0.112607
-1.03549
-0.176854
-0.134486
0.132422
0.137817
0.255384
-1.89552
-0.26548
0.227179
0.361267
-2.43049
0.231864
0.320218
0.686863
-3.01732
-0.516499
-0.718928
3.07718
0.622508
0.825408
-0.305013
-1.69982
0.142932
0.261246
0.28783
-3.00598
-0.527229
-0.934169
3.00955
1.04445
-3.02622
-0.205123
-0.921923
0.312783
3.06821
1.03087
1.04431
-3.00601
-0.933919
-0.527721
3.00961
0.635853
0.188306
-0.179068
-1.83245
0.268479
0.335363
-0.0374918
0.181211
-0.256535
-1.21611
0.0556388
0.166472
-2.99047
-0.211329
-1.14173
0.32121
2.96804
1.25052
-2.98079
1.15275
-0.534169
2.95424
0.642285
0.0629123
0.103059
-0.162202
-0.0683762
-0.716345
0.096811
0.610588
-0.155682
-0.538967
0.233367
1.49489
-1.16129
-0.309195
-0.0719331
0.387006
1.27124
-0.90088
-0.463989
0.307674
-0.232474
0.534914
1.45429
-1.11206
0.615583
-0.460375
-0.53491
0.540553
1.64381
-1.3321
-0.16036
0.314278
-0.238132
0.236368
1.24998
-0.874997
-0.071634
-0.232813
1.20986
-0.830921
-0.600969
-0.0779029
0.675184
1.53871
-1.2192
-0.793974
-1.8902
0.915797
-1.41848
2.36569
-0.46454
0.54681
0.699434
1.69947
-1.39319
-0.191763
-1.29059
0.283085
2.06558
-1.7396
-0.156004
0.234135
0.686605
1.56385
-1.24307
-0.101395
-1.2845
2.05278
-1.73238
1.42139
-0.193234
0.383043
-2.1196
0.287779
-0.28973
2.89119
0.308435
-0.391508
-0.233892
1.39228
-1.03852
0.379808
0.570392
-0.474068
-2.22504
-0.284484
2.95428
0.563161
0.0928893
-2.16883
-0.472944
0.461681
0.0842027
-0.387383
1.31655
-0.95211
-0.157754
0.0885356
0.233205
1.14275
-0.758252
-0.191805
0.0942177
0.288779
-2.05222
-1.60927
-0.281885
2.09666
-0.0955943
0.369489
0.311222
-0.0873917
-0.236021
1.21844
-0.843853
0.382297
-0.0950273
-2.09664
-0.288527
2.87189
0.0813354
-0.0726271
1.09171
-0.686111
-1.53112
0.189652
-0.0957472
2.03886
-0.0954634
0.0842419
-0.0863223
1.10699
-0.718306
0.0927077
-0.0933217
-2.03
-0.531936
-0.0767746
1.46812
-1.13458
-1.71206
-0.450462
2.18361
-0.096027
0.530162
-1.82486
-0.613367
2.30079
-0.0984118
0.700785
0.607443
-0.0792405
-0.535933
1.47391
-1.1396
0.194361
-0.0950431
-2.3003
-0.662267
0.766687
2.98795
0.160984
-0.086651
0.389287
1.27766
-0.908803
0.191484
-0.0936836
-2.13753
0.473277
2.90308
0.609456
-0.38308
-0.53123
1.59583
-1.27877
0.773279
-2.32454
-0.667942
0.292408
0.598394
-2.44823
-0.492714
-0.684976
0.794881
0.237321
0.393161
1.30377
-0.935315
-2.15876
0.285581
0.475009
2.91549
0.458786
-0.386858
0.38253
1.43141
-1.08472
0.574473
-0.474821
-2.25876
0.478274
2.96894
0.384539
-2.28156
-0.28704
0.671721
2.98051
0.0929984
-2.21869
0.658125
2.95034
0.0801025
0.531132
1.38221
-1.02916
-0.890558
-2.53874
-0.304165
0.407659
1.01055
0.310402
-0.685843
-0.235886
1.65617
-1.34738
0.769573
-0.870439
0.0992891
-2.46063
0.988312
-0.673875
0.0800808
1.59419
-1.28336
0.754144
-2.51633
-0.69533
0.708759
0.808122
3.01888
0.641223
-0.708296
-0.554386
1.79234
-1.49262
0.798505
-2.10771
-0.560813
0.663646
2.73297
-0.830918
0.941631
0.381948
0.531674
1.49062
-1.15519
-2.31909
0.484718
0.677796
2.99177
-2.03146
-0.368513
0.462309
2.5817
-0.811787
0.915879
-0.687226
0.388141
1.68324
-1.37684
0.772387
-0.114507
-1.11637
-2.73856
1.25061
-0.844967
-0.0820845
1.75195
0.939559
-1.45878
3.0238
-0.111261
-0.871299
-2.48084
0.989802
-0.0789408
0.683172
1.54467
-1.22397
3.01645
0.00642111
0.0996808
-0.870175
-2.45968
0.987946
0.163644
0.946627
-0.0838015
-0.852616
1.75623
-1.463
2.98909
0.00487196
-1.11383
0.10579
-2.72161
1.24797
-0.384777
0.691777
1.65685
-1.34707
-2.40812
0.297845
0.884248
-0.198371
3.01859
1.03541
-0.911401
-0.515272
-2.63453
0.626818
0.950192
-0.856311
0.243766
1.76871
-1.47297
-0.214324
-1.1306
0.322452
-2.75336
1.26745
0.49166
0.969357
-0.870442
-0.405034
1.83156
-1.53297
1.16703
-0.530052
-2.75739
0.644267
1.07154
2.96875
-0.945375
-0.742615
-2.77554
0.862522
-0.718911
0.73237
1.83289
-1.53415
0.812145
-2.21028
-0.772696
0.891265
2.81508
-0.864961
0.988045
-2.49693
-1.16562
2.84285
-0.965479
1.31684
1.10297
1.04665
-0.933788
-0.772986
1.98411
-1.67076
0.878137
0.982801
-0.881185
0.580846
1.86166
-1.56205
2.93857
1.19706
-0.761319
-2.82343
0.880079
0.384443
1.25591
-0.306817
0.00957257
-0.883648
-0.0722525
1.33242
0.462071
-0.972305
1.31667
0.00794942
0.458549
-0.953907
-0.084214
0.431024
-0.349205
1.66111
0.430303
-0.348576
0.00537251
1.64854
0.0849487
0.00377953
0.505071
1.69874
0.50695
-0.231318
1.1956
0.0110711
-0.815692
-0.0725046
1.15374
-0.156124
-0.765914
1.1385
0.0119636
-0.156116
-0.751344
0.264847
0.0847864
0.00740283
-0.179519
1.54974
-0.0840693
-0.265116
0.00619606
1.5977
-0.179035
1.56259
0.238017
1.19886
-0.162228
-0.16274
-0.819534
-0.236347
1.29107
0.314388
0.31443
-0.921505
1.24956
-0.15976
0.314023
-0.87409
0.266803
-0.268835
-0.179913
0.353165
1.64364
0.266733
-0.269083
-0.180043
0.353413
1.64383
0.350774
0.350841
1.67756
-0.182221
-0.182261
1.60083
-1.40441
-2.05071
-0.105011
1.56968
2.62493
-2.62571
-0.120247
2.83761
-1.60205
0.235146
-2.60744
0.00183418
0.115999
2.83143
-1.58394
2.93553
-1.38442
-0.116942
-2.85831
1.51464
-1.8907
-1.13468
-0.0980234
1.26153
2.30053
0.169017
-0.0874845
1.04888
1.82416
-1.53415
2.92946
0.00233396
-1.38259
0.113149
-2.84629
1.5142
0.235526
1.16378
-0.158986
-0.784084
0.0863777
1.19667
0.309318
-0.817335
1.21768
0.310508
-0.842295
-0.0940409
-0.267596
0.351113
1.61495
0.266409
0.0964988
-0.179565
1.55355
0.350915
1.59899
-0.180023
1.56948
-0.233717
1.1983
0.310277
-0.819811
-0.0895497
1.16427
-0.158724
-0.784695
1.1441
-0.157243
-0.759349
0.267018
0.0968479
-0.179671
1.55396
-0.0943386
-0.268109
0.351684
1.61518
0.351633
1.59934
-0.180157
1.56964
-0.073788
1.11494
-0.718505
0.0834049
1.07637
0.00997723
-0.676422
1.10064
0.00767393
-0.707787
0.0850953
-0.0946282
0.004724
1.51831
0.0933764
-0.0842366
1.51474
0.00599236
1.50117
-0.0850851
1.12849
-0.746228
0.0853609
1.0835
-0.686868
1.10795
-0.718759
0.0940156
-0.0944407
1.52354
0.093723
-0.0948443
1.52313
1.53862
1.50661
-2.65622
-0.351003
2.81717
-1.63026
0.469279
0.251106
1.05274
1.83532
-1.54205
-0.227393
2.93241
-1.39791
0.341592
-2.86414
1.52677
0.573412
-1.32902
-0.472166
2.14885
-1.78616
1.47737
0.507166
-0.417926
1.07762
1.89306
-1.59252
-2.6958
2.79106
-0.590029
-1.66989
0.711102
-1.2955
1.42339
-0.560823
-2.85596
0.676645
-0.237194
1.33691
0.313031
-0.973651
-0.392885
1.36122
-0.158519
0.467817
-1.00163
1.30323
-0.160493
-0.934022
0.264538
0.434538
-0.180356
1.68894
-0.429921
-0.258206
0.338107
0.505378
1.76194
0.344932
1.71617
-0.175776
0.511025
1.73697
-0.388585
1.33671
0.464102
-0.976435
0.0859536
1.2561
-0.882477
1.27687
-0.906824
0.432339
-0.0938902
1.66517
0.091358
-0.432421
0.507688
1.69859
0.509042
1.71441
1.64898
0.388339
1.25766
-0.885795
-0.0847851
1.33722
0.158971
0.464653
-0.977998
1.3177
0.462458
-0.955288
-0.0940702
0.432801
0.180465
1.66543
0.432983
1.64928
0.0914462
0.507998
1.69876
0.175856
0.509271
1.71461
0.391601
1.33708
0.31317
-0.973987
0.234067
1.36162
0.467942
-1.0027
1.39251
0.308624
0.463951
-1.03886
0.264581
0.434703
1.68919
0.429943
0.344987
1.71631
0.258292
0.510984
1.73716
0.338223
0.505287
1.76215
-0.0743466
1.39812
-1.04972
-0.527244
1.45058
0.0012478
0.594953
-1.11471
1.38138
0.00363525
-1.03018
0.0864099
0.575464
0.000208541
1.75176
-0.578685
-0.0880332
0.653565
1.76653
-0.000964169
0.648872
1.80871
-0.531507
1.45219
0.60016
-1.11598
-0.0802558
1.40404
0.155443
-1.05532
1.38283
-1.03153
0.0872695
0.579629
1.75225
-0.583261
-0.0867754
0.171552
0.660465
1.82893
0.171935
1.77006
0.654283
1.80969
0.386774
1.37922
-1.02234
-0.382673
1.48005
0.456066
0.456283
-1.14335
1.43155
0.458634
-1.0849
-0.422858
0.417333
0.500139
1.79428
0.422811
1.75145
0.417448
0.500014
1.79441
0.497674
0.497842
1.83539
0.535755
1.40381
0.155305
-1.05444
0.0793358
1.45193
0.600185
-1.11458
1.4739
0.155721
0.607596
-1.13934
0.0873499
0.579577
1.75224
0.583301
0.171994
1.76996
-0.086886
0.171643
0.660673
1.82894
0.654356
1.80978
0.232514
1.42685
-1.07959
-0.534668
1.52056
0.308217
0.607459
-1.19138
1.45453
0.307854
-1.11235
-0.585519
0.255426
0.663332
1.84969
0.25533
1.79129
0.581356
0.335902
1.81431
0.336312
0.661481
1.8725
0.53919
1.42656
-1.07887
-0.233337
1.5204
0.307969
0.607821
-1.19118
1.49471
0.611058
-1.16084
-0.255275
0.581564
0.335734
1.81413
0.585783
1.79116
0.255354
0.663704
1.84968
0.336072
0.661762
1.87242
-0.531394
1.55422
0.60674
-1.23071
-0.382161
1.53591
0.457393
-1.20962
1.49086
-1.15545
0.416731
0.579309
1.84557
-0.580193
-0.418155
0.502608
0.665289
1.94289
0.499658
1.88577
0.662153
1.90338
0.53154
1.53579
0.457104
-1.20948
0.382757
1.55397
0.607079
-1.2304
1.59563
0.460001
0.609813
-1.27851
0.416542
0.57952
1.84539
0.580423
0.499428
1.88566
0.417876
0.662404
1.90323
0.502303
0.66555
1.94275
0.667929
1.52046
0.000306661
-1.19886
-0.078812
1.61046
0.756763
-1.30205
1.59186
0.000205598
0.748312
-1.28183
-0.0886432
0.735123
1.88817
0.728852
-0.00129535
1.871
0.0893734
-0.00122695
0.815344
1.93894
0.823224
1.95697
0.685439
1.58812
0.308732
-1.27037
0.235806
1.63335
-0.157555
0.768719
-1.32276
1.65606
0.310638
0.769088
-1.34736
0.256404
0.74638
-0.172086
1.91294
0.746507
0.337353
1.93588
-0.258038
0.339681
0.836488
2.00291
-0.173444
0.834636
1.98044
-0.234166
1.58811
0.308466
-1.2703
-0.687152
1.63342
-0.157795
-1.32269
0.769339
1.56383
-0.156192
-1.24288
0.746835
0.256365
-0.172222
1.91308
-0.258038
-0.746854
0.33945
2.00317
0.836928
-0.173594
1.98072
0.835216
0.337106
1.93598
0.0791593
1.52244
-1.19969
-0.683495
1.61669
-1.30729
0.7654
1.54485
-1.22422
0.743126
-0.0870278
1.89301
0.0879581
-0.734811
1.94111
0.821229
1.96186
0.831043
1.87284
0.673642
1.5224
-1.20017
-0.0798887
1.61635
0.764951
-1.30682
1.59407
0.753811
-1.28341
-0.0869172
0.742803
1.8928
0.734687
1.87261
0.0879016
0.820997
1.94078
0.830558
1.96145
0.535273
1.58797
-1.26956
-0.540148
1.69418
0.622494
0.6229
-1.38728
1.64372
0.61597
-1.33198
-0.584106
0.589008
0.670858
1.99019
0.584372
1.9351
0.588701
0.671133
1.99011
0.677677
0.677965
2.04201
-0.950769
-2.70919
1.06551
2.71562
-1.71619
-2.69528
-1.46581
2.78221
-1.03643
1.60354
1.16202
1.17025
2.05583
-0.799667
-1.72524
0.910067
-1.35204
0.680118
2.20354
-1.81348
0.599644
1.0941
1.9228
-1.6191
-2.71859
2.75359
-0.831437
-1.70547
-1.32143
2.8737
1.44213
-0.792369
-2.85501
0.907565
0.384419
1.61904
-1.30511
-0.692137
1.7158
0.470028
-1.41187
0.778911
1.65664
0.46414
-1.34679
-0.749224
0.424318
0.841005
0.420098
1.96603
0.754199
0.506369
2.00348
0.512897
2.06649
0.847921
0.686885
1.61924
-1.30541
-0.388463
1.71602
0.470413
0.778549
-1.41217
1.68342
0.772016
-1.37714
-0.420397
0.753922
0.506699
2.00362
0.74894
1.96611
0.424602
0.840676
2.03147
0.51323
0.847635
2.06663
0.707921
1.7438
0.631049
-1.44114
0.554781
1.75307
0.787399
-1.45126
1.79243
0.641582
0.798156
-1.49266
0.595293
0.761428
2.04802
0.771126
0.687262
2.09672
0.604636
0.857756
2.10786
0.70011
0.870833
2.1544
-0.546395
1.74374
0.630655
-1.44109
-0.699806
1.75291
-1.45109
0.787761
1.69933
-1.39302
0.761698
0.594969
2.0479
-0.604307
-0.77139
0.699823
2.15429
0.871067
0.858015
0.68697
2.09665
-0.08006
1.68185
-1.38201
-0.835204
1.73274
0.000388968
0.928188
-1.43929
1.66278
8.78486e-05
-1.36188
0.0908629
0.908508
-0.00109878
2.01041
-0.917865
-0.0928039
1.02085
2.1055
2.0294
-0.0006447
1.0103
2.08617
-0.840222
1.73468
0.932777
-1.44106
-0.0811185
1.68726
0.159661
-1.38686
1.66504
-1.36372
0.0896899
0.913787
2.01218
-0.924645
-0.0924571
0.180199
1.02729
2.10823
0.17608
2.03306
1.01527
2.08763
0.23862
1.70181
-1.39972
-0.858102
1.78707
0.321724
0.953619
-1.491
1.72229
0.314649
-1.42109
-0.26162
0.932981
0.344757
2.07294
-0.929266
0.267357
1.0327
2.12463
2.05071
0.352879
1.03844
2.14608
-0.395073
1.77353
0.479337
-1.47363
-0.862416
1.80689
0.959741
-1.50939
1.7455
-1.44492
0.432051
0.939227
2.09954
-0.948466
-0.443169
0.537621
1.05896
2.2084
0.523401
2.13213
1.04695
2.17284
0.278578
2.11952
-0.283175
-0.189575
0.369007
0.278597
-0.283294
-0.189653
0.369108
-2.14767
-0.287566
0.380831
0.380628
2.90839
0.289832
-2.08634
-0.193512
-0.193641
2.85425
0.365196
0.36517
-0.19301
0.383147
-0.192454
-0.192432
-0.0969536
2.09666
-0.283423
0.369843
0.288502
-2.06209
-0.191417
2.82265
-2.08621
0.0947627
0.382909
2.85955
0.283398
0.0981172
-0.189749
0.371534
0.382277
2.87219
-0.189999
2.06159
-0.0958374
-0.287345
-0.10651
0.38078
2.88276
-0.106255
-0.191808
2.83687
0.282442
2.05055
0.000833124
-0.190082
-2.08636
-0.287976
-0.00639428
0.38143
2.86354
0.000681176
0.370173
-0.00671746
-0.192226
0.283746
0.0982335
2.05201
-0.189908
-2.0859
-0.288808
0.382951
2.85875
-0.0970954
-0.283717
0.370113
-2.06205
-0.0944215
-0.191379
2.82246
0.37185
-0.190152
-0.191766
2.02935
-0.0952766
-0.0934138
-0.105856
2.80968
-0.10642
-0.0966309
2.02802
-0.000726672
-2.01836
0.0941224
-0.00755946
2.78096
-0.000442537
-0.00723604
2.78921
0.0955899
-0.0959449
2.02996
-2.0388
-0.092884
2.79305
-2.02076
0.0931333
2.77744
0.0955117
-0.0960716
2.78486
0.274784
0.453426
2.15866
-0.185789
-2.18227
-0.285324
0.378936
2.92959
-0.45067
-0.271875
0.358403
0.535787
-2.20222
-0.475169
-0.190247
0.569165
0.361633
-0.183545
0.538075
-0.191245
2.91551
0.451954
-0.0938642
2.13752
-2.18144
-0.473339
0.565441
2.92984
0.0920281
-0.452619
0.532073
-2.12557
0.0934089
2.89664
0.534624
2.90325
2.1383
-0.0957756
-0.470352
-0.107267
0.560512
-0.107045
2.90775
-2.12676
0.470482
-0.00757517
2.89898
0.450695
-0.00129625
2.17037
-0.00273979
0.52885
-0.00802249
0.559666
2.92483
-2.12527
0.472929
2.89614
-0.0939787
0.452153
0.185907
0.452838
0.0921878
2.16853
0.53221
-2.18141
-0.0931744
0.190486
0.565275
0.183687
0.534702
0.563039
2.92202
0.274926
0.45346
-2.18235
0.47385
0.379197
0.450608
0.36175
-2.20222
0.284789
0.568939
2.94185
0.272055
0.537984
2.22512
0.535672
0.358586
0.570163
0.380135
2.95426
0.718564
1.78799
-1.4881
-0.732673
1.87616
0.829448
-1.5767
0.829707
1.83292
0.811834
-1.53415
-0.784211
0.800904
0.887801
0.783959
2.14854
0.801141
0.887591
2.21033
0.90918
2.28429
0.909363
2.23511
-0.0971761
-0.656248
-0.108651
0.760125
2.98994
-0.107711
2.96218
2.21957
0.610465
-0.00375692
-0.653945
-2.28281
-0.00749818
0.755838
-0.0080543
2.95182
-0.00382823
0.69648
0.0913723
2.2183
0.614975
-0.657936
-2.28215
0.760326
-0.619611
-0.0922562
0.183838
0.707719
-2.23366
-0.0932754
0.191166
2.959
0.1828
2.94983
0.701631
-0.62322
0.273095
0.711643
-2.25569
0.287352
2.97021
0.271468
2.28154
0.62228
0.358743
-0.67146
-2.35308
0.391229
0.777782
3.00457
0.384887
2.98039
0.360883
0.712244
-2.21469
0.474571
2.94756
-0.447617
0.445697
0.534454
0.447514
2.25881
0.445861
0.534314
-0.478576
-2.30685
0.580226
0.580513
0.574231
2.96895
0.535016
0.535194
-0.271312
0.622478
0.358527
-2.25582
0.668223
-0.190926
0.623457
-0.182747
2.32486
0.272934
-0.183795
0.711987
-0.292096
-2.35326
0.390877
0.77811
3.0048
-0.194091
0.773665
2.9979
0.360623
0.712523
-2.23381
0.662505
2.95928
0.0913029
0.614948
0.61972
-0.0921807
2.30063
0.707971
-2.28269
0.0947252
0.760531
0.701703
0.767012
2.98835
0.565971
1.8063
-1.50683
-0.894897
1.8963
0.674227
0.999946
-1.59504
1.84212
0.655875
-1.54302
-0.961715
0.636016
1.07573
2.25758
0.618093
2.17318
0.978688
0.717439
2.22519
0.739852
1.09733
2.32094
-1.04249
-0.0874337
1.15517
-1.5985
1.82086
-0.0846907
-1.53071
-0.0951565