/*--------------------------------*- C++ -*----------------------------------*\
  =========                 |
  \\      /  F ield         | OpenFOAM: The Open Source CFD Toolbox
   \\    /   O peration     | Website:  https://openfoam.org
    \\  /    A nd           | Version:  9
     \\/     M anipulation  |
\*---------------------------------------------------------------------------*/
FoamFile
{
    format      ascii;
    class       volScalarField;
    location    "0.00175";
    object      p;
}
// * * * * * * * * * * * * * * * * * * * * * * * * * * * * * * * * * * * * * //

dimensions      [1 -1 -2 0 0 0 0];

internalField   nonuniform List<scalar> 
13107
(
16849.9
56320.9
15805.5
16747.1
16533.6
19387.1
51188.6
18900.1
30957.4
27725.9
27954.8
13553.6
95313.9
77193.1
137584
194291
15775.7
16208.7
16171.8
16585.7
16450.2
16479.6
16922.8
12793.1
15947.8
15594.3
17993.4
28244.4
32157.3
19074.1
15990.5
16302.4
16249.1
16567.2
19991.3
17131.1
17844.6
17057.4
17044.2
16505.6
17036.4
17603.5
17032.9
17600.1
24733.6
17253.3
14587.4
91777.7
71727.4
73220
86387.4
16972.8
18664.8
16645.5
46122.5
31215.5
22285.8
68901.7
40658.2
53299.3
29280.4
82792.7
89318.7
90267.7
85561.9
16596.4
17241.4
17099.4
17059.2
17796.4
17159.1
17643.1
31801.5
157973
88837.6
91555
80838.5
146865
35384.5
19758.9
17619.9
33613.5
20350.6
21179.9
17335.4
20768.7
18306.7
29195.1
27262.5
40173.8
23240.1
19979.6
23516
17474.9
18250.9
18838.8
18463.8
18624
17512
18219.2
98418.4
62532
87956.7
128238
134954
46217.4
104062
165501
198558
155768
139166
172864
175340
144012
17576.8
18429.8
20521
18919.8
19224.7
17987.5
18258.8
124047
113211
135566
150834
150053
116295
123689
47206.6
71088.2
18685.3
19202.4
16943.7
31907
92447
20427.8
64700.4
96917
79872.2
52030.7
113484
100210
149075
133943
16629.8
22736.1
17950
24794.8
18636.4
21913.5
34628.9
25051.6
41215.7
76563.8
48429.8
86812.3
96409
68762.5
73447.3
79582.1
84944.9
91759.6
96243.7
98336.9
95554.3
17474.5
17839.9
17307.1
18064.5
17514.5
18493.3
18488.9
31824.4
26760.2
20987.2
27850.5
65518.1
37509.1
49926.4
96477.1
63100.6
89390
101360
91244.6
83380.3
105935
40042.7
34336.8
23634.2
30064
76372.7
44319.8
55087.6
78586.2
123824
107891
109814
103562
122640
89721.2
20199
18328.7
18167.6
20626.1
21134.5
24507.3
19358.3
18846.8
22974.2
19183.7
21452
22468.4
27303.2
19720.2
86539.9
97747.1
90622.8
103131
113442
111388
103251
111505
130359
112164
113545
136514
131810
115226
39899.1
79761.8
67672.3
84829
55843.2
51743.2
69463.4
112175
101355
107537
130982
125569
95845.3
117533
25498.7
24930.8
43368.1
26063.4
34079.9
31996.5
21562.3
118840
130657
142987
141498
136295
126520
121887
43500.5
55468.2
87444.2
83680.4
31186.8
54628.4
20106.3
653.493
641.078
1296.02
1741.13
2275.62
10876.3
3382.94
15484.3
14815.3
62310.4
35085.4
49967.2
21057.4
40941.2
65570.8
9665.09
36548.5
13756.3
54694.3
31432.7
36747.4
58205.6
2987.01
32853.2
11137.5
36995.3
14769
29138.7
46951.6
63096.9
52361.3
35093.7
48166.8
68440.5
64490.2
57536.1
73390.1
70253
56506.5
59890.3
85818.7
75065.3
71965.3
44630
45021.9
27113
44736.4
63106
58789.2
54646.3
60169.6
76747.4
85870.8
74225.2
74040.9
71356.7
64458.4
17346.4
15322.4
16178.1
17751
14756.7
17653.1
17393.8
15905.2
16317.3
14488.3
48735.6
46750.7
14117.5
15619
7540.82
5767.68
16022.4
15167.8
15955.7
14925.1
16082.8
15241.2
16004.6
14954.4
15993.3
14946.8
15318.8
15931.9
16068.2
15274.2
12192.5
15410.6
15611.1
13698.1
14426.2
11864.4
19208.6
11886.5
11860.4
13849.3
14758.6
14578.6
11959.1
11736
16960.3
17406.2
16708.8
16749.3
17893.8
17057.6
17501.7
16870
16740.3
17890
17271.5
16607.4
17050
17485
48679.6
43911.5
36606.8
10452.3
13275.3
9301.54
16204.7
2864.28
7189.59
3328.03
2268.61
6898.13
7702.48
3009.45
16405.5
16378
15983.5
16056
15685.1
16181.6
15650.4
16285.3
16066
16015.6
16136.9
15742.5
16073.6
15683.4
15474.9
11783.6
11673.2
11803.8
15303.3
15147
11895.3
12054.6
23407.9
22486.8
16525.5
16149.2
12220.9
14992.5
16713.9
17522.2
16877.2
17470.8
16817.3
16693.8
17361.2
16758.4
17244.8
16665.9
16659.2
17137.5
16549.2
17317.1
47143
10992.4
16133.3
46806.3
47443.1
11366.2
17259.2
5970.66
1579.41
2378.22
6483.11
1784.28
6187.81
2696.91
16399.1
12359.5
16298.3
16191.9
15674.8
16659
17026.3
15589.6
16220.6
15676.4
9072.99
1635.25
14707.7
15814.8
6914.08
5541.26
15738.2
15128.7
15014.5
15679
15367.9
15793.3
15482.6
14368.4
11951.4
11913.4
11914
14949
15180.7
11947
16138
17162.5
16512.7
16047.4
16871.6
16321.8
16505.9
7264.57
2274.18
2590.34
6318.25
2061.9
6649.72
1841.68
15486.1
15903.3
15576
15475.1
15280.8
15656.3
15730.1
15436.6
11763.5
11902.1
15023.8
11920.3
11910.1
15546.7
16127.5
15906.1
16226.6
15794.4
16175.5
15971.2
15923.7
15717.7
11718.4
11789.9
11846.8
15439
15637
11885
16048.7
15808.8
15677.6
16257
15830.1
15861.7
16253.1
16139.9
16841.4
16839.8
16513.4
16383.1
16333
16579.8
1473.78
5614.96
6034.08
6476.73
1950.4
5958.24
1594.84
1500.52
1509.98
5697.49
5824.56
1666.64
6044.85
1540.19
15977.2
15777.9
11628.6
15712.8
11601.6
11758.1
15744.8
16264.3
16331.3
15935.9
16158
15870.6
16188.9
16035.8
16823.9
16431.4
16045.7
16030.6
16743.2
16325.6
16440.6
8471.78
5798.31
2028.76
1854.76
5753.07
5578.32
1471.25
6174.92
29535.9
41068.3
13108.8
649.976
10500.4
881.317
518.39
39430
40876.5
13036.6
15077.7
8076.67
9442.41
31292.3
569.908
1460.61
771.318
1727.03
817.167
926.775
545.875
18030.7
726.777
2810.75
3244.84
6853.71
19305.5
894.009
39651
13816
15393.2
9336.82
28833
7626.14
31155
1524.25
693.439
1796.63
903.509
518.706
750.008
522.849
581.891
574.041
551.975
554.671
760.92
700.971
511.46
2919.1
7600.55
17526.4
7736.29
2197.14
18736.4
1783.11
573.478
7735.15
1034.27
2120.28
844.014
1615.21
555.083
10430.2
46754.2
6477.98
16573.9
617.296
781.091
503.232
765.968
824.061
545.746
559.336
725.116
692.185
534.974
520.212
645.614
631.527
706.415
521.981
640.162
503.387
615.991
557.438
659.123
662.447
633.036
511.228
509.917
776.452
617.198
512.474
516.538
1000.98
515.628
544.488
2029.6
1575.87
1258.03
630.048
638.741
14842.2
2958.97
2183.75
1671.09
740.183
529.452
733.683
17883
6366.65
2337.22
1865.91
3946.84
616.229
907.949
25944.4
4993.47
9047.22
2790.76
28663.2
32689.9
36432.3
13836.2
19714.6
10856.5
30525.7
41821.7
16358.2
16339.8
18257.7
16506.2
16567.3
16260.1
15778.2
82145.7
60215.8
20791.9
30739.7
17054.6
15618.2
1529.28
15554.5
16019.1
15758.8
15751.8
15918.3
15981.7
16015.5
15576.6
11586.8
11761.5
15520.2
11630.2
12355.3
15795.2
16075.5
15883.9
15699.9
16252.9
15878.4
16106
16496.4
1888.45
5805.92
5709.32
5987.06
2166.73
8613.78
9375.93
16347.4
16061.9
16125.1
16211.4
17831.4
16506.7
16216.2
16988.4
15838.7
12281.6
17056.7
20999.3
36907.1
16904.9
16216.7
15992.2
15932.7
16176.6
18016.7
16430.5
16213
17451.1
15857
12604.4
17997.5
22354.6
42721.9
17032.1
17024.5
16575.7
16181.6
16416.5
17281.2
16798.8
16853
26325.7
8333.03
8104.06
26487.2
54145.1
56960.7
31025.2
38397.7
10362.4
12885.5
30027.5
61057.3
63937.1
34324.8
16972.1
16549.3
16144.5
16398.1
17266.6
16780.2
16830.3
16434.1
21770.1
21452.3
20598.1
17626
17554.3
17806.7
38298.8
86070
37521.2
36048.6
70856.3
68296.7
21250.1
16734
18029.7
17704.7
17703.1
17183.1
17185.9
17199.7
58779.6
73388
87003.9
70625.9
78760.8
75709
55883.1
189733
209711
198213
118795
111467
143759
227502
136129
218424
200983
134971
123280
191443
147999
221241
233142
112710
118817
120175
132900
134232
142067
140616
115364
126230
122744
140582
136834
144777
148589
128748
130780
145512
136076
151418
153451
159119
126839
137664
128386
150782
158999
160540
149238
134615
140292
131083
153571
166913
163228
157348
141945
148990
142190
165501
158039
165691
173100
191329
158406
159917
168137
198049
166623
199645
138971
153022
144072
171525
162020
167578
177092
194153
166563
162651
170869
206554
202458
174803
203410
171622
177725
211807
179809
185775
218264
166047
181665
156986
159035
150063
174104
183715
177166
207416
220155
185742
187330
175614
209071
179946
216204
194050
223179
190102
211992
183891
192802
235375
226311
217245
184716
192822
226049
221591
199079
188839
194832
240138
205220
228310
210366
246113
259092
201986
248616
212546
236434
18269.9
14640.6
19250.1
14348.3
18865.8
18151.2
16780.6
16107.3
18050.2
17389.3
18786.1
18429.9
17508.9
17809.5
18912.1
16861.6
16176.2
14161.7
14422.8
16430.4
14360.7
16540
17900.6
19090.9
17933.3
19311.2
17824
18190.1
19226.5
16983.8
14268.1
17012.3
14340.4
17222.9
14334
16982.5
17958.9
19005.1
17609.9
17862
19264.3
17789.5
19166.4
17266.3
18612.8
17644.6
18008.7
18421.6
17492.9
18881.8
16773
14217.1
14246.8
16966.6
14331.4
17198.6
14331.2
16408.3
14733.8
14211.2
16842.9
14421
16398.2
14356.4
15309.7
14360.4
15276.5
14327
15272.4
14347.8
15300.1
16177.3
16786.6
15978
16855.3
16006.3
16893.8
16081.7
16140.4
16825.2
16193.6
16933
16907.5
16151.7
16106.6
15144.9
14154.9
14325.6
15060.7
14284.6
15180.1
14971.9
15203
14397.2
15129.5
14376.8
14339.1
15183.6
15144.5
15242.5
15295.1
14351
14327.9
14343.9
15255.6
15228.2
18457.3
18011.7
17886.2
18464.2
18578.4
17920.1
18361.9
18465.9
18499.1
18023.9
17912.5
18369.7
17930.7
18612.8
19083.9
19395.7
19081
19395
19042.3
19043.3
19583.8
18410.7
17886.6
17883.2
18303.1
18339.8
17895.3
18343.3
16231
17156
16125.7
17005
16145.4
17105.3
16199.9
15319
14335.2
14332.5
15198.3
15254.3
14354.7
15260.8
16236.3
16143.4
17166.3
17030.2
16205
17113.6
16162.3
15354.1
14350.2
15363.5
14351.7
15345.8
15346.1
14372.6
16324.2
17225.6
17224.1
16367.6
16332.9
17210.5
16333.2
15305.8
15264.1
14344.5
14325.5
15287.6
15269.7
14344.8
16285.3
16988.4
16175.6
17002.5
16183.6
17026.4
16194.1
18280.2
17619.3
18180.7
17816.9
18300.7
18191.9
17740.5
18362.2
17760.5
17976.8
18406.5
18328.2
18472.4
17826.1
18951.2
19238.8
19025.8
19338.6
18913.7
18997.3
19455.9
18331.8
17804.3
17856.2
18261.4
18265.2
18313
17815.7
16127
16811.7
15969.5
16992
15991.9
16089
16961.6
15242.3
15086
14245.4
14287.2
15128.7
15181.4
14304.5
15230.5
15142.9
14255.7
14277.2
15160.3
15195.9
14296
16188.2
16947.1
17124.3
16111.9
16176.9
17038.3
16106.1
15322.3
14324.3
15347.8
14348.7
15304.3
15335.6
14353
16274
17148.3
17196.2
16347.8
16273.8
16312
17138.1
15275.8
14326.6
15255.1
14319
15255.2
15254.7
14326.8
15128
15072.4
14258.3
14307.5
15051.6
15140.6
14301
16072
16875.5
16806.4
16183.1
16094.2
16858.6
16079.2
15181.9
14410.6
15117.9
14366.8
15167.3
15160
14325.1
15208.5
14330.1
15287.4
14320.8
15217.9
15216.1
14329.4
72015.4
73064.2
37411.7
16903.8
100891
93850.8
122986
107660
20804.7
38092.4
42311.6
49944.8
54652.2
70668.1
67481.2
28235.5
54004.4
48082.4
66605.7
60738.3
72977.9
74154.9
24087.8
60503.5
3867.76
56116.9
9581.88
1765.96
510.683
520.563
528.052
739.761
719.533
691.419
671.344
532.27
521.243
512.546
645.814
689.814
690.265
643.119
578.786
862.756
2337.42
561.15
542.184
1246.32
9568.11
12279.5
957.453
2572.29
678.179
702.348
1096.09
7275.67
10186.9
848.678
4275.75
627.068
955.152
2234.92
27004.6
18170.8
5724.34
10004
3363.7
977.129
2202.07
32312.9
18089.4
7266.68
8792.34
57376.3
27952.9
30853.9
31487.2
34457.3
6795.71
13806
45788
58839.7
46036.5
37598.6
39589
23043.5
60115.9
72578.2
62084.1
78312.6
85331.9
85662.4
77662.1
78276.7
95948.4
81152.3
86864.7
100587
102439
84792.1
63839.9
72862.2
64925.7
78974.5
87448.7
86083.4
79956.5
85077.2
98469.8
83519.9
88667.7
106987
104423
90044.5
19985.3
5295.55
3009.55
64654.9
1428.74
78664.5
95468
87213.5
1284.08
1070.88
1150.78
9190.33
10041.8
12888.3
11593.8
1824
1788.59
1335.68
16421.7
11894.4
16245.6
24697.2
6766.55
2345.01
1989.08
20498.4
32027.8
36176
18031
10977.5
7683.33
3585.08
27430.1
53164.9
43877.1
38431.6
34457.3
67268.1
36361.8
43159.9
73666.1
40688.6
75652.6
49213.3
72676.2
40570
49375.6
83761.2
79458.3
60199
55615.8
66561.5
81476
88567.4
70254
52433.5
82608.9
63101.2
80277
89281.7
91739.5
75944.1
85446.7
72019
548.692
684.522
537.247
2084.25
1196.23
864.259
549.617
588.975
1224.98
617.293
617.951
599.859
1091.45
1063.43
600.403
954.016
1091.35
566.852
583.864
605.379
586.987
977.362
553.88
840.078
807.095
576.423
959.17
929.223
580.702
544.846
535.435
539.185
536.869
534.673
527.464
530.153
519.193
706.049
755.598
775.359
546
562.729
855.399
563.555
560.365
547.051
517.44
523.11
529.647
522.328
746.601
573.369
563.734
509.528
510.818
518.321
521.415
1005.57
777.797
610.369
513.043
546.528
510.91
514.246
16096
15352.9
16534.3
14683.5
18412.6
17002.2
16266.7
15590
15490.8
14785.2
15348.2
14522.3
15345.5
15591.6
14584.1
17473.1
18548.2
17697.4
16937
17946.8
17065
17769
16595.4
14178.4
14215
15832.5
14119.6
16026.6
14494.4
15825.4
16033.2
14808.1
14682.6
14598
15680.7
14551.1
15825.8
16667.8
15952.3
16507.9
15802.2
16587.2
15915.6
14957
15007.1
14219.9
14153.3
14926
14140
15032.4
14988.3
15094.6
14209.3
14131.4
14970.9
14149.2
15063.7
14906.1
14128.6
14777.6
14125.1
14877.2
14825.8
14110.2
15311.5
15174.8
14936.5
15424.8
14984.3
15426.1
14750.7
16386.9
17603.1
16863.4
18056.6
17220.5
16691
17400.3
16666.3
15961.3
16033.8
16390.7
17262.4
16497.5
17100.2
16276
15679.4
15789.7
16458.6
15959
16171.2
16770.1
15990.6
15363.4
15422.6
16208.5
15327
16306.7
15859.7
16159.2
15750.7
14802.3
6688.53
1654.1
13495.8
11775.7
21136
3493.19
15301.7
15051.2
14924.7
15395.3
15125.3
15338.7
15256.6
14659.7
11921.9
11967.9
11851.6
14949.6
15072.8
11884.7
15332.5
15490.5
15209.1
15560.3
15668.9
15440.7
15429.5
15032.7
11871.6
11891.1
15485.8
11732.9
11808.2
15263
16292.8
15725.8
15764.5
15698
16198.6
15707.8
16157.3
6905.57
2216.75
2066.9
6334.17
1947.86
6491.43
1846.61
15665.1
15906.9
15850
15620.4
15403.6
15565
15531.8
11701
15217
15209.7
11719
15147.8
15244.4
11757
16044.7
15614.2
15622.9
16135.8
15738.9
15671
16086.3
6069.21
6399.61
1869.72
5819.04
1634.61
6085.79
1704
15839.7
16095.1
15969.9
15801.5
15853.7
15671.2
15692
16625
16625.6
16135
15865
16339.7
15855.2
16322.1
12160
16093.1
15392.5
15377.2
11777.9
11631
15370.7
2894.49
6414.33
6310.25
6019.28
1787.33
6140.73
1738.48
16186.7
16754.6
16630.7
16369.7
15971.2
15870
16290.7
7376.82
15299.1
7522.97
6306.97
3176.38
5917.12
1820.71
14956.3
14133.4
7267.31
1948.78
13094.5
14132.4
8216.26
7405.05
11850.8
14325.5
11982.5
13537
11946.1
13812
11822.7
13184.5
11135.5
10383.9
11602.2
13170.8
13226.5
11369.4
13748.6
13180.4
11840.3
11755.8
11534.8
11733.7
13646.3
8255.42
4105.68
4298.17
8089.29
3873.63
8193.48
3642.49
12175.9
13179.1
12134.7
13156.2
13099.1
12257.9
12142.8
12255
13218.4
12208.8
13108.1
13130.5
12195.8
12205.2
11289.1
11138.2
10399.1
10460.1
11236.8
10460.5
11183.8
12262
13102.1
13235.5
12437.9
13096.7
12241.4
12474.8
14612.3
11897.2
11920.4
14592.3
11926.4
11872.9
14140
7759.96
8094.26
2763.87
3179.74
3703.86
7818.71
3263.08
7514.78
2756.84
2556.21
7767.71
3315.2
7979.33
3115.36
6482.96
6905.35
2258.05
6983.18
2335.71
7405.71
2742.38
91860.9
99276.7
116145
93004.9
117872
100614
109519
94222.7
104424
114289
120107
102286
111575
96088.1
75085.5
82901.3
101183
78571.5
118325
101656
91081
90580.1
165784
173079
167368
173719
94999.2
182292
190874
112122
105371
167873
175459
94723.5
67402.9
59206.6
100503
104091
143974
126760
168663
152387
104330
97712.7
178134
109966
200874
196111
218681
128291
116643
180681
117037
203499
47036.6
55772.9
70580.1
62898.9
73248.1
75458.8
78198.3
84695.8
89783.4
91459.6
105692
107286
112754
111246
76401.3
80408.1
78308.1
102120
100216
101846
103738
103572
80680.5
78327.2
76275.6
78334.3
100020
101662
112267
107038
84955.9
88475.1
82393.8
104926
110107
84398
88405.3
82265.7
105013
111987
106914
110106
88833
100688
95563.5
115547
110435
115948
120800
66623.4
79424.7
70006.6
90294.8
81685
85399.7
94855.8
61584.6
74179.3
67486.8
82760.8
76957.3
82914.4
89656.2
98244.3
106286
99568
119813
125807
127100
118392
98219.4
118883
95975.9
102568
116807
124185
126056
95907.2
103698
102363
118456
116725
123955
125385
105559
106568
110838
121775
126436
128272
132516
106305
108676
102633
122766
133437
129700
126956
86984.7
108271
89642.9
110357
91824.9
95296.6
114723
27048.8
55707.4
32206.1
3678.51
83689.7
114054
99016.7
101184
10772.7
7691.18
27392.8
19691.9
38246
42769.8
52456.5
17403.7
44674.7
32063.2
62293.8
50444.6
61980
69165.6
46007.7
52919.1
36719.7
70190.8
58577.4
65258.8
72385.2
62063.8
88396
71348.1
89221.6
73697.3
78864.5
93908.2
46730
62687.3
58759.1
69880.8
77791.2
73015.2
74553.1
83151.1
93912.1
78610.2
82507.4
102904
85751.6
98303.9
85358.9
95331.4
80369.9
83005.6
104636
87751.4
98762.6
85978.4
94766.7
107836
108954
89291.6
90585.4
102929
86171.6
83585.9
75507.7
91044.3
107699
100450
97933.3
110626
122039
116070
138303
131958
137885
144253
110682
116708
109012
131609
141368
139667
133322
94014.4
113549
120152
100726
126962
120407
107244
117523
116394
108732
131289
140536
132522
139321
107625
117885
98783.1
103021
131496
112173
122491
112890
120273
124297
143310
135270
139399
147347
130840
164835
129307
130672
166944
132202
166018
133254
139093
169308
171943
134823
137499
168308
166132
130492
131956
164981
129165
130497
166137
169813
139368
134826
133148
172157
137528
168435
133619
169133
135047
139374
171236
137947
172603
15729.6
1493.53
58746.5
1007.02
59165.8
75276.3
74525.5
1792.88
1026.43
66743
2477.7
85967.9
80332
2971.35
99363.8
98591.8
1060.24
997.067
1029.54
8357.07
8178.92
8832.3
7847.24
1112.39
990.746
1007.59
8278.73
8274.95
7860.14
8789.72
1379.03
1177.44
1121.72
9550.76
13250.6
10220.2
12110.1
1356.77
1331.22
1096.8
9461.01
13193.6
12081.2
10144.6
2139.5
6798.26
5467.09
20876.8
18571.6
31382.3
35050.5
2130.96
7204.19
5443.87
20552.2
18577.1
31291.8
34367.3
31177.8
31059.7
55781.4
61524.1
32744
58646
29510.7
31622.9
56059.5
62537.9
31623.5
59174.8
29825.1
33582.8
68152.7
43465.5
36967.2
35017.9
72537.3
40928.4
64862.8
34703.8
43091.8
67124.1
72250.5
36525.6
40566.7
64352.4
34219.2
19452.2
39205.4
47025.3
66648.8
51766.5
62376.3
51203.1
38163.7
19047.5
15581.7
33884
46891.7
62350.7
80917.2
67475.5
54894.4
78955.7
51715.3
64186.3
84010.3
54744.6
78767.3
51541
64149.6
85475.2
67504.7
83840
14037.7
773.14
26337.2
4799.6
1274.19
1013.44
541.614
526.283
1759.3
8921.98
23343.7
1637.98
3204.05
846.225
15630.7
1257.23
621.103
624.009
628.145
1205.24
1253.35
605.395
36250.3
3597.22
31064.5
9707.7
6137.93
5887.39
21724.8
1161.46
591.953
611.786
654.149
1274.42
1256.1
708.476
729.475
3512
1595.11
537.286
578.758
544.976
7443.95
535.346
538.891
536.757
539.023
538.881
539.875
536.097
15380.9
1187.53
3091.66
638.961
1995.69
574.781
11679.2
533.303
541.855
554.812
539.6
550.602
544.782
538.67
74519.7
82555.5
92229.5
97285.6
77288.7
80166
90532.2
92810.2
83189.6
77668.2
74612
97531.3
80282.7
90743.2
13401.4
13336.4
12211.7
41490.2
13140.2
13387.8
8307.04
7961.55
10229.8
12844.1
13081.7
13331.6
13289.8
11201
11700
10324.3
12993.7
10239.9
13300.7
13329.2
10312
10927
9089.01
9698.79
21557.1
3735.04
9335.66
5059.8
11081
8381.58
26447
32438.1
9300.27
8628.79
6298.51
16511.2
13267.1
10314.3
10368.8
10347.3
13293.5
13323.9
10311.9
13132.2
11622
11139.3
10324.8
13370.8
13280.9
11302.9
9256.12
4392.54
4526.68
9195.9
3825.69
9349.24
4429.69
8167.36
3454.54
4004.47
8115.99
3733.12
7978.05
4135.99
12240.9
13339.2
12260
13302.9
12227.2
13312.5
12240.3
12223.4
13223.4
12236.4
13257.8
12204.6
13260.3
12224.3
11050.3
11074.8
10250.8
10179.2
10966.1
10228.2
11132.5
12003.1
12933
13116.3
11955.8
12137.4
13015.3
11959.8
12239.1
13243.3
13246.5
12516.9
13102.1
12296.2
12455.3
12242.4
12254.8
13295.9
13246.7
13217.8
12204.7
12252.3
11180.3
11264.2
10318.1
10249.4
11213.5
10276.5
11198
12210.8
13171.2
13239.3
12003.4
12157.4
13267.1
12063.2
11187.7
11155.4
10261.2
10289.6
11195.3
10221.9
11130.7
12228.7
13319.9
13321.3
12160.4
12196.8
13343.3
12193.7
12233.5
12244
13343.6
13302.7
12254
13312.1
12210.2
11209.9
10348.5
10343.8
11118.4
11170
10357
11168.1
10950.7
10139.1
11281.8
10676.3
10839.4
10088.7
11262.7
7763.12
9086.64
7323.96
9293.76
9282.45
7681.87
7452.78
7931.54
9536.74
9055.46
9952.52
7558.03
9166.76
10574.2
6183.05
4047.52
6026.79
3621.81
4104.13
6193.35
5988.35
7754.18
9333.68
9293.61
7953.55
7810.5
9275.62
7880.57
12218.5
13282.5
12216.1
13277.4
12223.7
13287.6
12201.8
11095.6
11135.5
10348.2
10330.6
11115.8
11123
10337.8
11233.9
11274
10377.8
10348.9
11304.9
11211.3
10360.5
11223.4
10362.5
11272.8
10332.5
11199.8
11304.4
10350.4
12223.1
13306.8
13318.8
12160.8
13332.7
12194.1
12195.8
12224.5
13331.1
12238.6
13296.9
13299.4
12208.1
12247.7
11222.7
10361.4
10353.3
11122.6
11181.9
11174.6
10389.5
12240.9
13230.6
12163.5
13248.1
12309
13207
12185.5
11315.8
10375.5
11136.4
10376.9
11233.6
11196.4
10412.4
12379.6
13451.2
13273.7
12582.6
12342.7
13261.8
12631.1
12322.7
13302
12255.2
13248
12263.3
13259.5
12247.1
7705.32
9256.73
7606.38
9227.01
7536.16
7700.47
9280.34
7683.09
9228.35
9182.98
7484.85
7623.41
9267.14
7479.72
6081.41
3763.81
6094.18
3705.4
6128.29
6078.54
3612.67
7930.34
9371.38
9355.32
7991.64
7967.59
7935.99
9379.64
142022
171488
137638
142136
179193
175124
146523
122233
129478
135389
144758
158616
151056
152540
145366
183860
150751
176180
152281
143919
177616
185502
145218
178877
177200
143349
150452
183665
144747
176916
143213
150191
184629
151644
183349
148136
186699
159190
184422
155112
180238
152419
108601
124596
135002
137218
117744
128188
115343
147706
184564
152176
187273
154549
158776
191156
160267
193294
201837
158434
200000
166872
191459
158090
199619
192331
167779
159394
166507
191090
164289
189811
157821
164090
202380
170412
196223
194909
170496
162110
166092
207344
174414
198687
171307
209855
185646
212423
177550
179506
203694
247009
300378
415096
410076
408027
299294
245770
416066
223117
301695
224502
230186
228661
306647
308239
223280
299634
222676
229033
228225
305840
305968
237762
245163
236045
316540
332159
318415
330156
244710
236541
235588
315721
329999
316168
329380
409968
437865
435537
411938
429263
411774
431283
409512
435965
438112
411405
429812
410139
431522
415779
421090
422724
417203
415644
421368
424711
415261
417583
423487
420069
414292
420951
425009
413150
397252
324196
264567
406223
302648
248245
413284
424766
286954
429824
296619
406102
224689
307186
448864
213942
404274
296851
215556
409588
455625
454344
212918
406994
295173
409909
231557
316820
388100
275644
399890
264736
304003
331483
388204
335181
416684
380113
283387
215090
216034
217309
289180
290630
288956
290579
214342
213218
214349
294299
293478
294306
295087
212731
214016
213864
290516
292179
293208
291710
219099
297641
220374
217438
216207
294959
295741
223179
295207
220581
217187
219572
292906
292169
219108
295830
218665
216024
215739
294008
292911
226195
219657
220998
293194
296576
298553
291357
233092
300718
227291
228954
223414
296115
301959
228012
300121
225079
231102
234385
307588
310837
245193
314505
238493
307282
232518
239107
316272
233194
240183
241871
305130
307293
319905
317715
238811
252080
242296
332407
318271
322071
336746
240414
236141
249369
244908
311136
323875
329910
353043
336951
253662
257451
247221
328208
343591
252965
324697
245934
255276
263029
338415
349610
250885
266720
252675
336491
355301
357276
334322
274056
365368
348681
262098
273233
363695
380351
260761
270302
255941
340586
367761
361329
346948
267377
294009
276231
376597
355912
367527
387635
405105
402250
442210
447399
401316
440895
405571
414796
458089
415912
414791
453020
413421
455612
457714
410318
414452
413995
452674
410308
455735
401841
428638
402127
435357
402981
400816
434143
405067
433215
438190
402796
443586
437601
404677
409204
444751
442154
411903
448301
410705
450959
409030
442535
445049
411320
448424
408330
451241
326492
307958
288213
381446
414091
396743
399989
406801
428646
432528
426996
409390
409509
423437
404384
423221
428327
402778
426467
404143
431697
409161
406950
419024
413619
424179
410696
418992
423384
405816
406525
412549
419097
412161
417430
420831
419702
413916
414225
409339
419913
417213
417543
421043
407826
413543
410628
414681
415286
422820
417901
406604
415605
404083
421077
412523
412944
412939
406921
405270
417841
420866
398238
420175
401321
426544
393846
426318
406100
421286
419685
411291
397682
427016
426487
419707
409343
424811
420828
398992
424000
375799
426472
388813
394893
427010
423010
424907
369096
427234
386311
426419
423236
358018
353659
427133
426959
374577
250304
261210
314476
403182
417076
304082
411754
409982
227028
308142
230855
233068
237235
311349
316189
254989
240845
245202
335906
321951
327248
341601
236142
323213
242694
249531
242778
323172
332593
269274
258139
250958
334791
360219
344874
349653
410490
432070
427838
426134
412049
412985
422016
410919
415032
417845
412102
422848
414940
417022
421228
419618
416027
417023
407046
421878
415357
421244
424704
393060
418832
400919
423130
409970
412080
422103
228665
308213
299514
217434
409028
450988
222641
302843
226088
219516
222670
296963
299549
216193
219105
220396
294950
296634
295742
297670
306724
230182
223160
224563
300438
301781
308345
230901
316282
237195
233054
227096
304180
311460
409472
437954
433011
443702
409165
409061
437983
411919
444802
448319
409622
410714
409245
442203
431397
429386
411944
437944
410157
410070
435617
426246
412222
413135
410553
427869
410073
432130
196835
101298
101298
101298
101298
454341
118231
101690
433549
130050
126605
101303
458963
346185
361845
421444
409686
259763
237006
446463
289052
322807
366084
392163
207372
174072
101767
101302
101298
101298
101298
101298
101298
101298
101298
101298
126256
101551
171536
360337
407361
102555
117488
211167
101299
101298
101298
101298
463857
122002
101786
101771
209075
427784
121506
105924
136880
258770
101298
101300
101333
101928
461776
376014
371334
428627
432429
281263
274358
461489
272616
370454
463737
375769
432144
280646
419922
458614
453869
256575
360130
343382
232325
388526
431683
445470
282285
318483
201505
167837
318493
377186
410266
234741
182868
137056
116868
346982
109568
157251
217325
354386
162734
110570
108179
335662
149031
176093
314226
136289
106201
309099
193349
332478
105822
107822
146936
133861
109817
348727
158550
218173
354995
163289
110687
101300
101628
101298
101298
101300
101655
101299
107234
102461
188107
107754
193473
123971
102571
186926
102433
107120
107706
193036
123756
102558
101299
101571
101298
101298
101428
101298
101298
106231
102248
177237
161749
104965
113564
101986
101298
101298
101299
101560
101298
101417
101298
175201
102206
106054
104761
159026
112751
101940
191304
247470
324523
114239
138831
107175
103234
239802
152007
282171
123755
102948
113740
104354
143616
102699
103711
109193
101547
105869
101739
230493
147153
274811
102724
104030
121568
112203
124112
103520
140513
108504
101518
105364
101699
239619
362874
479744
405354
240452
363812
396689
440750
266361
276467
237763
274231
264226
311593
314181
238117
267287
277363
274569
264596
311926
315142
460295
303035
376532
359532
300541
373292
458652
338522
440188
476051
438476
335677
402392
476950
359831
303972
300879
373611
460553
458678
377559
438600
339446
335989
402662
475834
406277
476812
484061
244120
318241
289507
434272
364073
266367
396542
454888
436701
374476
493491
172961
485893
355095
431002
249692
271683
281935
278358
288921
321075
330705
257021
299268
311463
287346
298479
344971
365190
329440
293944
337323
278405
315290
393390
429838
386812
309475
372418
465725
386287
400785
473465
357612
446201
346298
475704
414661
428061
475484
348978
330784
407465
421135
486923
481721
445944
473420
464950
374012
445213
467916
464119
473623
390519
342482
314389
369265
414934
468492
494697
474454
484984
462406
412500
375776
470570
488817
454804
474674
477745
456432
425395
479896
488720
398405
471609
463940
471096
403781
481971
466870
463085
478920
471642
471034
403172
481620
466542
448636
384198
457602
475363
474693
469497
479278
494547
490260
455663
396406
482230
447425
494732
482157
460015
428797
465700
323989
390855
485281
412748
333873
434520
459279
442044
483087
483517
326696
232748
378833
413897
368272
477872
462089
206906
296984
173377
109450
128925
251910
430482
140170
182426
112715
101948
106554
103489
101555
101298
101298
101298
101303
101298
101330
101298
112820
101576
106479
101403
103290
102144
101342
105771
102888
115454
102078
101324
101539
101385
101324
104764
101488
105102
101327
101835
101507
104672
101324
101483
105060
101327
101829
101505
101319
104112
101452
103308
101313
101407
101574
101669
103974
101318
101312
101444
103160
101399
101986
101404
103340
101613
101303
101399
101314
101388
102560
101307
101335
101996
101366
101467
101376
101449
101306
102435
101330
101909
101359
144301
179782
441404
460237
458877
389294
254050
306917
347902
397576
356600
429645
432908
444471
444789
385281
422493
408847
369090
437254
444535
442027
429525
435810
460453
417000
442735
438440
407986
461589
453107
444177
375415
394690
421126
431804
417619
293607
412036
244605
392796
384148
227998
246659
353552
392391
273764
403995
371595
205783
117582
123146
273648
173659
349181
335703
160357
112136
107832
128265
195046
287359
227355
315837
101298
101298
101298
101298
101298
101298
101298
101298
101298
101298
101298
101298
101308
101298
101298
101298
101298
101298
101298
101298
101298
101312
101298
101298
101298
101298
101298
101298
101298
101298
101298
101298
101298
101298
101298
101298
101301
101298
101298
101302
101298
101298
101348
101298
101298
101298
101298
101298
101298
101298
101298
101298
101298
101298
101299
101298
101298
101298
101298
101298
101298
101298
101298
101298
101298
101298
101298
101298
101298
101298
101298
101298
101298
101348
101338
101330
101298
101328
101298
101298
101298
101333
101336
101298
101298
101355
101298
101351
101353
101355
101298
101298
101356
101298
101311
101325
101314
101298
101298
101305
101337
101298
101340
101327
101298
101298
101320
101315
101306
101298
101337
101298
101298
101316
101298
101317
101334
101298
101317
101336
101298
101323
101317
101298
101298
101302
101298
101305
101298
101325
101341
101341
101298
101298
101347
101342
101298
101350
101298
101342
101298
101351
101298
101298
101320
101307
101298
101315
101298
101298
101298
101305
101314
101323
101309
101298
101298
101298
101328
101298
101328
101312
101298
101299
101298
101298
101298
101306
101298
101300
101299
101298
101303
101298
101299
101298
101301
101311
101316
101298
101298
101306
101298
101304
101303
101300
101298
101298
101299
101299
101298
177124
201646
352510
351611
186135
101810