/*--------------------------------*- C++ -*----------------------------------*\
  =========                 |
  \\      /  F ield         | OpenFOAM: The Open Source CFD Toolbox
   \\    /   O peration     | Website:  https://openfoam.org
    \\  /    A nd           | Version:  9
     \\/     M anipulation  |
\*---------------------------------------------------------------------------*/
FoamFile
{
    format      ascii;
    class       volScalarField;
    location    "0.00175";
    object      T;
}
// * * * * * * * * * * * * * * * * * * * * * * * * * * * * * * * * * * * * * //

dimensions      [0 0 0 1 0 0 0];

internalField   nonuniform List<scalar> 
13107
(
387.18
479.488
380.89
420.892
416.713
448.115
513.17
443.315
461.79
461.987
375.055
286.332
544.524
549.113
599.577
673.644
380.883
403.944
403.396
388.524
409.17
409.144
390.167
282.429
344.823
343.915
360.15
397.799
408.336
365.257
382.203
406.764
405.031
410.416
406.372
414.35
395.178
422.684
422.201
416.181
423.528
429.23
423.205
429.565
487.526
334.064
324.101
618.358
579.336
545.335
570.868
310.668
358.137
348.1
446.56
417.69
379.086
488.492
474.028
467.67
399.247
527.984
522.328
520.044
533.303
418.2
426.789
424.09
424.564
433.39
426.567
430.83
433.96
626.908
568.331
549.689
543.863
603.577
443.278
407.854
418.905
470.293
436.825
441.062
416.983
412.559
423.157
449.188
469.699
488.721
451.104
433.143
425.214
429.463
436.496
443.155
437.903
439.05
429.442
436.658
540.913
497.998
542.521
570.382
579.968
469.058
537.264
660.561
667.86
647.541
609.488
648.058
639.153
620.937
430.53
439.874
451.08
444.253
443.05
434.161
437.67
570.562
559.152
588.01
614.67
603.593
554.44
577.306
494.913
489.609
398.227
446.858
424.223
516.544
591.688
455.375
536.542
549.16
512.835
447.8
606.173
549.39
673.564
603.582
410.336
418.665
419.536
429.229
424.36
442.897
465.151
388.632
443.488
489.824
464.767
509.185
520.8
499.659
491.326
500.665
502.887
522.598
522.42
529.881
534.083
430.485
435.024
428.509
436.896
430.373
437.986
441.182
454.703
465.976
437.505
471.358
531.577
507.04
502.391
526.548
487.433
508.311
534.706
538.086
519.943
556.056
482.841
498.215
451.948
481.058
553.887
529.745
515.214
518.029
570.442
539.89
548.22
559.794
581.088
531.748
448.971
439.806
435.59
451.734
459.955
473.505
448.154
443.913
465.26
442.574
456.628
468.015
487.902
450.663
518.88
540.727
516.71
549.319
590.744
579.278
558.68
561.005
590.851
553.023
565.248
619.313
606.796
576.164
515.507
560.567
586.327
570.179
558.945
547.826
540.125
565.382
568.348
578.362
633.941
603.738
546.469
593.02
478.808
481.946
553.217
487.963
518.349
509.241
462.694
589.179
631.626
662.347
642.815
631.436
620.627
601.22
445.365
440.252
546.469
513.924
413.906
438.297
369.79
75.7982
73.5576
118.239
144.036
163.37
334.318
200.927
347.25
366.818
468.714
424.894
438.61
374.532
417.207
462.592
321.918
405.745
336.544
452.429
414.886
406.54
445.715
186.719
395.551
306.025
410.55
335.296
375.599
423.373
470.772
442.45
396.922
418.368
484.339
459.173
450.158
487.361
480.68
456.581
449.87
516.368
484.784
477.66
406.575
416.194
367.385
407.474
465.174
441.32
439.055
446.045
511.318
523.874
503.266
487.236
479.478
470.549
391.317
320.95
371.758
377.21
337.332
380.037
399.313
362.569
379.83
306.967
815.126
775.634
310.583
325.744
197.046
182.332
366.325
342.297
359.124
340.374
360.496
344.794
365.341
342.187
367.471
341.835
347.541
368.814
361.708
346.247
259.89
313.217
295.845
306.041
311.265
256.162
342.141
261.816
261.319
308.289
315.568
313.796
263.15
258.39
371.314
384.412
378.327
378.769
377.718
371.792
384.926
374.287
379.883
378.752
387.362
381.457
372.852
385.994
806.654
638.379
554.983
254.758
420.739
219.94
519.631
133.457
193.89
144.203
124.266
192.733
196.055
149.449
377.92
378.731
357.042
354.886
348.713
372.636
350.952
381.593
360.452
358.677
373.736
354.108
375.276
352.459
324.128
262.948
261.933
262.08
320.878
319.284
263.109
261.487
397.587
382.618
324.17
319.474
261.466
316.34
385.155
397.949
391.584
398.288
391.957
385.568
391.789
393.051
400.9
394.794
386.69
394.307
388.329
392.863
812.09
297.869
576.337
691.072
684.161
292.447
574.859
185.341
108.443
149.2
190.146
114.287
186.876
155.684
410.491
267.763
374.769
403.714
385.34
386.334
403.251
368.046
366.501
328.391
289.977
109.593
316.478
329.917
195.173
180.007
364.446
347.168
343.58
374.331
349.63
370.77
353.257
312.851
265.428
263.767
264.284
317.789
320.77
264.006
380.824
382.236
376.686
387.377
389.415
383.694
392.993
196.774
124.988
129.921
188.456
120.265
191.449
115.173
379.902
364.134
359
373.419
352.496
379.535
358.512
325.338
263.292
264.851
320.714
265.767
263.503
324.578
362.954
381.218
384.26
356.441
388.019
377.546
360.053
327.501
263.252
263.175
262.509
322.711
325.315
262.975
398.068
398.117
392.64
391.884
386.377
392.396
397.919
394.155
406.803
396.412
397.297
400.948
390.599
399.847
105.583
180.14
184.958
191.067
117.974
183.467
108.231
106.319
106.454
181.24
181.492
110.517
184.645
106.514
335.629
332.33
263.573
331.624
263.316
262.859
328.474
397.753
370.807
391.418
369.714
385.933
392.75
364.569
416.287
409.795
404.114
398.822
411.224
405.493
404.529
224.592
182.684
127.761
120.358
181.756
179.673
105.282
441.349
807.137
831.185
392.825
73.1428
333.361
83.0164
66.9813
820.351
830.003
589.151
649.753
527.975
579.16
815.476
69.4228
125.451
78.5124
153.8
93.1105
106.429
68.4226
723.79
84.0961
274.599
306.549
444.74
734.736
94.438
826.268
651.752
668.496
580.975
800.915
526.7
814.752
150.313
75.2539
168.229
106.353
67.3017
91.7297
67.4042
70.4832
70.003
69.7292
70.3634
82.9633
78.6524
66.5865
279.154
408.407
680.58
298.854
198.062
725.139
146.078
71.0186
299.19
103.393
159.709
89.5468
136.874
69.0513
329.449
422.158
268.411
371.046
71.7299
84.9456
66.9276
78.0083
80.5008
68.2774
68.858
76.2602
74.6794
67.7894
67.2046
73.0317
72.7303
75.4378
67.405
72.6346
66.7918
73.0665
69.606
74.4675
73.3989
72.2161
66.8271
66.9816
84.2712
73.022
66.6574
66.8189
100.393
66.8274
68.7646
156.527
135.095
115.76
72.7158
74.465
343.131
186.675
159.518
141.013
82.2423
68.0516
81.5584
357.325
266.529
161.659
149.017
221.386
73.0719
94.0131
396.736
238.029
304.679
179.545
373.415
395.045
408.737
328.729
367.985
303.25
449.237
447.93
382.796
379.107
438.916
418.083
415.595
409.57
391.324
510.802
480.227
329.194
415.169
300.155
332.026
107.312
386.216
369.771
365.13
392.659
371.167
397.44
374.714
329.669
264
265.039
333.767
266.256
269.385
336.313
404.444
403.946
398.912
410.708
405.169
410.083
415.759
121.472
182.627
181.917
185.782
132.188
226.451
293.653
402.356
397.009
374.194
402.237
389.759
406.876
379.051
342.525
335.404
267.752
300.654
363.926
397.816
342.809
404.578
398.995
376.119
403.003
393.002
408.168
380.225
348.884
338.375
272.579
308.354
373.188
419.001
344.853
421.569
415.381
409.685
415.47
427
420.89
421.388
365.786
278.89
219.361
367.029
454.626
454.597
416.765
420.22
247.696
334.379
385.714
470.208
472.196
427.752
424.019
417.279
411.586
416.302
428.525
422.406
422.167
407.256
412.875
410.441
434.89
416.904
415.774
390.476
403.243
501.56
430.682
424.589
477.387
470.762
366.132
421.328
434.284
433.693
433.002
427.212
426.574
427.363
460.018
488.692
509.768
482.763
491.273
484.913
459.013
685.714
718.515
699.299
584.179
576.307
643.198
745.482
635.907
732.055
744.603
611.989
589.774
767.31
650.42
782.822
751.775
578.195
591.717
593.381
614.305
616.565
632.987
630.802
580.898
599.245
595.877
624.562
619.754
636.854
642.431
598.819
605.154
632.317
615.231
643.888
650.523
662.333
611.401
637.669
613.137
654.892
679.818
681.89
652.83
618.684
640.183
615.638
658.978
690.838
685.865
664.326
630.931
655.801
631.455
679.591
659.129
679.981
704.845
688.276
655.361
658.012
674.369
699.549
671.769
702.189
624.686
666.665
637.039
699.262
672.063
685.544
715.461
692.635
668.082
661.95
679.209
714.406
707.282
686.29
708.061
677.247
689.767
722.835
695.699
707.978
732.77
728.282
736.075
689.413
693.808
658.53
707.399
739.976
695.046
715.421
734.607
716.886
719.263
692.685
717.932
700.166
730.017
730.692
739.709
724.28
723.217
707.185
723.643
755.651
742.95
730.274
705.024
724.368
744.245
737.6
739.232
715.993
728.85
759.182
752.375
747.066
766.495
764.788
765.846
746.88
765.188
768.793
757.467
370.117
334.318
357.565
323.526
361.31
372.654
353.412
357.059
359.081
364.49
363.883
370.553
364.878
358.629
363.687
350.488
353.804
324.695
331.97
355.491
325.757
349.779
352.478
359.241
352.311
352.508
345.664
354.999
357.672
347.187
324.102
346.995
322.297
342.264
323.663
350.171
357.169
359.695
354.847
352.699
352.654
345.848
358.227
367.159
366.081
361.066
359.883
371.472
365.839
364.388
350.109
328.95
327.969
347.484
322.724
342.502
324.251
352.768
338.878
329.957
350.914
332.615
356.635
326.447
331.602
323.429
333.226
322.351
331.244
322.346
333.408
343.141
351.707
347.349
350.759
345.902
348.583
344.86
347.516
354.204
344.774
350.736
354.282
344.427
347.807
339.076
325.438
325.491
336.648
326.753
336.644
338.509
342.118
330.625
345.21
330.569
329.339
342.542
344.55
338.896
336.445
325.362
327.909
327.447
336.106
339.18
353.1
349.908
352.614
355.447
356.065
349.918
352.394
353.018
355.301
349.765
352.499
352.234
349.847
355.992
353.621
353.876
351.63
353.945
352.575
352.662
355.745
350.424
346.895
346.805
348.239
349.38
347.564
349.469
339.067
344.825
341.037
347.438
341.239
344.995
338.631
332.563
323.638
323.643
335.033
334.029
322.708
333.985
338.981
340.824
344.681
347.296
338.487
344.91
341.078
330.941
322.209
330.518
322.272
330.664
330.718
322.225
337.965
343.048
342.97
337.203
337.534
343.54
337.598
331.679
333.429
323.496
322.463
333.556
331.379
322.399
340.594
348.509
343.684
348.425
342.267
346.366
342.221
354.747
355.207
357.622
351.485
358.396
354.001
351.627
353.888
353.578
350.115
355.661
352.634
356.986
350.812
354.44
354.486
351.761
354.104
353.326
352.81
356.529
351.364
347.733
347.095
348.388
350.301
349.659
348.509
341.426
350.59
344.468
346.639
344.856
340.812
347.004
335.452
339.421
328.286
326.989
338.239
337.012
325.928
334.376
337.332
327.989
325.355
337.609
333.925
325.456
340.337
348.676
345.029
341.381
338.887
346.075
342.633
332.295
323.735
330.819
322.759
331.914
331.058
323.862
339.138
343.954
343.259
337.465
338.632
337.856
344.559
333.147
325.378
333.864
322.969
331.734
335.137
324.144
342.344
341.708
330.91
329.003
343.78
339.867
330.33
349.034
352.036
354.712
345.282
348.376
355.615
345.855
344.013
332.715
345.895
331.256
343.246
346.56
331.361
340.778
327.425
337.019
328.644
339.825
337.838
329.602
511.349
522.246
442.215
387.288
553.145
547.879
600.984
577.418
407.916
465.452
470.603
484.59
491.351
516.455
514.667
430.372
467.776
470.539
500.018
496.9
514.034
510.324
414.111
470.528
231.56
495.715
311.868
145.545
67.3294
67.7341
68.0294
77.759
76.6711
75.5715
74.7142
68.6494
68.0378
67.5588
73.2648
75.1496
76.7567
73.6208
71.7246
91.4063
170.299
70.026
68.8612
119.619
331.381
355.831
99.8406
190.696
75.8628
77.7829
108.994
301.606
333.905
91.5628
231.027
74.5365
98.1316
166.98
400.66
382.445
253.801
337.715
208.87
96.8623
165.659
413.904
379.856
283.658
316.129
490.145
437.338
447.574
435.538
448.715
291.888
351.628
429.842
478.63
439.987
430.031
442.821
378.5
503.374
518.459
502.205
528.531
543.406
542.63
529.624
526.265
550.468
529.376
540.308
561.32
563.199
538.789
495.234
508.065
487.566
524.971
540.463
540.333
522.3
529.205
552.067
529.893
539.459
564.666
563.699
538.29
396.253
255.21
194.662
500.552
128.519
526.971
545.15
537.377
119.565
105.686
111.371
319.492
332.139
359.651
346.089
147.718
146.607
123.124
384.73
351.561
384.898
424.749
283.007
170.274
155.348
406.357
445.813
456.448
392.882
337.275
297.4
212.985
433.764
482.323
470.032
460.094
445.954
506.448
452.561
468.26
518.414
461.704
522.601
479.457
517.311
463.248
481.007
533.132
528.71
497.191
490.826
507.192
530.549
539.396
512.551
484.603
532.58
502.003
521.899
538.357
542.435
518.773
535.484
511.966
68.7756
78.032
68.2382
159.108
96.131
82.3517
68.6944
71.283
97.9382
71.909
71.8077
70.9239
91.8627
90.4688
71.0542
86.0155
91.6394
69.2872
70.0211
71.1092
70.2728
87.0607
69.0213
81.8293
80.3375
69.8797
86.4813
85.1888
70.1135
68.4333
68.0247
68.1848
68.2212
68.0814
67.7217
67.864
67.4393
75.6307
78.0128
78.6149
68.4284
69.2401
82.1135
69.3268
69.2869
68.5002
67.0025
67.3185
67.7644
67.4096
82.616
70.3856
69.7234
66.9437
67.0083
67.2609
67.4131
101.297
84.9063
72.8859
67.117
69.1424
66.7235
66.9759
393.659
375.424
389.955
351.521
367.652
380.427
354.568
363.315
366.003
351.472
372.201
347.06
372.143
366.441
345.905
362.717
367.342
362.837
369.903
375.365
369.857
375.211
354.273
331.134
331.088
360.064
338.359
360.867
341.979
359.216
355.866
342.754
339.609
338.461
360.78
341.153
352.571
354.704
349.027
358.724
352.658
358.992
348.886
345.236
342.782
331.307
332.826
345.604
333.292
342.033
344.623
341.247
330.943
333.879
344.596
333.713
341.153
348.188
336.773
351.114
337.567
348.224
351.016
335.974
372.847
354.657
352.274
368.906
348.203
366.562
346.007
375.206
375.31
370.144
370.065
365.153
371.453
376.498
389.846
384.415
384.223
377.398
382.893
377.265
382.872
390.906
388.204
385.424
386.986
381.559
378.546
383.895
400.184
327.836
382.242
396.457
378.452
414.309
378.321
410.128
376.402
326.516
196.287
110.403
280.985
274.245
393.061
182.284
378.228
358.125
357.72
384.649
363.951
384.172
364.464
326.54
271.676
273.169
272.763
331.94
331.857
274.328
379.496
361.569
359.12
388.67
367.796
385.985
365.539
326.761
266.84
269.437
332.605
267.853
270.299
331.814
396.264
390.929
390.668
397.159
402.452
396.783
402.751
199.257
125.777
122.151
192.864
119.733
195.482
117.003
376.021
397.732
397.085
391.152
370.282
390.573
370.773
275.326
339.802
340.239
273.331
336.636
336.413
274.782
397.459
394.767
391.999
406.731
401.19
398.411
403.919
186.061
191.675
116.784
184.908
110.903
188.761
113.053
377.202
401.676
399.145
395.154
373.673
392.49
371.788
415.829
415.333
409.564
403.455
408.706
402.99
409.103
274.33
341.516
340.007
336.27
269.5
270.835
336.192
163.077
196.105
195.231
190.233
115.877
192.168
114.595
411.553
420.079
417.229
413.159
407.582
404.792
410.367
271.799
301.255
213.001
191.485
169.181
187.92
117.421
322.738
320.492
200.173
118.369
314.959
312.585
207.613
199.595
267.067
320.522
270.831
314.697
270.056
314.873
266.313
316.967
261.039
253.483
263.532
320.85
309.998
261.922
308.951
306.764
265.064
262.681
261.479
264.454
310.535
210.552
152.314
156.038
204.2
147.771
204.943
144.725
296.159
316.099
294.527
316.199
317.021
294.886
296.432
298.053
316.669
298.949
318.373
317.893
298.596
298.142
274.996
276.874
252.063
250.014
275.557
248.836
275.896
297.621
319.851
320.277
298.932
318.888
298.474
298.452
321.244
267.395
269.036
317.678
267.032
267.153
315.533
200.715
204.163
133.398
138.523
145.93
202.505
140.1
202.254
133.863
130.612
202.37
140.348
203.292
137.965
191.925
196.867
125.291
196.884
126.567
200.314
133.167
552.088
567.432
597.42
552.437
599.059
568.534
579.064
551.045
569.421
580.248
599.683
568.368
579.296
551.027
511.242
531.926
558.549
525.355
587.149
564.134
543.112
543.717
624.113
641.909
625.402
642.46
550.101
672.62
684.763
573.257
566.115
631.964
647.855
578.017
483.192
468.019
558.231
556.426
683.281
607.55
669.323
637.339
560.404
554.121
655.16
571.997
694.894
693.441
730.223
597.777
578.322
660.539
580.8
701.207
448.434
456.545
500.506
471.621
501.421
508.776
512.904
534.945
543.288
546.196
570.937
572.814
581.697
579.768
522.324
528.01
524.71
566.013
563.608
565.277
567.705
565.225
526.722
523.882
521.692
523.891
562.973
564.132
578.034
569.906
533.567
540.029
529.985
568.144
576.186
533.843
540.344
530.306
568.982
578.867
571.427
576.605
540.998
558.004
551.463
583.451
576.373
584.816
591.109
486.196
524.535
493.868
546.206
523.842
533.326
559.926
466.115
507.768
484.137
524.561
508.334
525.759
547.348
556.208
567.805
558.478
593.42
602.582
604.728
591.37
552.508
587.582
550.938
559.692
586.596
597.452
597.834
551.558
561.9
560.097
589.285
587.203
598.022
599.8
563.941
565.606
570.746
593.263
599.675
603.477
609.323
565.405
570.146
561.737
596.106
611.479
607.392
600.954
530.003
562.941
533.484
568.573
539.585
546.053
576.885
424.44
456.115
427.858
214.077
531.513
574.513
548.14
556.063
332.868
296.682
431.097
394.367
458.815
464.649
479.5
382.256
441.761
427.542
491.46
476.917
490.282
496.571
463.233
463.963
440.097
504.854
489.606
495.452
503.91
497.715
536.436
509.799
536.765
512.58
518.263
541.739
447.482
470.047
465.762
497.907
510.348
500.315
504.551
523.843
542.007
518.163
522.184
553.2
526.39
546.56
530.293
545.063
521.947
523.834
559.003
531.432
548.351
526.795
543.302
561.615
564.62
531.988
534.924
553.504
548.137
541.282
512.729
551.373
608.756
580.732
575.74
570.064
586.267
577.21
618.031
607.843
617.185
628.447
571.356
586.415
570.547
610.095
628.901
627.796
610.802
542.303
573.704
590.031
559.525
612.427
591.052
579.312
587.369
586.195
570.514
610.145
628.919
611.65
627.483
575.639
585.164
554.82
565.142
623.002
589.453
596.281
575.746
590.761
595.531
633.462
615.819
622.2
640.006
600.238
620.976
597.417
599.326
625.891
601.901
623.118
604.084
614.965
631.737
639.588
606.464
612.873
629.131
623.069
598.638
599.953
620.843
596.959
598.642
623.084
631.89
614.64
605.232
603.53
639.816
612.692
629.274
606.288
633.466
607.913
617.91
643.995
616.356
645.36
374.087
131.476
487.91
101.188
488.753
520.211
520.085
149.331
102.339
502.164
173.799
530.949
527.223
198.751
553.212
553.571
105.077
100.326
102.683
309.168
306.084
316.885
301.451
108.084
99.9549
101.203
306.618
306.663
301.275
313.3
124.866
112.915
108.922
324.495
361.021
333.801
350.155
123.418
122.526
107.244
322.026
357.813
348.824
330.083
160.448
279.903
255.684
405.156
393.151
439.287
449.077
160.051
293.393
254.868
399.667
392.431
438.642
444.469
436.082
435.321
481.631
494.114
441.669
487.864
429.965
437.763
482.112
495.965
437.764
488.78
431.337
444.162
507.838
466.046
453.015
447.73
515.948
460.762
501.204
446.755
466.475
506.121
515.767
452.667
459.997
500.243
447.603
396.783
457.473
472.296
503.505
480.811
497.915
478.061
453.384
395.645
372.412
446.249
471.756
497.632
526.262
502.539
484.337
524.476
479.5
498.504
529.375
485.763
524.727
479.511
498.822
532
504.226
529.562
541.292
91.7397
785.037
385.152
100.021
88.5427
68.4034
67.4993
173.941
517.498
675.247
125.889
216.424
93.3983
662.492
100.505
72.1633
72.2268
72.7073
99.2588
100.587
71.5337
795.47
307.982
751.674
484.679
352.911
433.759
741.637
94.9747
70.4809
71.535
75.0437
105.612
100.819
81.0048
86.8299
312.358
171.27
68.1659
71.4436
68.8008
498.157
68.0367
68.2718
68.079
68.3135
68.1379
68.3191
68.0379
687.254
133.342
287.432
76.66
207.989
71.2374
618.853
67.947
68.216
68.7451
68.3813
68.5406
68.8441
68.0684
515.114
528.149
541.658
551.89
518.972
524.947
539.363
540.972
527.795
518.16
514.955
551.954
524.874
539.347
301.041
311.05
342.446
713.687
313.911
306.51
213.201
200.676
247.3
307.207
267.245
313.575
311.456
252.48
257.472
253.246
308.086
251.342
312.137
311.201
261.206
247.325
227.113
229.711
490.547
147.143
237.291
175.144
249.801
207.395
444.667
619.23
301.914
204.929
211.861
326.416
315.605
248.218
256.795
253.64
312.692
311.896
261.529
313.831
259.793
258.928
249.158
314.325
312.208
255.186
231.516
158.452
161.916
228.663
148.348
237.6
160.901
205.801
141.722
150.747
206.795
146.522
199.075
154.136
295.272
310.461
294.954
310.938
296.308
310.378
293.74
296.907
314.494
295.172
313.239
296.735
313.192
295.478
266.767
271.408
242.42
245.981
269.027
241.112
268.713
286.544
307.11
309.44
285.738
285.3
309.051
288.059
289.438
311.478
313.017
290.974
310.837
291.111
289.433
290.963
293.496
310.781
312.074
311.203
292.123
292.16
276.661
275.38
257.128
251.072
273.621
255.313
278.082
293.579
309.222
309.524
288.614
291.678
309.677
290.967
276.689
274.645
256.799
249.895
277.993
254.926
272.996
296.88
311.575
311.646
298.783
297.817
311.09
297.874
295.312
295.05
310.579
311.055
293.918
310.437
296.376
279.294
260.111
260.105
281.501
280.398
258.85
280.436
272.869
245.4
267.919
248.973
268.75
249.443
271.007
203.672
231.502
196.608
227.74
231.214
200.301
201.758
205.419
225.615
230.42
232.087
201.195
229.596
241.558
179.198
156.712
178.977
147.108
162.504
179.478
178.478
205.277
236.004
235.684
209.588
206.829
234.156
207.97
298.519
315.229
299.37
314.197
298.452
313.764
299.465
276.785
272.875
252.472
251.195
275.332
274.111
255.339
279.635
279.356
255.422
259.474
278.216
280.857
258.148
278.336
253.129
275.842
257.446
278.526
275.708
256.986
298.759
313.423
312.266
299.347
313.042
299.656
298.472
297.179
312.679
295.661
311.684
312.428
296.968
295.875
280.828
261.317
260.416
281.958
281.966
280.901
260.067
292.949
314.129
293.456
313.819
292.899
313.848
294.143
270.605
248.902
272.245
244.427
269.898
272.352
244.513
292.584
314.94
313.87
291.919
292.08
313.966
292.921
293.657
313.129
294.176
312.896
292.972
313.676
294.53
205.06
230.616
201.98
234
200.791
206.054
233.448
204.42
228.69
232.273
199.448
204.535
232.477
199.283
179.707
148.899
179.638
148.309
180.205
179.566
147.875
207.65
237.037
236.273
209.956
209.084
208.461
235.741
619.827
638.409
611.884
621.153
657.713
649.279
628.365
587.639
602.459
613.672
630.662
661.231
642.912
648.484
631.226
674.711
642.249
658.505
644.602
629.407
660.043
666.974
625.589
654.642
652.792
624.401
636.672
665.72
626.814
652.883
624.786
637.237
668.579
639.325
666.161
634.093
678.413
653.348
670.666
647.881
663.5
640.225
582.532
642.765
644.232
648.572
611.639
615.352
607.372
631.208
669.307
638.921
673.923
643.803
650.97
681.935
651.4
680.205
694.716
650.248
692.38
667.475
678.511
650.395
692.201
681.275
669.269
652.435
667.169
678.707
661.447
680.549
649.188
660.46
704.472
673.256
692.05
687.11
675.042
657.578
665.299
709.513
683.132
695.262
675.207
717.018
706.437
719.094
688.545
693.071
705.078
700.075
678.898
577.46
676.365
677.126
680.489
700.571
579.194
668.111
680.944
670.245
680.822
679.27
687.215
688.764
670.265
678.7
668.026
681.937
679.565
687.301
689.195
690.881
697.993
689.13
693.675
699.694
695.02
698.389
697.993
691.865
689.354
693.798
700.194
695.608
698.464
676.805
616.162
613.742
676.468
603.919
676.194
606.099
676.391
615.699
616.761
676.696
605.804
677.137
606.629
673.322
666.386
591.94
579.603
672.699
667.219
594.064
673.633
580.094
593.747
667.584
673.868
667.542
594.566
670.255
550.624
706.536
725.645
679.152
691.035
705.91
576.286
601.76
737.351
612.502
669.824
678.643
686.561
699.391
629.794
648.988
679.104
683.462
643.096
672.961
628.094
630.054
641.046
673.292
670.799
674.938
697.064
705.471
536.606
732.745
551.061
722.902
738.042
472.034
536.675
710.278
663.928
525.542
735.871
650.239
661.028
662.018
663.905
673.846
673.037
664.785
640.334
638.079
640.357
658.227
656.458
658.246
660.256
638.099
642.687
640.092
658.134
656.196
657.731
659.298
656.476
672.39
659.39
649.571
646.389
662.481
664.892
673.714
675.763
664.264
655.138
665.843
677.018
668.305
658.201
669.246
655.991
648.301
645.854
661.783
663.182
688.014
674.265
675.299
684.043
691.934
692.95
683.209
697.096
691.783
685.147
691.412
678.546
686.826
695.552
683.87
684.97
675.785
687.116
694.204
693.006
697.558
711.38
703.208
704.005
697.361
693.628
702.45
702.189
699.01
706.208
708.298
698.574
699.883
705.001
703.635
697.052
712.262
703.612
703.274
698.963
702.6
706.259
708.146
702.838
717.633
712.448
702.495
707.454
709.883
710.032
709.2
718.729
718.882
710.883
706.079
708.67
720.213
708.132
714.021
722.871
728.35
711.664
712.251
715.096
725.178
717.195
708.35
707.087
708.178
707.027
732.239
709.48
711.208
726.603
733.759
710.694
705.271
726.08
729.129
721.383
710.487
709.89
709.663
712.093
730.626
738.225
735.172
707.797
712.387
710.579
702.535
671.866
676.286
627.469
627.965
676.365
625.517
671.621
669.226
629.411
669.087
669.229
626.99
669.501
628.084
630.043
669.585
669.055
669.153
628.372
669.398
628.554
680.518
610.647
681.227
621.087
680.748
680.804
619.139
675.956
616.065
620.643
677.251
625.344
621.8
672.564
674.087
623.367
621.343
670.268
625.337
670.968
626.501
672.712
622.969
623.86
670.001
626.372
670.152
626.821
732.267
737.553
738.48
705.355
678.801
695.382
693.092
678.528
608.421
613.05
603.311
677.578
676.843
598.313
679.897
600.714
609.531
680.355
606.869
680.094
615.332
675.48
678.248
591.997
580.77
601.379
674.462
590.738
599.876
678.821
678.327
673.004
588.321
673.568
586.398
591.097
666.889
673.683
671.964
570.497
664.318
585.73
589.45
595.982
677.344
671.643
575.426
582.334
668.421
652.176
662.77
567.092
668.386
561.851
659.483
577.644
670.535
580.2
568.398
565.646
662.828
654.558
553.183
662.254
558.021
642.482
544.396
647.818
565.324
658.092
664.115
571.599
548.976
651.435
650.392
664.839
569.611
641.928
654.698
554.047
643.149
519.391
627.783
537.929
547.653
633.706
651.035
640.726
511.278
621.25
534.359
626.817
585.111
498.091
493.616
608.981
605.18
517.989
704.359
714.801
695.008
560.375
584.889
685.154
573.08
677.29
675.239
690.285
682.008
684.992
690.798
692.005
695.692
709.495
694.919
700.243
702.009
697.661
700.441
704.141
689.376
699.207
697.493
705.042
697.525
699.195
702.522
720.351
712.879
706.377
703.056
705.954
705.229
705.612
676.768
609.645
603.617
599.848
675.615
673.803
593.531
573.843
670.332
664.926
674.532
595.394
670.305
584.872
664.55
587.758
671.425
668.639
566.007
660.84
581.094
657.282
646.535
544.11
663.997
556.314
654.917
571.933
676.493
593.542
679.296
690.335
677.464
649.534
676.219
626.519
665.341
683.945
673.427
656.146
665.345
670.111
677.459
646.328
656.415
659.358
662.438
669.769
664.861
672.351
687.218
680.833
668.128
670.285
678.886
680.951
688.763
682.087
695.719
690.83
685.007
675.308
685.196
692.011
677.604
617.497
611.477
622.832
673.216
676.211
617.497
670.258
623.407
625.338
672.937
670.952
674.057
621.354
606.155
603.936
676.206
616.214
676.363
676.803
613.753
599.852
675.629
673.83
676.782
603.617
677.298
609.643
373.308
287.926
287.926
287.926
287.926
591.956
305.398
288.283
557.453
317.252
313.755
287.93
602.14
477.925
491.263
544.027
531.234
417.161
401.71
576.946
435.73
459.487
490.035
513.286
380.795
355.538
288.358
287.929
287.926
287.926
287.926
287.926
287.926
287.926
287.926
287.926
313.559
288.153
353.628
485.57
528.736
289.122
304.638
383.688
287.926
287.926
287.926
287.926
609.63
309.252
288.374
288.36
382.214
550.684
308.755
292.589
324.155
415.965
287.926
287.927
287.956
288.509
607.591
502.486
499.228
551.459
554.384
430.909
426.775
607.252
425.68
498.572
609.57
502.352
554.204
430.589
542.404
601.27
590.453
415.043
489.839
475.688
398.506
509.913
554.774
574.836
431.511
456.372
376.563
350.596
454.789
498.888
529.927
400.198
362.911
324.044
304.063
476.016
296.431
341.989
387.796
480.827
346.54
297.479
294.961
467.756
334.879
357.31
452.261
323.26
292.87
448.735
370.655
465.432
292.471
294.58
333.006
320.93
296.695
477.218
343.09
388.304
481.168
346.95
297.594
287.927
288.227
287.926
287.926
287.927
288.252
287.926
293.992
289.029
366.712
294.53
370.633
311.206
289.137
365.842
289.002
293.874
294.483
370.35
311.005
289.125
287.927
288.173
287.926
287.926
288.04
287.926
287.926
292.933
288.819
358.193
345.459
291.6
300.569
288.564
287.926
287.926
287.927
288.163
287.926
288.031
287.926
356.592
288.778
292.747
291.387
343.188
299.724
288.52
369.569
409.233
459.248
301.379
325.876
293.918
289.813
402.941
337.354
430.669
310.971
289.513
300.765
290.946
329.781
289.265
290.297
295.999
288.149
292.515
288.328
396.791
333.109
425.875
289.29
290.612
308.779
299.167
311.304
290.1
327.049
295.279
288.122
291.992
288.291
766.094
685.642
612.152
685.312
767.173
686.492
513.955
675.796
740.51
734.577
763.505
732.381
738.387
705.894
707.593
764.175
741.97
735.71
733.062
739.179
706.495
708.683
666.896
710.948
686.774
684.303
709.353
685.477
667.001
703.113
675.511
642.125
675.506
701.513
684.411
643.468
684.725
712.25
710.019
685.879
666.814
667.045
687.535
675.678
703.965
702.012
684.723
641.814
685.88
643.418
594.476
768.878
709.993
434.782
671.059
487.183
753.004
689.353
668.506
668.11
491.719
630.515
355.063
612.734
689.902
544.058
768.06
743.126
736.789
741.229
734.93
709.327
707.137
763.19
722.349
717.388
734.387
728.469
701.141
692.242
703.595
719.792
690.442
737.99
706.825
682.492
672.626
685.272
712.707
687.159
664.493
688.173
686.298
658.35
702.916
673.953
704.691
637.117
685.841
682.913
627.887
692.004
702.617
679.707
680.85
632.7
647.756
672.168
644.936
658.701
697.573
675.928
596.037
665.221
614.071
678.066
682.733
700.587
676.718
667.094
661.289
644.717
586.993
644.805
659.791
671.304
681.19
660.308
644.558
573.153
605.523
627.39
667.257
679.465
650.921
632.455
515.25
660.619
589.576
661.214
518.834
614.305
592.079
588.708
611.223
660.431
661.217
518.478
614.06
591.86
568.375
503.73
581.2
604.457
657.245
592.582
649.978
624.288
647.36
661.412
507.134
592.604
552.781
623.078
651.685
577.497
540.862
575.004
457.839
506.699
607.923
527.24
464.287
550.384
575.521
553.208
638.052
621.623
459.321
398.071
497.686
524.736
487.661
600.667
573.756
380.479
439.376
355.647
296.311
316.355
411.121
538.414
327.047
362.367
299.73
288.529
293.243
290.067
288.157
287.926
287.926
287.926
287.93
287.926
287.954
287.926
299.813
288.176
293.173
288.018
289.86
288.719
287.964
292.442
289.46
302.641
288.656
287.948
288.143
288.002
287.948
291.379
288.095
291.724
287.951
288.421
288.112
291.283
287.948
288.09
291.683
287.95
288.414
288.11
287.944
290.702
288.062
289.875
287.938
288.021
288.174
288.263
290.56
287.943
287.937
288.055
289.725
288.014
288.567
288.019
289.917
288.211
287.93
288.014
287.939
288.005
289.124
287.933
287.957
288.574
287.985
288.076
287.994
288.059
287.932
289.001
287.953
288.49
287.979
330.048
359.391
633.893
609.234
645.052
701.262
413.543
452.735
718.124
698.424
717.494
664.386
658.618
634.287
626.478
705.359
680.144
691.477
713.579
648.438
614.207
597.936
677.005
671.864
637.511
549.571
596.611
586.975
538.229
625.429
648.862
662.404
502.081
522.307
554.609
572.814
569.122
442.213
559.862
407.474
530.37
520.046
395.55
408.065
487.095
529.25
427.352
546.419
505.549
379.248
304.603