/*--------------------------------*- C++ -*----------------------------------*\
  =========                 |
  \\      /  F ield         | OpenFOAM: The Open Source CFD Toolbox
   \\    /   O peration     | Website:  https://openfoam.org
    \\  /    A nd           | Version:  9
     \\/     M anipulation  |
\*---------------------------------------------------------------------------*/
FoamFile
{
    format      ascii;
    class       volVectorField;
    location    "0.00175";
    object      U;
}
// * * * * * * * * * * * * * * * * * * * * * * * * * * * * * * * * * * * * * //

dimensions      [0 1 -1 0 0 0 0];

internalField   nonuniform List<vector> 
13107
(
(183.041 -563.625 490.009)
(-374.127 215.828 275.742)
(78.304 -563.632 487.828)
(173.141 -540.432 218.316)
(73.4519 -538.591 214.217)
(168.801 -691.072 74.7612)
(22.6822 -440.749 276.538)
(30.4893 -691.588 75.1927)
(11.0777 -556.307 408.411)
(-170.237 51.8215 273.562)
(55.3362 -395.648 494.511)
(73.0638 -552.785 602.235)
(-95.4803 -249.511 226.912)
(-25.4362 -270.902 243.735)
(-267.21 115.644 271.681)
(-95.1012 282.19 201.421)
(25.7499 -559.102 488.195)
(72.5176 -545.071 354.216)
(24.8813 -542.354 354.488)
(28.8421 -613.354 496.436)
(75.0921 -599.894 360.851)
(25.5722 -596.698 360.797)
(75.2799 -619.516 491.125)
(25.9189 -562.789 615.503)
(82.2737 -576.003 596.087)
(29.8192 -573.473 599.307)
(21.1335 -593.594 578.311)
(-3.3943 -429.386 493.742)
(-5.02051 -400.445 470.494)
(59.5037 -579.514 563.718)
(133.332 -561.895 486.159)
(173.593 -546.729 356.301)
(121.625 -546.464 353.38)
(127.412 -602.181 364.354)
(151.577 -577.438 474.504)
(177.104 -599.825 368.92)
(120.667 -609.725 487.029)
(72.8468 -540.252 70.7531)
(24.5401 -534.956 70.8658)
(24.9371 -534.204 215.006)
(72.525 -590.208 223.22)
(25.2155 -587.747 72.9445)
(25.4346 -586.839 222.717)
(71.6259 -591.923 72.6382)
(-80.6257 43.432 282.125)
(3.85046 -371.561 482.821)
(1.32272 -403.334 500.258)
(-148.778 411.256 190.581)
(-84.2882 77.7158 302.275)
(-177.91 63.1091 316.549)
(-279.138 345.805 209.119)
(92.0285 -505.171 570.781)
(155.787 -534.431 563.978)
(127.675 -567.052 588.069)
(-51.5589 -298.815 410.503)
(77.6504 -465.498 461.941)
(83.2105 -541.317 536.222)
(-116.845 -179.303 360.509)
(-302.325 149.143 270.186)
(-208.239 -30.1369 365.357)
(-74.0874 -238.406 424.033)
(-269.915 91.6748 324.644)
(-384.258 230.217 258.415)
(-309.283 103.362 328.637)
(-361.751 290.558 234.308)
(123.818 -539.57 214.105)
(173.507 -541.931 71.4832)
(123.389 -540.943 70.7689)
(120.473 -590.69 224.556)
(169.507 -592.891 72.461)
(169.483 -590.838 221.31)
(120.174 -592.331 72.547)
(2.86591 -493.289 469.115)
(-76.7384 59.9812 210.975)
(-54.6463 -91.5401 269.376)
(-114.446 -108.964 291.349)
(-57.2246 -276.137 239.159)
(-138.633 10.1667 255.54)
(9.14527 -470.635 441.404)
(21.7228 -621.987 478.806)
(78.426 -653.153 367.739)
(24.0059 -536.067 389.702)
(26.513 -670.724 351.238)
(63.8554 -662.137 347.869)
(29.9805 -652.226 372.338)
(57.6717 -612.69 470.526)
(120.859 -649.099 359.727)
(94.1616 -533.364 414.239)
(117.666 -606.488 306.964)
(29.0295 -495.301 344.77)
(96.8599 -642.907 333.111)
(155.097 -629.677 350.298)
(88.1844 -587.074 454.334)
(73.7143 -641.715 220.449)
(29.5793 -639.707 72.1053)
(75.5683 -694.583 74.7799)
(31.5139 -690.943 225.716)
(78.9212 -691.904 224.637)
(28.387 -638.512 222.939)
(77.7219 -642.938 72.4541)
(-168.808 -86.9653 308.583)
(-33.7309 -330.369 299.125)
(-82.3487 -259.873 226.198)
(-184.193 -71.6931 320.185)
(-179.878 -34.7005 296.452)
(-7.38892 -405.666 373.944)
(-189.732 -79.6119 321.085)
(-137.732 408.701 176.359)
(-98.4948 223.082 254.913)
(-122.888 287.691 242.863)
(-223.155 218.241 280.407)
(-181.46 242.612 223.873)
(-178.754 179.253 285.077)
(-248.185 340.273 198.359)
(123.181 -641.735 217.543)
(175.172 -643.068 73.6816)
(159.358 -678.973 212.426)
(123.376 -695.923 74.7806)
(121.788 -688.24 222.766)
(172.918 -639.146 220.053)
(126.524 -643.401 72.3525)
(-289.403 153.721 308.07)
(-332.745 176.598 261.502)
(-254.327 65.3658 327.828)
(-245.006 178.335 249.187)
(-237.144 121.417 311.163)
(-300.609 98.4456 328.483)
(-317.037 254.927 229.647)
(185.505 -333.597 282.475)
(-383.157 216.321 283.752)
(215.195 -541.794 482.31)
(366.705 -536.395 75.3637)
(221.618 -540.717 223.843)
(282.397 -594.784 65.5335)
(70.9047 -336.484 120.162)
(212.16 -683.218 74.0757)
(15.1928 -401.619 197.823)
(-252.97 145.28 317.296)
(43.9639 -186.851 283.705)
(-32.4902 -226.318 400.891)
(-16.8718 -212.401 212.537)
(-85.7224 -247.182 236.539)
(-147.163 26.6848 297.034)
(-251.38 74.197 285.107)
(226.682 -548.949 366.432)
(229.226 -490.236 460.799)
(272.222 -545.959 360.799)
(164.656 -522.158 447.163)
(216.288 -591.014 356.954)
(239.257 -558.023 340.17)
(151.17 -444.907 373.693)
(155.39 -465.299 507.579)
(109.74 -348.176 400.396)
(-98.7399 -104.133 359.195)
(39.3842 -354.731 360.793)
(-154.298 -105.124 344.324)
(-157.754 -80.5615 345.602)
(2.68416 -265.825 290.788)
(-276.208 74.4105 348.28)
(-351.633 188.141 294.285)
(-279.678 93.6442 351.082)
(-358.121 175.838 277.531)
(-306.039 87.8952 342.555)
(-278.13 69.6494 356.095)
(-319.632 136.226 297.2)
(223.093 -542.175 72.827)
(272.54 -542.215 71.9854)
(270.133 -538.657 216.854)
(220.052 -592.525 71.8531)
(220.243 -589.737 216.115)
(267.049 -584.475 222.963)
(270.319 -591.566 74.2465)
(211.794 -414.861 392.531)
(299.415 -462.771 311.773)
(297.34 -516.859 345.615)
(242.869 -504.097 303.063)
(127.652 -317.261 188.583)
(235.458 -440.223 235.076)
(131.239 -367.76 266.565)
(-99.0882 -34.0244 352.777)
(60.0803 -242.564 313.194)
(-117.185 -58.6052 349.545)
(-137.197 -69.0484 348.676)
(13.5009 -197.201 262.676)
(-6.26675 -220.921 276.011)
(-103.191 -56.6644 343.589)
(86.7478 -455.723 338.627)
(121.189 -552.606 261.978)
(179.342 -590.812 330.136)
(182.703 -536.311 288.239)
(23.0357 -371.328 153.341)
(123.363 -496.079 195.979)
(72.7693 -393.199 239.159)
(-56.1725 -271.447 261.466)
(-174.441 -93.7636 328.728)
(-185.248 -83.3249 335.824)
(-164.159 -89.5989 341.931)
(-64.3703 -247.475 239.273)
(-150.407 -100.652 325.268)
(-51.7801 -242.873 264.076)
(357.222 -525.007 215.991)
(321.705 -541.744 74.9987)
(317.493 -534.416 221.836)
(303.158 -572.484 213.887)
(355.106 -574.791 71.4313)
(324.162 -540.514 191.088)
(316.176 -586.382 74.713)
(222.378 -641.351 74.6544)
(190.026 -654.69 201.005)
(215.58 -634.908 221.167)
(247.219 -617.276 210.492)
(247.253 -668.096 71.0018)
(209.156 -617.934 176.426)
(265.968 -635.577 75.4237)
(-303.744 161.487 307.046)
(-209.026 91.5032 366.361)
(-251.759 94.1809 363.33)
(-237.983 59.1249 359.1)
(-223.643 103.072 311.88)
(-192.004 56.6977 354.622)
(-275.128 113.62 308.553)
(-308.021 122.594 283.922)
(-238.376 28.3512 334.851)
(-282.01 61.2579 343.579)
(-250.683 37.8199 348.643)
(-228.131 49.6958 293.638)
(-210.357 9.4643 334.128)
(-278.022 90.5271 296.522)
(179.401 -474.165 220.663)
(90.338 -321.488 146.016)
(146.963 -421.215 54.9143)
(44.2806 -350.768 134.305)
(132.887 -455.09 118.255)
(185.758 -425.134 137.461)
(74.4692 -349.8 174.654)
(-134.14 -84.1003 336.045)
(-3.87068 -208.92 239.373)
(-38.6506 -235.114 229.647)
(-92.5526 -83.6155 293.414)
(-124.543 -94.8414 309.301)
(-30.3171 -229.728 254.887)
(-103.224 -70.426 319.602)
(267.115 -582.864 186.586)
(326.721 -596.25 69.4259)
(221.398 -523.568 84.6312)
(269.966 -638.856 67.211)
(214.935 -570.286 137.478)
(272.782 -534.944 148.56)
(302.228 -622.65 72.5126)
(-211.486 28.9988 345.486)
(-187.55 65.1025 306.801)
(-134.077 -2.59975 317.974)
(-191.81 34.6443 298.39)
(-176.109 0.276634 326.941)
(-166.303 27.0259 337.362)
(-236.007 74.2131 302.802)
(-367.239 240.705 191.283)
(-250.848 171.517 -26.4603)
(-141.91 94.9862 53.8002)
(-266.434 195.116 244.925)
(-247.97 288.566 233.743)
(-165.497 179.508 -20.8787)
(-130.102 114.143 14.9109)
(258.683 -375.414 379.176)
(264.969 -380.488 340.609)
(257.86 -314.462 322.762)
(167.654 -330.591 316.515)
(186.776 -236.44 308.639)
(-101.84 17.851 262.522)
(88.069 -225.399 271.155)
(-155.888 91.9405 146.701)
(-201.903 53.906 239.197)
(-361.772 244.379 203.049)
(-327.585 237.898 218.255)
(-314.226 213.851 65.0291)
(-223.265 120.34 100.5)
(-291.644 217.723 98.0604)
(-311.29 205.23 107.909)
(-32.102 36.2022 270.179)
(-228.469 266.01 117.553)
(-98.4484 103.925 163.674)
(-296.021 300.908 223.788)
(-283.749 254.992 231.169)
(-260.334 236.519 115.784)
(-255.134 260.668 128.151)
(123.795 -206.627 303.684)
(-182.89 175.069 -46.4752)
(-51.3289 23.8329 122.642)
(-191.367 178.499 -67.9814)
(-116.464 53.9364 65.1613)
(-204.286 169.648 5.53428)
(-199.73 177.204 -49.244)
(-188.842 123.783 -42.8683)
(-200.411 165.507 -66.7886)
(-225.27 171.907 -30.2564)
(-244.844 185.347 0.43058)
(-182.993 107.698 -1.05756)
(-245.106 154.325 28.6716)
(-193.524 145.422 -28.1075)
(-319.712 218.672 226.442)
(-286.273 252.675 233.981)
(-331.454 268.451 217.746)
(-286.96 230.12 122.547)
(-231.309 168.677 173.094)
(-275.872 183.631 142.912)
(-247.05 217.105 151.583)
(-197.96 226.534 14.2283)
(-189.092 186.872 -43.5989)
(-177.075 181.252 19.3579)
(-224.015 203.563 15.3753)
(-156.926 154.128 14.3227)
(-205.626 208.158 48.0763)
(-184.208 164.481 -18.7699)
(-231.177 180.506 43.4335)
(-168.707 100.404 31.4464)
(-187.729 134.97 108.953)
(-152.724 126.767 39.7462)
(-219.456 142.981 75.3242)
(-198.243 172.198 83.5067)
(-175.435 132.617 11.0535)
(299.042 43.3686 70.1772)
(423.122 34.8152 582.936)
(312.615 56.0928 350.946)
(193.133 46.8549 68.8874)
(226.909 77.7268 475.542)
(197.246 -85.6948 68.5013)
(349.969 -47.8297 70.8517)
(203.107 -83.0681 347.964)
(364.209 -41.1454 353.449)
(270.317 97.7206 574.129)
(256.261 -1141.93 464.525)
(107.548 -917.415 465.932)
(268.458 -94.3508 571.663)
(423.313 -87.5085 577.518)
(315.993 -101.613 616.798)
(445.395 -86.3787 567.573)
(245.776 8.00407 352.534)
(285.884 78.0919 471.129)
(200.952 57.0779 351.397)
(216.922 22.322 474.845)
(192.066 9.9175 352.074)
(275.698 21.1648 474.861)
(254.041 55.1759 349.954)
(226.057 -86.3417 470.413)
(245.191 -37.5313 350.896)
(217.175 -34.055 473.884)
(284.781 -86.5148 466.83)
(254.974 -83.7625 346.356)
(192.199 -36.4131 351.039)
(275.142 -33.608 472.749)
(357.269 36.4124 618.344)
(329.627 91.2173 566.565)
(289.984 41.6323 574.387)
(262.853 36.2552 580.799)
(322.871 36.2696 573.254)
(307.896 41.0443 633.197)
(332.38 -12.4296 533.493)
(305.903 -101.102 627.898)
(356.914 -27.7394 622.464)
(261.918 -32.0238 580.381)
(325.838 -93.7507 565.586)
(321.537 -31.0114 571.436)
(356.902 -98.9514 616.977)
(307.644 -29.1264 634.171)
(193.512 47.9043 214.527)
(243.53 44.3393 69.2364)
(244.289 45.4495 213.828)
(237.749 0.985986 216.257)
(187.708 2.10267 69.3139)
(186.674 3.563 215.589)
(238.204 -0.153055 69.9463)
(196.871 -85.4787 213.187)
(237.014 -42.7475 215.443)
(188.046 -40.6375 69.1338)
(245.415 -87.8829 68.848)
(245.716 -87.064 212.432)
(186.763 -40.4797 215.019)
(237.647 -43.0442 69.6807)
(179.18 -1057.55 462.951)
(261.592 -493.456 417.186)
(212.853 -339.375 455.977)
(353.47 -37.7232 557.062)
(238.103 -273.159 490.069)
(309.814 2.22133 595.694)
(284.283 -429.456 456.896)
(307.327 -96.8121 525.094)
(366.24 -31.5103 598.712)
(304.215 -44.8358 522.431)
(355.048 -93.479 479.728)
(366.139 -98.3445 594.966)
(317.5 -29.594 621.799)
(351.293 -59.1241 482.747)
(372.292 56.2193 353.682)
(366.064 5.98601 355.362)
(394.646 19.6402 482.662)
(398.813 77.0728 479.848)
(344.548 78.4714 471.524)
(304.507 7.98018 353.335)
(337.58 21.3402 474.767)
(370.791 -89.5142 349.076)
(397.189 -87.3077 476.328)
(392.841 -34.292 480.123)
(303.252 -37.7737 351.46)
(343.288 -85.3424 467.57)
(312.181 -84.7278 346.735)
(336.264 -32.2966 472.229)
(421.354 -28.3383 580.778)
(439.715 -87.8439 613.43)
(439.695 -24.4749 616.221)
(399.704 -26.3006 611.532)
(377.786 -90.3935 564.55)
(375.07 -29.0374 569.061)
(399.931 -94.4096 606.05)
(440.536 28.2169 607.961)
(429.137 -88.0803 501.359)
(378.857 -64.5087 500.339)
(426.703 76.4144 570.974)
(381.272 83.6104 560.9)
(399.913 31.8607 604.48)
(376.617 36.5898 571.369)
(299.41 44.5094 215.055)
(357.287 42.5697 70.5975)
(357.259 43.6479 215.901)
(352.012 -3.65759 71.1679)
(351.987 -2.80625 217.626)
(293.636 -0.326038 217.183)
(293.536 -1.1372 70.8492)
(349.828 -47.1095 216.666)
(355.629 -93.3032 69.9583)
(355.448 -92.2484 213.486)
(292.084 -43.543 216.213)
(298.869 -88.533 69.6748)
(299.172 -87.7641 213.179)
(292.056 -44.1152 70.5223)
(353.546 -1164.65 468.737)
(442.051 -94.5121 511.465)
(422.159 -554.591 425.609)
(394.62 -642.33 391.365)
(319.125 -604.323 393.176)
(392.355 -82.1526 521.306)
(340.718 -537.984 435.109)
(445.519 -30.6674 567.635)
(442.447 -85.833 409.606)
(441.914 -75.2588 410.311)
(404.581 -33.0241 575.353)
(394.711 -94.5033 434.245)
(404.434 -94.2789 571.516)
(391.909 -76.8196 438.912)
(368.519 -286.362 214.016)
(408.708 -297.383 605.988)
(394.683 -296.957 479.183)
(258.746 -279.505 69.602)
(273.274 -288.549 338.417)
(199.903 -177.54 67.5702)
(358.878 -140.988 69.8425)
(210.03 -179.476 338.691)
(397.745 -193.078 477.492)
(312.363 -313.353 561.855)
(152.845 -48.898 349.796)
(275.776 -328.246 412.848)
(271.4 -214.727 560.985)
(417.368 -198.317 579.384)
(305.48 -235.169 591.227)
(433.131 -203.582 561.738)
(205.929 -130.44 343.03)
(237.127 -193.74 459.381)
(232.649 -139.782 462.14)
(264.583 -182.618 340.216)
(289.615 -140.749 463.88)
(259.695 -132.87 342.315)
(291.424 -193.94 463.63)
(271.27 -155.818 561.229)
(298.326 -231.352 613.942)
(301.957 -168.41 617.437)
(347.244 -224.271 610.038)
(325.728 -153.978 564.526)
(323.171 -210.666 565.06)
(353.582 -164.51 612.979)
(198.784 -176.135 207.486)
(197.396 -132.209 67.9846)
(197.044 -131.195 210.408)
(250.151 -178.818 208.714)
(247.093 -134.158 68.3497)
(247.075 -132.854 209.782)
(251.02 -180.422 68.5294)
(310.639 -171.389 602.01)
(294.707 -225.755 474.128)
(301.327 -164.69 501.993)
(353.907 -227.819 576.293)
(350.383 -156.895 460.392)
(361.547 -166.05 585.715)
(343.45 -218.343 439.03)
(218.134 -284.023 336.605)
(293.087 -300.841 462.671)
(239.691 -301.375 455.782)
(214.35 -230.622 337.469)
(238.225 -246.749 461.707)
(269.003 -234.564 337.433)
(293.907 -247.984 456.669)
(264.154 -321.607 552.296)
(323.565 -320.824 598.43)
(279.263 -334.056 592.205)
(267.909 -268.886 564.897)
(291.777 -287.292 612.103)
(336.737 -275.244 590.977)
(320.879 -264.776 552.772)
(398.217 -140.664 475.766)
(321.155 -186.974 340.212)
(374.212 -140.079 347.23)
(346.024 -139.996 465.21)
(376.779 -190.121 346.989)
(317.076 -135.158 343.074)
(347.474 -194.229 461.693)
(422.068 -143.794 578.02)
(428.671 -201.791 611.853)
(436.716 -146.288 612.909)
(389.514 -211.538 594.411)
(377.065 -148.964 562.92)
(374.226 -204.448 558.752)
(396.342 -156.363 602.22)
(206.309 -275.198 69.2603)
(258.808 -279.449 208.762)
(205.377 -274.063 208.469)
(202.414 -224.698 67.7465)
(201.531 -223.149 206.513)
(254.099 -227.298 208.956)
(255.055 -228.283 69.3765)
(304.878 -182.667 210.017)
(362.713 -189.053 69.8812)
(301.828 -135.033 69.3161)
(358.38 -139.768 212.213)
(361.937 -187.624 211.707)
(301.468 -134.615 210.912)
(305.789 -182.342 69.4968)
(327.211 -324.549 404.243)
(326.549 -322.776 554.005)
(283.446 -337.164 552.972)
(298.492 -292.45 580.656)
(286.269 -281.705 446.759)
(340.759 -278.172 549.822)
(330.443 -271.791 407.299)
(436.635 -202.144 399.381)
(440.543 -142.994 406.039)
(442.149 -146.798 565.364)
(393.417 -214.445 549.71)
(392.412 -156.325 419.802)
(400.274 -158.658 563.202)
(387.832 -214.065 400.899)
(411.179 -305.531 584.178)
(413.251 -250.99 578.877)
(423.856 -256.89 610.524)
(359.83 -306.695 574.066)
(370.47 -313.371 607.15)
(376.849 -261.94 602.47)
(365.809 -256.06 567.335)
(378.988 -290.908 349.25)
(396.798 -245.682 479.534)
(326.548 -290.549 347.371)
(344.355 -298.969 474.706)
(325.376 -239.601 339.66)
(378.397 -240.068 351.923)
(346.093 -246.822 466.87)
(368.599 -288.092 71.0872)
(313.537 -284.576 70.6326)
(313.794 -284.63 212.495)
(309.856 -232.913 208.263)
(366.569 -238.248 71.6757)
(365.937 -236.607 215.779)
(310.219 -232.108 69.0776)
(358.355 -247.436 521.703)
(424.156 -253.859 554.306)
(399.23 -227.069 388.744)
(356.997 -297.281 390.256)
(372.256 -313.268 553.219)
(380.055 -264.092 555.764)
(379.438 -267.497 401.518)
(203.86 -328.069 692.403)
(68.8435 -1146.7 714.872)
(252.278 -1282.66 631.257)
(94.2872 -78.4291 195.723)
(439.802 -83.3777 334.835)
(45.0288 21.214 115.631)
(272.977 -87.4042 383.691)
(260.305 -85.7475 456.803)
(59.7748 -1175.97 612.73)
(155.495 -1246.08 621.505)
(159.956 -599.261 496.017)
(236.795 -723.991 512.627)
(176.434 -510.954 550.119)
(258.872 -602.719 576.211)
(173.47 -1202.24 730.841)
(269.604 -86.1578 391.05)
(263.745 -77.5584 388.518)
(327.076 -89.1061 362.097)
(317.962 -109.03 375.82)
(264.153 -58.991 396.559)
(324.021 -73.9222 395.967)
(328.868 -88.2418 387.276)
(114.275 -883.712 775.09)
(256.168 9.48563 550.436)
(227.873 -183.688 530.766)
(296.004 -221.922 550.22)
(277.602 -310.849 661.244)
(219.373 -918.966 795.449)
(310.234 7.88454 539.08)
(366.072 -1276.65 636.853)
(425.588 -743.609 517.207)
(321.283 -778.513 525.038)
(349.059 -613.765 586.44)
(408.459 -1150.86 733.396)
(456.441 -520.681 555.425)
(281.78 -1214.4 742.655)
(439.857 -108.913 351.236)
(381.674 -91.656 350.188)
(375.988 -126.934 370.656)
(385.56 -75.7475 399.921)
(446.861 -83.554 378.613)
(446.28 -60.1492 382.768)
(387.739 -89.4876 388.984)
(258.232 -85.3919 543.091)
(257.446 -27.8487 542.019)
(258.713 -33.6616 457.048)
(314.501 -35.768 463.109)
(307.243 -81.2868 522.663)
(310.665 -27.1922 529.006)
(316.444 -85.4668 463.882)
(376.678 -191.029 542.709)
(280.938 -205.86 514.409)
(393.015 -670.129 644.873)
(116.517 8.21079 183.351)
(415.825 -86.5093 467.272)
(331.865 -868.615 774.945)
(294.313 12.6138 439.464)
(375.438 -33.8874 469.276)
(107.967 -3.49207 174.4)
(386.371 -70.449 407.813)
(263.658 -55.2019 395.302)
(408.741 -28.0983 427.562)
(292.925 -22.1634 428.565)
(377.593 -83.9307 466.572)
(-3.40799 97.7495 267.538)
(-174.831 193.375 -53.6771)
(39.5432 -67.807 233.468)
(-50.6789 73.2894 26.0766)
(440.889 -139.75 334.318)
(248.168 -191.303 515.488)
(274.431 -328.757 393.454)
(268.679 -205.614 359.116)
(271.783 -146.762 373.08)
(269.474 -207.586 384.498)
(270.41 -146.804 388.838)
(326.607 -147.928 355.415)
(323.884 -209.685 347.757)
(329.634 -148.917 386.159)
(327.833 -210.631 384.342)
(270.828 -321.679 347.841)
(328.909 -327.64 342.34)
(264.461 -263.494 346.707)
(270.753 -267.993 379.944)
(322.434 -269.227 346.167)
(331.508 -271.525 393.269)
(325.709 -323.129 385.123)
(446.733 -142.258 377.795)
(436.996 -198.032 333.61)
(382.274 -148.285 345.779)
(380.479 -207.173 340.331)
(389.076 -149.308 388.101)
(387.831 -208.558 386.964)
(418.995 -185.383 363.304)
(257.686 -141.881 540.54)
(259.456 -202.828 458.527)
(260.419 -145.069 458.615)
(286.305 -126.699 491.8)
(318.825 -144.892 465.84)
(320.391 -203.031 468.353)
(219.526 -132.003 401.849)
(346.106 -175.942 318.067)
(319.875 -258.401 323.016)
(381.936 -264.222 339.387)
(380.288 -257.862 380.58)
(-74.201 152.284 152.794)
(253.434 -102.981 283.036)
(245.922 -188.901 311.623)
(191.18 -191.813 425.03)
(248.318 -304.395 450.136)
(263.792 -262.023 464.992)
(307.018 -248.509 451.197)
(-104.133 102.429 43.6246)
(70.4671 -46.1866 235.56)
(198.959 -197.575 340.038)
(317.542 -87.8366 345.277)
(185.333 -52.6715 306.443)
(374.004 -140.305 460.396)
(343.464 -180.406 425.626)
(-134.427 141.668 -50.3489)
(175.365 -31.5298 223.604)
(42.293 15.2137 166.575)
(220.407 -132.593 311.696)
(-158.95 203.736 4.99799)
(-173.969 178.604 -48.0538)
(-170.762 182.32 -72.4304)
(-30.1544 104.559 73.8861)
(-105.964 120.269 17.27)
(-13.883 47.1322 126.6)
(268.98 -375.863 402.091)
(-330.423 174.475 299.05)
(238.934 -508.75 484.611)
(395.744 -352.21 482.923)
(375.472 -492.039 74.9607)
(220.09 -490.158 213.124)
(371.346 -338.626 212.096)
(262.81 -332.559 70.4024)
(274.449 -341.014 346.115)
(-272.703 195.744 313.87)
(113.896 -208.618 326.843)
(151.739 -413.762 536.444)
(-176.166 218.118 317.325)
(347.381 -293.264 563.497)
(305.002 -361.598 572.816)
(270.536 -377.979 407.543)
(222.251 -339.348 337.073)
(290.508 -352.163 473.171)
(238.104 -353.864 462.955)
(222.976 -391.861 349.224)
(236.955 -404.628 476.51)
(275.369 -392.782 347.543)
(288.838 -402.289 477.623)
(255.279 -368.054 563.604)
(315.14 -369.212 607.059)
(265.524 -376.086 601.496)
(250.062 -415.552 576.653)
(259.882 -423.636 611.78)
(299.277 -408.052 606.796)
(304.181 -413.629 583.153)
(208.479 -328.868 68.9319)
(263.222 -332.738 211.719)
(209.633 -328.382 207.117)
(215.357 -383.525 71.1536)
(214.173 -382.895 214.077)
(265.889 -386.072 212.987)
(267.378 -386.279 70.8289)
(299.347 -354.372 392.789)
(316.295 -369.812 554.551)
(268.702 -378.259 557.866)
(257.983 -422.455 559.727)
(228.696 -395.146 396.941)
(250.244 -356.147 524.644)
(48.5045 -146.75 351.003)
(378.673 -341.363 349.84)
(327.072 -341.896 348.049)
(341.611 -349.637 478.191)
(326.884 -392.369 348.814)
(386.131 -394.247 482.775)
(380.134 -393.317 357.997)
(344.02 -403.541 481.828)
(394.899 -342.759 579.748)
(357.706 -359.931 582.829)
(355.317 -354.306 606.525)
(294.182 -346.775 563.772)
(342.644 -344.578 546.462)
(174.954 -174.342 455.648)
(341.265 -396.943 579.32)
(224.967 -494.802 351.164)
(225.498 -444.172 345.567)
(236.784 -456.094 476.061)
(276.628 -444.09 348.143)
(277.838 -496.571 482.805)
(278.321 -497.583 360.653)
(292.303 -455.322 481.028)
(223.68 -498.76 573.315)
(250.652 -467.754 584.622)
(240.735 -457.298 604.64)
(231.324 -389.776 556.14)
(224.453 -437.339 532.339)
(47.9648 -237.5 431.294)
(284.994 -449.56 576.754)
(371.957 -339.637 70.3724)
(317.418 -337.072 70.7962)
(317.06 -336.305 213.104)
(319.317 -389.055 211.524)
(373.533 -391.77 71.9419)
(371.995 -390.413 220.084)
(320.282 -390.034 70.2208)
(121.88 -71.1121 430.952)
(124.983 -122.449 352.59)
(311.469 -309.183 525.752)
(73.3939 -119.697 431.231)
(-274.509 276.835 313.331)
(-119.241 120.579 370.533)
(-215.42 179.493 315.995)
(-100.715 -109.235 400.018)
(174.512 -381.766 515.441)
(-67.3555 -113.857 340.757)
(-3.26313 -134.507 420.919)
(-354.978 220.95 300.586)
(-221.771 70.6121 360.817)
(-270.834 164.515 310.485)
(221.528 -490.876 70.3715)
(216.585 -438.246 70.1763)
(216.849 -437.232 211.316)
(270.49 -439.454 210.959)
(273.569 -491.555 72.0192)
(271.07 -489.971 221.408)
(270.055 -439.859 69.9173)
(329.676 -444.506 357.704)
(287.937 -449.534 466.291)
(343.268 -402.571 468.563)
(352.793 -469.293 348.218)
(326.683 -495.127 363.748)
(378.882 -443.435 364.916)
(333.072 -445.597 481.411)
(117.328 -216.082 449.547)
(-69.8331 -22.5217 351.137)
(176.161 -323.323 424.307)
(232.458 -284.239 435.141)
(-41.7899 -85.604 368.859)
(10.4591 -53.0933 374.845)
(286.921 -394.652 543.381)
(322.621 -440.245 219.889)
(368.109 -484.879 221.963)
(325.003 -492.548 71.5391)
(375.678 -442.633 71.4895)
(320.867 -489.016 216.893)
(372.801 -439.574 216.794)
(323.414 -441.967 71.8372)
(-166.159 87.8309 367.719)
(-323.134 213.631 304.657)
(-214.598 129.206 367.194)
(-285.786 248.348 309.959)
(-239.259 116.471 356.89)
(-194.659 152.833 359.203)
(-314.508 243.339 309.512)
(8.28391 -87.7683 213.754)
(75.8963 -90.0632 254.001)
(47.4826 -89.0895 234.05)
(12.6952 -53.9572 52.6256)
(2.18286 -45.2288 12.8004)
(23.4569 -91.3393 112.604)
(49.418 -129.099 274.599)
(4.48719 -85.0698 83.8164)
(8.35421 -123.652 257.362)
(97.2826 -98.7108 230.668)
(45.5952 -55.6031 104.506)
(22.2717 -55.0255 71.2186)
(89.3661 -114.008 190.902)
(32.6757 -91.9475 122.211)
(101.243 -126.631 244.509)
(63.3918 -130.294 281.361)
(5.95203 -48.6301 19.2667)
(2.89175 -58.2742 40.1836)
(6.24133 -61.443 46.4838)
(6.01706 -72.3478 81.5079)
(15.6455 -74.5566 86.9886)
(15.7482 -86.7312 109.725)
(6.22641 -83.9065 104.362)
(7.35285 -52.6622 33.8675)
(16.4657 -65.6008 75.4692)
(9.55369 -64.5828 59.454)
(32.6709 -76.5234 113.247)
(23.0365 -76.2582 99.0344)
(24.1819 -88.3983 120.193)
(34.0382 -88.1544 132.645)
(33.2472 -54.5309 89.1257)
(25.5884 -65.5327 91.579)
(44.4372 -76.3882 127.676)
(36.0768 -65.9446 105.914)
(56.766 -75.6246 142.72)
(45.6949 -87.5039 145.701)
(58.2047 -87.5955 158.417)
(3.83304 -71.5358 63.5809)
(9.88648 -87.6702 90.3197)
(8.37443 -74.4044 70.0994)
(15.7783 -97.3436 130.481)
(6.56349 -104.727 143.019)
(15.873 -107.338 148.92)
(6.37929 -94.9168 124.614)
(20.3927 -77.9861 95.5322)
(15.1632 -89.8831 101.585)
(12.812 -76.9171 82.0911)
(24.9646 -98.9015 140.042)
(36.6316 -110.31 166.617)
(25.4637 -109.08 157.835)
(35.6079 -99.1332 150.677)
(59.0813 -56.3955 116.375)
(61.7577 -68.4504 123.552)
(47.7925 -66.6945 117.322)
(83.0494 -75.5614 168.618)
(69.9252 -75.9106 156.714)
(70.794 -87.7027 169.548)
(84.3393 -88.0566 176.953)
(21.3782 -88.4165 217.96)
(7.5623 -83.9948 148.909)
(19.4004 -84.9243 153.688)
(19.5725 -96.6996 172.654)
(8.41537 -99.1967 229.07)
(7.70439 -94.743 167.743)
(21.6115 -100.721 233.555)
(28.8194 -78.0498 108.661)
(43.8242 -92.5452 128.347)
(39.1445 -78.73 118.66)
(48.2266 -111.076 175.335)
(46.9359 -99.004 161.853)
(59.0589 -99.6186 171.443)
(61.1357 -112.104 181.683)
(34.06 -88.9588 225.62)
(42.2343 -85.3944 174.334)
(30.2106 -85.4926 163.368)
(31.0588 -98.1208 181.034)
(48.2734 -102.638 248.137)
(34.764 -102.177 240.317)
(43.1695 -98.1432 190.882)
(61.7146 -89.5516 243.251)
(55.6491 -85.4888 185.751)
(69.3447 -85.6346 198.396)
(62.3165 -103.028 256.892)
(56.4802 -98.1341 201.464)
(69.9898 -98.4532 212.599)
(76.1716 -103.445 266.698)
(70.5845 -94.6578 137.252)
(86.0015 -101.031 183.038)
(64.9242 -81.4352 128.971)
(56.3202 -93.4459 132.957)
(51.1947 -80.0394 124.793)
(72.0664 -100.473 178.216)
(74.8938 -113.092 186.49)
(19.2058 -107.934 190.286)
(8.37238 -111.395 243.275)
(21.6226 -125.809 262.446)
(7.68745 -115.909 200.992)
(19.1683 -118.428 206.466)
(7.66094 -105.937 184.806)
(21.469 -113.127 248.324)
(31.1421 -109.396 197.996)
(48.6755 -115.515 261.899)
(44.301 -121.604 220.737)
(35.4239 -127.756 268.399)
(31.3369 -120.291 213.57)
(34.9874 -114.706 254.733)
(43.7583 -109.868 206.615)
(96.4034 -85.2977 222.112)
(105.134 -104.686 284.166)
(103.835 -90.1361 275.67)
(89.8157 -90.2458 265.187)
(83.0423 -85.8413 210.9)
(83.3438 -98.4661 222.949)
(90.2452 -103.861 276.185)
(62.4424 -116.123 269.846)
(57.466 -122.586 228.386)
(56.7439 -110.142 215.994)
(70.0031 -110.787 224.865)
(78.0398 -131.928 287.788)
(71.4586 -123.823 234.761)
(76.4934 -117.045 277.955)
(98.6993 -112.488 237.237)
(107.042 -119.906 291.59)
(109.703 -136.068 299.501)
(84.036 -111.688 231.823)
(93.5814 -133.985 293.587)
(86.1388 -125.293 239.83)
(91.415 -118.408 285.139)
(146.366 49.4382 68.517)
(169.455 73.4811 476.97)
(10.1581 48.0296 69.8096)
(6.31899 81.4296 526.371)
(62.9172 -84.4512 68.3774)
(151.82 -84.0469 68.1951)
(78.8561 -97.8732 315.721)
(154.625 -86.1924 349.704)
(88.9986 8.51635 213.254)
(146.008 51.8157 214.206)
(101.298 51.7885 67.8548)
(139.878 4.53991 68.177)
(137.922 6.88438 213.014)
(98.8401 54.9984 212.94)
(93.5982 7.22365 67.5687)
(89.5446 2.83142 323.905)
(151.739 61.0555 351.52)
(109.733 82.8385 514.012)
(183.932 8.27531 504.092)
(142.884 12.0337 352.282)
(107.759 7.16531 521.677)
(101.548 56.3179 354.36)
(53.3431 -1.38443 251.754)
(57.0681 56.9261 68.2198)
(-1.34194 53.2323 251.802)
(-1.77737 -1.84713 33.9927)
(-2.96192 -3.11269 266.814)
(50.4262 50.2078 215.169)
(48.0682 10.0912 69.7693)
(62.6298 -1.28212 325.835)
(83.319 82.982 513.631)
(-1.23271 62.5329 325.954)
(7.41269 7.37404 553.143)
(-2.11778 -2.29626 342.307)
(81.7785 6.56324 526.177)
(74.8181 74.2025 315.463)
(55.7694 -77.0697 215.322)
(15.9265 -73.6377 69.8262)
(3.23161 -78.0655 253.298)
(55.7002 -22.7158 251.321)
(1.32389 -25.4016 34.161)
(-1.30215 -21.3068 266.938)
(49.8618 -36.7865 69.8518)
(150.259 -84.9482 213.148)
(107.42 -82.5332 67.7105)
(103.406 -84.149 212.469)
(90.7381 -36.0082 213.038)
(140.888 -38.6299 67.9702)
(138.698 -38.6403 212.429)
(94.9591 -37.3118 67.4991)
(2.85771 -84.7112 327.113)
(85.607 -94.4267 512.877)
(8.26225 -93.4157 526.203)
(64.8384 -22.219 325.431)
(8.00014 -18.5028 553.105)
(-0.706152 -20.328 342.461)
(82.229 -17.4593 525.946)
(104.93 -80.3923 353.128)
(170.737 -84.671 473.641)
(111.554 -92.5351 509.815)
(91.419 -26.9091 323.808)
(184.284 -17.2771 503.248)
(143.805 -35.9053 351.409)
(108.216 -17.2846 521.481)
(27.1185 48.2785 464.419)
(30.6848 78.5977 521.418)
(2.54968 74.5406 463.171)
(7.43213 57.5575 535.7)
(3.88976 51.4014 471.832)
(32.3973 54.5124 528.343)
(25.3208 71.6251 459.614)
(48.8478 -65.8716 395.752)
(49.2495 -91.4397 321.733)
(73.8604 -90.4844 389.682)
(71.9257 -68.7146 321.508)
(50.4469 -85.2423 392.137)
(48.7421 -68.3097 326.356)
(68.2593 -66.7921 391.907)
(112.733 26.2972 387.325)
(112.912 3.69477 316.247)
(92.4934 0.235884 392.831)
(85.3773 27.2697 321.355)
(115.572 33.4162 313.415)
(89.2407 18.546 389.913)
(111.643 2.28474 388.444)
(132.32 58.018 446.054)
(135.69 86.4919 508.943)
(109.863 56.4589 515.263)
(105.348 87.4889 449.559)
(133.094 59.6322 510.61)
(106.522 58.2739 453.824)
(134.55 93.3757 439.494)
(150.082 34.7258 448.985)
(183.309 34.9758 505.051)
(178.877 9.54861 439.848)
(159.419 8.09876 510.621)
(156.754 31.5361 509.933)
(154.628 8.41838 450.538)
(178.957 42.8033 437.086)
(120.836 29.7064 452.596)
(99.7547 4.18425 459.52)
(104.262 30.8367 515.561)
(133.117 8.06215 514.141)
(129.716 34.1594 511.89)
(95.7788 28.9432 454.33)
(125.11 3.96972 453.516)
(39.7891 23.8618 179.902)
(35.6296 -4.23694 253.892)
(54.047 17.9921 252.178)
(64.4637 3.52152 176.805)
(68.777 32.7672 176.444)
(33.9173 11.4094 252.07)
(43.1327 0.409828 181.991)
(23.7958 39.9509 180.049)
(3.65148 64.8389 176.741)
(-4.08802 35.8196 254)
(18.0542 53.7926 252.306)
(0.546434 43.2662 182.111)
(11.243 33.9259 252.089)
(33.0047 68.6455 176.505)
(13.669 13.3891 108.797)
(1.25756 21.8687 33.7037)
(-4.36196 -4.5478 108.762)
(21.6262 1.40177 33.7382)
(-4.48841 13.4487 108.836)
(13.6281 -4.71351 108.897)
(29.5625 29.8833 34.7629)
(15.8265 15.7218 184.67)
(15.3317 -4.63442 261.087)
(-4.46661 15.3487 261.042)
(-2.68442 -2.80483 190.25)
(-4.29072 19.6973 186.758)
(13.2603 13.2461 257.729)
(19.7612 -4.56692 186.827)
(41.9335 22.5831 396.594)
(38.0027 -1.73649 330.496)
(68.0086 0.225549 396.195)
(58.5108 20.7786 325.406)
(64.182 22.1263 394.241)
(35.9033 19.8155 325.245)