/*--------------------------------*- C++ -*----------------------------------*\
  =========                 |
  \\      /  F ield         | OpenFOAM: The Open Source CFD Toolbox
   \\    /   O peration     | Website:  https://openfoam.org
    \\  /    A nd           | Version:  9
     \\/     M anipulation  |
\*---------------------------------------------------------------------------*/
FoamFile
{
    format      ascii;
    class       volScalarField;
    location    "0.0019";
    object      p;
}
// * * * * * * * * * * * * * * * * * * * * * * * * * * * * * * * * * * * * * //

dimensions      [1 -1 -2 0 0 0 0];

internalField   nonuniform List<scalar> 
14247
(
107393
101298
101298
101298
101298
101298
101298
101298
101298
297893
101298
101298
101298
101298
101298
101300
101298
101298
101298
101298
101298
101298
183157
101410
132997
103561
101442
258889
101298
251655
242649
215502
124152
147935
124551
159657
101298
101298
101298
101298
101298
101298
101298
101300
101298
101308
101306
101299
101298
101335
127070
176469
135319
108093
103923
109816
103027
101298
101298
101298
101298
101298
101299
101300
101298
101323
101299
101298
101435
101298
101305
101309
101472
101756
101340
101913
101327
145256
101314
107630
101298
251227
102680
102852
101300
101298
101298
101298
101298
101298
101298
101298
101298
101298
101298
101298
101298
101298
101298
101298
101298
101298
101298
101298
101298
101298
101298
101298
101298
101298
101298
101298
101298
101298
101298
101298
101298
101298
101298
101298
101298
101298
101298
101298
101298
101298
101298
101298
101298
101298
101298
101298
101298
101298
101298
101298
101298
101298
101298
101298
101298
101298
101298
101298
101298
101298
101298
101298
101298
101298
101298
101298
101298
101298
101298
101298
101298
101298
101298
101298
101298
101298
101298
101298
101298
101298
101298
101298
101298
101298
101298
101298
101298
101298
101298
101298
101298
101298
101298
101298
101298
101298
101298
101298
101298
101298
101298
101298
101298
101298
101298
101298
101298
101298
101298
101298
101298
101298
101298
101298
101298
101298
101298
101298
101298
101298
101298
101298
101298
101298
101298
101298
101298
101298
101298
101298
101298
101298
101298
101298
101298
101298
101298
101298
101298
101298
101298
101298
101298
101298
101298
101298
101298
101298
101298
101298
101298
101298
101298
101298
101298
101298
101298
101298
101298
101298
101298
101298
101298
101298
101298
101298
101298
101298
101298
101298
101298
101298
101299
101298
101298
101298
101298
101298
101298
101298
101298
101298
101298
101298
101298
101298
101298
101298
101298
101298
101298
101298
101298
101298
101298
101298
101298
101298
101298
101298
101298
101298
101298
101298
101298
101298
101298
101298
101298
101298
101298
101298
101298
101298
101298
101298
101298
101298
101298
101305
101298
101298
101298
101298
101298
101298
101298
101298
101298
101298
101298
101298
101298
101298
101298
101298
101298
101298
101298
101298
101298
101298
101298
101298
101298
101298
101298
101298
101298
101298
101298
101298
101298
101298
101298
101298
101298
101298
101298
101298
101298
101298
101298
101298
101298
101298
101298
101298
101298
101298
101298
101298
101298
101298
101298
101298
101298
101298
101298
101298
101298
101298
101298
101298
101298
101298
101298
101298
101298
101298
101298
101298
101298
101298
101298
101298
101298
101298
101298
101298
101298
101298
101298
101298
101298
101298
101298
101298
101298
101298
101298
101298
101298
101298
101298
101298
101298
101298
101298
101298
101298
101298
101298
101298
101298
101298
101298
101298
101298
101298
101298
101298
101298
101298
101298
101298
101298
101298
101298
101298
101298
101298
101298
101298
101298
101298
101298
101298
101298
101298
101298
101298
101298
101298
101298
101298
101298
101298
101298
101298
101298
101298
101298
101298
101298
101298
101298
101298
101298
101298
101298
101298
101298
101298
101298
101298
101298
101298
101298
101298
101298
101298
101298
101298
101298
101298
101298
101298
101298
101298
101298
101298
101298
101298
101298
101298
101298
101298
101298
101298
101298
101298
101298
101298
101298
101298
101298
101298
101298
101298
101298
101298
101298
101298
101298
101298
101298
101298
101298
101298
101298
101298
101298
101298
101298
101298
101298
101298
101298
101298
101298
101298
101298
101298
101298
101298
101298
101298
101298
101298
101298
101298
101298
101298
101298
101298
101298
101298
101298
101298
101298
101298
101298
101298
101298
101298
101298
101298
101298
101298
101298
101298
101298
101298
101298
101298
101298
101298
101298
101298
101298
101362
101298
101298
101334
101298
101298
101298
101298
101298
101299
101298
101298
101298
101298
101298
101298
101298
101298
101298
101298
101298
101298
101298
101298
101298
101298
101298
101298
101298
101298
101298
101298
101298
101298
101298
101298
101298
101298
101298
101298
101298
101298
101298
101298
101298
101298
101298
101298
101298
101298
101298
101298
101305
101298
101298
101298
101298
101298
101298
101298
101298
101298
101298
101298
101298
101298
101298
101298
101298
101298
101298
101298
101298
101298
101298
101298
101298
101298
101298
101298
101298
101298
101298
101298
101298
101298
101298
101298
101298
101298
101298
101298
101298
101298
101298
101298
101298
101298
101298
101298
101298
101298
101298
101298
101298
101298
101298
101298
101298
101298
101298
101298
101298
101298
101298
101298
101298
101298
101298
101298
101298
101298
101298
101298
101298
101298
101298
101298
101298
101298
101298
101298
101298
101298
101298
101298
101298
101298
101298
101298
101298
101298
101298
101298
101298
101298
101298
101298
101298
101298
101298
101298
101298
101298
101298
101298
101298
101298
101298
101298
101298
101298
101298
101298
101298
101298
101298
101298
101298
101298
101298
101298
101298
101298
101298
101298
101298
101298
101298
101298
101298
101298
101298
101298
101298
101298
101298
101298
101298
101298
101298
101298
101298
101298
101298
101298
101298
101298
101298
101298
101298
101298
101298
101298
101298
101298
101298
101298
101298
101298
101298
101298
101298
101298
101298
101298
101298
101298
101301
101298
101298
101298
120905
101298
101298
101298
101298
101298
101298
101298
101298
101298
101298
101298
101298
101298
101298
101298
101298
101298
101298
101298
101298
101298
101298
101298
101298
101298
101298
101298
101298
101298
102639
102121
101328
102232
101300
101311
101319
101299
101488
101307
101298
101310
101298
101298
101298
101298
101298
101298
101298
101298
101298
101298
101298
101298
101298
101298
101298
101298
101298
101298
101298
101298
101298
101298
101298
101298
101298
103794
104949
101320
101298
102154
101298
101320
101298
101298
101298
101298
101298
101298
101298
101298
101298
101298
101298
101298
101298
101298
101298
101299
101451
101298
101298
101298
101302
101298
101298
101298
101298
101298
101298
101298
101298
101298
101298
101298
101298
101298
101298
101298
101298
101298
101298
101298
101298
101298
101298
101298
101298
101298
101298
101298
101298
101298
101298
101298
101298
101298
101298
101298
101298
101298
101298
101298
101298
101298
101298
101298
101298
101298
101298
101298
101298
101298
101298
101298
101298
101298
101298
101298
101298
101298
101298
101298
101298
101298
101298
101298
101298
101298
101298
101298
101298
101298
101298
101298
101298
101298
101298
101298
101298
101298
101298
101298
101298
101298
101298
101298
101298
101298
101298
101298
101298
101298
101298
101298
101298
101298
101298
101298
101298
101298
101298
101298
101298
101298
101298
101298
101352
101320
101316
101300
101299
101299
101301
101298
101298
101298
101298
101298
101298
101298
101309
101316
101303
101299
101298
101298
101299
101298
101298
101298
101298
101298
101298
101298
101298
101298
101298
101298
101298
101298
101298
101298
101298
101298
101298
101298
101298
101298
101298
101298
101298
101298
101298
101298
101298
101298
101298
101298
101298
101298
101298
101298
101298
101298
101298
101298
101298
101298
101298
101298
101298
101298
101298
101298
101298
101298
101298
101298
101298
101298
101298
101298
101298
101298
101298
101298
101298
101298
101298
101298
101298
101298
101298
101298
101298
101298
101298
101298
101298
101298
101298
101298
101298
101298
101298
101298
101298
101298
101298
101299
101300
101298
101298
101298
101298
101298
101298
101298
101298
101298
101298
101298
101298
101298
101298
101298
101298
101298
101298
101298
101298
101298
101298
101298
101298
101298
101298
101298
101298
101298
101298
101298
101298
101298
101298
101298
101298
101298
101298
101298
101298
101298
101298
101298
101298
101298
101298
101298
101298
101298
101298
101298
101298
101298
101298
101298
101298
101298
101298
101298
101298
101298
101298
101298
101298
101298
101298
101298
101298
101298
101298
101298
101298
101298
101298
101298
101298
101298
101298
101298
101298
101298
101298
101298
101298
101298
101298
101298
101298
101298
101298
101298
101298
101298
101298
101298
101298
101298
101298
101298
101298
101298
101298
101298
101298
101298
101298
101298
101298
101298
101298
101298
101298
101298
101298
101298
101298
101298
101298
101298
101298
101298
101298
101298
101298
101298
101298
101298
101298
101298
101298
101298
101298
101298
101298
101298
101298
101298
101298
101298
101298
101298
101298
101298
101298
101298
101298
101298
101298
101298
101298
101298
101298
101298
101298
101298
101298
101298
101298
101298
101298
101298
101298
101298
101298
101298
101298
101298
101298
101298
101298
101298
101298
101298
101298
101298
101298
101298
101298
101298
101298
101298
101298
101298
101298
101298
101298
101298
101298
101298
101298
101298
101298
101298
101298
101298
101298
101298
101298
101298
101298
101298
101298
101298
101298
101298
101298
101298
101298
101298
101298
101298
101298
101298
101298
101298
101298
101298
101298
101298
101298
101298
101298
101298
101298
101298
101298
101298
101298
101298
101298
101298
101298
101298
101298
101298
101298
101559
133076
103268
102328
105821
101298
101298
101298
101298
101298
101298
101298
101298
101298
101298
101298
101298
101298
101298
102457
101806
101721
123072
112093
110423
125843
101569
101757
101426
117733
104378
107383
111431
101340
101351
101308
102945
102396
106207
101562
101299
101298
101299
101618
101302
101339
101333
101298
101298
101298
101298
101298
101301
101298
101298
101298
101298
101298
101306
101298
101298
101298
101298
101298
101298
101298
101298
101298
101298
101298
101298
101298
101298
101298
101298
101298
101298
101298
101298
101298
101298
101298
101567
107674
102222
139942
117203
184143
105563
101311
101302
101301
101397
101355
101299
101299
101384
101304
101319
102921
101404
101634
101298
101298
101298
101299
101298
101304
101298
101298
101298
101298
101298
101298
101298
101298
101298
101298
101298
101298
101298
101298
101298
101298
101298
101298
101298
101298
101298
101298
101298
101298
101298
101298
101298
101298
101298
101298
101298
101298
101298
101298
101298
101298
101298
101298
101298
101298
101298
101298
101298
101314
101702
101349
101301
101322
101299
101307
101298
101298
102527
101298
101298
101298
101298
101298
101298
101298
101298
176569
120290
107007
101299
101298
101298
101298
101298
101298
101298
101298
101298
101298
101298
101298
101298
101298
101298
101298
101298
101298
101298
101298
101298
101298
101298
101298
101298
101298
101298
101298
101298
101298
101298
101298
101298
101298
101300
101298
101298
101298
101298
117592
131517
192426
257001
320640
278859
378339
101676
101962
110529
102367
103484
101443
101365
101298
101298
101298
101298
101298
101298
101298
101298
101298
101298
101298
101298
101298
101298
101298
101298
101298
101298
101298
101298
101298
101298
101298
101298
101298
101298
101298
101298
101298
101298
101298
101298
101298
101298
101298
101298
101298
101298
101298
101298
101298
101298
101298
101298
101298
101298
101298
101298
101298
101298
101298
101298
101298
101298
101298
101298
101298
101298
101298
101298
101298
101298
101298
101298
101298
101298
101298
101298
101298
101298
101298
101298
101298
101298
101298
101298
101298
101298
101298
101298
101298
101298
101298
101298
101298
101298
101298
101298
101298
101298
101298
101298
101298
101298
101298
101298
101298
101298
101298
101298
101298
101298
101298
101298
101298
101298
101298
101298
101298
101298
101298
101298
101298
101298
101298
101298
101298
101298
101298
101298
101298
101298
101298
101298
101298
101298
101298
101298
101298
101298
101298
101298
101298
101298
101298
101298
101298
101298
101298
101298
101298
101298
101298
101298
101298
101298
101298
101298
101298
101298
101298
101298
101298
101298
101298
101298
101298
101298
101298
101298
101298
101298
101298
101298
101298
101298
101298
101298
101298
101298
101298
101298
101298
101298
101298
101391
101298
101298
101309
101578
101300
101298
101298
101298
101298
101300
101298
101298
101298
101298
101298
101298
101298
101298
101298
101298
101298
101298
101298
101298
101298
101298
101298
101298
101298
101298
101298
101298
101298
101298
101298
101298
101298
101298
101298
101298
101298
101299
101298
101299
101298
101298
101298
101298
101298
101302
101298
101306
101301
101321
101340
101298
101298
101298
101298
101298
101298
101298
101298
101298
101298
101298
101298
101298
101298
101298
101298
101298
101298
101298
101298
101298
101298
101298
101298
101298
101298
101298
101298
101298
101298
101298
101298
101298
101298
101298
101298
101298
101298
101298
101298
101298
101298
101298
101298
101298
101298
101298
101298
101298
101298
101298
101298
101298
101298
101298
101298
101298
101298
101298
101298
101298
101298
101298
101298
101298
101298
101298
101298
101298
101298
101298
101298
101298
101298
101298
101298
101298
101298
101298
101298
101298
101298
101298
101298
101298
101298
101298
101298
101298
101298
101298
101298
101298
539122
450520
503920
101323
1.02381e+06
167452
101298
1.29592e+06
121231
125713
516930
101298
101298
903846
103996
101298
1.2926e+06
101554
342094
110577
555046
101298
101298
199348
101298
101298
725746
101298
101552
101384
420162
102345
101298
101298
216112
101309
101298
101298
617952
101308
101299
101298
101298
101298
367275
101826
101298
101298
101298
314739
101298
101298
101298
101298
101915
101298
101298
101298
101298
101298
101298
101298
101298
101298
101298
101298
101298
101298
101298
101298
101298
101298
101298
1.10301e+06
1.23444e+06
440444
1.33437e+06
611638
1.0054e+06
249555
1.3595e+06
345377
1.09e+06
1.20158e+06
667988
1.30323e+06
437476
101657
1.31598e+06
1.33874e+06
1.26055e+06
1.26424e+06
279168
1.06784e+06
102214
101302
522666
1.13466e+06
552205
183928
1.03476e+06
104532
101313
566000
101371
101367
101298
101420
101298
1.14591e+06
1.12561e+06
109228
101372
101593
434858
882637
442510
348643
633123
102049
101496
415561
101401
105566
101299
101348
101298
101298
101302
101298
101298
101298
101298
101298
1.04545e+06
775356
102343
101554
101360
101298
101298
661075
107199
101351
1.28422e+06
1.29965e+06
1.26898e+06
154215
1.35033e+06
211173
475387
101470
1.01218e+06
101744
1.17111e+06
1.26593e+06
1.08569e+06
190331
250769
106832
208069
154791
104639
101298
101298
101298
112200
272125
101369
110803
102234
107230
101299
101298
101303
101298
101299
101298
101298
101298
101298
101298
101298
101298
101298
101298
101298
120102
118376
1.12797e+06
1.12613e+06
1.15162e+06
1.16695e+06
1.26875e+06
1.1972e+06
1.33922e+06
1.34756e+06
1.3222e+06
1.33923e+06
1.35338e+06
1.30354e+06
1.3595e+06
1.30553e+06
1.35126e+06
1.40014e+06
1.23964e+06
1.37613e+06
1.27869e+06
1.23868e+06
1.1125e+06
1.14716e+06
1.30323e+06
1.21936e+06
1.24844e+06
292167
563590
938753
168250
991846
211814
258819
1.35676e+06
1.38031e+06
1.4372e+06
1.39388e+06
1.32331e+06
1.44154e+06
1.2973e+06
1.30151e+06
152276
824050
129475
153389
208749
608879
108426
1.20693e+06
547553
905585
1.00461e+06
969598
1.39301e+06
659566
1.40093e+06
392232
1.17092e+06
941372
1.39524e+06
792130
559597
1.36598e+06
1.13434e+06
296547
374877
188860
101975
172574
120947
652179
115984
101865
331050
142377
175230
111594
118873
103721
101324
104649
101326
101302
102022
101408
101299
1.296e+06
811482
1.17539e+06
1.33348e+06
744218
1.16335e+06
278024
257323
813921
101304
103952
101307
101303
101391
101458
101299
109149
101308
101555
500942
608242
1.21143e+06
285095
1.01252e+06
197206
716546
493946
517972
244088
629363
294897
241761
111748
103899
112528
117634
228025
133372
101929
214445
142501
119949
110258
109946
102567
101339
101326
103559
101302
101840
101301
101369
101386
102051
101486
101301
102558
101347
101311
101304
101298
101298
101298
101298
101301
101299
101298
101299
101298
101298
101298
101298
101298
101298
101298
101298
101298
101298
101298
101298
1.31715e+06
452036
919219
326031
811275
125175
119426
337739
107192
101306
101470
102926
101301
101396
101298
101298
101303
101298
101298
101298
320483
832058
270264
268437
403169
542155
154150
102295
309707
1.03452e+06
259168
636988
1.01867e+06
244283
317340
113176
109606
134246
101408
315526
102383
102494
610500
574247
519534
476395
597819
554400
380829
101307
103477
101367
111495
101299
102249
101327
101298
101406
101298
101306
101298
101301
101298
659858
681608
488253
524272
560559
431647
101383
425519
101354
106589
101299
101550
101298
101298
101298
101298
101298
101298
101298
101298
116970
394836
102023
126405
101410
117065
101302
101298
101343
101298
101305
101298
101299
101298
101298
101298
101298
101298
101298
101298
101298
1.39128e+06
1.17228e+06
1.31823e+06
1.12172e+06
1.32665e+06
1.04329e+06
916623
1.23258e+06
822967
399195
1.17167e+06
793284
225883
573377
504911
648288
256562
665864
113143
677891
101956
101298
101298
101298
101298
101298
101298
101298
101370
101302
101298
101298
101298
270912
483159
573890
715421
710216
251728
627995
512771
361037
546825
871145
841400
351105
341286
462110
909153
1.32959e+06
1.26097e+06
416987
265028
618600
101823
103512
137836
101298
101298
101298
101298
101298
101298
101298
101298
101298
101298
101298
101298
101298
101298
101298
101298
101298
101298
101298
101298
101298
101298
101298
101298
101298
101298
101298
101298
101298
101298
569350
646465
536501
597765
716630
1.03069e+06
718154
799075
1.04362e+06
797257
641061
705823
785792
768338
764947
661451
1.06367e+06
1.01231e+06
1.03447e+06
851444
1.37716e+06
780871
1.16486e+06
752893
976508
1.09205e+06
1.37693e+06
1.20606e+06
866464
1.17529e+06
1.33196e+06
1.3939e+06
1.10867e+06
1.34329e+06
796106
726675
815945
609127
648231
940424
909279
1.01329e+06
856722
1.00391e+06
1.34033e+06
1.37876e+06
1.31752e+06
1.42925e+06
1.22665e+06
139085
588947
639762
583682
661766
654873
597069
575173
547412
581248
555141
575139
607339
682417
712484
644840
675887
615258
639099
825810
715558
802824
735755
732548
822028
806580
950214
914690
935542
928141
852652
758631
797387
890234
755943
846950
901018
985568
1.02185e+06
966615
1.04848e+06
581572
654452
593105
577811
554033
673635
637676
610434
910618
931703
748277
881551
840029
1.0051e+06
958119
658286
614764
612400
657059
739210
764302
684926
824825
683137
828539
737889
718575
789474
713582
804676
809151
900216
1.04798e+06
895949
910935
804936
916728
1.06361e+06
855975
953230
919438
970267
930579
1.03633e+06
1.26815e+06
1.10568e+06
1.13949e+06
1.22383e+06
1.21419e+06
1.00926e+06
1.22567e+06
1.35657e+06
1.03491e+06
1.16623e+06
1.44482e+06
1.43163e+06
1.42997e+06
1.36121e+06
1.50546e+06
676170
814536
726235
763955
697508
888725
870998
791665
1.07545e+06
1.16959e+06
986848
1.24409e+06
1.10932e+06
1.3149e+06
1.26678e+06
1.1362e+06
896327
938841
1.0614e+06
1.36443e+06
1.29158e+06
1.03635e+06
1.44859e+06
1.09524e+06
1.55945e+06
1.2663e+06
1.34905e+06
1.41783e+06
1.29097e+06
1.40471e+06
1.54449e+06
1.50013e+06
1.22798e+06
1.44676e+06
1.5478e+06
1.47304e+06
1.42166e+06
1.4203e+06
1.50055e+06
1.46407e+06
1.497e+06
1.55351e+06
1.582e+06
1.41309e+06
979691
1.31562e+06
1.16075e+06
1.42628e+06
1.23561e+06
1.41964e+06
1.44726e+06
1.3859e+06
813587
1.34735e+06
1.20696e+06
1.07509e+06
587380
508011
570475
492924
501127
535760
601199
416867
728090
689463
435963
425028
803560
643717
398761
548638
781826
460917
355441
704501
810650
444925
865976
567794
406360
687804
575643
666325
394597
771927
610201
289129
412185
517472
548511
654600
433492
321493
461226
400462
398832
417932
390069
299596
102170
101299
101298
101298
101298
101298
101298
101298
416940
355014
350120
486687
348597
370982
240711
268653
354920
174330
212670
303020
281130
278511
254142
402066
302024
257213
421152
964783
715835
1.13804e+06
671133
325400
517714
659059
400014
472925
803125
439903
684141
512556
477324
550103
735660
1.38692e+06
473908
524341
523702
553216
688513
663925
770612
1.23221e+06
1.25273e+06
749473
1.10257e+06
478077
909990
1.30798e+06
1.16332e+06
1.05608e+06
527675
487831
538326
579493
850778
1.35206e+06
449265
560645
230580
531185
466846
526718
485712
479244
538849
518378
500698
518328
493803
502203
549827
585986
586111
629348
702972
634002
614950
804252
890968
949407
1.05734e+06
1.22863e+06
1.11965e+06
1.03015e+06
928212
1.07947e+06
899193
1.14132e+06
919049
1.01401e+06
948370
877716
1.06855e+06
690314
972852
857433
995808
793437
1.20481e+06
1.2077e+06
994236
921820
1.24703e+06
1.00823e+06
1.22803e+06
1.11116e+06
1.09034e+06
409533
425895
434013
473303
430298
474332
490953
498859
576870
598970
497518
577303
753941
659602
925841
1.00425e+06
629537
1.01105e+06
390258
420107
383215
437700
432417
394777
378177
402399
451635
467389
427722
445632
407822
422026
387533
441040
398297
454544
429740
411242
470893
494707
451306
524872
446450
523980
472893
497352
556342
611236
524291
559771
494825
534050
451333
519694
469235
543958
506335
484539
669336
686999
568479
750039
588534
794902
637312
773006
874093
1.0362e+06
831470
928455
734855
863832
544381
716497
610110
849086
822472
709899
489712
408464
324665
584719
256063
488975
482653
178994
321856
250428
385762
280566
343454
285138
261564
355238
272023
280998
279992
383114
387171
197268
185633
199940
199304
215753
203345
216856
221837
250988
222447
270175
239754
240877
272729
492762
475311
480781
554572
524528
524685
548004
276376
379723
395686
414229
395230
384739
314923
424359
428374
415260
385847
367913
381456
373467
326815
331437
268596
229698
216728
220856
224605
275238
282335
260557
253939
229237
244381
274872
267794
269342
274535
291968
295924
297235
301800
470248
486294
517289
547718
522436
508921
570244
525906
453950
469757
463066
476159
538003
523970
439320
460299
463506
395788
414307
390167
417728
281866
304749
312286
271095
276611
299511
307044
556782
507840
606470
622608
516085
610116
443967
431924
353589
336246
245727
351858
259194
420672
631330
398726
617102
575819
323442
356900
496253
610611
565155
656130
572277
558451
654412
608068
478650
482691
510018
514368
570460
543659
577568
270254
264429
273266
285528
295070
299479
289248
506811
524937
526412
455673
471811
475209
461569
271024
276549
275788
308348
308167
310857
311229
223518
264624
237841
254261
225987
239460
267973
284720
409291
359971
434445
674515
391082
310161
550036
306640
430998
359928
322644
412281
321798
492713
526905
524830
470576
470365
441632
443921
287737
293499
261146
264042
328118
292427
298064
589562
644032
661017
606443
665564
675921
592558
598347
543423
534044
656754
539191
642462
620842
567068
649511
627183
560190
508035
546365
502070
272383
300714
311743
268351
276638
305367
294369
541237
482534
487661
511287
514477
568639
571213
557272
622161
604883
616879
690154
697052
627622
285950
285633
262864
262421
236444
244916
272843
361353
365965
353055
295064
292101
321219
323001
662334
423774
400940
666008
441048
469200
544165
689941
768715
808163
886979
792412
741809
735730
837581
714669
887036
731462
633014
700559
610030
305818
307713
276562
267260
335589
297801
302497
320382
362689
326195
365315
327531
333638
373096
317907
156205
414671
365778
237965
428576
106624
268249
279417
271776
314234
306504
309360
318053
672251
513371
690556
549606
485408
682443
691277
715464
675271
638904
611355
710817
679777
644705
579846
469716
619036
326513
638056
359527
495538
909948
692454
916509
912288
827077
520090
660934
334694
275834
287749
332306
307082
317948
313567
397117
340121
350664
372221
333078
341627
383575
248963
241950
246239
270360
274274
270831
276123
565232
584145
583882
633898
635377
652012
650861
468332
324636
323091
387166
312190
397356
395449
333356
339993
340751
288954
284716
317573
324171
548009
593261
588559
661249
610782
610894
670561
1.03154e+06
973863
973616
873125
886394
833031
808115
259431
286887
292973
253472
251949
279557
283248
610173
615325
613490
419342
440286
465484
440032
312936
362779
324677
330317
358587
370278
317710
639868
503615
392248
647940
438600
667755
575337
413025
433456
376685
349910
415811
380431
359784
346055
381352
345571
348413
383280
385598
348167
601003
709065
669592
633972
708536
670678
634880
816472
742378
827745
780104
734136
739183
781551
297294
288587
302414
322336
327529
336755
343219
643760
763751
724713
731297
895469
760473
837922
694332
851712
780734
738264
753868
698504
728446
557783
346230
802723
420620
620444
394254
334380
395156
333177
347616
337961
369779
380657
324201
268826
279311
271212
324909
296848
308660
306484
392329
369854
368387
352814
385635
388679
352383
321617
368145
328003
414933
365626
373707
425908
344760
319154
361377
294892
308708
333824
351278
1.01145e+06
845310
1.04086e+06
1.19693e+06
1.04462e+06
1.00245e+06
1.09245e+06
759219
883394
846131
781836
768041
741961
781071
861464
878820
856685
709558
516027
621547
622713
471327
739942
961295
621338
809320
911936
819433
354548
386147
346578
350390
401603
391179
359533
417959
500342
517966
596286
441403
425375
626098
414944
443671
441137
370900
345418
358350
361039
325559
282295
275754
252960
257904
287519
294157
826335
812273
713885
733014
829785
730596
807883
420143
369609
550788
341976
470445
378251
428425
742763
683866
762603
855887
681510
757903
835522
476715
705401
814907
665618
439922
480634
513713
110643
397137
135121
432271
420868
104708
103194
401447
373350
367139
354517
407905
395568
364632
460130
345728
397343
378676
336010
384389
440939
410742
418492
429431
472515
487131
510688
527185
296852
211172
101365
107540
101316
101404
228037
119906
153412
385286
137337
409357
430515
134948
384454
335136
408870
317241
356968
398735
417891
301071
363908
306767
381726
311106
318885
392880
1.11257e+06
1.14051e+06
1.03102e+06
1.09634e+06
698790
1.24791e+06
977781
292281
357003
289847
364825
384375
349936
325405
373639
303903
291324
273391
317298
264508
303584
852961
754448
911213
795787
857081
753303
902641
417638
473596
455376
548021
395402
404658
484314
399625
326859
347667
379018
314872
330622
406315
537367
467231
577079
423989
445062
508357
549617
580385
101498
101446
101304
101298
101298
101298
101298
101771
101298
101298
101298
447674
410303
159742
419109
213141
102464
377293
427318
392210
545417
600950
674816
549046
498702
676726
828634
963309
1.00549e+06
1.1155e+06
866087
936924
964104
713742
883699
892872
884974
888426
778663
790778
902454
878251
843192
571780
765827
707472
665315
484448
517067
442624
361558
432915
414182
398709
502174
437928
473438
478940
510008
400633
384642
364015
416291
370205
439804
383213
390753
448651
422066
425042
428155
468329
472011
480296
476059
165891
253774
450090
135296
416403
104863
141618
322002
285426
348363
301173
366159
337762
426501
422521
435808
435051
491352
518316
529464
494502
338410
401216
379650
417288
411000
422135
416712
337052
146808
406636
335861
211720
101302
102419
423276
441050
445561
401229
344822
370314
371477
386267
540473
364762
349882
407810
511308
641781
475661
386014
412023
425078
377506
400553
460774
435910
495687
502254
430627
434161
490579
485403
572707
610387
497590
605872
628664
534839
491120
402547
569764
909641
770071
519008
473611
433519
1.02491e+06
1.11321e+06
1.09471e+06
947251
926348
942489
927395
976302
1.09138e+06
1.33107e+06
1.09433e+06
1.33409e+06
1.18181e+06
1.05548e+06
864702
576641
814345
901912
897913
758333
701954
478224
557987
496692
451388
453234
543396
497302
428778
447318
435231
503836
482168
491168
514166
1.07879e+06
983223
857813
958230
973759
1.03556e+06
940530
493099
518269
465877
452928
400842
441817
426582
434025
415044
405439
417807
344622
355892
423482
416060
421950
377634
428939
397953
421263
402904
320169
399017
330479
403185
414348
445887
445934
445982
479680
478724
536489
508395
516309
528921
510771
502303
424769
434907
641633
524916
518443
448771
547472
517782
456013
442181
503136
528805
273370
280441
282724
259903
277407
254028
290041
287057
262365
251446
256049
292325
264311
401538
291577
317199
320841
326056
336255
381478
375835
339162
367694
402136
394737
383769
269603
302108
312083
287695
297582
273712
282699
305483
291394
276772
317662
330787
304601
355196
299286
349800
323513
331490
365890
379090
343596
364084
335041
344483
307910
356491
325838
362853
338698
334284
395235
402423
359293
429228
363817
440564
388012
351604
416160
378846
361324
432209
355166
273634
279737
319666
582090
504934
169497
132491
257551
305146
302693
313446
351404
404523
361343
373082
317781
643054
188071
271995
434936
310673
322458
350132
353426
370871
348521
324061
359379
410245
426699
352108
307059
344929
321300
317748
356159
340566
363583
333653
344889
386877
328766
368743
381429
337275
389624
372341
425097
365335
409009
403586
428562
514469
424343
683789
633916
369552
426226
415323
404127
439385
645443
605159
590164
647697
599441
723597
756694
389491
477248
463869
527408
751793
665033
804662
758171
429449
379461
389661
385098
445417
401649
420869
464041
444065
471641
396127
449680
436152
572920
450839
496588
481522
511650
498268
549668
654134
544240
622136
703645
562654
627142
726927
527802
688077
605564
802011
665208
756479
668812
777744
688233
786039
810098
691625
727139
884109
705548
828868
798524
712311
957818
875862
423392
303613
406068
311704
439622
310446
429007
361131
477541
355733
490008
424637
530342
620049
501294
564597
453355
780443
539746
286621
681816
443986
184728
237198
313462
220761
276041
336418
556509
528218
515733
591809
563081
549315
436541
480007
540209
467414
492064
429035
475365
467540
457726
419626
518885
576469
496508