/*--------------------------------*- C++ -*----------------------------------*\
  =========                 |
  \\      /  F ield         | OpenFOAM: The Open Source CFD Toolbox
   \\    /   O peration     | Website:  https://openfoam.org
    \\  /    A nd           | Version:  9
     \\/     M anipulation  |
\*---------------------------------------------------------------------------*/
FoamFile
{
    format      ascii;
    class       volScalarField;
    location    "0.0032";
    object      p;
}
// * * * * * * * * * * * * * * * * * * * * * * * * * * * * * * * * * * * * * //

dimensions      [1 -1 -2 0 0 0 0];

internalField   nonuniform List<scalar> 
28208
(
149555
168510
220074
191136
256847
271212
136714
148366
133855
122124
119737
142394
131378
141779
132779
126258
189789
172467
157221
145141
118936
112761
113560
122998
116878
117829
123998
120751
115874
114557
120693
119070
125316
127060
123934
119760
117586
122743
125290
129282
132059
126466
132993
125654
138774
137614
129873
130938
274388
273034
181482
152291
204616
155809
214235
125079
143928
137143
138450
126204
132594
145368
129182
125800
122475
132185
128415
135471
139574
129027
135042
127538
142484
140355
132368
134281
129634
140173
127697
134213
149706
136329
147257
153012
138562
139569
137038
145419
135785
133477
124996
115981
133715
141627
127943
140355
148644
132093
125714
134313
139931
134812
136673
133103
138433
137171
133318
136790
132165
136151
132449
136864
136933
131997
134081
138323
133787
137559
137122
137552
143309
141711
144450
146481
142254
141501
146292
125930
115704
126674
122103
132035
131516
122374
140709
139642
143966
141631
147741
146919
142086
116853
116307
125390
131161
123232
130939
122679
132606
135443
134551
139255
140601
138376
139811
149825
148656
146998
143115
141898
142626
143403
124204
119236
117793
125255
124889
130999
131512
128929
135450
128641
143044
137382
143060
137145
150595
146396
144542
153805
146460
151494
144625
126230
121267
123965
134521
130729
127861
132637
129911
136225
129268
143117
143327
136997
136983
132710
138380
131021
143893
145004
137267
138031
149410
146804
138229
146563
143063
135085
139440
133561
131009
138937
145211
136733
139794
148585
196352
263502
273896
170749
238152
161720
229060
132047
148476
134996
152759
138982
142237
156486
140678
145307
136765
143528
157452
147979
152654
146892
138598
161084
162912
151796
139927
153397
142802
152478
138560
146161
166319
150786
160979
152945
150342
165337
141705
158262
144047
155503
271186
161841
220783
201290
146683
153970
136903
212142
215533
139625
141843
144772
152821
156002
158707
162342
152315
172078
164739
142884
148233
159958
166761
147487
157485
150633
174309
165818
169900
178992
119658
93355.3
117952
110196
96483.3
107105
136057
121616
119595
149523
109468
132216
113966
98109.3
138567
123574
94180.5
97440
98189.8
99025.4
99767.1
102559
103332
95199.4
100494
99193.7
102116
100788
104417
105824
100109
102151
103782
104190
105812
107583
109726
101993
107889
102752
111449
106683
107518
112347
108892
105067
103759
108656
115073
110129
113533
107397
118824
108159
121790
110840
111698
122761
105234
102476
106617
111049
108220
112277
115285
120044
110666
109249
112887
125782
114423
124080
111870
106733
108793
117004
111972
114224
119381
112431
125971
114584
127900
116328
118649
130478
131268
126191
114871
115824
132455
120637
127266
116541
114247
111283
116928
125740
120144
122269
117113
123820
130557
134026
118775
122025
128703
120209
128839
117162
121424
137185
124698
133556
100452
144721
81995.7
228530
218450
145460
99552.3
115027
127213
124387
210818
198392
190951
165411
207384
203999
167732
119052
103159
127512
101184
103121
127482
121855
86527.8
104588
97928
113281
100705
114090
93370.1
157641
103376
121091
123072
158083
127061
112039
165283
120944
135406
152347
173038
138956
126751
234950
169365
197720
180169
201374
157212
142183
101828
100738
111220
101995
110155
110020
110700
102965
99666.7
108019
115811
110011
109636
112346
134807
124484
147755
128395
124202
118970
127910
110097
84205.3
104505
102190
86544.1
88918.8
91738.4
101596
107898
101061
101881
109342
110050
108913
100848
102309
102035
111257
110679
111173
111742
117962
121082
117480
124137
118311
118393
123436
152606
155625
169309
136552
130680
128884
132663
100261
107377
104514
95261
90626.3
95238.6
99060.9
108615
113354
107929
103286
95732.9
97731
104104
84198.2
79938.1
82649
84814.4
83602.6
86297.5
86886.8
121476
127504
119226
125602
118285
120323
126389
114692
119779
116193
117271
121684
116069
122292
101921
102869
102200
110753
111639
110132
111703
141875
103652
90546
104230
109877
97619.9
97813.6
52016.1
36586
55033.2
50464.2
120776
122619
119263
122976
133941
70783.1
45721.3
133881
121943
167570
61873.6
59244.1
88753
102118
100430
98646.8
100848
82299.9
80302.9
75524.1
83235.4
123613
103480
111124
97004
120878
104152
123800
127969
125978
132221
141391
128564
124918
130488
111323
121027
109589
98582.2
87302.4
78309.2
85752.9
52351.1
38333.5
48797.5
47286.9
40119.8
52756.3
40393.1
74267.4
83533
111469
50909.5
79738.7
115282
88214.1
63159.8
43581.7
53711.7
50641.2
50954.8
44645.7
57986.5
134274
149850
113925
133346
97441.2
135899
112788
101231
103993
97825
76818.1
100382
89260.5
84277.9
122999
119938
115612
118972
110598
124770
128474
139971
113944
125879
122810
124841
110801
130091
59862.5
67946
93837.9
62976.5
57515
90429.6
91454.7
99184
98357.7
102677
75750.7
80326.7
78935.8
80315
122866
118527
118379
123035
125505
125344
124642
77172.9
70935.2
96278
58608.8
68060.1
80599.3
67855.5
50789.2
72248.7
45271.6
48547.6
59645.7
43861.3
58077.4
188576
176992
154522
171053
152463
130579
149431
51864.6
59988.7
50353.2
52623.4
47007.6
56092
57623.1
124116
131786
122274
113814
111131
128409
128504
102284
59983.2
89544.4
120363
101601
95078.6
126253
110236
85635
88303.2
112187
121061
98919.4
93340.6
66908.3
58586.2
59018.1
68104.9
67867.1
60246.7
69408.9
66619.3
59902.1
65651.1
75135.1
69925.7
68306.4
74582.8
141247
85675.6
118616
95322.2
91366.7
78810.3
110986
122464
150151
134696
111275
112059
102477
124323
78237.9
90810.7
78766.6
89211.4
77826.4
79586.7
90841.5
59262.2
69393.6
68979.2
62170.6
61226.7
70461.8
71198.5
60822.2
71242.2
69429.7
64678.7
62226.4
71003.1
72981.2
85672.5
92806.6
78873.2
88327
77704.5
83272.3
97144.1
79664.2
91142.8
79646
80564.1
91174.6
80956.7
91369
80442.1
89546
78991.6
80683.2
91983
82191
91143.2
24902.8
99639.2
46018.4
119069
103424
66457
72866.2
138571
93599.3
144594
44443.8
58514
124302
86320.6
126587
93065
36000.9
53036.2
77815.8
67632.9
73833.6
78211.4
83397.2
80969.4
72853
83988.6
71551.5
76192.8
81267.9
91082.3
75911.7
87475.3
101587
85033
86227.1
112172
95393.7
97355.8
117722
126879
101451
103306
123783
105820
104537
126902
36026
32751.9
43036.2
102143
42952.1
117946
33187.5
49295
27125.7
35643.6
41951.8
86555.6
32593.7
48739.8
73835.4
81560.6
66715.7
48095.5
66304.7
77780.3
56050.7
58447.9
52429.7
61080.4
75910.9
48597
65186.8
64388.2
87015.1
100235
96272.3
82596.3
80126.9
89379.9
86812.8
84478.9
107155
93064.6
93543.1
88622
109130
79766.1
83326.1
102086
78623.2
97854.8
127534
95213.8
122762
96093.1
133501
104700
95513.6
88275.7
69020.2
119082
126968
111439
109783
103800
113198
98018.8
122882
124960
120748
107282
111556
143608
124025
133024
88873.1
45999.6
71412.3
80524
73959.1
102724
68348.8
39969.4
57595.9
63468.2
68938.3
38462.2
43253.8
56865.4
36822
24270
31032.2
24013.6
43741.5
26606.9
24687.2
52299.6
28403.3
32287
34441.5
37827.9
32052.3
27302.8
80532.5
63003.1
77056
44647.8
51011.2
63998.3
98597.6
66311.5
53962.2
42536.1
57374.2
45955.6
38809.1
47371.8
112826
144268
146291
117228
110421
124116
139779
70620.4
78425.3
127376
44006.3
84885.8
47404.4
82841.6
26034
22864.9
21867.3
26097
26929.8
29843.7
24665.2
30808.4
48081
46338.7
31954.3
32692.4
38239.8
28135.1
31004.9
25976.3
30586.3
30811.5
28322.7
31727.2
26898.2
30908.2
36120.3
35381.5
33542.7
33133.8
29575.1
36098.5
45961.2
37695.9
37418.6
37472.5
46075.8
38171.2
45702.3
28739.7
34789.9
26072.9
30273.3
35655.2
31890.7
37967
131582
83519.6
89434.3
46337.7
61848
46685.7
72152.1
50195.6
41889.4
42090.9
39855.9
48527.9
41633
47262.1
32019.9
30938.1
39866.7
33907.1
34797.2
38141.8
28717.3
33235.9
38077.3
31407.3
34073.8
34364
29951.5
36700.2
35019.1
40499.5
39147.3
43857.9
36127.2
40023
40334.2
39421.5
47295.3
42584.7
48812.3
39968
41835.6
46936.1
234603
247735
256103
244005
136698
173253
156850
175514
141437
64911.1
131055
149672
153848
140596
169395
149396
156560
170549
113583
90082.8
72463.8
57942.3
103347
57294.5
99604.9
162863
191418
189421
115436
145952
173870
151739
229144
270449
278126
264418
268057
147750
128338
193997
191446
171434
210107
188144
190633
213890
157501
143059
159486
130957
143420
165044
151816
220459
234682
211979
199442
216923
186662
226334
81685.5
96793.2
122121
150300
82833.9
110921
122678
160346
71717.1
116835
74676.3
105042
58292.4
74846.3
198156
177010
198947
186802
198409
173998
211854
210104
215462
225780
237670
245767
236088
258682
179451
144966
201904
178200
143870
97398.2
120053
122590
110411
119358
99838.9
116548
111715
119669
68022
55931.9
56934.1
55699.8
55520.6
67573.4
66635.3
61005.2
68859
77405.5
56983
56344.5
68277.5
67078.1
178520
176464
177585
106440
145073
150354
206362
255301
281228
241636
251415
271671
266918
249822
246970
222887
223634
222313
237424
256004
237256
271268
259458
246484
270001
266230
275029
267300
195005
185336
257062
198490
132531
194509
131310
93424.3
94919.4
81793.9
81553.8
90849.6
78744
95089.1
56540.2
57560.9
56160.6
67015.5
67948.3
66988.2
67778.3
124644
83617.7
100246
83019.5
92180.6
78863.4
98343.1
237194
265033
283946
271307
192347
236636
244564
198895
199978
231635
243900
148731
200558
205279
249860
256297
266805
264308
213320
238026
248420
109749
123427
104036
99912.9
104391
109824
106487
140079
102908
108955
118224
140416
114468
110403
79160.1
89833.2
78717.1
91049.8
78191.4
78996.1
91740
155293
174631
231674
132958
170055
122058
111807
238790
147517
159068
140016
181989
190973
205209
99279.3
101134
101314
108082
106974
106288
108514
64863.4
66306.5
63537.5
72283.8
75919.6
73370.3
74527.4
108252
115671
112145
111980
111982
111398
110193
120114
120920
131564
116147
117806
116138
113936
81842.9
92270
84724.8
93033.2
82651.6
83574.2
91928.8
112943
114151
113383
116897
112226
114718
113568
80509.6
86740.4
191869
236485
78716.6
158817
117027
91792.2
243607
244514
232292
223899
159950
184644
141935
90152.6
207977
127524
181337
118485
102936
89096.1
213407
162065
200004
142203
167185
121455
111680
110216
78711.8
88647.6
81675.3
102674
85363.7
80585.3
115588
126639
146340
98650.4
103158
95087.3
104502
79953.3
78584.6
80038.1
81299.3
82837.6
81550.5
81156.5
83569.1
93368.9
95113.1
85951.7
87202.5
90556.8
83367.9
119900
125843
119099
119028
127373
119908
125354
108905
114130
110555
100266
107849
103287
105646
89801
86097.4
86049.5
84886.8
88366.5
90728.2
84460.2
89205.7
89235.4
85774.5
89239.1
91940.7
92553.5
89214.6
91477.7
87919.5
88084.6
90484.7
93499.5
95342.2
89950.8
118281
124480
119572
127276
117643
119641
124694
98714.3
95105.6
96396.3
93208.3
95910.8
97801.1
92322.4
118000
91309.6
176165
137594
130573
120394
110676
94113.7
109344
126347
117848
102769
130420
119214
119104
95652
136514
148856
130034
126041
114426
124265
120034
123970
124285
125498
110995
112074
118549
117582
118147
123518
110499
122444
110421
116781
116304
139458
132061
130037
131210
127414
124884
129129
98373
91928
97836.4
96845.7
106280
105883
97384.3
117586
122099
121845
112638
111128
116554
117593
130780
127669
128189
123761
127607
122934
128199
92910.3
98551.5
98030.8
105658
99112.3
105584
98134.5
127129
130168
126386
127119
122189
121717
126879
99441.9
97618.4
100876
100482
105905
106820
102310
102997
120826
114036
113404
109651
120031
103394
112846
118903
104705
110055
112434
119389
103933
130755
126036
130223
121854
128053
122708
127158
105424
99993.6
102893
108376
107293
110532
104579
113183
118749
111687
105877
112410
112947
107523
121791
120094
115220
114137
112308
115994
109659
126044
132857
120836
123338
141605
128745
135649
126328
135858
142910
145234
129867
131991
138979
66392.1
62940.5
86658.8
63820.3
81214.6
80415.1
88317.5
88137.1
72706.1
72008.9
79664.4
82661.1
68026.8
92588.3
88634.4
72284.4
76969.8
64932.8
67717.7
66680.4
71116
70051.3
71806.8
72554.5
73420
107225
97097.7
116278
96346.7
81445.1
103036
64836.3
66030.4
66736.7
69205.6
69955.2
71818.8
71359.6
76046.9
80721.7
75315.6
77134.5
82976.7
82587
77640.9
69878.3
72210
69148.4
74204.4
77486.5
77217.3
74723
62721.8
65601.2
65483
68332.3
67848.8
70912.1
70613.3
64378.8
70591.9
67038.9
72537.7
69249.8
71965.9
75189.9
74735.6
80666.1
75229.6
77105.1
82561.3
76875.7
82574.8
68754.5
72352.7
69283.4
74287.4
77219.1
77283.3
74024.3
80590.4
75642.8
77440.2
82538.3
84146.5
79816.9
86292.9
79504.9
85268.8
87849.1
82657.7
82433.9
84972.9
79842
68727.4
72375.1
68713.5
77447.9
73958.5
73861.9
77536
79542.2
85193.1
87883.3
82685.7
82447.5
79517.5
85002
73896.5
79038.3
73278.7
82202.6
76430.7
76069.5
81848.3
88637.6
98604.6
90333.4
99949.2
91779.6
93705.9
101742
80025.3
77412.5
74458.9
77242.1
85499.1
80144.4
82881.2
73550.2
73744.8
70141.8
75138.1
81773.4
78787.9
78236.9
78290.6
87792.9
84905.6
85940
82630.9
88890.1
91992.5
81845.8
92544.3
88115.8
89360.8
84364.1
90472.6
95122.9
85204.5
82880.3
79437.6
79319.1
88859.1
83014.7
85123.1
99444
103304
95362.3
97542.6
109642
105399
101896
100550
95073.8
92439.3
96093.9
106846
99005
104022
80476.7
88789.9
90071.9
86957.2
84218.1
83310.1
86218.9
92577.5
90888.9
87358.8
93302.6
101901
96669.9
98222.6
65890.7
138999
60671
141539
84298.3
118506
130057
142888
121649
125554
130288
103010
124741
81124.8
121354
118033
102010
72248.8
86560.7
60501.6
58285.4
125936
103876
126412
97898.7
75908.2
64432
90180
124592
127781
133536
130491
130467
138994
135546
120998
130661
130848
126990
127611
136875
136654
108396
113467
95289.5
126472
117692
107487
125011
62077.6
80079.5
78660.9
99189.5
80303.6
93544.4
62713.2
77531.1
80114.9
65720.1
72969.4
74698.5
55525.4
59375.3
100822
83973.3
85745.8
105859
109479
94722.6
89747.6
135856
116757
133374
137559
126700
119855
139570
114055
106934
131541
135568
89964.1
111217
123017
87307.2
54365.7
68172.6
79661.4
69892.3
101142
61004.8
71425.4
105267
95903.9
99738.6
77419.3
65680.5
91772.1
63780.2
54681
62399.5
70021.2
62340.5
59817.8
68734.7
86963.1
109423
92424.1
106947
90226.1
110929
93926
139639
133211
133873
142099
146089
146437
141747
84211.3
70849.8
67027
95007.9
87443.9
71395.8
74570.8
141923
136807
136195
143853
147611
148212
142170
69011.7
72060.3
75998
67622.5
72310
78308.1
74706.4
135830
134133
127159
118498
140191
127282
133638
74853.5
60219.2
64832.8
68927.7
79553
69535.7
65683.2
135364
141869
140848
134040
107057
100413
128960
140982
145512
125366
128537
144037
122840
142592
127923
113087
118699
104374
103309
113448
96474
53875.8
56836.5
55927.6
61898.6
59279.8
61123.7
62529
55465.9
61486.1
57692
63333.2
60081.8
62363.3
65611.2
63993.4
66596.8
64161.7
68914
70490.6
68972.2
71056
138905
134140
118012
97091.7
141950
114754
129379
117241
107154
99430.7
124376
116903
99450.2
106035
112050
98932.2
94470.4
119032
114549
96260.3
98741.3
78053.1
80076.2
71552.9
67032.8
85873
65502
74322.2
90763.5
119268
74945.4
78816.6
100149
111690
67966.6
94351.6
96996.9
90918.3
75979.1
82547
80716.2
78496.8
73482.6
67652.8
69004
75425.7
76280.8
71167.3
78389.9
92886.5
80707.5
84044.3
85807.1
92102.1
83006.3
94231.3
63608.2
60835.4
63219.7
68153.3
67482.6
68761.5
66230.7
60283.7
58724.1
58078.8
63198.6
66106.1
65432.9
64190.4
80475.3
71452.2
76189
81208.7
81827
84556.8
77945.5
88083.7
74700.3
83928.6
74367.9
76715.8
79393.4
71166.9
73838.7
75167.5
79436.9
79951.2
74118.8
78907.7
75447.4
62019.8
63589.1
59819.4
64600.6
70131
66844.7
67901
70823.7
68369.4
64949.7
66637.2
74262.5
72365.4
68368.8
121911
125027
119133
100437
106413
101525
106059
70649
67889.5
65151.7
67436.4
75366.7
72885.7
70254.9
114963
131965
142709
121754
113069
138536
120124
69574.5
78873.1
77242.6
75309
73314.7
80440
82253.1
82287.7
93432.2
84172.9
93717.2
84669.4
86681.8
95525.8
73252.6
73008.2
79344.7
77374.6
74010.3
78503.7
71748.3
72928.7
83695.8
79681.1
79734.1
75200.8
81890.1
85934.5
102488
110797
112166
101850
103378
112934
112000
88141.3
98682.9
89378.5
94639.2
90919.1
85869.8
96173.6
68628.2
71726
76598.2
75711
70869.9
74356.4
69871.3
69737
77505.5
74935.7
77782.6
72005.8
75208.5
72647.9
87204.7
94756.6
85803.5
88549.3
98475.2
90131.6
97111.3
79605.7
82130.8
77512.8
84134.3
90336.1
86072.7
88289.3
130973
112760
112558
133637
136153
119597
120113
91307.6
96385.4
87672.7
89768.8
101688
93422.2
98292.5
144903
131586
126786
140714
141470
126655
132857
107309
104023
104962
114377
116851
116635
113978
129083
120366
121111
122337
131172
121919
130907
41396
51810.7
47257.9
61197.2
56816.2
92936.8
102789
56136.2
37445.9
40478.6
55443.8
61696.7
49693.3
35902.6
56098.5
49721.1
51962.2
37969.5
44531.3
43015.5
57869.4
50248.2
43492.5
38291.4
37330.1
39445
39939.3
41247.4
43065.4
41723.1
77929.7
59820.4
50068.4
95208.5
77280
54315.5
61522.7
43256.4
50421.6
43928.9
51425.9
45310.3
46576
52479.8
45024
48256.8
45097.5
50081.8
51710.3
49675.1
52891.7
42246.3
38703.9
40604.3
44665.8
45454.2
46536.1
43525.5
44581.3
39493.1
43762.5
48855.5
46640.1
49206
45043.5
93110.9
81307.5
79020.9
58642.8
67395.1
62807.1
64299.9
49471.2
69702.7
64029.2
55364.7
54704.7
60129.6
49129.8
44527.7
49008.3
44810.5
46926.5
51454.8
46419.5
51183.8
45808.9
50966.8
44599.8
47787.9
54751.1
49460.3
53449.1
51403.3
53501.6
48016.3
49736.9
57926.1
53467.1
54930.8
54862.3
56394.1
59162.5
62077.5
54391.4
59521.7
57504.3
53654.3
51718.5
58619.4
55558
53843.1
58391
50353.1
48842.9
50414.9
55444
53480.3
50891.7
48444.4
53286.2
51402.4
58049.2
57534.2
59738
53364
55418.8
56348.8
38389.6
47209
92317.6
39182.6
42228.4
44760.7
49019.9
49855.8
54586.1
51333
50423.5
36798.2
38458
50990.2
40642.1
50698.1
58487
32224.2
34113.1
29006.9
30972
34879.8
39934.5
36013.6
67573.7
59325.3
80637.9
89406.9
57310.4
64987.7
91775.5
33446.9
34197.3
30199.7
31418.4
34374.6
38063.6
35617.7
48916.2
41921.4
39635.3
47304.5
39967.9
42579.4
49292.9
39658.1
37125.5
34156.9
38645.1
36072.3
40504.2
42797
56543.1
57751.7
68110.2
56572.1
67088.2
57952.3
67975.1
34635.1
42333.5
38531.9
42331.7
42896.8
45436
39165.1
42639
41417.2
39049.5
42663.4
47543.4
45732.9
44785.4
43968.3
45226.3
39656.4
44623.4
46621.1
49248.3
41368.2
52174
47275.9
44880.5
45011.2
51567.5
49645.7
47110
40527.3
34375.7
37002.4
40521.6
42097.7
38444.7
43710.2
44683.1
43579.9
38766.8
42226.6
45427.5
40444.1
46519.1
48463.4
44217
41572.9
44213.2
52362.1
46819.1
50420.3
44615.5
53448.7
47792.6
45795.1
54736.3
49446
51799
79790
79498.6
91640.1
90046.5
78355.4
78774.9
90162.6
58654.1
68331.1
67351.1
59982.2
58651.1
68321.3
69298.7
61230.9
70484.2
69106.3
62148.5
59848.4
69376.2
71174.2
46609.7
50823.6
52493.8
53028.9
50813.4
49230.9
48430.7
46319.2
46962.8
48615.6
52847.1
50551
48964.9
43852.8
44519.1
46201.1
47790.3
51552.3
43032.4
48765.5
47431.3
47581.1
55136.2
56396.2
53881.4
51416.7
50091.7
53144.5
91498.6
79904.6
91499.4
79658.1
91160.7
80935.3
90547.9
89280.7
78632.6
78017.7
78616.6
89561.8
79328.7
89395.2
62194.2
63384.1
60747
69962.5
73319.6
72084.8
71022.6
79795.2
91178
90381.9
82437.9
81490.8
80597.3
90046.1
43882.7
53154.9
90063.5
48416.6
61728.4
58585.3
68277.2
57432.2
67131.6
54624.3
43051.8
57724.1
63852.3
67350.7
54200.8
72521.3
61219.8
60757.4
69751.7
92775.3
77303.3
67243.5
94980.8
91315
46606.2
52516.1
50814.7
49238.3
50832
53051.4
54598.1
46341
48649.4
46972.6
48982.6
50579.9
52875
51347.9
44531.1
47811
46206.3
47434.2
48777.2
51556.4
50705.4
47591.4
56401.5
55136.1
50093.5
51423.9
53882.3
58483.7
57052.4
59999.9
55296.3
57216.8
63138.2
61762
58754.2
53919.1
55917.6
52384.8
55929.3
60707
59307.6
57440.6
69970.4
63387.9
62192.3
71023.5
72086.7
64981.8
73310.3
53528.8
59858
55074.8
57201.4
60905.8
61857.3
56000.2
50584.7
55839.7
52154.8
55849.9
58387.7
59385.5
54628.6
52693.5
57854.8
53220.2
55970.4
60455.5
55482.3
60615.5
59987.5
59814.9
55510.9
58014.5
66293.8
62405.3
62250.1
49936.5
54875.9
50892.9
54877
58224.9
54202.7
58697.2
57867.2
56909.5
53210.2
56908.7
64548
60497.4
61216.9
79809.7
91173.9
90375.4
80596.9
81487.5
82425.4
91755.7
59899
65410.3
64298.5
67539.9
63192
64330.6
61285.3
66410.5
77410.3
74578.2
71794.8
68231.1
76056.2
79139.7
64413.1
75182
72815.1
70104.9
67239.6
75174.8
77602.7
60006.6
63753.2
67719.8
62564.6
63379.7
64518
59029
59225.7
63675.4
62635.7
67504.8
58819.4
62939
63841.4
61033.1
69159.1
69010.7
68361.6
64572.9
65453.2
65039.2
83544
85902.4
94727.8
84708.1
95906.4
87345.2
93630.3
92879.8
83908.7
81930
83898.2
94617.9
85961.8
92867.5
74284.4
73508.9
70591.4
78057.6
83992
80589.7
81305.6
96919.3
99730.7
97547.5
86359.4
91591.4
88550
89208
91800.8
97409.8
101591
103541
93529.6
95548
100038
136793
140231
138968
127231
137159
128564
134581
108763
104901
137786
130892
136439
108775
101909
129447
103180
111962
103331
112687
104815
113234
114276
104125
113559
113109
107199
106097
115132
115972
105635
110526
107275
118417
115368
116669
119934
121019
129814
121335
131990
122740
123409
132789
124151
137760
127192
124096
136641
126594
133346
130210
121551
121962
124059
134826
124899
133669
110155
112171
113816
117845
122952
119068
121372
140909
139284
135210
125226
128543
126238
129872
100222
112645
108531
111234
103458
108025
104901
139447
128527
142730
144940
132963
127263
131259
153822
174114
172129
160174
161932
182623
184942
156201
161744
146993
150590
177267
166000
160141
167055
159000
154407
184670
191590
180868
174886
158404
180210
176757
167282
164245
188091
192254
271342
130776
109743
265311
257194
158687
202461
228677
208665
221225
174546
178834
182418
187288
165819
190119
184613
171107
175786
197547
204055
154876
170371
182997
177014
159885
171062
164837
190606
233150
245796
223758
236992
184030
193538
183840
169784
171804
212663
195818
198611
216174
176597
196826
204887
188030
181376
212029
221720
255539
204888
249555
242568
235451
192207
198178
187001
178010
174485
202430
227034
207471
220931
134701
119939
269822
250972
260607
107157
102679
201638
249153
246224
259214
218020
221545
261371
257042
208786
252838
226338
266881
232337
264010
182427
202769
187812
234432
213953
221832
242972
230829
261263
266415
214777
257387
250106
205625
210550
202160
194328
231189
262257
241856
252555
271141
106759
116308
201502
244230
101995
106614
265562
221021
261362
269803
239342
247207
272361
247956
269469
272701
255421
275141
263143
274195
263561
252902
260170
268770
268926
268598
267877
255810
268316
237075
240696
273643
269790
258773
269532
261439
266748
267232
268535
266305
263456
245440
266294
274183
272971
251118
271440
262402
270335
261225
268599
266151
266447
264488
257565
270215
274171
257182
263223
272257
274886
273796
260647
269018
261940
270753
270904
252453
250083
121056
138638
123371
112073
147502
136151
158551
152014
116625
112785
108417
114344
118159
118804
122903
126152
116260
121055
127654
122567
127653
133124
127740
121814
117738
129851
123937
128370
134653
123763
140707
127879
141424
128525
132984
146337
95107.6
104590
108976
117989
115846
107759
125074
116595
113265
110553
100261
114117
103281
105618
107838
112892
118325
115843
110617
106744
110613
113911
117545
122095
121818
116542
111105
112629
117587
96394.5
93196.7
92320.5
95918
97795.2
100703
98717.7
122015
117700
121422
123167
119293
114830
119402
105520
101910
104021
98299.9
100007
104019
101910
100004
108380
102894
105422
107295
110529
102772
114143
110467
113262
109581
105953
111939
108431
120654
105805
141587
124138
139470
125164
119883
128964
114289
107109
108489
115515
110179
117133
118798
99672.8
114111
101993
126003
113473
101740
124939
124697
107177
100639
99756.3
100914
107391
108460
108779
101834
102010
113435
122240
99072.2
115306
99658
114422
101764
108635
99487.2
99907.6
106435
109062
107013
101962
110102
101031
100434
109607
107863
108872
113792
116981
114173
112291
115054
113394
116538
98862.6
106301
99138.2
99061.1
105910
106291
106559
117242
119753
116294
114660
121678
116044
119035
112304
117037
112963
112959
118334
113386
117037
100645
99765.3
100937
107168
108800
108469
107400
119264
114413
120320
121916
115690
116086
122915
102537
104574
103689
112002
110084
110594
112812
100441
108203
103250
109670
101753
109658
111253
120325
122925
116105
114116
121928
115707
119269
124902
128235
129611
119990
117650
118266
120933
116354
108089
105366
103612
106019
111672
114236
122138
124693
127313
119035
117177
115410
117167
133794
132038
122774
136437
126161
127988
138652
124970
111790
115784
118265
113873
122785
127594
111395
117351
108945
115300
112432
121101
124114
134725
122550
131754
127898
130651
121622
119553
139593
126172
136277
130490
145358
133767
141585
121378
119862
116549
125588
135017
129123
130924
130258
147679
135203
132590
151068
144344
138102
117704
133922
121109
109581
140460
131234
130413
125135
121422
125075
114835
123167
119295
119409
122021
132292
129741
131944
129232
127376
124363
126874
114143
110468
105953
111942
108435
113268
116600
129526
125395
127762
121224
124253
127763
125399
135459
134396
140025
136748
135718
131920
130222
120542
118375
123230
113700
118375
115964
120545
124251
127503
125044
119271
115498
118531
121772
146245
141751
152165
160199
155200
135628
147830
136420
131555
128776
135081
129687
123678
125725
131991
126544
132814
133502
146488
139383
140187
138154
132643
145958
138153
158589
144097
152016
134031
140411
154555
138890
160428
145692
152846
160378
213492
142139
174681
234044
197881
154581
169350
167315
153062
143218
137247
141983
156040
156127
169368
169969
142529
135585
136947
139206
138311
145189
144998
146294
146464
142298
141927
148667
148914
153790
134375
127377
130467
133847
131538
140870
138829
156868
149031
148836
160795
159806
152000
152446
138094
142207
136472
145408
150233
150883
144104
160894
164406
155982
171624
165677
156782
162122
146996
150907
142191
144682
152908
157350
148661
137089
134493
129793
136646
141833
144401
149971
159253
162262
152670
169279
162788
153595
159525
146143
147951
139931
154492
147773
156311
163483
170998
253294
210904
163059
187565
177995
271735
268407
157184
156308
151100
178446
170450
177264
186012
150872
166287
175233
159042
167294
151718
144491
150739
154566
145326
163016
153167
159122
169421
191673
277598
266286
273327
231647
181785
253964
162824
153447
147761
172542
156138
162263
179786
164054
167054
156959
165907
185379
173653
176829
169934
169931
162578
195220
185347
195227
206393
180384
173183
164524
209990
199931
188052
196771
185730
176907
159920
169330
198354
177456
188263
176810
184002
165703
172451
207599
192245
184310
199188
178588
188909
237312
222455
207282
220378
198837
243060
254439
252883
209008
222335
262115
183476
226692
214749
196001
205593
233203
246066
180237
203537
219358
213981
189298
202060
193096
261507
235525
221294
235535
273151
249395
268416
201532
255426
240596
231731
217220
259411
270908
241880
274008
270865
225493
263854
237680
269301
211582
245060
223184
270826
253529
264831
277446
263588
274395
275306
250400
275230
262115
273400
257718
275337
274687
274856
269807
275139
272184
255741
270609
258683
270298
270842
246530
241471
259859
253159
237234
274066
282004
280156
281190
271668
271764
270565
261300
244143
252084
256324
278081
273590
273081
268756
269048
274791
276485
271491
251424
269064
266831
245258
234335
223994
273167
268627
273741
278193
254737
278858
266254
266950
269775
263070
223522
236484
209502
190759
278427
276984
269125
278591
238777
261761
276497
255747
190418
251599
179775
247423
241447
166456
268574
258677
267837
204701
235180
231133
198338
255599
264514
266568
225010
177648
216254
189356
237360
175580
245725
233095
136884
151635
221200
261282
234709
256170
163509
204590
189541
147929
278263
227372
258862
214852
274201
248751
270774
213917
153976
234429
225754
122407
201601
141800
130492
213241
218221
116343
188601
182259
114014
125430
196867
206198
173664
108936
162943
111434
237067
220673
248382
171067
120481
133096
150750
213447
167275
115131
120043
186013
130270
197443
164624
168924
117975
196176
163939
278029
216209
324543
230746
129911
137071
130263
138963
151865
158890
176662
159175
144103
145581
181493
148163
190669
151777
123901
126548
120263
124588
127232
130599
133614
146383
162943
147194
174793
166029
185260
222109
123211
133926
126821
134613
130593
137417
141901
189005
158436
151023
196268
166723
222969
186441
133272
140414
136952
143706
136949
140411
147624
131616
142458
134642
145049
137622
141096
148990
142228
137463
135622
141563
143426
150273
148494
138563
140983
148283
147623
144941
152116
155083
86607.2
85673.2
91940.7
89417.3
109562
127310
108042
103765
82425.6
100589
120316
86244.6
104686
104199
94157.1
93818.6
111900
113114
86254.9
88518.5
88196.4
92225.9
91993.1
94021.9
94287.5
88315
100997
105138
98766.4
94705.9
114628
120748
88308.9
84763.5
90565.1
87963.7
93521.8
90259.9
95780.4
86271.3
88408.2
88243.6
92213.6
92032.4
94076.6
94442.7
111793
130651
104133
124173
107760
124596
145539
90924.6
93485.6
90616.9
96475
99694.2
99374.1
96783.5
98101
104105
97945.4
100061
106457
106344
100284
87153.2
95079.4
92929.3
95023.4
92643.3
98075.9
100350
95557.6
105748
97676.7
108492
100449
102577
110506
85104.7
88246.2
91914.5
87955.4
91466.1
94560
94424.6
91052.1
93592.3
90681
96558.6
100201
99508.5
97101.7
94039.8
105691
99356.5
102849
96266.6
101569
107985
98347.5
104080
97948.4
100094
107088
106344
100658
101823
107673
99841.1
104715
114567
106842
112483
102581
109008
105729
111962
105530
108948
102820
85942.4
91282.9
88918.1
94408.4
92245.8
95361.5
97548.8
91257.6
95089.3
91301.9
101065
97607.8
97844.1
101691
97475.4
94861.6
97734.8
100315
102984
100917
106126
102647
109871
106502
112095
105659
109008
103365
114001
112253
106009
108172
122415
114451
116038
98401.5
105257
98169.9
107916
101108
101242
108401
101186
105338
98676.7
103836
112972
106273
110337
104085
114568
106853
117113
109391
112524
120285
94742.6
96332.7
92373.3
98951.2
105517
103067
101244
85291.9
165313
83529.3
166501
133396
160403
144291
148754