/*--------------------------------*- C++ -*----------------------------------*\
  =========                 |
  \\      /  F ield         | OpenFOAM: The Open Source CFD Toolbox
   \\    /   O peration     | Website:  https://openfoam.org
    \\  /    A nd           | Version:  9
     \\/     M anipulation  |
\*---------------------------------------------------------------------------*/
FoamFile
{
    format      ascii;
    class       surfaceScalarField;
    location    "0.0032";
    object      phi;
}
// * * * * * * * * * * * * * * * * * * * * * * * * * * * * * * * * * * * * * //

dimensions      [0 3 -1 0 0 0 0];

internalField   nonuniform List<scalar> 
84044
(
-1.1717
-1.16575
-0.602418
1.18496
0.687778
1.3232
1.55813
0.480754
-1.34177
-0.397285
-1.39059
1.5353
-1.71097
-0.845427
-1.66751
2.17111
0.963822
1.86807
0.528101
-0.434389
-1.51346
1.87422
1.68138
-2.38929
-1.53117
-0.822944
2.00712
1.48964
0.867996
-2.55149
2.5148
-0.514655
1.63112
0.611809
-1.00702
-0.319096
1.11136
-1.12459
0.384076
1.1687
-1.16088
-0.220672
1.31641
-1.25112
0.292547
1.38971
-0.97055
-0.192853
1.10816
0.254998
-1.14304
1.13328
-0.262135
-0.717185
0.914509
0.316101
0.855064
-0.916336
-0.156229
-0.68457
0.903363
0.208555
0.819631
-0.926479
0.411438
-1.12617
-0.339283
1.1385
-1.02328
1.35722
-0.973361
-0.992623
1.16043
0.192632
1.11328
-1.13584
-1.07658
-0.451764
1.1383
0.524002
1.23565
-0.503071
-0.879428
1.02215
-0.999333
1.01763
0.579385
-0.372795
-0.787655
0.957342
0.434517
-0.943503
0.926586
-1.45276
-0.765816
-1.51328
0.873103
1.68219
1.58379
-1.36212
-1.4121
0.569746
1.5612
-1.25147
-0.65147
1.23394
-1.1147
1.46781
0.741129
1.37916
-1.15227
0.487171
1.1569
-1.04113
-0.67621
0.901231
0.809674
-0.932824
0.137854
0.78511
-0.799524
-0.562788
0.788962
0.185172
-0.796049
-0.56879
-0.855307
0.173643
0.981069
0.158491
0.878384
-0.743133
0.86066
0.210713
0.887214
-0.746869
0.230646
0.987831
0.981157
-0.695887
0.904916
0.831965
-0.9175
-0.234008
0.804654
0.283311
-0.792384
-0.596551
0.792319
-0.789848
-0.578301
-0.266537
0.883408
0.323908
0.91735
-0.765773
0.86765
0.897523
-0.752402
0.290803
0.996233
0.990366
0.352266
1.01372
1.00811
-0.748751
0.932816
-0.925633
0.887585
-0.335142
0.857227
0.392052
-0.831466
-0.662387
0.827176
-0.807017
-0.625285
0.384784
0.907432
0.946285
-0.787688
0.937666
0.450839
0.981398
-0.816701
0.417236
1.0385
1.0339
0.487169
1.06871
1.06489
-0.174797
1.0101
0.231918
-1.0422
-0.959848
1.10819
-1.1526
1.12225
1.00913
-1.05074
-0.205616
-1.12641
0.272072
1.2737
-1.11844
1.15448
1.2646
0.189606
1.06591
0.251353
1.0731
0.628872
2.35333
-2.41887
-0.532253
-1.87673
1.91388
2.43475
-2.45568
-1.8823
0.325594
1.95339
-1.51429
0.260332
-1.46803
1.79536
1.6231
-1.32111
0.222981
1.56061
1.21005
-1.86312
-0.269415
2.37348
1.47326
0.359048
-1.34068
-0.29578
0.372265
1.58328
1.2264
-1.91043
2.41977
-0.45342
1.51948
0.552575
1.0862
0.180039
-0.882172
-1.11124
0.213507
1.22939
1.3826
0.202357
-1.00006
-1.09588
1.11748
0.268913
-1.00475
1.33055
0.998217
0.239167
-0.886133
1.16991
0.256043
1.12054
0.283662
1.23717
1.39214
-0.831817
0.987436
-0.968528
0.970369
-0.455948
0.934349
-0.902383
-0.751912
0.527919
0.893312
-0.863655
-0.705425
-0.523029
1.01081
1.06201
-0.888861
0.601864
0.972353
1.02033
-0.850929
0.563079
1.10327
1.09935
1.14204
1.13664
0.645769
-0.290509
1.01669
-1.02683
0.349721
-0.983505
1.10669
-1.13066
1.1461
1.00988
-1.03117
-0.3411
-1.1541
0.411346
1.18139
1.30235
-1.136
1.16772
1.28398
0.315905
1.08079
0.381557
1.09629
-0.302607
1.02101
0.368081
-0.905196
-1.10689
1.12507
-1.01119
1.00601
-0.89231
0.323403
1.18093
1.12964
-1.199
-0.35752
0.432991
1.26026
1.41899
0.392509
1.14592
1.24589
1.40281
-0.461636
-0.4212
1.57006
-1.55911
0.492784
0.649409
0.310385
-0.337868
1.71143
0.588
-1.81204
0.114132
0.144251
-0.276173
1.76928
0.29427
-1.77008
-0.811589
-0.311993
-1.28819
0.3683
0.997219
-0.136601
-0.341855
1.71602
0.386258
-1.70738
0.400404
-0.765844
-0.191122
-1.35902
0.253402
0.956024
-0.288767
-0.357072
1.48982
0.293226
0.578002
-1.50338
-1.30586
0.950213
-0.236903
0.186694
0.260868
-0.0131546
-1.02035
-0.126877
0.427371
0.174422
-0.291639
1.1824
-0.287981
-1.33866
0.252376
-0.0807029
0.307269
-1.36504
-0.652485
0.83265
1.17166
-0.462289
0.516485
-0.32446
0.974225
0.484012
-0.330561
0.366435
-0.902478
-0.426156
-1.25292
0.48799
1.07993
-0.398079
0.433177
-1.66972
-0.40987
1.52128
0.647544
-0.286862
-1.38545
0.0564807
0.283967
1.21341
0.132672
-0.335542
-0.579773
-1.06035
0.384079
0.734447
-0.366118
1.63117
0.282807
0.61123
-1.65614
0.291215
1.77522
-0.0775723
-1.84328
0.225812
-0.149687
1.49076
0.365893
1.71365
0.28908
-1.72161
-0.164055
0.248764
1.43756
0.372923
0.228418
0.0750339
1.58613
0.265322
0.0639314
1.53544
-0.377071
1.55905
0.60752
-1.56888
-0.311198
1.58575
0.328978
-0.117884
-1.58694
-0.273548
-0.101159
0.285959
0.30073
1.64946
-0.133263
-1.64849
-0.147296
1.37081
0.350864
0.302645
0.0771771
1.47402
0.329484
0.117361
1.41451
-1.42978
-0.0308714
1.25206
0.226138
-0.216839
-0.281831
0.259155
0.428659
-1.40121
-0.335002
1.48491
0.329165
0.0118791
-1.48713
-0.301315
0.517996
-1.44542
1.52949
-0.0659506
-1.53193
0.343284
0.181963
1.36446
0.352159
0.261757
1.32548
-0.260017
1.8053
0.296312
-1.80107
0.405046
0.180527
1.8236
-1.86164
1.84919
-1.86568
0.436105
-0.315227
0.228748
1.70567
0.567934
0.228421
1.65245
0.309533
0.280133
1.61021
0.294705
1.66701
0.564786
-0.155651
0.12662
0.201678
0.0542512
-1.04683
0.414543
-0.280087
0.117901
0.0643217
-1.19287
0.149734
0.574381
0.172265
0.319948
1.16262
0.228361
0.328258
0.202706
0.587793
-0.328454
1.66106
0.35954
-1.65565
0.122808
1.71531
-1.71033
1.76158
-1.75341
0.387599
0.319226
0.329786
1.5556
-0.352043
-0.352764
1.56702
0.599601
1.61801
0.572003
0.366319
1.50095
-0.215615
0.478371
0.252091
-0.342156
-0.981706
0.446213
-0.310668
0.147825
0.0299598
0.272246
1.12174
0.346368
-1.087
-0.24956
0.292082
0.636735
0.305522
0.380804
0.605415
-1.35435
0.152504
1.1897
0.0282256
-0.241011
-0.00341146
0.192941
-1.34816
0.237245
-0.114727
0.316427
-1.36797
0.325861
1.4515
0.102989
-1.45247
1.43044
0.202391
-1.42926
0.333744
0.367883
0.34826
1.29763
0.438853
1.28249
0.395162
-1.6288
-0.479988
0.465144
1.4831
0.707457
-0.416991
-0.252834
0.438752
-1.6192
0.502161
-0.183877
-1.66079
0.442042
-0.379031
1.56592
0.388256
-1.5602
1.60918
-1.60398
0.390914
1.45255
0.412267
1.41378
-0.524218
-1.06646
0.681206
-0.289377
-0.936347
0.331971
-0.443086
-0.935274
-0.387523
-0.278
0.318335
0.296272
-0.155126
0.245366
-0.076875
0.332131
0.433989
0.359787
0.500177
-0.171196
-1.27345
0.228909
-0.752937
-1.3909
0.944393
-1.30671
-0.534615
0.206534
0.758293
0.189242
-0.542902
0.275642
0.766285
0.252429
-0.333283
1.59561
-1.58519
0.572303
-0.398502
1.50754
-1.49985
0.418234
1.5318
-1.52529
-0.637423
-0.50108
1.43259
0.545496
0.845133
-0.438234
0.474193
-0.556627
1.45361
0.77388
1.38405
0.949616
0.399466
-0.241472
0.382872
0.641449
-0.505001
0.705457
-0.569093
0.444263
1.07918
-0.395717
0.443499
-0.440486
0.854872
0.50671
-1.06496
0.793255
0.574123
-0.281466
-1.19868
0.330675
-0.781967
-1.32125
0.970233
-1.23349
0.333208
-0.558138
0.778512
-0.58864
0.381643
0.804964
0.304032
0.345584
-0.381278
-1.16569
0.436468
1.04492
-0.853049
-1.26615
1.12659
1.03497
-1.17661
1.03226
0.426233
-0.635971
0.846287
-0.69499
0.472239
0.898164
0.381245
0.418441
-0.524256
1.25126
0.585098
1.02191
1.24847
-0.761366
0.957117
1.01518
-0.498736
1.08948
0.569919
-0.556237
0.632298
1.18506
-0.957107
1.15121
1.13018
-1.16391
1.06396
-0.411842
1.0513
0.47884
1.03881
1.0314
1.12211
1.19933
-1.17879
0.485152
1.20075
1.32703
0.450672
1.11909
1.20857
0.524847
1.1461
0.563989
1.22426
1.35716
-1.54091
0.627921
1.92474
1.71533
2.00333
0.911958
-2.31088
-1.77892
-0.863568
1.71156
2.29451
-2.40922
-1.86629
0.71797
1.88794
-1.43424
-1.18499
-0.620003
0.712523
1.68977
1.31163
-0.770346
-1.46486
-2.08184
0.88955
2.47579
1.64619
-1.13926
-0.450799
0.533086
1.62445
1.25911
-1.42099
-2.00824
2.46621
-0.657956
1.59823
0.437288
1.04247
-0.925061
-1.18255
1.17863
0.567133
-1.06266
1.40471
1.06824
0.511277
-0.950258
-1.22302
0.51175
1.27927
1.44051
0.46515
1.16765
1.25049
0.54241
1.19324
0.594871
1.30254
1.46619
-0.552159
1.1061
0.632892
-1.11919
1.15926
1.27705
1.07602
0.605024
1.24338
1.17627
-1.28308
-0.649002
1.28233
0.740711
1.43369
1.21
0.691926
1.25131
1.39279
-1.24234
1.30697
1.37952
1.23429
0.20638
0.239071
-1.3548
1.4918
-1.36409
0.316533
1.5261
1.5029
0.225605
1.44571
1.24398
0.274061
0.299566
1.45626
-0.590447
1.12955
-1.01115
0.674967
-1.21589
1.20403
-1.08725
1.09737
-0.979401
0.624828
1.28061
1.22278
-1.31418
-0.683561
1.36555
1.53334
0.778933
1.25626
0.712833
1.33115
1.49658
-0.367406
-1.27816
0.443761
1.41888
1.32624
-1.26135
1.40112
-1.37453
1.53898
1.51607
0.345144
1.25413
-1.27067
-0.376742
0.455406
1.48421
0.41776
1.46738
-2.52556
-1.45575
-0.893892
2.41554
1.51211
0.974371
-0.59294
-1.37643
0.681188
-1.07007
1.62068
-0.727184
-1.94655
0.840097
2.44189
-1.30534
-1.82609
-1.07587
2.2912
-0.763435
1.20282
0.870594
0.88898
1.49097
-0.607326
-1.24968
0.68983
-1.02929
0.5099
1.5613
-1.31968
0.456415
0.835482
1.39619
-1.13925
-1.89274
2.40529
-0.622783
-1.27082
2.55831
1.15023
-0.614162
-2.02951
0.717093
0.850339
1.42434
0.529811
-1.17234
0.472315
1.44884
0.928294
-1.19917
1.47572
0.548156
0.944956
-1.23051
0.500418
0.916193
1.65552
0.931295
0.580324
1.68541
0.516849
1.01504
1.71281
0.60135
1.0341
1.74346
1.54158
-0.628731
-1.30278
0.988257
0.714813
-0.974244
-0.690515
1.08234
0.784181
-0.666059
1.76064
0.757091
0.868059
1.45587
-1.20961
1.5067
-1.26541
0.964869
0.950752
1.71998
1.05652
1.78062
0.489722
1.50355
-1.25977
-1.04791
1.58842
-1.3466
1.16007
1.53017
-1.28889
0.568944
-1.12517
0.559947
1.24555
1.85334
0.537428
1.77721
1.14641
0.625058
1.81121
0.651168
1.26987
-0.410841
-0.636553
0.84305
-0.798432
0.478716
0.0798551
0.32798
0.284792
-0.171256
-0.792696
0.1678
0.717876
-0.207149
-0.494229
0.688928
0.252318
-0.656778
0.175524
-0.140815
0.33723
0.344145
-0.225138
-0.470611
0.121091
0.661695
-0.651718
0.391383
-1.05335
-0.916145
-0.322644
0.341494
-0.280073
-0.83984
0.729592
-0.782933
1.01243
-0.783056
0.16896
-1.18913
-1.00423
-0.622422
1.40976
0.708699
-0.444194
-0.330302
0.653948
0.533923
-0.574194
0.388822
-1.00132
-0.543531
0.80263
0.621606
-0.299581
-0.552399
0.751765
0.351595
-0.709352
0.212152
0.353508
0.380691
-0.260871
-1.0812
-0.93231
0.463638
-0.870192
0.404989
0.741807
0.326364
0.302691
0.110491
-0.187207
0.0940668
0.404849
0.395192
-0.330453
0.417863
0.125984
0.394014
-0.341134
0.113158
0.486103
0.520787
0.483162
0.150213
0.535707
0.122402
0.560625
0.60221
0.162141
0.559522
0.61555
0.327941
0.320929
-0.204803
-0.160477
0.451756
0.198667
0.408932
-0.366083
0.430435
0.398088
-0.349932
-0.190584
0.492787
0.236001
0.573052
0.484711
0.550817
0.206479
0.562547
0.629322
0.254613
0.571362
0.652471
0.376588
0.431533
0.251025
-0.314596
0.238506
0.486625
0.42923
-0.397867
0.283363
0.506717
0.606412
0.53487
0.281127
0.457512
-0.446321
0.526671
0.33309
0.650535
0.304558
0.587847
0.68635
0.357759
0.611357
0.729864
0.106869
0.533434
-0.493064
-0.473056
0.667645
0.163127
-0.651787
0.542648
0.143416
-0.498122
-0.64522
0.14497
0.132883
0.689395
0.646758
0.176407
0.701226
0.192658
0.79278
-0.479999
0.673602
-0.649579
-0.182488
0.569256
0.223811
-0.512347
0.551062
-0.500423
0.224321
0.650965
0.714307
-0.661781
-0.244318
0.297909
0.82631
0.274911
0.737496
0.804704
0.142171
0.612822
-0.805618
0.718098
0.22168
0.611108
0.187758
-0.865099
0.175124
0.803568
0.150027
0.694051
0.87657
0.198625
0.694015
0.232001
0.805278
-0.295681
0.559628
-0.458266
0.349372
0.407693
0.492302
-0.381938
0.591706
0.493289
-0.506474
-0.388291
0.582874
0.758634
0.451443
0.552318
0.702184
0.417181
0.640459
0.779761
0.674351
0.833561
0.484658
-0.818974
0.721813
-0.23779
0.621585
0.291763
0.613502
0.251909
0.888478
0.697526
-0.909266
-0.29319
0.356564
0.818338
0.308124
0.706073
0.809755
-0.518972
0.715546
-0.677026
0.26724
0.600319
-0.538787
0.642975
0.314451
-0.579608
-0.681024
0.354599
0.858238
0.327997
0.770997
0.70782
0.385387
0.812442
0.416416
0.896957
0.347645
0.634467
-0.908966
0.758308
0.471725
0.652231
0.406422
-0.939179
0.422344
0.832422
0.366567
0.720912
0.976586
0.428737
0.741491
0.492211
0.851066
-0.897377
0.192429
-0.938416
0.183362
0.158982
0.7851
0.948851
0.210768
-1.02202
-0.900608
0.255552
0.224164
0.243254
-0.592405
0.794805
-0.750585
-0.368621
0.748951
-0.688324
0.432015
0.693599
-0.630648
0.449384
0.740016
0.859436
-0.776467
-0.484932
0.986127
0.560515
0.909611
0.521272
0.939872
0.267076
0.789753
0.960433
-0.800194
-0.28375
0.345453
-0.980923
-0.307258
0.373032
-1.03347
-0.905871
0.325681
-0.470687
0.701639
0.54228
-0.953473
0.778637
0.674688
0.49701
1.01869
0.766958
-1.06377
-0.567714
0.900064
0.649175
0.796523
0.572605
0.87397
0.832888
0.486889
-1.564
-0.286057
1.70966
-0.911126
-0.0531389
1.43874
1.50379
-1.10133
-0.00441342
0.00981525
0.316186
0.00635766
0.0160278
-1.69606
2.73126
0.605848
2.17529
-0.685994
-2.38036
1.88497
-0.180235
-0.37563
2.32766
-1.83516
0.717661
0.49255
1.77829
-0.597713
-0.103347
0.00631063
1.2756
0.931254
-0.656734
-0.959043
-0.45382
-0.531958
-1.67361
0.749608
-0.493209
1.56223
0.223881
-0.251232
-1.33169
0.997176
1.40749
-0.7683
-0.0651759
-0.12601
-1.02893
-1.48079
1.54409
1.04124
2.70473
0.675875
-1.03615
-0.679869
0.218876
1.47093
2.16907
-0.930074
-0.501546
2.44139
1.65782
0.43786
-1.1058
1.32699
1.25918
-0.332145
-0.953953
-0.0174229
1.96631
1.76669
-0.474872
2.34344
0.166884
1.98303
1.02708
-0.604869
1.54415
-0.840006
0.401842
-0.916047
1.01404
0.900329
-0.454407
1.18304
0.192902
0.725249
-0.500525
-0.965721
-0.24067
0.63219
-1.14359
-0.0704314
1.25631
-0.451433
0.0341475
1.35264
-0.122092
0.861833
-0.599785
-1.07247
-0.658513
-2.01027
0.595326
-0.38324
2.07655
-1.26428
0.962319
0.180629
1.34923
-0.745406
-0.918341
-0.184533
-1.38645
1.58023
0.955081
-0.0271935
0.043118
0.153499
0.0406909
0.922094
-0.764537
0.20274
-0.425528
-0.930329
0.632535
-1.01678
-0.0839131
-0.83668
-0.401799
0.367926
-0.725192
0.913463
-0.419935
0.600123
-0.85885
-0.414458
0.307955
0.114634
0.0399997
-0.0712185
-0.0169518
1.2312
-0.291552
0.586553
-0.791821
0.181027
-1.15863
-0.19985
0.0363737
0.07912
0.240539
-0.0435213
-0.247349
-0.919399
1.04751
-0.724752
0.230764
0.0989031
0.784646
-0.399499
-1.6146
-0.538615
-0.420903
-1.66071
-0.269494
0.950618
1.62825
0.97243
-1.11241
-0.684729
-1.12225
1.24761
0.474558
0.0554862
-1.20329
1.16039
-0.179651
-1.58092
0.963983
1.88033
1.55875
-1.12434
0.510813
1.2225
0.369073
-0.90692
-0.431596
1.24098
0.588051
-0.905347
0.214577
1.24824
1.73662
-0.232924
1.67406
1.81666
-0.700514
0.517191
1.43119
0.371752
1.42506
-0.594767
2.5723
0.323859
-0.656212
-1.88955
-0.935221
0.676664
0.358377
1.61486
-0.463265
1.39644
-0.217646
-2.13148
1.08907
-0.660283
1.95766
1.86918
-0.241225
1.59713
0.662917
-0.860336
0.349432
-1.01609
1.46806
-1.89996
0.517264
-0.742686
-0.313468
2.17615
-0.469167
0.682714
-1.66568
-0.459301
-0.451161
-1.86592
0.776027
2.01495
0.622233
-0.521178
-1.62924
-0.403435
-1.73117
-0.558027
0.715155
1.97719
-0.264057
-1.55675
0.874265
-0.341433
-1.49088
0.81566
1.05905
1.03088
-0.745284
-0.771253
0.107323
0.855582
-0.260969
-0.595244
0.985604
-0.700778
0.0697013
-1.12095
1.17045
1.24785
-0.147029
0.0767862
1.13759
-0.955065
-0.0479839
1.04656
1.23585
-0.827162
-1.30548
-1.30435
1.25213
1.22468
-0.239348
-1.64975
-0.154863
1.6492
-1.28101
0.912774
0.130353
1.26469
-1.26307
-1.11853
-0.146866
0.0610565
-1.23563
1.17369
-0.0339757
-1.44147
-1.24418
1.27631
-0.157102
-1.02835
-0.847805
-0.308751
-0.411149
-0.563724
-0.330428
0.256124
-0.626536
0.0598625
-1.15649
-0.608393
0.280032
0.0972819
-0.711793
-1.09301
-0.438436
-0.563605
-0.479096
-0.270677
-0.366471
-0.659298
-0.204975
0.309578
-0.418086
-0.607788
-0.129505
-1.75472
0.484631
-0.282745
1.95186
0.668884
-1.37745
0.67172
1.50522
-0.751327
0.594282
0.574621
-1.38366
-0.366277
-0.660733
0.585629
-1.53728
-0.373696
-1.57137
0.678002
1.74578
-0.441381
0.772889
-1.37607
0.757533
-1.21384
-0.517521
-0.292871
0.780291
-0.533774
1.36726
0.795512
-0.140037
-0.552612
-1.11364
0.714967
-0.320491
-0.482356
1.27887
0.0401154
1.06304
-1.01396
-0.100725
0.972367
-1.25092
-0.163152
0.90716
-0.0100825
0.993941
-1.00912
-0.300544
-1.66438
1.87333
-0.866195
-1.25808
-0.304676
1.40896
0.903572
-1.53185
-0.42401
1.72985
-1.04818
-0.0235111
-1.175
1.10822
-0.125645
-1.39947
0.990615
-0.223937
-1.31831
-0.126825
-1.082
1.0545
0.49741
0.864594
-0.452264
-1.91436
0.631929
1.78801
1.2012
-0.846959
1.51887
0.392819
-1.55576
0.943524
0.298219
1.57677
-0.702428
0.340147
-0.702246
0.293467
1.50013
-0.923732
0.031604
-0.331592
0.765085
0.340628
-0.506592
-0.772248
-0.769273
0.202467
-0.424551
-0.935015
0.513534
-0.442408
-0.0280882
-0.535483
-0.5157
-0.161156
-0.440239
-0.538479
-0.027879
-0.45039
0.096853
-0.447726
-0.466915
0.314561
-0.68614
0.322649
1.07697
0.570546
-0.734278
-1.01569
0.328476
-0.563525
-0.550216
0.711307
-0.187
0.13593
-0.714216
-0.295741
0.236834
-0.0238951
-0.627996
-0.330082
0.0418699
-0.22247
0.243838
-0.612465
0.23804
0.024598
-0.165404
-0.219746
0.130516
-0.200508
-0.170478
0.201001
0.0358781
-0.0161232
0.0308421
-0.133982
0.120768
-0.228066
-0.133904
-0.13743
-0.208889
0.0514505
0.0446941
0.165406
-1.09324
1.32859
-1.41815
0.991213
1.47603
-0.751325
1.1489
-0.224395
0.173887
-0.887227
-1.23405
-0.206831
0.158113
1.29997
0.0799725
-0.81702
1.37356
0.541601
-1.17424
1.28683
-0.612171
-0.834057
-1.09693
1.21559
0.882004
-1.36747
1.51309
-0.329933
0.955012
-1.19186
-0.952041
0.218657
-0.787727
1.03142
-0.271031
-1.02516
-0.397514
-0.94791
1.02715
0.383507
0.652587
-0.434617
-0.436863
1.31064
0.752504
-0.51914
-1.07521
0.673534
-0.450214
-0.247695
-1.16564
0.86147
1.02527
0.0790555
0.920483
-0.817238
-0.13403
0.84034
-0.312479
0.947675
-0.940003
-0.660661
-3.26553
7.42844
3.1726
1.69831
-1.32854
0.819666
2.63398
-0.840344
-0.00804829
0.987104
-1.68748
1.85072
-1.04824
0.455173
0.271675
1.86801
-0.141707
-0.151961
-0.983064
1.59293
3.25673
0.745233
-1.57228
-1.2494
-2.36342
4.53009
2.29135
1.19707
0.93696
-0.718614
0.786253
2.37047
-0.680852
1.01278
0.54413
1.47645
-1.1901
-1.46132
-1.38
1.90849
0.300938
-1.84981
-1.49185
1.47071
-1.11211
-0.610552
0.548912
0.956925
1.50345
-1.28962
-0.786482
-0.811426
0.927349
1.13435
-2.02126
2.19245
-1.2698
-0.387285
3.00084
0.256185
-2.98758
4.90203
2.46231
-2.56894
-0.816399
4.62
-2.05575
-1.77887
5.99243
0.937998
1.75748
-2.98983
2.23206
0.11372
-1.784
1.64705
-5.28083
0.203333
-3.13794
3.6677
3.28812
-0.83765
1.82004
0.207556
-1.70199
-1.17581
-1.60826
1.20863
-1.76413
1.55919
-0.724042
-0.658731
-0.163164
1.52101
0.132924
0.933891
0.141628
2.36258
-0.554562
-0.245448
0.292138
0.341199
2.64154
0.488512
-0.450241
-0.632873
0.422554
1.41697
-0.278515
-1.16648
-1.1358
0.69852
-0.540814
-1.98674
2.13124
-0.274688
0.152905
-0.345925
1.25577
-0.959948
-0.676827
-0.3796
-0.096271
-1.66255
1.59127
-1.93157
3.98635
1.82245
-1.42369
1.07058
3.19647
-1.09003
3.70423
-2.10884
1.12611
-2.11753
-1.23217
1.99354
2.7228
1.0811
-1.12723
-1.83829
1.36923
0.999129
1.73911
-1.54993
0.679729
-1.20033
1.44362
1.91014
-1.47563
-1.2614
5.23209
0.632521
-1.50832
5.35244
1.30911
4.59365
-1.83301
1.23007
-1.65903
4.4155
1.32148
-2.58602
0.267082
5.47381
2.14885
0.654849
3.45915
-2.06266
0.0440767
4.59597
-2.85491
-2.70098
7.01156
2.45638
0.43874
5.87165
6.06054
-3.28004
-0.321188
-3.74922
6.68134
3.80751
-3.36839
6.40945
3.10592
0.0607363
5.15836
-3.37628
5.21798
-3.49161
0.510522
2.44336
-0.575683
1.66954
2.80907
-1.2416
0.560551
3.11004
0.91454
1.49981
-0.981327
0.902777
-1.16149
0.798553
-1.106
0.832573
0.942336
-1.2592
0.269289
-1.11553
0.376194
-0.904057
-1.00803
-1.89402
-1.26912
1.77677
1.09873
0.907127
-1.61664
-1.5468
1.71749
-1.31439
-1.3208
-1.60527
1.2944
1.66311
-1.04123
-1.48714
-1.30311
0.652005
-1.6858
1.67506
-1.4906
-1.32633
1.4002
-1.40977
-1.47868
-1.51676
-1.39198
0.730801
-1.69395
1.27938
-4.04243
-2.494
-0.409983
2.28083
0.673791
-2.6866
-0.320712
2.31908
-0.8894
0.824275
-1.84256
-1.05695
0.257344
-2.00464
3.10547
-0.411152
-2.74823
-0.391155
-2.43275
0.123071
1.29064
-1.56876
-0.95855
1.5655
1.04263
-1.87234
2.00675
-1.3652
-1.5011
1.50848
-1.06325
-1.15651
-1.42323
1.09402
0.918614
-0.737945
-1.75564
-1.13795
-1.69402
-1.28654
-0.785339
-1.46952
-0.808915
2.70703
0.168701
2.6539
0.217637
-0.18676
-0.815364
-0.683337
1.26076
0.470148
-0.314798
1.61227
-0.382224
0.0769318
-0.552536
0.581418
-0.790955
2.34524
-0.0965829
0.0749355
0.828193
-0.156498
-0.54173
1.10966
2.75691
-1.0954
-1.46442
3.49691
1.26823
2.84494
-1.32153
1.35777
-1.2435
-1.27304
0.558785
1.67301
-0.946418
0.375221
1.78027
-1.64451
0.868202
1.63465
-0.990143
0.822912
-1.24142
-0.459984
4.12048
0.212449
-2.33501
2.03236
3.71716
-1.93163
4.02245
2.17182
0.0577411
2.75227
-2.00517
0.280407
2.95285
-2.73813
-0.0693504
3.95418
-0.113376
3.55431
-2.32148
0.128196
-3.71551
4.0895
-5.06853
-2.9597
3.1358
2.56807
-3.43937
3.46784
3.87407
-0.231319
-3.14241
0.197603
-3.99962
-2.68742
2.31676
-2.64163
1.68766
-3.2106
1.37161
-0.545909
-1.99736
2.17073
0.822463
-1.4066
1.58061
0.674722
-0.293101
-1.35654
0.556016
-0.693414
1.28683
-0.239455
0.321009
-1.06792
-0.357365
1.58034
-0.309692
-0.655338
-1.34294
0.621845
-0.537127
-1.26686
-2.15161
2.50301
0.824321
-0.298847
1.37171
-0.281243
-1.1067
-0.0712673
-0.876322
-2.05103
2.14555
0.527487
2.09199
-0.378159
-1.00824
2.36396
2.1371
-0.67805
-1.05301
-1.01941
0.250488
0.808033
0.904199
0.430864
-0.530177
-0.696621
0.471981
-0.943366
0.285727
-0.701639
-3.14692
4.88096
0.133866
4.18498
-2.60472
4.08919
-2.6774
-3.06166
-0.0400587
4.28057
0.083093
3.08422
3.69904
-2.47982
3.76398
-2.48023
4.24646
-0.669921
-1.45054
1.34094
0.354846
-1.84876
-0.984943
-0.25821
1.93795
-1.22271
-0.342067
0.933514
0.756607
-0.43178
-1.00278
-1.69313
-0.468377
-1.35055
-0.595291
-1.17627
-0.143695
-0.876245
-1.60972
-0.131811
1.39066
-1.02147
-1.29151
-1.34397
1.52716
-1.09463
0.407087
-1.53352
0.731792
-1.43226
1.3727
-1.40618
1.43481
0.890981
-1.1723
-1.38236
-1.27321
0.91107
-1.35738
-1.38124
-1.0892
-1.25734
2.65212
0.639103
-0.611765
-0.20948
0.214397
2.08682
-0.412715
0.00778386
1.86847
-0.228684
-0.466022
2.40301
0.475728
2.3499
0.323256
0.338092
1.04687
-0.3481
1.21239
-0.250864
-0.94738
-1.27722
-1.06197
0.934105
1.2338
-0.598172
-1.00943
1.53009
0.733722
-1.38655
-1.00102
1.04669
0.73599
-0.677756
-0.973451
-1.16718
-1.13461
-0.680991
3.18445
-2.67949
-0.23519
0.388372
0.204009
2.65906
-2.06826
0.158543
-3.31013
1.85952
2.24572
-2.86678
0.285327
-1.83257
1.15036
0.335142
1.30844
0.328338
-2.10088
2.02001
-0.139997
-1.84982
-0.733649
0.462664
-1.20929
-0.00739483
2.53611
-2.50896
2.21153
-2.28856
-1.86333
0.0311118
-0.0168496
-2.05175
2.00703
-0.327332
0.704463
-0.197994
0.412735
-0.509027
-0.344563
0.358755
0.0370936
1.71683
0.23371
0.0273057
1.94374
0.0845109
-0.516363
0.435982
0.0273651
0.389769
0.159715
-0.368179
-1.14258
-2.07012
-0.250228
2.40698
-0.573704
-2.17529
-1.32242
2.48445
0.858824
-0.462739
-1.06222
-1.84719
0.767548
-2.08151
-0.285149
-1.18838
2.38118
-0.937239
-0.163378
-1.76407
-0.485259
-1.08331
-1.89999
0.781845
-0.195686
-0.952768
-1.8045
1.13103
-0.238932
-0.876387
0.60783
-0.351826
-0.822886
-0.333471
-0.513827
-1.02384
-0.0058883
1.32729
0.335689
-0.515007
0.0372635
-1.06822
-0.703547
-0.0418619
0.0899757
-0.769551
-0.121413
-0.871898
0.286248
-0.0657003
-1.71644
-0.836187
1.73083
-0.999149
0.539933
-0.433617
0.242972
-1.06751
-0.196618
0.272298
-0.60648
-1.58863
-0.744814
-1.57213
-1.04459
-0.123088
1.60557
0.134806
-0.57088
1.8968
1.90708
-0.406543
0.44455
0.502846
-0.529331
0.401521
0.35606
-0.327234
0.367537
-0.303308
0.558975
-1.01791
-2.03518
2.277
-0.0258768
-1.9752
-0.928227
2.28985
-2.01138
-1.05998
2.32205
-0.149176
-0.669335
-1.6794
-0.809733
-1.69937
0.102777
-0.823394
-1.73146
-0.694444
-1.68251
-0.570622
-2.13665
2.37603
0.855132
1.23262
-1.88268
-0.273916
2.0512
-1.2725
-2.02686
-0.294973
2.2583
1.12307
-0.463369
-1.79668
0.74464
-1.15022
-0.482818
-1.89383
0.776591
-0.986342
-0.200216
-1.7893
-0.186673
-1.68412
-1.01727
-0.387322
-0.857291
0.699732
1.48892
-0.532754
-0.00120124
-1.24224
-0.731806
-0.0828165
1.64918
-0.316761
-0.661837
-1.41322
0.613747
-0.399056
-0.867884
0.700813
-1.55333
-0.103587
-0.737995
-0.0191842
-0.53611
-1.31327
-0.4144
-0.968575
0.337142
-0.413321
0.984476
-0.720027
1.26402
0.25507
-0.401933
-1.00024
-0.271317
0.282292
-0.454613
-0.58697
-0.712673
1.10687
-1.77666
1.94284
-1.15512
0.00160807
-1.86169
2.08631
-1.9324
2.15667
-0.861771
0.0851896
-1.69836
-0.0900322
0.743272
-1.49275
-0.79185
-1.58222
-0.902105
-1.62535
1.41888
-0.411253
-1.16442
-0.222517
-0.473353
-0.606624
-1.47592
0.187647
-0.611945
-0.268193
1.41729
-0.286964
-1.17236
-0.414331
-1.23598
-0.481055
-2.10904
2.05438
1.99926
-2.03884
-2.27714
11.8424
-2.6997
-3.63687
2.7441
1.25596
-2.41856
-1.01651
-2.80464
3.19264
3.54972
-1.7202
-2.83765
-13.0997
-2.01269
13.3253
-5.0378
-8.46974
7.99154
-4.3297
-2.33151
3.44527
-8.47255
-4.5647
-2.30961
3.78427
3.32915
-0.91121
8.78221
-2.79277
1.32022
2.41509
5.99954
5.03034
4.34679
-7.18679
0.0657019
-2.09279
-0.133843
1.30558
-2.87254
1.47782
2.66149
-3.13121
-4.75754
-0.796043
3.50994
1.15644
2.17831
-2.29062
-0.969628
-1.91068
4.86205
4.63829
-1.98469
-4.19733
0.821761
2.07507
3.02104
-1.60249
1.30666
-2.81191
5.02006
-0.744738
1.38908
-0.671983
-1.95977
-1.33179
2.25343
0.531139
1.20154
-0.946473
-4.52796
-2.09879
3.84565
-6.94579
-1.87973
-4.82128
6.84434
-1.90554
-4.78394
3.86895
6.64734
-4.11885
-1.5439
8.05591
3.17004
-1.80306
-3.74322
2.80333
8.04242
-1.98913
-4.03226
6.51098
-1.48208
4.64393
-1.64424
-4.16304
4.7072
-5.79487
-1.68892
5.65368
-1.90277
-3.99244
5.505
-1.5685
4.58331
-3.59548
-1.66118
-3.88335
5.24363
-1.30763
-3.45522
4.19033
-1.29945
-2.54103
-4.27499
-10.3527
-3.16844
10.9288
-2.7701
-2.11546
11.2675
-3.61102
9.837
-2.6262
1.71035
10.2985
-3.0929
11.8807
-4.2713
3.52791
-1.16627
2.89817
-2.83719
4.03257
-1.9229
-1.46632
3.77451
3.01771
3.15802
-1.23961
-2.39706
3.84517
-1.5339
-2.86938
3.31988
-1.11463
2.67326
-0.855017
-2.30287
-1.53687
2.41232
1.26915
2.21077
-2.38436
-2.36741
-0.740087
3.36196
-3.39644
-3.54972
-0.44889
2.98923
2.7227
-2.72013
-2.72388
-12.7245
-1.24543
9.02022
-5.62252
-5.97047
-2.86708
1.30659
-1.99041
2.15733
3.58061
-0.229814
1.11711
-3.21152
-2.10106
1.93189
1.99725
-1.20779
-1.98688
2.42723
1.17497
1.79428
-0.889775
-2.29946
-1.85295
-1.97138
1.99304
-1.98763
-2.22085
-1.55763
2.35156
2.07083
-2.34957
-2.26057
2.74747
-2.35551
-0.123562
-1.50767
1.59325
-1.12452
-2.2529
-1.54715
1.89348
-1.92023
-1.3129
-1.86784
2.76257
1.17479
-1.58015
-0.886807
-2.51894
-3.81205
-0.827836
-2.60694
1.94636
4.21638
-0.975787
-3.66209
-1.11893
4.48836
-3.75506
-2.39474
2.73651
-1.1197
1.02857
-3.28126
3.55995
-0.879202
2.66772
-2.78131
-0.892829
-1.94702
-1.47252
0.215261
-3.58926
-2.13804
2.86761
-5.98153
-1.19562
3.62912
-1.58293
7.35498
-3.37487
2.18915
-2.02699
2.70902
-5.24079
-1.17322
2.13381
1.51069
-1.97522
4.82386
-1.20498
-3.35926
5.28872
3.42102
1.35941
4.15937
-2.56866
4.40263
-3.05478
1.08429
-2.55834
2.55249
3.84981
-3.15149
3.23603
4.7143
-1.05219
-2.81302
3.54739
-2.2478
2.5416
3.1227
6.38333
1.70013
6.83805
1.44828
7.56832
2.28216
-1.93008
-2.88517
1.6722
7.4961
2.008
1.26947
5.43847
0.746409
6.57502
6.13596
10.9603
-3.60764
-1.63864
-5.62647
-3.86862
10.0223
10.1019
1.28428
-3.55067
-1.01124
-11.7674
-5.19219
10.5762
-3.62098
8.55603
-4.95143
-2.92308
-0.968331
1.37288
3.04302
-0.693813
-2.45856
-0.845843
1.96279
-2.26704
-0.927589
1.60321
-1.67206
-1.90184
-0.375888
-1.52443
-1.80493
-0.313987
-0.886394
-1.90423
2.52958
3.1274
-1.99279
1.17169
3.503
3.71605
-0.923793
-2.28224
2.76597
1.81728
0.728017
1.7473
-1.47048
1.84807
2.35206
-1.84527
-1.38917
10.1172
2.47657
8.11916
9.09901
-3.02197
1.02262
9.2467
-0.641347
3.9914
8.37193
7.86345
10.1233
6.58982
-2.01708
-2.38576
0.89179
1.97877
-4.24322
-2.31007
0.829816
1.45224
1.10161
-2.19181
2.0266
-5.3599
-0.300184
1.90659
0.284585
3.52907
0.0389331
-2.75537
-2.2666
-2.0763
-0.119449
0.891901
-2.14522
-2.56663
1.0697
-1.05082
-2.16195
1.75077
0.343503
-1.59925
-1.13868
-1.6779
-0.738269
-1.79223
0.212092
-1.51628
2.60692
-1.88835
-2.57942
-1.30325
2.42145
-0.444185
-2.4071
-1.80741
-2.21719
2.02262
-1.42971
0.301037
1.14677
-2.13611
-2.36082
1.64192
-1.76809
-2.54363
-2.37729
-1.45607
-2.17197
-0.613232
-1.79731
-1.85643
-2.11159
-1.88856
-1.44178
-2.06233
-0.747723
-1.84566
-2.23718
-1.60279
-1.8426
-1.21945
-1.61215
-2.19415
2.03585
-1.5592
-1.84171
-2.4124
-1.52162
-2.13292
0.523831
-1.22277
-1.74386
1.32932
-0.521869
-1.19944
-1.18265
1.46618
1.24014
-1.22206
2.08482
0.64442
-1.34354
-1.10593
-1.55454
-1.0489
-2.15643
1.31361
-2.87282
-2.47642
-1.24895
-2.66407
-2.2615
1.29198
-1.79783
-2.75728
-1.21347
-1.64044
-2.57362
-1.24157
-2.17366
-2.75748
-2.24887
-2.9606
-1.07345
8.63067
-3.44496
0.723708
-0.395475
-9.55448
7.72587
-0.205243
4.47542
3.29814
-6.75272
4.15896
6.43491
5.46674
-3.59565
-0.902719
-4.43813
-0.604988
-0.687458
6.34526
-4.47403
-3.05658
-1.44737
3.48776
-3.12361
0.645025
-1.86438
-2.97892
-1.26424
-3.66674
2.41092
-2.51779
1.28144
-2.69047
2.34266
-1.97544
-2.34379
-2.40104
1.76155
-2.53479
-2.04546
1.20367
-2.68668
1.75267
2.06354
-1.91842
-2.33911
-2.33937
0.906838
-2.69236
-2.70163
-2.10485
-2.28397
2.18786
-0.850569
-2.25248
2.30847
-1.16637
0.442974
-2.46601
-0.526179
0.411162
-2.64743
-2.10344
1.23757
-2.03062
1.82856
2.2447
-1.91789
-1.81151
-2.21979
0.955784
-2.15382
-2.61912
-2.15857
-1.63549
2.26011
-2.17656
-1.56066
-2.42736
-2.01015
-1.97219
-2.24477
-1.56508
-2.1917
1.97023
-1.56114
-2.43695
-1.87076
2.00925
-2.26344
-2.26274
-1.54298
-2.38653
-2.38373
-2.23381
-1.98514
-1.06819
2.18256
-1.48649
-1.5458
-2.06956
-1.39726
-1.56508
1.95669
-2.40684
-1.55409
-1.79749
2.16624
-1.8627
-1.72514
-2.11046
-1.61465
-1.53989
-1.76394
-2.27313
1.26005
-2.73216
-1.09075
2.61617
-2.41297
-2.69806
-2.59916
-2.4287
-1.25465
-2.69594
1.27056
2.43393
-2.47995
-0.977576
-2.48322
-2.51326
-2.51554
-2.79731
-1.00965
2.96023
-2.93886