/*--------------------------------*- C++ -*----------------------------------*\
  =========                 |
  \\      /  F ield         | OpenFOAM: The Open Source CFD Toolbox
   \\    /   O peration     | Website:  https://openfoam.org
    \\  /    A nd           | Version:  9
     \\/     M anipulation  |
\*---------------------------------------------------------------------------*/
FoamFile
{
    format      ascii;
    class       volScalarField;
    location    "0.0032";
    object      rho.c4;
}
// * * * * * * * * * * * * * * * * * * * * * * * * * * * * * * * * * * * * * //

dimensions      [1 -3 0 0 0 0 0];

internalField   nonuniform List<scalar> 
28208
(
4.88466
5.31217
12.5519
6.95092
45.5663
18.7909
2.98691
3.90407
2.76255
2.31191
2.13439
3.33358
2.85863
3.64649
3.66018
2.79463
9.10911
5.82033
5.41874
3.63007
2.10692
1.87317
1.90144
2.41448
2.13363
2.16315
2.44451
2.19489
2.06531
1.959
2.34917
2.22734
2.51415
2.65093
2.50707
2.4888
2.23834
2.54962
2.84186
2.88045
3.2203
2.41615
2.73528
2.38937
3.2293
3.19659
2.76175
2.79261
25.5619
21.7851
6.23886
3.76815
6.69935
3.92226
7.46809
2.50601
3.49004
3.03253
3.06896
2.53803
2.89276
3.53082
3.17912
3.22374
2.81818
3.71218
3.22954
3.67777
4.25518
2.61283
2.83515
2.48126
3.49952
3.31691
2.86962
3.02591
2.75624
3.15746
2.61201
2.97554
3.83899
3.14089
3.6329
3.05766
1.51715
1.6669
2.66491
1.94977
2.4785
1.64819
1.84434
1.76252
2.62805
3.42073
2.75323
3.22432
2.41844
2.10926
2.5324
1.50791
1.58401
1.63192
1.58104
1.63762
1.74346
1.75355
1.55002
1.73266
1.77204
1.62826
1.68115
1.8031
1.90215
1.91422
1.985
2.09637
1.79574
1.88987
2.05806
2.27532
1.77222
1.66169
1.75918
2.02269
1.87174
1.88708
2.04407
1.71707
1.74044
1.70526
1.94183
1.86527
1.87988
1.96362
1.83148
1.72105
1.83308
1.94369
2.22815
2.10861
2.05237
1.90311
1.81132
1.75955
1.92655
2.11433
2.0197
2.01431
2.35035
2.44735
2.20535
2.34342
2.62161
2.54895
2.87043
2.69192
2.37473
2.12852
2.22392
1.99885
2.22403
2.46676
2.28294
2.27384
2.05413
2.1841
1.98355
2.1746
2.40074
2.19852
2.45704
2.17732
2.26477
2.04882
2.28605
2.06672
2.6868
2.82159
2.5011
3.48798
3.15268
3.05038
2.77887
2.44312
2.562
2.91344
3.05821
3.27696
2.86485
2.69732
2.36387
2.53788
2.25245
2.34338
2.45958
2.11827
2.22174
2.84333
2.88725
2.55567
2.65821
2.95577
2.39603
2.65378
3.85983
3.35703
3.72031
4.26945
3.68443
3.23186
2.99684
3.1723
2.83704
3.24959
3.81531
3.29285
3.69322
4.29295
7.66938
50.2168
28.8433
5.86245
11.4188
4.52279
9.59473
2.99663
4.06992
3.35043
4.18896
3.42045
3.83675
4.71252
4.20244
4.18955
3.62665
4.23845
5.79435
4.93441
4.94899
3.86348
3.30173
4.81898
4.87301
4.07196
3.33844
4.11802
4.42012
4.66416
3.82428
4.40076
6.34477
5.11781
5.42689
4.24105
4.01351
5.01666
3.4325
4.48173
3.62475
4.23744
27.9903
5.02686
9.14687
7.41678
3.84749
3.92072
2.76237
7.76855
6.81401
3.03247
3.06392
3.39057
3.41041
3.74914
3.808
4.22418
4.37806
5.52289
4.7986
3.39407
3.82816
4.20932
4.79247
3.44405
4.39009
3.83567
4.99218
4.32351
4.83449
5.62128
2.86635
1.27724
1.98177
1.85967
1.41313
1.67935
2.93117
2.1426
2.22349
4.67934
2.31096
3.17368
2.23593
1.52345
3.1838
2.29502
1.29941
1.38713
1.41106
1.44528
1.4661
1.5662
1.59013
1.34149
1.53868
1.45779
1.58371
1.50862
1.63861
1.72511
1.6755
1.66399
1.70176
1.83746
1.86771
1.86199
2.0551
1.51959
1.70721
1.54559
1.90442
1.7173
1.74412
1.9331
1.76204
1.68622
1.59678
1.79839
2.10184
1.89627
1.99247
1.67439
2.00255
1.69468
2.15933
1.81684
1.84079
2.18372
2.08681
1.86529
2.05519
2.33199
2.07943
2.30207
2.59749
2.05048
1.82078
1.73908
1.89222
2.34932
1.9878
2.23996
2.01504
1.8262
2.0221
2.27866
2.0525
2.27449
2.53275
1.9524
2.51732
2.14087
2.5312
2.14279
2.36547
2.79704
2.67104
2.3851
1.99709
2.02431
2.70333
2.25335
2.41336
2.52123
2.56724
2.27104
2.5606
3.2713
2.9062
2.86456
2.08317
2.44619
2.6084
2.78005
2.19371
2.31965
2.47936
2.6837
2.8108
2.38576
2.65544
3.58411
3.0089
3.1486
1.45787
1.12295
1.02201
1.54965
1.70004
1.39556
1.09848
1.2077
1.45563
1.34098
1.40662
1.43481
1.33036
1.279
1.53191
1.45995
1.34143
1.82294
1.60881
2.1116
1.23576
1.2245
1.59958
1.44863
1.19899
1.38883
1.1407
1.62376
1.71237
1.38188
1.26893
1.35522
1.12501
1.27228
1.14608
1.38602
1.20341
1.21499
1.21406
1.04964
1.12257
1.23411
1.32091
1.19624
1.14098
1.66184
1.47576
1.54875
1.52697
1.52929
1.34798
1.33977
1.30853
1.21491
1.31762
1.33383
1.42166
1.32305
1.45234
1.01896
1.0986
1.04982
1.13928
1.21211
1.20343
1.12429
1.31992
1.31567
1.35831
1.25227
1.36883
1.29257
1.30061
1.14354
0.957453
1.17171
1.25887
1.05702
1.06092
1.17985
1.39327
1.58572
1.50622
1.42833
1.51443
1.55485
1.63975
1.22589
1.37024
1.35296
1.35578
1.34147
1.47655
1.49779
1.39242
1.58291
1.52004
1.5055
1.42137
1.56183
1.6498
1.32884
1.42117
1.38928
1.25114
1.32478
1.22606
1.30719
1.2576
1.50909
1.38673
1.31445
1.18095
1.31341
1.45308
1.27424
1.5019
1.38808
1.32528
1.18834
1.31408
1.45157
1.10166
0.955207
1.04673
1.10037
1.04602
1.15292
1.19565
1.22318
1.35693
1.32841
1.41176
1.30424
1.23245
1.31761
1.7146
1.70504
1.6264
1.67829
1.91845
1.77999
1.78622
1.55599
1.49306
1.46035
1.59169
1.75241
1.69476
1.62844
0.641643
0.728091
1.31924
0.781725
0.729442
0.634518
0.712071
0.484301
0.324972
0.633597
0.547011
0.626875
0.68449
0.646022
0.664424
0.63391
0.548653
0.35315
1.01412
0.864284
1.1246
0.720968
0.661812
0.991372
1.08724
0.660393
0.677122
0.677589
0.558493
0.577338
0.565612
0.576777
0.67718
0.629998
0.676942
0.595653
0.645129
0.642389
0.673963
0.619426
0.630965
0.629767
0.635908
0.615742
0.624555
0.6234
0.791074
0.835777
0.751279
0.751417
0.649938
0.613729
0.691452
0.405159
0.367291
0.415071
0.421286
0.364188
0.422652
0.400708
0.486207
0.499379
0.603646
0.398504
0.53077
0.642038
0.544638
0.592517
0.447169
0.484522
0.480536
0.569714
0.475412
0.57262
0.921432
1.0162
0.868518
0.996988
0.786259
0.950782
0.893942
0.710773
0.689142
0.681988
0.587315
0.697972
0.624349
0.645277
0.696713
0.738221
0.708356
0.741205
0.688282
0.694372
0.725762
0.635169
0.581644
0.606693
0.62203
0.632808
0.598653
0.630077
0.910917
1.1265
1.4769
0.812577
0.701474
1.11944
1.09686
0.736731
0.706866
0.750275
0.611091
0.674665
0.641636
0.668717
0.613482
0.630613
0.610396
0.637913
0.646635
0.665602
0.623519
0.72771
0.791883
0.886353
0.672059
0.678963
0.792372
0.778996
0.462053
0.576137
0.417578
0.504022
0.481887
0.446962
0.529633
1.25679
1.28134
1.13234
1.18182
1.05551
1.01426
1.14902
0.504401
0.607748
0.558967
0.599875
0.513618
0.549096
0.581329
0.651186
0.683088
0.645101
0.647827
0.620533
0.688546
0.649138
0.683058
0.468197
0.600504
0.685435
0.645403
0.597234
0.729282
0.807874
0.730259
0.741631
0.842213
0.879949
0.822941
0.796453
0.824662
0.774378
0.739535
0.906098
0.8539
0.821636
0.948959
0.68189
0.695083
0.669568
0.759637
0.809494
0.790386
0.758506
1.22436
0.935554
1.05565
0.913447
1.01005
0.89066
1.03999
0.918873
1.08533
0.971378
0.914175
0.955566
0.870719
1.01787
0.954619
1.17323
1.0342
1.0894
0.967046
1.07087
1.19942
0.843977
1.05267
0.984143
0.979736
0.90104
1.03518
1.11547
0.776877
0.915916
0.886503
0.915027
0.867957
0.989204
1.0286
0.851092
0.920694
0.897206
0.988133
0.885819
0.835759
0.949025
1.1838
1.25487
1.11672
1.16098
1.36824
1.24045
1.29076
1.01587
1.1038
0.992616
1.10425
1.24663
1.13664
1.22282
0.222594
0.451364
0.537727
0.735397
0.438177
0.37059
0.401934
0.614112
0.568824
0.627713
0.33179
0.397736
0.883463
0.529943
0.850965
0.597766
0.308332
0.546509
0.424896
0.406291
0.432216
0.467652
0.457505
0.444182
0.443685
0.52928
0.445904
0.461343
0.506804
0.578599
0.484131
0.567986
0.44535
0.411644
0.424842
0.501897
0.464072
0.46081
0.507879
0.799415
0.62746
0.653044
0.794502
0.679172
0.68555
0.833813
0.335119
0.238266
0.306265
0.399449
0.269657
0.568422
0.281206
0.696197
0.25751
0.378415
0.321078
0.719916
0.298506
0.549859
0.507055
0.530148
0.429449
0.354596
0.440658
0.530068
0.428116
0.333223
0.341398
0.377831
0.417331
0.332146
0.369431
0.404295
0.552489
0.661168
0.625014
0.545159
0.518854
0.594917
0.596526
0.511147
0.580719
0.50822
0.504882
0.54332
0.581415
0.488214
0.393329
0.417007
0.363061
0.450911
0.512529
0.432379
0.511452
0.666929
0.873714
0.682167
0.662952
0.724399
0.544885
0.841749
0.835022
0.747762
0.72164
0.704278
0.815044
0.692395
0.841674
0.556246
0.577225
0.515868
0.521103
0.619801
0.579226
0.57166
0.478919
0.328383
0.459271
0.462321
0.416213
0.54886
0.433302
0.320495
0.420176
0.43757
0.498523
0.352054
0.367912
0.446314
0.27116
0.205942
0.24838
0.186871
0.283264
0.211475
0.215947
0.40635
0.249108
0.275149
0.311078
0.334835
0.308159
0.250324
0.604925
0.592642
0.660932
0.434746
0.457186
0.529029
0.763853
0.529506
0.537951
0.401822
0.563371
0.426931
0.39629
0.517587
0.516305
0.590743
0.625213
0.557881
0.504437
0.574841
0.582366
0.32726
0.337263
0.505013
0.246473
0.39663
0.281782
0.384551
0.216461
0.202175
0.183635
0.216829
0.244759
0.247722
0.220885
0.256027
0.337751
0.310426
0.253912
0.28713
0.300414
0.247279
0.315024
0.24025
0.29638
0.313565
0.278889
0.341677
0.255778
0.276115
0.354596
0.333008
0.336064
0.316763
0.276971
0.377686
0.504263
0.410862
0.384116
0.409031
0.578766
0.446481
0.53495
0.221473
0.229829
0.197926
0.228189
0.258512
0.244627
0.257988
0.560061
0.45945
0.443527
0.30217
0.380171
0.322888
0.389186
0.537421
0.442298
0.421544
0.429385
0.59139
0.473681
0.546717
0.261259
0.284496
0.325536
0.305838
0.286296
0.306878
0.258206
0.354892
0.457616
0.32107
0.342531
0.391683
0.292414
0.411582
0.261666
0.302863
0.281527
0.306732
0.273692
0.295794
0.281222
0.457311
0.633252
0.563624
0.642458
0.499395
0.514237
0.585024
1.89632
1.72248
2.05775
1.57542
0.834916
1.06887
1.14135
1.14955
0.946051
0.68724
1.28821
0.93552
0.919896
0.895614
1.0419
0.978587
0.983844
1.10618
1.27993
1.27006
0.844749
0.845926
1.03692
0.675182
1.14856
1.07013
1.38994
1.23457
0.967838
1.04232
1.2329
1.25627
1.29021
1.84633
1.93485
1.47388
1.74333
1.43268
1.34318
1.16827
1.07347
0.995246
1.2137
1.12665
1.21618
1.33299
1.04305
0.935938
1.03227
0.942818
0.981418
1.11722
1.07652
1.57094
1.4515
1.352
1.39163
1.71901
1.51142
1.54448
0.783044
0.833736
0.954729
1.1578
0.866931
1.04064
1.03073
1.35172
0.734117
0.99804
0.754926
1.04406
0.668289
0.863176
1.28184
1.12993
1.24853
1.2473
1.36504
1.21367
1.39073
1.14891
1.27155
1.22475
1.45074
1.37116
1.38029
1.56516
1.70983
1.40394
1.65996
1.66975
1.3803
1.09472
1.3274
1.43341
1.42229
1.33172
1.40767
1.7243
1.2802
1.39343
0.846818
0.685888
0.656248
0.730004
0.682769
0.844275
0.881485
0.682125
0.820473
0.866001
0.724215
0.684534
0.841594
0.862355
1.34692
1.5581
1.41586
1.07863
1.31508
1.22581
1.52573
1.54132
1.91509
1.88387
1.68256
1.6252
1.77758
1.95638
1.52209
1.43137
1.38335
1.51989
1.53695
1.65771
1.63938
1.63125
1.51769
1.33931
1.57297
1.48894
1.67595
1.70872
1.87492
1.84266
2.09761
1.84915
1.47326
1.84977
1.4946
1.06634
1.17167
1.01292
1.0123
1.18182
1.03153
1.17472
0.78588
0.787316
0.730935
0.880985
0.992622
0.935373
0.932229
1.3272
0.982453
1.09309
1.01346
1.15984
1.00532
1.18627
1.78437
1.69767
1.71231
1.837
1.67506
1.91277
1.77173
1.73136
1.57646
1.68776
1.78282
1.45634
1.76727
1.63928
1.77724
1.69927
1.66158
1.74958
1.68361
1.71199
1.76031
1.38118
1.40994
1.29745
1.3114
1.30175
1.38236
1.4149
1.48227
1.29352
1.31859
1.356
1.5063
1.3948
1.39339
1.03129
1.2192
1.12927
1.21595
1.07562
1.07078
1.18432
1.63088
1.61485
1.97941
1.40543
1.69314
1.42594
1.34053
1.80514
1.44488
1.45157
1.40949
1.67017
1.60105
1.68227
1.35402
1.3521
1.31558
1.41707
1.53025
1.47166
1.46717
1.05168
1.01915
0.959125
1.08645
1.2488
1.18089
1.13887
1.32584
1.38475
1.41716
1.41604
1.52213
1.48921
1.41843
1.35939
1.38891
1.44444
1.42061
1.5047
1.46549
1.41745
1.20522
1.42073
1.36218
1.36406
1.30003
1.25081
1.32627
1.48749
1.62328
1.64544
1.61612
1.57063
1.5634
1.51986
0.918773
1.08379
1.45602
1.7247
0.920374
1.37257
1.28875
1.1681
1.50894
1.62856
1.53882
1.62641
1.31835
1.49034
1.27307
0.94427
1.53776
1.24657
1.50108
1.09583
1.04289
0.988772
1.72994
1.46899
1.62061
1.38454
1.47753
1.19589
1.17729
1.08123
0.907495
0.926094
0.960532
1.05912
0.936304
0.955855
1.22315
1.277
1.35839
1.06295
1.22209
1.09354
1.16253
0.959459
0.894156
0.875355
0.924488
1.02728
0.965469
0.977399
1.01344
1.07899
1.04708
0.982997
1.09741
1.06812
1.01772
1.47347
1.5541
1.44946
1.5944
1.76415
1.62486
1.70818
1.50832
1.75184
1.62883
1.45189
1.74124
1.59589
1.59226
1.20079
1.10718
1.05842
0.999341
1.13588
1.10064
1.04899
1.31322
1.27779
1.15621
1.27678
1.44611
1.4126
1.31214
1.29725
1.19188
1.15121
1.27045
1.42566
1.39842
1.30402
1.72458
2.01346
1.91379
1.93652
1.84517
1.77131
1.86166
1.75445
1.59338
1.55759
1.4078
1.58014
1.54849
1.43962
1.87903
1.17711
1.58845
1.45919
1.57387
1.35989
1.72185
1.30899
1.5683
2.14739
2.60991
1.93086
1.71236
1.47349
1.9951
1.4161
1.34555
1.45381
1.33878
1.32372
1.25392
1.36568
1.35031
1.30213
1.43161
1.35146
1.34713
1.27889
1.3806
1.4541
1.6021
1.55472
1.45249
1.69631
1.58303
1.56587
1.70686
1.42881
1.44119
1.37968
1.53335
1.44413
1.44154
1.53537
1.17296
1.19611
1.18371
1.29139
1.30104
1.31572
1.31198
1.7363
2.01095
1.84917
1.89186
1.73058
1.87043
2.05263
1.48044
1.5031
1.41414
1.47642
1.65837
1.55525
1.57407
1.23809
1.29292
1.22297
1.35262
1.43112
1.423
1.35533
1.63353
1.88461
1.7902
1.78872
1.67534
1.83152
1.96316
1.39762
1.55971
1.53546
1.54774
1.53242
1.6791
1.70618
1.4216
1.56291
1.43304
1.44246
1.58936
1.57271
1.44157
1.47885
1.68973
1.56664
1.63636
1.55226
1.61157
1.48623
2.29133
1.96348
2.08055
2.01717
2.41573
2.22581
2.17522
1.87822
1.73329
1.69793
1.85615
2.12747
2.05949
1.90095
2.05489
1.81624
1.85909
1.69277
1.66869
1.8285
1.86782
2.49153
2.22278
2.30726
2.02839
2.35143
2.26256
2.0892
2.65442
2.8234
2.37404
2.63441
3.55573
2.95747
3.13847
2.9754
3.85647
4.07856
4.05359
3.39416
3.35842
3.55703
0.461103
0.829315
1.67761
0.671358
0.591435
0.875406
1.06851
0.712438
0.539623
0.823387
1.10006
1.57984
1.21697
2.30246
1.39233
1.07215
1.68465
0.475236
0.479649
0.497729
0.499379
0.517502
0.543797
0.522038
1.33518
1.9895
1.67404
2.84285
2.45714
1.81274
2.17396
0.546084
0.71621
0.575433
0.736414
0.594812
0.627666
0.784566
0.542675
0.616448
0.564515
0.595333
0.624199
0.652048
0.570146
0.505917
0.564557
0.527512
0.577271
0.589774
0.618486
0.552221
0.975672
0.90347
1.08131
0.917222
1.08134
0.99623
1.19785
1.10043
1.35487
1.22706
1.32685
1.2133
1.35752
1.48609
0.804366
0.705511
0.647863
0.685057
0.932389
0.856786
0.747547
0.766344
0.654257
0.611432
0.667379
0.900202
0.71442
0.83862
1.45287
1.47608
1.43797
1.59621
1.55053
1.60234
1.71892
0.633157
0.664162
0.745712
0.647413
0.67884
0.694902
0.604818
0.984021
1.32653
1.19817
1.17543
1.08178
1.32533
1.46404
0.729262
0.995999
0.853577
0.982338
0.780791
0.915466
0.79677
1.00747
1.30855
1.1922
1.18944
1.09171
1.31956
1.44621
1.56167
1.82139
1.70647
1.76534
1.65533
1.82643
1.94029
1.46601
1.44639
1.33442
1.49832
1.79282
1.63067
1.65014
1.50909
1.52943
1.36899
1.5187
1.8698
1.69931
1.6653
1.63337
1.93814
1.75613
1.99893
1.78739
1.90803
2.12356
1.55053
1.78024
1.65822
1.90174
1.74229
1.85545
2.01095
1.28582
1.28245
1.18255
1.45736
1.75462
1.60726
1.59407
1.87975
1.86887
1.75985
1.96153
2.23394
2.07596
2.1168
1.986
2.05276
1.86817
2.01914
2.36322
2.23938
2.13747
1.68008
2.0337
2.07092
2.07593
1.88033
1.83946
1.85166
2.1597
2.21178
1.96059
2.0791
2.58543
2.3362
2.27637
0.449991
0.747851
0.759763
0.93641
1.47974
0.936098
1.1548
0.88064
0.656474
0.717719
0.743536
0.81393
0.684258
0.627407
0.936077
0.779163
0.745335
0.823445
0.820186
0.564738
0.671864
1.07136
0.786755
0.990228
1.08893
0.866868
0.749081
1.00256
0.766844
0.793617
0.761517
0.801377
0.747975
0.796959
0.840833
0.63574
0.684559
0.704124
0.674435
0.693892
0.742397
0.723023
0.759694
0.776986
0.720725
0.829644
0.819788
0.801545
0.847761
0.630182
0.565851
0.822811
0.619904
0.71938
0.563819
0.548227
1.01495
1.39096
1.09056
0.928203
0.796642
0.570079
0.758119
0.754036
0.704481
0.693982
0.796291
0.799992
0.76007
0.751699
0.715876
0.673299
0.724958
0.755413
0.70382
0.698259
0.743625
0.758293
0.686044
0.768169
0.799969
0.697614
0.72064
0.819391
0.682414
0.570274
0.614115
0.707081
0.652834
0.781346
0.643258
1.20473
1.77351
1.53785
1.23032
0.98875
0.849594
1.13577
0.642631
0.611028
0.607266
0.674883
0.71555
0.66931
0.687098
0.742944
0.836254
0.79599
0.816426
0.772384
0.856787
0.813566
0.765252
0.712603
0.730987
0.775036
0.785201
0.803251
0.75598
0.540329
0.464278
0.462453
0.578506
0.563588
0.492656
0.48992
0.815746
0.840067
0.781443
0.828195
0.926538
0.857732
0.884685
0.70355
0.830881
0.770933
0.781102
0.73258
0.791755
0.855636
0.957704
0.880239
0.886122
0.881978
0.966146
0.959486
0.908782
0.546434
0.55848
0.503049
0.607328
0.58242
0.540596
0.615339
1.09213
1.40866
1.54353
1.61379
1.19529
1.10666
1.50028
0.781261
0.791711
0.745994
0.723086
0.805872
0.722549
0.767657
0.950152
0.858547
0.870169
0.83586
0.879222
0.918469
0.810878
0.619341
0.627009
0.70106
0.64525
0.691267
0.779197
0.701671
0.682911
0.862847
0.778393
0.809244
0.744895
0.85099
0.925725
0.460051
0.447856
0.453566
0.487643
0.4844
0.498083
0.478996
0.828547
0.914229
0.782028
0.75826
0.856717
0.751326
0.869068
0.90353
0.935148
0.859244
0.996572
0.916416
0.869031
0.939891
0.867129
0.869129
0.815328
0.957862
0.899003
0.844197
0.885913
0.748813
0.80083
0.803517
0.765657
0.827003
0.733667
0.740441
0.801671
0.936272
0.8007
0.739361
0.892029
0.864549
0.720438
0.618322
0.59744
0.589745
0.526118
0.5516
0.563194
0.519049
0.945131
0.96387
0.889847
1.0689
0.977042
1.01584
1.1121
0.922419
0.91346
0.841941
0.858269
1.01978
0.933694
0.936591
0.522515
0.591893
0.505761
0.547078
0.692216
0.568162
0.650827
0.878528
0.693323
0.787982
0.873779
0.842762
0.973937
0.77145
0.816384
0.819269
0.769466
0.820901
0.928937
0.86083
0.886784
0.653385
0.663394
0.617546
0.580585
0.730883
0.624228
0.672406
0.525385
0.522614
0.587687
0.550071
0.540497
0.567207
0.512634
0.985096
0.973202
0.878301
0.962816
1.18226
1.0826
1.04976
0.842758
0.721183
0.765832
0.859725
0.853256
0.943029
0.777162
1.00471
1.02647
0.952581
0.892943
0.993835
0.92821
0.960207
0.882425
0.865159
0.810885
0.92717
1.06859
1.00907
0.99342
1.02564
1.09426
1.20583
1.1266
1.02856
1.2078
1.13579
1.08195
1.32007
1.19352
1.28783
1.14851
1.252
1.39648
1.03871
1.27301
1.16999
1.15659
1.0645
1.20657
1.30439
0.591513
0.756181
0.669936
0.773662
0.617145
0.639739
0.71116
0.935131
1.06196
1.01454
1.13794
1.07276
1.16075
1.21863
1.01974
1.22574
1.13254
1.12287
1.03407
1.15224
1.24554
0.884654
1.00303
1.00206
1.04692
0.923063
0.96152
0.962816
0.963011
0.927601
1.17917
0.932731
1.07377
1.05714
0.851119
1.05199
1.29897
1.28122
1.22255
1.1864
1.14811
1.13195
1.42782
1.40589
1.29894
1.35141
1.60536
1.499
1.45374
1.37827
1.30219
1.22088
1.31687
1.57601
1.48064
1.39119
1.1179
1.08385
1.0485
1.25557
1.22715
1.15987
1.19963
1.14096
1.18665
1.097
1.24959
1.39634
1.30296
1.34426
1.31397
1.36577
1.23538
1.44178
1.32447
1.26194
1.41294
1.10474
1.15086
1.06165
1.18349
1.32418
1.22962
1.27685
1.40158
1.35421
1.2575
1.28951
1.55141
1.38514
1.45097
0.391807
0.766003
0.332292
0.418001
0.569481
0.553732
0.55206
0.48667
0.319366
0.446752
0.678459
1.00388
0.500147
0.335847
0.711163
0.584487
0.375014
0.334214
0.346781
0.368042
0.420264
0.389782
0.386397
0.390957
0.366119
0.43112
0.382616
0.437406
0.491425
0.422225
0.465822
0.386293
0.350589
0.542272
0.480598
0.379705
0.402507
0.478356
0.642776
0.525349
0.625675
0.521784
0.581788
0.694441
0.332272
0.334635
0.32917
0.361083
0.359238
0.362386
0.362812
0.53328
0.402183
0.477613
0.549684
0.521412
0.614516
0.469345
0.363144
0.359674
0.349716
0.389711
0.450767
0.400918
0.417196
0.545746
0.519243
0.500242
0.407683
0.441641
0.434587
0.421577
0.425486
0.50769
0.465537
0.429119
0.500837
0.466193
0.442907
0.437573
0.552247
0.491482
0.556681
0.554471
0.485505
0.62661
0.637321
0.702323
0.576993
0.645892
0.841504
0.718303
0.765224
0.624578
0.667716
0.570727
0.643098
0.80376
0.708958
0.74776
0.39167
0.387692
0.425576
0.418711
0.393344
0.422141
0.390614
0.428097
0.509911
0.479811
0.533552
0.439537
0.466304
0.47544
0.625653
0.599027
0.787029
0.616519
0.699126
0.541541
0.705142
0.719789
0.921018
0.892384
0.900688
0.803572
0.797419
0.831299
0.308607
0.588114
1.18872
0.37584
0.298778
0.318496
0.390813
0.35984
0.381302
0.531546
0.757394
0.412355
0.430185
0.702234
0.477903
0.643957
1.01284
0.262793
0.307281
0.26036
0.284758
0.286908
0.326031
0.334995
0.887474
0.844077
1.16087
1.3225
0.843297
1.14955
1.53144
0.35681
0.343416
0.294443
0.321176
0.391791
0.45748
0.378179
0.643276
0.51491
0.459466
0.633222
0.49934
0.563502
0.695974
0.294188
0.267114
0.258036
0.279088
0.273674
0.302997
0.305077
0.735691
0.789137
0.93592
0.78607
0.936308
0.845661
0.992413
0.325241
0.349086
0.317423
0.34908
0.423486
0.37713
0.375718
0.318531
0.297489
0.294685
0.318675
0.336156
0.339617
0.318694
0.351105
0.418534
0.360756
0.363474
0.45075
0.4013
0.391622
0.359081
0.32963
0.328122
0.332212
0.35842
0.362207
0.331471
0.518818
0.367853
0.448268
0.518807
0.494008
0.430103
0.591791
0.549946
0.469866
0.402603
0.533195
0.521385
0.446526
0.61459
0.690241
0.624602
0.555033
0.62458
0.829725
0.699358
0.757319
0.577021
0.764983
0.645941
0.637217
0.841239
0.718274
0.765755
1.03702
1.07663
1.22281
1.22159
1.0773
1.12939
1.27055
0.907034
1.05246
0.991118
0.975835
0.90687
1.05211
1.11914
0.900534
1.03459
0.984845
0.979107
0.91041
1.0519
1.11456
0.344782
0.356858
0.366197
0.390687
0.372981
0.363752
0.341157
0.382896
0.475706
0.488134
0.444898
0.4194
0.409247
0.430592
0.599086
0.565685
0.579357
0.76634
0.502036
0.686098
0.674727
0.706106
0.915638
0.922988
0.884374
0.796653
0.786386
0.835793
1.29151
1.11894
1.25835
1.18309
1.36755
1.23949
1.31875
1.26839
1.18568
1.12738
1.18519
1.38331
1.25067
1.32208
1.0575
1.06118
0.98021
1.12101
1.28364
1.19631
1.19652
1.24922
1.44532
1.45294
1.40664
1.3198
1.324
1.38083
0.430747
0.835956
1.38139
0.341056
0.4266
0.60855
0.496314
0.402516
0.753381
0.579838
0.502076
0.743503
1.1139
0.973995
0.716131
1.51902
1.1164
0.980535
1.23911
1.51632
1.64735
1.25087
1.7337
1.53464
0.344771
0.366307
0.356811
0.363796
0.373074
0.390792
0.38135
0.383019
0.488232
0.475721
0.409338
0.419535
0.445011
0.531519
0.599062
0.57929
0.565644
0.674673
0.68597
0.766205
0.643821
0.706141
0.923142
0.915674
0.786373
0.79662
0.884325
1.0129
0.395018
0.437449
0.403707
0.421465
0.442627
0.456866
0.409945
0.377539
0.413944
0.386922
0.413987
0.428761
0.44243
0.402546
1.12147
1.06155
1.0576
1.19672
1.19686
1.14975
1.28394
0.547527
0.500931
0.458732
0.484594
0.651689
0.527966
0.590245
0.525731
0.475988
0.440395
0.476007
0.632437
0.512093
0.579792
0.660065
0.874679
0.778128
0.865085
0.813682
0.726941
0.970281
1.01616
0.994045
0.892934
0.99103
1.2333
1.1053
1.11937
0.637086
0.857074
0.760482
0.856989
0.795693
0.716036
0.959164
1.00917
0.984863
0.879018
0.98483
1.23534
1.09982
1.11643
1.24982
1.44573
1.45304
1.32422
1.32036
1.40695
1.53155
0.445895
0.466158
0.459774
0.517508
0.476767
0.483648
0.432022
1.14808
1.36241
1.27732
1.35968
1.25098
1.38003
1.48393
1.14782
1.38328
1.28399
1.36715
1.25098
1.38342
1.49708
0.51616
0.699538
0.600762
0.689896
0.553529
0.561185
0.637595
0.962845
0.890222
0.881746
1.19539
0.8008
1.07237
1.07687
1.10244
1.36688
1.37261
1.36968
1.22934
1.23048
1.23624
1.39599
1.47589
1.59188
1.49834
1.71505
1.59784
1.61895
1.62782
1.50435
1.40807
1.50447
1.73845
1.61624
1.62786
1.49413
1.49943
1.36696
1.49554
1.77372
1.62728
1.6194
1.86498
2.00923
1.8525
1.61303
1.88876
1.74401
1.73374
1.4107
1.67026
1.68256
1.57789
1.57857
1.48036
1.50979
1.3788
1.48506
1.34726
1.29904
1.53896
1.34868
1.4685
1.62895
1.66698
2.20504
2.21679
1.96886
1.33847
1.2467
1.64714
1.39058
1.36962
1.26408
1.5205
1.41793
1.38947
1.54981
1.52996
1.81513
1.66853
1.73276
1.57439
1.71574
1.88545
1.29342
1.50906
1.45627
1.46942
1.42142
1.59041
1.64636
1.49841
1.82331
1.65843
1.70216
1.52986
1.69906
1.88994
1.42682
1.69225
1.48357
1.33075
1.58633
1.38561
1.51081
2.01552
1.82268
1.98878
1.88165
2.33427
2.07319
2.10334
1.80997
1.69775
1.90301
1.77349
2.06825
1.96808
1.8467
2.06596
1.85267
1.76889
1.57287
1.63168
1.7512
1.81937
2.19078
2.51548
2.70672
2.58333
2.4545
2.31167
2.3896
2.46969
2.17185
2.32757
2.63127
2.29086
1.9524
2.04031
3.81194
4.89192
4.83121
4.38295
4.43541
5.71888
5.79936
4.63352
4.89964
3.95376
4.44836
6.59348
5.52981
5.22758
5.84004
5.03002
4.36281
6.48905
7.62522
6.44078
5.53524
4.14484
5.3488
5.04408
4.83717
4.56839
5.99573
6.38389
19.3711
45.0543
58.9878
14.7329
10.7068
47.044
34.8028
8.04611
6.07696
7.08436
4.37148
4.82909
4.9439
5.52345
5.08867
6.65082
5.86683
5.29434
5.98284
7.04305
8.04951
5.1248
7.11489
7.67461
7.53256
5.99384
6.39925
6.04776
6.30267
9.26501
11.2417
7.85679
9.40727
5.46439
6.33563
6.32197
5.18234
5.24667
8.65418
6.92769
7.04119
8.82923
6.86108
7.74708
9.21125
8.18296
6.93473
9.48379
11.4446
12.065
6.7956
10.4356
9.7451
8.49027
5.72145
6.46489
6.53145
5.7402
5.41021
7.3076
9.94361
7.8246
9.21651
44.3014
45.4058
16.6011
40.1684
34.6402
50.3886
53.1733
6.58405
10.3258
10.0957
12.7791
8.10463
8.27601
13.0895
11.6795
6.96397
10.8078
8.64636
14.8859
9.33093
13.7339
6.30297
8.77523
7.15787
11.1585
8.70411
10.0559
13.0243
11.0127
14.3552
17.4408
8.93168
13.8896
11.5144
7.51507
10.3615
9.97167
8.35945
12.0005
19.4744
14.6874
15.7248
24.4553
51.1771
68.2638
73.3615
45.0012
57.7151
73.076
15.2148
8.3119
13.0935
16.7479
10.4605
12.1706
19.538
13.8996
18.2095
22.2586
14.6019
28.8309
17.9087
23.4807
12.7794
9.48544
11.2037
15.2264
17.1917
18.0053
20.5158
13.4792
16.524
10.3002
10.549
22.3589
16.9479
13.8276
17.9759
12.4239
14.9982
23.6162
19.9469
24.0231
28.6695
11.0666
15.8036
23.5202
19.3426
12.0008
17.8135
14.5393
16.7472
26.6434
15.5893
13.5543
21.7292
24.9136
30.6823
17.854
21.8052
13.5181
15.8039
33.7586
25.5043
20.9515
26.4225
16.2258
25.8714
20.5928
21.0958
32.4212
33.1276
3.32237
4.9719
3.27104
2.62055
4.70763
3.60801
7.06602
5.47605
2.93511
2.60263
2.33749
2.62345
2.95812
2.94017
3.33683
3.77363
2.94458
3.31991
3.80463
3.34659
3.80155
4.35463
3.74387
3.30382
2.90927
3.75495
3.31162
3.78586
4.32686
3.03441
4.12339
3.44424
4.1065
3.42632
3.91673
4.7279
1.59476
1.90702
1.51076
1.88189
1.88913
2.08432
2.36698
2.54886
1.62622
1.62971
1.45367
1.75363
1.5969
1.59496
1.74334
1.75546
2.03663
1.89013
1.89987
1.74426
1.90101
2.07348
1.73946
2.01485
1.85327
1.87521
1.73428
1.89516
2.05718
1.55875
1.40982
1.44199
1.58383
1.55165
1.71478
1.75731
2.47732
2.26481
2.19501
2.18432
2.03292
2.07101
2.25664
2.16141
1.9469
1.88921
1.7626
1.71787
1.89049
1.94845
1.73821
1.86146
1.70221
1.88191
2.1334
2.06461
1.93521
2.67852
2.38987
2.29334
2.40316
2.15564
2.30282
2.08061
2.17829
1.80768
2.76017
2.34411
3.31195
3.02312
2.51594
2.78054
1.96578
1.95967
1.89926
2.12804
2.08092
2.06409
2.25865
1.52122
1.80195
1.65302
2.33003
2.17874
1.7687
2.57477
2.34645
1.65684
1.5845
1.59396
1.67153
1.73656
1.72571
1.82003
1.32006
1.42971
1.49524
1.78912
1.46231
1.72818
1.52092
1.89517
1.3597
1.42367
1.35658
1.40833
1.47371
1.47426
1.53097
1.3973
1.55636
1.50583
1.45754
1.51805
1.58583
1.63998
1.52428
1.61907
1.62419
1.57192
1.56865
1.64638
1.72565
1.40652
1.59249
1.52456
1.46203
1.53121
1.59248
1.66141
1.68013
1.70761
1.62917
1.71558
1.92131
1.78143
1.82502
1.64918
1.83454
1.72527
1.72566
1.94771
1.80789
1.83531
1.58445
1.59401
1.67169
1.65703
1.82055
1.72626
1.73681
1.94182
1.89464
2.06566
2.05208
1.88174
1.99001
2.19243
1.75764
1.85283
1.72678
1.87896
1.79961
1.91202
2.01374
1.67578
1.82472
1.8802
1.92446
1.76879
1.92418
2.04312
2.06649
2.19409
1.99106
1.80287
2.05448
1.8832
1.94341
2.1675
2.29111
2.4821
2.05863
1.96664
2.09509
2.21203
2.33501
2.15484
2.00796
1.87419
1.9938
2.03645
2.16381
2.19908
2.3456
2.51754
2.24395
2.1095
1.9956
2.10897
2.65327
2.42733
2.16029
2.58133
2.27594
2.49604
2.84988
2.31447
2.00496
2.13003
2.3863
2.22112
2.41087
2.59189
2.32397
2.30912
2.12969
2.52005
2.28556
2.47715
2.7275
2.93129
2.38176
2.69286
2.50877
2.71056
2.39757
2.23668
3.18764
2.5482
2.90345
2.7418
3.49056
3.02265
3.14911
2.68078
2.7499
2.46678
2.67436
3.27848
2.97788
2.90961
2.41057
2.97372
2.57143
2.67397
3.35853
3.08084
2.88694
2.26353
2.75985
2.96005
2.40139
3.34184
2.79348
3.56098
3.17102
2.19393
2.36475
2.0686
2.18115
2.03085
2.25288
2.47464
2.98022
2.6824
2.51586
2.55191
2.34168
2.45584
2.71138
2.6748
2.3848
2.15239
2.30134
2.07787
2.28903
2.54574
3.00734
2.72497
2.56801
2.48054
2.37154
2.56685
2.72355
3.04899
3.33288
3.71152
3.03201
3.31921
2.7851
3.00041
2.83786
3.00819
3.39247
2.68336
3.00618
2.55225
2.83618
2.79769
3.14622
3.36378
2.99122
2.65073
2.52678
2.82421
3.66381
3.24667
3.855
4.30174
3.79582
2.97076
3.44129
4.02246
3.5491
3.84817
4.39572
3.83546
3.38469
3.16446
4.31468
3.76536
4.30237
4.34654
5.83037
5.01885
5.0084
4.50153
3.92664
4.73743
4.49759
6.36967
5.194
5.47094
3.89287
4.45582
5.44027
4.48321
6.35715
5.17085
5.45986
6.78708
14.3122
4.93529
9.63292
20.9547
10.967
6.77816
7.47521
8.35096
4.08436
4.57407
3.48122
3.23583
3.48238
5.84853
8.16277
5.16214
2.92729
2.93926
2.70867
2.99479
3.28958
3.26541
3.6508
3.68216
4.15644
3.3154
3.69039
3.6464
4.12823
4.6861
3.76902
3.32669
3.11143
3.52408
3.8096
3.97389
4.35103
4.00119
3.58421
3.18093
4.59673
3.96493
3.58335
4.07929
4.0052
5.06057
4.37931
4.55263
5.87631
5.24082
5.04338
4.56834
4.51794
4.04019
6.11461
5.29208
4.65274
5.32653
5.01748
4.98509
4.31125
3.92453
4.46508
5.18425
4.51735
4.24111
4.27793
3.70678
4.29376
4.98829
4.95912
5.80718
6.88888
6.89172
5.86422
7.07212
6.04129
5.21872
6.05735
5.77842
5.76817
4.95824
6.8318
5.82162
6.83157
8.08228
6.84552
16.7288
8.83351
5.86005
9.59794
8.06652
26.665
20.8474
5.04842
5.06217
4.39814
6.43389
5.53197
6.43783
7.56477
6.03437
7.46682
8.83879
6.36443
7.46897
6.02768
5.18665
5.7542
5.74248
4.90581
6.84633
5.7914
6.83327
8.14024
9.68306
34.8272
21.5036
32.8804
15.5261
117.536
62.7745
6.34596
6.01532
5.14454
7.48781
5.99818
7.0666
8.90069
8.03272
8.06158
6.78002
8.10342
11.7443
9.67144
9.73898
6.84762
6.85438
5.8676
9.00084
7.56544
8.99162
10.845
8.08365
6.84623
5.84899
10.9627
9.08309
7.58054
9.0183
10.5956
8.86137
7.0662
8.37001
12.9197
9.98477
10.6654
8.46121
8.96852
7.0735
8.40166
13.3747
10.7792
10.147
11.5944
8.06775
9.62449
16.8037
13.4496
10.8692
13.3398
7.38737
11.1213
13.6445
13.5432
8.79814
10.6835
16.7598
8.11442
13.6835
11.1389
9.78292
11.8392
14.0677
17.572
10.047
15.0346
16.562
16.1467