/*--------------------------------*- C++ -*----------------------------------*\
  =========                 |
  \\      /  F ield         | OpenFOAM: The Open Source CFD Toolbox
   \\    /   O peration     | Website:  https://openfoam.org
    \\  /    A nd           | Version:  9
     \\/     M anipulation  |
\*---------------------------------------------------------------------------*/
FoamFile
{
    format      ascii;
    class       volVectorField;
    location    "0.0032";
    object      rhoU;
}
// * * * * * * * * * * * * * * * * * * * * * * * * * * * * * * * * * * * * * //

dimensions      [1 -2 -1 0 0 0 0];

internalField   nonuniform List<vector> 
28208
(
(-112.16 -58.2466 130.51)
(-161.532 -48.5367 199.999)
(-260.257 -133.475 348.641)
(-204.032 -61.5495 272.125)
(-274.32 -153.713 499.066)
(-291.161 -102.526 580.989)
(-82.6598 -26.8292 104.174)
(-121.597 -23.6047 142.436)
(-76.5854 -16.3191 100.528)
(-49.1635 -18.2559 69.8001)
(-45.1613 -10.9923 66.8642)
(-93.1411 -32.419 133.958)
(-80.0018 -12.3629 101.175)
(-94.6926 -40.0666 114.268)
(-70.8872 -40.5199 92.3618)
(-57.8711 -27.3695 78.3121)
(-202.904 -104.148 250.155)
(-169.141 -59.8165 209.221)
(-118.69 -70.4259 171.938)
(-97.9339 -40.0816 141.185)
(-44.1898 -7.79568 66.3575)
(-33.6486 -6.27195 52.0619)
(-34.364 -8.91124 52.6187)
(-61.0201 -9.74891 76.1036)
(-48.6487 -8.15814 61.7406)
(-49.4248 -11.3526 62.9304)
(-62.0762 -13.5724 77.4037)
(-46.6016 -14.4871 67.7079)
(-37.5228 -14.9678 55.3515)
(-35.4995 -11.8135 53.4216)
(-52.9375 -19.094 67.7826)
(-50.6703 -15.0411 64.6538)
(-63.686 -17.9361 79.3435)
(-66.5545 -22.6938 82.8118)
(-52.9581 -22.4407 73.3691)
(-44.724 -22.559 63.3568)
(-40.6089 -18.4473 58.6893)
(-56.3483 -23.6693 72.4947)
(-60.8448 -29.0595 78.6517)
(-70.7039 -28.062 87.9454)
(-76.0337 -34.3478 94.5652)
(-59.0784 -13.4503 82.787)
(-75.0659 -11.7274 99.9832)
(-57.8453 -9.61799 82.2939)
(-97.3815 -19.3667 113.145)
(-95.6075 -13.9286 111.471)
(-76.5253 -11.6705 92.6152)
(-77.895 -16.2383 94.0878)
(-351.981 -107.136 553.545)
(-351.852 -49.6226 562.041)
(-186.374 -26.4338 248.519)
(-110.201 -17.945 172.319)
(-189.905 -42.6905 349.67)
(-115.03 -32.9555 180.117)
(-204.702 -71.7875 376.475)
(-65.4245 -10.6299 85.6352)
(-103.272 -15.8837 140.473)
(-85.9644 -13.8993 122.752)
(-87.4091 -19.3832 125.152)
(-66.4778 -14.7743 87.4081)
(-81.4259 -17.2215 103.196)
(-105.165 -22.1671 143.234)
(-63.8474 -33.3049 84.6457)
(-55.7918 -33.7133 76.6125)
(-49.8067 -27.5645 69.3312)
(-72.8978 -43.2088 94.8946)
(-66.3645 -35.5041 86.1244)
(-82.4616 -41.7828 102.583)
(-90.0306 -50.6153 111.962)
(-64.0694 -22.1663 85.9841)
(-78.8486 -21.355 101.593)
(-60.8944 -17.6393 83.7051)
(-104.249 -32.038 119.985)
(-100.007 -25.4435 115.663)
(-79.9916 -21.3896 96.2614)
(-83.5341 -26.9884 100.111)
(-71.0812 -24.8561 94.2131)
(-89.634 -25.6055 128.586)
(-68.204 -19.5667 89.9609)
(-83.6025 -22.7859 106.14)
(-112.072 -36.9971 153.111)
(-87.1589 -28.8904 110.87)
(-107.894 -29.2578 147.184)
(-36.2087 -32.2157 136.035)
(21.9685 -17.4025 105.512)
(-0.707406 -14.0636 114.417)
(-63.43 -23.9681 103.803)
(-15.0829 -20.7823 123.194)
(-58.2795 -15.147 103.948)
(22.3706 -13.9661 90.6337)
(-4.76496 -13.0694 74.1821)
(-18.2371 -7.91592 55.9592)
(-9.33581 -16.9196 92.9838)
(-52.6631 -34.7176 112.327)
(-24.1375 -20.5453 79.9003)
(-74.5716 -34.4891 110.693)
(-34.01 -26.9543 130.084)
(2.3306 -15.1762 88.4502)
(-40.7683 -22.4674 75.9637)
(22.8832 -13.1685 97.0547)
(10.2215 -15.7363 112.325)
(13.013 -10.7597 101.034)
(11.7749 -13.3885 105.76)
(13.5276 -11.5867 96.1129)
(2.09535 -11.0866 111.578)
(2.79252 -12.8468 107.336)
(23.1779 -13.2553 93.0453)
(11.9937 -16.0204 100.961)
(10.3989 -14.2979 89.7008)
(12.5974 -14.7134 102.58)
(12.6471 -13.129 92.3692)
(2.02468 -15.1649 104.171)
(-0.250049 -17.1687 102.142)
(6.91409 -14.8841 88.323)
(16.45 -13.5663 89.6202)
(5.62904 -17.6913 101.366)
(20.1283 -14.2294 89.405)
(9.60553 -17.3252 100.516)
(-3.944 -18.7889 101.462)
(-8.86649 -19.7897 102.158)
(-14.8447 -14.8443 123.761)
(-2.61648 -14.2443 119.522)
(-16.6898 -13.212 127.118)
(-26.462 -12.031 134.061)
(-10.8554 -11.4523 122.17)
(-10.3786 -14.2514 119.054)
(-26.2799 -15.9413 131.729)
(-1.37501 -9.34928 79.9065)
(-17.489 -5.41262 56.6373)
(-0.885395 -7.04465 82.5894)
(-27.4635 -6.97493 72.0602)
(-11.7322 -8.24868 97.3504)
(-12.2151 -11.2984 94.6307)
(-28.3784 -10.0617 71.1521)
(-0.384608 -18.3106 111.701)
(0.36991 -16.0188 112.287)
(-13.9685 -17.4303 122.728)
(-11.1084 -17.4149 116.667)
(-29.6774 -23.6765 129.48)
(-27.1413 -19.8825 130.141)
(-13.4332 -20.3657 115.317)
(-21.5944 -12.6064 55.5132)
(-19.4693 -10.2895 55.2092)
(-2.56617 -11.4481 76.7133)
(-13.399 -14.04 91.6)
(-32.2343 -15.8894 70.4491)
(-15.6702 -16.403 89.3247)
(-29.7628 -12.9968 70.2246)
(-3.15505 -15.6296 89.9492)
(5.58223 -12.7459 93.7101)
(11.4783 -12.9344 90.997)
(0.51464 -18.1089 103.373)
(-5.58428 -18.9372 106.623)
(-14.6556 -21.2951 104.131)
(-21.2854 -23.525 107.51)
(-39.7354 -30.126 132.108)
(-23.0168 -26.2514 127.253)
(-18.2402 -23.7736 124.643)
(-7.38602 -21.8708 113.83)
(-3.10196 -20.3978 112.16)
(-17.4567 -22.6436 115.21)
(-22.7238 -24.7655 116.534)
(-35.9513 -18.9119 72.3769)
(-28.9514 -17.7636 60.8958)
(-24.7692 -14.9651 57.4273)
(-12.6412 -15.7102 73.6818)
(-8.15952 -14.4386 73.0865)
(-19.3012 -18.4853 88.4594)
(-24.1324 -20.5871 89.2049)
(-41.6184 -12.4523 87.0841)
(-57.0599 -10.7811 105.008)
(-40.5331 -8.76516 88.1578)
(-41.5585 -11.1944 126.533)
(-25.1891 -9.60053 111.821)
(-42.2765 -15.8018 124.163)
(-25.7635 -13.4055 109.164)
(-29.0285 -28.9066 131.073)
(-19.3393 -25.3548 120.641)
(-12.833 -23.3338 116.654)
(-54.575 -38.4619 140.283)
(-36.1766 -30.6396 123.137)
(-46.5934 -33.8355 135.539)
(-28.9742 -27.2705 119.159)
(-18.0277 -17.6274 75.9159)
(-34.0541 -21.3293 65.7368)
(-39.9162 -25.9663 71.9622)
(-36.7896 -27.1991 95.5378)
(-53.4195 -32.4837 87.412)
(-46.614 -26.8818 80.992)
(-29.9866 -23.3758 91.5283)
(-46.0647 -19.6284 86.4612)
(-60.1019 -19.4983 103.13)
(-43.1867 -16.0355 86.1374)
(-43.6445 -20.1109 121.909)
(-46.4126 -23.9763 120.484)
(-26.9882 -16.8557 106.504)
(-29.4362 -20.0328 104.657)
(-55.8208 -28.004 92.5033)
(-68.3029 -28.8618 106.412)
(-50.3121 -23.503 88.6551)
(-50.7967 -27.8075 120.549)
(-56.6519 -31.988 122.212)
(-33.3953 -22.8799 104.191)
(-38.6689 -25.9812 105.29)
(-72.3076 -43.2582 130.536)
(-63.8104 -37.0262 125.542)
(-70.2508 -40.2207 104.689)
(-91.0525 -49.28 123.877)
(-82.1378 -41.1877 116.554)
(-62.4948 -33.4642 97.8281)
(-45.1183 -29.7856 107.939)
(-74.348 -33.1652 95.2092)
(-68.5793 -27.2359 89.8796)
(-87.9947 -32.9709 108.413)
(-110.033 -39.4593 126.067)
(-88.4433 -33.2865 105.753)
(-94.6317 -40.6203 112.9)
(-117.202 -48.0136 133.681)
(-214.152 -76.1147 285.59)
(-321.217 -163.486 495.353)
(-349.73 -124.771 546.456)
(-140.026 -74.7767 218.591)
(-244.881 -130.972 449.811)
(-124.891 -51.2814 195.514)
(-229.166 -108.747 421.62)
(-75.1987 -30.855 100.187)
(-103.801 -48.8649 149.98)
(-80.4202 -37.8402 107.674)
(-117.578 -45.6511 160.918)
(-92.0291 -35.7796 117.394)
(-98.0557 -43.7401 125.43)
(-124.267 -55.4842 170.288)
(-89.4755 -48.6542 110.324)
(-102.738 -48.3977 121.638)
(-81.3265 -40.2138 101.99)
(-102.083 -49.2298 121.428)
(-135.729 -69.5146 153.159)
(-110.824 -59.3451 131.395)
(-125.76 -57.948 142.699)
(-119.242 -16.935 139.768)
(-97.7949 -14.463 119.182)
(-148.446 -21.0288 183.988)
(-151.456 -29.3169 187.748)
(-123.858 -18.2276 160.795)
(-99.6324 -20.1599 121.527)
(-126.241 -25.4474 164.03)
(-93.8914 -55.5426 126.775)
(-110.678 -58.9165 160.245)
(-86.6521 -46.0094 116.553)
(-105.204 -52.9802 134.835)
(-141.526 -79.6718 193.695)
(-113.481 -63.6802 145.646)
(-132.222 -66.7284 181.139)
(-129.956 -39.1689 151.884)
(-124.946 -31.0721 146.187)
(-155.623 -38.5197 192.797)
(-102.375 -26.612 124.837)
(-134.544 -42.302 174.951)
(-106.631 -33.6414 130.056)
(-129.602 -33.5407 168.46)
(-273.54 -171.707 567.427)
(-117.909 -66.6682 195.839)
(-203.16 -115.23 395.643)
(-152.693 -109.545 338.107)
(-76.1688 -58.6163 154.988)
(-105.022 -45.6527 174.678)
(-63.1625 -33.6279 126.503)
(-189.921 -95.4405 369.924)
(-154.75 -94.9114 400.703)
(-66.6832 -40.8068 134.374)
(-74.6548 -36.9933 140.367)
(-78.8924 -44.8936 148.925)
(-82.6014 -43.8809 180.828)
(-86.7446 -52.9982 190.542)
(-96.8343 -47.9083 198.192)
(-102.065 -58.1145 208.716)
(-90.0332 -64.4731 170.791)
(-115.925 -83.1564 236.307)
(-98.3322 -75.7498 215.756)
(-71.0079 -49.066 143.897)
(-84.0097 -53.979 159.102)
(-91.9498 -63.5414 202.125)
(-108.43 -69.8101 221.349)
(-88.4651 -40.938 156.415)
(-110.903 -55.4353 184.424)
(-93.4621 -49.7079 165.575)
(-135.293 -59.0054 242.527)
(-114.262 -52.972 218.478)
(-120.55 -64.305 230.122)
(-142.675 -71.5716 255.655)
(-43.6733 -28.0401 62.8028)
(-12.2547 -2.67348 10.3181)
(-42.4392 -8.88322 72.8152)
(-28.6073 -12.2502 42.5401)
(-13.1544 -6.86632 13.9486)
(-25.783 -5.06818 39.3104)
(-77.2813 -28.5473 117.274)
(-44.9489 -20.3592 79.6359)
(-53.6609 -9.21757 72.3619)
(-99.5775 -62.5945 152.875)
(-26.4454 -19.4653 40.0674)
(-58.1438 -44.7178 108.119)
(-34.4283 -18.5822 50.1209)
(-14.1678 -8.66281 16.3863)
(-81.3438 -35.3071 123.927)
(-47.0666 -25.1575 84.4508)
(-12.3327 -4.01365 11.3369)
(-15.7959 -3.43417 18.3673)
(-15.8215 -4.85218 19.2121)
(-20.9676 -4.38711 23.1719)
(-20.9702 -6.15917 24.2846)
(-25.5998 -5.05932 30.2123)
(-25.6984 -7.00949 31.2972)
(-12.5232 -5.29105 12.4829)
(-16.9554 -8.28869 21.7061)
(-16.1668 -6.41848 20.1307)
(-22.0823 -10.3601 27.4058)
(-21.2763 -8.06838 25.5422)
(-26.1837 -9.25945 32.5996)
(-27.1816 -11.8877 34.8071)
(-15.6604 -10.6709 20.0659)
(-18.3396 -10.3919 24.4291)
(-23.354 -12.9799 30.3552)
(-20.3458 -12.7696 28.4903)
(-25.2059 -15.9338 34.5686)
(-28.8546 -14.8595 38.24)
(-31.2489 -18.257 43.0099)
(-20.0788 -4.16249 28.0813)
(-26.258 -7.21853 39.9203)
(-20.2758 -5.89201 28.7919)
(-38.9328 -6.88002 49.3579)
(-31.423 -5.86241 38.8504)
(-31.7203 -8.13337 39.9444)
(-39.4816 -9.56682 50.4607)
(-27.089 -9.60312 40.734)
(-21.9419 -10.0443 31.274)
(-20.854 -7.82941 29.5984)
(-32.4089 -10.7796 41.3742)
(-42.154 -16.1553 54.8623)
(-33.7191 -13.7851 43.9165)
(-40.4062 -12.6825 52.0381)
(-30.7242 -6.42796 43.8923)
(-42.734 -12.2722 74.3611)
(-30.8141 -8.8717 45.1055)
(-50.2285 -9.77309 82.6358)
(-36.7995 -7.15288 51.6938)
(-37.0601 -9.88685 52.9844)
(-50.7453 -13.5503 84.2888)
(-20.4983 -16.3033 30.848)
(-17.7848 -13.1333 24.9111)
(-23.0746 -15.7023 33.7348)
(-30.8417 -23.8801 46.5197)
(-27.6957 -19.4798 39.9828)
(-34.3814 -22.3703 48.9992)
(-38.2435 -27.4495 56.113)
(-43.5215 -16.0775 76.381)
(-32.4088 -14.7952 49.0282)
(-31.3142 -11.6222 46.6178)
(-37.7788 -13.0362 54.6557)
(-53.5766 -22.5887 90.2637)
(-39.122 -16.6014 57.5039)
(-51.806 -17.8313 86.5242)
(-31.0571 -15.1647 45.6535)
(-23.8126 -12.5061 34.2052)
(-26.467 -15.3608 38.4994)
(-44.888 -20.0638 59.1917)
(-35.8805 -17.1704 47.8173)
(-38.9276 -21.126 53.0671)
(-48.6274 -24.6696 64.9065)
(-34.0601 -18.3788 52.7281)
(-49.973 -30.6403 90.8776)
(-36.3683 -22.4572 57.8542)
(-56.2571 -27.9262 95.6994)
(-41.2344 -20.627 61.7846)
(-44.1631 -25.2623 67.548)
(-59.8417 -34.0646 102.793)
(-71.5765 -12.258 107.401)
(-59.8065 -10.8929 94.0884)
(-44.3021 -8.07251 61.0915)
(-44.7848 -11.1815 62.4984)
(-72.6674 -17.0645 109.462)
(-54.4347 -12.7915 73.8969)
(-60.5867 -15.135 95.9127)
(-38.6617 -22.7903 55.8507)
(-34.0556 -23.3305 50.6699)
(-29.8977 -18.8702 44.0296)
(-42.7802 -25.9073 59.5788)
(-58.8565 -36.9906 80.069)
(-47.4623 -31.7785 67.219)
(-53.3037 -30.2456 71.8673)
(-45.7685 -14.7814 64.4331)
(-58.0077 -21.5155 79.9109)
(-64.2174 -25.2888 102.777)
(-74.4221 -22.5363 112.461)
(-47.5051 -18.806 67.7438)
(-55.7337 -16.9243 76.1461)
(-61.9494 -19.9623 98.5091)
(-43.1697 -33.203 72.0282)
(-53.6515 -37.0768 98.8154)
(-39.3942 -27.3077 64.3222)
(-47.9088 -30.7965 74.6642)
(-69.666 -49.8191 121.235)
(-52.4802 -37.4876 83.0135)
(-64.3258 -41.2968 111.336)
(58.8777 31.7275 18.0481)
(1.39095 -85.6554 74.8397)
(0.176269 -0.0156072 -11.6039)
(-42.1734 -179.209 155.15)
(-6.54532 -140.008 186.957)
(32.0169 -38.5079 106.716)
(38.4318 2.59835 34.6914)
(64.0635 0.792026 29.8555)
(37.9272 -10.3585 75.0423)
(62.6801 -0.962959 54.3126)
(-42.5745 -167.891 103.548)
(-21.0148 -143.571 88.6144)
(-32.1802 -146.713 97.9806)
(4.07215 -98.0383 75.014)
(-13.4713 -143.353 122.714)
(-22.4845 -150.793 135.516)
(17.8232 -87.827 93.083)
(41.3393 18.6877 47.855)
(41.3798 8.43182 29.7821)
(26.2186 -2.19675 74.0465)
(42.9182 4.18891 32.6956)
(72.3824 19.9501 22.0644)
(37.5142 -8.94538 73.3606)
(60.5488 5.31247 49.3434)
(-1.19824 -1.30016 -5.47523)
(28.4049 35.1045 16.3919)
(34.6382 26.4925 5.03145)
(36.6138 16.3094 36.2046)
(4.09642 1.33731 16.6889)
(48.1665 9.67984 36.481)
(9.23993 1.51768 3.80794)
(29.0731 -67.6004 55.7367)
(58.7488 9.33612 29.768)
(67.2371 -1.91815 41.2952)
(44.0114 -22.5034 42.6748)
(40.363 -58.2795 70.9108)
(50.8985 -20.7 55.0597)
(61.4472 2.7674 40.7998)
(-10.9617 -113.354 86.304)
(20.8489 -36.7269 54.2177)
(21.5391 -55.6562 60.1663)
(13.214 -80.9198 97.6832)
(3.94289 -109.76 111.273)
(32.0505 -48.2794 75.4787)
(28.5349 -32.8118 69.4588)
(-31.225 -175.762 187.267)
(34.6747 -64.6453 117.772)
(7.34315 -115.223 135.708)
(24.4966 -87.9153 141.728)
(-1.81442 -132.163 151.779)
(34.3759 -59.4311 97.9828)
(46.6481 -30.5815 88.5852)
(71.0948 25.027 18.8948)
(62.9209 15.3354 25.4831)
(72.3944 13.9687 31.5413)
(62.5552 17.6266 23.5188)
(69.0503 19.1964 28.1489)
(62.9743 8.5028 35.8161)
(61.155 11.4852 33.5684)
(32.2611 -5.16632 39.8013)
(49.0602 7.32454 31.7812)
(41.1352 -6.72773 39.1782)
(46.2068 -9.95065 52.2155)
(41.3378 -3.84856 48.6154)
(51.5737 0.185793 44.1503)
(36.634 -9.04852 53.9655)
(57.9366 -16.4164 70.56)
(67.8603 -1.96491 51.1196)
(52.7012 -36.2598 75.8497)
(54.8355 -15.3082 63.5065)
(55.597 -4.14924 60.892)
(60.6834 -1.51425 51.5993)
(54.2193 -9.93897 67.4862)
(29.1023 7.3999 18.1757)
(17.4296 11.0217 -12.2688)
(41.1989 17.0448 14.9537)
(39.9339 25.1618 12.289)
(18.191 15.6239 -10.2603)
(21.6219 11.8952 -6.07375)
(20.7499 14.2319 -2.58565)
(66.0514 27.8307 17.7788)
(55.1775 27.7379 27.0294)
(53.8398 23.4078 22.1373)
(59.3527 19.982 22.3353)
(62.8551 23.0136 26.7697)
(56.8092 14.9898 32.1702)
(50.6285 19.3422 32.0749)
(52.6768 9.91522 29.3746)
(45.1189 4.50308 30.9571)
(53.7148 10.7775 27.4144)
(43.9755 -2.27776 46.1317)
(53.5087 2.86436 41.2248)
(52.8242 4.95563 38.8453)
(44.3676 -0.796179 43.8198)
(69.0894 9.24855 42.5001)
(55.2991 10.1833 46.9918)
(64.7173 14.5674 40.4562)
(53.5755 -0.815917 58.0038)
(60.4833 3.34717 48.0858)
(57.5383 7.04389 46.1325)
(49.8437 3.1681 55.8107)
(24.6862 -63.6122 106.397)
(36.1293 -54.3039 114.439)
(21.9458 -87.9045 120.925)
(39.6391 -32.6946 81.219)
(34.9718 -16.281 85.1021)
(33.4393 -23.4867 78.0538)
(43.4239 -18.6601 82.5641)
(33.019 33.0846 8.44337)
(30.1021 29.98 22.6773)
(35.2767 28.5231 16.2936)
(15.7797 19.2319 2.84143)
(17.3835 17.3538 -4.61163)
(19.3517 15.7115 2.8488)
(17.1455 17.0368 9.75699)
(47.7181 15.5106 24.0994)
(42.46 13.5026 35.0887)
(42.0702 20.0485 23.1521)
(27.9277 6.35353 18.9774)
(25.1095 9.99252 5.00676)
(23.0893 11.7931 7.8013)
(24.7367 8.22025 20.1225)
(-0.589859 -0.694531 -8.76299)
(7.10582 5.34024 -14.9813)
(6.5561 5.66059 -12.029)
(-0.672182 -0.992469 -7.44983)
(7.53941 4.51167 -10.2661)
(7.1415 4.6579 -7.45358)
(-1.23148 -1.63971 -4.75112)
(47.7391 -10.4172 62.4249)
(37.0043 -11.2409 78.0967)
(40.8791 -7.99949 61.5562)
(46.8768 -7.71321 68.285)
(50.6663 -4.71158 55.9889)
(37.8269 -10.7062 66.0878)
(46.07 -9.99002 71.9857)
(49.9624 23.9777 38.9878)
(48.6005 15.122 46.1311)
(57.8357 19.3628 39.0019)
(52.4555 11.4646 44.5794)
(37.8814 11.203 56.7317)
(45.8194 15.6846 44.409)
(44.3743 7.86835 55.2277)
(47.9902 15.6725 25.9124)
(44.5919 6.55444 30.0711)
(52.1278 13.0399 26.2878)
(49.9165 8.19247 37.4166)
(38.159 4.57161 42.3511)
(44.9071 11.6806 37.1346)
(42.3677 2.13198 42.638)
(111.16 -257.015 -27.7904)
(29.7113 -117.902 -70.0249)
(58.6953 33.97 6.26243)
(9.14546 -83.6561 -14.0228)
(60.1852 -133.377 -42.4606)
(39.543 -159.728 -101.047)
(24.7761 -98.7183 -36.3473)
(31.293 21.615 -30.8616)
(24.2808 12.926 -40.3356)
(31.1471 15.8694 -21.7925)
(45.0332 24.0055 -25.629)
(100.771 -166.238 -11.0875)
(92.1857 -170.925 -28.915)
(61.7109 -207.506 -56.2197)
(68.5477 -81.3105 -3.85577)
(113.488 -142.798 -8.37071)
(46.629 5.83694 -17.0506)
(30.6855 -4.38575 -39.8211)
(-4.42946 -83.9165 47.6146)
(7.51546 -114.942 -38.7588)
(-26.7102 -144.23 0.981019)
(31.7133 13.8788 -13.7287)
(49.9576 22.6493 -19.924)
(34.9027 7.67447 19.9454)
(59.1715 7.60753 12.5214)
(45.2338 -149.238 -85.1371)
(37.9288 -129.409 -79.7296)
(36.4173 -144.298 -100.793)
(33.9804 -111.215 -81.4458)
(30.7662 -81.394 -75.4014)
(33.6573 -60.0834 -61.3724)
(38.6427 -92.9651 -65.221)
(80.5638 -191.575 -43.6299)
(45.6258 -182.849 -87.0882)
(58.0243 -172.293 -66.1022)
(45.0757 -156.72 -65.332)
(78.3436 -199.246 -30.9866)
(61.8387 -137.884 -40.1132)
(98.4586 -176.77 -17.7441)
(82.5267 -232.109 -26.2221)
(93.8207 -200.769 -18.1663)
(104.65 -207.727 -17.8632)
(129.791 -237.641 -17.681)
(105.764 -221.69 -2.71976)
(112.555 -182.696 2.21652)
(118.056 -183.998 -7.17448)
(20.7287 -114.751 -53.7519)
(19.9299 -133.059 -75.0444)
(31.1516 -137.142 -90.0685)
(31.428 -71.4673 -58.408)
(32.2443 -69.0841 -69.146)
(34.5568 -47.4185 -53.379)
(33.4722 -48.8383 -42.6898)
(25.1987 -24.4889 -53.3868)
(29.0737 19.8885 -37.565)
(28.0689 -1.56213 -47.2128)
(26.3604 7.02569 -41.4668)
(26.4776 18.5016 -38.6851)
(28.0037 -11.2438 -45.8778)
(27.9591 22.3971 -35.5596)
(36.2221 -80.7294 -42.8596)
(63.0697 -65.1578 -10.6832)
(79.6828 -154.465 -7.5224)
(37.0852 4.83859 -34.8008)
(51.718 -63.0957 -26.7594)
(94.1172 -131.485 2.81832)
(71.8726 -48.5246 -3.91479)
(41.5763 2.84063 -34.7116)
(37.3082 23.62 -32.0165)
(35.1974 5.6149 -41.5374)
(31.6467 11.0229 -35.735)
(39.9688 22.3854 -24.1238)
(34.1334 23.0766 -30.9018)
(36.8153 8.95425 -28.3217)
(4.73307 -133.515 -57.6311)
(-12.1249 -137.098 -34.109)
(22.5331 -83.7937 -48.9347)
(8.10388 -98.6402 -34.0753)
(27.3697 -55.682 -31.7861)
(-7.4425 -118.725 -18.9017)
(17.8655 -65.9017 -17.7231)
(39.7524 -113.492 -44.9604)
(53.6081 -137.881 -64.3782)
(36.8192 -116.709 -62.3469)
(34.8808 -53.5816 -51.0876)
(59.3571 -90.0456 -31.3479)
(51.1812 -85.5762 -48.8823)
(39.66 -59.8349 -41.0298)
(90.4798 -152.433 -16.9739)
(77.6324 -150.243 -26.501)
(72.3241 -158.465 -45.1672)
(81.156 -122.846 -4.64871)
(77.6308 -125.921 -20.1097)
(104.122 -156.497 -7.65438)
(95.862 -144.323 -1.74912)
(132.739 -199.012 -8.41515)
(94.9063 -118.425 23.1916)
(113.175 -184.538 18.2344)
(109.553 -147.383 20.1579)
(98.4827 -104.897 -5.09126)
(89.9007 -89.4798 20.2141)
(116.544 -151.219 -1.40388)
(51.56 34.1717 -21.1656)
(41.5857 19.5099 -15.1685)
(42.0022 12.2098 16.3967)
(36.7309 16.6586 -14.769)
(53.7338 28.0415 -19.7277)
(40.2608 9.47086 18.2572)
(67.9136 25.2896 9.4649)
(15.8325 -89.1036 -26.1035)
(29.6346 -103.035 -50.9808)
(21.6869 -96.9343 -37.9153)
(31.1927 -40.7448 -42.18)
(23.7116 -40.5396 -25.6636)
(30.011 -45.516 -34.5034)
(29.9248 -39.2287 -32.8087)
(105.603 -162.52 -9.90294)
(93.0645 -139.336 -5.7965)
(93.6989 -131.891 -5.13166)
(109.83 -152.931 5.44326)
(94.1081 -129.458 0.501497)
(96.2704 -136.983 6.56349)
(109.666 -146.82 -2.10197)
(42.8609 -7.27372 -29.4391)
(52.7544 19.4226 -13.6419)
(38.5221 -22.3029 -22.5766)
(43.1368 21.3399 -17.2192)
(38.8225 4.44568 -20.7411)
(38.0744 -1.91063 -11.7438)
(45.403 19.9491 -9.33682)
(27.6758 7.80829 -37.5427)
(42.509 -17.9386 -29.4874)
(28.5467 21.5946 -35.7284)
(28.3639 22.3656 -30.3106)
(35.5182 -9.48074 -38.5873)
(27.6241 23.2852 -33.1493)
(29.9127 2.74622 -33.8761)
(-36.8844 -153.73 48.1193)
(-17.5919 -129.268 36.9575)
(-6.54934 -113.42 -6.31725)
(-30.7065 -134.649 50.3059)
(-21.0084 -125.024 10.4199)
(8.00719 -77.0351 4.04299)
(1.44529 -89.3235 36.3839)
(28.8758 9.89211 -32.4393)
(26.9523 3.82959 -23.0283)
(30.1614 19.0436 -28.0657)
(35.2322 19.4859 -23.1184)
(31.8095 21.5933 -29.8724)
(27.43 5.6346 -29.2764)
(31.3637 7.7136 -25.3086)
(100.599 -126.046 18.6531)
(83.9323 -118.004 1.88063)
(83.1124 -87.7462 -4.206)
(67.6662 -70.5452 14.0872)
(79.3535 -75.6892 16.7057)
(85.2172 -117.46 15.8944)
(100.296 -127.4 1.15323)
(67.353 -64.6771 1.05358)
(42.8682 7.78004 -26.8037)
(63.4643 -59.5729 -11.6146)
(96.1164 -115.986 7.46205)
(65.7877 -41.5819 3.00471)
(72.1518 -42.0816 0.244047)
(85.6533 -109.046 9.2164)
(11.2462 -94.6855 -24.2767)
(19.2957 -37.8503 -14.6899)
(25.942 -40.8719 -21.1353)
(1.87284 -81.6277 1.72876)
(0.58043 -95.9569 -6.75964)
(20.5105 -44.4272 -7.23422)
(15.8447 -36.8695 -0.917809)
(57.4302 27.8908 -12.8045)
(55.1561 30.7786 -21.2204)
(47.4343 24.7581 -18.2951)
(59.0324 31.0146 -14.2434)
(50.3552 24.1131 -10.3139)
(49.6137 26.0799 -19.3155)
(52.491 25.5518 -11.509)
(26.2074 2.17784 -13.5206)
(37.3127 18.04 -15.4675)
(32.2028 5.36735 -16.3357)
(32.1182 3.07744 -6.14821)
(32.2288 12.3802 -4.065)
(38.6313 16.7709 -6.52456)
(25.1981 1.25889 -2.67303)
(26.9544 -57.6977 21.5521)
(55.2407 14.2049 -3.75547)
(31.6571 -40.1663 -7.17736)
(37.0542 -9.47922 1.41845)
(53.1044 14.8695 14.7739)
(48.5495 17.9306 1.02339)
(38.4046 -17.1586 21.0571)
(-3.62863 -81.8542 22.2255)
(-13.7252 -106.498 49.0538)
(-8.26286 -99.8098 17.3766)
(16.6987 -48.5795 10.908)
(15.4668 -36.7172 34.2348)
(13.9784 -36.5347 15.2786)
(16.0696 -52.9329 34.2883)
(62.1596 27.1084 -3.43828)
(68.129 29.455 7.27497)
(62.8928 30.6524 -4.90926)
(58.2305 20.6138 12.2447)
(53.3562 22.7486 -0.393908)
(55.5162 24.2289 -1.84368)
(59.3747 22.1765 10.384)
(54.562 32.9383 -21.4793)
(54.2876 34.2856 -14.0863)
(57.9368 33.0234 -14.5908)
(48.8413 29.2488 -19.4927)
(50.4194 27.9265 -19.7006)
(52.9764 27.2194 -11.7793)
(50.8036 28.3135 -11.5186)
(41.7893 20.8402 -16.652)
(37.6838 14.898 -5.353)
(43.7465 19.6958 -7.9102)
(39.9225 17.0697 -15.3132)
(44.6199 21.6032 -17.3628)
(46.6151 20.3296 -8.68367)
(40.9781 15.1932 -5.97254)
(32.9513 0.443029 6.30517)
(27.7756 -1.60568 23.8538)
(33.0856 10.5357 7.00223)
(44.0935 12.5649 17.0983)
(40.3006 15.111 4.05906)
(25.2434 0.362022 9.56661)
(35.7382 -2.75934 21.8784)
(56.3479 34.6177 -5.15833)
(64.6966 31.1359 6.06745)
(60.9987 32.1033 -5.77229)
(55.137 25.7176 -2.33646)
(53.4932 26.2786 9.64534)
(52.0984 27.4878 -1.98417)
(57.7539 23.7444 9.56028)
(38.7226 12.6505 5.58569)
(48.6616 15.282 15.1629)
(45.7993 17.9618 2.51786)
(48.5004 18.3378 1.53625)
(43.3984 9.33464 17.1392)
(42.0698 12.6772 4.82396)
(50.9276 15.5435 13.7474)
(19.7168 25.4346 -30.7794)
(87.4407 -270.233 -51.3347)
(46.4492 55.7088 -27.8477)
(76.8146 -128.242 -157.125)
(116.553 -312.359 -46.7646)
(50.339 -165.03 -99.5478)
(54.147 -183.921 -113.331)
(98.3017 -284.749 -34.819)
(37.8651 -182.796 -102.991)
(135.306 -202.089 -15.5848)
(24.3939 -20.6679 -44.4786)
(14.2974 -81.7749 -90.8186)
(21.0738 -77.6631 -112.156)
(62.0508 -140.514 -161.652)
(28.1808 -142.231 -99.2905)
(38.388 -163.093 -113.183)
(23.2823 3.77534 -42.4645)
(50.9785 22.362 -29.4679)
(51.3845 -190.035 -120.069)
(46.303 -152.395 -131.858)
(48.8041 -163.192 -139.49)
(42.8639 -167.343 -129.164)
(46.2281 -195.276 -108.431)
(49.6974 -193.505 -97.4058)
(39.3861 -158.886 -120.308)
(52.8152 -139.21 -159.67)
(46.2612 -139.627 -146.367)
(52.0714 -145.832 -150.786)
(47.0729 -151.084 -141.475)
(56.8054 -143.764 -150.553)
(38.2141 -142.655 -131.684)
(44.4777 -136.398 -142.916)
(101.261 -294.541 -50.898)
(71.2973 -235.531 -90.0049)
(64.2758 -226.04 -96.4215)
(96.4214 -284.833 -46.594)
(65.4397 -236.276 -84.0485)
(75.495 -250.122 -69.6455)
(115.454 -315.391 -45.2723)
(57.362 -130.237 -169.405)
(71.7349 -137.822 -164.694)
(58.3988 -138.909 -169.564)
(61.7611 -136.995 -141.38)
(62.8822 -141.765 -149.467)
(46.7 -132.06 -143.946)
(43.1285 -126.812 -140.973)
(37.8842 36.504 -27.866)
(43.5836 45.1152 -10.9198)
(44.9822 44.0105 -7.70395)
(126.467 -235.723 -31.8464)
(27.7084 -56.0316 -48.6832)
(99.5412 -102.119 -16.2611)
(28.8653 11.0918 -39.6758)
(49.5793 38.2418 -26.6363)
(22.3488 27.6624 -33.4526)
(37.5545 34.8964 -31.1102)
(16.8862 -22.6745 -55.8259)
(46.102 -4.10572 -63.6194)
(28.5531 15.6755 -38.1354)
(54.131 30.1481 -26.4796)
(13.6403 -80.9303 -98.3733)
(30.862 -124.67 -141.97)
(30.4662 -122.538 -129.411)
(17.5082 -45.7215 -61.6196)
(22.1115 -109.37 -103.096)
(24.8476 -100.042 -110.277)
(25.9329 -32.609 -63.3369)
(40.4585 -126.434 -76.3615)
(22.952 -90.0314 -84.2566)
(37.4381 -131.561 -115.168)
(47.2048 -174.276 -80.2079)
(20.3442 -67.2112 -65.2242)
(39.7715 -122.718 -55.6791)
(28.9658 -129.427 -99.3406)
(42.3902 -157.874 -127.314)
(42.3395 -152.374 -120.656)
(50.3672 -149.551 -136.879)
(29.1397 -131.832 -95.6483)
(32.6485 -142.229 -112.019)
(36.4109 -128.283 -122.366)
(29.967 -109.072 -97.3913)
(38.0575 -174.711 -116.224)
(52.0684 -210.361 -72.7499)
(46.3331 -202.9 -91.18)
(50.7894 -206.18 -75.4296)
(35.3131 -168.493 -88.4485)
(60.8959 -211.214 -51.3067)
(34.3621 -166.439 -106.241)
(76.2095 -233.306 -71.9846)
(125.34 -293.297 -40.9529)
(75.8922 -207.164 -53.3009)
(86.0779 -249.908 -46.1266)
(152.144 -306.875 -35.7962)
(87.7801 -218.775 -24.9717)
(139.284 -325.294 -41.2836)
(17.3162 -77.8151 -104.999)
(28.7854 -120.525 -157.339)
(31.7043 -124.768 -153.762)
(28.7416 -93.9158 -109.904)
(49.121 -23.2873 -65.1283)
(38.8209 -23.2418 -61.8961)
(31.7392 -93.2149 -110.522)
(43.5361 -143.231 -122.305)
(39.3557 -147.879 -110.882)
(50.9269 -147.34 -131.328)
(35.6266 -120.685 -116.736)
(28.6767 -98.6411 -81.6064)
(31.0485 -98.2108 -90.8276)
(31.3573 -117.107 -110.308)
(105.493 -288.435 -37.8847)
(72.1283 -245.727 -41.2234)
(71.2766 -241.746 -62.3792)
(86.1948 -259.319 -41.6756)
(121.647 -284.065 -28.7555)
(89.9466 -250.282 -16.9511)
(128.732 -310.172 -36.8378)
(49.6075 -183.18 -53.9765)
(21.0591 -43.4675 -52.3747)
(27.706 -105.52 -61.704)
(51.7799 -93.312 -19.2899)
(43.0818 -115.551 -34.908)
(60.9457 -177.087 -27.2368)
(24.9041 -123.241 -81.4658)
(21.6474 -14.6263 -47.8659)
(21.2214 -51.8929 -64.1962)
(19.4193 -84.9954 -79.2392)
(24.0474 -63.6011 -81.2243)
(31.1617 14.3917 -40.1194)
(31.6628 0.995168 -46.3039)
(26.9984 -25.0402 -58.9238)
(17.9112 -29.0103 -53.1917)
(17.3246 7.93109 -36.3221)
(22.5451 -9.38428 -42.5358)
(18.8065 3.88231 -30.3934)
(30.9638 -39.8843 -37.6376)
(27.3401 10.7661 -29.5089)
(23.6363 11.6287 -34.5657)
(23.2447 -15.6147 -56.6071)
(20.9091 11.6511 -37.9194)
(25.8549 -0.848971 -41.1627)
(30.6349 20.7543 -36.4714)
(36.0295 9.55756 -39.8543)
(35.4837 23.4273 -33.4685)
(26.4967 15.1715 -35.5654)
(31.7586 -53.1324 -76.2028)
(54.9044 12.1035 -39.4968)
(42.6005 -18.0753 -48.5697)
(41.5205 20.8208 -34.6999)
(44.129 10.4901 -41.9193)
(35.6317 -14.5111 -53.8362)
(37.5759 -55.5419 -74.2955)
(35.9715 -6.36721 -57.4052)
(56.0434 41.5767 -35.8466)
(44.0005 32.5169 -34.6726)
(61.5099 26.6169 -37.0012)
(49.5757 20.4151 -37.2216)
(48.1609 33.6564 -31.0008)
(59.946 40.9466 -29.8083)
(96.5134 -249.751 -14.6514)
(146.817 -272.262 -25.7388)
(140.142 -257.914 -20.1759)
(94.3225 -163.148 21.0285)
(91.9005 -205.001 6.22064)
(102.811 -225.288 8.3404)
(146.035 -305.765 -31.4717)
(66.7848 -141.744 -30.5034)
(85.0787 -84.1966 -18.7822)
(134.047 -232.474 -27.4839)
(40.8588 -25.7883 -17.5453)
(70.7876 -133.86 -7.1133)
(44.9116 -9.77125 -11.6564)
(80.6672 -58.5115 -16.5978)
(25.2021 30 -25.7187)
(17.3072 17.7167 -31.9114)
(19.6241 19.1297 -26.23)
(29.9026 24.9668 -25.4949)
(27.8887 28.0373 -29.2605)
(34.4061 34.6858 -23.1264)
(25.1004 20.1363 -30.4713)
(25.4063 2.20934 -40.1858)
(42.3254 -3.10327 -30.3088)
(36.5382 -23.2293 -32.2158)
(35.1425 18.7187 -29.8616)
(32.6631 22.0507 -35.3046)
(41.5877 26.8609 -28.8755)
(29.007 16.2038 -35.1438)
(29.1536 34.3936 -31.4874)
(21.1491 21.5595 -33.6278)
(29.8647 30.1637 -32.0063)
(34.1165 29.37 -31.3242)
(28.8569 29.0415 -32.3655)
(33.7881 33.9135 -30.9673)
(27.3499 22.6416 -33.1603)
(27.0096 9.14938 -38.3057)
(35.5361 21.8267 -36.0346)
(36.6634 17.7539 -36.8119)
(37.9176 24.8625 -33.7733)
(32.5284 23.0947 -36.427)
(30.5496 18.6915 -35.8834)
(38.0955 26.4376 -34.4962)
(51.9794 51.8345 -29.1502)
(38.8419 45.592 -30.3323)
(41.5716 41.7593 -30.2824)
(45.1715 39.0091 -30.1957)
(48.6694 48.9217 -27.0279)
(42.4068 42.5771 -30.2867)
(55.0746 46.496 -27.5723)
(32.9964 36.5576 -13.1388)
(46.3506 29.9346 -11.4336)
(29.9695 24.8662 -15.8482)
(36.8772 30.0969 -12.7614)
(45.3119 44.5007 -9.60958)
(38.4048 38.4654 -11.0803)
(49.3247 34.8353 -11.3278)
(118.337 -170.817 -20.2086)
(68.4063 -51.7285 4.98887)
(68.8856 -97.0033 6.11501)
(47.384 10.7434 -11.3395)
(66.9346 14.4959 -13.2516)
(50.6449 23.8473 -11.8732)
(70.6221 -14.7982 -14.6802)
(59.4147 31.0159 -29.3693)
(45.4115 27.3891 -31.5745)
(48.8914 26.2157 -32.7996)
(49.2039 32.3495 -31.2281)
(55.0936 33.3848 -27.0979)
(47.1281 30.6611 -31.5504)
(58.8676 37.3454 -27.7503)
(37.152 31.762 -24.8663)
(33.693 32.3495 -28.6019)
(42.0119 41.4678 -20.3375)
(35.4953 30.3983 -31.1497)
(39.6519 38.9973 -21.5556)
(41.9535 36.891 -23.9585)
(31.0168 24.9488 -30.8826)
(37.8303 29.8674 -32.1364)
(40.8826 35.6921 -32.138)
(33.9448 31.7875 -31.7548)
(35.4477 29.3595 -33.7423)
(38.0681 34.5638 -31.6042)
(32.3785 25.6309 -33.6016)
(39.8156 31.0584 -33.1812)
(41.6994 34.9942 -12.0052)
(41.6305 41.1562 -10.0845)
(45.5746 44.6169 -8.67657)
(51.0923 41.573 -9.62233)
(41.1919 40.49 -10.1996)
(44.5887 37.9049 -11.6944)
(50.3171 39.4746 -10.6459)
(47.1656 36.3737 -30.7788)
(49.7849 42.9683 -26.7629)
(45.4323 36.8289 -30.086)
(53.197 36.3124 -27.0789)
(44.3162 39.4718 -30.0379)
(46.9043 33.798 -31.1227)
(55.0619 40.9493 -27.16)
(-23.3982 -114.736 -7.00549)
(-36.1242 -140.954 -1.50669)
(-34.5451 -135.175 56.7196)
(-46.652 -191.381 166.238)
(73.2164 -112.366 -136.392)
(31.6528 -117.974 -34.7719)
(15.1696 -84.7749 -115.798)
(-17.5291 -152.53 -11.1847)
(11.6087 -141.875 -78.9121)
(56.8394 18.6333 -25.9144)
(54.1683 -22.7831 10.3534)
(49.4242 -112.594 -151.884)
(67.2702 -105.581 -95.7781)
(51.3213 -127.948 -119.003)
(40.7616 -103.441 -109.261)
(31.3205 -124.7 -124.17)
(40.902 -121.291 -82.1341)
(20.5367 -126.739 -91.2906)
(62.9434 55.8854 -4.87045)
(62.1862 42.9934 2.82452)
(63.1358 61.9201 -25.4822)
(53.5246 39.48 -22.6318)
(61.4037 31.91 -47.215)
(60.4873 31.2325 -21.7351)
(74.4927 23.5406 6.45758)