/*--------------------------------*- C++ -*----------------------------------*\
  =========                 |
  \\      /  F ield         | OpenFOAM: The Open Source CFD Toolbox
   \\    /   O peration     | Website:  https://openfoam.org
    \\  /    A nd           | Version:  9
     \\/     M anipulation  |
\*---------------------------------------------------------------------------*/
FoamFile
{
    format      ascii;
    class       volScalarField;
    location    "0.0005";
    object      overpressureMax;
}
// * * * * * * * * * * * * * * * * * * * * * * * * * * * * * * * * * * * * * //

dimensions      [1 -1 -2 0 0 0 0];

internalField   nonuniform List<scalar> 
5819
(
5577.33
6976.47
7625.4
5.42659
4.29307
12801.3
10266.5
0.259953
0.229655
0.0876738
470.693
0.0231945
11633.5
0.0341344
1839.06
0.22058
9358.71
177.131
250.484
8111.8
10701.3
290.311
209.811
8578.05
10847.4
11663.1
315.55
192.427
289.016
221.349
12541.1
12630.2
12815.7
353.839
353.462
342.911
351.064
282.142
288.18
10392.7
11241.5
11383.8
316.415
314.302
10828.1
8551.91
7604.55
314.804
288.514
191.895
220.696
8608.92
3256.73
5567.66
134.264
221.373
134.019
73.3769
1506.54
4779.79
4076.57
94.0213
40.2069
32.5278
112.898
1440.33
950.295
2740.29
60.7864
9.37149
19.9722
30.662
9.30483
0.247742
9.29551
0.262652
8.94026
9.27963
0.260031
0.151719
0.131511
4.6304
8.11077
0.19968
7.3192
0.221125
5.15866
0.145096
0.123432
0.178237
6.36301
7.46986
0.206542
0.221078
7.35645
7.5692
8.33453
0.248863
8.31291
0.246626
0.199077
8.09235
7.30642
4.61691
0.15107
5.41087
0.130574
0.0230826
0.000388739
0.0014907
0.0172443
0.00231961
335.94
181.538
1.24044
0.598113
0.00433491
0.000904556
5.71649e-05
0.0985048
0.136528
0.055936
0.00253728
61.7989
1.22082
6.99516
279.6
49.7153
5.71449
0.971075
88.9494
12.9392
29.7719
1.64448
3.55806
0.576911
0.246444
2.00207e+06
5628.55
1.95616e+06
2.84204e+06
2.6473e+06
2.65403e+06
2.57446e+06
1.62712e+06
1.86253e+06
3.00262e+06
2.79291e+06
2.61686e+06
2.51119e+06
2.92617e+06
2.76016e+06
2.52355e+06
2.75761e+06
3.23772e+06
3.1725e+06
2.95178e+06
2.89413e+06
2.58006e+06
2.63423e+06
2752.31
1.65061e+06
1.64114e+06
22340.7
89.8877
558478
395.641
1.94809e+06
2.29662e+06
1.9265e+06
2.28245e+06
2.22402e+06
2.22597e+06
1.92744e+06
2.34351e+06
2.3708e+06
2.57028e+06
2.35312e+06
2.1995e+06
2.18859e+06
2.3684e+06
1.97491e+06
2.40865e+06
2.34531e+06
2.24708e+06
1.93399e+06
1.93001e+06
2.27479e+06
2.61736e+06
2.35518e+06
2.3488e+06
2.16889e+06
2.1808e+06
2.38288e+06
2.40485e+06
2.12612e+06
1.76511e+06
1.99362e+06
1.75722e+06
1.98397e+06
2.12225e+06
1.85936e+06
1.63286e+06
1.31026e+06
1.06179e+06
1.63622e+06
1.63843e+06
1.29941e+06
1.03107e+06
1.94632e+06
1.72016e+06
1.9681e+06
2.1186e+06
1.83519e+06
1.84888e+06
2.11683e+06
1.64577e+06
1.61971e+06
1.6339e+06
1.17311e+06
1.25763e+06
943830
789981
1.53439e+06
1.03086e+06
108175
975063
89068.5
1.51239e+06
512656
14162.9
3273.97
16316.3
435047
158426
406954
139900
602995
834395
53485.3
1.31342e+06
1.44476e+06
406950
261301
861.755
1775.28
9946.89
240327
337503
98218.8
51243.9
0.179517
2.33463
181.529
6.89715e+06
5.98594e+06
3.46962e+06
5.03714e+06
2.94701e+06
2.72967e+06
2.71215e+06
1.86547e+06
1.88293e+06
2.7627e+06
5.7426e+06
3.19909e+06
2.4468e+06
2.43656e+06
2.23602e+06
2.31136e+06
2.33941e+06
2.42471e+06
3.27034e+06
2.48821e+06
1.97058e+06
2.4854e+06
3.19475e+06
7.83238e+06
3.70764e+06
7.74542e+06
6.58498e+06
2.91262e+06
2.32372e+06
3.90429e+06
3.42101e+06
4.02622e+06
3.37094e+06
2.37304e+06
3.5712e+06
2.94996e+06
2.33462e+06
2.3633e+06
2.11423e+06
2.09442e+06
1.5009e+06
1.27002e+06
15975.8
9031.62
17222.9
4542.03
2.58564e+06
2.06466e+06
8085.97
5310.68
1.62744e+06
108558
5.21829e+06
2.36291e+06
3.17149e+06
4.2528e+06
232358
1.04283e+06
2.16863e+06
4862.69
1.86374e+06
2.62826e+06
1.97036e+06
779092
1.60515e+06
3772.22
1.2954e+06
1.82362e+06
3229.26
2.32394e+06
2.24707e+06
1.98814e+06
2.07413e+06
2.06459e+06
1.89984e+06
822066
1.86675e+06
304.541
1.10529e+06
148.372
476225
0.301477
1.32589e+06
992198
227.235
1772.28
5.85494
1260.41
0.0317079
0.0669575
9.14499
0.0318796
0.361867
0.00886138
0.0171319
0.000628624
5.37381e+06
6.05754e+06
6.17769e+06
3.08439e+06
3.14543e+06
2.98502e+06
2.77924e+06
57787.4
1.62809e+06
3.41444e+06
5.32648e+06
3.08995e+06
3.10278e+06
2.54757e+06
2.24797e+06
2.31421e+06
2.86785e+06
2.11243e+06
2.53265e+06
2.97271e+06
3.39705e+06
2.36844e+06
2.7193e+06
2.78927e+06
1.94379e+06
1.9807e+06
1.63274e+06
7.26546e+06
3.06537e+06
2.3803e+06
6.03643e+06
5.28376e+06
3.24191e+06
2.24772e+06
8.26496e+07
4.35323e+06
4.26215e+06
4.02194e+06
3.63043e+06
3.4203e+06
3.7216e+06
2.23295e+06
3.5246e+06
2.7967e+06
3.25089e+06
2.16594e+06
3.31611e+06
2.71223e+06
1.49237e+06
2.89583e+06
1.75899e+06
2.6756e+06
3.03509e+06
1.90397e+06
1.96465e+06
5.50099e+06
1.18543e+07
5.54889e+06
4.3078e+06
7.53277e+06
6.08182e+06
4.65826e+06
7.38064e+06
2.52871e+07
2.05274e+07
8.58889e+06
1.49277e+07
9.83338e+06
1.01151e+07
5.10648e+06
9.87244e+06
4.39301e+06
3.85594e+06
6.85216e+06
5.8791e+06
4.0974e+06
3.64744e+06
3.92746e+06
3.95607e+06
4.90734e+06
6.50133e+06
5.30022e+06
5.58351e+06
2.32543e+07
6.43358e+07
6.50328e+07
3.33909e+07
2.8198e+07
5.13073e+07
2.65171e+07
1.91289e+07
4.40691e+07
2.31367e+07
1.38101e+07
1.35685e+07
3.99921e+07
1.89485e+07
1.93444e+07
3.95176e+07
1.94943e+07
1.31919e+07
1.94563e+07
3.60698e+07
1.30734e+07
1.44606e+07
1.53648e+07
8.90986e+06
9.93969e+06
1.56551e+07
1.43113e+07
9.13881e+06
4.03807e+06
3.56454e+06
3.45948e+06
3.30561e+06
3.85752e+06
3.36763e+06
3.10293e+06
4.56374e+06
4.09746e+06
3.68567e+06
3.51422e+06
4.1974e+06
3.63915e+06
3.2424e+06
4.15484e+06
4.89622e+06
4.52362e+06
4.88744e+06
4.44925e+06
5.50793e+06
4.26207e+06
3.23122e+06
4.08651e+06
3.67234e+06
3.50373e+06
3.88587e+06
4.52679e+06
4.16932e+06
2.67028e+06
2.28479e+06
3.25243e+06
3.16052e+06
2.44762e+06
3.36377e+06
2.5445e+06
3.75302e+06
3.55705e+06
3.89503e+06
4.41986e+06
3.62534e+06
4.29937e+06
3.81877e+06
2.80063e+06
3.21668e+06
2.96287e+06
2.70122e+06
3.18643e+06
2.8418e+06
2.60603e+06
3.35104e+06
2.77898e+06
2.89727e+06
2.91355e+06
3.18463e+06
3.40093e+06
2.72707e+06
2.80841e+06
3.39433e+06
2.95122e+06
2.96055e+06
3.16969e+06
2.74989e+06
3.43979e+06
2.89737e+06
3.06117e+06
2.73486e+06
3.33155e+06
2.66255e+06
3.35222e+06
2.90913e+06
2.93032e+06
3.11466e+06
1.91631e+06
2.02117e+06
3.02265e+06
2.327e+06
2.65684e+06
4.02802e+06
7.43836e+06
4.12982e+06
7.24381e+06
3.85486e+06
3.82364e+06
7.65272e+06
3.74831e+06
3.98198e+06
3.99081e+06
4.45061e+06
4.20375e+06
3.83775e+06
3.72417e+06
3.97981e+06
3.83354e+06
4.19922e+06
3.7457e+06
3.98065e+06
4.43677e+06
4.02267e+06
2.53773e+06
4.38472e+06
4.12595e+06
2.15039e+06
1.73312e+06
5.31778e+06
2.32035e+06
2.84528e+06
2.61696e+06
2.92942e+06
3.06307e+06
2.55435e+06
2.77931e+06
2.81054e+06
3.16875e+06
3.4396e+06
3.17504e+06
2.71414e+06
2.9559e+06
3.17302e+06
2.91911e+06
2.99696e+06
3.72087e+06
3.3234e+06
2.77323e+06
3.09032e+06
3.375e+06
3.00249e+06
2.80116e+06
2.7755e+06
3.05367e+06
2.84172e+06
2.92202e+06
3.18553e+06
2.61271e+06
2.99666e+06
3.33362e+06
2.73641e+06
3.18555e+06
3.45389e+06
2.76594e+06
2.95833e+06
3.60448e+06
3.03238e+06
3.65908e+06
2.89515e+06
3.53624e+06
2.70664e+06
3.60383e+06
3.39672e+06
2.67639e+06
3.03921e+06
3.24146e+06
2.61002e+06
2.89619e+06
2.87262e+06
2.5663e+06
1.61621e+06
1.74868e+06
1.75854e+06
1.88392e+06
2.1303e+06
1.9813e+06
3.1985e+06
6.40075e+06
5.91823e+06
3.38277e+06
3.46249e+06
3.13671e+06
6.14525e+06
3.04948e+06
2.77718e+06
3.39786e+06
3.19006e+06
2.79707e+06
3.51293e+06
3.00734e+06
3.23587e+06
2.60535e+06
2.889e+06
2.94169e+06
3.03467e+06
2.67474e+06
3.38913e+06
3.18993e+06
2.95087e+06
3.03971e+06
3.38018e+06
3.26867e+06
3.44687e+06
3.0209e+06
5.87837e+06
3.45512e+06
3.15633e+06
3.25094e+06
6.35853e+06
3.59911e+06
6.05462e+06
3.0072e+06
3.20648e+06
2.96062e+06
3.41867e+06
3.05007e+06
3.0939e+06
3.52534e+06
3.05448e+06
3.15656e+06
2.72394e+06
2.75377e+06
3.14795e+06
3.29749e+06
2.66551e+06
230390
33684.2
149293
1.44634e+06
1.57607e+06
1.58004e+06
1.30142e+06
2.09937e+06
1.80245e+06
1.52558e+06
1.64188e+06
1.87979e+06
2.03412e+06
1.67442e+06
2.23558e+06
2.07927e+06
2.10849e+06
2.49055e+06
2.36799e+06
2.50405e+06
2.32495e+06
2.22157e+06
2.14256e+06
2.24339e+06
2.52228e+06
2.39873e+06
2.35651e+06
2.54664e+06
2.115e+06
2.09103e+06
2.24535e+06
2.40338e+06
2.5212e+06
2.52169e+06
2.36634e+06
2.26167e+06
2.14089e+06
2.24905e+06
2.44687e+06
2.57783e+06
2.56346e+06
2.40854e+06
3.77871e+06
7.92165e+06
3.91578e+06
7.53371e+06
3.69609e+06
3.77949e+06
7.7416e+06
3.07199e+06
3.1185e+06
3.54606e+06
3.06111e+06
3.43896e+06
3.05987e+06
3.39927e+06
3.81183e+06
3.61291e+06
3.9333e+06
3.34444e+06
3.33838e+06
3.61493e+06
3.57178e+06
6.7411e+06
7.27423e+06
3.61559e+06
3.33595e+06
6.90658e+06
3.57951e+06
6.47711e+06
3.06105e+06
3.05955e+06
3.43761e+06
3.07109e+06
3.11645e+06
3.41876e+06
3.54177e+06
3.45488e+06
6.64407e+06
3.86912e+06
6.85626e+06
3.80625e+06
6.35063e+06
3.58755e+06
2.94863e+06
3.3978e+06
3.57496e+06
3.3478e+06
2.85969e+06
2.92872e+06
3.52616e+06
3.53011e+06
3.34953e+06
3.03632e+06
3.57686e+06
3.39959e+06
2.85988e+06
2.94937e+06
3.58322e+06
6.4672e+06
3.33765e+06
3.61723e+06
6.7319e+06
3.41445e+06
7.26652e+06
3.02776e+06
2.49805e+06
2.73049e+06
2.53289e+06
2.37002e+06
2.5607e+06
2.80424e+06
2.67082e+06
2.6586e+06
2.90605e+06
2.57071e+06
2.31947e+06
2.52096e+06
2.74474e+06
3.50998e+06
3.15759e+06
3.14084e+06
3.21266e+06
3.60072e+06
3.66532e+06
3.19259e+06
2.24886e+06
1.87281e+06
2.4016e+06
2.24832e+06
1.62202e+06
2.06173e+06
1.75821e+06
2.57132e+06
2.524e+06
2.74693e+06
2.91065e+06
2.45419e+06
2.66353e+06
2.67681e+06
2.56264e+06
2.5357e+06
2.80616e+06
3.03219e+06
2.5024e+06
2.73599e+06
2.71443e+06
2.5165e+06
2.61771e+06
2.51208e+06
2.92443e+06
2.76049e+06
2.98114e+06
2.64335e+06
2.35885e+06
2.24004e+06
2.13561e+06
2.14214e+06
2.25451e+06
2.56546e+06
2.3797e+06
2.17336e+06
2.14346e+06
2.3177e+06
2.60707e+06
2.44168e+06
2.42207e+06
2.62921e+06
2.38132e+06
2.36282e+06
2.53535e+06
2.14341e+06
2.25464e+06
2.13758e+06
2.2414e+06
2.77798e+06
5.3923e+06
2.82611e+06
2.97429e+06
5.66063e+06
2.92301e+06
5.79656e+06
2.09317e+06
2.3107e+06
2.51066e+06
2.28437e+06
2.10377e+06
2.53548e+06
2.34369e+06
2.41461e+06
2.69077e+06
2.69114e+06
2.43061e+06
2.39143e+06
2.68283e+06
2.68632e+06
2.76584e+06
5.29647e+06
2.82467e+06
5.6151e+06
2.92262e+06
2.98517e+06
5.69632e+06
2.31981e+06
2.19846e+06
2.29709e+06
2.63813e+06
2.49471e+06
2.46902e+06
2.64105e+06
2.43079e+06
2.6977e+06
2.43603e+06
2.40439e+06
2.39693e+06
2.70792e+06
2.71949e+06
2.27992e+06
1.91522e+06
2.30306e+06
2.2467e+06
1.7993e+06
2.20172e+06
1.82077e+06
2.34552e+06
2.31735e+06
2.51139e+06
2.10559e+06
2.28658e+06
2.3119e+06
2.0958e+06
2.94832e+06
2.91365e+06
3.26104e+06
2.71e+06
2.77853e+06
3.0703e+06
3.03085e+06
2.92712e+06
3.31484e+06
3.48525e+06
2.82035e+06
3.14011e+06
3.31555e+06
2.92731e+06
1.31499e+06
1.38406e+06
1.40106e+06
1.16543e+06
1.17329e+06
1.21729e+06
1.20693e+06
6.77655e+06
7.33363e+06
3.61674e+06
6.59127e+06
3.52001e+06
7.13055e+06
3.61749e+06
2.36098e+06
1.96491e+06
2.47351e+06
1.95214e+06
2.37817e+06
2.4581e+06
1.99943e+06
2.77949e+06
2.71249e+06
3.07012e+06
3.03185e+06
3.26285e+06
2.91676e+06
3.27104e+06
1.704e+06
1.6184e+06
1.37096e+06
1.85725e+06
2.2306e+06
1.20029e+06
450328
33693.2
1.32617e+06
917244
1.61549e+06
1607.53
233.457
1.58805e+06
3.15634e+06
2.58652e+06
2.88141e+06
2.85702e+06
2.55448e+06
3.1135e+06
2.72823e+06
2.4731e+06
1.99934e+06
2.45792e+06
1.9518e+06
2.3781e+06
2.3604e+06
1.88214e+06
2.85575e+06
2.8819e+06
3.15694e+06
2.55258e+06
2.72754e+06
2.78923e+06
2.58646e+06
3.11404e+06
6.13664e+06
3.23161e+06
5.47346e+06
2.94994e+06
3.08898e+06
5.52169e+06
2.7239e+06
2.71864e+06
2.69072e+06
2.41611e+06
2.37899e+06
2.35024e+06
2.39312e+06
7.12679e+06
3.51889e+06
3.61732e+06
3.61636e+06
6.76549e+06
3.47e+06
7.3248e+06
3.14127e+06
5.32231e+06
2.96124e+06
3.16376e+06
6.00309e+06
5.8299e+06
3.34259e+06
3.23152e+06
5.53174e+06
6.14815e+06
5.48068e+06
2.94986e+06
3.11429e+06
5.99571e+06
2.69073e+06
2.34974e+06
2.38046e+06
2.39272e+06
2.41716e+06
2.73027e+06
2.72486e+06
2.78203e+06
2.45948e+06
2.45497e+06
2.43621e+06
2.42971e+06
2.7914e+06
2.80081e+06
2.50757e+06
2.05902e+06
2.181e+06
2.18222e+06
2.50829e+06
2.35087e+06
2.61125e+06
2.0677e+06
2.22383e+06
2.15024e+06
2.22582e+06
2.40157e+06
2.34053e+06
2.57321e+06
2.28244e+06
2.16237e+06
2.07709e+06
1.97819e+06
2.04856e+06
2.2813e+06
2.17352e+06
2.05045e+06
2.17611e+06
2.28324e+06
2.28556e+06
2.42756e+06
2.08008e+06
2.16473e+06
2.03148e+06
2.32012e+06
2.46477e+06
2.43676e+06
2.32024e+06
1.97045e+06
2.1282e+06
2.21904e+06
1.91874e+06
1.92312e+06
2.28036e+06
2.22268e+06
1.9458e+06
2.28814e+06
1.97208e+06
2.13193e+06
2.43636e+06
2.24092e+06
2.46728e+06
2.32012e+06
2.03433e+06
1.50956e+06
1.36454e+06
1.44548e+06
1.24113e+06
1.19964e+06
1.24056e+06
1.2736e+06
2.56215e+06
2.36064e+06
2.37115e+06
2.56934e+06
2.3523e+06
2.19891e+06
2.18081e+06
1.89807e+06
2.0158e+06
2.11908e+06
2.16832e+06
1.75098e+06
1.89438e+06
2.05442e+06
1.93515e+06
1.79242e+06
2.00218e+06
1.72719e+06
1.92763e+06
1.98749e+06
1.76297e+06
3.08032e+06
2.55399e+06
2.80934e+06
2.6688e+06
2.45188e+06
2.65677e+06
2.91876e+06
2.56146e+06
2.24839e+06
2.32395e+06
2.56161e+06
2.48898e+06
2.83117e+06
2.76532e+06
1.32228e+06
1.32586e+06
1.58751e+06
1.49062e+06
1.50401e+06
1.27396e+06
1.26545e+06
3.46142e+06
6.21832e+06
3.52089e+06
6.21527e+06
6.73485e+06
3.51985e+06
3.58692e+06
3.33454e+06
5.48981e+06
6.14512e+06
5.96605e+06
3.40513e+06
5.32279e+06
3.25764e+06
2.59133e+06
2.31146e+06
2.3291e+06
2.58733e+06
2.36505e+06
2.14088e+06
2.16227e+06
2.59089e+06
2.36309e+06
2.32696e+06
2.36292e+06
2.3102e+06
2.16115e+06
2.13977e+06
2.57162e+06
2.26329e+06
2.31836e+06
2.12989e+06
2.40984e+06
2.48134e+06
2.19445e+06
1.95755e+06
2.23075e+06
2.32386e+06
2.37449e+06
1.91255e+06
2.24733e+06
1.98038e+06
2.51767e+06
2.03273e+06
2.48024e+06
2.43249e+06
2.0223e+06
2.48031e+06
2.03267e+06
2.45168e+06
2.81038e+06
2.66898e+06
2.91906e+06
3.08065e+06
2.76274e+06
2.55418e+06
2.62922e+06
2.48233e+06
2.19477e+06
2.41087e+06
2.57395e+06
2.26448e+06
2.31835e+06
2.37474e+06
2.2483e+06
2.23205e+06
1.91313e+06
1.91686e+06
1.95777e+06
2.3247e+06
3.25694e+06
5.95973e+06
3.40368e+06
6.13469e+06
3.33345e+06
3.19757e+06
5.4831e+06
2.13346e+06
1.84247e+06
2.0873e+06
2.05298e+06
1.83182e+06
1.796e+06
2.09651e+06
0.0287351
0.0830908
0.0132246
5105.75
8642.14
446.021
1286.13
1.91451e+06
1.74982e+06
1.90042e+06
1.95651e+06
1.76798e+06
2.04476e+06
2.12337e+06
1.91372e+06
2.12174e+06
1.90048e+06
2.04221e+06
1.95624e+06
1.74957e+06
1.76752e+06
2.81779e+06
4.45316e+06
2.76084e+06
4.95492e+06
2.84632e+06
2.95671e+06
4.93353e+06
1.62178e+06
1.29495e+06
1.32552e+06
1.60188e+06
1.53383e+06
1.28901e+06
1.30689e+06
1.28978e+06
1.60264e+06
1.53483e+06
1.57642e+06
1.62203e+06
1.30722e+06
1.29524e+06
0.0384176
0.197101
0.0557188
4151.58
242.59
1253.06
707.931
2.32555e+06
2.36301e+06
1.9365e+06
1.88679e+06
1.97756e+06
2.03507e+06
2.40496e+06
2.40416e+06
2.3126e+06
1.93602e+06
1.97748e+06
2.03365e+06
1.88709e+06
2.32705e+06
934277
244776
946246
893585
197937
182185
910086
1.851e+06
1.85956e+06
2.12476e+06
1.76232e+06
1.9919e+06
1.74891e+06
1.97626e+06
2.09879e+06
1.75648e+06
1.76395e+06
2.21734e+06
1.86172e+06
2.19609e+06
1.87478e+06
1.67822e+06
1.7033e+06
1.6229e+06
1.79155e+06
1.8323e+06
1.87439e+06
1.92639e+06
2.01991e+06
2.08296e+06
2.2928e+06
2.03043e+06
1.80407e+06
1.85279e+06
2.21935e+06
2.30157e+06
2.49578e+06
2.27842e+06
2.1281e+06
2.30134e+06
2.48554e+06
2.71445e+06
2.2189e+06
2.29259e+06
2.01981e+06
2.08302e+06
1.85247e+06
1.8038e+06
2.0298e+06
2.52782e+06
2.2507e+06
2.40705e+06
2.23045e+06
2.08836e+06
2.14839e+06
2.00942e+06
2.3801e+06
2.23579e+06
1.89989e+06
2.17565e+06
2.32711e+06
1.96159e+06
1.86307e+06
1.30441e+06
1.62946e+06
1.017e+06
1.28549e+06
1.05682e+06
1.63198e+06
1.63027e+06
1.96142e+06
1.86276e+06
2.1757e+06
2.37991e+06
1.89946e+06
2.23565e+06
1.98786e+06
199377
855379
909830
855162
102466
149282
782912
2.52797e+06
2.40716e+06
2.1488e+06
2.00907e+06
2.32395e+06
2.25014e+06
2.08739e+06
3.25092e+06
4.68136e+06
3.19682e+06
5.21653e+06
3.34624e+06
5.63434e+06
3.40652e+06
2.10284e+06
1.81561e+06
1.83594e+06
1.59061e+06
1.92326e+06
1.70436e+06
1.9552e+06
0.0446665
0.0178724
329.674
10340.5
20.0727
385946
521290
3.34657e+06
5.6394e+06
3.40802e+06
5.04025e+06
3.25151e+06
4.68364e+06
3.19744e+06
1.72885e+06
1.66142e+06
1.63992e+06
1.87412e+06
1.91956e+06
1.97796e+06
2.02693e+06
1.83535e+06
1.95435e+06
2.10146e+06
1.81491e+06
2.0934e+06
1.92243e+06
1.59057e+06
1.76249e+06
1.65454e+06
1.8088e+06
1.96058e+06
2.08479e+06
2.0492e+06
1.92061e+06
1.63652e+06
1.21373e+06
1.63538e+06
1.03683e+06
1.63653e+06
1.30027e+06
1.21379e+06
48969.8
687352
656043
810801
130177
116269
833892
1.59881e+06
1.62111e+06
743318
917139
1.13389e+06
1.23314e+06
1.63184e+06
2.88195e+06
4.2765e+06
2.86113e+06
4.6947e+06
3.07644e+06
3.03972e+06
4.85521e+06
1.23351e+06
1.62108e+06
1.63218e+06
1.59862e+06
1.63274e+06
1.13403e+06
743551
0.768303
0.020292
0.00436413
0.312813
0.0450072
2017.8
153.125
1.9091e+06
762526
1.51526e+06
2.2544e+06
2.09043e+06
1.83719e+06
1.65369e+06
2.35011e+06
1.70938e+06
1.90352e+06
1.70774e+06
2.16716e+06
926347
1.26934e+06
1.44376e+06
1.45647e+06
820902
1.70105e+06
1.71764e+06
1.55981e+06
1.56533e+06
1.76641e+06
1.78642e+06
1.60695e+06
1.60444e+06
933923
1.60625e+06
979712
18508.4
460701
580418
756261
52192.4
87647.1
660586
87667.8
580667
756596
52187.6
660683
460757
18507.4
1.95232e+06
2.10226e+06
2.24728e+06
2.00896e+06
1.83835e+06
1.3969e+06
1.89285e+06
1.87427e+06
1.61738e+06
1.56656e+06
1.56563e+06
1.6168e+06
690990
933599
2.10258e+06
2.06471e+06
1.95239e+06
1.83777e+06
2.00914e+06
1.39518e+06
1.89253e+06
2.21859e+06
1.89496e+06
1.73521e+06
1.93697e+06
2.07415e+06
1.19261e+06
1.73505e+06
1.78679e+06
2.00212e+06
1.33505e+06
1.88055e+06
826788
1.76417e+06
1.61787e+06
502597
556167
1.53078e+06
1.0293e+06
963117
107771
85999.3
13449.7
429796
134562
394554
156585
3227.83
2629.17
1.50618e+06
482049
966447
1.58809e+06
189464
1.24958e+06
649378
3.03561e+06
4.7515e+06
3.24109e+06
4.25334e+06
3.49968e+06
3.03488e+06
2.29717e+06
1.43457e+06
753879
497552
1.74712e+06
1.78381e+06
1.56672e+06
1.48474e+06
2.00205e+06
829245
1.76489e+06
1.78616e+06
2.06412e+06
1.87961e+06
1.33624e+06
1.73871e+06
1.48511e+06
799911
1.89374e+06
1.72577e+06
1.98755e+06
1.86377e+06
1.25004e+06
189862
649585
1.50623e+06
1.6273e+06
966573
482530
1.98971e+06
3.85353e+06
2.72948e+06
4.45966e+06
3.06717e+06
4.13472e+06
2.93917e+06
805420
1.42205e+06
1.2702e+06
552725
231649
48531
18528.5
1.42208e+06
231276
385840
18448.8
551794
805201
48463.1
303787
2430.52
138317
23804.4
510269
303809
8086.94
891564
229579
87469.1
1.10524e+06
1.79068e+06
1.70485e+06
818680
230.44
246.323
9119.62
6518.15
5973.14
150.391
166.963
216.872
8140.45
8982.16
6341.81
5587.95
162.369
140.512
4794.13
43215.1
89487.3
214385
317221
725.534
1606.82
726.654
9033.13
89524.2
317316
214448
4796.22
43271.3
7328.24
124.151
189.03
3004.03
4710.04
114.028
68.9116
158266
3119.57
95173.6
1.21782e+06
890263
119674
199329
110382
4467.54
128384
899421
942368
137808
160484
1.42085e+06
13369
414572
220154
1.26851e+06
318538
1.10383e+06
177523
8887.56
137285
1.72704e+06
1.08736e+06
336155
1.19111e+06
1.45865e+06
1.2091e+06
1.20788e+06
247810
436049
18809
436956
1.42161e+06
1.90006e+06
416179
221516
319158
1.27078e+06
13446.5
691998
26440.6
138641
26493.1
691455
238575
2047.63
84040.5
4782.25
250802
47185.4
701.435
14717.9
519982
100.42
165.42
6432.31
2467.73
4152.8
100.458
56.8257
98654.8
35484.6
1059.71
891262
642817
48769.6
128542
14183.3
104761
420.95
232.861
3162.71
26957.5
48.1943
17450.4
2065.37
91400.2
88192
935139
1.46456e+06
414961
3496.04
1119.41
3106.76
72.1119
28.5822
82.37
24.578
1053.38
3391
2900.78
27.9356
79.9689
67.4471
23.2389
47573.2
14793
706.963
993154
251942
84406.6
4814.35
21488.8
33.3841
1879.61
25.6566
1452.65
392.379
312.803
37758.4
1.68988e+06
677840
3.42684e+06
2.22726e+06
1.91539e+06
810742
48.3425
421.375
3171.93
26984
104852
1774.18
14216.8
1340.05
787.361
2277.64
51.4356
9.06945
16.8635
29.2274
3.87195e+06
1.20494e+06
3.40524e+06
1.56668e+06
1.993e+06
9363.7
126677
190371
154.815
1.57887e+06
1.40041e+06
1.63204e+06
4426.69
7476.11
149.4
99.5461
902017
21956.2
59434
240543
1.64149e+06
1.59945e+06
1.4697e+06
1.32989e+06
1.30669e+06
1.38931e+06
1.41413e+06
1.1692e+06
1.18411e+06
1.21026e+06
1.22754e+06
1.38471e+06
1.53508e+06
1.46508e+06
1.26011e+06
1.21568e+06
1.25666e+06
1.29323e+06
1.58591e+06
1.32673e+06
1.49651e+06
1.51634e+06
1.26975e+06
1.28384e+06
1.33503e+06
949745
247303
950374
201887
915563
910380
191752
1.61826e+06
1.59968e+06
1.55308e+06
1.30489e+06
1.32416e+06
1.34282e+06
1.32594e+06
174882
219185
940807
886094
120921
164826
828208
1.6055e+06
1.55129e+06
1.56257e+06
1.36932e+06
1.36501e+06
1.15958e+06
1.16197e+06
1.95289e+06
1.64965e+06
1.66029e+06
1.75056e+06
1.44424e+06
1.4922e+06
1.20826e+06
694576
133515
840820
828467
52360.7
123166
672777
2.6708e+06
3.96038e+06
2.6562e+06
2.405e+06
3.3872e+06
2.18495e+06
3.14637e+06
1.65553e+06
1.59337e+06
1.57943e+06
1.31294e+06
1.13179e+06
1.07772e+06
846414
786118
62521.4
37679
500535
97772.8
608649
704592
1.49938e+06
1.49639e+06
1.2229e+06
279909
295390
791891
782442
1.96453e+06
1.24158e+06
1.6071e+06
259798
360869
1.00338e+06
784661
35710
7019.78
25370.8
692842
537678
354005
261742
1.48512e+06
946847
1.16565e+06
94193.6
230227
688283
430712
26586.9
7172.33
24255.1
531694
514248
260595
265346
2.3565e+06
3.7339e+06
2.65462e+06
1.85339e+06
914134
1.7252e+06
2.70978e+06
32743.6
349150
119866
1.25736e+06
2.09909e+06
799719
1.55963e+06
14346.7
1324.07
4712.94
401794
204213
190206
72056.6
1508.3
127.742
1169.92
6484.17
8867.09
85330.3
59356.9
1312.87
157.589
1324.39
7444.8
7970.21
66829.1
65198.9
816.515
29.1277
253.958
1639.55
5318.46
42903.8
13707.2
21672.9
33.5664
1889.1
324.553
26.625
1507.64
17892.2
141532
1647.76
52294.7
94.9072
2523
848.781
29.5625
378.356
1119.49
2018.34
45.8121
7.68619
24.4844
15.2331
707.79
45.8044
1119.19
378.281
24.4807
15.2015
7.67062
201.404
6.07524
15.2919
361.476
876.972
11328.9
5413.05
10331.6
75.0004
5.02119
299.689
13.8233
792.952
183.386
486.853
22821
14.4797
609.536
22895.5
16845.5
488.204
183.609
75.2164
4554.75
13.8562
794.469
301.084
5.04582
41153.2
2451.96
549.043
22899.5
5594.69
302536
812906
3.80122
4197
6812.07
1574.3
228.424
64.453
102.343
5044.62
8.87641
143.599
216586
6983.25
419.818
15627.1
6455.34
7.3846
298.107
15012.8
6803.59
259152
330.332
4165.86
3.78215
63.9973
1567.01
6794.22
108071
102.086
64.4931
380.392
381.109
0.45113
4251.26
30.0685
5.84307
40.8285
486.906
153.146
2.87784
9.89353
2.87746
0.74548
20.0118
1.18343
74.2546
0.176637
11.0924
222.569
3.48582
29.7866
12.9566
88.9914
0.577813
3.55438
1.64413
0.247355
0.756827
39.4676
1510.91
25.1166
11545.3
189.822
6.01997
3.5421
0.186817
223.689
11.1858
1266.21
74.7646
1.19458
0.162845
5.83562
6.30454
3.62957
0.121325
0.105006
4.08313
7.76289e+06
5.58564e+06
5.88082e+06
8.16972e+07
6.12684e+06
7.65524e+06
3.96938e+06
3.08654e+06
4.65413e+06
4.71252e+06
1.04824e+07
3.96231e+06
6.1923e+06
4.10525e+06
5.46203e+06
4.54606e+06
6.40389e+06
9.42579e+06
6.02258e+06
5.70119e+06
5.41188e+06
6.65306e+06
6.08061e+06
2.20117e+07
1.95164e+07
8.54646e+06
1.18113e+07
9.72027e+06
9.03261e+06
3.78319e+06
3.45073e+06
3.65832e+06
4.38673e+06
6.55895e+06
5.24568e+06
4.87986e+06
2.08898e+07
5.7541e+07
5.98196e+07
3.31019e+07
4.17593e+07
2.73735e+07
2.53697e+07
1.55815e+07
3.83521e+07
1.72901e+07
1.26324e+07
2.96143e+07
1.08929e+07
1.73259e+07
1.64683e+07
3.74527e+07
1.67576e+07
1.27167e+07
2.93779e+07
1.83234e+07
1.14852e+07
1.33811e+07
1.54696e+07
9.91313e+06
8.71515e+06
1.54299e+07
8.66351e+06
1.38746e+07
4.20748e+06
7.4173e+06
4.45866e+06
4.44097e+06
7.08033e+06
5.00579e+06
7.40752e+06
3.35562e+06
3.69388e+06
3.43916e+06
3.2863e+06
3.54479e+06
3.99536e+06
3.80749e+06
6.58679e+06
3.66274e+06
3.76151e+06
4.094e+06
6.12337e+06
4.05843e+06
6.69229e+06
3.81941e+06
7.82975e+06
4.02284e+06
7.24441e+06
3.84491e+06
4.11076e+06
7.43109e+06
3.09985
0.0528935
1.61096
0.142913
5.40029
3.0939
0.0874423
2.90209
0.125592
4.63766
0.0508391
2.661
0.0774282
1.53884
2.09535
0.0299267
0.858366
0.0715729
0.685674
2.55892
0.0610032
7.33063
5.74906
0.454949
0.143256
0.021997
0.0182904
0.112736
6.99446
0.533502
0.764001
3.8806
30.3846
0.0827528
0.0308214
10.7543
0.344828
0.0289628
0.395769
14.6251
510.807
12.2426
2.97338
0.164716
0.0117863
0.122212
119.577
6.32622
2.05032
0.308801
0.174835
0.0188196
0.174453
281.691
9.1477
4.61262
0.614493
0.0237126
1.62074
0.0559439
0.047839
1.87232
0.522334
0.212831
6.16872
5.45139
0.159444
3.95581
3.38297
0.149006
1.7161
0.747599
42.8537
14.4125
0.0241592
0.256725
0.541344
0.031506
0.137167
7.00277
3.89247
30.4191
0.534564
0.0833834
0.625668
0.0136339
0.183412
1.29903
0.0187136
0.403466
0.0371667
0.109263
0.14901
4.00081
2.33272
0.0879259
0.113749
1.28224
0.358692
0.0235018
0.00873566
0.0690082
1.00776
23.4025
1.56914
0.0319172
0.0245786
0.0689337
23.5053
1.01525
1.57309
0.00892725
0.0224505
0.0168718
1.11639
0.180118
0.0330722
0.345422
0.607096
0.095675
3.20613
0.244598
0.0166707
0.0190992
0.0691377
0.0362989
0.509959
0.0559452
0.613039
0.0814729
1.78267
1.48743
0.0770525
0.0240713
0.980785
0.0403776
0.0325618
0.513321
0.162297
0.0216481
0.17119
0.0428718
0.318686
0.950041
0.0472798
0.0553074
0.505004
0.0305074
0.0237473
0.42132
3.10386
0.0187907
0.0652412
0.11757
0.0201849
0.0318697
0.930499
0.0240432
0.0983111
0.0201938
0.0197745
0.00947809
0.300219
0.0240792
0.00799756
0.00753905
0.0120924
0.0083876
0.0959175
0.0232829
0.113791
0.0359938
0.0217051
0.0329344
0.0217051
0.0265799
0.0173717
0.0383839
0.0200679
0.0170529
0.0170529
0.0181779
0.0299752
0.0299752
0.0299752
0.0328853
0.0299752
0.0312863
0.147137
0.038572
0.0174598
0.0172865
0.0267741
0.0172865
0.0173186
0.0184818
0.0417091
0.0417091
0.0576489
0.0418537
0.101329
0.0574734
0.0417091
105.203
0.1147
342.453
0.482887
0.00164571
0.0129822
0.00315676
0.023273
62.6217
1.23599
7.11971
51.9202
293.703
6.00743
1.01389
15.3438
32.7809
200.137
1.94758
3.93771
0.624761
0.28651
0.610158
7.36572
0.15496
0.0335956
5.95115
0.031777
0.128937
0.271525
0.0192058
0.042483
1.48424
3.52879
0.0225064
0.0770502
0.00979621
0.0338405
0.0100616
0.0107904
0.0100821
0.06057
0.0172769
0.0228635
0.0371779
0.116422
0.0228635
0.0238912
0.10077
0.0341675
46.5579
1.21429
292.487
8531.91
1.39473e+06
6.00079
0.0378498
688517
1.33929
0.0213457
1.31769
996.477
0.00497847
0.18847
0.0159485
195.634
1.52335e+06
956991
505934
706418
326330
80931.9
32111.3
1.1507e+06
1302.58
26550.7
88062.3
368008
140084
8374.67
211105
2850.54
89707.6
154.051
4195.04
1467.27
50.0946
2690.19
60.7094
1461.16
523.063
31.7821
21.2608
10.6248
16719.3
123.771
7438.02
22.5282
1317.18
505.966
8.42286
3.64533
0.986778
57.4789
622.405
211.165
12.7479
3.92738
266.258
20.3707
132.111
0.862973
5.24469
2.42771
0.363243
0.313304
19.9714
385.788
33.9593
2199.73
129.94
2.04927
46.2351
2890.56
73.8942
584.416
20641
334.558
10.5571
1.60813e+06
1818.27
76485.1
1.69502e+06
11525
1.43236e+06
67464.9
1.59842e+06
35459.3
82.4445
4.08356e+06
16.1874
1.32796e+06
0.0223775
789.525
1443.04
27435.8
1.59295e+06
15837.5
145.504
1.22665e+06
27.5085
938669
1.45468e+06
773638
2.0256e+06
5961.71
3.58724e+06
133.29
1.28834e+06
1.63063e+06
1.60799e+06
1.63412e+06
1.47121e+06
1.4666e+06
1.46869e+06
1.461e+06
0.225526
0.24238
21895.2
937212
449809
1.68204e+06
1843.43
1.45812e+06
1.45145e+06
1.62259e+06
1.60933e+06
1.63569e+06
1.46839e+06
1.46869e+06
1.66517e+06
1.71023e+06
1.67398e+06
1.46972e+06
1.32077e+06
1.44018e+06
1.38036e+06
1.3169e+06
1.68922e+06
1.65672e+06
1.71105e+06
1.67412e+06
1.47023e+06
1.3838e+06
0.0967217
725569
278218
3.60255
427301
0.00941669
39.5524
1.39009e+06
1.37649e+06
1.60953e+06
1.57134e+06
1.56941e+06
1.17458e+06
1.18106e+06
1.84606e+06
1.69306e+06
1.48468e+06
1.70595e+06
2.07004e+06
1.24269e+06
1.5946e+06
2.73898e+06
2.52337e+06
3.54384e+06
3.97204e+06
2.74371e+06
2.33544e+06
3.32778e+06
1.16067e+06
1.65624e+06
1.63093e+06
1.60265e+06
1.58473e+06
1.09806e+06
876927
0.0372311
11.8495
0.0114574
0.749426
0.00443922
0.738501
0.0113117
793837
105793
873390
832535
63789.8
749164
89458.7
60557.7
761074
734980
103304
869440
833919
89606.3
12929.7
0.0266435
0.0145781
426.715
3.03617e+06
9.57992
572381
83.0876
0.0144139
0.0138709
10.3294
564061
1.86976
261759
1.67751e+06
1.3153e+06
1.70173e+06
1.39905e+06
1.03163e+06
368114
295602
1.70043e+06
1.3242e+06
1.39575e+06
940736
1.02732e+06
366256
300939
1.52602e+06
1.22425e+06
1.50759e+06
800773
281434
795802
289851
1.6562e+06
1.71111e+06
2.06527e+06
275488
810752
1.12195e+06
459430
701076
35983.5
363008
15808
616197
50444.3
433055
11471.2
611844
362306
704864
16039.3
51128.3
436808
1.41399e+06
1.16303e+06
1.49489e+06
701411
89944.6
225279
443060
1.60703e+06
1.12636e+06
1.42856e+06
782729
408790
165714
49203.8
25924.7
543927
531175
270523
7614.61
271350
7539.03
44136.6
26955.6
559981
7307.49
273090
413410
11542.9
3.83855e+06
2.53449e+06
2.73887e+06
1.94355e+06
2.27047e+06
1.20343e+06
2.96652e+06
2.02677
0.00696022
0.000556685
0.231624
45662.2
0.00509486
2.54751
5377.59
423201
223816
201960
1479.46
4794.8
80536.5
2.39092e+06
183985
534326
997955
228204
56181.6
1.89799e+06
94363.1
2624.26
129432
10770.5
144.495
209.931
7567.08
29623.3
462440
539885
23799.5
502.38
17324.4
689.35
20438.4
29463
540700
23833
471.109
16510.2
685.902
95381.3
2592.81
128000
10692.3
148.986
7781.7
208.503
1.04477e+06
46328.9
331313
12101.9
120032
8074.44
766.675
913065
64130
154023
24987.3
55436.4
2756.41
1272.6
573571
63813.1
65865.7
26001.3
27175.5
1344.14
1304.82
2747.58
952.447
472.132
60.9551
30.7228
20.0236
9.40347
68145.9
1314.68
7353.98
150.332
66173.1
7667.59
1342.42
9176.11
2467.03
98152.2
202.66
7307.27
1893.96
51.729
1.88868e+06
1.81676e+06
754809
1.08206e+06
356578
25386.3
162979
487695
14745
45540.6
5952.29
18289.9
883.244
272.491
76.9171
0.0370945
2.05751
1510.11
4086.48
2.56482
1.35497
0.0176828
3921.46
91.3745
4639.38
1812.25
109.971
39.7914
32.9179
4791.4
1507.99
1840.36
94.2571
113.163
40.234
32.5629
44605.1
263.6
94.8435