/*--------------------------------*- C++ -*----------------------------------*\
  =========                 |
  \\      /  F ield         | OpenFOAM: The Open Source CFD Toolbox
   \\    /   O peration     | Website:  https://openfoam.org
    \\  /    A nd           | Version:  9
     \\/     M anipulation  |
\*---------------------------------------------------------------------------*/
FoamFile
{
    format      ascii;
    class       volScalarField;
    location    "0.0005";
    object      rho.c4;
}
// * * * * * * * * * * * * * * * * * * * * * * * * * * * * * * * * * * * * * //

dimensions      [1 -3 0 0 0 0 0];

internalField   nonuniform List<scalar> 
5819
(
63.8178
63.5186
62.4555
96.1641
96.7173
62.6223
63.2626
43.8581
38.4195
11.0627
81.497
1.40358
62.0155
2.72416
70.4511
35.9701
62.9646
80.0562
80.1709
62.8444
62.6458
80.1767
79.6459
62.4973
61.5665
62.0365
79.4498
78.7291
78.5108
79.1858
61.7989
63.7159
62.6549
80.7139
80.6661
79.3935
82.0515
81.0268
81.4041
63.4612
64.3634
63.5288
81.6786
82.6614
61.5665
62.4937
62.4671
79.4174
78.5075
78.7436
79.1818
61.9696
67.0683
63.8408
79.6866
78.309
79.7126
82.8992
71.1593
65.046
65.3862
81.2628
86.7622
87.3987
81.165
72.6682
74.8308
67.8512
83.6957
98.0202
91.168
88.8624
99.7027
41.4533
99.6433
44.5572
97.9236
101.179
43.9152
22.0953
18.6767
95.227
97.4747
32.0205
96.0167
36.0807
96.6423
20.7692
17.0188
27.2066
97.7567
98.3056
33.0304
36.8617
99.5454
100.052
100.563
42.8407
101.58
42.345
31.945
97.4307
96.0096
95.2513
22.0142
96.1541
18.6114
1.7817
2.80374e-05
0.000876991
1.21814
0.00306744
82.6086
87.4182
120.434
116.265
0.0409418
0.000498773
1.95201e-08
10.9176
16.5076
5.08776
0.00823372
94.8338
110.287
99.2998
83.6016
95.8948
100.131
110.408
94.2465
108.509
100.392
109.193
103.57
112.474
40.5682
7.41495
75.1088
5.41238
1.58136
2.6963
1.23679
1.6478
35.3602
12.9984
0.880652
1.06639
1.21577
1.67372
0.89145
1.04734
1.78057
1.32314
0.941894
0.887061
1.39275
1.14791
2.09121
2.76677
78.4583
15.8302
11.8962
88.0825
105.022
55.1838
91.9203
5.09612
2.39929
7.87455
2.26249
3.60227
3.88177
8.34897
3.20318
2.95759
1.53268
2.90844
5.4779
5.93822
3.22273
6.13933
3.48517
2.7558
4.5277
11.5098
9.48387
5.68653
1.98174
5.10036
3.88373
8.81783
6.98315
3.84337
4.96802
6.17874
22.9881
10.7975
24.2364
11.499
6.6303
13.7376
11.3329
25.567
37.585
17.4229
18.2455
26.5074
38.8411
16.7021
27.9611
13.2925
7.6733
19.3537
15.6914
9.50105
13.3092
24.7325
20.5042
34.071
29.1967
42.7453
49.9362
28.6323
48.7613
73.1717
50.5097
74.1123
29.9363
56.4553
66.4251
77.8763
65.8693
47.6388
60.3777
48.5146
61.2109
66.8008
56.3231
78.9367
41.6261
33.9009
61.147
69.6565
89.3846
82.1455
69.3858
57.2316
51.621
64.9372
71.939
26.5614
97.0318
87.4507
8.45571
10.3152
3.75978
27.991
1.03148
1.25492
1.12953
8.78394
3.22982
2.36224
18.6755
8.63875
1.28516
7.35413
1.89005
13.5434
2.53662
1.7048
0.847799
2.86378
9.80197
5.64846
1.37524
8.25881
1.53052
8.87456
12.6382
1.29973
1.65896
1.263
0.82715
1.16802
1.11596
1.48821
0.726608
1.27934
3.24958
5.14031
6.70127
9.84423
30.1965
43.4087
65.981
70.676
76.4492
90.3492
2.02838
17.8298
73.4024
94.5775
21.3841
102.684
26.912
13.304
137.839
72.4019
293.048
89.0645
47.3961
136.538
8.8369
2.5896
9.84412
64.4869
33.0646
107.866
50.4666
17.4436
113.893
7.0747
10.0421
9.99581
18.2711
13.3017
34.2658
74.1774
34.707
140.22
70.7509
138.554
104.392
49.6986
47.3891
57.8034
141.342
86.8448
134.825
103.297
2.07471
6.48541
156.926
3.95837
57.0961
0.490572
1.63851
0.000454987
11.0937
7.82487
1.34438
1.04033
1.27714
1.13323
1.08055
56.7223
11.3771
3.13391
10.6978
6.43169
1.33099
1.16781
1.93598
1.43961
1.033
1.44201
1.29491
0.872531
0.771891
1.50269
1.65801
1.64099
5.11743
7.7151
16.5447
7.18691
1.07475
3.04576
7.47972
10.3088
1.29436
1.89078
1.3588
1.24925
1.20817
1.30461
1.23359
1.13096
0.913404
1.82869
0.756111
1.58277
1.25042
1.33873
0.885854
1.10883
2.26046
1.09997
2.70253
1.10165
1.09379
3.5757
3.85643
1.29648
1.3589
1.29636
1.3357
1.3142
1.34438
1.28197
1.30638
1.37695
1.32032
1.33597
1.32174
1.34275
1.29464
1.27221
1.28581
1.24466
1.22869
1.28681
1.27123
1.22221
1.31613
1.27253
1.27151
1.28576
1.30932
1.33001
1.28319
1.38986
1.36756
1.3454
1.34237
1.3479
1.35985
1.37094
1.35253
1.36975
1.37074
1.34785
1.27673
1.36732
1.36368
1.32348
1.32183
1.32518
1.27919
1.32173
1.33523
1.22823
1.359
1.31845
1.32242
1.30035
1.33032
1.35222
1.26877
1.51094
1.49512
1.41216
1.39865
1.40167
1.46893
1.39039
1.28011
1.27312
1.32579
1.31372
1.32948
1.23335
1.2917
1.1822
1.26684
1.25463
1.26702
1.23157
1.28135
1.2084
1.29173
1.27332
1.32583
1.31367
1.26331
1.28033
1.32944
1.10167
1.11742
1.11581
1.09154
1.11095
1.07603
1.10459
1.2391
1.10745
1.23088
1.25603
1.2005
1.25826
1.18991
1.28612
1.38114
1.35081
1.21367
1.40614
1.26435
1.20341
1.3251
1.17308
1.21926
1.17522
1.25108
1.26243
1.10299
1.12872
1.21284
1.08161
1.02916
1.20748
1.06928
1.17317
1.07133
1.27394
1.15652
1.23489
1.13391
1.22129
1.10078
1.09347
0.9008
9.71685
5.00777
1.15284
7.04671
3.66541
2.46787
8.13088
2.44461
8.17217
2.44914
2.48876
8.42649
1.05283
1.11692
1.20961
1.24967
1.23529
1.14768
0.913091
1.11715
1.14802
1.23551
1.05344
1.21009
1.25005
1.16852
1.60836
26.9912
50.3876
27.7205
6.51577
20.3285
8.09564
1.31914
1.16666
1.33804
1.29279
1.16587
1.39721
1.24516
1.31287
1.49285
1.40341
1.09674
1.27753
1.31276
1.29981
1.19239
1.24762
1.30545
1.00529
0.933942
1.11582
1.19231
1.24471
1.39912
1.29258
1.31844
1.33759
1.3742
1.16625
1.16926
1.10221
1.00469
1.19125
1.18725
1.0259
1.20754
1.04873
1.09632
1.00629
1.09996
1.08606
1.10291
1.04898
1.17952
1.09355
1.24426
1.06778
1.0855
1.14434
1.0312
1.16606
19.2962
5.70451
17.5348
9.28732
5.89074
5.04735
2.64994
8.13674
8.31159
2.35682
2.43884
2.53841
8.6549
0.97388
0.974749
1.00549
1.14872
1.00195
1.11421
0.960431
1.06797
1.08701
1.14425
1.03146
1.24401
1.0932
1.17953
0.940289
0.874581
0.958167
1.15965
0.899246
1.13189
0.988313
7.95169
2.27154
2.45744
2.43555
7.22583
2.21584
7.72107
0.859222
0.932487
0.867565
1.14453
0.976885
0.935798
1.10072
0.929159
0.908379
1.10528
1.09355
1.03343
1.01613
1.09558
45.4868
60.6109
49.2655
6.04818
8.58398
8.04593
4.74743
1.44283
1.3972
2.32046
2.43217
1.40649
1.4252
2.52035
2.10568
1.55306
1.46171
1.47519
1.20397
1.40543
1.23532
1.44521
1.37247
1.37655
1.12985
1.15116
1.16721
1.12019
1.42156
1.44678
1.97341
1.16567
1.36615
1.36647
1.13784
1.35049
1.3577
1.38047
1.12134
1.09913
1.08221
1.09691
2.58126
8.43103
2.48731
9.59147
2.88076
2.57939
8.86514
0.890295
0.929454
1.06146
0.981166
0.917513
0.948991
0.770076
0.956091
0.95785
1.17125
0.807448
0.817512
0.957543
0.725934
9.88088
8.94152
2.6419
2.81771
8.4731
2.51609
9.13012
0.984455
0.95169
0.918353
0.892015
0.930358
0.827824
1.06164
2.49585
7.89564
2.2631
7.14166
2.2129
7.69673
2.65261
1.19368
0.837928
0.907808
0.874556
1.12296
1.09337
0.98225
0.981867
0.874298
1.09386
0.907776
0.837395
1.12296
1.19326
2.5136
9.10296
2.8128
2.63742
9.84238
3.12428
8.91837
0.953042
1.17671
1.0186
1.47449
1.49359
1.10532
1.04865
1.10796
1.67974
1.30608
2.42952
1.66557
1.2126
1.55854
0.816101
0.953032
0.874463
0.901812
0.893024
1.02696
0.912887
1.47964
3.06731
1.55061
1.4793
2.45238
1.42982
2.70113
2.41922
1.21119
1.55604
1.30422
1.28064
1.67411
1.10567
1.10403
1.46882
1.04725
0.950986
1.17313
1.01685
1.1257
1.80241
1.2231
1.68151
0.897618
1.05417
0.892095
1.253
1.32299
2.13617
2.07132
1.61334
1.63318
1.16676
1.20505
2.06602
1.59437
2.28081
1.43555
1.25082
1.14723
1.67766
1.20484
1.32006
1.29138
1.61183
1.63068
2.06359
2.12721
4.05348
11.315
4.39491
3.19719
9.16867
3.02123
9.62068
2.32362
3.45585
1.93876
2.51586
1.76375
1.60914
1.29234
1.93993
1.12864
1.09015
1.76023
1.41173
1.07325
1.06377
3.9506
10.2254
4.09528
8.8001
2.93121
2.94711
8.64559
1.93186
1.47147
1.51926
1.09564
1.17844
1.10158
1.19068
1.89959
1.08131
1.746
1.39377
1.45738
1.05091
1.04546
1.6965
3.80799
1.76069
1.52248
2.78784
1.49378
2.92441
1.29197
1.43587
1.93272
1.76187
2.51139
3.44156
2.31398
1.28508
1.08961
0.850471
1.58239
2.15335
1.12765
0.990326
1.45441
0.88414
0.819277
2.21309
1.11891
0.883474
1.45367
4.93779
5.29463
5.54055
10.9989
11.386
12.7511
12.235
11.0393
9.66308
2.94428
12.6803
4.99005
10.8192
3.56791
1.589
3.85775
1.75774
4.33466
1.9312
2.34815
5.30151
2.14621
1.57582
1.12604
0.988641
0.847749
1.08504
0.845659
28.5968
42.5337
49.138
14.1826
10.4579
49.6539
81.6895
60.6909
21.601
43.7237
10.7799
83.568
103.377
30.2799
0.968
2.87271
1.44443
1.17342
2.14303
0.901607
1.35216
1.75738
5.30017
2.34834
4.33148
1.93047
1.58819
3.22697
1.17093
1.4395
0.966199
2.13887
1.35123
1.63865
2.86576
3.51375
11.4534
4.17356
12.3193
5.09601
6.40269
13.9421
1.12156
1.65014
1.29763
2.4076
1.76266
2.4279
3.35325
10.8013
4.97239
3.56204
2.93782
10.9942
3.74505
9.63839
5.44923
10.4369
4.53521
3.10566
9.15447
8.74539
3.53704
4.19138
14.014
11.5083
12.3693
5.11188
3.52282
10.3536
1.30267
2.43964
1.7679
3.36751
2.41614
1.25845
1.12356
1.22232
3.22473
2.33137
2.27679
1.679
1.08103
1.23183
4.15996
5.37865
2.87379
2.86763
4.15018
1.60725
2.30826
4.55879
2.49627
4.64234
2.49102
1.44149
2.53131
1.41441
1.69461
3.24315
3.11753
5.0768
5.22229
2.76731
2.70004
5.19423
2.68525
2.75281
1.68604
1.69571
3.10096
3.22594
3.59744
5.18071
2.78772
4.51352
8.14536
5.94017
3.11428
3.93016
8.44502
7.89735
2.27325
3.61591
5.48416
2.43155
5.90222
3.09552
4.48924
1.87918
2.77223
5.15294
3.57691
6.95375
5.34163
6.04458
13.9017
12.2862
13.8916
15.9046
1.67146
3.26252
2.96908
1.54109
2.92319
5.49533
6.00669
3.24943
8.8279
4.7246
6.41489
8.84403
4.54065
11.665
2.8621
6.04335
3.03066
7.72889
3.94164
4.15378
8.0569
1.19226
4.10838
2.17154
3.49494
6.06729
3.66875
1.87758
3.80111
5.1925
6.5835
3.79562
2.85842
2.01479
1.49903
18.5198
19.4079
8.51588
6.25997
6.5906
15.1515
14.4847
10.8785
14.9059
7.17175
14.8778
12.5087
7.15743
4.81878
5.48118
16.461
13.1253
15.3841
7.65543
20.4548
12.2324
2.79711
5.27567
3.98427
2.0346
3.93741
9.11956
7.14352
2.7865
3.92815
3.97253
5.12598
5.25743
7.12613
9.09118
1.88079
3.74328
4.95973
5.91914
3.15385
4.18016
7.54943
6.30413
4.63683
2.82897
3.62441
11.9678
5.89124
7.71366
2.21823
6.89473
3.22151
4.69817
9.40267
3.22061
6.89444
6.05654
2.16381
3.48682
1.87511
1.18968
2.35849
4.09879
2.57674
4.16421
7.517
3.13902
1.87006
3.72442
4.9383
3.62725
5.90004
4.6421
11.9793
9.72154
6.30286
2.83004
12.1601
15.3109
7.61858
13.0582
5.45323
8.59222
16.3651
4.85189
7.05434
3.54871
4.8482
12.1313
9.26653
6.42781
1.63977
10.0313
0.728321
64.6572
62.7578
80.251
72.854
8.83068
16.4485
8.52545
8.52044
16.1692
4.66834
4.76561
8.87525
4.78333
8.54671
4.68828
8.53752
16.5296
16.2331
17.1836
22.3604
13.4982
15.8345
8.18342
10.3684
18.4884
11.4414
25.3641
21.5697
9.57327
7.29823
16.6721
19.3623
16.6945
9.58412
7.30598
8.58837
11.4488
19.3761
25.3866
5.08512
33.9385
7.49147
65.3793
79.7001
73.033
77.0203
24.4736
13.27
10.2533
19.0344
10.0198
5.49405
7.54088
7.5739
13.6284
10.3197
10.0462
5.51939
19.1369
24.6024
26.0306
45.1892
25.4601
28.3576
46.7806
47.4385
27.5265
13.8662
13.0173
6.19469
23.0006
10.813
24.4308
11.6042
16.9319
22.0061
13.1888
14.489
11.0841
9.28615
6.85882
11.5304
11.7601
19.2547
9.57347
9.70346
5.91643
6.14237
9.41697
11.8786
6.80066
12.462
17.7054
22.884
5.34841
9.60012
5.75653
9.69301
16.6165
9.58974
5.64214
3.28107
5.36538
6.81929
9.43238
11.8954
22.9467
17.7636
12.5101
4.1054
7.37881
6.19844
10.4877
12.5759
11.1611
19.416
4.96921
7.90028
15.919
11.36
7.05105
14.0891
23.3639
25.6612
18.4456
39.2042
26.8484
37.6575
17.4645
12.0542
14.0822
23.3331
11.3422
4.96474
15.8977
7.88732
9.99093
46.6907
30.3465
27.5436
30.3201
52.4597
49.2215
33.7234
4.09053
6.17928
11.1159
19.3439
7.05382
7.35033
12.53
18.8379
43.1947
32.1294
26.8517
18.174
19.0524
11.1885
7.8502
20.1717
16.0681
36.9152
17.3785
28.6464
13.5955
4.64422
1.85115
119.778
81.3933
120.121
62.1456
79.1128
18.2161
19.1273
11.2327
28.1532
18.9468
43.3707
32.2696
13.3344
28.3024
21.4737
10.8632
13.9879
7.02502
9.04099
16.0491
13.5678
7.83719
20.134
9.82265
17.3279
36.8198
25.3762
33.7278
18.6823
12.9041
7.48371
9.64446
16.7454
14.5688
31.6075
19.9963
42.0437
14.5709
23.9109
31.615
57.6823
38.0495
39.2088
32.5288
50.4852
51.3277
31.509
25.8448
21.04
51.773
43.7225
35.5495
29.9879
13.6789
36.9065
35.1225
23.7919
30.5248
20.4679
13.9931
22.7998
30.0156
21.0383
13.6886
25.8279
16.5484
35.5632
51.747
130.163
1.48191
0.0411896
59.2999
5.80868
69.7513
90.7617
50.0377
71.1238
40.2297
25.2624
47.9195
19.7981
38.1938
24.385
37.6046
18.9249
37.7052
47.5221
71.0166
89.4114
35.6131
35.0965
64.0359
17.2002
17.0225
33.6744
32.9246
16.31
15.984
32.1675
33.1448
63.8773
32.2287
62.8885
65.715
47.338
42.2437
34.958
57.6802
53.6367
39.1004
53.7167
42.3071
35.0111
57.7219
39.1309
47.3801
65.7639
31.7675
17.2225
10.0174
18.8925
35.4783
64.2578
33.819
22.4339
35.0244
45.3633
45.4181
35.0795
81.8932
67.541
17.2595
17.8522
31.801
35.5569
18.958
64.3633
33.9191
10.7765
22.0956
38.4536
32.8632
18.2542
68.9045
38.4856
27.7491
20.0588
51.7697
24.6184
76.3298
38.955
42.6262
56.7974
55.2253
28.6655
48.7906
50.8247
73.2363
74.4703
67.012
47.7281
61.6372
48.9571
60.4362
78.0115
79.0966
34.333
63.8393
44.5503
30.2913
80.61
50.0908
59.0505
58.8719
42.6317
31.8538
72.541
131.034
58.9987
112.046
38.6953
68.6972
82.3383
18.7954
24.533
36.0297
46.9092
20.0078
76.173
38.8296
27.6848
13.2672
24.5333
51.6234
27.1621
44.1617
74.9582
21.5358
39.0194
13.5741
24.1522
50.0356
80.5613
59.0336
34.2955
21.3784
44.5438
63.7901
115.357
79.8615
63.3256
45.4068
33.4551
74.4873
59.916
57.3282
34.7015
43.3403
68.6108
71.4074
79.9127
89.7542
34.7331
71.4866
62.1923
89.8681
68.7367
57.4076
79.9988
54.8917
84.9348
66.0469
63.8855
45.4871
54.9042
73.4155
62.888
77.3011
88.2465
52.4092
25.5919
33.5683
65.1047
79.8157
79.9424
62.6762
63.3878
63.5521
79.9162
80.0238
79.4231
62.4865
62.5034
63.4231
63.8271
80.0479
80.2354
77.1072
73.8344
66.0663
58.9592
52.6465
91.5857
83.5828
91.5547
70.7183
66.0621
52.6903
58.9791
77.1253
73.8053
63.1664
80.7414
79.7254
67.1171
64.6039
80.5728
82.9381
120.145
113.528
96.4141
89.1921
70.954
98.0132
123.195
90.0678
109.675
91.0001
63.9684
63.1324
91.3907
92.2517
64.0163
125.75
104.406
104.15
67.5532
104.455
70.8412
102.033
122.826
102.491
38.1751
70.7686
103.624
68.5305
62.8743
68.7998
68.8563
104.728
104.113
126.276
104.083
63.9664
34.2016
104.344
104.073
104.425
67.4082
125.734
75.9166
100.982
102.743
100.96
75.9543
79.0564
121.713
84.5743
103.687
84.2963
103.003
120.697
101.9
79.2123
81.5874
79.6709
63.1892
68.488
65.3242
81.5211
84.7244
95.0548
106.193
124.275
67.8103
82.0659
107.554
96.3236
85.2579
68.221
100.796
103.405
100.735
81.9713
118.627
103.265
120.547
102.307
103.36
74.1862
48.4034
83.088
66.5279
73.156
66.7464
82.7265
89.3967
82.7507
89.5057
73.9428
66.6731
67.3894
89.7105
82.9609
83.5971
90.6332
102.911
101.838
120.67
57.7017
84.1611
84.4857
103.592
75.297
106.407
90.4219
107.343
91.4442
92.1115
93.1444
213.227
233.945
182.253
132.451
112.674
232.749
185.285
118.639
100.789
100.702
81.9575
68.2148
86.8393
85.2149
71.9629
75.487
68.4067
84.2056
96.3901
91.6723
87.8829
43.4082
40.14
90.617
55.1777
22.2595
84.4713
171.815
215.366
116.265
11.5094
36.0198
13.9496
74.2483
70.3186
98.108
103.244
29.3126
63.9224
56.6053
45.5691
10.9502
8.39325
5.79319
4.86507
4.72897
5.26665
5.45318
10.978
11.2493
12.1694
12.552
5.19109
6.65872
5.87284
13.3014
11.9497
13.4875
15.2087
8.00686
18.4229
6.22676
6.49095
14.3978
14.9078
19.1148
25.8717
45.2879
25.4672
46.7008
27.3973
28.0029
47.1339
9.30723
8.21832
7.09414
16.1863
24.2512
20.9545
18.5032
48.453
46.4492
27.0101
29.6123
51.2957
48.572
32.5434
12.0129
15.8738
16.2716
24.3041
25.0396
33.6297
33.1049
16.3987
12.9247
17.8143
32.2569
26.5528
43.9263
36.1709
37.9125
50.3679
31.3489
32.0894
57.123
50.8391
38.7459
30.3819
34.4476
23.0847
42.89
58.9237
57.9237
77.0667
18.5842
24.6725
18.6073
28.6863
37.4543
37.6808
47.7445
34.1294
56.1634
59.4617
45.7808
52.6811
41.2969
37.7297
24.0594
24.2199
39.9616
66.4226
66.8082
47.6332
47.3972
33.3622
44.7953
26.943
71.5857
87.6772
63.0978
51.6546
72.8312
73.0718
62.9161
56.5718
47.2342
69.5635
57.9669
27.2891
56.4501
44.1495
81.3112
70.7562
51.8922
62.9576
60.7556
70.7201
61.2588
44.5224
45.2561
55.0545
54.6028
71.0827
59.8824
44.1752
164.787
125.552
84.7278
109.903
120.866
148.131
103.603
78.1209
106.012
98.7062
135.019
64.9344
83.4828
73.6042
49.3437
58.4558
58.8144
68.0448
99.337
101.913
86.3177
87.7335
103.447
85.4071
71.6057
82.944
99.1346
83.5856
83.3523
84.2333
68.1527
67.653
87.4157
113.209
97.171
98.1927
88.0569
71.8733
81.6699
75.2031
106.241
90.2717
92.4378
106.652
90.8974
75.9735
78.6982
105.315
89.2149
109.876
95.6532
106.129
120.929
82.4662
73.8415
69.6577
85.9086
99.4137
90.2999
93.8253
77.1031
86.0201
73.8882
82.5153
90.3524
93.8819
99.4265
96.6021
119.818
110.941
104.723
95.5212
80.2352
88.3912
81.4493
107.315
122.127
106.725
112.384
96.7783
98.1096
143.077
127.275
157.714
143.249
127.27
126.665
143.082
98.0536
107.242
90.2733
112.304
96.6918
106.624
122.078
153.002
233.193
166.843
201.503
142.644
125.309
175.093
154.674
122.837
124.126
121.334
141.351
138.788
140.071
122.669
155.067
139.54
104.186
124.206
141.66
125.356
122.114
154.973
140.071
125.346
123.334
103.785
141.414
122.868
154.644
138.776
121.356
124.136
102.734
140.068
117.985
119.482
119.471
73.346
99.8468
138.053
134.824
102.92
80.4766
90.7742
106.931
97.1678
106.936
113.954
120.167
131.974
120.387
24.1495
136.012
119.697
134.263
100.363
108.475
94.2605
112.462
103.585
109.194
40.6261
145.61
136.514
121.086
137.085
103.803
120.32
135.09
134.651
25.9135
119.675
136.254
103.228
120.336
132.662
23.9987
97.2289
97.561
96.1192
15.6751
13.5608
96.7695
8.21895
1.40394
7.36181
1.36101
7.61635
8.43781
1.34853
1.39022
1.49854
1.49856
1.40437
1.40726
1.48521
1.52473
1.40385
2.38277
7.79309
2.32084
7.4494
2.38027
2.30138
7.8759
1.46091
1.38376
1.4156
1.34458
1.45281
1.41864
1.3823
1.42498
1.38059
1.47456
1.47126
1.34506
1.42247
1.38009
1.40745
1.37251
1.34699
1.34596
1.37196
1.35441
1.37797
1.37864
1.37309
1.40006
1.36389
1.38922
1.3135
1.36852
1.36728
1.34772
1.44024
1.41449
1.36586
1.35173
1.3692
1.3873
1.32267
1.33321
1.33251
1.34652
1.30506
1.36049
2.46657
8.11466
2.44052
2.44206
8.035
2.42436
8.12078
1.46846
1.53039
1.4122
1.39851
1.49468
1.51077
1.40154
7.94019
2.31352
2.39654
2.38766
7.53865
2.30189
7.90946
2.49052
8.26327
2.46866
8.18292
2.45083
2.44634
8.13906
95.1801
5.75527
97.0492
21.0602
94.7008
95.1984
11.0395
96.1108
17.4796
96.1785
5.25702
95.8259
9.18883
96.9778
95.9479
2.34414
99.5279
7.87681
99.8655
96.5236
6.38782
107.911
108.773
87.2569
19.8613
1.05962
0.869416
14.7029
118.01
97.4822
130.008
119.35
104.507
9.57674
3.04453
155.634
55.8529
3.70757
69.9296
157.138
142.368
157.196
152.5
23.49
0.79458
16.1872
139.193
155.595
151.598
53.4249
26.5689
2.24285
26.6161
142.141
156.961
155.288
100.869
1.40894
96.7387
5.17697
4.35871
97.6341
101.13
37.0322
97.0727
96.5571
26.7004
96.7255
96.5875
24.5532
123.238
122.416
111.117
121.697
2.12196
43.1713
107.533
3.0737
16.5482
118.026
119.4
104.506
97.635
9.60969
100.142
0.847685
28.7577
96.9917
1.00109
79.6377
3.1626
17.3777
24.0678
95.5519
96.9134
13.8395
17.5364
99.6521
56.6382
1.33986
0.796633
7.10267
149.847
137.473
152.375
2.08741
1.35781
7.14688
137.476
149.916
152.424
0.803809
1.23753
0.808933
96.8534
27.5036
2.53317
64.8672
98.8937
11.7665
112.331
41.1406
1.65628
1.6764
7.65638
2.96209
102.813
7.70627
101.356
11.0498
97.0871
97.285
10.2198
2.009
98.7432
3.51681
2.36188
101.464
24.557
1.95105
27.3038
5.1802
60.7597
97.7044
5.4857
6.58564
101.061
2.21889
1.91128
73.433
133.557
1.85523
6.91149
15.6602
1.91008
2.43782
128.844
1.95829
10.8831
1.91
1.90659
0.412136
50.815
1.37445
0.408009
0.406883
0.432475
0.408158
13.6915
1.78288
17.1134
3.42203
1.7731
2.92638
1.77264
2.31315
1.21782
4.26222
1.48362
1.21634
1.21664
1.23023
3.93504
3.935
3.93555
3.98432
3.93526
3.94801
25.6002
4.25423
1.21491
1.21457
2.31007
1.21436
1.21465
1.22836
5.41925
5.42181
7.62972
5.42377
16.0588
7.62704
5.41951
91.8144
14.4765
82.4072
92.2914
0.00106439
0.46534
0.00555643
1.83317
94.5825
109.886
98.9547
94.9716
82.7524
98.9199
109.005
105.953
98.5593
85.7102
107.255
101.526
110.564
46.3503
117.16
107.399
22.1031
3.3306
107.694
3.15396
17.4698
45.8193
1.93553
3.64022
118.031
110.909
1.9638
8.63837
0.437958
3.13087
0.438241
0.439889
0.439163
7.43068
0.841138
1.82956
3.50181
17.3546
1.83065
1.83578
14.2924
3.05485
95.5534
118.525
93.2326
90.2179
38.5986
131.386
3.85019
73.7236
144.555
1.47234
97.2111
74.1717
0.0966984
23.6056
0.964107
87.7897
30.8077
52.0787
57.5576
63.3889
66.8711
75.4072
85.3721
52.1883
117.241
97.974
99.1549
79.4478
80.1572
99.5932
74.2645
101.059
84.8988
105.029
91.0871
101.719
116.348
68.0293
83.919
71.7006
79.3149
87.616
90.3641
95.6276
76.9408
102.566
85.9319
107.281
91.9445
102.076
117.336
103.692
112.467
99.3808
77.8566
87.3945
94.1722
103.631
83.4798
103.832
90.1711
107.66
99.2677
105.223
59.7387
46.1336
132.955
116.032
115.951
99.0331
116.246
129.218
133.758
117.924
133.5
116.073
99.9528
116.418
130.828
8.53487
77.0781
51.5789
14.2941
64.5672
22.1194
52.7588
8.86684
56.4197
126.736
32.2789
143.889
27.0342
1.96689
83.4216
72.6137
59.0779
11.1934
62.1513
98.2689
40.8154
114.476
57.8138
75.5868
56.3113
15.9042
218.424
75.4594
100.809
44.3598
9.06583
7.74826
8.26358
18.0248
16.5151
17.3574
18.866
32.8946
34.4238
82.9418
43.0517
64.081
21.9914
77.169
18.6947
19.2432
9.26419
7.84961
8.31333
16.6988
17.436
10.6759
13.1647
9.77713
20.3995
29.2989
22.044
27.3468
29.1877
14.2695
10.7428
13.1219
9.77605
20.3728
27.2501
11.1691
50.2589
71.9295
128.324
79.7287
0.446636
138.339
23.6511
23.9602
11.5065
15.6155
15.7977
32.6636
32.5856
31.5707
12.648
26.0861
17.5123
21.4495
35.7022
42.7788
21.8487
40.5897
54.9186
39.531
28.1012
53.6358
69.7831
35.0731
17.4056
13.1853
23.6238
17.8905
36.2386
45.9096
3.17834
97.1071
0.794275
133.121
0.0538029
109.123
0.541787
35.4196
50.2578
33.4455
34.5167
52.3021
36.4265
51.0192
53.1131
36.4531
37.0319
50.5189
33.7252
34.6593
51.2316
277.662
0.24577
0.80568
244.612
118.95
117.035
71.3359
124.864
0.848456
0.874495
115.055
67.044
129.967
84.9962
21.9204
38.9404
20.3338
36.4802
40.8794
61.1556
62.8495
20.4143
38.9762
36.5903
43.2451
41.0167
61.2889
63.0565
24.0532
40.5787
24.0126
47.2849
67.1205
47.354
67.392
26.587
51.719
31.7685
71.2471
51.2044
60.9959
84.9696
38.8886
56.2003
49.4807
63.3813
40.7187
54.9781
47.7788
64.4881
40.7894
49.2905
38.8662
63.3646
55.0456
47.6871
35.6418
44.9782
26.9444
51.3999
82.6581
71.598
62.6087
26.7175
46.7944
36.4944
60.9867
62.7964
69.9055
82.4155
59.1796
43.3342
43.5305
53.7804
69.0974
53.725
69.3065
72.7765
62.048
46.6241
72.1553
57.3844
68.9285
83.5402
52.3036
61.0825
39.5185
76.5166
140.278
112.877
95.8437
157.564
0.170341
0.000163311
26.6283
103.667
0.114244
153.832
70.3005
46.894
55.4283
57.0911
81.4995
72.4532
66.1059
99.6746
103.938
146.532
94.7928
167.126
119.495
125.555
62.5217
75.9973
61.1648
77.3307
92.0356
90.9964
78.4473
81.7355
64.1612
62.1558
79.6275
96.1604
80.849
95.172
82.8742
81.6035
62.0293
79.5187
96.216
80.7254
95.0873
62.7427
76.0277
61.2593
77.4087
92.0005
78.5875
91.0108
54.1933
102.501
80.9154
99.8389
79.8242
99.3394
118.556
84.2437
93.7904
111.778
90.2481
105.793
123.52
107.779
67.0942
89.9382
90.7762
86.6048
87.5053
106.394
104.908
67.7903
74.7263
81.3767
83.6215
88.797
91.042
97.8882
67.7468
82.3949
83.7713
99.4703
67.3767
84.6684
83.1091
89.8103
102.668
84.9153
103.2
87.5467
100.379
116.59
101.788
192.891
157.196
200.354
153.23
182.168
243.422
72.006
107.397
95.5798
103.276
92.0136
111.42
122.843
91.1079
3.13739
96.758
71.3207
65.3584
96.4987
105.42
1.01768
66.0169
82.0283
65.227
70.5319
81.4164
86.8666
87.5338
65.0343
71.111
70.425
81.2218
81.1452
86.7282
87.3317
71.4119
96.9271
103.969
99.486
88.8113
86.9585
81.391
119.907
191.837
199.103
160.56
145.74
138.799
161.113
85.2944
87.0842
70.991
83.7609
112.603
100.591
97.0243
68.9218
95.6926
80.7304
98.755
85.0267
97.7167
111.544
107.74
80.1846
91.3795
104.943
116.115
91.306
107.662
79.8558
90.3121
79.095
95.4147
105.06
95.928
105.206
91.4719
96.1053
79.9857
90.269
79.033
95.3226
105.087
211.225
254.361
192.101
203.567
285.796
217.96
269.058
126.879
108.26
109.807
124.146
135.568
137.715
122.199
123.377
124.427
119.998
142.324
137.678
138.975
154.051
142.827
111.172
129.059
138.884
138.091
152.088
124.172
93.0247
106.602
52.0684
108.895
105.761
94.1071
107.88
93.0793
51.8297
108.609
106.355
94.09
105.746
107.898
111.887
115.547
96.8427
114.395
27.8125
132.304
126.352
119.651
121.695
102.309
117.301
150.032
135.912
133.677
97.2624
100.554
84.6913
107.776
93.3037
109.158
47.7351
230.861
182.191
171.041
193.422
266.417
199.694
257.601
104.019
128.509
117.715
133.759
81.1316
123.118
120.696
101.275
116.611
102.663
120.513
87.011
118.806
85.4738
132.491
126.633
115.023
129.575
54.7669
142.953
140.734
121.4
118.567
107.449
125.617
9.36472
46.5586
136.176
17.3021
12.1312
53.3867
125.377
28.1901
63.2381
47.4447
12.8952
9.49916
8.65773
11.2699
22.0375
19.4797
23.5909
17.9507
25.2771
10.0202
20.6358
8.81899
11.5027
22.5257
18.2955
26.3545
25.7511
16.5426
29.8544
43.5488
31.1919
42.41
18.4231
33.5019
46.7576
26.2753
16.8557
30.4539
43.2331
42.5631
37.3922
62.5753
52.1529
44.7184
61.4798
35.4387
65.3179
55.3526
39.2108
43.3649
52.6329
62.1012
35.9785
56.8073
78.4623
89.2493
124.299
59.0027
88.1533
76.3561
84.2239
93.5588
131.814
57.8944
125.696
89.0909
77.767
114.202
2.01122
127.095
115.291
100.493
113.316
13.3268
112.763
115.466
100.984
114.3
2.05855
115.25
125.184
8.80693
118.425
106.113
117.087
4.13473
75.5415
127.239
3.03032
121.073
16.8942
121.171
105.686
109.979
10.3765
140.838
16.2769
157.181
4.96076
151.978
9.32164
0.374993
6.25897
2.35377
100.094
96.7804
7.7233
2.70705
99.6938
7.8977
2.73045
6.40628
2.35062
95.8905
99.8101
99.487
3.28399
1.13619
84.0348
1.55371
0.948226
98.523
33.0472
1.00759
96.9514
79.8424
0.852653
1.4108
100.073
28.8658
209.972
227.442
0.0196597
81.2534
39.0567
14.1674
277.703
142.708
18.3422
158.191
4.73488
153.222
10.8705
1.94321
133.972
0.450205
133.503
0.257994
94.7076
2.65528
0.15388
130.368
0.453211
0.523008
0.883721
81.5814
10.7176
22.2357
3.54259
4.8264
136.333
130.044
3.55791
13.5559
29.5348
146.711
3.90311
0.805544
1.72336
6.20703
2.5791
132.715
133.076
4.13847
0.848379
1.91165
4.00547
131.02
1.85845
0.945125
0.945328
0.943541
7.82534
1.83542
36.4428
8.53553
0.810111
34.0946
0.793021
0.794271
6.94713
1.30897
6.96236
115.226
0.910878
0.87479
0.882802
2.06284
1.11285
25.847
1.04678
23.9245
1.03666
1.05225
1.03715
30.5032
3.9749
1.01151
1.00268
1.00208
2.92459
23.0133
30.501
3.90799
0.666264
10.5377
0.664632
0.664739
0.664239
4.09613
0.714466
0.540555
1.15766
9.277
0.540184
0.540536
3.33182
0.568825
1.98358
1.98182
13.8004
1.96812
1.96479
1.96497
1.96481
0.11426
0.114457
1.43529
0.114866
0.114226
0.114228
0.114234
0.389079
0.000302889
1.67053e-06
1.77531e-06
0.0996194
0.00103067
1.77524
0.000326948
6.15989e-07
40.0741
6.45414
112.735
120.55
10.4915
1.66097
0.367162
1.67859e-06
6.22313e-07
0.00880592
6.16038e-07
9.27772e-06
6.15988e-07
6.15989e-07
6.317
1.76806
1.76647
45.6309
2.74613
1.78754
1.7665
7.05379
1.34783
1.34545
6.83088
1.31605
6.85282
1.21689
7.27947
1.31277
1.25169
1.20567
1.24125
1.17591
0.899253
1.27961
1.0868
2.179
2.24218
7.00463
7.12163
2.20752
2.22002
7.00987
1.26378
1.32272
1.31553
1.32418
1.28631
1.29066
1.27938
1.35539
1.40257
1.31668
1.32628
1.36145
1.37945
1.30605
1.27696
1.32376
1.29832
1.25795
1.34295
1.28746
1.29969
1.37061
1.34213
1.3113
1.28713
1.37509
1.32867
1.29655
1.22108
1.22841
1.28644
1.225
1.25712
1.26115
1.19518
1.23745
1.27627
1.22249
1.21763
1.2586
1.25746
1.19612
1.25153
1.2378
1.28575
1.25108
1.26926
1.26406
1.22175
1.36371
1.33786
1.33869
1.33103
1.33795
1.34067
1.33954
1.36472
1.33361
1.33637
1.32922
1.33945
1.33518
1.33858
1.31536
1.32624
1.32338
1.28676
1.33381
1.32271
1.22463
1.30627
1.31707
1.31048
1.27088
1.31997
1.21246
1.31505
1.33099
1.30841
1.28609
1.28636
1.32239
1.23842
1.32099
1.32446
1.33823
1.39756
1.39817
1.32545
1.32778
1.33948
1.32198
1.32152
1.32655
1.28427
1.31851
1.33425
1.23583
1.34301
1.30605
1.31595
1.28711
1.32005
1.26122
1.33114
2.13048
2.14634
6.92654
6.7976
2.16564
6.91113
2.11694
1.16438
1.21253
1.1963
1.13681
1.23509
1.16961
1.18634
1.31169
1.24466
1.23891
1.2571
1.29001
1.26983
1.29289
1.20756
1.20974
1.14783
1.21822
1.23827
1.18994
1.18415
2.22873
2.16425
7.20504
7.02659
2.21892
2.16855
7.00359
1.12092
1.22196
1.21834
1.18897
1.24229
1.19212
1.16423
2.12736
6.74872
2.1276
6.89276
2.13547
6.85861
2.10252
1.02733
1.19301
1.07928
1.09331
1.155
1.13178
1.16645
1.02117
0.881775
1.37369
7.51964
9.38747
6.95237
1.11982
1.25397
6.75339
1.99971
0.983145
1.27198
1.07787
0.715353
1.01596
1.22258
1.23618
1.23626
1.23742
1.3
1.20451
1.27888
1.28869
1.19769
1.19248
1.16737
1.13329
1.20292
1.16304
1.1763
2.11515
6.77441
6.71263
2.10879
6.78698
2.11529
2.09615
1.17962
1.13695
1.12231
1.08157
1.07463
0.89226
1.16001
1.1777
1.14742
1.09708
0.993825
1.1812
1.07652
1.18536
1.10143
0.922129
1.10167
1.21731
1.11877
1.07131
1.24913
0.949736
1.12671
1.08671
0.987359
0.961994
0.945405
1.02846
1.03764
0.893543
1.04266
1.17754
1.07341
0.865286
1.15074
0.846444
0.7987
1.00131
0.877901
0.93063
0.899788
0.741204
2.43844
2.23354
7.79967
6.99251
2.60015
7.09481
2.17958
2.15964
7.29124
2.16884
6.74759
2.3628
6.92245
2.10233
0.92393
0.777239
0.929204
0.936093
0.711012
0.781316
1.10635
1.95974
1.09506
1.07208
1.00574
1.37942
0.928939
1.28216
1.30461
0.874792
1.02238
0.961496
1.02176
0.899228
0.952573
1.25154
1.2435
1.14976
1.16496
1.08192
0.940005
0.8755
1.01688
1.23167
1.24659
1.21772
1.21163
1.23212
1.24057
1.20071
1.25088
1.21554
1.2314
1.20919
1.22081
1.23752
1.19182
8.80866
1.06072
1.07388
1.17124
1.1985
1.16514
1.21084
1.18455
1.09739
1.14852
1.0686
1.19767
1.16593
1.21106
1.18352
1.09567
1.03203
1.0384
0.992259
1.17435
1.13647
1.16435
1.202
1.15337
1.06961
1.19511
1.09421
1.04194
1.16997
1.20938
1.38366
18.7065
5.00502
1.12599
2.84088
6.20295
3.40756
1.07343
7.23314
4.38303
1.07706
1.79435
4.20944
7.21777
0.831381
0.906275
0.827203
0.868102
1.06898
1.10287
0.913625
0.828879
0.919891
1.08118
0.945888
0.831659
1.107
0.91723
1.10381
1.09164
1.06377
1.30943
1.3687