/*--------------------------------*- C++ -*----------------------------------*\
  =========                 |
  \\      /  F ield         | OpenFOAM: The Open Source CFD Toolbox
   \\    /   O peration     | Website:  https://openfoam.org
    \\  /    A nd           | Version:  9
     \\/     M anipulation  |
\*---------------------------------------------------------------------------*/
FoamFile
{
    format      ascii;
    class       volScalarField;
    location    "0.0005";
    object      T;
}
// * * * * * * * * * * * * * * * * * * * * * * * * * * * * * * * * * * * * * //

dimensions      [0 0 0 1 0 0 0];

internalField   nonuniform List<scalar> 
5819
(
297.499
300.043
301.282
287.931
287.93
310.468
305.798
287.926
287.926
287.926
288.581
287.926
308.508
287.926
290.801
287.926
304.315
288.143
288.238
302.128
306.774
288.291
288.186
302.971
307.179
308.564
288.326
288.164
288.292
288.201
310.149
310.067
310.494
288.374
288.374
288.362
288.369
288.277
288.284
305.956
307.446
307.79
288.322
288.318
307.141
302.921
301.242
288.325
288.291
288.163
288.2
303.078
293.283
297.481
288.088
288.202
288.088
288.011
290.249
296.024
294.784
288.037
287.971
287.962
288.06
290.134
289.329
292.379
287.996
287.936
287.947
287.96
287.935
287.926
287.935
287.926
287.935
287.935
287.926
287.926
287.926
287.93
287.934
287.926
287.933
287.926
287.931
287.926
287.926
287.926
287.932
287.933
287.926
287.926
287.933
287.933
287.934
287.926
287.934
287.926
287.926
287.934
287.933
287.93
287.926
287.931
287.926
287.926
287.926
287.926
287.926
287.926
288.377
288.161
287.927
287.926
287.926
287.926
287.926
287.926
287.926
287.926
287.926
288
287.927
287.933
288.298
287.985
287.932
287.927
288.036
287.94
287.96
287.927
287.929
287.926
287.926
1165.34
297.991
962.855
350.45
563.688
254.956
349.199
1639.32
1471.7
188.86
229.023
245.578
355.823
185.837
220.368
382.136
281.549
219.469
197.555
316.193
253.185
451.247
586.497
292.572
1483.14
1365.32
330.765
288.04
997.753
288.48
925.304
481.889
1216.69
452.01
726.043
769.901
1243.37
647.787
620.319
323.01
598.006
1025.76
1070.1
664.516
1044.31
696.458
557.835
870.124
1409.72
1305.29
1025.1
420.11
950.157
763.539
1313.49
1166.18
769.678
941.744
1097.3
1632.84
1423.83
1638.69
1447.26
1134.37
1490.65
1346.09
1445.59
1350.46
1509.2
1521.82
1448.83
1338.74
1603.2
1645.08
1505.45
1215.66
1616.07
1537.63
1341.91
1409.88
1591.89
1550.14
1426.55
1445.47
1291.97
1195.17
1565.21
1328.89
483.677
1300.55
452.839
1564.81
962.247
314.141
293.503
318.095
888.176
560.212
863.676
534.042
1041.39
1212.34
389.944
1507.37
1551.8
863.14
702.836
289.242
290.813
306.136
676.627
790.85
467.984
386.123
287.926
287.928
288.161
949.764
1195.33
626.435
1926.41
171.466
254.195
202.949
1267.04
558.987
500.09
1585.15
1027.1
199.768
984.648
302.678
1393.65
517.524
308.065
195.358
614.742
1363.06
1064.96
181.573
848.656
178.497
968.385
1276.99
164.515
277.971
171.192
168.621
170.531
165.958
265.225
168.923
283.676
642.515
938.2
1125.92
1332.17
1555.88
1473.46
317.481
304.363
320.55
296.032
414.378
1660.36
302.638
297.426
1556.96
485.948
1889.25
1382.69
2404.59
2410.8
726.646
1290.34
1732.77
296.463
1268.61
527.459
1363.66
1116.58
1550.6
294.126
1500.72
1584.37
293.303
1169.4
1416.91
1314.58
1669.9
1504.16
1743.73
1201.27
1725.69
288.362
1372.51
288.131
906.185
287.926
1527.79
1318.93
288.253
290.851
287.932
289.972
287.926
287.926
287.936
287.926
287.926
287.926
287.926
287.926
1573.46
930.445
184.577
179.142
177.358
176.511
224.44
395.181
1343.88
562.192
1333.61
866.702
177.662
176.025
297.406
218.517
178.458
231.713
222.65
180.836
174.338
272.519
336.941
346.236
923.384
1157.6
1468.41
1135.19
182.182
530.833
952.489
1351.11
181.009
305.84
200.172
185.809
172.48
184.235
167.882
173.279
166.058
354.249
182.419
339.178
180.123
227.502
173.035
230.501
350.898
186.682
446.759
206.973
207.109
647.446
673.458
181.641
191.34
181.634
177.664
187.936
184.582
175.8
188.156
196.081
198.317
194.119
193.745
191.006
193.136
183.539
193.559
181.129
181.103
188.673
188.613
176.738
177.995
181.756
176.495
182.08
189.941
184.417
187.432
198.737
199.441
200.071
197.587
198.237
199.15
197.422
196.502
198.098
196.981
194.298
191.702
198.182
196.06
197.009
199.396
197.914
196.965
197.968
198.6
192.576
196.103
193.936
192.213
193.897
195.309
194.299
190.537
182.267
180.416
170.856
170.946
176.522
178.785
166.801
175.961
171.579
171.882
171.449
177.638
167.884
166.872
170.54
177.881
173.883
177.888
175.902
182.988
172.489
166.861
171.58
171.883
171.441
171.189
175.971
177.645
185.508
185.252
173.433
174.89
183.485
172.168
186.885
178.68
169.977
174.484
178.78
177.162
183.463
173.459
190.834
188.496
171.699
175.067
184.323
192.747
170.613
193.104
178.526
197.773
204.232
180.816
196.605
179.679
177.431
178.251
176.899
177.423
179.044
177.81
177.513
171.097
171.511
174.685
175.814
170.407
171.038
174.579
195.728
191.279
1294.54
860.159
233.694
1160.48
748.134
405.731
831.484
400.291
872.732
417.516
431.569
904.657
167.696
168.912
170.702
174.115
171.333
167.918
166.048
168.907
167.918
171.332
167.688
170.694
174.122
170.536
239.873
1968.78
2305.42
1701.88
1008.85
1673.82
1026.77
194.287
169.847
166.927
182.94
175.934
209.283
165.353
179.525
178.152
167.09
168.344
191.897
179.521
164.505
164.294
168.414
167.454
167.631
170.36
165.942
164.281
165.352
209.431
182.935
194.255
166.87
181.49
169.811
215.649
208.286
192.624
180.952
200.883
182.799
238.812
170.565
192.474
171.01
186.678
170.863
183.489
170.57
167.576
169.525
166.719
166.793
174.906
165.099
178.355
195.532
1544.31
964.142
1596.01
1316.31
1041.82
898.92
505.469
930.695
1028
447.814
446.797
501.269
1033.94
180.202
187.775
178.678
178.43
179.975
177.365
189.217
166.813
174.994
165.112
171.466
166.688
169.513
167.552
170.85
180.647
172.607
173.622
168.352
169.936
174.666
1048.6
460.5
513.993
542.433
993.447
481.568
1097.56
185.338
172.629
182.396
175.727
176.646
177.798
175.375
175.27
173.262
208.462
192.101
174.685
172.222
192.611
653.863
351.412
544.898
918.118
1157.74
1155.84
732.279
235.8
223.248
360.376
394.029
224.031
233.625
408.425
310.89
238.3
230.912
225.394
186.915
222.229
185.813
241.71
224.805
233.002
187.514
185.41
184.321
187.543
235.174
249.797
333.605
190.533
228.265
241.086
195.385
235.141
239.037
247.377
188.098
189.8
193.528
191.565
465.456
890.462
424.194
1060.88
524.309
465.346
968.253
188.359
175.078
167.694
212.198
167.903
186.175
174.259
165.844
165.915
168.597
190.575
174.47
165.891
168.894
1116.5
997.512
483.015
523.153
950.137
456.373
1061.45
212.41
186.332
167.95
188.452
175.12
168.636
167.689
587.675
1265.45
560.78
1052.89
513.311
1171.74
650.772
242.028
179.762
172.253
174.045
217.417
195.712
171.389
171.389
174.056
207.117
172.26
179.745
217.43
241.992
456.166
1061.27
522.949
482.772
1116.57
561.995
997.261
171.725
196.324
168.896
282.957
265.808
189.768
195.6
169.703
249.055
195.563
356.233
278.716
192.93
235.782
175.212
219.191
194.637
182.308
177.762
175.736
194.917
244.968
524.945
267.277
244.946
387.73
229.956
446.698
355.482
192.839
235.631
195.449
199.459
248.691
169.617
189.693
282.378
195.523
171.65
196.05
168.824
202.681
376.656
243.817
353.439
184.14
218.535
184.439
250.523
213.706
369.475
342.379
258.678
272.884
195.622
190.658
391.52
286.778
395.668
266.637
237.866
207.109
322.132
190.604
213.414
222.327
258.419
272.537
341.353
368.459
723.476
1336.52
735.883
595.57
1160.86
587.936
1167.15
362.047
463.975
280.658
353.403
267.902
239.965
192.888
375.246
226.248
218.918
344.425
259.137
196.484
194.413
738.343
1398.69
782.202
1179.74
600.883
634.841
1229.93
375.89
269.753
280.879
204.03
226.123
200.995
232.264
378.793
220.656
346.083
260.774
276.661
196.263
201.284
310.775
679.825
323.26
261.655
480.901
256.869
502.107
192.853
218.191
280.232
267.672
353.076
463.011
360.893
284.177
221.027
176.426
340.372
477.586
262.62
211.096
309.432
199.956
176.693
476.444
259.081
199.915
309.347
755.042
826.574
853.666
1191.95
1204.96
1262.8
1250.44
1190.41
1074.69
533.366
1276.25
731.22
1166.1
606.781
278.339
673.397
321.667
763.481
362.526
452.829
905.4
477.014
339.751
262.439
211
176.322
220.705
195.218
1629.22
1648.69
1541.61
1534.95
1427.55
1437.38
899.456
351.434
1418.83
1270.22
1278.84
290.515
288.247
1616.4
212.453
583.377
312.272
247.242
444.841
191.309
275.692
321.666
905.582
452.953
763.65
362.543
278.303
558.978
247.092
311.888
212.334
444.634
275.625
346
583.078
620.64
1247.38
673.752
1362.13
777.835
866.719
1416.06
209.355
336.329
248.906
463.309
320.808
452.559
640.364
1166.3
731.249
606.763
533.228
1190.93
626.4
1074.72
992.949
1476.05
864.911
692.62
1403.62
1308.08
778.383
673.821
1415.14
1246.83
1361.8
777.943
620.788
1195.24
249.325
453.523
321.395
641.004
463.956
254.483
209.523
259.835
639.415
467.471
455.03
325.911
216.119
255.643
599.9
914.548
519.383
518.44
599.176
272.335
345.978
866.822
486.35
898.423
485.546
260.779
516.871
276.222
287.718
592.09
553.003
901.477
937.455
536.012
501.901
935.517
499.961
534.453
286.672
307.088
550.926
590.366
589.061
684.408
387.169
623.174
1029.14
948.063
536.834
762.825
1235.69
1213.6
450.009
722.907
957.869
477.22
945.099
534.557
621.408
301.427
386.1
682.598
586.661
1023.78
813.761
918.171
1292.88
1239.16
1293.05
1339.16
344.229
657.436
616.987
320.749
595.471
1022.28
1062.8
517.183
1117.41
635.424
832.146
1212.52
723.412
1303.47
485.628
1010.57
524.583
1172.28
682.289
727.785
1205.39
270.494
806.293
467.89
731.022
1088.97
748.293
428.107
798.544
995.89
1164.16
798.202
614.267
460.967
329.698
1403.27
1408
1177.41
974.172
1001.48
1336.12
1326.39
1205.72
1393
914.271
1393.47
1263.6
914.225
719.098
772.915
1509.53
1319.91
1427.47
947.531
1672.63
1280.42
562.801
950.295
758.512
414.742
762.075
1306.55
1157.84
562.36
762.009
758.244
938.121
950.122
1158.04
1306.74
372.576
705.012
912.402
1042.96
640.539
832.139
1215.75
1036.8
861.666
552.178
693.428
1398.27
1019.03
1157.5
424.93
1085.45
622.024
871.091
1284.78
621.908
1085.37
1088.73
467.401
730.607
427.901
270.269
499.817
805.987
526.707
831.422
1215.22
639.375
371.668
703.858
911.811
693.659
1019.05
861.703
1398.18
1294.41
1036.93
552.338
1280.11
1428.7
947.467
1321.01
772.945
1027.1
1510.9
876.244
1134.17
640.253
857.292
1448.37
1296.67
1076.72
287.926
287.926
287.926
296.612
302.969
288.541
289.852
1286.68
1516.64
1254.41
1272.02
1535.56
871.265
904.741
1287.78
906.165
1255.14
873.222
1272.51
1516.77
1535.62
1579.63
1884.46
1444.65
1597.36
1053.84
1185.32
1662.71
1310.57
1433.6
1419.08
1228.24
1063.79
1359.22
1394.09
1358.9
1227.94
1063.52
1157.59
1310.39
1393.93
1433.46
287.926
287.926
287.926
294.84
288.226
289.8
288.934
1666.91
1382.18
1305.52
1553.29
1294.44
918.631
992.707
994.454
1394.98
1307.1
1295.12
920.818
1553.25
1666.75
1233.58
670.215
1235.04
1225.68
612.447
591.707
1232.31
1481.49
1468.01
1093.54
1630.1
1420.07
1629.79
1438.33
1524.73
1581.31
1427.92
1436.07
1345.83
1124.53
1036.17
1390.95
1413.86
1566.62
1307.56
1329.82
990.786
1028.91
1346.97
1481.33
1175.09
1501.14
1590.26
1673.59
1005.33
1396.36
1063.54
1404.08
1651.63
1396.24
1064.77
706.59
1006.2
1175.56
1347.26
1481.42
1673.32
1590.18
1501.25
805.129
1193.18
1104.3
1427.69
1495.79
1457.38
1680.42
907.543
1220.54
1542.49
1453.23
1160.56
1510.7
1677.6
1442.44
1513.17
1328.54
1439.23
1347.57
1506.06
1358.87
1510.68
1677.77
1453.18
907.398
1542.55
1220.47
1314.49
614.813
1207.75
1229
1207.83
471.622
544.895
1169.16
804.709
1103.89
1457.22
1680.83
1169.21
1192.93
1495.92
1609.42
2203.59
1912.16
1889.56
1586.15
1607.2
1222.92
1204.99
1599.23
1524.58
1610.41
1589.28
1628.72
1493.92
287.926
287.926
288.407
307.169
287.949
840.842
969.784
1586.24
1606.42
1223.18
1925.54
1609.55
2202.69
1911.61
1483.37
1660.92
1613.48
1405.56
1540.17
1135.62
1306.5
1524.96
1494.38
1205.28
1599.64
1332.41
1589.79
1611.15
1660.96
1651.65
1622.62
1492.76
1192.01
1342.64
1596.14
1424.51
1434.73
1547.65
1364.96
1424.44
1428.95
1434.7
379.779
1104.85
1083.88
1187.42
515.604
494.326
1199.49
1570.2
1535.63
1155.53
1270.09
1395.75
1426.61
1398.82
1976.97
2122.88
1775.8
1999.99
1668.6
1395.37
1791.55
1426.6
1535.75
1398.7
1570.38
1468.33
1395.77
1155.81
287.926
287.926
287.926
287.926
287.926
291.087
288.123
1685.6
1089.78
1518.6
1680.76
1723.31
1565.83
1559.76
1661.55
1571.06
1548.22
1570.12
1731.94
1182.4
1397.33
1510.95
1541.85
1158.4
1528.23
1549.09
1543.84
1573.51
1511.86
1530.12
1579.51
1550.16
1207.55
1579.16
1253.21
322.517
920.114
1025.38
1154.38
385.46
447.048
1088.16
447.089
1025.5
1154.36
385.453
1088.13
920.128
322.515
1753.65
1661.26
1416.66
1675.34
1724.88
1529.44
1746.18
1668.51
1613.39
1613.27
1612.76
1613.06
1088.35
1243.75
1661.16
1660.31
1753.54
1724.39
1674.99
1528.46
1745.5
1437.33
1676.59
1699.04
1755.22
1669.98
1422.04
1698.77
1670.24
1678.34
1506.34
1685.75
1196.49
1697.77
1647.89
953.281
996.282
1562.62
1328
1292.08
483.162
447.733
312.761
883.606
525.941
850.549
557.771
293.424
292.347
1585.96
942.787
1316.51
1616.32
611.099
1481.62
1095.04
2083.62
2189.05
1903.68
2410.48
2441.15
2083.06
1968.96
1557.79
1130.9
938.206
1602.99
1679.69
1603.07
1583.59
1678.67
1198.38
1698.82
1670.76
1504.3
1686.47
1507.6
1682.89
1609.84
1185.18
1692.45
1697.33
1532.08
1693.8
1482.17
611.671
1095.26
1586.29
1556.95
1316.66
943.334
1877.36
2435
2072.35
2243.54
1936.83
2427.81
2084.82
1189.37
1533.68
1474.01
995.025
664.489
380.712
323.247
1533.37
663.989
840.72
323.094
994.145
1189.13
380.594
755.435
292.059
535.42
332.754
967.793
755.461
302.639
1245.59
658.949
449.323
1375.59
1651.62
1651.02
1194.33
288.211
288.231
303.77
299.102
298.157
288.108
288.128
288.193
302.044
303.533
298.787
297.435
288.122
288.095
296.396
370.978
453.302
641.554
766.891
289.015
290.513
289.017
304.366
453.362
767.005
641.64
296.4
371.083
300.639
288.074
288.158
292.819
295.877
288.061
288.005
557.937
292.965
452.832
1375.06
1163.35
489.263
613.599
477.254
295.42
505.498
1187.63
1231.68
516.615
549.84
1535.04
312.976
852.219
643.512
1459.5
758.442
1371.45
588.519
304.309
529.556
1699.8
1363.67
778.426
1425.11
1556.24
1429.19
1428.45
676.622
874.221
323.376
875.02
1535.49
1744.27
853.727
645.228
759.119
1461.08
313.126
1109.75
339.309
533.484
339.413
1109.28
677.656
291.437
445.511
296.561
687.217
378.465
289.018
316.148
968.496
288.044
288.126
298.96
291.855
294.842
288.044
287.99
463.781
354.995
289.562
1218.21
1053.95
379.358
509.503
314.922
480.509
288.542
288.246
293.536
340.512
287.986
321.119
291.398
456.06
450.512
1264.42
1574.69
864.437
293.658
289.59
292.994
288.009
287.957
288.021
287.952
289.481
293.475
292.62
287.956
288.018
288.003
287.951
379.191
316.298
289.028
1319.9
688.649
446.147
296.622
328.656
287.965
291.013
287.955
290.268
288.476
288.358
366.168
1901.52
1176.28
2438.2
1951.24
1989.66
1275.11
287.986
288.543
293.553
340.564
480.658
290.855
314.988
289.957
289.061
291.546
287.984
287.935
287.944
287.958
2287.96
1407.78
2417.73
1572.75
1635.54
305.145
548.438
663.471
288.127
1398.72
1567.73
1492.99
295.606
301.106
288.113
288.049
1243.08
329.25
397.941
666.679
1319.62
1180.68
905.508
752.75
733.064
826.024
851.68
1194.41
1209.15
1251.85
1267.26
805.467
1019.25
914.096
1299.99
1244.15
1300.93
1351.53
1156.65
1405.64
973.829
1001.56
1327.89
1341.55
1415.4
1243.87
673.091
1237.99
617.576
1236.26
1237.91
605.593
1234.72
1161
1064.98
1369.79
1456.85
1433.45
1411.28
583.551
642.166
1250.97
1231.32
502.507
568.616
1205.48
1424.58
1492.38
1513.05
1495.34
1510.41
1416.23
1399.44
1536.91
1433.67
1523.81
1658.47
1517.92
1561.47
1411.53
1109.98
520.48
1204.13
1200.84
385.979
505.682
1098.15
1919.98
2221.16
1827.82
2011.18
2408.37
1964.85
2384.76
1588.15
1610.73
1560.24
1510.74
1433.15
1390.1
1250.04
1179.01
404.314
359.051
961.294
464.54
1051.58
1127.23
1530.36
1552.23
1439.2
707.543
730.609
1178.05
1156.41
1695.9
1403.49
1557.49
680.562
808.456
1302.64
1146.43
356.631
300.288
335.387
1123.05
982.878
810.507
691.923
1576.61
1303.34
1429.82
462.823
659.857
1117.78
896.243
337.558
300.656
333.591
980.425
974.605
697.357
697.043
2007.9
2370
2014.72
2001.08
1358.19
1799.03
2309.6
355.41
899.182
523.253
1593.08
2126.14
1289.27
1874.02
314.712
289.997
296.222
870.715
634.144
610.399
424.82
290.321
288.084
289.681
299.251
304.205
446.867
397.817
289.918
288.126
289.958
301.079
302.183
412.27
408.257
289.137
287.959
288.269
290.583
297.328
369.902
313.835
328.971
287.965
291.027
288.376
287.957
290.364
321.837
537.165
290.625
387.356
288.05
292.215
289.244
287.962
288.439
289.587
291.087
287.977
287.934
287.952
287.942
288.934
287.977
289.587
288.439
287.952
287.942
287.934
288.196
287.932
287.943
288.446
289.28
309.1
297.711
307.152
288.02
287.931
288.35
287.941
289.139
288.17
288.662
331.057
287.943
288.854
331.198
319.667
288.664
288.17
288.02
296.056
287.941
289.141
288.352
287.931
373.31
292.588
288.794
337.049
298.704
799.986
1388.76
287.93
295.42
300.437
290.564
288.254
288.01
288.064
296.875
287.936
288.118
638.674
300.529
288.542
317.281
299.643
287.934
288.357
316.108
300.325
690.119
288.411
295.361
287.93
288.009
290.551
300.403
485.148
288.064
288.008
288.487
288.488
287.926
295.631
287.963
287.932
287.975
288.601
288.123
287.929
287.936
287.929
287.926
287.949
287.927
288.022
287.926
287.938
288.239
287.929
287.96
287.94
288.036
287.926
287.929
287.927
287.926
287.926
287.975
290.42
287.956
309.644
288.192
287.932
287.929
287.926
288.241
287.939
289.982
288.023
287.927
287.926
287.931
287.932
287.929
287.926
287.926
287.93
822.334
183.314
842.063
199.665
870.969
904.985
183.538
166.772
186.365
186.366
189.847
176.394
190.751
180.921
183.321
399.07
816.14
400.792
834.113
399.287
407.955
816.304
194.249
195.367
201.712
193.161
197.261
199.508
189.705
188.948
177.292
184.426
188.688
188.691
193.393
183.28
196.604
198.99
198.134
196.947
197.491
195.962
196.774
194.573
197.508
194.699
193.612
196.317
189.632
195.398
193.427
196.631
202.126
203.347
195.302
194.579
198.576
193.986
193.08
191.768
191.299
193.367
188.497
193.405
396.467
813.194
394.707
394.845
807.617
394.56
813.475
178.756
178.469
170.853
170.925
180.328
182.219
176.531
862.695
420.698
414.53
401.918
843.333
410.984
828.498
431.758
848.882
405.843
873.236
417.733
400.509
832.02
287.929
287.926
287.927
287.926
287.931
287.929
287.926
287.928
287.926
287.93
287.926
287.928
287.926
287.927
287.928
287.926
287.926
287.926
287.926
287.928
287.926
287.933
287.932
287.926
287.926
287.926
287.926
287.926
287.933
287.926
287.926
287.93
287.961
287.926
287.926
287.938
287.926
287.926
287.926
287.943
288.695
287.94
287.929
287.926
287.926
287.926
288.09
287.933
287.928
287.926
287.926
287.926
287.926
288.338
287.936
287.931
287.926
287.926
287.927
287.926
287.926
287.927
287.926
287.926
287.932
287.931
287.926
287.929
287.929
287.926
287.927
287.926
287.978
287.942
287.926
287.926
287.926
287.926
287.926
287.933
287.93
287.961
287.926
287.926
287.926
287.926
287.926
287.927
287.926
287.926
287.926
287.926
287.926
287.93
287.928
287.926
287.926
287.927
287.926
287.926
287.926
287.926
287.927
287.954
287.927
287.926
287.926
287.926
287.954
287.927
287.927
287.926
287.926
287.926
287.927
287.926
287.926
287.926
287.926
287.926
287.929
287.926
287.926
287.926
287.926
287.926
287.926
287.926
287.926
287.926
287.927
287.927
287.926
287.926
287.927
287.926
287.926
287.926
287.926
287.926
287.926
287.926
287.926
287.927
287.926
287.926
287.926
287.926
287.926
287.926
287.929
287.926
287.926
287.926
287.926
287.926
287.927
287.926
287.926
287.926
287.926
287.926
287.926
287.926
287.926
287.926
287.926
287.926
287.926
287.926
287.926
287.926
287.926
287.926
287.926
287.926
287.926
287.926
287.926
287.926
287.926
287.926
287.926
287.926
287.926
287.926
287.926
287.926
287.926
287.926
287.926
287.926
287.926
287.926
287.926
287.926
287.926
287.926
287.926
287.926
287.926
287.926
287.926
288.058
287.926
288.386
287.926
287.926
287.926
287.926
287.926
288.001
287.927
287.933
287.987
288.318
287.932
287.927
287.943
287.964
288.187
287.928
287.93
287.926
287.926
287.926
287.933
287.926
287.926
287.932
287.926
287.926
287.926
287.926
287.926
287.927
287.929
287.926
287.926
287.926
287.926
287.926
287.926
287.926
287.926
287.926
287.926
287.926
287.926
287.926
287.926
287.926
287.926
287.981
287.927
288.331
303.631
1559.79
287.932
287.926
1116.4
287.927
287.926
287.927
289.401
287.926
287.926
287.926
288.183
1597.16
1301.61
963.247
1127.1
781.48
439.529
349.815
1434.7
290.073
339.69
452.347
824.277
538.165
303.567
636.784
292.813
454.035
288.135
295.353
290.32
287.989
292.279
287.995
290.162
288.658
287.961
287.949
287.937
319.726
288.088
301.658
287.952
290.044
288.677
287.935
287.929
287.927
287.996
288.811
288.204
287.939
287.93
288.282
287.949
288.095
287.926
287.931
287.928
287.926
287.926
287.95
288.497
287.967
291.691
288.102
287.928
287.985
292.963
288.023
288.819
327.508
288.417
287.938
1339.45
290.881
430.399
1583.87
309.407
1569.06
414.55
1326.41
356.237
288.026
2208.17
287.944
1526.19
287.926
289.105
290.138
339.269
1405.12
317.65
288.109
1413.98
287.957
1294
1714.64
1184.54
1546.21
300.064
2478.32
288.092
1425.77
1371.71
1295.16
1332.33
1553.73
1550.43
1564.21
1563.71
287.926
287.926
329.635
1322.64
908.381
1675.89
290.919
1535.71
1550.63
1356.81
1290.86
1326.52
1547.34
1561.52
1457.29
1563.54
1425.51
1585.44
1549.32
1579.29
1572.18
1543.42
1568.78
1441.25
1558.1
1419.35
1583.44
1572.05
287.926
1166.44
722.729
287.929
884.566
287.926
287.975
1504.97
1520.25
1427.69
1500.28
1517.03
1426.99
1409.63
1688.33
1442.65
1532.26
1536.44
1652.75
1426.3
1606.65
1825.27
2046.22
2435.82
2289.14
1929.78
2027.94
2437.87
1457.92
1597.26
1497.32
1620.54
1565.54
1405.95
1274.88
287.926
287.938
287.926
287.926
287.926
287.926
287.926
1206.92
479.366
1261.56
1244.1
408.688
1184
453.543
403.083
1180.09
1173.11
476.053
1259.47
1245.74
454.159
315.127
287.926
287.926
288.622
2446.65
287.936
967.055
288.027
287.926
287.926
287.937
968.067
287.928
699.82
1665.31
1529.69
1671.21
1569.39
1379.09
829.593
750.835
1673.84
1537.27
1568.62
1325.05
1376.59
827.148
756.444
1538.14
1434.58
1555.03
1184.43
709.928
1165.52
724.319
1575.04
1645
1727.54
699.742
1161.96
1377.07
911.808
1152.4
356.999
833.991
317.705
1083.96
384.361
906.935
309.34
1082.35
834.674
1156.1
318.147
385.717
911.096
1574.42
1423.82
1580.26
1128.19
455.597
653.376
908.636
1648.01
1419.39
1587.14
1188.95
876.995
577.657
382.581
336.853
992.201
991.923
710.099
301.401
705.055
301.372
373.195
338.523
1000.79
300.859
705.783
875.904
309.546
2393.41
2089.69
2044.34
1916.51
2215.97
1564.23
2411.26
287.928
287.926
287.926
287.926
375.422
287.926
287.928
297.492
895.467
662.119
627.474
290.273
296.312
440.079
2266.09
634.427
1133.13
1445.66
728.259
404.21
2064.89
465.447
292.322
522.676
308.019
288.113
288.205
301.838
344.313
919.637
986.379
333.328
288.664
320.855
288.961
326.861
344.106
988.004
333.443
288.616
319.304
288.957
466.772
292.264
520.339
307.861
288.119
302.232
288.203
1371.58
376.851
784.835
310.772
507.13
302.903
289.105
1239.79
403.77
557.588
334.045
394.332
292.657
289.857
985.489
403.511
407.774
336.024
338.522
289.99
289.911
292.392
289.333
288.583
287.996
287.96
287.947
287.936
414.791
289.928
300.944
288.116
410.316
301.629
289.991
304.855
292.104
468.406
288.205
301.272
291.064
287.991
1893.42
2013.41
1260.41
1607.05
874.68
341.005
617.378
926.844
315.556
373.229
298.641
322.226
289.255
288.304
288.02
287.926
287.928
290.249
294.802
287.928
287.927
287.926
294.486
288.033
295.774
290.754
288.057
287.97
287.962
296.046
290.251
290.803
288.037
288.061
287.971
287.962
373.224
288.283
288.044
290.438
296.943
289.179
315.053
987.279
396.499
943.34
289.891
464.146
308.496
1661.19
289.765
300.026
403.573
493.085
288.21
311.691
291.158
371.825
288.218
310.444
288
293.689
289.234
287.943
287.929
288.769
288.16
287.981
287.926
288.161
287.929
288.489
288.043
288.608
287.936
287.927
287.934
287.927
288.013
287.934
288.47
288.041
288.61
287.936
287.927
291.21
945.08
428.725
289.477
288.163
287.959
300.425
288.029
291.908
292.028
287.991
287.928
287.928
287.989
292.773
291.182
289.085
288.088
287.986
287.968
287.928
288.168
291.934
298.897
288.061
287.928
287.929
287.987
288.624
287.933
287.926
287.937
287.936
288.393
287.943
288.623
287.926
287.938
287.933
288.417
287.936
287.943
287.968
288.207
291.407
288.112
287.926
287.941
287.928
288.517
290.527
318.946
288.357
287.926
287.961
287.935
287.972
287.93
288.246
287.943
288.065
287.928
287.926
371.693
288.045
301.029
288.437
287.954
287.931
291.588
288.599
287.943
289.3
287.982
287.926
287.926
287.955
288.644
287.937
288.678
287.957
287.926
287.956
287.926
287.992
288.688
290.599
287.967
287.926
287.927
287.937
287.933
288.06
288.405
287.945
287.926
287.926
287.931
1776.64
1476.11
437.848
1510.99
2166.72
1862.04
1375.03
1466.38
1373.92
1330.15
1432.6
1728.41
1596.47
1742.57
1591.11
1714.03
1365.33
1573.24
1328.68
1430.84
1723.26
1587.51
2187.73
2164.94
1742.5
2058.72
2475
2075.74
2464.71
1760.62
2046.75
2441.88
2158.22
1737.21
2051.4
2455.65
1470.32
1229.66
537.699
485.733
1431.64
591.669
1282.47
490.001
414.763
1191.39
1461.3
479.669
579.479
1277.53
1935.5
2419.39
950.6
1579.65
1914.53
1016.12
2435.34
2376.68
869.069
1428.05
1927.68
1569.05
999.963
2428.76
287.937
287.926
287.927
287.932
287.981
287.926
287.926
287.928
287.93
288.112
287.969
287.926
287.926
287.927
287.926
287.929
288.015
287.955
287.926
287.926
287.927
287.926
287.934
287.926
287.93
287.966
287.926
287.926
288.056
287.926
287.931
287.926
287.928
287.926
287.926
287.926
287.926
287.926
287.928
287.926
287.926
287.926
287.926
287.926
287.926
287.926
287.928
287.926
287.926
287.926
287.926
287.926
287.926
287.926
287.926
287.926
287.926
287.927
287.926
287.926
287.926
287.926
287.926
287.941
287.928
287.926
287.927
287.926
287.926
288.025
288.012
287.926
287.93
287.926
287.927
287.926
287.926
287.941
287.926
287.926
287.926
287.926
287.926
287.926
287.932
287.926
287.926
287.926
287.926
287.926
287.926
287.926
287.926
287.926
287.932
287.926
287.926
287.926
287.928
287.926
287.926
287.926
287.926
287.926
287.927
287.927
287.926
287.926
287.926
287.926
287.927
287.926
287.926
287.926
287.926
287.926
287.926
287.926
287.926
287.926
287.926
287.926
287.926
287.926
287.926
287.926
287.926
287.926
287.926
287.926
287.926
287.926
287.926
287.926
287.926
287.926
287.926
287.926
287.926
287.926
287.926
287.926
287.926
287.926
287.926
287.926
287.926
287.926
287.926
287.926
287.926
287.926
287.926
287.926
287.926
287.926
287.926
287.926
287.926
287.926
287.926
287.926
287.926
287.926
287.926
287.926
287.926
287.926
287.926
287.926
287.926
287.926
287.926
287.926
287.926
287.926
287.926
287.926
287.926
287.926
287.926
287.926
287.926
287.926
287.926
287.926
287.929
287.927
287.926
287.926
287.926
287.926
287.926
287.926
287.926
287.926
287.926
287.926
287.926
287.926
287.926
287.926
287.926
287.926
287.926
862.398
200.625
199.942
897.158
203.772
1026.95
185.291
894.777
186.538
195.813
187.401
187.131
182.61
175.19
186.813
174.654
428.642
409.864
871.741
857.753
426.907
419.383
875.298
193.581
201.058
198.972
195.399
198.242
196.773
195.091
202.907
203.094
200.262
194.01
206.917
203.291
196.157
196.095
201.446
198.845
191.284
205.361
194.236
201.494
193.311
198.525
191.375
185.602
197.465
196.153
190.73
192.25
190.738
199.29
190.841
195.679
194.304
187.965
188.417
195.073
184.857
182.65
192.874
190.333
180.949
184.139
188.094
192.423
185.093
191.023
189.659
182.879
201.257
201.087
200.651
198.354
201.008
199.641
199.165
198.939
198.582
200.512
197.434
198.705
199.251
196.703
200.416
201.449
202.109
200.318
201.89
199.922
197.534
199.504
200.007
199.879
197.575
200.443
195.087
198.681
199.188
195.155
195.992
194.997
197.226
194.17
196.623
197.596
197.539
205.687
204.554
203.092
198.397
195.948
199.538
200.688
200.907
199.476
199.082
200.618
197.068
197.2
193.873
193.158
194.814
195.922
192.841
194.63
439.255
436.025
882.515
916.577
432.983
892.058
446.434
180.451
185.944
182.02
179.037
190.098
179.214
184.426
199.244
187.741
202.942
184.919
199.262
188.926
201.621
185.916
186.655
181.303
183.393
188.565
181.642
184.737
433.551
433.57
867.653
925.392
423.429
447.927
890.328
175.122
180.796
184.067
178.883
185.415
179.993
177.927
445.293
955.385
498.579
966.581
467.883
916.635
463.211
174.731
182.655
177.892
179.276
179.517
177.453
182.47
187.763
187.289
294.665
1171.58
1465.49
1115.99
184.979
192.426
923.392
470.028
185.155
274.559
181.274
178.435
178.304
191.731
189.562
205.691
189.356
203.359
188.146
204.192
203.269
187.983
188.999
186.099
184.072
188.225
185.429
186.238
499.839
972.223
957.24
450.284
1027.29
472.919
464.87
185.533
183.66
179.89
181.945
179.036
177.163
183.851
186.245
218.967
210.9
195.429
238.645
185.888
206.145
208.703
187.761
207.714
187.818
186.25
223.708
204.803
185.388
183.479
182.28
182.037
191.425
193.022
182.558
181.528
183.289
180.43
185.327
182.418
183.679
183.955
198.298
178.752
180.393
180.876
222.005
198.683
184.439
587.911
559.733
1258.63
1055.94
645.676
1132.7
516.598
547.53
1231.66
547.916
1017.89
622.952
1114.98
494.23
179.19
198.578
178.178
176.65
178.99
185.196
181.985
400.421
226.935
219.513
211.446
285.085
189.584
272.732
287.02
185.811
211.536
203.55
215.976
185.208
206.765
198.236
195.674
179.541
183.007
185.07
183.236
174.501
180.272
194.765
195.274
191.606
189.939
189.604
193.357
186.561
198.296
192.577
195.065
190.699
191.204
193.881
188.699
1207.31
230.302
176.548
182.796
186.622
182.166
189.566
185.699
179.169
181.549
179.339
188.17
185.38
190.154
186.725
180.342
184.109
184.329
183.699
185.789
183.898
185.445
187.864
180.651
180.826
182.735
183.651
182.716
184.189
186.759
241.611
1841.5
868.92
198.37
637.569
1012.71
551.16
196.45
1235.2
821.486
195.719
384.909
832.242
1254.51
186.969
183.687
189.472
177.487
181.268
182.333
177.896
186.149
180.28
177.986
181.844
185.528
180.986
176.612
194.516
194.277
195.71
241.11
241.559
250.204
233.484
198.245
197.248
236.38
308.882
249.976
324.854
240.267
201.15
245.371
237.697
310.508
252.772
241.342
329.654
197.213
198.057
200.136
242.999
245.38
235.041
254.891
896.757
896.099
207.343
207.839
1109.56
186.524
183.402
1084.59
208.44
198.827
196.505
204.782