/*--------------------------------*- C++ -*----------------------------------*\
  =========                 |
  \      /  F ield         | OpenFOAM: The Open Source CFD Toolbox
   \    /   O peration     | Website:  https://openfoam.org
    \  /    A nd           | Version:  dev
     \/     M anipulation  |
\*---------------------------------------------------------------------------*/
FoamFile
{
    version     2.0;
    format      ascii;
    class       IOobject;
    location    "include";
    object      charge_loc;
}
// * * * * * * * * * * * * * * * * * * * * * * * * * * * * * * * * * * * * * //
mass      7.857222493629742;

cent0     (-2.0723392152256763 -1.5120914396113427 0.8072478442875263);
p10       (1.5813827062686312 1.077227728983668 0.25343296509411894);
radius0    0.18464433010032844;
cent1     (-2.0723392152256763 -1.5120914396113427 0.8072478442875263);
p11       (1.5813827062686312 1.077227728983668 0.0);
radius1    0.75;
