/*--------------------------------*- C++ -*----------------------------------*\
  =========                 |
  \\      /  F ield         | OpenFOAM: The Open Source CFD Toolbox
   \\    /   O peration     | Website:  https://openfoam.org
    \\  /    A nd           | Version:  9
     \\/     M anipulation  |
\*---------------------------------------------------------------------------*/
FoamFile
{
    format      ascii;
    class       volScalarField;
    location    "0.00235";
    object      overpressure;
}
// * * * * * * * * * * * * * * * * * * * * * * * * * * * * * * * * * * * * * //

dimensions      [1 -1 -2 0 0 0 0];

internalField   nonuniform List<scalar> 
20208
(
232625
351203
370573
256831
44549.6
0.759149
1.0295
0.020254
248644
589.858
0.134393
0.00399621
111974
104263
234730
138698
209070
260735
155053
99870.2
84134
101810
85560.4
94226.9
96989
113503
117097
39718.4
71025.3
98628.8
63259.9
78556.8
126577
219209
90303.3
60015.4
78155.8
44828.4
40460.4
47235.6
50689.2
53874.3
121424
102476
141427
167969
247601
70945.5
65177.1
52896.4
83649.5
64504.1
72638.9
54509.8
66073.5
86096
54823.4
77756
68337.2
70205.7
60568.2
64960
79701.5
91918.6
79867
77359.4
74633
60461.7
69267.2
88372.7
112070
79112.7
163409
85210.3
86506
70465.5
82532.9
104198
88729.8
100387
111192
106504
126091
121238
77923.5
93421.7
117268
121450
96459.3
101933
80107.1
99574.5
105427
132178
109091
103475
87714.8
82598.1
377819
380674
240463
277576
374911
361312
267335
6553.71
234526
259542
1708.78
173362
221650
260707
142311
180186
136568
147697
115857
141600
188118
176512
148893
122184
153714
125660
143531
184023
168069
160119
133772
129388
157806
149958
194808
120432
164343
125455
156482
213909
148307
199474
235271
242303
244088
282167
272912
277753
278143
268880
163175
347429
80914.5
421505
339832
300844
274195
357056
347782
293825
321452
321989
290463
251005
246704
254104
291619
307469
311374
288145
262941
173086
230045
180529
263501
242099
237684
327539
305421
266348
301136
333099
323189
317927
190775
246444
251181
198539
241298
258679
258968
256261
256428
223508
209551
249138
257558
254374
255620
205904
258212
191500
262933
250511
246765
298711
271672
304151
337375
342874
373974
379427
306524
2638.12
620.619
318013
251138
921.765
210.194
345463
338334
377834
377746
377674
342792
341357
324419
278834
310786
356030
348380
384839
388539
93655.1
44241.4
96420.7
193861
209347
28377.6
72817.7
51751.3
28024.8
164115
85310.9
75773.8
157505
26610.5
68345.8
206215
199460
155691
208149
227296
145592
200637
56240.1
32995.9
42524.3
140249
110695
52808.6
45880.1
38616.9
42471.2
35483.4
28585.5
23704.2
37785.5
37545.4
244524
197828
253597
123819
178197
197041
94347.3
80825.7
52730.1
52412.2
153741
87053.2
70403.1
140658
50649.1
35013.8
43100.3
60121.2
61144.8
40261.4
45935.2
73258.5
116239
89841.7
56670.9
63910.5
58745.7
56591
58.8601
431676
126100
52678.8
16.5334
14031.8
372073
355598
379673
370472
377897
378815
373467
353012
349543
376871
355405
372716
357249
376026
346366
358542
371849
369046
377012
363588
375350
375562
406646
412542
355421
419641
408614
411662
417589
260887
243298
261427
238896
184865
169729
244657
109042
100.75
2.85636
25.323
1.05058
12.4704
44024
223523
213391
258042
228993
146745
128811
236037
373514
418439
364314
413692
403478
411945
413036
390096
364967
392184
341111
401338
400417
331120
219.257
15.3541
16974.9
5436.58
1.12414
182660
71.2048
197653
249179
254971
217820
74940.5
200466
104280
258748
234952
260829
229851
117548
215421
147221
355405
389830
392633
396827
292317
388070
315542
403546
431767
397442
387422
379186
290210
270316
345602
344698
338672
227145
212908
195430
210404
334002
309547
327126
170436
152885
138135
185800
425140
430349
387694
345918
366214
241788
203555
0.474492
15875.9
18.4304
11.0151
0.392
469.295
1.72708
278802
348122
390645
385016
140931
261933
336195
332374
294871
323867
125691
179957
161672
108281
276947
289472
310186
136852
60859.9
106352
85973
155994
61353.8
47242.1
4707.55
47014.8
35472.6
172650
375761
112625
290503
201515
360820
236506
317684
90260.1
29428.3
21281.2
14648.3
10504.7
2593.4
1843.45
240407
172657
152474
62590.5
49994
15267.6
20014.6
132415
3011.29
13379.2
18679
101687
32021
23315
310194
103800
292732
12910.4
109815
89244.8
9525.81
3977.69
67210.8
7889.35
13682.7
6795.4
1171.75
668.416
215977
94948.3
125983
23182
36017.2
10575
6705.11
241718
33783
219421
5795.69
80834.7
64029.8
4316.5
160.396
0.120666
2.37826
1.2986
0.0909456
834.903
0.404545
44377
2164.43
36929.9
29142.4
2055.18
35346.5
1680.36
230908
78168.7
266624
66052
3921.98
43420.1
6410.7
22980.3
149265
188126
45609.4
1748.45
28564.4
2894.32
75571.4
12741.8
60337.5
3809.2
1013.61
759.309
5000.45
11072.9
1351.56
23673.7
18456.8
478.309
8595.54
1045.65
20807.5
1446.52
16355
753.099
13387.6
25405.2
1180.96
8696.26
27689.5
43477.2
2612.15
315.548
1614.09
514.119
4539.81
416.689
3245.12
50.1017
388.02
273.519
35.1793
13055.6
333.275
3929.7
467.106
8417.69
6086.63
733.178
11631.2
1694.47
1223.56
1198.52
871.225
128.285
92.1275
0.0226266
1.2442
0.242792
1.63293
0.18597
0.0872591
0.0172739
1250.85
71.0993
892.01
16.9733
214.06
151.057
11.9647
4073.02
166.883
3136.93
900.106
62.7996
47.4955
1186.13
4742.05
7773.05
797.027
340.031
571.981
59.4087
34.6049
23654.9
154309
34496.8
161731
64962.8
115602
196480
125705
134045
51830.9
188273
91868.4
127466
114339
143132
129423
203283
144125
215738
40892.1
162980
41318
171460
71358.4
150082
210167
30631.8
26116.5
21137.9
78457.9
76852.1
64858.6
61693.4
51126.6
97486.5
92010.2
152401
85303.8
96051.4
143052
45078
23544.1
35258.5
80268.2
102194
62653.8
73312.9
56125.7
116380
186648
114887
99856.1
79645.8
158501
26770.6
21840.1
18230.9
36881.3
31831.6
35662.7
40026
130077
76874.8
70473.6
72611.7
118085
65339.3
120491
38564.1
85823.4
82729.8
105145
112958
62811.7
65782.4
26478.5
35310.3
32041.3
40341.4
48485.9
45888.6
43812.4
16969.6
21943
17423.4
31359.8
30988.8
35200.7
35862.7
51346.7
67242.3
66644.2
60723.7
61065.3
76907.8
76795.3
51157.4
66713.3
66263
63179.2
61746.2
77228.4
78554.8
104603
161196
152449
100760
149993
83454.2
137264
143962
95636.4
92137.8
129137
134747
79440.3
77351.2
61277.6
50708.3
46185.2
50158.1
67983.8
65409.7
53793.7
28704.6
19211.6
24666.2
32673.4
37601.4
37133
41879.8
51709.3
88058.5
111207
117693
67459.5
87829.7
147051
31932.6
33061
27129.2
40183.6
47177.5
41085.9
46046
44541.7
31837.6
41480.3
53531.2
44108.3
48025.8
57184.8
71473.7
166460
92319.9
70245.6
123194
87097.9
151386
38386.8
47406.1
45576.5
54132.7
52324
59545.5
60659.6
83992.2
95871.5
83263
109129
94985
94702.9
109466
54935
62315
75996.3
71926.9
70290.7
60581.9
57591
61182.4
46102.7
45730.7
49973.5
66402.4
65543.1
50645.5
53453.1
68206
70813.3
65563
80902.2
68986
84407.2
83525.8
96218.3
82959.3
95166.5
112742
96582.2
110581
67387.8
72890.7
68216.2
84587.2
86651.7
83010.3
87574.1
28602.5
39155.1
33459.1
48596
42406
47015.3
53118.3
125434
116735
206096
96266.9
107943
167665
160905
106364
177827
308968
101281
171091
165145
274018
123718
71656.9
75960.1
102123
149028
110963
162941
125928
199237
122887
115394
158154
164126
255156
71981
86691.2
72784
102910
88652.4
89130.5
104098
39882.8
47638.5
45991.2
54190.8
52727.1
60206.6
62106.2
158550
81017.7
107664
136997
172931
84747.2
116410
55060.1
62310.1
76614.9
71974.1
70673.4
56029.1
60970.8
39625.6
53786.9
48601.1
52946.2
67747
61882.6
58970.4
73694.6
74647.8
70632.6
87183.4
91934.8
90225.5
89603.1
98142.8
123170
205469
139462
79460.3
174060
90851.7
76422.3
88891.6
74170.5
90398.8
109489
92639.5
106258
47120.3
67231.6
51738.1
67579.8
51778.4
56354.8
72262.6
66174
67757.3
67743
84492.8
82414.1
82410.2
85014.3
54714.6
62165.1
53502.1
67529.8
76201.8
76282.3
68036.6
62260.6
58544.7
57765.6
19763.6
13452.6
24373.6
58738.9
6025.1
49237
15436.4
78865.4
29212.9
9017.36
49431.7
25891.3
71571.2
19202.9
13806.5
11558.2
34447.8
26319.8
25153.2
31761.6
21278.6
15438.6
13163.1
26546.1
34372.8
28889.5
32580.7
6886.31
5745.84
3602.59
18596.3
21021.6
21868.3
20609.2
16155.3
7082.1
14584.6
20217.1
26271.1
22539.7
28366
10080.1
13284.1
9430.96
24524.6
27432.6
27517.7
23897.6
37433.5
24913.2
37053.5
46832.6
35317.5
36865.1
47776.8
45891.6
52760.5
39002
38804.5
58686.3
53087.7
44855
12031.1
21286.2
18504.1
28884.3
25588.6
30971.3
33950
40403.7
57837.6
48064
60072.9
42932.6
55007.4
45909.6
39374.5
27323.7
38123.9
38664.2
50792.5
40963.3
48952.6
50776.4
33749.2
35799.2
36748.2
51410.8
51887.2
35748.4
39167.2
57531.1
42240.4
54423
42170.6
54437.2
38825.7
34432.5
54073.5
39382.3
52079.5
36913.7
41863.6
56705.2
61101.9
58300.1
47350.8
49233.5
73277.1
63224.9
59596.7
43199.8
55117.2
39902.8
44650.6
63051.8
47853.1
59619
51401.2
69139.9
63847
75654.9
54197.1
65818.2
61337.2
59933.7
79729
74632.4
79517.2
73598.4
89192.7
95343.5
151041
103152
98132.9
181006
197633
121161
130954
85189
103483
88063.4
116093
99164.3
103022
120842
68054.1
82560.6
67044.3
74333.5
89444.5
89994.7
74686
101196
100956
101706
114548
115499
114628
115909
57822.9
67231.4
82974.4
62331.7
88164.2
78467.6
71584.2
73669.4
70763.6
74170.3
87277.4
91618.2
90472.1
88072
77194.2
82721.3
81356.5
94734.6
93763.5
98047.4
98371.4
45871.8
49094.7
55723
53707.7
60298.2
63774.6
68642.3
124287
124546
108133
108506
144900
125440
125560
56289.9
63079.8
54171
68436.9
80516.3
77384.1
70868.6
139388
218429
235293
401280
197249
185301
329628
96140.4
113926
95970.3
101515
83976.3
100531
119754
101726
120364
101324
117515
119976
99535.3
103123
69496.6
83364.5
67675.4
75178.7
94111.1
90960.7
77566.6
102360
105541
103193
120532
117427
118011
121091
109787
130825
131275
147934
112165
127712
127582
63816.5
73447
57317.9
61895.2
85350.9
78270.9
68455.5
92207.3
86950.7
86347.4
103214
108344
109271
102920
78256.8
83180
81773.5
95909.9
94245.5
98838.8
101036
71573.1
81128.2
81801.5
85051.4
85866.4
96175.2
94536.5
104431
125844
108024
122882
107506
122729
105432
78147.1
113582
162021
123739
172001
145284
217529
97585.6
108462
92185.4
108208
134976
127102
114807
82423.4
96909.1
107143
90295.6
91342.7
98245.2
82131.9
60204.3
67983.6
59580.9
74950.6
66231.7
74767.8
83586.5
65615.1
68367.6
72911.7
83204.9
85946
87997.9
90701.3
182716
86969.4
121661
180696
233963
109954
152222
67869.1
83772.7
92104.8
94537
84694.3
77050.3
74574.7
80945.5
89110.8
89854.5
95526.1
96499.8
105476
103686
86243.5
79223.7
86827.9
94303.7
102961
95659.4
112214
102128
123105
118514
100774
121041
99711
103451
93060.2
88978
86986.3
104285
113864
107016
110562
57817.9
72584.6
62629.9
82885.3
72821.7
78008.5
88453.3
75076.3
76001
79740.7
93013.7
89157.3
94054.2
98183.7
76721.7
89289.1
79126.4
105255
94512.6
97201.2
107965
112440
108902
124840
113398
130466
125287
130717
72693.6
86867.5
83102.6
90872.6
87116.3
97780
101901
106425
133153
219129
209271
137044
233296
172069
135445
136246
115832
120930
166265
142825
141642
104963
127345
110221
126251
108263
123941
106548
83449.3
103131
108728
96280.6
92522.5
99383.4
86560.3
93253.1
85639.1
94551.2
98755
107070
108826
101275
71227.6
93597.5
76163.7
96964.8
79635.7
84961.1
102901
82162.3
94554.5
91172.5
101205
97825
107061
111017
134229
138810
203842
172252
173027
237267
248007
96473.4
108232
89531.9
106431
135960
127059
113853
130798
152462
132478
148618
130537
132421
151136
129617
111212
111185
115661
133255
134178
115245
103336
120332
122327
120418
123194
141584
144422
84325.5
84723.3
89826
97733.4
103388
103230
109249
99005.6
104952
106518
114556
116037
123573
121542
82186.4
86055.3
96247.7
100747
116374
105194
111672
91199.7
104209
92769.8
106998
116261
118648
104886
104394
132642
112813
144593
123047
133129
156007
98746.4
88400.3
96307.2
111086
108450
114113
104453
116704
99152.9
100979
111191
124527
127179
108939
139341
156148
135272
135196
159212
139035
154605
131486
114691
112272
117110
140306
136448
120009
97911.9
109889
99585.3
115026
122916
125463
112827
174295
180443
263798
181719
240869
241009
285100
77177
79060.9
68689.2
84597.8
105228
95674
93660.1
118220
126296
119148
146129
137526
137486
145709
110402
129798
125467
132146
127094
148549
154061
99965.1
111541
107753
121584
117716
125745
130210
83623.1
89879.4
94012.8
95851.1
100105
106149
112899
264843
123717
169245
311221
350244
196599
262901
127547
161093
159027
175653
151094
149508
135766
120967
145926
125618
138125
139586
127068
120079
91880.2
100795
82533.3
91786
121649
110783
101404
106857
99630.4
89151.2
94843.4
125048
105917
113390
118958
106685
102523
113385
135498
130181
118011
98515.8
106613
94432.9
109332
126724
121699
113807
90963.7
103967
96348.1
117590
109981
116302
124457
138242
122839
175414
124537
165553
165272
198379
220520
135480
122166
142700
138497
161106
146248
169862
112610
129563
108438
114081
141377
118647
136362
110966
129569
112694
121573
136392
138766
119422
125980
102318
105060
129372
107588
110407
132365
102117
101757
106621
113489
118179
123442
119764
144286
167922
146364
191339
168652
171667
195176
99497.2
88543
103932
118079
106074
123218
136051
111956
105097
101122
117186
133478
128345
121706
101189
107287
96673
122198
110654
117186
129207
112644
123616
114682
131965
138648
141347
129474
92658
97559.4
104432
103754
110861
115367
122522
111086
126651
121331
108077
123715
138350
141531
234432
272580
392482
327452
222505
313265
409237
144757
175629
151620
165120
144056
150358
172566
104902
146458
122856
136932
114841
133548
158509
122742
149098
133281
146797
142283
126196
129195
132272
118465
114507
123973
147564
142109
128553
144754
134998
156335
145407
155537
168162
167229
154560
172058
149749
176165
207549
182354
200501
122223
136019
131747
151904
134384
138782
119719
120778
126068
116404
134732
150569
144796
139820
112739
115679
126156
122672
133795
135765
144281
140022
116025
122615
124850
141047
142844
118997
137948
126501
114776
117793
155120
141304
129727
117688
145854
123703
147413
124181
130722
154547
153351
131976
133932
141767
159481
162039
139421
103604
90685
99975.4
118292
107998
121623
132792
109229
116204
102624
133007
119138
126829
141815
111153
137831
118150
142276
123507
131494
151776
102309
133600
134551
124891
114093
122031
112384
135777
144375
123185
145306
184615
159722
169278
111759
114589
103605
124876
147045
137442
133820
109206
129470
116033
139942
127120
135307
149198
70224.2
41280.7
154618
79554.7
79041.3
131311
33717.4
55085.2
69626.6
116269
57453.3
88334.9
140262
106515
90397.7
89566.4
150574
35586.9
40769.7
44369.9
46373.6
42641.3
51422.2
53518.3
38128.8
52366.3
49055
48523.9
45253.2
56374.3
59933.8
52558.6
49709.4
45119.9
56413.1
61292.6
64325.8
69656.2
91626.9
126225
176282
169735
115634
158309
240008
56272.7
72041.2
58452.4
77858.3
63714.5
66063.6
80501.8
72571.2
53110.2
70334.8
82755.6
64288.7
66554.8
85332.1
61506.4
63299.1
55132.5
74005.8
67111.1
76043.3
83625.1
61383.6
57868.6
75657.7
69669.7
93233.3
73578.2
88821.4
64872.2
75177.1
61331.2
69203.6
88266.3
73102.5
83968.6
92713.6
40724.2
57913.7
77200.7
90933.5
64008.3
33728
89028.9
69725.6
79865.4
69806.2
99369.4
64066.1
48432.8
61797.3
81109.6
93444.5
62150.4
58464.5
70808.6
57938.8
69658.2
67834
67673
59308.9
60392.6
57563.5
68588.7
68730.2
67677.6
68396.9
61142.1
59321.7
59572.7
69628.4
71731.2
70108.5
72843
44876.3
35529.5
45913.1
45189.5
56910.9
57734.8
46919.9
79070.7
88997.1
78506.6
88860.6
77807.9
77924.5
89198.7
48968.4
37839.6
47154.2
58811.8
51960.2
60442.7
49158.5
79031.4
89477.4
78312.5
78428.2
91888.6
79605.7
90166.5
77157.1
99218.8
101680
108900
99724.4
130830
146541
68109.1
65295.8
63974.7
79594
75038.4
76611.9
81454.5
44244.6
54897.7
51541.3
55441.4
62884.4
66203.1
59690.1
80790.6
97025.6
83586.4
94574.2
81751.4
84919.4
98314.3
57101.9
80637.8
68636.9
69502.7
71658.2
81638.1
58886.8
82086.3
75359.4
73378.3
85379.3
92500.6
87447
94752.2
59106.2
59056.4
53349.9
70433.2
70890.4
64791.5
75660.6
87530.6
107823
101775
89150.4
109309
103186
94518.5
70651.8
64036.8
85014.1
74116.8
72363.2
83025.3
61174.5
67642.1
87852.9
74900.6
78389.2
85995.7
91718.9
72114.8
114079
96969.6
111385
87666.8
90144.1
101089
103548
70040.6
65837.7
73732.6
78148.2
82023.3
89729.1
86753.9
115315
124438
107197
116859
101152
109258
126055
82902.4
103094
84201.6
92018.7
96745.6
77578
88564.9
84419.2
71099.9
65755.7
98782.9
78430.1
84335.3
105668
74490.8
83798.5
69221.1
93577.6
77918.9
83758.7
100024
96931.7
93843.5
82994.1
95658
110065
85625.9
99001.5
77662.9
82123.5
68964.5
78362.6
87873.6
92548.7
102981
118801
92172.6
108229
110947
95548.7
104075
120513
128389
150199
148369
135399
116833
119062
137109
97677
92813.1
77417.2
80006.7
119901
95784.4
100680
104747
96490.4
80813.7
90767.9
117152
107798
99089.5
85133.4
97674.1
77515.4
91430.4
124697
114169
99897.4
169822
185160
159973
158093
193860
181898
167479
157030
141325
136597
145013
172974
166234
150429
127696
127595
151064
145988
131381
146423
122787
119622
112406
108511
130032
137162
127537
138175
125203
148485
156207
143886
138071
142501
130362
173046
170227
145744
157696
214174
186673
183092
131372
146681
139695
161359
149268
142366
128869
99930.8
122523
111721
130758
119212
131794
144247
104659
109903
124858
99716.2
104730
83487.7
87840.7
121848
151499
139624
160177
126906
145831
134120
160980
194459
169179
216703
190294
200244
228267
138618
153247
130662
138327
172414
162858
147113
157719
181015
151616
176320
220506
183170
211501
123182
152412
130803
154906
134259
142918
165377
126418
128780
112087
131842
150765
147487
167687
275064
270760
145465
279241
252191
270135
262170
143376
175281
146836
199813
167337
171075
204651
134449
165830
159449
152109
153201
146106
139708
130100
161961
151539
165883
155352
180397
192730
125835
145928
133694
158403
146493
156063
169232
123125
106494
107486
139092
121180
121363
138383
178937
155479
158944
140431
137046
155530
158888
144791
142112
163474
180927
183608
158185
161103
129754
111763
99519.1
102715
87777.3
98927.5
115190
126193
145608
126649
131391
131976
112942
114371
133707
157237
136146
142239
171899
165563
141460
149605
139485
126298
145915
188422
160073
172330
150772
169403
184132
158376
161165
172213
148164
121240
144632
131977
158109
144086
155649
170661
158336
146332
133053
140337
183043
166403
154275
128611
133330
117793
136574
166554
152901
148854
157706
171361
157107
197612
181742
181328
198914
143245
137025
146580
157504
169109
161212
185349
137823
130627
117308
94129.7
104741
110009
122184
142702
128510
114546
107640
97211.9
108924
120615
147676
183274
157136
182542
157887
168472
195530
154588
184475
189265
172520
165522
176904
160758
156402
151462
136834
145929
184051
161695
167049
139124
126698
128446
149223
148265
161015
164712
167815
193046
150720
202490
176115
194836
223683
118576
124835
139721
110870
116508
93247.5
99844.5
269659
148953
52155.8
271573
80944.5
84140.9
142005
126581
87735.3
84394.4
96103.1
142146
202168
215920
143072
75904.7
117241
64966.2
118332
56840.9
67916.8
71489
60490.8
62077
77856.5
77018.8
172038
165974
88059.6
120187
69783.1
82770.8
113006
134523
148806
108813
100576
148705
82007.9
134774
99053.3
128240
87465.4
67347.6
120993
84318
148946
149598
100631
95744.9
98759
115323
109652
113278
96689.3
84587.1
86922.7
95644.5
108998
95325.7
108782
250531
204088
180223
156483
267375
177355
248873
169398
164703
99641.1
99323.8
168378
163633
269390
87966.5
83621.3
73551.9
89687
103904
101934
96540.6
83610.3
71334.2
70917.5
88272.1
102404
88508.9
102160
106646
69532.8
91931.1
93441.9
88568.4
84104.4
101537
235004
107452
150807
130412
183284
100841
227398
69305.4
67210.2
79387.4
88231.7
81180.6
82745.2
83620.9
193211
170167
260327
205718
161401
173681
65688
90592.1
49338.2
156419
79459.1
166696
36553.5
48300.3
25860.9
70180.7
204779
173564
175793
193534
221972
201975
220480
75998.7
135793
46945.4
130447
64922.2
45945.2
163507
149823
155967
126871
166672
177969
189238
134985
19102.1
54571.4
7834.16
90501.4
20875
29047.3
53740.6
111052
161039
99514.4
81028.4
169086
161886
105882
8585.27
15545.7
30568.9
31997.8
20443.6
34593.8
26041.4
90075.5
84595.4
170547
65804.6
134194
150078
62853.3
37986
34590.9
44078
38524.6
46333.1
34891.9
48803.9
201055
243900
241084
219745
224949
195895
224685
116855
122783
61084.4
57567.1
49155.7
101505
144698
172990
227960
195860
122502
211988
167226
134001
84590.9
58442.3
53043.4
34679
40451.1
78944.8
53558.8
64258.3
175795
122477
79512.4
149615
92752.5
61802.1
40823.3
51220.7
33866.6
52148.5
39998.6
38173.4
52975.6
56380.3
87052.9
93196.8
70487.1
116657
62458.1
61692.7
47119.1
69051.9
59295.4
57147.4
45962.3
58591.1
57094.9
101266
100041
99585
114711
113385
113204
112488
100322
100655
100298
114143
113838
113674
114019
108635
124938
124573
142074
124039
123678
112429
108209
141956
123864
124124
108189
123953
123957
135242
249489
199532
135899
130471
148647
231212
104016
120449
102156
116217
99598.2
118705
107883
149491
71548.5
77318.4
126020
86874.7
86341.3
97268.6
65268.3
68041.8
63853.8
81034.8
81128.6
84320.8
85768.5
119871
157328
173150
121725
125318
107390
203299
101868
117776
116709
98832.6
98832.4
117879
99848.4
83388.4
83848.3
74629.6
90735.5
102749
101726
95037.6
73327
85556.1
74776.4
90990.6
103479
92529.9
102332
96521.3
89975.2
80670.9
90924.4
104765
95731.8
104682
129059
148346
129457
128888
147314
146284
128988
148180
130005
129717
128967
147131
129517
146216
80971.2
92385.6
91681.1
105136
97107.2
105950
95932.8
98803.3
119019
119089
117923
117871
139941
140616
100035
119297
119053
118712
117958
139439
139938
118773
120784
102267
104275
128506
125450
109780
119560
100057
99007.9
103885
127245
105433
125788
144100
163647
143724
167243
190791
188712
168856
163123
143243
143165
166391
189103
166906
188081
113696
119921
137764
133032
136561
112568
120607
120117
133141
138122
114082
121171
136726
112726
111276
147692
135711
124403
112705
134386
123267
110754
135142
123633
147862
134095
123080
112722
167077
141170
140181
164071
196757
165019
195373
39218.4
51458
114534
62207
32400.9
51867.8
68054.3
113916
32055.3
42021.8
31377.9
41961
38901.9
49362.2
49951.2
31657.5
39528.4
43013.9
42205.1
38900.3
49314.3
50061.4
68490.1
69579.3
52196.1
81752.3
63283.4
62305.7
80498.5
54111.4
76191.5
67647
66982.3
53789
61378.7
75174.3
68944.9
51262.9
68233.5
62110.5
81130
62866
80253.3
67060
54838.2
53938.8
61320.5
76149.6
62201.1
75123.9
38823.2
66609.3
128856
226833
66777.9
32262.9
89045.2
68396.5
288862
251048
198903
136029
112468
83634.8
168084
92963
59083.9
72320.3
79590.3
63730.7
69084.1
67973.6
43417
110140
31127
49256.9
55506.3
75891.5
42224.3
188102
93864
99537.1
80502.3
95293.1
113957
88441.2
31295.4
43812.5
43096.3
55180.1
43843.6
55963.9
42866.5
89777.9
79728.7
82015
77885.7
88667.3
77640.5
88261.5
53673.8
66229.1
77391.5
66926.9
69266.3
78082.1
54173.7
66926.4
67430.6
55812.5
79868.3
67797.9
79103.7
54857.6
96346
76182.6
91269.7
75028.4
112858
89952.4
94904
74853.9
112616
95744.7
90896
75773.2
89794.4
94666.7
198710
166590
141437
167605
140509
164795
196153
236842
223166
197881
195319
268036
233541
220385
194409
267287
234261
221291
195482
232622
219730
181251
209698
227305
178920
194520
193263
230869
237951
198054
224467
202270
281727
243926
229660
171703
232331
215383
221215
187566
202505
197862
190981
205316
179219
212585
261273
242818
227724
165276
232153
191945
207978
174289
202882
246633
148458
138864
127172
141561
178689
163813
154366
139447
136570
124897
145776
176071
161140
159303
173972
162395
187827
178062
207148
192014
223858
168008
160130
146529
156278
195986
179852
171190
208273
264333
246905
293093
216331
252578
236971
148823
186458
174266
193483
175753
163551
158585
164665
154221
140717
154140
196506
179087
168724
157596
157410
143975
168605
200556
183096
184749
169292
214344
185187
231212
199531
218275
254054
150019
192011
164233
186381
176859
151394
160115
160765
161661
142630
184321
164942
187067
208833
158748
156267
137510
177699
184199
158666
156155
141797
161963
141077
182319
190213
160730
158041
183808
148651
164786
128160
135322
107858
117584
126899
128906
113114
130719
147793
148875
171836
195119
182298
169368
181194
224560
195430
209255
226338
202965
235682
201372
205824
176792
180041
132729
117377
147413
156377
207563
177219
137147
134438
152766
185887
140368
161221
119895
134781
157378
197120
199180
190444
174700
180654
171510
154553
206916
176475
198721
171400
195316
227858
152241
193162
174121
196114
177642
203935
224967
204952
254596
221573
285037
246048
268178
315428
197086
220564
184823
216056
284450
263972
231551
280083
260065
226897
240478
353414
300786
277257
198571
186497
169731
182280
234640
212137
200299
168223
153791
152111
177565
212977
199481
185262
172889
237599
200020
221216
188867
218462
259737
168997
212850
214207
203118
195115
185443
184996
209791
187215
214742
216817
283102
242705
249783
179424
230375
351374
227386
371407
245.442
401431
52600.5
0.857645
164210
214485
7.59422
0.0330073
109422
253061
3.55506
0.0286795
0.006377
90582.4
190608
553.936
0.447124
0.0166983
0.000700825
5679.41
23.3849
0.287638
0.0212425
0.00104876
5.03726e-05
0.96671
0.0536867
0.0103223
0.000851996
5.31611e-05
2.79862e-06
0.0248787
0.00311829
0.000413236
3.6011e-05
2.40619e-06
1.30589e-07
0.000873424
0.00012972
1.55891e-05
1.35033e-06
9.21864e-08
5.09317e-09
207108
182237
148139
135153
202106
139494
208921
262174
301810
194288
170292
301691
164293
262754
92242.5
229568
135564
83006.2
171417
138165
228559
89913.4
235652
248870
125721
236198
217542
249519
271098
192174
168578
143979
227642
191912
321498
172085
142145
140318
155905
169571
155678
166780
136047
134867
135166
153993
154103
155201
153148
158120
139625
139398
157314
164317
160706
164385
138231
136530
135940
156649
162553
158044
161122
82782.2
99897.4
81834.8
98709.9
91034.6
109657
111104
81887.5
100042
92191.2
98759.9
90993.4
109609
111010
321684
293487
249242
247670
400114
345895
323452
89648
105664
104534
120774
119553
141616
143090
91281.6
121540
106364
104809
119839
141939
143961
167570
197056
171192
169689
165976
194891
192200
169350
167288
165919
195970
194538
192150
193973
178261
146059
151261
142278
149857
167326
177400
142526
151547
150214
169229
167924
177511
178779
201138
203085
180517
176295
200052
202388
174701
377675
382108
239484
231580
338695
287614
352639
176689
200799
176340
204547
178291
203224
174772
11.7197
0.982056
0.00486375
53417.3
0.0533367
0.00217665
35.935
0.113107
0.00455815
13.1637
1.19087
0.00569653
7922.08
0.134201
0.00697362
0.000241807
209563
0.963625
0.0159037
0.00132754
276912
238790
48779.9
301665
4940.73
279.562
56775.2
1.34623
0.442177
230536
360816
0.129937
0.015053
139913
33214.7
0.470026
0.0124138
0.00244881
166551
268258
11745
0.0133441
0.00477771
0.000243767
4.62679
0.586595
0.0054014
0.000330905
1.67618e-05
0.0143292
0.00318638
0.000271475
1.74296e-05
8.8285e-07
0.00127726
0.000144078
1.18686e-05
7.58664e-07
3.90864e-08
4.82566e-05
5.25889e-06
4.3014e-07
2.79833e-08
1.38243e-09
215009
357794
346574
245722
366991
200.623
249955
44329
0.760607
185993
207181
6.30701
0.0249532
105802
250488
646.11
0.127948
0.0042401
121041
184316
487.921
0.47674
0.0120642
0.000507641
5004.7
20.9788
0.239638
0.0150317
0.000745285
3.61936e-05
358.517
0.727428
0.00719848
0.00060051
3.79814e-05
2.00831e-06
0.0192834
0.00219815
0.000290533
2.56177e-05
1.72239e-06
9.33505e-08
0.000580495
9.28165e-05
1.10655e-05
9.64632e-07
6.58765e-08
3.57977e-09
212317
213690
1075.87
0.158186
0.00242809
1219.15
0.39443
0.00294847
0.000121245
2.61921e-05
3.36248e-06
3.15718e-07
2.2279e-08
1.19326e-09
0
0.00380483
0.000685158
9.60648e-05
9.2985e-06
6.56451e-07
3.68309e-08
1.62981e-09
0.153734
0.011393
0.00245878
0.000246844
1.74411e-05
9.40869e-07
4.29573e-08
1037.14
3.73558
0.0921071
0.00711182
0.000501433
2.22772e-05
9.56963e-07
388767
171496
254.872
0.355522
0.00934373
0.000560147
1.90718e-05
215670
311243
385902
2796.45
0.460342
0.00858259
0.0003348
172282
254980
413204
3267.5
0.312641
0.00366666
158286
253030
395596
394.504
0.0783054
194455
385657
2947.85
0.325273
3.49335e-05
8.44004e-06
1.08859e-06
1.01252e-07
7.08678e-09
3.34694e-10
0
0.00085524
0.00028689
3.12361e-05
2.93025e-06
2.0703e-07
1.16706e-08
4.94765e-10
0.0376562
0.00475552
0.000709426
7.16646e-05
5.18569e-06
2.93687e-07
1.35042e-08
82.5239
0.49252
0.0194159
0.00160123
0.000115771
6.48145e-06
2.97208e-07
353506
29605.3
20.1836
0.0685122
0.00257836
0.000124227
5.57229e-06
249405
383358
296801
221.111
0.109592
0.00200342
8.44538e-05
199353
298517
376041
262.566
0.0652518
0.000940189
163562
294643
321293
33.0115
0.0136102
225158
407094
15.4509
0.0308251
6.54753e-06
1.22844e-06
1.57263e-07
1.43482e-08
9.16771e-10
0
0
0.000225876
3.44753e-05
4.54515e-06
4.24203e-07
2.90311e-08
1.58616e-09
0
0.00404143
0.000832786
0.000118777
1.17583e-05
7.59814e-07
4.09782e-08
1.77533e-09
0.362911
0.0315732
0.00341085
0.000366264
1.97804e-05
9.57923e-07
4.16039e-08
17099
60.9247
0.232953
0.00658917
0.000559575
2.14078e-05
8.31729e-07
431530
391231
3357.45
0.668485
0.00762972
0.000450925
1.45812e-05
295986
450277
16872.2
0.640418
0.00557113
0.000194648
274509
317852
5356.37
0.192497
0.0013901
367328
437918
0.219708
0.00324453
8.24977e-07
1.47702e-07
1.85682e-08
1.61526e-09
4.36557e-11
0
0
2.35988e-05
4.03314e-06
5.24713e-07
4.75411e-08
3.17232e-09
1.16415e-10
0
0.000607203
9.54447e-05
1.35589e-05
1.22163e-06
8.17963e-08
4.49654e-09
1.45519e-10
0.00883287
0.00211475
0.000376605
3.13167e-05
1.91662e-06
1.02169e-07
4.67116e-09
1.69515
0.0832239
0.00601655
0.000848282
4.41792e-05
2.07787e-06
9.01637e-08
406085
237860
0.459366
0.0116749
0.000979312
3.87669e-05
1.50331e-06
350816
359807
368455
1.2874
0.0108993
0.000575793
1.99607e-05
233740
300849
330166
0.547387
0.00432849
0.000164187
216687
385655
54904.2
0.00629351
0.000965562
9.77307e-08
1.68802e-08
1.9063e-09
1.01863e-10
0
0
0
2.73026e-06
4.61965e-07
5.60394e-08
4.83124e-09
2.61934e-10
0
0
7.10179e-05
1.11953e-05
1.39576e-06
1.20999e-07
8.06176e-09
3.7835e-10
0
0.00157341
0.000247464
3.28926e-05
2.79376e-06
1.82481e-07
1.00699e-08
4.22006e-10
0.0258799
0.00521499
0.000836742
6.18724e-05
3.72514e-06
1.98095e-07
8.96398e-09
7.15759
0.214899
0.0133722
0.00142871
6.99144e-05
3.39453e-06
1.49055e-07
108316
188168
0.789771
0.0165255
0.00117092
4.79561e-05
1.99849e-06
210600
270323
230286
0.863339
0.00992777
0.000433103
1.90567e-05
277388
91458.3