/*--------------------------------*- C++ -*----------------------------------*\
  =========                 |
  \\      /  F ield         | OpenFOAM: The Open Source CFD Toolbox
   \\    /   O peration     | Website:  https://openfoam.org
    \\  /    A nd           | Version:  9
     \\/     M anipulation  |
\*---------------------------------------------------------------------------*/
FoamFile
{
    format      ascii;
    class       volScalarField;
    location    "0.00235";
    object      rho.c4;
}
// * * * * * * * * * * * * * * * * * * * * * * * * * * * * * * * * * * * * * //

dimensions      [1 -3 0 0 0 0 0];

internalField   nonuniform List<scalar> 
20208
(
3.53076
14.6973
16.3399
27.866
74.0217
0.00631533
0.00271435
2.61285e-09
32.0979
58.8173
1.90736e-06
7.7518e-13
4.63779
3.73634
12.1718
5.74087
9.63292
25.5851
6.51135
3.8825
3.06138
3.68302
3.08681
3.70642
3.76057
4.54073
4.61963
1.78542
2.85632
3.9788
2.61611
3.03552
5.10517
3.6939
3.46327
2.13223
2.13419
1.9624
1.96995
2.05132
2.2495
2.29116
2.74025
2.98033
3.09972
2.89304
3.6133
2.32907
2.46088
2.33497
3.34076
2.70379
2.88046
2.35373
2.72533
3.37713
2.22148
3.08847
2.58282
2.61474
2.30098
2.63861
3.12165
3.65232
3.1249
2.75511
2.94783
2.46052
2.80262
3.46303
3.32485
2.78189
3.53804
2.62352
3.0765
2.75288
3.21124
4.13104
3.18968
3.51209
4.10889
3.84989
5.16192
4.80722
3.17797
3.79875
4.84818
4.92014
3.85068
4.02994
3.2118
3.97207
4.1549
5.468
4.40315
4.21574
3.50216
3.29642
8.63927
11.8339
3.78352
3.93794
10.1503
14.3976
4.05874
61.3243
11.7688
20.314
61.3029
44.3548
42.3395
16.11
6.10303
8.16926
5.84123
6.21826
4.71209
5.95494
8.41887
7.7139
5.7379
4.52052
5.86847
4.60504
5.86126
7.96772
6.77183
6.18126
5.1415
4.7937
6.72525
6.15696
8.54117
4.89525
7.09358
5.24788
6.79776
10.0664
6.24046
8.98624
3.59322
3.59067
3.64861
4.38098
4.25715
4.3407
4.29331
5.08463
61.3325
9.63014
65.0795
18.3474
20.085
5.61488
3.95252
4.6536
4.63799
4.4864
4.86603
4.92013
4.40766
4.2252
3.82889
4.26457
4.66819
5.28999
5.35984
4.61995
19.3973
7.7909
11.7036
8.0281
20.3463
12.7015
12.2407
4.68107
4.91713
4.40546
4.76273
5.80944
5.14515
5.49982
7.84119
12.2019
12.7911
8.12585
12.3309
20.4256
19.387
13.9807
15.4731
9.9297
8.75417
13.4613
22.4751
26.0561
15.2568
9.63116
15.667
8.57864
22.2374
13.7693
13.3258
6.66366
5.13087
6.75274
6.6584
6.7745
9.30385
9.50822
20.4031
33.2464
35.2496
18.262
24.8336
34.6887
36.3526
5.92551
5.70034
8.81465
8.90752
9.08808
5.82059
5.80192
7.33109
5.25352
6.95308
7.40888
7.01376
9.94832
10.6885
1.71584
1.9586
2.40415
2.67539
2.76837
1.60644
2.54723
2.19472
1.41213
2.13747
1.82825
1.70999
2.23625
1.49181
1.82403
2.58977
2.3967
2.33088
2.58952
2.85372
2.41949
2.89329
1.6862
1.76123
1.69415
2.27705
2.22711
1.82481
1.89482
1.77678
1.93745
1.74307
1.6357
1.49319
1.62375
1.7308
3.12919
2.89088
3.39688
2.42636
3.16054
3.07284
2.36139
2.4349
2.08157
1.94043
2.62665
2.04617
2.04849
2.71205
2.17873
1.81562
2.04519
2.47882
2.49524
1.87821
2.07996
2.77083
2.70427
2.66278
2.28246
2.56162
2.09207
2.23239
54.9694
24.874
61.3164
72.3003
8.46621
76.6324
51.2852
6.40992
9.65287
7.43763
12.2402
9.9638
7.61406
6.28428
6.10181
9.44037
6.2258
10.3948
6.36182
9.6395
5.95486
6.63961
13.0774
11.5412
8.49561
6.9533
10.6052
7.97181
15.2563
15.756
9.83971
24.4456
14.48
14.8913
25.3483
19.0325
33.7763
20.0158
33.7465
51.0293
52.6812
32.0257
49.699
48.9332
0.0295619
9.09957
0.0125039
1.96032
52.9966
34.3766
36.0753
21.426
34.6041
50.8253
51.8376
32.8705
11.0083
16.7378
10.2747
15.7502
30.0771
17.229
27.1288
9.84014
16.9173
10.1135
25.0291
14.6182
15.0835
25.896
39.1614
10.5777
64.4604
65.085
0.0120504
32.506
40.0923
39.2533
27.3399
23.5971
37.8881
57.0801
43.3262
53.8432
25.3857
36.9771
21.9604
37.0038
60.5907
42.443
55.7496
18.1058
11.6225
10.6899
16.0492
30.5556
17.6814
27.644
38.3456
26.0222
40.563
41.2226
43.1084
62.6784
65.4539
14.976
15.2608
15.548
24.9395
25.1001
25.6472
25.5529
16.4441
18.5865
16.7391
26.8811
28.942
28.8472
26.8756
31.6655
28.1829
44.6623
52.396
46.6623
70.4718
77.9734
0.000680785
55.111
8.29186
2.32431
0.000180222
48.7048
0.0153694
40.5265
41.0648
23.9454
24.7636
61.7074
41.6317
42.5939
16.4875
21.1137
17.1069
30.5546
26.6846
27.1159
30.7478
22.5476
20.3931
18.3835
28.1778
32.8617
29.9299
31.4621
52.3314
62.3223
59.7116
60.2044
61.4345
58.8002
50.8418
26.4287
62.9069
50.2314
47.2436
29.2774
43.8236
45.5395
49.9664
55.9834
55.1828
51.3325
50.6192
54.8064
53.9746
28.6017
39.501
39.8914
36.5562
36.3652
43.6499
44.0639
55.116
60.0255
60.5793
62.9243
59.4081
61.4094
58.885
53.6451
62.7068
56.7269
66.8015
73.0373
73.9708
67.2829
52.1896
50.9606
57.0181
55.3438
50.7547
53.9871
55.2865
30.1138
42.8104
40.9368
37.8243
36.6586
43.7741
44.8024
65.2535
73.487
66.9271
76.6692
77.7947
77.8145
76.4321
71.0468
1.426e-06
0.0568104
0.0110151
8.28823e-07
74.8042
0.00189851
31.4007
32.9839
31.0902
31.0438
33.1274
31.3458
32.8647
71.2224
66.248
62.4035
76.6656
74.6024
81.6075
69.5938
74.1851
74.798
70.0406
79.2433
81.0176
82.9721
77.614
52.8127
63.7207
52.3216
52.6371
63.4484
62.6609
53.3125
33.8905
33.336
31.6267
31.5374
35.035
33.7033
33.1855
31.5279
33.4962
33.1356
34.3879
32.7817
31.8496
33.2203
63.7753
53.5137
52.3983
52.5876
63.8174
53.5688
62.6209
58.5788
57.9274
57.5978
24.5594
56.4404
55.7989
15.07
31.9362
35.2837
35.0625
34.6215
33.1104
33.9839
33.4977
55.4994
45.383
45.1594
55.0965
55.3317
43.9021
43.9339
6.03573e-09
0.0128237
4.84964e-06
0.012509
2.4869e-06
2.98116e-07
6.02268e-09
49.9121
44.4477
49.104
5.20278
53.0532
52.6725
2.656
38.2953
38.8629
37.9984
44.1624
45.0634
44.7871
44.5874
62.013
57.533
46.0145
61.8573
57.1847
44.5457
20.6506
0.734373
3.24579
1.56855
3.84707
2.58861
3.02475
5.77847
1.87717
2.78206
1.60022
4.9521
3.03562
2.63821
2.69034
3.91672
4.1511
10.0491
7.35753
17.6001
0.977741
3.58117
1.76873
4.25281
2.97856
5.82473
6.94855
0.819293
0.923843
0.850721
1.91685
1.39239
1.08067
1.4474
1.35591
2.06532
2.28067
2.94797
1.88341
1.74973
2.50858
2.20082
1.25286
1.70227
2.3497
3.7449
1.74018
2.25018
2.00778
4.05222
5.22669
3.25161
2.28118
2.23483
3.29934
0.769468
0.771584
0.731608
0.830311
0.832824
0.885729
0.876405
2.37424
1.1742
1.25184
1.0738
1.66619
1.34723
2.1131
1.13736
2.1408
1.5691
2.354
3.04488
1.42912
2.03729
0.828682
0.88734
0.905658
0.957825
1.02544
1.05326
0.939812
0.795738
1.02063
0.937024
1.08588
0.914929
0.983043
1.18181
1.30024
1.43438
1.4893
1.45075
1.50799
1.59233
1.64726
1.45499
1.74177
1.59025
1.77017
1.61171
1.75278
1.9172
2.23442
3.25553
5.27312
1.92541
2.79077
2.67063
4.53857
2.65066
2.2009
1.63725
2.01025
2.52962
1.24239
1.41182
1.10067
0.945277
0.955078
1.02235
1.15479
1.18441
1.00411
1.50227
1.13086
1.34037
1.31099
1.53851
1.44859
1.72318
2.5303
2.62352
4.39356
3.70487
2.56846
4.43061
7.16303
1.01852
1.24815
1.12288
1.07187
1.44398
1.30002
1.18519
1.86097
1.51217
1.65142
1.84837
1.71133
1.93303
2.09479
1.71716
4.43802
2.28374
1.77378
2.45735
2.06098
3.67638
1.00564
1.09498
1.13263
1.13844
1.17625
1.33157
1.28403
1.58968
1.80252
1.64315
1.94655
1.76403
1.81767
2.00181
1.11202
1.19134
1.44114
1.25628
1.29571
1.22974
1.08383
1.21983
1.25497
1.05564
1.13828
1.5741
1.319
1.36558
1.78592
1.93709
2.17068
1.98153
2.1383
2.24313
2.41353
1.90197
1.90505
1.74556
1.92461
2.28611
2.09366
2.11087
1.07974
1.09029
1.10013
1.27196
1.2234
1.24201
1.24843
1.39744
1.9192
1.69277
1.80342
1.61162
1.9421
2.20045
3.5289
5.08863
10.4473
3.34903
2.46104
3.63734
5.95166
2.42879
3.47272
7.27454
2.20103
4.04992
2.94006
5.83201
3.42219
1.65432
2.31815
2.57551
3.93188
3.3712
4.82954
4.81225
6.26743
3.71656
5.10556
5.9292
8.32353
11.8235
1.64139
1.95052
1.70139
2.04445
1.79067
1.84873
2.1101
1.39951
1.5793
1.28351
1.61663
1.3265
1.49957
1.82172
3.82058
1.65035
2.5494
3.28783
4.62757
2.28458
3.29333
1.24481
1.66562
1.60658
1.72913
1.44624
1.50126
1.3798
1.92834
2.41119
2.11003
2.20005
2.7584
2.39355
2.52206
1.19772
1.12472
1.14043
1.32183
1.35489
1.39135
1.29257
2.67001
4.43173
7.65277
2.97555
1.99477
4.99081
2.61761
1.99006
2.07724
1.81338
1.96265
2.44919
2.14517
2.23873
1.51348
2.03268
1.76742
1.91139
1.66754
1.97751
2.26955
1.17122
1.39296
1.20096
1.39193
1.56279
1.35375
1.61401
1.24386
1.4855
1.29107
1.52377
1.69098
1.75611
1.46711
1.02659
1.59826
1.3454
0.700022
0.755406
0.717094
0.950051
0.696613
1.16289
1.02887
2.14619
1.3528
0.881125
1.34092
1.13414
1.75903
0.696066
0.690299
0.680195
0.777074
0.761776
0.758568
0.767785
0.7119
0.70524
0.688661
0.770862
0.797486
0.795649
0.7768
0.7031
0.767908
0.743119
0.863341
0.790322
0.800092
0.893423
1.01204
0.840012
0.959985
0.978803
1.10867
1.02781
1.16863
0.725168
0.868228
0.812146
0.826133
1.00786
0.863854
0.943995
1.24187
1.07762
1.18503
1.33464
1.22736
1.28941
1.39476
0.852181
0.94837
0.8438
0.849395
0.960943
0.96166
0.853976
0.945674
1.2041
1.09416
1.19556
1.10124
1.26041
1.38372
0.87038
1.03837
0.901838
0.986905
0.905504
0.992264
0.871049
1.47631
1.22595
1.33842
1.38853
1.64825
1.52906
1.49678
1.02036
1.00276
0.895294
0.910831
1.20292
1.04246
1.03806
0.944348
1.14356
1.16571
1.26491
0.992294
1.08504
1.09415
1.14591
1.51271
1.29179
1.39964
1.20059
1.35778
1.58259
1.64419
1.52303
1.41407
1.48034
1.82825
1.71512
1.58621
1.38481
1.48518
1.28079
1.45731
1.83869
1.59363
1.68911
1.58746
2.01013
1.86603
1.95226
1.74424
1.83314
1.69664
2.27102
2.77897
2.44715
2.95191
2.56139
2.74861
3.15894
2.94045
2.45186
1.85291
4.13389
5.02175
2.74148
3.44476
2.10687
2.5483
2.35483
2.53149
2.32519
2.61708
2.84763
1.33301
1.62658
1.38092
1.57053
1.78943
1.85511
1.51356
1.97464
2.15798
2.20286
2.1432
2.19742
2.41474
2.46667
1.9528
2.09713
2.41719
2.21251
2.76924
2.55378
2.39029
1.32099
1.46099
1.55108
1.45112
1.78837
1.53165
1.68827
1.27478
1.33707
1.37863
1.4423
1.48655
1.61529
1.5635
2.18611
1.99911
2.02556
2.49399
2.50039
2.28158
2.84263
2.25822
2.19095
1.98006
2.03755
2.57749
2.32347
2.25137
1.79104
1.67172
1.46047
1.70755
2.33946
1.95282
2.06211
4.87919
6.45629
9.41579
18.4296
5.65717
3.91456
8.62472
2.57084
2.75443
2.40091
2.95467
2.54898
2.73193
3.16316
1.48697
1.71319
1.41367
1.70965
1.75883
1.4468
1.45008
1.86254
1.80393
1.54733
1.75093
2.40354
2.04097
2.09571
2.07337
2.4572
2.29684
2.48673
2.30628
2.57388
2.75933
2.15292
2.56917
2.67299
2.71476
2.34088
2.45431
2.37121
2.06248
2.11364
1.84973
2.22656
2.87155
2.5491
2.51688
1.69565
1.46643
1.51674
1.78462
1.93358
1.99848
1.72575
1.66673
1.81127
1.53027
1.91862
1.63918
1.77983
2.0819
1.71945
1.92091
1.99558
1.95653
2.03047
2.3451
2.26215
1.54733
1.92893
1.58456
1.78098
1.63167
1.82955
1.50574
2.91106
6.09708
8.40456
5.26389
5.79278
8.31451
13.1545
2.9998
2.86831
2.64873
2.97385
3.72004
3.23907
3.41028
1.80139
2.05242
2.4336
2.00056
2.07416
2.12583
1.73608
2.77988
3.23169
2.92325
3.20665
2.90825
3.36241
3.75384
1.56498
1.62694
1.84704
1.82154
1.88642
2.08041
2.15836
5.49229
2.82405
4.00294
8.01208
12.5465
5.07985
8.13985
2.52741
3.19495
3.3581
3.20802
2.92206
2.75162
2.90497
1.71482
1.90548
1.97867
1.93797
2.01096
2.31437
2.23456
3.1845
3.4616
3.43681
3.68696
3.66946
4.04126
4.31164
1.62441
2.17144
1.85461
1.81691
1.90696
1.57824
1.87271
1.87088
1.9882
1.68169
1.95815
2.51741
2.28074
2.17678
2.26431
3.24443
2.84454
2.91453
2.57729
3.23368
3.67928
1.83915
1.96137
2.12518
2.11325
1.98182
2.28196
2.46058
1.92848
2.14026
2.00646
2.4558
2.28312
2.37098
2.54928
2.75087
2.69545
2.74842
3.01367
3.09505
3.04072
3.42631
1.92013
2.63531
2.2081
2.65349
2.23724
2.56132
3.00321
2.9722
5.19894
8.9054
5.99944
4.15373
11.8245
8.43624
2.85727
2.99578
2.60926
2.96144
3.78321
3.43416
3.2425
1.69206
2.08754
2.06267
2.2564
1.78542
1.98233
1.95292
1.99277
2.70511
2.63266
2.67645
2.27369
2.31761
2.36714
2.41
2.72677
2.4559
3.12131
2.74135
2.79489
3.18604
2.30892
3.23876
2.84957
2.93903
2.59375
3.22876
3.65777
1.91294
2.5821
2.18439
2.59416
2.21088
2.51736
2.92113
4.04378
7.11543
11.932
7.23635
10.538
11.7157
14.8817
3.42578
3.44191
2.93994
3.14651
4.3548
3.68801
3.66474
2.42138
2.86227
2.48308
3.19821
2.75036
2.81097
3.26914
2.06497
1.69544
1.74826
1.90412
2.18425
2.24185
1.84634
2.27992
2.38357
2.46142
2.6307
2.72618
2.85305
2.94788
2.34029
2.18402
2.60387
2.28311
2.49121
2.69653
2.98622
1.91934
2.11272
2.18518
2.18576
2.25456
2.54773
2.47579
2.13909
2.34072
2.51074
2.52161
2.98897
2.75163
2.71874
2.22832
2.66625
2.31313
2.6946
2.9865
3.0776
2.60619
3.42633
4.29001
3.95343
4.31641
3.95211
4.63583
5.06676
2.71797
2.83746
2.55004
2.90564
3.56233
3.10589
3.31914
2.77342
2.30425
2.38583
2.73076
3.05933
3.14644
2.6448
2.81486
3.00625
2.60633
2.93599
3.68595
3.15618
3.41813
2.22885
2.2066
1.91123
2.07451
2.72496
2.40945
2.38709
2.20619
2.63544
2.28791
2.65394
2.94277
3.0274
2.57187
7.1228
10.0503
14.4681
10.9685
17.5367
13.6104
21.1601
3.7784
3.90963
3.38153
3.88765
5.18685
4.4914
4.41057
3.10402
3.89189
3.41064
4.06774
3.53071
3.91947
4.52972
2.67107
2.86668
2.61344
3.20395
2.90654
3.13433
3.45091
2.10032
2.74262
2.37029
2.79396
2.43613
2.73421
3.11207
3.69425
3.28558
3.28902
4.1818
4.17084
3.6984
4.69945
18.4096
5.68996
9.77432
16.5988
22.4879
7.51524
14.5981
3.40572
4.73171
4.3531
4.41561
4.00311
3.73432
3.9628
2.10284
2.71476
2.2783
2.39856
2.45925
2.34333
2.04105
3.73727
3.86498
3.3508
3.86807
5.16758
4.44921
4.39219
3.29972
3.29218
2.92152
3.6631
4.66877
4.15243
4.13565
2.98395
3.02218
2.5936
2.9499
3.83848
3.37118
3.40317
2.98701
2.89966
2.5359
2.92196
3.803
3.3161
3.38655
2.4083
3.26956
2.91374
3.02453
2.73779
3.32591
3.71517
8.04559
6.69073
7.54713
4.96185
7.09742
10.2009
9.2955
16.6066
3.2437
3.50213
3.76137
3.64443
3.93109
4.24338
4.60006
2.42701
2.63399
2.2862
2.65988
3.30734
2.85278
3.10264
2.27125
2.71141
2.34722
2.67951
2.99077
3.06558
2.6019
2.52771
2.11698
2.18489
2.8707
2.44238
2.52614
2.95997
2.97979
3.79127
3.34321
3.95136
3.42274
3.8698
4.50743
2.63533
3.02138
2.71278
3.54333
3.16333
3.25761
3.64257
4.79588
4.05925
4.31534
5.70933
4.79067
5.12332
6.14801
2.85217
2.91898
2.4984
2.86254
3.68979
3.24466
3.28587
2.83375
3.25873
2.96934
3.37715
3.06889
3.47089
3.88847
2.41126
2.82106
2.48692
2.87355
3.1533
3.23334
2.79773
3.54195
3.17527
3.1615
4.00094
3.95467
3.54423
4.44904
4.29513
4.98763
4.5171
3.93191
4.53824
5.28225
5.83934
7.89348
13.8282
21.0108
21.6401
11.918
16.337
30.3841
3.1265
4.17063
3.55184
4.10752
3.49683
3.97276
4.70809
4.03294
5.20235
4.31859
5.752
4.78954
5.14926
6.27754
2.27748
2.89153
2.86482
2.96248
2.63021
2.60586
2.5205
2.90449
2.93016
2.54398
2.8802
3.67242
3.26596
3.28351
4.67744
4.47521
4.73077
5.19198
5.28111
5.55909
6.21786
3.13443
3.18593
2.86854
3.45049
4.21298
3.78766
3.84799
3.1091
3.46817
3.4338
4.02663
3.52563
3.55881
3.01985
3.07341
3.02373
2.67873
3.06953
3.88555
3.44504
3.47419
3.67386
3.31886
3.35479
4.13362
4.15753
3.73307
4.6603
3.74917
3.71563
3.17381
3.23686
4.63856
3.8246
3.79308
3.28655
2.97931
2.72818
2.82821
3.80963
3.39927
3.09084
2.61008
3.21576
2.8351
3.57844
3.10784
3.42153
3.91445
3.00852
2.55316
2.62097
2.93329
3.27367
3.34712
2.86206
5.19009
4.5137
5.199
6.09739
5.17495
5.92643
7.15277
4.70248
4.13473
3.69248
4.6251
4.14376
5.26876
5.88453
3.70179
5.25115
4.68684
4.63912
4.14865
5.26377
5.88483
4.46462
6.08466
5.88291
6.08883
5.14785
5.1214
5.17069
5.45966
5.00992
4.61539
5.51023
7.26181
6.6371
6.02412
3.88952
3.78909
3.3935
3.95172
5.28336
4.52228
4.50935
3.568
5.06136
4.50588
4.43912
3.96967
4.9965
5.60148
3.53305
1.97631
9.11695
3.19521
2.99238
5.53185
1.73654
2.40239
2.62373
4.87249
2.73125
4.20264
7.6285
5.16143
3.90295
3.74134
7.12199
1.77677
1.99643
1.97049
2.01569
2.03626
2.28194
2.32739
1.8525
2.24174
2.10024
2.24682
2.11432
2.41673
2.5727
2.45014
2.40797
2.16064
2.45629
2.74944
2.81631
3.15789
4.8002
7.06064
11.5903
11.0574
6.74697
10.5
20.7972
2.2597
2.68167
2.31064
3.11402
2.64453
2.69727
3.17628
2.91816
2.36066
2.87261
3.3581
2.72589
2.77377
3.41103
3.08286
3.09067
2.71491
3.57221
3.12015
3.60113
4.15462
2.63792
2.48731
3.01523
2.87297
3.74825
3.05372
3.52744
2.57224
2.79409
2.40685
2.80274
3.53812
2.99124
3.30448
2.78908
1.81767
1.69457
2.63038
2.03232
1.40089
1.58298
1.75064
2.3181
2.77794
2.44903
4.2753
2.60196
2.21242
2.02624
2.88944
2.23321
1.42489
1.50285
1.49568
1.5258
1.52692
1.63412
1.66282
1.60071
1.49077
1.58616
1.72389
1.60149
1.73001
1.84744
1.90907
1.84593
1.74488
1.88595
2.0737
2.01356
2.21678
1.54162
1.62406
1.57648
1.79065
1.72291
1.75867
1.8341
1.60975
1.79517
1.64805
1.95273
1.78115
1.81509
1.99155
1.75596
1.69835
1.64352
1.82837
2.0428
1.94741
1.91294
1.86527
1.88575
1.73077
1.89016
2.21741
2.0185
2.07524
3.24289
3.11782
4.87264
5.63023
3.768
5.03866
8.32479
2.2892
2.22688
2.08914
2.51889
2.28332
2.44877
2.71068
1.99012
2.11591
1.91652
2.23517
2.12202
2.34589
2.49004
2.04553
2.48127
2.26079
2.42476
2.20275
2.43491
2.69387
2.03163
2.1446
1.92046
1.95819
2.36834
2.18537
2.07796
2.99339
2.70049
2.51534
2.7891
3.10682
3.01169
3.36683
2.78441
2.3446
2.47729
2.61032
3.17114
2.8018
2.91476
2.50708
3.11674
2.7738
2.70765
3.40496
3.0197
3.02236
2.03284
2.30817
2.41318
2.46372
2.16242
2.26793
2.16327
2.52841
2.6357
2.35704
2.61416
3.24887
2.93759
2.82752
4.32359
3.46669
3.95503
3.08958
3.34283
3.48818
3.79549
2.89648
3.14358
3.57335
3.61022
3.26907
3.69164
4.14226
3.52406
4.01715
3.50968
3.86353
3.39
3.82967
4.41997
2.92661
3.76889
3.65511
3.70885
3.31464
3.20222
3.29459
3.48592
3.21004
2.87524
4.11017
3.34334
3.75709
4.63651
3.18222
3.30353
2.82766
3.91188
3.28974
3.71285
4.44657
4.80071
4.75487
4.0993
4.17347
4.84879
3.66046
4.20735
4.0623
4.12192
3.52407
4.07499
4.74832
4.84161
5.70492
5.82984
4.20197
4.96916
4.31579
3.73014
4.25648
4.98489
4.57721
5.97878
5.39138
4.62574
3.9862
4.36738
5.10913
3.99927
3.82148
3.19846
3.25473
4.9564
3.89
4.06337
5.02987
4.31234
3.63808
4.26884
6.07181
5.1577
4.97237
4.19288
4.45561
3.64631
4.3037
6.2719
5.3461
4.99893
4.79002
4.87352
4.10027
4.59398
6.56105
5.51133
5.37842
3.19617
3.16691
2.80275
3.1247
3.97857
3.55187
3.51682
3.37041
4.26754
4.29749
4.85889
3.61527
3.98954
3.95912
4.37948
3.80807
4.36738
4.45186
6.1853
5.24413
5.17986
3.34109
4.30167
4.28601
4.27987
3.77165
3.80003
3.81988
5.67031
5.13507
4.66845
5.57429
7.62296
6.87852
6.13373
3.04387
3.37885
3.36155
3.90539
3.45753
3.44483
2.96377
4.33573
5.95618
4.97939
5.9194
4.9165
5.62031
6.92843
4.3258
4.49109
5.15201
4.04083
4.20943
3.37477
3.59808
2.99932
3.88182
3.61688
4.05152
3.25987
3.59129
3.29313
3.53801
4.53621
4.10059
4.78786
4.3087
5.04831
5.61752
3.41327
3.50446
3.10194
3.78962
4.77889
4.31329
4.21272
3.93645
4.47923
3.56417
3.87131
5.493
4.27965
4.94293
3.52695
4.87992
4.39902
4.36607
3.93944
4.93319
5.46346
6.79356
6.10207
5.69686
6.82745
7.43567
8.1869
9.05803
45.1239
30.6792
10.1306
39.9631
25.5235
30.2318
67.5918
3.22345
4.19676
3.34076
4.47227
3.51542
3.63438
4.62755
3.25254
4.1392
4.11265
4.1245
3.67161
3.66683
3.67847
4.11425
5.30432
4.43839
5.9657
5.01076
5.4817
6.61309
3.71266
5.23639
4.65525
4.65436
4.16421
5.2316
5.87721
5.66014
5.58459
4.81454
8.06975
6.65085
5.62999
6.70372
8.43873
6.25924
6.9608
5.82401
5.26934
6.25322
6.95277
5.89298
5.32558
6.37351
7.65847
8.5702
6.29359
7.0003
8.26585
6.70355
5.58266
5.65354
4.73252
5.60136
6.81193
6.77829
6.8787
5.72388
6.91794
5.81897
5.71121
4.90641
4.76579
4.79737
4.00627
4.5652
6.96247
5.53021
5.48874
6.90677
6.86113
5.72189
6.20119
9.36732
7.52558
7.63811
3.28424
3.6642
4.22341
3.60345
3.68601
3.74491
3.20804
4.46059
6.10857
5.1156
6.18562
5.14799
5.87786
7.2512
4.27999
4.08212
3.61844
4.07063
5.7114
4.78134
4.69151
7.13486
6.7296
5.92917
6.73895
9.69239
7.62043
8.35006
6.08903
6.48211
5.4709
7.97668
6.61123
7.41347
8.9915
6.21989
6.79776
6.82854
7.52836
7.64841
8.18667
9.34564
7.48283
7.23002
6.06068
4.87377
5.73405
5.87892
7.01061
8.7817
7.24463
5.92616
5.76654
4.89827
5.85755
6.98696
3.77446
5.32276
4.69756
4.7346
4.19324
5.25497
5.96214
3.49144
4.45225
4.4777
4.39499
3.91469
3.97235
3.92211
5.17881
5.16447
4.63363
5.88837
7.36734
6.56974
6.58155
5.94066
5.98541
5.07745
7.38448
6.08515
7.23174
8.94664
7.95316
8.69165
6.54785
8.88096
8.08549
9.95557
11.0255
5.47136
5.64566
6.16674
4.79163
4.95769
3.96005
4.4825
1.84171
3.6086
1.27946
5.80593
2.62686
1.45266
2.48202
1.92209
1.86323
1.85357
1.72898
2.48194
2.00309
2.08911
2.20948
1.07981
1.64238
1.33018
2.07633
1.29637
1.41327
1.42403
1.42529
1.4265
1.56747
1.56994
1.90656
1.93401
1.52399
1.77095
1.47309
1.59409
1.78586
4.48695
2.76649
1.9741
1.90744
2.76319
2.64639
4.50002
1.92721
2.44215
2.01981
1.71673
2.4146
2.00502
3.61677
1.93069
1.74918
1.62829
1.75494
1.96825
1.92251
1.85974
1.72665
1.56959
1.57524
1.74016
1.92527
1.74426
1.91902
1.81695
1.5794
1.53144
1.54384
1.94685
1.58327
1.92587
3.99968
2.92044
2.15702
2.15473
3.98902
2.90838
5.76375
1.72412
1.83899
1.61554
1.76564
2.02084
2.00922
1.81626
1.84099
1.6138
1.60362
1.7601
2.01911
1.76795
2.01187
1.20207
1.08096
1.17396
1.27223
1.22148
1.23587
1.27211
1.90168
1.55007
1.54312
1.56726
2.07455
1.64088
2.00166
1.34889
1.1661
1.22075
1.36371
1.53804
1.34216
1.54623
1.31979
1.95057
1.72137
1.88486
1.33883
1.24605
0.973646
1.04609
1.15036
1.55518
1.77711
1.78558
0.965397
1.31311
1.05802
1.72392
1.34996
1.29072
1.28989
1.39536
1.46287
1.43182
1.4509
0.907096
1.14671
0.820962
1.16334
0.895154
0.842931
1.25013
1.28391
1.43277
1.29359
1.389
1.57778
1.48383
1.38293
0.754023
0.970163
0.758026
1.08275
0.865933
0.825542
1.01814
1.32498
1.68418
1.36397
1.36978
1.69237
1.78775
1.37973
0.832224
0.943254
1.01269
1.10559
0.961513
1.02707
1.08359
1.38875
1.41065
1.85386
1.36772
1.79804
1.81788
1.3982
1.16485
1.09508
1.18907
1.21068
1.30684
1.19965
1.3125
1.4714
1.59424
1.69468
1.56092
1.56726
1.51164
1.51753
1.15181
1.19314
0.911183
0.964319
0.885289
1.14321
1.22371
1.46849
1.77179
1.73567
1.5068
1.62929
1.51651
1.45637
1.10511
1.19266
1.02427
0.996206
0.913394
1.14173
1.08581
1.39904
1.83398
1.88829
1.48132
1.86178
1.42389
1.51718
1.26525
1.3219
1.12252
1.47392
1.14713
1.25939
1.46999
1.42883
1.7828
1.71644
1.71442
1.79478
1.61095
1.50508
1.37781
1.70764
1.60503
1.49069
1.37943
1.59108
1.48213
1.90818
2.13627
2.135
2.12504
2.11566
2.39061
2.38381
1.90281
2.14294
2.13944
2.12308
2.11811
2.39288
2.39619
1.95576
2.16944
2.23656
2.47927
2.23132
2.16106
1.98029
1.95471
2.47728
2.23441
2.16805
1.95968
2.23063
2.16284
1.58779
2.02928
2.07101
1.71477
1.73592
1.60237
2.00985
1.44576
1.64858
1.40319
1.683
1.43196
1.68603
1.42244
2.01695
1.73967
1.60122
2.05933
1.80878
2.02708
2.09439
1.53329
1.73101
1.53179
1.78333
1.77636
2.01464
2.0353
1.65322
2.11274
2.10891
2.08201
1.85273
1.82217
2.06143
1.56507
2.0625
1.82355
1.78458
1.5565
1.82026
1.78309
1.92656
2.00017
1.87341
2.21207
2.40043
2.38914
2.24053
1.86581
2.02261
1.88609
2.21601
2.41237
2.23775
2.39534
3.07985
2.36643
2.62967
2.37913
2.71008
3.07673
2.70608
2.39136
2.76068
2.39291
2.72419
3.17541
3.16707
2.72509
2.75785
2.39784
2.39342
2.72317
3.17156
2.72763
3.16498
2.63506
2.3921
2.38595
2.71323
3.09412
2.72029
3.08102
2.15032
2.34993
2.34657
2.58253
2.57671
2.81124
2.82348
2.16655
2.35238
2.34566
2.58922
2.57725
2.80582
2.81422
2.18402
2.39681
2.07826
2.37253
2.81199
2.78848
2.40751
2.39221
2.07572
2.0589
2.37252
2.82203
2.39572
2.7969
2.61515
2.90784
2.60683
3.12831
3.52547
3.50378
3.14822
2.90224
2.6056
2.6013
3.11958
3.50538
3.12637
3.49656
3.67114
3.13835
3.71395
4.47942
3.70678
3.66555
3.1419
3.13985
4.48311
3.72006
3.68442
3.149
3.70835
3.66953
2.65686
3.59739
3.23145
2.92884
2.67875
3.20819
2.91168
2.64922
3.21057
2.91752
3.59596
3.20068
2.90828
2.66772
3.97233
3.17341
3.1597
3.45626
4.41246
3.46751
4.39852
1.96599
2.33966
4.83207
2.61301
1.72012
2.34522
2.59886
4.84364
1.71284
1.93224
1.70913
1.93829
1.97277
2.25524
2.25191
1.71396
1.9812
1.95158
1.94413
1.9766
2.25792
2.26398
2.85056
2.85072
2.33702
3.33177
2.70039
2.70058
3.33076
2.2186
3.07767
2.58387
2.58384
2.22393
2.61276
3.07533
2.8562
2.3412
2.85142
2.70199
3.33901
2.70783
3.3322
2.58782
2.23794
2.22894
2.61519
3.08912
2.62337
3.07838
1.62522
2.26642
1.99691
2.44856
1.40455
1.56378
1.73512
2.29584
2.49773
2.43018
2.08845
1.85012
1.84315
1.74318
2.2689
1.55346
1.50054
1.49158
1.53331
1.53266
1.63303
1.62682
1.76487
2.00055
1.55915
1.57312
1.70546
1.87241
1.7514
2.2197
1.76515
1.72613
1.79022
2.0021
2.03869
1.9366
1.55551
1.52676
1.5234
1.70081
1.77057
1.70657
1.76061
1.73653
1.59943
1.6089
1.77042
1.93963
1.76989
1.93591
1.97814
1.89036
2.10089
2.27781
1.9199
2.11204
1.99051
1.89651
2.28574
2.0107
2.12822
1.90407
2.12143
2.00097
3.96712
3.1687
3.78508
3.16736
4.82916
3.78275
3.96524
3.16932
4.83216
3.97657
3.79619
3.17734
3.78562
3.96747
4.43989
3.48758
3.17718
3.97648
3.16246
3.46378
4.40722
5.02207
4.39962
3.89908
3.8692
5.7639
4.9827
4.37059
3.8591
5.75118
4.98239
4.37286
3.8688
4.97071
4.36191
5.6569
7.949
8.49342
6.36644
6.76089
7.63722
9.84339
5.04213
3.91462
4.41939
4.03498
6.0298
5.20855
4.54672
6.74329
9.41106
9.11577
10.4821
8.2451
8.44161
7.4244
5.81474
5.36576
4.84687
6.04675
8.31877
6.76099
7.36673
4.49096
6.34612
4.90653
6.61669
5.24407
5.78739
7.56252
6.72223
7.15987
5.90896
6.7358
9.80306
7.63726
8.38024
6.48549
6.97635
5.69703
6.40096
9.39929
7.26448
8.08724
6.40372
6.99047
7.80182
7.14638
8.06313
8.60867
9.94255
4.8833
4.92017
4.39987
5.52898
6.9184
6.13307
6.20057
4.28552
6.20507
5.32051
6.46356
4.73103
5.5628
4.82048
4.60835
6.07146
6.33809
6.59617
5.37811
5.44186
5.2295
6.24714
6.89259
5.55126
6.31617
9.30596
7.08728
8.03655
7.1832
6.70712
5.8651
6.71056
9.95475
7.65128
8.5033
6.79938
9.21887
8.29811
9.56209
8.52217
10.5555
11.9909
5.30802
7.91177
7.76865
8.39995
6.54235
6.47051
6.26442
9.74533
8.94388
8.12741
11.7997
9.83157
11.1217
13.7627
9.92502
8.0821
6.6862
9.92955
12.5238
9.91418
8.07227
8.16054
8.25648
6.76872
10.1129
12.843
10.002
8.13084
10.4416
7.86882
8.48796
6.39794
6.59317
5.1823
6.08796
8.15764
8.11131
6.67791
8.17172
10.2338
10.0746
13.0352
5.30944
5.24902
4.6799
5.89848
7.62359
6.6456
6.71901
11.7485
10.477
13.5026
9.37876
10.5824
7.57144
8.46626
8.32749
6.84689
8.80725
10.5714
15.0466
11.4532
8.50826
8.30626
10.4665
13.8902
8.53047
10.8726
6.87127
8.46458
7.63262
11.3724
9.77233
11.2789
8.61481
8.64398
9.74709
8.25049
11.582
9.19742
12.1215
9.93385
11.3259
14.4246
8.14552
11.2743
9.17812
11.8005
9.83282
11.5097
14.2696
7.07056
9.82043
8.70927
10.4718
9.11508
11.4804
13.5515
7.4139
7.85416
6.20848
6.96002
11.4602
9.22216
8.49227
7.24318
6.12899
5.43323
6.45116
10.7168
8.80476
7.34172
6.87468
7.39748
5.94162
6.75865
10.3918
7.81072
8.6455
8.45209
8.57638
7.03185
8.73381
14.1622
10.791
11.0696
8.25523
12.2655
9.57317
12.0653
9.91282
11.8193
15.3149
7.17102
9.16571
10.8005
10.836
8.0478
8.13407
9.34374
12.1814
9.77542
10.7733
12.4175
18.1893
15.7592
13.9515
2.6642
3.51881
15.387
4.25791
17.0054
41.0419
15.1818
76.2565
0.0049478
5.72181
35.5364
2.23298
2.79532e-07
4.61967
31.3376
0.0479556
1.75254e-08
5.27432e-12
3.57852
44.0356
62.1971
3.81896e-05
7.54825e-11
2.22045e-16
43.5282
13.5957
7.81564e-06
4.46836e-10
2.22045e-16
2.22045e-16
0.0375159
3.38672e-07
2.34884e-11
2.22045e-16
2.22045e-16
2.22045e-16
3.89423e-07
1.20622e-12
2.22045e-16
2.22045e-16
2.22045e-16
2.22045e-16
1.54189e-13
2.22045e-16
2.22045e-16
2.22045e-16
2.22045e-16
2.22045e-16
3.24551
2.16969
2.43809
1.95364
3.08371
2.40847
3.30639
12.5996
9.33631
4.65477
3.26129
9.28803
5.73255
12.5704
3.69014
11.9563
5.70717
3.0644
7.64007
6.08636
11.9438
3.57005
11.1501
21.3868
5.18058
11.1781
10.2304
21.3845
7.11765
4.71732
3.19256
2.79957
4.34369
4.76251
10.2196
2.16914
1.96615
2.00486
2.33495
2.35889
2.29159
2.38749
1.94536
1.9978
1.98664
2.33223
2.30572
2.35322
2.28611
2.23965
2.39059
2.1398
2.46947
2.75984
2.73802
2.50602
2.38746
2.14285
2.12695
2.47339
2.77481
2.49606
2.74967
3.05079
3.66399
3.04701
3.65848
3.68637
4.5145
4.51958
3.05107
3.67868
3.70407
3.66298
3.6904
4.51931
4.53607
41.2559
6.88292
6.8943
6.88623
15.2534
8.50493
40.7857
3.57148
4.25755
4.24821
4.66998
4.65993
5.73525
5.74923
3.57146
4.66053
4.24819
4.24612
4.65758
5.73272
5.73912
3.78005
3.97444
3.27235
3.25839
3.76828
3.95532
4.63998
3.25393
3.77537
3.76634
3.95972
3.95015
4.63782
4.64874
3.85218
2.79011
3.29038
2.76491
3.28172
3.18768
3.85434
2.77408
3.32097
3.29342
3.23165
3.20354
3.86916
3.90137
3.0367
3.08791
2.71064
2.68905
3.03536
3.08919
2.64173
8.57145
11.7146
3.77481
3.59371
5.88983
4.73677
6.49567
2.70131
3.05446
2.67649
3.13989
2.727
3.10985
2.65154
15.0464
0.196829
4.26342e-09
28.5178
1.25529e-05
1.03886e-11
29.0282
0.000475226
2.60703e-09
17.1891
0.321108
5.67653e-09
73.1769
1.61605e-06
1.44081e-10
2.22045e-16
35.0484
0.0454056
9.50682e-07
2.71877e-12
5.86677
33.9123
43.2471
7.22676
87.0872
85.806
110.403
0.00313374
0.000359715
7.2247
41.854
4.50432e-07
1.0417e-08
7.61975
77.0556
1.95112e-05
2.25147e-08
3.84608e-14
8.48814
25.847
88.2767
1.13276e-08
1.17693e-13
2.22045e-16
0.028739
0.000113518
4.54238e-13
2.22045e-16
2.22045e-16
1.59131e-08
4.74909e-14
2.22045e-16
2.22045e-16
2.22045e-16
1.64613e-14
2.22045e-16
2.22045e-16
2.22045e-16
2.22045e-16
2.22045e-16
2.22045e-16
2.22045e-16
2.22045e-16
2.22045e-16
3.44059
16.2298
15.9297
4.87718
17.6036
40.9636
54.3756
75.5979
0.00517633
3.85828
36.0208
1.51133
4.05253e-08
4.26664
31.9687
59.9226
9.21838e-07
5.37461e-13
4.79016
44.4362
61.5946
5.57557e-05
1.97594e-11
2.22045e-16
42.9732
11.6681
5.78081e-06
1.3539e-10
2.22045e-16
2.22045e-16
42.6148
0.00520528
7.44594e-12
2.22045e-16
2.22045e-16
2.22045e-16
1.79945e-07
1.2894e-13
2.22045e-16
2.22045e-16
2.22045e-16
2.22045e-16
1.14163e-14
2.22045e-16
2.22045e-16
2.22045e-16
2.22045e-16
2.22045e-16
7.3422
24.7826
40.1289
9.31162e-05
8.80128e-11
40.5883
0.00413055
1.74259e-10
2.22045e-16
2.22045e-16
2.22045e-16
2.22045e-16
2.22045e-16
2.22045e-16
2.22045e-16
9.82789e-13
2.22045e-16
2.22045e-16
2.22045e-16
2.22045e-16
2.22045e-16
2.22045e-16
4.61995e-06
1.20482e-10
7.38999e-16
2.22045e-16
2.22045e-16
2.22045e-16
2.22045e-16
50.7645
0.0443171
8.12403e-09
2.40241e-13
2.22045e-16
2.22045e-16
2.22045e-16
15.448
62.1526
92.8638
3.63236e-06
5.40132e-13
2.22045e-16
2.22045e-16
4.50242
9.06259
40.521
107.192
4.07011e-06
7.21991e-13
2.22045e-16
4.3461
8.2972
32.9635
109.943
1.41656e-06
1.39571e-15
4.38169
8.50365
40.3181
99.4981
5.05297e-09
4.71064
13.0817
65.6725
0.000339016
2.22045e-16
2.22045e-16
2.22045e-16
2.22045e-16
2.22045e-16
2.22045e-16
2.22045e-16
9.18283e-16
2.22045e-16
2.22045e-16