/*--------------------------------*- C++ -*----------------------------------*\
  =========                 |
  \\      /  F ield         | OpenFOAM: The Open Source CFD Toolbox
   \\    /   O peration     | Website:  https://openfoam.org
    \\  /    A nd           | Version:  9
     \\/     M anipulation  |
\*---------------------------------------------------------------------------*/
FoamFile
{
    format      ascii;
    class       volScalarField;
    location    "0.00065";
    object      alpha.c4;
}
// * * * * * * * * * * * * * * * * * * * * * * * * * * * * * * * * * * * * * //

dimensions      [0 0 0 0 0 0 0];

internalField   nonuniform List<scalar> 
6433
(
6.27463e-24
7.54769e-24
4.07224e-25
1.67724e-27
3.10541e-27
1.82403e-25
2.32459e-25
3.73933e-26
1.07858e-27
2.1076e-27
6.88513e-24
2.50083e-25
7.811e-26
2.17525e-27
5.76574e-28
2.48246e-24
1.36469e-26
9.86408e-28
8.84285e-29
6.8437e-30
3.35959e-26
5.45539e-29
3.60333e-31
9.94197e-33
1.26461e-29
8.26937e-29
1.04855e-27
3.11437e-27
8.19208e-29
1.05119e-27
1.2528e-29
1.93424e-25
4.35779e-27
6.10755e-25
1.81978e-25
4.24454e-27
6.12876e-25
2.0154e-25
1.97387e-25
9.02736e-26
6.1892e-27
7.81643e-25
3.99644e-27
7.56717e-25
2.25786e-25
1.95567e-25
6.44567e-27
8.40073e-25
2.47527e-25
2.35713e-25
5.73864e-27
8.17099e-25
8.35436e-26
3.54225e-26
1.93167e-27
2.48932e-25
1.68321e-27
2.71157e-25
7.26749e-26
8.40386e-27
5.03807e-28
4.68298e-26
1.27449e-26
2.3413e-26
2.57567e-28
3.84732e-26
9.66378e-28
7.42469e-28
1.61913e-29
2.77626e-27
2.17181e-29
3.6434e-27
4.39768e-28
2.23756e-29
1.49016e-30
1.7147e-28
4.54636e-29
6.10757e-29
7.09676e-31
1.1722e-28
1.12065e-32
7.66669e-31
2.15416e-28
3.29628e-28
5.8591e-30
1.0345e-29
4.65184e-27
7.95016e-30
3.20884e-28
4.72718e-26
1.73966e-29
1.03055e-29
4.85742e-27
1.50479e-27
5.03285e-26
1.73853e-29
1.66227e-26
2.6213e-28
1.74335e-29
2.69892e-27
2.18012e-28
1.01683e-30
3.85341e-29
3.32834e-31
6.70307e-32
1.73577e-29
5.91543e-30
6.95309e-32
1.75156e-29
3.24576e-31
5.20288e-31
1.02902e-29
1.39382e-31
2.80762e-29
1.34412e-31
2.47249e-29
6.20101e-31
1.59018e-29
2.91792e-27
1.4374e-28
1.3347e-27
9.8465e-29
1.11211e-27
1.97731e-29
4.92899e-31
1.35176e-31
2.88965e-29
1.02265e-29
6.1936e-31
1.2893e-31
2.42534e-29
1.57282e-29
1.45649e-28
1.46286e-27
4.75336e-27
2.06259e-29
1.32533e-28
1.11647e-27
7.37271e-30
1.08176e-27
4.29668e-29
5.21586e-28
3.90768e-29
5.3201e-28
7.00626e-30
1.01878e-30
1.01147e-29
8.65033e-29
2.36181e-28
1.29046e-30
5.80548e-30
8.12166e-29
1.00762e-31
1.61688e-29
3.69578e-31
6.17075e-30
4.92662e-31
6.92345e-30
7.20235e-32
1.801e-30
1.36768e-30
1.92103e-31
2.72842e-30
4.03733e-32
4.46822e-30
7.97672e-31
4.83254e-30
7.11145e-31
5.53497e-32
8.98823e-30
1.77904e-29
3.36758e-30
1.09742e-28
5.48428e-31
3.97314e-32
1.45673e-30
2.20362e-31
3.46389e-30
4.28062e-32
9.8486e-30
4.67961e-32
1.01936e-29
2.03292e-31
2.81684e-32
7.53551e-33
1.6244e-30
5.15586e-31
3.74487e-32
6.11926e-33
1.46699e-30
2.94623e-33
4.44196e-32
4.40822e-34
1.07722e-31
6.17201e-34
1.29389e-31
1.92136e-33
3.16305e-32
5.11198e-33
8.74924e-30
7.69489e-30
2.87187e-31
1.82029e-33
4.67944e-33
1.17747e-28
2.65081e-30
2.26401e-32
1.70248e-34
2.68709e-33
1.01919e-34
1.81107e-29
3.92146e-32
4.90896e-34
1.91876e-33
3.00859e-32
4.68538e-31
1.92597e-28
9.72893e-28
6.92271e-35
7.14355e-35
2.39133e-33
1.26724e-33
3.05187e-35
1.6044e-34
5.22441e-33
2.25793e-31
1.90353e-30
1.78195e-29
1.94e-31
8.27351e-32
2.08948e-30
4.1372e-31
9.5847e-30
5.99977e-30
4.46467e-29
2.37313e-30
1.41003e-31
3.14061e-29
8.75703e-31
9.23738e-29
9.33415e-30
7.81068e-32
2.32392e-33
4.55932e-35
3.12148e-35
6.60445e-33
1.99437e-33
1.42964e-34
2.06926e-35
3.0784e-33
2.90964e-33
3.42639e-31
2.31414e-32
2.52014e-31
2.33911e-34
2.61035e-32
3.26298e-32
4.39301e-33
1.19583e-33
7.21708e-33
1.12017e-32
1.03487e-30
1.17131e-29
1.27549e-33
3.60126e-31
7.7402e-31
1.50574e-32
1.07697e-31
1.95891e-26
3.51274e-24
1.20397e-25
1.25318e-23
1.45755e-25
3.39994e-26
4.40935e-26
3.79052e-28
1.5277e-27
5.82666e-28
1.7253e-27
1.32041e-23
4.60885e-24
5.22307e-24
5.97183e-22
9.14789e-22
5.73285e-22
8.62962e-22
2.22426e-26
1.41019e-28
8.62874e-31
2.20477e-28
1.8615e-30
1.33681e-32
2.29292e-27
1.23012e-27
2.32538e-26
1.15733e-25
1.65051e-28
1.24567e-27
1.12602e-28
7.24526e-28
4.88602e-30
1.18059e-29
2.51476e-28
1.14067e-26
5.41851e-27
3.79185e-28
1.1016e-27
6.66158e-29
1.99738e-29
3.57911e-27
1.43267e-31
9.601e-34
5.71982e-36
3.09544e-38
1.53968e-40
7.15354e-43
7.33588e-31
4.6121e-33
2.67419e-35
2.36029e-32
1.80139e-34
1.20654e-36
2.2452e-34
1.87975e-36
1.36679e-38
1.78305e-36
1.57787e-38
1.21221e-40
1.43017e-37
7.09562e-40
3.3044e-42
7.23688e-39
3.95365e-41
2.00493e-43
8.834e-41
5.1735e-43
2.80269e-45
8.27419e-43
5.1156e-45
2.92474e-47
2.49946e-20
1.92634e-22
1.16212e-24
6.60575e-27
3.64064e-29
4.70762e-33
9.62529e-26
6.10662e-26
2.72273e-24
1.28307e-23
8.36179e-27
3.58994e-26
6.27588e-27
6.61659e-25
3.74328e-25
4.36648e-25
5.57241e-25
4.58639e-25
1.46661e-25
1.94178e-26
1.90993e-24
2.96868e-24
1.10227e-24
3.58228e-24
1.30197e-21
5.24729e-21
1.36461e-21
1.29904e-21
1.35992e-21
3.81354e-21
4.75021e-21
3.81178e-21
2.95656e-22
1.17416e-21
3.4525e-23
2.28839e-23
2.5409e-23
2.95488e-23
1.00461e-22
1.3984e-22
6.6547e-23
1.71545e-22
8.13779e-26
1.90502e-24
8.75937e-26
8.11945e-26
8.80648e-26
5.7052e-25
3.9322e-25
9.19727e-22
1.89852e-22
2.17587e-20
1.0634e-23
5.7456e-25
4.23969e-22
9.40396e-24
1.88922e-22
4.16252e-22
2.37598e-22
2.16178e-20
1.14351e-23
1.08049e-23
1.16254e-23
3.92822e-25
6.89516e-31
6.49645e-25
8.45843e-27
1.65884e-29
1.42558e-30
1.11857e-31
3.46812e-31
2.55313e-29
6.11939e-30
1.45997e-29
3.53933e-28
4.80098e-28
5.2035e-28
3.55855e-28
4.42076e-23
2.6693e-25
2.51511e-23
2.58694e-23
2.63441e-25
1.04438e-24
3.80738e-26
3.78328e-26
2.8349e-29
3.92466e-29
2.81935e-29
2.11951e-29
6.62172e-28
4.8944e-28
6.06252e-30
6.98001e-31
8.3995e-31
5.08585e-31
1.48566e-30
2.27325e-30
1.45872e-32
9.04147e-35
6.00592e-32
3.99321e-34
2.52784e-36
1.9787e-26
8.05627e-26
1.99441e-24
2.18077e-27
1.36413e-27
1.59392e-27
1.9042e-27
8.83149e-27
1.59682e-26
6.62742e-27
2.07142e-26
6.5191e-28
2.91719e-27
1.49172e-26
7.09531e-26
6.99238e-28
6.40759e-28
6.8808e-28
4.22615e-27
2.92417e-27
4.27669e-27
1.49561e-26
5.26416e-26
7.81592e-28
5.2649e-26
7.2399e-30
6.7125e-24
4.42756e-22
2.1437e-25
1.00201e-23
6.20666e-30
2.74024e-29
1.81968e-28
8.36683e-28
6.72491e-30
5.68056e-31
4.3457e-31
4.25939e-29
2.22969e-29
2.79987e-29
3.55836e-29
3.55318e-29
7.17561e-30
2.13448e-30
1.60378e-28
3.49501e-28
1.10239e-28
4.27405e-28
2.12773e-25
1.34986e-25
1.34439e-25
3.10713e-27
2.34725e-27
1.06802e-27
1.04519e-27
9.96724e-24
1.37943e-25
1.68766e-25
7.90067e-26
7.90834e-26
1.52333e-23
1.26729e-23
8.03855e-28
6.27783e-32
1.37881e-28
6.79819e-28
9.76649e-30
1.3796e-30
2.68997e-30
1.9271e-32
4.83424e-31
8.68662e-31
3.32728e-31
3.57334e-30
1.75943e-29
1.1367e-29
1.32086e-29
1.55143e-29
6.43038e-29
1.19999e-28
5.01625e-29
1.58882e-28
4.03652e-26
1.85074e-27
1.2702e-27
2.49541e-28
6.53484e-30
2.39331e-29
2.31246e-30
2.35481e-29
3.46765e-28
3.83279e-26
2.21844e-28
1.31883e-30
7.81582e-33
3.02137e-24
1.77422e-26
4.93014e-30
3.4105e-28
1.02503e-28
3.218e-32
2.25659e-30
5.858e-31
2.03589e-34
1.43149e-32
2.38636e-24
6.42453e-24
2.43415e-22
2.86222e-25
1.81905e-25
2.11582e-25
2.50201e-25
6.10448e-23
1.50517e-24
3.38164e-24
1.50108e-24
3.3315e-24
2.96635e-27
4.55416e-27
4.12463e-33
8.4824e-31
8.4241e-35
1.98399e-34
1.23302e-34
1.42447e-32
4.40601e-32
4.66237e-33
2.34819e-32
1.67956e-28
1.41231e-26
3.21327e-30
6.41849e-30
9.6784e-31
5.0467e-30
3.12118e-28
2.37139e-28
5.27493e-28
3.99012e-28
2.3984e-26
2.38807e-26
8.15099e-38
1.86157e-35
2.7744e-38
4.6987e-36
6.93629e-42
2.52347e-43
1.37111e-42
5.32945e-44
2.10378e-37
5.58518e-39
1.47759e-38
3.24175e-35
1.03398e-39
2.09118e-38
1.37155e-36
4.36447e-35
5.16533e-36
5.19186e-36
4.72104e-36
5.00886e-43
2.56501e-43
1.04275e-42
9.3603e-45
1.16213e-42
1.06897e-44
4.3021e-43
1.23004e-43
2.62673e-43
2.75566e-45
4.96572e-44
1.3885e-43
2.22523e-43
2.34604e-45
3.91122e-36
6.96007e-37
6.84371e-37
8.42512e-35
2.8086e-34
8.68553e-34
1.26146e-34
1.42541e-37
2.12526e-37
1.4318e-37
2.47322e-39
5.23539e-39
2.12033e-39
5.79045e-39
4.7846e-35
3.25684e-35
4.83971e-35
1.14276e-44
1.18581e-44
5.15527e-45
1.93446e-43
1.93031e-43
1.13734e-44
1.95709e-43
1.79744e-43
1.18442e-44
6.25065e-44
5.83031e-47
8.84107e-46
7.037e-45
1.13435e-44
8.76756e-46
3.16384e-45
1.14759e-46
5.56432e-47
8.27331e-46
7.01138e-45
1.17522e-44
1.12604e-46
8.13393e-46
3.00782e-45
3.26967e-47
3.90496e-46
2.19305e-45
3.67273e-45
3.70639e-47
3.07046e-46
2.13588e-45
5.76087e-47
1.12904e-44
8.32416e-46
7.01848e-45
8.36364e-46
3.1514e-45
1.13688e-46
5.53357e-47
1.37422e-44
6.86957e-46
6.37195e-45
7.78233e-46
3.0525e-45
9.96099e-47
2.4299e-40
2.77078e-38
2.54277e-38
2.55038e-38
5.86271e-40
3.71688e-40
4.27838e-40
5.26016e-40
1.16906e-31
4.57113e-33
1.23163e-31
1.17416e-31
1.23749e-31
1.12741e-31
2.82455e-30
6.46347e-33
4.59137e-33
6.55257e-33
1.04348e-33
8.92308e-33
2.04874e-30
1.11409e-33
1.04857e-33
1.12001e-33
2.74758e-32
5.9058e-32
1.11653e-39
1.02663e-36
1.03904e-37
3.20608e-37
1.05687e-36
1.37837e-38
3.00026e-39
9.29851e-30
3.86606e-31
9.77556e-30
9.324e-30
9.80622e-30
9.22071e-30
2.20141e-28
5.42068e-31
3.87678e-31
5.49154e-31
2.18068e-28
7.96802e-30
5.54448e-39
4.95672e-41
3.21921e-40
1.42527e-39
1.15426e-38
6.82013e-39
8.3074e-39
1.3184e-40
2.72063e-39
1.17614e-38
4.14429e-43
6.52542e-43
3.66004e-41
5.47225e-41
8.67551e-43
3.78013e-41
3.7112e-43
1.91331e-42
3.08386e-40
5.13606e-42
1.82335e-40
4.79028e-42
1.82163e-40
1.92454e-42
7.31989e-43
2.18913e-42
7.266e-41
1.08986e-40
7.86688e-43
1.59202e-42
7.12866e-41
2.97364e-41
3.20304e-37
3.455e-41
2.85654e-37
1.35304e-42
1.06449e-38
1.268e-42
1.29501e-40
3.1343e-38
1.98452e-44
2.60674e-44
7.28363e-43
1.10471e-42
5.37313e-43
3.37129e-41
6.09632e-43
9.46869e-42
4.32073e-39
4.3323e-41
1.20401e-39
1.21759e-44
6.71806e-45
4.46493e-43
2.66242e-43
2.26764e-41
3.33049e-43
2.98447e-41
1.76459e-43
8.22365e-42
3.8462e-39
1.09205e-41
9.42279e-40
1.05442e-39
5.74574e-39
4.59355e-46
2.44293e-46
1.34366e-44
8.26561e-42
6.76389e-45
1.27887e-44
1.02687e-42
5.26556e-45
2.71231e-43
1.19301e-40
1.37912e-40
4.48631e-40
2.75606e-43
3.67057e-41
1.23367e-40
5.39337e-45
7.6665e-41
4.30965e-44
2.91795e-40
1.378e-43
2.82963e-44
2.25925e-41
1.39026e-42
2.02639e-42
5.6255e-42
2.03567e-40
3.4025e-41
1.23046e-40
5.06033e-34
6.79163e-32
1.07195e-35
5.44938e-39
7.23401e-34
1.15324e-35
1.96981e-38
1.30096e-34
1.23363e-46
2.63784e-46
1.28623e-44
1.64145e-44
1.8992e-46
1.28986e-44
1.23213e-46
1.48116e-46
2.60903e-44
3.66096e-46
1.50412e-44
3.66124e-46
1.50781e-44
1.47053e-46
1.20714e-44
7.06555e-45
1.09426e-42
4.15667e-43
3.75303e-45
6.65704e-43
1.58274e-44
5.00942e-44
1.10426e-42
1.14575e-44
3.00499e-42
1.14192e-44
2.99677e-42
5.01005e-44
7.62274e-47
1.58493e-46
8.09416e-45
1.01114e-44
7.9222e-47
1.1954e-46
8.00935e-45
4.11661e-47
6.80665e-45
1.05387e-46
4.17927e-45
1.01537e-46
4.23902e-45
3.94306e-47
2.16147e-44
4.42065e-45
1.60632e-42
2.18222e-43
2.4319e-44
2.33629e-45
1.40111e-42
4.35944e-45
2.67674e-43
2.53617e-45
3.19423e-43
2.5928e-45
3.35903e-43
3.63298e-45
7.68277e-44
2.46849e-41
3.32619e-43
5.37841e-42
4.16434e-43
5.93184e-42
5.6679e-44
2.69304e-48
7.53982e-48
3.23976e-46
3.6017e-46
3.65626e-48
3.99252e-48
2.93787e-46
1.31575e-48
1.85949e-46
8.77991e-48
1.74949e-46
2.71997e-48
1.27924e-46
4.67682e-48
4.08158e-46
1.70119e-46
6.06399e-44
7.33441e-45
8.80963e-46
7.17311e-47
3.08058e-44
1.19765e-44
1.36518e-43
2.92606e-42
4.4417e-42
2.96321e-44
5.92251e-44
1.07654e-42
9.76982e-47
6.361e-45
9.12998e-47
7.91094e-45
5.9097e-47
8.32461e-45
1.54106e-46
2.08386e-44
4.91124e-46
4.75386e-45
2.67382e-44
2.78719e-46
3.69897e-44
2.09295e-44
1.90707e-42
1.83863e-42
2.63475e-40
6.26035e-41
3.18568e-42
1.50552e-42
1.68827e-40
4.98691e-43
2.68292e-45
4.70391e-44
1.58553e-43
6.21254e-45
1.96608e-43
2.67757e-43
4.34123e-41
1.05262e-41
1.5204e-39
8.18786e-40
1.75647e-41
1.82127e-41
3.63848e-39
1.39157e-32
2.18719e-32
1.8709e-34
3.10474e-33
9.07817e-33
3.36581e-32
2.48e-33
2.3308e-35
3.84556e-36
5.37803e-37
8.59538e-35
3.51655e-37
6.39392e-35
2.5881e-35
3.38725e-39
1.70475e-40
5.37727e-39
1.47097e-38
1.98776e-36
8.31535e-37
7.4379e-37
2.09005e-38
4.84599e-39
3.99249e-37
1.45245e-38
8.80456e-37
3.76982e-37
1.26424e-35
1.28041e-37
5.83987e-38
1.31518e-36
2.96038e-37
6.44532e-36
4.266e-36
5.86341e-44
8.81386e-40
5.08211e-44
7.85582e-40
1.69702e-45
2.76454e-41
1.1452e-44
5.33835e-43
1.50214e-47
1.39928e-45
4.59351e-46
4.50799e-46
1.13497e-41
1.88851e-44
3.10222e-42
3.33835e-47
1.16225e-47
1.19908e-45
3.44433e-46
9.66399e-46
3.64591e-46
1.00534e-41
1.4543e-44
2.72943e-42
1.17575e-48
8.6742e-49
4.05663e-47
1.70645e-47
3.30392e-47
1.94868e-47
3.42608e-43
5.44767e-46
9.19927e-44
2.15908e-47
3.61342e-46
5.5008e-46
8.38647e-45
1.02707e-49
1.50759e-47
2.10564e-49
1.0654e-47
2.12678e-49
1.06827e-47
1.01805e-49
1.61004e-47
1.32208e-47
1.521e-45
1.39208e-45
1.30128e-47
1.51423e-45
1.57904e-47
7.4634e-48
4.60822e-46
4.49854e-48
6.04447e-46
4.54441e-48
6.06584e-46
7.37128e-48
5.25958e-50
5.3283e-49
2.20383e-47
2.85935e-47
2.01629e-49
4.714e-49
4.98356e-48
2.82759e-50
1.18275e-47
1.67988e-49
8.37455e-48
1.80139e-49
2.91502e-48
7.61691e-50
1.29706e-47
1.11362e-47
1.27683e-45
1.19831e-45
1.28759e-47
1.11132e-47
1.27454e-45
4.30143e-48
3.5315e-46
3.20061e-48
3.83471e-46
3.46767e-48
3.93292e-46
3.95994e-48
1.64211e-51
2.10637e-50
7.87359e-49
8.56873e-49
8.32009e-51
1.39134e-50
1.60952e-49
5.12372e-51
6.34237e-49
3.72209e-50
6.43259e-49
9.86334e-51
4.93007e-49
1.41423e-50
4.0584e-49
4.14187e-49
4.38038e-47
3.8081e-47
4.97831e-49
3.39502e-49
4.0768e-47
1.78276e-49
1.38337e-47
3.68626e-49
1.97078e-47
1.44365e-49
1.50887e-47
8.39236e-49
6.43546e-47
2.61451e-48
1.64025e-47
1.16946e-46
8.00787e-49
2.28811e-46
5.59905e-47
4.8761e-45
1.98513e-47
4.43346e-46
1.29356e-45
5.82706e-47
1.55815e-45
2.83531e-45
6.4595e-43
1.29598e-40
2.39039e-38
2.50817e-36
3.61774e-34
2.96988e-32
4.12595e-30
5.52825e-45
9.8749e-43
1.5339e-40
1.86973e-38
2.30965e-36
2.26235e-34
2.55058e-32
3.83571e-47
6.41028e-45
9.47031e-43
1.20964e-40
1.44681e-38
1.5208e-36
1.59896e-34
2.3871e-49
3.83937e-47
5.57673e-45
7.26523e-43
8.71678e-41
9.49674e-39
9.80234e-37
1.02263e-46
1.75414e-44
2.67127e-42
3.49964e-40
4.41072e-38
5.07306e-36
5.77515e-34
1.35287e-48
2.44445e-46
4.36028e-44
5.95461e-42
7.66713e-40
8.99462e-38
9.51056e-36
8.12476e-49
1.33413e-46
1.98263e-44
2.65672e-42
3.34068e-40
3.85464e-38
4.18836e-36
1.27814e-50
2.16522e-48
3.39744e-46
4.66041e-44
5.94063e-42
6.87643e-40
7.11088e-38
5.65275e-51
9.0236e-49
1.32521e-46
1.78649e-44
2.23806e-42
2.57528e-40
2.72355e-38
9.95456e-53
1.60924e-50
2.40856e-48
3.27841e-46
4.1242e-44
4.71887e-42
4.83503e-40
4.68198e-41
1.02987e-38
1.59631e-36
1.95935e-34
1.40802e-36
7.80046e-39
3.79511e-41
1.60752e-43
6.06251e-46
1.25042e-36
6.89257e-39
3.32768e-41
1.39636e-43
5.21385e-46
5.22106e-38
3.00884e-40
1.51221e-42
6.57542e-45
2.53853e-47
5.91395e-40
3.39035e-42
1.71598e-44
7.93064e-47
3.41228e-49
3.32671e-39
2.5218e-41
1.63328e-43
9.41113e-46
4.98198e-48
1.53889e-37
9.41311e-40
5.39718e-42
2.89103e-44
1.45859e-46
1.62626e-34
9.55555e-37
5.34478e-39
2.82827e-41
1.41723e-43
6.78136e-46
6.65271e-34
5.73055e-36
4.19531e-38
2.73779e-40
1.63085e-42
9.00762e-45
4.68944e-47
5.7871e-36
5.66175e-38
4.65836e-40
3.35972e-42
2.18308e-44
1.30293e-46
7.27954e-49
4.3622e-38
4.58576e-40
4.06718e-42
3.15215e-44
2.19155e-46
1.39355e-48
8.26048e-51
6.53558e-47
1.07678e-48
2.47123e-49
6.2359e-51
1.39883e-51
4.86071e-49
1.66716e-46
5.31264e-44
1.51486e-41
4.82122e-39
9.12483e-52
3.0481e-53
1.40879e-53
4.6566e-51
1.49099e-48
4.49673e-46
1.27263e-43
3.4091e-41
3.2751e-54
1.34143e-55
1.10765e-55
3.50215e-53
1.06138e-50
3.01633e-48
7.93648e-46
1.88694e-43
1.13865e-56
5.45722e-58
7.21888e-58
2.17966e-55
6.25595e-53
1.67153e-50
4.08298e-48
8.84361e-46
3.83852e-59
2.08738e-60
4.07469e-60
1.17193e-57
3.18385e-55
8.00389e-53
1.82353e-50
3.64528e-48
3.88364e-47
6.51491e-49
1.45574e-49
3.71939e-51
1.17439e-51
4.16162e-49
1.44119e-46
4.63821e-44
1.33307e-41
4.26765e-39
5.3433e-52
1.80295e-53
1.18442e-53
3.95252e-51
1.27428e-48
3.87818e-46
1.108e-43
2.99337e-41
1.90904e-54
7.89001e-56
9.34135e-56
2.96019e-53
8.99824e-51
2.57455e-48
6.8352e-46
1.64064e-43
6.61144e-57
3.19714e-58
6.13214e-58
1.84387e-55
5.2831e-53
1.41594e-50
3.48222e-48
7.6102e-46
2.22131e-59
1.22019e-60
3.50198e-60
9.97442e-58
2.69129e-55
6.75483e-53
1.54385e-50
3.10727e-48
1.00798e-42
1.08316e-43
3.79476e-45
1.97226e-46
1.36483e-47
2.29793e-49
2.10898e-51
4.72882e-50
1.16683e-51
6.27106e-53
1.8254e-50
5.9313e-48
2.0337e-45
5.79467e-43
1.82722e-40
1.5851e-52
5.08192e-54
6.39938e-55
1.9415e-52
6.08405e-50
1.83685e-47
5.12624e-45
1.34881e-42
5.1637e-55
2.01988e-56
5.31815e-57
1.57272e-54
4.61527e-52
1.28287e-49
3.30234e-47
7.69279e-45
1.6413e-57
7.53562e-59
3.69935e-59
1.04397e-56
2.86333e-54
7.37801e-52
1.74911e-49
3.69794e-47
5.12131e-60
2.68623e-61
2.24024e-61
5.99542e-59
1.53842e-56
3.68483e-54
8.07056e-52
1.56443e-49
1.59179e-43
1.85983e-44
1.11177e-45
5.95017e-46
3.15085e-47
2.02526e-50
1.1937e-51
2.10286e-48
3.53362e-50
1.10079e-51
8.96461e-50
7.09396e-51
1.70513e-52
1.6754e-53
1.68936e-51
3.09972e-49
4.51059e-47
9.49595e-45
2.3201e-42
2.27836e-53
6.98829e-55
1.19965e-55
1.5938e-53
2.64356e-51
4.38597e-49
8.64069e-47
1.77771e-44
6.99596e-56
2.58038e-57
8.58516e-58
1.25129e-55
2.00856e-53
3.33009e-51
5.9846e-49
1.07058e-46
2.06371e-58
8.84147e-60
5.79785e-60
8.69595e-58
1.35746e-55
2.16117e-53
3.54441e-51
5.6358e-49
5.8947e-61
2.87408e-62
3.66972e-62
5.52915e-60
8.37723e-58
1.26614e-55
1.90315e-53
2.71927e-51
4.19096e-42
1.97043e-40
1.57849e-44
2.51476e-45
2.09247e-45
2.04932e-43
5.61632e-47
3.10605e-48
2.99247e-49
4.48954e-47
1.90156e-49
5.8684e-50
1.14819e-49
1.64254e-47
2.75304e-45
2.88364e-43
4.31308e-41
6.19757e-52
2.67389e-52
1.02114e-51
1.49841e-49
2.16962e-47
2.63049e-45
3.48441e-43
3.95265e-41
1.94206e-54
1.07219e-54
7.77991e-54
1.12677e-51
1.55322e-49
1.9513e-47
2.43935e-45
2.6815e-43
5.87283e-57
4.05158e-57
5.31269e-56
7.57297e-54
1.02017e-51
1.2849e-49
1.55292e-47
1.68596e-45
1.72025e-59
1.4364e-59
3.33181e-58
4.69046e-56
6.22991e-54
7.7823e-52
9.17305e-50
9.80864e-48
4.91398e-62
5.0128e-62
1.95779e-60
2.73285e-58
3.5928e-56
4.43547e-54
5.11141e-52
5.34684e-50
5.68678e-43
1.05701e-40
6.11733e-38
5.66208e-36
3.68964e-45
3.89232e-43
1.50161e-42
2.25869e-40
2.14434e-47
1.33754e-45
1.73166e-45
1.69903e-43
3.94503e-41
3.74707e-39
3.12282e-37
8.12879e-50
4.37319e-48
1.10838e-47
1.48075e-45
2.38868e-43
2.48493e-41
2.63332e-39
2.85696e-52
1.38644e-50
7.10236e-50
1.0006e-47
1.40987e-45
1.57686e-43
1.77064e-41
1.93754e-39
9.60254e-55
4.31501e-53
4.35365e-52
6.11731e-50
8.13985e-48
9.45042e-46
1.06856e-43
1.11301e-41
3.1449e-57
1.34629e-55
2.532e-54
3.50759e-52
4.54089e-50
5.34649e-48
6.0025e-46
6.13124e-44
1.01822e-59
4.32196e-58
1.39946e-56
1.91224e-54
2.43764e-52
2.87516e-50
3.19395e-48
3.22947e-46
3.30527e-62
1.46546e-60
7.41206e-59
1.00234e-56
1.26517e-54
1.48647e-52
1.63204e-50
1.63283e-48
1.00806e-44
1.85492e-42
3.07867e-40
3.83851e-38
4.80146e-36
5.50608e-34
9.49608e-47
1.59159e-44
2.04985e-42
2.72223e-40
3.50663e-38
4.18603e-36
4.79376e-34
6.89639e-49
1.04566e-46
1.32436e-44
1.83022e-42
2.40357e-40
2.91223e-38
3.26532e-36
4.31898e-51
6.2966e-49
8.29746e-47
1.16833e-44
1.54428e-42
1.87547e-40
2.07007e-38
1.99009e-36
2.52476e-53
3.64426e-51
5.00876e-49
7.06536e-47
9.29423e-45
1.12106e-42
1.22104e-40
1.16329e-38
1.42409e-55
2.06059e-53
2.90114e-51
4.0533e-49
5.26388e-47
6.26836e-45
6.74392e-43
6.40971e-41
7.78053e-58
1.13365e-55
1.60922e-53
2.21347e-51
2.82528e-49
3.31105e-47
3.5198e-45
3.34358e-43
4.12537e-60
6.03433e-58
8.54467e-56
1.15517e-53
1.44751e-51
1.66802e-49
1.75206e-47
1.66133e-45
2.11866e-62
3.10248e-60
4.36512e-58
5.80748e-56
7.1533e-54
8.11179e-52
8.41843e-50
7.94447e-48
1.37813e-50
2.47502e-48
4.36182e-46
6.06135e-44
7.85151e-42
9.2467e-40
9.72099e-38
8.6284e-36
1.1887e-52
2.09836e-50
3.6059e-48
5.01751e-46
6.47311e-44
7.59777e-42
7.97056e-40
7.24012e-38
9.14415e-55
1.58214e-52
2.64826e-50
3.65106e-48
4.65755e-46
5.41811e-44
5.66011e-42
5.19966e-40
6.47141e-57
1.10125e-54
1.77852e-52
2.41596e-50
3.03472e-48
3.48609e-46
3.6178e-44
3.34267e-42
4.31475e-59
7.33895e-57
1.10862e-54
1.48157e-52
1.83013e-50
2.07271e-48
2.13281e-46
1.9733e-44
2.67201e-61
4.4694e-59
6.47254e-57
8.52059e-55
1.03616e-52
1.15719e-50
1.17924e-48
1.08794e-46
1.56732e-63
2.52789e-61
3.57878e-59
4.65358e-57
5.58522e-55
6.16005e-53
6.21364e-51
5.69426e-49
1.55834e-52
2.62949e-50
4.11214e-48
5.65487e-46
7.18477e-44
8.27217e-42
8.47031e-40
7.46742e-38
1.57414e-54
2.61014e-52
4.00847e-50
5.46393e-48
6.86829e-46
7.84239e-44
8.0079e-42
7.17017e-40
1.37779e-56
2.23816e-54
3.36516e-52
4.52205e-50
5.60269e-48
6.32815e-46
6.43768e-44
5.8186e-42
1.07592e-58
1.71399e-56
2.52074e-54
3.3346e-52
4.06776e-50
4.5382e-48
4.58915e-46
4.16261e-44
7.64907e-61
1.19844e-58
1.72014e-56
2.24299e-54
2.69662e-52
2.97143e-50
2.98129e-48
2.70016e-46
4.98573e-63
7.69303e-61
1.08364e-58
1.39666e-56
1.65887e-54
1.80755e-52
1.79762e-50
1.619e-48
3.02106e-65
4.59549e-63
6.39307e-61
8.17032e-59
9.61571e-57
1.03806e-54
1.02318e-52
9.13618e-51
1.36384e-54
2.19026e-52
3.25627e-50
4.40132e-48
5.48014e-46
6.19592e-44
6.26566e-42
5.5593e-40
1.52998e-56
2.41914e-54
3.53923e-52
4.71786e-50
5.78893e-48
6.46571e-46
6.49619e-44
5.79607e-42
1.46316e-58
2.2746e-56
3.27034e-54
4.29245e-52
5.18673e-50
5.72258e-48
5.71494e-46
5.11407e-44
1.22796e-60
1.88006e-58
2.66046e-56
3.44282e-54
4.10175e-52
4.47256e-50
4.43449e-48
3.96271e-46
9.23551e-63
1.3962e-60
1.94875e-58
2.49322e-56
2.93595e-54
3.16778e-52
3.11535e-50
2.76914e-48
6.31034e-65
9.44451e-63
1.30485e-60
1.65585e-58
1.933e-56
2.06763e-54
2.0166e-52
1.77794e-50
3.98187e-67
5.91447e-65
8.11709e-63
1.0247e-60
1.18925e-58
1.2637e-56
1.22292e-54
1.06769e-52
1.79691e-44
1.03138e-43
5.08895e-44
5.97582e-45
3.96868e-46
5.10018e-45
1.30447e-47
4.22211e-53
1.13279e-42
4.62408e-44
1.05881e-44
3.01389e-45
9.42181e-47
1.39711e-44
8.28715e-45
1.00067e-45
6.37081e-47
3.07014e-48
1.28115e-53
8.88468e-46
2.02268e-48
3.85559e-50
3.39185e-53
2.61823e-49
1.28271e-47
1.5268e-51
3.39268e-51
2.34914e-49
2.30896e-48
2.80487e-50
1.52193e-49
1.2742e-43
1.70542e-42
4.42673e-41
1.4922e-40
1.43403e-41
4.40969e-40
4.18828e-37
3.15673e-36
3.78815e-39
3.01371e-38
7.16036e-42
2.26889e-47
1.07625e-45
3.7118e-41
2.62136e-40
2.77882e-43
2.14337e-42
8.67123e-50
5.5643e-52
1.65094e-51
5.09186e-53
2.03946e-48
5.33494e-47
3.52096e-46
1.00137e-45
5.24694e-48
4.33766e-47
1.13942e-46
1.79141e-52
5.88815e-52
3.56538e-53
1.43549e-50
9.94017e-51
4.42621e-52
1.03995e-51
9.66277e-38
7.01408e-38
8.57195e-38
7.18648e-38
2.6949e-44
3.34382e-48
3.3683e-48
3.25444e-43
1.36236e-42
2.34661e-45
1.10368e-44
9.97311e-43
3.22681e-43
5.76064e-45
1.49282e-42
1.47129e-44
2.4046e-42
3.04174e-43
1.1188e-47
5.17995e-45
1.91236e-46
4.83523e-46
2.14064e-46
5.85604e-46
8.94186e-48
5.60449e-51
4.51124e-53
5.50735e-53
2.16079e-51
7.0787e-53
2.29679e-51
4.52034e-51
1.97688e-43
1.34363e-44
5.14838e-43
7.71748e-45
2.5941e-43
2.81857e-45
4.78572e-43
9.71002e-52
2.31275e-53
5.56929e-52
1.82073e-53
1.94873e-51
2.9939e-53
4.60761e-52
1.4594e-48
4.61624e-46
1.20949e-46
7.92961e-47
4.2235e-47
7.14466e-47
3.47235e-48
1.20519e-51
7.48043e-52
1.98289e-49
1.06249e-50
1.957e-51
6.64362e-52
6.01098e-50
3.43956e-52
1.88114e-54
3.6761e-53
1.04679e-52
3.60577e-54
1.35555e-52
1.90511e-52
3.67335e-50
7.83147e-51
1.59532e-48
7.70944e-49
1.4786e-50
1.54196e-50
3.85371e-48
1.30364e-49
2.27439e-49
4.67954e-47
2.51721e-48
4.76069e-49
9.0822e-50
1.36338e-47
3.69055e-41
9.98199e-41
4.3426e-43
5.76658e-42
3.04406e-41
9.82154e-41
1.61546e-42
1.58053e-39
1.011e-39
2.10448e-41
3.92217e-41
1.34852e-39
1.04983e-39
9.3862e-41
8.75044e-39
2.48645e-38
1.09357e-40
1.3242e-39
7.39406e-39
2.53358e-38
3.81205e-40
2.27617e-42
1.63052e-42
1.87702e-43
2.88429e-41
4.57612e-44
1.19483e-41
7.84005e-42
5.74412e-37
1.24743e-36
4.9714e-37
1.40334e-36
6.30503e-45
7.85479e-46
1.28533e-43
1.89115e-46
5.50678e-44
3.87734e-44
1.05002e-44
4.32185e-42
4.30547e-43
1.69597e-44
1.46727e-46
4.97455e-49
3.7994e-50
2.66231e-42
3.30242e-43
1.02178e-44
3.30462e-46
4.58965e-49
3.15492e-50
1.37095e-49
4.75114e-44
1.81745e-45
4.29887e-43
4.13826e-44
1.76686e-45
6.45395e-47
6.26883e-47
1.47424e-50
1.20762e-51
4.80897e-49
1.3282e-50
1.17147e-51
3.75549e-44
1.73446e-45
1.91555e-43
1.91884e-44
1.46991e-45
6.11472e-47
5.12501e-47
2.47127e-52
1.22684e-50
1.13525e-51
3.80722e-49
2.72505e-51
7.13958e-51
8.30166e-52
5.76442e-46
1.94101e-47
8.44909e-53
9.04924e-52
4.14048e-51
9.12739e-53
2.88677e-50
2.40983e-52
5.92291e-52
1.17419e-50
3.8517e-52
1.11712e-50
4.46663e-50
1.3085e-50
2.1485e-52
4.0823e-51
7.30818e-53
1.61926e-50
1.62178e-52
3.61703e-51
1.13244e-41
2.53245e-41
2.85989e-43
1.76394e-42
1.63281e-42
3.2532e-42
1.1929e-44
3.00358e-46
1.07112e-46
1.65963e-44
2.9444e-44
2.55362e-45
5.44996e-45
1.5383e-45
2.78669e-46
1.46059e-44
1.07661e-46
2.22012e-44
8.41686e-45
2.92318e-45
1.761e-48
3.55581e-50
1.47066e-49
3.83046e-47
1.19768e-46
6.10528e-48
1.91968e-47
3.94026e-46
4.56585e-48
1.86567e-47
4.25811e-45
2.18441e-44
7.48211e-46
1.81945e-45
5.21829e-38
1.88056e-38
2.48458e-38
2.00029e-40
7.93872e-40
1.56929e-40
6.83149e-40
3.97215e-36
3.36192e-36
5.16568e-36
3.07395e-38
5.38447e-38
2.25364e-38
4.895e-38
7.60514e-42
1.69234e-44
6.25468e-44
1.21411e-42
4.94221e-42
2.81422e-44
7.0679e-44
4.59569e-40
1.59112e-42
3.72516e-42
1.43592e-40
4.25444e-40
2.37484e-42
8.85398e-42
2.11996e-47
1.71912e-49
4.35614e-49
1.28836e-47
1.93855e-47
1.65941e-49
3.64564e-49
8.1141e-50
7.63748e-48
4.21305e-50
2.97535e-48
1.62234e-49
4.48656e-48
3.69659e-50
5.49288e-50
2.02076e-48
3.0605e-48
2.86186e-50
2.95363e-48
2.51448e-50
1.05973e-49
9.66026e-42
5.20863e-42
9.82456e-44
4.67859e-43
6.24271e-42
8.25252e-42
1.03823e-42
2.07692e-44
1.69494e-46
7.00759e-47
1.97292e-45
3.95704e-46
1.02107e-44
6.70288e-45
8.31616e-44
4.50346e-45
2.12492e-46
6.99697e-44
1.40828e-45
1.78222e-43
1.76801e-44
7.40173e-48
2.66938e-49
3.00922e-48
1.64053e-46
1.69021e-47
8.0087e-47
1.89618e-47
1.96294e-47
9.04539e-49
2.96838e-46
6.18617e-48
8.70951e-46
3.97274e-46
8.00016e-47
2.39082e-48
1.66132e-46
9.72457e-49
6.48656e-47
1.09717e-46
9.43407e-49
3.97218e-48
2.35414e-48
6.30619e-47
1.63902e-46
9.45927e-49
1.07776e-46
9.17478e-49
3.92089e-48
2.27613e-48
1.61425e-46
9.20529e-49
6.13102e-47
3.85375e-48
1.04472e-46
8.85963e-49
2.12898e-48
5.19376e-47
1.41655e-46
7.63778e-49
9.54157e-47
7.5226e-49
3.32621e-48
1.89628e-47
4.75993e-47
2.58436e-49
1.04162e-48
4.99237e-47
2.78186e-49
1.20515e-48
6.65233e-52
2.73585e-49
1.16208e-46
1.41846e-47
5.78786e-45
2.29896e-42
6.96141e-52
2.89933e-49
1.21722e-46
1.22853e-47
5.06905e-45
2.03363e-42
3.83037e-53
1.31197e-50
4.89649e-48
2.04893e-46
7.6942e-44
5.0142e-47
2.43666e-45
7.76211e-39
8.39534e-37
1.19357e-40
3.13449e-40
1.00081e-31
1.88219e-36
4.23202e-34
3.2569e-52
3.17146e-52
1.93251e-53
1.59702e-52
1.79194e-53
1.63581e-52
6.23441e-51
7.41726e-50
5.9628e-51
7.04698e-50
2.70716e-48
3.91341e-47
2.49601e-48
3.63314e-51
3.47459e-51
4.88709e-51
1.32575e-49
4.33717e-49
6.08028e-52
4.96239e-51
1.26604e-49
4.2214e-49
2.20831e-48
5.54931e-47
1.8178e-46
2.61001e-49
2.09715e-48
5.31621e-47
1.76415e-46
1.11452e-45
2.27923e-44
8.53774e-44
1.06921e-46
2.17271e-44
4.48088e-44
3.0457e-52
1.96976e-53
1.6505e-52
1.21254e-53
1.08557e-52
6.58348e-51
7.73541e-50
3.85123e-51
4.68868e-50
2.82244e-48
1.62801e-48
3.34517e-51
4.94023e-51
1.40453e-49
4.26421e-49
3.93938e-52
3.36377e-51
8.29142e-50
3.10764e-49
2.26709e-48
5.93353e-47
1.80005e-46
1.70758e-49
1.43255e-48
3.52398e-47
1.31025e-46
2.44985e-44
7.5145e-44
7.08822e-47
1.45205e-44
3.90833e-44
2.01721e-54
8.86191e-54
3.14744e-52
3.54525e-51
3.73013e-52
3.41188e-51
1.2036e-49
5.54226e-50
2.51119e-52
6.29155e-51
1.84172e-50
9.88402e-50
2.48402e-48
7.25351e-48
1.25436e-50
7.20442e-50
2.35455e-48
3.71214e-48
9.56074e-46
2.66196e-45
1.76809e-48
2.95704e-46
1.32985e-45
1.06866e-49
2.1584e-45
1.50926e-48
1.17882e-44
4.20015e-43
2.6441e-42
2.84639e-48
6.67327e-49
4.81632e-46
3.28522e-47
4.04297e-47
1.10347e-46
9.21444e-45
9.51226e-44
6.6864e-46
3.59767e-45
1.96328e-42
9.98775e-44
7.05018e-38
6.23835e-34
6.08724e-36
4.96548e-37
7.10347e-36
1.70232e-32
1.37462e-34
9.11902e-34
1.35257e-37
9.34754e-43
3.25025e-41
1.10647e-36
8.80563e-36
8.70078e-39
7.95989e-38
1.95806e-40
1.69823e-34
1.4825e-36
2.62013e-33
1.95784e-33
2.20709e-33
2.33536e-33
1.21328e-39
1.67964e-43
5.35874e-38
4.55423e-40
3.21919e-38
1.10978e-38
2.13706e-40
5.34225e-38
5.26592e-40
1.03732e-37
9.48504e-39
5.71335e-36
1.28685e-36
3.35225e-38
8.9494e-36
9.4289e-38
1.80422e-35
1.69175e-36
3.27587e-50
7.34981e-52
1.4802e-50
3.06461e-52
4.41445e-52
1.37236e-50
5.44631e-50
3.22627e-50
2.99107e-52
7.25064e-52
1.46697e-50
4.35185e-52
1.35937e-50
5.37243e-50
2.24832e-55
9.77243e-54
1.60085e-53
1.51515e-53
5.88354e-54
1.59586e-53
2.74381e-55
8.83971e-55
2.48679e-54
1.0385e-52
1.4667e-52
2.01585e-54
1.03696e-52
8.90898e-55
2.0988e-55
1.75446e-53
9.6257e-54
1.40544e-53
5.81961e-54
1.43965e-53
2.52347e-55
6.73847e-55
1.64222e-52
2.57217e-54
3.9772e-53
2.53189e-54
6.72204e-53
3.97909e-55
6.48017e-53
5.61155e-53
6.67829e-51
4.53612e-51
4.3289e-53
6.67778e-51
6.45077e-53
4.33518e-52
1.14839e-51
4.93563e-50
6.69426e-50
8.77966e-52
4.92377e-50
4.37349e-52
5.98394e-53
5.94536e-51
5.39473e-53
6.1226e-51
5.35834e-53
6.22864e-51
5.77575e-53
2.77693e-52
7.07389e-50
1.1237e-51
1.69532e-50
1.11683e-51
2.69755e-50
1.73698e-52
2.97487e-50
2.49351e-50
2.95397e-48
1.82331e-48
1.7874e-50
2.93031e-48
2.98528e-50
2.40501e-49
6.31481e-49
2.60108e-47
3.88797e-47
6.1012e-49
2.58937e-47
2.44076e-49
2.53193e-50
2.48828e-48
2.30964e-50
2.5969e-48
2.29079e-50
2.59665e-48
2.53157e-50
3.10837e-50
7.09162e-52
1.40037e-50
2.83485e-52
5.26615e-50
4.17265e-52
1.28368e-50
2.26129e-55
9.42223e-54
1.6683e-53
1.54703e-53
2.76924e-55
5.54789e-54
1.66128e-53
9.12908e-55
2.61429e-54
1.05537e-52
1.50669e-52
9.13052e-55
2.06151e-54
1.05696e-52
1.56082e-55
1.20739e-53
7.72202e-54
9.10986e-54
5.07189e-54