/*--------------------------------*- C++ -*----------------------------------*\
  =========                 |
  \\      /  F ield         | OpenFOAM: The Open Source CFD Toolbox
   \\    /   O peration     | Website:  https://openfoam.org
    \\  /    A nd           | Version:  9
     \\/     M anipulation  |
\*---------------------------------------------------------------------------*/
FoamFile
{
    format      ascii;
    class       volVectorField;
    location    "0.00065";
    object      rhoU;
}
// * * * * * * * * * * * * * * * * * * * * * * * * * * * * * * * * * * * * * //

dimensions      [1 -2 -1 0 0 0 0];

internalField   nonuniform List<vector> 
6433
(
(-7.41946e-14 -6.13012e-16 1.70126e-15)
(-6.28084e-14 -1.64352e-15 7.38865e-15)
(-9.70517e-16 -8.08029e-15 6.87794e-15)
(0 -7.78664e-15 4.85192e-16)
(0 -5.45011e-21 0)
(-6.49639e-16 -1.5989e-17 0)
(-6.49639e-16 -3.60953e-17 4.4465e-15)
(0 -8.81584e-15 8.1046e-15)
(-1.58273e-16 0 6.73672e-18)
(-1.58273e-16 0 -1.76792e-16)
(-6.20671e-14 -4.16968e-15 -2.66376e-15)
(-6.49639e-16 -4.27905e-17 0)
(0 -6.56581e-18 4.62862e-15)
(-1.58273e-16 0 3.83113e-15)
(-1.58273e-16 0 -3.85839e-15)
(-2.05076e-14 -8.85151e-15 -5.35135e-15)
(0 -1.58408e-33 0)
(0 2.55112e-31 4.61667e-15)
(-1.58273e-16 0 3.60548e-15)
(-1.58273e-16 0 -4.32224e-15)
(0 -9.22327e-15 -7.10175e-15)
(0 8.5721e-28 0)
(-1.24016e-40 6.86095e-45 -3.46675e-15)
(-2.06695e-39 0 -2.13076e-16)
(0 0 0)
(0 0 0)
(0 0 0)
(0 -3.53651e-19 0)
(0 0 0)
(0 -6.73207e-21 0)
(0 0 0)
(-1.29928e-15 6.87575e-17 -8.6472e-15)
(0 0 0)
(-4.54747e-15 -1.45822e-15 7.71891e-17)
(-6.49639e-16 -3.9254e-17 0)
(0 0 0)
(-4.54747e-15 -1.4656e-15 9.89671e-15)
(-2.59856e-15 1.18568e-16 6.30676e-18)
(0 3.75186e-17 1.33145e-14)
(-6.49639e-16 -3.25743e-17 -4.43894e-15)
(0 0 0)
(-2.59856e-15 -1.44668e-15 1.36081e-14)
(0 0 0)
(-2.59856e-15 -1.38658e-15 -1.40585e-14)
(0 3.75249e-17 -1.36947e-14)
(0 3.75957e-17 -1.94973e-14)
(0 0 0)
(-4.54747e-15 -1.4257e-15 -1.00538e-14)
(-6.49639e-16 -2.91392e-17 0)
(-6.49639e-16 6.23806e-17 1.30224e-14)
(0 0 0)
(-2.59856e-15 -1.33319e-15 7.41747e-15)
(0 6.28166e-18 1.21491e-14)
(0 -5.71714e-18 -4.80573e-15)
(0 0 0)
(0 -3.61922e-16 1.32175e-14)
(0 0 0)
(0 -3.52879e-16 -1.49108e-14)
(0 0 -1.38857e-14)
(0 0 -1.99949e-14)
(0 0 0)
(0 -2.03737e-32 -1.01103e-14)
(0 -4.26072e-32 0)
(0 0 1.33071e-14)
(0 0 0)
(0 -3.87378e-31 7.18273e-15)
(0 0 1.22357e-14)
(0 -4.0562e-31 -4.82498e-15)
(0 0 0)
(0 6.21091e-28 1.30844e-14)
(0 0 0)
(0 9.33982e-31 -1.48264e-14)
(0 0 -1.42485e-14)
(0 0 -2.18606e-14)
(0 0 0)
(0 3.833e-26 -1.3403e-14)
(0 1.68709e-26 -1.81271e-15)
(0 0 1.10286e-14)
(0 0 -1.9662e-16)
(0 1.51583e-24 2.97888e-16)
(-3.32999e-36 0 5.13935e-15)
(-3.70583e-33 -2.21322e-15 7.12379e-16)
(0 -1.64326e-14 6.99692e-21)
(0 -1.3262e-14 -5.2182e-15)
(0 0 0)
(0 0 0)
(0 0 1.8403e-24)
(0 0 3.46378e-22)
(0 -1.66904e-14 3.15197e-15)
(0 -2.95294e-14 -5.8558e-25)
(0 0 7.2083e-16)
(0 0 0)
(0 0 0)
(0 0 -3.29641e-25)
(0 -7.97554e-21 1.71604e-14)
(0 0 -4.5309e-16)
(0 -2.87395e-14 -1.63926e-14)
(0 0 0)
(0 0 -1.72863e-24)
(0 -5.24912e-15 1.68734e-14)
(-2.89567e-40 -2.34841e-14 -1.77268e-14)
(0 7.28171e-23 0)
(0 -9.6718e-15 -4.17113e-15)
(0 0 0)
(0 0 0)
(0 0 0)
(0 0 0)
(0 0 0)
(0 0 0)
(0 0 0)
(0 0 0)
(0 0 0)
(0 0 0)
(0 0 0)
(0 0 0)
(0 0 0)
(0 0 0)
(0 0 0)
(0 0 -8.58485e-25)
(0 0 0)
(0 0 0)
(0 0 0)
(0 0 0)
(0 0 0)
(0 0 0)
(0 0 2.851e-15)
(0 0 0)
(0 0 -2.95101e-15)
(0 0 3.07968e-16)
(0 0 -1.05842e-15)
(0 0 0)
(0 0 0)
(0 0 0)
(0 0 0)
(0 0 0)
(0 0 0)
(0 0 0)
(0 0 0)
(0 0 0)
(0 0 -1.77606e-24)
(0 0 0)
(0 0 0)
(0 0 0)
(0 0 0)
(0 0 0)
(0 0 0)
(0 0 0)
(0 0 0)
(0 0 0)
(0 0 5.10851e-18)
(0 0 0)
(0 0 0)
(0 0 0)
(0 0 -1.76412e-24)
(0 0 0)
(-6.72303e-41 0 0)
(0 0 0)
(0 0 0)
(-3.05868e-42 0 0)
(0 0 1.06358e-14)
(0 1.78996e-24 -9.00036e-16)
(0 0 0)
(0 1.09414e-21 -7.59771e-16)
(0 0 0)
(0 4.39421e-23 -6.40974e-16)
(0 0 -2.25859e-14)
(0 -4.34189e-33 4.84696e-16)
(0 -9.95079e-39 -6.13635e-16)
(0 -1.58406e-39 1.01368e-17)
(0 -5.60696e-16 1.36038e-14)
(0 -2.18313e-14 -4.21479e-15)
(0 0 0)
(0 -2.28115e-14 3.07409e-15)
(0 0 4.88686e-16)
(0 0 0)
(0 -2.11796e-14 2.95015e-15)
(0 0 0)
(0 0 5.65813e-16)
(0 0 0)
(0 0 0)
(0 0 -1.51638e-15)
(0 0 0)
(0 0 0)
(0 0 0)
(0 0 1.17781e-15)
(0 0 0)
(0 0 0)
(0 0 9.66083e-17)
(0 0 -6.25176e-16)
(0 0 0)
(0 0 0)
(0 0 -3.21781e-16)
(0 0 0)
(0 0 0)
(0 0 0)
(0 0 0)
(0 0 0)
(0 0 0)
(-3.30792e-41 0 0)
(-3.89783e-15 -2.33158e-14 -1.29832e-17)
(-3.89783e-15 -2.36358e-14 -4.89311e-19)
(-3.89783e-15 -2.38007e-14 -1.42111e-19)
(-3.89783e-15 -2.16797e-14 6.39779e-17)
(-3.85088e-15 -2.08655e-14 1.20221e-14)
(0 -2.20615e-17 2.16397e-15)
(0 -1.29676e-21 7.56627e-34)
(0 0 -2.66453e-31)
(0 0 0)
(-1.46609e-41 -9.92141e-42 -1.00279e-15)
(-3.43541e-38 0 5.09887e-20)
(-6.4453e-29 -1.04967e-14 4.02372e-15)
(-4.12381e-38 -4.27713e-15 -2.48543e-15)
(0 -9.01012e-32 1.05103e-16)
(0 -2.18626e-14 4.86507e-15)
(0 -1.35488e-29 1.50438e-15)
(0 1.5449e-23 0)
(3.06312e-14 9.69576e-24 -1.62005e-14)
(-2.04357e-14 4.25416e-14 -1.31206e-14)
(0 0 0)
(0 -1.96275e-33 0)
(0 0 0)
(0 -1.1997e-29 0)
(0 0 0)
(0 -1.77432e-31 0)
(0 0 0)
(-1.77947e-37 -3.87136e-15 1.25282e-14)
(1.78445e-38 -5.37283e-18 -3.86166e-15)
(0 0 1.10173e-17)
(0 0 1.22516e-15)
(0 -1.29949e-27 0)
(0 -1.33694e-28 -1.71778e-15)
(0 0 9.69667e-17)
(0 0 -2.01773e-16)
(0 3.60363e-26 2.2068e-18)
(0 0 3.28046e-16)
(0 0 0)
(-7.56185e-40 -1.46254e-25 0)
(0 -1.00723e-22 4.2011e-15)
(-1.1879e-40 0 0)
(0 0 8.00147e-16)
(0 -4.50093e-24 1.46767e-15)
(0 -1.69577e-14 -6.46886e-15)
(0 0 0)
(0 0 -9.51917e-17)
(0 0 9.46036e-16)
(0 0 0)
(0 0 -9.79375e-17)
(0 0 8.42215e-17)
(0 0 -4.94218e-16)
(0 0 -2.50829e-16)
(-4.17085e-36 0 9.421e-16)
(-4.18596e-36 0 6.66528e-16)
(0 0 0)
(-3.20752e-38 -2.09797e-14 -8.95269e-17)
(-1.19343e-40 0 0)
(0 0 -1.48503e-17)
(0 0 0)
(-7.29656e-39 0 0)
(0 0 0)
(-1.07376e-39 0 0)
(-6.17157e-40 0 0)
(0 0 0)
(-3.61444e-39 0 -2.17313e-14)
(-4.1342e-47 0 -3.40079e-16)
(-5.97089e-40 0 0)
(0 0 -6.4987e-15)
(0 0 -8.49344e-16)
(0 0 -1.85984e-15)
(1.8139e-14 -9.49937e-18 1.02697e-14)
(-3.1589e-17 1.06682e-16 1.25627e-14)
(-4.97145e-34 2.92971e-17 -2.11362e-14)
(-5.84251e-15 1.65875e-14 -1.61542e-14)
(3.48703e-17 -4.35163e-15 2.08578e-14)
(-4.16987e-21 0 -5.3679e-15)
(-1.00374e-19 0 1.49589e-15)
(1.19542e-20 5.94252e-19 0)
(-1.1778e-20 2.78624e-17 -6.86399e-17)
(-5.31564e-33 4.48863e-20 -9.64249e-18)
(-5.31564e-33 4.99641e-19 -7.81967e-17)
(-5.86965e-15 1.14572e-14 2.92412e-14)
(-9.77962e-16 4.22301e-15 2.03325e-15)
(-1.32093e-15 4.19047e-15 4.94702e-16)
(-1.9571e-13 4.27693e-13 2.08443e-13)
(-4.10305e-13 6.13506e-13 2.97675e-13)
(-1.90649e-13 4.2334e-13 2.12856e-13)
(-4.02451e-13 5.96355e-13 3.04476e-13)
(0 -5.4409e-18 1.97331e-18)
(0 -1.08024e-19 1.53283e-21)
(0 -7.21385e-22 0)
(0 -6.75839e-19 7.82329e-33)
(0 -2.26888e-20 -1.70179e-28)
(0 -4.13557e-22 0)
(0 0 3.63783e-17)
(0 0 0)
(-1.62832e-16 0 1.05302e-14)
(3.33423e-16 -1.0443e-14 -1.70093e-14)
(0 0 0)
(-4.54436e-17 0 -1.53405e-16)
(-1.42787e-18 0 0)
(0 0 3.20887e-19)
(0 0 0)
(0 0 0)
(0 0 2.12895e-18)
(0 0 -1.12962e-17)
(-2.86381e-20 0 -1.85227e-17)
(5.96088e-21 0 0)
(0 0 -2.37023e-20)
(0 0 0)
(0 0 0)
(0 0 -7.10156e-19)
(-8.2315e-37 7.55133e-16 -1.31454e-14)
(0 0 3.30281e-16)
(0 -1.64932e-15 5.78731e-16)
(0 -7.87847e-18 -1.54212e-21)
(0 0 -1.12461e-14)
(0 0 -1.54455e-21)
(0 2.75083e-23 9.08904e-16)
(0 0 0)
(0 -5.54384e-23 0)
(0 2.05289e-27 0)
(0 0 0)
(0 -1.7308e-27 0)
(0 0 0)
(0 0 0)
(0 0 0)
(0 0 0)
(0 0 0)
(0 0 0)
(0 0 0)
(0 0 0)
(0 0 0)
(0 0 0)
(0 0 0)
(0 0 0)
(0 0 0)
(0 0 0)
(0 0 0)
(0 0 0)
(0 0 0)
(0 0 0)
(-6.84983e-12 6.37985e-12 8.15957e-12)
(-7.82936e-14 6.75502e-14 1.2681e-13)
(-3.9457e-19 9.88432e-17 6.64759e-16)
(0 0 5.43026e-19)
(0 0 0)
(0 0 7.35722e-19)
(0 0 4.9956e-16)
(0 0 0)
(-3.69485e-15 3.23441e-15 2.16235e-14)
(1.96037e-15 -7.53091e-15 -4.80866e-15)
(0 0 0)
(-4.34311e-16 0 9.17022e-17)
(-1.66736e-17 0 0)
(-2.00657e-16 -5.3082e-31 2.81224e-15)
(-6.65397e-19 -8.61077e-33 -9.05139e-17)
(-6.27645e-17 -3.74673e-33 -2.00481e-15)
(-5.43787e-18 -5.19395e-32 3.53443e-16)
(0 0 8.81434e-16)
(-9.28636e-18 0 6.46674e-16)
(-3.86265e-18 0 0)
(-5.55663e-16 1.29928e-15 3.98334e-15)
(-1.0623e-18 5.75577e-15 -1.49134e-15)
(-3.8419e-16 6.49639e-16 0)
(-6.34761e-16 5.8807e-15 6.53785e-15)
(-3.88491e-13 1.56539e-12 6.36547e-14)
(-3.25275e-12 5.62251e-12 4.25616e-13)
(-3.72897e-13 1.65043e-12 6.79269e-14)
(-3.97464e-13 1.56799e-12 2.27533e-13)
(-3.76462e-13 1.63782e-12 2.38726e-13)
(-1.60863e-12 4.01039e-12 2.94543e-13)
(-2.89918e-12 5.37945e-12 9.58221e-13)
(-1.59231e-12 4.00616e-12 6.28352e-13)
(-1.04906e-13 3.47473e-13 3.0392e-14)
(-4.54305e-13 1.08963e-12 1.4701e-13)
(-1.17348e-14 7.02414e-14 1.38011e-14)
(-5.85336e-15 5.64899e-14 -2.83856e-15)
(-5.84675e-15 6.11429e-14 -1.90897e-14)
(-1.17326e-14 6.5341e-14 1.97157e-16)
(-4.48037e-14 1.77347e-13 -4.81303e-15)
(-1.35105e-13 2.82839e-13 -4.66167e-15)
(-3.05324e-14 1.4573e-13 3.89783e-15)
(-1.46146e-13 3.10046e-13 1.00111e-14)
(0 0 1.59779e-17)
(0 1.39209e-16 6.46232e-15)
(0 0 -2.57137e-16)
(0 0 4.60632e-17)
(0 0 3.7477e-15)
(-2.3531e-19 9.58699e-16 -2.89191e-14)
(-1.55243e-18 9.58699e-16 -4.12491e-16)
(-1.0143e-12 5.49607e-14 2.07703e-13)
(-1.18235e-13 1.58336e-13 5.49493e-14)
(-7.71958e-12 1.05798e-11 3.56017e-12)
(-2.72704e-15 1.03118e-14 2.92121e-15)
(0 0 -5.18799e-15)
(-3.22776e-13 2.82268e-13 9.02604e-14)
(-4.51069e-15 7.87172e-15 -6.06951e-16)
(-1.18466e-13 1.6004e-13 5.18495e-14)
(-3.19763e-13 2.76097e-13 1.02832e-13)
(-9.93258e-14 2.28626e-13 5.42181e-14)
(-7.65102e-12 1.04739e-11 4.07105e-12)
(-3.2482e-15 1.11805e-14 3.77602e-15)
(1.98249e-15 1.03942e-14 1.05388e-15)
(-3.2482e-15 1.12947e-14 3.77074e-15)
(-7.25026e-17 0 1.80593e-14)
(-1.60547e-19 0 1.17347e-14)
(1.21288e-23 2.50466e-16 3.27971e-17)
(-9.74986e-20 -2.45243e-14 1.51783e-15)
(-5.6861e-18 2.80375e-15 -9.73353e-16)
(-1.14078e-18 0 -6.08918e-15)
(-8.63682e-23 0 -2.78769e-14)
(0 0 -3.57475e-15)
(-9.58104e-18 3.84217e-15 3.86696e-15)
(-3.24478e-21 0 -2.38352e-14)
(0 0 -3.42124e-16)
(-1.12509e-19 4.23288e-16 0)
(-9.9012e-18 3.45124e-15 2.47701e-16)
(0 4.08146e-16 0)
(-5.44759e-18 3.47787e-15 0)
(-6.00916e-14 3.6294e-14 1.05771e-14)
(4.48745e-23 -1.25154e-22 1.17423e-23)
(-3.18323e-14 2.4604e-14 6.11467e-15)
(-3.15075e-14 2.54847e-14 6.14627e-15)
(0 1.99304e-18 -3.30254e-16)
(-3.97796e-16 -5.0748e-20 2.3826e-15)
(-9.74887e-22 -4.37554e-14 2.83519e-15)
(-5.44516e-18 -1.63691e-15 4.50273e-18)
(-3.65518e-16 0 -1.62254e-14)
(0 0 -6.31214e-15)
(-6.78988e-18 0 2.70999e-14)
(-5.18455e-21 0 1.38992e-14)
(-5.5555e-17 9.14641e-15 1.68719e-14)
(-5.44516e-18 -2.77269e-14 1.51502e-16)
(-2.96381e-14 2.57514e-14 1.74275e-14)
(0 5.8022e-16 1.72244e-14)
(0 1.8473e-17 0)
(0 2.16637e-17 -2.10969e-14)
(0 9.02317e-16 -2.26405e-19)
(0 -4.52433e-19 4.91862e-24)
(0 0 3.26758e-30)
(0 0 0)
(0 -1.46419e-16 3.72005e-35)
(0 0 2.75798e-36)
(0 0 0)
(0 0 -2.05769e-14)
(-2.35335e-17 2.07292e-14 -5.3876e-15)
(0 -2.58897e-15 -3.38162e-14)
(0 0 8.76126e-15)
(0 0 0)
(0 0 -1.24851e-18)
(0 0 3.88726e-18)
(0 0 2.78832e-14)
(0 0 -2.83629e-14)
(0 0 -2.0105e-14)
(0 0 7.88893e-15)
(6.61979e-15 0 -1.08354e-14)
(-7.54394e-15 0 -2.54037e-14)
(1.03993e-15 1.40977e-17 1.61267e-14)
(-1.04545e-15 3.98691e-18 3.80173e-15)
(5.27445e-15 0 -1.80646e-14)
(-6.7762e-22 0 2.3358e-14)
(8.42821e-19 0 3.90416e-14)
(-7.00841e-15 0 3.24936e-18)
(-1.55694e-21 0 8.37849e-15)
(-8.30038e-19 0 8.62941e-16)
(6.03871e-15 -2.70006e-14 -1.18687e-14)
(-6.85375e-15 0 -2.99189e-14)
(2.78943e-15 0 -2.10038e-16)
(-7.58908e-15 -3.32901e-17 -4.78676e-16)
(-4.19178e-16 -6.15777e-15 -1.00425e-15)
(-2.28708e-15 1.99916e-14 -1.32927e-14)
(-1.87e-13 1.52431e-13 1.77216e-13)
(0 0 -2.66097e-17)
(2.6235e-16 3.55367e-15 4.06024e-15)
(0 0 3.78066e-18)
(0 0 -2.48969e-15)
(0 -5.83376e-16 -2.44123e-14)
(-8.31776e-22 -7.89253e-15 -1.7596e-14)
(0 0 -6.20852e-16)
(0 0 0)
(0 0 0)
(0 -8.43825e-16 3.14456e-16)
(0 -6.80211e-17 0)
(0 -2.88811e-16 0)
(0 -2.83397e-16 -3.20384e-20)
(-5.05709e-23 -1.27088e-32 -8.43229e-17)
(0 -4.87388e-34 0)
(0 0 0)
(0 -2.45412e-15 1.58764e-15)
(0 -2.7974e-16 -1.07371e-15)
(0 -6.18157e-16 0)
(0 -8.64927e-16 -6.18795e-21)
(0 1.8258e-17 1.97984e-15)
(0 0 2.08187e-17)
(0 0 -1.75122e-15)
(0 6.63186e-23 9.58e-15)
(0 -2.29098e-21 9.59742e-16)
(0 -1.99268e-20 -1.29078e-15)
(0 -2.35252e-19 2.79486e-16)
(-3.89783e-15 3.62077e-15 1.15373e-14)
(-2.63079e-17 0 2.60411e-15)
(1.27884e-16 -3.7841e-31 -2.42524e-14)
(2.76971e-18 -1.74689e-25 3.29834e-14)
(4.76081e-17 -1.78712e-23 2.2678e-15)
(-3.66227e-15 6.80714e-15 5.38183e-15)
(-5.8009e-15 6.7459e-15 5.87572e-15)
(0 4.47626e-16 0)
(0 0 0)
(2.26548e-14 2.66966e-14 1.49659e-14)
(-3.01251e-14 0 -2.71011e-15)
(0 -7.07326e-16 -4.54591e-15)
(0 0 -4.78226e-16)
(0 0 0)
(0 0 0)
(0 0 6.26907e-19)
(0 0 1.53534e-16)
(0 0 1.90303e-18)
(0 0 -3.56256e-19)
(0 0 -1.82512e-14)
(0 0 9.17629e-15)
(0 0 3.02927e-14)
(0 0 -9.53301e-28)
(0 0 -7.28551e-16)
(0 0 0)
(0 0 3.46228e-15)
(0 0 0)
(-2.4396e-18 -1.94775e-16 -9.87966e-15)
(-5.26513e-15 0 -7.61183e-17)
(0 0 -9.16351e-15)
(0 0 -4.40091e-15)
(1.50255e-16 -6.33437e-15 0)
(0 -1.96629e-17 -9.96783e-16)
(0 -9.05008e-18 -9.06499e-15)
(0 -7.07961e-19 -3.45775e-14)
(0 -1.61281e-17 2.20029e-15)
(1.58458e-28 0 4.20623e-18)
(1.02989e-23 -9.67543e-35 3.21129e-22)
(0 0 4.12614e-28)
(0 0 0)
(-3.92871e-16 1.05545e-18 1.30871e-15)
(-8.276e-19 -2.85995e-22 1.53247e-20)
(2.3168e-22 0 4.96596e-34)
(-1.28245e-17 4.49943e-31 1.86125e-22)
(-2.78576e-21 0 1.19206e-26)
(0 0 1.14125e-34)
(-9.02674e-20 1.68552e-33 5.49978e-28)
(-9.54315e-24 0 0)
(0 0 0)
(-4.96162e-22 4.57668e-36 0)
(3.3032e-14 1.6241e-15 -1.86801e-14)
(-2.27374e-15 -2.2416e-14 -6.01024e-15)
(-9.45225e-14 2.43431e-13 4.49749e-14)
(2.03418e-27 0 1.76347e-18)
(2.26737e-28 0 -1.35793e-15)
(0 0 0)
(4.63758e-28 0 5.39219e-19)
(-5.97165e-14 1.89787e-14 2.84746e-14)
(-3.27397e-16 -1.99338e-15 3.91714e-15)
(-3.25132e-16 -3.70891e-15 7.61214e-15)
(-3.2482e-16 -8.39669e-17 3.4879e-17)
(-3.2482e-16 -1.65208e-16 -1.19294e-15)
(0 -8.95927e-34 0)
(0 -9.16427e-33 -7.48667e-20)
(0 1.00834e-14 -8.28582e-16)
(0 -3.57417e-15 9.84925e-15)
(0 -1.37701e-19 1.6241e-15)
(0 -4.28413e-14 -2.56447e-15)
(0 -9.34722e-17 0)
(0 -5.56013e-15 6.41459e-17)
(8.27913e-15 -4.1077e-14 -2.59923e-15)
(0 -1.85398e-15 0)
(0 -1.84263e-15 0)
(-1.56558e-16 -3.5763e-15 1.18575e-14)
(-4.80193e-17 -3.57627e-15 6.96404e-15)
(-6.17954e-15 -4.11828e-14 8.13117e-16)
(-7.45641e-23 -4.71512e-14 1.97328e-14)
(1.14952e-18 -1.85398e-15 0)
(-3.13117e-20 -1.85398e-15 0)
(1.4069e-38 -4.91052e-14 2.33058e-14)
(-1.5401e-15 -1.85431e-15 -1.02521e-14)
(2.03864e-16 -2.1829e-16 1.92862e-15)
(6.2335e-16 -1.85431e-15 0)
(-3.4611e-17 -4.92551e-14 1.25401e-16)
(-2.31592e-16 -1.63216e-15 1.57452e-16)
(0 -3.8308e-19 7.99728e-24)
(2.45401e-15 -6.79168e-15 1.71548e-21)
(0 0 1.41154e-14)
(0 0 -2.12908e-15)
(-7.2616e-15 0 1.99582e-14)
(0 0 4.24998e-15)
(-2.70061e-15 0 -1.31149e-14)
(0 0 -2.05269e-14)
(0 0 -2.52132e-14)
(2.34336e-14 0 2.08291e-14)
(0 3.6869e-14 2.17626e-14)
(7.33528e-21 0 -3.0864e-14)
(0 0 -1.3429e-14)
(-7.08899e-15 0 4.13589e-20)
(0 -1.64801e-14 1.29928e-15)
(0 -1.29928e-15 7.92237e-15)
(0 0 -1.19985e-14)
(0 0 9.47463e-15)
(0 0 1.01838e-15)
(0 0 0)
(0 0 2.75678e-14)
(0 0 -3.58374e-15)
(0 0 6.56747e-15)
(0 0 5.87382e-15)
(0 0 5.68434e-16)
(0 0 -3.54818e-14)
(0 0 0)
(0 0 -2.5918e-14)
(0 0 0)
(0 0 1.37339e-14)
(0 0 -1.10512e-14)
(0 0 6.71615e-15)
(0 0 0)
(0 1.10352e-14 5.07295e-15)
(0 -1.61096e-14 3.39719e-14)
(0 -1.7042e-17 6.49639e-16)
(0 2.44517e-16 0)
(0 -5.392e-14 6.3833e-15)
(2.99843e-14 1.24878e-14 -1.20055e-14)
(0 -8.41661e-15 1.46572e-14)
(0 0 -2.19354e-14)
(0 0 2.88996e-15)
(0 0 4.8386e-15)
(0 0 8.88415e-15)
(0 0 2.18109e-14)
(0 0 -3.23913e-14)
(0 0 -1.17141e-14)
(0 0 -3.67546e-14)
(1.31532e-19 0 5.71533e-15)
(0 0 -3.7654e-15)
(0 0 6.87324e-15)
(0 0 -8.54149e-15)
(0 0 -8.13065e-15)
(-1.04771e-14 0 2.66727e-14)
(-1.05686e-14 0 6.22928e-15)
(0 0 8.57978e-15)
(-1.05489e-14 0 -5.5034e-15)
(-1.05535e-14 0 7.08565e-15)
(0 0 8.92196e-15)
(-1.3584e-14 0 -7.42372e-15)
(0 0 -5.8753e-15)
(0 0 -2.27374e-15)
(0 0 3.43377e-14)
(0 0 6.40394e-15)
(0 0 -3.52369e-14)
(0 0 -6.24615e-15)
(0 0 8.12049e-15)
(0 0 -3.73089e-15)
(0 0 -8.39445e-17)
(0 0 1.56304e-14)
(0 0 -1.99974e-15)
(0 0 1.67385e-16)
(0 0 -2.98426e-14)
(0 0 -1.81367e-14)
(0 0 -6.06985e-15)
(0 0 -1.47996e-16)
(0 0 2.72932e-14)
(0 0 -3.24521e-15)
(0 0 5.15175e-15)
(0 0 -3.32975e-14)
(0 0 -1.45541e-14)
(0 0 9.00289e-16)
(0 0 1.82736e-15)
(0 0 3.22704e-14)
(0 0 -2.71717e-15)
(0 0 0)
(0 0 1.33658e-14)
(0 0 8.10549e-15)
(0 0 1.25925e-15)
(0 0 1.78003e-15)
(0 0 3.23921e-14)
(0 0 -1.21666e-15)
(0 0 0)
(0 0 1.39122e-14)
(0 0 8.36641e-15)
(-8.66026e-15 0 -1.13676e-14)
(0 0 3.03205e-15)
(0 0 4.53098e-14)
(0 0 1.23671e-14)
(0 0 1.47749e-14)
(0 0 -3.61453e-14)
(0 0 -9.44001e-15)
(0 0 1.55288e-14)
(-1.13391e-14 0 -2.86249e-14)
(0 0 -1.8535e-14)
(-9.93971e-15 0 -2.89277e-14)
(0 0 1.5964e-15)
(0 0 6.82648e-15)
(-1.46337e-21 5.95155e-15 1.10236e-14)
(0 4.28166e-15 -1.6444e-15)
(-1.2404e-22 0 -2.5345e-14)
(0 0 8.42622e-15)
(0 0 7.80081e-15)
(-8.19089e-15 0 -2.01976e-14)
(1.19341e-17 -3.2888e-14 8.08152e-15)
(-8.29795e-15 -3.70466e-14 4.34446e-15)
(-8.93319e-15 0 -2.68646e-15)
(-7.5821e-15 0 7.7512e-15)
(-8.77637e-15 0 4.65838e-16)
(-2.39239e-14 1.27531e-14 6.61525e-15)
(-2.96972e-20 -4.93086e-14 0)
(-3.48939e-16 0 -1.2305e-19)
(-2.10786e-16 1.46165e-15 0)
(-2.07351e-16 1.7133e-15 0)
(1.47876e-19 0 1.8789e-20)
(-9.02674e-17 0 1.07105e-18)
(-7.99642e-16 0 7.27128e-15)
(-1.52485e-17 0 4.31493e-19)
(-1.6893e-15 0 -3.30001e-14)
(7.12759e-15 0 -4.24753e-15)
(-1.06249e-15 0 -3.28383e-14)
(-2.37948e-22 0 -1.58847e-15)
(-1.59949e-17 0 1.41682e-15)
(1.36662e-15 -1.97307e-14 3.19813e-15)
(-1.73317e-16 4.05489e-15 -6.12749e-15)
(5.55488e-15 0 -2.16911e-14)
(2.67804e-46 0 0)
(7.6276e-20 0 1.16828e-16)
(-1.35927e-15 -2.95114e-14 7.2856e-18)
(7.54382e-15 0 8.38814e-15)
(2.67582e-18 7.37407e-15 -2.32514e-16)
(0 0 1.33999e-14)
(0 0 -1.04969e-14)
(0 2.75988e-14 -6.59664e-17)
(0 -1.35357e-30 -1.00451e-17)
(0 2.81032e-14 1.72141e-14)
(0 -6.87484e-29 -2.89107e-15)
(0 0 1.65067e-14)
(0 2.93447e-14 -1.59217e-14)
(0 -1.12672e-26 0)
(0 0 0)
(0 0 -1.54023e-14)
(0 0 -1.24596e-14)
(0 0 -2.53258e-14)
(0 0 -1.68991e-16)
(0 0 -2.32906e-16)
(0 0 1.44122e-14)
(0 0 8.8539e-15)
(0 0 8.40892e-15)
(0 0 -3.58819e-14)
(0 0 -1.01344e-14)
(0 0 4.05655e-14)
(0 0 3.54273e-14)
(0 0 -6.28436e-15)
(3.10363e-27 0 -1.71144e-14)
(0 0 0)
(0 0 0)
(0 0 -1.71114e-14)
(0 0 0)
(0 0 1.02308e-14)
(1.77242e-26 0 2.84217e-16)
(0 2.95586e-14 0)
(0 -8.75977e-18 -2.19595e-14)
(0 2.95586e-14 0)
(0 2.20252e-18 5.14014e-21)
(0 2.95586e-14 5.1493e-16)
(0 0 3.38013e-16)
(0 2.8535e-14 -4.35395e-15)
(0 -7.38192e-17 2.40796e-15)
(0 2.84712e-14 -2.8247e-15)
(0 0 0)
(0 0 0)
(0 0 0)
(0 0 0)
(0 2.95498e-14 0)
(0 0 0)
(0 2.91016e-14 -5.05418e-16)
(0 0 3.98407e-15)
(0 -7.04659e-29 0)
(0 2.95586e-14 1.86406e-16)
(0 -3.26097e-27 0)
(0 0 0)
(0 0 0)
(0 0 0)
(0 0 0)
(0 0 -1.29422e-14)
(0 2.91617e-14 0)
(0 0 0)
(0 2.91397e-14 9.84441e-18)
(0 0 0)
(0 -1.32044e-25 0)
(0 2.95586e-14 4.27507e-15)
(0 2.95586e-14 1.74746e-14)
(0 -4.99041e-24 0)
(0 -3.18964e-25 0)
(0 0 0)
(0 0 0)
(0 0 0)
(0 0 0)
(0 0 -1.59943e-15)
(0 2.91397e-14 0)
(0 0 0)
(0 2.91397e-14 4.45173e-18)
(0 0 0)
(1.22555e-22 2.88703e-14 -4.38117e-15)
(0 -1.99255e-22 0)
(0 -7.28592e-24 0)
(0 2.86978e-14 8.13574e-17)
(0 -5.8678e-21 0)
(1.52246e-22 -3.28524e-41 6.43482e-16)
(0 0 0)
(0 0 0)
(0 0 0)
(0 0 -1.11251e-15)
(0 2.91776e-14 0)
(0 0 -7.55918e-22)
(0 2.92807e-14 0)
(0 0 -7.67112e-22)
(0 -1.67825e-19 0)
(2.06808e-19 0 -4.48274e-15)
(0 2.85079e-14 2.95358e-15)
(0 -3.56658e-18 0)
(2.60126e-18 0 3.85481e-15)
(0 0 0)
(-6.2762e-16 -4.98668e-15 2.27746e-14)
(0 0 0)
(0 0 0)
(0 -2.01606e-14 2.38595e-14)
(-2.25568e-14 3.1004e-14 3.0914e-14)
(0 0 0)
(3.1112e-14 -2.26645e-14 2.27216e-14)
(0 0 0)
(0 0 0)
(0 0 0)
(0 0 0)
(0 0 0)
(0 0 0)
(0 0 0)
(0 0 0)
(0 0 2.8901e-17)
(0 0 0)
(0 0 0)
(0 0 0)
(0 0 0)
(0 0 0)
(0 0 0)
(0 0 0)
(0 0 0)
(0 0 0)
(0 0 0)
(0 0 0)
(0 0 0)
(0 0 0)
(0 0 4.84729e-16)
(0 0 0)
(0 0 0)
(0 0 0)
(0 0 4.75049e-15)
(0 0 0)
(0 0 0)
(0 0 0)
(0 0 0)
(0 0 0)
(0 0 0)
(0 0 0)
(0 0 0)
(0 0 0)
(0 0 3.06373e-16)
(0 0 0)
(0 0 0)
(0 0 0)
(0 0 0)
(0 0 0)
(0 0 0)
(0 0 0)
(0 0 0)
(0 0 0)
(0 0 0)
(0 0 0)
(0 0 0)
(0 0 1.56791e-14)
(0 0 2.73307e-15)
(0 0 0)
(0 0 0)
(0 0 0)
(0 0 1.8006e-14)
(0 0 0)
(4.70759e-26 0 3.09579e-14)
(0 0 1.47748e-14)
(0 0 -4.11224e-14)
(3.27262e-24 0 -1.40094e-14)
(0 0 2.4556e-15)
(2.62126e-25 0 3.67401e-14)
(4.54955e-25 0 -9.7372e-15)
(0 0 0)
(0 0 0)
(0 0 0)
(0 0 0)
(0 0 0)
(0 0 0)
(0 0 0)
(0 0 0)
(0 0 1.18188e-16)
(0 0 0)
(0 0 0)
(0 0 0)
(0 0 0)
(0 0 0)
(0 0 9.41649e-16)
(0 0 0)
(0 0 7.24613e-15)
(0 0 0)
(0 0 -4.89675e-15)
(0 0 0)
(0 0 0)
(8.36795e-23 0 2.73378e-14)
(0 0 -8.21691e-15)
(4.28845e-23 0 1.44122e-14)
(0 0 2.53497e-14)
(4.6608e-24 0 -2.21603e-14)
(0 0 7.28893e-16)
(4.7411e-22 0 5.72184e-16)
(0 0 3.45288e-15)
(0 0 8.68478e-16)
(0 0 0)
(0 0 -1.0469e-14)
(0 0 0)
(0 0 5.45895e-15)
(0 0 -1.02339e-15)
(0 0 0)
(0 0 0)
(0 0 0)
(0 0 0)
(0 0 0)
(0 0 0)
(0 0 0)
(0 0 0)
(0 0 2.08039e-16)
(0 0 0)
(0 0 0)
(0 0 0)
(0 0 0)
(0 0 0)
(0 0 9.12472e-15)
(0 0 0)
(0 0 6.06595e-15)
(0 0 0)
(0 0 -4.51523e-15)
(0 0 0)
(0 0 -5.69977e-15)
(0 0 1.29139e-15)
(0 0 1.56562e-15)
(0 0 0)
(0 0 -7.16106e-15)
(0 0 0)
(0 0 1.00794e-14)
(0 0 -1.10482e-15)
(0 0 -8.58884e-16)
(0 0 0)
(0 0 0)
(0 0 -2.58918e-17)
(0 0 -2.66338e-15)
(0 0 -2.07447e-18)
(0 0 -3.05076e-16)
(0 0 -9.56675e-15)
(0 0 7.43558e-16)
(0 0 4.82308e-16)
(0 0 1.62123e-18)
(0 0 2.67199e-14)
(0 0 3.03633e-17)
(0 0 2.51642e-20)
(0 2.47421e-14 0)
(0 0 0)
(0 -6.52653e-17 0)
(2.47614e-17 0 0)
(0 2.95121e-14 -4.74179e-18)
(0 -7.77941e-16 -2.33239e-17)
(0 0 -2.66083e-19)
(0 0 0)
(0 0 0)
(0 0 -1.08194e-17)
(0 0 1.2869e-15)
(0 0 -2.42148e-18)
(0 0 -1.10262e-18)
(0 0 8.67118e-16)
(0 0 0)
(0 0 9.42138e-15)
(0 0 -1.53337e-16)
(0 0 -4.71058e-15)
(0 0 -1.67474e-17)
(0 0 -1.30457e-15)
(0 2.94124e-14 0)
(0 1.6037e-15 2.01478e-14)
(0 2.33464e-14 0)
(0 1.86696e-15 0)
(0 2.26968e-14 0)
(0 1.83234e-15 0)
(0 2.31585e-14 0)
(0 -3.91306e-15 -3.57001e-20)
(0 0 -1.27799e-15)
(0 0 0)
(0 0 0)
(0 7.43025e-15 -2.81373e-14)
(0 0 0)
(0 2.21283e-14 -5.91762e-15)
(0 0 0)
(0 0 0)
(0 0 0)
(0 0 0)
(0 0 0)
(0 7.75507e-15 0)
(0 6.86181e-15 0)
(0 0 0)
(0 2.26968e-14 0)
(0 0 0)
(0 0 0)
(0 0 0)
(0 0 0)
(0 0 0)
(0 6.86181e-15 0)
(0 6.86181e-15 0)
(0 0 0)
(0 2.26968e-14 0)
(0 0 0)
(0 0 0)
(0 0 0)
(0 7.12102e-15 0)
(0 0 0)
(0 0 0)
(0 0 -1.6241e-15)
(0 0 0)
(0 0 -1.578e-15)
(0 0 0)
(0 0 -1.26271e-15)
(0 0 0)
(0 0 0)
(0 0 0)
(0 0 0)
(0 0 0)
(0 0 0)
(0 0 0)
(0 0 0)
(0 0 0)
(0 0 0)
(0 0 0)
(0 0 0)
(0 0 0)
(0 0 0)
(0 0 0)
(0 0 0)
(0 0 0)
(0 0 0)
(0 0 0)
(0 0 0)
(0 0 0)
(0 0 0)
(0 0 0)
(0 0 0)
(0 0 0)
(0 0 0)
(0 0 0)
(0 0 0)
(0 0 0)
(0 0 0)
(0 0 0)
(0 0 0)
(0 0 0)
(0 0 0)
(0 0 0)
(0 0 0)
(0 0 0)
(0 0 0)
(0 0 0)
(0 0 0)
(0 0 0)
(0 0 0)
(0 0 0)
(0 0 0)
(0 0 0)
(0 0 0)
(0 0 0)
(0 0 0)
(0 0 0)
(0 0 0)
(0 0 0)
(0 0 0)
(0 0 0)
(0 0 0)
(0 0 0)
(0 0 0)
(0 0 0)
(0 0 0)
(0 0 0)
(0 0 0)
(0 0 0)
(0 0 0)
(0 0 0)
(0 0 0)
(0 0 0)
(0 0 0)
(0 0 0)
(0 0 0)
(0 0 0)
(0 0 0)
(0 0 0)
(0 0 0)
(0 0 0)
(0 0 0)
(0 0 0)
(0 0 0)
(0 0 0)
(0 0 0)
(0 0 0)
(0 0 0)
(0 0 0)
(0 0 0)
(0 0 0)
(0 0 0)
(0 0 0)
(0 0 -1.10758e-17)
(-1.18455e-16 0 -1.14051e-16)
(0 0 -4.54349e-16)
(0 0 -1.73122e-15)
(-1.461e-20 -3.41366e-16 0)
(-1.4714e-21 -3.65507e-16 0)
(-9.17392e-17 -3.63027e-16 1.80726e-14)
(0 0 0)
(0 0 0)
(0 0 0)
(0 0 0)
(0 0 2.44554e-15)
(0 0 -2.45865e-15)
(-9.74184e-18 -6.18476e-22 2.89674e-30)
(0 0 0)
(0 0 0)
(0 0 0)
(0 0 0)
(0 0 0)
(0 0 0)
(0 0 3.24719e-36)
(0 0 0)
(0 0 0)
(0 0 0)
(0 0 0)
(0 0 0)
(0 0 0)
(0 0 0)
(0 0 0)
(0 0 0)
(0 -2.74446e-15 0)
(0 0 0)
(0 -7.13458e-26 1.70848e-14)
(0 -2.29697e-18 -1.81404e-14)
(-1.80636e-16 -6.10636e-17 0)
(0 0 0)
(0 0 0)
(0 0 0)
(0 0 0)
(0 0 1.36811e-14)
(0 0 -1.65645e-14)
(-2.70126e-25 3.25079e-17 1.82801e-35)
(0 0 0)
(0 0 0)
(0 0 0)
(0 0 0)
(0 0 0)
(0 0 0)
(0 0 0)
(0 0 0)
(0 0 0)
(0 0 0)
(0 0 0)
(0 0 0)
(0 0 0)
(0 7.02194e-19 1.96365e-36)
(0 0 0)
(0 0 0)
(0 0 0)
(0 0 0)
(0 0 0)
(0 0 0)
(0 0 0)
(0 0 0)
(0 0 0)
(0 0 0)
(0 0 0)
(0 0 0)
(0 0 0)
(0 1.10854e-20 0)
(0 0 -5.69557e-17)
(-1.74083e-15 1.53329e-14 -2.38896e-16)
(0 4.97191e-15 -7.49486e-15)
(0 -7.11283e-15 9.49345e-15)
(0 0 -2.69339e-16)
(0 1.58536e-21 2.24758e-14)
(0 -1.54056e-19 0)
(0 0 -2.82902e-18)
(0 0 0)
(0 0 -4.60889e-20)
(0 2.36705e-20 -4.4447e-23)
(0 -1.57755e-19 -4.34809e-24)
(0 0 0)
(0 0 0)
(0 0 3.25717e-16)
(0 2.72129e-19 -8.05166e-21)
(0 -1.9419e-19 -5.38089e-24)
(0 0 0)
(0 0 0)
(0 0 2.48586e-15)
(0 2.78114e-19 3.64322e-21)
(0 -1.94098e-19 0)
(0 0 0)
(0 0 0)
(5.03175e-25 0 -4.11352e-16)
(0 4.12224e-19 -2.45681e-19)
(0 -1.74568e-19 0)
(0 0 2.27287e-17)
(0 0 0)
(1.17279e-21 0 -4.30919e-18)
(0 -3.53339e-19 1.98563e-19)
(0 0 -1.036e-23)
(0 0 -2.0877e-17)
(0 0 -1.02177e-23)
(3.63571e-17 9.6582e-26 3.09755e-15)
(0 0 0)
(0 -6.49118e-25 0)
(0 0 0)
(0 0 0)
(0 0 0)
(2.86199e-17 0 9.43209e-34)
(0 0 0)
(0 0 0)
(0 0 0)
(0 0 0)
(0 0 0)
(0 0 0)
(0 0 3.00553e-34)
(0 0 0)
(0 0 0)
(0 0 0)
(0 0 0)
(0 0 0)
(0 0 0)
(0 0 0)
(0 0 0)
(0 0 0)
(0 0 0)
(0 0 0)
(0 0 0)
(0 0 0)
(0 0 0)
(-6.55941e-22 1.47793e-14 0)
(0 0 0)
(0 0 0)
(0 0 0)
(0 0 2.15294e-14)
(1.58074e-25 0 2.72848e-14)
(0 0 6.23247e-15)
(0 0 2.12452e-14)
(7.40449e-29 0 0)
(0 0 0)
(0 0 0)
(0 0 0)
(0 0 3.63392e-15)
(0 0 1.82416e-14)
(0 0 -1.38137e-14)
(0 0 1.96426e-14)
(0 0 2.29505e-14)
(0 0 0)
(0 0 0)
(0 0 0)
(0 0 0)
(0 0 0)
(0 0 0)
(0 0 0)
(0 0 0)
(0 0 0)
(0 0 0)
(0 0 0)
(0 0 0)
(0 0 0)
(0 0 0)
(0 0 0)
(0 0 0)
(0 0 0)
(0 0 0)
(0 0 0)
(0 0 0)
(0 0 0)
(0 0 0)
(0 0 0)
(0 0 0)
(0 0 -1.65706e-15)
(-2.79236e-19 1.47793e-14 1.60296e-16)
(0 0 0)
(0 0 0)
(0 0 1.60781e-18)
(0 0 0)
(5.21838e-24 0 0)
(0 0 0)
(0 0 0)
(7.88874e-27 0 0)
(0 0 0)
(0 0 0)
(0 0 0)
(0 0 0)
(0 0 0)
(0 0 0)
(0 0 0)
(0 0 0)
(0 0 0)
(0 0 0)
(0 0 0)
(0 0 0)
(0 0 0)
(0 0 0)
(0 0 0)
(0 0 0)
(0 0 0)
(0 0 0)
(0 0 0)
(0 0 0)
(0 0 0)
(0 0 0)
(0 0 0)
(0 0 0)
(0 0 0)
(0 0 0)
(0 0 0)
(0 0 0)
(0 0 0)
(0 0 0)
(0 0 0)
(0 0 0)
(0 0 0)
(4.18867e-26 0 -5.77403e-16)
(0 0 1.27324e-14)
(0 0 8.95284e-15)
(0 0 0)
(-1.21568e-17 1.47793e-14 0)
(0 1.47793e-14 -2.6395e-15)
(0 0 0)
(0 0 0)
(0 0 0)
(0 0 -2.79489e-15)
(3.78523e-22 0 0)
(0 0 0)
(0 0 0)
(7.46149e-25 0 0)
(0 0 0)
(0 0 0)
(0 0 0)
(0 0 0)
(0 0 0)
(0 0 0)
(0 0 0)
(0 0 0)
(0 0 0)
(0 0 0)
(0 0 0)
(0 0 0)
(0 0 0)
(0 0 0)
(0 0 0)
(0 0 0)
(0 0 0)
(0 0 0)
(0 0 0)
(0 0 0)
(0 0 0)
(0 0 0)
(0 0 0)
(0 0 0)
(0 0 0)
(0 0 0)
(0 0 0)
(0 0 0)
(0 0 0)
(0 0 0)
(0 0 0)
(0 0 0)
(0 0 -1.12571e-16)
(-8.66885e-23 0 -4.81849e-17)
(0 0 0)
(0 0 -6.72132e-16)
(0 0 1.52259e-14)
(0 3.40588e-14 2.67634e-14)
(0 2.95586e-14 2.24913e-14)
(0 0 0)
(0 1.47793e-14 0)
(0 1.47793e-14 1.77587e-18)
(0 1.47793e-14 1.73108e-14)
(0 0 0)
(0 0 0)
(0 0 0)
(0 0 0)
(1.223e-20 0 -1.60094e-18)
(0 0 -3.57992e-20)
(0 0 0)
(6.07053e-23 0 0)
(0 0 0)
(0 0 0)
(0 0 0)
(0 0 0)
(0 0 0)
(0 0 0)
(0 0 0)
(0 0 0)
(0 0 0)
(0 0 0)
(0 0 0)
(0 0 0)
(0 0 0)
(0 0 0)
(0 0 0)
(0 0 0)
(0 0 0)
(0 0 0)
(0 0 0)
(0 0 0)
(0 0 0)
(0 0 0)
(0 0 0)
(0 0 0)
(0 0 0)
(0 0 0)
(0 0 0)
(0 0 0)
(0 0 0)
(0 0 0)
(0 0 0)
(0 0 0)
(0 0 -5.13355e-24)
(-3.00302e-14 0 3.3693e-18)
(0 0 -1.00516e-16)
(0 0 0)
(0 0 0)
(0 0 0)
(0 0 -6.88572e-16)
(0 0 1.52665e-14)
(0 3.30903e-14 2.17944e-14)
(0 2.95586e-14 2.23978e-14)
(0 0 0)
(0 1.47793e-14 -1.21381e-16)
(0 1.47793e-14 -1.6803e-16)
(0 1.47793e-14 -1.44203e-16)
(2.22043e-17 1.47793e-14 1.03044e-18)
(0 1.47793e-14 3.29243e-18)
(0 1.2668e-14 2.12222e-17)
(0 0 0)
(0 0 0)
(0 0 0)
(0 0 0)
(0 0 0)
(0 0 0)
(0 0 0)
(4.13577e-21 0 0)
(0 0 0)
(0 0 0)
(0 0 0)
(0 0 0)
(0 0 0)
(0 0 0)
(0 0 0)
(0 0 0)
(0 0 0)
(0 0 0)
(0 0 0)
(0 0 0)
(0 0 0)
(0 0 0)
(0 0 0)
(0 0 0)
(0 0 0)
(0 0 0)
(0 0 0)
(0 0 0)
(0 0 0)
(0 0 0)
(0 0 0)
(0 0 0)
(0 0 0)
(0 0 0)
(0 0 0)
(0 0 0)
(0 0 0)
(0 0 0)
(0 0 0)
(0 0 0)
(0 0 0)
(-1.47793e-14 0 -3.36518e-15)
(0 0 4.46445e-17)
(0 0 0)
(0 0 0)
(0 1.53169e-16 7.29434e-15)
(0 0 0)
(0 0 0)
(0 0 -1.47793e-14)
(0 0 0)
(0 -1.47793e-14 -6.55156e-15)
(0 1.47793e-14 8.31786e-16)
(1.11707e-16 1.47793e-14 1.31153e-14)
(0 1.47793e-14 7.95756e-15)
(0 1.22932e-14 1.00423e-14)
(0 0 0)
(0 0 0)
(0 2.65182e-14 -1.6241e-16)
(0 0 -2.68788e-14)
(0 0 -1.6241e-16)
(0 0 -2.40163e-14)
(0 2.76022e-35 -1.91022e-16)
(0 0 0)
(0 0 0)
(0 0 0)
(0 0 -1.6241e-16)
(0 0 0)
(0 0 0)
(0 0 0)
(9.0181e-20 0 -8.99508e-17)
(0 0 0)
(0 0 0)
(0 0 0)
(0 0 0)
(0 0 0)
(0 0 0)
(0 0 0)
(0 0 0)
(0 0 0)
(0 0 0)
(0 0 0)
(0 0 0)
(0 0 0)
(0 0 0)
(0 0 0)
(0 0 0)
(0 0 0)
(0 0 0)
(0 0 0)
(0 0 0)
(0 0 0)
(0 0 0)
(0 0 0)
(0 0 0)
(0 0 0)
(0 0 0)
(0 0 0)
(0 0 0)
(0 0 0)
(0 0 0)
(0 0 0)
(0 0 0)
(0 0 -4.03072e-16)
(0 0 -2.91297e-15)
(0 -2.65182e-14 -3.69482e-15)
(0 0 -1.47793e-14)
(0 -1.84733e-24 -1.6444e-14)
(0 -2.79507e-17 1.02955e-14)
(0 0 -2.44487e-15)
(0 0 -2.0519e-14)
(0 0 -2.21689e-14)
(0 0 -1.47793e-14)
(0 -5.50629e-22 -1.98952e-14)
(0 -1.46554e-20 3.04518e-15)
(-2.95294e-14 3.26472e-16 3.43314e-15)
(0 0 0)
(0 0 0)
(0 2.65182e-14 -7.30844e-16)
(0 0 -2.7366e-14)
(0 0 -7.30844e-16)
(0 0 -2.66352e-14)
(0 4.28832e-19 1.59808e-15)
(0 0 0)
(0 0 0)
(0 0 0)
(0 0 -7.30844e-16)
(0 0 0)
(0 0 -8.12049e-17)
(0 0 0)
(-2.28479e-17 0 1.94767e-14)
(0 0 0)
(0 0 0)
(0 0 0)
(0 0 0)
(0 0 0)
(0 0 0)
(0 0 0)
(0 0 0)
(0 0 0)
(0 0 0)
(0 0 0)
(0 0 0)
(0 0 0)
(0 0 0)
(0 0 0)
(0 0 0)
(0 0 0)
(0 0 0)
(0 0 0)
(0 0 0)
(0 0 0)
(0 0 0)
(0 0 0)
(0 0 0)
(0 0 0)
(0 0 0)
(0 0 0)
(0 0 0)
(0 0 0)
(0 0 0)
(0 0 0)
(0 0 0)
(0 0 0)
(0 0 0)
(0 0 0)
(0 0 0)
(0 0 0)
(0 0 0)
(0 0 0)
(0 0 0)
(0 0 0)
(0 0 0)
(0 0 0)
(0 0 0)
(0 0 0)
(0 0 0)
(0 0 0)
(-4.65766e-17 3.19051e-21 1.97257e-35)
(0 0 0)
(0 0 0)
(0 0 0)
(0 0 0)
(0 0 0)
(0 0 0)
(0 0 0)
(0 0 0)
(0 0 0)
(0 0 0)
(0 0 0)
(0 0 0)
(0 0 0)
(0 0 0)
(0 0 0)
(0 0 0)
(0 0 0)
(0 0 0)
(0 0 0)
(0 0 0)
(0 0 0)
(0 0 0)
(0 0 0)
(0 0 0)
(0 0 0)
(0 0 0)
(0 0 0)
(0 0 0)
(0 0 0)
(0 0 0)
(0 0 0)
(0 0 0)
(0 0 0)
(0 0 0)
(0 0 0)
(0 0 0)
(0 0 0)
(0 0 0)
(0 0 0)
(0 0 0)
(0 0 0)
(0 0 0)
(0 0 0)
(0 0 0)
(0 0 0)
(0 0 0)
(0 0 0)
(0 0 0)
(0 0 0)
(0 0 0)
(0 0 0)
(0 0 0)
(0 0 0)
(0 0 0)
(0 0 0)
(0 0 1.99014e-36)
(0 0 0)
(0 0 0)
(0 0 0)
(0 0 0)
(0 0 0)
(0 0 0)
(0 0 0)
(0 0 0)
(0 0 0)
(0 0 0)
(0 0 0)
(0 0 0)
(0 0 0)
(0 0 0)
(0 0 0)
(0 0 0)
(0 0 0)
(0 0 0)
(0 0 0)
(0 0 0)
(0 0 0)
(0 0 0)
(0 0 0)