/*--------------------------------*- C++ -*----------------------------------*\
  =========                 |
  \\      /  F ield         | OpenFOAM: The Open Source CFD Toolbox
   \\    /   O peration     | Website:  https://openfoam.org
    \\  /    A nd           | Version:  9
     \\/     M anipulation  |
\*---------------------------------------------------------------------------*/
FoamFile
{
    format      ascii;
    class       volScalarField;
    location    "0.0011";
    object      rho.c4;
}
// * * * * * * * * * * * * * * * * * * * * * * * * * * * * * * * * * * * * * //

dimensions      [1 -3 0 0 0 0 0];

internalField   nonuniform List<scalar> 
9555
(
69.8207
3.713e-05
6.40746e-13
2.22045e-16
2.22045e-16
32.3274
30.7785
6.08552
0.400234
33.5381
0.0192164
1.36988e-07
5.49468e-11
5.20899e-15
2.22045e-16
2.22045e-16
2.22045e-16
2.48879e-10
2.22045e-16
2.22045e-16
7.86866e-07
6.08396e-14
2.22045e-16
3.51388e-14
2.22045e-16
2.22045e-16
2.22045e-16
0.00379663
1.63675e-08
2.22045e-16
2.22045e-16
2.22045e-16
8.56696
0.0775428
2.79494e-08
6.75539e-14
2.22045e-16
72.107
0.000425696
4.34394e-08
4.18062e-15
2.22045e-16
56.7888
25.7565
2.05731e-12
2.22045e-16
2.22045e-16
0.0051837
3.76073e-08
7.06035e-15
2.22045e-16
2.22045e-16
1.11733e-05
1.30707e-12
2.22045e-16
2.22045e-16
2.22045e-16
1.23675e-06
1.11001e-12
2.22045e-16
2.22045e-16
2.22045e-16
2.22045e-16
2.22045e-16
2.22045e-16
2.22045e-16
2.22045e-16
2.22045e-16
2.22045e-16
2.22045e-16
2.22045e-16
2.22045e-16
2.22045e-16
2.22045e-16
2.22045e-16
2.22045e-16
2.22045e-16
2.22045e-16
2.22045e-16
2.22045e-16
2.22045e-16
2.22045e-16
2.22045e-16
77.9994
2.81562e-05
3.44122e-11
2.22045e-16
0.0244485
3.45139e-06
4.73075e-12
2.22045e-16
24.0919
0.00327121
5.83693e-07
1.21039e-14
2.22045e-16
18.0301
0.000944884
3.50234e-13
2.22045e-16
2.22045e-16
0.171315
8.46168e-11
2.22045e-16
2.22045e-16
2.22045e-16
0.00707169
8.3479e-11
2.22045e-16
2.22045e-16
2.22045e-16
2.22045e-16
3.73401e-12
2.22045e-16
2.22045e-16
2.22045e-16
2.22045e-16
2.22045e-16
2.22045e-16
2.22045e-16
2.22045e-16
2.22045e-16
2.22045e-16
2.22045e-16
2.22045e-16
2.22045e-16
2.22045e-16
2.22045e-16
2.22045e-16
2.22045e-16
2.22045e-16
2.22045e-16
2.22045e-16
2.22045e-16
2.22045e-16
2.22045e-16
43.8028
47.3448
5.33276e-05
5.07608e-06
3.3909e-13
2.22045e-16
2.22045e-16
6.37958e-12
2.22045e-16
2.22045e-16
23.38
33.4793
9.66218e-07
2.31222e-06
5.06897e-14
2.42441e-13
2.22045e-16
2.22045e-16
2.22045e-16
2.22045e-16
2.22045e-16
2.22045e-16
2.22045e-16
2.22045e-16
2.22045e-16
2.22045e-16
2.22045e-16
2.22045e-16
2.22045e-16
2.22045e-16
2.22045e-16
2.22045e-16
2.22045e-16
2.22045e-16
2.22045e-16
2.22045e-16
2.22045e-16
2.22045e-16
2.22045e-16
2.22045e-16
2.22045e-16
2.22045e-16
2.22045e-16
2.22045e-16
2.22045e-16
2.22045e-16
2.22045e-16
2.22045e-16
2.22045e-16
2.22045e-16
2.22045e-16
2.22045e-16
2.22045e-16
2.22045e-16
2.56779e-12
3.34024e-12
9.76495e-14
2.22045e-16
2.22045e-16
2.22045e-16
2.22045e-16
2.22045e-16
2.22045e-16
2.22045e-16
2.22045e-16
0.000339232
4.77646e-06
4.18229e-07
1.35423e-10
3.00471e-15
2.22045e-16
2.22045e-16
2.22045e-16
2.22045e-16
2.22045e-16
2.22045e-16
63.9831
9.46031
0.678581
0.000994833
3.1294e-08
9.80791e-15
2.22045e-16
2.22045e-16
2.22045e-16
2.22045e-16
2.22045e-16
11.1947
47.6721
54.557
85.0065
2.74524
3.84602e-07
3.61316e-14
2.22045e-16
2.22045e-16
2.22045e-16
2.22045e-16
85.1472
146.763
4.15377e-07
6.10261e-15
2.22045e-16
2.22045e-16
2.22045e-16
31.9801
3.70429e-09
1.30784e-15
2.22045e-16
2.22045e-16
2.22045e-16
2.22045e-16
2.22045e-16
2.22045e-16
2.22045e-16
2.22045e-16
2.22045e-16
2.22045e-16
2.22045e-16
2.22045e-16
2.22045e-16
2.22045e-16
2.22045e-16
2.22045e-16
2.22045e-16
2.22045e-16
2.22045e-16
2.22045e-16
2.22045e-16
2.22045e-16
2.22045e-16
2.22045e-16
2.22045e-16
2.22045e-16
2.22045e-16
2.22045e-16
2.22045e-16
2.22045e-16
2.22045e-16
2.22045e-16
2.22045e-16
2.22045e-16
2.22045e-16
2.22045e-16
2.22045e-16
2.22045e-16
2.23169e-16
3.16369e-16
2.22045e-16
2.22045e-16
2.22045e-16
2.22045e-16
2.22045e-16
2.22045e-16
2.22045e-16
2.22045e-16
2.22045e-16
9.77697e-09
1.21623e-08
1.20767e-10
1.18334e-13
2.22045e-16
2.22045e-16
2.22045e-16
2.22045e-16
2.22045e-16
2.22045e-16
2.22045e-16
68.6788
0.00807494
0.00019364
3.16724e-07
5.05368e-12
2.22045e-16
2.22045e-16
2.22045e-16
2.22045e-16
2.22045e-16
2.22045e-16
40.6055
60.5961
67.6349
20.0166
9.08838e-05
1.83743e-09
3.25397e-16
2.22045e-16
2.22045e-16
2.22045e-16
2.22045e-16
134.203
0.0110572
7.46099e-09
3.05923e-16
2.22045e-16
2.22045e-16
2.22045e-16
0.00293798
2.85469e-10
2.22045e-16
2.22045e-16
2.22045e-16
2.22045e-16
2.22045e-16
2.22045e-16
2.22045e-16
2.22045e-16
2.22045e-16
2.22045e-16
2.22045e-16
2.22045e-16
2.22045e-16
2.22045e-16
2.22045e-16
2.22045e-16
2.22045e-16
2.22045e-16
2.22045e-16
2.22045e-16
2.22045e-16
2.22045e-16
2.22045e-16
2.22045e-16
2.22045e-16
2.22045e-16
2.22045e-16
2.22045e-16
2.22045e-16
2.22045e-16
2.22045e-16
2.22045e-16
2.22045e-16
2.22045e-16
2.22045e-16
2.22045e-16
2.22045e-16
2.22045e-16
2.22045e-16
2.22045e-16
2.22045e-16
2.22045e-16
2.22045e-16
2.22045e-16
2.22045e-16
2.22045e-16
2.22045e-16
2.22045e-16
2.22045e-16
2.22045e-16
9.27985e-10
8.25231e-10
1.2961e-11
2.22045e-16
2.22045e-16
2.22045e-16
2.22045e-16
2.22045e-16
2.22045e-16
2.22045e-16
2.22045e-16
0.136613
0.000133938
7.36632e-06
1.19914e-08
9.88811e-15
2.22045e-16
2.22045e-16
2.22045e-16
2.22045e-16
2.22045e-16
2.22045e-16
29.5015
34.1082
7.74734
0.0108912
3.32152e-08
1.41858e-12
2.22045e-16
2.22045e-16
2.22045e-16
2.22045e-16
2.22045e-16
1.40159
1.17594e-06
1.56168e-12
2.22045e-16
2.22045e-16
2.22045e-16
2.22045e-16
0.00200767
1.37389e-13
2.22045e-16
2.22045e-16
2.22045e-16
2.22045e-16
2.22045e-16
2.22045e-16
2.22045e-16
2.22045e-16
2.22045e-16
2.22045e-16
2.22045e-16
2.22045e-16
2.22045e-16
2.22045e-16
2.22045e-16
2.22045e-16
2.22045e-16
2.22045e-16
2.22045e-16
2.22045e-16
2.22045e-16
2.22045e-16
2.22045e-16
2.22045e-16
2.22045e-16
2.22045e-16
2.22045e-16
2.22045e-16
2.22045e-16
2.22045e-16
2.22045e-16
2.22045e-16
2.22045e-16
2.22045e-16
2.22045e-16
2.22045e-16
2.22045e-16
2.22045e-16
2.22045e-16
2.22045e-16
2.22045e-16
2.22045e-16
2.22045e-16
2.22045e-16
2.22045e-16
2.22045e-16
2.22045e-16
2.22045e-16
2.22045e-16
2.22045e-16
6.90518e-14
5.50189e-14
2.22045e-16
2.22045e-16
2.22045e-16
2.22045e-16
2.22045e-16
2.22045e-16
2.22045e-16
2.22045e-16
2.22045e-16
2.06219e-06
1.88334e-06
1.85446e-09
3.11812e-15
2.22045e-16
2.22045e-16
2.22045e-16
2.22045e-16
2.22045e-16
2.22045e-16
2.22045e-16
46.1565
0.355473
0.0014085
1.77803e-08
9.53247e-11
2.22045e-16
2.22045e-16
2.22045e-16
2.22045e-16
2.22045e-16
2.22045e-16
0.00018125
1.49741e-09
2.22045e-16
2.22045e-16
2.22045e-16
2.22045e-16
2.22045e-16
3.47715e-10
2.22045e-16
2.22045e-16
2.22045e-16
2.22045e-16
2.22045e-16
2.22045e-16
2.22045e-16
2.22045e-16
2.22045e-16
2.22045e-16
2.22045e-16
2.22045e-16
2.22045e-16
2.22045e-16
2.22045e-16
2.22045e-16
2.22045e-16
2.22045e-16
2.22045e-16
2.22045e-16
2.22045e-16
2.22045e-16
2.22045e-16
2.22045e-16
2.22045e-16
2.22045e-16
2.22045e-16
2.22045e-16
2.22045e-16
2.22045e-16
2.22045e-16
2.22045e-16
2.22045e-16
2.22045e-16
2.22045e-16
2.22045e-16
2.22045e-16
2.22045e-16
2.22045e-16
2.22045e-16
2.22045e-16
2.22045e-16
2.22045e-16
2.22045e-16
2.22045e-16
2.22045e-16
2.22045e-16
2.22045e-16
2.22045e-16
2.22045e-16
2.22045e-16
2.22045e-16
2.22045e-16
2.22045e-16
2.22045e-16
2.22045e-16
2.22045e-16
2.22045e-16
2.22045e-16
2.22045e-16
2.22045e-16
2.22045e-16
2.0519e-11
1.97408e-11
7.20582e-15
2.22045e-16
2.22045e-16
2.22045e-16
2.22045e-16
2.22045e-16
2.22045e-16
2.22045e-16
2.22045e-16
0.000429778
1.45194e-05
5.96168e-07
3.01043e-12
2.22045e-16
2.22045e-16
2.22045e-16
2.22045e-16
2.22045e-16
2.22045e-16
2.22045e-16
0.563452
51.1615
0.131974
1.31121e-05
1.23414e-09
2.22045e-16
2.22045e-16
2.22045e-16
2.22045e-16
2.22045e-16
2.22045e-16
2.41917e-09
2.22045e-16
2.22045e-16
2.22045e-16
2.22045e-16
2.22045e-16
2.22045e-16
2.22045e-16
2.22045e-16
2.22045e-16
2.22045e-16
2.22045e-16
2.22045e-16
2.22045e-16
2.22045e-16
2.22045e-16
2.22045e-16
2.22045e-16
2.22045e-16
2.22045e-16
2.22045e-16
2.22045e-16
2.22045e-16
2.22045e-16
2.22045e-16
2.22045e-16
2.22045e-16
2.22045e-16
2.22045e-16
2.22045e-16
2.22045e-16
2.22045e-16
2.22045e-16
2.22045e-16
2.22045e-16
2.22045e-16
2.22045e-16
2.22045e-16
2.22045e-16
2.22045e-16
2.22045e-16
2.22045e-16
2.22045e-16
2.22045e-16
2.22045e-16
2.22045e-16
2.22045e-16
2.22045e-16
2.22045e-16
2.22045e-16
2.22045e-16
2.22045e-16
2.22045e-16
2.22045e-16
2.22045e-16
2.22045e-16
2.22045e-16
2.22045e-16
2.22045e-16
2.22045e-16
2.22045e-16
2.22045e-16
2.22045e-16
2.22045e-16
2.22045e-16
2.22045e-16
2.22045e-16
2.22045e-16
2.22045e-16
2.22045e-16
2.22045e-16
2.22045e-16
2.22045e-16
2.22045e-16
2.22045e-16
2.22045e-16
2.22045e-16
2.22045e-16
4.29576e-15
2.03795e-11
1.92038e-11
8.44626e-15
2.22045e-16
2.22045e-16
2.22045e-16
2.22045e-16
2.22045e-16
2.22045e-16
2.22045e-16
2.22045e-16
0.000117696
4.1604e-06
2.25312e-07
2.34553e-12
2.22045e-16
2.22045e-16
2.22045e-16
2.22045e-16
2.22045e-16
2.22045e-16
2.22045e-16
2.03528e-06
9.97507e-12
2.22045e-16
2.22045e-16
2.22045e-16
2.22045e-16
2.22045e-16
2.22045e-16
2.22045e-16
2.22045e-16
2.22045e-16
2.22045e-16
2.22045e-16
2.22045e-16
2.22045e-16
2.22045e-16
2.22045e-16
2.22045e-16
2.22045e-16
2.22045e-16
2.22045e-16
2.22045e-16
2.22045e-16
2.22045e-16
2.22045e-16
2.22045e-16
2.22045e-16
2.22045e-16
2.22045e-16
2.22045e-16
2.22045e-16
2.22045e-16
2.22045e-16
2.22045e-16
2.22045e-16
2.22045e-16
2.22045e-16
2.22045e-16
2.22045e-16
2.22045e-16
2.22045e-16
2.22045e-16
2.22045e-16
2.22045e-16
2.22045e-16
2.22045e-16
2.22045e-16
2.22045e-16
2.22045e-16
2.22045e-16
2.22045e-16
2.22045e-16
2.22045e-16
2.22045e-16
2.22045e-16
2.22045e-16
2.22045e-16
2.22045e-16
2.22045e-16
2.22045e-16
2.22045e-16
2.22045e-16
2.22045e-16
2.22045e-16
2.22045e-16
2.22045e-16
2.22045e-16
2.22045e-16
2.22045e-16
2.22045e-16
2.22045e-16
2.22045e-16
2.22045e-16
2.22045e-16
2.22045e-16
2.22045e-16
2.22045e-16
2.22045e-16
2.22045e-16
2.22045e-16
2.22045e-16
2.22045e-16
2.22045e-16
2.22045e-16
2.22045e-16
2.22045e-16
2.22045e-16
2.22045e-16
2.22045e-16
2.22045e-16
2.22045e-16
2.22045e-16
3.01046e-12
3.03892e-12
2.11116e-15
2.22045e-16
2.22045e-16
2.22045e-16
2.22045e-16
2.22045e-16
2.22045e-16
2.22045e-16
2.22045e-16
1.90058e-14
2.22045e-16
2.22045e-16
2.22045e-16
2.22045e-16
2.22045e-16
2.22045e-16
2.22045e-16
2.22045e-16
2.22045e-16
2.22045e-16
2.22045e-16
2.22045e-16
2.22045e-16
2.22045e-16
2.22045e-16
2.22045e-16
2.22045e-16
2.22045e-16
2.22045e-16
2.22045e-16
2.22045e-16
2.22045e-16
2.22045e-16
2.22045e-16
2.22045e-16
2.22045e-16
2.22045e-16
2.22045e-16
2.22045e-16
2.22045e-16
2.22045e-16
2.22045e-16
2.22045e-16
2.22045e-16
2.22045e-16
2.22045e-16
2.22045e-16
2.22045e-16
2.22045e-16
2.22045e-16
2.22045e-16
2.22045e-16
2.22045e-16
2.22045e-16
2.22045e-16
2.22045e-16
2.22045e-16
2.22045e-16
2.22045e-16
2.22045e-16
2.22045e-16
2.22045e-16
2.22045e-16
2.22045e-16
2.22045e-16
2.22045e-16
2.22045e-16
2.22045e-16
2.22045e-16
2.22045e-16
2.22045e-16
2.22045e-16
2.22045e-16
2.22045e-16
2.22045e-16
2.22045e-16
2.22045e-16
2.22045e-16
2.22045e-16
2.22045e-16
2.22045e-16
2.22045e-16
2.22045e-16
2.22045e-16
2.22045e-16
2.22045e-16
2.22045e-16
2.22045e-16
2.22045e-16
2.22045e-16
2.22045e-16
2.22045e-16
2.22045e-16
2.22045e-16
2.22045e-16
2.22045e-16
2.22045e-16
2.22045e-16
2.22045e-16
2.22045e-16
2.22045e-16
2.22045e-16
2.22045e-16
2.22045e-16
2.22045e-16
2.22045e-16
2.22045e-16
2.22045e-16
2.22045e-16
2.22045e-16
2.22045e-16
2.22045e-16
2.22045e-16
2.22045e-16
2.22045e-16
2.22045e-16
2.22045e-16
2.22045e-16
2.22045e-16
2.22045e-16
2.22045e-16
2.22045e-16
2.22045e-16
2.22045e-16
2.22045e-16
2.22045e-16
2.22045e-16
2.22045e-16
2.22045e-16
2.22045e-16
2.22045e-16
2.22045e-16
2.22045e-16
2.22045e-16
2.22045e-16
2.22045e-16
2.22045e-16
2.22045e-16
2.22045e-16
2.22045e-16
2.22045e-16
2.22045e-16
2.22045e-16
2.22045e-16
2.22045e-16
2.22045e-16
2.22045e-16
2.22045e-16
2.22045e-16
2.22045e-16
2.22045e-16
2.22045e-16
2.22045e-16
2.22045e-16
2.22045e-16
2.22045e-16
2.22045e-16
2.22045e-16
2.22045e-16
2.22045e-16
2.22045e-16
2.22045e-16
2.22045e-16
2.22045e-16
2.22045e-16
2.22045e-16
2.22045e-16
2.22045e-16
2.22045e-16
2.22045e-16
2.22045e-16
2.22045e-16
2.22045e-16
2.22045e-16
2.22045e-16
2.22045e-16
2.22045e-16
2.22045e-16
2.22045e-16
2.22045e-16
2.22045e-16
2.22045e-16
2.22045e-16
2.22045e-16
2.22045e-16
2.22045e-16
2.22045e-16
2.22045e-16
2.22045e-16
2.22045e-16
2.22045e-16
2.22045e-16
2.22045e-16
2.22045e-16
2.22045e-16
2.22045e-16
2.22045e-16
2.22045e-16
2.22045e-16
2.22045e-16
2.22045e-16
2.22045e-16
2.22045e-16
2.22045e-16
2.22045e-16
2.22045e-16
2.22045e-16
2.22045e-16
2.22045e-16
2.22045e-16
2.22045e-16
2.22045e-16
2.22045e-16
2.22045e-16
2.22045e-16
2.22045e-16
2.22045e-16
2.22045e-16
2.22045e-16
2.22045e-16
2.22045e-16
2.22045e-16
2.22045e-16
2.22045e-16
2.22045e-16
2.22045e-16
2.22045e-16
2.22045e-16
2.22045e-16
2.22045e-16
2.22045e-16
2.22045e-16
2.22045e-16
2.22045e-16
2.22045e-16
2.22045e-16
2.22045e-16
2.22045e-16
2.22045e-16
2.22045e-16
2.22045e-16
2.22045e-16
2.22045e-16
2.22045e-16
2.22045e-16
2.22045e-16
2.22045e-16
2.22045e-16
2.22045e-16
2.22045e-16
2.22045e-16
2.22045e-16
2.22045e-16
2.22045e-16
2.22045e-16
2.22045e-16
2.22045e-16
2.22045e-16
2.22045e-16
2.22045e-16
2.22045e-16
2.22045e-16
2.22045e-16
2.22045e-16
2.22045e-16
2.22045e-16
2.22045e-16
2.22045e-16
2.22045e-16
2.22045e-16
2.22045e-16
2.22045e-16
2.22045e-16
2.22045e-16
2.22045e-16
2.22045e-16
2.22045e-16
2.22045e-16
2.22045e-16
2.22045e-16
2.22045e-16
2.22045e-16
2.22045e-16
2.22045e-16
2.22045e-16
2.22045e-16
2.22045e-16
2.22045e-16
2.22045e-16
2.22045e-16
2.22045e-16
2.22045e-16
2.22045e-16
2.22045e-16
2.22045e-16
2.22045e-16
2.22045e-16
2.22045e-16
2.22045e-16
2.22045e-16
2.22045e-16
2.22045e-16
2.22045e-16
2.22045e-16
2.22045e-16
2.22045e-16
2.22045e-16
2.22045e-16
2.22045e-16
2.22045e-16
2.22045e-16
2.22045e-16
2.22045e-16
2.22045e-16
2.22045e-16
2.22045e-16
2.22045e-16
2.22045e-16
2.22045e-16
2.22045e-16
2.22045e-16
2.22045e-16
2.22045e-16
2.22045e-16
2.22045e-16
2.22045e-16
51.3245
0.00580539
0.000166687
35.0896
4.54463e-08
4.70824e-08
6.8155e-10
2.36932e-06
1.21731e-15
1.26735e-15
2.22045e-16
4.96595e-12
2.22045e-16
2.22045e-16
2.22045e-16
2.22045e-16
2.22045e-16
2.22045e-16
2.22045e-16
2.22045e-16
22.0194
0.00504033
3.43025e-08
100.36
4.16699e-07
2.26607e-14
63.4405
8.92035e-07
1.49246e-15
2.71983e-06
2.72959e-12
2.22045e-16
6.53231e-11
2.22045e-16
2.22045e-16
1.70021e-11
2.22045e-16
2.22045e-16
2.22045e-16
2.22045e-16
2.22045e-16
2.22045e-16
2.22045e-16
2.22045e-16
2.22045e-16
2.22045e-16
2.22045e-16
2.22045e-16
2.22045e-16
2.22045e-16
2.22045e-16
2.22045e-16
2.22045e-16
2.22045e-16
2.22045e-16
15.6374
50.8916
0.768111
1.65171e-06
2.48132e-06
2.17517e-05
3.58721e-06
1.44705e-14
34.7605
0.00323866
5.3641e-12
7.07088e-13
6.45616e-15
2.22045e-16
1.61684e-07
9.30412e-08
2.22045e-16
2.22045e-16
2.22045e-16
2.22045e-16
3.60957e-15
2.14091e-15
2.22045e-16
2.22045e-16
2.22045e-16
2.22045e-16
2.22045e-16
2.22045e-16
1.11305e-07
9.33656e-16
2.22045e-16
2.22045e-16
2.22045e-16
7.03399e-05
3.45053e-10
2.22045e-16
2.22045e-16
2.22045e-16
0.168824
4.16309e-05
3.27932e-13
2.22045e-16
2.22045e-16
1.00769
3.29577e-09
2.22045e-16
2.22045e-16
1.36006e-15
2.22045e-16
2.22045e-16
2.22045e-16
2.22045e-16
2.22045e-16
2.22045e-16
2.22045e-16
2.22045e-16
2.22045e-16
2.22045e-16
2.22045e-16
2.22045e-16
2.22045e-16
2.22045e-16
2.22045e-16
2.22045e-16
2.22045e-16
2.22045e-16
2.22045e-16
0.0106805
3.3231e-09
2.22045e-16
2.22045e-16
32.9932
0.0237733
1.03058e-05
5.37033e-06
2.01037e-12
8.66612e-13
2.22045e-16
2.22045e-16
33.8082
33.8164
1.33356e-05
1.09496e-05
4.26071e-12
2.48639e-12
2.22045e-16
2.22045e-16
1.09979e-09
0.0680415
0.000403752
2.22045e-16
1.4581e-11
1.72596e-06
8.83267e-12
1.39563e-06
0.105027
2.22045e-16
2.22045e-16
2.58109e-14
2.22045e-16
1.16788e-14
2.66553e-06
2.22045e-16
2.22045e-16
2.22045e-16
2.22045e-16
2.22045e-16
5.57914e-15
2.22045e-16
2.22045e-16
2.22045e-16
2.22045e-16
2.22045e-16
2.22045e-16
2.22045e-16
2.22045e-16
2.22045e-16
2.22045e-16
2.22045e-16
2.22045e-16
2.22045e-16
2.22045e-16
2.22045e-16
2.22045e-16
2.22045e-16
2.22045e-16
2.22045e-16
2.22045e-16
2.22045e-16
2.22045e-16
2.22045e-16
2.22045e-16
2.22045e-16
9.69123e-16
8.22011e-11
5.8568e-15
1.25216e-08
0.000586922
5.6008e-10
0.00382197
92.3251
152.727
2.22045e-16
2.22045e-16
2.22045e-16
2.22045e-16
2.22045e-16
2.22045e-16
2.22045e-16
2.22045e-16
2.22045e-16
2.22045e-16
2.22045e-16
2.22045e-16
2.22045e-16
2.22045e-16
9.37817e-15
2.22045e-16
5.21349e-13
3.57557e-08
4.28389e-10
1.07122e-08
11.7097
0.0111938
2.22045e-16
2.22045e-16
2.22045e-16
2.22045e-16
2.22045e-16
2.22045e-16
2.22045e-16
2.22045e-16
2.22045e-16
2.22045e-16
2.22045e-16
2.22045e-16
2.22045e-16
2.22045e-16
2.22045e-16
2.22045e-16
5.99095e-15
4.72321e-09
3.09393e-13
2.08228e-08
0.00423223
3.44356e-07
2.22045e-16
2.22045e-16
2.22045e-16
2.22045e-16
2.22045e-16
2.22045e-16
2.22045e-16
2.22045e-16
2.22045e-16
2.22045e-16
2.22045e-16
2.22045e-16
2.22045e-16
2.22045e-16
2.22045e-16
2.22045e-16
2.22045e-16
4.60227e-15
2.22045e-16
2.73292e-11
3.26764e-07
1.22625e-10
9.59695e-06
2.22045e-16
2.22045e-16
2.22045e-16
2.22045e-16
2.22045e-16
2.22045e-16
2.22045e-16
2.22045e-16
2.22045e-16
2.22045e-16
2.22045e-16
2.22045e-16
2.22045e-16
2.22045e-16
2.22045e-16
2.22045e-16
2.22045e-16
2.22045e-16
2.22045e-16
2.22045e-16
1.90657e-13
2.22045e-16
1.53834e-10
1.43568e-06
2.22045e-16
2.22045e-16
2.22045e-16
2.22045e-16
2.22045e-16
2.22045e-16
2.22045e-16
2.22045e-16
2.22045e-16
2.22045e-16
2.22045e-16
2.22045e-16
2.22045e-16
2.22045e-16
2.22045e-16
2.22045e-16
2.22045e-16
2.22045e-16
2.22045e-16
2.22045e-16
2.22045e-16
2.22045e-16
2.22045e-16
1.63873e-13
2.22045e-16
2.22045e-16
2.22045e-16
2.22045e-16
2.22045e-16
2.22045e-16
2.22045e-16
2.22045e-16
2.22045e-16
2.22045e-16
2.22045e-16
2.22045e-16
2.22045e-16
2.22045e-16
2.22045e-16
2.22045e-16
2.22045e-16
2.22045e-16
2.22045e-16
2.22045e-16
2.22045e-16
2.22045e-16
2.22045e-16
2.22045e-16
2.22045e-16
2.22045e-16
2.22045e-16
2.22045e-16
2.22045e-16
2.22045e-16
2.22045e-16
2.22045e-16
2.22045e-16
2.22045e-16
2.22045e-16
2.22045e-16
2.22045e-16
2.22045e-16
2.22045e-16
2.22045e-16
2.22045e-16
2.22045e-16
2.22045e-16
2.22045e-16
2.22045e-16
2.22045e-16
2.22045e-16
2.22045e-16
2.22045e-16
2.22045e-16
2.22045e-16
2.22045e-16
2.22045e-16
2.22045e-16
2.22045e-16
2.22045e-16
2.22045e-16
2.22045e-16
2.22045e-16
2.22045e-16
2.22045e-16
2.22045e-16
2.22045e-16
2.22045e-16
2.22045e-16
2.22045e-16
2.22045e-16
2.22045e-16
2.22045e-16
2.22045e-16
2.22045e-16
2.22045e-16
2.22045e-16
2.22045e-16
2.22045e-16
2.22045e-16
2.22045e-16
2.22045e-16
2.22045e-16
2.22045e-16
2.22045e-16
2.22045e-16
2.22045e-16
2.22045e-16
2.22045e-16
2.22045e-16
2.22045e-16
2.22045e-16
2.22045e-16
2.22045e-16
2.22045e-16
2.22045e-16
2.22045e-16
2.22045e-16
2.22045e-16
2.22045e-16
35.4269
4.35492
8.35679e-10
2.22045e-16
2.22045e-16
4.82599e-07
0.00258963
37.3917
8.10667e-07
41.4934
26.3907
52.0287
2.28298e-13
1.12185e-08
0.00760922
3.27616e-12
1.55004e-06
2.56721
4.2205e-06
2.22045e-16
2.22045e-16
3.84356e-13
2.22045e-16
1.11947e-12
7.2739e-11
5.96617e-12
2.22045e-16
2.22045e-16
2.22045e-16
2.22045e-16
2.22045e-16
2.22045e-16
2.22045e-16
2.22045e-16
2.22045e-16
2.22045e-16
2.22045e-16
2.22045e-16
2.22045e-16
2.22045e-16
8.69734e-16
2.51302e-06
68.8375
12.7084
2.22045e-16
2.11825e-11
75.4441
49.7653
2.22045e-16
1.22486e-12
0.00139719
32.6862
2.22045e-16
2.22045e-16
1.14306e-09
50.1791
2.22045e-16
2.22045e-16
3.88143e-15
3.39984e-07
0.000193189
12.5036
17.5606
13.7585
102.614
78.9024
36.7739
73.4376
14.9808
46.8114
40.7679
26.9223
31.7942
34.3474
44.1428
25.4588
53.5777
67.9362
47.653
9.65303
62.7147
20.449
50.5725
9.63467
10.6302
62.6732
63.8497
20.3547
23.2211
38.9556
40.894
36.9348
39.1965
3.32275
27.724
36.9555
26.0933
5.21556
36.9118
26.0312
36.7067
35.3227
5.14949
42.7466
39.4109
2.59663
0.171541
47.2712
27.8469
37.2267
37.298
35.891
30.063
44.0952
3.53617
48.2603
0.196041
68.27
35.8482
43.3313
105.295
7.61075
77.4461
46.9227
75.319
11.7811
21.8311
67.6401
87.8699
26.9112
56.5732
30.463
59.0399
73.5224
82.408
96.5045
24.6161
65.5281
66.7931
29.416
34.7317
60.6034
31.5561
32.2721
27.3301
63.155
31.4478
37.4997
32.4469
35.7495
27.5413
30.6068
41.1933
1.86631
0.010078
72.4471
53.051
43.2472
4.44022
47.909
14.6683
0.348819
0.411977
45.0587
36.6694
32.634
34.4996
0.368924
47.7279
0.414519
45.2886
36.4542
32.7438
39.67
44.8632
0.103587
21.3531
0.0529098
0.195123
51.9948
10.1794
11.0695
9.3143
12.1378
13.2861
16.5199
14.9878
137.613
15.8572
67.7721
124.901
57.0853
37.8971
140.816
3.94633
50.5237
56.9884
34.3231
68.6879
59.7406
66.7659
88.7305
44.6572
81.8987
24.1817
0.400463
33.736
47.9656
25.5855
27.9472
30.8941
1.01915
0.678404
40.1198
43.2674
33.9163
112.984
92.8523
129.892
2.76183
84.5451
133.679
20.6684
0.171569
48.6112
74.522
0.105232
54.2827
0.166517
72.98
32.6183
22.2894
93.8656
90.195
0.567904
47.7167
10.4926
9.82013
10.6721
16.9754
15.1006
16.6585
15.372
9.70964
10.4699
10.5381
16.7627
15.0948
16.6376
15.2109
12.2198
10.2871
11.1903
18.0489
18.2697
20.262
16.3182
67.9164
30.1511
88.8885
96.7941
0.0486116
74.8395
117.602
24.6889
41.715
0.691796
33.8777
27.7203
1.04871
39.8114
0.0964649
6.95293
37.0972
0.0251461
0.197646
62.259
51.1513
9.9957
11.5312
10.8352
17.378
17.1166
18.8749
15.7706
54.9682
0.0127801
29.1649
43.116
57.9054
5.96894
0.151717
105.687
33.955
84.2195
59.1521
93.2026
0.145718
123.708
13.6345
16.0704
17.6628
21.7473
27.2148
30.4052
19.5715
11.2651
21.7065
16.9938
28.3205
17.3262
22.2629
37.2656
13.0953
16.7365
19.1069
22.8071
25.2634
27.2858
29.5693
12.8272
13.6999
15.001
19.6268
21.6698
26.3302
23.8225
0.121596
34.0035
48.5575
0.0634604
0.0187973
46.8875
44.4063
13.9547
15.0938
16.6789
21.5676
23.9907
29.7982
26.7392
6.75346
45.6248
0.0518826
0.0658904
48.3688
28.6484
0.020299
13.1306
20.4553
13.1992
22.5865
35.6581
22.4443
35.8538
18.491
29.6364
23.3436
34.3656
29.2906
33.2735
37.9962
53.231
1.04857
0.0337402
42.4796
47.7582
53.9252
0.245893
15.8354
22.4109
14.2318
24.5814
44.8189
39.3246
27.8394
13.1759
20.9181
13.4403
22.9901
35.801
22.51
36.6073
14.6541
21.22
13.6092
23.4345
40.9316
25.5817
37.2755
29.019
26.0881
29.0752
30.1443
30.1491
32.7677
32.7501
0.0992338
105.773
91.0272
84.25
0.41618
59.5754
70.7089
52.4398
2.19057
0.00954147
43.5676
0.533845
47.9385
0.0101824
45.2645
0.0167563
0.584485
40.8875
0.570441
51.3837
0.0162951
40.5566
19.6899
21.8647
28.7977
48.5754
52.7611
25.8368
25.9624
28.9113
29.0165
30.0275
30.094
32.705
32.6424
45.783
26.3596
32.2772
46.6499
53.9153
62.8104
67.9691
16.8004
24.2359
18.5237
33.8118
41.0776
45.0772
30.5858
17.252
22.8925
25.2762
25.1909
27.9831
45.8425
40.9177
27.7326
27.8215
30.9476
31.5912
31.69
34.6192
34.4804
0.226795
0.124758
57.1133
42.5674
0.00118176
19.7257
0.00522435
0.583549
73.7789
156.954
7.38373
0.00719691
75.9986
78.1908
78.1241
115.544
0.122941
0.00403231
144.552
22.5652
0.00573759
0.39944
1.78427
53.3233
46.1969
0.000403388
0.150633
0.00524912
27.7543
29.3773
30.9939
30.4519
31.8637
33.1848
34.9652
23.6694
40.259
28.9436
30.1394
72.1585
51.2567
42.8236
27.8423
30.8729
31.014
31.6294
31.7276
34.687
34.5936
28.6088
31.0254
31.9967
31.7614
32.5533
34.8031
35.8613
40.2182
31.2119
30.1018
39.8586
44.8877
52.1251
45.9663
16.6372
32.9268
19.9639
47.4057
29.6171
36.2731
56.5761
18.538
38.1376
22.7366
53.3062
33.268
41.5417
64.1524
18.7942
27.5256
20.8979
38.6258
46.4992
51.1624
34.7248
36.5194
30.0972
36.8329
33.9606
34.1439
37.9381
40.8839
65.6257
0.151734
37.328
43.795
4.71258
32.3865
0.828934
24.462
32.6594
36.4852
40.3785
45.2112
68.9542
62.7799
24.0498
37.0925
27.0222
39.781
33.6909
35.5905
41.6623
35.8793
32.3098
36.2835
51.5697
52.1185
44.682
44.7895
31.7449
36.0154
36.4843
51.5487
51.5716
45.1645
45.0845
70.7142
1.86043
0.21147
9.4007
59.9448
0.204591
65.0202
2.3947
59.9481
60.5549
0.226283
0.298781
64.9137
66.3602
30.6573
47.5469
27.515
50.0968
49.8671
30.4373
27.7259
43.3946
34.968
38.4721
60.4132
54.8658
46.1036
50.1045
0.00686343
93.1912
124.229
0.0291727
9.6803e-05
53.7931
1.73409
40.0028
51.7291
81.5628
63.3242
67.2807
56.9967
35.827
54.302
50.1701
30.3318
40.4198
82.8415
67.0743
65.3728
33.1452
34.0196
55.5542
49.6748
51.9252
37.4065
29.9747
31.0373
47.847
27.5143
50.1011
50.2588
30.4723
28.0079
31.8501
48.2717
31.6753
52.3462
50.3895
34.7277
28.8736
33.221
37.8382
33.8831
37.6451
34.3001
38.0257
42.0776
33.6662
42.3929
25.2655
46.2401
78.8967
59.3244
67.6546
30.3124
27.1175
30.2149
31.8905
29.4434
32.1015
29.2519
33.4141
42.9099
38.4751
57.1061
53.0575
46.4352
49.8694
30.562
27.7266
30.8447
32.5647
29.648
32.3636
29.8374
31.9312
37.605
45.746
39.9306
43.7484
46.1945
50.0214
22.3858
60.6645
34.635
68.1143
38.8649
64.9932
107.803
0.00178223
71.2867
21.0102
0.0133454
5.43916e-05
84.7385
0.274912
69.5159
0.0621274
0.0001163
2.1509e-07
2.48121e-05
0.0744575
0.16904
0.149532
34.2038
0.0735468
0.140398
33.1818
33.8452
0.21015
34.2125
33.6954
0.0393121
0.12109
33.2919
34.1885
0.158979
0.038046
33.1458
0.210101
35.1931
0.164634
34.7387
0.228046
33.6134
0.239972
0.0295822
34.4032
0.150091
35.1146
0.16452
76.5414
0.241233
0.175904
0.108511
0.00629152
90.9297
29.3952
38.522
41.4447
31.9431
39.1516
50.1752
44.032
45.2456
32.6755
36.9705
32.7338
36.1809
40.0056
36.1731
40.0068
40.3437
60.7108
43.9454
52.3728
65.6293
67.3079
48.8562
49.5402
38.8563
29.0858
53.0963
87.04
67.1109
76.0749
33.5521
27.6278
31.114
32.4749
31.4935
29.7097
34.5802
34.7468
28.6056
32.0733
33.5123
32.6205
35.813
30.6448
37.6963
37.6058
41.0329
56.7187
53.0406
54.7967
55.2478
33.6638
44.1728
49.1221
55.7389
59.9324
76.1885
72.9126
50.3661
88.0555
65.4826
102.234
83.1682
81.3369
94.2367
77.9823
0.178506
1.32978e-06
2.64898
59.1168
0.0440591
7.88671e-05
38.6662
0.661579
0.000262851
33.8679
0.151201
12.1244
0.000638882
27.9539
0.0119207
0.019817
28.9558
0.0215125
32.9432
0.138744
0.208913
63.6295
83.0237
0.292597
0.013404
70.3667
43.6986
36.6014
55.9285
39.7506
46.8664
59.8827
61.161
43.871
0.00938983
111.663
151.033
0.217869
0.00294769
150.705
0.985853
0.00324611
114.088
143.285
149.287
0.000936911
0.507051
0.000967102
0.0172434
0.00624131
78.543
0.698476
0.357143
0.000123067
2.12911e-05
74.5971
9.52383e-05
0.355179
0.387739
9.3594e-05
0.0177421
1.15388e-07
100.863
0.0342198
53.649
0.0018448
130.948
4.13209e-05
0.369547
29.0527
33.5474
30.8411
35.1215
32.3644
34.0962
36.8579
32.5435
36.8566
32.6556
36.0977
39.796
36.029
39.896
32.5118
36.8327
36.6671
36.0813
36.0054
39.7633
39.8759
32.7342
36.9799
36.9696
36.1949
36.2317
40.0694
40.0242
37.2554
75.396
41.728
79.7396
111.924
116.222
72.243
49.7272
55.0815
57.9771
63.0406
69.7517
55.2374
61.8144
58.5875
87.149
51.3986
96.8229
63.3223
89.5578
115.11
38.1188
49.135
54.7686
61.8597
66.5384
82.3411
78.7158
0.0047755
0.0172677
34.9153
33.8054
0.00739661
0.0107462
16.1763
33.5298
0.0606331
0.0135388
6.80046
0.0187219
0.0206579
19.8435
10.9792
5.46197e-08
1.80647e-05
0.0164371
38.1024
1.62411
0.000104783
5.62926
0.0214972
0.0043384
33.0087
0.0735611
35.5903
0.0237541
0.0141971
106.445
138.293
0.0149632
3.08988e-05
128.466
0.0642939
46.8092
90.4042
52.4329
85.4625
109.486
111.707
78.7656
0.0675037
44.3719
47.5655
0.000158345
0.000147108
0.469509
0.902509
52.8878
50.8013
0.927106
0.000399746
0.750771
1.26497
0.000993732
0.749655
0.609351
53.8131
1.25522
0.976123
0.000975678
0.000442875
33.099
39.4595
37.2746
38.7739
36.6525
40.4368
42.772
0.628312
0.0090418
0.00742545
111.738
151.76
149.695
0.109579
42.5994
42.7537
41.8761
48.5794
47.0151
46.969
52.6754
50.9833
62.3161
60.2321
67.7249
75.5282
56.4443
64.3036
55.6411
97.4918
91.6254
92.5189
80.0137
82.6556
74.8613
41.655
62.7314
57.6425
56.3469
57.6089
40.9824
56.6943
41.0274
57.6103
62.1014
56.2795
57.0689
40.8879
55.9673
42.0572
34.6503
39.2319
34.8638
38.2841
38.1033
42.2782
39.3553
34.8215
34.9585
38.3772
42.2862
38.2813
42.3934
35.0322
40.7347
36.2128
42.5507
38.5335
39.7905
43.9722
33.1123
39.4306
35.0523
40.4521
36.6565
38.7254
42.7347
57.2308
57.493
50.035
59.6924
58.8031
52.4089
67.9213
33.1136
38.9451
37.3866
38.1408
36.6624
40.5512
42.2294
35.4826
39.7585
40.6037
45.3288
43.9391
44.6688
49.4078
53.5168
43.1184
46.3233
60.4124
64.4842
65.7388
59.0413
28.1062
30.9047
31.0923
30.4515
30.6554
33.6872
33.4701
28.914
33.8765
31.8962
33.4035
31.4516
34.4732
36.4587
27.4238
30.6417
30.3019
30.2182
29.9761
33.2007
32.9054
85.9392
0.417928
3.79096e-05
0.0723892
78.9263
0.00127205
47.403
27.7907
32.2292
30.5845
32.0327
30.3432
33.1938
34.8622
3.76303e-05
54.4284
0.326789
6.26862e-05
3.93918e-08
4.20841
0.00573203
0.021286
0.0212064
33.5596
0.000314381
2.57149
0.000878428
4.41606
33.6853
0.0196031
33.6101
0.00029891
2.52347
0.000839942
4.31846
2.26008
136.288
110.253
2.66919e-05
0.00689373
0.13853
134.16
3.19044e-07
0.355971
9.74958e-05
0.447639
59.5426
7.46126e-05
0.0127852
38.1678
36.6245
33.9761
37.2823
44.4575
41.7329
40.084
44.1443
63.3243
62.2982
64.2051
58.8981
58.8268
48.9346
42.275
58.4967
62.1371
59.1527
57.0594
45.3534
56.6281
72.1751
64.5021
63.2027
85.8992
83.9993
72.6072
73.3078
48.5156
62.2551
51.8013
62.0556
63.1782
60.1738
65.3691
38.523
37.7558
43.2124
35.682
39.3535
43.8333
39.5878
52.2657
90.8764
58.3387
95.6846
112.205
114.334
91.1101
37.2756
36.9002
42.1708
34.6503
38.1788
42.8805
38.8131
47.2595
92.7295
66.6308
89.1378
74.1566
87.1514
99.6784
28.623
69.8557
63.5129
6.58664
9.57786
5.68084
18.4408
7.22841
43.2625
20.1902
39.6113
22.7729
13.5545
54.2764
14.1434
30.7376
6.03042
6.2544
6.61509
7.797
8.46086
8.98425
8.29262
7.41004
8.07704
7.20393
9.85744
10.2995
11.2139
9.08745
7.6785
10.2677
9.4153
14.6385
10.1576
10.8947
16.0625
14.8186
12.0469
12.9124
20.6867
23.2161
23.4118
26.6967
8.43273
13.8417
11.6963
12.1716
22.4087
14.1916
18.5338
13.7899
12.2996
12.0389
21.1915
21.8567
24.9899
23.9188
11.2277
20.4662
12.2499
13.1865
20.2108
22.4517
12.0648
16.1525
23.6784
18.2106
35.5382
28.1604
32.7648
41.8271
14.8336
31.7644
15.8755
23.4016
17.5306
25.9976
13.5119
22.24
17.4356
16.9881
30.1793
33.8693
37.0603
28.2541
28.0105
24.6686