/*--------------------------------*- C++ -*----------------------------------*\
  =========                 |
  \\      /  F ield         | OpenFOAM: The Open Source CFD Toolbox
   \\    /   O peration     | Website:  https://openfoam.org
    \\  /    A nd           | Version:  9
     \\/     M anipulation  |
\*---------------------------------------------------------------------------*/
FoamFile
{
    format      ascii;
    class       volScalarField;
    location    "0.00165";
    object      impulse;
}
// * * * * * * * * * * * * * * * * * * * * * * * * * * * * * * * * * * * * * //

dimensions      [1 -1 -1 0 0 0 0];

internalField   nonuniform List<scalar> 
13527
(
0
0
0
1.98876e-14
1.0344e-12
3.33356e-11
1.02264e-09
0
0
0
0
2.60722e-14
1.30131e-12
3.76962e-11
0
0
0
0
0
3.24993e-14
1.21254e-12
0
0
0
0
0
0
2.36469e-14
0
0
0
0
0
0
0
1.00699e-09
3.01702e-11
8.34795e-13
9.33748e-15
3.15115e-08
2.6823e-06
2.57221e-08
6.67604e-10
1.75338e-11
4.12911e-13
0.00354627
3.52418e-07
1.15276e-08
2.78722e-10
6.6803e-12
6.83002e-10
2.40441e-08
6.25358e-06
0.00292324
1.56874e-10
6.10665e-09
1.62113e-07
5.15545e-05
1.05358
3.72319e-11
1.34851e-09
4.36376e-08
1.96882e-06
0.000355651
0
0
0
0
0
0
0
0
0
4.72937e-15
0
0
0
0
0
0
0
0
1.57646e-14
4.98039e-13
0
0
0
0
0
0
0
3.51671e-14
1.08739e-12
2.16084e-11
0
0
0
0
0
0
4.30494e-14
1.632e-12
4.32921e-11
8.37197e-10
0
0
0
0
0
3.4197e-14
1.78322e-12
5.76012e-11
1.56428e-09
3.1113e-08
0
0
0
0
2.42532e-14
1.38013e-12
5.27036e-11
1.76493e-09
5.52507e-08
7.26517e-07
0
0
0
1.00651e-14
7.51121e-13
3.22902e-11
1.25127e-09
4.74315e-08
0.00105675
0.000912811
0
0
4.85064e-16
2.54052e-13
1.1974e-11
4.9611e-10
1.87549e-08
0.000130119
21.759
0
0
0
0
0
0
0
0
0
0
0
0
0
0
0
0
0
0
9.70128e-16
9.95594e-14
0
0
0
0
0
0
0
3.51671e-15
2.30042e-13
4.61514e-12
0
0
0
0
0
0
4.36557e-15
3.37968e-13
9.15861e-12
1.86891e-10
0
0
0
0
0
4.72937e-15
3.64404e-13
1.21517e-11
3.30449e-10
6.95283e-09
0
0
0
0
1.33393e-15
2.86551e-13
1.10986e-11
3.69367e-10
1.0223e-08
1.89366e-07
0
0
0
0
1.6189e-13
6.85989e-12
2.63589e-10
8.8918e-09
5.17383e-06
0.000159151
0
0
0
4.93552e-14
2.63778e-12
1.11282e-10
4.42676e-09
1.30364e-06
0.090079
150.102
0
0
0
0
0
0
0
0
0
0
0
0
0
0
0
0
0
0
0
7.88229e-15
0
0
0
0
0
0
0
0
2.2798e-14
6.62961e-13
0
0
0
0
0
0
0
3.55309e-14
1.18829e-12
2.51592e-11
0
0
0
0
0
0
4.05028e-14
1.52553e-12
4.08535e-11
8.75161e-10
0
0
0
0
0
2.89826e-14
1.39044e-12
4.4663e-11
1.23614e-09
2.69872e-08
0
0
0
0
1.54008e-14
9.11677e-13
3.32338e-11
1.09824e-09
3.13517e-08
1.23072e-06
0
0
0
1.94026e-15
4.01754e-13
1.61684e-11
6.01744e-10
2.04021e-08
8.64455e-07
0.000120354
0
0
0
0
0
0
0
0
0
0
0
0
0
0
0
0
0
0
0
0
0
0
0
0
0
0
0
0
0
7.19107e-14
0
0
0
0
0
0
0
4.85064e-16
1.3885e-13
3.31772e-12
0
0
0
0
0
0
9.70128e-16
1.85779e-13
5.23008e-12
1.16333e-10
0
0
0
0
0
1.21266e-16
1.67104e-13
5.74728e-12
1.59212e-10
3.6784e-09
0
0
0
0
0
1.14111e-13
4.42778e-12
1.44035e-10
4.13575e-09
1.00052e-07
0
0
0
0
5.19018e-14
2.36299e-12
8.46744e-11
2.76763e-09
7.86789e-08
5.7064e-06
0
0
0
0
0
0
0
0
0
0
0
0
0
0
0
0
0
0
0
0
0
0
0
0
0
0
0
0
0
9.70128e-16
0
0
0
0
0
0
0
0
4.72937e-15
2.53931e-13
0
0
0
0
0
0
0
7.88229e-15
3.96055e-13
9.00788e-12
0
0
0
0
0
0
5.09317e-15
4.30009e-13
1.20914e-11
2.7987e-10
0
0
0
0
0
3.51671e-15
3.40515e-13
1.11608e-11
3.1429e-10
7.6202e-09
0
0
0
0
1.21266e-16
1.8772e-13
6.9911e-12
2.26487e-10
6.55826e-09
1.74703e-07
0
0
0
0
0
0
0
0
0
0
0
0
0
0
0
0
0
0
0
0
0
0
0
0
0
0
0
0
0
0
0
0
0
0
0
0
0
0
0
6.18456e-15
0
0
0
0
0
0
0
0
1.26117e-14
4.18125e-13
0
0
0
0
0
0
0
1.09139e-14
5.62553e-13
1.27425e-11
0
0
0
0
0
0
1.00651e-14
5.26658e-13
1.43284e-11
3.27715e-10
0
0
0
0
0
3.51671e-15
3.34573e-13
1.06371e-11
2.90987e-10
6.76596e-09
0
0
0
0
0
0
0
0
0
0
0
0
0
0
0
0
0
0
0
0
0
0
0
0
0
0
0
0
0
0
0
0
0
0
0
0
0
0
0
0
0
0
0
0
0
0
0
0
0
7.88229e-15
0
0
0
0
0
0
0
0
1.26117e-14
4.43106e-13
0
0
0
0
0
0
0
1.26117e-14
5.03011e-13
1.11612e-11
0
0
0
0
0
0
3.75924e-15
3.74227e-13
1.00551e-11
2.21215e-10
0
0
0
0
0
0
0
0
0
0
0
0
0
0
0
0
0
0
0
0
0
0
0
0
0
0
0
0
0
0
0
0
0
0
0
0
0
0
0
0
0
0
0
0
0
0
0
0
0
0
0
0
0
0
0
0
0
0
0
6.18456e-15
0
0
0
0
0
0
0
0
7.88229e-15
3.13836e-13
0
0
0
0
0
0
0
4.72937e-15
2.87158e-13
6.22628e-12
0
0
0
0
0
0
0
0
0
0
0
0
0
0
0
0
0
0
0
0
0
0
0
0
0
0
0
0
0
0
0
0
0
0
0
0
0
0
0
0
0
0
0
0
0
0
0
0
0
0
0
0
0
0
0
0
0
0
0
0
0
0
0
0
0
0
0
0
0
1.21266e-15
0
0
0
0
0
0
0
0
7.27596e-16
1.47217e-13
0
0
0
0
0
0
0
0
0
0
0
0
0
0
0
0
0
0
0
0
0
0
0
0
0
0
0
0
0
0
0
0
0
0
0
0
0
0
0
0
0
0
0
0
0
0
0
0
0
0
0
0
0
0
0
0
0
0
0
0
0
0
0
0
0
0
0
0
0
0
0
0
0
0
0
0
0
0
0
0
1.67449e-11
4.06956e-12
9.67581e-13
1.60192e-13
6.54594e-12
2.2659e-10
7.3966e-09
2.37775e-07
1.94189e-06
0
0
4.85064e-14
3.03892e-12
1.50637e-10
6.77494e-09
3.85208e-07
0.00170376
54.3233
0
2.54659e-15
4.55839e-13
2.00066e-11
8.35586e-10
3.63663e-08
6.48637e-07
60.6358
0
4.20793e-14
2.67076e-12
1.33538e-10
6.54969e-09
1.74319e-07
1.23068e-05
84.5823
0
1.90145e-13
9.16662e-12
3.75407e-10
1.32277e-08
1.72102e-06
0.399819
3.63798e-16
3.6974e-13
0
0
4.9719e-15
6.27066e-13
2.65101e-11
1.12027e-09
5.1745e-08
2.55206e-05
6.97566
0
0
1.08897e-13
5.00865e-12
1.83935e-10
5.91869e-09
9.64707e-08
8.68004
0
6.0633e-15
6.10453e-13
2.40047e-11
9.00153e-10
3.49304e-08
8.80871e-07
19.8444
0
4.00178e-14
2.19467e-12
8.70447e-11
3.61247e-09
1.26103e-07
5.19923e-05
5.84433
0
8.77966e-14
0
0
0
1.09139e-13
4.97409e-12
1.95286e-10
7.6393e-09
2.55356e-07
7.57058e-07
0
0
1.29755e-14
1.08388e-12
4.22501e-11
1.49421e-09
4.87936e-08
7.11713e-06
0
0
1.44185e-13
6.07542e-12
2.26975e-10
8.80091e-09
2.38722e-07
0.00239027
0
3.51671e-15
5.21929e-13
2.0476e-11
7.6201e-10
2.57721e-08
1.24413e-06
0.0164034
0
1.15203e-14
0
0
0
1.00651e-14
8.04357e-13
3.03879e-11
1.05699e-09
3.24408e-08
4.64643e-07
0
0
0
1.64073e-13
7.01851e-12
2.62289e-10
1.02232e-08
7.90174e-07
4.91481e-05
0
0
1.6856e-14
1.07005e-12
4.08584e-11
1.36625e-09
3.96716e-08
5.14919e-06
0
0
8.51287e-14
3.66138e-12
1.2789e-10
4.12882e-09
1.30832e-07
0.00110629
0
0
0
0
0
0
6.09968e-14
2.82525e-12
1.00373e-10
3.24121e-09
9.22621e-08
0
0
0
7.88229e-15
6.81878e-13
2.70982e-11
1.0008e-09
3.43459e-08
5.45129e-07
0
0
0
9.33748e-14
4.30785e-12
1.55237e-10
5.05885e-09
1.56692e-07
0
0
1.69772e-15
3.72408e-13
1.41107e-11
4.95712e-10
1.80067e-08
5.5027e-07
0
0
6.91216e-15
6.552e-13
2.4695e-11
8.64479e-10
2.98455e-08
7.20387e-07
0
0
0
0
0
1.30725e-13
4.98743e-12
1.55458e-10
4.25267e-09
9.85649e-08
0
0
0
0
2.4617e-14
1.40099e-12
4.8567e-11
1.55367e-09
4.32785e-08
4.53577e-07
0
0
0
1.21266e-16
2.29435e-13
8.74497e-12
2.81729e-10
8.30533e-09
0
0
0
1.15203e-14
8.04357e-13
2.86129e-11
9.54729e-10
3.21514e-08
0
0
0
2.77699e-14
1.44319e-12
5.00519e-11
1.6752e-09
5.61389e-08
0
0
0
0
0
1.21266e-16
1.72804e-13
5.51627e-12
1.43178e-10
3.02466e-09
0
0
0
0
0
4.43833e-14
1.76406e-12
5.22358e-11
1.35221e-09
2.70114e-08
0
0
0
0
2.54659e-15
3.32269e-13
1.08698e-11
2.9616e-10
0
0
0
0
2.38894e-14
1.14815e-12
3.51538e-11
9.98008e-10
0
0
0
0
4.28069e-14
2.01714e-12
6.1411e-11
1.74831e-09
0
0
0
0
0
0
1.21266e-16
1.51097e-13
4.1319e-12
8.37323e-11
0
0
0
0
0
0
4.43833e-14
1.53147e-12
3.69965e-11
7.04942e-10
0
0
0
0
0
3.51671e-15
3.28873e-13
9.21488e-12
0
0
0
0
0
2.8255e-14
1.10837e-12
2.91626e-11
0
0
0
0
0
5.40846e-14
1.95929e-12
5.06689e-11
0
0
0
0
0
0
0
0
9.44662e-14
2.08553e-12
0
0
0
0
0
0
0
3.17717e-14
9.3775e-13
1.70658e-11
0
0
0
0
0
0
2.54659e-15
2.40349e-13
0
0
0
0
0
0
2.06152e-14
7.8835e-13
0
0
0
0
0
0
4.42621e-14
1.37576e-12
0
0
0
0
0
0
0
0
0
3.72286e-14
0
0
0
0
0
0
0
0
1.16415e-14
3.7362e-13
0
0
0
0
0
0
0
1.21266e-16
0
0
0
0
0
0
0
9.33748e-15
0
0
0
0
0
0
0
1.87962e-14
0.000654234
0.0218337
3.79001e-06
3.92567e-06
0.000374118
2.40722e-07
7.37239e-05
1.7102e-06
0.0005633
4.17421e-06
0.00459894
6.91936e-09
1.1492e-07
2.63556e-08
5.57661e-07
4.6046e-08
1.42368e-06
2.0111e-10
3.1671e-09
6.55511e-10
1.08401e-08
1.13928e-09
1.86803e-08
5.42107e-12
8.65001e-11
1.66883e-11
2.58423e-10
2.86629e-11
4.42242e-10
1.18477e-13
2.1093e-12
3.8599e-13
6.16577e-12
6.7145e-13
1.03544e-11
0.609095
41.4269
148.926
98.7167
0.180637
4.03467
0.0139035
0.362101
16.2575
0.00208764
0.0295624
0.029033
34.2441
0.000147109
0.592096
30.6466
4.12061e-05
0.00341538
0.00010718
0.443388
12.5273
0.0693965
0.0154289
80.4292
10.7361
9.66352
0.00126577
1.04009
77.789
20.3982
0.0431859
0.00313646
14.6703
173.382
2.02824
125.421
0.000954608
0.80533
65.741
45.6932
15.3746
0.159785
0.000180418
23.8117
0.000397757
5.76606
0.0475897
3.54842e-05
0.514589
0.00355041
0.214432
2.01023e-05
5.46675e-05
3.63391e-05
0.000465605
6.6983
0.00890925
33.9935
0.035577
9.23242
0.00254996
0.0699069
2.32076e-05
8.00717e-05
28.2514
5.55815
53.8586
11.2514
0.0114862
0.00487401
1.54817e-05
140.979
129.684
121.822
84.2275
77.1453
60.3134
66.8646
1.23784
0.0267336
3.62991e-05
1.06055
0.0296258
2.22657e-05
0.000134884
0.00055604
0.00602809
1.34014e-05
0.362281
93.4175
0.00706452
3.46349
0.809935
0.0198389
1.77955e-05
0.000103854
0.000814504
4.60948e-05
1.39533e-05
165.623
135.169
127.37
113.747
106.114
69.1353
75.9399
0.000344947
2.3642
0.755762
0.752402
2.64803e-05
0.00017901
2.36911
123.902
80.3684
104.951
41.3105
62.0006
46.5363
28.3694
34.5276
7.33064
36.1608
17.3994
8.01968
1.98869
1.76871
36.0645
16.0432
17.3161
7.22196
7.97721
1.9712
1.73005
122.044
78.2249
119.467
58.1707
60.1963
29.3617
27.946
119.367
80.2664
122.042
58.0414
60.1961
29.2611
27.6526
77.3797
108.021
100.366
43.0444
31.4183
26.7077
48.8486
2.32771e-05
0.00013681
1.86885
4.06125e-05
0.389517
1.32807e-05
0.120386
25.448
13.5905
10.2674
5.80057
4.01755
1.30807
0.841693
149.423
87.1644
111.057
66.9319
90.0172
54.9914
35.717
105.985
72.9315
114.07
53.6521
47.1087
24.4956
20.0173
0.00905422
4.13458
1.8646
1.7656e-05
0.449719
1.06377e-05
0.126225
101.557
64.3205
110.978
96.7461
59.9616
51.8985
23.7431
0.00215795
1.43699e-05
0.0116702
0.000633946
4.30042e-06
9.21327e-05
1.04149e-05
62.2461
60.8466
84.0425
31.2334
7.54176
17.5641
16.5562
19.1519
3.57811
6.6862
1.11051
2.32502
0.462291
0.21706
56.493
95.2276
82.0765
29.5136
38.8428
14.7912
9.56011
1.24373
0.00393507
0.00029203
1.6901e-05
0.0191338
1.16135e-05
0.00521166
48.3022
94.113
86.8449
35.7586
14.5351
11.5463
41.0601
0.000131846
8.08525e-06
3.28444e-06
7.19369e-05
1.02083
1.14143e-05
0.30494
54.2087
37.7292
32.5214
16.4699
13.2331
4.61258
6.21504
0.00694876
2.53951e-05
0.17631
4.50526e-06
0.000522957
7.87317e-06
0.0530315
30.7839
2.93389
26.1977
16.21
1.68242
1.18537
19.7971
56.023
11.6894
49.943
22.9142
3.3216
2.37283
27.2251
67.0382
50.8517
22.352
19.9905
11.4457
5.16685
2.2068
8.57041e-05
3.33113e-06
4.73545e-05
3.25996e-05
0.00132709
1.70542e-05
2.008e-06
5.77265e-06
0.0637246
4.16416e-05
5.80982e-06
5.24953e-05
0.00614228
6.71499e-05
0.00332652
1.5508e-05
5.95583e-05
3.21667e-05
4.7202e-05
1.95583e-06
3.28878e-06
0.000125399
4.86268e-06
6.2658e-05
0.00506374
0.00012072
6.12305e-05
4.57349e-06
56.3042
57.6174
39.9356
27.6412
15.4084
16.0845
3.59252
28.2538
7.97968
33.4457
0.480461
5.39863
3.83568
0.319725
3.31938e-05
0.000225472
0.000135629
8.49046e-06
1.97343e-05
2.17412e-06
5.72249e-06
0.00167454
4.30997e-06
3.73438e-05
5.06228e-06
6.65599e-05
9.59569e-07
1.33686e-05
2.52184e-06
2.15785e-05
3.91557e-05
0.00396401
0.000614067
3.5631e-05
4.54384e-05
4.43724
0.686221
4.91507
0.322095
0.0364301
0.28617
0.0410429
7.42298
1.31123
17.1416
9.59674
0.14182
0.518882
3.4343
0.678056
4.33899
4.87166
0.318728
0.0354412
0.279103
0.0405769
39.2573
9.99191
37.662
7.44791
0.658636
6.86396
0.7306
37.1027
10.5887
39.0239
7.36297
0.628036
0.716606
6.66344
36.074
50.354
71.6517
25.1847
1.99661
6.36874
12.4654
6.46908
21.3107
37.4599
14.635
0.272059
1.03714
5.94378
41.022
10.2789
22.2094
2.42663
7.4897
2.14037
0.560056
2.71309
1.50868
0.44889
0.520306
0.15596
0.0860151
0.0290102
0.0437508
2.56018e-06
4.37485e-05
6.69888e-05
0.0484644
2.36394e-06
1.05584e-05
14.9756
1.1727
15.9839
3.81067
0.152711
3.45824
0.169748
34.6042
5.0189
12.1649
1.70458
5.1674
0.750876
0.221939
0.0220312
1.79356e-06
9.334e-06
8.09544e-06
0.00627133
1.16707e-06
2.13982e-05
8.14348
4.20598
0.586278
0.126193
3.05237
0.413248
10.4759
3.36596
0.282412
2.21608
0.026377
0.209375
0.132942
0.0165636
14.8813
1.16931
15.9701
3.78405
0.148881
0.168252
3.38637
12.7036
0.539223
9.74011
0.114298
2.66366
1.80787
0.0755088
0.0122037
3.9508e-05
0.0205381
1.39155e-05
5.42078e-05
1.15191e-05
1.67492e-06
2.91018e-05
0.00154686
8.96289e-06
0.00172384
8.76131e-06
2.8823e-05
1.89144e-06
0.516205
0.0332485
0.58009
0.118113
0.00596916
0.104815
0.00671915
0.0330118
0.506676
0.575901
0.117049
0.00584361
0.00666188
0.102562
1.99561
3.70732
22.0028
2.3441
0.0926242
1.21056
0.185093
18.288
4.26741
14.806
1.02271
0.264579
0.184462
1.46972
65.671
5.32694
25.5523
4.28528
25.1254
5.01472
0.350339
7.45538e-06
0.00114626
0.103067
4.51729e-06
0.000260274
6.48991e-07
8.78373e-06
5.4238e-05
0.000517806
4.98283e-06
3.25356e-06
0.000224448
4.47898e-07
9.52884e-06
6.22671e-06
8.07206e-06
0.000169457
1.76185e-05
1.23387e-06
3.33713e-06
8.2534e-07
0.384212
0.013904
0.248455
0.00438502
0.0769052
0.0489125
0.00276948
4.22045
0.362239
0.053566
0.0473123
1.36149
0.180826
1.21428
0.314508
3.72153
6.54544
1.05325
0.021491
0.529953
0.0431671
25.1713
3.95815
17.1704
1.98266
17.1779
3.96067
0.238737
46.1846
2.0717
19.7226
1.27912
15.0108
3.20661
0.154271
5.67951
27.4527
32.3165
6.71973
4.942
0.277841
0.407417
17.8923
4.00174
2.85854
2.28556
1.59366
0.129544
0.189005
26.8311
1.05531
8.1395
0.354641
3.3865
0.436402
0.0432841
7.48095e-06
3.32641e-05
3.92511e-06
3.71109e-05
0.00164768
4.17343e-06
4.8265e-05
0.152346
0.568565
1.2221
0.0713753
0.00398168
0.0326293
0.00879863
6.02384
1.05681
0.0297387
0.412221
0.730265
0.287045
7.94895
0.826292
0.0388638
0.154186
0.0116028
0.0455877
0.00837536
0.00211434
0.898713
0.351588
4.48336
0.0402485
0.534167
0.207452
0.0153763
1.68611
2.6209
1.87407
0.0806011
0.102919
0.114575
0.0724467
1.68667
2.63017
1.87888
0.0807074
0.102825
0.072261
0.114842
2.00953e-05
2.46608e-06
0.0017813
2.98292e-07
5.81343e-06
1.02333e-06
0.000132007
6.71368e-07
2.00231e-06
1.35533e-07
6.33062e-06
0.00175692
7.43324e-07
1.90524e-05
1.44849
2.56471
0.442654
0.331176
0.102577
0.0570231
0.0129779
9.42549e-05
2.66296e-06
0.00267343
1.99631e-07
3.0942e-06
4.3112e-07
9.27401e-06
9.62335e-05
2.21822e-06
6.51004e-06
6.10362e-07
3.25428e-06
1.10311e-05
9.72502e-07
0.00746181
0.0630607
0.13611
0.0263919
0.000685929
0.00149788
0.0120619
1.20331
0.0330383
0.838993
0.200147
0.0111758
0.00772633
0.286977
2.87194
1.96352
8.54496
0.437647
0.0198818
0.0779227
0.114564
1.7303
0.0265989
0.670559
0.00933315
0.234729
0.0899291
0.00350428
1.11669
0.130813
0.145435
0.0553016
0.0613103
0.00759506
0.00683732
1.21045
0.125974
0.143104
0.0525973
0.0600472
0.00748966
0.00660845
7.37219
0.0454804
1.14905
0.0484366
1.23173
0.153429
0.00599592
22.2377
0.513107
6.54901
0.166505
2.44129
0.334783
0.0225052
1.32519
1.27265
0.900932
0.0800305
0.0562194
0.0377105
0.053625
18.1398
7.9261
0.481733
0.594859
2.27841
0.114516
0.0284201
9.9384e-09
8.46861e-08
1.35036e-08
1.00802e-08
1.30691e-08
3.77721e-07
7.27751e-08
1.77977e-07
6.84949e-07
0.00601944
2.38249e-06
3.52479e-07
9.85929e-06
1.69228e-06
9.99266e-08
7.42434e-07
1.53816e-05
1.2961e-05
6.33953e-06
2.34531e-06
3.31029e-06
8.03849e-08
1.30349e-12
4.30138e-09
6.94229e-10
1.12901e-11
3.74045e-12
7.32931e-13
1.65407e-12
1.95603e-11
8.31327e-12
1.51421e-11
9.66929e-11
1.12817e-10
1.44205e-10
9.37941e-11
2.96802e-08
1.37345e-09
1.661e-08
1.91625e-08
1.78497e-09
7.09714e-09
9.30636e-10
7.71755e-10
5.51348e-12
1.70477e-11
4.82699e-12
1.70968e-11
8.60266e-11
4.73223e-11
2.87073e-12
7.3851e-13
2.33425e-12
5.75771e-13
2.4526e-12
1.60774e-12
3.33481e-14
0
1.4176e-13
0
0
1.12756e-09
1.19864e-08
1.33036e-08
1.16095e-09
7.28014e-10
1.17926e-09
7.48362e-10
6.02383e-09
3.04642e-08
6.33689e-09
3.18622e-08
1.12394e-10
6.24212e-10
5.93559e-10
4.29317e-09
1.46203e-10
1.05644e-10
1.0766e-10
1.26789e-09
5.60787e-10
1.25007e-09
4.15507e-10
1.54681e-09
1.07984e-10
1.76654e-09
4.4085e-12
3.5398e-08
1.10661e-05
5.54181e-09
4.66573e-08
9.82594e-12
6.43238e-11
6.70067e-11
5.82785e-10
1.50576e-11
9.05687e-12
4.87683e-12
1.01304e-10
5.62655e-11
1.01469e-10
5.88232e-11
2.15292e-10
1.79778e-10
3.8314e-11
4.66878e-10
2.37668e-09
4.84339e-10
2.35238e-09
6.54814e-09
3.3099e-09
3.44025e-09
4.43642e-10
3.80278e-10
1.78816e-10
1.72719e-10
4.20915e-08
3.8468e-09
1.81848e-08
2.56485e-09
3.17171e-09
2.17451e-07
4.90925e-08
1.02838e-10
1.43821e-12
2.4818e-11
1.29077e-10
8.48825e-12
5.95962e-12
1.43389e-11
4.66146e-13
2.52088e-12
4.63927e-12
1.25353e-12
1.53286e-11
1.6514e-11
1.00291e-11
1.30181e-11
1.12534e-11
6.17965e-11
1.44976e-10
5.10274e-11
1.54645e-10
1.19165e-09
2.46873e-10
2.45235e-10
9.8032e-11
5.04915e-12
1.67582e-11
4.7626e-12
1.77834e-11
5.08487e-11
1.27491e-09
3.83301e-11
1.023e-12
1.40669e-14
2.71713e-08
7.46003e-10
3.18626e-12
5.49549e-11
1.89246e-11
7.26383e-14
1.51461e-12
4.41408e-13
0
2.67998e-14
1.95995e-07
1.60175e-07
2.25926e-06
3.68293e-07
1.92112e-07
4.96264e-07
1.8698e-07
1.27058e-07
1.06832e-08
3.77109e-08
6.8962e-09
1.51896e-08
1.39448e-08
1.34633e-08
0
1.42124e-13
0
0
0
0
8.48862e-15
0
5.57823e-15
5.87424e-12
2.07469e-10
2.03969e-13
8.5638e-13
1.25874e-13
6.3507e-13
1.04394e-11
5.65487e-12
3.68458e-11
2.7544e-11
5.16737e-10
2.47866e-10
0
0
0
0
0
0
0
0
0
0
0
0
0
0
0
0
0
0
0
0
0
0
0
0
0
0
0
0
0
0
0
0
0
0
0
0
0
0
0
0
0
0
0
0
0
0
0
0
0
0
0
0
0
0
0
0
0
0
0
0
0
0
0
0
0
0
0
0
0
0
0
0
0
0
0
0
0
0
0
0
0
0
0
0
0
0
0
0
0
0
0
0
0
0
0
0
0
0
0
0
0
0
0
1.05744e-13
5.82077e-15
1.24783e-13
7.22745e-14
6.01479e-14
7.21532e-14
6.81757e-13
1.43094e-14
7.27596e-16
1.09139e-14
0
4.85064e-16
3.41727e-13
0
0
0
3.39545e-15
2.86188e-14
0
0
0
0
0
0
0
4.47471e-12
4.59113e-13
4.7164e-12
4.34835e-12
4.36036e-12
3.2509e-12
2.51911e-11
7.21654e-13
2.14156e-13
5.98084e-13
1.51515e-11
1.95456e-12
0
9.63082e-12
3.32184e-12
5.08711e-11
2.50495e-11
2.46121e-11
1.69036e-11
1.34072e-12
6.15692e-12
3.4431e-12
2.76486e-13
8.86575e-13
4.40826e-12
8.66106e-12
7.70524e-13
4.31185e-12
2.88977e-13
1.46732e-13
5.2302e-12
2.67149e-13
1.98124e-12
4.76696e-13
2.17563e-12
1.19204e-13
2.06152e-14
1.09746e-13
5.32236e-13
7.64097e-13
3.35907e-14
5.52973e-14
4.54262e-13
1.69736e-12
9.61341e-11
2.10639e-13
1.58229e-11
1.33393e-15
8.46921e-13
0
1.6856e-14
0
6.30583e-15
2.06152e-15
1.51582e-13
7.71252e-14
4.71725e-14
2.40349e-13
2.12215e-14
2.35377e-13
4.78297e-12
8.59533e-13
4.51413e-12
0
0
1.74623e-14
7.27596e-16
8.48862e-14
3.51671e-15
3.62585e-14
0
2.98314e-14
8.07631e-13
3.80775e-14
8.16848e-13
6.72056e-13
1.30991e-12
0
0
0
1.60071e-14
0
0
0
0
0
9.78616e-14
3.38332e-14
1.18356e-13
0
2.07365e-14
4.60811e-14
0
0
0
0
0
0
0
0
0
4.85064e-16
0
0
0
1.30967e-14
1.50734e-13
0
0
2.54659e-15
0
0
0
0
0
1.69772e-15
5.57823e-15
0
1.69772e-15
0
0
3.51671e-15
0
1.21266e-16
0
1.21266e-16
0
2.48595e-14
6.79089e-15
3.63555e-13
1.51704e-13
6.4271e-15
3.60402e-13
2.60722e-14
1.17628e-14
8.30672e-14
1.33393e-15
1.7814e-13
2.54659e-15
1.81414e-13
1.06714e-14
0
0
0
0
0
0
0
0
0
0
0
0
0
0
3.63798e-16
0
4.23218e-14
1.47944e-14
1.69772e-15
0
3.37119e-14
0
4.85064e-16
0
2.54659e-15
0
4.9719e-15
0
2.06152e-15
1.76078e-13
3.63798e-15
1.6856e-14
1.28542e-14
7.11831e-14
0
0
0
0
0
0
0
0
0
0
0
0
0
0
0
0
0
0
0
0
0
0
0
0
4.9719e-15
6.54836e-15
0
0
2.54659e-15
0
0
0
0
0
0
0
0
0
0
0
0
0
0
0
0
0
0
0
0
0
0
0
0
0
0
0
0
0
0
0
0
0
0
0
6.60899e-14
2.33801e-13
7.27596e-16
2.71636e-14
5.19018e-14
2.49202e-13
1.04289e-14
0
0
0
0
0
0
0
0
0
0
0
0
0
0
0
0
0
0
0
0
0
0
0
0
0
0
0
4.85064e-16
1.78879e-12
0
2.88613e-13
0
7.39722e-15
0
0
0
0
0
0
7.90654e-14
0
7.94292e-14
0
0
0
0
0
0
8.24609e-15
0
7.88229e-15
0
0
0
0
0
0
0
0
0
0
0
0
0
0
0
0
0
0
0
0
0
0
0
0
0
0
0
0
0
0
0
0
0
0
0
0
0
0
0
0
0
0
0
0
0
0
0
0
0
0
0
0
0
0
0
0
0
0
0
0
0
0
0
0
0
0
0
0
0
0
0
0
0
0
0
0
0
0
0
0
0
0
0
0
0
0
0
0
0
0
0
0
0
0
0
0
0
0
0
0
0
0
0
0
0
0
0
0
0
7.09406e-14
2.34965e-12
0
0
0
0
0
0
5.94203e-14
0
0
0
0
0
0
0
0
0
0
0
0
0
0
0
0
0
0
0
0
0
0
0
0
0
0
0
0
0
0
0
0
0
0
0
0
0
0
0
0
0
0
0
0
0
0
0
0
0
0
0
0
0
0
0
0
0
0
0
0
3.28421e-10
9.06402e-12
2.19976e-13
3.63798e-16
0
5.35712e-11
1.60459e-12
3.62585e-14
0
0
2.62589e-12
6.35434e-14
0
0
0
7.77315e-14
0
0
0
0
0
0
0
0
0
0
0
0
0
0
0
0
0
0
0
0
0
0
0
0
0
0
0
0
0
0
0
0
0
0
0
0
0
0
0
0
0
0
0
0
0
0
0
0
0
1.20175e-13
6.60657e-12
0
0
0
0
0
0
4.85064e-16
2.17066e-13
0
0
0
0
0
0
0
1.69772e-15
0
0
0
0
0
0
0
0
0
0
0
0
0
0
0
0
0
0
0
0
0
0
0
0
1.916e-14
1.17955e-12
0
0
0
0
0
0
0
3.62585e-14
0
0
0
0
0
0
0
0
0
0
0
0
0
0
0
0
0
0
0
0
0
0
0
0
0
0
0
0
0
0
0
0
0
0
0
0
0
0
4.18368e-14
0
0
0
0
0
0
0
0
0
0
0
0
0
0
0
0
0
0
0
0
0
0
0
0
0
0
0
0
0
0
0
0
0
0
0
0
0
0
0
0
0
0
0
0
0
0
0
0
0
0
0
0
0
0
0
0
0
0
0
0
0
0
0
0
0
0
0
0
0
0
0
0
0
0
0
0
0
0
0
0
0
0
0
0
0
0
0
0
0
0
0
0
0
0
0
0
0
0
0
0
0
0
0
0
0
0
0
0
0
0
0
0
0
0
0
0
0
0
0
0
0
0
0
0
0
0
0
0
0
0
0
0
0
0
0
0
0
0
0
0
0
0
0
0
0
0
0
0
0
0
0
0
0
0
0
0
0
0
0
0
0
0
0
0
0
0
0
0
0
0
0
0
0
0
0
0
0
0
0
0
0
0
0
0
0
0
0
0
0
0
0
0
0
0
0
0
0
0
0
0
0
0
0
0
0
0
0
0
0
0
0
0
0
0
0
0
0
0
0
0
0
0
0
0
0
0
0
0
0
0
0
0
0
0
0
0
0
0
0
0
0
0
0
0
0
0
0
0
0
0
0
0
0
0
0
0
0
0
0
0
0
0
0
0
0
0
0
0
0
0
0
0
0
0
0
0
0
0
0
0
0
0
0
0
0
0
0
0
0
0
0
0
0
0
0
0
0
0
0
0
0
0
0
0
0
0
0
0
0
0
0
0
0
0
0
0
0
0
0
0
0
0
0
0
0
0
0
0
0
0
0
0
0
0
0
0
0
0
0
0
0
0
0
0
0
0
0
0
0
0
0
0
0
0
0
0
0
0
0
0
0
0
0
0
0
0
0
0
0
0
0
0
0
0
0
0
0
0
0
0
0
0
0
0
0
0
0
0
0
0
0
0
0
0
0
0
0
0
0
0
0
0
0
0
0
0
0
0
0
0
0
0
0
0
0
0
0
0
0
0
0
0
0
0
0
0
0
0
0
0
0
0
0
0
0
0
0
0
0
0
0
0
0
0
0
0
0
0
0
0
0
0
0
0
0
0
0
0
0
0
0
0
0
0
0
0
0
0
0
0
0
0
0
0
0
0
0
0
0
0
0
0
0
0
0
0
0
0
0
0
0
0
0
0
0
0
0
0
0
0
0
0
0
0
0
0
0
0
0
0
0
0
0
0
0
0
0
0
0
0
0
0
0
0
0
0
0
0
0
0
0
0
0
0
0
0
0
0
0
0
0
0
0
0
0
0
0
0
0
0
0
0
0
0
0
0
0
0
0
0
0
0
0
0
0
0
0
0
0
0
0
0
0
0
0
0
0
0
0
0
0
0
0
0
0
0
0
0
0
0
0
0
0
0
0
0
0
0
0
0
0
0
0
0
0
0
0
0
0
0
0
0
0
0
0
0
0
0
0
0
0
0
0
0
0
0
0
0
0
0
0
0
0
0
0
0
0
0
0
0
0
0
0
0
0
0
0
0
0
0
0
0
0
0
0
0
0
0
0
0
0
0
0
0
0
0
0
0
0
0
0
0
0
0
0
0
0
0
0
0
0
0
0
0
0
0
0
0
0
0
0
0
0
0
0
0
0
0
0
0
0
0
0
0
0
0
0
0
0
0
0
0
0
0
0
0
0
0
0
0
0
0
0
0
0
0
0
0
0
0
0
0
0
0
0
0
0
0
0
0
0
0
0
0
0
0
0
0
0
0
0
0
0
0
0
0
0
0
0
0
0
0
0
0
0
0
0
0
0
0
0
0
0
0
0
0
0
0
0
0
0
0
0
0
0
0
0
0
0
0
0
0
0
0
0
0
0
0
0
0
0
0
0
0
0
0
0
0
0
0
0
0
0
0
0
0
0
0
0
0
0
0
0
0
0
0
0
0
0
0
0
0
0
0
0
0
0
0
0
0
0
2.11003e-14
0
0
0
0
0
3.63798e-16
0
0
0
0
0
0
0
0
0
0
0
5.40846e-14
0
0
0
0
0
0
0
0
0
0
0
0
0
0
0
0
0
0
0
0
0
0
0
0
0
0
0
0
0
0
0
0
0
1.21266e-16
0
0
0
0
0
0
0
0
0
0
0
0
0
0
0
0
0
0
0
0
0
0
0
0
0
0
0
0
0
0
0
0
0
0
0
0
0
0
0
0
0
0
0
0
0
0
0
0
0
0
0
0
0
0
0
0
0
0
0
0
0
0
0
0
0
0
0
0
0
0
0
0
0
0
0
0
0
0
0
0
1.05501e-14
0
0
0
0
0
0
0
0
0
0
0
0
5.57823e-15
4.85064e-16
9.70128e-16
3.39545e-15
0
0
0
0
0
0
0
0
0
0
0
0
0
0
0
0
0
0
0
0
0
0
0
0
0
0
0
0
0
0
0
0
0
0
0
0
0
0
0
0
0
0
0
0
0
0
0
0
0
0
0
0
0
0
0
0
0
0
0
0
0
0
0
0
0
0
0
0
0
0
0
0
0
0
0
0
0
0
0
0
0
0
0
0
0
0
0
0
0
0
0
0
0
0
0
0
0
0
0
0
0
0
0
0
0
0
0
0
0
0
0
0
0
0
0
0
0
0
0
0
0
0
0
0
0
0
0
0
0
0
0
0
0
0
0
0
0
0
0
0
0
0
0
0
0
0
0
0
0
0
0
0
0
0
0
0
0
0
0
0
0
0
0
0
0
0
0
0
0
0
0
0
0
0
0
0
0
0
0
0
0
0
0
0
0
0
0
0
0
0
0
0
0
0
0
0
0
0
0
0
0
0
0
0
0
0
0
0
0
0
0
0
0
0
0
0
0
0
0
0
0
0
0
0
0
0
0
0
0
0
0
0
0
0
0
0
0
0
0
0
0
0
0
0
0
0
0
0
0
0
0
0
0
0
0
0
0
0
0
0
0
0
0
0
0
0
0
0
0
0
0
0
0
0
0
0
0
0
0
0
0
0
0
0
0
0
0
0
0
0
0
0
0
0
0
0
0
0
0
2.54659e-15
0
0
0
3.39545e-15
0
0
0
0
0
0
0
0
0
0
0
0
0
0
0
0
0
0
0
2.84975e-14
1.12389e-12
0
0
0
0
0
0
0
0
0
0
0
0
0
0
0
0
0
0
0
0
0
0
0
0
0
0
0
0
0
0
0
0
0
0
0
0
0
0
0
0
0
0
0
0
0
0
0
0
0
0
0
0
0
0
0
0
0
0
0
0
0
0
0
0
0
0
0
0
0
0
0
0
0
0
0
0
0
0
0
0
0
0
0
0
0
0
0
0
0
6.66963e-14
1.15203e-14
1.40669e-14
0
0
0
0
0
0
0
0
0
0
0
0
0
0
0
0
0
0
0
0
0
0
0
0
0
0
0
0
0
0
0
0
0
0
0
0
0
0
0
0
0
0
0
0
0
0
0
0
0
0
0
0
0
0
0
0
0
0
0
0
0
0
0
0
0
0
0
0
0
0
0
0
0
0
0
0
0
0
0
0
0
0
0
0
0
0
0
0
0
0
0
0
0
0
0
0
0
0
0
0
0
0
0
0
0
0
6.98492e-14
0
1.41517e-13
0
6.82642e-12
1.05986e-13
0
8.82816e-13
2.874e-14
4.58507e-13
3.5725e-13
4.11092e-13
3.9181e-13
3.18929e-14
2.11003e-14
0
0
2.70423e-14
2.4617e-14
1.69772e-15
3.85626e-14
7.05768e-14
1.47944e-14
8.74328e-14
3.7741e-11
0
0
6.46129e-12
9.39932e-13
9.78253e-13
4.38983e-14
4.12547e-13
4.15942e-14
3.82958e-13
1.40669e-14
0
1.26117e-14
0
6.0633e-14
2.0979e-14
0
1.18234e-13
1.54415e-09
5.39634e-14
1.38183e-12
0
1.08267e-10
3.11379e-11
7.79017e-10
1.33393e-15
0
6.36646e-14
6.14212e-13
3.75924e-15
1.22479e-14
1.18962e-13
0
9.21621e-15
1.69409e-13
1.37334e-12
3.21258e-11
8.32891e-12
3.48478e-10
9.20491e-11
7.12595e-12
3.16026e-10
3.6512e-11
1.94791e-11
6.52418e-11
2.31679e-12
1.28267e-10
4.69602e-12
1.90292e-10
1.16115e-11
0
0
6.91216e-15
1.69772e-15
0
0
3.63798e-15
0
0
0
0
0
0
0
1.28542e-14
0
2.18279e-15
3.51671e-15
5.5176e-14
0
3.63798e-15
4.65661e-14
4.85064e-16
0
5.57823e-15
3.51671e-15
2.36469e-14
1.26117e-14
2.00574e-13
8.97368e-14
7.27596e-16
1.26844e-13
1.98876e-14
4.69057e-13
3.67436e-14
1.69772e-15
2.25191e-13
0
9.33748e-15
0
0
0
0
0
7.05768e-14
1.44306e-14
4.36557e-15
5.09317e-15
0
9.70128e-15
0
2.58296e-14
0
0
3.63798e-16
0
0
0
0
0
0
0
0
0
0
0
0
0
0
0
0
0
0
0
0
0
0
9.39205e-13
3.51671e-15
3.74712e-14
2.18643e-13
9.84437e-13
6.0633e-15
4.53535e-14
0
0
0
0
0
2.54659e-15
0
1.21266e-16
0
0
2.95343e-12
1.01572e-12
2.21764e-11
6.12272e-12
3.72323e-12
3.07931e-11
1.58749e-12
7.94656e-13
4.23703e-13
4.97433e-13
3.94114e-14
8.62201e-14
2.70908e-13
1.79116e-11
1.32772e-11
3.01213e-12
2.09123e-12
1.17119e-12
3.0171e-13
4.70379e-12
2.19148e-11
8.44751e-12
8.33667e-12
3.61858e-13
1.11807e-12
4.25644e-13
1.09649e-12
6.8394e-14
1.46974e-12
1.30967e-13
4.94523e-13
1.70936e-12
8.89243e-13
1.36667e-13
1.226e-13
1.36448e-12
1.01706e-12
3.21961e-13
1.77048e-14
3.69861e-14
8.36735e-15
2.76001e-13
4.85064e-16
1.31937e-13
6.33008e-14
1.09139e-13
0
0
5.39108e-06
1.68685e-07
4.42402e-08
1.37067e-12
2.32346e-13
7.76102e-15
1.93394e-11
7.81317e-13
1.13972e-11
3.19318e-12
8.74328e-14
2.21674e-13
7.22745e-14
1.69772e-15
7.22848e-08
3.63765e-09
1.64717e-08
3.87856e-10
1.87861e-10
2.30249e-11
1.04564e-07
2.10622e-11
2.48834e-10
1.66756e-09
4.89502e-08
1.12967e-11
1.53495e-10
1.07101e-08
3.15413e-12
4.70724e-11
7.81785e-11
1.35876e-09
1.08315e-12
2.88552e-12
1.92924e-10
1.46125e-13
7.79134e-13
1.16786e-11
7.2032e-14
1.31367e-12
2.96313e-12
2.87982e-12
5.02769e-13
1.48793e-13
2.93464e-13
3.33481e-14
3.77137e-14
1.45519e-14
2.54659e-15
1.85416e-11
1.8088e-12
6.2452e-13
1.22321e-12
6.9831e-12
1.48854e-12
3.79562e-14
4.9719e-14
1.38122e-13
5.56004e-13
8.47649e-14
1.11565e-14
2.54659e-15
2.13428e-14
2.0512e-11
3.71826e-11
3.67836e-11
4.77997e-10
3.37984e-10
3.35823e-10
4.72098e-10
2.4786e-10
3.48818e-09
3.32034e-09
2.19664e-11
9.64258e-12
1.60788e-11
2.60454e-10
1.57612e-10
1.66845e-10
2.15222e-10
9.87797e-11
2.16328e-09
1.45106e-09
6.29831e-12
2.33825e-12
3.8263e-12
5.00039e-11
4.24532e-11
7.37647e-11
3.73995e-11
2.14547e-11
3.20898e-10
7.28974e-10
6.34464e-13
7.47605e-13
1.62254e-12
1.73578e-11
9.3946e-12
9.95521e-12
1.26034e-11
7.53692e-12
1.10787e-10
4.05699e-11
4.13396e-13
4.66025e-13
2.53931e-13
4.33392e-12
3.25223e-12
4.86471e-12
1.97676e-12
1.11274e-12
7.97506e-12
1.6381e-11
2.14156e-13
8.25821e-14
2.81337e-13
2.78002e-12
8.58563e-13
8.60139e-13
2.34698e-12
7.91867e-14
8.57229e-13
8.93337e-07
1.57234e-08
4.6886e-07
5.69196e-08
5.59614e-07
8.05136e-09
1.66771e-07
1.16976e-07
2.00541e-09
3.88744e-08
1.23005e-08
2.71984e-08
7.93135e-10
4.93654e-09
3.39546e-09
3.8721e-09
8.987e-09
2.49679e-10
1.10871e-09
5.44702e-09
4.56187e-10
2.66785e-14
1.03076e-14
1.96451e-14
4.8664e-13
6.29189e-11
3.42213e-13
1.60437e-11
2.12337e-13
1.08731e-11
1.71349e-13
1.00498e-10
2.57144e-12
1.29835e-10
1.12073e-10
5.98041e-11
3.94393e-11
1.61849e-11
8.15417e-12
9.6176e-13
2.17903e-12
2.08214e-13
3.33724e-13
9.78616e-14
5.52973e-14
1.45519e-13
2.19491e-14
1.04289e-14
4.17155e-14
1.08897e-13
9.70128e-15
2.29193e-14
6.09361e-13
9.54363e-14
2.6533e-13
1.38209e-09
1.24978e-09
1.57477e-08
1.51057e-08
6.64406e-10
4.9048e-10
6.3908e-09
1.94518e-10
1.05819e-10
2.17748e-09
1.35786e-09
1.23867e-11
2.65069e-11
1.63468e-10
2.10166e-12
3.68588e-12
3.97597e-11
2.0664e-11
9.81042e-13
6.38829e-13
1.35551e-12
6.88851e-12
9.0616e-12
1.26687e-11
3.34536e-12
3.20021e-13
1.95966e-13
4.36436e-13
2.58624e-12
3.89349e-12
2.38045e-12
3.23914e-12
5.33449e-13
1.72076e-13
2.59024e-13
2.01204e-12
2.59909e-12
2.468e-12
9.64913e-13
3.30656e-12
8.47043e-13
2.65051e-12
2.63718e-11
1.00625e-11
7.38013e-12
2.62426e-11
9.79829e-14
4.58749e-13
2.4177e-10
4.47726e-12
1.10983e-12
3.20627e-13
1.88084e-13
6.13727e-13
5.89838e-13
5.60043e-12
4.36215e-11
5.52468e-11
3.64865e-12
1.92861e-12
6.17256e-12
4.04846e-11
2.03214e-11
5.68588e-11
1.18426e-11
4.85064e-16
3.39181e-13
1.67178e-11
7.26834e-10
2.70069e-08
0
6.18456e-15
0
7.90654e-14
3.86159e-12
1.47418e-10
5.68557e-09
0
0
0
1.01863e-14
9.14467e-13
3.43027e-11
1.26264e-09
0
0
0
0
1.57039e-13
6.64756e-12
2.22813e-10
0
0
0
0
0
0
0
0
1.76199e-13
0
0
0
0
8.48862e-15
0
0
0
0
0
0
0
0
0
0
0
0
0
0
0
0
0
0
0
0
0
0
0
0
0
0
0
0
0
0
0
0
0
0
0
0
0
0
0
0
0
0
0
0
0
0
0
0
0
0
0
0
0
0
0
0
0
0
0
0
0
0
0
0
0
0
0
0
0
0
0
0
0
0
0
7.05647e-13
0
0
0
0
0
0
0
0
0
0
0
0
0
0
0
0
0
0
0
0
0
0
0
0
0
0
0
0
0
0
0
0
0
0
0
0
3.39545e-15
8.60988e-15
2.31618e-14
0
5.91778e-14
1.94389e-13
8.21092e-13
5.10772e-13
1.4564e-12
1.63709e-14
9.98019e-14
0
0
0
0
0
0
0
0
0
0
0
0
0
0
0
0
0
0
0
0
0
0
0
0
0
0
0
0
0
0
0
0
0
0
0
0
0
0
0
0
0
0
0
0
0
0
0
4.29645e-13
2.21267e-11
1.07526e-09
0
0
4.99616e-14
7.05125e-12
1.71194e-11
1.70512e-10
1.96451e-14
2.00986e-12
1.01889e-10
7.27596e-16
4.28311e-13
1.21266e-16
0
0
0
0
0
0
4.20308e-13
0
0
3.56522e-14
3.02922e-13
0
0
2.25555e-14
4.37515e-12
1.26117e-14
1.4176e-13
0
0
4.72937e-15
6.25732e-14
0
0
5.57823e-15
7.88229e-13
3.75924e-15
2.72848e-14
0
0
9.70128e-16
2.0118e-13
0
0
0
0
0
3.51671e-15
3.51671e-15
0
0
0
0
0
0
0
0
0
0
0
0
0
0
0
0
0
0
0
0
0
0
0
0
0
0
0
2.54659e-15
0
9.70128e-16
0
0
0
0
0
0
0
0
0
0
0
0
0
0
0
0
0
0
0
0
0
0
0
0
0
0
0
0
0
0
0
0
0
0
0
0
0
0
0
4.72937e-15
0
0
4.36557e-15
0
1.21266e-16
9.70128e-16
3.09228e-14
3.7835e-14
6.49986e-14
1.12777e-14
0
0
0
2.78912e-15
0
0
2.54659e-15
1.21266e-16
0
0
3.18929e-14
2.6921e-14
5.00828e-14
1.00651e-14
1.87962e-14
8.85242e-14
9.10707e-14
1.03258e-12
3.36998e-13
2.84732e-13
1.14439e-12
7.22745e-14
8.60988e-15
5.26294e-14
7.67128e-13
1.95966e-13
2.05061e-13
6.85395e-13
0
0
0
4.85064e-16
0
1.21266e-16
0
0
0
0
4.9719e-15