/*--------------------------------*- C++ -*----------------------------------*\
  =========                 |
  \\      /  F ield         | OpenFOAM: The Open Source CFD Toolbox
   \\    /   O peration     | Website:  https://openfoam.org
    \\  /    A nd           | Version:  9
     \\/     M anipulation  |
\*---------------------------------------------------------------------------*/
FoamFile
{
    format      ascii;
    class       volScalarField;
    location    "0.0031";
    object      overpressure;
}
// * * * * * * * * * * * * * * * * * * * * * * * * * * * * * * * * * * * * * //

dimensions      [1 -1 -2 0 0 0 0];

internalField   nonuniform List<scalar> 
26834
(
26366
31097.6
45207.3
37238.1
5925.33
16978.7
29414
42359.6
7644.4
19816.8
44835.6
8647.1
21134
40280.4
58511
14344.8
30014.3
6615.41
9227.82
9904.7
12514.4
13294.6
16618.4
15815.1
6858.74
11237.7
10223.2
14518.6
13559.3
16978.2
18224.8
12934.8
17745.8
13612.3
20372.6
23455
24552.5
19476.1
61652.7
18075.6
34815.5
65535.1
73376.4
38534.1
58097.7
19333.9
27509.1
20245.9
23630.3
29626.2
30981.5
22615.2
18205.5
15304
14000.8
20825.2
26949.1
25100.3
22380.5
9711.8
12371.3
15699.9
13792
17095.7
19503.2
21292.5
27905.8
21765.6
20562.6
24065.2
33305.5
31478
25568
16494.8
23351.5
18327.4
28599
23786.9
25984.5
31178.9
27438
33220.2
30167.9
39178.2
34866.8
31698.4
26224.5
11457.8
18990.6
15825.4
22200.8
19073.4
23659.7
27141.6
23144.1
33333.6
24943.7
35202.1
27095.8
29296.1
37891.5
27987.6
39902
37617.4
34441.3
35471.2
32301
29818.8
23404.1
23009.3
26152.4
28545.4
31711.3
31471.8
37326.6
26121
24226.9
20698.6
28768.9
38731.6
34412.6
32655.6
39787
36472.4
31570.5
34178.8
48484.3
42951.8
39558
36278.4
30829
27337.5
32135
45762.9
41303.2
36050.8
30073.7
44163.2
35439.7
47809.7
38748.9
44680.5
54089.5
28594.4
41015.1
34413.8
44047.5
37436.9
43686.9
50800.7
35164.6
51789.7
41122.7
51275
40857.5
47227.1
58363.3
37471.8
52939.4
51845.9
48215.8
46858.7
43335.3
41831.4
0.288512
0.0164864
0.00306889
0.000461922
5.21914e-05
4.54753e-06
3.12313e-07
13653.6
0.579434
0.0439541
0.00952738
0.00110348
9.62322e-05
6.40152e-06
229375
2398.33
9.13533
0.238559
0.0229211
0.00201608
0.000114542
223886
278655
141169
310.471
0.707607
0.0295897
0.00207482
107611
146537
231289
272800
2207.9
0.940376
0.0283367
58212.2
79273.3
118418
189195
290653
2519.98
0.662035
41815.1
66651.6
108859
187524
279316
451.998
35952.9
65731.4
116276
222572
174500
0.017472
0.00540449
0.0013923
0.000185219
2.07529e-05
1.81874e-06
1.25685e-07
1.38659
0.177099
0.0184469
0.0035051
0.000418915
3.73893e-05
2.55955e-06
32880.4
416.817
1.83691
0.0785302
0.00720857
0.000650495
4.41955e-05
259067
271216
47850.9
50.739
0.209536
0.0110209
0.00066665
125799
169034
268635
225773
358.54
0.341625
0.00857607
68621.9
93713.9
137369
217441
267895
411.963
0.22272
50434.2
79280.9
126823
214921
239580
75.5356
33895.6
78226.3
134885
260032
75871.8
0.00502351
0.00142673
0.000276202
4.22354e-05
4.51952e-06
3.77622e-07
2.54222e-08
0.164769
0.0218476
0.0058685
0.00109067
0.000102268
8.17886e-06
5.28016e-07
92.7472
4.75811
0.208955
0.0158762
0.00210785
0.000161987
9.72598e-06
280118
115121
589.517
0.99412
0.0254535
0.00286998
0.000167926
176065
247097
292979
14173.6
3.57673
0.0347268
0.00252154
96952.9
123511
187861
300770
47771.4
4.09857
0.023986
69956.1
113571
174221
299065
20219.1
1.09302
63713.8
80049.3
183943
299611
1133.38
0.00100549
0.000213878
4.30516e-05
6.08061e-06
6.32703e-07
5.17466e-08
3.4197e-09
0.0139427
0.00427146
0.00110992
0.00014246
1.43427e-05
1.12441e-06
7.22066e-08
0.792525
0.115557
0.0161353
0.00301005
0.000293718
2.2062e-05
1.3317e-06
1525.76
157.562
1.00667
0.0417284
0.00504486
0.000397375
2.2674e-05
309651
272550
12918.3
11.0103
0.091312
0.00558227
0.000335123
101633
142832
312200
109552
35.1563
0.0855118
0.00375909
78923.3
95246.9
126982
298664
123474
15.5257
0.0346681
68547.3
127510
133007
309623
23359.1
1.22886
88655.1
164839
192.954
0.472127
0.000101568
2.3532e-05
4.50225e-06
6.25703e-07
6.49889e-08
5.39876e-09
2.76486e-10
0.00219518
0.000464651
9.7744e-05
1.35587e-05
1.38598e-06
1.12152e-07
7.39237e-09
0.0236346
0.00789561
0.00200472
0.000265019
2.6473e-05
2.06074e-06
1.31549e-07
1.76604
0.215758
0.0220026
0.00443568
0.000459906
3.48695e-05
2.11126e-06
1471.48
282.394
1.57502
0.060855
0.00615694
0.000505566
2.97703e-05
277585
233850
9351.73
11.6717
0.093201
0.00527538
0.000335362
155271
142986
278281
36328
14.1143
0.0545663
0.00270826
78469.2
109768
136122
278343
14380.5
2.29494
0.0159244
155738
138.49
0.75292
0.0182501
1.07903e-05
2.49775e-06
4.40079e-07
5.79021e-08
5.80621e-09
3.7835e-10
0
0.000229301
5.03036e-05
9.04896e-06
1.20136e-06
1.20883e-07
9.8953e-09
5.67525e-10
0.00443831
0.000868481
0.000166493
2.20719e-05
2.18573e-06
1.74594e-07
1.14087e-08
0.0464599
0.0131003
0.00304302
0.000377162
3.62976e-05
2.80477e-06
1.78828e-07
0.384012
0.307538
0.0325509
0.0055876
0.000530976
3.98146e-05
2.43828e-06
1467.61
121.419
1.30313
0.0519549
0.00636746
0.000467636
2.77128e-05
195973
147250
1513.17
2.18506
0.0506322
0.00424906
0.000242914
79643.4
101231
182802
1989.66
1.30588
0.0234678
0.00144049
157203
198153
1.08767
0.0367866
0.00691053
9.62347e-07
2.17115e-07
3.63216e-08
4.49654e-09
3.34694e-10
0
0
1.93941e-05
4.34252e-06
7.31336e-07
9.2783e-08
9.1386e-09
6.40284e-10
0
0.000359577
7.60331e-05
1.28816e-05
1.6402e-06
1.61235e-07
1.29221e-08
7.71252e-10
0.00636623
0.00119007
0.00020819
2.65143e-05
2.56293e-06
2.03247e-07
1.32277e-08
0.0375465
0.0159556
0.00309486
0.000380541
3.60937e-05
2.79395e-06
1.78989e-07
0.359544
0.34853
0.0370224
0.00461726
0.000428581
3.23762e-05
2.02373e-06
807.225
76.2118
0.927383
0.0451597
0.00410494
0.00029494
1.81297e-05
184739
71106.7
323.686
0.925202
0.0246095
0.00188754
0.000121119
181926
6109.76
0.0326314
0.00930097
0.000630215
7.05186e-08
1.54541e-08
2.43017e-09
2.18279e-10
0
0
0
1.36485e-06
3.03829e-07
4.97676e-08
6.06815e-09
5.09317e-10
0
0
2.32736e-05
5.17396e-06
8.53775e-07
1.06345e-07
1.04192e-08
7.567e-10
0
0.000375742
7.97511e-05
1.326e-05
1.65829e-06
1.61468e-07
1.29221e-08
7.71252e-10
0.00559958
0.00106753
0.000181069
2.28538e-05
2.20147e-06
1.75438e-07
1.15251e-08
0.030339
0.0109441
0.00203033
0.00026612
2.54308e-05
2.00077e-06
1.30516e-07
0.120672
0.127096
0.0165809
0.0023357
0.000232439
1.8235e-05
1.18208e-06
37.532
6.33381
0.239319
0.0134884
0.00149458
0.000123693
8.16758e-06
258.295
0.0197192
0.00685271
0.000630031
4.18983e-05
4.36557e-09
8.29459e-10
4.36557e-11
0
0
0
0
8.33679e-08
1.82481e-08
2.83762e-09
2.47383e-10
0
0
0
1.35804e-06
3.02636e-07
4.94474e-08
5.99539e-09
5.23869e-10
0
0
2.00242e-05
4.49702e-06
7.45902e-07
9.27685e-08
9.00764e-09
6.40284e-10
0
0.000264484
5.83952e-05
9.87187e-06
1.23985e-06
1.21378e-07
9.79344e-09
5.52973e-10
0.00288677
0.000611573
0.000108902
1.40171e-05
1.37238e-06
1.11439e-07
7.39237e-09
0.0170217
0.00451582
0.000899298
0.000123592
1.24083e-05
1.01261e-06
6.83067e-08
0.0311679
0.0285276
0.00482186
0.000753049
8.25036e-05
6.96564e-06
4.77419e-07
0.042664
0.003312
0.000395964
3.48289e-05
2.42567e-06
1.16415e-10
0
0
0
0
0
0
4.26371e-09
8.14907e-10
4.36557e-11
0
0
0
0
6.89033e-08
1.52068e-08
2.37196e-09
2.03727e-10
0
0
0
9.70947e-07
2.19414e-07
3.62779e-08
4.40923e-09
3.34694e-10
0
0
1.18543e-05
2.74087e-06
4.65065e-07
5.8877e-08
5.77711e-09
3.7835e-10
0
0.000118201
2.82389e-05
5.00381e-06
6.46643e-07
6.49889e-08
5.3551e-09
2.61934e-10
0.000801329
0.000220405
4.1713e-05
5.654e-06
5.79996e-07
4.904e-08
3.34694e-09
0.00397254
0.00118067
0.000240131
3.56464e-05
3.88258e-06
3.38361e-07
2.3967e-08
0.00112144
0.000159504
1.85831e-05
1.68347e-06
1.24201e-07
59336.6
21315
36480.7
47528.5
66578.3
24709.3
41775.1
57102.8
19670.9
37849.7
41158.7
64088.5
22145.9
43238.9
72786.4
33624.8
44910.9
64861.3
81091.4
37449.7
50765.9
18891.1
24172.2
24784.3
25327
25962.9
31665
30122.1
70877.4
26271.3
44458.9
65796.9
91981.3
36386.2
59178.8
26288.4
43832.1
68311
46023.3
58531.1
89083.2
51268.6
22291.6
25947.7
27229.9
27748.2
29171
34170.6
32420.9
20190.9
28074.5
28749.5
25941.7
26602.6
32397.8
34774.1
22834.6
30016.9
27871.4
31902.5
29759.3
34857.4
37270.5
86106.2
39567.6
52272.6
87605.2
110808
56378.6
69723.5
47753.3
99921.5
88485.9
67447.6
87304.3
102943
158121
89125.4
91750.9
58964.3
91546.7
124364
57325.9
72203.3
35120.7
36898.7
38677
41192.3
43118.6
46709.2
44652.8
87367
55131.3
70089.3
147306
182753
94857.8
112392
95719.6
42614.2
64922.5
74494
105828
48395.6
72565.2
29800.8
37617.9
31330.9
37614.4
42341.9
44023
35954.6
30954.5
38290.2
32583.2
39560.9
43451.1
45316.2
37618.5
35614.9
41445.3
39284.6
45962.4
43768.5
47592.7
50092.5
23646.5
29939.2
30626
32970.8
33671.8
37021.5
40518.5
100359
45264.3
72517.6
73461.1
110806
48431
80857.9
31066.3
39685.9
32642.3
38317
43687.9
45450.5
36632.6
28865.8
31864.3
33836.5
34887.4
36879.6
39544.5
43062.4
106274
49775.1
68627.5
88231.4
117265
53236.8
76665.3
34512.2
43883.3
36367.7
41422.7
47015.5
49028.3
39393.8
38591.6
34425.4
32056.1
38676.5
48120.8
45377.6
41209.5
40617.4
35780.2
33376.6
39307.8
49562.1
46754
41889.5
44828.4
39489.8
37055.7
42303.7
53228.3
50330.1
44964.3
39179.8
35687.7
33287.9
40424.6
49345.6
46527.9
43048.8
40613.6
46968.8
42636.3
50699.6
53222.3
55303.6
48678.8
134563
68155.2
84625.6
118816
147465
75644.9
94020.5
49373.5
60261.9
51381.2
55133.2
62382.9
64345.9
53081
45956.6
65756.3
98917.4
65863.2
84582.2
139698
75361.9
48028.2
45875.4
43404.9
51945.6
59855.1
56859.5
54707.6
42366.1
43804.1
48533.8
47075.9
51997.2
52957.1
56857.4
112211
51581.1
77286.4
102575
142724
68091
100281
29521.8
41472.1
42230.7
36645.5
37379.2
44732.1
50113.4
117420
59188.3
85975.3
101428
148748
71782.4
110895
102025
58630.7
66396
91921.1
143947
66447.5
74769.1
32078.9
43356.7
38564.6
45406.5
40590.5
47292.1
52680.9
36656.6
47763.6
40128.9
51303.1
43886.2
47826.9
55689.2
38047.3
50049.2
41588.4
52830.1
44612.7
48583.5
57308.3
59458.6
40655.4
51576.6
48384.4
60266
56164.8
68934
64099.2
67527.7
58662.8
64144.4
73284.2
67561.8
73670
124177
64396
81553.4
120470
156674
77391.2
105306
41841.7
54506.6
45419.5
56586.9
47762.6
51756
61163.7
46869.2
52809.4
51006
61253.7
54785.4
52900.3
44914.1
44390.6
49368.8
50070.1
58846.9
51049.2
51781.9
42704.2
61963.8
55053
52499.4
56596.3
69543.3
66336.5
59398.1
37914.9
48396.2
41396.2
52554.6
45769.6
49722.3
56975.5
44341.1
49850.9
49300.4
51618.7
50991
58685.6
56913.9
47160
51397.8
53199.2
53365.1
55282.8
61804.9
59918.2
122571
63789.4
86939.1
139761
173532
85469.4
102687
48100.7
63186.9
59540.2
57557.3
56423.1
54486.7
50957.7
45753.7
60749.1
55710
56476.4
52695.4
53431.8
48509.2
45618.5
56254.5
55635.2
53218.4
52622.9
60570.4
63893.1
51828.5
55284.5
57309.7
58479.1
60514.8
66501.6
64494.5
58030.7
48519.3
53823.8
63529.7
57955.1
62335.5
68426
66133.4
59364.9
49080.1
61801.1
68623.4
73804.6
81431.9
51295.4
57934.4
54838.4
60094.2
56935.4
63743.8
67182.9
50676.9
61263.2
69352
59023.2
48608.5
41617.6
51423.1
51188.9
50611.6
45956.7
61887.6
56388.9
61815.2
67932.6
56182.6
62222.8
59041.9
65642
62379.2
68633.7
72188.6
58614.5
71101.8
78687.2
60150
67231.6
48722.4
55211.1
59461.8
67210.3
62443.5
74781.2
69142.3
64438.7
57409.8
52559.6
49683.6
44320.7
52644.5
67818.2
61129
58634.9
61075.9
45833.6
54966.1
53444.2
69664.1
62878.7
59481.4
55456.9
48165.6
39271.6
47362.1
54586.8
56648.5
64553.4
155580
80093.3
99813.1
159606
198200
102609
128149
58185.5
73553
62293.3
73686.2
62876.9
67505.2
79149.1
77544.4
70245.3
70709.7
88283.9
80144.4
80945.9
89485.6
110985
91507.8
87526.8
111268
170547
140498
209006
63363.9
61298.2
54223
58703.3
76548
68473.1
66319.3
55185.6
59567.7
49728
56688.7
73771.1
66835.5
62776
53205.5
50943.5
45592.8
54575.4
69165.7
62460.7
60584
59408.3
60216.2
51720.7
56138.1
73902.8
64376.8
65235.8
78708.3
73216.2
64259.4
89860.6
74284.1
84200
100642
55970
59951.8
59319.7
64918.6
64269.4
68088.1
73640.2
48366.5
51322
41677
49232.9
56471.5
59233
67209
73674
65323.8
54209.1
65654.6
57982.9
47210.5
54084.4
78985.7
55886.3
65182.1
75151.6
65047.9
78857.3
90150.1
86589.2
101322
112270
159302
175431
258372
182173
61221.2
77234
74911.7
69854.7
71384.7
66478.7
64297.1
54634.4
61737.3
63985.2
66835
69191.8
71546.4
77309.1
166185
76713.3
109672
130071
180220
85402.2
120740
57798
68643.2
59638.8
67303.3
74973.9
77103.5
65378.9
162184
74272
112816
119870
175586
82705.4
124045
58174.8
67630.8
59979
69216.1
75551.5
77668
67242.8
107511
164661
100652
199089
271617
134169
177589
199976
102656
120322
184796
213205
106525
146594
101043
141434
63420.1
186380
181514
120720
173634
57258.3
81958.3
70334.9
76779.9
65791.1
79833.8
92284.1
77476.5
96560.1
84018
89489.6
77775.3
84625.5
97109
56287.4
64271.8
62463.7
67414.3
65681
72430.1
74917.6
56682.9
66776.5
58414.2
66674
73750.8
75794.1
64801.4
62745.3
56966.5
63271.9
67832.5
81984.5
74525.4
74610.6
77236.6
103088
85044.3
110524
91633.2
100441
119456
61551
70682.4
63528.1
73448.1
79231.9
81491.2
71347
70028
72803.7
74702.2
79321.4
81207.7
86708.1
84673.2
59680.8
66173.2
69761.2
71412.9
75185.4
76760.5
82729.7
182801
84242.9
133597
127691
198868
93548
145934
53965.8
64104.3
74630.7
73619.3
63183.6
73971.4
85304.4
129176
120365
122297
231842
181160
189272
289561
62117.2
73854.4
82586.6
85306
76451.2
90012.9
99603.6
70790.7
64879.9
61532.4
69421
83488.8
79441
73087.6
68902.1
63625.5
60307.2
68789.6
82139
78120.7
72443
62368
74634.4
64328.2
71543.4
80474.6
82752.2
69487.7
69764
65270.6
61890.9
71371.9
84108
80017.7
75122.3
76925.1
69846.8
66325.4
73747.8
89464.6
85200.8
77574.2
72255.7
80868.9
77146
87825.8
83849.2
89528.5
93865.2
200600
92181.2
123535
160185
220608
102271
135519
68224.4
81415.3
70230.8
76998.9
86878
89217.4
74872.8
120340
163768
205072
276550
295656
169530
212904
71448.4
85475.2
93650.4
104177
87944.4
96252
113124
79478.2
74176.3
68183.1
73327.7
92653.8
85477.4
79850
72897
69002.7
65542.6
75770.7
88161.7
83960
79636.3
70778
62755.8
56363
68632.7
77147.9
75362.1
84543.1
156717
76108
111088
158759
218273
96771.8
155307
101380
112335
162942
122606
156890
230698
171031
64263.1
83549.2
82430.6
80032
74771.1
72507
71050.7
61632.3
80798.2
77937.5
78937.3
70504.2
71417.7
68345.3
84044.5
76197.9
72510.8
79464
96506
91976.7
83466.6
56193.7
74374.5
64065.3
75850.5
65875.3
74507.6
85330.3
57879.6
68455.4
77281.2
77794.6
66760.8
75463.9
87393.6
61408.7
78487.1
77791
71046
70378.8
80501.8
88748.9
57443.7
75031.5
65346.4
77208.7
67833.5
76555.2
86734.4
78442.3
67482.2
56432.8
75819.7
65155.2
76753.3
88537.3
-428.645
15120.3
1943.36
19128.6
10822.1
32907.8
40324.1
10712.9
-18223.8
-6930.01
1095.35
13020.4
-16898.7
-5213.99
-17562.7
-14954.8
-14291.7
-12521.6
-11884.1
-8641.99
-9238.93
14132.2
-16199.9
-4441.39
7212.91
22011.6
-10801.2
1823.89
-17349.4
-13412.7
-14027.2
-11142.3
-11666.3
-8362.34
-7690.5
26429.8
-6969.52
5689.02
30570.7
48209.2
12420.9
25342
30105.1
-2310.58
13264.7
17869.1
34729.5
-548.851
15912.3
-11171.3
-6455.76
-10583.6
-4954.92
-1267.3
-842.98
-5463.95
-6583.9
190.733
-5972.86
-2729.42
2873.58
3452.02
-3281.57
424.932
-5158.33
-5746.29
-2441.14
4621.06
3754.29
-1689.21
-6165.82
-9507.26
-10290.2
-4646.29
507.818
-522.154
-3800.59
-15509
-12658.5
-10461.1
-11840.7
-9783.62
-6909.66
-6038.9
-13815.1
-7102.67
-10099.5
-5280.84
-8176.08
-4358.51
-1415.23
959.448
6607.52
4620.23
11242.4
7143.37
5058.31
467.791
-1933.47
3292.39
2623.66
3649.46
2934.84
8484.29
8167.71
-1508.8
-3323.68
-1593.8
2068.3
3745.3
2297.49
7631.48
36947.7
274.776
19433.5
28091.6
49952.5
12881.7
26254.9
-8739.3
-3176.1
-7725.88
1369.57
-2974.27
-1855.52
2780.76
-4429.69
2796.22
-3693.2
5596.23
-825.52
139.345
6737.76
1283.79
11650.4
8606.33
6587.12
7498.9
5416.14
2236.25
-1648.71
5207.01
4505.93
4000.12
3272
8902.65
10345.4
59211.5
20852
34482.1
70163.3
106870
52607
70424
4919.36
16017.3
8460.57
17670.5
10103.4
14020.1
21686.5
9122.79
15748.7
9527.65
14403.8
19793.2
20659.9
13884
4393.08
700.916
-2135.49
1852.57
11552.4
8566.2
4776.43
-1299.94
-2904.24
-5942.28
-37.3477
7953.06
4783.71
2986.61
7838.78
13710.1
8128.27
13724
18594.4
19348.1
13267
9633.79
7547.88
3154.28
4427.62
16028.6
11146.7
9175.88
1786.15
6151.72
5429.82
7861.59
7200.09
11400.9
13402.3
56443.9
22740.8
37384.2
55877.8
84983
37803.4
45390.3
876.722
11070.6
6249.9
11927
6795.98
12144.8
17359.8
16217.9
11354.7
9944.29
14878.7
23112.1
21208.2
16567.2
14167.9
10003.5
8537.07
14192.7
21811
19868.3
15914.1
4299.69
16071.9
9569.87
15384.4
8507.94
13812.4
20743
24624.7
30010.9
26400.4
34045.4
36085.8
30662.1
40710.7
6352.15
18437.2
16490.7
14668.7
13253.5
11346.4
9430.36
22535.3
23672
15938.6
20266.8
35591.2
27350.8
28170
17550.1
20296.3
12661.3
18611.5
31977.3
23951.1
26443
19674.3
24755.9
24171.7
31622.9
25935.4
25307.3
18886.7
7075.44
9411.32
3822.05
13475.3
10062.9
15870
19570.9
12433
21382.8
14389.3
24612.3
17786.6
20072.1
27222
13076.6
11045.7
17112.1
23295.2
17110.9
19419.1
25934.1
20216.5
32346.7
28731.4
28074.3
26595.2
25940.9
22141.6
20584.1
18819
13344.3
18740.9
32253.5
26136.3
24395.4
16556.8
17118.5
11099.4
17667.8
23272.4
24044.7
29910.5
44770.4
29148.2
38944.3
41602.4
35714.2
46242.6
52739.9
40392.1
57512.8
44783.1
60656
47260.7
52336.4
66215.2
32826.6
51711.9
43237.8
45721.2
37638.5
48529.1
57747.3
19278.4
22255.7
15552.9
22232.4
33510
29152.2
26216.6
29543.1
31149.5
23159.1
38346
30061
36988.8
45622.4
25330.2
39379.3
41454.6
39548
32957.3
31188.8
33437.3
30557.8
29916.6
23618.4
26243.1
40419.3
33570.9
32935.8
24168.6
20469.7
16834.9
22871.8
34748.4
30429.8
26836.5
29669.1
31158.2
23778.7
38869.3
31092.5
37302.5
45510.3
24920.5
39090.8
30761.2
40043.8
31670.3
37868.4
46701.2
51991.6
49781.1
43270.1
54774.5
72808.2
64758.9
62014.2
55464
81446.3
65313.3
61343.5
88708.5
72122.5
76503.9
63414.2
50153.2
56610.8
58464.4
80645.1
65751.4
72827.3
29452.7
44604.9
42028.8
41405.4
37232.1
36595.2
33793.1
53995.9
44879.6
36760.4
44774.1
63178.7
53482.1
53872.2
46609.8
46549.6
37850.9
45345.6
64513.7
54684.4
54490.1
47894.9
47273.2
39124.3
45761.4
64306.1
55114.4
54477.2
68347.2
89295
97153.6
92743.9
80088.5
76548.4
83974.8
53726.9
73682.6
74185.9
73472.7
63704.9
63055.5
63439.4
82178.1
70759.7
87204.6
96585.9
83811.4
75139.2
62568.8
184451
87975.7
131131
159437
233185
113486
164173
96151.1
133080
171552
116545
188006
253212
162902
82417.9
73320.1
61838.7
82073.9
70127.4
78993
91933.5
79839
74132.4
67572.4
73340.3
94488.9
86036.3
80531.3
67820.8
83479.7
73377.5
87376.6
77148.9
83323.8
94205.1
64873.6
80764.7
73113.8
83453
75617.2
84424.7
92980.9
189698
90781.5
127721
171603
243363
116813
160456
69107.9
85542.7
74700.2
88773.6
77813.5
84008.2
95657.4
69548.8
84473.3
75209.3
89447.2
79969.4
86309.6
96392.8
113022
83650.2
95726.9
95622
126656
108580
112983
78239
86797.9
80241.1
93273
98606.9
101071
91032.8
86193.6
97866.1
97935.1
96374.3
108936
99333.6
110546
86055.3
117847
99766.1
96950.8
129945
111468
114582
100820
105197
115086
92683.4
116146
105949
102018
81226.8
77986.2
69666
80266
93292.2
89309.8
83485.4
73415.1
87927.6
79206.9
93678.9
84671.1
91215.3
100829
70224.8
85749.8
77889.6
90088.6
81922.4
90142.1
99094.6
85955.7
85735.3
93064.3
92144.1
99986.2
99564.8
107043
76330.4
84064.3
86343.8
85079.2
87388.9
98693.3
96143.6
210453
99358.9
153645
168445
275390
127426
192411
89602.7
86943
82874.5
96258.9
109235
104186
100955
74328.2
92648.7
80237.3
95066.3
82531.7
89011.2
102331
77497.9
78496.1
69798.6
90934.1
82771.9
92684
101600
78910.9
86048.3
88420.2
88380.8
90820.4
101696
99050.8
236056
108548
142980
218206
294305
138716
178513
80969.1
100831
87188.5
102471
88699
95487.7
110174
79111.4
89269.8
92416.1
106391
110314
103411
122311
122760
104152
94034.4
110191
140098
120739
129284
76058
84557.8
83892.7
98267.6
86871.2
86171.2
73986
79798.3
86933.9
89666.2
103026
89313.5
92126.2
77600.7
75772.8
90895.3
87774.7
102933
104384
99460.9
117285
78663.9
93284.9
88864.6
94380.7
89924
101419
106278
79766.9
100850
102191
95545.5
93004.2
86928.1
87649.1
75480.5
99117.6
86431.4
90607.3
116945
103912
102774
88189.9
78748.4
76277.6
83665.8
100603
96356.6
86898.3
78381.6
100989
93820.7
93097.4
89396.7
88688.9
82400.6
84899.9
95810.5
91602.7
109070
98374.7
94110.5
82591.7
93663.7
73195.2
80780
101711
87828.5
95852.1
110373
81294.4
95452.8
90975.2
98004.6
93437.3
104481
109438
110932
117954
102725
111139
126942
117642
127251
71007.2
74250.8
74474.9
82473.4
83129
86778.8
96519
86585
93353.2
95895.9
98093.7
100704
111505
108665
273946
125779
158073
245485
278041
138212
172959
92245.9
110125
94354.8
100994
115273
118038
98646.7
96889.7
102875
113091
105505
134236
123142
115847
127419
128024
108644
117939
157487
136979
137450
82179.8
105806
96396.7
99356.4
91872.7
94733.5
86343.3
86830.3
87916.5
76391.9
85896.1
110370
97251.9
98399
96911.5
84660.9
73389.3
84735.1
109881
96491.8
97081.6
86887.8
87732.3
100424
85770.6
112423
98751.9
98232.6
91616.9
89042.3
79183.4
88830
113762
102362
99592.6
86256.9
85286.4
97700.5
86928.3
111670
98031.7
99562.6
85584.5
87400.5
86651.4
97064.7
98541
97839.9
109957
222140
113554
141368
281540
310425
162859
202580
82092.8
108281
91930.4
104606
89231.9
99760.1
116657
106865
98179.5
104441
117202
124832
114692
135916
87497.1
112040
106117
101524
101238
96828.6
91834
113478
102035
97370.2
104167
127111
121499
109181
93289.8
89909.4
81602.3
91675
114391
104189
100846
91133.7
88478.5
80235.2
90960.5
112741
102655
100086
79726.6
106911
93351
89586.9
118181
103743
102597
89138.8
103346
98589.2
108457
103520
114445
119704
89805.9
89880.6
92769.1
100509
103146
103626
114977
92196.4
90578.6
82189.5
94153.9
115275
104998
103536
95823.9
95015.5
86374.9
99345
120378
109709
109132
92261.2
107344
99228.8
115858
107124
115138
124364
93411.8
110169
100248
119566
108785
116474
127905
94564.3
101096
103719
107542
110252
120894
117937
94843.7
99088.3
100239
106611
107825
112689
120935
85956.5
95195.3
99885.2
106262
109741
111404
122173
100934
96352.4
87546.5
97038.5
122156
111350
106657
97767.5
101347
104030
108975
111808
115993
124401
108127
121377
123297
135389
121443
123413
138472
144165
192092
275094
199801
216481
84323.3
214738
99633.4
98885.3
87640.3
94476.6
120438
107180
106395
102354
105460
91791.5
98869.7
125895
110058
113337
109722
104322
94938.9
103946
131287
119765
114150
112656
98359.1
89140.8
104732
130413
114466
119938
97499.8
111863
106754
118820
113464
124181
129790
290721
124579
185265
205569
294060
136451
200961
95456
111667
97990.9
111922
124284
127340
109114
110524
122657
119998
132363
143705
129414
154079
109494
141547
143319
122950
124695
138663
158161
221438
279991
194854
208113
56237.3
167211
216328
154883
162348
202633
161180
14944.9
187408
170745
92239.4
117182
111358
107274
105914
102187
96281.1
108862
124225
115214
137733
127212
118052
106268
112571
107734
97545.5
104932
132977
120852
115733
87527
98432.6
103345
104652
99704.6
111714
118190
126254
138815
127983
123073
112687
124971
142023
96918.7
112499
99504.2
114405
126034
129126
111534
130940
132502
120950
148910
137148
138773
152738
106880
109647
115003
117757
123393
126675
135541
293174
130388
208351
203485
292324
142434
228097
279360
145964
183059
287097
239547
186387
244017
108184
134784
116224
134424
115764
124277
143804
119740
189673
180332
129341
198451
167788
8390.73
109250
141518
138379
143241
124285
122813
127444
113121
105798
97111.3
108404
136117
125909
117914
97768
115703
100364
113271
127214
130311
110438
115277
146737
127396
152091
132221
144981
165830
290443
137178
194651
253599
283541
149726
211877
102143
121445
104864
117377
132304
135531
114436
103959
119241
106714
123912
134714
137954
120852
261631
125429
179217
250543
299920
173654
263279
181750
262138
177045
290904
255823
197746
285229
187686
166316
252584
208252
277040
212316
18736.2
89600.2
103210
92021.8
105123
93180.3
108107
122329
112153
141390
136598
127044
130763
121439
117491
98726.3
131466
116423
126546
112451
131645
147301
113261
132760
118881
128711
115497
135584
150059
147871
159542
140106
169133
149028
160835
182880
98257.1
123593
109645
124627
110876
123375
138296
110232
123900
109291
124843
110128
123325
139271
273390
129056
175314
285973
292545
179151
253620
99789
126422
126299
111698
111325
124265
140242
296951
140449
212835
275311
255541
196435
310448
179070
279952
198619
287291
231994
208993
294338
183080
119034
170356
61753.5
2721.85
188866
149339
97127.9
123758
124104
125452
109490
110717
110619
100327
127527
130471
126992
115097
112034
114283
116771
118658
107997
125159
147475
134910
137189
116412
136499
119556
129502
113823
133301
150853
115446
107125
102248
117379
137969
132291
122727
114600
105544
100709
114856
136133
130485
120137
118672
108022
103109
116218
139147
133469
121528
101754
117216
111058
125303
117916
129146
138747
115395
128008
113013
131861
116427
128782
145223
100546
124928
112156
127360
114623
127401
141187
106790
134792
118009
135993
118930
131050
149082
103341
127049
128448
115925
117222
131128
143267
116632
118602
125855
127202
134794
137166
146495
127937
159399
169096
159445
147543
138889
147796
102938
130600
127705
126796
116523
115688
113041
122108
119738
104079
112610
149713
131213
128914
124540
112791
107722
120399
144562
138780
125825
86563.9
111806
95771.6
119767
101421
112849
134067
122245
114671
109556
126980
146950
141180
132522
111522
126649
114395
133027
143342
146720
129836
105307
129532
117337
132931
120713
134061
147229
106428
129764
118436
133020
121459
134788
147151
266372
155804
276206
244385
242472
169672
283973
295008
143862
212151
283266
245446
178505
275854
111920
135695
120136
143543
127100
135971
152897
224370
301845
187446
290811
180675
234166
294148
261172
181446
237090
67076.9
3752.2
206471
195378
135039
167493
145094
158736
135464
147257
174139
107643
136342
130999
134746
119598
123095
118136
124277
146415
127371
136478
119113
140067
159803
114545
136822
117467
129758
147205
150597
126612
108784
141346
128697
138040
125851
148081
161447
128719
134802
137917
147769
150997
162567
159212
126454
121887
132166
135461
141152
146675
156408
290106
149954
243322
279516
216474
185739
298484
108412
135401
119422
141948
125150
136869
154685
242172
283571
272808
211697
312289
292964
63409
114128
143816
143332
137527
131108
125659
125179
140144
125952
120530
132930
160204
154108
138584
142192
168353
145194
153582
133075
156959
181564
129857
122924
117515
136393
156302
150231
142206
131111
154814
143071
151100
139737
165595
178710
114515
140121
122850
146592
128537
137449
155999
113566
136622
121855
145412
129781
138745
154816
116225
139757
127797
146063
133758
146453
159351
217281
173472
251335
275393
169852
189874
270040
125566
149874
128628
140659
160697
164242
137399
121449
143992
130107
154588
139843
149111
164353
301345
152616
196241
306860
180361
220953
300216
122405
164110
188541
4974.33
239.166
109866
15672.6
144244
134368
124471
133401
166304
154146
143680
146024
138521
126335
134887
170110
155618
147561
92216.4
136192
102959
143213
107745
120680
160480
115464
144682
126203
147441
128399
140005
159881
132335
147839
141660
161992
155112
167001
174456
276135
157528
224899
299398
163279
196920
290181
119504
146600
128085
152187
132994
142061
161883
148008
181576
158416
197716
171901
183783
212979
157020
146371
162822
163351
179647
170004
191433
139139
151232
152934
156811
158597
170315
180299
125801
134743
117414
125909
156213
143409
134824
151330
153244
136286
139421
180684
159105
156974
130723
120463
113766
127518
160999
147385
136683
153731
137904
132092
144222
175532
168471
150251
126683
150430
137814
158940
145812
158049
172047
127643
142554
141643
145806
144881
164784
161437
219422
178821
288328
300816
53421.1
230467
268322
297306
193346
246963
121429
10507.9
294179
278409
115165
116678
119722
133412
138214
140294
162799
122030
152373
160894
150325
141273
132392
139072
128234
141974
143541
165528
145209
146791
125171
140413
197721
167698
175421
150435
179451
213185
133131
163610
142233
168475
146062
155574
179551
130065
152430
139110
164460
149885
159713
175207
131149
156457
145445
162033
151066
167248
179602
130795
155113
154161
149166
148225
168464
174835
133544
146339
149620
150402
153752
172017
168623
139140
140071
141558
154878
156404
157254
173042
147882
141906
143047
164452
165965
158858
184418
155173
146685
151277
170437
176440
166029
194357
169875
159945
180665
177821
198644
190514
212457
142111
143683
127382
148282
184894
164664
166611
157193
154055
137683
154197
196472
171660
175451
161038
160016
141356
156152
201889
176029
177653
131760
148036
144678
169592
151387
147965
128610
155717
160960
140786
159276
201726
175379
182055
182167
170998
156901
161694
214597
192812
179587
135699
130261
122177
142894
176693
159984
155553
140793
139817
124960
138668
172530
155660
154634
141089
140922
124828
138838
175273
156023
156201
138064
138874
122974
137836
172628
153898
155081
145408
161485
148678
176536
190491
194153
173067
136721
158996
153015
163277
157218
175962
182778
140491
152704
156137
158893
162437
181617
178053
143003
143074
146478
157991
161690
161362
177597
134957
173485
160931
157360
154864
151368
140674
131385
169210
154478
156090
148552
150146
137041
149800
145626
131824
153970
192810
174850
169337
124925
119829
106664
126985
173102
151978
144812
132398
154310
116063
136821
188442
156455
177582
143591
155853
163042
186364
159286
166554
140272
173087
165952
152257
174234
219730
189736
199370
144270
148234
130454
144478
179167
159223
163408
139527
141785
125698
142224
176294
156959
159905
151646
150162
133131
146210
187221
165603
164517
146573
142373
130276
146856
178100
164395
159721
147535
144324
132103
149745
180343
166418
162766
156192
156138
167255
171487
184628
185104
200416
106642
127104
124801
141231
144877
152049
173091
130405
201891
281001
191207
10645.9
269951
292510
145540
180995
155324
185503
158323
168902
199455
167858
155777
163888
182947
194362
178612
213731
144468
180325
182706
169311
166843
155259
157689
172813
172960
151113
164894
219333
188330
189085
195965
200167
171940
185322
253219
217301
213253
151141
145393
133143
148379
181573
167616
161296
157432
151279
138131
152805
189493
173640
166863
144659
148465
131495
149666
185049
163733
168895
157996
151250
138675
153213
189163
174105
166438
165789
159238
152642
181463
210564
200092
189946
142156
174238