/*--------------------------------*- C++ -*----------------------------------*\
  =========                 |
  \\      /  F ield         | OpenFOAM: The Open Source CFD Toolbox
   \\    /   O peration     | Website:  https://openfoam.org
    \\  /    A nd           | Version:  9
     \\/     M anipulation  |
\*---------------------------------------------------------------------------*/
FoamFile
{
    format      ascii;
    class       volScalarField;
    location    "0.0031";
    object      T;
}
// * * * * * * * * * * * * * * * * * * * * * * * * * * * * * * * * * * * * * //

dimensions      [0 0 0 1 0 0 0];

internalField   nonuniform List<scalar> 
26834
(
803.867
794.033
564.911
907.814
733.693
806.733
837.531
884.605
776.214
834.073
822.694
741.903
784.813
604.046
616.767
601.419
608.23
742.53
752.548
762.408
752.824
762.151
786.053
776.365
765.517
795.214
786.515
796.383
785.724
808.877
815.729
776.983
815.762
786.917
814.707
839.525
846.976
805.669
540.477
578.462
573.302
501.991
497.763
554.329
513.046
775.864
813.147
785.265
813.794
838.026
846.242
804.771
834.7
814.651
809.707
834.07
852.977
860.353
834.785
685.225
755.256
758.915
693.623
696.66
772.32
705.342
832.774
817.187
808.053
833.519
855.349
859.925
835.996
769.245
715.569
703.401
800.767
786.418
715.91
727.9
846.489
874.524
874.716
911.584
880.732
880.562
838.735
636.662
601.603
640.939
600.474
641.766
646.569
602.309
776.687
722.042
709.132
805.029
789.572
718.055
730.099
860.112
908.715
871.543
870.226
886.396
885.963
853.893
565.38
573.531
570.642
555.41
550.929
568.815
544.748
654.421
604.102
646.496
653.172
610.758
661.849
605.688
814.816
813.414
802.228
728.192
744.699
737.982
738.067
655.397
601.633
648.116
653.461
606.981
660.82
604.282
558.126
537.359
544.099
530.141
538.131
527.927
516.709
572.233
546.956
549.431
572.048
569.589
542.393
542.606
566.37
535.556
540.895
566.432
566.716
538.489
535.61
660.584
673.477
611.396
613.941
667.164
668.703
608.273
287.926
287.926
287.926
287.926
287.926
287.926
287.926
301.504
287.926
287.926
287.926
287.926
287.926
287.926
444.028
290.169
287.933
287.926
287.926
287.926
287.926
506.118
486.359
394.083
288.196
287.926
287.926
287.926
697.344
550.01
500.72
471.716
289.976
287.926
287.926
928.663
806.549
606.734
506.177
486.986
290.278
287.926
931.236
854.745
633.727
506.903
476.633
288.323
933.167
853.236
611.561
501.243
412.717
287.926
287.926
287.926
287.926
287.926
287.926
287.926
287.927
287.926
287.926
287.926
287.926
287.926
287.926
319.702
288.291
287.927
287.926
287.926
287.926
287.926
505.19
474.593
332.696
287.968
287.926
287.926
287.926
636.287
536.957
505.323
440.338
288.239
287.926
287.926
822.492
727.677
584.919
506.214
467.407
288.287
287.926
827.766
772.999
607.949
506.739
448.632
287.99
618.923
773.699
590.125
506.305
354.023
287.926
287.926
287.926
287.926
287.926
287.926
287.926
287.926
287.926
287.926
287.926
287.926
287.926
287.926
288.005
287.93
287.926
287.926
287.926
287.926
287.926
485.896
379.455
288.454
287.926
287.926
287.926
287.926
527.991
514.966
492.962
301.898
287.929
287.926
287.926
566.19
497.652
524.368
510.03
331.746
287.929
287.926
543.778
582.525
535.192
510.434
307.801
287.927
514.457
583.822
527.477
499.667
288.959
287.926
287.926
287.926
287.926
287.926
287.926
287.926
287.926
287.926
287.926
287.926
287.926
287.926
287.926
287.926
287.926
287.926
287.926
287.926
287.926
287.926
289.336
288.061
287.926
287.926
287.926
287.926
287.926
513.766
476.156
300.735
287.935
287.926
287.926
287.926
478.967
482.928
515.483
375.677
287.955
287.926
287.926
491.592
485.391
488.663
517.323
383.965
287.939
287.926
529.016
476.6
485.13
516.093
310.926
287.927
486.241
480.597
288.093
287.926
287.926
287.926
287.926
287.926
287.926
287.926
287.926
287.926
287.926
287.926
287.926
287.926
287.926
287.926
287.926
287.926
287.926
287.926
287.926
287.926
287.926
287.927
287.926
287.926
287.926
287.926
287.926
287.926
289.275
288.173
287.927
287.926
287.926
287.926
287.926
465.942
443.502
297.193
287.935
287.926
287.926
287.926
455.486
459.378
470.236
322.857
287.937
287.926
287.926
499.658
460.969
462.191
470.323
302.269
287.928
287.926
454.745
288.042
287.926
287.926
287.926
287.926
287.926
287.926
287.926
287.926
287.926
287.926
287.926
287.926
287.926
287.926
287.926
287.926
287.926
287.926
287.926
287.926
287.926
287.926
287.926
287.926
287.926
287.926
287.926
287.926
287.926
287.926
287.926
287.926
287.926
287.926
287.926
287.926
287.926
289.203
288.028
287.927
287.926
287.926
287.926
287.926
429.359
388.823
289.26
287.927
287.926
287.926
287.926
436.668
428.137
430.678
289.688
287.927
287.926
287.926
426.702
430.118
287.927
287.926
287.926
287.926
287.926
287.926
287.926
287.926
287.926
287.926
287.926
287.926
287.926
287.926
287.926
287.926
287.926
287.926
287.926
287.926
287.926
287.926
287.926
287.926
287.926
287.926
287.926
287.926
287.926
287.926
287.926
287.926
287.926
287.926
287.926
287.926
287.926
287.926
287.926
287.926
287.926
287.926
287.926
287.926
287.926
288.617
287.989
287.926
287.926
287.926
287.926
287.926
419.632
343.724
288.199
287.926
287.926
287.926
287.926
416.475
293.389
287.926
287.926
287.926
287.926
287.926
287.926
287.926
287.926
287.926
287.926
287.926
287.926
287.926
287.926
287.926
287.926
287.926
287.926
287.926
287.926
287.926
287.926
287.926
287.926
287.926
287.926
287.926
287.926
287.926
287.926
287.926
287.926
287.926
287.926
287.926
287.926
287.926
287.926
287.926
287.926
287.926
287.926
287.926
287.926
287.926
287.926
287.926
287.926
287.926
287.926
287.926
287.926
287.957
287.931
287.926
287.926
287.926
287.926
287.926
288.144
287.926
287.926
287.926
287.926
287.926
287.926
287.926
287.926
287.926
287.926
287.926
287.926
287.926
287.926
287.926
287.926
287.926
287.926
287.926
287.926
287.926
287.926
287.926
287.926
287.926
287.926
287.926
287.926
287.926
287.926
287.926
287.926
287.926
287.926
287.926
287.926
287.926
287.926
287.926
287.926
287.926
287.926
287.926
287.926
287.926
287.926
287.926
287.926
287.926
287.926
287.926
287.926
287.926
287.926
287.926
287.926
287.926
287.926
287.926
287.926
287.926
287.926
287.926
287.926
287.926
287.926
287.926
287.926
287.926
287.926
287.926
287.926
287.926
287.926
287.926
287.926
287.926
287.926
287.926
287.926
287.926
287.926
287.926
287.926
287.926
287.926
287.926
287.926
287.926
287.926
287.926
287.926
287.926
287.926
287.926
287.926
287.926
287.926
287.926
287.926
287.926
287.926
287.926
287.926
287.926
287.926
287.926
287.926
287.926
287.926
287.926
287.926
287.926
287.926
287.926
287.926
287.926
287.926
287.926
287.926
287.926
287.926
287.926
287.926
287.926
287.926
898.559
840.625
932.483
891.668
852.452
852.516
892.718
900.557
854.572
935.408
892.696
855.49
853.132
890.215
858.414
837.359
930.973
886.348
810.686
857.448
891.01
848.087
880.936
883.112
885.354
887.187
914.829
912.505
801.017
800.26
829.96
622.001
626.212
614.081
631.7
730.065
829.951
805.032
825.962
632.689
631.101
625.148
847.917
876.066
881.192
875.167
880.745
911.279
907.949
864.774
869.584
869.654
888.748
889.849
910.121
883.548
860.721
869.416
886.2
869.555
885.797
908.135
883.656
760.372
809.103
743.948
610.12
600.958
609.988
618.232
555.68
507.946
527.074
508.89
491.591
504.635
461.125
522.141
512.455
594.094
438.19
429.111
475.754
454.719
845.982
874.456
881.101
874.751
881.803
912.727
908.678
485.279
532.936
503.309
468.21
458.837
526.79
495.813
686.445
941.658
857.492
816.856
672.588
893.269
820.457
910.947
933.661
913.522
934.124
941.626
940.335
933.812
908.63
933.332
911.624
933.062
941.258
940.426
931.925
860.079
873.566
887.153
876.444
888.487
910.446
887.236
799.84
813.118
812.108
741.71
739.888
822.32
748.797
667.49
938.942
820.082
816.53
655.795
922.324
785.542
914.451
935.492
916.477
934.78
940.575
939.121
934.679
728.815
813.247
813.088
740.639
739.159
822.784
747.838
649.172
936.84
847.299
769.66
638.319
921.948
809.563
907.712
932.491
911.286
932.8
938.93
938.174
931.53
923.679
883.711
909.475
923.874
892.913
926.82
892.348
923.511
883.212
910.851
923.753
889.689
924.636
891.497
922.68
883.96
908.271
922.998
889.891
924.369
892.207
923.459
883.626
908.364
923.238
892.949
926.799
892.551
908.122
932.093
912.084
931.52
934.101
932.982
930.635
578.056
915.85
787.191
669.468
570.866
860.445
750.632
909.775
928.879
913.665
930.653
925.056
922.955
929.983
553.798
589.89
589.623
550.289
528.259
508.965
523.972
922.264
885.679
909.424
921.756
883.21
918.741
890.245
733.548
817.35
820.958
739.124
741.668
825.36
744.302
649.973
831.77
777.418
620.726
572.346
634.064
625.311
667.466
624.811
622.348
676.507
674.254
681.892
628.251
635.024
749.648
744.635
622.773
563.544
626.805
604.54
584.933
544.461
588.649
497.42
506.427
506.63
524.634
664.212
620.93
673.938
617.33
671.19
679.14
624.024
823.154
755.131
749.954
831.459
829.328
754.502
757.26
820.904
750.104
746.594
827.757
827.982
752.812
753.477
550.785
576.214
572.757
552.409
547.75
533.425
527.254
574.701
570.406
549.911
532.521
551.739
527.991
512.056
618.126
748.211
765.807
592.72
551.466
621.628
615.571
822.508
749.554
746.166
827.44
828.799
751.743
751.724
939.673
927.777
930.613
897.226
926.207
929.012
940.391
939.917
930.971
929.035
899.042
928.982
927.037
941.336
918.683
889.046
911.779
920.853
871.249
908.009
889.022
823.176
754.781
749.268
831.201
829.531
753.572
756.444
940.54
931.9
931.909
930.111
929.971
902.029
903.534
937.511
925.588
923.67
920.191
918.351
887.812
889.053
564.393
533.536
540.564
491.555
501.72
491.5
492.481
925.974
883.839
877.077
880.373
911.422
914.361
891.874
926.077
886.026
881.093
878.633
914.613
912.44
891.767
927.028
881.975
882.162
915.641
915.637
888.875
858.117
935.948
923.333
921.664
917.442
915.546
881.72
883.153
747.523
823.592
826.79
820.295
825.861
745.745
744.141
509.29
524.819
551.729
547.858
528.529
519.999
503.796
886.551
874.484
908.721
868.348
903.056
874.71
843.968
523.371
507.344
502.053
519.555
527.172
533.707
521.924
666.85
606.962
662.509
609.678
667.8
670.349
612.148
886.986
871.972
906.709
865.15
900.355
868.257
836.52
510.302
497.392
494.151
513.418
511.871
522.734
517.223
928.958
900.177
910.014
856.608
897.493
907.755
930.473
687.277
629.658
683.219
686.761
634.309
689.182
632.269
626.824
679.074
681.683
684.905
630.814
685.621
630.33
551.525
582.435
582.152
584.907
553.801
586.352
553.381
556.272
798.735
709.608
546.355
520.187
604.091
582.882
827.726
742.274
745.628
808.645
824.744
744.303
733.735
536.36
555.369
515.655
516.108
533.536
497.025
483.226
441.809
439.137
484.951
483.526
452.004
428.674
436.377
819.078
822.626
829.772
754.516
738.709
748.839
752.449
620.286
678.658
676.206
681.942
625.934
681.992
625.91
686.587
627.241
681.628
684.73
632.558
687.866
629.342
824.065
821.547
830.154
755.992
743.319
754.534
752.188
547.311
542.023
563.845
525.291
539.516
519.291
506.974
757.384
824.574
825.037
754.612
755.311
807.25
745.023
546.951
576.166
575.975
580.159
548.58
581.204
547.737
540.126
573.393
572.349
537.167
569.275
568.749
538.681
508.927
535.338
516.718
502.535
516.287
508.478
493.021
493.369
486.97
488.508
492.408
459.24
475.819
458.889
914.429
842.899
845.425
856.522
881.685
892.272
878.275
824.185
817.285
811.107
748.151
742.393
793.824
733.143
520.067
794.354
632.084
600.188
520.326
765.836
623.419
902.295
854.472
900.885
858.145
801.402
802.31
858.521
524.046
800.871
621.922
625.069
523.756
772.892
614.477
896.158
852.942
894.765
845.651
794.319
795.352
845.744
482.507
491.225
487.11
459.531
480.389
472.302
459.179
452.051
500.019
476.319
431.84
431.297
431.278
428.46
426.948
425.01
450.785
428.975
414.731
422.568
429.226
529.167
501.73
523.331
498.158
513.471
505.933
489.11
546.03
507.026
528.807
486.683
506.546
492.674
475.341
508.724
464.678
494.33
460.892
489.916
477.413
451.975
902.87
857.06
901.316
858.772
804.034
804.822
859.213
613.996
671.475
675.457
672.703
617.283
673.777
614.984
540.352
510.642
522.022
503.033
513.824
498.546
489.714
892.08
847.114
890.747
836.255
783.102
784.268
836.405
913.108
885.988
882.976
864.603
861.554
815.302
817.039
824.254
813.861
807.042
743.816
737.496
785.365
724.326
509.787
751.581
569.981
605.109
512.055
727.881
566.782
531.54
526.653
506.878
508.683
528.691
526.864
505.367
473.868
482.959
477.812
463.128
489.533
458.827
484.022
516.517
497.375
489.569
496.454
511.129
490.649
481.246
843.692
856.496
887.587
847.406
772.578
794.338
820.808
846.574
857.737
888.283
848.16
775.651
796.996
821.851
879.02
820.335
877.879
834.725
769.233
770.688
834.61
842.547
851.041
881.692
835.4
766.958
787.833
809.534
810.626
834.057
864.799
824.715
744.144
763.858
799.165
897.644
830.528
866.96
810.007
845.81
802.01
770.54
503.983
731.847
593.454
546.899
507.701
706.488
587.958
872.069
806.32
870.454
822.557
751.356
752.608
822.737
478.794
480.438
495.625
476.32
485.422
460.449
460.949
501.988
486.396
481.636
479.294
496.122
484.779
473.591
787.781
798.512
815.347
739.498
702.2
720.52
729.832
836.429
845.751
877.329
825.749
755.334
776.697
799.037
534.767
567.175
565.172
566.031
533.234
568.158
535.005
550.959
590.945
586.706
509.051
512.264
528.909
510.774
522.647
584.488
543.925
569.481
509.706
511.878
504.535
685.421
677.918
627.484
631.212
682.214
685.887
629.75
688.115
682.743
634.212
632.32
688.544
686.395
633.299
796.073
824.924
856.885
812.216
725.32
745.674
785.685
587.775
555.875
554.747
591.316
589.544
555.58
557.196
583.223
583.911
549.981
587.833
587.527
553.536
553.644
689.097
633.633
634.628
688.231
689.128
684.026
632.072
584.765
554.443
551.378
589.243
585.922
551.595
554.879
500.162
519.616
524.085
503.772
523.547
521.189
500.52
717.508
808.155
726.015
784.316
589.314
577.324
579.447
777.921
680.191
713.346
757.16
814.075
701.976
757.35
683.755
687.866
693.7
691.152
696.39
708.06
700.65
767.69
681.682
723.085
605.026
606.82
624.233
611.376
695.485
720.246
710.712
720.738
712.031
728.372
738.738
576.258
624.494
598.731
579.676
529.889
644.042
595.09
909.71
732.116
813.82
833.718
883.69
775.814
834.662
698.708
722.877
706.612
723.184
731.675
742.02
713.995
703.48
725.435
710.195
724.061
732.524
741.997
715.427
746.78
738.929
729.055
746.723
775.583
765.998
756.879
746.954
738.784
727.895
746.761
775.441
767.058
756.969
649.64
695.715
696.43
656.88
657.268
710.075
665.154
630.386
618.57
630.244
617.648
629.951
630.744
612.074
741.8
752.596
753.046
787.977
762.833
763.573
731.805
742.627
753.956
755.179
764.619
765.844
790.88
780.848
629.173
615.53
614.05
618.101
616.194
603.946
603.194
823.363
736.48
718.03
611.49
629.259
611.129
615.717
709.725
673.97
665.307
736.617
723.37
673.577
682.424
711.01
675.024
665.753
739.244
724.367
673.821
683.171
766.495
810.589
794.622
794.272
787.333
788.163
775.378
767.715
794.28
794.63
789.095
790.071
812.749
814.09
523.302
649.622
596.055
579.189
500.874
628.991
567.991
636.118
628.594
622.81
625.506
620.373
605.173
608.174
779.238
817.11
789.322
818.773
842.15
849.259
809.929
632.702
610.797
630.43
632.824
602.892
636.323
606.516
635.313
614.1
631.864
633.902
608.17
638.638
608.897
782.541
822.313
792.46
820.572
846.006
852.745
811.871
752.66
751.323
737.47
682.281
703.161
692.077
692.014
683.006
751.097
751.241
692.787
693.434
767.537
705.098
587.127
572.865
557.924
518.574
505.544
559.335
541.876
606.63
594.401
606.335
589.206
595.494
590.66
579.487
835.515
813.819
811.597
836.625
852.461
861.476
833.906
838.967
814.541
813.87
837.836
852.981
863.633
834.333
601.732
582.52
600.137
581.5
592.104
586.487
569.898
632.801
651.266
629.31
633.233
629.483
610.631
609.808
637.144
647.849
603.817
606.72
641.314
642.711
605.359
580.045
603.803
601.401
585.017
561.188
563.953
585.423
593.919
612.142
608.715
589.813
573.204
574.977
590.697
850.939
877.422
879.092
912.392
882.188
883.69
844.007
610.408
645.463
640.015
609.475
644.391
651.664
612.354
767.309
716.482
704.056
800.33
784.495
717.774
730.194
705.348
767.647
784.48
800.481
784.718
718.502
731.29
862.527
908.855
869.432
869.529
886.935
887.792
852.727
577.298
581.457
585.297
574.793
554.523
560.497
565.679
583.069
587.376
592.24
585.132
570.126
583.077
562.876
594.028
614.888
614.18
572.017
591.514
589.551
568.761
645.676
609.01
626.313
604.988
622.328
601.967
584.824
605.703
576.725
604.416
559.384
585.871
583.705
556.016
613.22
659.754
652.163
660.239
620.469
668.949
616.065
564.301
577.362
578.928
556.059
561.202
549.126
539.984
569.723
539.649
544.348
550.783
550.274
556.218
567.588
813.51
813.567
800.56
731.235
750.057
741.868
742.343
656.708
609.894
649.913
658.994
617.424
666.793
614.471
564.328
582.619
584.207
583.675
582.725
557.883
555.042
580.179
551.589
559.311
579.825
580.767
555.527
551.024
540.443
547.098
566.225
563.048
517.778
536.174
542.712
596.296
552.657
568.478
575.635
534.392
548.445
559.571
588.644
606.22
585.368
581.308
544.718
560.408
564.678
668.622
683.086
623.854
625.303
676.129
677.113
619.827
526.394
539.639
550.851
539.435
515.42
532.64
526.052
532.374
535.696
545.08
536.761
510.912
528.279
523.203
583.485
585.228
582.667
553.948
553.908
552.064
553.957
555.198
511.267
517.016
521.955
529.22
535.161
540.414
531.424
527.186
506.817
508.658
526.857
528.752
514.104
496.625
515.73
493.629
494.654
514.301
512.42
515.338
518.478
737.502
598.49
550.558
508.94
611.677
544.996
544.273
560.4
534.608
578.169
505.516
514.163
507.539
544.079
578.104
577.172
582.307
582.187
547.921
548.094
668.473
611.111
670.219
670.581
608.939
664.527
612.376
807.149
724.823
745.168
739.988
778.55
725.671
696.688
681.68
628.792
682.614
623.809
677.285
673.735
623.023
515.638
729.741
606.209
535.859
509.007
604.81
548.997
805.28
719.96
742.896
736.385
777.171
724.087
692.775
800.675
721.487
739.349
731.946
767.054
715.495
689.535
490.803
520.717
501.237
500.844
476.899
485.582
490.548
840.791
786.986
838.9
763.279
709.356
710.74
763.305
518.094
499.849
471.932
501.07
485.177
470.975
460.584
516.055
486.535
495.373
498.821
474.701
482.518
489.139
497.26
493.09
480.563
480.028
457.11
465.422
468.852
446.147
468.41
480.768
466.051
438.026
456.13
444.303
794.354
713.232
732.489
719.772
755.718
704.07
677.398
677.945
622.836
677.455
617.694
671.799
665.344
615.314
725.679
773.817
755.233
708.761
693.508
722.948
670.239
801.733
743.736
745.561
738.963
740.884
686.365
683.849
509.838
695.942
555.811
540.258
511.536
586.321
523.21
776.852
792.967
825.177
753.498
684.949
704.271
727.94
784.361
695.681
724.727
710.876
757.318
706.83
670.859
574.267
537.169
570.336
573.962
571.032
537.647
540.732
795.396
738.172
740.146
728.17
730.287
677.94
675.276
507.499
673.8
573.884
515.32
508.77
571.083
529.881
774.112
679.065
714.283
691.57
742.986
692.666
652.162
494.043
488.881
485.716
478.473
475.798
484.855
473.807
482.819
490.864
505.305
485.704
469.273
475.894
478.268
805.158
743.704
745.287
688.939
745.561
747.087
804.347
784.973
730.223
717.362
670.232
732.32
719.644
783.718
501.746
492.428
491.868
482.338
481.194
488.751
476.746
794.033
723.583
740.138
719.327
735.615
682.821
670.498
669.381
647.196
606.173
612.211
657.715
665.272
613.119
501.222
488.795
493.267
491.831
476.695
480.775
482.186
457.477
448.223
472.543
462.355
433.805
449.883
441.583
797.221
685.255
723.095
724.811
740.007
741.569
775.643
769.722
697.876
714.329
651.998
700.159
716.564
768.481
491.375
509.386
509.945
489.958
508.336
509.76
491.022
787.547
717.826
734.685
708.613
725.087
674.485
662.131
487.482
480.749
469.456
460.925
471.121
455.796
450.248
443.106
440.276
433.554
434.713
429.39
427.674
425.223
753.169
701.161
703.582
682.559
685.048
640.89
637.992
492.585
619.264
535.891
507.848
489.638
603.648
533.867
785.04
698.329
783.869
733.874
652.725
654.597
733.509
482.642
480.055
480.387
477.164
470.759
471.104
473.24
474.912
482.868
491.29
480.261
462.927
468.856
473.263
777.743
667.148
711.47
699.899
727.303
715.002
757.335
591.437
589.767
590.316
556.162
556.623
557.547
555.992
505.916
506.265
527.97
528.001
506.712
529.456
505.736
503.03
522.757
501.303
525.996
503.852
526.006
503.987
584.75
588.359
586.226
551.816
552.539
551.19
554.517
503.432
526.7
504.462
523.976
504.647
527.048
502.14
556.725
590.75
591.704
557.77
590.358
556.802
557.165
515.713
562.89
553.141
516.515
513.1
495.024
506.508
566.702
533.505
533.512
566.621
568.448
535.342
534.894
478.673
482.619
479.731
473.691
471.365
479.66
470.485
762.495
649.235
680.666
695.936
695.728
711.747
741.644
690.801
742.247
771.786
724.931
633.056
649.411
700.931
667.178
629.926
681.865
671.02
609.644
649.095
624.212
672.013
632.486
684.331
672.64
613.191
652.947
625.778
517.567
496.937
517.443
520.717
499.959
521.085
499.498
746.772
685.209
699.386
668.081
681.287
638.573
629.031
549.798
586.462
581.854
552.948
582.48
548.865
550.667
669.113
627.895
679.202
663.906
607.973
646.803
618.254
661.214
621.246
672.356
653.366
598.305
635.605
609.076
743.583
663.18
687.707
653.625
688.477
644.877
618.635
658.289
599.278
648.574
590.87
637.011
622.107
582.256
733.127
679.558
681.842
659.396
661.692
618.538
615.789
694.542
695.063
691.156
660.658
657.177
648.373
621.78
578.069
580.402
575.741
547.361
575.563
543.43
544.786
647.222
616.827
666.521
656.52
594.965
630.963
612.057
686.489
688.855
680.156
654.223
646.259
639.887
613.367
485.759
472.626
452.412
462.446
472.543
452.415
446.703
435.29
451.649
470.242
451.925
434.455
354.657
432.009
694.075
696.015
739.676
696.128
622.89
659.25
661.334
683.926
673.384
723.013
681.568
610.014
650.732
641.445
632.634
608.558
656.992
643.821
581.316
614.359
601.437
494.731
514.523
511.662
512.128
495.752
515.146
492.997
726.406
663.302
677.704
643.973
657.772
616.331
606.843
497.747
588.045
507.612
508.215
495.658
583.11
509.392
686.604
636.531
689.081
635.535
588.341
591.182
632.729
478.169
470.951
477.102
469.615
468.924
477.878
469.488
485.209
466.917
466.36
474.713
473.927
468.585
461.143
454.684
471.764
451.869
424.202
336.072
430.175
433.838
426.546
427.103
427.872
398.893
301.405
430.135
405.73
453.517
439.173
430.797
432.239
443.738
446.238
436.188
684.663
612.498
637.069
580.66
614.894
639.413
683.078
654.302
668.422
706.927
665.87
594.069
623.178
635.753
457.615
448.665
433.829
433.292
447.884
441.528
430.355
469.761
461.11
450.586
471.646
459.362
451.851
446.07
682.935
634.911
685.494
629.961
585.319
588.185
627.083
466.836
448.62
453.935
457.108
463.133
446.292
443.916
657.778
660.058
644.459
629.783
616.147
610.957
589.096
495.539
575.064
501.875
508.835
491.069
571.356
505.766
485.957
581.156
525.797
494.762
451.501
526.032
514.064
697.711
600.94
649.263
606.641
664.008
624.059
578.479
425.348
428.968
429.689
378.831
423.209
403.557
295.475
484.656
466.83
468.495
466.112
473.48
474.555
476.255
566.286
570.994
570.178
537.632
536.315
536.052
539.643
677.634
624.826
680.247
631.84
582.229
585.09
629
479.464
464.815
471.69
463.142
469.531
466.522
459.932
489.605
560.774
504.379
505.067
481.694
558.073
506.799
663.623
609.731
666.397
621.313
571
573.934
618.363
653.909
614.531
656.761
601.846
565.626
568.535
598.841
511.086
578.033
530.929
513.453
497.615
511.237
514.598
495.939
512.383
496.265
487.923
461.044
460.006
486.147
432.739
399.544
459.58
452.54
467.024
428.938
305.52
431.687
427.453
430.474
424.303
426.29
423.671
423.179
678.659
578.89
599.834
622.735
611.652
635.753
660.443
489.416
475.727
477.183
489.033
488.403
475.678
476.102
487.423
475.063
475.451
487.478
485.643
473.929
475.14
466.927
461.695
468.102
459.997
466.142
464.526
458.592
590.822
555.48
557.575
579.322
587.072
555.78
551.421
506.245
508.087
530.47
507.137
529.442
530.646
509.383
512.126
572.182
533.948
517.824
490.747
509.855
513.731
588.335
576.204
551.942
585.618
555.439
554.525
548.856
512.979
557.798
517.171
516.165
463.345
507.123
516.394
495.714
514.746
495.57
486.398
446.588
460.675
486.061
409.869
424.12
428.106
337.459
290.32
424.323
391.017
528.409
530.22
507.877
506.525
530.238
528.713
505.865
524.27
526.94
503.243
505.4
524.501
527.339
502.408
619.767
592.313
635.724
605.113
559.866
586.755
571.813
485.175
473.71
475.509
486.962
487.159
474.924
474.836
632.603
669.199
681.859
627.748
580.482
586.859
618.735
634.214
672.911
685.44
633.264
583.473
589.837
624.252
622.834
664.912
676.879
629.67
577.88
583.884
620.881
445.576
429.232
440.696
427.823
437.581
435.42
427.634
501.234
504.394
526.04
501.823
522.62
525.434
505.178
586.777
553.61
554.267
574.902
580.602
550.423
547.771
577.187
564.461
575.466
541.694
546.318
546.327
539.697
651.142
594.515
591.992
626.207
623.209
595.71
571.878
636.378
638.12
620.055
608.777
592.788
589.117
568.478
472.216
464.549
459.869
461.384
465.605
467.406
465.99
652.268
596.427
592.964
594.831
624.612
626.665
612.495
509.166
490.205
508.54
510.367
494.195
511.16
491.908
608.025
651.534
663.261
619.312
567.37
572.946
610.769
432.276
425.282
428.82
422.367
423.976
422.937
422.874
612.802
643.552
654.05
600.431
562.812
567.741
593.558
633.07
596.433
635.878
582.232
549.899
552.755
579.334
580.551
548.433
548.859
566.98
572.912
544.35
541.705
643.464
588.992
620.028
583.169
613.061
587.82
564.946
467.685
532.711
498.654
505.812
451.357
532.857
497.747
492.508
570.378
507.194
509.315
452.821
530.268
509.019
650.508
587.455
623.614
570.855
607.326
587.025
555.846
502.064
517.928
495.995
482.493
418.724
466.047
488.585
457.559
451.489
457.433
343.472
291.361
432.53
415.406
465.425
452.728
459.146
442.377
446.628
444.046
442.45
639.982
585.658
587.364
580.918
617.665
609.792
602.285
481.89
471.64
472.141
484.27
483.669
472.67
473.541
620.567
572.878
623.445
587.755
543.811
546.638
584.781
481.984
472.319
472.022
483.244
480.896
471.127
472.886
621.423
586.311
588.729
560.386
562.778
541.921
539.563
532.248
561.162
555.215
532.497
550.883
528.715
527.445
486.345
560.043
505.965
509.293
435.256
525.195
508.339
517.942
501.049
521.374
499.175
518.36
521.055
502.834
450.617
512.232
474.813
497.567
512.308
483.72
345.859
625.837
571.339
567.189
575.814
593.409
604.072
590.422
572.072
612.846
621.475
586.658
542.91
546.426
580.613
478.127
470.245
469.418
480.603
479.264
470.36
473.05
595.031
623.298
633.44
581.087
548.051
552.304
574.683
480.468
471.009
469.821
482.144
479.512
471.057
474.102
643.277
579.273
617.253
565.825
604.274
584.334
551.511
646.556
585.649
619.514
567.812
601.743
581.465
552.819
620.092
573.003
599.996
563.894
588.61
568.108
549.366
436.065
519.014
500.766
480.429
409.93
519.607
503.471
597.407
552.649
600.091
567.499
528.365
531.059
564.725
624.029
572.073
600.457
552.558
579.84
563.276
540.464
506.431
546.259
520.66
505.711
418.954
509.876
518.846
375.226
428.096
426.314
292.404
288.128
367.839
302.124
579.697
600.406
631.127
599.172
540.597
558.117
575.651
570.561
570.415
605.914
588.616
536.286
554.761
559.48
424.475
423.74
423.047
424.248
422.363
422.357
426.9
570.19
553.902
566.979
535.255
540.566
539.923
532.329
617.371
576.15
586.149
553.514
561.114
541.168
536.045
474.363
547.813
505.537
501.478
406.429
519.074
509.304
630.164
566.688
604.698
556.007
594.457
574.982
542.664
466.187
458.957
464.379
459.052
463.959
464.484
460.426
454.372
445.13
453.338
443.445
451.734
443.215
444.095
446.519
455.425
455.076
443.631
443.484
451.921
443.314
437.28
429.053
430.524
437.294
429.541
435.37
429.058
455.43
455.095
462.11
446.574
443.437
443.62
443.676
436.362
429.874
440.666
436.997
429.755
435.233
428.924
551.963
589.219
598.076
566.563
528.263
531.196
560.766
601.282
557.509
581.285
547.158
568.009
549.954
534.758
590.893
550.921
552.064
553.6
554.735
527.095
524.707
437.068
526.744
495.604
505.346
337.09
514.523
471.312
495.264
488.04
506.688
385.204
298.393
482.559
473.957
426.027
425.702
423.445
425.239
423.983
423.936
426.563
512.881
515.638
497.734
497.957
513.506
515.696
494.544
589.388
551.551
549.314
526.428
554.215
551.98
586.546
477.575
475.747
470.019
484.255
479.323
472.337
481.529
596.267
542.863
576.311
535.191
568.247
553.38
526.581
604.344
557.133
581.895
539.007
561.816
546.755
528.702
558.071
530.354
532.047
538.124
545.149
525.266
522.321
589.535
548.628
549.76
552.937
554.06
526.975
524.307
577.953
544.961
547.631
538.641
541.33
520.629
518.243
550.34
566.759
564.66
543.468
541.754
550.61
532.652
475.863
490.462
489.794
477.704
477.407
492.757
481.647
473.794
487.897
486.296
476.437
476.039
490.218
481.465
452.029
442.464
451.136
442.667
451.486
442.979
445.623
490.303
489.346
488.407
475.721
481.366
477.595
477.081
461.302
466.778
468.841
466.755
459.868
466.97
459.199
460.654
465.745
467.801
466.364
460.062
466.445
459.059
582.453
542.06
547.639
522.481
544.777
550.33
579.554
466.432
460.632
467.648
465.87
460.352
466.659
459.098
451.57
452.263
454.744
442.845
446.397
443.625
443.124
435.445
428.269
437.284
434.512
431.298
434.813
428.586
565.403
567.007
578.68
550.89
532.962
542.401
543.688
527.819
508.175
529.247
529.69
510.866
527.052
510.323
530.361
509.692
530.969
530.587
511.78
528.924
510.986
558.341
538.371
560.846
525.288
511.062
513.303
523.003
576.917
543.294
547.154
537.615
541.045
520.874
518.914
563.703
534.866
537.611
527.098
529.855
513.844
511.415
562.109
545.671
557.427
539.825
536.311
544.941
528.604
581.249
522.585
540.523
545.576
544.361
549.749
575.147
588.09
526.34
549.313
547.259
553.56
551.379
581.844
487.344
488.629
485.885
474.263
482.273
476.823
476.978
424.514
425.141
426.456
422.935
427.989
424.587
424.085
423.219
426.206
422.625
423.293
429.67
425.74
429.477
557.844
531.177
523.511
512.17
533.871
526.152
554.959
459.142
465.108
465.5
464.677
462.168
466.352
459.09
560.883
555.754
570.25
544.1
527.786
538.792
534.947
529.005
507.347
528.321
526.657
510.137
526.136
508.04
520.4
502.854
522.042
523.648
507.677
520.572
506.156
567.956
573.131
597.237
567.686
530.81
542.273
550.389
566.198
569.568
593.27
562.442
528.468
539.469
545.809
557.772
559.105
541.542
540.247
527.156
526.77
518.296
426.815
423.29
424.788
425.167
424.324
424.869
428.143
387.793
515.232
502.899
422.179
298.469
512.616
492.612
572.839
526.392
554.378
522.049
549.216
536.178
515.943
473.316
486.334
486.038
477.404
479.304
491.103
486.747
571.041
528.421
527.373
536.75
540.498
554.089
547.985
464.971
459.235
465.401
465.312
462.862
466.892
459.136