/*--------------------------------*- C++ -*----------------------------------*\
  =========                 |
  \\      /  F ield         | OpenFOAM: The Open Source CFD Toolbox
   \\    /   O peration     | Website:  https://openfoam.org
    \\  /    A nd           | Version:  9
     \\/     M anipulation  |
\*---------------------------------------------------------------------------*/
FoamFile
{
    format      ascii;
    class       surfaceScalarField;
    location    "0.002";
    object      phi;
}
// * * * * * * * * * * * * * * * * * * * * * * * * * * * * * * * * * * * * * //

dimensions      [0 3 -1 0 0 0 0];

internalField   nonuniform List<scalar> 
51314
(
2.63216
-2.64348
3.29926
-3.22675
-2.46461
2.80257
-2.94558
-2.72202
-2.38764
2.27549
2.43555
2.19766
2.27294
-3.01032
3.25665
-3.23342
3.12063
2.52201
-2.0217
3.4415
2.33849
-2.91691
-2.18067
-1.16924
-2.07143
0.499018
0.462944
0.303792
-3.30692
1.43027
1.63314
-1.81263
1.79641
-0.439917
0.0441475
0.0495167
-0.231283
0.0407715
-0.200536
-0.584086
-1.30273
-0.640413
0.209741
0.212276
0.150835
-2.17559
3.35003
2.46398
2.82994
-3.15709
-2.36139
3.43474
2.74048
-2.95719
3.43703
-2.722
-2.04927
2.21386
2.56674
3.54431
-2.34442
2.55623
2.38643
3.45319
-2.39272
2.20642
2.71515
3.43288
2.3112
2.636
3.27181
-2.63143
3.15519
-3.18718
2.73737
2.73662
2.64421
3.35682
-3.14751
-2.33899
3.29921
-3.22675
2.80323
-2.48266
2.33422
-2.31195
3.01964
2.48411
2.48336
-2.38705
3.28642
2.33343
2.48473
3.01943
2.20142
2.50157
2.2008
-2.96972
3.10386
-3.16497
2.37757
3.02685
-2.28537
3.28746
-3.23236
2.45943
3.34453
-3.1838
-2.76634
1.94441
2.84681
2.66274
2.12234
3.22497
2.60027
2.15303
2.9632
1.84466
2.24785
2.31289
2.01621
2.32994
-2.2628
-3.01244
1.20089
-1.55987
1.13917
0.910686
2.18536
-2.1832
2.04066
-2.94236
1.00454
0.816459
1.86816
2.29358
2.29687
1.79008
2.02948
0.583593
0.613286
0.371817
0.633234
-2.12549
-0.47858
2.21413
-1.97844
2.54066
-0.15866
-3.1493
4.64442
-4.28237
3.59116
-0.349987
0.468177
0.653735
3.35399
0.0364794
-3.28488
-1.4411
-0.997666
1.69857
2.30325
-1.89994
1.38573
-0.627968
-1.37679
0.779033
1.62114
1.87868
-1.11551
-0.954637
-2.14786
1.10592
2.1674
-1.67163
1.93644
-0.980724
-0.00684936
4.55655
-4.60775
0.0669764
0.0510396
-3.56016
0.402208
0.84344
3.79674
-0.668073
-1.92062
-2.592
2.35448
0.846994
-0.712156
3.00395
-1.87028
-1.94022
2.25304
-1.06401
2.19201
1.23454
-4.93699
-0.530633
0.178163
5.33524
-0.0695522
0.375167
-4.32867
0.555987
4.49714
-0.386904
0.193463
0.694503
3.9827
0.103775
-0.0938024
-3.91455
0.791868
-0.534058
-0.3362
-5.23149
5.62124
-0.068777
1.17856
-0.958513
0.258847
-3.87129
4.15319
0.517866
-0.322331
0.796418
4.79682
-0.855455
-4.67648
-0.0975334
0.540487
3.57283
0.0813948
-3.53887
-0.186376
-0.776434
2.20659
1.35035
0.326947
-1.9309
-1.33076
-2.66208
0.883755
3.06335
-0.738266
-1.91083
-0.338858
1.59763
2.35432
0.420839
-1.05763
1.31211
-1.1518
-3.14024
0.317786
3.49118
0.670393
-0.490256
-0.610139
1.95138
1.05926
-1.59631
-0.513689
-1.54893
1.52844
2.04673
-0.996954
1.63363
1.26643
-1.13355
-1.11031
-2.55827
3.03452
2.49778
-2.48816
-0.376427
1.63372
0.451848
-1.10215
-2.42093
-2.92944
0.92479
2.22955
-0.743554
3.36788
2.37169
-0.465892
1.78554
0.562788
-1.25671
0.637338
-2.25525
-0.533082
1.5931
2.29757
-1.05624
-2.2097
-0.820294
2.05436
-1.53941
1.97196
1.21755
-1.08128
-2.51784
2.09402
3.01238
1.41305
-1.25308
-3.02558
-2.19501
2.01644
3.44583
0.0484332
4.73497
-1.11795
-4.68331
0.028452
-0.921684
4.61267
0.0849145
-4.62519
4.80438
-1.03637
0.166222
-4.72903
-0.882436
0.00828076
4.65857
0.0498288
0.059796
-0.962418
4.89637
0.0137187
0.805903
-0.870237
0.169309
4.95559
0.0998595
4.7539
0.707823
0.766808
4.72947
-0.74836
-4.58414
-0.279616
-5.29715
1.11094
5.67709
-0.0519522
0.219389
-3.76076
1.40816
4.08416
1.77539
-1.36315
-0.426521
4.67959
-4.2957
-0.160121
1.60361
-1.28827
0.385468
3.0767
-2.81647
2.31483
-1.89197
-5.37421
-0.131835
5.66494
0.134572
2.17057
-1.90706
-3.76028
0.0122356
4.13627
0.73728
4.11771
0.0967452
-3.98899
0.216225
0.0483526
4.64542
0.0505598
-4.45908
4.61961
-4.35473
0.0976489
0.625548
-0.000580739
0.0746661
4.21667
0.0849784
0.00523578
4.81961
0.0708459
-0.595825
0.137128
4.79193
0.0616567
0.144589
4.05779
0.869469
4.82508
-0.953914
-4.73208
-0.226455
4.66833
0.425354
-4.58185
4.65496
-4.63612
0.326535
0.732256
-0.779232
4.97719
-0.653854
-0.244532
0.450654
4.89946
-0.686124
0.536241
4.96192
4.83244
-0.829002
2.42395
1.47634
-2.15111
-0.0794684
0.108623
2.97024
0.0404041
-2.86428
3.17737
-3.04211
0.190243
0.693268
0.263103
3.35283
-0.126173
0.563707
1.24107
2.7369
-0.423491
-0.629569
1.12341
0.703062
2.55773
0.439168
3.15629
-0.331143
1.80473
0.440057
-1.35869
2.06584
1.99025
-1.54242
-0.248337
1.7524
2.48332
-1.21488
-0.275059
-1.80982
0.641859
2.33102
2.23487
-0.542086
0.657468
2.40574
-0.538197
1.66452
0.75789
2.25462
2.20887
0.726345
2.10522
-0.524319
0.867497
1.96461
0.93225
-1.57551
-3.08787
0.314838
1.48853
3.4641
1.55362
-1.06363
-2.62327
1.41993
3.08906
1.45842
-1.19503
-1.03978
2.11345
-1.68677
1.55156
-1.29159
0.321099
2.51715
-2.20391
2.08876
-1.87634
-3.24655
0.458965
3.64402
1.47836
2.06124
-1.81478
-2.97058
-1.08381
3.41562
-0.706665
0.0601226
0.0128854
-5.12122
0.233444
-0.550107
5.39684
-0.119275
0.112112
-0.750675
-0.0257514
5.1598
0.645981
-0.679252
0.238306
-0.480092
-5.04424
0.328982
5.4416
-0.491388
0.388253
5.41975
0.172112
-0.338104
1.52327
0.402345
-0.995675
-2.58235
1.76513
2.58393
-1.24204
-0.301516
1.67561
-1.1532
-0.278
2.56319
0.618814
2.15731
-0.533544
0.642362
2.58467
2.23325
-0.545478
2.46852
0.689319
2.03662
0.722005
2.50056
2.13122
0.767467
-2.79079
-2.51039
-0.579686
3.20059
3.21117
0.47176
-0.343347
1.36144
1.62619
-1.38793
-1.00728
0.610187
-2.17981
-0.456277
1.77985
-1.49455
2.48527
0.156713
-2.07891
1.71146
-1.42339
2.38405
-0.00380378
-0.107964
1.30964
1.58477
0.218654
-1.3466
-0.940554
0.171198
-2.04683
2.12767
-1.89719
2.45648
-0.00762232
0.21483
-2.42609
-2.69365
3.06973
3.11352
-0.0146811
0.616121
3.80216
0.101516
-3.77097
-0.213931
4.50241
0.435147
-4.40548
4.61124
-4.48085
0.322082
-0.514239
4.72818
0.437455
-0.365139
0.00429385
0.623652
3.67329
0.554433
4.61519
0.0404003
3.87097
-2.14454
0.773256
1.69033
2.20835
-1.17765
-2.59315
2.0316
1.38069
3.08631
-3.09411
-2.13192
1.58219
1.96407
3.50249
-1.47117
-2.03468
2.60107
-2.18516
1.89483
1.68802
-1.13163
1.86108
2.08996
-1.64812
1.39018
-1.79334
-3.00004
1.90192
2.04646
3.45919
-1.97756
-3.39719
-2.0929
1.97851
2.2281
3.93059
-0.696027
2.03656
1.20598
-1.7233
-0.261578
2.57524
0.516859
-2.40505
2.76086
-2.63342
0.84606
-0.551546
1.00161
2.4269
0.475777
-0.647866
0.859466
2.82689
0.889093
0.991565
2.36959
2.97168
0.682245
4.6655
-4.49757
-0.616635
4.66004
0.99594
-4.40986
4.64667
-0.645386
1.06591
-4.4695
-0.5712
0.733059
4.94529
0.80707
-0.591875
4.91323
0.484209
-0.500489
1.14194
4.8523
1.07808
4.99434
-4.99234
0.339193
5.19202
-0.198016
0.500428
0.266377
0.013152
-0.131701
0.144094
-0.0270915
4.94633
-0.463166
0.300371
0.341427
-4.17922
-0.0585454
0.747959
4.37407
0.512928
5.1418
-0.00870479
0.45023
0.419634
5.17708
0.580038
-0.602334
-0.417053
-5.13569
5.52693
-5.16801
-0.602188
-0.359123
0.872903
5.44516
-0.508099
-0.349195
0.58979
-0.520023
0.659858
-0.421021
5.44087
-1.735
1.51289
2.21045
-0.96853
-0.554134
1.66371
0.678329
-1.1954
1.68239
-1.22508
0.852502
1.50709
2.16323
-1.35237
-0.808266
1.89779
0.907569
2.05306
0.962979
2.15628
2.06095
2.03795
-2.14725
0.798671
2.24114
-2.00081
2.56893
-3.12419
-1.42624
-2.8346
1.68923
3.62095
3.23457
-2.8335
-2.54704
0.969163
3.283
3.23709
0.611519
1.38207
1.63852
-1.39236
-1.02819
-2.20504
0.774976
1.79725
-1.51122
2.51253
-0.882093
1.50354
1.77416
-1.4998
-1.16094
1.0244
-1.11462
-2.36661
1.89896
-1.61625
2.67156
1.29615
0.161942
0.0150627
-2.52389
3.4059
-3.06831
2.82592
-0.344351
2.21628
4.6822
-4.28915
-0.149573
0.339675
1.92066
3.12355
-2.81453
-5.2346
-3.44124
0.23913
3.72175
5.41037
-5.34478
-0.0500654
2.72767
5.61853
0.934847
-4.09053
-0.741977
-2.99779
3.27458
4.40745
0.273707
-3.82562
-0.11263
2.44325
4.19905
0.711041
4.35017
-4.25425
0.427239
3.18776
-0.0277574
0.971146
-3.05847
4.18838
1.02463
-4.06911
0.393581
0.908044
-0.0453374
3.50914
0.835604
4.47744
-0.370078
1.15821
4.34691
-0.0995953
1.20241
3.40326
0.543028
0.606467
-0.43821
-3.06885
0.953561
0.842666
3.39289
-0.790901
0.825536
1.02032
-0.667393
2.93101
-0.482617
0.929496
0.961892
0.365974
-3.39459
1.00206
3.66794
0.785263
1.09124
3.29409
0.780394
-0.47496
1.46852
0.575695
-0.931063
-2.37423
1.56719
2.39795
-1.02157
1.44465
-0.904627
-0.759093
2.23008
0.849966
2.00416
2.35283
1.97999
0.79679
2.40097
2.0871
2.29946
0.888357
2.11397
0.498297
4.87471
-0.39565
0.301916
-4.01855
-0.0687957
4.25546
-4.77113
-0.728858
0.981136
4.98877
0.354043
-0.675699
-0.0618681
0.917168
0.74185
5.07223
-0.0342466
-2.80117
0.933188
3.17957
-0.775653
-1.54743
0.804586
2.13163
-0.681614
0.836547
-0.699173
2.69486
1.43234
0.951256
-1.25555
-2.57226
1.83042
1.01129
3.01406
1.06496
3.11209
2.01631
0.902475
-0.573791
1.94793
0.696449
-1.42461
2.08981
-2.45333
1.96395
-1.44766
2.16301
-0.44887
1.87444
-1.35658
-0.365913
-2.50782
0.743486
2.45772
2.26202
-0.596443
0.688961
2.3461
-0.566209
2.4223
0.79474
2.28474
0.879771
2.45363
2.18256
-0.532202
4.66568
-4.33079
-1.41263
4.47953
-0.472647
1.80551
-4.22576
4.55214
-0.552545
-4.34381
1.52892
0.385653
-0.430006
4.80468
-0.303961
-1.46348
5.04516
1.89259
-0.349315
4.77591
1.93328
5.02993
-5.14734
1.18123
-0.289216
5.45337
-0.417095
0.887783
0.964929
-0.440215
5.11938
0.332404
-0.368943
1.31852
-0.240565
-5.35751
1.48215
5.70564
-0.223985
1.52672
5.44687
1.24314
0.779452
2.45757
-2.23739
0.441686
2.41389
1.03653
-2.15746
2.04112
0.827757
1.07451
-1.65274
0.403047
1.07027
2.74541
1.14546
0.79538
2.38446
0.349535
1.28427
2.73327
0.726523
1.30972
2.44105
0.834535
1.73095
-1.26653
-1.22838
1.76393
1.71258
0.969169
-1.28837
1.85298
1.02486
-1.40571
-1.21765
1.04467
1.73761
2.12846
1.10408
2.2131
1.11232
1.27414
2.30931
1.59631
1.22488
2.24513
2.47978
0.771898
-0.659109
-2.65919
0.852496
2.44423
-0.709206
3.07147
0.782195
2.52948
-0.659597
-2.5116
2.27129
0.963898
2.96467
2.38898
0.861934
2.59455
0.87951
2.45213
0.975663
2.37204
3.04282
1.08646
2.83619
-0.419269
0.84074
0.335191
-3.24518
3.55766
0.363608
-0.954613
1.12535
-2.79393
-1.217
0.69382
1.34369
3.19559
0.761949
1.20744
0.733008
3.22664
0.407943
3.09339
-0.1017
-2.89898
-1.36452
3.94325
1.72349
-3.73449
4.0446
-3.88615
1.50871
-0.339929
4.24903
0.29584
-1.50091
3.40102
-0.113837
1.8016
4.19954
1.8717
3.3704
-0.137062
1.52519
1.27172
-1.28548
-0.90174
0.00102243
0.121415
1.42575
1.79046
-1.08373
0.00163767
0.128296
1.75036
1.65927
-1.51537
-0.00123633
1.80404
0.254596
1.69643
-1.5711
1.46325
0.245039
1.84764
-1.12231
-0.143014
0.280796
2.06235
1.82689
2.01141
1.79021
-0.00283487
1.05922
2.63708
1.31145
-1.17872
-2.5351
1.7294
3.00591
-2.63769
-1.18473
1.31191
3.08635
-1.20182
-0.996572
1.74404
1.11224
1.17445
3.08086
1.8807
-0.662693
1.79812
0.780508
-1.2686
2.28624
1.75247
-1.21447
1.97503
-1.44976
2.02318
0.893593
2.33183
2.27195
-2.24834
-1.01082
1.14782
2.55803
2.04264
1.00473
2.31773
2.48669
2.10648
-4.66002
1.26399
4.91219
0.324331
1.17301
-0.0942372
1.03004
4.56656
-0.287158
1.35249
0.172666
-3.705
1.65158
-0.0206885
4.06412
1.57264
4.86222
1.43888
-0.0999275
1.33425
1.6112
-1.37686
-0.97394
-0.392426
1.84508
0.531832
1.74051
-1.61031
-0.3808
1.50637
0.518152
1.89129
-1.1762
1.82595
1.71624
-1.59463
1.4846
1.87199
-1.15109
0.427705
1.8449
2.0837
0.574324
1.8659
2.10614
5.11323
1.69803
0.264448
-0.290383
-0.192608
-5.37792
5.69813
-0.222756
-1.6501
2.08787
-1.89861
-5.09848
-0.0656721
2.28422
5.39753
-0.149426
5.42947
-0.209766
2.09352
0.717225
1.57143
-1.05175
2.04214
1.72055
0.90447
-1.23261
2.11342
0.981142
2.0871
1.82789
2.13244
0.946917
-1.34847
1.01415
2.20842
2.19326
2.0012
1.15986
2.21235
2.12689
1.18131
2.30831
2.22014
4.43462
-0.397234
-4.13197
-0.278717
4.66783
2.68002
-4.28372
4.41909
-0.307686
2.63747
-4.08242
-0.253913
2.35264
5.03221
2.34285
-0.264401
4.76311
0.20959
-0.169621
2.75105
4.74169
2.81991
5.01137
-2.26453
-1.09565
2.94553
-2.56388
1.41888
2.57951
-2.32989
0.519036
3.05983
-2.72874
2.60463
0.29297
1.81256
2.62907
-2.3065
-3.79785
-2.84664
1.15717
3.12901
4.17092
-3.35934
0.590546
2.31986
3.75761
-3.76993
-1.63912
-2.90156
1.99688
3.19134
4.206
-3.14107
-1.15949
2.33584
1.52709
3.59504
-2.48528
2.17871
2.96855
-0.946905
2.15918
1.0526
2.27747
0.968459
2.57827
2.35924
-2.61344
-1.09442
2.20877
1.22962
3.09473
2.26332
1.07343
2.28963
3.05139
1.66236
1.40912
0.747826
-1.40597
-1.05491
0.682679
1.86563
1.76205
-1.62447
0.666012
1.52692
1.91084
-1.19648
1.55611
0.813041
1.94288
-1.22571
1.89493
0.832657
1.7892
-1.64633
0.730794
1.88642
2.13147
0.888517
1.91384
2.16622
-2.79041
0.882977
-0.721035
3.21801
-2.48776
0.850235
2.27844
-0.684229
0.810667
-0.667053
2.75937
2.40859
0.934263
-2.34865
-2.93675
1.09354
2.15909
3.37844
1.02843
3.20998
1.0036
2.20255
4.52039
1.69646
-0.242161
0.106338
-3.71416
0.037171
4.08823
0.172386
-1.71342
1.99099
-0.0179087
-1.90013
-4.50878
2.23842
4.84557
4.84572
2.04715
-0.0741725
0.376105
2.43971
-2.14935
-1.28653
2.26573
0.690486
1.50988
-1.91331
2.1445
0.748567
-1.77558
-1.5118
0.294953
1.74989
2.86687
0.309093
2.77932
1.49682
0.677166
2.5248
0.651579
1.71373
2.63727
2.09254
3.89275
-3.63506
0.268017
3.20174
2.22748
-0.0864726
-2.87551
3.88488
2.46028
-3.59002
0.225299
2.09775
3.46467
-0.0539818
2.23578
4.18991
-0.121206
2.59406
4.20513
2.38656
3.54566
0.0436043
0.922483
1.90146
-1.39266
-2.0998
2.30365
1.27723
-1.83156
1.91372
2.04043
1.09377
-1.55887
-2.17798
1.29854
2.65122
1.99158
1.14118
2.40512
2.11826
1.30703
2.51789
1.46641
2.75842
1.95166
0.326423
1.30133
-2.79881
1.48831
0.674841
3.2009
1.34026
0.706671
-3.09788
0.329713
1.67767
3.48739
0.303138
1.49727
2.84077
0.669121
1.49629
0.674872
1.66209
3.24386
-1.11334
1.93083
1.5667
-1.48186
-1.24271
2.15874
1.47482
-1.75913
1.99962
-1.57486
1.46756
1.04019
2.42641
-0.999683
-1.43398
1.41277
1.66293
2.54197
1.68422
2.56006
1.4861
2.38564
-3.04473
4.39147
-0.0924243
-4.05348
3.43593
-0.238047
4.65667
-4.282
4.40096
-0.208776
-4.05957
3.15065
0.130804
-0.0628991
4.71867
-0.0214024
-3.2656
4.96042
3.66466
0.0641265
4.6969
3.53476
4.98401
-2.68147
1.45789
3.11834
-1.11266
1.25813
1.62022
1.30756
2.75217
1.04739
1.46652
-1.0417
-2.71654
1.49442
1.60122
3.16677
1.62958
3.17708
1.51862
1.43128
1.70853
1.44982
-1.44116
-1.09926
-0.982104
2.00202
-1.74039
1.13911
-0.960355
1.6456
2.06548
-1.32649
1.11693
1.59539
1.99619
-1.26833
1.94168
-1.68539
1.82551
1.04841
1.94865
2.21645
1.99099
2.27869
1.21747
1.04907
2.76711
2.32199
-2.27005
-2.97002
2.08521
3.4049
-2.23873
-1.14893
1.29583
2.05503
-2.81213
-1.16704
1.31329
3.26768
1.17338
3.22809
2.12541
-2.13367
1.74677
0.303534
-1.45887
2.43706
0.137491
1.57223
-1.2583
-0.000219962
1.60933
0.272823
-1.29684
2.34106
-0.159265
0.30783
1.9509
0.177419
-2.29274
2.0395
2.58707
-0.00906795
0.335982
2.07457
2.63407
1.91483
-0.00562686
1.95416
1.895
-1.43446
-1.15655
2.16561
2.01699
-1.7288
1.40049
1.98726
2.06904
-1.53458
-1.38166
1.83269
2.54613
1.6313
1.92017
2.36785
1.39092
2.05986
2.45065
2.01416
2.61811
1.63703
-0.172304
2.5398
-5.07272
2.67787
0.029119
5.35241
2.49367
-0.119912
5.03948
0.0935611
-0.0210907
2.89483
0.0408827
-5.30717
3.10709
5.57584
0.143251
3.06663
5.2921
2.97516
-0.436304
2.03805
0.583613
-1.80682
-2.10273
2.1905
-0.32381
-1.95868
2.51537
2.01616
-0.289131
-1.78864
2.21616
0.468982
-0.313828
2.26903
-0.509096
-2.23809
0.672389
2.48172
2.67485
-0.34673
2.4538
2.64445
0.623576
2.29393
-0.417255
1.64671
0.562934
-1.34071
-2.15785
1.7625
-1.47695
2.46108
1.62728
-1.31997
2.36272
0.4626
1.96771
-0.497742
-2.3875
0.659525
2.11023
2.68366
2.09169
2.65668
0.616469
1.98721
-2.0839
2.17011
-1.9409
2.49377
0.149356
1.9485
-1.72014
-0.00475948
1.99622
-1.7698
-0.163883
2.19733
2.24783
-2.16115
0.185075
2.38979
2.5848
-0.0101625
2.20236
-0.00706191
2.43075
2.62029
2.04926
1.19746
-2.68452
1.39362
2.13859
3.16378
1.21306
2.17778
-2.70475
1.97499
1.57235
3.18355
1.97709
1.38285
2.78821
2.10314
1.39287
2.0892
1.58543
3.26116
-2.8168
3.94686
-3.60953
3.16667
0.156796
3.29469
0.018399
-2.96416
3.9026
-3.58424
2.94727
0.0123897
4.23888
-0.183035
-2.67901
0.36439
3.75678
2.98397
4.27471
3.28934
0.18397
3.64671
0.072686
2.26835
0.0811655
-4.51866
2.58163
4.84799
2.39851
4.53987
0.0553311
2.75072
-0.278637
-3.91035
2.72173
0.454364
4.26999
2.91543
4.84017
2.55176
0.220907
1.7518
2.40776
0.658266
-2.06264
0.319159
2.76157
2.07108
-2.43405
0.324257
1.99102
2.98287
2.5667
0.662099
2.00233
-2.22473
1.94649
0.659622
2.77551
0.401847
2.23577
3.11437
0.711576
2.1862
2.93067
-3.15292
0.373887
3.55218
-1.70867
0.338896
1.92785
0.304858
2.91702
1.68767
0.655512
-1.85731
-3.02735
0.758511
2.06459
3.43473
0.69894
3.32292
0.669521
1.90076
0.742064
2.06156
-1.82599
-2.17473
2.27732
-2.03031
0.969011
2.60426
2.09347
-1.85205
0.902083
-2.26075
0.846284
2.51457
2.71419
0.787611
2.32108
2.28981
0.954462
2.35795
1.02672
2.55919
2.77524
0.719554
1.66542
-1.35856
-2.24246
1.82367
0.942645
-1.53751
2.55168
1.69347
0.877276
-1.3864
-2.41505
0.831385
2.12997
2.71195
0.779945
2.00628
2.45275
0.946359
2.03308
1.00784
2.15839
2.75228
-2.06281
2.45109
-2.0061
1.90077
-1.29356
2.36239
-1.93026
1.5209
2.19675
-1.74172
1.50399
2.07131
2.64713
-2.03637
-1.65463
2.99464
1.90483
1.86471
2.79209
1.73199
2.87362
1.92199
1.71867
2.32594
-1.94977
-0.988673
2.50168
1.97145
-2.11612
1.3531
-0.991983
1.91537
2.71343
1.37588
2.5086
1.98123
-2.14212
1.92916
2.71791
1.02407
2.19644
2.90086
2.19351
2.9076
1.38245
4.99797
3.28615
-0.00725001
0.098464
0.104044
-3.37036
3.7163
0.127924
-5.27442
5.52317
-3.41577
-4.93879
0.508805
3.70631
5.12755
0.303486
5.21332
0.263661
3.63352
2.84535
1.65691
1.01297
-1.04746
-2.83149
1.46753
3.27211
-1.01016
-1.63303
1.41463
1.86464
-1.83564
-2.97176
2.07261
3.40513
3.27082
1.88212
1.44919
-2.16672
1.45251
1.9941
-2.88234
1.47744
3.32623
1.32048
2.97185
2.10565
1.49434
-2.08732
-3.17442
1.76714
1.93726
3.58755
1.66343
3.41066
1.62393
1.94564
-1.6871
-0.378461
1.40699
0.510743
2.13369
-1.95795
-1.26306
1.57221
1.43869
2.39764
-0.952486
-1.83806
1.48532
1.1033
2.28683
0.597866
-1.76805
-2.01675
-0.450476
2.43097
0.41714
-1.17555
-0.300018
1.2137
-0.83651
0.336278
-0.779482
-0.233633
1.06591
1.23333
0.785405
-0.0350376
0.635627
0.0599356
-0.172495
-0.945086
-0.0803321
1.13301
0.982057
0.155372
-0.559372
0.15823
-1.93088
-1.69181
2.34433
-0.00530115
0.123054
-1.54432
1.33753
2.00898
0.00169039
1.26274
-1.8858
-1.08651
-2.14064
2.12137
2.5772
-0.65461
-1.76051
1.43682
0.803634
2.20717
-1.78614
-2.03931
0.75694
2.45605
-1.17336
0.54826
1.23513
-0.85946
-0.817697
0.459395
1.06796
1.27285
0.615177
-0.495756
0.824693
0.90589
-0.478501
-1.24789
-0.800001
1.35192
0.930447
-0.986094
-0.0595548
0.808853
0.111341
-0.359628
0.737241
0.574769
-0.112356
0.00266526
0.757502
0.887286
-0.306798
-0.00424638
0.0747756
0.98092
1.06255
-0.00272266
1.03221
0.145433
1.11955
-0.0898341
0.176062
1.18412
1.27096
1.12836
1.22145
-0.00354416
0.817083
-0.105786
0.174818
-0.343855
-0.179592
0.921854
0.266252
0.985499
-0.501113
0.819514
0.708791
-0.265521
0.866001
0.982249
-0.434037
1.06169
1.17375
0.277984
1.21342
1.31374
0.390141
1.22248
1.35998
0.806963
0.27584
-0.384418
0.378429
0.94996
0.978136
-0.532745
0.794875
0.839079
0.383455
-0.403129
0.96834
0.492276
0.971827
-0.551369
1.07191
0.586413
1.30036
0.521536
1.22697
1.38875
0.65372
1.23414
1.41179
-1.93984
-2.19165
1.45407
2.65093
2.18593
0.885013
0.747064
0.976264
-0.558516
-1.18141
-0.968126
1.41537
1.35808
1.12806
-0.998328
-1.07953
1.19628
1.32234
-0.959153
1.28658
-1.81356
2.20692
-1.55648
-1.5558
1.76699
1.76671
1.67972
-1.63901
-1.43627
-1.37435
1.65093
1.8947
-2.02101
2.43445
-1.73534
-1.99953
1.96596
2.25797
1.07175
0.93851
-0.51374
-0.00489417
-0.0955088
1.14953
0.190216
-0.754282
1.11001
-0.713432
-0.00185118
1.36469
-0.103925
0.204973
1.41773
0.115793
-1.30787
1.52044
-0.00152209
0.230021
1.55968
1.37464
-0.00254897
-0.245888
1.0673
0.349292
-0.66787
1.16774
1.02458
-0.614824
1.18111
-0.796091
1.39102
0.320027
1.44992
-0.357336
-1.40329
0.488229
1.61239
1.58406
0.441604
1.48562
-1.59811
1.37861
0.245371
2.05949
0.101136
1.17692
2.81368e-05
1.22436
0.201415
1.72833
-0.112268
0.222713
1.3846
0.133734
-1.68028
1.50602
2.12478
-0.000463772
0.263027
1.54942
2.17123
1.33422
-0.000830517
0.797032
0.863965
-0.429828
-0.605931
1.04403
0.724802
1.02218
-0.635416
0.996286
0.983107
-0.581596
-0.711131
1.10368
0.836059
1.37191
1.08056
1.33013
0.781186
1.25166
1.44265
0.909561
1.28711
1.48831
-0.31742
1.25566
0.439189
-1.63765
1.39632
2.09168
1.24743
1.76089
0.346251
1.40571
-0.400247
-1.80017
0.536355
1.57848
2.23356
1.56522
2.19929
0.473064
1.41723
0.471596
1.08923
-0.692452
-1.17606
1.25866
0.67585
-0.883392
1.10916
0.591438
-0.712952
-1.41195
0.633143
1.63495
0.580096
1.50893
1.42562
0.717382
1.53222
0.776555
1.66047
-1.72651
1.41826
2.171
0.574941
1.26384
1.27753
0.714986
-1.82986
0.685916
1.59267
2.26294
0.61563
1.42807
1.85751
0.760345
1.4439
0.839258
1.61324
2.29333
0.856938
1.11817
1.08976
-0.720336
0.974923
1.07447
0.899798
-0.671563
0.969904
1.15077
1.43475
1.21321
1.01196
-0.831179
1.2195
1.12284
1.51722
1.04898
1.34369
1.5523
1.20886
1.4181
1.63059
-0.708244
1.19625
0.830781
-0.808474
-1.19882
1.29658
-0.923971
1.14262
-0.748557
0.849776
1.45414
1.56648
-1.50032
-0.916681
1.06213
1.74445
0.985199
1.61539
1.6965
-1.79608
1.45858
2.24482
-0.852589
1.31834
0.98964
1.29404
1.89042
0.901227
1.4674
-0.991638
-1.93218
1.14807
1.67467
2.36942
1.64044
2.32827
1.04333
1.5015
1.56681
1.85228
-0.124291
0.244615
-1.96995
-1.73593
0.302468
2.38343
0.136217
-1.51601
-0.00290337
0.145434
-1.80927
2.23534
-0.00287049
0.266274
0.281924
2.27793
-0.00174393
1.58583
1.87832
0.375725
-0.424378
-1.90894
0.565827
2.33097
-0.405481
-1.60044
0.54543
-1.99122
-1.75167
2.40565
2.30257
0.508817
-1.93336
0.71989
2.35707
-1.61522
0.698547
0.656942
1.95871
1.63548
0.806062
-1.81025
-2.06502
0.919912
2.48613
0.877285
2.38507
0.852913
1.08179
1.19209
-0.808144
-1.19432
1.43924
1.40494
-1.09649
1.40357
1.32222
1.28818
-0.959086
-1.30071
1.39431
1.71898
1.50402
1.30231
1.61331
1.39299
1.50503
1.71883
1.60142
1.60059
1.32219
1.26935
-0.893406
-1.07662
1.50098
1.24455
-1.16292
1.67366
1.42062
-1.06699
1.57923
-1.56412
1.22113
1.80113
1.80889
1.13345
1.67697
1.64258
1.30175
1.74872
1.39842
1.86601
1.88954
-1.13474
1.41418
1.2968
1.89212
1.35861
1.52282
2.33671
-1.98483
1.31605
1.72032
2.4206
1.19563
1.55025
2.04806
1.36557
1.61163
1.50126
1.77781
2.48648
1.99153
0.952265
1.66705
-1.03552
-2.03391
1.20068
2.46428
-1.84371
-2.09819
2.07055
2.52568
-1.7095
-1.00641
1.16591
2.41995
1.1021
1.89104
-1.8304
-1.59517
1.81106
2.07903
-1.56055
-1.49218
1.91491
1.7039
-1.31401
-1.23664
1.52537
-1.52191
1.58842
-1.2668
1.77937
1.45661
-1.11471
1.73201
1.82801
1.93919
1.97992
-1.70671
-1.70655
1.93502
1.93514
2.70464
-2.12195
-1.63312
1.84837
2.57163
-1.47971
1.68367
-2.03396
1.63342
2.47352
1.48061
2.12179
1.6841
1.84835
2.57149
-2.085
1.37932
2.52199
-1.76468
1.33801
2.00083
1.26368
1.83099
2.14681
1.4425
-2.25379
-2.00697
1.66521
2.77173
2.26598
1.527
2.0723
1.57589
2.59812
-1.14609
2.38785
1.33567
2.73632
2.20989
2.13774
2.32611
2.65644
2.32838
1.12629
2.40621
-1.21766
-2.37804
2.69661
1.42335
2.999
2.61752
2.86919
2.46638
1.30909
-2.29813
1.85846
-1.57421
2.60645
-1.03791
1.77625
-1.47883
1.20825
1.73214
-1.42848
1.11749
2.50385
2.06949
-2.56681
-1.19104
2.24874
2.87861
1.38594
2.11239
1.29887
2.19741
2.80757
0.395819
2.90664
-2.57714
-2.25763
2.92184
0.811138
-2.58097
2.53117
2.73859
0.712412
-2.39864
-2.49546
0.688754
3.42034
2.78231
0.527891
3.25995
2.44137
0.813949
3.10453
0.959159
3.29421
2.72615
2.52442
-0.180397
2.31699
0.340408
-2.46021
-2.73244
0.397872
3.10907
3.16266
0.197395
-2.48054
2.78896
-0.0128779
-2.28169
0.199819
2.77094
-0.0126018
0.367171
2.83155
-0.00996924
0.371359
2.80938
-2.84258
1.93117
3.30579
-1.60089
1.85414
1.84482
1.90357
2.91929
1.60924
2.04957
-1.80301
-3.07677
2.0861
2.05243
3.55184
2.07071
3.38727
2.02829
1.85301
4.55517
3.09198
0.221913
-0.44323
-2.84514
0.625428
3.13798
-3.2217
-4.55116
3.50193
4.79301
-0.496218
-4.00409
0.679543
4.33896
4.81557
3.40355
0.399925
0.420617
2.15634
-3.1624
2.29027
0.865016
3.57501
2.12368
0.724307
-3.49051
0.753796
2.57453
3.89168
0.550668
2.40139
3.32065
2.36235
0.830445
2.54254
1.01154
3.74202
2.54704
2.33661
0.502852
-0.542397
-2.35994
0.71627
2.89685
-0.536945
-2.57469
0.70808
2.88914
-2.4826
-2.75804
3.14495
3.18548
2.85734
2.84519
0.664819
-1.89897
-2.1912
2.16991
2.49877
3.15701
-2.33198
-2.09026
2.95686
2.3649
-1.90929
2.15731
-1.79433
-2.30839
2.03764
2.91681
-2.21971
2.72176
-1.64069
1.85995
3.08426
1.69655
2.06076
-2.0729
-3.27145
1.94164
3.71826
-2.04093
-1.81496
1.9176
2.03107
-1.87489
-3.22314
2.11786
3.71031
3.53407
1.92582
1.91798
-2.38476
0.901886
2.9663
-2.60523
0.89005
2.92607
0.835922
2.42011
2.6478
1.012
-2.89624
-2.60703
1.18694
3.39769
3.25778
1.09622
3.07992
1.07998
2.97879
-1.02051
2.71636
-2.33636
1.36301
-2.26196
2.91825
-2.55733
2.55399
2.71029
-2.3442
2.47221
1.10022
3.09919
-1.2263
-2.49381
3.35052
1.53717
2.80596
3.30234
2.75956
3.12541
1.4345
-2.6719
0.900161
2.96286
-3.64181
0.941905
4.03457
0.712924
3.5028
2.62958
0.976713
-2.81802
-3.6933
1.37812
3.1033
4.09629
1.18447
3.9237
1.14922
2.92381
-1.0431
2.12696
1.42036
-3.13308
2.32328
3.56682
2.13518
3.31447
1.11968
2.39823
-1.28598
-3.34125
2.61878
1.62889
3.79642
2.58043
3.74598
2.41475
1.46926
-1.11677
-0.229298
1.52054
0.333988
1.5701
-2.02604
-0.27632
-0.707889
1.37587
-1.13207
0.386798
-1.32488
-1.94287
-0.411053
0.557596
2.26752
-1.03256
-0.0761759
1.50855
0.143749
1.49556
-2.09423
0.13418
-1.25966
-1.83354
2.15836
0.00187367
-0.085417
-0.618959
1.33287
0.173893
-1.08883
-0.398083
0.00369922
0.663012
0.404495
-0.395334
0.00392084
0.36286
0.558876
0.366405
-0.0270838
-0.404953
-0.853165
0.215637
-0.137359
0.11969
-0.744032
-0.00583823
-0.0400639
0.789711
0.561879
-1.28233
-0.0184973
0.29385
0.427732
-0.266037
0.0352105
-0.75291
0.812885
-0.0992367
0.63775
-1.25976
0.730059
-0.00529454
0.440913
-0.456621
-0.0425901
0.0803628
1.01503
0.746646
0.94257
0.713992
0.00355521
0.365294
0.49054
-0.0367094
-0.801499
0.00419767
0.765922
0.553333
-0.481175
0.0179563
0.128288
0.90423
0.718792
-0.125415
-1.28196
0.856811
0.703559
-1.26694
0.776604
0.497791
-0.503246
0.123491
1.06352
0.790408
1.0684
0.829512
0.184314
-0.0295851
1.18096
0.0421029
-1.73013
-0.95845
1.49148
1.42239
-2.1082
-0.0119648
1.16289
-1.76105
-0.0136309
1.34144
-0.0684265
0.140409
1.03199
0.0916765
-1.26706
1.251
1.65598
0.00531303
0.191857
1.28128
1.72879
1.00071
0.00371573
-0.578528
1.26765
-1.02364
0.00166921
0.0570186
0.982706
-0.726292
0.00214975
1.05127
0.11244
-0.792519
-0.0770552
0.855708
0.157698
1.32876
-0.819029
0.099048
1.53579
0.00427117
1.25938
0.00447634
0.203913
1.59896
-0.0703842
1.23246
0.123065
-1.69073
-1.0921
1.52438
1.54665
-2.07515
1.20845
-1.71127
1.3899
0.223458
1.06376
-0.308375
-1.40939
1.31241
0.434184
1.79994
1.30234
1.77337
1.08708
0.319623
-0.664347
1.36745
-1.12848
-0.175996
1.09583
-0.833746
0.253934
1.09443
-0.839331
0.892778
0.24933
1.36928
-0.322565
-0.924224
1.64471
0.447013
1.63016
1.37918
0.351595
1.64221
-0.0928889
1.08457
0.194206
-1.29279
-1.89465
0.267734
2.21792
0.111701
-1.57429
1.92917
0.00660665
-1.04928
0.115192
0.00449834
0.231526
1.99516
0.00682875
0.234785
1.68034
1.11239
0.309154
-0.36542
-1.69804
0.505179
2.05328
-0.366125
-1.1334
0.502054
-1.31227
-1.92395
2.24532
2.03022
0.431757
0.183648
-0.0123362
-3.29297
2.68032
1.43543
-1.10073
-2.71601
2.49436
-2.06922
-3.07356
2.6794
1.98996
-2.43267
2.80793
-1.68554
1.73668
1.61781
-0.130789
-4.65775
3.26547
-4.01515
0.208344
-4.62837
4.28263
0.861021
-3.29148
-0.673658
-3.64698
3.58955
-0.174067
-3.89811
3.93763
-3.51504
4.29263
0.0291868
-2.86464
2.9947
-2.6823
0.150536
3.18887
-0.373853
3.86778
3.015
-3.43659
-0.215241
0.393904
2.64677
2.23977
-2.34149
2.9261
3.71024
-0.438229
-3.37169
-0.299983
3.05723
4.28376
-0.313361
3.87923
3.4646
-3.44154
3.69202
-0.356527
3.32255
-3.31998
2.96659
-0.339075
4.0609
0.2545
-0.23376
4.05392
3.36602
4.2833
3.51421
-2.90477
0.527595
2.4966
-3.09218
-3.39504
1.0954
3.40591
1.90394
-3.1238
-1.57913
-3.39355
3.44993
-2.34559
-2.44364
-1.09552
2.67909
1.41365
2.79873
-2.15886
-2.15784
2.45158
-0.395878
2.45034
0.720617
0.298366
2.26983
2.00676
-1.98079
1.36866
-1.01239
1.97843
1.80465
-1.63351
1.5009
1.20815
1.81738
-1.40867
-2.74884
-1.66263
3.10006
1.92704
1.87376
-1.47957
-2.06676
1.53061
-1.54021
2.39632
1.76915
-3.03086
-1.76449
3.5168
1.88691
-2.32433
2.63257
-2.23449
-3.08242
1.84427
2.52003
1.62095
-2.22273
-1.68169
-1.87832
2.5537
2.14723
-2.37862
1.67066
-2.01401
2.68867
2.2707
2.64705
3.28093
-2.98295
0.297593
2.37965
-0.113911
2.96302
0.311896
2.74788
-0.128719
2.55359
-2.43422
3.28526
2.99166
-2.96279
2.71355
3.58444
-0.178881
3.60889
3.06294
0.00351435
3.06668
2.68367
-2.74456
1.82746
2.49999
-3.09271
2.25146
-2.35455
3.61471
-3.6192
-3.1829
-3.47151
2.29619
3.55031
-2.41471
-2.41467
2.73267
-2.00494
2.73258
1.92219
-2.38987
-2.50645
-1.7884
2.74084
2.01992
2.87998
1.74892
1.96547
1.78346
-1.5992
-2.22945
-2.10866
-1.99248
2.55415
1.90106
-4.40155
3.15105
-0.062681
-0.238084
3.14844
3.0447
-0.208653
4.391
0.158621
-0.0922807
3.43667
-0.0214337
-4.64456
3.66568
0.0642322
3.53621
3.59131
-3.70595
3.74235
-0.108219
-3.3661
4.0639
-0.259663
3.89896
-3.46607
3.70618
-0.242293
-3.32335
3.74312
0.174031
-0.108147
4.06323
-0.0483102
-3.93784
4.30687
4.30817
0.0345878
4.09393
4.09568
4.29257
1.8797
2.08098
0.681869
-1.78213
0.31805
2.17018
2.57554
0.318273
2.41997
-2.12986
2.28647
2.26487
0.678041
-1.96958
2.07229
0.670995
2.39754
0.395503
2.72701
2.44365
0.718287
2.5797
2.34544
-3.90196
2.94825
0.156815
2.52504
0.0181958
2.81737
-0.0151205
3.9454
3.16796
-3.40377
-0.182909
2.98572
0.364087
2.82758
0.161744
3.29106
-3.32832
3.40719
-3.06225
3.66886
0.185776
2.86308
-2.55263
-0.000705918
3.32763
-2.99176
-0.0291916
3.40866
3.66733
-2.99658
-0.152729
3.32306