/*--------------------------------*- C++ -*----------------------------------*\
  =========                 |
  \\      /  F ield         | OpenFOAM: The Open Source CFD Toolbox
   \\    /   O peration     | Website:  https://openfoam.org
    \\  /    A nd           | Version:  9
     \\/     M anipulation  |
\*---------------------------------------------------------------------------*/
FoamFile
{
    format      ascii;
    class       volScalarField;
    location    "0.002";
    object      rho.air;
}
// * * * * * * * * * * * * * * * * * * * * * * * * * * * * * * * * * * * * * //

dimensions      [1 -3 0 0 0 0 0];

internalField   nonuniform List<scalar> 
17290
(
2.51529
2.65655
2.58207
2.04054
1.7215
2.42984
1.29386
1.47608
2.3078
2.07526
1.80929
2.36202
2.52126
2.53948
2.63023
2.6522
2.29111
2.51539
2.6665
2.62541
2.66654
2.63129
2.67531
2.53952
2.35645
2.66235
2.64246
2.66701
2.60401
2.60848
2.19679
2.61967
2.14636
2.61532
2.56142
1.80359
1.07066
0.25667
0.221327
1.00769
0.693303
0.863354
0.0156258
0.400088
0.851405
1.07476
0.0595576
0.247052
0.0960328
0.100403
0.404326
0.0412648
0.168661
0.304904
0.757037
0.490715
0.587787
0.435581
0.62482
0.97897
0.565208
1.0264
0.589851
0.719764
0.776233
1.10025
1.31705
0.020845
0.0185094
0.0250425
0.0250283
0.0324212
0.038967
0.0294681
0.0553182
0.123626
0.463377
0.0945983
0.409006
0.235668
0.623174
0.0744055
0.0462783
0.0370501
0.113909
0.0572588
0.0713124
0.143909
0.0315273
0.0296031
0.0229554
0.0487611
0.0460063
0.0628876
0.0362028
0.252734
0.189207
0.149668
0.213144
0.330938
0.387883
0.261009
0.409589
0.354843
0.434057
0.521212
0.436304
0.493744
0.579286
0.505856
0.650691
1.07291
0.919712
0.571813
0.816798
1.36399
0.0391659
0.0754711
0.0499553
0.0597496
0.0691432
0.0890502
0.0458999
0.54095
0.504396
0.480217
0.582216
0.615614
0.644264
0.678388
1.67572
0.570871
0.885097
0.854365
0.557756
1.03242
1.58683
0.126827
0.080534
0.0601364
0.0915581
0.236792
0.119784
0.184779
0.803627
1.21024
1.46016
1.19759
1.02001
1.58762
2.06149
0.367252
0.302086
0.240384
0.454678
0.389545
0.526714
0.320832
0.0392561
0.0528145
0.0747219
0.0596954
0.0822997
0.107505
0.0779316
0.131239
0.170788
0.0878146
0.107739
0.291405
0.156979
0.209254
0.0737553
0.0825592
0.13164
0.0692156
0.092882
0.107552
0.0556618
0.556642
0.540259
0.473174
0.560833
0.721769
0.632342
0.648233
1.10884
2.19155
1.75525
0.592061
0.918766
0.735413
1.12446
0.629659
0.123821
0.469155
0.556648
0.292172
0.860676
0.673569
0.109066
0.282063
0.146361
0.297131
0.15662
0.200837
0.360782
0.296661
0.542838
0.427958
0.486941
0.45652
0.601356
0.350853
0.689391
0.639788
0.613583
0.801275
0.719777
0.757629
0.846242
0.135163
0.345296
0.231182
0.31743
0.170882
0.190608
0.258983
0.657669
0.628371
0.537454
0.595472
0.81674
0.715678
0.687003
0.626649
0.573731
0.531335
0.694575
0.647356
0.707827
0.750185
0.0711039
0.131602
0.10018
0.138459
0.130368
0.174484
0.101277
0.16126
0.0873558
0.117648
0.148067
0.153209
0.196347
0.110633
0.371008
0.441963
0.576229
0.461515
0.599862
0.530287
0.671406
0.608365
0.763802
0.678057
0.797913
0.706058
0.781482
0.877688
0.704886
0.918605
0.75254
0.91647
0.767574
0.817501
0.98822
0.555838
0.521453
0.486846
0.741272
0.629427
0.669629
0.416172
0.345973
0.241051
0.191309
0.249459
0.481688
0.299623
0.423019
0.558103
0.639933
0.680325
0.680989
0.640295
0.775657
0.774102
0.664659
0.892386
0.864999
0.83812
0.74015
0.786591
0.758737
0.744909
0.663842
0.696667
0.786849
0.915726
0.877545
0.825907
0.276571
0.379815
0.21378
0.261065
0.519372
0.324124
0.441005
0.560549
0.698645
0.657465
0.685567
0.644613
0.782154
0.798224
0.183544
0.190037
0.175943
0.285064
0.237263
0.22403
0.139796
0.765949
0.844645
0.886336
0.893547
0.942314
0.976372
1.04747
0.168149
0.159473
0.209081
0.166148
0.215049
0.261065
0.209909
1.30576
0.804743
0.632219
1.05792
0.868885
1.80807
1.46256
1.00117
0.935319
0.846398
0.902373
1.19604
1.00149
1.08218
0.627258
0.722792
0.681715
0.720543
0.76143
0.826489
0.87037
0.966137
0.842229
0.790049
0.853986
1.09696
1.03731
0.903293
0.309909
0.572306
0.552404
0.423217
0.372818
0.359034
0.498342
0.509339
0.711748
0.645395
0.65259
0.593244
0.73885
0.802399
0.292357
0.525907
0.343162
0.537006
0.349502
0.399212
0.589045
0.831474
0.960134
0.925945
1.01769
0.978198
1.09089
1.13327
0.555958
0.810515
0.702608
0.708755
0.619442
0.77165
0.874998
0.838567
0.822947
0.749791
0.857048
1.05197
0.931431
0.962484
0.308357
0.203018
0.254912
0.314978
0.331193
0.380739
0.263832
0.94569
0.923064
0.818855
0.89775
1.17068
1.02419
1.01313
0.675875
0.881705
0.840161
0.774001
0.814983
0.930574
1.00569
0.94036
1.1952
1.09214
1.25723
1.04407
1.13567
0.988152
0.856734
0.737117
0.738345
0.88962
1.0244
1.02863
0.886913
0.92829
1.10452
0.99268
1.17932
1.07308
1.16485
1.29669
0.22041
0.341995
0.270665
0.325748
0.362648
0.410914
0.275316
0.859914
1.04749
0.84285
0.958303
1.22187
1.19317
0.979169
0.760512
0.865406
0.744582
0.89849
1.06517
1.04055
0.918326
1.03644
0.833628
0.835669
0.948668
1.173
0.945413
1.17869
1.03184
1.32766
1.11289
1.3299
1.13585
1.23797
1.47583
0.444646
0.579035
0.393128
0.450996
0.691415
0.509539
0.638891
0.60359
0.477408
0.408814
0.461478
0.727152
0.538652
0.653298
0.775954
0.691879
0.710303
0.841192
0.865657
0.765985
0.930217
0.763598
0.7343
0.678171
0.835609
0.99876
0.936755
0.897696
0.889308
1.16583
0.934602
1.26834
1.01406
1.06666
1.3367
0.788808
0.969888
0.832844
1.10579
0.951946
1.00282
1.16592
1.07017
1.15403
1.03209
1.21889
1.41817
1.36578
1.26547
0.897127
1.10135
1.14473
0.972758
1.00527
1.08152
1.24054
0.392684
0.429783
0.450405
0.593497
0.494364
0.474637
0.343742
0.974012
1.26811
1.20073
1.1731
1.09882
1.04759
1.10645
1.21288
1.39953
1.16326
1.29918
1.62651
1.56285
1.35103
0.7102
1.01159
0.857313
0.949249
0.497027
0.435248
0.333216
0.42692
0.919465
0.699521
1.1804
0.757212
0.981026
0.515814
0.447668
0.454246
0.64837
0.375702
0.335569
0.377695
0.433215
0.431241
0.47766
0.479167
0.334809
0.379751
0.332065
0.375421
0.431165
0.478488
0.484579
0.346354
0.394025
0.371495
0.422304
0.47267
0.499968
0.528557
1.28276
0.50467
0.696308
0.689205
1.10121
0.960283
1.38164
0.428451
0.487296
0.488273
0.534003
0.601437
0.601339
0.53483
0.433675
0.427541
0.488901
0.535878
0.614973
0.604392
0.544193
0.698927
0.552413
0.551001
0.601778
0.756255
0.756471
0.602574
0.408882
0.51088
0.462718
0.557441
0.510306
0.569895
0.620755
0.558192
0.701126
0.551957
0.603906
0.772474
0.7604
0.612583
0.450274
0.548462
0.480851
0.635933
0.562363
0.593979
0.670658
0.727931
0.572618
0.598679
0.794285
0.630385
0.660973
0.829448
0.564346
0.559602
0.611565
0.623228
0.672373
0.679154
0.745359
0.574687
0.593726
0.52363
0.638663
0.77931
0.69365
0.719187
0.80033
0.688197
0.637701
0.705217
0.944985
0.879868
0.761279
0.664875
0.922061
0.74114
0.828575
0.742164
0.829886
0.664802
0.668415
0.851172
0.761382
0.93036
0.747372
0.835857
0.679736
0.877647
0.786455
0.701058
0.736038
1.02951
0.919122
0.826116
0.620301
0.765295
0.689312
0.821165
0.741368
0.821273
0.909718
0.632054
0.782158
0.710911
0.849846
0.757408
0.830546
0.931599
0.818484
0.748481
0.927565
1.02422
0.827749
0.905018
1.11859
0.785426
1.05109
1.09615
0.950393
0.977177
0.847509
0.88124
1.13878
1.01416
0.854427
0.8643
0.769482
0.915143
1.02678
1.36644
1.23094
0.994996
1.11147
0.899732
0.995094
1.23102
1.14068
1.03288
0.921204
1.00732
1.40654
1.12992
1.24765
1.34064
0.996792
1.24302
1.13793
1.54666
1.4288
1.22724
1.03895
0.967822
0.893059
1.0717
1.34622
1.15745
1.24623
0.749558
0.974557
0.907897
0.873854
0.819229
0.994522
1.05944
1.0868
1.59765
1.25209
1.35097
1.25895
1.08198
1.35871
1.45706
1.36868
1.24808
1.37799
1.8127
1.63832
1.53203
0.521018
0.766876
0.695428
0.788406
0.610545
0.591726
0.705883
0.788484
1.06114
0.960688
0.922881
0.840647
1.02359
1.12442
1.09957
1.41468
1.30866
1.62493
1.27594
1.37791
1.12538
1.75299
1.55881
1.24453
1.5346
1.3762
1.22788
1.10827
1.45374
1.82303
1.69471
1.96148
1.74876
1.62992
1.50953
1.47371
1.36118
1.16759
1.22996
1.86781
1.5598
1.43762
1.20017
1.13607
1.05177
1.16267
1.45196
1.24811
1.34192
0.956186
0.98441
0.894255
1.08689
1.27617
1.19372
1.15686
1.29554
1.25148
1.12218
1.20137
1.56837
1.33405
1.39452
0.501327
0.46764
0.749517
0.495888
0.726256
0.457522
0.310446
0.263258
0.260394
0.329028
0.256962
0.324678
0.308441
0.378027
0.380225
0.256187
0.315827
0.329741
0.323067
0.308637
0.378428
0.386229
0.404765
0.500236
0.409643
0.459085
0.553402
0.551691
0.461248
0.458715
0.377732
0.375877
0.448427
0.534113
0.449913
0.533479
0.409213
0.494648
0.402854
0.459909
0.563368
0.553435
0.468498
0.459153
0.38409
0.376663
0.449951
0.546787
0.536216
0.458857
0.53201
0.727274
0.62842
0.622173
0.628381
0.53286
0.622248
0.534606
0.645714
0.639499
0.733475
0.632504
0.626459
0.545373
0.638253
1.34173
2.07485
1.187
0.263103
0.523117
0.827579
0.253204
0.625116
0.116682
0.454894
0.161032
0.154996
0.153147
0.203391
0.204983
0.251177
0.198846
0.818716
1.01591
1.70693
1.28723
0.88957
0.608028
0.955384
0.820911
1.49692
1.08347
1.87466
1.88522
1.23493
1.36705
0.284029
0.518313
0.515006
0.337022
0.338746
0.389412
0.572866
1.5541
2.83286
2.03853
1.67873
1.69196
1.05691
1.4512
0.314232
0.202523
0.254375
0.307903
0.330509
0.380067
0.256224
0.305167
0.197746
0.250247
0.305015
0.321559
0.371662
0.253053
0.745371
0.67894
0.672788
0.816231
0.824397
0.739281
0.894026
0.450266
0.578491
0.392551
0.444209
0.690934
0.62928
0.508939
0.441605
0.571098
0.388498
0.44146
0.680214
0.624992
0.500922
0.877481
0.915172
0.951952
0.977599
1.06218
1.01622
1.13262
0.857094
1.0718
1.05699
0.93963
0.950576
1.03346
1.17538
0.373617
0.41603
0.561258
0.409928
0.45604
0.461679
0.323657
1.15341
1.20064
1.181
1.30535
1.32924
1.33378
1.49894
0.506077
0.472246
0.590982
0.523956
0.611306
1.02059
0.776605
0.594319
0.663493
0.359737
0.264466
0.525365
0.462454
0.543678
0.255443
0.329204
0.493806
0.22583
0.2325
0.273772
0.274402
0.28472
0.319213
0.332739
0.309276
0.375268
0.32228
0.427845
0.371154
0.387619
0.446536
0.238591
0.299454
0.282846
0.316789
0.294816
0.344178
0.364233
0.397005
0.416092
0.34486
0.453989
0.380975
0.397831
0.473421
0.430278
0.486118
0.412592
0.468308
0.487624
0.546935
0.568103
0.482897
0.388816
0.407941
0.42189
0.351881
0.333804
0.40184
0.614781
0.592052
0.505121
0.542793
0.521995
0.441307
0.460203
0.524893
0.438897
0.473554
0.437573
0.389022
0.360652
0.413698
0.578006
0.621017
0.936761
0.940665
0.686317
1.1896
0.925724
0.545253
0.445903
0.465889
0.526412
0.505267
0.587982
0.610685
0.688491
0.662051
0.569227
0.733176
0.635196
0.65957
0.766344
0.528402
0.616581
0.548955
0.680603
0.61155
0.634623
0.708982
0.566581
0.6626
0.636101
0.563065
0.590628
0.500663
0.477434
0.516519
0.541939
0.53544
0.609703
0.581007
0.587047
0.657272
0.634878
0.738844
0.711876
0.682265
0.821489
0.707422
0.792722
0.591429
0.638408
0.568609
0.656867
0.761398
0.734014
0.681657
0.179465
0.152072
0.0785353
0.0721849
0.203986
0.213754
0.321689
0.241304
0.0925804
0.0876167
0.0674594
0.124335
0.100391
0.104645
0.129759
0.1461
0.19032
0.119315
0.114038
0.15483
0.197879
0.161027
0.0997717
0.116614
0.0940284
0.124509
0.110006
0.136548
0.152389
0.166811
0.181204
0.138991
0.185625
0.142869
0.172937
0.221255
0.160258
0.126869
0.144927
0.207195
0.226259
0.168857
0.186272
0.297892
0.252891
0.201281
0.310001
0.250801
0.209134
0.263029
0.160798
0.189968
0.147278
0.179576
0.243281
0.228337
0.194476
0.340363
0.261167
0.279822
0.217673
0.289587
0.272678
0.234468
0.0102272
0.384855
0.253816
0.211134
0.142415
0.369977
0.305085
0.547839
0.264663
0.418074
0.232478
0.0201432
0.0234986
0.108569
0.0662969
0.334788
0.01903
0.142517
0.214765
0.34521
0.604014
0.805781
0.492616
0.267498
0.550132
0.118094
0.152285
0.149369
0.178708
0.178098
0.186465
0.216607
0.423816
0.351382
0.605684
0.409792
0.526722
0.472352
0.6467
0.173798
0.257731
0.252588
0.21543
0.212335
0.255697
0.30007
0.0069394
0.0093875
0.0142154
0.0103133
0.0153468
0.0215472
0.0142203
0.3075
0.200532
0.290382
0.226651
0.238747
0.268514
0.336455
0.18696
0.271217
0.221261
0.277759
0.22779
0.261659
0.314524
0.0462076
0.0690061
0.0291878
0.0720507
0.0310548
0.0447816
0.10395
0.111392
0.155269
0.270498
0.15949
0.276428
0.336812
0.212376
0.320419
0.438541
0.373193
0.453063
0.382175
0.437127
0.508157
0.304388
0.297153
0.301293
0.355056
0.345512
0.347969
0.399131
0.0131558
0.0295146
0.0202973
0.0308218
0.0292153
0.0444218
0.0201791
0.00760189
0.267871
0.0141444
0.00273316
0.00781029
0.0186791
0.115699
0.00971125
0.0240093
0.165014
0.0379887
0.177806
0.227374
0.541849
0.102776
0.289665
0.0930027
0.0285049
0.0713309
0.0449464
0.103007
0.13192
0.059885
0.00616495
0.0160178
0.0125534
0.0196608
0.0097807
0.0121956
0.025029
0.00322908
0.0044404
0.00351515
0.00376275
0.00548151
0.00678763
0.00466629
0.239479
0.145312
0.203395
0.249331
0.187935
0.227312
0.292433
0.00524309
0.00404645
0.00577373
0.00861556
0.0077485
0.0112752
0.00595762
0.0309902
0.0102989
0.0215619
0.0160354
0.0493013
0.0219374
0.0343004
0.0774791
0.053516
0.123708
0.170746
0.11569
0.220013
0.0828686
0.332237
0.282423
0.2185
0.27432
0.397599
0.327618
0.34248
0.00594793
0.0133675
0.00859946
0.0103681
0.0116022
0.0160617
0.0073047
0.0155265
0.0479127
0.03058
0.0191824
0.0625134
0.0298428
0.0397198
0.0689416
0.190963
0.142048
0.178905
0.133183
0.235898
0.0907723
0.235535
0.301738
0.36285
0.28084
0.416449
0.340116
0.351229
0.0130762
0.0118767
0.0266407
0.0144152
0.017204
0.0202387
0.00915341
0.0249898
0.0767315
0.0527399
0.0843383
0.0340943
0.0389271
0.0544983
0.22648
0.165372
0.354887
0.174861
0.283273
0.291733
0.122839
0.333683
0.467507
0.460854
0.478526
0.39091
0.398675
0.408111
0.318671
0.310545
0.263507
0.305078
0.412674
0.353135
0.361391
0.371371
0.327439
0.262753
0.308548
0.423512
0.354301
0.376735
0.0362218
0.0159614
0.0250927
0.0329335
0.0345311
0.0501123
0.022112
0.358375
0.339405
0.284497
0.317133
0.450993
0.374039
0.389569
0.157837
0.0479253
0.07313
0.0681413
0.210461
0.150642
0.101666
0.100794
0.0629037
0.0428546
0.0648615
0.197504
0.0930753
0.145797
0.421432
0.218687
0.289292
0.409448
0.357043
0.279756
0.488888
0.207734
0.391697
0.3297
0.399241
0.338039
0.272585
0.463439
0.0467068
0.0480092
0.0950645
0.0446501
0.0659864
0.0694588
0.0312952
0.525297
0.44895
0.523522
0.507858
0.667075
0.583145
0.587529
0.493133
0.483576
0.426738
0.493873
0.624157
0.554694
0.564164
0.360852
0.466817
0.48077
0.414578
0.404142
0.458269
0.524452
0.419457
0.47428
0.470963
0.400949
0.403482
0.455907
0.528907
0.353184
0.453988
0.469484
0.409854
0.397497
0.454073
0.514063
0.0625101
0.0612441
0.0640877
0.0550313
0.179929
0.162931
0.122585
0.182077
0.058889
0.066573
0.0616025
0.0937929
0.0905125
0.0921106
0.0964036
0.0562461
0.0595292
0.0573572
0.0882727
0.0880018
0.088607
0.0900456
0.073751
0.0657222
0.0767485
0.0913081
0.103694
0.0998016
0.0972635
0.125506
0.155532
0.157615
0.124029
0.161883
0.158387
0.127797
0.078736
0.0590139
0.0728297
0.0874369
0.105632
0.0985312
0.0923542
0.12473
0.121889
0.156369
0.122411
0.164942
0.158299
0.125723
0.126956
0.13868
0.176278
0.171243
0.16512
0.133825
0.133318
0.122651
0.138993
0.167328
0.173482
0.161918
0.131871
0.127037
0.103628
0.100303
0.252992
0.399787
0.209362
0.252992
0.337239
0.206266
0.103431
0.141451
0.129409
0.126383
0.137693
0.166745
0.169956
0.098936
0.138821
0.13159
0.125538
0.135538
0.165272
0.169869
0.290849
0.255499
0.293068
0.191713
0.224003
0.188104
0.221275
0.252522
0.162454
0.205157
0.202388
0.159698
0.203914
0.250652
0.293172
0.250872
0.289583
0.187939
0.185633
0.219754
0.223449
0.166244
0.202108
0.15934
0.203301
0.256992
0.250566
0.208856
0.339226
0.264965
0.392502
0.394154
0.315992
0.262948
0.314116
0.341931
0.336959
0.393154
0.262202
0.320313
0.314208
0.2671
0.360407
0.471112
0.48162
0.495702
0.409129
0.419684
0.432253
0.0964864
0.270902
0.184355
0.262783
0.133848
0.202835
0.139085
0.569121
0.733425
0.723697
0.708432
0.634393
0.643176
0.653903
0.474558
0.426357
0.624311
0.414209
0.346214
0.541005
0.556602
0.526541
0.535499
0.461247
0.517089
0.670018
0.586684
0.594312
0.454156
0.588783
0.51248
0.512574
0.656609
0.575354
0.588885
0.542075
0.535479
0.609769
0.516665
0.657377
0.587238
0.581069
0.703723
0.807406
0.887548
0.733977
0.947994
0.818037
0.851641
0.659767
0.646631
0.734901
0.742703
0.653232
0.729184
0.826992
0.694986
0.795059
0.712569
0.763522
0.668234
0.745903
0.85093
0.605997
0.65376
0.774666
0.737437
0.686339
0.737396
0.830499
0.73497
0.827098
0.729297
0.578167
0.742905
0.653436
0.659935
0.759641
0.913981
0.984579
0.878163
0.847393
0.787255
0.882257
0.199096
0.886092
1.45124
0.665797
0.570286
0.487735
0.778476
0.512103
0.598253
0.624931
0.961936
0.398282
0.573136
0.0899582
0.398648
0.0854158
0.0280585
0.38815
0.194229
0.329873
0.354377
0.287808
0.337781
0.376405
0.408765
0.448411
1.17543
0.739507
0.55533
0.538426
0.332859
0.851632
0.612239
0.573985
0.688027
1.05201
1.4229
0.915321
0.695074
0.936872
0.0431179
0.0425052
0.0414637
0.063612
0.0624392
0.089263
0.061104
0.949341
0.978254
1.49899
0.935195
0.666047
1.09383
0.745563
0.436707
0.45299
0.381509
0.480025
0.425751
0.499703
0.557213
0.0911603
0.257291
0.254439
0.130469
0.128755
0.17642
0.321904
0.477828
0.525414
0.43327
0.587637
0.491593
0.532016
0.62943
0.404492
0.522312
0.440401
0.568995
0.480525
0.517631
0.605762
0.126732
0.06304
0.0914733
0.123378
0.119435
0.163839
0.0869908
0.0604237
0.121564
0.08848
0.121652
0.115942
0.16031
0.0854845
0.456507
0.405697
0.401254
0.53027
0.524835
0.472707
0.599641
0.545733
0.690845
0.681913
0.620886
0.61411
0.692744
0.766021
0.494255
0.53774
0.555085
0.599871
0.640072
0.619412
0.687508
0.698605
0.630086
0.534964
0.585413
0.75327
0.646981
0.685987
0.542219
0.569237
0.487907
0.567207
0.716468
0.625143
0.655863
0.234957
0.326782
0.17944
0.230742
0.460425
0.39177
0.287341
0.228405
0.320196
0.175327
0.228535
0.453356
0.283213
0.388298
0.693543
0.754748
0.743682
0.783236
0.794976
0.838221
0.894016
0.161242
0.251447
0.155308
0.153252
0.203512
0.205343
0.116855
0.671837
0.664532
0.568802
0.607775
0.823779
0.714092
0.704693
0.690923
0.480292
0.60891
0.617313
0.544193
0.677043
0.75696
0.470071
0.670039
0.596525
0.60517
0.538557
0.670147
0.741724
0.62118
0.746039
0.66846
0.795175
0.712762
0.76377
0.851088
0.717982
0.841242
0.810743
0.853634
0.823128
0.927685
0.962614
0.796513
0.781093
0.704383
0.778685
0.975166
0.863137
0.872198
0.773817
0.857325
0.739133
0.829743
0.715194
0.791277
0.916601
0.284305
0.3897
0.518741
0.51515
0.337166
0.455187
0.339173
0.769792
0.760992
0.688864
0.769859
0.94885
0.852261
0.851651
0.601759
0.759506
0.667504
0.786477
0.690065
0.763098
0.866969
0.856954
1.05734
0.914576
1.08214
0.949656
1.02492
1.183
0.831964
1.00849
0.887101
1.04843
0.935179
1.00848
1.14341
0.660425
0.885564
0.841903
0.826951
0.723424
0.771642
0.759582
0.841294
0.959941
1.06878
0.84619
0.741325
0.826469
0.942793
1.07331
1.00424
0.878787
0.77971
0.890814
0.835514
0.952783
0.822401
0.925687
1.04243
0.920146
0.817101
0.725329
0.817057
0.679307
0.672911
0.608283
0.745578
0.894206
0.81633
0.824691
0.923738
0.905889
0.795594
0.87803
1.15684
0.997467
1.01812
0.821131
1.06237
0.952201
0.877732
1.13278
0.977766
1.01645
0.826605
0.841499
0.741553
0.846421
1.06886
0.942933
0.960116
0.98452
1.10397
1.14607
1.06978
1.2958
1.11134
1.24529
0.955293
1.05243
0.920396
1.05243
1.25412
1.20376
1.09383
0.857221
1.07189
1.03358
1.05702
0.939691
0.955432
0.950758
0.502787
0.752693
0.665055
0.74615
0.68279
0.574077
0.579467
0.749105
0.994116
0.907535
0.873487
0.80444
0.974319
1.05916
0.964406
0.736058
0.797407
0.857535
0.797307
0.964328
1.03705
1.30536
1.33379
1.18101
1.20066
1.0569
1.15341
1.32929
1.22825
1.10376
0.972805
1.27901
1.12728
1.25488
1.42296
1.399
1.11342
1.31302
1.46797
1.24371
1.32349
1.56359
1.15798
1.0952
1.02587
1.34716
1.19218
1.26973
1.43315
1.26461
1.38884
1.21426
1.47581
1.4138
1.61439
1.69354
1.34783
1.05593
1.19665
1.04886
1.18139
1.04263
0.925678
1.69365
1.61449
1.38887
1.21428
1.47592
1.26465
1.4139
0.973008
1.27901
1.25495
1.22828
1.08359
1.10386
1.12742
1.16236
1.20004
1.05153
1.1359
1.4518
1.30566
1.2479
1.16709
1.02746
1.12253
1.12248
1.41105
1.28719
1.21802
0.93734
0.928289
0.861439
1.04255
1.22105
1.11958
1.13188
1.36721
1.78611
1.54029
1.69657
1.50476
1.72377
1.98079
1.48493
1.47954
1.32248
1.64022
1.47953
1.69193
1.90729
1.31355
1.82678
2.01479
1.67011
1.67712
1.41846
1.53972
1.55073
1.21338
1.37498
1.40517
1.81381
1.58555
1.59642
1.65391
1.5811
1.39721
1.48564
2.02854
1.68372
1.76675
1.31679
1.78804
1.5551
1.46599
2.02477
1.67194
1.74108
1.28459
1.6169
1.51991
1.68242
1.42141
1.37294
1.50132
1.95715
1.7377
1.65848
1.88721
2.40974
1.99954
2.22224
1.22553
1.57208
1.44606
1.54923
1.42139
1.32289
1.33966
1.96206
1.85188
1.59944
1.85181
2.30861
1.96197
2.13439
0.606845
1.99981
0.904325
0.818419
0.598053
1.05933
0.882272
0.85141
1.51426
1.02742
1.43857
0.678715
1.10199
0.916619
1.58375
1.12802
1.99923
1.38238
0.59843
0.672869
0.660599
0.729537
0.718038
0.786122
0.801816
0.60126
0.658077
0.657255
0.717424
0.71553
0.780555
0.780204
0.632247
0.699547
0.758154
0.744462
0.808659
0.832844
0.883655
1.2317
2.22034
1.52309
1.67174
1.24393
2.16851
2.61608
1.3472
1.12342
1.50481
2.01321
1.71976
2.65711
2.35821
0.74257
0.881929
0.806365
0.965758
0.879296
0.953968
1.04091
0.853721
0.740319
0.741312
0.877099
1.00428
0.874779
1.00835
0.876909
1.03721
0.860836
0.937962
1.15337
1.12635
0.958418
0.763926
0.862434
0.747539
0.885999
1.04503
1.02027
0.906566
1.02876
0.856209
0.855747
0.929523
1.10999
1.11403
0.927617
1.00175
0.969627
1.06601
1.0705
1.18089
1.14293
1.26114
0.911126
1.17061
0.969046
1.20095
0.996272
1.05621
1.27417
0.794144
0.9692
0.841831
1.08667
0.942761
0.998558
1.149
1.01411
1.23973
2.11172
1.5346
1.56551
1.20802
2.05112
1.76525
0.854363
0.960199
0.914992
0.864118
0.769315
1.02665
1.13874
1.04027
0.987065
0.906881
1.07394
1.33453
1.16668
1.23207
1.26492
1.15027
1.05007
1.13818
1.4971
1.23972
1.37327
1.23122
1.23932
1.29587
1.37605
1.44424
1.42174
1.60752
1.04432
1.19373
1.44808
1.24802
1.2547
1.04019
1.20015
1.05666
1.30598
1.24801
1.47105
1.27188
1.21639
1.08275
1.11369
1.32363
1.18718
1.46824
1.31329
1.3991
1.56367
1.29617
1.52468
1.46304
1.59721
1.53529
1.73096
1.81174
1.47424
1.32503
1.11514
1.087
0.977806
1.16108
1.28927
1.75311
1.55886
1.37613
1.22786
1.10816
1.24448
1.38166
1.43331
1.27217
1.07352
1.13151
0.954505
1.0735
1.27217
1.36226
1.29992
1.12711
1.19378
1.68485
1.445
1.37622
1.08119
1.35307
1.19018
1.45726
1.27583
1.40346
1.60504
1.26754
1.69268
1.40332
1.64796
1.3602
1.50268
1.83462
2.80476
2.11687
1.58552
1.88657
1.02596
1.39264
0.940689
1.75651
1.0489
0.835582
0.8788
0.77975
0.890875
0.952869
1.00427
1.07335
1.81219
1.60762
2.06131
2.55228
2.8253
2.18483
3.00211
1.21784
1.30711
1.14091
1.06613
0.997108
1.14092
1.21785
1.1814
1.04265
0.925742
1.19667
1.05599
1.18962
1.34781
1.19232
1.26982
1.0953
1.34727
1.15804
1.23497
1.4332
1.28257
1.82142
1.60425
1.69344
1.39193
1.55473
1.47745
1.36727
1.72389
1.54043
1.6967
1.55423
1.78638
1.98104
1.4957
1.99868
1.69853
1.85937
1.62629
1.87802
2.19912
1.81368
1.55067
1.59631
1.40518
1.37496
1.21343
1.36705
1.76337
1.63227
1.53371
1.60762
1.5101
1.3172
1.40266
1.52932
1.5293
1.33899
1.54076
1.34872
1.18184
1.34872
1.40265
1.51007
1.31715
1.53361
1.63224
1.76328
1.88655
1.36895
1.63306
1.89419
1.3873
1.65783
1.21577
1.44323
1.54983
1.99877
2.28843
1.73794
1.99886
1.37182
1.54988
1.46598
1.49675
1.31683
1.55499
2.02431
1.74095
1.78762
1.90167
1.75719
1.56323
1.67487
2.37491
2.07443
1.89042
1.62485
1.82836
2.36535
2.03572
1.8004
1.41184
1.57406
1.73796
1.88745
1.65873
1.95761
2.41028
2.2227
2.07534
1.91723
2.20732
1.83103
2.06286
2.7274
2.49495
2.19195
1.76177
1.86914
1.52323
1.68237
2.45653
2.09451
1.96347
0.202752
0.19065
0.22963
0.296274
0.445389
0.263543
0.277298
0.391615
0.192183
0.200481
0.196945
0.23146
0.230158
0.241958
0.245296
0.192469
0.207658
0.197779
0.245918
0.232937
0.243734
0.255733
0.233478
0.294044
0.213535
0.226955
0.207475
0.257682
0.2871
0.278452
0.337597
0.338032
0.361662
0.36393
0.298271
0.295529
0.212766
0.223828
0.205396
0.256651
0.289526
0.283938
0.265531
0.281044
0.359725
0.342546
0.380044
0.365274
0.298318
0.311811
0.395477
0.323121
0.439308
0.444512
0.364024
0.318293
0.357675
0.404193
0.361468
0.437756
0.392813
0.354881
0.318485
0.328541
0.80995
0.466465
0.984072
0.544418
0.447511
0.535513
0.780098
0.95703
0.41646
0.416606
0.449307
0.516772
0.51718
0.556595
0.557749
0.440436
0.450808
0.421827
0.541739
0.522689
0.560096
0.576664
0.482646
0.48583
0.539657
0.595236
0.653157
0.597585
0.650256
0.496655
0.535257
0.48404
0.597411
0.663215
0.651746
0.611577
0.638238
0.781726
0.639098
0.689793
0.847423
0.848218
0.690139
0.664413
0.789312
0.645095
0.694602
0.875889
0.855327
0.712517
0.732014
0.956968
0.789539
0.896657
0.8967
0.733285
0.787957
0.735913
0.923427
0.806852
0.963674
0.903214
0.791704
0.752146
1.8554
1.82323
1.65452
1.92583
2.46999
2.15684
2.20125
2.10365
1.55166
1.77032
2.48238
2.06348
1.78327
2.11693
2.47171
2.06138
1.74862
2.68326
2.23225
1.87035
2.23222
2.29805
1.98009
2.19103
2.62604
2.3301
1.64643
1.8939
2.18919
1.91885
1.76524
2.07176
2.69288
2.42571
2.29042
2.48225
2.06341
1.81214
2.10348
1.77025
1.78325
1.55164
2.5846
2.10167
1.80801
1.93731
2.37939
2.76097
2.28053
2.39999
2.08926
2.55838
2.70542
2.58375
2.30778
1.78042
2.03568
0.904762
2.43054
1.56544
2.50136
0.649401
1.11109
3.267
3.21211
2.56751
2.76442
2.23441
2.02564
1.2065
2.17596
2.50424
2.48525
1.16232
2.13923
0.886695
1.08589
2.54817
1.5237
0.964012
1.31587
2.22047
2.52554
1.42821
2.5043
1.85777
1.79356
2.54678
2.07506
1.80387
0.887263
0.955794
0.957459
1.14479
1.14681
1.24363
1.24008
1.03775
0.997588
1.82985
2.68265
1.91715
1.7205
2.70339
0.891632
0.981191
0.964238
1.17441
1.15471
1.25512
1.28092
0.918599
1.18168
1.24834
0.32401
0.683024
0.678516
0.947735
0.927862
1.00979
1.05401
1.20782
1.2593
1.32408
1.39075
2.13512
1.07836
1.928
2.25794
2.65964
1.31866
2.42369
1.167
1.04606
1.04915
1.37613
1.54896
1.55709
1.37025
1.01628
1.19819
1.11652
1.43518
1.33339
1.48438
1.6079
0.373959
0.410129
0.416614
0.456228
0.462229
0.561634
0.523528
1.08001
1.17983
1.05871
1.39278
1.62377
1.57944
1.42726
1.73784
1.94427
1.38204
1.42146
0.861617
1.14643
1.95684
0.503085
0.746262
0.753038
0.57423
0.579928
0.665361
0.827804
2.1394
1.57684
1.58083
1.73492
2.26091
2.26098
1.72964
1.16879
1.25032
1.11527
1.6948
1.48384
1.56756
1.79587
1.00157
1.19477
1.17488
1.18104
1.20105
1.42261
1.41362
2.09438
2.58349
2.37903
1.5006
2.74277
2.69971
2.34089
1.62888
2.14964
1.59579
1.75357
2.2979
2.27162
1.7929
1.3007
1.17377
1.28247
1.56745
1.73403
1.76362
1.94979
1.0133
1.24814
1.22775
1.19687
1.21703
1.44463
1.48599
1.89366
2.28062
1.68379
3.06901
2.50975
1.52523
2.77162
0.679552
0.519363
0.557718
0.679731
0.79243
0.817211
0.649595
1.91035
1.43826
2.38664
2.6286
2.18822
2.72937
1.25336
1.33987
1.40587
1.24321
1.68145
2.07547
1.9262
1.82603
1.68394
2.28099
1.76399
2.34036
1.85662
1.9427
2.39674
0.535761
0.708218
0.573318
0.6891
0.814686
0.839587
0.659155
1.13874
1.29836
1.27795
1.35134
1.3715
1.55146
1.64588
1.04269
0.928371
0.937595
1.11964
1.13206
1.01608
1.22118
2.81438
3.3425
2.96231
2.48619
1.65457
2.09484
3.01876
0.767879
0.823758
0.661705
0.768026
1.03266
0.892339
0.918711
0.839911
0.795406
0.676333
0.776987
1.05641
0.914707
0.928262
1.99449
2.35224
1.8701
2.04938
2.51389
2.4588
2.17397
1.92203
2.48306
2.11658
2.38126
2.12158
2.38093
1.91664
1.58986
1.58981
1.41745
2.14933
1.93456
2.14936
2.34924
1.21917
1.59089
1.57056
1.44866
1.46855
1.77262
1.93805
1.36893
1.38725
1.21577
1.63301
1.44317
1.65767
1.89403
1.94173
2.1837
2.41583
2.48908
2.14177
2.39131
1.98259
1.61652
1.67314
1.46153
2.23718
1.99642
2.17854
2.39908
1.58129
1.48573
1.3974
1.65418
1.76682
1.88552
2.02864
2.24789
2.45278
2.04689
2.13414
2.54546
2.32889
2.49357
1.93094
1.47199
1.48134
1.79197
2.32841
1.77878
2.33905
1.40269
1.7334
1.41177
1.7292
2.17489
2.19077
1.71635
1.15912
0.97977
0.95734
0.822794
0.970691
0.993269
0.798022
1.54843
1.96791
1.50465
1.82641
2.42649
2.37178
1.88976
1.22838
1.46435
1.33075
1.01087
1.2143
1.11118
1.33081
1.47531
1.767
1.43389
1.76195
2.30507
2.23349
1.82299
1.22564
1.54926
1.57219
1.32293
1.3398
1.44615
1.707
1.03162
1.37633
1.24175
1.256
1.12282
1.34591
1.49877
2.13505
2.54999
2.28638
2.55288
2.30928
2.43865
2.56865
1.58263
1.74336
1.72149
1.93803
1.91293
2.14804
2.38612
1.61042
1.83628
0.804743
1.22611
2.29657
1.66198
1.28925
1.57393
0.884833
0.960694
0.918165
1.0091
1.05295
1.09513
1.20042
1.08706
1.16115
0.977958
1.23972
1.11522
1.32497
1.47412
1.27923
1.16827
1.46106
1.69669
1.33521
1.4651
1.88396
1.05647
1.34581
1.16026
1.46736
1.26014
1.38235
1.61499
1.4256
1.48817
1.2818
1.52933
2.03914
1.7109
1.79963
2.03541
1.80011
1.41176
1.62457
2.36484
1.82802
2.11113
1.04752
1.18257
1.38521
0.897903
1.19761
1.06146
1.03855
1.61793
2.26161
1.71836
2.49755
1.9881
2.12241
2.57449
1.54126
2.06601
1.6366
2.40086
1.9193
2.05378
2.50792
2.04531
2.55231
2.38294
2.2296
2.01256
1.54757
1.708
2.23975
2.55651
2.50418
2.55596
2.41736
2.53076
2.35392
2.30761
2.04049
1.80927
2.36196
2.63011
2.53929
2.5212
1.92594
1.82327
1.85552
2.15691
2.20149
2.03863
2.47021
1.30743
2.96052
2.88212
1.23022
1.2834
3.23891
1.27226
2.59813
2.78855
1.25076
1.25581
2.77648
1.22792
1.2414
1.79049
1.79043
1.55449
1.87815
2.20817
2.20805
2.56308
1.94518
1.88333
1.5998
2.17951
1.81988
2.25132
2.62097
1.87458
2.19075
1.64638
2.32966
1.97992
2.29789
2.62581
2.10189
1.93738
1.80821
2.58505
2.1852
2.37956
2.76112
2.53244
2.40216
1.85315
2.28397
2.70016
2.64587
2.45175
2.56999
2.5452
2.42972
2.54519
2.44413
2.60694
2.54678
2.23953
1.93149
1.76443
2.22398
2.69128
2.40713
2.60827
1.57658
2.07689
1.86873
1.69406
1.43675
1.57663
1.86877
1.63424
1.8665
1.59242
1.39907
1.23525
1.47289
1.65472
2.08892
2.30753
1.78026
2.05101
2.55829
2.39974
2.70532
2.00077
2.68032
2.17229
2.86944
2.31915
2.52458
2.89443
2.56294
2.57183
2.46463
2.55474
2.38447
2.61173
2.53509
1.74521
1.63823
1.47404
1.59725
2.14746
1.78441
1.89826
1.76094
2.46771
1.991
2.44848
2.16221
2.59568
2.72531
2.67281
2.54287
2.73605
2.45382
2.62619
2.16931
1.91315
2.14357
2.50228
2.22158
2.36499
2.64413
2.74992
1.88221
2.77072
2.15657
2.33399
2.54332
2.83335
2.92739
3.23156
2.54288
2.92707
3.23127
2.48605
2.77056
2.33373