/*--------------------------------*- C++ -*----------------------------------*\
  =========                 |
  \\      /  F ield         | OpenFOAM: The Open Source CFD Toolbox
   \\    /   O peration     | Website:  https://openfoam.org
    \\  /    A nd           | Version:  9
     \\/     M anipulation  |
\*---------------------------------------------------------------------------*/
FoamFile
{
    format      ascii;
    class       volScalarField;
    location    "0.00085";
    object      impulse;
}
// * * * * * * * * * * * * * * * * * * * * * * * * * * * * * * * * * * * * * //

dimensions      [1 -1 -1 0 0 0 0];

internalField   nonuniform List<scalar> 
7711
(
1873.66
4118.93
1759.65
530.947
1651.85
308.441
1645.41
376.433
683.377
951.162
1850.38
1771.03
827.649
713.599
1769.49
656.8
1314.75
1494.35
757.485
1088.12
773.636
787.008
574.004
525.33
918.4
437.39
716.702
563.865
435.741
379.832
468.656
534.141
352.795
505.407
364.812
484.509
1488.26
2779.08
3011.88
1893.11
1842.51
2705.85
1777.2
1190.13
2020.05
1265.06
929.626
874.59
1732.04
1229.14
1236.06
2326.38
1382.24
1021.29
1294.92
1819.99
887.755
1093.88
1218.87
739.608
751.074
1085.84
688.251
1045.6
634.418
628.84
1806.71
1727.55
708.564
1756.16
587.343
414.515
357.452
334.55
328.596
349.363
410.639
372.458
538.027
591.25
1700.8
1654.05
599.555
539.586
1707.54
574.691
1692.19
548.011
1661.53
544.173
1709.37
560.122
0.00138912
236.299
22.097
3.02642
1.45826e-06
241.74
221.769
16.5233
16.8473
2.05144e-05
1.98185
0.000426957
4.96763e-06
59.4956
477.549
400.254
317.828
564.56
62.6142
238.303
6.43649
252.208
205.101
255.169
13.8158
189.051
6.57672
1.34878e-05
50.3159
463.42
387.221
136.349
12.0433
443.09
227.821
4.51887
239.797
193.802
0.219378
1.49097
164.049
107.802
0.0111429
0.0113949
168.474
50.3198
9.20075
65.1735
0.791577
0.00667134
157.63
42.2029
0.000213674
0.0826116
88.0307
7.16765
312.901
319.662
407.368
330.231
234.604
242.055
322.555
405.178
321.129
408.904
331.729
239.507
327.438
243.53
224.598
258.239
230.24
150.055
171.829
178.358
144.218
258.965
226.285
230.544
150.181
174.904
145.545
179.105
565.799
575.561
485.575
401.505
451.546
393.621
460.248
480.709
573.979
486.467
402.317
451.881
396.762
459.487
188.854
193.648
210.219
133.388
112.936
117.327
128.494
205.918
193.538
210.306
133.27
112.946
128.908
117.135
300.177
281.528
368.577
220.354
308.587
288.431
199.842
546.127
518.309
443.279
434.433
379.378
359.041
410.286
212.54
220.682
193.675
158.341
131.546
112.568
138.473
61.3323
5.89197
0.0114331
97.2847
4.03437
398.613
192.224
0.000619568
6.02916e-05
2.23961
0.0434622
0.317285
126.668
74.0383
177.996
160.909
176.238
102.521
117.108
99.682
86.3377
4.0611e-06
0.0784183
2.05918
40.9615
2.84619
8.44218e-06
0.00395079
483.393
387.136
417.805
332.929
344.087
300.763
379.972
257.423
316.423
345.051
262.296
142.244
230.217
173.553
195.323
136.178
167.981
88.5312
83.4171
113.084
61.6755
173.156
138.885
143.565
92.5484
96.6784
69.0005
65.2062
92.4349
138.785
168.35
172.916
143.33
96.4689
68.8488
308.021
198.152
344.07
243.746
205.339
300.382
352.054
0.832261
1.78565e-06
0.00182766
4.35933e-05
0.0155119
56.3097
1.64201
201.182
345.543
303.45
308.787
243.892
206.071
351.886
137.383
121.966
152.203
77.2386
42.1559
52.1347
65.3628
140.547
128.072
110.942
82.8946
67.8876
56.5515
43.4865
236.96
131.058
142.204
64.173
137.633
148.893
229.511
146.657
134.984
234.027
238.338
65.1566
138.797
150.208
1.42934e-06
0.000219459
2.25846e-06
0.0293135
0.954932
0.798908
0.000280113
68.0436
13.2239
85.0631
24.7101
14.9088
90.2471
63.9359
183.962
328.758
286.022
265.114
199.922
163.103
306.726
65.1629
23.5218
87.7174
68.2358
25.1281
15.0623
90.9218
350.988
350.784
308.907
303.046
262.417
217.841
256.387
118.169
129.194
215.24
194.504
37.8361
99.6846
110.527
117.041
60.8214
87.8537
28.6051
48.7714
27.9755
13.43
9.71248
74.107
54.8017
41.651
10.4012
5.51588
58.5326
0.00125661
0.000744809
0.790142
0.000722652
13.7669
0.00119231
3.52258e-06
57.423
9.79652
43.5881
7.36847
11.0643
46.499
54.0111
43.8061
10.1092
54.543
57.4213
7.39931
11.1372
46.4639
281.647
150.764
240.168
107.036
192.107
148.78
70.5302
10.0134
0.000721627
2.41957e-06
1.40446e-06
1.65506e-05
0.514407
3.12215e-05
237.871
171.21
104.182
243.296
136.054
204.427
278.154
7.05777
36.6126
45.941
34.1588
2.32666
3.83322
26.4622
97.4865
54.0228
102.046
36.6441
9.08137
33.6626
10.4972
50.6012
33.7776
97.5602
53.9772
101.87
36.5766
10.4988
99.2339
85.5993
60.5888
52.2906
34.7705
13.0433
24.6923
86.8651
40.5603
50.6384
20.6772
27.8396
9.42488
6.02379
30.1489
3.56857
32.6576
16.7088
0.777458
0.94913
14.8982
205.713
299.177
260.821
167.013
143.514
111.211
203.147
167.793
24.1734
52.6083
62.0322
77.1025
135.866
87.4871
14.9984
3.082
30.2593
3.57998
32.6287
16.6982
0.951488
87.1066
30.55
71.1023
6.30693
27.1773
18.2053
3.21562
15.6451
43.2232
17.1583
5.05043
4.50352
0.699448
0.818215
24.4552
0.931637
16.4584
0.485307
11.1194
6.44632
0.225228
20.9718
0.820616
0.38722
6.19766
1.44056
9.49627
15.2724
26.6707
4.81508
0.602524
22.4022
2.23172
40.371
12.9484
69.8897
201.861
164.768
120.137
57.9576
37.5471
153.988
28.072
8.27678
35.7969
12.4767
3.40233
0.486327
0.268674
33.7794
27.1401
11.7473
12.4028
3.93984
2.58309
0.583651
17.7147
29.8823
50.9937
9.19066
0.263395
3.01561
1.09152
138.258
105.618
192.004
102.365
12.6223
57.2257
36.9889
18.8598
4.2675
10.0115
1.54539
0.343474
0.117043
0.0383792
3.27435e-07
0.124293
6.01288e-05
8.15436e-05
4.2974e-07
1.43948e-06
4.31721e-08
6.04408
46.2202
26.6239
2.37256
0.93455
0.214132
7.05593
0.319882
2.76326
8.33175
2.58486
0.0182955
0.0754891
0.646554
29.2358
36.9011
100.321
63.9418
0.794826
11.3266
16.2162
4.50181
0.119876
0.0138036
0.374248
0.147403
3.77789
0.462291
0.382159
0.122056
3.82926
4.50131
0.0138347
0.14757
0.463098
73.9293
52.5135
2.32578
24.9399
33.0976
13.434
102.104
3.8712
14.4153
20.308
1.45896
0.0692539
0.128455
0.789092
0.124044
8.63145
3.93704
0.625707
0.0510924
0.0179687
1.87251
14.0271
1.07295
15.675
0.955538
1.28506
0.0448198
0.0371227
15.6372
0.766511
1.02915
0.950609
1.27308
0.0444272
0.0356682
0.0727609
0.22728
2.43368
1.10878
0.00286067
0.0318
0.100002
0.0800808
1.46942
2.62346
0.392048
0.00628785
0.0116229
0.214129
3.32143
0.239938
0.287273
0.0764758
0.00758429
0.00631568
0.0907811
5.55095
0.462771
0.626545
0.280568
0.204568
0.0213617
0.00930223
1.03371
1.96228
0.157665
0.0511628
0.00201389
0.00410033
0.0264822
0.00343297
0.14924
0.130269
0.0183854
0.000557401
0.000475449
0.0215081
7.51206
0.182554
2.156
0.0243284
0.284511
0.0624129
0.00520623
12.2467
0.222699
2.66709
0.0476878
0.567473
0.0779012
0.00638016
3.65962
0.0734889
0.385844
0.0196023
0.0957801
0.00957551
0.00180102
0.0540948
0.00244885
0.0940252
0.0127342
0.00017519
0.00032617
0.00694426
31.2596
0.52641
0.251284
0.109419
9.13238
2.36763
4.20516
0.535897
0.00341981
0.121785
0.002166
0.0770725
0.0165158
0.000460865
2.09438
0.0222067
0.0921836
0.015563
0.0654474
0.00294413
0.000705357
0.360719
0.000895548
0.00246401
0.00754821
0.0102337
0.08909
0.0315356
0.417667
0.0083191
0.130263
0.000751187
0.0106357
0.00323285
0.000212854
0.0705138
0.0246923
0.00017501
0.00631096
0.00614404
0.00197818
0.245031
0.043613
0.000111254
0.00202667
0.00067617
0.00378631
0.00126402
0.0234171
0.000622384
0.0245564
0.00874776
7.42844e-05
0.0029408
0.000949271
2.56841e-05
0.0100388
0.0140866
0.00301999
0.00102466
0.000342354
0.000246474
2.71121e-05
0.0231288
0.022753
0.283846
0.00800323
5.91379e-05
0.000656129
0.000653354
5.43177e-05
0.0390739
0.00149742
0.0467539
0.0017096
0.00142218
6.39795e-05
0.0247167
0.000905325
0.0299765
0.00145685
4.14924e-05
0.00120382
4.9575e-05
0.000900719
0.023979
0.0298145
0.00144527
3.99936e-05
0.00115862
4.91655e-05
0.00147794
0.0372106
0.0461963
0.0016914
5.16885e-05
0.00135837
6.3123e-05
0.000692939
0.000227332
0.00820439
0.0017391
5.68206e-06
0.000146631
5.03835e-05
0.0143213
0.000181831
0.00617056
2.41593e-05
0.00068638
0.000293194
1.19428e-05
0.000434424
0.00134911
0.015998
0.0021515
7.82667e-06
6.0733e-05
0.000179494
0.00507235
0.00177702
0.029717
0.000739603
1.11233e-05
0.000129057
4.88867e-05
0.0225369
0.000320054
0.0100049
3.17903e-05
0.000811099
0.000351937
1.63233e-05
5.75503e-05
0.000480581
0.00234566
0.000233531
2.74306e-06
7.31692e-06
4.46446e-05
0.00196179
7.58529e-06
0.000196137
6.12418e-05
0.000163434
5.19319e-05
0.00233141
0.00130276
1.89909e-05
5.26313e-05
5.44254e-06
0.00010541
3.46195e-05
0.000669008
5.71466e-05
0.000455051
0.00191567
9.26456e-05
3.95747e-06
6.04893e-06
2.43431e-05
0.000106319
0.000792638
0.00323528
0.000112927
6.31877e-06
3.23565e-05
9.13209e-06
7.89345e-06
1.97244e-05
0.000260489
7.85416e-05
1.91265e-06
3.66696e-06
6.9271e-06
0.00119661
8.33182e-06
8.12148e-05
5.28735e-06
3.15691e-05
5.16555e-06
3.34159e-06
0.0210416
1.91437
9.92243
3.47274e-05
0.10292
3.67243
95.5579
12.1343
26.6988
12.8112
66.8279
86.7616
58.2475
22.0901
9.60844
58.8039
32.975
74.4295
46.6304
16.2197
5.99938
2.89669
37.0646
13.2998
0.539066
9.32516
29.9803
2.36537
0.31798
0.518294
0.0544028
0.0141766
0.0370489
1.32701
0.339567
0.0092072
2.12764
5.21557
21.1456
1.1856
0.0538691
0.149374
0.459902
0.00963442
0.356666
0.763676
0.183077
0.00199947
0.00485335
0.0777463
0.000366562
0.0141628
0.00269814
0.0630408
0.000210894
0.00163038
0.00828068
0.0307074
0.000297563
9.52817e-05
0.00133866
0.000783956
0.00379716
0.011812
111.566
183.302
281.659
340.441
140.241
64.2704
326.789
173.401
340.392
333.447
310.438
328.151
304.167
291.643
283.272
336.41
254.53
280.173
304.949
318.705
294.224
270.92
313.005
271.029
304.43
226.18
264.218
254.028
214.041
257.366
173.463
248.785
151.567
231.654
221.494
140.636
104.303
187.136
219.317
159.296
236.242
206.836
124.905
220.02
275.392
236.848
256.245
291.961
239.462
196.641
67.3162
149.727
196.327
184.521
56.8934
100.032
136.521
28.249
94.5691
144.993
167.538
43.3099
84.0037
118.043
24.7168
4.84512
25.966
50.6832
0.00260993
0.0293752
5.75801
7.59071
59.309
59.9124
187.246
186.977
32.2883
0.0277802
0.000647813
39.892
0.0112123
41.9854
0.0853452
0.00797585
15.1897
172.072
26.8924
0.0171738
10.7792
177.99
0.000677074
4.67403
183.55
247.49
250.794
193.587
197.59
125.327
121.525
182.183
250.576
246.236
192.419
197.404
125.122
120.339
237.218
223.323
181.999
165.717
156.284
110.098
94.2736
0.00227674
0.0033644
3.2795e-06
2.90486
144.831
0.000132637
1.19272
28.6089
120.089
98.2363
104.467
32.4753
81.6801
19.8979
2.15114
7.5821
0.283526
3.62402e-06
0.00330211
3.20425
0.00684222
0.000120413
1.14881
19.5278
0.0100517
3.11254e-06
0.386026
0.000234054
203.917
114.319
107.099
143.161
134.57
73.5946
49.9535
61.7436
11.1086
84.8531
21.6198
61.7299
11.1034
4.34556
33.108
49.603
103.015
35.0415
106.242
52.2046
8.44072
63.2988
126.001
130.991
62.435
15.0476
58.5622
16.9969
15.4425
59.4157
126.925
63.352
131.084
62.5819
17.0815
34.8361
105.983
101.767
51.9896
7.25889
48.6477
8.33932
72.0969
5.23714
43.8026
29.6729
55.6065
8.81419
2.31705
115.242
38.1029
98.5955
11.1509
50.2935
38.2156
6.41964
92.5287
19.3058
78.3096
5.21299
41.4453
31.0567
2.86824
105.071
80.6843
75.3599
46.2441
43.0417
26.7831
9.19313
151.969
218.872
12.3908
27.5926
2.66682
138.353
117.129
3.02961
242.879
221.453
187.028
196.094
159.91
158.793
130.377
189.149
124.187
163.948
83.7427
123.777
94.9002
57.2846
188.256
108.541
160.109
68.9089
119.515
89.7722
44.3099
48.8432
28.0741
88.0121
28.6148
88.0388
60.8861
13.4608
79.3506
44.4397
107.269
60.4012
37.5424
14.7091
5.34564
6.23537
84.3809
40.4526
21.5949
74.334
124.887
57.3037
0.0302523
0.156919
4.84205
0.0633609
2.2102
2.87877
1.09558
0.58284
2.57427
27.0888
3.94195
11.7323
56.2669
33.7854
19.5202
15.93
37.2274
3.75043
0.163491
1.0138
0.706953
23.684
51.6627
76.702
24.2791
0.662839
11.5012
2.57145
11.1987
39.622
60.0282
19.2945
0.320802
8.86329
1.12467
37.2453
3.75446
15.9415
5.76313
1.01456
0.707906
0.16368
0.264858
7.19802
1.10189
9.24996
17.809
51.1535
29.9509
0.00584026
0.00679075
1.89846e-06
3.11154e-06
0.000457397
1.5913e-07
2.91835e-06
62.7367
2.83605
3.07059
17.841
16.4939
1.43385
0.119595
0.00308721
0.0356908
0.0112043
0.416807
1.28485
0.41652
0.121505
0.962871
0.58566
12.7591
14.0849
0.0347258
0.684291
1.13986
13.972
0.0342209
0.914388
0.552271
12.3247
0.673288
1.12496
0.00154206
0.0040355
0.0184822
0.67874
0.154061
0.299231
0.0605031
27.2734
0.412427
9.09319
0.125008
3.30674
0.496099
0.0169525
20.2135
0.20103
6.40405
0.0685195
2.47752
0.386109
0.0105583
0.786083
44.5823
14.1251
2.06605
14.4816
0.808171
0.063054
0.566732
0.35185
9.08224
5.19609
0.00785267
0.261467
0.169052
0.0622745
0.283336
7.487
0.0242275
0.828692
0.182089
0.00519006
22.1667
0.741322
9.46605
0.109197
1.88939
0.416002
0.0229506
6.62805
0.147764
1.14949
0.0280294
0.195154
0.0280462
0.00358962
0.222769
0.00637615
0.0778882
0.568649
0.0477991
1.64605
12.2623
3.66265
0.0735662
0.799858
0.00958367
0.0958881
0.0196283
0.00180418
0.000648333
0.102663
0.0255121
0.000447
0.0178863
0.00408299
0.000102419
0.000102314
0.00260655
0.000446294
0.102535
0.00407794
0.025493
0.0178604
2.09222
0.00265215
0.022247
0.0158999
0.561287
0.0890814
0.0601107
0.196853
0.205392
0.283885
0.0104397
0.0103362
0.00765382
0.000410521
0.0856189
0.0246864
0.94943
0.0433695
0.000107007
0.00366894
0.001203
0.108661
0.0424089
1.35009
0.0524123
0.000141697
0.00421208
0.00174126
0.0227335
0.000650288
0.00798673
0.0230915
5.44078e-05
0.00182177
0.000650065
0.133301
0.0925375
1.74673
0.0525812
0.000222345
0.00281108
0.00401779
176.115
179.821
20.8435
19.1356
182.612
179.057
1.40288
1.20125
178.969
83.9355
86.3912
178.222
180.778
88.433
86.1224
180.023
183.263
182.906
90.5215
87.5424
90.8801
87.7813
183.237
181.792
182.634
90.2338
90.2077
91.1805
88.9884
86.282
85.7043
178.868
180.352
180.755
88.0263
87.0537
21.9158
1.43242
21.9022
1.38925
22.2529
21.6162
1.40431
1.27179
1.24983
20.7066
21.9577
1.40009
22.0737
1.39509
20.1835
1.21136
1.10502
1.20433
20.0957
21.1466
1.31919
1.21122
20.058
19.8674
21.0726
1.31904
20.8665
1.32507
1.12203
0.495659
0.955872
0.348223
172.406
177.064
142.798
153.428
84.4541
84.2751
177.061
172.721
172.493
80.3933
80.6128
176.117
80.4031
83.6703
165.93
170.578
78.6661
74.6895
165.1
152.601
164.564
73.4464
64.383
73.852
63.868
156.141
149.083
161.752
71.1965
56.9096
61.3804
66.8058
280.917
226.956
235.829
247.039
308.121
289.627
260.603
237.228
232.953
247.092
251.474
254.183
257.604
265
268.78
246.584
273.623
260.416
275.724
265.018
275.88
285.922
285.647
295.538
265.454
269.676
279.469
283.175
298.794
270.32
246.415
268.137
245.728
274.221
276.705
246.325
297.154
289.952
277.837
289.556
310.219
303.929
298.333
247.344
248.005
275.114
280.692
244.241
246.293
284.953
285.186
242.885
280.925
283.012
235.346
243.008
286.4
285.464
237.679
232.498
285.233
241.57
286.714
287.241
1.11987
19.2313
19.1874
17.5732
0.978546
0.962109
17.7026
17.575
1.08075
18.8956
0.757392
16.8232
0.892355
15.2181
11.4184
0.481689
14.7527
0.744187
0.726533
14.9344
11.226
0.543688
0.430329
13.8851
8.92608
0.658847
10.3886
12.2474
119.895
4.66114
15.117
154.377
0.154848
32.4352
0.407824
133.561
165.396
74.3305
157.991
146.344
68.35
65.5377
59.6116
50.6047
42.5197
121.191
147.326
135.299
60.323
51.887
139.278
111.319
131.057
41.296
54.405
48.8243
36.0677
285.643
234.111
310.66
315.757
250.591
306.62
307.757
281.862
262.774
340.62
1074.34
204.342
308.675
72.7725
224.244
161.52
298.783
293.211
253.811
235.94
340.581
177.522
308.633
598.776
487.038
438.63
546.929
896.269
297.071
389.839
286.344
278.395
280.748
319.979
312.215
301.554
306.949
118.546
119.036
291.855
317.949
320.947
331.047
234.331
315.722
302.965
283.183
278.174
280.591
311.799
301.051
297.672
311.31
292.588
306.079
317.736
309.824
316.059
315.777
312.441
294.064
310.867
292.06
305.567
315.917
107.633
313.662
314.645
158.812
303.015
44.2225
231.595
324.033
307.381
291.137
309.546
301.382
309.762
331.839
482.994
333.122
373.165
354.574
461.814
382.766
490.169
649.839
639.491
926.722
1026.91
651.102
629.413
884.224
314.865
317.397
300.428
320.638
307.761
307.065
308.444
0.840446
63.4979
0.294537
81.7042
0.0633886
41.4939
0.318732
335.158
312.556
331.978
308.271
282.108
309.884
284.408
280.013
331.567
306.882
311.942
331.481
307.756
283.962
590.961
331.791
137.484
495.795
822.464
268.819
387.883
270.91
68.2774
24.571
203.581
336.373
143.516
290.705
328.651
333.791
328.155
334.718
319.413
310.091
307.226
328.359
335.392
334.874
319.006
319.495
310.099
307.925
329.129
316.064
312.222
307.325
323.537
333.404
296.259
377.006
497.107
484.917
376.337
385.065
490.218
479.595
300.751
263.976
294.697
254.331
300.396
267.16
296.72
250.102
298.618
293.924
300.445
254.294
266.907
296.638
319.199
310.221
313.158
299.236
275.676
283.178
295.045
330.705
331.372
328.822
323.29
303.089
299.974
287.179
271.357
330.182
304.045
295.52
283.321
322.819
256.651
449.237
356.357
384.666
340.812
377.429
477.564
432.506
965.787
634.505
647.39
612.195
771.459
588.607
831.375
188.324
14.7481
0.0631206
123.848
282.571
21.5691
203.799
240.788
293.859
287.171
282.97
225.811
239.043
274.554
789.793
537.603
664.583
581.521
633.117
517.912
753.628
283.815
238.424
287.129
268.46
209.288
213.752
264.575
294.693
322.155
323.798
287.426
247.306
284.471
250.919
290.692
294.565
323.714
287.34
246.328
283.56
250.796
284.295
238.338
287.133
268.425
209.497
265.04
213.627
319.484
289.847
308.735
265.188
286.236
269.438
247.819
493.856
377.486
478.606
361.693
461.081
438.584
344.909
309.484
321.256
294.423
305.592
278.63
255.455
282.679
168.676
156.497
148.499
77.3515
71.4911
67.4802
61.5306
281.069
262.122
287.72
208.989
308.278
261.113
236.036
282.687
270.248
303.18
237.137
274.917
261.475
222.832
612.34
746.952
583.333
707.205
560.117
526.804
639.136
297.085
268.686
277.51
252.401
261.979
236.858
225.162
125.206
5.43134
16.7215
159.478
172.71
18.1051
44.8968
0.399236
169.904
78.2178
172.167
161.837
80.3042
71.3416
69.463
173.556
161.408
162.843
80.7992
81.5259
72.1461
71.1269
266.036
204.845
191.598
233.261
244.204
218.369
256.333
558.581
593.46
656.309
463.482
530.762
492.926
708.388
320.789
344.499
363.24
461.312
385.968
439.853
410.987
275.631
208.647
261.885
198.858
255.435
241.03
182.508
53.6794
150.962
137.397
123.005
44.0006
137.421
53.6947
144.557
127.308
146.833
59.6037
44.552
58.0255
45.8643
125.724
58.9628
145.76
127.695
147.512
60.0788
46.0723
507.006
669.087
548.405
488.608
501.493
443.517
569.052
238.684
299.558
271.906
223.481
215.684
178.318
254.43
267.872
258.588
240.777
241.611
221.83
211.404
189.286
428.757
363.046
457.331
411.29
289.696
375.207
322.688
238.968
171.536
123.469
189.087
176.429
234.524
194.109
238.988
123.417
189.871
171.841
235.154
176.313
194.156
186.981
218.923
242.881
221.379
130.317
196.074
159.779
253.293
267.282
287.098
243.289
176.172
220.155
202.823
120.069
55.4146
140.407
111.025
131.971
49.6616
35.9712
598.562
429.663
498.747
462.778
442.458
390.403
537.547
323.808
356.762
415.394
387.288
233.431
321.64
299.006
262.645
174.496
235.757
202.47
163.694
232.485
132.147
218.686
241.001
252.461
204.552
144.288
159.661
190.414
158.038
205.234
217.788
184.538
103.135
117.331
170.285
649.882
427.68
370.909
683.504
1105.22
610.035
490.254
421.968
321.03
310.78
415.328
470.8
368.382
480.529
359.345
474.382
317.143
363.478
310.226
414.29
469.708
358.463
1095.39
1113.66
644.66
646.606
948.374
647.322
965.716
646.657
644.271
955.505
1119
644.487
646.332
969.608
492.417
391.542
464.818
371.975
495.842
466.476
387.173
459.676
365.782
385.887
491.188
370.539
465.063
385.897
616.43
809.76
554.065
695.342
612.853
559.487
824.43
814.574
551.109
686.311
615.918
697.339
558.73
827.148
104.695
20.84
83.6926
99.3496
119.641
41.474
29.1469
160.519
178.365
224.678
209.41
90.7211
143.176
161.533
19.9078
104.484
32.4837
98.2627
120.122
42
28.6179
243.334
167.685
213.264
142.127
190.759
153.046
101.348
0.881713
0.611264
13.274
17.6427
0.963412
0.663305
14.003
1.00069
0.68075
0.964339
0.647621
17.7658
13.8615
14.2708
0.748584
0.51541
11.8405
0.580433
0.394518
12.8215
9.81387
0.555196
16.3539
12.5357
0.425616
0.656276
14.016
10.4502
420.991
416.565
293.993
388.14
372.508
345.132
476.65
228.26
163.293
207.877
125.417
173.573
147.326
97.2453
189.239
94.9022
163.971
83.838
152.084
124.242
57.3195
188.121
68.7279
89.6714
108.436
160.031
119.324
138.167
352.416
219.924
227.4
189.075
308.502
278.969
265.642
158.512
142.906
41.2352
116.716
105.79
193.296
85.112
0.255906
0.272989
0.16585
7.06616
4.99178
10.0362
7.44107
0.46518
11.129
0.177451
0.29437
7.96899
5.34563
7.97285
141.521
77.8618
32.3643
60.5785
90.9201
72.5147
126.673
0.36479
9.29133
0.181061
0.393153
0.19494
9.81517
5.76887
0.376438
0.196001
0.182558
5.49327
9.5548
9.94157
5.80357
0.306826
8.16845
0.150403
0.231549
0.109006
6.56994
3.54824
0.150425
4.69439
8.46556
0.106658
0.238759
6.79086
3.5143
123.744
122.318
174.018
107.284
22.8898
59.6338
58.6961
57.2735
74.2947
124.863
84.3941
6.23383
27.5964
40.4506
3661.83
558.222
463.174
440.766
307.163
332.478
375.724
326.425
665.385
1491.67
1369.06
770.652
1117.38
773.051
782.948
530.428
529.955
918.168
432.113
731.586
563.156
430.079
517.081
796.351
440.899
399.461
676.357
552.424
396.648
371.52
462.39
539.221
348.988
481.289
500.909
355.436
1510.12
3049.39
3099.17
2088.5
2550.31
1735.32
1629.8
1205.53
2260.25
1383.14
1015.93
1819.95
1295.88
888.374
1193.33
2007.7
1318.28
956.948
1817.51
900.2
1285.29
1031.19
1128.54
729.606
729.314
1127.6
695.368
1121.29
389.734
460.566
420.06
367.63
547.704
386.227
408.034
410.008
353.623
321.026
326.288
408.384
339.08
363.343
325.586
352.86
414.731
357.653
428.417
348.065
356.691
332.292
392.657
348.221
333.968
344.218
356.532
365.415
260.764
292.263
289.104
1573.53
1492.43
1631.99
295.325
418.991
1716.15
330.898
260.581
286.699
295.197
331.11
335.502
409.065
332.949
336.907
359.71
420.56
310.878
354.558
374.263
327.07
410.479
339.924
320.987
353.06
307.01
363.428
551.615
1671.28
1695.64
582.242
1658.9
551.588
562.819
395.439
345.957
360.548
334.587
349.649
333.687
366.292
285.495
299.904
317.302
266.878
311.762
282.147
316.683
328.422
287.044
327.744
321.001
296.11
328.404
344.661
274.454
283.006
297.771
295.18
267.175
280.941
280.732
308.679
288.447
308.661
318.36
295.098
301.458
330.6
304.241
316.784
312.594
313.039
312.644
299.355
321.02
540.422
552.979
1564.24
1624.11
562.908
1616.01
538.165
560.774
1601.32
559.528
1667.87
575.838
1635.69
555.756
326.115
330.08
325.874
339.258
331.395
319.602
343.128
354.207
323.716
275.469
284.383
328.989
281.346
336.804
298.086
295.53
275.963
285.534
288.675
281.976
298.124
540.236
485.95
353.527
369.497
262.91
285.873
304.526
267.421
517.522
469.836
458.048
378.231
344.655
377.848
356.287
546.394
469.992
517.579
377.759
353.224
380.344
359.055
1533.4
286.266
324.954
347.224
411.777
365.171
436.085
360.165
330.565
364.629
331.746
421.2
352.303
439.71
359.938
332.687
272.317
256.595
268.852
287.058
299.248
306.951
299.007
297.114
253.624
283.551
260.714
272.752
307.792
296.165
277.918
1250.01
275.353
246.8
534.019
592.167
322.796
254.512
299.61
258.671
247.754
288.758
261.461
302.99
293.929
285.3
295.527
309.277
309.801
312.456
308.349
292.242
283.058
306.822
286.514
293.763
313.142
307.51
241.482
245.98
257.722
253.739
240.232
252.132
242.787
234.464
239.72
279.359
289.501
236.679
290.643
239.172
243.514
286.539
286.479
293.8
242.859
243.824
296.931
257.408
244.329
255.965
253.479
242.796
243.85
253.59
1713.23
1700.39
457.937
523.328
1571.83
256.38
243.785
1579.17
499.232
521.703
454.107
373.417
330.854
354.78
360.735
480.007
491.67
539.609
392.851
356.565
377.974
373.456
621.544
1717.89
605.231
556.502
1666.87
1659.78
551.934
590.247
1693.32
602.325
540.502
1659.13
536.958
1648.83
325.967
288.104
291.884
262.176
297.846
295.216
317.46
311.384
270.838
252.264
280.491
302.554
284.9
284.729
524.756
1618.46
522.957
1567.3
518.006
1611.86
526.33
512.73
1619.32
1569.08
513.441
513.834
509.932
1608.39
1526.25
527.293
522.984
547.014
1468.23
552.824
1467.18
271.266
273.419
286.918
269.375
286.014
268.374
286.154
1521.18
1521.02
527.645
557.49
1453.3
549.118
1459.64
288.916
273.279
270.633
272.895
286.878
269.14
286.143
623.259
572.944
1539.34
1557.48
590.708
597.133
1594.86
315.553
314.204
321.682
329.721
307.155
325.218
316.484
314.12
249.775
362.402
271.366
318.168
249.243
355.262
367.306
279.097
254.298
316.375
272.656
251.854
356.494
257.155
246.348
267.033
257.49
257.021
247.145
265.597
258.635
248.984
269.039
256.929
257.761
247.686
265.496
1359.37
627.219
1237.41
582.741
1253.71
619.729
1371.49
271.915
290.598
280.39
298.232
271.91
290.013
279.246
293.6
274.564
283.42
271.963
298.632
290.208
279.533
582.112
1373.96
624.13
1260.45
588.361
619.329
1378.96
416.214
1531.75
340.757
292.38
246.542
1491.3
327.755
303.341
1222.59
289.445
1033.17
377.034
278.145
322.887
259.504
306.267
266.671
331.745
328.551
286.948
248.639
238.599
243.33
302.941
324.247
257.175
267.052
252.32
244.998
245.435
258.549
254.997
268.265
273.526
277.97
305.919
340.046
240.318
332.507
206.924
1519.16
564.315
541.781
1458.22
568.424
592.117
1432.71
300.614
276.846
284.142
292.356
274.583
283.716
301.319
376.601
1004.6
687.814
1356.54
400.32
948.577
397.588
251.044
369.718
312.26
296.74
336.197
350.164
321.722
289.948
277.079
263.609
288.929
269.193
281.007
296.862
360.223
287.261
264.275
355.367
312.01
396.056
279.93
252.446
274.328
263.777
280.583
263.184
273.993
285.249
259.579
380.874
333.504
359.219
312.539
409.433
278.009
593.816
1438.76
626.648
621.751
1319.06
651.579
1388.36
305.12
311.001
293.613
295.333
327.383
309.354
313.269
296.832
286.905
278.06
287.325
315.057
296.322
305.986
1354.49
633.826
602.8
623.212
1175.75
645.926
1316.01
290.444
297.23
290.144
308.681
299.583
305.099
311.736
396.411
345.538
344.693
483.361
442.851
446.869
307.432
307.863
303.912
281.182
288.633
318.144
307.691
301.166
318.655
357.688
351.981
448.995
445.836
493.676
391.753
304.995
322.063
316.04
322.539
316.547
336.745
348.479
300.349
332.461
324.428
320.513
316.419
309.258
318.629
318.004
348.88
332.049
342.572
326.04
339.92
349.66
646.166
1178.02
1110.68
661.336
665.664
657.533
1257.07
322.256
334.032
322.224
316.782
309.688
316.777
317.021
657.817
1249.33
1225.91
680.736
674.967
684.595
1118.21
316.641
337.774
326.063
318.849
316.374
318.47
315.405
288.037
241.653
289.761
238.12
290.157
288.075
231.236
521.185
396.028
495.792
521.171
416.449
520.411
416.187
383.297
505.365
487.594
514.974
400.482
506.98
407.562
346.308
352.245
340.083
346.37
365.469
338.03
369.766
339.652
326.85
327.772
338.331
349.645
361.111
322.904
259.63
335.36
337.106
194.312
285.801
45.2572
299.371
120.696
407.621
333.631
391.801
349.577
347.841
1117.78
1462.45
364.919
1386.91
355.629
1610.6
305.297
348.31
284.251
329.108
313.087
268.68
267.022
317.091
317.903
261.797
266.209
258.44
311.231
334.737
272.424
269.562
280.773
282.996
262.196
276.374
284.806
271.659
357.49
326.974
368.244
347.681
356.584
330.493
328.1
1585.13
552.775
576.009
1562.12
570.244
599.857
1526.52
312.186
299.339
301.602
310.644
294.71
302.378
319.564
861.074
1255.75
396.669
830.489
479.308
438.402
526.534
360.952
318.442
280.734
323.316
282.995
268.533
294.264
293.178
337.839
276.173
365.033
321.259
293.094
402.36
279.74
264.019
327.93
360.526
311.912
396.398
287.066
295.835
275.28
288.326
295.681
299.65
284.032
307.902
280.621
263.148
276.692
289.553
288.391
296.464
277.625
325.776
320.241
322.573
336.636
333.091
332.237
345.074
631.026
1537.91
602.087
631.141
1368.1
660.315
1462.17
621.899
1489.82
593.89
626.896
1317.97
651.807
1437.82
311.329
322.855
305.955
311.225
339.042
329.047
321.008
295.05
310.831
293.341
304.848
327.201
309.058
322.731
309.865
315.71
272.356
1645.98
1702.53
305.235
295.48
1583.08
1563.41
311.272
278.28
327.602
342.151
307.561
269.01
272.016
319.681
383.229
401.985
318.972
331.141
357.423
335.874
286.228
390.435
313.734
383.985
303.996
331.854
340.42
290.645
301.921
356.613
290.799
306.31
325.48
333.135
323.13
569.408
535.187
1691.05
1664.65
549.904
535.699
1659.83
322.441
332.523
372.85
317.054
329.432
341.783
317.722
309.919
273.451
267.063
310.257
295.76
326.953
273.854
285.61
250.134
245.082
264.579
300.002
300.183
261.574
271.514
290.792
284.384
290.73
298.878
309.933
277.921
271.626
290.021
256.173
253.342
273.883
282.831
267.664
1622.79
541.837
556.39
542.039
1672.58
540.513
1646.5
1579.04
545.132
526.299
534.93
1625.37
522.411
1623.23
297.36
303.27
286.317
289.68
304.339
300.53
309.051
313.283
309.682
314.239
300.179
313.467
298.786
308.202
315.401
307.626
302.873
307.689
321.164
321.288
315.486
334.606
272.636
258.765
317.934
266.354
305.514
262.049
285.083
276.675
262.427
269.621
283.093
280.875
266.747
286.096
276.721
290.13
291.331
292.278
304.331
303.623
570.26
1527.25
599.736
1585.57
576.039
552.953
1611.61
302.565
310.788
294.935
317.16
301.681
299.476
312.314
304.824
313.048
313.042
310.629
304.958
314.744
320.56
318.409
318.147
315.936
309.549
318.203
318.447
328.022
318.356
317.637
304.384
317.635
333.433
330.472
318.319
308.918
316.9
305.401
316.485
335.927
327.336
320.327
322.639
328.121
320.308
325.797
345.055
336.638
332.233
400.585
493.802
357.703
351.995
446.102
318.602
449.115
304.708
336.56
321.914
315.651
316.217
296.363
322.401
288.299
307.449
307.34
303.597
300.902
317.892
331.471
307.339
345.518
443.148
344.656
447.038
483.449
377.016
317.804
339.777
348.836
342.432
325.798
336.093
331.958
343.378
329.67
334.159
347.852
340.816
355.829
356.651
359.307
335.714
344.587
357.161
344.565
359.321
370.001
325.569
345.86
339.033
347.61
339.134
354.375
359.397
658.03
684.643
1249.09
1225.18
675.148
680.831
1355.99
646.307
1176.99
665.818
1109.5
657.558
661.304
1032.23
300.076
332.272
316.129
324.246
309.024
320.282
328.369
347.806
343.361
355.784
329.647
347.77
340.757
334.092
514.981
383.328
487.739
505.31
400.493
397.603
506.866
338.159
339.373
327.492
326.654
349.499
349.948
322.755
357.166
346.896
368.942
367.908
357.176
357.703
367.928
353.401
340.674
343.46
340.728
318.644
324.065
340.796
336.302
335.318
340.203
295.753
309.907
316.996
307.993
675.042
1128.75
688.158
675.059
893.737
647.641
1004.79
1085.54
652.781
674.648
667.182
861.6
631.07
985.937
340.16
321.951
331.001