/*--------------------------------*- C++ -*----------------------------------*\
  =========                 |
  \\      /  F ield         | OpenFOAM: The Open Source CFD Toolbox
   \\    /   O peration     | Website:  https://openfoam.org
    \\  /    A nd           | Version:  9
     \\/     M anipulation  |
\*---------------------------------------------------------------------------*/
FoamFile
{
    format      ascii;
    class       volVectorField;
    location    "0.001";
    object      rhoU;
}
// * * * * * * * * * * * * * * * * * * * * * * * * * * * * * * * * * * * * * //

dimensions      [1 -2 -1 0 0 0 0];

internalField   nonuniform List<vector> 
8550
(
(-431.421 479.458 258.913)
(-1330.77 1270.06 678.967)
(-663.524 726.431 545.883)
(-1383.07 1558.4 1041.78)
(-2183.75 1887.62 1175.35)
(-2280.26 1991.56 989.684)
(-1413.34 1753.98 790.432)
(-1559.32 1859.63 1025.41)
(-1260.82 1104.29 530.664)
(-853.545 933.708 437.198)
(-762.204 816.346 348.389)
(-580.622 692.63 340.27)
(-793.698 824.445 424.855)
(-517.962 612.511 283.368)
(-900.607 950.362 536.03)
(-1418.63 1489.29 894.092)
(-1343.86 1441.5 1014.08)
(-1061.36 1155.51 654.877)
(-700.686 841.325 477.254)
(-1288.47 1509.79 1059.79)
(-1092.29 1192.83 761.974)
(-947.197 1120.7 774.247)
(-1309.25 1110.69 977.822)
(-1945.06 1646.68 1264.73)
(-1555.58 1759.77 1447.42)
(-1680.98 1970.93 1339.35)
(-383.235 432.446 225.508)
(-345.569 347.629 221.564)
(-308.045 311.538 203.498)
(-425.967 383.594 228.762)
(-605.209 615.037 320.663)
(-537.076 547.967 264.46)
(-474.612 432.36 261.873)
(-513.398 564.984 353.405)
(-402.831 404.17 285.229)
(-501.47 502.858 418.963)
(-720.991 665.192 546.127)
(-1008.27 1012.99 759.162)
(-740.146 747.395 461.211)
(-560.652 514.726 355.54)
(-311.29 984.278 1544.33)
(-7.17991 41.9032 46.4243)
(-54.85 524.129 609.21)
(-0.000613987 0.016919 0.0356632)
(-329.714 1790.75 1569.81)
(-493.091 1467.54 1204.77)
(-423.041 1539.59 1237.84)
(-389.763 1791.67 1640.21)
(-238.892 1665.07 1548.96)
(-82.9435 907.467 905.85)
(-234.972 1742.42 1689.89)
(-101.175 816.211 783.65)
(-126.978 1139.43 1602.35)
(-102.81 567.26 737.722)
(-58.2027 626.004 822.497)
(-0.629816 34.0574 67.888)
(-0.0166483 1.17178 2.68056)
(-50.8137 484.425 522.042)
(-2.86058 73.5132 82.037)
(-1.85882 24.219 34.1575)
(-6.75869 60.4629 66.5916)
(-0.056629 2.01656 2.94406)
(-0.158991 1.67946 2.43751)
(-1.96918 20.7533 28.4758)
(-8.828e-06 0.000182531 0.00027539)
(0.000236377 0.00400453 0.00206969)
(3.22462e-05 0.000307376 0.000339409)
(0.000291988 0.00811696 0.0096965)
(-0.000552535 0.00487968 0.00574537)
(0.00192726 0.0342477 0.00598983)
(0.000814353 0.00536471 0.00349819)
(0.0143633 0.0516211 0.0185289)
(0.00635675 0.108305 0.077595)
(0.233821 1.59866 0.662389)
(0.0665248 1.27209 0.408548)
(0.0116135 0.131291 0.10443)
(0.00819679 0.258161 0.279986)
(-0.0165829 0.221459 0.239783)
(0.0411105 4.69524 5.50303)
(-0.371238 3.93302 4.59674)
(0.00191078 0.137752 0.185867)
(-0.0095137 0.116359 0.158186)
(-0.00044413 0.00701576 0.00845759)
(6.88333e-06 4.72071e-05 1.81151e-05)
(1.22096e-06 9.44361e-06 4.25135e-06)
(5.12312e-06 8.95533e-05 3.52344e-05)
(3.44135e-05 0.000326738 3.35488e-05)
(4.34888e-05 0.000621021 6.46871e-05)
(2.11772e-07 3.10466e-06 6.90836e-07)
(8.70972e-07 8.74044e-06 6.09878e-07)
(1.13529e-06 1.67342e-05 1.1941e-06)
(2.28066e-07 1.76058e-06 2.59668e-07)
(-439.945 1710.29 1398.8)
(-791.297 1071.45 1267.82)
(-120.656 677.706 642.436)
(-237.768 1422.07 1751.96)
(-194.796 663.771 646.275)
(-364.376 477.198 826.902)
(-358.676 1296.05 1532.33)
(-134.609 1253.83 1512.47)
(-455.923 994.414 960.258)
(-683.843 1486 1770.84)
(-368.656 1403.45 1374.25)
(-455.528 1690.33 2059.5)
(-172.85 1399.66 1480.64)
(-265.599 1629.59 1650.33)
(-122.21 399.021 439.73)
(-61.0121 470.477 470.184)
(-248.552 737.797 1116.39)
(-116.019 945.827 1293.91)
(-19.3733 455.85 456.161)
(-39.1498 388.624 302.177)
(-17.399 370.373 295.761)
(-9.83954 278.073 234.821)
(-16.1311 364.033 368.262)
(-27.5328 288.844 250.326)
(-48.4618 375.459 385.81)
(-156.85 502.469 522.941)
(-63.4415 318.525 296.098)
(-103.539 414.722 350.524)
(-106.763 486.827 495.238)
(-66.4194 401.27 326.272)
(-42.3403 302.327 270.444)
(-82.4035 388.61 412.405)
(-254.55 762.071 1094.04)
(-55.7161 601.516 642.694)
(-93.0781 451.984 466.66)
(-89.316 618.807 606.383)
(-77.0383 499.826 407.698)
(-193.822 617.288 620.017)
(-162.135 856.466 892.308)
(-263.721 948.402 870.666)
(-202.093 693.855 543.727)
(-143.893 527.205 424.942)
(-137.764 637.662 617.938)
(-105.182 515.404 407.949)
(-166.235 666.719 550.098)
(-199.838 898.429 847.676)
(-302.46 1010.75 1357.64)
(-205.033 970.354 1319.52)
(-170.727 707.275 1071.47)
(-216.147 677.698 823.118)
(-176.041 508.465 666.488)
(-148.095 647.962 782.051)
(-122.277 492.002 634.809)
(-99.1207 687.445 1042.46)
(-33.0919 928.252 1273.68)
(-30.8834 671.964 1021.56)
(-23.6663 462.416 587.736)
(-25.8586 609.647 732.031)
(-84.7927 626.348 752.359)
(-72.2343 476.478 607.97)
(-147.47 1437.9 1588.61)
(-58.0992 1413.66 1634.19)
(-36.012 1240.27 1500.87)
(-142.973 1211.41 1482.73)
(-36.9976 876.582 1002.61)
(-112.726 884.326 1002.28)
(-160.797 1291.88 1376.71)
(-360.432 1744.85 1457.7)
(-412.938 1530.11 1116.29)
(-384.369 1526.81 1146.01)
(-371.919 1427.27 1230.81)
(-293.162 994.119 761.354)
(-282.858 966.464 787.374)
(-309.159 1394.52 1242.52)
(-242.059 1270.21 1521.98)
(-374.908 1430.14 1542.32)
(-257.32 1437.43 1566.05)
(-277.961 970.605 1089.42)
(-360.295 1372.83 1382.34)
(-188.201 917.779 1033.29)
(-250.494 1325.29 1361.52)
(-545.803 1439.34 127.891)
(-488.978 983.138 707.371)
(-284.518 776.261 300.49)
(-1607.17 1237.08 267.7)
(-470.631 1053.82 540.478)
(-1306.86 261.977 974.663)
(-1230.29 207.937 911.048)
(-282.394 767.473 341.383)
(-868.323 327.728 385.173)
(-820.523 398.599 394.522)
(-313.092 908.567 477.022)
(-824.106 793.435 896.77)
(-301.919 1137.69 32.518)
(-294.576 924.335 333.537)
(-187.415 807.967 429.661)
(-421.926 309.066 307.801)
(-12.1917 417.599 314.401)
(-223.345 210.165 155.578)
(7.07908 347.12 155.025)
(-100.725 261.782 123.664)
(10.6684 342.561 118.371)
(-49.2612 314.576 127.79)
(-87.7249 450.906 286.822)
(-67.5926 416.95 271.981)
(-768.834 827.763 630.333)
(-1154.18 446.784 848.869)
(-715.827 724.116 612.984)
(-1144.9 220.301 755.138)
(-854.106 921.001 800.031)
(-1017.23 415.583 662.405)
(-655.969 684.832 496.493)
(-1075.84 1454.43 502.577)
(-1427.76 1684.43 205.596)
(-933.778 1288.06 159.842)
(-1502.37 830.645 736.958)
(-1376.32 1308.32 603.343)
(-876.276 1055.91 438.84)
(-1123.81 1710.5 181.582)
(-1009.31 1195.66 677.135)
(-1401.98 417.301 908.504)
(-1281.99 585.46 907.165)
(-762.903 770.456 616.881)
(-1365.09 858.915 787.084)
(-812.509 832.922 543.104)
(-930.199 1053.86 801.975)
(-638.96 751.227 407.202)
(-988.801 268.812 503.395)
(-699.445 481.292 340.171)
(-502.899 637.907 270.642)
(-835.222 437.151 431.995)
(-563.87 636.494 326.956)
(-551.056 750.375 330.138)
(-487.623 852.724 417.097)
(-629.231 539.01 333.955)
(-476.907 680.86 286.618)
(-816.76 491.405 482.959)
(-503.448 789.274 344.392)
(-598.548 612.158 401.696)
(-480.929 755.779 358.614)
(-474.925 950.099 555.86)
(-828.641 618.426 650.875)
(-537.471 803.435 715.477)
(-491.747 1092.14 741.19)
(-582.169 710.555 534.9)
(-487.502 878.499 497.023)
(-453.722 1140.59 794.18)
(-368.046 591.934 364.64)
(-584.754 318.98 515.483)
(-663.382 -102.591 520.902)
(-1227.59 -396.436 955.782)
(-1222.71 -83.8509 828.171)
(-1108.28 50.1684 780.4)
(-1071.77 443.772 675.852)
(-337.153 207.246 231.568)
(-425.203 -43.9417 314.506)
(-565.763 -150.842 440.995)
(-1121.08 -455.751 878.084)
(-927.622 -74.2628 682.397)
(-975.796 -392.595 686.886)
(-722.325 -32.876 479.455)
(-338.818 1316.72 23.8491)
(-444.905 1354.32 38.4453)
(-427.1 871.875 419.638)
(-1087.82 994.717 201.399)
(-826.371 1339.46 131.334)
(-1110.03 519.996 619.035)
(-838.276 929.336 481.024)
(-109.054 632.816 283.18)
(-87.3676 582.465 411.432)
(-46.7307 492.238 183.082)
(-140.715 447.725 179.592)
(-161.384 625.336 279.477)
(-539.214 413.041 553.246)
(-512.077 734.765 529.165)
(5.25195 350.382 198.046)
(-18.7498 347.54 100.404)
(-20.9938 282.417 72.9725)
(-67.3051 252.459 71.2276)
(-99.4687 311.508 103.066)
(-403.552 257.916 443.582)
(-251.806 248.681 271.632)
(-139.208 239.97 115.721)
(-211.509 174.454 188.824)
(-283.157 100.768 202.078)
(-630.216 -125.576 328.466)
(-772.818 -246.698 429.518)
(-405.352 161.924 238.459)
(-520.119 81.2328 294.936)
(-365.968 1256.89 93.6594)
(-287.646 1012.63 328.351)
(-214.366 834.837 275.706)
(-205.473 859.356 292.522)
(-285.321 1212.96 29.9948)
(-486.357 1361.48 98.4008)
(-437.704 1047.27 388.112)
(5.24726 363.504 130.615)
(-20.6993 279.105 85.0432)
(-3.0504 301.363 101.573)
(-37.8371 261.945 88.7373)
(-48.8396 243.247 73.521)
(-99.2812 319.682 148.866)
(-136.137 294.663 180.265)
(-36.8704 125.316 65.2895)
(-14.9247 107.359 57.5229)
(-24.7092 257.79 200.129)
(-21.5292 315.385 191.848)
(-189.056 697.1 242.739)
(-38.906 152.054 25.704)
(-109.104 712.232 230.653)
(-66.9343 276.398 49.3615)
(-62.9136 259.226 44.1686)
(-28.7636 139.538 28.0694)
(-35.2315 109.967 44.0228)
(-14.8501 104.591 43.4374)
(-77.1092 424.975 127.257)
(-94.5884 462.243 162.499)
(-18.4521 325.529 70.1672)
(-105.918 265.441 86.3473)
(-10.9107 177.196 9.18293)
(-23.814 171.432 7.96735)
(-44.3945 323.083 69.3259)
(-42.9709 168.384 25.8298)
(-51.3818 155.223 55.1252)
(-83.1232 176.334 64.7343)
(-7.60784 124.916 8.93761)
(-6.0836 113.772 19.4366)
(-17.1463 118.045 7.12033)
(-14.9649 104.705 17.3578)
(-29.8073 136.68 22.0907)
(-45.128 185.713 21.9955)
(-36.2096 164.203 16.3364)
(-39.0659 120.785 8.28286)
(-34.5205 106.186 17.2694)
(-27.8244 113.762 6.13594)
(-25.0045 98.8959 16.4556)
(-174.985 1156.5 -45.1854)
(-121.611 1193.18 -50.6013)
(-87.0028 728.606 237.967)
(-70.8642 1080.56 -102.396)
(-37.4029 614.088 176.077)
(-149.756 1033.62 -95.1441)
(-84.3193 602.504 171.557)
(-55.1646 252.464 34.0318)
(-112.237 446.083 155.522)
(-87.2154 419.641 129.521)
(-105.393 338.409 88.5689)
(-55.174 175.26 12.4732)
(-38.3188 169.15 8.33994)
(-72.4968 324.548 72.4098)
(-21.7182 143.458 55.4974)
(-22.5331 137.156 38.7987)
(-5.41377 110.728 44.4536)
(-23.7736 157.049 70.6081)
(-29.9774 153.34 55.5706)
(-5.61371 112.451 32.4098)
(-14.6391 102.637 30.4495)
(-144.422 701.747 230.963)
(-298.973 1045.93 -17.2604)
(-230.75 1103.9 -42.5782)
(-311.499 976.053 -62.9747)
(-186.131 596.984 196.08)
(-229.955 996.617 -79.0419)
(-132.525 591.471 180.047)
(-24.2889 103.65 42.1093)
(-38.8428 170.329 62.4349)
(-29.3629 146.262 53.8938)
(-39.3592 153.422 41.2331)
(-28.5638 136.285 35.7665)
(-34.3456 106.255 29.8205)
(-25.0379 99.2659 29.421)
(-22.7136 170.402 81.8312)
(-5.27564 109.232 57.6628)
(-21.0075 178.626 95.4211)
(-5.51349 126.607 82.2236)
(-14.3219 233.098 129.563)
(-20.1235 232.641 119.677)
(-16.6974 131.555 84.0856)
(-24.6359 110.626 58.5397)
(-29.7321 219.924 96.7595)
(-28.54 180.686 82.7413)
(-37.5587 178.31 110.152)
(3.17361 270.219 123.575)
(-15.6678 252.67 123.94)
(-28.7081 146.604 92.2219)
(-3.8565 282.417 132.918)
(-12.4272 295.634 185.579)
(-0.896463 289.331 142.954)
(-5.71072 234.324 156.331)
(-7.20469 184.733 135.124)
(-14.5513 228.412 161.014)
(-20.0893 195.335 140.862)
(-147.651 250.354 183.534)
(-71.3326 293.139 131.286)
(-174.47 211.738 183.583)
(-559.552 -35.5608 312.099)
(-347.476 228.418 214.946)
(-523.37 69.3659 365.687)
(-312.999 314.332 257.565)
(-235.017 651.168 574.908)
(-368.677 844.469 508.855)
(-150.837 549.496 393.959)
(-805.481 1038.68 854.724)
(-673.145 905.131 638.954)
(-815.891 624.395 782.086)
(-643.924 541.569 559.607)
(-721.357 1352.78 574.345)
(-624.1 1165.04 715.143)
(-359.786 830.225 616.644)
(-1017.95 1395.61 691.313)
(-934.737 1214.08 849.886)
(-971.009 803.529 821.604)
(-1030.55 1093.59 696.375)
(-43.313 348.776 232.449)
(-14.0857 233.829 156.666)
(-3.07853 298.365 149.895)
(-28.4233 332.68 209.555)
(3.22668 277.894 130.794)
(-17.0517 236.747 173.054)
(-26.3673 220.255 153.871)
(-505.555 1247.14 383.241)
(-811.138 1696.03 150.084)
(-775.107 1538.91 402.832)
(-1069.66 1861.91 172.724)
(-1041.13 1639.91 485.036)
(-957.129 1639.2 156.833)
(-966.88 1388.67 483.311)
(-94.2074 531.276 263.274)
(-268.895 759.41 290.173)
(-88.1307 541.259 212.31)
(-519.103 825.466 413.771)
(-437.645 815.788 336.23)
(-345.822 552.765 269.782)
(-457.82 533.983 347.163)
(-3.3292 321.066 105.175)
(30.2425 316.863 102.464)
(-11.1095 305.15 104.511)
(-13.7722 404.927 128.08)
(-45.3862 464.743 171.919)
(-93.209 358.4 137.118)
(-96.7291 427.19 179.486)
(-29.0086 399.27 187.781)
(-65.5603 440.869 270.807)
(-33.4509 376.153 167.228)
(-102.149 516.936 252.987)
(-157.976 575.523 367.308)
(-142.142 556.101 379.888)
(-117.609 495.291 261.581)
(-59.2086 344.526 173.973)
(-129.405 356.552 343.419)
(-142.947 289.525 245.77)
(-440.485 316.029 637.22)
(-497.086 194.086 487.562)
(-234.182 491.344 461.612)
(-276.125 404.305 345.428)
(-124.463 568.91 206.447)
(-299.951 817.743 358.239)
(-171.421 609.762 258.116)
(-408.79 832.676 341.495)
(-397.902 864.958 400.048)
(-298.4 571.66 252.88)
(-299.814 616.6 300.324)
(-219.622 663.626 356.132)
(-348.457 1129.19 701.761)
(-250.092 767.672 504.133)
(-382.641 935.149 517.605)
(-372.831 1122.93 732.402)
(-292.801 758.255 552.968)
(-305.338 672.465 405.271)
(-118.685 946.742 1528.4)
(-34.282 1131.74 1599.27)
(-33.4196 935.292 1520.48)
(-26.2649 913.643 1553.66)
(-22.2844 900.073 1357.03)
(-90.8924 894.311 1340.98)
(-102.947 918.018 1551.1)
(-334.588 1149.9 1585.19)
(-228.589 1143.85 1596.7)
(-211.368 960.335 1534.52)
(-276.172 901.472 1490.62)
(-232.133 814.867 1186.82)
(-166.159 868.114 1288.25)
(-189.725 913.361 1530.87)
(-201.478 107.863 307.672)
(-289.828 326.81 378.944)
(-591.75 350.945 625.826)
(-1135.57 963.555 1156.44)
(-510.434 400.513 945.895)
(-833.873 942.503 1416.51)
(-924.608 594.71 1331.09)
(-1034.97 889.724 1217.45)
(-36.0055 28.6639 84.457)
(-346.75 225.121 451.568)
(-275.652 184.779 415.359)
(-376.454 296.654 488.314)
(-296.913 252.137 439.046)
(-221.667 171.416 322.331)
(-272.544 141.926 326.917)
(-292.153 210.002 347.819)
(-391.128 435.997 555.71)
(-383.534 384.514 429.031)
(-526.135 529.922 663.307)
(-431.486 390.463 551.41)
(-331.199 330.329 480.715)
(-248.17 244.017 343.815)
(-325.535 286.208 376.733)
(-692.775 471.03 726.696)
(-441.359 277.454 516.055)
(-495.208 363.42 574.368)
(-348.161 193.359 361.338)
(-451.623 252.004 414.332)
(-505.634 334.981 461.066)
(-378.723 262.418 388.54)
(-581.164 525.678 1072.93)
(-675.995 480.884 1119.19)
(-782.585 637.949 1262.55)
(-457.987 320.853 668.566)
(-364.493 275.972 592.83)
(-517.772 420.699 752.276)
(-396.402 352.502 643.963)
(-0.003981 0.00318804 0.0105856)
(-3.36209 3.46089 9.5733)
(-220.993 224.536 344.014)
(-713.237 563.688 1431.1)
(-0.629555 0.502026 1.71797)
(-48.6531 45.5746 78.0206)
(-1055.65 683.98 1545.13)
(-524.371 478.455 520.09)
(-751.79 690.168 856.193)
(-756.932 637.562 680.805)
(-864.556 658.24 901.669)
(-589.992 488.764 676.192)
(-598.608 452.802 542.462)
(-432.99 350.974 435.328)
(-689.939 703.268 1243.91)
(-567.234 635.169 910.976)
(-799.128 809.245 1134.38)
(-1035.22 1050.92 1499.96)
(-924.051 847.831 1410.71)
(-624.106 570.393 902.716)
(-458.168 462.205 738.54)
(-1202.46 718.446 1493.22)
(-1249.83 863.52 1509.48)
(-1051.13 780.655 1443.42)
(-880.56 523.922 1056.51)
(-1058.69 719.297 1235.52)
(-612.078 397.177 808.656)
(-722.029 536.067 949.5)
(2.61265e-09 1.5333e-09 5.09594e-09)
(4.26894e-11 3.14011e-10 1.15255e-10)
(6.1638e-11 1.43606e-09 7.61056e-10)
(0.0303962 0.0130731 0.00674968)
(0.00326087 0.00140037 0.0003695)
(0.000991191 0.000644158 0.000152606)
(0.000782678 0.000570574 9.62332e-05)
(0.00143348 0.000584972 0.000213046)
(1.36952e-05 3.86069e-06 3.91868e-06)
(0.000533909 0.000448632 0.000104723)
(4.46882e-05 3.51181e-05 1.3817e-05)
(1.20044e-06 3.89397e-07 4.73664e-07)
(4.14582e-09 -2.99644e-09 5.33097e-09)
(2.2832e-06 1.58793e-06 1.27114e-06)
(8.88744e-08 5.54692e-08 1.14116e-07)
(8.31889e-10 5.52271e-09 2.0876e-10)
(1.53283e-08 1.77438e-07 3.88389e-08)
(0.91148 0.296589 0.131292)
(0.103974 0.0183614 0.0218755)
(0.733017 0.404889 0.196642)
(0.00975102 0.00437473 0.00117906)
(2.47553 0.809757 0.664066)
(0.0374199 0.00678598 0.00425211)
(0.22674 0.132685 0.0342443)
(0.540033 0.175261 0.0537005)
(0.00566089 0.00250287 0.000447238)
(0.0132495 0.00237881 0.00136873)
(0.0741819 0.0439466 0.0103496)
(0.0222047 0.00404924 0.00175441)
(0.127547 0.0760149 0.0122064)
(0.33503 0.10612 0.0419963)
(0.0565796 0.0161479 0.0124408)
(0.00616764 0.00106567 0.000898529)
(0.0339467 0.0196684 0.00503586)
(0.000438224 0.00017051 9.34692e-05)
(0.167451 0.0506418 0.0291542)
(0.0019194 0.000317864 0.000357917)
(0.0106817 0.00616312 0.0030363)
(0.0124099 0.00346456 0.00289513)
(8.82977e-05 3.44461e-05 1.94127e-05)
(5.68386e-05 8.94755e-06 1.43317e-05)
(0.000303875 0.000170822 9.43299e-05)
(0.000408199 6.70642e-05 8.13137e-05)
(0.00219965 0.00127066 0.000555589)
(0.00177841 0.000487963 0.000500049)
(1.26271e-05 3.19138e-06 5.40461e-06)
(5.45859e-06 8.36157e-07 1.74212e-06)
(2.89676e-05 1.63538e-05 1.13943e-05)
(1.74938e-07 -1.52233e-08 1.05539e-07)
(0.000174021 4.6136e-05 6.06284e-05)
(3.98961e-07 5.42622e-08 1.58737e-07)
(2.16802e-06 1.07313e-06 1.09763e-06)
(7.30309e-07 1.74587e-07 3.73048e-07)
(9.71746e-09 -1.9768e-09 9.33924e-09)
(1.87813e-09 5.63778e-09 -4.65944e-09)
(1.06427e-08 -4.0415e-10 1.04253e-08)
(2.33558e-08 2.90775e-09 1.09687e-08)
(1.2472e-07 5.94451e-08 7.75221e-08)
(3.5204e-08 1.7854e-08 9.85846e-09)
(3.34395e-08 2.59558e-07 1.99345e-07)
(1.09756e-09 7.04842e-09 5.6111e-09)
(8.50534e-10 6.62044e-09 3.52648e-09)
(5.37139e-09 9.57768e-08 1.4226e-08)
(2.13384e-08 2.23494e-07 6.02453e-09)
(8.301e-10 1.0864e-08 4.72092e-10)
(8.75439e-10 6.70451e-09 -3.892e-09)
(3.09604e-08 4.33097e-07 1.39214e-08)
(7.29228e-09 5.54059e-08 3.78695e-09)
(6.7788e-10 7.83777e-09 -3.57922e-09)
(98.7884 182.654 42.6342)
(0.00166431 0.0127353 0.0002421)
(0.0961161 0.248516 0.0381455)
(3.84797e-06 3.42402e-05 6.29347e-06)
(0.00391704 0.00995765 0.00203965)
(1.472e-07 1.84705e-06 1.81605e-07)
(6.96411e-05 0.000146821 6.15992e-05)
(9.26837e-10 1.97623e-08 6.72337e-09)
(1.02491e-08 1.71365e-08 5.03215e-08)
(3.62758e-10 1.3999e-09 1.28786e-09)
(0.0933521 0.432951 0.0101612)
(0.0321981 0.0351124 0.00105425)
(3.63681 8.72584 2.95914)
(0.00169754 0.00898825 0.00205377)
(0.000115782 0.000149426 3.24403e-05)
(2.47317e-05 4.50007e-05 2.5309e-06)
(2.94885e-05 0.000250394 5.19558e-05)
(6.12254e-06 1.50956e-05 2.8564e-06)
(0.000210898 0.00113872 0.000248054)
(5.24185e-05 7.74385e-05 1.61889e-05)
(0.0289618 0.0737829 0.00840766)
(1.95517e-05 0.00010992 1.11123e-05)
(3.00597e-05 5.03539e-05 5.44261e-06)
(9.01596e-07 2.45847e-06 3.52603e-07)
(3.76998e-07 4.24158e-06 4.69404e-07)
(4.5718e-07 1.22837e-06 1.50443e-07)
(7.9435e-06 4.73495e-05 5.72195e-06)
(8.0815e-06 1.22374e-05 2.04116e-06)
(0.000144467 0.000424363 0.000129996)
(1.38529e-07 2.80418e-06 6.39173e-07)
(1.98696e-06 2.20236e-06 6.27889e-07)
(1.40442e-07 3.24345e-07 3.99403e-08)
(4.75977e-09 1.55779e-07 3.18199e-08)
(3.46285e-08 7.08502e-08 1.92314e-08)
(0.000252914 0.00421873 0.00138266)
(2.42981e-07 1.0972e-06 6.66895e-07)
(4.14192e-08 4.96444e-07 1.74054e-07)
(1.21032e-07 1.20146e-07 7.61797e-08)
(1.23632e-06 2.58214e-06 3.49468e-06)
(2.18936e-10 4.01877e-09 1.48342e-09)
(3.55552e-09 3.65517e-09 3.83476e-09)
(1.45895e-09 3.04114e-09 1.58305e-09)
(3.71594e-12 1.10619e-10 3.26518e-11)
(5.42208e-11 1.21878e-10 1.11721e-10)
(1.07824e-05 3.26953e-05 4.66987e-06)
(0.000849047 0.00163947 3.22363e-05)
(3.28256e-05 0.000364811 6.26118e-06)
(0.000891425 0.00696795 0.000899069)
(0.000449334 0.000876601 0.00014054)
(1.71896e-05 0.000195603 2.42232e-05)
(2.20064e-05 6.02043e-05 1.1248e-06)
(-4.67439e-08 3.90446e-07 3.07873e-08)
(2.14821e-06 6.63639e-06 9.03265e-07)
(6.72276e-08 1.07873e-06 1.59514e-07)
(1.20581e-06 1.18581e-05 9.57653e-07)
(-1.83547e-08 4.77822e-07 5.18404e-08)
(8.03085e-07 3.86003e-06 2.70581e-07)
(1.79708e-08 4.85881e-07 3.07137e-08)
(-5.26506e-09 6.81672e-08 6.88424e-09)
(1.5162e-07 9.46637e-07 8.6962e-08)
(1.47816e-09 7.94842e-08 6.40141e-09)
(3.98961e-08 9.44693e-07 1.15914e-07)
(-3.99181e-09 7.77737e-08 7.27065e-09)
(7.47219e-08 7.76015e-07 8.83713e-08)
(6.66874e-11 5.33246e-08 4.94837e-09)
(-5.36697e-11 3.98918e-10 1.11493e-10)
(1.95791e-09 1.73457e-08 7.35292e-09)
(1.45006e-11 7.25497e-10 2.36861e-10)
(4.11535e-10 1.04095e-08 1.84759e-09)
(-4.03444e-11 7.69068e-10 3.26226e-10)
(7.77013e-10 1.00685e-08 1.66935e-09)
(3.88094e-12 3.04437e-10 5.01742e-11)
(6.86169e-08 1.09805e-07 8.39387e-08)
(1.48177e-10 5.30441e-10 9.56376e-11)
(6.75963e-10 4.17242e-08 4.30132e-08)
(2.73938e-09 1.07519e-08 5.20078e-09)
(7.2732e-11 2.84553e-10 1.3777e-10)
(5.13663e-10 2.53132e-09 1.92664e-09)
(6.44766e-11 9.91748e-11 1.13274e-10)
(4.73829e-10 7.0093e-09 1.49835e-09)
(1.33734e-11 1.33992e-10 3.44575e-11)
(0.293652 0.4335 0.0794135)
(5.64739 13.6859 0.480378)
(0.0261306 0.040286 0.00103098)
(0.0509361 0.242311 0.0343833)
(3.18112 7.97287 1.42812)
(0.0142506 0.0221529 0.00371055)
(0.524989 0.767459 0.0239153)
(0.0760606 0.116218 0.0290545)
(0.0123932 0.0626183 0.0122749)
(0.105715 0.307205 0.0846403)
(0.000495814 0.000856713 0.000226148)
(0.792827 2.11902 0.528145)
(0.00356464 0.00567217 0.00126582)
(0.0110627 0.0176947 0.00514601)
(2.38433e-06 8.29178e-06 1.39249e-06)
(0.000214345 0.00175786 0.00030622)
(1.46169e-05 3.44174e-05 8.52767e-06)
(5.08598e-07 6.8797e-06 1.32983e-06)
(0.000109816 0.000219229 3.94173e-05)
(4.0362e-06 4.79717e-05 7.75839e-06)
(-1.42522e-07 2.03845e-06 4.44277e-07)
(0.000419259 0.000763111 0.000105417)
(0.0124063 0.0368437 0.00989372)
(6.50319e-05 0.000131967 2.701e-05)
(6.18098e-05 0.00033185 3.33223e-05)
(0.00141816 0.00243673 0.000613711)
(0.00336257 0.00967694 0.00123436)
(2.15353e-05 5.50686e-05 5.74724e-06)
(0.000260955 0.000483825 3.05834e-05)
(3.58907e-05 0.000192698 1.3401e-05)
(0.00106759 0.00299121 0.000314633)
(8.38195e-06 2.5001e-05 3.4271e-06)
(0.00190185 0.00531098 0.000418902)
(1.42229e-05 3.74244e-05 2.89922e-06)
(0.000154685 0.00029933 4.6877e-05)
(-9.80989e-09 2.48033e-07 2.26878e-08)
(7.20237e-07 7.33597e-06 5.18123e-07)
(3.06424e-07 1.87081e-06 2.83273e-07)
(4.84775e-09 1.82573e-07 2.26596e-08)
(5.69275e-07 2.79197e-06 1.85559e-07)
(1.228e-08 3.1668e-07 2.52042e-08)
(-2.28824e-08 1.80331e-07 2.59586e-08)
(3.39136e-05 7.67815e-05 1.44808e-05)
(0.00045659 0.00129458 0.000186751)
(4.04633e-06 1.22334e-05 1.46702e-06)
(2.15259e-06 1.77705e-05 2.72707e-06)
(7.14205e-05 0.000142843 1.61168e-05)
(0.000131023 0.000403702 7.38691e-05)
(2.03526e-06 8.9369e-06 1.03661e-06)
(1.72247e-05 4.81774e-05 9.29843e-06)
(5.03872e-07 5.78508e-06 1.17463e-06)
(3.60808e-06 3.7145e-05 1.02419e-05)
(4.97781e-07 3.27429e-06 5.99162e-07)
(2.62817e-05 0.00010217 2.09457e-05)
(8.6643e-07 4.93502e-06 1.20735e-06)
(1.141e-05 3.93061e-05 9.49536e-06)
(-3.04323e-10 2.23402e-08 5.87161e-09)
(1.18061e-08 3.3983e-07 7.56649e-08)
(1.34368e-08 1.72398e-07 3.26302e-08)
(6.30676e-11 6.9291e-09 1.37084e-09)
(3.94295e-08 3.40614e-07 7.25904e-08)
(1.49475e-10 1.84688e-08 4.58535e-09)
(-1.40143e-09 1.0318e-08 2.43155e-09)
(1.14672e-06 1.19005e-05 4.55115e-06)
(-9.16398e-05 0.00419789 0.00143305)
(5.20872e-06 0.000141977 4.57748e-05)
(1.13584e-05 0.000310791 0.000126935)
(-1.42955e-06 0.000138799 4.4811e-05)
(3.92426e-06 0.000301797 0.000127055)
(-2.38674e-06 1.5387e-05 6.58776e-06)
(1.1377e-07 5.18712e-07 1.87839e-07)
(-1.30896e-07 4.65786e-06 1.65122e-06)
(5.16263e-08 4.37205e-06 1.44938e-06)
(-1.92371e-07 6.62701e-07 2.62265e-07)
(3.08257e-07 9.85715e-07 4.57337e-07)
(1.1479e-06 1.72548e-05 8.73912e-06)
(3.79478e-06 5.29034e-06 2.02346e-06)
(-6.82026e-08 1.45193e-07 1.52143e-07)
(2.57137e-06 1.90821e-05 9.5908e-06)
(-6.21203e-08 7.45203e-07 4.90058e-07)
(3.13397e-07 4.86642e-07 1.15621e-07)
(2.65219e-08 5.63965e-08 2.74963e-08)
(-1.55342e-09 7.7581e-09 4.07751e-09)
(-6.91484e-09 3.5549e-08 2.51464e-08)
(1.8465e-08 3.05185e-08 6.21158e-09)
(2.84484e-06 1.07537e-05 2.92228e-06)
(2.23129e-06 1.22879e-05 4.0062e-06)
(7.46434e-08 4.24178e-07 2.45249e-07)
(2.74614e-08 3.42914e-07 7.24103e-08)
(2.17532e-06 6.74786e-06 3.61977e-06)
(1.90011e-06 1.10586e-05 3.10456e-06)
(5.2022e-08 3.35646e-07 6.52349e-08)
(8.14418e-08 3.03334e-07 2.84679e-07)
(1.08374e-09 1.77845e-08 1.23794e-08)
(1.58693e-08 1.46296e-07 7.91275e-08)
(3.30505e-10 2.23436e-09 1.20036e-09)
(4.7257e-08 3.63361e-07 3.04478e-07)
(2.91549e-09 1.91864e-08 1.5584e-08)
(1.75581e-08 6.22733e-08 4.10522e-08)
(-3.21069e-12 2.78689e-11 1.47341e-11)
(1.88285e-11 6.55062e-10 3.38952e-10)
(2.31532e-12 7.51349e-11 3.21367e-11)
(-5.00222e-14 3.12308e-12 8.546e-13)
(5.37008e-11 6.84146e-10 3.60377e-10)
(1.40972e-13 2.14115e-11 8.78211e-12)
(-3.5453e-12 6.48272e-12 4.94928e-12)
(4.57111e-09 1.23029e-08 4.28047e-09)
(5.89753e-10 1.18391e-09 2.28232e-10)
(4.86361e-11 1.69989e-10 5.57974e-11)
(9.72334e-09 1.86485e-08 7.06655e-09)
(1.9891e-10 4.82998e-10 1.59877e-10)
(4.37976e-09 9.52122e-09 4.71161e-09)
(1.35679e-09 3.46846e-09 1.7755e-09)
(2.21447e-11 7.20745e-11 5.37484e-11)
(1.89856e-11 3.0371e-11 6.49108e-12)
(3.66766e-10 4.97752e-10 2.04897e-10)
(6.14104e-11 4.23416e-10 2.50109e-10)
(2.59563e-12 1.22169e-11 6.4163e-12)
(1.81243e-11 3.41014e-11 1.23151e-11)
(1.09854e-12 2.76921e-12 -3.50352e-13)
(7.73893e-10 3.3107e-09 3.06207e-09)
(3.0094e-11 1.89637e-10 1.1515e-10)
(8.84108e-10 4.2945e-09 4.20666e-09)
(1.8554e-11 1.32645e-10 8.44838e-11)
(1.14937e-11 8.71647e-11 3.06004e-11)
(4.58468e-10 2.64905e-09 2.02347e-09)
(8.25968e-12 7.96594e-11 2.95007e-11)
(3.50544e-12 3.24978e-11 1.18639e-11)
(3.89743e-09 1.81198e-08 2.05358e-08)
(4.59331e-11 1.68801e-09 9.96596e-10)
(844.838 1242.41 92.4251)
(510.793 760.957 393.991)
(180.486 302.33 135.011)
(19.3328 32.3406 6.11162)
(9.55318 15.7468 3.97799)
(0.114876 0.170403 0.0630461)
(0.00628552 0.126162 0.0451339)
(3.77104e-06 2.42035e-05 1.49908e-05)
(0.0113499 0.0165711 0.00741022)
(1.94004e-06 2.67227e-06 2.33567e-06)
(6.44631e-08 1.09099e-07 8.72757e-08)
(1.66522e-08 4.10084e-07 8.88591e-08)
(-5.46323e-07 2.39494e-05 2.00393e-05)
(3.14016e-07 1.02285e-06 7.91485e-07)
(-2.5524e-08 9.02916e-07 9.50904e-07)
(6.19927e-08 4.09015e-07 1.92737e-07)
(341.799 333.357 91.1548)
(483.242 878.158 59.2433)
(407.76 377.876 32.5228)
(853.045 1224.73 284.428)
(527.172 907.451 164.013)
(338.329 321.108 97.2287)
(363.007 351.327 30.7105)
(272.079 259.024 122.721)
(798.447 1115.72 443.929)
(595.04 867.439 400.743)
(66.9855 61.2069 34.8407)
(607.987 946.899 310.761)
(199.629 195.627 96.0913)
(138.016 119.788 77.2681)
(18.8465 12.2486 4.00602)
(378.917 598.774 272.061)
(15.0516 12.3587 5.72204)
(59.7294 102.775 25.3663)
(46.7466 33.1472 19.4902)
(210.334 338.095 89.952)
(4.57913 3.86374 0.967419)
(11.3796 7.22614 1.65055)
(32.0451 54.2835 8.73389)
(104.161 157.958 35.7756)
(1.46148 1.25236 0.248544)
(140.972 219.549 40.9324)
(2.4793 2.12606 0.343424)
(7.50229 4.60159 1.31629)
(1.57957 0.840026 0.465229)
(68.8645 95.2598 30.5888)
(0.695362 0.594937 0.163228)
(3.37216 5.39232 1.68397)
(4.13487 2.3783 0.98363)
(33.7166 40.4246 17.5892)
(0.225858 0.192873 0.0667956)
(0.366351 0.186444 0.112916)
(0.771527 1.17184 0.381798)
(1.52148 1.47703 0.743176)
(0.00696054 0.00587695 0.00261102)
(9.63571 9.84946 4.82272)
(0.0487681 0.041508 0.0152156)
(0.0541788 0.0274272 0.018743)
(0.000391153 0.000184319 0.00019369)
(0.157277 0.148577 0.0834087)
(0.000675018 0.000561174 0.000315122)
(0.000820379 0.00118358 0.000651822)
(0.00539669 0.002653 0.00221307)
(0.0114646 0.0105348 0.00710177)
(5.01551e-05 3.84941e-05 2.97645e-05)
(2.22969e-05 9.97775e-06 1.31467e-05)
(4.62872e-05 6.63727e-05 4.4224e-05)
(3.02853e-05 2.56723e-05 2.55472e-05)
(1.67496e-07 4.5008e-08 2.30287e-07)
(0.000644527 0.000573529 0.000474052)
(2.80415e-06 2.14315e-06 2.02937e-06)
(1.05563e-06 4.38957e-07 6.86426e-07)
(-0.0107994 0.238988 0.117302)
(0.103587 3.61159 1.52465)
(-0.00376857 0.123841 0.0460305)
(0.000461792 0.00904247 0.00391397)
(-0.154719 3.50828 1.52154)
(0.0082191 0.260206 0.123593)
(-0.000250637 0.00850541 0.00382516)
(-0.000620573 0.012466 0.00729913)
(2.69971e-05 0.000500104 0.000262864)
(2.58315e-05 0.000631055 0.000422329)
(2.05516e-05 4.16722e-05 2.56305e-05)
(0.000486053 0.0141131 0.00799292)
(-1.30351e-06 0.000467567 0.000254024)
(-5.38639e-06 0.000566685 0.000387428)
(1.48649e-08 1.58096e-07 1.41746e-08)
(1.5577e-06 2.69718e-06 1.45701e-06)
(6.26175e-09 1.86861e-08 8.5759e-09)
(8.49571e-09 2.20526e-08 -4.41013e-09)
(1.02777e-07 7.25705e-07 8.01634e-08)
(5.9691e-08 2.73813e-07 8.92365e-08)
(1.38729e-09 1.27958e-08 -6.06736e-09)
(1.82092e-06 2.39155e-05 1.88508e-05)
(2.76615e-06 3.49087e-06 3.10753e-06)
(1.29647e-07 1.03831e-07 7.18607e-08)
(2.24968e-06 2.44891e-05 1.95939e-05)
(3.03414e-07 9.9793e-07 7.8934e-07)
(2.80026e-06 3.69832e-06 2.98993e-06)
(2.13063e-06 1.96569e-06 1.71769e-06)
(-2.73155e-08 4.90518e-07 6.3924e-07)
(1.92533e-10 6.76503e-10 3.8438e-10)
(3.75526e-09 4.67836e-09 3.70609e-09)
(9.24929e-10 1.35632e-08 1.28864e-08)
(1.04218e-08 4.71833e-07 4.28386e-07)
(4.71186e-09 2.55898e-08 3.06177e-08)
(1.05841e-09 1.4933e-08 9.96639e-09)
(-1.58666e-10 7.18002e-09 1.08611e-10)
(-2.56607e-13 6.03676e-13 1.60779e-14)
(-1.41631e-11 6.10163e-11 3.73088e-12)
(-1.46169e-14 3.73088e-14 1.13419e-15)
(-1.62085e-12 6.31662e-12 4.67589e-13)
(-3.2482e-16 2.25671e-15 0)
(0 2.11558e-14 8.06551e-15)
(0 -1.47176e-18 0)
(1.09727e-12 7.09591e-12 3.04049e-12)
(4.54747e-14 1.26055e-14 5.15377e-17)
(1.5165e-14 -1.07192e-15 1.41165e-14)
(8.86712e-15 4.98949e-17 -9.69616e-15)
(1.08056e-08 2.76004e-07 4.39842e-09)
(2.66135e-07 1.18452e-06 4.40914e-08)
(-2.64995e-10 5.58558e-09 9.46667e-10)
(7.02511e-08 3.9154e-07 6.51835e-08)
(-2.18489e-10 2.10311e-10 5.26338e-12)
(-4.58616e-13 3.5925e-13 1.49041e-14)
(-3.26371e-12 2.54853e-12 5.55599e-13)
(-1.06401e-13 7.34092e-14 2.16207e-14)
(-1.1596e-10 1.4642e-09 1.19462e-10)
(1.18738e-08 6.41279e-08 7.48946e-09)
(-3.88478e-11 3.79053e-10 5.41598e-11)
(5.82926e-09 2.82852e-08 2.90152e-09)
(-1.40858e-12 1.10114e-12 8.15297e-14)
(-2.37227e-14 1.52693e-14 1.19268e-15)