/*--------------------------------*- C++ -*----------------------------------*\
  =========                 |
  \\      /  F ield         | OpenFOAM: The Open Source CFD Toolbox
   \\    /   O peration     | Website:  https://openfoam.org
    \\  /    A nd           | Version:  9
     \\/     M anipulation  |
\*---------------------------------------------------------------------------*/
FoamFile
{
    format      ascii;
    class       volScalarField;
    location    "0.00325";
    object      rho.c4;
}
// * * * * * * * * * * * * * * * * * * * * * * * * * * * * * * * * * * * * * //

dimensions      [1 -3 0 0 0 0 0];

internalField   nonuniform List<scalar> 
27870
(
2.36431
2.42194
2.13641
1.98852
1.63856
2.12983
1.90238
1.583
2.51378
3.63022
4.96555
10.6165
0.736065
0.909156
0.805472
0.92355
0.960994
1.18949
1.03787
1.21445
1.31811
1.85196
1.58155
2.09467
2.18206
2.99713
0.762008
0.732314
0.703477
0.79783
0.697951
0.793473
0.768944
0.821533
0.856612
0.903522
0.881675
0.851106
0.828536
0.874688
0.981199
0.956331
0.932764
1.01887
0.925805
1.01575
0.987887
1.04935
1.09158
1.18663
1.14408
1.0894
1.05463
1.14129
1.40393
1.31133
1.26171
1.47571
1.25931
1.46281
1.40835
1.55106
1.63644
1.86846
1.75185
1.61295
1.56079
1.76588
2.17068
3.14374
3.68075
2.1822
2.03382
1.9864
2.82342
1.81786
2.60164
2.38659
0.675147
0.507738
0.849562
0.537889
1.07555
0.600362
1.16766
0.593563
2.43538
5.68594
0.522526
0.682897
0.722071
0.529612
0.715158
0.676627
0.518983
0.69617
0.540261
0.800677
0.998874
0.570537
1.03771
0.780141
0.604057
0.96852
0.554971
1.16442
1.13452
0.49062
1.29854
1.20901
0.575005
1.31208
1.3036
1.61146
0.493772
1.55475
1.5504
0.830998
2.26023
1.59002
1.06695
2.4453
0.535856
0.586865
0.4997
0.508728
0.589508
0.500229
0.53291
0.683656
0.647923
0.556409
0.564491
0.615199
0.703151
0.60595
0.892506
0.823596
0.722655
0.588057
0.864302
0.821581
0.734317
1.18585
0.858566
0.822721
0.651466
1.03946
0.949112
0.932401
1.77249
1.06322
3.33658
3.54281
3.68262
2.67491
4.59591
4.54526
3.89828
0.684071
0.671791
0.642864
0.52209
0.672316
0.644769
0.682335
0.693284
0.52258
0.696126
0.666535
0.678743
0.65093
0.716445
0.544674
0.510936
0.612698
0.522854
0.595649
0.505663
0.568793
0.818942
0.729216
0.693742
0.553322
0.758474
0.780119
0.735551
0.887726
0.568548
0.881106
0.818985
0.837275
0.785838
0.943238
0.760057
0.591485
0.808166
0.699701
0.764583
0.659171
0.822729
0.988563
0.904267
0.825107
0.528865
0.97466
0.907743
0.810454
0.997059
0.50486
0.893335
0.776737
0.902152
0.78937
1.00725
0.919917
0.576609
0.823539
0.768946
0.817159
0.74555
0.961706
1.01768
1.23129
1.08956
1.36925
1.00452
1.26352
1.10714
0.88433
0.900475
0.86699
0.923693
1.05843
1.45875
1.46342
1.29768
1.32421
1.15943
1.1716
0.916464
1.09754
0.97008
1.02691
1.08985
0.897867
0.787656
0.525666
1.03162
0.927614
0.846022
1.21281
0.617552
1.17995
1.2998
1.00191
0.994321
1.46023
1.45839
0.786473
1.50799
1.56649
1.1408
1.15341
1.94431
1.26822
0.896437
1.76731
1.1217
1.47784
1.56678
1.80762
7.18022
12.0859
7.17056
5.00057
9.06637
6.87735
17.614
1.92812
1.4231
1.53937
1.93835
2.30597
2.19745
2.93056
69.7103
3.698
11.825
0.564596
0.633282
0.699722
0.922225
0.972069
1.1504
1.3292
1.68214
1.24659
1.65287
1.81469
2.65574
2.13369
1.84339
3.26922
3.27734
0.553646
0.521376
0.563713
0.572134
0.530138
0.572859
0.543401
0.57222
0.591096
0.589659
0.631765
0.548661
0.591787
0.612153
0.742389
0.651729
0.693221
0.781702
0.671921
0.725444
0.766584
0.806974
0.85959
0.847716
0.890466
0.792752
0.834441
0.861026
0.958672
0.895323
0.93813
1.01954
0.908394
0.945138
0.987208
1.02238
1.0762
1.08797
1.12977
1.00714
1.04839
1.10737
1.34437
1.18908
1.23547
1.36662
1.21445
1.31187
1.36723
1.48717
1.49762
1.60804
1.67925
1.44602
1.50887
1.67357
1.43231
1.25867
1.38246
1.42643
1.34552
1.35927
1.45776
1.52656
1.54022
1.60532
1.67629
1.47024
1.54542
1.64762
1.99763
1.65924
1.86842
2.13557
1.69483
1.94622
2.20623
1.72554
1.83937
2.11851
1.80085
1.99378
2.06943
2.10421
3.2161
5.5207
5.89675
3.41082
3.01839
4.0952
4.17528
0.721532
3.60332
0.901569
5.1559
1.69507
14.6597
2.65331
15.1559
1.73629
10.4989
0.000588868
16.9194
0.621936
0.733618
0.67614
0.755589
0.761861
1.68419
0.847665
1.77343
0.747486
0.904578
1.14693
1.46065
0.961326
2.40943
1.25645
1.45036
1.52393
1.6291
1.71568
2.07417
4.12829
3.65801
1.37175
6.09388
4.6105
7.90875
0.837186
1.46686
1.10175
0.799026
0.861971
1.5365
1.15135
1.04039
2.04274
1.45315
1.5105
1.7789
2.35256
2.38138
2.29999
3.6576
6.16053
2.23268
2.83
5.11545
9.6219
4.25468
7.40334
14.5674
6.9386
8.91471
12.2243
21.0893
5.46836
6.2368
9.97993
8.53438
17.5549
0.556758
0.539642
0.61343
0.627105
0.542476
0.618819
0.552902
0.568021
0.640675
0.57827
0.673029
0.552153
0.633179
0.598234
1.07671
0.897655
0.91056
0.770169
0.904162
0.92142
1.06657
1.11756
0.792599
1.02184
1.03168
0.93537
0.95193
1.22702
0.74216
0.629503
0.751855
0.8633
0.655559
0.705408
0.873701
0.844628
1.00727
0.869187
1.17773
0.79212
1.02554
0.942767
1.84488
1.20725
1.19499
1.15346
1.45629
1.50943
1.47173
1.08033
0.925227
1.30235
1.33933
1.02058
0.965468
1.39803
1.13719
1.41783
1.05734
1.59864
1.00344
1.48512
1.21176
1.55037
1.15343
1.79649
2.09407
1.33333
1.3312
2.18366
1.95376
2.81288
2.38904
4.24925
1.69504
2.9211
2.70406
2.45088
1.11386
2.04338
2.11475
1.68191
1.76806
2.8818
3.7356
3.35561
5.46065
7.12657
2.88577
4.34453
6.22255
0.71072
0.877952
0.730572
0.7195
0.889612
0.857979
0.846189
0.895581
1.13345
1.07029
1.06545
1.3809
1.3252
1.089
1.70234
2.4216
1.84333
1.85623
2.735
2.64341
2.33257
2.66779
4.41929
3.37597
3.42175
5.65992
5.61762
4.33885
2.22104
2.41038
2.75085
2.82356
3.62773
4.50011
3.48758
23.4443
22.4217
28.856
27.0876
51.1809
39.8304
49.089
11.4014
21.9379
26.5238
64.2426
0.749929
0.791105
0.98618
0.739102
0.916468
0.883073
0.949089
1.28833
1.51144
2.0821
1.28515
1.71556
1.64533
1.99958
1.99792
2.24309
3.62682
2.01205
3.09922
3.00303
3.52546
4.62148
6.92675
11.5168
4.68456
7.78328
7.7349
11.361
3.6796
6.48015
8.51045
4.04915
5.30819
6.38168
10.0026
2.07487
8.03699
8.32182
3.78082
2.1829
8.23207
8.54573
2.96717
10.3456
10.8686
9.28892
8.90808
15.9118
17.2999
15.9607
19.4839
23.0659
16.8788
21.1008
19.0361
23.5736
21.3666
7.06594
0.574938
16.9988
21.3817
0.0116503
0.051403
3.63856
0.353917
4.52826e-05
2.05547e-07
36.1331
6.71789
10.3254
6.32542
21.735
5.8563
5.50883
10.7677
13.352
6.27031
13.9096
5.2544
3.20304
2.45123
4.13392
1.00543
1.52897
3.24796
5.40419
0.0143167
34.1023
14.6801
31.1726
1.28642
1.19186
2.65082
1.03918
1.32928
1.24455
3.18381
1.59772
1.57477
4.0505
1.89444
2.48273
2.64572
8.53358
4.41502
7.27524
18.4518
3.40498
10.5261
11.8842
29.8801
19.5462
18.0269
28.6889
12.0891
25.3071
22.626
27.2894
66.9817
14.7425
21.7448
45.5432
49.2649
36.0569
55.0866
12.0705
15.9422
20.8915
0.00390806
4.2084e-09
9.42263e-05
9.34782e-09
4.06134e-06
1.23142e-10
6.75316e-08
1.85679e-13
5.31198e-12
2.22045e-16
4.90101e-15
2.22045e-16
8.76916e-06
8.17057e-15
2.22045e-16
2.22045e-16
6.66659
9.67878
26.0895
29.0183
49.5157
0.423747
6.64652e-13
2.22045e-16
2.22045e-16
2.22045e-16
1.36596
1.28717
1.25344
1.18979
1.16561
1.34161
1.27072
1.24972
1.37178
9.23261e-08
5.71012e-05
1.65255e-10
2.65962e-07
2.67152e-12
2.95616e-09
2.87081e-16
9.62247e-14
2.22045e-16
2.22045e-16
2.22045e-16
14.9954
0.0052795
1.4776e-06
1.85489e-08
5.32058e-12
1.92989
26.029
26.7801
11.9321
7.40165
19.0536
9.44714
14.774
48.0331
73.7366
14.2468
0.873585
0.899375
1.23262
1.62955
2.33243
3.01276
4.37863
5.80982
10.1641
32.6172
4.52627
5.45083
3.53779
4.41628
5.31369
3.56999
4.73202
5.88244
4.49348
0.83674
1.05652
0.697399
0.946156
1.21289
1.02071
0.740494
0.687629
0.66163
0.764325
0.669391
0.764697
0.721718
0.718422
0.628423
0.649585
0.69224
0.846512
0.852681
0.982812
0.909592
0.869022
0.812182
0.963832
0.821422
0.884547
0.786576
0.933934
1.10825
1.07751
0.983078
1.06871
1.05528
1.13926
1.02604
1.06663
0.956068
1.01931
0.995974
0.630055
0.730516
1.01935
1.11094
1.85645
0.647335
0.681722
0.715171
0.786441
0.958139
1.06072
1.11971
1.09463
1.24884
1.2894
0.66181
0.65491
0.619508
0.635606
0.660474
0.622596
0.658488
0.768853
0.777653
0.675583
0.795797
0.721883
0.855321
0.727309
0.966674
1.0751
0.940822
1.05543
0.947661
1.10553
0.972447
1.0017
1.14728
1.01541
1.13461
0.985144
1.17054
1.0344
1.4038
3.28812
0.688806
0.658926
0.69181
0.653704
0.66417
0.694952
0.68512
0.629088
0.593554
0.593876
0.629133
0.687609
0.728355
0.728929
0.687693
0.671863
0.650471
0.716282
0.647059
0.677776
0.630538
0.692632
0.699856
0.672238
0.726756
0.738094
0.682995
0.707611
0.726134
0.626941
0.599688
0.594197
0.628869
0.687043
0.743185
0.731918
0.690509
0.83025
0.797801
0.789165
0.880678
0.769881
0.888871
0.862223
0.688944
0.622761
0.645277
0.677532
0.731125
0.766621
0.700476
0.805079
0.836261
0.876435
1.01917
0.883757
0.940434
0.803979
0.903617
0.900669
0.978354
1.07042
1.01399
0.985937
0.944342
0.961744
0.753021
0.8407
0.758665
0.815359
0.780943
0.89469
0.855325
0.827732
1.00908
1.12815
1.05695
1.16268
0.998734
1.16338
1.07591
0.879914
0.899784
0.858135
0.932903
0.860415
0.912444
0.853369
0.911369
0.973616
1.07765
1.13494
1.00284
1.12262
0.990344
0.977843
1.00794
1.20308
1.20807
1.08589
1.18718
1.08358
1.00464
0.892592
0.963168
0.952166
0.900162
0.861246
0.896776
0.903213
0.861762
0.917456
0.969475
0.905534
0.980595
1.03852
1.17977
1.34351
1.14849
1.22042
1.06874
1.13294
0.941774
1.08594
1.00263
1.03529
1.27531
1.06921
0.799138
0.823876
1.07697
1.33351
1.45191
0.548192
0.59984
0.727405
0.935133
1.11273
0.631175
0.648152
0.868961
1.08836
1.2276
1.29997
1.34179
1.65351
0.596457
0.835677
0.596558
0.668989
0.670931
0.745345
1.01157
1.07176
1.2472
0.602037
0.600302
0.609438
0.592705
0.62243
0.674651
0.629953
0.665651
0.814239
0.743734
0.731711
0.8279
0.891639
0.902215
1.11213
0.606966
0.570047
0.623202
0.603659
0.577831
0.629924
0.599524
0.628057
0.624303
0.643326
0.697663
0.59821
0.650878
0.673712
0.843167
0.712001
0.775305
0.839819
0.746621
0.79706
0.880082
0.942377
0.934096
0.941541
1.08476
0.877266
0.990815
1.02605
1.14539
0.993143
1.15397
1.12426
1.09027
1.04303
1.20722
1.20252
1.18016
1.17283
1.31584
1.10102
1.25808
1.26847
21.4622
102.581
71.4645
9.55963e-06
0.00512455
3.33342
9.97271
4.07648
12.3944
22.4962
33.6348
97.4287
1.37405e-05
106.045
4.24548e-06
125.059
3.15951e-06
1.68158
0.584538
0.584641
0.635685
1.24455
1.77969
10.5453
7.69206
22.9255
0.000302815
0.743585
0.720417
0.723013
1.46091
2.14866
13.0343
9.66111
9.86225
7.07393e-06
1.54366
1.27944
1.31825
2.96953
5.34586
33.9765
0.00215423
1.44712e-05
2.80731e-08
1.99996
1.49198
1.51408
5.30021
14.2581
60.382
33.5894
1.63878e-10
1.32131e-09
7.68002
2.06639
4.45892
1.03902
60.7433
10.7226
0.208644
46.9423
22.1298
5.81075
94.1528
9.9885
2.54189
68.7164
0.55267
0.607671
0.585257
0.627249
0.582823
0.559666
0.619226
0.661313
0.57766
0.60353
0.652094
0.651633
0.805584
0.650368
0.835031
1.33355
1.9094
2.74591
1.28561
1.42179
1.94283
3.01396
3.44285
4.00114
4.52416
1.92214
3.91113
4.42991
6.21652
0.698208
0.915966
0.738426
0.633259
1.00757
1.19077
0.783706
1.13349
0.962428
0.934756
1.30231
1.55113
2.24694
3.40661
1.9719
2.62117
4.01672
6.99139
4.66588
5.03924
7.90047
4.08671
9.44172
10.5617
14.4844
1.16749
1.36402
1.32396
1.3575
1.25777
1.82957
1.63919
1.48546
1.48284
1.12447
1.91877
1.63854
2.66542
3.29712
7.02676
9.6082
4.47965
6.44338
13.0133
24.2087
10.9461
14.4156
16.9923
11.49
13.8093
32.3952
17.9064
1.55313
1.37443
1.73113
1.61857
1.66435
1.55695
2.31874
1.80995
1.68554
1.14513
1.63286
1.31461
2.80282
2.09439
5.94147
7.94036
24.4893
30.8925
16.2758
18.2456
46.8319
47.2858
16.019
37.9762
18.8956
15.1356
10.7005
41.0609
29.1858
1.21842
8.18194
6.7263
10.6581
5.38941
35.3377
14.5774
0.889874
5.40065
4.18286
4.60713
3.80238
12.2613
6.38306
1.08922
1.91234
1.2755
2.25172
2.47131
7.22953
4.16632
51.2532
13.7296
75.5335
0.756971
0.783554
0.864901
1.18784
0.862931
1.1227
0.886472
1.21355
0.893093
0.923342
1.44124
0.977684
1.53537
1.03263
1.6964
1.24966
1.90696
1.41376
1.90156
2.27063
1.95987
3.18914
2.09707
3.38991
2.29276
4.06415
2.93472
2.60797
3.44899
2.67405
6.65856
3.23377
5.21085
3.75096
13.7014
6.60721
0.603973
0.581778
0.609783
0.593909
0.589279
0.615845
0.599723
0.641113
0.624053
0.63033
0.536568
0.484419
0.490169
0.530301
3.21706
2.86565
2.04591
1.78577
2.8733
2.0558
3.20448
0.772225
0.695441
0.723794
0.827855
0.69065
0.787657
0.818694
0.692715
0.80544
0.757285
0.679607
0.540478
0.610664
0.587853
4.71474
3.49516
2.4986
2.55251
3.92729
4.20553
2.97318
1.19992
1.17288
1.23474
1.38579
1.13407
1.25367
1.31631
1.50197
1.1633
1.28121
1.20766
0.867122
1.08067
0.937926
13.567
9.13995
6.35237
7.01999
10.2988
11.9734
8.40136
1.25449
1.33915
1.35981
1.50108
1.24575
1.35851
1.35929
2.01821
1.43265
1.84671
1.49707
0.994474
1.3886
1.03716
29.6081
22.7908
17.721
18.2475
25.862
26.5523
22.2245
9.00958
3.26635
3.75011
2.48932
1.03285
4.60866
4.76528
1.86242
0.918058
1.407
4.12226
3.37468
4.10296
3.26696
2.11886
0.944835
1.49061
1.71522
1.32674
1.5546
2.37977
50.2725
68.2355
23.5873
13.827
48.6554
25.2265
76.3037
8.87714
40.359
25.2919
21.1989
16.6096
60.26
44.4332
0.62131
0.583752
0.611005
0.594858
0.597049
0.618575
0.611674
0.566673
0.589598
0.598874
0.574395
0.409866
0.414664
0.566135
0.651646
0.634763
0.640027
0.645229
0.642224
0.616842
0.669706
0.675956
0.621317
0.637188
0.684392
0.618504
0.598303
0.656014
0.591474
0.438825
0.423021
0.625411
0.668212
0.686403
0.655349
0.702777
0.597073
0.586564
0.598858
0.609521
0.59275
0.602114
0.594101
0.607725
0.623587
0.627084
0.605294
0.59147
0.581424
0.582238
0.589632
0.615488
0.613154
0.637691
0.664078
0.605283
0.630946
0.641667
0.606986
0.623252
0.636694
0.628855
0.606584
0.611064
0.629145
0.617399
0.664705
0.639481
0.638415
0.598337
0.596411
0.585198
0.61341
0.815564
0.679409
0.686371
0.645328
0.810565
0.821036
0.637152
0.638327
0.674739
0.65699
0.545797
0.512562
0.496923
0.568625
0.700478
0.879338
0.735407
0.660579
0.883026
0.840324
0.695067
1.36195
1.15395
1.51989
1.34061
1.16484
1.53081
1.34787
1.38818
1.36166
1.23278
1.6446
1.18452
1.56125
1.45486
4.75776
4.3725
3.71212
3.46174
4.38819
3.73313
4.73822
3.28855
1.81987
3.1057
2.22988
2.93133
2.10189
3.49072
4.86827
3.57363
4.77424
4.21912
4.48607
3.85509
5.18578
0.870995
0.751656
0.743585
0.85693
0.75766
0.875147
0.849428
0.717643
0.691491
0.809837
0.768252
0.464864
0.682566
0.505366
0.854848
0.740545
0.763056
0.825325
1.02385
1.01369
1.22164
1.15946
1.03723
0.992973
1.20273
0.938042
1.09608
0.906369
0.887443
0.648199
0.567252
1.03416
0.984196
1.09473
0.947528
1.14288
0.750028
0.709827
0.678192
0.787144
0.890685
0.971799
1.0531
1.10357
0.913601
0.951309
1.02452
0.858814
1.03999
0.90318
0.982873
0.801639
1.09945
0.911684
0.86208
0.963329
0.758792
1.09386
0.863475
1.11432
1.01
0.785255
0.765874
0.663872
0.927328
1.57778
1.078
1.3056
1.01483
1.5496
1.2867
1.21826
1.81058
1.33101
1.8127
1.77702
1.58569
1.49689
2.10324
2.15136
2.12397
2.09257
3.20804
1.74655
2.55355
2.63033
7.07153
5.402
5.02304
5.95031
5.86702
6.52407
6.38697
5.96218
3.18016
6.94026
4.81672
5.3266
3.71993
7.78194
8.92351
7.6559
10.6096
10.1029
8.24915
8.20312
11.4811
1.51397
1.40179
1.31289
1.4893
1.3769
1.55543
1.42039
1.39231
1.02916
1.11702
1.29358
0.726559
1.18076
0.777699
1.40036
1.22553
1.29502
1.30468
1.60008
1.5822
1.77548
1.49175
1.67814
1.47595
1.63944
1.53532
1.16227
1.18154
1.36016
0.801254
0.798224
1.38357
1.45214
1.3379
1.33603
1.46324
1.13748
1.15454
1.08147
1.22027
1.23266
1.45093
1.32491
1.36514
1.30049
1.35502
1.24473
1.13542
1.10026
1.20438
1.06662
1.17761
1.05036
1.1484
1.16412
1.25355
1.2486
1.17346
1.09094
1.02796
1.01762
1.10078
2.29562
1.57758
1.85374
1.67468
1.87289
1.45239
2.21929
1.35091
1.39075
1.73956
1.28735
0.981697
0.971188
1.33503
3.01065
2.09544
2.3018
1.84888
2.81496
2.53901
1.98132
4.05276
2.53826
4.11659
4.16704
3.26513
3.06359
5.31178
4.9762
5.22594
4.26829
8.62629
3.63561
6.80065
6.06212
18.3059
13.558
11.6862
12.0683
14.6841
16.9053
12.8336
17.4746
9.1009
18.9352
14.0971
15.3272
10.9839
21.6661
22.0433
12.9349
23.9567
14.5583
20.3984
13.6977
25.7435
1.64185
1.84627
1.48495
1.67729
1.64502
1.89732
1.48054
1.58478
1.24642
1.19942
1.38565
0.804876
1.38178
0.826795
1.44516
1.32697
1.45141
1.32102
1.65199
1.70486
2.07748
1.57176
1.9493
1.49469
1.74418
1.88532
1.65984
1.37167
1.41664
1.09007
0.894916
1.5721
1.45537
1.43075
1.32883
1.56979
1.17263
1.22589
1.0794
1.17057
1.15662
1.25102
1.0975
1.17114
1.2469
1.17212
1.24242
1.10292
1.0324
1.10056
1.04124
1.28511
1.53
1.49495
1.45406
1.39539
1.38076
1.35669
1.20457
1.21349
1.38866
1.20323
1.29131
1.13054
1.27514
1.17903
1.33819
1.24623
1.26796
1.11838
1.14309
1.06172
1.20328
3.82161
3.36539
2.51394
2.33418
3.08421
2.12051
3.46447
1.7058
2.9354
2.34624
1.74343
1.44067
1.15914
2.23257
4.10598
3.2704
4.54771
2.7205
5.56202
4.15578
3.45008
9.60155
5.06189
10.9627
10.2943
7.46511
6.24958
14.1935
13.1533
14.7898
12.8742
26.185
8.41831
19.6992
19.9494
27.4668
27.6185
16.6246
20.6978
29.4523
24.9247
21.9843
23.7554
22.4188
12.3503
22.4268
19.544
27.1036
18.3772
20.4554
15.9501
11.0976
15.6278
16.9107
19.0739
16.4362
3.53415
1.55768
1.80776
2.01191
2.37421
2.50647
2.83637
5.46692
3.25396
8.02627
7.86394
4.05032
4.41155
9.82302
2.00321
0.89856
1.25343
1.45024
1.26004
1.47216
1.97845
3.23176
2.67367
4.59648
6.44747
2.32526
3.6898
5.54601
3.01333
2.14766
4.22317
5.04058
2.16334
2.97034
5.11632
2.0611
4.65416
1.06067
2.90917
11.1014
0.0834146
7.23933
0.282185
2.34959e-05
10.4543
31.9047
3.00686e-07
0.910354
9.10986
42.5348
10.1286
61.9743
3.01427
2.3839
3.18127
4.31466
6.21503
1.67796
4.91693
3.44818
1.92812
13.3193
4.1979
9.41987
2.72529
13.49
5.76427
3.28316
16.9465
7.96115
10.8603
9.04985
27.9436
12.3658
4.36466
3.87666
7.06452
1.50056
1.28707
2.28553
2.07501
1.29572
2.30299
1.48775
2.71435
1.8123
3.21564
3.79995
2.09525
2.34614
4.18684
6.2005
4.57235
8.02877
8.05191
5.40235
5.24054
8.88267
10.5645
7.66824
11.0916
14.0883
8.75627
9.54995
14.7841
2.16582
0.972734
1.30414
1.47788
1.43455
1.56818
2.02518
10.6589
24.8998
23.266
17.85
19.2393
40.1756
37.3618
1.5617
2.15284
1.48914
2.64809
1.34533
2.39182
1.73044
3.5664
4.98317
3.86085
6.87488
3.06672
5.49536
4.51502
2.38389
1.40789
2.37274
2.26698
1.91904
1.8491
2.99261
4.14078
2.77607
2.66459
2.14512
3.57838
3.17893
3.03504
6.955
8.73284
6.68647
10.1565
5.91909
9.52824
7.75071
4.74032
2.38166
4.24502
4.01689
3.64342
3.44953
5.4618
7.91507
5.06835
4.83878
4.18802
6.45116
6.33499
6.13023
15.4511
15.5627
11.3679
15.5829
13.7999
18.3162
15.8415
10.9061
5.84892
11.9104
12.4786
9.13118
8.34664
15.4683
3.29238
2.23628
4.78952
5.19398
2.4681
3.04985
5.57408
1.40597
1.24207
1.68491
1.62989
2.06657
2.17321
1.84454
1.28758
0.856357
1.47478
1.20683
1.35855
1.537
1.65958
1.26216
1.09743
0.797008
0.814836
1.14459
1.28818
1.45338
1.26051
1.00574
1.01905
1.3198
1.03634
1.04956
1.30407
10.7749
3.80627
3.902
4.44223
16.8786
4.94499
17.7063
10.5422
11.3984
7.85495
6.6243
18.2004
7.34634
18.5696
1.66529
1.19322
1.36213
1.74519
1.22088
1.53269
1.38494
5.76991
19.9776
6.00736
5.65807
19.3184
11.9808
31.5253
9.7153
0.0697793
16.67
8.36524
19.9447
17.1963
31.4652
3.67152
2.38003
2.88379
3.79221
2.37866
3.08576
2.85686
19.4001
58.8123
22.4806
16.4572
37.6818
38.4792
14.1355
7.89068
0.0129095
18.8371
22.9612
38.1174
43.3992
0.205806
8.16877
6.48822
4.51622
8.32405
4.29204
6.57119
5.0372
0.0264419
64.2919
41.6838
45.1924
1.24685
52.6868
0.000233371
0.000981412
1.72548e-05
0.316687
46.9209
0.00467295
46.7686
0.000914077
2.97635
5.79015
3.98238
4.67301
2.19643
3.22874
3.42907
8.99878
20.1477
11.6558
16.9429
9.9335
17.9587
21.0519
45.604
12.9025
19.2912
8.16
7.78321
11.9658
32.1618
7.23271
12.7077
7.54108
7.24578
6.68042
10.2528
26.6522
123.144
31.0396
97.8008
8.9347
24.7562
80.4611
100.703
26.0791
10.6199
68.5592
7.63336
20.8986
47.4421
92.0937
1.0422
1.34277
1.09348
1.34609
1.12216
1.07204
1.40764
2.40168
1.61003
1.94877
2.06298
1.95974
1.62823
2.50617
5.38455
3.41737
3.94783
4.59044
3.80104
3.34261
5.47305
9.57187
6.71888
11.123
11.4228
9.50131
6.51489
16.9082
13.4301
8.64938
5.57307
6.9223
8.36769
4.93534
11.9873
1.94843
1.25856
1.30742
1.46253
2.32876
1.49882
2.40873
3.98327
1.50588
2.04456
1.75506
2.8073
2.39568
3.96051
13.9265
3.08492
4.69877
3.59446
6.68866
5.58684
13.2678
17.3971
28.7967
5.92822
8.49236
30.2181
22.269
88.8546
47.5259
7.01325
9.54911
8.24903
23.5503
39.3082
92.0838
1.93164
78.2182
25.813
37.2386
92.94
94.5918
0.801538
2.48153
2.45547
1.733
1.93049
2.8199
2.71523
3.51487
25.4551
14.7527
15.1437
26.8282
21.9492
38.8123
40.818
16.1348
25.9969
14.4717
29.6005
18.4873
33.5032
26.1883
15.7613
14.612
7.95401
8.14533
15.1963
9.07438
16.2787
9.15793
9.75062
4.86815
4.27625
8.46823
4.47911
8.61283
6.47554
5.27156
10.8746
6.04626
10.6259
10.6328
15.9401
14.8763
1.45125
15.2598
15.5808
19.0591
16.5769
9.80642
0.00101122
0.0763287
5.83995
14.7921
1.63572
16.7662
0.0060948
15.9769
14.7495
8.18244
8.73047
15.2819
9.62359
16.5093
25.3587
20.12
34.7724
9.73266
17.3506
11.9534
16.4059
10.5132
17.6302
19.5681
68.8389
0.540621
0.707138
1.24535
1.62467
2.24664
3.99081
0.558815
0.590535
0.556368
0.633543
0.628341
0.641561
0.572995
0.839812
0.757912
0.721988
1.15024
1.02584
1.16375
1.03919
1.38783
1.36087
1.33071
1.65502
1.70032
1.70462
1.43893
1.34031
1.92329
2.13576
1.79091
2.77071
2.06171
1.42136
1.73121
12.3914
0.643687
0.67739
0.707301
0.743834
0.822173
1.10429
1.00977
1.37727
1.47479
1.86965
1.83683
2.3597
2.38263
3.17128
3.04083
4.00751
0.54811
0.544327
0.555536
0.574331
0.547742
0.560578
0.561274
0.604391
0.578534
0.590958
0.549134
0.565327
0.580564
0.533913
0.581512
0.578461
0.629519
0.598761
0.635564
0.583785
0.654214
0.617792
0.673503
0.678333
0.577237
0.654478
0.604484
0.633523
0.718569
0.82545
0.711297
0.86836
0.718032
0.743291
0.833624
0.876937
0.759408
0.877169
0.834143
0.735178
0.717055
0.852773
0.988583
1.11179
0.963838
1.02052
1.12439
0.973875
1.18587
1.19222
1.02885
1.20261
0.979304
1.17384
1.00334
1.13925
1.45299
1.30588
1.2543
1.495
1.26888
1.34652
1.40116
1.52587
1.38028
1.55353
1.44818
1.3447
1.29776
1.50549
1.52011
1.76089
1.60241
1.64083
1.66045
1.52963
1.79483
1.90152
1.7323
1.93034
1.60172
1.83036
1.66372
1.77338
1.78727
2.09364
1.924
2.12996
1.79008
1.95614
1.92166
2.41851
2.15695
2.41183
2.1943
2.01158
1.96769
2.20346
3.22401
2.66844
3.0216
2.46763
2.65017
2.3888
2.7877
0.655532
0.650482
0.660633
0.68596
0.73813
0.725851
0.946674
0.80864
0.93121
1.28505
1.08972
1.2737
1.667
1.46791
1.66582
2.10271
1.87327
2.10632
2.73391
2.38135
2.70865
3.798
3.06404
3.54468
3.14732
2.15097
3.41993
0.55288
0.542278
0.558546
0.570738
0.556485
0.574113
0.538973
0.578404
0.593077
0.631716
0.651041
0.580258
0.598318
0.632881
0.840284
0.712696
0.735978
0.839352
0.71886
0.826907
0.85755
0.988443
0.991259
1.12678
1.18501
0.969063
1.0117
1.15129
1.45731
1.2801
1.35588
1.47602
1.3109
1.41797
1.511
1.59665
1.59966
1.66896
1.78957
1.5447
1.65286
1.73976
2.06497
1.79232
1.91814
1.86222
1.89137
1.91544
2.04349
2.25969
1.93248
2.19638
2.3633
2.03234
2.17586
8.60943
4.4137
71.021
4.90672e-05
1.18919e-06
53.7594
4.65698e-05
0.0176141
4.53917e-05
0.000702266
36.3804
0.000137773
45.351
0.00157516
1.83204
0.000478911
2.99996e-06
12.3844
110.537
100.657
41.6154
69.3079
3.58239e-05
92.401
27.0439
59.9345
0.0101564
35.2092
70.6868
0.000861354
0.00147286
34.7479
0.000229143
33.375
0.00484191
13.9726
0.000945315
61.8478
45.2034
36.0309
0.0075788
49.7782
50.695
0.223786
4.91508e-12
1.33863e-10
1.84846e-08
1.44397e-05
1.99074e-05
6.36561e-12
1.1701e-06
2.96467e-12
9.8635e-06
1.08514e-12
1.19085e-14
6.21969e-07
8.93759e-08
4.79974e-12
7.81026e-13
7.3561e-09
4.36816e-09
5.17078e-14
1.54826e-14
3.28865e-11
4.28946e-13
2.22045e-16
2.22045e-16
8.9483e-15
4.07567e-15
2.22045e-16
2.22045e-16
2.22045e-16
2.22045e-16
2.22045e-16
2.22045e-16
5.36357e-05
4.40244e-09
2.57372e-06
5.93493e-11
2.32542e-09
2.16446e-15
5.19039e-12
2.22045e-16
1.01821e-15
2.22045e-16
8.6382e-13
2.22045e-16
2.22045e-16
8.38309e-12
2.22045e-16
2.22045e-16
2.22045e-16
4.09758e-16
1.41824e-12
2.22045e-16
2.22045e-16
2.22045e-16
2.22045e-16
2.69202e-14
7.79422e-12
2.22045e-16
2.22045e-16
2.22045e-16
2.22045e-16
2.22045e-16
2.22045e-16
2.22045e-16
11.5863
3.81144
8.58591
2.26755
1.88145
2.90277
3.29524
2.28402
4.74106
3.93575
7.28546
4.61425
2.77396
2.85217
3.91243
2.38319
3.26701
3.35754
2.4778
2.06654
2.57549
2.29724
2.32342
2.23991
2.05447
2.57618
2.98817
2.48708
2.33797
3.83314
5.38012
16.2565
10.1657
4.11652
6.22305
5.74558
9.25759
2.50912
2.49959
2.64936
3.09655
3.11842
2.45592
2.6645
2.87308
3.95233
3.36481
3.9937
3.45341
2.91001
2.89449
3.43684
3.15938
2.4132
2.60131
2.72007
2.71291
2.83542
3.06168
3.94974
9.48898
4.79238
4.75906
4.0188
4.82649
6.0142
12.1069
2.56252
2.4816
1.00948
0.575274
0.604135
0.707675
1.01347
0.894486
0.982584
1.28616
1.10851
0.584431
0.580487
0.589371
0.608103
0.645725
0.64916
0.711293
0.784609
0.779659
0.887117
0.847218
0.840912
0.958473
0.952194
0.970377
0.93604
0.926552
1.04707
1.00478
1.00018
1.05313
1.09043
1.03972
1.02496
1.10215
1.18484
1.16986
0.585073
0.590342
0.600399
0.605132
0.616054
0.619237
0.609201
0.743327
0.856964
0.820817
0.851869
0.739298
0.75952
0.76019
0.619497
0.622986
0.670203
0.638102
0.685904
0.689175
0.641774
0.560096
0.577152
0.565042
0.583326
0.595175
0.558779
0.571402
0.929679
1.05977
0.963752
0.897048
0.947039
1.02757
0.959317
8.14501
15.3968
10.9253
8.11523
8.48339
6.0467
11.5848
6.11642
11.2968
8.04391
24.322
16.9802
9.22086e-06
2.05658e-11
0.752288
0.730648
0.742457
0.740572
0.776038
0.814691
0.764193
0.82808
1.04522
0.901946
0.915492
1.03132
1.21182
1.39714
1.19849
1.40951
1.85581
1.61745
1.62758
1.84975
2.09706
2.37384
2.09537
2.3767
3.1524
2.70959
2.71981
3.12146
3.66887
4.18258
3.57518
4.46619
9.97672e-13
7.30193e-07
6.39136e-12
1.55605e-08
1.46788e-13
6.17984e-11
2.22045e-16
3.49719e-14
2.22045e-16
2.22045e-16
2.22045e-16
2.22045e-16
2.22045e-16
2.22045e-16
2.22045e-16
2.22045e-16
2.22045e-16
4.85977
4.81233
6.02792
21.8757
32.856
32.7437
33.8163
48.8363
0.513805
97.185
3.07342e-13
1.16237e-06
1.71798e-14
1.62537e-08
2.78843e-16
7.96862e-13
2.22045e-16
2.22045e-16
2.22045e-16
0.649676
0.582529
0.63253
0.616643
0.592823
0.663698
0.640017
0.828487
0.711063
0.839298
0.815317
0.73857
0.715249
0.815986
1.08083
1.14302
1.20008
1.13548
1.09045
1.14583
1.05987
1.0324
1.05268
0.949812
1.03446
0.928783
0.928792
1.03895
0.619212
0.628144
0.638661
0.640662
0.647728
0.629689
0.621428
0.538092
0.550148
0.552403
0.545163
0.558315
0.54534
0.557899
0.575819
0.627158
0.624013
0.580327
0.628343
0.580843
0.630241
1.18531
1.21154
1.13795
1.21062
1.12649
1.13455
1.2199
0.656835
0.691292
0.696687
0.667504
0.712019
0.696642
0.650736
0.598542
0.60799
0.61529
0.570712
0.581543
0.58216
0.590346
0.702919
0.806857
0.813678
0.703084
0.80273
0.707305
0.812694
0.877214
0.763926
0.764667
0.857245
0.789486
0.893462
0.771899
0.923452
1.0677
0.938119
0.918571
1.03654
0.939456
1.07306
0.986518
0.992746
1.0919
0.958776
1.05194
1.00297
1.09805
0.631869
0.601158
0.668516
0.66759
0.642531
0.643329
0.607344
0.565248
0.559227
0.546501
0.560095
0.571562
0.56592
0.574898
1.18936
1.27486
1.3342
1.21054
1.26402
1.20514
1.11951
0.737977
0.728709
0.710917
0.806479
0.793024
0.704728
0.814823
0.94992
0.919898
1.03493
1.01837
0.902903
0.916393
1.0152
1.14661
1.30915
1.19267
1.14667
1.24851
1.20258
1.32254
1.16594
1.16626
1.22591
1.1755
1.12459
1.16869
1.21946
0.628348
0.632243
0.581791
0.592403
0.628444
0.63552
0.593551
1.35741
1.26032
1.2833
1.38382
1.29573
1.30103
1.37915
0.82797
1.15662
2.09248
4.35021
0.955081
1.06516
0.866827
1.16815
1.7948
1.53191
2.09386
3.20395
2.80176
3.70639
0.864008
0.953164
0.845593
0.97229
0.970604
0.858773
0.85079
0.889524
1.00208
1.06608
0.938542
1.00201
0.882904
0.946093
1.18441
1.17
1.0336
1.32598
1.04156
1.329
1.17611
1.37069
1.53607
1.801
1.58761
1.54077
1.36223
1.59652
2.12964
2.10038
1.84466
2.4261
1.85391
2.43008
2.11962
2.41522
2.79161
3.21351
2.7321
2.79509
2.40679
2.74293
3.69273
3.72925
3.14765
4.30614
3.16474
4.37015
3.65357
6.21659
5.91719
4.316
5.03556
6.78843
4.96119
5.24175
4.20638
5.31861
1.30578
2.58612
5.32286
64.4287
5.08945e-13
2.22045e-16
2.22045e-16
0.726603
0.852069
1.63547
2.28255
17.5306
0.86557
0.750597
0.893475
1.05009
1.08126
1.75868
2.05017
1.86273
2.58565
3.00475
3.86441
5.65812
26.7046
16.5472
11.6393
0.882039
0.972295
0.913124
1.02048
1.33347
1.45728
1.64384
2.1613
2.51912
3.27809
1.95988
6.37693
2.47923
12.2769
4.7401
23.8279
33.3978
34.6057
14.2925
38.0865
31.3335
0.000215372
6.49662e-12
2.22045e-16
2.22045e-16
2.22045e-16
54.8165
0.00215584
1.62907e-09
108.173
4.94185e-12
2.22045e-16
0.00930475
2.41153e-14
2.22045e-16
67.1965
1.9298e-07
3.36435e-14
19.3304
0.00153636
1.39991e-07
33.8242
1.01139e-09
2.22045e-16
2.22045e-16
2.22045e-16
2.22045e-16
8.07871e-12
2.22045e-16
2.22045e-16
2.22045e-16
2.22045e-16
2.22045e-16
2.22045e-16
2.22045e-16
2.22045e-16
2.22045e-16
2.22045e-16
2.22045e-16
2.1459e-08
6.70682e-06
5.80841e-14
4.02189e-10
2.22045e-16
2.22045e-16
2.22045e-16
2.22045e-16
2.22045e-16
2.22045e-16
2.22045e-16
2.22045e-16
2.22045e-16
5.87641e-13
2.22045e-16
2.22045e-16
2.22045e-16
2.22045e-16
2.22045e-16
2.22045e-16
2.22045e-16
2.22045e-16
2.22045e-16
2.22045e-16
2.22045e-16
2.22045e-16
2.22045e-16
2.22045e-16
2.22045e-16
2.22045e-16
2.22045e-16
2.22045e-16
2.22045e-16
2.22045e-16
2.22045e-16
2.22045e-16
2.58504e-12
2.22045e-16
2.22045e-16
2.22045e-16
2.22045e-16
2.22045e-16
2.22045e-16
2.22045e-16
2.22045e-16
34.3515
23.5451
69.9817
8.86305e-05
7.82604e-11
4.38932e-05
6.72363e-10
2.22045e-16
1.65801e-15
68.811
0.0278837
4.93852e-14
11.1
0.593732
3.4377e-08
10.049
43.0783
1.7034e-07
2.22045e-16
2.22045e-16
2.22045e-16
2.22045e-16
2.22045e-16
2.22045e-16
2.22045e-16
2.22045e-16
2.22045e-16
15.3601
2.42556e-08
3.84688e-14
17.3892
0.00246951
7.54693e-09
6.55408
2.59661e-12
2.22045e-16
2.22045e-16
2.22045e-16
2.22045e-16
1.05153e-12
2.22045e-16
2.22045e-16
2.22045e-16
2.22045e-16
2.22045e-16
2.22045e-16
2.22045e-16
2.22045e-16
2.22045e-16
2.22045e-16
2.22045e-16
0.000501713
4.86534e-11
5.19315e-16
2.22045e-16
2.22045e-16
2.22045e-16
9.01431e-10
7.99692e-14
2.22045e-16
2.22045e-16
2.22045e-16
2.22045e-16
2.52723e-13
2.22045e-16
2.22045e-16
2.22045e-16
2.22045e-16