/*--------------------------------*- C++ -*----------------------------------*\
  =========                 |
  \\      /  F ield         | OpenFOAM: The Open Source CFD Toolbox
   \\    /   O peration     | Website:  https://openfoam.org
    \\  /    A nd           | Version:  9
     \\/     M anipulation  |
\*---------------------------------------------------------------------------*/
FoamFile
{
    format      ascii;
    class       volScalarField;
    location    "0.00325";
    object      T;
}
// * * * * * * * * * * * * * * * * * * * * * * * * * * * * * * * * * * * * * //

dimensions      [0 0 0 1 0 0 0];

internalField   nonuniform List<scalar> 
27870
(
732.622
742.362
823.231
689.951
759.594
783.758
662.518
732.32
694.449
556.26
416.603
430.289
888.319
812.726
861.173
800.336
793.5
786.081
764.974
759.987
793.386
764.088
706.231
651.717
719.25
739.42
836.974
885.879
854.955
867.498
855.123
865.717
836.036
813.104
839.23
814.58
788.176
839.394
810.45
792.9
779.399
797.158
774.343
783.185
781.545
789.22
769.376
783.809
781.301
795.673
779.61
789.475
771.714
793.754
821.086
804.885
791.501
797.678
808.713
812.497
801.977
819.288
787.037
796.013
793.915
803.917
800.177
827.898
562.539
485.438
571.075
772.783
734.146
771.662
663.702
797.459
690.601
733.515
794.77
973.921
745.984
900.359
594.899
614.593
559.225
489.425
690.44
571.954
845.847
865.777
791.27
829.57
936.504
972.728
940.066
969.634
807.301
890.216
650.657
619.096
778.057
941.642
674.589
835.459
561.559
718.34
568.832
472.14
639.18
659.338
511.589
583.093
584.505
590.791
455.532
594.064
714.067
459.963
543.225
531.694
462.896
485.783
995.039
1009.55
956.099
971.065
1007.52
950.005
998.878
825.454
953.23
841.76
834.38
901.601
892.777
763.387
560.138
676.089
557.103
571.114
604.72
629.684
516.819
462.973
542.064
441.004
472.852
478.386
523.924
427.884
534.541
445.876
608.242
596.755
555.748
574.488
470.756
623.051
555.196
833.193
807.287
905.102
843.67
805.988
903.888
833.973
832.029
838.797
795.811
895.241
802.72
901.134
829.136
981.726
961.49
986.572
899.241
1000.74
933.094
953.562
782.492
777.321
877.025
760.281
816.22
737.767
834.643
729.638
691.26
623.624
704.951
680.294
770.767
676.056
740.402
752.025
737.963
610.755
814.213
681.154
664.28
608.541
582.39
652.727
521.502
635.698
555.906
613.465
590.217
493.45
525.497
560.276
538.488
583.511
576.856
526.146
538.301
565.878
460.761
594.5
485.631
499.425
480.304
542.546
518.203
579.655
490.127
534.417
508.818
454.345
485.347
463.736
476.748
474.309
580.186
538.972
512.118
531.494
504.051
480.379
447.144
483.277
471.152
459.03
563.799
514.743
543.251
445.509
567.614
507.185
533.508
565.878
444.554
516.549
533.847
504.45
531.09
572.289
451.556
463.795
500.361
420.276
510.808
421.594
441.961
496.39
410.519
513.11
464.297
483.995
504.784
538.718
509.829
431.077
437.867
586.651
468.401
419.265
415.712
581.573
506.515
543.014
539.086
532.227
567.868
531.423
305.182
472.879
428.082
815.537
814.38
809.173
738.683
722.273
717.379
680.45
704.743
725.942
763.644
764.416
798.523
691.237
717.769
768.014
797.856
840.289
818.485
832.276
816.689
819.878
833.802
838.308
838.382
815.997
815.157
831.643
818.146
833.092
834.983
809.872
809.004
825.632
792.867
827.039
794.66
808.135
785.818
764.638
753.281
760.095
772.119
782.228
767.264
757.179
743.518
747.172
714.773
757.962
742.018
743.216
761.908
713.721
755.202
753.06
746.13
745.708
772.11
808.591
771.175
766.524
738.506
789.974
790.103
781.76
814.721
749.944
818.124
792.221
801.853
787.737
829.478
729.861
777.661
627.024
683.577
723.038
790.147
624.759
737.996
690.117
812.118
637.334
799.123
626.608
751.615
811.469
815.45
781.614
758.88
816.102
818.398
759.657
808.492
656.421
731.627
759.72
811.228
775.032
685.162
623.854
428.593
441.573
474.076
620.531
734.376
735.432
470.616
328.282
424.444
330.389
353.607
325.172
349.129
305.785
479.513
359.56
287.933
288.19
635.222
887.723
587.039
867.436
365.027
322.193
358.036
323.882
542.494
741.842
425.97
501.036
349.786
326.2
402.25
496.764
367.964
434.868
366.744
408.353
375.096
401.329
450.804
377.686
490.448
430.276
684.332
327.704
393.052
447.36
664.942
328.829
391.128
560.781
328.779
375.531
365.243
421.091
333.392
362.189
386.024
334.281
355.852
344.225
373.891
339.372
359.822
375.923
340.39
348.827
357.288
371.504
326.784
292.228
435.81
379.749
396.125
433.843
386.557
887.044
817.558
723.424
631.797
811.552
718.163
892.722
868.055
617.37
753.478
660.696
792.458
699.158
828.612
325.573
322.751
351.981
365.297
322.996
352.627
325.097
325.766
363.315
321.851
348.965
322.753
351.665
325.633
683.922
692.974
603.789
496.309
763.97
622.619
541.863
606.347
456.867
505.749
448.78
557.803
488.8
543.558
324.8
320.43
344.378
341.034
325.128
319.094
339.871
461.787
465.932
419.237
385.024
496.565
435.701
397.622
436.088
373.754
395.787
373.63
412.727
382.538
417.697
398.684
384.556
370.345
368.439
405.59
377.32
371.635
396.027
371.201
382.786
378.68
377.05
375.399
397.277
457.456
425.463
421.352
492.639
414.73
481.98
453.192
422.028
392.006
380.34
387.346
393.975
414.804
393.216
560.743
393.726
470.271
558.661
394.265
438.4
438.247
482.305
372.293
400.935
445.057
361.165
382.865
400.63
374.747
341.779
346.167
362.832
339.775
348.729
352.05
357.722
344.515
353.652
361.198
344.86
353.508
353.086
490.822
430.768
491.919
433.187
442.779
432.88
482.761
351.317
307.737
288.333
360.291
320.395
293.874
288.438
444.094
408.687
406.502
308.731
463.268
519.602
383.507
546.087
391.087
432.408
419.055
380.951
391.806
345.895
414.67
352.228
368.767
358.665
342.986
354.781
342.698
356.286
340.263
348.655
350.949
355.296
361.552
340.975
361.476
344.007
352.08
347.464
396.169
379.481
382.878
398.595
406.155
399.864
379.557
343.553
316.234
329.674
328.973
345.119
313.641
327.092
346.252
307.143
319.577
330.859
345.156
297.502
305.602
341.837
290.676
292.734
306.941
319.228
288.102
288.146
292.268
287.982
287.942
290.174
288.489
287.929
287.935
287.958
287.939
287.927
287.926
395.542
406.516
403.787
440.923
407.367
394.535
450.072
421.637
395.564
404.508
405.162
417.029
477.606
577.431
645.571
647.675
478.028
386.155
382.396
287.936
399.356
402.512
385.776
484.101
392.84
365.595
630.368
475.405
391.277
367.47
428.847
376.94
368.866
436.977
393.852
365.881
371.499
386.213
361.844
366.331
378.834
392.388
364.715
306.74
362.235
344.221
292.587
371.039
298.54
289.905
288.12
302.334
414.045
395.611
365.784
364.954
387.356
340.245
326.865
292.09
288.096
287.928
287.926
287.926
287.926
287.926
287.926
287.926
287.926
287.926
287.926
287.926
287.926
287.928
287.926
287.926
287.926
366.96
362.415
346.876
288.863
365.678
287.978
287.926
287.926
287.926
287.926
736.364
874.475
831.33
861.808
818.195
799.531
850.565
786.128
866.119
287.926
287.927
287.926
287.926
287.926
287.926
287.926
287.926
287.926
287.926
287.926
289.681
287.928
287.926
287.926
287.926
696.21
446.826
423.862
422.268
450.63
421.656
464.397
412.036
421.769
410.255
288.355
860.28
862.809
909.858
850.34
754.213
681.75
597.157
539.039
493.169
452.506
714.785
532.685
672.853
630.22
656.505
658.101
697.388
648.349
624.124
733.314
667.042
714.018
586.173
621.188
549.085
657.023
708.186
690.535
682.239
689.088
679.11
656.08
642.534
672.924
675.224
639.34
610.311
634.781
587.337
558.558
634.183
607.335
562.478
595.112
542.96
591.23
546.876
500.868
550.599
521.829
524.889
525.432
525.732
498.357
486.335
507.265
510.164
484.945
750.705
728.526
555.477
496.473
533.428
793.17
743.594
795.343
787.925
593.31
670.712
637.537
505.96
592.378
485.995
752.234
769.251
732.072
750.812
769.279
731.501
752.796
678.694
751.35
699.124
694.809
718.929
717.517
661.413
509.94
575.933
523.066
531.263
533.298
551.217
500.066
465.619
514.278
466.982
487.861
475.239
505.893
457.135
462.389
529.379
769.889
783.378
785.905
794.416
783.826
785.49
770.373
731.895
714.651
713.267
733.35
760.163
794.624
793.269
761.896
749.029
748.997
764.869
719.322
768.425
728.162
740.261
767.204
795.372
783.289
777.848
784.205
783.328
759.516
725.352
696.521
707.762
712.362
753.061
774.487
787.301
739.065
701.681
772.924
761.3
760.884
740.272
741.708
724.981
648.083
675.817
688.636
639.226
667.787
749.539
712.553
705.636
623.465
644.024
614.155
559.796
665.581
609.822
571.007
646.425
715.658
642.145
620.387
691.663
672.179
592.611
594.379
540.895
589.189
544.281
609.561
588.781
645.743
556.432
528.717
605.338
582.366
615.98
553.404
580.956
557.934
488.177
506.279
509.27
485.051
497.312
548.541
519.678
523.376
495.588
516.449
524.292
476.333
535.656
486.229
485.012
513.019
602.231
553.046
529.636
565.015
542.073
501.097
475.95
463.314
472.689
466.502
483.758
495.5
507.366
473.42
446.284
453.452
456.706
442.209
458.918
482.539
506.922
451.454
501.683
449.354
462.959
438.113
439.394
432.103
448.219
440.693
433.006
372.879
388.077
446.663
459.44
480.429
731.046
749.741
736.394
728.084
707.662
760.24
763.499
749.99
685.056
639.57
587.841
579.892
631.427
780.823
752.241
808.45
767.881
811.09
807.563
724.546
702.169
679.667
838.328
874.458
875.254
837.55
835.7
870.182
872.682
831.052
809.155
862.211
822.807
849.238
789.917
831.722
820.858
815.23
837.802
794.465
809.891
838.82
795.733
814.22
814.99
810.823
834.726
798.687
837.459
797.104
813.784
794.58
829.443
795.073
789.708
809.197
815.662
774.627
769.328
756.648
773.384
699.007
793.083
737.2
745.195
719.781
762.069
670.158
688.896
728.694
758.224
651.14
716.641
682.125
766.264
631.978
759.841
639.428
717.969
423.069
291.424
303.136
287.929
287.938
438.339
359.223
435.87
357.634
425.923
336.406
309.522
287.93
290.762
287.927
289.701
287.928
288.154
709.441
711.898
934.392
558.272
321.692
352.664
302.768
288.261
287.93
715.773
713.197
867.079
528.109
322.874
350.253
288.079
288.065
287.928
571.909
571.745
651.316
447.97
323.64
327.326
287.931
287.928
287.926
518.029
498.853
488.887
406.739
317.92
308.036
288.272
287.926
287.926
539.102
500.878
475.317
349.01
398.384
383.591
287.978
288.485
428.59
559.339
388.267
456.899
288.042
296.416
712.209
743.173
717.338
743.902
708.022
772.986
714.978
718.623
778.458
735.703
718.298
728.839
764.546
921.823
751.608
350.618
407.142
335.157
555.367
351.572
406.808
338.489
315.941
327.573
316.844
322.69
313.812
329.655
310.21
726.62
688.952
716.933
764.145
661.28
619.895
683.601
606.756
701.398
761.504
620.808
350.565
399.943
339.999
485.963
345.163
387.88
346.724
312.211
330.835
304.91
323.74
303.366
334.358
294.697
633.692
610.892
601.822
586.709
568.438
546.331
531.073
519.454
513.67
498.819
543.509
566.882
481.411
343.226
386.238
348.767
416.027
337.549
388.368
343.669
299.607
333.697
290.269
321.258
290.845
317.96
288.442
593.064
595.901
595.864
603.26
515.539
485.519
508.245
485.103
453.355
488.996
472.921
475.209
458.702
475.627
423.017
336.31
387.288
334.843
410.232
349.402
355.74
295.467
289.688
307.15
288.095
329.732
316.558
291.071
290.2
361.731
436.994
402.89
467.301
451.911
434.99
433.56
363.885
394.628
384.661
448.79
468.416
428.92
436.152
929.913
434.561
926.009
423.426
748.787
410.273
553.606
366.485
465.694
378.805
809.454
810.366
889.811
968.306
868.193
933.531
892.648
962.776
849.732
808.081
700.607
876.382
860.844
782.835
856.861
795.08
812.574
678.138
633.905
596.706
648.609
610.731
579.512
645.701
579.792
566.497
504.412
564.293
548.025
522.042
466.633
465.311
490.244
488.99
455.675
431.158
712.565
714.896
713.79
713.966
716.462
714.444
712.616
932.579
903.15
905.653
887.87
860.65
863.364
889.137
317.429
314.683
326.2
322.112
314.757
326.739
317.283
661.384
707.585
700.408
690.186
692.035
681.39
671.746
867.434
818.817
826.378
778.456
818.303
824.824
776.062
317.719
314.477
328.908
323.246
317.721
314.126
329.715
504.688
557.792
540.907
546.793
530.352
532.493
514.011
605.935
655.479
608.542
573.624
608.649
618.499
562.248
314.423
312.489
331.21
323.397
316.204
310.938
330.958
446.145
489.116
463.948
484.398
460.079
477.192
447.813
485.246
508.5
505.576
450.24
458.282
471.593
437.377
296.526
300.527
323.82
313.747
301.33
297.328
316.635
487.512
560.73
490.424
512.607
346.774
558.564
466.665
515.954
341.565
449.058
557.116
587.865
463.573
514.186
419.537
346.48
372.029
414.978
369.504
413.793
421.685
288.497
298.337
424.554
394.954
294.949
419.929
290.134
385.406
294.386
330.215
418.236
406.678
293.226
293.027
724.695
706.881
716.315
711.024
710.606
717.34
723.103
776.984
723.312
725.927
723.032
700.138
703.713
721.59
744.709
725.623
725.493
744.627
725.343
714.431
720.999
716.615
715.078
717.666
725.542
728.811
776.572
730.349
723.281
701.649
704.649
721.587
743.589
718.873
724.212
739.116
714.174
723.284
719.84
735.859
723.956
719.422
714.455
709.216
715.761
715.255
710.042
705.454
705.941
704.712
706.538
711.063
716.184
716.433
711.402
717.214
714.085
706.032
711.93
734.158
720.138
708.801
723.452
716.737
705.417
706.367
706.215
713.281
698.406
701.614
690.896
700.182
692.545
762.386
872.387
868.981
819.697
691.218
690.617
822.014
901.662
901.154
891.311
877.576
844.327
858.6
857.692
856.094
731.866
833.683
809.281
671.025
683.836
791.061
410.306
430.577
351.697
351.41
431.624
352.699
408.84
410.253
351.675
427.923
353.875
430.646
353.389
409.236
317.437
316.066
317.426
315.584
315.852
316.999
317.686
317.584
322.409
314.695
328.158
314.769
327.399
317.693
316.907
314.911
314.55
314.89
315.384
316.193
315.999
693.818
722.506
707.648
697.943
718.521
707.237
681.237
723.372
732.726
697.882
683.668
688.665
711.497
657.878
694.563
704.02
725.741
672.218
651.071
660.77
634.072
589.957
672.911
637.105
604.815
654.489
607.369
629.709
638.895
557.941
610.479
591.087
646.861
574.524
624.403
596.786
648.307
689.248
681.228
656.717
615.496
649.933
593.948
578.906
638.91
626.433
567.894
600.212
559.299
608.715
551.158
799.012
662.637
753.385
721.704
649.276
761.636
619.619
770.695
703.77
710.763
723.931
662.46
720.746
669.181
580.472
702.309
652.105
675.864
552.979
586.259
629.156
400.166
422.017
353.627
348.915
405.486
413.134
353.175
394.242
347.043
392.125
352.583
402.844
352.791
388.157
312.861
313.288
312.986
309.92
314.659
311.548
310.394
317.598
323.594
313.307
331.035
313.754
330.463
317.141
310.662
306.883
306.724
303.171
309.335
307.058
308.014
540.444
602.719
551.866
563.248
567.34
581.235
524.553
540.053
582.073
543.336
522.97
511.218
551.889
473.698
525.338
534.179
555.92
504.451
520.637
546.085
553.355
488.052
566.263
504.78
503.729
502.304
511.591
485.686
501.412
419.455
443.93
483.228
502.241
464.313
482.463
482.69
487.627
520.316
513.119
493.032
487.439
528.744
501.673
479.466
515.158
495.044
473.771
484.898
509.638
497.63
473.292
509.491
483.823
472.595
470.792
458.587
474.118
457.669
471.311
461.254
471.507
459.803
510.5
606.325
566.124
545.068
521.228
585.047
491.366
569.337
536.011
533.249
534.258
487.532
522.363
500.018
456.57
531.225
501.369
509.52
440.152
463.919
478.808
376.425
381.33
352.507
341.228
382.106
370.547
352.312
371.854
339.269
353.876
350.71
360.745
351.658
369.102
300.905
303.732
299.09
296.017
304.687
300.404
295.348
311.57
322.794
304.752
328.26
308.362
330.147
307.237
296.923
293.006
293.616
290.369
296.896
292.389
293.225
467.714
539.741
471.12
499.566
486.528
524.774
453.579
468.776
449.078
464.285
446.332
398.63
465.197
382.226
442.925
446.908
463.146
428.517
451.618
487.207
510.144
436.339
512.186
439.263
448.927
461.076
457.4
444.428
431.131
385.011
374.938
433.058
425.642
416.382
412.562
427.748
448.908
486.909
463.34
479.716
460.885
476.535
452.587
428.776
443.107
444.338
426.034
433.543
450.653
447.748
438.214
435.108
473.798
468.109
432.616
468.342
434.878
433.307
438.894
473.286
469.44
444.088
468.822
443.581
438.008
413.973
415.205
410.334
419.15
420.244
431.971
426.379
425.402
425.446
437.308
476.975
436.207
422.039
454.169
412.482
479.687
465.064
472.952
437.908
430.307
428.196
433.207
439.382
446.233
420.858
424.249
415.401
411.021
418.097
370.116
351.115
349.78
335.031
368.502
352.752
346.431
370.581
337.218
371.323
347.606
358.149
342.665
375.106
290.179
291.311
289.313
289.782
290.842
290.691
289.361
297.464
313.246
322.118
325.759
299.496
311.789
319.7
295.011
295.263
318.986
315.38
296.152
294.333
317.671
439.781
393.201
382.486
425.446
402.29
445.325
428.483
426.355
389.964
410.285
418.925
398.955
419.372
426.818
424.598
352.079
384.219
432.17
374.506
420.259
433.631
410.933
382.351
388.506
411.481
378.033
413.801
406.088
412.437
381.238
385.01
403.947
377.342
417.118
404.113
310.416
317.106
287.944
308.733
288.318
287.934
302.605
287.934
287.926
291.563
288.246
287.926
379.181
379.98
288.283
458.782
293.648
316.354
309.497
316.793
317.209
304.838
328.207
315.761
322.841
323.846
293.628
330.969
293.924
321.46
289.316
333.753
322.498
288.238
328.709
314.223
327.691
289.96
311.354
385.26
478.797
436.449
314.083
310.518
312.527
310.298
310.622
312.402
313.899
314.248
310.102
310.789
307.833
314.232
309.876
309.722
312.908
309.675
304.204
299.95
314.073
308.795
301.006
295.82
299.545
290.971
290.765
300.098
296.705
290.201
452.624
399.103
395.289
446.972
405.127
464.592
443.372
356.301
323.75
305.666
388.412
378.233
290.873
297.902
314.226
310.019
310.423
311.577
310.608
312.111
314.265
314.384
306.617
309.853
306.549
309.806
308.309
314.424
324.864
333.809
317.664
334.378
318.234
336.536
325.064
325.441
317.194
333.179
321.285
325.244
316.903
332.841
310.253
296.946
303.487
293.464
306.758
297.127
305.694
325.192
320.734
315.276
334.349
316.528
333.448
323.145
312.104
312.848
333.311
322.094
318.557
309.681
330.422
295.886
295.041
313.197
312.871
297.595
294.089
311.266
307.111
322.579
317.27
325.826
308.411
326.627
313.815
423.874
387.191
384.066
402.917
392.455
421.424
399.182
407.446
365.343
411.248
420.3
431.397
445.346
432.015
405.361
345.877
404.146
408.625
406.756
431.056
428.504
426.47
423.409
361.871
353.152
415.317
415.095
438.775
559.369
662.493
662.174
486.133
559.578
560.579
484.542
352.222
362.452
363.614
338.587
319.633
341.868
314.236
288.288
288.144
300.683
332.566
301.821
333.591
297.607
507.113
614.685
584.219
458.22
536.356
470.964
517.102
366.077
343.652
375.168
343.336
310.393
345.821
295.454
296.476
287.958
290.472
333.778
295.288
330.443
289.841
430.825
493.233
467.14
405.522
452.853
418.241
432.284
368.156
293.404
378.418
344.688
291.954
325.93
288.232
288.063
287.945
288.651
326.699
288.939
301.682
288.001
402.067
400.544
411.636
386.109
388.152
383.251
387.019
287.951
289.72
362.458
311.98
288.026
289.034
287.933
287.929
287.93
287.962
293.951
287.951
288.389
287.932
476.441
453.133
457.467
450.764
447.523
440.209
466.764
377.888
359.588
400.09
356.425
394.26
373.813
376.965
424.727
476.048
464.473
513.122
465.713
428.203
431.461
502.203
432.933
436.972
520.745
464.031
428.666
431.734
290.028
451.217
369.67
451.087
436.859
397.901
317.609
422.973
440.43
333.815
448.708
435.714
416.226
329.759
654.821
545.396
639.382
484.759
550.2
557.464
480.474
466.366
552.154
521.654
444.637
474.087
495.709
431.382
405.553
443.9
424.589
394.397
397.525
413.239
386.635
420.164
410.572
407.562
392.246
408.757
395.448
396.496
434.847
429.545
434.262
432.041
422.954
422.313
431.648
433.665
622.257
616.079
834.773
451.764
821.774
452.855
404.765
575.928
518.928
746.008
440.969
632.405
425.83
411.762
471.508
434.145
540.716
420.444
481.092
423.172
422.225
409.84
421.554
450.604
423.852
452.87
326.677
426.592
470.19
442.764
466.937
459.195
445.816
325.227
288.027
293.338
427.846
441.836
294.026
293.65
288.002
473.956
477.586
421.671
441.539
463.763
469.55
503.429
408.024
425.199
419.484
400.248
422.031
393.62
397.148
408.379
369.543
407.364
386.978
416.11
387.071
380.694
363.562
347.997
370.134
373.471
352.693
389.886
369.671
288.856
288.486
316.579
325.78
307.305
325.962
304.672
315.092
288.005
310.535
325.956
298.891
323.26
292.618
288.301
287.966
289.831
313.807
289.245
297.43
288.012
287.929
287.934
287.993
296.379
287.954
288.997
287.929
356.227
342.253
366.189
359.849
336.47
373.051
348.777
417.9
419.633
397.566
355.203
334.272
362.778
333.163
366.621
342.745
338.356
290.851
711.03
732.722
691.683
713.578
809.992
464.26
716.607
730.865
705.737
730.217
740.507
720.607
717.204
741.031
759.034
724.869
708.511
726.352
653.278
705.868
690.582
676.621
627.513
700.606
666.717
591.981
696.066
707.496
723.028
681.895
582.705
710.685
563.145
716.44
760.054
530.434
766.54
773.681
802.353
808.969
788.42
751.16
800.131
736.236
699.754
686.746
689.851
674.657
700.758
723.374
672.182
654.742
713.625
711.464
714.293
730.933
715.592
719.388
727.198
735.033
731.689
735.095
710.049
711.264
715.919
706.083
720.849
717.932
726.672
736.365
733.283
723.697
746.844
741.36
752.675
749.27
716.847
730.84
721.907
729.15
739.707
737.554
736.254
757.429
742.969
756.883
741.865
750.883
753.798
743.961
732.482
736.648
737.525
728.731
727.529
705.178
724.048
741.487
701.303
724.191
718.968
697.706
718.346
688.809
711.103
673.995
703.656
684.341
694.607
696.273
693.097
696.422
685.158
702.59
678.722
667.139
666.633
655.542
654.585
651.205
663.998
638.856
693.922
708.727
699.674
697.262
683.573
679.232
704.117
671.637
653.532
656.875
654.057
634.821
634.667
658.308
711.248
736.512
722.613
726.384
690.389
715.285
697.764
696.523
663.968
672.531
679.17
637.188
667.027
639.42
731.519
675.165
682.54
691.665
645.369
639.123
707.279
769.781
770.013
772.668
778.111
785.907
779.874
777.559
781.748
769.942
721.629
743.505
714.004
688.816
691.859
680.352
690.706
677.777
680.607
715.301
688.271
698.019
742.6
698.969
702.652
822.348
663.367
713.537
716.436
709.462
705.887
710.197
714.077
710.807
712.492
720.99
713.697
727.032
723.9
718.292
715.268
731.017
738.867
734.483
730.853
714.163
740.576
729.816
723.663
719.537
685.774
681.025
667.48
707.839
698.124
694.066
664.677
660.972
643.181
611.044
674.353
650.678
628.605
663.634
600.643
647.891
616.489
647.667
621.316
666.01
678.192
648.865
611.478
572.334
671.119
649.045
606.262
681.312
563.534
648.615
602.692
646.42
601.336
513.253
540.092
288.98
287.931
287.927
288.78
287.929
287.944
287.927
287.928
289.14
287.928
288.729
287.929
287.974
287.928
287.927
288.18
308.317
292.037
410.982
288.543
287.929
294.519
402.17
288.386
287.94
413.897
289.654
287.935
287.929
288.944
287.929
288.371
287.932
288.088
287.929
290.896
357.443
288.222
287.939
335.224
289.045
287.97
287.926
287.926
287.926
287.928
287.928
287.926
287.927
287.926
287.928
287.926
287.926
287.926
287.926
287.926
287.926
287.926
287.926
287.926
287.926
287.926
287.926
287.926
287.926
287.926
287.926
287.926
287.926
287.926
287.926
287.926
287.926
287.926
287.926
287.926
287.926
287.926
287.926
287.926
287.926
287.926
287.926
287.926
287.926
287.926
287.926
287.926
287.926
287.926
287.926
287.926
287.926
287.926
287.926
287.926
287.926
287.926
287.926
287.926
287.926
287.926
287.926
287.926
287.926
423.277
753.427
429.394
746.19
736.158
766.873
711.184
567.974
652.339
739.595
612.033
669.594
695.093
671.464
724.909
698.503
762.728
729.678
675.128
731.83
769.265
747.662
731.668
709.663
701.617
741.803
793.663
777.955
641.73
678.645
478.159
424.944
473.504
507.516
435.954
528.815
426.671
687.542
753.132
757.147
770.178
731.339
710.281
722.912
722.26
702.566
674.682
659.149
695.092
641.134
696.285
637.374
683.024
650.084
602.253
585.857
681.243
661.693
610.054
713.388
541.759
634.619
692.481
688.024
661.065
656.014
426.726
733.692
566.088
746.718
845.425
840.573
820.737
728.932
818.926
822.838
724.555
844.143
845.412
876.496
876.712
871.796
831.826
863.008
850.769
837.767
808.755
786.294
825.697
795.449
818.45
773.854
785.923
818.919
783.854
763.445
813.663
765.347
815.108
802.575
830.298
791.419
766.077
832.698
773.363
780.331
810.453
810.627
770.445
771.387
800.883
800.057
759.153
755.172
779.702
778.717
789.345
761.982
789.844
776.044
806.225
798.309
768.395
764.888
794.909
798.513
732.166
754.325
753.57
746.626
747.861
726.658
728.583
741.414
715.067
737.311
764.999
758.86
738.864
752.826
578.846
432.246
521.578
599.697
588.714
637.119
529.864
646.02
536.73
589.849
288.403
288.119
287.928
287.926
812.136
807.338
810.644
808.81
817.797
823.397
816.184
825.555
815.418
825.382
827.793
812.626
786.937
751.05
783.979
754.195
709.19
723.852
727.093
705.68
701.084
695.065
696.478
701.6
718.276
699.315
708.384
705.059
720.859
699.871
702.562
734.888
287.926
287.926
287.926
287.926
287.926
287.926
287.926
287.926
287.926
287.926
287.926
287.926
287.926
287.926
287.926
287.926
287.926
676.574
692.623
638.288
376.872
293.483
305.567
289.746
288.589
287.987
290.491
287.926
287.927
287.926
287.926
287.926
287.926
287.926
287.926
287.926
742.726
729.135
725.916
744.912
726.978
742.232
726.95
733.885
725.265
738.845
727.228
741.863
729.713
728.332
720.638
717.839
687.878
697.875
725.231
718.63
746.013
716.833
699.21
722.417
709.426
721.715
711.69
688.74
762.71
763.937
761.219
778.145
779.135
787.621
786.56
715.328
717.339
713.685
713.384
716.303
710.788
714.316
716.134
723.267
719.915
717.361
721.762
717.724
725.922
703.748
670.075
680.88
695.857
699.767
671.445
661.806
761.356
764.131
760.982
779.904
780.848
787.423
787.383
742.886
744.245
744.234
724.64
726.652
726.448
727.956
725.901
729.673
735.463
728.242
727.202
735.219
733.482
771.269
762.961
754.045
729.434
775.753
752.773
784.788
721.162
705.247
723.403
709.382
685.83
714.79
691.219
719.966
743.517
713.07
686.063
640.086
711.077
667.11
744.407
727.003
745.12
744.053
729.656
730.193
728.898
715.532
708.895
708.174
712.521
712.235
714.616
716.719
757.04
720.952
683.73
718.999
683.57
717.512
749.089
745.433
737.364
731.724
721.21
704.828
726.058
713.226
702.682
692.015
658.555
622.745
665.34
671.105
626.482
695.289
690.468
693.542
669.187
660.746
675.172
668.236
657.558
689.71
674.817
581.643
604.779
633.557
611.576
722.225
722.263
715.954
715.366
723.173
720.682
718.807
662.76
703.785
664.509
698.943
695.906
657.17
655.414
846.336
848.217
748.529
651.402
898.819
900.266
854.017
893.253
789.679
834.629
747.946
675.297
689.614
666.53
854.288
899.384
850.661
900.785
901.357
853.684
851.348
858.371
899.964
900.25
864.934
900.616
857.784
864.969
853.206
893.369
866.931
871.664
866.767
871.576
853.472
822.033
833.995
789.002
784.07
833.521
822.365
783.996
722.089
747.228
748.529
714.251
748.984
713.6
720.414
705.557
690.55
676.492
694.883
690.464
702.273
699.747
706.326
668.981
694.888
655.606
702.474
660.823
696.012
616.661
578.675
699.879
637.385
642.524
670.78
649.537
686.573
699.824
951.827
611.053
473.485
419.785
287.926
287.926
287.926
978.977
948.063
621.495
464.142
394.819
924.199
976.516
917.97
853.415
838.246
614.768
541.992
524.291
419.521
411.551
433.82
408.543
350.219
392.838
407.326
857.247
817.165
838.248
801.295
618.383
532.767
537.242
433.639
409.657
395.315
425.564
396.416
402.903
385.936
402.582
330.135
292.828
329.005
395.079
376.758
340.48
287.928
287.926
287.926
287.926
287.926
391.796
287.93
287.926
300.793
287.926
287.926
287.964
287.926
287.926
289.817
287.926
287.926
423.704
287.928
287.926
288.236
287.926
287.926
287.926
287.926
287.926
287.926
287.926
287.926
287.926
287.926
287.926
287.926
287.926
287.926
287.926
287.926
287.926
287.926
287.928
287.926
287.926
287.926
287.926
287.926
287.926
287.926
287.926
287.926
287.926
287.926
287.926
287.926
287.926
287.926
287.926
287.926
287.926
287.926
287.926
287.926
287.926
287.926
287.926
287.926
287.926
287.926
287.926
287.926
287.926
287.926
287.926
287.926
287.926
287.926
287.926
287.926
287.926
287.926
287.926
287.926
287.926
287.926
409.562
288.234
289.465
287.927
287.926
287.927
287.926
287.926
287.926
376.564
287.945
287.926
426.465
287.939
287.926
429.197
290.879
287.926
287.926
287.926
287.926
287.926
287.926
287.926
287.926
287.926
287.926
288.042
287.926
287.926
424.42
287.928
287.926
288.03
287.926
287.926
287.926
287.926
287.926
287.926
287.926
287.926
287.926
287.926
287.926
287.926
287.926
287.926
287.926
287.926
287.926
287.928
287.926
287.926
287.926
287.926
287.926
287.926
287.926
287.926
287.926
287.926
287.926
287.926
287.926
287.926
287.926
287.926
287.926
287.926
287.926
287.926
287.926
287.926
287.926
794.896
801.846
802.864
813.271
813.674
819.016
820.16
639.179
632.601
615.717
568.3
566.537
589.245
591.671
692.412
698.169
692.671
657.63
657.338
667.444
669.635
770.886
751.738
728.853
687.816
695.599
740.237
786.132
717.223
702.853
720.942
729.079
720.864
721.866
706.555
657.158
627.445
666.857
694.946
665.4
673.818
637.878
794.195
803.187
802.854
813.533
820.229
812.059
819.459
661.953
621.345
628.409
666.259
556.632
567.019
597.663
619.484
574.497
596.079
644.006
632.253
609.555
590.57
729.528
664.353
668.851
716.784
706.095
658.276
655.831
609.865
604.897
542.633
553.333
551.622
597.061
540.61
778.427
796.711
774.409
802.579
813.49
793.252
775.051
703.417
718.69
707.536
661.107
677.643
658.597
673.221
697.325
736.769
700.152
761.083
731.395
731.863
689.969
418.877
429.962
287.926
287.926
287.926
287.926
289.21
287.93
287.926
287.926
287.926
287.926
287.926
287.926
287.926
287.926
287.926
287.926
287.926
287.926
287.926
287.926
287.926
287.926
287.926
287.926
287.926
287.926
287.926
287.926
287.926
287.926
287.926
287.926
905.464
899.569
900.179
897.695
871.678
904.63
867.116
906.477
905.666
868.502
869.987
869.427
904.761
897.415
863.564
903.334
867.051
864.729
932.248
876.098
759.901
689.834
929.269
664.586
919.659
663.931
724.739
939.243
918.821
929.743
818.104
954.134
912.628
902.417
643.285
810.266
540.964
780.26
916.537
855.236
805.606
616.595
797.009
648.193
785.183
517.905
763.446
502.557
544.117
725.282
584.498
746.721
511.407
593.96
512.68
762.196
524.761
461.857
459.067
927.897
929.148
930.126
929.836
929.834
930.933
927.015
826.39
645.697
835.212
668.507
649.816
838.141
823.494
923.056
925.938
918.819
912.124
925.641
925.939
908.742
823.945
669.91
645.45
822.85
651.232
835.326
811.208
844.441
901.161
886.483
875.376
882.324
873.959
849.434
739.386
625.493
794.325
610.034
781.901
593.817
752.273
800.316
842.241
811.191
764.035
841.74
805.733
758.671
691.285
573.108
530.608
658.316
559.391
703.958
646.802
703.118
787.359
730.117
769.553
725.453
773.137
706.699
589.387
511.014
621.84
505.441
611.895
502.635
597.097
691.855
763.468
770.331
684.986
768.698
693.376
685.066
578.239