/*--------------------------------*- C++ -*----------------------------------*\
  =========                 |
  \\      /  F ield         | OpenFOAM: The Open Source CFD Toolbox
   \\    /   O peration     | Website:  https://openfoam.org
    \\  /    A nd           | Version:  9
     \\/     M anipulation  |
\*---------------------------------------------------------------------------*/
FoamFile
{
    format      ascii;
    class       volScalarField;
    location    "0.00035";
    object      lambda.c4;
}
// * * * * * * * * * * * * * * * * * * * * * * * * * * * * * * * * * * * * * //

dimensions      [0 0 0 0 0 0 0];

internalField   nonuniform List<scalar> 
5025
(
1
3.46976e-10
2.85306e-25
4.98889e-41
1.148e-74
1
8.42355e-13
9.45502e-28
1.38057e-43
3.04157e-94
1.80153e-28
4.27878e-44
1.08216e-77
2.31941e-38
5.95836e-71
0.5
1
1
1
1
1
1
1
1
1
1
1
1
1
1
1
1
1
1
1
1
1
1
1
1
1
1
1
1
1
1
1
1
1
1
1
1
1
1
1
1
1
1
1
1
1
1
1
1
1
1
1
1
1
1
1
1
1
1
1
1
1
2.30579e-39
1.02602e-38
1.45928e-40
1.01102e-122
0.5
1
1
0
1.5346e-122
6.9404e-121
9.59512e-39
1
1
2.09682e-120
1.46858e-122
2.23395e-39
0.5
0
1.5619e-164
3.03214e-207
0
0
2.29731e-214
5.40595e-294
0.5
1
0
0.5
1
0
0.5
1
1
1
1
1
1
1
1
1
1
1
1
1
1
1
1
1
1
1
1
1
1
1
1
1
1
1
1
1
1
1
0.5
1
1
1
1
2.0906e-44
0.5
9.72171e-44
1
0.5
1
5.99766e-45
1.6632e-46
0
3.21756e-168
0.5
1.13574e-133
3.8342e-130
3.16344e-211
2.2171e-304
1.78313e-258
1.55385e-124
6.58664e-122
1.81013e-211
0
0.5
4.71013e-205
1.38512e-122
0
6.3178e-166
0
0.5
0.5
0
1.08857e-165
0
2.64329e-44
0
4.92915e-124
1.37003e-124
2.24126e-210
1.16463e-165
1.06072e-47
6.32786e-143
0
1.81432e-211
6.56042e-143
0
1.02667e-47
3.36687e-47
2.03249e-167
5.57979e-96
0
9.95397e-142
0
5.09285e-47
0.5
0.5
1
0
1
0
1
3.63718e-47
5.63274e-96
0
4.9369e-167
5.14749e-47
1.028e-141
4.29498e-131
0.5
1
0
0.5
1
1
9.22181e-45
0.5
0.5
1
0
1
0
0.5
3.07268e-48
1
0
2.21635e-44
2.39673e-47
0.5
0
7.73618e-97
0
1.78264e-47
6.22578e-210
2.25653e-47
0
1.65425e-141
3.52816e-129
1.81288e-211
0
1.21201e-209
3.89283e-217
3.22668e-209
2.29552e-212
1.35777e-204
1.50101e-210
6.24433e-256
1.65939e-239
2.40303e-207
7.8845e-211
5.80036e-124
3.86053e-212
5.04883e-297
1.28208e-210
9.97096e-48
7.88623e-211
2.4101e-143
0
3.32169e-143
0
9.53008e-48
3.65058e-142
1.16351e-146
0
3.86594e-212
1.7131e-96
4.66269e-237
3.80408e-211
2.72813e-145
5.0416e-297
7.06355e-307
4.90278e-296
1.97048e-241
0
2.63626e-234
2.37396e-138
5.3194e-230
1.41339e-61
2.41224e-97
2.14686e-134
1.07339e-96
1.90206e-133
1.61832e-173
5.79681e-156
2.97887e-197
6.55449e-241
1.69134e-117
3.30644e-156
6.99317e-198
1.84936e-15
6.66102e-81
2.86566e-80
1.20525e-46
1.33659e-80
2.39336e-35
2.26953e-80
2.28015e-80
1.21069e-46
1.2108e-46
1.71457e-117
9.3052e-77
4.16563e-116
1.05665e-252
1.32414e-105
2.36459e-156
0.5
3.3272e-34
0
3.97562e-111
2.49996e-155
6.21698e-156
2.64386e-185
9.76516e-117
2.5069e-156
1
1
1
0.5
7.26835e-37
0.5
1
3.2178e-211
3.41267e-116
1.85038e-116
1.84986e-116
2.69744e-135
3.73213e-134
1.84499e-154
1.98405e-154
8.88174e-210
1.18294e-251
1.51337e-252
2.00108e-210
5.5966e-194
4.79738e-210
2.4788e-210
4.09332e-174
1.69919e-156
3.44811e-80
2.79802e-78
3.62649e-78
3.61889e-80
1.76979e-119
7.45434e-124
8.76004e-168
5.94064e-210
6.12439e-259
1.11527e-215
6.77382e-197
2.68502e-240
4.88825e-286
2.38491e-37
5.30246e-104
0.5
1.03224e-38
3.46276e-108
3.90748e-40
2.34485e-112
2.00183e-141
1.06324e-114
1.01734e-132
1.68282e-172
9.48825e-214
5.35158e-96
1.02109e-132
1.21123e-172
1
1
1
1
1
1
1
1
1
1
1
1
1
1
1
1
1
1
1
1
1
1
1
1
1
1
1
1
1
1
1
1
1
1
1
1
1
1
1
1
1
1
1
3.62674e-35
1
1
1
1
1
1
1
1
1
1
1
1
1
1
1
1
1
1
1
1
1
1
1
1
1
1
1
1
1
1
1
1
1
1
1
1
1
1
3.13555e-72
4.3925e-108
1
1
1
1
1
1
1
1
1
1
1
1
1
1
1
1
1
1
1
1
1
1
1
1
1
1
1
1
1
1
1
1
1
1
1
1
1
1
1
1
1
1
1
1
1
1
1
1
1
1
1
1
1
1
1
1
1
1
1
1
1
1
1
1
1
1
1
1
1
1
1
1
1
1
1
1
1
1
1
1
1
1
1
1
1
1
1
1
1
1
1
1
1
1
1
1
1
1
1
1
1
1
1
1
1
1
1
1
1
1
1
0.5
1
1
0.5
0.5
1
1
5.51886e-35
1
0.5
5.5172e-35
7.74474e-37
1.18029e-71
8.07087e-37
1.08659e-71
4.20598e-110
3.13494e-72
4.25098e-110
4.23285e-110
3.13523e-72
3.93996e-110
3.13988e-72
1
1
1
1
1
1
1
1
1
1
1
1
1
1
1
1
1
1
1
1
1
1
1
1
1
1
1
1
1
1
1
1
1
1
1
1
1
1
1
1
1
1
1
1
1
1
1
1
1
1
1
1
1
1
1
1
1
1
1
1
1
1
1
1
1
1
1
1
1
1
1
1
1
1
1
1
1
1
1
1.97126e-62
7.71077e-134
2.155e-98
8.92792e-174
4.16812e-136
2.60622e-213
2.49517e-300
0
2.43043e-213
7.16709e-300
0
3.19561e-297
0
0
0
0
0
0
0
2.81258e-216
1.26952e-260
7.60636e-198
1
1
6.53353e-122
1.89402e-253
0
0
0
0
0
1
1
4.6955e-120
1.54031e-212
0
0
0
0
0
1
1
6.07299e-163
1.3661e-295
0
0
0
0
0
3.24516e-39
1
2.87487e-167
0
0
0
0
0
0
1.76289e-142
1.82323e-36
3.1031e-296
1.96567e-187
0
0
0
1.18576e-312
1.02638e-134
3.97455e-62
1.45535e-213
7.62896e-134
1.79783e-306
1.52388e-219
1
1
1
1
1
1.82084e-39
1
1
7.91942e-39
1
1
1
2.46941e-204
2.82566e-120
1.0242e-165
0
2.13593e-303
0
1.35692e-212
0
1.54774e-298
0
0
0
0
0
0
0
0
1
1
1
4.01423e-38
1
1
7.56763e-39
1
2.04824e-165
3.45229e-122
9.12032e-205
0
8.54548e-298
0
1.56005e-253
0
1.8586e-303
0
0
0
0
0
0
0
0
1
1
1
1
7.39932e-38
1
1
2.36335e-39
1
1
1.37254e-209
2.1245e-205
5.56414e-255
0
0
0
9.45835e-305
0
0
0
0
0
0
0
0
0
0
1
1
1
1
1
4.49325e-80
1.19101e-40
1.64091e-36
2.89688e-165
1
1.10806e-34
0.5
5.00956e-298
5.15391e-210
0
0
0
0
0
0
0
0
0
0
0
0
0
0
0
2.55059e-229
0
0
2.18049e-253
5.28483e-188
9.13589e-297
7.35494e-254
6.67967e-187
9.69937e-301
6.63006e-302
1.42233e-172
2.08266e-173
2.80811e-213
2.62938e-214
2.17559e-122
5.76494e-254
2.49699e-120
1.56164e-213
3.99179e-164
1.38561e-296
8.13156e-214
0
1.02387e-258
8.58085e-306
6.65212e-39
2.77256e-38
4.5236e-80
1.2312e-204
1.3316e-122
1.60743e-120
1.89421e-78
8.898e-166
5.77052e-121
3.52931e-38
7.44551e-39
2.5675e-78
1.62325e-165
9.68908e-121
1.7835e-122
2.44278e-80
1.2237e-204
3.53814e-123
3.64388e-40
7.26938e-81
3.54319e-119
5.24159e-210
4.88835e-164
5.32046e-207
1.22288e-123
2.19505e-255
4.60726e-207
4.00739e-122
4.37946e-165
6.83391e-168
1.97019e-299
1.51367e-214
1.11486e-293
9.14266e-210
0
4.7516e-294
1
1
1
1
1
1
1
6.5147e-122
1.26233e-117
1.80322e-116
1.21307e-122
4.72048e-117
2.41284e-80
4.88286e-160
0
0
0
0
0
0
0
1
1
1
1
1
1
1
1.32255e-113
4.74364e-120
1.24377e-114
5.48202e-121
2.0826e-79
4.54196e-121
2.44922e-79
0
0
0
0
0
0
0
1
1
1
1
1
1
1
3.22167e-163
7.2541e-119
6.49315e-119
3.52448e-163
1.59223e-118
2.18362e-162
6.75268e-119
0
0
0
0
0
0
0
0.5
1
1
1
1
1
0.5
3.12264e-213
3.19871e-167
4.05045e-213
2.27836e-213
7.43223e-168
3.2351e-213
1.48994e-167
0
0
0
0
0
0
0
4.94216e-182
0
1.28178e-253
4.66175e-107
3.61347e-186
2.26838e-107
1.49608e-148
3.67239e-36
1.59571e-146
3.12483e-107
6.22956e-97
4.85826e-97
5.83901e-133
3.20482e-133
3.89688e-213
2.03616e-187
3.04203e-231
6.63845e-189
3.33709e-231
5.06645e-213
3.95792e-214
0
0
0
0
0
2.57643e-297
0
2.52982e-301
0
0
1.61026e-255
9.58687e-257
1.02885e-300
1.05003e-301
1
1
1
1
1
1
1
2.80065e-39
0.5
0.5
1
2.29404e-39
3.08107e-39
0.5
1
1
1
1
1
1
1
1
1
1
1
0.5
1.20198e-38
0.5
1
1.28379e-38
9.93578e-39
1
1
1
1
1
1
1
1
1
1
1
1
1
1
1
1
1
1
1
1
1
1
1
1
1
1
1
1
1
1
1
1
1
1
1
1
1
1
1
1
1
1
2.46808e-204
1.68536e-203
3.71497e-203
1.04093e-204
2.74701e-252
6.87225e-252
4.80218e-206
2.21931e-115
2.81812e-120
7.49549e-115
4.8515e-121
4.71001e-79
2.7903e-79
1.06947e-120
1.33105e-164
1.02401e-165
7.77014e-165
5.30771e-202
6.70025e-212
1.33003e-211
1.95732e-201
0
0
0
0
0
0
0
0
0
0
0
0
0
0
0
0
0
0
0
0
0
0
0
0
0
0
0
0
0
0
0
0
0
0
0
1
1
1
1
1
1
1
0.5
1.12984e-38
0.5
1
1.18226e-38
1
1.32053e-38
1
1
1
1
1
1
1
1
1
1
1
0.5
0.5
2.37882e-39
1
2.74362e-39
2.65217e-39
0.5
1
1
1
1
1
1
1
1
1
1
1
1
1
1
1
1
1
1
1
3.74083e-164
2.04885e-165
1.47145e-164
9.98999e-202
1.53378e-211
7.04567e-202
3.02194e-211
1.54683e-115
3.47287e-122
1.09995e-116
9.12366e-123
1.61653e-116
1.91304e-80
1.9972e-159
9.1268e-205
3.30252e-203
1.23988e-203
3.15036e-205
1.4434e-252
2.51363e-252
8.78854e-205
0
0
0
0
0
0
0
0
0
0
0
0
0
0
0
0
0
0
0
0
0
0
0
0
0
0
0
0
0
0
0
0
0
0
0
1
1
1
1
1
1
1
7.24935e-38
5.3763e-77
5.24091e-77
7.32736e-38
5.88021e-40
0.5
2.67449e-77
0.5
1
1
1
1
1
1
1
1
1
0.5
5.98025e-40
1.26346e-80
4.11673e-82
5.41421e-40
3.8394e-82
1.10297e-81
6.79438e-40
1.1072e-38
2.15395e-37
0.5
1.86571e-39
1
1
1
1
1
1
1
1
1
1
1
1
1
1
1
1
1
1
1
0.5
1
0.5
1
1
1
1
1.37421e-209
6.27628e-208
3.62997e-208
1.27747e-208
1.42429e-293
1.07252e-208
1.37315e-293
1.01167e-122
5.36939e-125
2.27523e-206
1.68871e-206
7.96012e-125
2.40684e-124
2.25638e-208
5.57722e-255
9.4558e-253
3.53485e-254
8.43283e-255
4.55503e-304
1.09469e-303
3.6995e-256
0
0
0
0
0
0
0
0
0
0
0
0
0
0
0
0
0
0
0
0
0
0
0
0
0
0
0
0
0
0
0
0
0
0
0
2.99862e-39
1
0.5
1
1.56021e-38
0.5
4.63999e-37
4.46948e-80
4.56402e-122
4.87586e-122
4.46681e-80
1.87901e-122
2.55235e-80
2.33244e-122
1.08852e-115
8.27993e-39
1.59061e-79
1.52619e-76
1.07197e-77
0.5
4.19946e-77
1.62923e-107
8.2428e-38
5.42032e-38
1.04528e-115
5.87208e-119
5.87218e-119
3.07816e-165
1.93857e-119
5.47444e-165
3.65922e-166
5.88213e-119
4.99749e-118
2.68169e-147
1.79455e-112
0
1
1
1
1
1
1
1
6.27855e-38
2.3368e-37
3.20771e-37
1.01934e-37
4.36661e-37
0.5
0.5
2.15828e-36
6.03108e-37
0.5
1.10801e-34
1.42407e-70
1
1.79254e-36
2.86498e-70
0.5
1
0.5
4.06817e-36
1
0.5
3.54513e-36
1.9148e-75
2.66722e-108
5.8254e-108
5.34474e-108
1.80483e-38
4.20802e-107
8.37735e-38
4.6319e-107
9.69173e-300
9.66605e-300
4.38727e-298
1.89016e-298
0
1.64318e-298
0
1.21145e-209
2.74539e-293
4.83566e-293
7.57862e-295
1.39697e-209
9.56393e-211
1.46989e-293
0
0
0
0
0
0
0
0
0
0
0
0
0
0
0
0
0
0
0
0
0
0
0
0
0
0
0
0
0
0
0
0
0
0
0
0
0
0
0
0
0
0
4.74194e-254
1.63389e-230
8.573e-273
3.2936e-231
1.26325e-274
5.71283e-254
1.99323e-254
2.12142e-296
0
0
6.80831e-297
0
8.2409e-297
5.65448e-297
4.15352e-214
5.93669e-187
3.60035e-230
1.78947e-186
2.87735e-230
4.43968e-188
1.33063e-214
2.15539e-254
1.9091e-275
5.04138e-300
1.023e-255
1.15769e-274
4.4112e-255
2.81262e-255
1.57533e-255
1.63004e-274
9.43175e-302
5.78544e-257
1.31554e-274
7.85106e-256
6.67877e-257
0
0
0
0
0
0
0
0
0
0
0
0
1.59991e-183
9.22421e-311
0
6.67826e-173
6.62384e-215
0
0
0
0
0
1.76029e-261
0
6.32811e-268
2.84833e-271
0
2.84071e-276
0
0
0
0
0
0
0
0
0
0
0
5.99796e-311
9.34653e-180
2.99395e-221
0
0
0
0
0
0
0
0
0
0
0
0
0
0
0
0
0
0
0
0
0
0
0
0
0
0
0
0
4.78019e-221
3.11183e-183
4.21204e-226
1.80901e-183
1.94053e-226
1.2506e-183
4.76819e-221
0
0
0
1.71425e-265
7.03248e-269
2.56914e-312
0
0
0
0
0
0
0
0
0
0
0
0
0
0
0
0
7.56943e-259
1.77864e-312
2.65212e-268
1.81376e-309
7.8386e-267
0
0
0
9.80267e-275
3.8049e-272
0
0
5.43116e-276
0
0
0
0
0
0
0
0
1.4822e-313
0
0
0
0
0
0
0
0
0
0
0
0
0
0
0
0
0
0
0
0
0
0
0
0
0
0
1.86979e-264
6.09266e-271
1.57706e-310
4.3451e-265
2.56552e-271
1.07073e-264
1.30856e-264
5.85743e-146
8.3072e-187
8.95878e-188
4.38155e-146
4.29828e-188
1.11493e-146
1.15164e-146
2.69245e-107
1.60342e-146
1.8202e-149
2.69196e-107
0
2.02498e-108
2.32464e-108
4.26738e-146
9.39687e-107
6.76946e-146
1.30791e-145
9.40425e-107
1.61136e-147
6.58076e-108
1.89318e-253
5.95943e-252
6.11206e-252
3.20996e-303
4.27103e-301
1.19756e-300
6.27333e-303
0
0
0
0
0
0
0
0
0
0
0
0
0
0
5.12965e-213
3.22107e-211
1.56133e-211
2.49277e-297
6.30479e-296
2.50327e-297
1.2676e-295
0
0
0
0
0
0
0
0
0
0
0
0
0
0
4.55379e-296
8.31684e-295
1.3591e-294
0
0
0
0
0
0
0
0
0
0
0
0
0
0
0
0
0
0
0
0
0
0
0
0
0
0
0
0
0
0
0
0
0
0
0
0
0
0
0
8.20501e-277
8.51288e-297
0
1.11678e-296
1.00681e-273
0
3.75166e-296
0
0
8.73403e-300
0
1.41505e-299
8.98789e-301
6.27114e-301
2.39146e-173
3.4219e-133
8.73595e-173
7.03696e-97
4.89448e-133
2.37844e-98
5.95471e-135
1.76448e-97
7.56627e-99
7.85417e-63
3.97458e-62
3.5291e-97
8.7158e-63
8.58683e-99
1.21205e-214
6.60783e-214
5.71499e-256
6.37743e-173
3.77276e-214
2.94581e-175
8.9387e-216
8.11581e-136
1.02111e-174
6.07336e-177
7.58896e-134
2.03237e-174
8.66504e-136
5.90033e-177
1.37481e-211
1.35679e-212
1.38704e-211
5.77232e-298
2.62841e-296
2.72837e-296
5.80127e-298
1.56097e-253
8.33253e-253
1.55802e-252
5.49994e-303
1.38244e-301
3.09171e-301
5.32084e-303
9.46916e-305
1.00711e-303
4.758e-304
0
0
0
0
0
0
0
0
0
0
0
0
0
0
0
0
0
0
2.75431e-213
5.01077e-205
2.08049e-166
6.43656e-253
1.05309e-299
4.64596e-212
4.56845e-298
3.16379e-254
4.15952e-166
1.85092e-205
4.78141e-212
1.90284e-297
5.6365e-253
2.18928e-300
1.92952e-305
2.78776e-210
1.13651e-255
1.16321e-295
0
8.65593e-305
0
0
0
9.90048e-301
0
0
0
0
1.01643e-259
7.98233e-277
3.242e-306
3.29525e-304
3.15291e-306
1.62616e-258
1.01676e-259
5.05826e-307
0
0
0
0
8.35624e-306
5.05843e-307
2.02788e-208
3.05319e-165
0
0
7.80964e-216
1.65356e-187
0
0
0
0
0
0
0
0
0
0
0
0
0
0
0
7.3632e-302
0
0
0
0
1.6083e-301
2.2635e-302
0
0
0
0
0
0
0
0
0
0
0
0
0
0
0
0
0
0
0
0
0
0
0
0
0
0
0
0
1.91203e-311
0
0
0
0
1.0326e-310
1.82804e-312
1.97173e-172
5.01599e-214
2.13698e-173
0
0
0
0
0
0
0
1.78705e-133
1
1
1
1
1
2.05551e-29
1
1
1
1
1
1
1
1
1
1
1
1
1
1
1
1
1
1
1
1
1
1
1
1
1
1
0.5
1
1
2.77355e-166
4.91762e-166
1.20564e-210
2.21013e-297
3.72026e-179
1
1
1
1
1
1
1
1
1
1
0.5
1.30413e-39
1
0.5
0
8.93733e-119
1
1
1
1
1
1
1
1
1
1
1
1
1
1
1
1
1
1
1
1
1
1
1
1
1
1
1
1
1
1
1
1
1
1
1
1
1
1
1
1
1
1
1
1
1
1
1
1
1
1
1
1
1
1
1
1
1
1
1
1
1
1
1
1
1
1
1
1
1
1
1
1
1
1
1
1
1
1
1
1
1
1
1
1
1
1
1
1
1
1
1
1
1
0.5
1
1
1
1
7.66264e-40
4.08415e-40
1.41846e-83
1
1.12664e-39
0.5
0.5
1
1
1
1
1
1
1
1
1
1
1
1
1
1
1
1
1
1
1
1
1
1
1
1
1
1
1
1
1
1
1
1
1
1
1
1
1
1
1
0.5
1
1
1
0.5
1.36616e-41
0.5
3.78176e-43
1
1.09821e-45
6.62943e-44
3.16031e-43
1.22545e-124
1.91802e-43
5.62552e-165
5.86634e-126
3.03144e-126
0.5
0.5
8.14786e-36
1
1
1
1
1
1
1
1
1
1
1
1
1
1
1
1
1
1
1
1
1
1
1
1
1
1
1
1
1
1
1
1
1
1
1
1
1
1
1
1
1
1
1
1
1
1
1
1
1
1
1
1
1.67013e-36
1
1
1.11235e-215
3.87488e-209
0
0
0
0
0
0
0
3.60668e-312
0
0
0
0
1.18576e-312
3.60668e-312
7.46552e-260
6.36022e-259
4.04705e-301
2.38315e-259
1.52329e-256
3.91834e-302
2.4811e-260
8.42093e-220
1.74094e-216
7.55996e-260
9.5948e-221
1.72187e-216
7.40914e-260
9.59921e-221
0
0
0
0
0
0
0
1.23944e-214
8.2986e-257
4.22222e-271
2.21353e-215
1.65498e-269
1.01374e-270
2.21325e-215
0
0
0
3.74529e-271
2.69008e-174
9.23924e-307
4.27722e-265
3.05745e-215
7.91446e-178
0
1.2744e-307
8.24299e-242
1.78707e-304
0
0
0
0
0
0
0
0
0
0
0
0
0
0
0
0
0
0
0
0
0
0
0
0
0
0
0
0
0
0
0
0
0
5.57523e-216
1.6851e-272
0
0
1.26508e-172
4.89377e-214
7.23544e-270
0
0
0
1.62199e-213
7.33799e-269
0
0
0
0
4.21402e-269
0
0
0
0
0
0
9.38725e-313
0
0
0
0
9.40226e-261
2.42076e-221
1.01841e-307
3.22564e-266
0
0
0
0
2.48013e-214
1.9597e-177
3.74643e-259
1.58246e-220
6.4724e-306
6.0384e-265
0
1.63042e-312
0
0
0
0
2.03636e-258
4.36284e-220
9.25047e-305
7.47548e-265
0
5.73116e-312
0
0
0
0
0
0
9.9443e-305
8.16923e-265
0
6.12641e-312
0
0
0
0
0
0
0
0
0
0
0
0
0
0
0
0
0
0
0
0
0
6.66226e-288
0
0
0
1.59575e-240
3.77012e-286
0
0
0
0
6.95731e-286
0
0
0
0
0
0
0
0
0
0
0
1.86219e-98
6.01273e-173
8.50723e-136
4.1753e-136
5.1819e-214
3.19405e-177
4.50737e-178
1.72486e-258
3.04171e-220
2.63881e-133
6.18595e-173
2.90854e-214
9.95178e-97
1.3365e-36
1.53588e-96
1
1
1
2.98727e-79
6.52975e-36
0
4.09892e-34
1.10452e-103
3.90836e-71
1
8.39722e-39
1.98398e-74
1
0.5
0
0.5
1
1
1
1
1
1
1
5.98998e-33
1
0.5
0
3.32385e-96
1.53709e-98
1.65903e-97
3.9288e-62
8.71609e-63
3.97428e-62
9.21197e-63
1
1
1
1
5.08121e-36
1
1
0.5
4.99041e-112
0
1.28446e-141
1.6067e-111
1.54746e-114
1.40636e-38
1.27342e-141
0
0.5
7.30181e-40
2.33109e-36
0.5
1.31573e-35
9.77471e-107
1.46111e-118
4.1448e-142
0
1.97172e-177
5.62532e-198
1.46097e-178
9.93157e-178
2.95694e-198
4.14323e-156
4.02787e-179
1
1
1
1
1
1
1
1
1
1
1
1
1
1
1
1
1
1
1
1
1
1
1
1
1
1
1
1
1
1
1
1
1
1
1
1
1
1
1
1
1
1
1
1
1
4.1815e-29
1
1
1
1
1
1
1
1
1
1
1.21076e-61
4.73503e-62
1
1.03142e-15
1.03874e-61
1.15595e-15
0
4.85872e-45
6.73134e-15
1.58954e-15
1
1
1
1
6.42898e-33
1
1
1
1
1
1
1
1
1
1
1
1
1
1
1
1
1.00131e-14
7.55444e-63
3.79604e-99
2.44312e-138
2.82617e-15
3.6628e-30
3.27655e-64
9.71674e-101
1.83425e-30
1.88708e-63
2.85262e-98
5.36238e-62
3.14177e-96
2.58038e-133
1
1
1
1
1
1
1
1
1
1
1
1
1
1
1
1
1
1
1
1
1
1
1
1
1
1
1
1
1
1
1
1
1
1
1
1
1
1
1
1
1
1
1
1
1
1
1
1
1
1
1
1
1
1
1
1
1
1
1
1
1
1
1
1
1
1
1
1
1
1
1
1
1
1
1
1
1
1
1
1
1
1
1
1
1
1
1
1
1
1
1
1
1
1
1
1
1
1
1
1
1
1
1
1
1
1
1
1
1
1
1
1
1
1
1
1
1
1
1
1
1
1
1
1
1
1
1
1
1
1
1
9.39498e-83
1.20527e-119
5.636e-159
8.13003e-48
5.88681e-15
2.05176e-297
1.30246e-213
9.53128e-216
4.86327e-213
9.20086e-304
0
0
2.74321e-307
0
2.22473e-308
0
5.27803e-300
1.33681e-253
7.81089e-216
1.43063e-298
4.46796e-212
0
0
7.92138e-307
1.37594e-294
0
9.56065e-298
3.98322e-212
2.83879e-296
1.59937e-211
4.5754e-299
2.90755e-253
0
1.94302e-301
3.13597e-213
0
5.3855e-296
0
0
0
0
0
0
0
0
0
0
0
0
0
0
0
0
6.05347e-307
2.74214e-307
0
1.99571e-306
0
0
0
0
0
0
0
0
0
0
0
0
0
0
0
0
0
0
0
0
0
0
0
7.91738e-307
0
1.45013e-306
0
6.83525e-306
0
5.82698e-290
0
2.61551e-238
4.54594e-296
1.3995e-237
1.40344e-295
6.72794e-307
0
0
0
0
0
0
0
0
2.63121e-243
9.04406e-303
9.34585e-302
0
0
9.04796e-303
1.15846e-295
4.53342e-214
3.67404e-212
2.06313e-168
1.01733e-213
1.00246e-167
2.67434e-290
8.30489e-238
7.59581e-297
0
1.90959e-237
2.02367e-296
3.3714e-307
6.82609e-242
8.29381e-214
1.30672e-144
7.09099e-215
3.31814e-191
4.8088e-215
1.65118e-241
6.72052e-242
2.60662e-144
8.63193e-215
1.01273e-213
3.04151e-241
8.65865e-192
5.88092e-215
1
1
1
1
1
1
1
1
1
1
1
1
1
1
1
1
1
1
1
1
1
1
1
1
1
1
1
1
1
1
1
1
1
1
1
1
1
1
1
1
1
1
1
1
1
1
1
1
1
1
1
1
1
1
1
1
1
1
2.56445e-15
2.16745e-30
2.71855e-64
5.64914e-100
2.28196e-14
1.82515e-29
1.18735e-62
3.7704e-98
3.17132e-136
2.11244e-14
1.66587e-29
5.1286e-62
1.0039e-96
1
1.95808e-15
2.45672e-31
3.84709e-65
3.40815e-114
1.02314e-196
1.97996e-239
1.92773e-284
0
5.85633e-300
0
2.81027e-216
9.57615e-298
0
5.09396e-296
4.83031e-298
2.54516e-293
5.4877e-210
1.61494e-197
0
0
0
0
0
0
0
2.92382e-276
3.7987e-253
1.28842e-251
1.85408e-296
3.95921e-297
7.07717e-253
1.27771e-295
3.09778e-252
1.50354e-252
2.14192e-238
2.01595e-291
1.87255e-294
4.37432e-239
1.98257e-292
1.13525e-237
1.30453e-239
3.26566e-216
1.17173e-301
0
0
2.44336e-300
1.17378e-301
0
0
3.60196e-301
1.03116e-305
2.62753e-259
1.73995e-293
5.55433e-211
0
5.31721e-295
0
2.06642e-295
1.55915e-302
4.73342e-295
0
3.32528e-214
9.86293e-169
2.47562e-301
3.19777e-215
2.11687e-214
2.2408e-222
1.04428e-215
1.87492e-155
6.11048e-117
2.55817e-153
1.1533e-115
7.81025e-153
1.48626e-155
3.39589e-154
9.8914e-196
3.58973e-193
2.94637e-196
4.82944e-193
1.17227e-115
2.43197e-117
1.41292e-116
3.34748e-80
2.23003e-80
7.30019e-81
1.12556e-80
1.67385e-155
9.69039e-197
2.69411e-240
2.94323e-196
2.07051e-239
1.01033e-284
2.194e-208
2.02609e-182
8.8116e-156
2.25732e-153
2.85669e-246
6.41139e-209
8.48378e-247
4.34945e-209
1.31063e-252
9.2077e-252
1.5297e-209
1.12782e-195
2.28236e-196
1.96176e-215
3.82618e-197
1.62566e-237
1.36138e-238
1.2789e-196
1.069e-300
0
2.3003e-300
0
0
0
0
0
0
0
0
0
0
0
0
0
0
0
0
0
7.88477e-260
1.91864e-306
0
0
0
0
6.89138e-240
6.06672e-286
0
9.23246e-285
0
0
0
0
0
0
0
0
0
0
0
0
0
0
0
0
0
0
0
0
7.55875e-251
1.20533e-248
6.29503e-209
2.33267e-207
1.52633e-46
1.11702e-293
2.61945e-251
1.39937e-293
2.13871e-251
9.75804e-297
2.02629e-296
2.14048e-251
2.77277e-286
4.52368e-249
1.92204e-287
3.66038e-249
1.59366e-293
4.26793e-293
1.21725e-249
3.43918e-81
2.3886e-118
5.63088e-157
2.51805e-199
2.32819e-15
5.27903e-48
2.46556e-83
4.33232e-121
2.20748e-160
6.89027e-15
3.39152e-30
9.31254e-64
7.39498e-100
4.43944e-138
1.66399e-208
6.10865e-207
1.41794e-154
1.66302e-153
7.78301e-250
4.77053e-209
8.1444e-250
5.18587e-207
1.44148e-207
1.58706e-243
1.8907e-207
1.6509e-244
1.13943e-203
6.0073e-203
1.52844e-203
6.91917e-203
2.66822e-300
0
0
0
0
6.91177e-300
0
0
0
0
0
0
0
0
0
0
0
0
0
0
0
0
0
0
0
0
0
0
0
0
1.16698e-284
0
0
0
0
0
9.36363e-284
0
0
0
0
0
0
0
0
0
0
0
0
0
0
0
0
0
0
0
0
2.16017e-306
4.89828e-239
3.30543e-260
0
5.3353e-301
0
4.62236e-300
0
0
6.38921e-297
0
0
0
0
0
0
0
0
0
0
0
0
0
6.42211e-308
0
0
0
0
0
0
0
7.74666e-307
0
0
0
0
0
0
0
6.04158e-309
1.02853e-297
0
3.30079e-305
0
0
0
0
0
0
0
0
2.39863e-302
0
0
0
0
0
0
0
0
2.71557e-252
9.28917e-250
0
0
0
0
0
0
0
0
0
0
0
0
0
0
0
0
0
0
0
0
0
0
0
0
0
0
0
0
0
0
0
0
0
0
0
0
0
0
0
0
0
0
0
0
0
0
0
0
0
0
0
0
0
0
0
0
0
8.16599e-307
0
7.77343e-309
0
7.44341e-308
0
0
0
0
0
0
0
0
0
0
0
0
0
0
0
0
0
0
0
0
0
0
0
0
0
0
0
0
0
0
0
0
0
0
0
0
0
0
0
0
0
0
0
0
0
0
6.08685e-298
1.00638e-294
2.38648e-306
1.51868e-305
2.98313e-296
0
0
5.16712e-298
0
2.87167e-296
1.61297e-297
6.02929e-293
0
0
2.66074e-294
0
1.75756e-293
8.06033e-295
3.7548e-196
9.38578e-196
1.05804e-194
2.47814e-196
4.24079e-196
6.63071e-239
7.94421e-237
1.22605e-238
5.14297e-238
8.10239e-239
5.1906e-284
0
1
1
1
1
1
1
1
1
1
1
1
1
1
1
1
1
1
1
1
1
1
1
1
1
1
1
1
1
1
1
1
1
1
1
1
1
1
1
1
1
1
1
1
1
1
1
1
1
1
1
1
1
1
1
1
1
1
1
1
1
1
1
1
1
1
1
1
1
1
1
1
1
1
1
1
1
1
1
1
1
1
1
1
1
1
1
1
1
1
1
1
1
1
1
1
1
1
1
1
1
1
1
1
1
1
3.48638e-155
2.61934e-109
4.30463e-118
6.39057e-105
1.87884e-37
7.91903e-70
7.50546e-205
1.00993e-155
5.59938e-205
2.22357e-152
1.34284e-152
1.55299e-152
8.5758e-153
1.78104e-152
5.38508e-153
5.03314e-174
1.82224e-104
1.31004e-71
2.64761e-104
6.31489e-104
0
6.90222e-73
1.53174e-105
1.3016e-35
1.17995e-35
1
4.58518e-71
1
1
1
1
1
1
1
1
1
1
1
1
1
1
1
1
1
1
1
1
1
1
1
1
1
1
1
1
1
1
1
1
1
1
1
1
1
1
1
1
1
1
1
1
1
1
1
1
1
1
1
1
1
1
1
1
1
1
1
1
1
1
1
1
1
1
1
1
1
1
1
1
1
1
1
1
1
1
1
1
1
1
1
1
1
1
1
1
1
1
1
1
1
1
1
1
1
1
1
1
1
1
1
1
1
1
0.5
1
9.5736e-68
1
1
1
1
1
1
1
1
1
1
1
1
1
1
1
1
1
1
1
1
1
1
1
1
1
1
1
1
1
1
1
1
1
1
1
1
1
1
1
1
1
1
1
1
1
1
1
1
1
1
1
1
1
1
1
1
1.29408e-34
1
1
1
1
1
1
1
1
1
0
1
1
1
1
1
1
1
1
1
1
1
1
1
1
1
1
1
1
1
1
1
1
1
1
1
1
1
1
1
1
1
1
1
1
1
1
1
1
1
1
1
1
1
1
1
1
1
1
1
1
1
1
1
1
1
1
1
1
1
1
1
1
1
1
1
1
1
1
1
1
1
1
1
1
1
1
1
1
1
1
1
1
1
1
1
1
1
0.5
1
1
1
1
1
2.17737e-32
1
7.40115e-15
1.49545e-14
1
1
1
1
1
1
0.5
1
0.5
1
1
1
1
1
1
1
1
1
1
1
1
1
1
1
1
1
1
1
1
1
1
1
1
1
1
1
1
1
1
1
1
1
1
1
1
1
1
1
1
1
1
1
1
1
1
1
1
1
1
1
1
1
1
1
1
1
1
1
1
1
1
1
1
1
1
1
1
1
1
1
1
1
1
1
1
1
1
1
1
1
1
1
1
1
1
1
1
1
1
1
1
1
1
1
1
1
1
1
1
1
1
1
1
1
1
1
1
1
1
1
1
1
1
1
1
1
1
1
1
1
1
1
1
1
1
1
1
1
1
1
1
1
1
1
1
1
1
1
1
1
1
1
1
1
1
1
1
1
1
1
1
1
1
1
1
1
1
1
1
1
1
1
1
1
1
1
1
1
1
1
1
1
1
1
1
1
1
1
1
1
1
1
1
1
1
1
1
1
1
1
1
1
1
1
1
1
1
1
1
1
1
1
1
1
1
1
1
1
1
1
1
1
1
1
1
1
1
1
1
1
1
1
1
1
1
1
1
1
1
1
1
1
1
1
1
1
0.5
0.5
0.5
1
1
1
1
1
1
1
1
1
1
1
1
1
1
1
1
1
1
1
1
1
1
1
1
1
1
1
1
1
1
1
1
1
1
1
1
1
1
1
1
1
3.04702e-36
1.10232e-35
1
1
1
1
1
1
1
1
1
1
1
1
1
1
1
1.08268e-67
9.57429e-68
9.99504e-68
2.18063e-33
2.62428e-33
2.20562e-33
1
1
1
1
1
1
1
1
1
1
1
1
1
1
1
1
1
1
1
1
1
1
1
1
1
1
1
1
1
1
1
1
1
1
1
1
1
1
1
1
1
1
1
1
1
1
1
1
1
1
1
1
1
1
1
1
1
1
1
1
1
1
1
1
1
1
1
1
1
1
1
1
1
1
1
1
1
1
1
1
1
1
1
1
1
1
1
1
1
1
1
1
1
1
1
1
1
1
1
1
1
1
1
1
1
1
1
1
1
1
1
1
1
1
1
1
1
1
1
1
1
1
1
1
1
1
1
1
1
1
1
1
1
1
1
1
1
1
1
1
1
1
1
1
1
1
1
1
1
1
1
1
1
1
1
1
1
1
1
1
1
1
1
1
1
1
1
1
1
1
1
1
1
1
1
1
1
1
1
1
1
1
1
1
1
1
1
1
1
1
1
1
1
1
1
1
1
1
1
1
1
1
1
1
1
1
1
1
1
1
1
1
1
1
1
1
1
1
1
1
1
1
1
1
1
1
1
1
1
1
1
1
1
5.22665e-81
1.28112e-69
1
1.48208e-32
0.5
1.14969e-46
3.57728e-32
0.5
1
1
4.60778e-34
2.35614e-102
1.02176e-102
1.18124e-102
1.01665e-102
1.17312e-68
6.56843e-35
3.47428e-68
1.83017e-68
1
1
1
1
1
1
1
1
1
1
1
1
1
1
1
1
1
1
1
1
1
1
1
1
1
1
1
1
1
1
1
1
1
1
1
1
1
1
1
1
1
1
1
1
1
1
1
1
1
1
1
1
1
1
1
1
1
1
1
1
1
1
1
1
1
1
1
1
1
1
1
1
1
1
1
1
1
1
1
1
1
1
1
1
1
1
1
1
1
1
1
1
1
1
1
1
1
1
1
1
1
1
1
1
1
1
1
1
1
1
1
1
1
1
1
1
1
1
1
1
1
1
1
1
1
1
1
1
1
1
1
1
1
1
1
1
1
1
1
1
1
1
1
1
1
1
1
1
1
1
1
1
1
1
1
1
1
1
1
1
1
1
1
1
1
1
1
1
1
1
1
1
1
1
1
1
1
1
1
1
1
1
1
1
1
1
1
1
1
1
1
1
1
1
1
1
1
1
1
1
1
1
1
1
1
1
1
1
1
1
1
1
1
1
1
1
1
1
1
1
1
1
1
1
1
1
1
1
1
1
1
1
1
1
1
1
1
1
1
1
1
1
1
1
1
1
1
1
1
1
1
1
1
1
1
1
1
1
1
1
1
1
1
1
1
1
1
1
1
1
1
1
1
1
1
1
1
1
1
1
1
1
1
1
1
1
1
1
1
1
1
1
1
1
1
1
1
1
1
1
1
1
1
1
1
1
1
1
1
1
1
1
1
1
1
1
1
1
1
1
1
1
1
1
1
1
1
1
1
1
1
1
1
1
1
1
1
1
1
1
1
1
1
1
1
1
1
1
1
1
1
1
1
1
1
1
1
1
1
1
1
1
1
1
1
1
1
1
1
1
1
1
1
1
1
1
1
1
1
1
1
1
1
1
1
1
1
1
1
1
1
1
1
1
1
1
1
1
1
1
1
1
1
1
1
1
1
1
1
1
1
1
1
1
1
1
1
1
1
1
1
1
1
1
1
1
1
1
1
1
1
1
1
1
1
1
1
1
1
1
1
1
1
1
1
1
1
1
1
1
1
1
1
1
1
1
1
1
1
1
1
1
1
1
1
1
1
1
1
1
1
1
1
1
1
1
1
1
1
1
1
1
1
1
1
1
1
1
1
1
1
1
1
1
1
1
1
1
1
1
1
1
1
1
1
1
1
1
1
1
1
1
1
1
1
1
1
1
1
1
1
1
1
1
1
1
1
1
1
1
1
1
1
1
1
1
1
1
1
1
1
1
1
1
1
1
1
1
1
1
1
1
1
1
1
1
1
1
1
1
1
1
1
1
1
1
1
1
1
1
1
1
1
1
1
1
1
1
1
1
1
1
1
1
1
1
1
1
1
1
1
1
1
1
1
1
1
1
1
1
1
1
1
1
1
)
;

boundaryField
{
    ground
    {
        type            zeroGradient;
    }
    outlet
    {
        type            zeroGradient;
    }
    wall
    {
        type            zeroGradient;
    }
    wall2
    {
        type            zeroGradient;
    }
    wall3
    {
        type            zeroGradient;
    }
    internalPatch
    {
        type            internal;
    }
    procBoundary1to0
    {
        type            processor;
        value           nonuniform List<scalar> 
321
(
6.4202e-62
1.22143e-29
0
5.26203e-61
9.8538e-62
6.85449e-97
2.08322e-96
2.08322e-96
6.4202e-62
1.22143e-29
2.05524e-15
2.05524e-15
1
6.69215e-15
1
0.5
6.00526e-32
1.19167e-61
9.35398e-97
5.2803e-133
4.6504e-133
4.6504e-133
2.08322e-96
2.22752e-133
1.31578e-172
4.65503e-133
1.90634e-96
2.1014e-62
1.12838e-30
3.49107e-30
2.14755e-13
2.14755e-13
1
1
1
1
1
1
1
2.66801e-34
8.9788e-71
8.9788e-71
5.2803e-133
5.2803e-133
1.13838e-207
1.36914e-172
1.36914e-172
2.13724e-173
2.13724e-173
1.21493e-213
1.97366e-173
2.00513e-213
1.1068e-270
5.97078e-213
2.46152e-172
5.81695e-133
9.00568e-97
1.37421e-63
4.95489e-46
1.49393e-79
2.81659e-98
9.78024e-134
6.79329e-173
5.1664e-213
8.39992e-271
0
0
0
0
0
0
0
0
0
0
0
0
0
0
0
0
0
2.05564e-268
4.51223e-268
4.51223e-268
0
4.94066e-313
1.41155e-310
8.34259e-306
5.51122e-307
1.93454e-307
8.15315e-307
8.15315e-307
4.44355e-257
7.23173e-210
3.34394e-212
5.41783e-217
5.85306e-218
8.30512e-263
2.17712e-268
7.34986e-279
5.16935e-280
0
0
0
0
0
0
3.68792e-282
4.31545e-237
2.28e-192
6.8297e-116
2.34858e-76
4.74546e-75
3.667e-38
0.5
1
1
1
1
1
1
1
1
1
1
1
1
1
1
1
1
1
1
1
1
1
1
1
1
1
1
1
1
1
1
1
1
1
1
1
1
1
1
1
1
1
1
1
1
1
1
1
1
1
8.9788e-71
5.33619e-37
2.17312e-76
3.14808e-108
1.47785e-180
1.31007e-223
9.35826e-215
2.13724e-173
9.35826e-215
1.21493e-213
1.21493e-213
1.21493e-213
6.19518e-272
1.00327e-214
2.43173e-271
0
0
0
0
0
0
0
0
0
0
0
0
0
3.51966e-264
3.49926e-264
3.49926e-264
0
0
0
0
0
0
2.58111e-263
9.90044e-217
1.00308e-217
6.85899e-223
1.0913e-223
1.28035e-269
1.33806e-270
2.15628e-281
3.10632e-282
0
0
0
0
0
2.78247e-268
9.21775e-269
9.21775e-269
1.02223e-267
5.16613e-223
4.61695e-193
1.54383e-116
1.31007e-223
8.99199e-270
4.77543e-271
0
0
0
0
1.95637e-273
0
0
0
0
0
6.54322e-268
1.44164e-264
1.39647e-264
1.39647e-264
1.39647e-264
1.7825e-217
1.69179e-223
2.32861e-270
3.52162e-282
0
0
0
0
0
0
0
0
3.60939e-276
0
0
8.78925e-37
1
1
1
1
1
1
1
1
1
1
1
1
1
1
1
1
1
1
1
1
1
1
1
1
1
1
1
1
1
1
1
1
1
1
1
1
1
1
1
1
1
1
1
1
1
1
1
1
1
1
1
1
1
1
1
1
1
1
1
1
1
1
1
1
)
;
    }
    procBoundary1to2
    {
        type            processor;
        value           nonuniform List<scalar> 
317
(
1.95814e-238
5.9945e-155
8.36848e-155
2.18513e-237
1.15206e-281
5.99024e-307
9.26884e-284
0
1.66276e-283
3.31873e-196
3.31873e-196
5.9945e-155
4.14936e-155
4.14936e-155
1.10931e-153
2.63714e-154
2.65954e-237
2.06973e-281
2.73712e-294
0
0
0
0
0
0
0
0
0
2.25744e-239
2.25744e-239
2.54278e-198
1.10358e-155
1.95855e-117
1.63153e-80
3.75055e-117
2.88708e-116
1.10931e-153
1.10931e-153
2.63714e-154
5.24416e-207
2.15403e-249
6.7975e-294
0
0
0
0
0
0
0
0
0
0
0
0
0
0
0
0
1.5264e-284
1.5264e-284
6.04951e-242
1.18714e-213
1.01413e-158
1.51434e-119
2.68611e-82
2.50645e-47
4.34707e-15
3.22424e-46
3.83979e-80
3.06475e-116
3.06475e-116
9.63453e-117
4.59792e-207
4.59792e-207
1.69141e-248
3.36589e-292
0
0
0
0
0
0
0
0
0
0
0
0
0
0
0
0
0
0
0
0
0
0
0
0
0
0
0
0
0
0
0
0
0
0
0
0
0
0
0
0
0
0
0
0
0
0
0
0
0
0
0
0
0
0
0
0
0
0
0
0
0
0
0
0
0
0
0
0
0
0
0
0
0
0
0
0
0
0
0
0
0
0
0
0
0
0
0
0
0
0
0
0
0
0
0
0
0
0
0
0
0
0
0
0
0
0
0
0
0
0
0
0
0
0
0
0
0
0
0
0
0
0
1.03727e-290
1.10658e-207
1.10658e-207
2.87186e-154
9.42885e-152
2.73727e-151
2.73727e-151
2.06848e-102
1.58262e-138
3.39033e-106
7.27065e-37
0.5
1
1
1
1
1
1
1
1
1
1
1
1
1
1
1
1
1
1
1
1
1
1
1
1
1
1
1
1
1
7.96645e-15
1.63977e-29
6.78422e-63
2.25723e-98
2.92388e-136
8.50499e-177
1
1
0.5
2.12304e-32
2.40178e-68
2.07247e-102
1.36971e-151
1.36971e-151
1.07012e-151
8.31044e-154
4.59792e-207
1.14667e-101
1.51622e-35
0.5
1
1
1
1
1
1
1
1
1
1
1
1
1
1
1
1
1
1
1
1
1
1
1
1
1
1
1
1
1
1
0.5
2.9222e-34
1
1
1
1
1
1
1
1
1
1
1
1
1
1
1
1
1
1
1
1
1
1
1
1
1
1
)
;
    }
    procBoundary1to3
    {
        type            processor;
        value           uniform 1;
    }
    procBoundary1to4
    {
        type            processor;
        value           nonuniform List<scalar> 
116
(
5.0931e-51
6.08677e-72
3.65913e-76
9.76751e-109
3.74378e-136
3.17392e-98
1.49811e-62
8.31953e-30
1.02575e-14
1
1
1
1
1
1
1
1
1
1
1
1
1
1
1
1
1
1
1
1
1
1
1
1
1
1
1
1
1
1
1
1
1
1
1
5.02423e-08
6.17252e-23
6.17252e-23
6.17252e-23
4.96559e-38
1.84948e-70
2.40597e-35
6.16516e-39
1.41102e-41
4.57894e-64
6.60363e-31
2.7624e-15
1
1
1
1
1
1
1
1
1
1
1
1
1
1
1
1
1
1
1
1
1
1
1
1
1
1
1
1
1
1
1
1
1
6.45705e-11
1.56376e-08
2.05549e-23
6.80693e-26
1
1
1
1
1
1
1
1
1
1
1
1
1
1
1
1
1
1
1
1
1
1
1
)
;
    }
    procBoundary1to5
    {
        type            processor;
        value           uniform 1;
    }
}


// ************************************************************************* //
