/*--------------------------------*- C++ -*----------------------------------*\
  =========                 |
  \\      /  F ield         | OpenFOAM: The Open Source CFD Toolbox
   \\    /   O peration     | Website:  https://openfoam.org
    \\  /    A nd           | Version:  9
     \\/     M anipulation  |
\*---------------------------------------------------------------------------*/
FoamFile
{
    format      ascii;
    class       surfaceScalarField;
    location    "0.00345";
    object      phi;
}
// * * * * * * * * * * * * * * * * * * * * * * * * * * * * * * * * * * * * * //

dimensions      [0 3 -1 0 0 0 0];

internalField   nonuniform List<scalar> 
95477
(
-0.769095
-0.0275384
0.206743
1.02515
-0.0936097
0.0119284
-0.425368
0.0743807
0.342389
0.674186
-0.278821
-0.3111
-0.878742
0.39006
0.635164
1.11308
-0.551511
-0.457647
-0.937273
0.0258783
0.584878
1.1489
-0.0467581
-0.458002
0.260276
-0.00383248
0.571137
0.154998
-0.0509718
0.487761
0.0165689
-0.257135
0.0297059
-0.430813
0.273018
0.688823
-0.190641
0.10504
-0.0801582
-0.474278
-0.710297
0.591521
0.934862
-0.101522
0.108333
-0.267462
-0.0964145
0.358073
0.346434
-0.0735273
0.0891015
0.058723
0.254243
0.0652936
-0.0262727
-0.515334
-0.72807
0.180518
0.621346
0.954437
-0.0313186
-0.118582
-0.0799863
0.332379
0.168449
-0.034099
0.00747804
0.285148
0.136446
-0.0703468
-0.235549
-0.783798
0.592287
1.02164
-0.515449
-0.333383
-0.77463
-1.10004
0.880508
1.32196
0.417033
0.166284
-0.105901
0.243344
0.320058
-0.090872
-0.191717
0.248526
-0.170966
-0.402149
0.665773
0.503352
-0.458347
-0.437457
0.173084
-0.0757991
0.0847739
0.548282
-0.0541306
0.320843
-0.316567
-0.0748031
0.233714
-0.0898406
-0.303316
0.0150427
-0.0420714
-0.2355
0.51412
0.353306
-0.220339
-0.0663631
0.429774
0.333741
0.0472872
-0.0731727
-0.0902841
0.482554
-0.0943951
0.565372
-0.373341
0.0113313
0.249585
0.476211
0.118633
0.0104257
-0.170488
-0.109428
0.238895
0.0932048
-0.253009
0.157929
0.0934137
-0.0804213
-0.0840968
0.167848
0.158874
-0.163803
0.274403
0.266524
-0.0917122
-0.0487601
0.347549
0.0154829
-0.0799962
0.262466
-0.0567359
0.397818
-0.159244
0.154963
0.412459
-0.079335
0.00114729
-0.177563
0.314935
-0.0918507
-0.0731272
0.0499249
0.0447988
-0.0661742
0.55629
-0.0312036
-0.0598934
0.715448
0.216773
-0.0448565
0.642845
0.19694
0.634623
-1.05605
0.886037
1.2721
-0.437724
-0.77074
0.525038
0.231619
0.292716
0.419696
-0.189532
-0.235622
-0.46481
0.332477
0.763757
0.574519
-0.557953
0.729185
-0.940705
0.637632
-0.630212
1.16743
-0.536286
0.676625
-1.05214
0.841275
1.27337
-0.575366
-0.402354
0.415439
0.607601
0.521334
-0.387107
-0.351763
0.610314
0.716457
-0.600988
0.955397
-0.507754
-0.747958
-0.037508
-0.0108355
0.129016
-0.686215
0.201149
-0.0314718
0.939074
-0.0954925
-0.00630569
-0.0538755
0.116789
0.729799
0.0366656
-0.05059
0.117
-0.0176927
-0.81052
0.33056
1.05324
-0.0159366
0.317658
0.970339
0.123678
0.122422
0.308079
0.0158918
-0.0732238
0.111053
0.129005
-0.0984383
0.109044
0.193851
0.048727
0.0744412
-0.0737963
0.439958
0.0417787
-0.125151
-0.0250387
0.483683
0.247137
0.544858
0.208157
-0.0587267
0.369911
0.0489448
0.0186334
0.0428048
0.223593
-0.00462431
-0.0312014
0.0384675
-0.0504149
0.19955
-0.00717076
0.042944
0.173882
0.00811891
0.136014
0.109334
0.0491523
0.095108
0.189867
0.07377
0.262746
-0.142548
0.00240127
0.112104
0.278165
0.250771
0.0860704
0.370235
-0.538359
0.229021
0.799524
-0.134153
0.0687073
0.0992815
-0.055567
-0.0189563
0.0366928
0.061956
0.602776
-0.0544149
0.145877
0.00191294
-0.513796
0.0169843
0.367819
0.759643
0.334636
0.853371
-0.038776
0.194907
-0.0178298
0.161047
0.0643385
-0.181747
0.389406
0.0905889
0.270122
-0.178692
0.261839
0.0646913
-0.0408519
-0.198947
0.0568108
0.504764
0.304767
0.0245948
0.389027
0.325365
0.108118
0.486735
0.13874
0.607049
0.418634
0.792063
0.248842
0.0250682
-0.0326546
0.00204542
-0.86921
1.09656
-0.00466192
-0.264814
0.406333
-0.441844
-0.865485
0.0399651
0.573474
1.08205
0.0107374
1.01969
-0.00240228
0.387376
0.157176
0.173296
0.0591107
-0.106971
-0.123086
0.428335
0.193819
0.314053
-0.209641
0.28435
0.223738
-0.0612401
-0.14629
0.367766
0.215209
0.550248
-0.308831
0.288266
0.407988
-0.233389
0.163869
0.35632
0.512555
0.239469
0.444617
0.652087
0.0270839
0.19486
-0.138604
-0.507435
0.439224
0.159523
0.753774
-0.379927
0.318694
0.111289
-0.265979
-0.517679
0.103049
0.421766
0.758397
0.0471013
0.269023
0.6068
0.383417
0.131222
0.510976
0.186367
0.848217
0.685263
0.265718
-0.024565
-0.451155
-0.778327
0.577967
1.00584
-0.037723
-0.608992
0.0583645
0.842889
-0.0175049
-0.303241
0.0359198
0.422993
0.924321
0.395776
-0.00725046
0.342965
0.501999
0.304401
-0.271724
-0.283262
0.264927
0.529379
0.369728
-0.310172
0.284714
0.413861
0.648662
-0.347701
0.612976
0.339493
0.422282
-0.392242
0.458712
0.357313
0.731816
-0.389638
0.315545
0.498198
0.750538
0.391794
0.54542
0.834213
-0.301465
0.528756
0.392928
-0.318372
-0.143336
0.544343
0.219604
-0.331449
0.404102
-0.187389
0.436879
0.186833
0.626472
-0.218719
-0.535129
0.296621
0.880504
0.636281
0.745751
0.532505
0.264139
0.763469
-0.619989
0.138778
0.853027
-0.360348
0.114737
0.467735
0.0768773
0.717334
0.463531
0.159986
-0.598326
-0.832612
0.251945
0.700445
1.06239
0.217286
0.953909
0.193042
0.562854
-0.646112
0.519455
0.888508
-0.451328
-0.187994
0.483422
0.262491
-0.41525
0.407228
-0.347085
0.745495
0.208353
0.480482
-0.261896
-0.881588
0.33741
0.678889
1.11558
0.59894
0.984412
0.28522
0.566323
0.377824
0.554708
-0.327037
-0.315085
-0.432825
0.717761
0.543947
0.499639
-0.501234
0.667499
0.460717
-0.446511
-0.44899
0.524592
0.558403
0.834845
-0.448444
0.490883
0.785394
-0.417776
0.481685
0.580738
0.891304
0.586168
0.6168
0.297855
0.64381
-0.432577
-0.519163
0.845796
0.415953
0.631709
-0.641231
0.727528
0.376165
-0.515656
-0.597139
0.381129
0.706711
0.976586
0.346704
0.860263
0.648096
0.428758
0.941958
0.763781
0.467895
0.337263
0.528232
-0.45305
-0.960855
0.675061
1.19165
0.469303
-0.58717
0.569259
0.412008
-0.490595
-0.976387
0.419357
0.730411
1.20803
0.366005
0.618416
1.05711
0.446467
0.66363
0.503527
0.775172
1.28498
0.8551
0.566225
0.237815
-0.68985
-0.96953
0.793514
1.19817
-0.295811
-0.988311
0.373863
1.21715
-0.27347
-0.658786
0.761914
0.352728
1.09016
0.666522
0.314369
-0.00350285
-0.0279684
0.000130758
0.00155129
0.00228252
-8.25238e-06
2.95146e-06
7.10315e-07
-1.63922e-05
-1.60597e-05
-1.80869e-05
-1.71528e-05
-1.80307e-06
1.70832e-06
-5.79145e-06
2.49541e-07
4.81897e-07
-3.5682e-06
1.99644e-07
-1.69144e-06
-2.96565e-06
-1.56626e-06
-1.05316e-06
-8.98196e-07
-1.04001e-06
-8.53866e-07
6.46145e-08
-1.62524e-06
2.39531e-08
6.75024e-09
-1.66282e-07
2.30977e-09
-1.31472e-08
1.81924e-10
-1.38214
-4.19971
3.72691
0.141601
1.4101
-0.00109741
0.000484823
-0.00639353
3.10694e-05
0.000361798
-1.85537e-05
1.44435e-05
-6.66423e-05
8.92665e-07
1.55548e-05
-7.98852e-06
3.36362e-06
-2.92627e-05
4.09513e-07
1.23817e-06
-1.16493e-05
4.79847e-07
-3.11453e-06
-9.04279e-06
-2.80982e-06
-1.74601e-06
-4.30652e-06
-1.48346e-06
-3.40043e-06
1.28113e-07
-2.67872e-06
4.36295e-08
-2.00853e-07
3.3897e-09
-4.1548
-1.47243
4.256
0.180572
1.60003
-1.64423
2.91239
-3.88386
0.109909
1.53073
-0.242822
0.0694587
-0.613192
0.00477671
0.0620777
-0.000537726
0.000194756
-0.00182352
1.05531e-05
0.000109381
-1.51742e-05
8.40104e-06
1.35836e-06
-2.70705e-05
-2.53667e-05
-1.50017e-05
-1.52657e-05
-1.43571e-05
-1.51085e-05
-1.40387e-05
2.33399e-06
-1.88612e-05
7.87275e-07
-4.41288e-06
-1.45935e-05
-3.89356e-06
-3.59296e-06
-1.30003e-05
-3.07367e-06
-1.04922e-05
-2.84332e-06
5.66422e-08
3.48074
-3.30965
0.176568
1.37041
-1.26511
-1.71339
3.78514
-3.43146
0.171604
1.85145
-2.35152
3.93478
-3.92411
0.16226
2.41518
-2.10222
1.54911
-3.2102
0.063323
1.37451
-0.0100804
0.00175325
-0.0194652
0.000112011
0.00144164
-1.97735e-05
1.61942e-05
2.48622e-06
-6.07434e-05
-5.4729e-05
-2.2964e-05
-2.06587e-05
-4.84254e-05
-2.01031e-05
-4.43878e-05
-1.68484e-05
8.80821e-07
-4.53105e-06
-1.99117e-05
-3.85874e-06
-1.54484e-05
-4.71781e-06
-1.34312e-05
-3.9849e-06
2.7642
-2.55734
0.147466
1.22449
-1.15343
-1.47488
2.85577
-2.65554
0.156338
1.57604
-1.91629
3.05188
-2.8744
0.159119
2.03807
-2.50477
3.61738
-3.22766
0.162777
2.759
-2.91684
2.87662
-3.35307
0.117124
2.5794
-0.0372502
0.00423759
-0.0388454
0.000296637
0.00420056
-2.62431e-05
1.75012e-05
2.53133e-06
-4.19172e-05
-3.82363e-05
-1.96259e-05
-1.90612e-05
-6.35168e-05
-2.59456e-05
-5.8166e-05
1.93863
-1.725
0.083014
0.902777
-0.828224
-1.18227
2.02083
-1.81597
0.105828
1.28909
-1.61114
2.30806
-2.11407
0.135849
1.73067
-2.13931
2.64017
-2.47091
0.153696
2.28254
-2.75326
3.06438
-2.80288
0.159782
3.00713
-3.31975
2.66786
-2.99355
0.119276
2.89716
-0.0239695
0.00183952
-0.0135423
0.000140926
0.00224278
1.21028
-1.0112
0.047863
0.713291
-1.14039
1.53977
-1.36789
0.0863212
1.3001
-1.75796
1.96008
-1.79696
0.126564
1.91412
-2.41348
2.32379
-2.17734
0.152265
2.58359
-3.15421
2.79134
-2.54041
0.161076
3.54732
-3.29814
1.63871
-2.27557
0.074757
1.9052
0.851222
-0.676857
0.0273225
0.714112
-0.534385
-1.27674
1.33244
-1.18016
0.0805783
1.46383
-2.04414
1.75555
-1.62836
0.131835
2.2357
-2.8034
2.07757
-1.95315
0.155763
2.9815
-3.87685
2.49781
-2.42062
0.161565
3.92387
-1.4677e-05
-1.58993e-06
4.54844e-06
7.57193e-06
-5.35177e-05
-3.15838e-05
-2.92414e-05
-2.10435e-05
-1.75869e-06
-1.5324e-06
-1.58895e-06
-2.57764e-06
-1.14828e-06
1.45799e-06
-1.77584e-05
7.77716e-07
1.11215e-06
-2.2017e-05
6.03969e-07
-6.66185e-06
-8.89839e-06
-3.26587e-06
-1.07952e-06
-2.75241e-06
-8.53476e-07
-1.53744e-06
-2.68343e-07
-2.91282e-07
-5.36301e-07
-3.28131e-07
1.95317e-07
-1.52863e-06
1.15713e-07
-9.52429e-07
-1.12201e-06
-9.43742e-07
2.73745e-08
-6.68833e-07
1.57285e-08
2.8707e-09
-7.0795e-08
1.54295e-09
-5.63464e-09
1.17456e-10
-0.00935099
-0.00440498
0.00597124
0.00254229
-0.071135
0.00413771
-0.000189307
-5.88251e-05
0.000138929
-0.00135257
4.45965e-05
8.6271e-05
-9.82658e-06
-3.77089e-06
1.41901e-05
7.61535e-06
-0.000131074
-6.81057e-05
-4.18842e-05
-2.94984e-05
-1.98296e-05
-9.22765e-06
-1.37096e-05
-4.50506e-06
-3.24849e-06
-3.47365e-06
-3.08964e-06
-6.58699e-07
1.61396e-06
-9.59783e-06
6.00646e-07
5.10517e-07
-4.36961e-06
3.27706e-07
-1.39109e-06
-2.2072e-06
-1.13986e-06
-7.98235e-07
-1.41532e-06
-7.8588e-07
-9.7118e-07
5.43678e-08
-1.00934e-06
3.10485e-08
-8.29973e-08
2.29967e-09
-1.42244
-0.693403
-4.21707
0.82838
1.48066
3.95885
-1.34691
-0.453042
1.4951
-3.46385
0.473997
1.05468
-0.0532004
-0.0116847
0.0155284
-0.171822
0.00675258
0.0121813
-0.000109008
-1.92961e-05
4.43126e-05
-0.000369809
1.45939e-05
3.64876e-05
-1.47238e-05
-2.05005e-06
3.42077e-06
1.66472e-06
-9.42109e-06
-8.44864e-06
-9.5509e-06
-1.04824e-05
8.61298e-07
-7.26752e-06
5.75183e-07
-1.72611e-06
-3.85597e-06
-1.37367e-06
-1.46551e-06
-5.02426e-06
-1.05185e-06
-2.27491e-06
-1.00704e-06
4.03323e-08
-0.603971
3.54606
-3.33116
0.742837
1.37494
-1.2625
-1.75848
-0.640939
3.99777
-3.56729
0.800747
1.92097
-2.30449
-0.66453
3.81368
-3.89309
0.808965
2.33549
-1.4326
-0.277055
0.439274
-2.30888
0.228863
0.458809
-0.00196606
-0.000266081
0.000324537
-0.00388591
0.000153701
0.000282383
-1.55381e-05
-3.96273e-06
6.74274e-06
3.09633e-06
-1.57674e-05
-1.20151e-05
-8.88752e-06
-8.66115e-06
-1.50357e-05
-1.51758e-05
-1.31094e-05
-6.45239e-06
6.4742e-07
-1.65549e-06
-7.5831e-06
-1.29572e-06
-3.8408e-06
-1.78429e-06
-2.93774e-06
-1.26176e-06
-0.418141
2.70017
-2.4579
0.524746
1.14621
-1.05185
-1.46643
-0.503021
2.9087
-2.6948
0.625584
1.58438
-1.95191
-0.573022
3.14832
-2.95688
0.707836
2.08208
-2.62599
-0.635246
3.65198
-3.42322
0.800597
2.84672
-2.63745
-0.487104
1.91592
-3.06061
0.533565
1.80018
-0.00739784
-0.000712538
0.000799718
-0.00775293
0.000397788
0.000808956
-2.11839e-05
-4.22927e-06
7.16324e-06
3.10383e-06
-1.14549e-05
-1.06312e-05
-8.13527e-06
-8.43e-06
-2.07697e-05
-2.19227e-05
-1.81006e-05
-0.263812
1.68051
-1.42214
0.340456
0.844775
-0.765755
-1.12109
-0.302201
2.00713
-1.76875
0.393958
1.22946
-1.60511
-0.420522
2.3665
-2.16127
0.529361
1.74461
-2.19075
-0.537604
2.71381
-2.54263
0.666251
2.33894
-2.85863
-0.608634
3.24478
-2.91275
0.763386
3.18491
-3.04653
-0.495723
1.92157
-2.73564
0.548753
2.0227
-0.00483294
-0.000345538
0.000346101
-0.00267944
0.000195832
0.000444748
-0.149272
-0.840013
0.223388
0.736885
1.06178
-1.1376
-0.242794
1.54319
-1.3396
0.327849
1.2874
-1.77438
-0.386074
1.99973
-1.82383
0.49037
1.94616
-2.4832
-0.532939
2.38629
-2.2361
0.660976
2.65588
-3.32527
-0.624142
2.90731
-2.65729
0.787407
3.60792
-2.61413
-0.326471
0.670781
-1.71474
0.29525
0.621972
-0.196225
0.625101
0.654744
0.275938
-0.475577
-1.27639
-0.23349
1.32211
-1.16771
0.318656
1.4767
-2.08818
-0.40656
1.78154
-1.63787
0.514005
2.29215
-2.88622
-0.55951
2.12674
-1.99619
0.692359
3.07264
-3.87154
-0.657206
2.44319
-2.395
0.807612
3.84147
-2.09305e-06
-1.67897e-06
-1.72198e-05
9.57658e-07
1.15766e-06
-5.26849e-07
-7.80284e-07
7.37777e-07
-2.75721e-06
4.96672e-07
2.55389e-07
-3.10357e-06
1.5704e-07
-1.1212e-06
-1.21688e-06
-7.6712e-07
-4.59913e-07
-3.8696e-07
-4.54192e-07
-3.61905e-07
4.5769e-08
-1.38817e-06
2.73919e-08
6.27443e-09
-2.10017e-07
3.33753e-09
6.51838e-10
-1.77718e-08
3.19275e-10
-1.28575e-09
2.47233e-11
-0.000126867
-0.000133894
0.000142923
-0.00143035
8.40967e-05
7.15373e-05
-6.36811e-06
-9.23424e-06
8.30279e-06
-3.69638e-05
8.18633e-06
5.48661e-06
-4.94995e-06
-2.68275e-06
2.16457e-06
1.51927e-06
-1.00909e-05
-1.40691e-05
-1.40619e-05
-1.39551e-05
9.94677e-07
-1.58973e-05
6.02711e-07
-4.12483e-06
-5.40565e-06
-2.02302e-06
-1.11857e-06
-3.77983e-06
-7.23259e-07
-1.38975e-06
-5.14702e-07
-4.23162e-07
-1.13726e-06
-6.3141e-07
1.34863e-07
-1.03029e-06
7.09129e-08
-1.32431e-06
-1.08298e-06
-1.2977e-06
1.28754e-08
-3.34188e-07
6.28092e-09
-2.13663e-08
4.66436e-10
-0.677134
-0.769344
-2.70936
0.464805
0.376058
0.543739
-0.091202
-0.127931
0.0505603
-0.477225
0.041957
0.0276839
-0.000858967
-0.000416802
0.000244767
-0.00356547
0.00014251
0.000190856
-1.19848e-05
-5.58155e-06
9.97831e-06
7.37199e-06
-9.56421e-05
-3.44912e-05
-2.59662e-05
-1.63211e-05
-2.50961e-05
-9.54537e-06
-1.31566e-05
-7.69306e-06
-4.4506e-06
-6.03006e-06
-2.56077e-06
-8.52222e-07
1.77573e-06
-5.04863e-06
7.11456e-07
2.71483e-07
-1.3295e-06
1.23494e-07
-1.00313e-06
-9.61324e-07
-1.17165e-06
-9.88015e-07
-8.5597e-07
-9.69324e-07
-7.68365e-07
-3.29374e-07
8.1162e-09
-1.20664
-3.50711
1.43243
1.39081
-1.29759
3.94597
-1.30232
-1.85968
3.92121
-3.91658
1.94624
1.42887
-1.91717
-1.03658
2.31788
-3.4766
0.960536
1.62503
-0.0452943
-0.0193567
0.0106591
-0.113703
0.00561838
0.00799121
-4.04597e-05
-1.27301e-05
1.33727e-05
-6.28369e-05
8.76128e-06
2.28107e-05
-5.95388e-06
-1.31236e-06
2.47124e-06
-6.7736e-06
8.68738e-07
-1.08929e-06
1.3765e-07
-9.87352e-07
-1.28819e-06
-1.09744e-06
-9.14514e-07
-1.01469e-06
-8.23958e-07
-1.06257e-06
-0.93906
2.89501
-2.69683
1.20797
1.09387
-1.10307
-1.0476
-1.53374
3.06789
-2.8926
1.64741
1.2023
-2.038
-1.14641
3.47047
-3.12999
1.31356
2.20777
-2.64246
-1.23362
3.39565
-3.48651
1.31614
2.6295
-0.407648
-0.144174
0.0707712
-0.535878
0.0431832
0.0650159
-0.000118752
-2.61139e-05
2.03403e-05
-0.00011672
1.27669e-05
3.49837e-05
-7.43665e-06
-1.22008e-06
2.27341e-06
-4.85941e-06
8.20939e-07
-0.598485
2.05915
-1.83004
0.700487
0.986007
-0.887631
0.973195
-1.71799
-1.18154
-0.858679
1.30326
1.93436
-1.76304
-0.940051
2.5934
-2.41922
1.09845
1.8921
-2.29748
-1.08253
2.85516
-2.68306
1.23454
2.44725
-3.08817
-1.24407
3.15917
-3.1513
1.36322
3.09778
-0.588691
-0.16669
0.076645
-0.486987
0.0506127
0.0813065
-8.49917e-05
-1.44036e-05
1.05188e-05
-4.35286e-05
8.13879e-06
2.69908e-05
-1.17335
1.3848
-0.487981
1.00799
0.578976
-0.679469
-1.44719
1.89919
-1.72544
1.58036
0.811309
-2.00744
-0.892764
2.22006
-2.06608
1.04902
2.15982
-2.62234
-1.07739
2.50123
-2.35389
1.229
2.78904
-3.4313
-1.23641
2.72869
-2.72316
1.33015
3.39356
-0.166408
-0.0303029
0.012762
-0.0752848
0.0088296
0.0165081
-0.548487
0.947943
0.87989
-0.767459
0.651021
-0.499111
-1.34107
0.603249
1.2235
1.54264
-2.35328
-0.924524
1.94884
-1.8181
1.08323
2.52743
-3.04626
-1.12519
2.24532
-2.08575
1.28717
3.32691
-3.56222
-1.09022
1.88805
-2.10338
1.06967
2.83063
8.65893e-07
-1.20291e-05
5.1989e-07
-6.68723e-07
-2.83437e-06
-5.80965e-06
-1.81868e-06
-6.66793e-07
-1.73886e-06
-5.04806e-07
-8.7801e-07
-7.39358e-07
-5.36979e-07
-6.34905e-07
2.04725e-07
-2.03016e-06
1.44515e-07
-1.1152e-06
-9.12312e-07
-7.81884e-07
-3.08017e-07
-3.02617e-07
-2.56658e-07
-2.39783e-07
4.52212e-08
-1.43926e-06
3.0321e-08
7.8823e-09
-2.9754e-07
5.00028e-09
1.05501e-09
-3.32262e-08
5.91129e-10
1.07185e-10
-2.91521e-09
5.54614e-11
-2.07812e-10
4.28102e-12
-1.52018e-05
-5.77386e-06
4.73668e-06
7.27965e-06
-5.73443e-05
-2.94048e-05
-1.78131e-05
-1.37034e-05
-9.98732e-06
-5.23718e-06
-7.03709e-06
-3.03607e-06
-2.48747e-06
1.38105e-06
-1.64059e-05
1.27886e-06
9.85424e-07
-1.713e-05
6.57927e-07
-5.18701e-06
-4.04406e-06
-1.95705e-06
-7.975e-07
-4.59987e-07
-2.52758e-06
-8.99197e-07
-9.27442e-07
-2.67686e-06
-6.52804e-07
-1.17027e-06
1.729e-07
-1.36554e-06
1.11091e-07
-9.52248e-07
-9.59697e-07
-1.25388e-06
2.21205e-08
-5.70917e-07
1.22454e-08
2.14104e-09
-5.07571e-08
1.08452e-09
-3.40939e-09
8.01137e-11
-0.0171195
-0.00996675
0.00622349
-0.0699723
0.00441569
0.00296003
-0.000272659
-0.00019988
0.000139238
-0.00130997
8.89569e-05
5.24927e-05
-8.37589e-06
-1.08081e-05
1.14326e-05
7.09292e-06
-0.000110532
-3.41498e-05
-2.72368e-05
-1.69733e-05
-1.97701e-05
-6.12873e-06
-9.27941e-06
-1.83019e-05
-8.77548e-06
-1.21076e-05
-1.88094e-06
-2.77524e-06
1.64542e-06
-7.84356e-06
1.10639e-06
4.47741e-07
-2.74143e-06
2.53511e-07
-1.18429e-06
-1.24906e-06
-1.21778e-06
-8.43097e-07
-1.22421e-06
-8.53824e-07
-7.59595e-07
-4.56668e-07
-4.43844e-07
-4.65611e-07
-4.14148e-07
4.08267e-08
-7.1302e-07
2.05681e-08
-4.91534e-08
1.38578e-09
-1.17678
-1.90065
-3.60942
1.17012
1.65674
2.89393
-1.3972
-1.24367
1.21819
-3.09619
0.93849
0.779688
-0.0346492
-0.0409182
0.0115792
-0.119034
0.0091401
0.0057882
-5.59946e-05
-8.03702e-05
3.02771e-05
-0.000212086
3.25233e-05
2.21485e-05
-1.10197e-05
-5.08102e-06
3.36897e-06
-1.89243e-05
1.93841e-06
6.63089e-07
-3.3648e-06
3.57849e-07
-1.22419e-06
-1.34398e-06
-1.17597e-06
-1.14361e-06
-2.8335e-06
-1.08057e-06
-1.20978e-06
-5.01586e-07
-4.82768e-07
-7.95254e-07
-4.95329e-07
-5.84071e-07
2.26762e-08
-1.56052
-2.98044
1.30962
1.78051
-1.19279
3.2345
-1.76556
-1.69757
3.63964
-3.28764
1.85553
2.09859
-1.83343
-2.20099
3.38006
-3.47833
2.22115
1.87879
-0.644312
-0.914616
0.210032
-1.3892
0.192435
0.125234
-0.000770101
-0.000367292
0.00014305
-0.00113989
6.62097e-05
0.000113428
-2.36853e-05
-7.67331e-06
4.17869e-06
-2.20039e-05
2.28683e-06
-1.94487e-06
3.1725e-07
-1.21506e-06
-3.28795e-06
-1.18036e-06
-1.31648e-06
-9.90018e-07
-1.02013e-06
-1.12557e-06
-4.31814e-07
-4.73388e-07
-6.39558e-07
-4.882e-07
-0.72791
-1.3514
0.858128
0.854094
1.59087
-0.752704
-1.76831
-1.21619
1.10117
1.33992
1.98879
-1.57564
-1.93283
2.86603
-2.66731
2.0741
1.76938
-1.86675
-2.65885
3.17397
-3.12006
2.71847
1.98162
-1.95304
-1.12232
0.5661
-2.01037
0.376069
0.563511
-0.00127828
-0.000428551
0.00014106
-0.000949558
7.68505e-05
0.000148532
-1.99518e-05
-4.93299e-06
3.42144e-06
-9.19864e-06
1.9204e-06
0.761978
-0.9908
-0.661523
1.21633
0.762261
-0.982437
-0.80266
-0.772515
0.929243
1.17745
0.917302
-1.43227
-1.3366
-0.907775
1.02575
1.50017
1.61592
-1.51911
-2.21529
2.43066
-2.27585
2.36744
1.68672
-3.04171
-1.85368
2.79614
-2.71831
1.98975
3.1048
-1.64129
-0.791804
0.265703
-1.17625
0.171856
0.281912
-0.000333888
-8.36569e-05
2.59359e-05
-0.000125401
2.00161e-05
4.34705e-05
-0.571075
0.717335
-0.698445
0.720785
0.854214
1.29785
-1.03668
-1.08583
1.09688
1.19676
-1.2687
-1.5804
-0.926692
1.04698
1.40964
1.78728
-1.5551
-2.58473
2.12576
-1.98564
2.77234
1.73762
-3.41723
-1.85952
2.33447
-2.28885
1.915
3.3946
-0.208588
-0.0674056
0.0173573
-0.0831048
0.0115566
0.0225381
0.806415
0.873789
1.32775
-2.03379
1.1913
1.25746
2.2666
0.876714
1.38443
-1.84898
-2.89481
0.856985
0.000115684
-0.00213667
-0.000897718
0.000147826
9.61046e-08
-2.67012e-06
6.5438e-08
-2.78825e-07
2.32004e-08
-6.58653e-07
1.8992e-08
5.00616e-09
-1.75355e-07
4.01009e-09
8.6365e-10
-2.88961e-08
6.51177e-10
1.16074e-10
-3.36503e-09
7.74172e-11
1.1859e-11
-2.99764e-10
7.23688e-12
-2.21547e-11
5.54223e-13
1.68057e-06
-3.46972e-05
1.50883e-06
-9.91687e-07
-5.82784e-06
-1.21147e-05
-3.6458e-06
-2.0644e-06
-1.10858e-05
-1.2246e-06
-4.71293e-06
-8.58902e-07
-2.35325e-06
-1.14738e-06
5.04399e-07
-4.82638e-06
3.52184e-07
-1.99054e-06
-1.291e-06
-1.02382e-06
-5.39274e-07
-4.8106e-07
-1.44655e-06
-6.94787e-07
1.01403e-07
-8.5425e-07
8.20122e-08
-1.15553e-06
-1.18625e-06
-1.17123e-06
1.7077e-08
-4.98653e-07
1.34037e-08
2.25905e-09
-5.77927e-08
1.53762e-09
2.24979e-10
-4.94964e-09
1.38101e-10
-3.45338e-10
1.03171e-11
-1.04884e-05
-2.63321e-05
1.69615e-05
2.15654e-05
-0.00024078
-0.00010977
-4.8874e-05
-3.49138e-05
-0.000110907
-1.89076e-05
-5.06922e-05
-1.77277e-05
-9.59519e-06
-1.10868e-05
-7.3647e-06
-6.53242e-06
3.16978e-06
2.61464e-06
-9.96277e-06
-8.01779e-06
-7.88533e-06
-9.12162e-06
-5.31221e-06
-7.30103e-06
-7.30021e-06
-1.75532e-06
-1.33715e-06
1.13032e-06
-3.72396e-06
1.22329e-06
3.39109e-07
-2.11505e-06
2.71669e-07
-1.15939e-06
-1.06557e-06
-1.24506e-06
-5.50149e-07
-5.65621e-07
-8.02201e-07
-5.0066e-07
-6.9512e-07
-6.19331e-07
-6.86111e-07
-6.99029e-07
4.21729e-08
-7.94428e-07
2.92484e-08
3.99655e-09
-7.09716e-08
2.47237e-09
-4.71562e-09
1.73365e-10
-0.113164
-0.0345859
0.0204891
-0.174358
0.0161975
0.0131904
-0.00243707
-0.000999148
0.000401785
-0.00425873
0.00033738
0.000264656
-2.2001e-05
-1.50163e-05
8.15953e-06
-3.31314e-05
1.12256e-05
1.29807e-05
-6.91302e-06
-5.68812e-06
2.48448e-06
-1.21876e-05
2.19197e-06
6.88418e-07
-3.72234e-06
4.80028e-07
-1.41422e-06
-1.3891e-06
-1.27838e-06
-7.67598e-07
-6.49454e-07
-1.90327e-06
-7.78995e-07
-1.07605e-06
-2.17917e-06
-9.83474e-07
-1.10597e-06
6.54184e-08
-7.8961e-07
4.1009e-08
-5.41712e-08
2.67787e-09
-1.05184
-2.25364
-3.01386
1.04805
2.47579
1.73181
-2.0324
-1.2624
1.66637
-2.79691
1.07015
1.08367
-0.1348
-0.0868524
0.0228796
-0.176692
0.021373
0.0156109
-0.000292978
-0.000200128
5.93827e-05
-0.000412295
4.8464e-05
4.08636e-05
-1.71469e-05
-1.79386e-05
4.17187e-06
-2.36655e-05
2.91206e-06
8.19466e-07
-2.98264e-06
5.32009e-07
-8.6142e-07
-6.83696e-07
-2.30677e-06
-8.61353e-07
-1.41263e-06
-3.79149e-06
-1.23021e-06
-1.44671e-06
-1.29742e-06
-1.3317e-06
-1.05955e-06
-4.91614e-07
3.5829e-08
-1.80179
2.69092
-2.38198
1.19113
1.97401
-1.07479
-2.23245
-1.6019
3.09842
-2.83537
1.75639
2.30366
-2.31949
-2.02369
2.82894
-2.90261
2.03569
2.20512
-0.887619
-0.801365
0.182725
-1.02627
0.176306
0.127127
-0.000917098
-0.000880079
0.000144326
-0.000927222
0.000135724
0.000104276
-2.48176e-05
-1.64895e-05
4.32262e-06
-1.52134e-05
2.76517e-06
-1.12398e-06
3.71107e-07
-1.22864e-06
-2.78425e-06
-1.19119e-06
-1.13291e-06
-6.47688e-07
-7.05147e-07
-1.25358e-06
-6.29826e-07
-7.94578e-07
-7.58048e-07
-8.06616e-07
-1.39668
1.70164
-1.50265
0.91116
1.58576
-0.81495
-1.31934
-1.26001
-0.987617
1.1048
1.51071
1.43301
-1.80145
-1.91809
2.44666
-2.19549
2.12356
1.98365
-2.29709
-2.47994
2.57652
-2.55534
2.50664
2.28674
-0.986737
-1.1158
0.209691
-0.943745
0.214524
0.147892
-0.000558321
-0.000408813
5.68354e-05
-0.000290977
5.1606e-05
7.61581e-05
-1.17853e-05
-5.92283e-06
2.44335e-06
-4.2098e-06
1.79625e-06
-1.39857
-0.65067
0.856745
0.748898
1.43313
1.47919
-0.976676
-1.44898
1.10592
1.10022
-1.13493
1.48405
1.17439
1.28982
-2.10875
-1.88703
2.03732
-1.85125
2.08008
2.3403
-2.83741
-2.30616
2.13815
-2.11419
2.22771
2.81053
-0.273809
-0.215596
0.0360449
-0.154988
0.0265434
0.0386978
-5.79289e-05
-3.163e-05
5.6279e-06
-1.4851e-05
1.28456e-05
2.17676e-05
-1.39119
1.04395
1.56482
1.6636
0.346175
0.571194
-1.52382
-1.96449
0.492461
0.000190228
0.000133104
-0.00134429
-0.00152493
0.000149599
8.48237e-06
6.67838e-06
-1.42377e-05
-3.38682e-05
-1.98362e-05
-1.20832e-05
-9.50785e-06
-2.15746e-05
-1.22235e-05
-7.95261e-06
1.07724e-08
-2.88928e-07
7.35547e-09
-3.28928e-08
2.43298e-09
-7.14736e-08
2.02544e-09
5.0084e-10
-1.52713e-08
4.23199e-10
8.3574e-11
-2.46052e-09
6.65885e-11
1.09708e-11
-2.86754e-10
7.87281e-12
1.10845e-12
-2.62119e-11
7.35412e-13
-2.00373e-12
5.32907e-14
1.87229e-07
-1.24751e-06
1.40841e-07
-5.88006e-07
-1.78235e-06
-1.58637e-06
-1.75269e-06
4.48739e-08
-9.70937e-07
3.6798e-08
9.14287e-09
-2.51108e-07
7.7861e-09
1.53192e-09
-3.96997e-08
1.25976e-09
2.00771e-10
-4.5564e-09
1.47619e-10
2.01439e-11
-4.04299e-10
1.35536e-11
-2.99636e-11
1.03739e-12
-1.38608e-06
-2.74802e-06
1.83519e-06
-4.42214e-06
1.26491e-06
8.26036e-07
-5.5177e-06
5.63409e-07
-9.70789e-07
-6.47941e-07
-3.27035e-06
-1.31271e-06
-2.42719e-06
-1.72856e-06
-1.37642e-06
-8.85842e-07
-9.21977e-07
-8.39168e-07
-8.74648e-07
1.59572e-07
-9.39065e-07
1.43835e-07
-6.64106e-07
-6.56015e-07
-5.0062e-07
-6.39758e-07
-1.24719e-06
-1.29476e-06
-1.27436e-06
2.61159e-08
-5.6001e-07
2.24861e-08
3.37953e-09
-6.34547e-08
2.56848e-09
3.32072e-10
-5.45104e-09
2.26954e-10
-3.87722e-10
1.6751e-11
-1.47934e-05
-3.34304e-05
2.08881e-05
2.79138e-05
-0.000157038
-7.7697e-05
-5.13558e-05
-3.47085e-05
-0.000138689
-2.36348e-05
-6.69336e-05
-2.17645e-05
-1.34044e-05
-1.53135e-05
2.58834e-05
-1.39165e-05
-8.89035e-06
4.23157e-06
3.63389e-06
-9.8989e-06
-9.69427e-06
-1.21923e-05
-1.19213e-05
-9.6704e-06
-1.37985e-05
-1.39664e-05
-2.85042e-06
-1.68209e-06
1.38015e-06
-3.1604e-06
1.55908e-06
4.24049e-07
-1.79762e-06
3.57979e-07
-6.72388e-07
-7.72996e-07
-1.37235e-06
-7.47235e-07
-1.15867e-06
-1.22358e-06
-1.3544e-06
-8.49226e-07
-7.69697e-07
-8.38115e-07
-8.53904e-07
5.27157e-08
-7.18795e-07
4.09821e-08
4.9981e-09
-6.19661e-08
3.48497e-09
-4.24638e-09
2.43343e-10
-3.99315e-05
3.30014e-05
5.05272e-05
-0.000148428
-8.92527e-05
1.7909e-05
-0.00159973
-0.000477299
0.000168913
-0.00147242
0.000170482
0.00015303
-2.77313e-05
-1.89633e-05
2.34176e-05
1.64666e-05
-0.000127508
-1.81733e-05
-4.07889e-05
-9.87794e-05
-3.70559e-05
-3.36536e-05
-2.18043e-05
-3.22134e-05
-1.43001e-05
-1.76576e-05
1.80985e-05
-8.42062e-06
-5.27875e-06
2.59957e-06
-8.2318e-06
2.50296e-06
6.86004e-07
-2.07666e-06
5.08971e-07
-9.11161e-07
-8.70692e-07
-2.34622e-06
-9.32847e-07
-1.17061e-06
-1.20112e-06
-1.27713e-06
-1.07022e-06
-1.76123e-06
-1.17751e-06
-1.14252e-06
6.48447e-08
-5.6344e-07
4.54604e-08
-3.77627e-08
3.06325e-09
-0.96008
-2.39373
-1.63097
0.87466
1.61691
1.00498
-1.36304
-0.79956
0.444005
-1.68877
0.444221
0.278472
-0.0367418
-0.0164023
0.00410866
-0.0268793
0.00438362
0.00336526
-0.000116137
-5.5947e-05
1.77513e-05
-7.36062e-05
2.55586e-05
2.72575e-05
-1.25074e-05
-1.01833e-05
3.64341e-06
-8.99658e-06
2.99188e-06
6.44042e-07
-1.17478e-06
4.35651e-07
-8.29748e-07
-7.84807e-07
-1.82042e-06
-7.77956e-07
-1.20884e-06
-2.07105e-06
-1.33086e-06
-1.1934e-06
-9.37313e-07
-9.9101e-07
-9.84807e-07
-2.6768e-07
3.07246e-08
-1.53579
2.17996
-1.95817
1.1132
1.56332
-1.00338
-1.78375
-1.51567
2.46015
-2.31483
1.64048
1.77991
-1.92479
-1.71569
1.80055
-2.15783
1.50586
1.33112
-0.115743
-0.0686442
0.0141447
-0.0702291
0.0140094
0.0120012
-0.000137068
-9.01625e-05
1.6998e-05
-6.29634e-05
3.14696e-05
2.8628e-05
-7.5439e-06
-8.89213e-06
3.12249e-06
-3.81255e-06
2.15075e-06
-1.46816e-06
2.35358e-07
-5.39511e-07
-6.89673e-07
-7.6673e-07
-6.00494e-07
-9.85728e-07
-1.26922e-06
-1.27042e-06
-1.27262e-06
-1.2607
-0.799649
0.90192
1.13343
1.21603
-1.31655
-1.01156
1.12806
1.25539
1.29012
-1.37642
-1.51742
-1.47027
1.51089
1.66789
1.48688
-1.92888
-2.1081
1.63983
-1.83295
1.83948
1.42135
-0.0536559
-0.0388078
0.00650016
-0.0268856
0.00626073
0.00509808
-3.63277e-05
-3.56063e-05
2.13904e-05
1.53735e-05
-0.000107329
-1.6943e-05
-2.52309e-05
-8.92236e-05
-2.19521e-05
-3.23686e-05
-2.78617e-05
-1.46093e-05
-1.38376e-05
-9.76349e-06
1.48231e-05
1.05434e-06
-2.83154e-06
-1.26078e-06
-7.27663e-06
-1.87218e-06
-4.03654e-06
-1.09747e-05
-1.91392e-06
-2.76027e-06
-2.15621e-06
-1.49211e-06
-1.46981e-06
-1.18496e-06
-1.25382
1.59931
1.4313
-1.90295
-1.53092
1.28143
1.56824
2.11368
9.78847e-05
-0.00103506
-0.000687731
0.000120966
0.000152925
-2.12175e-05
1.10653e-05
1.39349e-05
-1.17273e-05
-1.98207e-05
-1.34277e-05
-9.89429e-06
8.87413e-06
-3.23225e-05
-2.3965e-05
-2.29966e-05
1.00809e-06
-3.72592e-06
-2.63965e-06
1.48203e-06
1.04051e-09
-2.62029e-08
7.78094e-10
-3.36739e-09
2.2672e-10
-6.79093e-09
1.98966e-10
4.47145e-11
-1.33722e-09
4.00853e-11
7.17648e-12
-1.97787e-10
6.02185e-12
9.09495e-13
-2.24816e-11
6.92779e-13
9.23706e-14
-2.06768e-12
6.03961e-14
-1.56319e-13
3.55271e-15
1.84078e-08
-3.93454e-07
1.35385e-08
-5.79919e-08
4.01413e-09
-1.03771e-07
3.54789e-09
7.94429e-10
-2.03055e-08
7.1482e-10
1.27564e-10
-3.03033e-09
1.0867e-10
1.62288e-11
-3.41338e-10
1.25624e-11
1.60583e-12
-3.08233e-11
1.15818e-12
-2.34479e-12
8.52651e-14
2.94689e-07
-5.17249e-06
2.2734e-07
-9.18746e-07
-1.00595e-06
-7.32789e-07
-9.90192e-07
-8.51273e-07
6.5195e-08
-1.35672e-06
5.65638e-08
1.29306e-08
-2.7299e-07
1.15286e-08
2.06454e-09
-4.07856e-08
1.78803e-09
2.60812e-10
-4.53002e-09
2.05009e-10
2.56435e-11
-3.9983e-10
1.86269e-11
-2.98002e-11
1.41753e-12
4.19606e-06
-9.12876e-06
3.12429e-06
-2.32447e-06
-3.83118e-05
-1.83468e-05
-6.16013e-06
-5.56829e-06
-2.16164e-05
-3.53393e-06
-1.0506e-05
-2.93179e-06
-2.81006e-06
-5.4827e-06
9.77914e-07
-5.55001e-06
7.81669e-07
-1.40208e-06
-9.13736e-07
-3.45849e-06
-1.59595e-06
-3.12046e-06
-2.52547e-06
-2.7933e-06
1.95708e-07
-3.01634e-06
1.74948e-07
-8.34839e-07
-8.23722e-07
-6.08304e-07
-8.2517e-07
3.05929e-08
-4.62419e-07
2.69162e-08
3.80273e-09
-5.13894e-08
3.04027e-09
3.67194e-10
-4.42923e-09
2.68525e-10
-3.22018e-10
1.98952e-11
5.21075e-06
-8.09173e-06
-3.14803e-05
-2.20513e-05
3.9649e-06
-2.17272e-05
-1.01848e-05
5.41167e-06
-3.02851e-05
5.89087e-06
2.51119e-06
-1.77991e-05
1.99785e-06
-3.53569e-06
-2.18884e-06
-1.45848e-05
-5.04841e-06
-5.65529e-06
-5.03752e-06
-3.30178e-06
-3.18384e-06
-6.65175e-06
-2.3053e-06
-3.16417e-06
3.97096e-07
-4.42375e-06
3.40333e-07
-7.86149e-07
-9.61762e-07
-1.18543e-06
-7.92598e-07
4.85318e-08
-4.69398e-07
3.87856e-08