/*--------------------------------*- C++ -*----------------------------------*\
  =========                 |
  \\      /  F ield         | OpenFOAM: The Open Source CFD Toolbox
   \\    /   O peration     | Website:  https://openfoam.org
    \\  /    A nd           | Version:  9
     \\/     M anipulation  |
\*---------------------------------------------------------------------------*/
FoamFile
{
    format      ascii;
    class       volScalarField;
    location    "0.00345";
    object      rho;
}
// * * * * * * * * * * * * * * * * * * * * * * * * * * * * * * * * * * * * * //

dimensions      [1 -3 0 0 0 0 0];

internalField   nonuniform List<scalar> 
32063
(
0.361109
0.466878
0.756562
0.387833
0.319754
0.339547
0.410357
0.446251
0.362507
0.390141
0.503936
0.414188
0.444159
0.686812
0.749123
0.575305
0.638142
0.321405
0.325277
0.327407
0.33301
0.335078
0.341236
0.338615
0.33152
0.371028
0.338631
0.377749
0.345887
0.353174
0.38634
0.331807
0.342779
0.334465
0.34866
0.353678
0.357717
0.345404
0.867853
0.615785
0.69839
0.942978
0.992843
0.734263
0.888964
0.346732
0.364386
0.349342
0.355891
0.367576
0.371715
0.352589
0.356023
0.380179
0.346732
0.361671
0.406595
0.371648
0.395847
0.473281
0.423972
0.431417
0.485453
0.495092
0.441009
0.50709
0.376725
0.393464
0.360846
0.368582
0.4206
0.385348
0.402592
0.434066
0.510023
0.497969
0.461482
0.450977
0.519099
0.53085
0.364095
0.376212
0.369376
0.393885
0.381321
0.374404
0.359959
0.528151
0.596311
0.543716
0.611723
0.55637
0.571806
0.631902
0.448731
0.539394
0.517014
0.477633
0.458508
0.5289
0.551707
0.377856
0.40918
0.432435
0.425123
0.395961
0.389068
0.413049
0.654209
0.644073
0.661895
0.69015
0.710372
0.688848
0.745525
0.575678
0.617004
0.559749
0.587511
0.673319
0.602863
0.65245
0.489871
0.481144
0.46914
0.540882
0.579798
0.564911
0.553579
0.614674
0.648647
0.585127
0.600512
0.707143
0.630228
0.668642
0.692129
0.783533
0.735212
0.80926
0.757968
0.801783
0.861139
0.671276
0.760114
0.725428
0.74211
0.715225
0.779395
0.813004
0.70875
0.827516
0.768546
0.782195
0.734627
0.801863
0.859386
0.615965
0.663106
0.727937
0.710026
0.646148
0.631492
0.689305
1.22754
1.225
1.225
1.225
1.225
1.225
1.225
2.56103
1.22559
1.22501
1.225
1.225
1.225
1.225
2.40994
2.4665
1.3033
1.22518
1.225
1.225
1.225
1.54458
2.01268
2.59711
2.22856
1.22727
1.22501
1.225
0.740475
1.12184
1.63799
2.29247
2.6052
1.23088
1.22501
0.443123
0.588128
0.914285
1.45448
2.15194
2.61834
1.22788
0.403456
0.532101
0.8472
1.44435
2.2573
2.34146
0.390076
0.531718
0.901951
1.60717
2.57751
1.225
1.225
1.225
1.225
1.225
1.225
1.225
1.2317
1.22513
1.22501
1.225
1.225
1.225
1.225
2.59753
2.1726
1.24315
1.22504
1.225
1.225
1.225
1.70529
2.19971
2.6485
1.72543
1.22545
1.225
1.225
0.896479
1.26207
1.76915
2.47958
2.39592
1.22617
1.225
0.572147
0.713411
1.03152
1.58232
2.32395
2.43189
1.22558
0.520496
0.64056
0.956592
1.57056
2.44295
1.87401
0.64258
0.637605
1.01426
1.73327
2.64731
1.225
1.225
1.225
1.225
1.225
1.225
1.225
1.22513
1.22501
1.225
1.225
1.225
1.225
1.225
1.78985
1.28327
1.22534
1.225
1.225
1.225
1.225
2.18912
2.61275
2.44477
1.2384
1.22501
1.225
1.225
1.37362
1.68691
2.16952
2.69401
1.31879
1.22502
1.225
0.979888
1.24786
1.42988
1.95246
2.68265
1.33404
1.22501
0.90175
1.01545
1.33612
1.93807
2.69548
1.24582
0.914264
0.881185
1.40326
2.11433
2.54935
1.225
1.225
1.225
1.225
1.225
1.225
1.225
1.225
1.225
1.225
1.225
1.225
1.225
1.225
1.23245
1.22513
1.225
1.225
1.225
1.225
1.225
2.58259
2.16467
1.2396
1.22503
1.225
1.225
1.225
1.98757
2.36963
2.70888
1.51137
1.22517
1.225
1.225
1.16401
1.37648
1.99854
2.64398
1.90187
1.22519
1.225
1.02259
1.11699
1.28523
1.89859
2.6294
1.60578
1.22504
0.908146
1.30807
1.32392
1.97038
2.70608
1.25331
1.08375
1.48431
2.20498
1.22524
1.225
1.225
1.225
1.225
1.225
1.225
1.225
1.225
1.225
1.225
1.225
1.225
1.225
1.225
1.22501
1.225
1.225
1.225
1.225
1.225
1.225
1.25118
1.22557
1.22501
1.225
1.225
1.225
1.225
2.53862
2.31052
1.25664
1.22507
1.225
1.225
1.225
2.24588
2.58716
2.69274
1.48378
1.2252
1.225
1.225
1.59406
1.50491
2.31093
2.69218
1.52716
1.22509
1.225
1.08129
1.35727
1.45499
2.28703
2.69558
1.27816
1.22501
1.60449
1.79896
1.22525
1.225
1.225
1.225
1.225
1.225
1.225
1.225
1.225
1.225
1.225
1.225
1.225
1.225
1.225
1.225
1.225
1.225
1.225
1.225
1.225
1.225
1.225
1.22501
1.225
1.225
1.225
1.225
1.225
1.225
1.22503
1.22528
1.22501
1.225
1.225
1.225
1.225
2.16811
1.71535
1.23126
1.22502
1.225
1.225
1.225
1.94549
2.39526
2.37823
1.24651
1.22502
1.225
1.225
1.2458
1.40455
1.8134
2.41372
1.23444
1.22501
1.225
1.70592
1.95793
1.22518
1.225
1.225
1.225
1.225
1.225
1.225
1.225
1.225
1.225
1.225
1.225
1.225
1.225
1.225
1.225
1.225
1.225
1.225
1.225
1.225
1.225
1.225
1.225
1.225
1.225
1.225
1.225
1.225
1.225
1.225
1.225
1.225
1.225
1.225
1.225
1.225
1.225
1.22503
1.22513
1.22501
1.225
1.225
1.225
1.225
1.9069
1.43825
1.22622
1.22501
1.225
1.225
1.225
2.01592
2.3013
1.76885
1.2266
1.22501
1.225
1.225
2.06897
2.24474
1.225
1.225
1.225
1.225
1.225
1.225
1.225
1.225
1.225
1.225
1.225
1.225
1.225
1.225
1.225
1.225
1.225
1.225
1.225
1.225
1.225
1.225
1.225
1.225
1.225
1.225
1.225
1.225
1.225
1.225
1.225
1.225
1.225
1.225
1.225
1.225
1.225
1.225
1.225
1.225
1.225
1.225
1.225
1.225
1.225
1.22502
1.22504
1.225
1.225
1.225
1.225
1.225
1.28039
1.2394
1.2251
1.225
1.225
1.225
1.225
1.53973
1.225
1.225
1.225
1.225
1.225
1.225
1.225
1.225
1.225
1.225
1.225
1.225
1.225
1.225
1.225
1.225
1.225
1.225
1.225
1.225
1.225
1.225
1.225
1.225
1.225
1.225
1.225
1.225
1.225
1.225
1.225
1.225
1.225
1.225
1.225
1.225
1.225
1.225
1.225
1.225
1.225
1.225
1.225
1.225
1.225
1.225
1.225
1.225
1.225
1.225
1.225
1.225
1.225
1.225
1.225
1.225
1.225
1.225
1.225
1.225
1.22501
1.225
1.225
1.225
1.225
1.225
1.225
1.225
1.225
1.225
1.225
1.225
1.225
1.225
1.225
1.225
1.225
1.225
1.225
1.225
1.225
1.225
1.225
1.225
1.225
1.225
1.225
1.225
1.225
1.225
1.225
1.225
1.225
1.225
1.225
1.225
1.225
1.225
1.225
1.225
1.225
1.225
1.225
1.225
1.225
1.225
1.225
1.225
1.225
1.225
1.225
1.225
1.225
1.225
1.225
1.225
1.225
1.225
1.225
1.225
1.225
1.225
1.225
1.225
1.225
1.225
0.487174
0.348762
0.391054
0.462888
0.544057
0.401336
0.447609
0.482038
0.347036
0.39601
0.446135
0.536756
0.395494
0.453747
0.53698
0.376559
0.410816
0.507319
0.603213
0.429087
0.471414
0.343152
0.356115
0.357586
0.360725
0.362366
0.377919
0.372347
0.598382
0.454858
0.501664
0.771767
0.863584
0.659492
0.732232
0.511322
0.499832
0.589207
0.509158
0.728042
0.846572
0.707987
0.352703
0.359874
0.364695
0.363916
0.368846
0.382693
0.376871
0.361324
0.409988
0.412136
0.375463
0.377211
0.392967
0.427931
0.366754
0.414289
0.379286
0.419001
0.383472
0.397716
0.433524
0.665627
0.487061
0.592814
0.870883
0.964627
0.747855
0.792102
0.775969
1.09346
1.00277
0.938589
1.07383
1.11321
1.52959
1.03784
1.07558
0.790829
1.34494
1.57255
1.0436
1.1745
0.380676
0.384405
0.389541
0.393981
0.399176
0.410805
0.404507
1.08204
0.838315
0.960538
1.42485
1.65935
1.01878
1.17247
0.743832
0.413512
0.527338
0.587424
0.797436
0.46983
0.58084
0.371387
0.396357
0.376886
0.396818
0.413357
0.420152
0.390476
0.373618
0.397487
0.379309
0.400155
0.415242
0.422371
0.393558
0.394025
0.440813
0.404121
0.450187
0.413558
0.42626
0.464203
0.447261
0.461885
0.46478
0.527515
0.531361
0.481078
0.549146
0.777455
0.423266
0.567368
0.585648
0.831804
0.446069
0.625212
0.374739
0.402692
0.380528
0.39886
0.418083
0.425093
0.392457
0.52195
0.467511
0.473552
0.535429
0.543567
0.488186
0.559006
0.813233
0.431699
0.540433
0.652295
0.871423
0.455237
0.597177
0.381611
0.410341
0.387543
0.404423
0.424309
0.431771
0.397677
0.41139
0.426626
0.391852
0.411886
0.46941
0.435186
0.446602
0.418085
0.431194
0.395724
0.414077
0.475189
0.440333
0.449126
0.425894
0.439167
0.402716
0.419732
0.483632
0.447282
0.456004
0.412522
0.429522
0.394249
0.415273
0.472335
0.437396
0.450885
0.395459
0.417871
0.401621
0.426953
0.440914
0.448735
0.419732
1.00983
0.482698
0.612717
0.820173
1.08256
0.551634
0.680668
0.415124
0.450792
0.421617
0.437774
0.465684
0.473797
0.43033
0.772577
0.811951
0.948464
0.870427
0.995492
1.2994
0.958253
0.433678
0.454627
0.417026
0.443081
0.50335
0.46516
0.481511
0.563388
0.499611
0.510427
0.57729
0.590922
0.52526
0.607088
0.85066
0.523834
0.632341
0.9065
1.11381
0.764182
0.892382
0.577227
0.668192
0.673992
0.597156
0.602044
0.622823
0.699603
0.886344
0.612763
0.680984
0.899618
1.15522
0.787386
0.9585
0.968141
0.84729
0.81704
1.09073
1.32638
0.942721
0.955496
0.59129
0.681346
0.607791
0.694267
0.618479
0.636111
0.716291
0.479352
0.569945
0.546935
0.523257
0.50042
0.570584
0.595533
0.485275
0.581618
0.554645
0.530017
0.50351
0.574453
0.603613
0.835056
0.719056
0.77171
0.78319
0.842777
0.845476
0.912779
0.840306
0.858629
0.891056
0.946097
0.914878
0.969427
1.03055
0.930246
0.630663
0.651667
1.00868
1.21295
0.81724
0.923036
0.495272
0.59721
0.568417
0.540562
0.512109
0.586301
0.617783
0.426118
0.451742
0.446425
0.494517
0.459332
0.453878
0.418806
0.421672
0.443331
0.446274
0.488922
0.450303
0.453254
0.414818
0.467781
0.475137
0.43708
0.454265
0.532139
0.49187
0.493301
0.483042
0.572447
0.552061
0.526942
0.505787
0.577955
0.600505
0.420396
0.443431
0.442528
0.450661
0.449453
0.486661
0.479782
0.430596
0.45133
0.458608
0.458942
0.466469
0.501963
0.49475
1.08275
0.887756
0.985389
1.33511
1.47585
1.06319
1.1529
0.44133
0.509667
0.510097
0.503559
0.474697
0.468906
0.476912
0.436791
0.503751
0.498904
0.502258
0.465357
0.468322
0.471165
0.435374
0.499583
0.498033
0.465526
0.464367
0.501438
0.534588
0.43934
0.459408
0.467148
0.469347
0.477257
0.513917
0.506087
0.610305
0.514003
0.530722
0.563713
0.54261
0.625261
0.64621
0.926912
0.867647
0.783378
0.84349
0.904185
0.938077
1.00423
0.481635
0.508322
0.473775
0.517341
0.481971
0.517063
0.551288
0.835488
0.913559
0.965357
0.886763
0.822967
0.779091
0.844737
0.662219
0.727031
0.645756
0.770151
0.679972
0.698288
0.792076
0.49246
0.519302
0.482991
0.531171
0.493737
0.530177
0.566555
0.8918
0.977594
1.02529
0.900022
0.939414
0.828243
0.870364
0.460048
0.496522
0.48158
0.545337
0.504967
0.489681
0.452091
0.64688
0.69628
0.620052
0.647579
0.762562
0.67659
0.728809
0.745499
0.629796
0.661361
0.652388
0.774037
0.68626
0.734647
0.820073
0.745673
0.7064
0.739097
0.813025
0.777823
0.859697
1.1549
0.618377
0.745091
1.23897
1.47181
0.932924
1.0509
0.537908
0.661195
0.623036
0.596642
0.556244
0.642049
0.685239
0.963626
0.89749
1.00919
1.05289
0.979264
1.09989
1.1782
1.45363
1.33438
1.16315
1.24707
1.69032
1.662
1.99277
0.565818
0.558089
0.532513
0.607657
0.67413
0.642727
0.633327
0.731263
0.682377
0.648384
0.668285
0.797486
0.705078
0.754615
0.650197
0.705
0.626951
0.65741
0.770585
0.683078
0.741222
0.552136
0.555976
0.525289
0.597893
0.662621
0.625548
0.629991
0.923733
0.908088
0.837335
1.01162
0.916361
0.994686
1.09864
0.596437
0.553259
0.551268
0.627299
0.624678
0.587091
0.660522
0.794929
0.769478
0.726141
0.754615
0.830617
0.797553
0.882368
0.924999
0.835578
0.787678
0.891827
0.808661
0.760876
0.834561
0.990886
0.841151
0.914199
0.988987
0.914617
0.991382
1.07701
1.06593
1.15618
1.21043
1.43879
1.63198
1.952
1.66731
0.477191
0.563654
0.563651
0.545816
0.523471
0.507078
0.516415
0.537547
0.562896
0.573141
0.638081
0.649977
0.605467
0.681057
1.30063
0.596763
0.851626
0.972462
1.36498
0.652028
0.906869
0.482105
0.539177
0.489252
0.534282
0.588395
0.595369
0.527435
1.27033
0.587773
0.875862
0.901923
1.33331
0.640672
0.931112
0.486954
0.538534
0.493895
0.546515
0.595273
0.602142
0.539582
1.19758
1.46754
1.15348
1.73729
1.99025
1.35289
1.64202
1.83467
1.15293
1.31556
1.86731
2.16677
1.46261
1.69545
1.41218
1.63814
1.11139
1.77395
2.09225
1.44066
1.66914
0.856819
1.01758
0.925035
1.00568
0.923009
1.00046
1.09537
0.940261
1.10869
1.00377
1.16899
1.06163
1.12897
1.24212
0.976146
1.10543
1.03496
1.13462
1.06231
1.12586
1.19961
0.479742
0.534077
0.48659
0.532709
0.58431
0.59104
0.525945
0.769395
0.679815
0.699167
0.718341
0.840582
0.740705
0.815327
0.919094
1.09188
0.985995
1.13893
1.02569
1.09866
1.21825
0.495184
0.54772
0.502732
0.560069
0.609959
0.617344
0.552551
0.491219
0.515425
0.5242
0.540451
0.549395
0.595176
0.586369
0.550981
0.576535
0.590238
0.655504
0.671635
0.624102
0.703811
1.40975
0.647565
1.03413
0.957839
1.47417
0.705238
1.0947
0.841336
0.89868
0.983138
0.975019
0.891169
0.946607
1.0406
1.29996
1.26317
1.27778
1.86985
1.54752
1.70099
2.09622
0.897729
0.988478
1.05053
1.0422
0.970677
1.07422
1.14614
0.553926
0.537791
0.504103
0.548825
0.642443
0.609545
0.581676
0.548479
0.534242
0.501373
0.547129
0.637088
0.604992
0.579558
0.505828
0.574771
0.513287
0.558527
0.624841
0.632075
0.551369
0.552984
0.542324
0.508816
0.561111
0.648755
0.616136
0.594357
0.590103
0.563978
0.528804
0.573384
0.680619
0.64652
0.607431
0.510351
0.585728
0.543945
0.613976
0.570467
0.616277
0.660039
1.50224
0.678939
0.952275
1.19229
1.57122
0.744184
1.01222
0.519885
0.596133
0.528004
0.576153
0.650757
0.658508
0.568377
1.26734
1.47397
1.62605
2.02254
2.22959
1.57587
1.79094
0.962633
1.06337
1.11972
1.16228
1.04601
1.11403
1.22701
0.62727
0.607008
0.578767
0.664233
0.751046
0.714552
0.69121
0.562855
0.55362
0.518355
0.57578
0.666787
0.632224
0.611146
0.919301
0.832378
0.806361
0.859332
0.950828
0.886142
0.982835
1.22828
0.854099
0.999434
1.3893
1.63541
1.05211
1.36855
1.08646
1.00741
1.27186
1.07249
1.37885
1.68109
1.45945
0.692208
0.764571
0.827739
0.813853
0.732057
0.720498
0.781779
0.679349
0.750379
0.801805
0.807618
0.710578
0.715676
0.765791
0.613725
0.582958
0.545148
0.592663
0.712414
0.674983
0.629414
0.773947
0.900675
0.855408
0.852121
0.812807
0.901591
0.947116
0.78744
0.832261
0.923616
0.865611
0.819659
0.909395
0.962749
0.677857
0.804937
0.800985
0.713048
0.709734
0.748308
0.844513
0.784428
0.906613
0.867549
0.861775
0.827725
0.918862
0.95845
1.01635
0.928809
0.866575
0.996277
0.910482
0.97173
1.06759
0.306863
0.335088
0.396799
0.438406
0.571227
0.684555
0.711406
0.326382
0.269856
0.290813
0.347387
0.375103
0.302934
0.332287
0.271109
0.275863
0.277161
0.282023
0.283146
0.289169
0.287883
0.427926
0.344586
0.378885
0.539226
0.604192
0.438954
0.508474
0.278133
0.311648
0.2851
0.317394
0.290879
0.297894
0.326193
0.656331
0.457254
0.538069
0.668963
0.814523
0.526359
0.630372
0.371799
0.299437
0.330477
0.385677
0.427219
0.343817
0.380974
0.282929
0.292484
0.284349
0.296201
0.302218
0.304173
0.294637
0.294291
0.308212
0.295463
0.301437
0.312411
0.314172
0.299967
0.317586
0.332279
0.304021
0.311049
0.356015
0.324627
0.341069
0.302155
0.321483
0.293181
0.305895
0.346493
0.314785
0.33596
0.386561
0.355128
0.361735
0.400175
0.408054
0.372196
0.421111
0.417845
0.461257
0.436001
0.470315
0.444791
0.462455
0.493278
0.308397
0.318878
0.313969
0.32911
0.321124
0.316305
0.306516
0.301458
0.31064
0.308817
0.313053
0.311249
0.322853
0.32003
0.477759
0.482164
0.491258
0.504334
0.513372
0.518282
0.543289
0.480056
0.391968
0.4935
0.62613
0.698157
0.558609
0.613004
0.366497
0.428991
0.414121
0.395385
0.383432
0.434674
0.449092
0.379241
0.451497
0.42973
0.406867
0.389548
0.442379
0.463879
0.319018
0.341578
0.365254
0.360727
0.332602
0.327915
0.350589
0.312004
0.357515
0.355746
0.324581
0.322798
0.335365
0.368877
0.874403
0.557676
0.669791
0.831655
1.13767
0.703473
0.855553
0.500267
0.556638
0.528496
0.566189
0.537625
0.569809
0.600911
0.32243
0.338321
0.325223
0.335317
0.345239
0.349106
0.332079
0.500262
0.503978
0.472427
0.489236
0.561343
0.516249
0.526871
0.472831
0.484483
0.454261
0.479833
0.539524
0.497519
0.516327
0.31911
0.333748
0.321943
0.333806
0.342448
0.346255
0.330564
0.417365
0.411814
0.400485
0.455667
0.489756
0.47684
0.469461
0.444702
0.407554
0.405216
0.463802
0.460736
0.41959
0.478417
0.776328
0.641924
0.727099
0.869274
1.0393
0.7264
0.783956
0.509161
0.566957
0.533993
0.57582
0.546535
0.575784
0.610708
0.351714
0.371318
0.337779
0.348753
0.397479
0.363241
0.382532
0.34722
0.367997
0.334482
0.347227
0.39439
0.360466
0.380877
0.529438
0.601906
0.554775
0.600148
0.557866
0.58769
0.636988
0.590038
0.595442
0.600144
0.630382
0.641258
0.637524
0.681819
0.505843
0.549085
0.582692
0.57137
0.532446
0.522945
0.549177
0.633054
0.613304
0.581606
0.61803
0.713656
0.673344
0.652897
0.596521
0.591057
0.560342
0.605644
0.68385
0.645384
0.639889
0.346942
0.357222
0.355965
0.377364
0.36193
0.36059
0.343128
0.533139
0.512003
0.491986
0.56304
0.515825
0.534693
0.58734
0.422934
0.502149
0.482952
0.44978
0.434175
0.496295
0.514943
0.476888
0.418444
0.432135
0.445693
0.431952
0.493241
0.509226
0.361127
0.39231
0.411193
0.409713
0.37657
0.375285
0.395109
0.62843
0.615472
0.58659
0.622284
0.708476
0.672634
0.658267
0.602983
0.600784
0.568646
0.605945
0.647716
0.637059
0.686619
0.717288
0.627094
0.670585
0.728172
0.67987
0.728154
0.781486
0.641688
0.746777
0.680169
0.761359
0.692418
0.737136
0.811339
0.650875
0.763342
0.696546
0.760408
0.693826
0.743507
0.817211
0.585014
0.554363
0.532741
0.554082
0.639507
0.57459
0.612751
0.68258
0.675247
0.637224
0.733168
0.688881
0.73588
0.78794
0.65763
0.76018
0.762304
0.74541
0.715924
0.700304
0.696812
0.463404
0.46146
0.446605
0.510522
0.547961
0.529756
0.527022
0.565517
0.594003
0.540407
0.557995
0.648624
0.58213
0.617317
0.683457
0.669427
0.634324
0.703013
0.669311
0.727101
0.769085
0.644643
0.744462
0.695234
0.713681
0.674537
0.733132
0.78098
0.814719
0.796322
0.742059
0.796694
0.944405
0.877445
0.857033
0.754042
0.916741
0.828917
0.805848
0.982126
0.888351
0.889092
0.797008
0.724691
0.776626
0.788519
0.935278
0.847905
0.868875
0.57633
0.621482
0.67217
0.667606
0.60027
0.596594
0.641669
0.847165
0.785594
0.732291
0.785719
0.910367
0.837664
0.847452
0.80535
0.79843
0.745487
0.792596
0.925415
0.851069
0.855121
0.743959
0.73856
0.705683
0.772122
0.858285
0.81867
0.812603
0.864851
1.02964
1.05563
1.02908
0.955108
0.932037
0.954569
0.841073
0.945268
0.982102
0.974682
0.89747
0.890781
0.914254
1.04167
0.951663
1.072
1.11914
1.01872
0.978652
0.911074
1.39314
0.692076
0.986669
1.22154
1.66241
0.953701
1.25548
1.02027
1.12852
1.33225
1.03403
1.52984
1.74085
1.41287
0.958876
0.863405
0.814863
0.89349
0.843433
0.936543
0.994486
0.763668
0.817593
0.718912
0.739652
0.897771
0.788301
0.841416
0.586469
0.70466
0.659593
0.688291
0.631108
0.703457
0.759774
0.697429
0.818715
0.725197
0.835151
0.739245
0.771459
0.870595
1.42618
0.705751
0.962224
1.31208
1.69816
0.975174
1.22953
0.591022
0.714781
0.665371
0.694889
0.633801
0.706807
0.767797
0.595451
0.710492
0.669711
0.700859
0.647209
0.72119
0.773462
1.19577
0.989758
1.08233
1.08286
1.30291
1.17936
1.19623
0.558479
0.62095
0.567034
0.65256
0.714174
0.722369
0.644059
1.03977
1.13658
1.25522
1.12679
1.23083
1.266
1.36316
1.00801
1.22797
1.11159
1.09267
1.32511
1.19954
1.20684
1.15652
1.18765
1.27507
1.20431
1.41055
1.32261
1.28816
1.25084
1.1768
1.10166
1.1972
1.35027
1.27668
1.27149
0.609375
0.727522
0.686921
0.722119
0.667355
0.745225
0.79844
0.721345
0.846385
0.747599
0.86941
0.766925
0.799099
0.903676
0.710202
0.652065
0.683186
0.742671
0.777305
0.728944
0.821662
0.594521
0.657426
0.664263
0.664006
0.670892
0.755143
0.748055
1.53366
0.761768
1.15555
1.28651
1.79805
1.04256
1.44155
0.639865
0.6283
0.586721
0.672899
0.783644
0.741399
0.716205
0.619573
0.758382
0.696884
0.735266
0.661544
0.737049
0.810939
0.88701
0.951924
0.859293
0.943534
0.914059
1.0161
1.05073
0.603939
0.666081
0.673224
0.679868
0.687189
0.771308
0.763937
1.63309
0.807427
1.07307
1.56761
1.90651
1.10795
1.3597
0.64272
0.796812
0.725069
0.772371
0.687798
0.768152
0.853958
1.02498
1.08947
1.11173
1.19276
1.21794
1.17227
1.28864
1.25998
1.13951
1.05967
1.17654
1.39195
1.25757
1.30316
0.591261
0.658225
0.655553
0.75095
0.665198
0.66241
0.584445
0.614517
0.676064
0.694311
0.78475
0.683089
0.701496
0.607474
0.993115
1.08139
1.07464
1.16654
1.17591
1.14313
1.25641
0.60847
0.71006
0.677863
0.716933
0.684503
0.76863
0.801357
0.762919
0.852849
0.928429
0.896674
0.817389
0.790133
0.867363
0.993349
1.14186
1.06568
1.0818
1.25521
1.17534
1.16637
1.27132
1.23526
1.16061
1.22864
1.41448
1.34309
1.30285
0.605278
0.76452
0.711621
0.70833
0.678937
0.67605
0.637628
0.63554
0.725574
0.699752
0.820973
0.733251
0.707257
0.627963
1.10762
0.972188
1.00998
1.14923
1.0463
1.08395
1.19258
0.618386
0.720462
0.687142
0.735501
0.701395
0.785193
0.819265
1.23062
1.28608
1.29179
1.36948
1.36884
1.42852
1.50853
1.1756
1.20465
1.19951
1.27044
1.26431
1.29279
1.35832
0.65501
0.719024
0.726392
0.750396
0.757971
0.844828
0.837135
1.88057
0.895204
1.20287
1.62851
1.97204
0.976234
1.27763
0.623902
0.749317
0.632894
0.693986
0.818102
0.826801
0.685245
1.14011
1.17456
1.22918
1.18273
1.35286
1.29031
1.25045
1.28019
1.2761
1.14772
1.22319
1.50367
1.35276
1.35795
0.628656
0.798322
0.729649
0.748846
0.696751
0.715316
0.66191
0.897413
0.904073
0.855921
0.951577
1.05664
0.998791
1.00651
1.09816
1.03599
0.942171
0.99647
1.16059
1.04938
1.09916
1.05295
1.02078
1.12511
1.00517
1.17964
1.06703
1.10845
0.927823
0.911574
0.875056
0.973672
1.07874
1.03366
1.01516
1.0502
1.0023
1.10554
1.01584
1.17464
1.06225
1.12008
0.949486
0.901142
0.896497
0.997708
0.946334
1.00314
1.05431
1.59544
1.05148
1.17433
1.80829
2.0251
1.43838
1.58451
0.916714
1.09208
1.01842
1.01041
0.944825
1.05142
1.12688
1.18316
1.14442
1.18076
1.25394
1.29565
1.23736
1.36065
0.651081
0.835622
0.785039
0.756996
0.748625
0.721925
0.68685
0.771894
0.701193
0.655223
0.715638
0.896061
0.848316
0.76152
0.805145
0.85138
0.754159
0.795892
0.95968
0.857365
0.895871
0.79306
0.842906
0.74703
0.791869
0.948935
0.847951
0.891179
0.992988
1.16737
1.05957
1.03516
1.21717
1.10183
1.14086
0.669987
0.774922
0.74055
0.808275
0.772699
0.858937
0.893797
0.980437
0.916887
0.935835
1.02118
0.975543
1.04257
1.08682
0.799553
0.855746
0.758466
0.811527
0.965366
0.862915
0.913047
0.819706
0.881074
0.779556
0.839669
0.997428
0.891544
0.94544
0.693805
0.832071
0.782696
0.850797
0.784409
0.875468
0.940123
0.817916
0.965524
0.849668
1.00971
0.888679
0.931332
1.05162
0.686896
0.757549
0.765409
0.796889
0.804962
0.90014
0.891905
0.763826
0.761727
0.769051
0.833158
0.841054
0.854316
0.926777
0.916456
0.949497
0.976154
1.05808
1.01403
1.08796
1.13
0.852565
0.891098
0.78943
0.829133
1.00967
0.903687
0.932667
0.78017
0.774054
0.790561
0.847732
0.866003
0.874701
0.950149
1.22526
1.33518
1.46835
1.44924
1.33552
1.46886
1.58179
1.67642
1.79938
2.15014
1.83656
2.13688
2.57246
2.17823
0.764068
0.760103
0.689192
0.761085
0.923422
0.836411
0.831643
0.782644
0.80306
0.715101
0.789046
0.960853
0.855753
0.877681
0.897001
0.931389
0.823402
0.865247
1.0631
0.952282
0.973819
1.19955
1.0888
1.04887
1.1231
1.28487
1.16372
1.23781
0.704564
0.820084
0.781778
0.863339
0.822567
0.916568
0.955854
1.95311
0.970898
1.43138
1.52154
2.03435
1.02797
1.4975
0.743169
0.854698
0.750239
0.856969
0.969528
0.977708
0.849479
1.21545
1.27927
1.26342
1.3379
1.39373
1.31257
1.44878
1.18408
1.41566
1.42696
1.2811
1.29133
1.38402
1.53057
1.91689
2.19854
1.81064
2.29528
2.5943
1.78879
2.15268
1.69592
1.72947
2.09359
2.21443
2.31941
1.7683
2.17652
1.30405
1.50655
1.49025
1.45764
1.42153
1.38697
1.37694
0.76773
0.908148
0.845957
1.01883
0.916859
0.854308
0.759268
0.844182
0.813852
0.744208
0.822869
1.0099
0.924466
0.891452
1.26062
1.35305
1.42498
1.43595
1.36434
1.45975
1.52855
1.37085
1.47368
1.50556
1.34714
1.38058
1.48096
1.60683
0.75042
0.859182
0.757649
0.87143
0.980521
0.988807
0.863767
1.40744
1.54317
1.45336
1.54917
1.45702
1.59334
1.68246
0.839573
0.830702
0.866075
0.907211
0.944907
0.951096
1.02907
2.01247
1.01548
1.55107
1.51059
2.09762
1.07312
1.6179
2.04987
1.05593
1.35046
2.03863
2.42236
1.4007
1.65912
0.773663
0.996617
0.870477
0.971842
0.833761
0.929279
1.07055
1.52266
1.81894
1.80304
2.27351
2.14985
2.18991
2.29795
1.18458
1.41556
1.38293
1.42663
1.29094
1.28099
1.30852
1.04412
1.00759
0.974721
1.08609
1.20646
1.16447
1.1233
0.759147
0.883515
0.766315
0.866198
0.990745
0.999055
0.858651
1.22394
1.44896
1.31058
1.48249
1.33952
1.4207
1.57293
2.09201
1.06829
1.48482
1.70856
2.18622
1.12897
1.55233
0.784932
0.922344
0.792478
0.892456
1.02919
1.03787
0.884626
0.80343
0.909775
0.810895
0.945042
1.05037
1.05912
0.936961
1.77117
1.06503
1.37138
1.7426
2.18575
1.45275
1.7783
1.53639
1.7898
1.51437
2.08147
2.46577
1.73931
2.0522
1.87527
2.44356
2.0592
1.87314
2.32463
2.22333
2.59416
1.32204
1.41986
1.34208
1.40984
1.33426
1.42938
1.50681
0.78812
1.03786
0.983569
0.91688
0.937094
0.873262
0.833177
1.13826
1.33469
1.25125
1.28197
1.21143
1.33567
1.41626
1.2181
1.34277
1.26788
1.29702
1.23355
1.35937
1.43237
1.44151
1.52936
1.38025
1.58622
1.429
1.50237
1.6663
0.944465
1.11384
1.05223
1.05983
0.998173
1.11252
1.17966
1.16358
1.22587
1.10664
1.23289
1.11299
1.17003
1.29631
1.80653
1.08888
1.34457
1.83444
2.23589
1.48089
1.75074
0.954141
1.07181
1.13135
1.00349
1.06305
1.1183
1.19258
1.90701
1.16092
1.56013
1.80969
2.39301
1.56357
1.97048
1.52538
1.83613
1.60932
2.06551
2.54459
1.7874
2.18165
2.28146
1.52642
1.7627
2.30309
2.20909
1.92715
2.24527
1.05446
1.17275
1.22731
1.23715
1.10794
1.11693
1.16607
1.07907
1.19737
1.26968
1.24767
1.14705
1.12659
1.19269
0.935757
1.00417
0.888279
0.983019
1.16236
1.04541
1.1019
1.23856
1.3643
1.2704
1.30205
1.22105
1.3457
1.43731
0.872928
0.804764
0.771348
0.885319
1.03821
1.00298
0.919789
0.86835
0.796413
0.763744
0.870581
1.02629
0.991699
0.904063
0.897165
0.812849
0.779822
0.879818
1.04789
1.01307
0.913446
1.39361
1.53357
1.46782
1.58723
1.52522
1.60033
1.66002
1.20031
1.25484
1.13337
1.27974
1.1568
1.20624
1.33581
0.95874
1.12242
1.06807
1.07782
1.02232
1.1386
1.19894
0.998701
1.12582
1.04408
1.19308
1.11246
1.16228
1.2502
0.85232
1.0227
1.03191
0.921056
0.929578
1.01501
1.11691
0.892582
0.882195
0.929168
0.965827
1.01682
1.02029
1.10641
1.30044
1.49496
1.58197
1.52696
1.42436
1.37748
1.44223
0.849635
1.01186
1.02743
1.02123
0.925125
0.919602
0.950944
1.20928
1.23899
1.12468
1.16301
1.37961
1.24894
1.28277
0.936721
0.841473
0.806654
0.906535
1.08859
1.05239
0.941593
1.305
1.48077
1.37212
1.49758
1.39188
1.4586
1.56655
0.923512
0.858699
0.824644
0.958977
1.10867
1.0733
0.993788
0.848667
0.960636
0.856651
1.00735
1.11655
1.12591
0.998669
0.988217
1.15173
1.10121
1.1131
1.05899
1.17913
1.23697
0.87128
1.04134
0.937786
1.06303
0.957822
1.04124
1.14553
2.32308
1.21433
1.83966
1.67472
2.42664
1.27753
1.91806
2.09826
1.08489
1.55744
1.84561
2.41895
1.35461
1.81928
0.849213
1.03073
0.921474
1.08279
0.958581
1.03253
1.15884
1.6823
1.89859
1.561
2.31773
2.63435
1.86673
2.11534
2.49853
1.75287
1.97704
2.58011
2.54179
2.04047
2.37374
1.43528
1.6741
1.51936
1.72771
1.57537
1.6551
1.80532
0.87996
1.05121
1.04901
1.07409
0.945457
0.968965
0.98401
1.28505
1.41652
1.317
1.34284
1.25599
1.38402
1.48257
0.878882
1.04287
0.886839
0.989232
1.14951
1.15897
0.980836
1.20373
1.391
1.32278
1.3529
1.29448
1.42567
1.4924
0.904081
0.987439
0.996583
1.0874
1.09707
1.19983
1.18947
1.17397
1.08651
1.1364
1.21226
1.17903
1.26794
1.31218
2.16525
1.13074
1.67677
1.83184
2.5
1.40332
1.93638
1.13007
1.29855
1.17384
1.33412
1.20662
1.25347
1.38661
2.58919
1.83766
2.01875
1.65323
2.05548
2.25318
2.70743
0.918369
1.10514
1.13044
1.09258
1.02104
0.985439
1.02657
1.05788
0.93764
0.901548
1.00358
1.21044
1.17391
1.03917
1.37817
1.52031
1.4067
1.43268
1.33262
1.46858
1.58134
0.975515
0.909264
0.872038
1.02305
1.17916
1.14139
1.06125
1.32084
1.45707
1.3966
1.4175
1.36391
1.50623
1.56622
0.86644
1.062
0.939721
1.10492
0.968324
1.04274
1.18169
0.858921
1.03721
0.932817
1.09596
0.976186
1.05249
1.17361
0.934447
1.10732
1.0004
1.14917
1.04031
1.12297
1.23008
2.49579
1.3227
1.70833
2.11414
2.55964
1.39557
1.78213
0.944716
1.1314
0.953265
1.0636
1.24252
1.25287
1.05454
0.914451
1.09074
0.990508
1.16691
1.05127
1.12914
1.24526
2.02304
1.2313
1.47848
2.12769
2.56412
1.64377
1.88338
2.27475
1.60876
1.88316
2.14358
1.56129
2.24774
2.22841
1.058
0.98696
0.904629
0.998582
1.24914
1.15475
1.07911
1.1125
1.10929
0.984425
1.04098
1.30704
1.18377
1.16375
1.30851
1.50801
1.3732
1.5376
1.40125
1.46745
1.60952
1.04545
1.18366
1.09036
1.25501
1.165
1.21347
1.31215
0.926272
1.06673
1.01782
1.16933
1.11889
1.22099
1.26986
2.26347
1.18989
1.61307
2.04397
2.58974
1.47295
1.87614
0.898432
1.11121
0.975776
1.14835
0.999232
1.07709
1.22853
1.4146
1.64721
1.48031
1.72255
1.54564
1.60645
1.78809
1.60595
1.63833
1.6435
1.73785
1.73846
1.77536
1.87216
1.58721
1.56903
1.58124
1.70006
1.71167
1.69089
1.82199
1.56162
1.62767
1.52267
1.56227
1.73632
1.67143
1.62835
1.56898
1.58114
1.45535
1.58816
1.82265
1.71294
1.70046
1.59791
1.54508
1.47719
1.57422
1.75992
1.69572
1.63972
1.14951
1.01284
0.97096
1.08042
1.31151
1.27038
1.12073
0.99419
1.17741
1.06546
1.23461
1.11991
1.20745
1.31974
0.979101
1.11457
1.10839
1.12372
1.11749
1.27512
1.26491
2.49973
1.33921
1.9833
1.99659
2.66905
1.62012
2.30981
2.24203
1.58745
1.7393
2.70341
2.70415
2.19086
2.42975
1.49379
1.50426
1.49182
1.59603
1.58149
1.59181
1.68647
1.20316
1.33691
1.4263
1.3766
1.29109
1.24556
1.32865
0.984045
1.11096
1.12252
1.28055
1.12007
1.13169
0.975834
1.36564
1.63148
1.50996
1.52281
1.41483
1.56439
1.68408
0.996987
1.23733
1.07735
1.27065
1.09807
1.17772
1.35119
0.970519
1.15502
1.05308
1.24165
1.12453
1.20929
1.32512
1.12681
1.30444
1.25511
1.28871
1.22919
1.36305
1.42233
0.993159
1.17473
1.16809
1.13847
1.13214
1.29072
1.3281
1.02396
1.14445
1.15378
1.17749
1.18707
1.32816
1.31765
1.18522
1.13603
1.14599
1.25983
1.27047
1.23149
1.35769
1.41979
1.35652
1.36404
1.501
1.50904
1.43554
1.58961
1.46076
1.38709
1.41349
1.53321
1.56159
1.4772
1.63322
1.69413
1.73284
1.75607
1.8209
1.83851
1.88146
1.96901
1.35801
1.36841
1.28776
1.42227
1.59288
1.50246
1.51337
1.52452
1.47418
1.37847
1.47511
1.73497
1.56671
1.63282
1.54781
1.50624
1.39942
1.48587
1.75896
1.58905
1.64458
1.00821
1.15816
1.13078
1.31111
1.16767
1.14006
0.999768
1.48307
1.54576
1.39713
1.5015
1.75459
1.58429
1.66296
1.7543
1.69326
1.60588
1.73835
1.97263
1.8866
1.82506
1.63359
1.61092
1.54782
1.68082
1.82983
1.76739
1.74029
1.14127
1.13447
1.06212
1.18214
1.35422
1.26539
1.25816
1.25517
1.3074
1.17994
1.24109
1.46077
1.32196
1.37388
1.23629
1.29356
1.16763
1.2349
1.44653
1.3085
1.36693
1.09047
1.21313
1.10009
1.31071
1.41619
1.42801
1.2996
1.03803
1.20466
1.16848
1.23819
1.20184
1.34379