/*--------------------------------*- C++ -*----------------------------------*\
  =========                 |
  \\      /  F ield         | OpenFOAM: The Open Source CFD Toolbox
   \\    /   O peration     | Website:  https://openfoam.org
    \\  /    A nd           | Version:  9
     \\/     M anipulation  |
\*---------------------------------------------------------------------------*/
FoamFile
{
    format      ascii;
    class       volScalarField;
    location    "0.0004";
    object      lambda.c4;
}
// * * * * * * * * * * * * * * * * * * * * * * * * * * * * * * * * * * * * * //

dimensions      [0 0 0 0 0 0 0];

internalField   nonuniform List<scalar> 
5268
(
1
1
2.60578e-15
2.17044e-30
4.01942e-63
1
1
1.94267e-15
1.55019e-30
3.64612e-64
2.11697e-15
1.22668e-30
1.1964e-63
4.54365e-28
8.47434e-44
7.87314e-30
1.22379e-79
2.00833e-116
2.50318e-14
1
1.50292e-15
1.29943e-48
5.97797e-83
1.21965e-15
1.21635e-47
6.36868e-82
4.20437e-49
5.90024e-85
1.90304e-139
1.44458e-15
1
1
1
1.51364e-15
7.23781e-48
5.49273e-83
1
1.21812e-14
1.2104e-46
6.98798e-81
5.28205e-118
1
1.85596e-15
1.02679e-30
1.91178e-64
1
0.5
1.17982e-15
1.08975e-61
6.87597e-98
1
3.86587e-32
1.17413e-65
7.0643e-102
1.25458e-140
1
4.1038e-15
6.34803e-48
1.15846e-82
7.59494e-120
1
1
1
1
1
1
1
1
1
1
1
1
1
1
1
1
1
1
1
1
1
1
1
1
1
1
1
1
1
1
1
1
1
1
1
1
1
1
1
1
1
1
1
1
1
1
1
1
1
1
1
1
1
1
1
1
1
1
1
1
1
1
1
1
1
1
1
1
1
1
1
1
1
1
1
1
1
1
1
1
1
1
1
1
1
1
1
1
1
1
1
1
1
1
1
1
1
1
1
1
1
1
1
1
1
1
1
1
1
1
1
1
1
1
1
1
1
1
1
1
1
1
1
1
1
1
1
1
1
1
1
1
1
1
1
1
1
1
1
1
1
1
1
1
1
1
1
1
1
1
1
1
1
1
1
1
1
1
1
1
1
1
1
1
1
1
1
1
1
1
1
1
1
1
1
1
1
1
1
1
1
1
1
1
1
1
1
1
1
1
1
1
1
1
1
1
1
1
1
1
1
1
1
1
1
1
1
1
1
1
1
1
1
1
1
1
1
1
1
1
1
1
1
1
1
1
1
1
1
1
1
1
1
1
1
1
1
1
1
1
1
1
1
1
1
1
1
1
1
1
1
1
1
1
1
1
1
1
1
1
1
1
1
1
1
1
1
1
1
1
1
1
1
1
1
1
1
1
1
1
1
1
1
1
1
1
1
1
1
1
1
1
1
1
1
1
1
1
1
1
1
1
1
1
1
1
1
1
1
1
1
1
1
1
1
1
1
1
1
1
1
1
1
1
1
1
1
1
1
1
1
1
1
1
1
1
1
1
1
1
1
1
1
1
1
1
1
1
1
1
1
1
1
1
1
1
1
1
1
1
1
1
1
1
1
1
1
1
1
1
1
1
1
1
1
1
1
1
1
1
1
1
1
1
1
1
1
1
1
1
1
1
1
1
1
1
1
1
1
1
1
1
1
1
1
1
1
1
1
1
1
1
1
1
1
1
1
1
1
1
1
1
1
1
1
1
1
1
1
1
1
1
1
1
1
1
1
1
1
1
1
1
1
1
1
1
1
1
1
1
1
1
1
1
1
1
1
1
1
1
1
1
1
1
1
1
1
1
1
1
1
1
1
1
1
1
1
1
1
1
1
1
1
1
1
1
1
1
1
1
1
1
1
1
1
1
1
1
1
1
1
1
1
1
1
1
1
1
1
1
1
1
1
1
1
1
1
1
1
1
1
1
1
1
1
1
1
1
1
1
1
1
1
1
1
1
1
1
1
1
1
1
1
1
1
1
1
1
1
1
1
1
1
1
1
1
1
1
1
1
1
1
1
1
1
1
1
1
1
1
1
1
1
1
1
1
1
1
1
1
1
1
1
1
1
1
1
1
1
1
1
1
1
1
1
1
1
1
1
1
1
1
1
1
1
1
1
1
1
1
1
1
1
1
1
1
1
1
1
1
1
1
1
1
1
1
1
1
1
1
1
1
1
1
1
1
1
1
1
1
1
1
1
1
1
1
1
1
1
1
1
1
1
1
1
1
1
1
1
1
1
1
1
1
1
1
1
1
1
1
1
1
1
2.19503e-15
1.03467e-15
1.33236e-30
9.0759e-48
1.00157e-63
4.72226e-82
1
1
1
1
1
4.88779e-15
7.44276e-32
0
1.88679e-290
3.84238e-243
1.25499e-198
2.4412e-157
7.08145e-118
0
0
1.33417e-287
4.08713e-241
2.60497e-197
2.11134e-156
1.56867e-117
0
0
4.29837e-312
9.88393e-265
2.36135e-220
1.30446e-177
1.20594e-137
0
0
0
2.10355e-286
2.05048e-240
1.28332e-196
9.6561e-156
0
0
0
5.87938e-312
1.8599e-264
2.74638e-220
8.68297e-178
0
0
0
0
5.50988e-286
6.52389e-240
1.27344e-196
0
0
0
0
4.496e-312
1.1364e-264
2.37805e-220
0
0
0
0
0
8.80383e-286
1.89455e-240
0
0
0
0
0
3.40905e-312
4.69317e-265
0
0
0
0
0
0
2.40933e-286
0
0
0
0
0
0
8.89318e-313
2.15885e-81
5.24492e-117
4.54607e-156
5.64686e-178
3.61753e-197
1.65129e-220
4.38784e-241
2.04737e-265
5.80457e-47
5.38621e-81
9.07635e-47
4.30746e-15
3.46754e-84
8.28754e-65
9.16779e-32
4.91543e-81
4.66263e-47
1.0482e-137
1.12523e-84
3.66065e-65
2.14164e-117
2.09475e-81
6.29779e-138
2.69874e-101
2.27454e-156
7.05017e-118
1.13821e-178
6.7996e-139
5.63925e-198
3.14585e-157
1.20733e-221
8.40698e-180
1
1
1
1
1
1
1
1
1
1
1
1
1
1
1
1
0.5
1
1
1
1
1
1
0.5
1
1
1
1
1
1
1
1
0.5
1
1
1
1
1
1
1
1
1
1
1
1
1
1
1
1
0.5
1
1
1
1
1
1
1
1
1
1
1
1
1
1
1
1
1
1
1
1
1
1
1
1
1
1
1
1
1
0.5
1
1
1
1
1
1
0.5
1
1
1
1
1
1
1
1
1
1
1
1
1
1
1
1
1
1
1
1
1
1
1
1
1
1
1
1
1
1
1
1
1
1
1
1
1
1
1
1
1
1
1
1
1
1
1
1
1
1
1
1
1
1
1
1
1
1
1
1
1
1
1
1
1
1
1
1
1
1
1
1
1
0.5
1
1
1
1
1
1
1
1
1
1
1
1
1
1
1
1
1
1
1
1
1
1
1
1
1
1
1
1
1
1
1
1
1
1
1
1
1
1
1
1
1
1
1
1
1
1
1
1
1
1
1
1
1
1
1
1
1
1
1
1
1
1
1
1
1
1
1
1
1
1
1
1
1
1
1
1
1
1
1
1
1
1
1
1
1
1
1
1
1
1
1
1
1
1
1
1
1
1
1
1
1
1
1
1
1
1
1
1
1
1
1
1
1
1
1
1
1
1
1
1
1
1
1
1
1
1
1
1
1
1
1
1
1
1
1
1
1
1
1
1
1
1
1
1
1
1
1
1
1
1
1
1
1
1
0.5
2.23387e-32
1
1
1
1
1
1
1
1
1
1
4.2835e-143
6.12112e-39
6.11226e-39
5.84267e-105
1.43535e-36
1.65923e-36
6.71683e-39
6.74426e-39
3.5249e-114
5.97943e-114
4.95746e-39
3.08986e-114
2.29838e-114
7.84083e-39
1.11899e-113
5.62867e-37
1.46928e-36
4.31936e-76
4.20916e-35
6.06843e-35
0.5
4.21692e-35
3.95161e-76
1.37496e-36
2.03818e-76
4.16694e-35
0.5
0.5
4.16665e-35
1.4617e-76
1.73945e-36
7.11541e-76
4.83809e-35
0.5
4.83837e-35
0.5
0.5
0.5
0.5
1
1
1
1
1
1
1
1
1
1
1
1
1
1
1
1
1
1
1
1
1
1
1
1
1
2.59175e-15
4.14333e-15
2.16827e-30
2.97624e-30
3.62143e-63
4.10881e-46
1
1
1
1
4.21947e-12
1.32317e-12
4.82569e-28
5.59932e-44
9.50384e-157
3.48887e-137
5.52927e-138
4.10653e-157
1.91604e-163
5.58877e-203
2.46202e-245
1.85943e-275
0
0
0
0
5.80718e-102
1.3748e-99
7.10411e-100
6.99264e-118
1.28438e-122
6.06033e-161
2.60164e-186
1.64678e-229
9.9773e-274
0
0
0
1.34394e-65
3.30473e-64
1.68701e-64
8.13511e-66
4.62541e-85
1.004e-120
3.81736e-145
2.75237e-184
6.85996e-228
3.93884e-273
0
0
5.22469e-31
2.99706e-31
2.15615e-31
4.35654e-49
2.45019e-83
8.5066e-105
1.96868e-143
1.01681e-183
1.45522e-227
1.19514e-272
0
1.1759e-15
9.0898e-16
1.03498e-15
1.01344e-15
5.97476e-48
9.18483e-68
5.59295e-104
1.98713e-142
1.67618e-183
1.36193e-227
1.14568e-272
1
1
1
1
3.30516e-15
5.03147e-33
6.32578e-67
2.16559e-103
2.29277e-142
1.7167e-183
1.24061e-227
1
1
1
1
1
1
1.06508e-32
6.87559e-67
1.49107e-103
1.45482e-142
8.01156e-184
1
1
1
1
1
1
1
9.29735e-33
3.05005e-67
3.25826e-104
6.90283e-144
1
1
1
1
1
3.67775e-33
2.29826e-68
2.6219e-105
2.0503e-140
9.18937e-137
6.69739e-138
1.29459e-157
8.64605e-164
1.36439e-203
2.64478e-245
1.77055e-276
0
0
0
0
2.17217e-101
5.23581e-99
1.20176e-99
4.20354e-118
9.17927e-123
5.69419e-161
1.75074e-186
8.69066e-230
2.76777e-274
0
0
0
1.81384e-65
3.96821e-64
1.73543e-64
1.02772e-81
4.92533e-85
4.52861e-121
3.46382e-145
4.57603e-185
1.57631e-228
1.48246e-273
0
0
5.08677e-31
3.51401e-31
1.71027e-47
3.13023e-49
1.98138e-83
5.0745e-105
9.61844e-144
3.56521e-184
5.13946e-228
3.84744e-273
0
1.14812e-15
9.69531e-16
1.05905e-15
9.03107e-16
3.01071e-48
6.90508e-68
3.41121e-104
1.02739e-142
9.96207e-184
8.19122e-228
3.30842e-273
1
1
1
1
3.30843e-15
4.54063e-33
4.829e-67
1.05764e-103
1.23422e-142
8.41266e-184
4.75706e-228
1
1
1
1
1
1
9.67873e-33
6.39555e-67
1.1212e-103
2.13817e-143
9.71583e-185
1
1
1
1
1
1
1
8.49392e-33
1.21538e-67
3.40911e-104
1.58319e-144
1
1
1
1
1
3.35546e-33
8.72738e-69
1.56031e-105
6.2376e-161
2.48458e-157
2.23277e-157
1.01928e-161
6.26073e-200
3.12944e-224
3.64184e-268
1.4822e-313
0
0
0
0
9.40125e-121
4.93364e-118
3.54208e-118
7.28103e-122
1.15128e-157
2.23185e-181
6.59779e-222
2.39667e-266
2.2233e-312
0
0
0
1.0489e-83
8.03933e-82
8.50531e-82
2.83857e-84
6.25408e-104
3.82969e-140
1.46765e-179
8.98037e-221
3.05747e-265
1.47726e-311
0
0
1.86066e-31
1.43441e-47
9.47697e-49
1.54342e-67
9.0016e-102
1.68356e-138
4.68224e-178
2.57756e-220
9.92714e-265
2.30235e-311
0
1.03053e-15
1.02341e-15
6.76429e-16
1.28711e-32
8.45935e-66
1.1212e-100
2.60728e-107
1.08714e-177
7.99955e-220
1.45099e-264
2.99898e-311
1
1
1
1
5.60434e-32
4.62442e-34
3.94973e-70
7.5427e-107
1.45712e-177
1.28011e-219
1.61759e-264
1
1
1
1
1
0.5
1.00779e-33
1.50351e-69
1.28212e-106
9.33343e-178
2.32656e-220
1
1
1
1
1
1
1
5.46692e-34
7.14871e-70
3.79518e-107
1.1398e-178
1
1
1
1
6.43272e-16
3.39712e-65
5.12481e-101
2.47816e-139
2.24331e-199
1.54474e-178
9.17548e-179
3.79519e-200
5.81249e-224
3.792e-266
4.65629e-280
0
0
0
0
0
1.64819e-157
1.35971e-138
8.20016e-138
2.12965e-158
3.35116e-181
5.08864e-221
5.24702e-233
8.75026e-278
0
0
0
0
2.78599e-118
3.0482e-85
2.30604e-85
8.52844e-119
4.6478e-140
5.17365e-178
4.48333e-188
1.20062e-231
5.17119e-277
0
0
0
5.52285e-50
4.68358e-50
1.32351e-81
1.5397e-101
5.69707e-107
6.31872e-146
1.19169e-186
5.38068e-231
5.57729e-276
0
0
8.75677e-16
8.20455e-16
9.13917e-33
2.52633e-65
7.97415e-70
8.28092e-106
4.8521e-145
4.55285e-186
2.72583e-230
1.09401e-275
0
1
1
0.5
7.27983e-32
8.55115e-34
2.43838e-68
3.15389e-105
9.47867e-145
9.09331e-186
2.31164e-230
6.83758e-276
1
1
1
1
1
2.5853e-33
3.42423e-68
3.24992e-105
6.63905e-145
6.23359e-186
9.04826e-231
1
1
1
1
1
1
3.01518e-33
2.94115e-68
1.75892e-105
3.48478e-145
5.48866e-187
1
1
1
1
1.80072e-33
1.38997e-68
1.96009e-106
4.8781e-147
9.37747e-241
1.39768e-205
1.11684e-205
1.29505e-240
4.35132e-267
6.33392e-311
0
0
0
0
0
0
2.36944e-182
2.93666e-162
1.26212e-162
5.14316e-183
1.57327e-221
1.09599e-262
1.36603e-277
0
0
0
0
0
8.55248e-142
2.58506e-122
2.24736e-122
3.76892e-142
5.90078e-179
5.35739e-188
1.40055e-231
5.50846e-276
0
0
0
0
3.51196e-84
2.1609e-84
8.9523e-103
2.53463e-138
9.07126e-147
1.65274e-186
4.76811e-230
5.4904e-275
0
0
0
1.22367e-48
1.01999e-48
1.93601e-66
1.51411e-100
4.76941e-106
9.12662e-145
2.37849e-185
2.72383e-229
1.42302e-274
0
0
2.89898e-15
2.77849e-15
2.78159e-32
5.96944e-34
1.30486e-68
6.16851e-105
8.59494e-144
4.75753e-185
2.01576e-229
7.57787e-275
0
1
1
1
0.5
2.68155e-33
7.78474e-68
1.35219e-104
7.2287e-144
3.65126e-185
9.69244e-230
3.33617e-275
1
1
1
1
1
4.17842e-33
1.60464e-67
1.0314e-104
5.9427e-144
1.23466e-185
1.51706e-230
1
1
1
3.67623e-33
4.14215e-68
1.69286e-105
1.722e-145
1.88043e-187
7.38457e-285
3.16759e-248
7.54053e-249
7.97499e-285
1.43279e-312
0
0
0
0
0
0
0
4.53017e-239
4.15283e-204
2.27786e-204
4.93681e-239
1.88499e-265
4.17011e-309
0
0
0
0
0
0
2.7773e-181
5.8003e-161
2.29485e-161
2.20379e-181
1.48471e-220
5.09348e-262
2.23997e-276
0
0
0
0
0
4.69057e-141
2.92577e-121
2.50666e-121
4.02049e-141
4.99159e-178
3.69248e-187
3.31566e-230
6.48999e-275
0
0
0
0
4.6355e-102
1.50136e-83
1.25975e-83
3.16958e-102
1.21593e-137
5.77623e-146
1.19743e-185
3.13426e-229
3.71893e-274
0
0
0
7.28855e-66
4.04661e-48
3.84195e-48
5.8016e-66
5.81069e-100
1.2876e-105
3.76771e-144
6.31803e-185
7.9578e-229
4.82359e-274
0
0
3.82328e-32
2.98747e-15
4.02887e-15
3.98271e-32
4.7666e-34
1.84702e-68
8.9574e-105
1.44549e-143
1.33882e-184
1.1471e-228
2.73764e-274
0
1
1
1
1.15321e-15
2.29055e-33
1.0762e-67
1.72134e-104
9.3191e-144
4.74024e-185
1.17841e-229
2.02909e-275
1
0.5
3.45708e-33
4.98223e-68
3.42953e-105
1.15941e-144
1.58195e-186
2.15891e-231
0
9.48576e-309
4.27224e-309
0
0
0
0
0
0
0
0
0
1.02595e-283
1.4797e-247
1.20709e-247
8.4971e-284
2.22824e-311
0
0
0
0
0
0
0
1.76454e-238
1.97468e-203
2.09163e-203
2.05757e-238
1.86148e-264
4.31649e-308
0
0
0
0
0
0
4.22348e-181
1.4664e-160
1.5311e-160
3.97466e-181
6.7792e-220
2.21241e-261
1.22736e-275
0
0
0
0
0
4.28456e-141
7.7516e-121
9.1271e-121
5.56152e-141
1.83937e-177
1.18304e-186
7.50743e-230
2.89857e-274
0
0
0
0
7.27817e-102
1.67277e-83
2.78771e-83
6.23674e-102
2.28392e-137
8.1484e-146
3.15601e-185
7.8799e-229
8.91931e-274
0
0
0
2.65886e-66
3.16948e-48
3.11112e-48
2.71341e-66
3.60492e-85
1.28605e-105
4.28046e-144
8.45787e-185
1.43518e-228
8.51655e-274
0
0
1.184e-15
1.16155e-15
1.87552e-32
6.25093e-49
1.46132e-68
8.59858e-105
1.32938e-143
7.41975e-185
6.15436e-229
9.94148e-275
0
9.69554e-16
9.33712e-34
2.03661e-68
4.0226e-105
2.39153e-144
3.73665e-186
9.38564e-231
2.66615e-276
0
0
0
0
0
0
0
0
0
0
0
0
0
2.73124e-308
2.80441e-308
0
0
0
0
0
0
0
0
0
1.79372e-283
3.40833e-247
4.59962e-247
2.55079e-283
4.25885e-311
0
0
0
0
0
0
0
3.70082e-238
4.46854e-203
3.20297e-203
4.0534e-238
3.82687e-264
1.17e-307
0
0
0
0
0
0
3.23174e-181
1.8251e-160
3.15258e-160
5.47834e-181
2.14143e-219
3.09745e-261
3.0202e-275
0
0
0
0
0
5.6561e-141
3.87135e-121
6.52672e-121
2.67067e-141
2.47403e-177
7.05591e-187
8.14205e-230
4.40137e-274
0
0
0
0
3.6864e-102
1.55679e-83
1.18371e-83
3.40169e-102
3.02019e-137
9.72778e-146
2.67591e-185
8.19467e-229
9.819e-274
0
0
0
5.35604e-49
5.30989e-49
8.03532e-67
4.21241e-85
5.26415e-106
3.9011e-144
2.44306e-185
4.99724e-229
2.48524e-274
0
0
1.96945e-49
7.50622e-84
4.21559e-106
8.47109e-145
2.90361e-186
2.36181e-230
4.13248e-276
0
0
0
0
0
0
0
0
0
0
0
0
0
0
0
0
0
0
0
0
0
0
0
0
0
0
5.30201e-308
1.19248e-307
0
0
0
0
0
0
0
0
0
1.94823e-283
6.54004e-247
6.40517e-247
3.60674e-283
7.00585e-311
0
0
0
0
0
0
0
2.56404e-238
2.39241e-203
2.31943e-203
3.47224e-238
5.26201e-264
1.25936e-307
0
0
0
0
0
0
1.80846e-181
1.13984e-160
2.44364e-160
3.17387e-181
1.10832e-219
3.41131e-261
3.68722e-275
0
0
0
0
0
1.08855e-141
1.91516e-121
3.60969e-121
6.50876e-142
1.24401e-177
3.31866e-187
7.51929e-230
2.23895e-274
0
0
0
0
1.38779e-84
2.83577e-84
1.24624e-102
6.81198e-138
1.77715e-146
4.50555e-186
1.22804e-229
5.991e-275
0
0
0
2.12679e-85
1.32717e-121
1.29702e-145
1.29633e-186
7.59646e-231
2.97963e-276
0
0
0
0
0
0
0
0
0
0
0
0
0
0
0
0
0
0
0
0
0
0
0
0
0
0
0
0
0
0
0
0
0
0
0
0
0
0
0
3.25548e-308
5.81063e-308
0
0
0
0
0
0
0
0
0
1.04513e-283
4.62387e-247
3.86745e-247
1.93156e-283
5.24204e-311
0
0
0
0
0
0
0
1.37015e-238
9.28604e-204
7.78244e-204
1.91182e-238
1.98787e-264
5.83379e-308
0
0
0
0
0
0
3.87481e-182
5.44296e-161
3.47429e-161
2.56629e-182
2.24147e-220
7.13455e-262
1.0116e-275
0
0
0
0
0
1.21791e-122
6.50524e-123
9.05485e-156
2.3026e-178
7.8237e-188
6.54873e-231
5.80262e-276
0
0
0
0
1.14652e-139
7.09812e-162
8.08834e-188
2.58574e-231
1.0159e-276
0
0
0
1
1
1
1
1
1
1
1
1
1
1
7.91074e-15
8.14432e-15
7.09602e-15
1
7.06123e-30
7.25668e-30
2.93471e-47
1.43873e-15
6.98247e-64
6.96797e-64
2.73517e-81
3.20758e-31
2.71333e-100
5.8285e-100
9.68005e-119
5.35538e-82
1
1
1
8.2279e-16
1
1
1
1.05522e-15
1
1
1
3.20147e-32
1
1
0.5
5.86461e-34
1
1
1.49447e-33
1.23385e-69
0.5
1.77302e-33
2.15828e-69
2.42979e-106
7.62965e-34
1.87931e-69
1.78261e-106
3.08109e-161
4.00706e-84
4.7079e-107
5.30606e-161
2.05713e-218
1.47408e-122
1.06102e-161
1.98702e-218
7.91263e-263
2.56667e-162
2.85822e-219
2.60774e-263
1.26995e-309
1
1
1
1
1
1
1
1
1
1
1
1
1
1
1
1
1
1
1
1
1
1.91633e-14
1.20062e-15
1
1
1.57292e-15
1.3518e-15
3.18665e-46
2.92093e-49
2.21294e-15
2.16604e-15
3.60139e-31
9.97645e-49
3.69076e-80
3.76637e-85
1.39077e-30
1.30378e-30
6.23251e-82
1.98642e-83
4.31966e-117
1.18526e-139
8.76408e-64
9.61489e-64
1
1.71891e-32
3.31281e-67
4.59435e-103
2.83031e-156
1
4.9385e-15
2.39734e-47
9.65078e-82
4.91528e-119
1
1
1.20369e-15
5.55317e-49
1.6448e-83
1
1
1.38017e-15
5.16682e-31
8.93021e-65
9.04778e-49
3.77032e-84
1.14717e-48
3.88612e-84
7.55859e-66
1.80936e-102
8.90296e-85
2.123e-138
1.17248e-106
1.58859e-177
5.88442e-162
3.45887e-219
2.8256e-218
5.27973e-263
1.01473e-262
1.92938e-309
3.48247e-309
0
0
0
1
1
1
1.88327e-15
1.09222e-30
2.65612e-64
1
1
1
1
1.27337e-11
7.48503e-12
1.30848e-27
8.75321e-28
3.0086e-43
1.88125e-43
1
1
1
1
9.64076e-11
5.58746e-10
9.99602e-26
6.1435e-26
2.73402e-41
1.09922e-41
1
1
1
1
1
1
1
1
1
1
1
1
1
1
1
1
1
1
1
1
1
1
1
1
1
1
1
1
1
1
1
1
1
1
1
1
1
1
1
1
1
1
1
1
1
1
1
1
1
1
1
1
1
1
1
1
1
1
1
1
1
1
1
1
1
1
1
1
1
1
8.32073e-120
3.86055e-82
8.56398e-32
8.15369e-16
1
1.14372e-119
1.52776e-82
8.01239e-48
7.97371e-16
1
3.15784e-136
9.22322e-99
4.19387e-63
5.28817e-16
0.5
1
1
1
1
1
1
1
1
1
1
1
1
1
1
1
1
1
1
0
0
0
0
0
0
0
0
0
9.04928e-276
0
0
0
0
0
0
0
0
3.38584e-274
5.436e-230
0
0
0
0
0
0
0
1.42146e-273
1.087e-228
1.00264e-184
0
0
0
0
0
0
2.44136e-273
5.14924e-228
6.86146e-184
1.97848e-143
0
0
0
0
0
1.76059e-273
4.48026e-228
1.92375e-183
1.10182e-142
7.23838e-104
0
0
0
0
4.369e-274
2.98141e-228
1.18276e-183
9.85034e-143
1.13929e-103
4.1652e-67
0
0
0
6.12281e-275
1.94513e-229
1.4697e-184
5.48578e-143
6.23856e-104
5.97403e-67
9.58907e-33
0
0
3.30843e-277
1.47619e-230
4.80962e-186
2.4804e-144
2.45046e-104
1.3027e-67
8.26922e-33
1
0
0
0
0
0
0
0
0
0
8.58164e-276
0
0
0
0
0
0
0
0
1.53307e-273
1.87103e-229
0
0
0
0
0
0
0
9.0584e-273
5.49628e-228
1.20916e-184
0
0
0
0
0
0
1.2842e-272
1.41222e-227
8.51757e-184
2.70865e-143
0
0
0
0
0
3.361e-273
1.09005e-227
1.93266e-183
2.51332e-142
6.99692e-104
0
0
0
0
1.75959e-273
5.04756e-228
1.00376e-183
1.35779e-142
1.91956e-103
3.83129e-67
0
0
0
6.74737e-274
4.45714e-229
7.45578e-184
7.54731e-143
7.91153e-104
6.93873e-67
1.02788e-32
0
0
1.1248e-276
1.21777e-230
7.41343e-186
3.49632e-144
3.61736e-104
1.51266e-67
8.8245e-33
1
0
0
0
0
0
0
0
0
0
2.17389e-312
0
0
0
0
0
0
0
0
1.24505e-311
4.52694e-265
0
0
0
0
0
0
0
1.60028e-310
2.6283e-264
6.7504e-220
0
0
0
0
0
0
2.40165e-310
1.16593e-263
1.79859e-219
9.77139e-178
0
0
0
0
0
1.03062e-310
1.23609e-263
3.44881e-219
2.36019e-177
1.91882e-107
0
0
0
0
1.59089e-311
5.79793e-264
2.53972e-219
4.77322e-177
7.53118e-107
1.01929e-69
0
0
0
3.40905e-312
9.10886e-265
1.39311e-219
1.81683e-177
6.07789e-107
1.44743e-69
1.18183e-33
0
0
0
3.89097e-267
8.38302e-222
1.13665e-178
2.38561e-107
8.58947e-70
6.10372e-34
1
0
0
0
0
0
0
0
0
0
0
0
0
0
0
0
0
0
0
0
1.46948e-277
0
0
0
0
0
0
0
0
7.16512e-277
1.95866e-231
0
0
0
0
0
0
0
1.86977e-276
1.43998e-230
2.37074e-186
0
0
0
0
0
0
1.66853e-276
1.67789e-230
7.11098e-186
1.74996e-144
0
0
0
0
0
3.72181e-277
5.77948e-231
4.4304e-186
2.18367e-144
3.15317e-105
0
0
0
0
1.61274e-277
1.59328e-231
2.53587e-186
8.38295e-145
5.32196e-105
6.27884e-68
0
0
0
1.4173e-279
1.3262e-232
4.86264e-187
9.82368e-146
1.20626e-105
3.12371e-68
3.21156e-33
0
0
0
0
0
0
0
0
0
0
0
0
0
0
0
0
0
0
0
0
0
0
0
0
0
0
0
0
0
2.46565e-276
0
0
0
0
0
0
0
0
1.80241e-275
2.02781e-230
0
0
0
0
0
0
0
4.65654e-275
8.96767e-230
1.27521e-185
0
0
0
0
0
0
3.88487e-275
1.1339e-229
3.28157e-185
5.16825e-144
0
0
0
0
0
9.29219e-276
5.05609e-230
2.67244e-185
1.06742e-143
1.08976e-104
0
0
0
0
5.31259e-277
5.66227e-231
6.11118e-186
3.51896e-144
1.43132e-104
1.17719e-67
0
0
0
0
0
0
0
0
0
0
0
0
0
0
0
0
0
0
0
0
0
0
0
0
0
0
0
0
0
0
0
0
0
0
0
0
0
0
0
5.01464e-275
0
0
0
0
0
0
0
0
2.57849e-274
2.43473e-229
0
0
0
0
0
0
0
4.21968e-274
7.25454e-229
7.56589e-185
0
0
0
0
0
0
1.18557e-274
3.761e-229
9.64059e-185
1.24674e-143
0
0
0
0
0
1.45383e-275
8.07108e-230
3.75867e-185
1.48553e-143
1.47737e-104
0
0
0
0
0
0
0
0
0
0
0
0
0
0
0
0
0
0
0
0
0
0
0
0
0
0
0
0
0
0
0
0
0
0
0
0
0
0
0
0
0
0
0
0
0
0
0
0
0
1.5932e-274
0
0
0
0
0
0
0
0
6.71304e-274
4.07168e-229
0
0
0
0
0
0
0
6.89761e-274
7.54136e-229
8.59856e-185
0
0
0
0
0
0
7.34762e-275
2.47849e-229
6.18292e-185
5.39145e-144
0
0
0
0
0
0
0
0
0
0
0
0
0
0
0
0
0
0
0
0
0
0
0
0
0
0
0
0
0
0
0
0
0
0
0
0
0
0
0
0
0
0
0
0
0
0
0
0
0
0
0
0
0
0
0
0
0
0
0
2.22688e-274
0
0
0
0
0
0
0
0
4.70654e-274
1.92044e-229
0
0
0
0
0
0
0
1.29407e-274
3.00626e-229
1.43327e-185
0
0
0
0
0
0
0
0
0
0
0
0
0
0
0
0
0
0
0
0
0
0
0
0
0
0
0
0
0
0
0
0
0
0
0
0
0
0
0
0
0
0
0
0
0
0
0
0
0
0
0
0
0
0
0
0
0
0
0
0
0
0
0
0
0
0
0
0
0
4.06669e-275
0
0
0
0
0
0
0
0
4.49486e-275
6.94197e-230
0
0
0
0
0
0
0
0
0
0
0
0
0
0
0
0
0
0
0
0
0
0
0
0
0
0
0
0
0
0
0
0
0
0
0
0
0
0
0
0
0
0
0
0
0
0
0
0
0
0
0
0
0
0
0
0
0
0
0
0
0
0
0
0
0
0
0
0
0
0
0
0
0
0
0
0
0
0
0
5.79161e-276
1
1
1
1
1
1
1
1
1
1
1
1
1
1
1
1
1
1
1
1
1
1
1
1
1
1
1
3.44568e-33
0.5
1
0.5
1
1
1.96965e-68
9.47807e-34
9.57118e-16
7.19494e-34
1.15226e-15
1.3782e-14
3.55126e-106
6.66496e-84
1.88586e-49
3.49847e-84
2.65367e-49
2.25867e-46
8.76413e-146
3.43365e-122
3.0571e-101
9.58491e-138
3.00919e-85
1.06707e-80
2.07315e-188
1.31035e-161
8.83868e-140
3.2578e-178
3.16913e-139
1.25148e-117
5.32496e-245
8.34476e-203
8.4557e-163
1.1125e-185
3.08775e-160
1.26237e-122
8.58161e-145
2.22138e-120
6.92309e-85
9.03327e-105
6.37594e-83
4.90876e-49
1.79054e-67
6.66963e-48
9.32072e-16
4.62713e-33
3.18719e-15
1
1
1
1
1
1
1
2.89616e-244
1.99584e-202
1.12536e-162
1.93943e-185
6.10039e-160
2.54165e-122
1.31135e-144
3.57262e-120
1.09262e-84
1.20768e-104
8.3183e-83
6.3266e-49
1.0585e-67
7.61994e-48
6.84505e-16
4.99265e-33
3.19581e-15
1
1
1
1
1
1
1
8.23146e-267
8.12183e-224
5.53323e-198
9.36196e-222
4.76946e-181
1.80594e-156
1.5106e-178
6.46413e-140
4.50359e-103
1.95801e-138
2.37453e-101
3.62184e-67
4.10368e-100
1.59283e-65
1.94137e-32
5.7303e-34
7.66986e-32
1
0.5
1
1
1
1
1
8.01273e-280
2.71776e-265
2.78965e-223
2.65299e-233
4.0425e-220
6.15523e-180
2.57359e-188
2.15447e-177
1.95976e-139
3.12628e-145
8.52399e-107
6.09576e-101
1.10362e-105
1.09757e-69
3.987e-65
1.60995e-68
1.02144e-33
9.2036e-32
2.98371e-33
1
1
1
1
1
0
1.89425e-310
1.03359e-266
4.36741e-278
1.26816e-263
2.30114e-221
8.35439e-232
5.10617e-188
1.06471e-178
1.43135e-186
1.96969e-146
3.62264e-138
1.10979e-144
6.0414e-106
2.08881e-100
5.84269e-105
1.56022e-68
6.66909e-34
9.05516e-68
3.01811e-33
0.5
4.45883e-33
1
1
0
0
1.5316e-312
0
2.85679e-309
3.27542e-265
3.05521e-276
3.14787e-262
3.12579e-220
3.32477e-230
3.51815e-187
1.29678e-177
3.32171e-185
9.2354e-146
9.48359e-138
7.44297e-144
1.75017e-105
9.26451e-100
1.34813e-104
4.21647e-68
5.32771e-34
1.17532e-67
2.41527e-33
1.25993e-15
0
0
0
0
0
1.59089e-311
0
2.72754e-308
1.38496e-264
1.78176e-275
1.32913e-261
1.45549e-219
1.39848e-229
8.32592e-187
1.89686e-177
3.65853e-185
2.00619e-145
2.5481e-137
6.02091e-144
1.3858e-105
1.05435e-99
5.15188e-105
8.01433e-69
6.74737e-49
0
0
0
0
0
0
0
0
3.73514e-311
0
8.45581e-308
4.56852e-264
1.68886e-275
2.60929e-261
2.02257e-219
8.2353e-230
1.16844e-186
3.37904e-177
1.12505e-185
1.41817e-145
2.80015e-137
2.19726e-144
5.26307e-106
4.77682e-100
0
0
0
0
0
0
0
0
0
0
0
3.43376e-311
0
1.32439e-307
3.17711e-264
1.19605e-275
2.38848e-261
1.24699e-219
1.22181e-230
3.22233e-187
1.94539e-177
1.72131e-186
1.48109e-146
6.71769e-138
0
0
0
0
0
0
0
0
0
0
0
0
0
0
2.56914e-311
0
5.28802e-308
1.78148e-264
2.86983e-276
8.31368e-262
3.46275e-220
4.03459e-231
1.27617e-188
9.50094e-179
2.09317e-158
2.34732e-158
7.84387e-177
1.88217e-200
1.68841e-158
4.15678e-119
2.97459e-82
1.30899e-47
3.16404e-15
0
7.79317e-294
1.0163e-246
9.90972e-202
5.40163e-160
9.83883e-106
9.58847e-69
3.30705e-33
1
1
1.38659e-297
3.03464e-250
1.25292e-204
4.23076e-162
7.81822e-122
2.79242e-84
1.28412e-48
1.05728e-15
1
1
7.51846e-286
1.0632e-239
6.75848e-180
3.75336e-138
3.51511e-100
4.66026e-64
7.48056e-16
0.5
5.0439e-261
3.03318e-216
1.15285e-159
9.95365e-121
4.12416e-83
3.40224e-48
7.06973e-16
1
4.76339e-259
9.06052e-215
0
1.23446e-293
2.25185e-246
1.92777e-201
1.80174e-159
2.9913e-105
2.35506e-68
3.53802e-33
1
1
4.8295e-297
5.01428e-250
1.84419e-204
5.12037e-162
1.48612e-121
8.24551e-84
1.53335e-48
1.10578e-15
1
1
9.65966e-270
4.83129e-223
1.50918e-179
1.95753e-138
1.04132e-99
1.36402e-63
8.59535e-16
0.5
1.50649e-260
8.31013e-216
5.58409e-159
4.0739e-120
6.88706e-83
4.45453e-48
6.72293e-16
1
1.7997e-259
1.66969e-215
0
0
1.24971e-268
2.31768e-223
3.01449e-180
1.53144e-139
2.74473e-101
3.8474e-65
6.57178e-16
1
0
2.25044e-273
1.01248e-226
7.03321e-183
5.24209e-141
1.7343e-102
7.15522e-66
3.08087e-32
1
1
1.71947e-292
1.64668e-245
1.71873e-200
1.15837e-158
4.69098e-119
2.52912e-82
1.01768e-47
1.6064e-15
2.68641e-267
2.20655e-221
1.3926e-178
2.81168e-137
1.10182e-98
8.69734e-63
7.90784e-16
0.5
5.28541e-265
1.18046e-219
0
0
1.33398e-312
1.96852e-264
5.07679e-189
3.65603e-147
1.67196e-106
6.53846e-69
1.75023e-33
1
0
0
7.95526e-269
5.09125e-223
2.16295e-179
3.81336e-139
1.33125e-100
5.34423e-34
0.5
1
0
3.71414e-288
5.51554e-241
8.35703e-183
1.05917e-141
9.43064e-103
5.00598e-66
2.6382e-32
1.88394e-296
9.57084e-248
4.84758e-203
2.29683e-160
1.38624e-120
4.07052e-83
4.27788e-48
4.55368e-15
1.74509e-291
1.05587e-244
0
0
0
2.84814e-279
6.02364e-233
1.72595e-187
2.26279e-145
2.38982e-105
6.66655e-68
3.63194e-33
0
0
4.94066e-314
2.82211e-266
6.75832e-221
6.5104e-178
1.55875e-106
9.90921e-70
1.37604e-33
1
0
0
1.15398e-270
1.92124e-224
5.1952e-181
5.80342e-140
2.85611e-101
3.0053e-65
0
1.46129e-292
1.57133e-245
2.40197e-200
1.60825e-158
1.30764e-118
3.52811e-82
2.81461e-47
0
4.8474e-288
1.3638e-241
2.48518e-197
4.65851e-156
1.28774e-116
1.21405e-80
3.8046e-32
0
0
0
0
1.18183e-277
1.59546e-231
1.3909e-186
1.14462e-144
7.52291e-105
4.84289e-68
0
0
0
1.38832e-311
2.19106e-264
4.73385e-219
6.55134e-177
2.15199e-106
3.48832e-69
1.65729e-33
0
0
0
2.14074e-268
1.0952e-222
1.29516e-179
5.0922e-139
9.55985e-101
0
0
5.86902e-290
4.82565e-243
6.59627e-199
2.45582e-157
4.73505e-118
1.07336e-81
0
0
1.59033e-285
1.51619e-239
1.05527e-195
9.01799e-155
7.82856e-116
5.67653e-80
0
0
0
0
0
6.92839e-277
7.33313e-231
3.85084e-186
2.83719e-144
3.51154e-105
0
0
0
0
1.29396e-310
1.62414e-263
1.04785e-218
1.66759e-176
3.23205e-106
7.62098e-70
0
0
0
0
1.15405e-267
2.99429e-222
3.60487e-179
1.48165e-138
0
0
0
3.86392e-289
1.1184e-242
1.322e-198
3.28637e-157
5.14487e-118
0
0
0
5.58e-284
3.19576e-238
1.15282e-194
6.17625e-154
2.83056e-115
0
0
0
0
0
0
1.92105e-276
1.72833e-230
5.16714e-186
6.24551e-145
0
0
0
0
0
4.70598e-310
4.59695e-263
2.16071e-218
2.47672e-176
1.25556e-106
0
0
0
0
0
4.64993e-267
9.24203e-222
4.92641e-179
0
0
0
0
1.76301e-288
4.43876e-242
2.53669e-198
3.39439e-157
0
0
0
0
4.01198e-283
1.32594e-237
4.91657e-194
1.47996e-153
0
0
0
0
0
0
0
2.23541e-276
6.6967e-231
3.74569e-187
0
0
0
0
0
0
1.11091e-309
4.86964e-263
1.48296e-218
8.49795e-177
0
0
0
0
0
0
6.32441e-267
5.13539e-222
0
0
0
0
0
4.94441e-288
5.29116e-242
2.62426e-198
0
0
0
0
0
1.18354e-282
3.13143e-237
3.86633e-194
0
0
0
0
0
0
0
0
1.15507e-276
1.17028e-231
0
0
0
0
0
0
0
6.05873e-310
1.39593e-263
9.51756e-220
0
0
0
0
0
0
0
3.24213e-267
0
0
0
0
0
0
2.63352e-288
2.66273e-242
0
0
0
0
0
0
1.41986e-282
1.17033e-237
1
1
1
1
1
1
1
1
1
1
1
1
1
1
1
1
6.62546e-32
1
4.47107e-15
1
0.5
1
5.69596e-65
7.74543e-32
5.14402e-47
4.77439e-15
3.03586e-32
5.4849e-15
9.87968e-101
3.42128e-65
1.51721e-81
3.22698e-47
9.68713e-80
2.66694e-46
3.93475e-139
3.30237e-101
3.68268e-118
7.3415e-82
2.1333e-115
6.60956e-80
1.457e-179
1.12275e-139
1.62652e-157
6.92604e-119
5.06006e-154
4.92903e-116
4.18645e-223
2.61033e-180
5.42932e-199
1.70886e-158
9.50085e-195
2.24608e-155
1
1
2.39693e-15
2.06533e-30
1.42696e-63
1
1
1
1
1
1
1
1
1
1
1
1
1
1
1
1
1
1
1
1
1
1
1
1
1
1
1
1
1
1
1
1
3.31027e-32
7.40303e-15
1
6.64947e-15
0.5
1
6.82734e-15
1
3.80533e-66
1.46256e-46
1.37406e-15
5.50177e-48
1.53297e-15
2.0546e-15
7.6812e-47
1.63737e-15
2.05843e-102
7.14274e-81
3.86635e-48
6.04177e-83
9.61447e-62
2.11568e-30
7.31932e-81
3.33835e-48
5.92643e-141
8.19713e-118
3.63712e-83
2.09475e-120
6.46546e-98
1.60678e-64
9.53843e-118
3.07806e-82
1
1
1
1
1
1
1
1
1
1
1
1
1
1
1
1
1
1
1
1
1
1
1
1
1
1
1
1
1
1
1
1
1
1
1
1
1
1
1
1
1
1
1
1
1
1
1
1
1
1
1
1
1
1
1
1
1
1
1
1
1
1
1
1
1
1
1
1
1
1
1
1
1
1
1
1
1
1
1
1
1
1
1
1
1
1
1
1
1
1
1
1
1
1
1
1
1
1
1
1
1
1
1
1
1
1
1
1
1
1
1
1
1
1
1
1
1
1
1
1
1
1
1
1
1
1
1
1
1
1
1
1
1
1
1
1
1
1
2.86155e-31
1.09627e-15
1
1
2.93747e-31
9.87752e-16
1
1
1.98766e-48
8.7571e-16
1
1
1.66714e-81
1.07804e-32
0.5
1
9.88407e-103
1.65603e-66
2.95852e-32
1
1
1
1
1
1
1
1
1
1
1
1
1
1
1
1
1
1
1
1
1
1
1
1
1
1
1
1
1
1
1
1
1
1
1
1
1
1
1
1
1
1
1
1
1
1
1
1
1
1
1
1
1
1
1
1
1
1
1
1
1
1
1
1
1
1
1
1
1
1
1
1
1
1
1
1
1
1
1
1
1
1
1
1
1
1
1
1
1
1
1
1
1
1
1
1
1
1
1
1
1
1
1
1
1
1
1
1
1
1
1
1
1
1
1
1
1
1
1
1
1
1
1
1
1
1
1
1
1
1
1
1
1
1
1
1
1
1
1
1
1
1
1
1
1
1
1
1
1
1
1
1
1
1
1
1
1
1
1
1
1
1
1
1
1
1
1
1
1
1
1
1
1
1
1
1
1
1
1
1
1
1
1
1
1
1
1
1
1
1
1
1
1
1
1
1
1
1
1
1
1
1
1
1
1
1
1
1
1
1
1
1
1
1
1
1
1
1
1
1
1
1
1
1
1
1
1
1
1
1
1
1
1
1
1
1
1
1
1
1
1
1
1
1
1
1
1
1
1
1
1
1
1
1
1
1
1
1
1
1
1
1
1
1
1
1
1
1
1
1
1
1
1
1
1
1
1
1
1
1
1
1
1
1
1
1
1
1
1
1
1
1
1
1
1
1
1
1
1
1
1
1
1
1
1
1
1
1
1
1
1
1
1
1
1
1
1
1
1
1
1
1
1
1
1
1
1
1
1
1
1
1
1
1
1
1
1
1
1
1
1
1
1
1
1
1
1
1
1
1
1
1
1
1
1
1
1
1
1
1
1
1
1
1
1
1
1
1
1
1
1
1
1
1
1
1
1
1
1
1
1
1
1
1
1
1
1
1
1
1
1
1
1
1
1
1
1
1
1
1
1
1
1
1
1
1
1
1
1
1
1
1
1
1
1
1
1
1
1
1
1
1
1
1
1
1
1
1
1
1
1
1
1
1
1
1
1
1
1
1
1
1
1
1
1
1
1
1
1
1
1
1
1
1
1
1
1
1
1
1
1
1
1
1
1
1
1
1
1
1
1
1
1
1
1
1
1
1
1
1
1
1
1
1
1
1
1
1
1
1
1
1
1
1
1
1
1
1
1
1
1
1
1
1
1
1
1
1
1
1
1
1
1
1
1
1
1
1
1
1
1
1
1
1
1
1
1
1
1
1
1
1
1
1
1
1
1
1
1
1
1
1
1
1
1
1
1
1
1
1
1
1
1
1
1
1
1
1
1
1
1
1
1
1
1
1
1
1
1
1
1
1
1
1
1
1
1
1
1
1
1
1
1
1
1
1
1
1
1
1
1
1
1
1
1
1
1
1
1
1
1
1
1
1
1
1
1
1
1
1
1
1
1
1
1
1
1
1
1
1
1
1
1
1
1
1
1
1
1
1
1
1
1
1
1
1
1
1
1
1
1
1
1
1
1
1
1
1
1
1
1
1
1
1
1
1
1
1
1
1
1
1
1
1
1
1
1
1
1
1
1
1
1
1
1
1
1
1
1
1
1
1
1
1
1
1
1
1
1
1
1
1
1
1
1
1
1
1
1
1
1
1
1
1
1
1
1
1
1
1
1
1
1
1
1
1
1
1
1
1
1
1
1
1
1
1
1
1
1
1
1
1
1
1
1
1
1
1
1
1
1
1
1
1
1
1
1
1
1
1
1
1
1
1
1
1
1
1
1
1
1
1
1
1
1
1
1
1
1
1
1
1
1
1
1
1
1
1
1
1
1
1
1
1
1
1
1
1
1
1
1
1
1
1
1
1
1
1
1
1
1
1
1
1
1
1
1
1
1
1
1
1
1
1
1
1
1
1
1
1
1
1
1
1
1
1
1
1
1
1
1
1
1
1
1
1
1
1
1
1
1
1
1
1
1
1
1
1
1
1
1
1
1
1
1
1
1
1
1
1
1
1
1
1
1
1
1
1
1
1
1
1
1
1
1
1
1
1
1
1
1
1
1
1
1
1
1
1
1
1
1
1
1
1
1
1
1
1
1
1
1
1
1
1
1
1
1
1
1
1
1
1
1
1
1
1
1
1
1
1
)
;

boundaryField
{
    ground
    {
        type            zeroGradient;
    }
    outlet
    {
        type            zeroGradient;
    }
    wall
    {
        type            zeroGradient;
    }
    wall2
    {
        type            zeroGradient;
    }
    wall3
    {
        type            zeroGradient;
    }
    internalPatch
    {
        type            internal;
    }
    procBoundary1to0
    {
        type            processor;
        value           nonuniform List<scalar> 
282
(
8.21212e-31
5.53003e-65
4.63081e-101
6.72387e-101
1.84765e-118
3.61747e-124
1.58518e-161
5.4174e-121
2.02927e-83
7.62719e-34
1
1
1
1
1
1
1
1
1
1
1
1
1
1
1
1
1
1
1
1
1
1
1
1
1
1
1
1
1
1
1
1
1
1
1
1
1
1
1
1
1
1
1
1
1
1
1
1
1
1
1
1
1
1
1
1
1
1
1
1
1
1
1
1
1
1
1
1
1
1
1
1
1
1
1
1
2.64624e-15
3.33475e-15
1.79402e-30
1.5046e-64
2.23693e-81
1.28782e-85
1.34995e-49
8.89138e-16
1
1
1
1
1
1
1
1
1
1
1
1
1
1
1
1
1
1
1
1
1
1
1
1
1
1
1
1
1
1
1
1
1
1
1
1
1
1
1
1
1
1
1
1
1
1
1
1
1
1
1
1
1
1
1
1
1
1
1
1
1
1
1
1
1
1
1
1
1
1
1
1
1
1
1
7.22311e-15
3.07044e-47
1
1
1
1
1
1
1
1
1
1
1
1
1
1
1
1
1
1
1
1
1
1
1
1
1
1
1
1
1
1
1
1
1
1
1
1
1
1
1
1
1
1
1
1
1
1
1
1
1
1
1
1
1
1
1
1
1
1
1
1
1
1
1
1
1
1
1
1
1
1
1
1
1
1
1
1
1
1
1
1
1
1
1
1
1
1
1
1
1
1
1
1
1
1
1
1
1
1
1
1
1
1
1
1
1
1
1
1
1
1
1
)
;
    }
    procBoundary1to2
    {
        type            processor;
        value           nonuniform List<scalar> 
236
(
4.51897e-265
1.43279e-312
1.94579e-246
5.30576e-202
2.55506e-160
1.83589e-220
1.83589e-220
4.51897e-265
1.43279e-312
0
0
6.46164e-295
6.46164e-295
1.94579e-246
5.30576e-202
2.55506e-160
3.29827e-120
3.29827e-120
3.08108e-177
3.08108e-177
2.70371e-247
1.05648e-308
0
0
0
0
0
0
0
0
0
0
0
0
0
1.05383e-308
1.30239e-247
8.44918e-189
8.22674e-163
8.22674e-163
7.6405e-122
5.87709e-84
8.70158e-34
8.70158e-34
0.5
1
1
1
1
1
1
1
1
1
1
1
1
1
1
1
1
0.5
1
1
1
1
0.5
6.33602e-39