/*--------------------------------*- C++ -*----------------------------------*\
  =========                 |
  \\      /  F ield         | OpenFOAM: The Open Source CFD Toolbox
   \\    /   O peration     | Website:  https://openfoam.org
    \\  /    A nd           | Version:  9
     \\/     M anipulation  |
\*---------------------------------------------------------------------------*/
FoamFile
{
    format      ascii;
    class       volVectorField;
    location    "0.003";
    object      U;
}
// * * * * * * * * * * * * * * * * * * * * * * * * * * * * * * * * * * * * * //

dimensions      [0 1 -1 0 0 0 0];

internalField   nonuniform List<vector> 
25574
(
(53.4781 -160.18 2.6147)
(60.9716 -115.709 19.751)
(81.1147 -142.59 61.6679)
(92.2084 -166.977 10.4671)
(-3.20642 -95.4759 -0.924483)
(46.9489 -109.806 -0.305845)
(57.392 -121.384 8.90779)
(91.0027 -140.795 28.4929)
(9.32583 -50.6546 -5.79415)
(47.4304 -80.1241 1.33061)
(91.9464 -140.411 39.2847)
(21.0895 -45.9877 1.49044)
(51.6104 -78.7999 11.8143)
(77.664 -136.494 49.8115)
(109.138 -163.713 68.8664)
(47.5554 -70.4333 30.9678)
(77.2376 -101.926 43.3249)
(-2.90771 -85.9347 -6.78628)
(12.2674 -98.889 -1.35341)
(12.1638 -90.3444 -6.93179)
(15.7732 -117.037 -0.200896)
(15.9146 -108.061 -5.60096)
(30.5952 -111.746 -5.24818)
(30.9937 -119.923 -0.32781)
(2.02755 -66.8752 -5.603)
(20.9081 -59.7899 -5.39213)
(15.9734 -73.5616 -5.96758)
(26.1522 -74.4781 -3.18563)
(20.5563 -90.3712 -3.05125)
(33.762 -96.3631 -1.60772)
(37.5167 -82.4812 -1.11572)
(29.2915 -103.668 -1.37772)
(45.3331 -102.743 -4.53914)
(28.4694 -96.0473 -6.4389)
(46.1042 -116.706 -3.5463)
(63.29 -129.966 3.0356)
(61.8159 -122.576 -0.132934)
(47.1577 -124.415 0.617558)
(108.461 -154.521 83.2515)
(51.362 -76.6197 43.3762)
(82.5101 -108.462 55.6578)
(89.6552 -142.819 99.4963)
(101.398 -152.649 104.455)
(59.7662 -88.9414 86.3388)
(92.1908 -121.241 95.2001)
(34.9772 -138.544 0.715718)
(53.1046 -151.513 -0.537117)
(34.7955 -129.98 -3.97699)
(48.7195 -132.827 -2.29501)
(66.5532 -161.524 4.8327)
(66.2347 -153.264 2.51941)
(49.3792 -140.963 1.61987)
(45.687 -90.6984 -0.29139)
(33.7202 -69.6927 -2.96974)
(30.6528 -81.5938 -4.14037)
(47.4823 -103.795 1.75357)
(62.963 -100.789 9.21702)
(61.9432 -111.799 6.84538)
(49.8141 -91.5111 3.01298)
(33.623 -50.4866 10.2998)
(30.1427 -56.7972 3.33771)
(35.1796 -69.339 5.50916)
(41.7326 -61.1523 12.6951)
(45.769 -73.1557 15.2263)
(44.1397 -78.8784 8.85692)
(53.8126 -82.9325 19.0414)
(55.0016 -137.168 7.55692)
(42.2316 -98.2502 1.41632)
(38.1879 -114.089 1.09638)
(50.7078 -119.209 4.22487)
(67.8538 -126.957 14.9236)
(66.9269 -140.96 12.0373)
(53.2732 -105.164 5.44715)
(40.1737 -67.8477 6.88545)
(60.7358 -83.9645 21.9865)
(50.5816 -72.496 16.7136)
(65.9727 -99.0509 19.8557)
(54.2918 -88.8606 13.6272)
(62.7806 -93.538 24.0665)
(73.4181 -104.497 29.8714)
(63.1433 -136.87 1.08759)
(79.4682 -163.907 7.88194)
(78.3816 -149.017 7.07836)
(94.0264 -159.851 10.3409)
(79.8068 -156.314 6.47692)
(78.0048 -141.656 5.26476)
(64.0723 -144.74 3.83154)
(40.5232 -60.0218 21.5181)
(56.1657 -80.2199 34.5066)
(49.2373 -70.2914 24.0915)
(58.242 -91.9084 36.302)
(52.1201 -82.0747 26.3066)
(60.8152 -91.8446 29.8581)
(67.4588 -101.265 40.0273)
(48.2436 -92.6533 11.5274)
(67.0149 -119.188 30.6787)
(56.7238 -96.0051 22.1103)
(70.5107 -123.227 25.8274)
(57.6473 -100.976 16.2173)
(65.0801 -105.111 26.9756)
(75.9463 -127.936 36.0554)
(63.8407 -125.336 9.2058)
(92.968 -150.634 22.2)
(79.0346 -133.39 21.9073)
(77.4525 -120.818 18.9916)
(79.6222 -145.504 17.252)
(77.7244 -131.862 14.8656)
(65.0389 -112.864 11.5268)
(54.5812 -81.1419 55.4727)
(60.3709 -86.7386 47.0717)
(61.901 -98.2717 48.6542)
(63.8843 -91.6068 59.0523)
(64.9213 -103.158 60.5722)
(71.5412 -107.716 52.4904)
(74.7711 -112.85 64.5512)
(69.1307 -92.8161 32.9935)
(66.1686 -90.8334 38.3634)
(58.6783 -81.3393 28.0174)
(70.3905 -102.441 34.5757)
(88.6717 -122.286 50.5829)
(81.2175 -113.436 40.1877)
(77.7242 -111.55 44.6435)
(80.7975 -131.531 32.7359)
(79.472 -119.59 29.6509)
(68.0598 -110.121 22.3273)
(74.6058 -115.27 32.5129)
(96.8847 -147.012 48.1194)
(85.9462 -137.483 41.9233)
(85.6372 -125.743 38.6482)
(72.2358 -127.642 40.3049)
(68.2867 -113.923 42.3403)
(62.477 -104.668 32.4907)
(71.5834 -113.917 37.0099)
(87.5448 -145.163 55.3012)
(81.7525 -136.556 45.5278)
(77.949 -123.023 46.7574)
(57.0589 -84.6173 69.478)
(69.3661 -99.1381 88.0422)
(66.6332 -95.1613 72.3174)
(69.5763 -110.869 89.9627)
(67.2471 -106.776 73.9986)
(77.3214 -116.744 77.6042)
(79.8141 -120.698 92.813)
(70.8359 -97.3537 51.0285)
(86.3478 -113.571 68.0027)
(74.506 -102.448 63.199)
(93.9903 -128.679 62.4741)
(82.4157 -117.944 56.8484)
(85.8866 -123.026 69.1263)
(97.9858 -133.779 74.5572)
(71.8331 -120.179 54.5813)
(83.9417 -147.719 73.8916)
(74.6684 -125.294 66.6526)
(91.5646 -151.37 66.9131)
(82.024 -129.286 58.8013)
(85.1799 -134.389 71.0219)
(94.8606 -156.525 79.1167)
(81.5369 -124.1 42.4656)
(103.254 -155.898 57.505)
(97.961 -154.396 61.8112)
(99.3485 -142.996 59.1355)
(92.061 -146.257 51.292)
(92.6816 -134.572 48.4793)
(88.2739 -132.846 52.5201)
(6.1642e-05 -0.000196862 4.66029e-06)
(5.16e-06 -1.51169e-05 1.04822e-06)
(1.46593e-06 -4.08566e-06 2.45704e-07)
(2.20226e-07 -4.79485e-07 2.5811e-08)
(2.6435e-08 -4.81649e-08 2.38821e-09)
(2.48931e-09 -3.72015e-09 1.76587e-10)
(1.66666e-10 -2.34364e-10 1.09533e-11)
(1.51087 -4.71269 0.0571331)
(0.00012265 -0.000409169 1.19997e-05)
(2.03005e-05 -5.41873e-05 3.05374e-06)
(5.27135e-06 -9.56953e-06 6.44552e-07)
(6.1868e-07 -1.03949e-06 5.90011e-08)
(5.73056e-08 -8.12671e-08 4.22993e-09)
(3.76288e-09 -5.037e-09 2.52277e-10)
(90.4281 -234.496 4.78027)
(0.269772 -0.69201 0.00731582)
(0.00134336 -0.003451 6.50429e-05)
(7.98089e-05 -0.000168196 5.70724e-06)
(1.28511e-05 -1.8307e-05 1.36853e-06)
(1.16958e-06 -1.44303e-06 9.18437e-08)
(7.62346e-08 -8.86743e-08 5.29695e-09)
(151.84 -387.541 11.6134)
(178.966 -348.497 8.54769)
(38.385 -62.1839 1.05588)
(0.0373351 -0.0656464 0.000747934)
(0.000320531 -0.000393846 1.26448e-05)
(2.29422e-05 -2.39148e-05 1.96449e-06)
(1.32703e-06 -1.31331e-06 9.73625e-08)
(130.08 -300.963 13.7986)
(169.414 -304.818 12.7067)
(230.764 -347.308 10.6683)
(191.925 -246.791 5.35304)
(0.328534 -0.404952 0.0049051)
(0.000631125 -0.000536072 1.99629e-05)
(1.92717e-05 -1.68494e-05 1.59664e-06)
(110.192 -234.571 12.2297)
(149.242 -236.276 12.4445)
(191.89 -256.647 12.7573)
(249.562 -288.972 11.1487)
(259.598 -263.816 6.77144)
(0.449629 -0.38465 0.00554594)
(0.000428928 -0.000300088 1.30355e-05)
(105.108 -170.977 11.4019)
(162.297 -190.418 11.5357)
(216.406 -221.293 12.4354)
(282.752 -253.557 11.0891)
(257.179 -206.219 5.6782)
(0.0943029 -0.0566539 0.00101706)
(117.127 -133.071 7.90188)
(183.931 -165.417 11.1385)
(250.61 -195.603 12.5754)
(339.75 -234.148 10.6569)
(92.2583 -60.1461 1.61604)
(8.4367e-06 -3.01041e-05 6.70543e-06)
(1.76564e-06 -5.08051e-06 1.30464e-06)
(4.73468e-07 -1.28425e-06 3.22564e-07)
(7.62479e-08 -1.81826e-07 4.68927e-08)
(9.88838e-09 -1.83221e-08 4.89089e-09)
(9.47498e-10 -1.41358e-09 3.90973e-10)
(6.42524e-11 -8.99167e-11 2.5728e-11)
(0.000411738 -0.00156528 0.000315798)
(4.24236e-05 -0.000160917 2.38308e-05)
(1.16936e-05 -2.82874e-05 6.23364e-06)
(1.84744e-06 -3.96958e-06 9.9259e-07)
(2.34692e-07 -4.0763e-07 1.07937e-07)
(2.17579e-08 -3.12805e-08 8.61281e-09)
(1.42812e-09 -1.91712e-09 5.50609e-10)
(3.43445 -10.4407 2.42486)
(0.0387103 -0.108513 0.018621)
(0.000659347 -0.00148975 0.0003078)
(2.60796e-05 -5.28003e-05 9.66857e-06)
(4.70299e-06 -6.66705e-06 1.87925e-06)
(4.50385e-07 -5.58704e-07 1.66713e-07)
(2.93414e-08 -3.42849e-08 1.06653e-08)
(149.357 -379.86 101.274)
(153.619 -304.889 79.5872)
(6.45137 -12.2408 2.90141)
(0.00561563 -0.0103119 0.00163796)
(8.60452e-05 -0.000131784 2.55435e-05)
(7.33251e-06 -7.70015e-06 2.45359e-06)
(5.12948e-07 -5.11531e-07 1.76288e-07)
(125.254 -294.724 79.7647)
(170.75 -312.409 86.4677)
(229.822 -345.26 94.602)
(109.52 -139.11 39.6742)
(0.0471783 -0.0587164 0.0124443)
(0.000155319 -0.000156749 3.56048e-05)
(6.63041e-06 -5.86811e-06 2.12718e-06)
(101.155 -208.584 56.9748)
(143.197 -234.506 65.6964)
(192.874 -260.788 78.1192)
(260.041 -302.711 89.0967)
(193.626 -196.884 59.598)
(0.0656855 -0.0559727 0.0148428)
(0.000104759 -7.48364e-05 2.16114e-05)
(103.931 -149.834 44.4843)
(158.317 -189.552 58.144)
(219.095 -224.452 74.7831)
(295.574 -264.459 88.1201)
(158.375 -129.028 44.9448)
(0.0143865 -0.00851515 0.00233373)
(99.5252 -93.6979 48.8803)
(183.088 -162.775 57.2528)
(254.628 -197.61 76.7289)
(342.816 -237.198 92.9822)
(20.9154 -11.9953 5.1145)
(1.42246e-06 -4.72201e-06 1.44821e-06)
(5.2368e-07 -1.80689e-06 4.60192e-07)
(9.86569e-08 -2.66816e-07 7.21271e-08)
(1.62404e-08 -3.63327e-08 9.70131e-09)
(1.98381e-09 -3.58051e-09 9.61851e-10)
(1.85277e-10 -2.72369e-10 7.51858e-11)
(1.23486e-11 -1.72085e-11 4.92233e-12)
(3.20213e-05 -0.000147568 3.3386e-05)
(8.17455e-06 -2.6694e-05 7.33053e-06)
(2.34955e-06 -5.43284e-06 1.64644e-06)
(3.80609e-07 -7.99004e-07 2.28959e-07)
(4.61136e-08 -8.07182e-08 2.23452e-08)
(4.20087e-09 -5.9621e-09 1.67723e-09)
(2.73834e-10 -3.6575e-10 1.0532e-10)
(0.00577559 -0.0231276 0.00918671)
(0.000563811 -0.00183285 0.000523429)
(5.72289e-05 -0.000158028 3.87043e-05)
(8.98433e-06 -1.54584e-05 5.28949e-06)
(1.08821e-06 -1.78002e-06 5.29325e-07)
(8.8909e-08 -1.12273e-07 3.50979e-08)
(5.55278e-09 -6.48241e-09 2.08093e-09)
(114.741 -303.082 140.291)
(18.5096 -38.0562 16.8613)
(0.052334 -0.117363 0.037976)
(0.000368346 -0.000575403 0.000213348)
(1.95532e-05 -2.53536e-05 9.30888e-06)
(2.0498e-06 -2.22256e-06 7.62957e-07)
(1.03485e-07 -1.01515e-07 3.7516e-08)
(127.84 -309.437 154.34)
(183.528 -345.73 170.547)
(182.607 -279.611 134.983)
(1.65792 -2.49583 0.99778)
(0.00100644 -0.00118755 0.00046671)
(2.89327e-05 -2.67525e-05 1.13631e-05)
(1.90391e-06 -1.41533e-06 6.33205e-07)
(109.288 -230.984 108.947)
(143.042 -214.505 148.661)
(202.215 -277.925 150.643)
(254.039 -296.084 159.315)
(7.05414 -7.27052 3.50167)
(0.00126302 -0.00101161 0.000481748)
(2.02238e-05 -1.45114e-05 7.76821e-06)
(120.606 -164.74 91.5432)
(176.585 -212.01 121.909)
(231.098 -237.045 145.054)
(291.786 -261.783 159.69)
(3.44325 -2.43911 1.41753)
(0.000551137 -0.000335471 0.000200417)
(119.738 -110.698 99.9587)
(180.906 -142.959 95.7512)
(270.078 -207.344 148.489)
(292.187 -199.839 141.828)
(0.222175 -0.106614 0.0771708)
(2.32734e-07 -7.82666e-07 2.98937e-07)
(6.65518e-08 -2.11787e-07 7.51101e-08)
(1.34709e-08 -3.73768e-08 1.32733e-08)
(2.16518e-09 -4.8852e-09 1.71625e-09)
(2.60411e-10 -4.70048e-10 1.66362e-10)
(2.40881e-11 -3.52497e-11 1.27775e-11)
(1.59223e-12 -2.21573e-12 7.97819e-13)
(5.23306e-06 -1.69854e-05 7.68059e-06)
(1.5679e-06 -4.4711e-06 1.90231e-06)
(3.22254e-07 -8.25633e-07 3.1851e-07)
(5.15138e-08 -1.14382e-07 4.1091e-08)
(6.06425e-09 -1.0767e-08 3.86224e-09)
(5.47458e-10 -7.78527e-10 2.86315e-10)
(3.53565e-11 -4.73307e-11 1.78468e-11)
(0.000178367 -0.00059844 0.00031073)
(2.40831e-05 -7.39831e-05 3.23886e-05)
(7.5229e-06 -1.5726e-05 7.77422e-06)
(1.30001e-06 -2.72838e-06 1.05954e-06)
(1.38029e-07 -2.255e-07 8.744e-08)
(1.16627e-08 -1.48339e-08 5.96494e-09)
(7.22551e-10 -8.49043e-10 3.5306e-10)
(0.0928181 -0.296901 0.181567)
(0.0101561 -0.0286089 0.0147801)
(0.000307236 -0.000570959 0.000327107)
(2.23288e-05 -3.68488e-05 1.8837e-05)
(3.49463e-06 -4.67718e-06 2.2284e-06)
(2.44971e-07 -2.68425e-07 1.20989e-07)
(1.36553e-08 -1.35514e-08 6.3678e-09)
(130.587 -326.542 240.702)
(106.14 -199.686 143.598)
(1.18053 -2.20843 1.34776)
(0.00156979 -0.00240129 0.00137916)
(4.3255e-05 -5.16731e-05 2.95714e-05)
(4.90764e-06 -4.38886e-06 2.53819e-06)
(2.39271e-07 -1.86626e-07 1.0467e-07)
(98.1881 -185.157 133.006)
(145.319 -219.914 169.738)
(208.482 -289.206 229.542)
(17.4133 -21.1786 15.7382)
(0.00433528 -0.00448751 0.00301882)
(5.05609e-05 -3.89635e-05 2.79505e-05)
(3.35658e-06 -1.98085e-06 1.46276e-06)
(92.0201 -148.026 118.082)
(111.753 -142.847 137.977)
(167.584 -180.315 155.72)
(253.883 -260.79 235.161)
(25.1546 -22.0159 19.2402)
(0.00262018 -0.00176646 0.00150852)
(2.54034e-05 -1.47063e-05 1.38499e-05)
(97.3629 -97.1541 127.367)
(143.56 -130.216 167.92)
(199.114 -155.173 159.737)
(286.436 -218.277 231.401)
(3.89039 -2.25236 2.44784)
(0.000535058 -0.000257017 0.000284987)
(158.768 -103.456 123.417)
(251.16 -133.95 186.212)
(0.0336881 -0.0121891 0.0252517)
(0.000245904 -0.000103371 0.00017056)
(2.82084e-08 -8.94662e-08 3.84492e-08)
(7.17178e-09 -2.18835e-08 9.30948e-09)
(1.44129e-09 -3.832e-09 1.64215e-09)
(2.27168e-10 -4.90499e-10 2.10867e-10)
(2.69814e-11 -4.67618e-11 2.03664e-11)
(2.45902e-12 -3.54332e-12 1.54498e-12)
(1.58388e-13 -2.21187e-13 8.24423e-14)
(6.01977e-07 -1.9198e-06 8.90581e-07)
(1.59816e-07 -4.53828e-07 2.15582e-07)
(3.19973e-08 -8.17331e-08 3.78624e-08)
(5.05122e-09 -1.07636e-08 4.87062e-09)
(5.97446e-10 -1.01877e-09 4.62585e-10)
(5.42267e-11 -7.56468e-11 3.45212e-11)
(3.54595e-12 -4.69767e-12 2.15031e-12)
(1.09057e-05 -3.06267e-05 1.88734e-05)
(3.01385e-06 -7.09449e-06 4.24071e-06)
(6.4865e-07 -1.44338e-06 8.0483e-07)
(1.05345e-07 -2.08479e-07 1.0849e-07)
(1.22916e-08 -1.9103e-08 9.88049e-09)
(1.08815e-09 -1.36101e-09 7.0274e-10)
(6.96722e-11 -8.2277e-11 4.24096e-11)
(0.000380576 -0.00102542 0.000756784)
(5.05319e-05 -0.000135589 8.7841e-05)
(1.31093e-05 -2.40464e-05 1.76073e-05)
(2.26781e-06 -3.99573e-06 2.63992e-06)
(2.45869e-07 -3.38524e-07 2.09611e-07)
(2.02111e-08 -2.19342e-08 1.331e-08)
(1.24086e-09 -1.2556e-09 7.51058e-10)
(0.104364 -0.281515 0.249024)
(0.0195372 -0.0442492 0.0391695)
(0.000482416 -0.000774491 0.000705003)
(2.66127e-05 -3.90458e-05 3.10232e-05)
(4.74613e-06 -5.20266e-06 4.21931e-06)
(3.4926e-07 -3.0863e-07 2.37116e-07)
(1.95136e-08 -1.6078e-08 1.1739e-08)
(116.877 -264.751 224.443)
(81.9091 -142.569 130.129)
(0.914583 -1.39891 1.47566)
(0.001503 -0.00191926 0.00195354)
(4.63217e-05 -4.35656e-05 4.37236e-05)
(4.84755e-06 -3.46757e-06 3.50285e-06)
(2.53859e-07 -1.6042e-07 1.52388e-07)
(101.051 -195.094 176.952)
(125.085 -166.237 170.431)
(174.939 -215.948 221.574)
(4.67399 -4.85668 5.99431)
(0.00207401 -0.00171855 0.00214709)
(3.34074e-05 -2.10462e-05 2.56516e-05)
(2.33912e-06 -1.22187e-06 1.37814e-06)
(94.2775 -110.7 149.278)
(130.384 -130.196 155.476)
(150.06 -135.882 167.065)
(213.148 -185.784 223.616)
(2.14186 -1.48788 2.30253)
(0.000774578 -0.000418617 0.000617963)
(1.1477e-05 -6.02117e-06 7.92622e-06)
(189.727 -116.086 175.139)
(0.0336523 -0.0147091 0.0243237)
(0.000484798 -0.000201923 0.000311832)
(2.80475e-05 -1.21464e-05 2.05425e-05)
(3.13114e-09 -9.8701e-09 4.35869e-09)
(7.38338e-10 -2.21659e-09 1.00233e-09)
(1.43372e-10 -3.62484e-10 1.70365e-10)
(2.14638e-11 -4.38545e-11 2.1351e-11)
(2.42425e-12 -4.07154e-12 2.02007e-12)
(1.96514e-13 -2.99453e-13 1.3743e-13)
(5.87769e-15 -1.191e-14 3.71222e-15)
(6.52981e-08 -2.03026e-07 9.20312e-08)
(1.6103e-08 -4.71793e-08 2.18625e-08)
(3.09681e-09 -7.74763e-09 3.73902e-09)
(4.63273e-10 -9.3879e-10 4.70334e-10)
(5.26663e-11 -8.62841e-11 4.44389e-11)
(4.68319e-12 -6.40975e-12 3.34781e-12)
(3.00071e-13 -3.7636e-13 1.91644e-13)
(1.26471e-06 -3.62821e-06 1.90049e-06)
(3.26294e-07 -8.50122e-07 4.34656e-07)
(6.25103e-08 -1.39912e-07 7.48647e-08)
(9.26538e-09 -1.71608e-08 9.57577e-09)
(1.04146e-09 -1.54893e-09 8.90947e-10)
(9.13413e-11 -1.12502e-10 6.56313e-11)
(5.89362e-12 -6.95393e-12 4.06813e-12)
(2.38373e-05 -6.11964e-05 3.76363e-05)
(5.73432e-06 -1.28549e-05 7.29921e-06)
(1.15491e-06 -2.20779e-06 1.34971e-06)
(1.72097e-07 -2.84134e-07 1.84594e-07)
(1.89933e-08 -2.49721e-08 1.65324e-08)
(1.6174e-09 -1.74598e-09 1.16448e-09)
(1.01993e-10 -1.04894e-10 7.00745e-11)
(9.69871e-05 -0.00028848 0.000175391)
(8.25135e-05 -0.000180057 0.000118021)
(1.90777e-05 -2.97606e-05 2.13562e-05)
(2.95909e-06 -4.14292e-06 3.3074e-06)
(3.13828e-07 -3.47247e-07 2.82868e-07)
(2.54761e-08 -2.31e-08 1.83167e-08)
(1.55281e-09 -1.33614e-09 1.04543e-09)
(0.199963 -0.44897 0.313906)
(0.0142017 -0.0284752 0.0220388)
(0.000510923 -0.000723074 0.000609001)
(3.85125e-05 -4.28621e-05 3.70703e-05)
(4.30968e-06 -3.77487e-06 3.76144e-06)
(3.34696e-07 -2.42943e-07 2.39861e-07)
(1.97092e-08 -1.35939e-08 1.28454e-08)
(117.802 -225.367 181.728)
(60.526 -87.9201 70.0739)
(0.232899 -0.306907 0.292121)
(0.000970586 -0.000941174 0.000946782)
(4.02749e-05 -3.02438e-05 3.12796e-05)
(3.1936e-06 -1.9393e-06 2.259e-06)
(1.88483e-07 -1.05893e-07 1.1669e-07)
(103.538 -129.78 144.75)
(127.994 -142.172 156.286)
(191.79 -174.809 189.602)
(0.386912 -0.32938 0.386032)
(0.000744947 -0.00049965 0.000591682)
(2.01455e-05 -1.10422e-05 1.28423e-05)
(1.29912e-06 -6.26838e-07 7.74538e-07)
(188.303 -162.514 187.642)
(216.291 -134.465 181.393)
(0.000706763 -0.000361705 0.000515413)
(6.26293e-05 -2.41487e-05 4.05156e-05)
(8.07553e-06 -3.1994e-06 4.70721e-06)
(2.76104e-10 -8.46598e-10 4.49922e-10)
(6.2376e-11 -1.8087e-10 9.82386e-11)
(1.17525e-11 -2.82086e-11 1.57697e-11)
(1.65933e-12 -3.29522e-12 1.86145e-12)
(1.59814e-13 -2.95431e-13 1.54985e-13)
(6.50977e-15 -1.50036e-14 6.18704e-15)
(0 0 0)
(5.68819e-09 -1.7366e-08 9.42779e-09)
(1.30781e-09 -3.77226e-09 2.09034e-09)
(2.4585e-10 -5.90096e-10 3.37548e-10)
(3.54762e-11 -6.87355e-11 4.04977e-11)
(3.90473e-12 -6.22289e-12 3.72707e-12)
(3.13838e-13 -4.34709e-13 2.5916e-13)
(1.40755e-14 -1.90623e-14 1.02086e-14)
(1.08338e-07 -3.0385e-07 1.82307e-07)
(2.57127e-08 -6.80247e-08 4.15969e-08)
(4.79419e-09 -1.05666e-08 6.66953e-09)
(6.8602e-10 -1.2189e-09 7.96697e-10)
(7.52734e-11 -1.0879e-10 7.26835e-11)
(6.56337e-12 -7.99771e-12 5.38528e-12)
(4.23348e-13 -4.75249e-13 3.18168e-13)
(1.94595e-06 -5.18019e-06 3.43197e-06)
(4.7443e-07 -1.11124e-06 7.61711e-07)
(8.75817e-08 -1.70603e-07 1.20431e-07)
(1.22871e-08 -1.95006e-08 1.44139e-08)
(1.32128e-09 -1.69495e-09 1.28604e-09)
(1.13e-10 -1.21604e-10 9.30132e-11)
(7.24162e-12 -7.51128e-12 5.73902e-12)
(3.04695e-05 -7.17412e-05 5.83059e-05)
(7.84849e-06 -1.48675e-05 1.20659e-05)
(1.44477e-06 -2.35894e-06 1.90178e-06)
(1.9881e-07 -2.70243e-07 2.33357e-07)
(2.08141e-08 -2.28546e-08 2.02727e-08)
(1.72262e-09 -1.58368e-09 1.41122e-09)
(1.07868e-10 -9.56534e-11 8.47074e-11)
(9.30561e-05 -0.000202133 0.000221153)
(0.000100339 -0.000180739 0.000159691)
(1.96547e-05 -2.60186e-05 2.46705e-05)
(2.75527e-06 -3.06979e-06 3.14478e-06)
(2.78996e-07 -2.5075e-07 2.67011e-07)
(2.23655e-08 -1.68242e-08 1.79703e-08)
(1.36369e-09 -9.8995e-10 1.04428e-09)
(0.117002 -0.211767 0.242086)
(0.0114429 -0.0183882 0.0190286)
(0.000402381 -0.000507039 0.000586549)
(2.8474e-05 -2.55362e-05 3.00388e-05)
(2.87878e-06 -2.08927e-06 2.56795e-06)
(2.27983e-07 -1.38057e-07 1.75189e-07)
(1.36938e-08 -7.96346e-09 1.00647e-08)
(100.596 -165.55 198.49)
(19.214 -23.2596 27.4947)
(0.0604771 -0.0644848 0.0827016)
(0.000497242 -0.000387532 0.000564389)
(2.00367e-05 -1.2902e-05 1.75797e-05)
(1.69742e-06 -8.57085e-07 1.25606e-06)
(1.0264e-07 -4.8169e-08 7.29501e-08)
(149.603 -108.553 186.959)
(1.60831 -1.05375 1.80329)
(4.95705e-05 -1.9773e-05 4.3154e-05)
(1.00567e-05 -4.33581e-06 7.71029e-06)
(5.74451e-07 -2.34028e-07 4.0393e-07)
(1.94757e-11 -5.75455e-11 3.73226e-11)
(4.26773e-12 -1.20667e-11 7.87494e-12)
(7.56627e-13 -1.82471e-12 1.18598e-12)
(8.88944e-14 -2.00151e-13 1.20338e-13)
(3.3607e-15 -1.12913e-14 5.72301e-15)
(9.53606e-17 0 0)
(0 0 0)
(3.89628e-10 -1.15195e-09 7.68499e-10)
(8.71412e-11 -2.43166e-10 1.63533e-10)
(1.61537e-11 -3.72028e-11 2.53703e-11)
(2.25381e-12 -4.24806e-12 2.93111e-12)
(2.185e-13 -3.62401e-13 2.46321e-13)
(1.18169e-14 -1.70658e-14 1.12913e-14)
(0 0 0)
(7.14552e-09 -1.93353e-08 1.44804e-08)
(1.62264e-09 -4.16052e-09 3.13212e-09)
(3.01125e-10 -6.39754e-10 4.86399e-10)
(4.26608e-11 -7.33074e-11 5.64004e-11)
(4.64023e-12 -6.58636e-12 5.09565e-12)
(3.80022e-13 -4.59578e-13 3.5908e-13)
(1.74784e-14 -1.93706e-14 1.6241e-14)
(1.1885e-07 -2.87979e-07 2.49582e-07)
(2.79754e-08 -6.42053e-08 5.56211e-08)
(5.17157e-09 -9.89467e-09 8.58204e-09)
(7.28274e-10 -1.12381e-09 9.84576e-10)
(7.88088e-11 -9.95969e-11 8.76437e-11)
(6.82615e-12 -7.33903e-12 6.43669e-12)
(4.37269e-13 -4.3722e-13 3.79652e-13)
(1.75456e-06 -3.72694e-06 4.02421e-06)
(4.35095e-07 -8.51189e-07 8.80049e-07)
(8.02932e-08 -1.32631e-07 1.35234e-07)
(1.11599e-08 -1.49613e-08 1.53771e-08)
(1.1863e-09 -1.2964e-09 1.33397e-09)
(1.01102e-10 -9.38554e-11 9.574e-11)
(6.51263e-12 -5.88123e-12 5.92316e-12)
(2.00176e-05 -3.79478e-05 4.5548e-05)
(5.51221e-06 -8.98192e-06 1.07222e-05)
(1.05589e-06 -1.4242e-06 1.76954e-06)
(1.46596e-07 -1.6313e-07 2.0336e-07)
(1.53276e-08 -1.38846e-08 1.73056e-08)
(1.2746e-09 -9.83426e-10 1.20538e-09)
(8.07535e-11 -6.10496e-11 7.31237e-11)
(3.10374e-05 -6.30049e-05 0.000101089)
(4.61009e-05 -6.76331e-05 9.57844e-05)
(1.02419e-05 -1.10672e-05 1.61046e-05)
(1.48998e-06 -1.32899e-06 2.06505e-06)
(1.57592e-07 -1.14347e-07 1.76606e-07)
(1.29221e-08 -8.01173e-09 1.21031e-08)
(8.09153e-10 -4.94006e-10 7.21665e-10)
(0.00499498 -0.00908362 0.0153475)
(0.00140066 -0.00177702 0.00290799)
(8.47304e-05 -8.25824e-05 0.000142877)
(1.01646e-05 -7.66852e-06 1.32206e-05)
(1.15038e-06 -6.98491e-07 1.30574e-06)
(9.69102e-08 -4.86723e-08 9.08008e-08)
(6.10462e-09 -3.00801e-09 5.39551e-09)
(0.0540918 -0.0416502 0.0950599)
(2.55802e-05 -1.33092e-05 3.36402e-05)
(6.32804e-06 -3.29269e-06 7.35178e-06)
(5.24716e-07 -2.33397e-07 5.01554e-07)
(3.28245e-08 -1.44408e-08 2.90553e-08)
(1.11073e-12 -3.30787e-12 2.4987e-12)
(2.1816e-13 -6.74542e-13 4.90245e-13)
(2.92039e-14 -9.15682e-14 6.35718e-14)
(1.26262e-15 -4.64028e-15 2.86151e-15)
(4.0881e-17 0 0)
(8.09858e-19 0 0)
(0 0 0)
(2.2588e-11 -6.44425e-11 5.07695e-11)
(4.94966e-12 -1.34712e-11 1.06038e-11)
(8.77833e-13 -1.99783e-12 1.57638e-12)
(1.01106e-13 -2.05477e-13 1.62874e-13)
(4.40411e-15 -1.07735e-14 9.43523e-15)
(9.81951e-17 0 0)
(0 0 0)
(3.97196e-10 -1.04077e-09 9.25535e-10)
(8.8966e-11 -2.20836e-10 1.95318e-10)
(1.64782e-11 -3.3832e-11 2.98614e-11)
(2.2901e-12 -3.86009e-12 3.40566e-12)
(2.24019e-13 -3.27509e-13 2.88161e-13)
(1.20946e-14 -1.47612e-14 1.50809e-14)
(0 0 0)
(6.28722e-09 -1.46725e-08 1.51754e-08)
(1.44017e-09 -3.19694e-09 3.27235e-09)
(2.68461e-10 -4.98007e-10 5.04294e-10)
(3.81066e-11 -5.74526e-11 5.78029e-11)
(4.14547e-12 -5.1857e-12 5.19317e-12)
(3.34567e-13 -3.61187e-13 3.62096e-13)
(1.45395e-14 -1.38403e-14 1.56996e-14)
(8.56601e-08 -1.70821e-07 2.14745e-07)
(2.06257e-08 -3.92749e-08 4.85938e-08)
(3.87335e-09 -6.29083e-09 7.57635e-09)
(5.52937e-10 -7.29565e-10 8.6407e-10)
(6.0338e-11 -6.58019e-11 7.67472e-11)
(5.2632e-12 -4.93193e-12 5.66934e-12)
(3.41215e-13 -2.87929e-13 3.35802e-13)
(9.06431e-07 -1.54212e-06 2.35087e-06)
(2.47418e-07 -3.85078e-07 5.96086e-07)
(4.72175e-08 -6.39043e-08 9.61876e-08)
(6.83086e-09 -7.5759e-09 1.10288e-08)
(7.45207e-10 -6.82284e-10 9.64479e-10)
(6.4896e-11 -5.1145e-11 7.02264e-11)
(4.25514e-12 -3.28725e-12 4.40486e-12)
(6.41061e-06 -1.01861e-05 1.66591e-05)
(2.24851e-06 -2.76703e-06 5.63874e-06)
(4.42409e-07 -4.81349e-07 9.22266e-07)
(6.62843e-08 -5.93589e-08 1.10998e-07)
(7.37151e-09 -5.45753e-09 9.71961e-09)
(6.42366e-10 -4.12181e-10 7.00342e-10)
(4.21478e-11 -2.69776e-11 4.39372e-11)
(1.50325e-05 -2.47738e-05 5.01628e-05)
(1.21491e-05 -1.29599e-05 2.66275e-05)
(2.73964e-06 -2.5313e-06 5.83746e-06)
(4.52919e-07 -3.37065e-07 7.71888e-07)
(5.27953e-08 -3.22042e-08 7.18256e-08)
(4.75649e-09 -2.48693e-09 5.25622e-09)
(3.17627e-10 -1.65554e-10 3.32151e-10)
(1.17886e-05 -9.07768e-06 2.13796e-05)
(2.12094e-06 -1.46689e-06 3.89428e-06)
(2.64327e-07 -1.48923e-07 3.7682e-07)
(2.47897e-08 -1.1832e-08 2.79449e-08)
(1.70866e-09 -7.98756e-10 1.80359e-09)
(3.55755e-14 -1.56841e-13 1.25906e-13)
(4.27658e-15 -2.42841e-14 1.88705e-14)
(2.98366e-16 0 5.41366e-16)
(1.22068e-17 0 0)
(2.88153e-19 0 0)
(4.02527e-21 0 0)
(0 0 0)
(1.09325e-12 -3.12734e-12 2.61853e-12)
(2.11938e-13 -6.2056e-13 5.334e-13)
(2.80595e-14 -7.99675e-14 7.24657e-14)
(1.11631e-15 -2.78417e-15 3.55755e-15)
(3.08388e-17 0 0)
(4.79227e-19 0 0)
(0 0 0)
(1.94703e-11 -4.9443e-11 4.64232e-11)
(4.31269e-12 -1.04679e-11 9.73639e-12)
(7.67882e-13 -1.55882e-12 1.46911e-12)
(8.95768e-14 -1.58388e-13 1.59471e-13)
(3.62698e-15 -6.49639e-15 9.3579e-15)
(5.96153e-17 0 0)
(0 0 0)
(2.96172e-10 -6.71508e-10 7.36962e-10)
(6.71653e-11 -1.45525e-10 1.56856e-10)
(1.25811e-11 -2.26995e-11 2.40936e-11)
(1.75684e-12 -2.6182e-12 2.76947e-12)
(1.67807e-13 -2.16082e-13 2.45857e-13)
(7.41373e-15 -8.04315e-15 1.23741e-14)
(0 0 0)
(3.86163e-09 -7.54829e-09 1.00407e-08)
(9.05355e-10 -1.69736e-09 2.21134e-09)
(1.72741e-10 -2.73974e-10 3.46746e-10)
(2.50156e-11 -3.25618e-11 4.00863e-11)
(2.74891e-12 -2.99716e-12 3.63558e-12)
(2.17239e-13 -2.02935e-13 2.69059e-13)
(7.42445e-15 -4.79496e-15 1.09047e-14)
(4.02217e-08 -6.64827e-08 1.08347e-07)
(1.01183e-08 -1.56352e-08 2.57533e-08)
(1.98251e-09 -2.65458e-09 4.20741e-09)
(2.94558e-10 -3.25758e-10 4.9277e-10)
(3.32154e-11 -3.0755e-11 4.46075e-11)
(2.95908e-12 -2.37165e-12 3.36188e-12)
(1.91025e-13 -1.33021e-13 2.08503e-13)
(3.06138e-07 -4.57298e-07 8.52605e-07)
(8.68526e-08 -1.07473e-07 2.28894e-07)
(1.76314e-08 -1.92145e-08 3.93873e-08)
(2.74014e-09 -2.48562e-09 4.81675e-09)
(3.18655e-10 -2.42361e-10 4.40485e-10)
(2.91606e-11 -1.92964e-11 3.32465e-11)
(1.97428e-12 -1.26757e-12 2.16484e-12)
(1.916e-06 -2.35859e-06 5.73008e-06)
(5.27413e-07 -5.54125e-07 1.26932e-06)
(1.11254e-07 -1.01712e-07 2.54908e-07)
(1.83507e-08 -1.39006e-08 3.35512e-08)
(2.26123e-09 -1.42382e-09 3.23214e-09)
(2.15192e-10 -1.16914e-10 2.4981e-10)
(1.49678e-11 -8.06713e-12 1.6549e-11)
(5.11928e-07 -4.06559e-07 1.02415e-06)
(8.48209e-08 -6.11062e-08 1.60048e-07)
(1.12314e-08 -6.58295e-09 1.65635e-08)
(1.13033e-09 -5.55783e-10 1.33642e-09)
(8.2167e-11 -3.84589e-11 9.20383e-11)
(148.577 -183.551 11.0557)
(64.2608 -117.071 2.19001)
(111.589 -140.501 9.81462)
(103.471 -149.415 33.7769)
(144.339 -179.403 42.3182)
(61.7998 -90.6691 7.6173)
(107.042 -122.759 29.716)
(167.463 -156.531 10.2434)
(80.2642 -78.2366 -1.82672)
(143.441 -113.553 9.61995)
(110.075 -117.245 29.5486)
(164.172 -152.303 40.5193)
(70.1732 -69.3989 7.69918)
(128.994 -108.834 30.2495)
(139.511 -233.561 12.3864)
(70.4263 -180.993 6.26517)
(105.287 -184.556 11.325)
(103.51 -210.78 45.8918)
(133.867 -228.747 49.423)
(71.0414 -143.245 19.6387)
(103.501 -161.872 35.9712)
(85.328 -82.5789 0.884766)
(97.0448 -99.8819 3.74652)
(105.171 -94.0672 4.56823)
(91.9931 -95.1066 2.36253)
(99.5936 -90.9471 3.00137)
(110.1 -106.866 7.33364)
(115.958 -109.485 6.25298)
(143.984 -179.726 54.5521)
(64.622 -89.7563 18.2507)
(108.497 -123.757 40.2668)
(120.944 -172.807 76.2721)
(158.397 -198.107 98.2321)
(89.1857 -113.192 49.4673)
(130.782 -146.62 71.4892)
(80.8351 -77.2607 27.0302)
(111.907 -118.273 39.8986)
(164.862 -152.546 52.7686)
(131.067 -109.517 40.7613)
(135.134 -140.601 71.1985)
(183.319 -168.962 95.9016)
(136.673 -117.731 63.8318)
(62.1784 -110.222 -1.06308)
(80.6671 -124.743 5.60019)
(78.9815 -118.051 3.54515)
(78.7241 -136.092 6.3617)
(77.6474 -129.048 4.35492)
(93.9536 -135.839 8.5842)
(93.4596 -142.42 9.47049)
(74.238 -73.2873 3.63068)
(83.2474 -84.8071 15.7192)
(89.2642 -83.2137 15.9779)
(86.7247 -89.7827 10.6185)
(93.8586 -86.9692 10.7946)
(105.452 -102.288 17.3697)
(101.742 -97.8536 23.665)
(61.2859 -100.349 5.06074)
(76.5873 -100.904 15.4912)
(77.3688 -109.744 11.536)
(76.5844 -110.024 16.9089)
(76.9739 -119.967 13.0119)
(92.5298 -127.907 18.7551)
(90.6706 -119.456 24.507)
(131.921 -227.667 62.813)
(72.8489 -138.615 30.4154)
(96.2534 -159.535 51.6284)
(106.638 -224.935 94.4316)
(138.583 -242.445 110.794)
(96.2622 -167.363 65.3972)
(117.852 -184.181 79.3978)
(75.9808 -78.8798 105.381)
(115.034 -114.581 163.339)
(101.648 -106.23 162.455)
(97.1238 -117.802 111.338)
(125.786 -140.99 122.869)
(105.813 -127.465 164.966)
(153.086 -166.475 180.185)
(79.1849 -126.763 165.955)
(90.9464 -123.582 163.077)
(57.3154 -76.1071 156.818)
(93.5721 -153.587 146.519)
(128.56 -173.784 161.47)
(77.3252 -111.472 128.94)
(97.2152 -121.928 137.057)
(70.5727 -172.287 4.65983)
(81.8782 -180.881 8.93018)
(82.9964 -172.841 8.11967)
(85.2279 -200.378 10.2742)
(86.9597 -191.48 10.6482)
(98.5682 -190.631 13.9729)
(95.6 -199.38 11.237)
(103.608 -157.513 122.622)
(72.7577 -104.995 107.242)
(95.3181 -125.917 112.578)
(97.3524 -186.197 178.746)
(133.272 -211.579 196.624)
(80.3845 -132.498 170.483)
(98.8482 -145.239 168.796)
(202.136 -213.994 12.4342)
(127.875 -147.723 9.06474)
(176.866 -170.179 11.006)
(158.881 -189.531 45.1095)
(204.429 -217.157 55.7152)
(123.29 -134.453 34.1243)
(175.105 -167.999 43.9311)
(107.56 -116.648 6.10548)
(117.258 -125.889 11.7762)
(104.176 -111.003 7.15276)
(121.32 -121.571 12.0678)
(134.414 -139.959 8.17215)
(133.831 -136.242 15.3692)
(125.453 -125.11 6.77323)
(96.2148 -132.492 8.70481)
(113.426 -133.541 11.666)
(96.0577 -126.061 7.84847)
(110.646 -142.466 12.1459)
(123.3 -155.902 10.1385)
(127.181 -149.194 15.7496)
(108.066 -149.201 10.8382)
(70.962 -158.662 15.8298)
(81.1966 -147.935 25.8228)
(82.4766 -160.955 20.3111)
(83.4022 -164.682 30.8795)
(85.6801 -178.397 24.4874)
(96.4404 -180.211 27.958)
(93.3231 -169.662 35.3041)
(72.5264 -70.6238 17.8707)
(85.7407 -86.0657 25.4226)
(91.6714 -84.3695 25.8435)
(93.8203 -92.4998 33.8368)
(99.7465 -90.6291 34.3159)
(104.168 -99.0475 33.468)
(112.06 -105.414 41.4845)
(234.211 -188.786 12.5986)
(160.987 -124.13 9.76446)
(212.203 -154.211 11.6386)
(182.852 -162.933 44.1984)
(238.304 -191.156 57.0321)
(153.129 -124.732 26.9364)
(213.091 -151.079 47.0862)
(124.601 -103.927 7.94108)
(136.92 -116.25 12.1027)
(118.54 -103.538 7.81628)
(127.691 -118.956 12.0152)
(151.445 -127.813 8.994)
(146.297 -130.417 15.6477)
(134.582 -117.989 7.95659)
(72.5608 -95.4864 28.1862)
(78.6859 -100.9 25.9286)
(78.7507 -109.345 27.4238)
(85.9296 -107.28 34.8459)
(85.5626 -115.643 36.3352)
(92.1892 -119.793 35.0524)
(98.7209 -126.66 43.3305)
(180.287 -250.926 12.8374)
(118.191 -187.026 11.0082)
(158.893 -199.401 11.7564)
(145.021 -235.636 51.6862)
(181.608 -255.934 59.7227)
(119.442 -176.239 30.7508)
(154.99 -198.967 46.228)
(92.1828 -153.819 10.0292)
(108.734 -163.678 13.8846)
(93.2972 -147.028 9.40122)
(109.119 -152.379 12.9573)
(118.8 -175.205 10.8391)