/*--------------------------------*- C++ -*----------------------------------*\
  =========                 |
  \\      /  F ield         | OpenFOAM: The Open Source CFD Toolbox
   \\    /   O peration     | Website:  https://openfoam.org
    \\  /    A nd           | Version:  9
     \\/     M anipulation  |
\*---------------------------------------------------------------------------*/
FoamFile
{
    format      ascii;
    class       volScalarField;
    location    "0.00235";
    object      overpressureMax;
}
// * * * * * * * * * * * * * * * * * * * * * * * * * * * * * * * * * * * * * //

dimensions      [1 -1 -2 0 0 0 0];

internalField   nonuniform List<scalar> 
20016
(
429115
1.14458e+06
1.3895e+06
855059
726761
556254
1.85943e+06
1.12593e+06
577841
456021
1.3878e+06
1.21504e+06
1.44987e+06
1.29085e+06
1.14885e+06
1.64231e+06
1.41666e+06
1.01225e+06
698089
722842
1.08479e+06
1.07463e+06
712778
753235
653869
458079
639689
611973
578806
620607
435858
1.77753e+06
1.81004e+06
1.73899e+06
1.68066e+06
1.62656e+06
1.59123e+06
1.64334e+06
1.58799e+06
1.24491e+06
1.12285e+06
1.43489e+06
1.27908e+06
1.09485e+06
1.02461e+06
1.45813e+06
1.6111e+06
1.63819e+06
1.38848e+06
1.52277e+06
1.49569e+06
1.37297e+06
1.69298e+06
1.69736e+06
1.75634e+06
1.54853e+06
1.55039e+06
1.5001e+06
1.59996e+06
991748
1.25285e+06
1.23835e+06
1.22639e+06
1.01389e+06
1.03331e+06
1.22887e+06
815138
814968
733510
689231
810910
828552
687163
1.10718e+06
1.06313e+06
772728
831452
1.20787e+06
982991
788838
1.5254e+06
1.34548e+06
1.48142e+06
1.44926e+06
1.36197e+06
1.31685e+06
1.49442e+06
677447
673871
694261
630661
600300
621785
587479
376675
626124
510153
527932
641854
440266
386626
1.43616e+06
1.5429e+06
1.57858e+06
1.46457e+06
1.32753e+06
1.43008e+06
1.35249e+06
595391
645058
431538
494720
681549
698976
443492
1.04082e+06
1.27534e+06
1.26713e+06
1.0556e+06
1.22125e+06
1.07499e+06
1.22804e+06
1.63672e+06
1.57248e+06
1.52741e+06
1.49521e+06
1.44665e+06
1.39003e+06
1.43591e+06
1.29454e+06
1.30446e+06
1.40885e+06
1.38323e+06
1.1958e+06
1.26969e+06
1.28633e+06
1.40927e+06
1.3295e+06
1.24242e+06
1.41447e+06
1.36428e+06
1.28155e+06
1.45813e+06
714764
859648
829332
853941
711882
884739
693081
424417
356383
372461
616100
502397
576393
472389
1.07271e+06
1.36339e+06
1.23594e+06
893039
1.04347e+06
856932
985648
1.50405e+06
1.35619e+06
1.45994e+06
1.29716e+06
1.39002e+06
1.34514e+06
1.26419e+06
1.18428e+06
1.0108e+06
1.02556e+06
1.0368e+06
1.11607e+06
1.0107e+06
1.17869e+06
646107
632643
660075
612691
615286
574859
563728
1.35191e+06
1.17358e+06
1.20569e+06
1.23623e+06
1.31705e+06
1.23996e+06
1.26283e+06
854330
676624
836871
854464
713023
867254
688842
622159
640545
659424
567808
584063
569307
553140
1.50502e+06
1.39332e+06
1.46183e+06
1.33231e+06
1.31333e+06
1.2734e+06
1.37543e+06
1.19954e+06
1.36477e+06
1.31673e+06
1.26653e+06
1.19685e+06
1.15548e+06
1.31147e+06
1.27247e+06
1.25895e+06
1.12582e+06
1.20734e+06
1.08633e+06
1.18687e+06
1.08546e+06
900541
757662
940597
742396
916754
942924
777648
590729
513744
547037
585964
589429
540248
512201
1.04519e+06
1.10223e+06
1.15567e+06
1.00244e+06
1.04797e+06
1.00825e+06
1.16975e+06
1.3196e+06
1.35419e+06
1.4102e+06
1.29687e+06
1.1921e+06
1.24386e+06
1.22959e+06
647967
607795
569070
564520
602168
534812
539363
875854
732514
889735
735068
897365
880364
708818
594457
617247
600956
553168
519766
536883
536688
1.16935e+06
1.20714e+06
1.27691e+06
1.23475e+06
1.09348e+06
1.12986e+06
1.17743e+06
634454
551598
587401
558561
595365
529118
522537
1.21565e+06
1.14553e+06
1.20027e+06
1.06366e+06
1.11004e+06
1.16315e+06
1.25641e+06
639251
639502
617903
583072
556506
636512
554699
1.324e+06
1.29054e+06
1.25377e+06
1.24917e+06
1.21218e+06
1.15118e+06
1.18438e+06
837688
1.03478e+06
1.17136e+06
844143
952053
729166
780844
600576
604430
592677
535247
523236
532593
514648
604326
543827
578393
567633
534754
515143
506587
478722
506799
523529
513197
450397
473263
495637
1.18817e+06
1.06093e+06
1.10731e+06
1.04292e+06
1.08712e+06
1.13943e+06
1.1443e+06
1.23698e+06
1.11483e+06
1.12787e+06
1.13004e+06
1.16119e+06
1.07435e+06
1.05513e+06
1.29247e+06
1.18693e+06
1.22688e+06
1.15007e+06
1.1866e+06
1.12703e+06
1.1027e+06
572095
533968
552064
502909
522577
512208
487019
1.13658e+06
991876
1.04424e+06
1.03865e+06
1.11277e+06
1.03385e+06
976796
796666
988545
972551
955834
830958
954950
808794
1.113e+06
1.21825e+06
1.18283e+06
1.08942e+06
1.05392e+06
1.02822e+06
1.11877e+06
893062
763984
915906
924312
786496
890822
789913
590907
512829
541856
555444
524317
497032
486248
503054
442662
471936
467781
494391
469313
483656
523068
567849
562465
504046
477326
473070
508608
654422
580414
577350
695593
665274
562262
579812
1.14236e+06
1.01678e+06
1.10994e+06
1.05665e+06
993271
969825
1.08472e+06
486163
433461
491517
469522
412635
416841
464214
548636
517108
556033
498708
462336
468082
492563
437141
500180
496223
474112
423529
477951
420436
625043
538032
535633
668672
653086
547388
559068
1.09031e+06
1.13192e+06
1.15801e+06
1.06701e+06
997104
1.00838e+06
1.05152e+06
1.06634e+06
997855
1.08734e+06
1.03568e+06
944163
952819
1.02168e+06
1.0922e+06
1.12967e+06
1.09441e+06
1.06264e+06
1.03069e+06
1.05576e+06
1.0003e+06
1.01175e+06
1.05453e+06
1.08524e+06
1.01678e+06
934213
957339
994946
479987
418933
472910
407968
458175
451390
402620
540241
493469
530509
455896
485709
477829
448639
512942
526434
536651
506089
464485
506617
473493
986391
862165
839106
972044
944090
926003
834709
1.00257e+06
969963
942583
876890
923324
949292
1.02703e+06
923140
791067
815548
869375
882553
913972
808381
460883
470484
488510
486563
430525
478953
452016
406025
464927
412811
443884
390120
396622
435407
483456
506953
519347
468983
431302
459016
440405
1.08377e+06
985414
1.02655e+06
969016
1.01392e+06
965270
926842
450627
383745
429822
405561
426402
454215
402543
687797
703406
681281
567603
602401
582148
591867
983807
925102
863896
900621
908337
933072
973753
1.02102e+06
908065
968919
918650
985288
938960
879269
446260
395044
417663
380461
422321
399046
441203
491250
434376
447130
512497
493747
503400
446850
390474
412329
435564
429202
367660
385366
406446
854270
919522
949164
901769
803399
872191
822482
905826
882795
946753
905934
816416
848748
870252
812491
851817
898847
878402
768088
829800
802868
704358
709208
559881
725772
580752
728107
923511
981022
1.02111e+06
917544
1.01225e+06
908915
914846
830145
837864
998958
889516
882282
897456
904106
819833
807024
813217
733457
821500
751250
685447
678271
759033
735152
828246
820269
752389
682084
759536
675278
789196
716354
802876
742091
659151
669589
730597
719424
798520
810629
743348
658050
667299
732261
688215
575021
633904
630821
627262
695077
624498
679700
610114
608292
568071
619447
616944
669591
1.05176e+06
822390
471700
1.11913e+06
927760
887790
1.15776e+06
1.08512e+06
1.43453e+06
1.29635e+06
1.39395e+06
1.32334e+06
1.34076e+06
1.30208e+06
1.28455e+06
1.20482e+06
1.24068e+06
1.01412e+06
874097
751114
846024
1.05065e+06
1.23015e+06
895172
1.35932e+06
1.21386e+06
1.22914e+06
1.27288e+06
1.25685e+06
1.17929e+06
1.15116e+06
733462
492397
690976
481892
653412
740644
489726
1.08971e+06
1.2185e+06
1.18308e+06
1.11319e+06
1.05416e+06
1.02845e+06
1.14478e+06
1.12576e+06
1.24776e+06
1.21289e+06
1.12581e+06
1.07741e+06
1.04929e+06
1.15783e+06
1.14601e+06
1.15631e+06
1.17099e+06
1.10157e+06
1.0879e+06
1.10251e+06
1.04431e+06
1.06728e+06
1.13211e+06
1.15823e+06
1.09048e+06
997283
1.07284e+06
1.00858e+06
1.10203e+06
1.15734e+06
1.18687e+06
1.10207e+06
1.01794e+06
1.08517e+06
1.02903e+06
1.03558e+06
881390
892859
1.00696e+06
994493
964839
868573
1.04464e+06
990724
909356
1.00007e+06
977210
967945
1.07133e+06
619435
749918
758532
632073
625850
759246
642763
818362
725746
803726
712772
537407
693536
784515
722589
989603
1.1023e+06
763446
847461
749375
1.03545e+06
887889
723609
1.16083e+06
1.14075e+06
1.01646e+06
1.08891e+06
1.00108e+06
967403
957385
1.04556e+06
983413
1.03682e+06
873106
918608
911633
865518
1.09849e+06
998510
1.05446e+06
923294
971904
932988
890655
780466
765632
875018
753771
850693
839690
738759
926756
829564
934244
879769
869790
789484
771723
816916
958548
915761
854747
958143
1.00738e+06
890698
678701
701102
776256
708800
725512
811891
801814
701455
791147
724294
749192
818885
853738
821109
777756
907260
870556
822817
853599
758889
737043
651315
680751
744705
669526
718372
691229
628643
829185
758484
812709
730522
754757
728468
690270
727459
648294
665463
694979
675586
759909
785525
693841
619861
635952
676524
591467
659625
607638
773725
743890
798958
714285
653215
670682
695385
2.25908e+06
946543
2.00308e+06
1.89134e+06
1.5663e+06
1.56709e+06
1.37238e+06
2.03558e+06
1.67137e+06
1.10639e+06
1.0889e+06
743136
820644
1.28656e+06
1.49622e+06
848698
2.44665e+06
2.29802e+06
2.17411e+06
2.18504e+06
2.07009e+06
1.98765e+06
2.07418e+06
1.70277e+06
1.72106e+06
1.96611e+06
1.64202e+06
1.87535e+06
1.83207e+06
1.64056e+06
1.36215e+06
1.42946e+06
1.1356e+06
1.36304e+06
1.08018e+06
1.13715e+06
1.41673e+06
992935
903208
975324
855050
924618
925354
830088
2.16296e+06
1.9681e+06
2.07098e+06
1.90346e+06
1.8659e+06
1.81386e+06
1.96777e+06
2.30433e+06
1.02216e+06
2.01678e+06
2.97722e+06
2.01337e+06
1.86366e+06
1.49876e+06
2.07752e+06
1.7508e+06
1.1061e+06
1.2863e+06
1.11703e+06
1.30578e+06
747571
1.22614e+06
867583
1.16554e+06
1.31571e+06
1.21378e+06
1.24162e+06
1.11265e+06
1.0746e+06
1.23011e+06
2.0161e+06
1.57025e+06
1.56474e+06
1.54251e+06
1.93535e+06
1.92439e+06
1.55541e+06
2.86198e+06
2.3558e+06
2.38951e+06
2.63741e+06
2.22753e+06
2.20126e+06
2.53556e+06
1.10619e+06
1.17911e+06
1.17017e+06
1.03055e+06
1.05229e+06
1.00177e+06
977200
2.59366e+06
2.734e+06
2.32928e+06
2.17588e+06
2.30318e+06
2.1383e+06
2.42328e+06
1.65985e+06
2.01434e+06
1.605e+06
1.9163e+06
1.62224e+06
1.90238e+06
1.58982e+06
1.30288e+06
1.27593e+06
1.12972e+06
1.04789e+06
1.30129e+06
1.04841e+06
1.25124e+06
995274
1.04786e+06
1.06285e+06
961212
888197
937353
928712
2.34131e+06
1.94439e+06
2.08809e+06
2.06057e+06
2.00856e+06
1.90001e+06
2.25292e+06
1.84891e+06
1.50713e+06
1.53462e+06
1.83163e+06
1.50786e+06
1.72543e+06
1.54398e+06
1.21464e+06
983235
1.02837e+06
1.00787e+06
1.24633e+06
990684
1.22933e+06
945960
907749
807431
912553
783244
850480
868948
2.01836e+06
2.06045e+06
1.79167e+06
1.93595e+06
1.95806e+06
1.84701e+06
2.15679e+06
1.81068e+06
1.56947e+06
1.66055e+06
1.50738e+06
1.78245e+06
1.69607e+06
1.5585e+06
1.00769e+06
1.31027e+06
1.05695e+06
1.27549e+06
1.03726e+06
1.01613e+06
1.26241e+06
889459
804414
847037
760575
876844
839367
832674
1.73317e+06
1.97092e+06
1.79179e+06
1.82154e+06
1.72034e+06
1.66994e+06
1.88352e+06
1.48066e+06
1.74624e+06
1.62022e+06
1.69954e+06
1.45266e+06
1.54836e+06
1.57697e+06
1.70981e+06
1.83334e+06
1.90873e+06
1.77481e+06
1.57314e+06
1.70848e+06
1.61536e+06
1.10363e+06
1.35502e+06
1.32518e+06
1.14498e+06
1.32675e+06
1.38283e+06
1.14551e+06
1.48044e+06
1.2396e+06
1.18894e+06
1.19446e+06
1.43738e+06
1.44366e+06
1.23897e+06
1.74874e+06
1.64595e+06
1.52648e+06
1.71197e+06
1.66873e+06
1.60281e+06
1.79778e+06
786961
881095
878747
911453
751783
779284
925573
869270
989722
969966
951785
815788
997783
816513
1.64697e+06
1.41551e+06
1.4685e+06
1.47182e+06
1.5867e+06
1.51618e+06
1.52676e+06
959992
780800
1.00595e+06
808362
1.00629e+06
783317
971380
1.19098e+06
1.31183e+06
1.17039e+06
1.36427e+06
1.38426e+06
1.21447e+06
1.16908e+06
700701
665984
676456
661075
600964
637545
610743
641022
563664
560686
590492
608538
624810
581287
1.24057e+06
855786
489726
665371
669549
696707
550773
772653
694725
644869
514188
834524
1.15107e+06
1.4872e+06
1.32466e+06
1.54998e+06
1.91197e+06
1.37853e+06
1.61326e+06
925804
861040
956277
869051
843837
789826
768560
868625
1.10244e+06
1.2512e+06
1.30318e+06
1.47443e+06
890879
840727
738940
623539
498726
444431
570174
689238
549244
1.85787e+06
1.76201e+06
1.78977e+06
1.71696e+06
1.74458e+06
1.61422e+06
1.65468e+06
581503
700131
642844
727254
751104
536892
671271
855833
804484
892209
786175
815729
744596
718063
1.7501e+06
1.5154e+06
1.54038e+06
1.63421e+06
1.65902e+06
1.5501e+06
1.44904e+06
748163
688636
770791
646151
715678
697287
630318
782362
681396
762253
646716
718248
701212
633195
1.44629e+06
1.61936e+06
1.57882e+06
1.48523e+06
1.40522e+06
1.36561e+06
1.52739e+06
1.66929e+06
1.50765e+06
1.62605e+06
1.50763e+06
1.44405e+06
1.40265e+06
1.54996e+06
1.27423e+06
1.40662e+06
1.42942e+06
1.25329e+06
1.2756e+06
1.36018e+06
1.23757e+06
1.02742e+06
834470
850479
1.03979e+06
1.0592e+06
1.06583e+06
865503
817759
754470
777024
720645
703521
689873
659818
623852
647512
722521
676267
591944
652943
611957
715720
663939
739997
681733
600358
659931
617742
1.40329e+06
1.41798e+06
1.51728e+06
1.44108e+06
1.27193e+06
1.35884e+06
1.33221e+06
1.46108e+06
1.45969e+06
1.56259e+06
1.46105e+06
1.30532e+06
1.36829e+06
1.3785e+06
710271
716513
729780
671332
659186
715131
636973
1.39386e+06
1.2047e+06
1.32317e+06
1.34071e+06
1.30203e+06
1.2844e+06
1.43445e+06
599333
597868
657118
642374
539977
586202
585921
1.15323e+06
1.33044e+06
1.2096e+06
1.20663e+06
1.28416e+06
1.18401e+06
1.12435e+06
1.37049e+06
1.20059e+06
1.24674e+06
1.23892e+06
1.30317e+06
1.20059e+06
1.15445e+06
733953
646530
684384
627633
666302
627679
593943
690367
621735
641533
611028
629938
595790
571854
1.02132e+06
846058
1.0401e+06
1.04951e+06
878186
877757
1.01468e+06
598490
572253
634819
569972
627976
601505
546754
1.35923e+06
1.17918e+06
1.21375e+06
1.2291e+06
1.27284e+06
1.29627e+06
1.2567e+06
1.0664e+06
873242
1.07578e+06
1.06645e+06
902072
1.04272e+06
890927
689212
600452
660743
580992
636324
610812
559872
698291
599241
622057
728175
717043
615528
608689
721410
624860
642011
745198
727276
624837
623653
625508
527790
554641
556758
606193
571215
572271
1.15622e+06
1.17096e+06
1.23011e+06
1.14602e+06
1.04427e+06
1.10155e+06
1.08787e+06
536154
539387
585220
562645
481889
520546
516072
602732
518321
545175
573311
497543
544191
522507
598777
575601
630487
583687
513471
555005
537289
557984
545778
513944
561078
496218
528930
537896
576469
569440
600650
569414
509018
551326
536877
1.03562e+06
881502
964852
892896
1.00697e+06
895247
994532
1.0241e+06
942511
895073
951787
1.01228e+06
959611
950960
1.08392e+06
965367
1.02661e+06
969167
1.03489e+06
985486
926944
995980
1.10873e+06
1.04625e+06
988768
1.04629e+06
996003
945234
632098
759325
758575
750041
740724
619450
625928
506006
543870
548177
484513
538152
545727
479687
479693
545759
543876
548162
484505
505987
538155
538423
463731
472672
478376
513020
500036
494807
901778
854174
949144
919521
803344
837639
872214
873482
970233
929179
929178
817708
846008
889123
922513
931152
983579
940701
844478
894664
886354
747642
638827
634961
725081
745901
648036
643228
646045
753080
763281
737177
753046
653377
652394
422084
373423
362282
392445
379749
414148
399744
853302
766859
777006
750540
804502
824144
787582
546531
473069
539075
553011
482533
477967
559271
884548
779000
802668
785583
813880
846236
838452
481536
557120
548212
557094
488159
481527
565867
627864
478005
538716
559926
647314
448550
513770
532633
392566
464775
405465
598272
441038
505477
386904
473064
365316
415504
638672
593331
602808
559393
568867
541763
533276
653817
617336
610773
582486
576423
548845
554463
614510
581966
547920
568069
534595
523237
511523
459379
356771
407488
411870
474072
397856
347017
481571
711988
745996
687501
701062
558736
457093
579656
535173
552273
503229
519412
498169
483699
527501
576195
569931
516762
487234
522191
482324
499368
455089
507437
486548
431847
438072
479116
554374
521139
562778
510347
470201
476739
503003
460325
519109
513983
492774
447557
443154
497868
516774
516424
486315
496638
469211
468122
451710
489973
432748
479054
424698
470705
460833
416746
544989
496154
533541
462993
494506
484475
454554
485330
505692
520436
473021
434189
460440
444951
424164
454754
467170
449807
398845
437966
407953
594119
735815
719334
615159
603260
733029
624760
467827
444671
401774
427772
423602
472662
440461
462340
413224
429846
397529
418872
435558
455776
495034
455247
476002
438045
452789
435034
418914
522927
474114
527724
460830
515329
530298
463644
406766
423312
448215
439650
380468
399505
415945
489542
444672
472263
422269
446659
432009
409461
442288
400888
430178
389854
425562
412852
381068
355678
385305
427022
407815
537577
459676
567468
412261
522004
607125
597830
643299
588581
559589
550126
525036
405077
431317
429654
345542
350447
419580
429800
491358
482194
514041
528563
554299
514036
491360
494235
532128
565900
488714
525595
495612
463360
492700
472185
514276
469516
506689
484732
448094
429871
373274
398116
382648
419183
391414
407544
747813
648136
635087
725186
733617
638980
643351
716254
616292
613342
696659
718155
628026
622136
404251
433177
424586
449900
456075
486801
460370
436749
426499
450221
431319
455399
479054
456791
437706
437717
465892
436780
465664
498520
465672
456790
455401
479063
450226
426495
436746
407810
434880
428626
453766
416437
381330
400602
395608
397364
412242
419507
400489
367917
373370
389260
473085
553087
539153
546663
482609
559387
471766
453265
530751
520861
538849
471486
544592
464484
387937
373519
407832
395732
347845
364286
376971
1.21579e+06
1.28733e+06
1.06623e+06
921984
742572
1.05358e+06
968437
796687
1.30185e+06
1.26117e+06
1.24859e+06
1.13314e+06
1.1196e+06
1.08751e+06
1.09853e+06
1.2576e+06
1.18706e+06
1.22245e+06
1.05993e+06
1.09532e+06
1.06794e+06
1.03855e+06
1.1152e+06
991728
1.19883e+06
1.10483e+06
1.18658e+06
1.04474e+06
982653
978455
837400
845159
818530
825376
952376
944557
1.13736e+06
1.08878e+06
1.16682e+06
1.02756e+06
949890
969092
1.00394e+06
949116
805323
824085
789097
806599
928463
905845
803711
921892
766776
773914
877618
913780
869399
770490
841213
756480
785971
857652
900029
880761
575062
691092
465264
655909
714191
676877
583931
481274
732986
739085
719758
660719
655748
630198
634948
710053
704739
723367
640225
648717
622459
612300
697919
703935
683178
615190
603935
620585
598202
676254
667869
688919
607326
580190
590289
596953
608756
579912
604513
567408
529921
525907
571706
594433
576476
599425
561449
517083
521511
554346
547811
477120
536432
499851
495828
552583
531568
541274
484761
516544
471832
490700
524932
533156
710553
715841
733967
649824
626761
641865
637549
384043
434204
410343
364693
387684
409534
385297
428550
429660
438746
386140
393931
409677
393926
673510
700798
712208
633379
613063
619732
629917
364706
387691
405089
384064
410360
409540
434215
423091
426093
430391
401561
384250
380767
390663
357993
429865
868082
824831
553572
441334
365290
324233
362836
370415
472676
488795
370411
301453
367145
381630
308292
834508
703167
695634
1.0712e+06
1.01217e+06
844645
813980
354027
465524
365448
286446
298311
438615
346630
1.04453e+06
1.00001e+06
990533
977157
967764
909244
927638
729030
692240
728809
813901
983495
804478
705219
1.024e+06
951740
942379
959562
950801
894970
887693
484421
445956
451156
447105
442141
411754
415187
386720
345764
365622
283987
344742
342418
369675
479013
432286
436608
442286
437563
407680
402858
394544
390676
416915
426440
402950
309209
340544
853607
932366
913900
853560
812076
800528
868023
281585
427355
356766
345226
373009
335865
261467
914410
831916
896818
846098
797876
787618
860246
457665
426293
430247
423085
419700
397457
391387
940652
931111
922385
894639
886271
874021
844423
611410
527524
617367
567717
734015
684248
557855
841073
892049
899090
841025
784302
790217
834459
875587
820338
882876
834110
771459
777521
827585
448679
403959
406086
415058
412187
384649
377215
455197
451047
478084
417121
435711
413874
396440
440144
435065
455241
426766
404243
420571
391939
364503
405076
401940
377457
347447
380350
345028
415210
378461
411666
382435
357013
354353
385421
709971
750229
759043
797404
752962
744498
808041
393859
361477
398197
374092
339051
342283
370088
776150
759449
802205
877937
848040
824791
802180
402354
374743
407368
378789
347365
351140
374506
884538
785589
779020
846226
838419
802642
751117
862607
782811
833431
763831
817982
795360
747535
414883
394706
396041
384341
384969
368854
359524
389912
384180
559846
459846
365172
414302
453539
410139
541507
500009
526565
509460
485968
474420
461085
500276
470381
521561
471579
491018
446385
430584
435090
446180
398428
382825
426066
415743
374718
493058
445792
477386
421135
447847
435458
409775
442651
430574
460604
421853
383911
407321
397307
370438
380517
423214
404468
356367
391989
365931
741472
735922
690256
786837
730193
735853
780726
388895
349505
383384
335322
365564
360449
331061
396702
359868
390393
343070
369621
364210
338234
375171
342723
349827
358977
366545
405398
395697
649884
715860
710608
641893
637633
691006
626801
314048
432057
348328
334826
430724
434914
310133
356161
325513
266118
271530
324671
223993
259623
408376
408390
431937
397975
378509
378521
360438
391809
397302
423894
379933
404662
375631
354912
396721
376941
415596
366644
385119
370896
352011
426110
401569
430398
423136
419614
384272
380796
338843
344428
377206
354812
321148
326401
348577
353630
375250
383286
358152
326882
351396
332866
765766
689412
720578
753966
805960
765752
720576
716464
674098
683928
723276
773113
756465
711186
378557
359599
396122
381180
347867
364467
334352
409193
366034
380437
411885
411455
375615
368224
742393
748207
792576
759733
679746
718075
715166
401334
360883
386800
360469
373070
349374
338520
334748
354199
325961
350647
341411
373266
385001
370965
353610
365422
355292
338648
329594
383179
494878
564186
486471
564502
492472
561784
497502
564420
561736
497451
567688
494854
486429
564128
488580
477316
551582
490402
483479
551504
552405
332701
354394
326000
315450
341644
333888
309177
353470
306352
327731
332433
330166
356015
325558
330684
338963
366392
320223
343856
335597
312991
350434
320087
324266
304144
327471
323067
346821
332775
368575
347355
366358
347350
387161
368571
344437
379613
359784
358989
327814
350467
338783
365321
362234
384960
359090
324722
342423
339919
628669
668314
693574
643486
593371
668322
611426
327793
338756
358971
344420
359760
379597
365277
316644
320541
342657
338046
294753
312772
316395
657878
626423
655566
726319
653470
687275
686856
621456
602015
655967
635709
664020
608224
587563
383761
384815
427041
429850
381503
437067
385710
371643
347244
347979
334728
333775
327021
315114
437029
385685
381474
432042
383753
427017
384803
349613
335369
322221
349624
309639
334395
322230
316266
331249
360613
347245
305830
320254
329958
417770
431833
422281
374916
380694
373511
377899
359717
341727
321265
350549
314603
337262
330953
332898
303623
290826
306681
308430
327238
311775
318532
335112
310199
325432
294369
316227
302151
346533
322255
313492
326700
297227
305368
317174
496798
563306
498587
541700
490860
553593
496821
494647
546418
491660
551149
487656
537410
495055
573368
591016
552229
613681
641430
591832
570688
298308
301002
320920
313881
276269
294716
292520
321577
354302
331476
319466
346145
345558
315026
340515
307497
321107
308673
320575
303099
291515
346127
348322
321572
315015
319451
331465
354293
390877
437942
386562
441960
441354
390893
394471
301073
291393
312827
285996
306479
296305
277292
333298
296731
304192
294986
319113
308686
317101
344527
315523
340098
310351
337181
342168
322032
437718
387901
383498
439605
440054
389788
392830
304532
296358
313481
288667
307091
296717
280229
306210
270451
278884
280672
287958
298101
285963
481810
470823
511689
540709
480418
525607
490082
5793.53
3434.58
0.00792501
0.0233279
0.000540249
0.00188828
2.04015e-05
7.55244e-05
518.992
0.191084
0.00229856
9.93253e-05
3.4971e-06
300685
277585
308652
313142
365314
191634
234629
283976
272743
344729
362210
384938
359069
342416
339892
324709
77821.1
1246.62
73922.5
162521
50460.2
294539
173205
320547
325496
340489
303071
321076
307478
291495
328054
346155
328049
309804
325851
309798
295601
221157
114187
275505
339.238
3.10467
7949.05
187467
296724
294968
308672
333280
319105
317077
304178
643933
622011
967253
922364
820082
620481
598820
871211
837242
776098
618694
611338
937559
1.30204e+06
1.26343e+06
902445
876749
1.16206e+06
1.1293e+06
849653
1.24331e+06
1.13624e+06
863823
810413
1.11378e+06
1.04821e+06
848024
1.08534e+06
1.05863e+06
703058
691145
718163
718783
794481
1.04729e+06
997205
686963
672149
724770
749877
1.29077e+06
1.26707e+06
1.25666e+06
1.14071e+06
1.18575e+06
1.14993e+06
1.17522e+06
731372
1.09017e+06
951902
788450
714938
1.02068e+06
918956
1.27812e+06
1.22601e+06
1.24352e+06
1.12917e+06
1.15011e+06
1.11406e+06
1.16378e+06
1.20306e+06
1.21514e+06
1.17239e+06
1.12991e+06
1.09292e+06
1.06618e+06
1.10342e+06
613891
602257
639445
412475
431071
426288
420184
1.22559e+06
1.15364e+06
1.21614e+06
1.10643e+06
1.07418e+06
1.11558e+06
1.06637e+06
1.18704e+06
1.14248e+06
1.20331e+06
1.09586e+06
1.04385e+06
1.0805e+06
1.05638e+06
1.17959e+06
1.09776e+06
1.13666e+06
1.03448e+06
1.03255e+06
1.00048e+06
1.07099e+06
1.16638e+06
1.09524e+06
1.13907e+06
1.02885e+06
1.06144e+06
1.03698e+06
1.01056e+06
1.07811e+06
989152
982755
1.01521e+06
1.00778e+06
935921
942434
630121
870153
844638
629345
615119
822824
800822
1.03424e+06
959631
1.07407e+06
941249
935180
1.04185e+06
1.06461e+06
709453
975817
897383
665766
634512
753521
741549
1.02406e+06
950140
1.04018e+06
913775
926034
1.00987e+06
1.05439e+06
1.0742e+06
1.07337e+06
1.10818e+06
1.00928e+06
964522
979261
988881
1.06865e+06
970159
976449
987259
998234
928451
920459
860674
716273
856821
842255
731213
847048
728317
853965
716044
854449
837368
726579
832588
726677
1.05777e+06
1.04251e+06
1.01639e+06
991898
965222
928920
949791
588108
831426
771429
607312
575863
789035
742558
1.0218e+06
897425
991057
967291
901791
878048
999301
963812
1.03319e+06
955986
975150
961065
912031
902437
1.00487e+06
918928
895601
987049
912748
1.01269e+06
979481
594103
652927
668734
438680
453712
422598
446923
995474
892912
887536
958450
904614
981567
970415
854908
733078
855181
728702
828779
824067
731068
1.03856e+06
989343
1.00064e+06
938531
948211
915591
909125
940665
877188
937186
831544
855979
911263
970041
878032
944244
964610
943117
848482
860161
927102
1.01601e+06
934896
946113
926877
944541
891322
878401
996612
933513
974601
892066
870620
856412
909771
612573
511050
517154
619999
627456
523041
530940
919624
818036
830271
884643
840199
894163
907025
849734
742227
853388
818331
731570
811067
732206
922087
955247
961166
881241
844181
846910
877965
863731
851491
846082
767791
783594
772439
778779
901773
805986
881299
849610
790044
778752
865915
605856
803102
781915
563404
553138
672180
659769
864873
941981
934758
881476
829637
823804
887704
857292
916181
926374
873835
808493
816829
865320
855819
828172
838652
761587
763071
752695
772084
920638
952034
903046
906697
862835
884569
844839
625499
539435
526775
643792
636006
541239
552744
570012
771874
731685
548305
529355
655046
637754
904554
824913
891528
799571
856464
846223
789258
809454
773047
699296
726343
768010
814476
722731
457598
422922
457811
406965
451803
456574
407804
835806
817426
830428
757386
751281
761594
746342
814667
814373
798401
751723
741169
727810
737166
803708
755941
695258
716144
762407
797625
719180
794957
860644
867388
838781
765146
769967
834218
813448
809926
823699
751359
732197
742796
740342
818462
760088
797203
724553
751706
787279
830650
843949
753248
834932
729381
802525
791605
725008
810844
859781
876888
834400
764400
777470
820987
749048
713618
791388
784564
682502
741528
711076
925810
858335
882254
831567
859402
824147
801633
793892
759482
780068
712197
702414
695092
720615
800845
775682
785549
722232
731813
718809
710321
466288
420694
460419
463815
414913
473345
410293
809568
717871
740775
776529
744223
779396
805894
749612
759847
768417
704060
681247
687332
696769
554363
663481
569769
649411
564459
651851
574321
627243
617429
546000
629930
538499
544760
548821
797235
771069
765629
737518
732475
709030
713955
698960
640811
708687
641250
637989
702801
704722
840716
749500
805378
755851
818848
787782
733130
777117
723790
677700
704138
733401
768495
707985
693589
636139
691721
626908
633335
686137
699261
790493
751444
759190
718680
726241
703561
696540
806828
749265
822665
777674
707911
760318
717998
682215
618590
676305
664732
611960
608209
670167
615889
633584
632390
551978
553496
551492
559076
474409
404074
461553
467789
417544
479576
408012
691812
635882
625748
686887
632713
695431
682945
475436
427987
487785
422209
485159
497541
431820
760304
742964
733276
709314
698900
688688
679710
686623
621576
621364
670705
628254
679142
677732
733609
768959
794826
768390
695471
715267
747465
712646
699061
758397
746099
657749
699719
692671
668627
591768
582937
646831
650896
580532
582929
746957
709730
722187
672775
686801
669474
658009
651432
600492
641579
584717
596847
636786
656475
613334
661942
669630
658189
598316
603213
651491
727712
668507
722999
676701
637429
681133
633834
475879
491334
423862
421253
485396
485036
413798
711407
664310
717756
671873
625535
665876
630092
633518
554354
564700
607589
631783
568221
554052
645276
579751
587727
626076
591909
630701
639579
514501
436407
501563
508720
453203
517074
442776
704574
649849
696811
620624
659027
651384
615073
616484
676511
671824
655270
608694
604767
659780
731007
668669
647235
671847
685053
713757
683730
611964
659728
666613
650542
594799
600340
644185
651693
590399
642173
588275
637163
628781
580667
496359
430505
494579
502865
445482
499894
440215
678267
644109
688018
642929
601636
633358
608747
602081
621961
628064
569107
548478
552244
567393
580703
618894
631297
619135
561970
571795
608422
630347
589478
560411
600824
585996
634471
597453
626030
577242
557154
589429
582045
620643
593874
509030
500878
450661
456483
501531
512031
449396
571604
584587
614363
607272
542775
565100
578911
599207
549398
536494
565009
557790
590284
572352
0.000763188
0.00185641
0.00195962
0.00122216
0.000613429
0.153158
0.0354564
0.0470123
0.0220899
0.00945262
44210.9
60816.1
23.7092
9.28607
0.972992
420582
277438
223075
57037.4
581284
459722
446426
421418
574573
0.00032952
0.000719412
0.000867195
0.000503474
0.000159495
0.0401955
0.00920228
0.0124787
0.00759743
0.00532589
3910.05
5662.02
2.06064
0.91297
0.360384
409220
116409
59115.6
5190.12
561725