/*--------------------------------*- C++ -*----------------------------------*\
  =========                 |
  \\      /  F ield         | OpenFOAM: The Open Source CFD Toolbox
   \\    /   O peration     | Website:  https://openfoam.org
    \\  /    A nd           | Version:  9
     \\/     M anipulation  |
\*---------------------------------------------------------------------------*/
FoamFile
{
    format      ascii;
    class       volVectorField;
    location    "0.0008";
    object      rhoU;
}
// * * * * * * * * * * * * * * * * * * * * * * * * * * * * * * * * * * * * * //

dimensions      [1 -2 -1 0 0 0 0];

internalField   nonuniform List<vector> 
7508
(
(0 0 5.66253e-17)
(-1.62832e-16 4.14153e-15 1.3531e-14)
(0 0 0)
(-4.54436e-17 0 -2.00768e-16)
(-1.42787e-18 0 0)
(0 0 6.10858e-18)
(0 0 1.74785e-16)
(0 0 1.67257e-17)
(0 0 1.11674e-17)
(0 0 1.15405e-17)
(-1.94892e-15 2.28506e-14 -2.17754e-15)
(-1.54223e-14 5.84675e-14 0)
(-8.32652e-14 3.3509e-13 4.09188e-14)
(-4.0829e-13 1.15913e-12 9.5059e-14)
(0 3.56604e-15 0)
(-4.34311e-16 5.17189e-15 -1.63149e-15)
(-1.66736e-17 6.49639e-16 0)
(-4.57731e-14 2.22826e-13 -4.45909e-15)
(-1.75409e-14 1.57404e-13 -9.05139e-17)
(-3.10136e-14 2.00089e-13 -2.00481e-15)
(-2.27428e-14 1.77701e-13 -8.96909e-15)
(-3.1914e-14 1.16941e-13 -5.2783e-14)
(-2.37287e-14 8.77013e-14 -5.11376e-14)
(-3.19704e-15 2.53359e-14 0)
(-1.92219e-13 7.57479e-13 -4.00009e-14)
(-5.09318e-13 1.37425e-12 4.67023e-14)
(-1.62824e-13 6.63281e-13 1.33176e-14)
(-4.48886e-13 1.33443e-12 6.49222e-15)
(-1.52515e-11 4.75494e-11 2.13988e-12)
(-2.98835e-10 4.56199e-10 1.09914e-10)
(-2.10909e-11 5.51762e-11 3.47041e-12)
(-1.48977e-11 4.75442e-11 8.09392e-12)
(-2.06461e-11 5.02815e-11 1.04904e-11)
(-1.78089e-10 3.44941e-10 7.461e-11)
(-2.24525e-10 4.06049e-10 1.33593e-10)
(-1.74543e-10 3.43261e-10 1.07527e-10)
(-3.5093e-12 1.02222e-11 1.44188e-12)
(-1.34023e-11 3.07187e-11 7.30478e-12)
(-1.2415e-12 3.93624e-12 -5.77608e-14)
(-6.39251e-13 2.90478e-12 2.08733e-14)
(-9.31582e-13 3.72612e-12 3.02829e-14)
(-7.89351e-13 3.29634e-12 -1.40562e-13)
(-5.16591e-12 1.61171e-11 8.98646e-13)
(-1.22847e-11 2.54969e-11 2.34977e-12)
(-4.82617e-12 1.49726e-11 1.09204e-12)
(-1.16539e-11 2.50823e-11 2.25221e-12)
(-3.23318e-15 8.85298e-15 9.90437e-16)
(-8.21415e-14 1.87187e-13 3.4072e-14)
(-3.21156e-15 8.95863e-15 7.17321e-16)
(-3.2482e-15 8.83072e-15 1.00009e-15)
(-3.19681e-15 9.09495e-15 5.14653e-15)
(-8.53298e-14 1.15945e-13 -1.90241e-14)
(-3.70383e-14 7.04701e-14 7.13609e-15)
(-1.98185e-11 1.4592e-12 3.92311e-12)
(-5.67133e-12 7.32515e-12 1.99101e-12)
(-3.50836e-10 4.39345e-10 1.49608e-10)
(-3.69079e-13 1.26898e-12 2.82571e-14)
(-8.59184e-14 1.13367e-13 -1.93979e-15)
(-1.45372e-11 1.28057e-11 3.74506e-12)
(-6.50205e-13 6.94764e-13 8.62417e-14)
(-5.63475e-12 7.26774e-12 2.40242e-12)
(-1.44902e-11 1.26602e-11 4.77587e-12)
(-4.87885e-12 1.07446e-11 1.63511e-12)
(-3.4859e-10 4.44024e-10 1.74243e-10)
(-4.28112e-13 1.4057e-12 2.80172e-14)
(-3.65872e-13 1.30577e-12 1.22163e-13)
(-3.98878e-13 1.41951e-12 1.50709e-13)
(-3.60651e-14 6.75119e-14 2.45557e-14)
(-1.60547e-19 0 1.64905e-14)
(-4.83981e-14 5.75125e-14 7.01375e-15)
(-9.74986e-20 -2.95245e-14 1.63397e-15)
(-5.6861e-18 3.023e-15 -1.61408e-15)
(-1.14078e-18 0 -7.53995e-15)
(-8.04116e-23 0 -2.78769e-14)
(0 0 -3.39869e-15)
(-9.58104e-18 4.21538e-15 3.99259e-15)
(-3.88873e-21 0 -2.51345e-14)
(0 0 -3.72759e-16)
(-1.04955e-19 5.84522e-16 0)
(-9.9012e-18 3.47498e-15 5.64066e-16)
(0 5.52278e-16 0)
(-5.44759e-18 3.52904e-15 0)
(-1.89045e-12 1.30945e-12 3.55502e-13)
(-1.16935e-14 1.86594e-14 2.07849e-15)
(-7.63001e-13 7.42077e-13 1.65528e-13)
(-7.98406e-13 7.77403e-13 1.78504e-13)
(-1.0719e-14 2.15932e-14 1.92852e-15)
(-9.3496e-14 2.23873e-14 3.23488e-14)
(-1.6241e-15 -4.49807e-14 5.30473e-15)
(-3.34591e-16 -9.85336e-16 4.50273e-18)
(-3.65518e-16 0 -1.43701e-14)
(0 0 -5.78134e-15)
(-6.78988e-18 0 2.84249e-14)
(-5.18455e-21 0 1.59944e-14)
(-5.5555e-17 6.81546e-15 2.04906e-14)
(-9.90419e-18 -2.82913e-14 1.51502e-16)
(-2.99629e-14 2.57377e-14 1.94579e-14)
(0 4.90804e-16 1.69187e-14)
(0 1.8473e-17 0)
(0 1.82911e-17 -2.10969e-14)
(0 9.02317e-16 -8.49271e-19)
(0 -4.52433e-19 2.24243e-20)
(0 0 2.75958e-23)
(0 0 0)
(0 -1.46419e-16 7.31565e-26)
(0 0 -8.18911e-32)
(0 0 0)
(0 1.05147e-15 -2.23423e-14)
(-5.27021e-15 3.85943e-14 -2.13761e-15)
(-8.54275e-14 1.91168e-13 -3.92423e-15)
(0 0 9.12236e-15)
(0 0 0)
(0 0 -1.24851e-18)
(0 0 3.22047e-18)
(0 0 2.84594e-14)
(0 2.12653e-15 -2.86877e-14)
(0 0 -2.0105e-14)
(0 2.65893e-15 1.04279e-14)
(6.85724e-15 0 -9.5777e-15)
(-8.4021e-15 0 -2.38432e-14)
(3.13245e-16 1.84089e-17 1.95373e-14)
(-5.50058e-15 3.55516e-15 3.96414e-15)
(5.33608e-15 0 -1.71019e-14)
(-3.19203e-21 0 2.46573e-14)
(1.45927e-18 0 4.19649e-14)
(-7.83538e-15 0 2.57378e-18)
(-6.01767e-21 0 1.00026e-14)
(-1.14183e-18 0 8.62941e-16)
(6.07639e-15 -2.70006e-14 -1.08156e-14)
(-1.14479e-14 2.27374e-15 -2.96899e-14)
(4.04204e-15 0 -1.05786e-16)
(-1.45036e-14 2.8729e-15 2.73002e-15)
(-5.49012e-16 -6.15777e-15 -1.21333e-15)
(-3.68791e-13 1.85487e-13 1.7192e-13)
(-1.05407e-11 6.27382e-12 7.39866e-12)
(-1.38621e-14 1.46169e-14 6.30593e-15)
(-2.99109e-13 5.09695e-13 2.12594e-13)
(0 0 1.08677e-17)
(0 0 -3.81846e-15)
(0 -5.83376e-16 -2.86861e-14)
(-8.31776e-22 -7.08533e-15 -2.20862e-14)
(0 0 -1.10812e-15)
(0 0 0)
(0 0 0)
(0 -9.25231e-16 4.3681e-16)
(0 -1.10992e-16 0)
(0 -4.3657e-16 0)
(0 -3.32748e-16 -2.26861e-20)
(-5.05709e-23 1.11181e-18 -1.6396e-16)
(0 5.94673e-21 0)
(0 0 0)
(0 -2.47241e-15 1.25419e-15)
(0 -4.14921e-16 -1.07371e-15)
(0 -8.6644e-16 0)
(0 -1.02431e-15 -1.35358e-20)
(-1.39672e-14 1.52345e-14 9.59223e-15)
(-9.41977e-15 9.32865e-15 4.16667e-15)
(-9.41977e-15 9.3509e-15 1.99184e-15)
(0 6.63186e-23 1.17355e-14)
(0 -2.29098e-21 1.25706e-15)
(0 -1.99268e-20 -8.31414e-16)
(0 -2.35252e-19 1.22648e-16)
(-3.01433e-13 5.06528e-13 2.30848e-13)
(-1.24127e-14 2.13414e-14 1.02446e-14)
(-1.1915e-14 2.15219e-14 -2.23258e-14)
(-2.25914e-15 7.14603e-15 3.62078e-14)
(-2.17743e-15 7.47085e-15 3.61623e-15)
(-6.44455e-13 7.61049e-13 3.28509e-13)
(-6.38496e-13 7.44211e-13 3.4956e-13)
(0 5.52563e-16 0)
(0 0 0)
(2.31406e-14 2.66966e-14 1.59583e-14)
(-3.03295e-14 0 -2.71011e-15)
(0 -7.07326e-16 -5.47606e-15)
(0 0 -3.81868e-16)
(0 0 0)
(0 0 0)
(0 0 2.57992e-17)
(0 0 1.53534e-16)
(0 0 6.18914e-18)
(0 0 9.25324e-19)
(0 0 -1.71078e-14)
(0 0 9.82592e-15)
(0 0 3.06175e-14)
(0 0 -1.43692e-27)
(0 0 -6.44611e-16)
(0 0 0)
(0 0 3.7871e-15)
(0 0 0)
(-2.31341e-15 5.9768e-15 -1.05805e-14)
(-6.04669e-15 0 -1.94406e-16)
(0 0 -1.13321e-14)
(0 0 -6.10262e-15)
(1.59153e-16 -7.87197e-15 0)
(0 -1.96629e-17 -1.60097e-15)
(0 -9.05008e-18 -1.08622e-14)
(0 -7.07961e-19 -3.49562e-14)
(0 -1.61281e-17 2.97232e-15)
(-1.46218e-15 1.6241e-16 2.01966e-15)
(2.37584e-23 -9.67543e-35 5.09532e-18)
(0 0 7.26196e-21)
(0 0 0)
(-1.31576e-13 7.8445e-14 1.46011e-13)
(-1.74164e-16 -2.85995e-22 1.26773e-15)
(2.88812e-22 0 4.52545e-24)
(-1.53713e-17 1.38974e-18 1.00999e-17)
(-8.59875e-21 0 1.72758e-18)
(0 0 -1.5976e-29)
(-1.16629e-19 -2.61682e-21 9.43466e-21)
(-1.81279e-23 0 6.69805e-25)
(0 0 0)
(-6.9292e-22 -1.08817e-22 0)
(-4.93082e-14 2.92013e-13 2.15994e-14)
(-4.55722e-13 5.40243e-13 9.95741e-14)
(-5.0347e-12 1.12689e-11 2.17923e-12)
(-8.35134e-15 7.14603e-14 1.44918e-15)
(-7.05218e-15 5.392e-14 -1.35793e-15)
(-9.6133e-15 6.75625e-14 0)
(-7.05209e-15 6.56135e-14 1.5964e-15)
(-2.71838e-12 9.51212e-13 1.00943e-12)
(-8.62918e-14 1.05341e-13 3.76984e-14)
(-2.50358e-13 1.95671e-13 6.36435e-14)
(-8.70516e-14 1.08904e-13 3.36848e-14)
(-2.47512e-13 1.96535e-13 6.42271e-14)
(0 -2.55408e-20 0)
(0 -1.1803e-20 -1.26364e-19)
(0 8.76741e-15 -4.85729e-16)
(0 -3.5012e-15 1.13503e-14)
(0 1.8894e-17 2.76096e-15)
(0 -4.44711e-14 -2.56447e-15)
(0 2.49589e-16 0)
(0 -8.20195e-15 6.41459e-17)
(1.00352e-14 -4.45504e-14 -2.59923e-15)
(0 -2.36429e-15 0)
(0 -4.23686e-15 0)
(-2.25972e-16 -3.50281e-15 1.52344e-14)
(-1.06115e-15 -3.50272e-15 8.14888e-15)
(-7.03006e-15 -4.42227e-14 2.76203e-15)
(-4.72274e-22 -5.23057e-14 2.24938e-14)
(2.82319e-18 -2.36429e-15 0)
(-9.51304e-20 -2.36429e-15 0)
(-2.30661e-20 -5.3945e-14 2.36306e-14)
(-2.27025e-15 -2.36473e-15 -9.76489e-15)
(3.56684e-16 -9.64127e-16 2.57826e-15)
(8.39025e-16 -2.36473e-15 0)
(-1.67032e-15 -4.99091e-14 9.3745e-16)
(-3.21554e-16 -2.16619e-15 1.57452e-16)
(0 -2.41521e-18 7.72204e-24)
(3.4742e-15 -6.75376e-15 1.65644e-21)
(0 0 1.78626e-14)
(0 0 -6.0655e-16)
(-9.72593e-15 0 1.97958e-14)
(0 0 5.1131e-15)
(-2.70061e-15 0 -1.24107e-14)
(0 0 -1.95658e-14)
(0 0 -2.29674e-14)
(2.30368e-14 0 2.21283e-14)
(0 3.88543e-14 2.37332e-14)
(2.40019e-20 0 -3.13226e-14)
(0 0 -1.39974e-14)
(-8.09091e-15 0 1.81527e-18)
(0 -1.49738e-14 3.08579e-15)
(0 -4.22265e-15 1.0429e-14)
(0 0 -1.1951e-14)
(0 0 9.47463e-15)
(0 0 1.01838e-15)
(0 0 0)
(0 0 2.75678e-14)
(0 0 -5.01406e-15)
(0 0 5.75993e-15)
(0 0 6.19864e-15)
(0 0 5.68434e-16)
(0 0 -3.7773e-14)
(0 0 0)
(0 0 -2.70815e-14)
(0 0 0)
(0 0 1.40587e-14)
(0 0 -1.49267e-14)
(0 0 5.99624e-15)
(0 0 0)
(0 9.26755e-15 8.48356e-15)
(0 -1.81855e-14 3.67329e-14)
(0 2.87588e-16 1.94892e-15)
(0 8.69191e-16 0)
(0 -5.65186e-14 8.81889e-15)
(3.09208e-14 9.49419e-15 -1.20055e-14)
(0 -9.44154e-15 1.46572e-14)
(0 0 -1.85458e-14)
(0 0 2.88996e-15)
(0 6.76331e-21 4.8386e-15)
(0 0 1.04087e-14)
(0 0 2.3435e-14)
(0 0 -3.30409e-14)
(0 0 -1.0348e-14)
(0 0 -3.6829e-14)
(4.13488e-19 0 5.71533e-15)
(0 0 -3.7654e-15)
(0 0 6.87324e-15)
(0 0 -1.05429e-14)
(0 0 -1.00948e-14)
(-1.45999e-14 0 2.66727e-14)
(-1.4676e-14 0 7.72286e-15)
(0 0 1.05108e-14)
(-1.46475e-14 0 -6.52773e-15)
(-1.46593e-14 0 8.16285e-15)
(0 0 1.09235e-14)
(-1.86359e-14 0 -9.3823e-15)
(0 0 -5.87752e-15)
(0 0 -3.2482e-15)
(0 0 3.43377e-14)
(0 0 5.76671e-15)
(0 0 -3.58493e-14)
(0 0 -4.70855e-15)
(0 0 8.12049e-15)
(0 0 -5.49838e-15)
(0 0 -1.44155e-16)
(0 0 1.43213e-14)
(0 0 -2.74459e-15)
(0 0 2.02245e-16)
(0 0 -3.30442e-14)
(0 0 -1.90372e-14)
(0 0 -8.74637e-15)
(0 0 -2.73549e-16)
(0 0 2.59425e-14)
(0 0 -5.0493e-15)
(0 0 5.44362e-15)
(0 0 -3.70402e-14)
(0 0 -1.74699e-14)
(0 0 2.0131e-15)
(0 0 2.52086e-15)
(0 0 3.56822e-14)
(0 0 -1.95851e-15)
(0 0 0)
(0 0 1.60999e-14)
(0 0 9.88498e-15)
(0 0 2.014e-15)
(0 0 2.15169e-15)
(0 0 3.58168e-14)
(0 0 -3.77214e-16)
(0 0 0)
(0 0 1.34926e-14)
(0 0 1.02171e-14)
(-1.21639e-14 -1.90231e-20 -1.13676e-14)
(0 2.3357e-18 4.98097e-15)
(0 0 4.83278e-14)
(0 1.27559e-18 1.52904e-14)
(0 0 1.7695e-14)
(0 0 -3.61453e-14)
(0 0 -9.44001e-15)
(0 0 1.57064e-14)
(-1.28829e-14 0 -2.77985e-14)
(0 0 -1.76008e-14)
(-1.11557e-14 0 -2.77281e-14)
(0 0 1.5964e-15)
(0 0 6.82648e-15)
(-6.40956e-21 9.00754e-16 1.26477e-14)
(0 -1.10851e-15 -9.9476e-16)
(-7.36239e-22 0 -2.53781e-14)
(0 0 8.42622e-15)
(0 0 7.80081e-15)
(-8.51454e-15 0 -1.89845e-14)
(2.27138e-17 -3.45121e-14 1.09658e-14)
(-9.94437e-15 -3.90945e-14 6.78061e-15)
(-9.18008e-15 0 9.46487e-17)
(-7.53562e-15 0 7.7512e-15)
(-8.8838e-15 0 4.65838e-16)
(-2.30443e-14 9.40713e-15 7.75212e-15)
(-8.81783e-20 -5.44656e-14 0)
(-6.55613e-16 0 -4.49826e-19)
(-3.72736e-16 2.4786e-15 0)
(-3.65052e-16 2.88582e-15 0)
(4.43739e-19 0 1.8789e-20)
(-1.89885e-16 0 1.07105e-18)
(-1.35674e-15 -2.53082e-18 1.00322e-14)
(-2.96132e-17 0 4.31493e-19)
(-1.61771e-15 0 -3.18091e-14)
(7.74583e-15 0 -3.18854e-15)
(-9.85601e-16 0 -3.15922e-14)
(5.43435e-22 0 -1.58847e-15)
(-4.03865e-17 0 1.41682e-15)
(1.89364e-15 -2.22815e-14 3.19813e-15)
(-2.82625e-16 1.91256e-15 -4.82821e-15)
(5.74426e-15 0 -2.17076e-14)
(6.04422e-46 0 0)
(5.32204e-20 0 1.16828e-16)
(-1.46999e-15 -3.01139e-14 7.2856e-18)
(8.77235e-15 0 1.11697e-14)
(4.85832e-18 9.07937e-15 -2.58078e-16)
(0 1.97778e-73 1.33999e-14)
(0 1.97655e-67 -8.88294e-15)
(0 3.28622e-14 -6.59664e-17)
(0 -1.24e-29 -1.00451e-17)
(0 3.35311e-14 1.79716e-14)
(0 -5.14833e-28 -3.79913e-15)
(0 1.32726e-64 1.56656e-14)
(0 3.58878e-14 -1.52074e-14)
(0 -6.62672e-26 0)
(0 0 0)
(0 0 -1.54023e-14)
(0 0 -1.24596e-14)
(0 2.11581e-71 -2.40031e-14)
(0 0 1.41786e-15)
(0 1.15934e-73 -2.18656e-16)
(0 0 1.44122e-14)
(0 0 1.1684e-14)
(0 -1.37979e-70 9.49694e-15)
(0 0 -3.90302e-14)
(0 -2.48153e-70 -9.02175e-15)
(0 0 4.45417e-14)
(0 -1.93834e-72 3.8109e-14)
(0 0 -8.44381e-15)
(3.84367e-26 0 -1.74392e-14)
(0 0 -6.44291e-16)
(0 -4.62891e-68 0)
(0 8.95504e-63 -1.82597e-14)
(0 0 -1.12414e-17)
(0 0 9.67955e-15)
(1.75415e-25 3.01223e-64 2.84217e-16)
(0 3.63798e-14 0)
(0 -1.23545e-17 -2.53701e-14)
(0 3.63798e-14 0)
(0 3.08929e-18 2.54366e-20)
(0 3.63798e-14 7.00399e-16)
(0 0 4.43371e-16)
(0 3.51983e-14 -5.23126e-15)
(0 -1.66591e-16 3.15188e-15)
(0 3.51147e-14 -3.38133e-15)
(0 -1.16819e-86 0)
(0 1.16972e-81 0)
(0 -5.00433e-84 0)
(0 5.90723e-74 0)
(0 3.63557e-14 0)
(0 0 0)
(0 3.55042e-14 -7.37499e-16)
(0 0 4.9534e-15)
(0 -5.25498e-28 0)
(0 3.63798e-14 3.30459e-16)
(0 -1.95668e-26 0)
(0 2.9526e-73 0)
(0 2.19384e-73 0)
(0 4.65469e-71 0)
(0 8.08473e-64 0)
(0 -2.57266e-59 -1.01925e-14)
(0 3.56332e-14 0)
(0 0 7.44504e-20)
(0 3.55785e-14 2.05171e-17)
(0 0 8.19896e-20)
(0 -6.33867e-25 0)
(0 3.63798e-14 4.89401e-15)
(0 3.63798e-14 1.82434e-14)
(0 -1.94103e-23 0)
(0 -1.51836e-24 0)
(0 7.22512e-66 0)
(0 0 0)
(0 3.35881e-62 0)
(0 9.10457e-56 0)
(0 0 -2.01288e-15)
(0 3.55785e-14 0)
(0 0 0)
(0 3.55785e-14 8.17944e-18)
(0 0 0)
(1.22555e-22 3.56287e-14 -6.23452e-15)
(0 -6.22248e-22 0)
(0 -2.7875e-23 0)
(0 3.54014e-14 -1.26459e-17)
(0 -1.49395e-20 0)
(1.52246e-22 -7.37027e-41 7.51621e-16)
(0 0 0)
(0 0 0)
(0 0 0)
(0 0 -1.42584e-15)
(0 3.56402e-14 0)
(0 0 -9.60227e-21)
(0 3.58978e-14 0)
(0 0 -9.84062e-21)
(0 -3.39538e-19 0)
(4.72485e-19 0 -5.46248e-15)
(0 3.51596e-14 3.38481e-15)
(0 -6.08777e-18 0)
(4.75507e-18 0 4.66252e-15)
(0 0 0)
(-6.2762e-16 -5.86468e-15 2.61384e-14)
(0 0 0)
(0 0 0)
(0 -2.08953e-14 2.68557e-14)
(-2.17222e-14 3.20139e-14 3.3675e-14)
(0 0 0)
(3.21262e-14 -2.15068e-14 2.27216e-14)
(0 0 0)
(0 0 0)
(0 0 0)
(0 3.53207e-81 0)
(0 0 0)
(0 2.6439e-83 0)
(0 0 0)
(0 0 0)
(0 5.10795e-79 6.17731e-17)
(0 0 0)
(0 2.61518e-78 0)
(0 0 0)
(0 5.93668e-81 0)
(0 0 0)
(0 0 0)
(0 0 0)
(0 0 0)
(0 2.82826e-78 0)
(0 0 0)
(0 4.51977e-76 0)
(0 0 0)
(0 0 0)
(0 2.31997e-76 8.10108e-16)
(0 0 0)
(0 2.26451e-72 0)
(0 0 0)
(0 4.76417e-74 6.04976e-15)
(0 0 0)
(0 0 0)
(0 0 0)
(0 1.01351e-75 0)
(0 1.08307e-70 0)
(0 0 0)
(0 0 0)
(0 4.06977e-73 0)
(0 0 0)
(0 8.09585e-69 5.05148e-16)
(0 0 0)
(0 1.84543e-70 0)
(0 0 0)
(0 2.11036e-71 0)
(0 0 0)
(0 0 0)
(0 0 0)
(0 1.30256e-68 0)
(0 3.20543e-68 0)
(0 0 0)
(0 0 0)
(0 4.73748e-66 0)
(0 0 1.73134e-14)
(0 2.91247e-66 3.807e-15)
(0 0 0)
(0 9.96746e-62 0)
(0 0 0)
(0 7.97709e-64 2.03061e-14)
(0 0 0)
(4.54149e-25 0 2.99835e-14)
(0 2.98115e-62 1.52834e-14)
(0 0 -4.36035e-14)
(1.98296e-23 5.56667e-60 -1.40094e-14)
(0 0 1.55077e-15)
(2.02456e-24 3.93107e-62 3.67401e-14)
(3.49614e-24 0 -1.10365e-14)
(0 0 0)
(0 0 0)
(0 6.50573e-68 0)
(0 2.02004e-63 0)
(0 0 0)
(0 0 0)
(0 1.59498e-65 0)
(0 0 0)
(0 2.80288e-61 1.73459e-16)
(0 0 0)
(0 0 0)
(0 0 0)
(0 9.82243e-64 0)
(0 0 0)
(0 0 9.41649e-16)
(0 0 0)
(0 7.24366e-60 8.00184e-15)
(0 5.29304e-61 0)
(0 0 -5.3536e-15)
(0 0 0)
(0 5.62004e-58 0)
(4.21117e-22 0 2.76627e-14)
(0 0 -9.18246e-15)
(2.11758e-22 7.22838e-58 1.44122e-14)
(0 5.62206e-54 2.51847e-14)
(2.90118e-23 0 -2.38563e-14)
(0 0 6.49773e-16)
(1.89593e-21 8.59624e-56 5.72184e-16)
(0 0 3.64413e-15)
(0 6.94663e-59 1.12879e-15)
(0 0 0)
(0 0 -1.18608e-14)
(0 0 0)
(0 1.51261e-56 6.01245e-15)
(0 0 -1.65416e-15)
(0 0 0)
(0 0 0)
(0 0 0)
(0 0 0)
(0 0 0)
(0 0 0)
(0 0 0)
(0 0 0)
(0 0 3.09019e-16)
(0 0 0)
(0 0 0)
(0 0 0)
(0 0 0)
(0 0 0)
(0 0 1.00883e-14)
(0 0 0)
(0 0 6.65334e-15)
(0 0 0)
(0 0 -4.72851e-15)
(0 0 0)
(0 0 -6.27179e-15)
(0 0 1.81827e-15)
(0 0 2.01694e-15)
(0 0 0)
(0 0 -7.90563e-15)
(0 0 0)
(0 0 1.11917e-14)
(0 0 -1.70059e-15)
(0 0 -1.62515e-15)
(0 0 0)
(0 0 0)
(0 0 -5.32976e-17)
(0 0 -2.66338e-15)
(0 0 -5.86581e-18)
(0 0 -5.3755e-16)
(0 0 -6.75601e-15)
(0 0 7.43558e-16)
(0 0 4.82308e-16)
(0 0 -3.80069e-19)
(0 0 2.70447e-14)
(0 0 -1.93923e-18)
(0 0 1.16669e-17)
(0 2.95329e-14 0)
(0 0 0)
(0 -8.88737e-17 0)
(3.53116e-17 0 0)
(0 3.15988e-14 -1.56952e-17)
(0 -9.23783e-16 -2.0494e-17)
(0 0 6.36356e-16)
(0 0 0)
(0 0 0)
(0 0 6.13218e-16)
(0 0 1.24876e-15)
(0 0 6.31811e-16)
(0 0 6.35318e-16)
(0 0 8.67849e-16)
(0 0 0)
(0 0 1.04417e-14)
(0 0 -2.88735e-16)
(0 0 -4.5983e-15)
(0 0 -3.58749e-17)
(0 0 -1.9461e-15)
(0 3.59685e-14 0)
(0 2.16206e-15 2.35584e-14)
(0 2.75691e-14 0)
(0 2.77152e-15 6.72662e-18)
(0 2.69194e-14 0)
(0 2.69352e-15 0)
(0 2.75084e-14 0)
(0 -3.22282e-15 -2.77065e-19)
(0 0 -2.44346e-15)
(0 0 0)
(0 0 0)
(0 1.03536e-14 -3.03726e-14)
(0 0 0)
(0 2.60262e-14 -6.83718e-15)
(0 0 0)
(0 0 0)
(0 0 0)
(0 0 0)
(0 0 0)
(0 1.03536e-14 0)
(0 9.46037e-15 0)
(0 0 0)
(0 2.69194e-14 0)
(0 0 0)
(0 0 0)
(0 0 0)
(0 0 0)
(0 0 0)
(0 9.46037e-15 0)
(0 9.46037e-15 0)
(0 0 0)
(0 2.69194e-14 0)
(0 0 0)
(0 0 0)
(0 0 0)
(0 1.01079e-14 0)
(0 0 0)
(0 0 0)
(0 0 -3.89783e-15)
(0 0 0)
(0 0 -3.33971e-15)
(0 0 0)
(0 0 -2.9276e-15)
(0 0 0)
(0 0 0)
(0 0 0)
(0 0 0)
(0 0 0)
(0 0 0)
(0 0 0)
(0 0 0)
(0 0 0)
(0 0 0)
(0 0 0)
(0 0 0)
(0 0 0)
(0 0 0)
(0 0 0)
(0 0 0)
(0 0 0)
(0 0 0)
(0 0 0)
(0 0 0)
(0 0 0)
(0 0 0)
(0 0 0)
(0 0 0)
(0 0 0)
(0 0 0)
(0 0 0)
(0 0 0)
(0 0 0)
(0 0 0)
(0 0 0)
(0 0 0)
(0 0 0)
(0 0 0)
(0 0 0)
(0 0 0)
(0 0 0)
(0 0 0)
(0 0 0)
(0 0 0)
(0 0 0)
(0 0 0)
(0 0 0)
(0 0 0)
(0 0 0)
(0 0 0)
(0 0 0)
(0 0 0)
(0 0 0)
(0 0 0)
(0 0 0)
(0 0 0)
(0 0 0)
(0 0 0)
(0 0 0)
(0 0 0)
(0 0 0)
(0 0 0)
(0 0 0)
(0 0 0)
(0 0 0)
(0 0 0)
(0 0 0)
(0 0 0)
(0 0 0)
(0 0 0)
(0 0 0)
(0 0 0)
(0 0 0)
(0 0 0)
(0 0 0)
(0 0 0)
(0 0 0)
(0 0 0)
(0 0 0)
(0 0 0)
(0 0 0)
(0 0 0)
(0 0 0)
(0 0 0)
(0 0 0)
(0 0 0)
(0 0 0)
(0 0 0)
(0 0 0)
(0 0 -2.42736e-17)
(-2.05844e-16 0 -1.93597e-16)
(0 0 -6.68296e-16)
(0 0 -2.51978e-15)
(-4.35442e-20 -3.41366e-16 0)
(-6.24932e-21 -3.65507e-16 0)
(-1.72483e-16 -3.63027e-16 2.04049e-14)
(0 0 0)
(0 0 0)
(0 0 0)
(0 0 0)
(0 0 3.2004e-15)
(0 0 -3.36155e-15)
(-2.45058e-17 -6.18476e-22 1.08466e-26)
(0 0 0)
(0 0 0)
(0 0 0)
(0 0 0)
(0 0 0)
(0 0 0)
(0 0 3.1692e-30)
(0 0 0)
(0 0 0)
(0 0 0)
(0 0 0)
(0 0 0)
(0 0 0)
(0 0 0)
(0 0 0)
(0 0 0)
(0 -3.99537e-15 0)
(0 0 0)
(0 -2.07719e-25 1.76532e-14)
(0 -3.58456e-18 -2.1551e-14)
(-3.48611e-16 -7.2681e-17 0)
(0 0 0)
(0 0 0)
(0 0 0)
(0 0 0)
(0 0 1.34576e-14)
(0 0 -1.88449e-14)
(-2.70126e-25 5.15707e-17 3.38036e-26)
(0 0 0)
(0 0 0)
(0 0 0)
(0 0 0)
(0 0 0)
(0 0 0)
(0 0 0)
(0 0 0)
(0 0 0)
(0 0 0)
(0 0 0)
(0 0 0)
(0 0 0)
(0 1.50538e-18 -4.1025e-32)
(0 0 0)
(0 0 0)
(0 0 0)
(0 0 0)
(0 0 0)
(0 0 0)
(0 0 0)
(0 0 0)
(0 0 0)
(0 0 0)
(0 0 0)
(0 0 0)
(0 0 0)
(0 3.19938e-20 0)
(0 0 -5.35384e-17)
(-2.5242e-15 1.59826e-14 4.3016e-19)
(0 4.97191e-15 -7.80535e-15)
(0 -7.11283e-15 1.06264e-14)
(0 0 -2.69339e-16)
(0 1.44029e-20 2.58864e-14)
(0 -5.73725e-19 0)
(0 0 -2.82902e-18)
(0 0 0)
(0 0 -5.27828e-20)
(0 1.32905e-19 -1.58595e-22)
(0 -5.94653e-19 -1.59711e-23)
(0 0 0)
(0 0 0)
(0 0 4.34273e-16)
(0 1.0111e-18 -2.98959e-20)
(0 -7.19493e-19 -1.95207e-23)
(0 0 0)
(0 0 0)
(0 0 3.25327e-15)
(0 1.04962e-18 1.3514e-20)
(0 -7.18422e-19 0)
(0 0 0)
(0 0 0)
(5.03175e-25 0 -4.60158e-16)
(0 1.39147e-18 -9.19644e-19)
(0 -6.22744e-19 -1.04026e-22)
(0 0 5.49244e-17)
(0 0 0)
(1.17279e-21 0 -1.28912e-17)
(0 -1.26517e-18 6.22363e-19)
(0 -5.45621e-21 7.68594e-23)
(0 0 -4.39366e-17)
(0 0 -1.61332e-23)
(3.63571e-17 1.53807e-25 4.31022e-15)
(0 0 3.21621e-22)
(0 -1.06607e-24 1.31886e-24)
(0 0 0)
(0 0 0)
(0 0 0)
(2.86199e-17 -5.88245e-24 1.36237e-23)
(0 9.03961e-30 0)
(0 0 0)
(0 -7.78557e-30 0)
(0 0 0)
(0 0 0)
(0 0 0)
(0 0 -4.75885e-29)
(0 0 0)
(0 0 0)
(0 0 0)
(0 0 0)
(0 0 0)
(0 0 0)
(0 0 0)
(0 0 0)
(0 0 0)
(0 0 0)
(0 0 0)
(0 0 0)
(0 0 0)
(0 0 0)
(-2.78728e-21 1.81899e-14 0)
(0 0 0)
(0 0 0)
(0 0 0)
(0 0 2.49401e-14)
(6.39555e-25 0 3.16699e-14)
(0 0 9.15585e-15)
(0 0 2.46558e-14)
(4.80095e-28 0 0)
(0 0 0)
(0 0 0)
(0 0 0)
(0 0 5.17681e-15)
(0 0 2.16522e-14)
(0 0 -1.38137e-14)
(0 0 2.30532e-14)
(0 0 2.63611e-14)
(0 0 0)
(0 0 0)
(0 0 0)
(0 0 0)
(0 0 0)
(0 0 0)
(0 0 0)
(0 0 0)
(0 0 0)
(0 0 0)
(0 0 0)
(0 0 0)
(0 0 0)
(0 0 0)
(0 0 0)
(0 0 0)
(0 0 0)
(0 0 0)
(0 0 0)
(0 0 0)
(0 0 0)
(0 0 0)
(0 0 0)
(0 0 0)
(0 0 -2.39963e-15)
(-7.44461e-19 1.81899e-14 2.15678e-16)
(0 0 0)
(0 0 0)
(0 0 3.87193e-18)
(0 0 0)
(1.08226e-23 0 1.96319e-17)
(0 0 6.8034e-18)
(0 0 0)
(4.01171e-26 0 0)
(0 0 0)
(0 0 0)
(0 0 0)
(0 0 0)
(0 0 0)
(0 0 0)
(0 0 0)
(0 0 0)
(0 0 0)
(0 0 0)
(0 0 0)
(0 0 0)
(0 0 0)
(0 0 0)
(0 0 0)
(0 0 0)
(0 0 0)
(0 0 0)
(0 0 0)
(0 0 0)
(0 0 0)
(0 0 0)
(0 0 0)
(0 0 0)
(0 0 0)
(0 0 0)
(0 0 0)
(0 0 0)
(0 0 0)
(0 0 0)
(0 0 0)
(0 0 0)
(0 0 0)
(1.28465e-25 0 -9.80658e-16)
(0 0 1.29489e-14)
(0 0 7.00392e-15)
(0 0 0)
(-2.33115e-17 1.81899e-14 0)
(0 1.81899e-14 -3.34824e-15)
(0 0 0)
(0 0 0)
(0 0 0)
(0 0 -3.66836e-15)
(1.28235e-21 0 0)
(0 0 0)
(0 0 0)
(2.9872e-24 0 0)
(0 0 0)
(0 0 0)
(0 0 0)
(0 0 0)
(0 0 0)
(0 0 0)
(0 0 0)
(0 0 0)
(0 0 0)
(0 0 0)
(0 0 0)
(0 0 0)
(0 0 0)
(0 0 0)
(0 0 0)
(0 0 0)
(0 0 0)
(0 0 0)
(0 0 0)
(0 0 0)
(0 0 0)
(0 0 0)
(0 0 0)
(0 0 0)
(0 0 0)
(0 0 0)
(0 0 0)
(0 0 0)
(0 0 0)
(0 0 0)
(0 0 0)
(0 0 0)
(0 0 -1.83273e-16)
(-1.45713e-22 0 -5.9694e-17)
(0 0 0)
(0 0 -9.2969e-16)
(0 0 1.55507e-14)
(0 3.95849e-14 2.70016e-14)
(0 3.63798e-14 2.30041e-14)
(0 0 0)
(0 1.81899e-14 0)
(0 1.81899e-14 5.10747e-18)
(0 1.81899e-14 1.6235e-14)
(0 0 0)
(0 0 0)
(0 0 0)
(0 0 0)
(4.63679e-20 0 -7.43065e-18)
(0 0 -2.78366e-19)
(0 0 0)
(1.91139e-22 0 0)
(0 0 0)
(0 0 0)
(0 0 0)
(0 0 0)
(0 0 0)
(0 0 0)
(0 0 0)
(0 0 0)
(0 0 0)
(0 0 0)
(0 0 0)
(0 0 0)
(0 0 0)
(0 0 0)
(0 0 0)
(0 0 0)
(0 0 0)
(0 0 0)
(0 0 0)
(0 0 0)
(0 0 0)
(0 0 0)
(0 0 0)
(0 0 0)
(0 0 0)
(0 0 0)
(0 0 0)
(0 0 0)
(0 0 0)
(0 0 0)
(0 0 0)
(0 0 0)
(0 0 -5.13355e-24)
(-3.10159e-14 0 4.60214e-17)
(0 0 -1.64666e-16)
(0 0 0)
(0 0 0)
(0 0 0)
(0 0 -9.7707e-16)
(0 0 1.54289e-14)
(0 3.32156e-14 2.26641e-14)
(0 3.31316e-14 2.28712e-14)
(0 0 0)
(0 1.81899e-14 -2.04658e-16)
(0 1.81899e-14 -2.52528e-16)
(0 1.81899e-14 -2.13566e-16)
(3.97147e-17 1.81899e-14 1.0757e-17)
(0 1.81899e-14 8.25516e-18)
(0 1.33176e-14 4.41537e-17)
(0 0 0)
(0 0 0)
(0 0 0)
(0 0 0)
(0 0 0)
(0 0 0)
(0 0 0)
(1.02168e-20 0 0)
(0 0 0)
(0 0 0)
(0 0 0)
(0 0 0)
(0 0 0)
(0 0 0)
(0 0 0)
(0 0 0)
(0 0 0)
(0 0 0)
(0 0 0)
(0 0 0)
(0 0 0)
(0 0 0)
(0 0 0)
(0 0 0)
(0 0 0)
(0 0 0)
(0 0 0)
(0 0 0)
(0 0 0)
(0 0 0)
(0 0 0)
(0 0 0)
(0 0 0)
(0 0 0)
(0 0 0)
(0 0 0)
(0 0 0)
(0 0 0)
(0 0 0)
(0 0 0)
(0 0 0)
(-1.81899e-14 0 -4.06593e-15)
(0 0 1.56035e-16)
(0 0 0)
(0 0 0)
(0 2.32585e-16 6.99518e-15)
(0 0 0)
(0 0 8.12049e-16)
(0 0 -1.81899e-14)
(0 0 0)
(0 -1.77027e-14 -7.82855e-15)
(0 1.81899e-14 -1.65569e-16)
(1.57957e-16 1.81899e-14 1.24664e-14)
(0 1.81899e-14 7.01171e-15)
(0 1.46724e-14 1.16441e-14)
(0 0 0)
(0 0 0)
(0 3.18488e-14 -1.05566e-15)
(0 0 -2.76097e-14)
(0 0 -1.05566e-15)
(0 0 -2.69397e-14)
(0 3.22586e-35 -3.90034e-16)
(0 0 0)
(0 0 0)
(0 0 0)
(0 0 -1.05566e-15)
(0 0 0)
(0 0 -4.06024e-16)
(0 0 0)
(1.73896e-19 0 -1.43404e-16)
(0 0 0)
(0 0 0)
(0 0 0)
(0 0 0)
(0 0 0)
(0 0 0)
(0 0 0)
(0 0 0)
(0 0 0)
(0 0 0)
(0 0 0)
(0 0 0)
(0 0 0)
(0 0 0)
(0 0 0)
(0 0 0)
(0 0 0)
(0 0 0)
(0 0 0)
(0 0 0)
(0 0 0)
(0 0 0)
(0 0 0)
(0 0 0)
(0 0 0)
(0 0 0)
(0 0 0)
(0 0 0)
(0 0 0)
(0 0 0)
(0 0 0)
(0 0 0)
(0 0 -7.10702e-16)
(0 0 -3.98588e-15)
(0 -3.18488e-14 -4.54747e-15)
(0 0 -1.81899e-14)
(0 -4.41419e-24 -1.59162e-14)
(0 -3.40302e-17 1.10514e-14)
(0 0 -3.33736e-15)
(0 0 -2.35845e-14)
(0 0 -2.72848e-14)
(0 0 -1.81899e-14)
(0 -1.70852e-21 -2.01794e-14)
(0 -3.60362e-20 2.43615e-15)
(-3.63506e-14 3.78248e-16 4.39806e-15)
(0 0 0)
(0 0 0)
(0 3.18488e-14 -2.43615e-15)
(0 0 -2.90713e-14)
(0 0 -2.43615e-15)
(0 0 -2.76097e-14)
(0 4.6553e-19 2.20374e-15)
(0 0 0)
(0 0 0)
(0 0 0)
(0 0 -2.43615e-15)
(0 0 0)
(0 0 -1.05566e-15)
(0 0 0)
(-3.19996e-17 0 2.29463e-14)
(0 0 0)
(0 0 0)
(0 0 0)
(0 0 0)
(0 0 0)
(0 0 0)
(0 0 0)
(0 0 0)
(0 0 0)
(0 0 0)
(0 0 0)
(0 0 0)
(0 0 0)
(0 0 0)
(0 0 0)
(0 0 0)
(0 0 0)
(0 0 0)
(0 0 0)
(0 0 0)
(0 0 0)
(0 0 0)
(0 0 0)
(0 0 0)
(0 0 0)
(0 0 0)
(0 0 0)
(0 0 0)
(0 0 0)
(0 0 0)
(0 0 0)
(0 0 0)
(0 0 0)
(0 0 0)
(0 0 0)
(0 0 0)
(0 0 0)
(0 0 0)
(0 0 0)
(0 0 0)
(0 0 0)
(0 0 0)
(0 0 0)
(0 0 0)
(0 0 0)
(0 0 0)
(0 0 0)
(-6.4734e-17 3.19051e-21 3.70991e-26)
(0 0 0)
(0 0 0)
(0 0 0)
(0 0 0)
(0 0 0)
(0 0 0)
(0 0 0)
(0 0 0)
(0 0 0)
(0 0 0)
(0 0 0)
(0 0 0)
(0 0 0)
(0 0 0)
(0 0 0)
(0 0 0)
(0 0 0)
(0 0 0)
(0 0 0)
(0 0 0)
(0 0 0)
(0 0 0)
(0 0 0)
(0 0 0)
(0 0 0)
(0 0 0)
(0 0 0)
(0 0 0)
(0 0 0)
(0 0 0)
(0 0 0)
(0 0 0)
(0 0 0)
(0 0 0)
(0 0 0)
(0 0 0)
(0 0 0)
(0 0 0)
(0 0 0)
(0 0 0)
(0 0 0)
(0 0 0)
(0 0 0)
(0 0 0)
(0 0 0)
(0 0 0)
(0 0 0)
(0 0 0)
(0 0 0)
(0 0 0)
(0 0 0)
(0 0 0)
(0 0 0)
(0 0 0)
(0 0 0)
(0 0 -4.11058e-32)
(0 0 0)
(0 0 0)
(0 0 0)
(0 0 0)
(0 0 0)
(0 0 0)
(0 0 0)
(0 0 0)
(0 0 0)
(0 0 0)
(0 0 0)
(0 0 0)
(0 0 0)
(0 0 0)
(0 0 0)
(0 0 0)
(0 0 0)
(0 0 0)
(0 0 0)
(0 0 0)
(0 0 0)
(0 0 0)
(0 0 0)
(0 0 0)
(0 0 0)
(0 0 0)
(0 0 0)
(0 0 0)
(0 0 0)
(0 0 0)
(0 0 0)
(0 0 0)
(0 0 0)
(0 0 0)
(0 0 0)
(0 0 0)
(0 0 0)
(0 0 0)
(0 0 0)
(0 0 0)
(0 0 0)
(0 0 0)
(0 0 0)
(0 0 0)
(0 0 0)
(0 0 0)
(0 0 0)
(0 0 0)
(0 0 0)
(0 0 0)
(0 0 0)
(0 0 0)
(0 0 0)
(0 0 0)
(0 0 0)
(0 0 0)
(0 0 0)
(0 0 0)
(0 0 0)
(0 0 0)
(0 0 0)
(0 0 0)
(0 0 0)
(0 0 0)
(0 0 0)
(0 0 0)
(0 0 0)
(0 0 0)
(0 0 0)
(0 0 0)
(0 0 0)
(0 0 0)
(0 0 0)
(0 0 0)
(0 0 0)
(0 0 0)
(0 0 0)
(0 0 0)
(0 0 0)
(0 0 0)
(0 0 0)
(0 0 0)
(0 0 0)
(0 0 0)
(0 0 0)
(0 0 0)
(0 0 0)
(0 0 0)
(0 0 0)
(0 0 0)
(0 0 0)
(0 0 0)
(0 0 0)
(0 0 0)
(0 0 0)
(0 0 0)
(0 0 0)
(0 0 0)
(0 0 0)
(0 0 0)
(0 0 0)
(0 0 0)
(0 0 0)
(0 0 0)
(0 0 -7.13672e-15)
(2.56574e-24 0 -1.15837e-15)
(-3.63798e-14 0 -4.43588e-15)
(0 0 -4.59125e-15)
(-2.66873e-14 0 8.70011e-15)
(0 0 1.31764e-14)
(0 0 -6.49639e-16)
(0 0 0)
(-1.95912e-14 0 2.0955e-14)
(0 0 -9.65939e-16)
(-3.63798e-14 0 -9.39127e-17)
(0 0 0)
(-2.76618e-14 0 -1.19062e-14)
(5.1577e-22 0 -5.4356e-16)
(-3.63402e-14 0 0)
(0 0 -5.44568e-15)
(-2.6542e-14 0 1.89668e-14)
(0 0 2.14894e-14)
(0 0 0)
(0 0 -1.17418e-15)
(0 0 -1.43458e-14)
(0 0 0)
(0 0 0)
(0 0 0)
(0 0 -8.88785e-16)
(0 0 4.59259e-15)
(0 0 0)
(0 3.63798e-14 -1.07927e-14)
(0 3.61975e-14 -1.19718e-14)
(0 0 0)
(0 0 -1.02156e-15)
(0 0 -2.68517e-14)
(0 0 0)
(0 0 2.76097e-14)
(0 0 3.08579e-14)
(0 0 0)
(0 0 0)
(0 0 3.5138e-14)
(0 4.07638e-15 3.13502e-14)
(0 0 3.44309e-14)
(0 2.83346e-14 1.42529e-14)
(0 0 -1.69102e-14)
(0 0 0)
(0 0 0)
(0 -9.09888e-15 3.39436e-14)
(0 -2.51217e-14 1.917e-14)
(0 6.09153e-18 2.61365e-14)
(-4.15363e-14 2.82406e-14 2.93451e-14)
(0 3.95849e-14 0)
(0 3.63798e-14 -4.83071e-15)
(0 0 0)
(0 0 -2.349e-15)
(0 0 0)
(0 0 0)
(0 0 1.6695e-14)
(0 0 0)
(0 0 4.66674e-16)
(0 0 -1.34446e-14)
(0 0 -1.69128e-14)
(0 3.63798e-14 1.03565e-14)
(0 0 3.077e-16)
(0 0 0)
(0 2.72557e-14 -1.08686e-14)
(0 3.63798e-14 0)
(0 0 0)
(0 0 0)
(0 0 1.95882e-15)
(0 0 0)
(0 0 0)
(0 0 2.16868e-15)
(0 0 -1.4193e-15)
(0 0 1.9115e-14)
(0 0 0)
(0 -2.49008e-14 3.20308e-14)
(0 -2.67955e-14 2.12509e-14)
(0 2.88627e-14 1.6553e-14)
(0 2.69132e-14 2.62513e-14)
(0 0 8.97437e-16)
(0 0 0)
(0 0 0)
(0 0 5.25581e-15)
(0 0 5.13887e-16)
(0 0 2.84214e-15)
(0 0 9.44231e-15)
(0 0 -8.97947e-15)
(0 0 -8.87904e-15)
(0 0 3.59871e-14)
(0 0 3.86875e-15)
(0 0 0)
(0 0 -3.53641e-14)
(0 0 1.17666e-14)
(0 0 0)
(0 0 -2.22146e-15)
(0 0 0)
(0 0 0)
(0 0 0)
(0 0 0)
(0 0 0)
(0 0 1.72341e-14)
(0 0 3.4785e-16)
(0 0 -3.68781e-15)
(0 0 0)
(0 0 0)
(0 0 0)
(0 0 -1.64592e-14)
(0 0 0)
(0 0 0)
(0 0 2.19102e-15)
(0 0 0)
(0 0 8.79543e-16)
(0 0 0)
(0 0 1.1509e-16)
(0 0 2.16622e-15)
(0 0 2.33676e-15)
(0 0 0)
(0 0 -5.05294e-15)
(0 0 0)
(0 0 1.59638e-14)
(0 0 0)
(0 0 1.07772e-15)
(0 0 0)
(0 0 0)
(0 0 0)
(0 0 0)
(0 0 0)
(0 0 0)
(0 0 0)
(0 0 0)
(0 0 0)
(0 0 0)
(0 0 0)
(0 0 0)
(0 0 0)
(0 0 0)
(0 0 0)
(0 0 0)
(0 0 0)
(0 0 0)
(0 0 0)
(0 0 0)
(0 0 0)
(0 0 -1.97262e-15)
(0 0 0)
(0 0 0)
(0 0 0)
(0 0 0)
(0 0 0)
(0 0 1.18323e-14)
(0 0 0)
(0 0 0)
(0 0 6.16896e-15)
(0 0 -4.54747e-15)
(0 0 -5.38656e-16)
(0 0 1.30012e-14)
(0 0 1.28774e-15)
(0 0 0)
(0 0 0)
(0 0 1.8279e-15)
(0 0 0)
(0 0 1.38701e-15)
(0 0 1.31085e-15)
(0 0 -2.61343e-15)
(0 0 0)
(0 0 0)
(0 0 6.57515e-15)
(0 0 0)
(0 0 -4.93163e-15)
(0 0 4.71546e-15)
(0 0 -1.28506e-14)
(0 0 0)
(0 0 0)
(0 0 2.23777e-14)
(0 0 2.63732e-14)
(0 0 1.16372e-14)
(0 0 6.8251e-15)
(0 0 -4.01988e-15)
(0 0 1.80418e-14)
(0 0 0)
(0 0 -1.55788e-14)
(0 0 -1.04032e-14)
(0 0 -1.59208e-14)
(0 0 1.75855e-14)
(0 0 -1.932e-15)
(0 0 3.12082e-14)
(0 0 3.15708e-14)
(0 0 1.50211e-14)
(0 0 0)
(0 0 1.6241e-16)
(0 0 1.19371e-14)
(0 0 0)
(0 3.80662e-14 2.58976e-14)
(0 1.81899e-14 2.59856e-15)
(0 0 -2.03665e-15)
(0 0 0)
(0 0 -1.48188e-14)
(0 0 -2.63916e-14)
(0 3.80663e-14 1.91978e-14)
(0 1.81899e-14 5.04251e-17)
(0 2.7761e-14 -7.19129e-15)
(0 0 0)
(-2.63899e-14 0 1.6241e-16)
(0 0 0)
(0 0 0)
(-2.63899e-14 0 1.82965e-14)
(0 0 1.99379e-14)
(0 0 -1.453e-14)
(0 0 6.49639e-16)
(0 0 0)
(0 2.85701e-14 -1.41311e-14)
(0 0 0)
(0 0 1.64384e-17)
(0 0 9.89209e-16)
(-2.63899e-14 0 -1.34892e-14)
(0 0 1.84148e-15)
(0 0 9.98335e-16)
(-2.64905e-14 0 1.40585e-14)
(0 0 1.86955e-14)
(0 0 -1.62907e-14)
(0 0 -1.09499e-16)
(0 0 1.99161e-15)
(0 0 0)
(0 2.64294e-14 -1.49131e-14)
(0 3.63798e-14 -5.34302e-15)
(0 0 -1.20243e-21)
(0 0 0)
(-2.77322e-14 0 -1.93706e-14)
(0 0 8.63559e-15)
(0 0 0)
(0 3.63798e-14 5.22831e-15)
(0 0 2.15114e-16)
(0 0 1.1308e-15)
(0 0 0)
(0 0 0)
(0 0 0)
(0 0 -7.06878e-16)
(0 0 0)
(0 0 0)
(0 0 0)
(0 0 -7.46209e-16)
(0 0 0)
(0 0 6.20423e-16)
(0 0 1.47961e-15)
(0 0 1.57607e-15)
(0 0 2.23645e-16)
(0 0 -3.9715e-16)
(-3.02093e-15 0 -4.51413e-18)
(-4.26879e-16 0 0)
(-9.00131e-22 0 0)
(-2.40547e-14 0 1.84889e-16)
(0 0 -1.97809e-17)
(0 0 8.80679e-16)
(-3.31316e-14 0 1.11046e-15)
(0 0 0)
(-2.76081e-14 0 -1.41959e-14)
(0 0 -3.22999e-16)
(0 0 5.56712e-15)
(0 0 -4.77443e-15)
(0 0 -5.0354e-16)
(0 0 1.64542e-14)
(0 0 2.81365e-14)
(0 0 3.99503e-16)
(0 0 1.59019e-15)
(0 0 4.69337e-15)
(0 0 -1.14382e-15)
(0 0 -1.29818e-14)
(0 3.63798e-14 9.38178e-15)
(0 0 0)
(0 0 0)
(0 0 -1.31821e-14)
(0 0 -5.40761e-16)
(0 0 -4.0678e-15)
(0 0 -2.67281e-15)
(0 3.57875e-14 -9.21542e-18)
(0 0 0)
(0 0 0)
(0 0 -1.23385e-14)
(0 1.11611e-14 2.53648e-15)
(0 0 -4.24854e-15)
(0 0 -1.08532e-15)
(0 0 -3.85925e-15)
(0 0 -1.09935e-15)
(0 0 0)
(0 0 0)
(0 0 4.0026e-15)
(0 0 -4.38816e-15)
(0 0 -1.65999e-14)
(0 0 1.94167e-15)
(0 0 -1.94655e-20)
(0 0 -2.31604e-21)
(0 0 1.29928e-15)
(0 0 0)
(0 0 -3.66142e-19)
(0 0 -4.9551e-20)
(0 0 1.38251e-14)
(0 7.16142e-15 0)
(0 8.81476e-16 0)
(0 0 -9.04716e-16)