/*--------------------------------*- C++ -*----------------------------------*\
  =========                 |
  \\      /  F ield         | OpenFOAM: The Open Source CFD Toolbox
   \\    /   O peration     | Website:  https://openfoam.org
    \\  /    A nd           | Version:  9
     \\/     M anipulation  |
\*---------------------------------------------------------------------------*/
FoamFile
{
    format      ascii;
    class       volScalarField;
    location    "0.00125";
    object      alpha.c4;
}
// * * * * * * * * * * * * * * * * * * * * * * * * * * * * * * * * * * * * * //

dimensions      [0 0 0 0 0 0 0];

internalField   nonuniform List<scalar> 
10384
(
5.47741e-08
2.3079e-09
8.8779e-08
2.35446e-07
3.66677e-07
1.727e-09
4.39755e-09
7.15639e-09
1.02786e-09
5.45163e-14
4.19712e-16
6.15231e-16
1.36969e-05
4.997e-07
4.10482e-07
4.28746e-08
2.1961e-07
3.54542e-09
5.43079e-09
2.42763e-10
4.43636e-10
2.39777e-13
7.46229e-12
1.35372e-12
1.19686e-12
6.61247e-13
0.000198543
2.1862e-05
0.000358261
3.22197e-06
0.000512573
6.80974e-06
0.000107488
9.05208e-05
1.09293e-06
1.4218e-06
1.77168e-05
2.80689e-06
3.88044e-05
4.78017e-05
9.53745e-06
6.76497e-07
7.94188e-06
7.46883e-08
2.39758e-05
2.50052e-07
2.81311e-06
2.78439e-06
1.86539e-08
1.41191e-08
1.44161e-07
6.75636e-08
7.29638e-07
6.12797e-07
9.66545e-09
2.01715e-09
1.88345e-08
3.70537e-11
9.66681e-08
1.84249e-10
1.58251e-09
5.89227e-10
2.13785e-12
2.8521e-12
4.041e-12
1.09744e-11
8.94073e-11
2.88237e-11
1.00691e-12
1.55256e-14
1.76965e-14
3.12581e-11
7.38351e-11
2.19198e-12
3.2047e-13
1.26035e-10
1.80125e-11
5.55549e-13
0.0134248
3.83444e-05
0.000359207
9.09515e-08
4.45642e-06
1.3332e-10
1.59821e-08
1.04523e-13
8.74093e-13
1.11217e-15
0.000589087
0.000103419
0.00373588
4.98499e-05
2.33702e-08
4.4158e-09
1.11737e-06
6.68498e-10
5.6192e-06
8.56432e-09
3.99037e-05
2.09947e-08
9.87684e-11
1.1924e-11
3.78119e-10
2.59585e-12
7.34139e-09
1.94715e-11
1.50642e-07
5.97057e-11
1.1195e-11
8.45698e-13
1.0362e-12
2.20865e-13
4.56361e-06
5.7554e-10
5.97493e-12
8.39858e-13
1.1731e-10
2.48555e-14
4.15196e-14
1.44243e-14
9.05719e-16
9.37061e-16
6.58776e-08
6.20152e-06
7.52733e-07
2.55241e-05
3.73912e-06
4.58829e-07
1.12539e-07
1.62055e-11
9.30634e-09
1.30486e-09
7.2512e-09
1.73746e-10
8.01813e-10
1.10079e-10
1.73442e-13
1.83904e-11
2.36112e-12
3.56697e-11
4.72616e-13
5.1803e-12
6.28108e-13
1.08205e-15
2.02058e-14
1.95627e-15
1.14829e-14
1.58688e-15
6.46492e-15
3.46877e-16
9.50288e-13
2.08038e-15
6.22044e-14
7.39726e-14
1.45738e-15
2.33837e-14
1.56156e-15
3.05075e-14
5.12633e-16
0.000852559
0.00422183
0.000153314
0.000459755
0.00354515
0.000108732
0.0010811
0.000406768
0.000217452
0.000723702
5.40872e-06
0.00207165
3.81289e-05
9.72355e-05
1.66144e-08
8.06447e-06
1.16935e-07
1.589e-08
9.74509e-07
1.23412e-07
2.06382e-09
1.09005e-06
0.000161057
4.27674e-07
4.65117e-07
1.18782e-05
2.34087e-05
3.51811e-08
1.82122e-07
6.84763e-08
1.1266e-06
2.01497e-09
3.81159e-06
5.94866e-09
6.00921e-08
3.2201e-12
1.15666e-09
5.02222e-11
6.68067e-12
1.4515e-10
1.92238e-11
1.29353e-12
6.13203e-09
3.90627e-07
7.24341e-10
1.9964e-09
2.1817e-08
1.08023e-07
1.97829e-10
1.29793e-09
4.18029e-10
3.34443e-09
6.8308e-12
2.2854e-08
4.15969e-11
2.10896e-10
3.46205e-14
7.39402e-12
1.72084e-13
1.82375e-14
1.04559e-12
1.2863e-13
1.45235e-14
7.57597e-09
6.26761e-06
9.40466e-08
3.27043e-07
1.29622e-07
4.03697e-07
6.13196e-09
1.38502e-10
1.73385e-09
2.33608e-09
1.12774e-10
3.39879e-10
1.55918e-08
6.19776e-10
1.20203e-11
1.77094e-08
2.96125e-10
1.24672e-11
6.41974e-12
3.05006e-13
5.63493e-12
2.50146e-13
2.20727e-12
3.413e-10
7.02501e-13
4.85419e-13
2.08151e-11
2.47141e-11
1.54675e-13
5.3613e-13
5.25862e-14
4.49517e-13
2.44976e-14
1.66279e-12
3.38051e-14
4.80818e-13
1.20057e-16
1.8848e-15
7.653e-16
2.69523e-17
1.55016e-15
6.75694e-17
6.89823e-17
7.0277e-14
1.74544e-15
1.3381e-15
6.33364e-14
1.37929e-15
7.1012e-14
6.88181e-14
2.77108e-17
1.66385e-18
4.71045e-17
1.47097e-15
2.55284e-17
2.67938e-17
6.96203e-19
6.77102e-14
2.83466e-15
5.12482e-14
3.22096e-15
5.69641e-16
1.66632e-14
7.91099e-16
6.31062e-18
2.32294e-14
6.64049e-16
0.0753645
0.0282737
0.015248
0.00356593
0.00213977
0.000110717
0.000108027
2.81415e-08
2.06647e-05
4.41027e-09
1.17923e-10
1.71775e-12
2.56628e-10
8.05102e-10
1.39244e-12
1.47939e-12
0.0224803
0.0934774
0.021989
0.0679179
0.0857497
0.0200196
0.0244615
0.0165711
0.0487316
0.0399678
0.0078387
0.0645183
0.0143428
0.00954142
0.00258382
0.0240338
0.00362123
0.00868016
0.00487663
0.0155692
0.00159995
0.00153193
0.00545261
0.00774827
0.000413706
0.0108228
0.000781257
0.000954709
0.000253605
0.00511357
0.000206024
0.00105095
0.000547094
0.00282906
8.18747e-05
8.81496e-05
0.000394968
0.000431568
5.09623e-06
0.00125049
2.37759e-05
2.23065e-05
4.80277e-07
0.000111273
7.17395e-07
2.01503e-06
4.11795e-06
1.8922e-05
6.22656e-08
3.09193e-08
1.11405e-07
6.43346e-08
1.45841e-10
1.53236e-06
3.51116e-09
1.29439e-09
0.000227374
0.000863613
0.00013261
1.35567e-05
0.000970391
0.000206806
1.60694e-05
2.75879e-05
7.77256e-07
1.26508e-06
2.95724e-08
2.61519e-05
8.61704e-07
1.27889e-06
4.30638e-11
3.26811e-09
7.13605e-12
4.22953e-12
2.53278e-10
1.74716e-10
9.02762e-13
3.47218e-08
8.34213e-10
2.04425e-11
3.53693e-08
8.23368e-10
8.33296e-10
2.11075e-11
1.51355e-12
1.15175e-15
1.11815e-15
4.04467e-14
2.12933e-12
4.63279e-14
7.09006e-14
1.74789e-12
1.2937e-18
3.36143e-15
3.05849e-20
1.3218e-17
3.13758e-21
3.92712e-20
3.49661e-23
9.36217e-17
4.24404e-22
2.84281e-25
8.38802e-23
1.38708e-10
2.53182e-12
2.85611e-12
2.09163e-12
5.44348e-14
1.02963e-17
1.1464e-15
1.13986e-18
2.53744e-13
2.28017e-13
2.04177e-15
4.17287e-14
1.09548e-16
4.07541e-20
7.30607e-16
1.56759e-14
7.55013e-18
2.64283e-15
1.19861e-18
2.09021e-16
2.05463e-20
1.2909e-17
4.48406e-17
3.52557e-22
1.20612e-17
1.04754e-19
9.91049e-14
1.68629e-16
1.02933e-15
3.64439e-14
3.78434e-14
3.33189e-17
3.67383e-16
3.23767e-15
2.38878e-18
3.82423e-17
3.61914e-17
6.66761e-16
6.67638e-19
9.62366e-18
2.33607e-16
1.94195e-19
3.04952e-18
2.27101e-19
3.54894e-17
2.88227e-20
4.61245e-19
2.80904e-18
2.18408e-21
3.58532e-20
6.94304e-22
1.65105e-19
1.16598e-22
2.01608e-21
2.5853e-17
2.14806e-21
7.60492e-19
5.48834e-18
5.57813e-20
1.02985e-09
1.04554e-08
2.6541e-11
8.24217e-11
6.25801e-09
1.55309e-11
1.76522e-09
2.59929e-10
2.14838e-11
2.14411e-10
6.68824e-13
1.64813e-09
3.9773e-12
3.56553e-11
2.5743e-17
6.80106e-16
1.94261e-15
3.20539e-14
3.98809e-16
1.1349e-15
4.41849e-17
6.55217e-18
8.22231e-15
1.44602e-17
4.53519e-17
1.01738e-16
2.88456e-16
1.01341e-18
3.10485e-13
1.82761e-11
6.28733e-14
2.49481e-14
3.00013e-12
1.64863e-12
1.75213e-14
6.87617e-14
5.26327e-15
1.15766e-13
1.88218e-15
3.15061e-13
4.42664e-15
2.9794e-14
1.05964e-20
1.42319e-18
4.17616e-18
9.10794e-18
9.87301e-20
1.16059e-19
3.93135e-19
4.90967e-15
4.08233e-14
1.31422e-15
1.97486e-16
1.12732e-14
1.0792e-14
6.07719e-16
9.63401e-16
4.18428e-17
3.28941e-16
6.46049e-17
2.19436e-15
1.85276e-16
4.86594e-16
3.74174e-17
4.01006e-17
1.3994e-17
4.01096e-19
5.8059e-17
1.07933e-17
4.73127e-18
4.14462e-18
7.8707e-20
6.88262e-19
2.63785e-19
2.18418e-18
8.36579e-19
2.0577e-18
7.66182e-19
3.75446e-17
8.31557e-19
2.00423e-17
7.95307e-19
2.15204e-17
6.37637e-19
1.93874e-20
1.49498e-20
5.09379e-22
3.82223e-21
1.81233e-20
1.35783e-20
4.29362e-21
3.85582e-13
2.2293e-14
1.03369e-12
2.27163e-13
1.30952e-14
7.85323e-15
9.93007e-15
1.28664e-15
4.86018e-17
3.65194e-16
4.63136e-16
7.22921e-18
6.34892e-17
1.9979e-16
4.78248e-17
6.01241e-19
3.9832e-18
2.80233e-17
2.15617e-19
5.88277e-18
1.45192e-17
5.30041e-19
4.88297e-21
1.48739e-20
2.52023e-19
1.54453e-21
5.44447e-20
1.66415e-19
8.23155e-17
2.44581e-18
1.40376e-17
3.87594e-18
5.13423e-19
1.69819e-18
1.77042e-17
8.7606e-21
7.76307e-24
1.01053e-22
5.5446e-22
3.37034e-22
7.33229e-24
6.83596e-24
4.56607e-19
5.54461e-21
1.34776e-20
1.7311e-21
2.67132e-13
1.25137e-14
5.19525e-16
5.93996e-14
3.35689e-15
2.56384e-15
1.10865e-15
8.68334e-17
9.71517e-17
1.20423e-18
1.6044e-16
2.63625e-18
4.52894e-17
1.88671e-17
8.96539e-19
3.56841e-18
2.34406e-20
6.94542e-18
7.08896e-20
2.15151e-18
7.77735e-19
2.48518e-21
1.3437e-20
8.56411e-23
2.93451e-20
2.60528e-22
9.18442e-21
2.89416e-21
5.7705e-20
3.99288e-20
2.9564e-21
1.38816e-19
1.28004e-20
6.90829e-20
3.60887e-20
9.08261e-18
1.20368e-20
8.6772e-20
3.37504e-19
3.89439e-18
3.90847e-21
4.41691e-20
4.28842e-19
4.62252e-22
5.03384e-21
1.03671e-20
1.2825e-19
1.86114e-22
2.01334e-21
3.81516e-20
5.10612e-23
4.94544e-22
4.33127e-22
6.28972e-21
8.9282e-24
1.16807e-22
4.50726e-22
5.85475e-25
6.16104e-24
1.69885e-24
2.46061e-23
4.41522e-26
7.8031e-25
3.11491e-22
2.03984e-23
1.84497e-24
2.52976e-26
5.67117e-18
1.7634e-17
1.15246e-16
7.90194e-15
5.30996e-19
3.0668e-16
6.91052e-16
1.32936e-17
5.40386e-18
1.00406e-17
5.92031e-19
7.32122e-16
2.69461e-14
1.9189e-12
3.406e-14
4.24677e-15
2.48245e-16
2.47113e-17
2.91658e-19
1.65081e-22
1.03644e-20
1.63322e-18
2.49496e-20
1.00878e-16
6.79651e-17
1.93075e-18
1.88631e-15
4.31836e-17
3.05103e-17
9.94642e-19
6.76287e-18
3.96618e-18
1.54015e-19
7.85027e-17
2.69787e-18
1.35609e-18
9.14941e-20
7.78933e-19
3.96418e-19
2.28832e-20
3.80092e-18
1.4304e-19
6.58599e-20
5.5113e-21
9.23942e-21
4.62469e-21
2.86822e-22
1.54061e-20
4.85929e-22
2.86382e-22
3.99221e-23
1.57721e-21
2.33866e-19
9.07126e-20
3.76495e-21
9.44258e-21
1.79464e-20
9.32502e-21
2.40237e-19
1.52497e-20
1.38281e-21
1.91816e-23
1.71639e-27
1.5954e-24
8.10548e-27
1.35662e-25
8.51696e-28
1.16628e-26
7.06691e-29
1.93492e-28
1.34694e-30
9.25371e-30
5.14348e-32
6.68718e-25
4.6889e-27
3.29615e-29
2.4547e-31
7.47406e-18
5.93639e-19
6.08935e-20
1.02033e-21
4.48576e-20
3.37874e-22
2.57993e-24
2.02226e-26
1.63715e-28
1.37587e-30
0.00928871
0.00485172
0.00479404
0.0123571
0.0123395
0.00130524
0.00397863
0.00401521
0.00130809
1.17116e-24
6.30859e-24
3.18943e-26
6.1436e-25
3.65746e-27
5.16686e-26
2.99116e-28
9.72099e-28
6.23972e-30
3.74508e-29
2.05126e-31
1.23167e-21
9.905e-23
8.61632e-24
1.42217e-25
6.70927e-27
1.47233e-07
2.35379e-20
5.3232e-19
2.22942e-18
4.77822e-17
2.81723e-19
1.23714e-18
5.74553e-20
4.32872e-20
1.29154e-20
1.08525e-20
4.8195e-11
1.19278e-11
3.71364e-14
2.53892e-15
5.87225e-16
7.56628e-17
4.20227e-18
1.00461e-19
4.80542e-21
7.56341e-22
3.65032e-15
1.36936e-15
2.80496e-14
1.29031e-15
2.8918e-16
5.26482e-16
1.64948e-16
5.88108e-17
2.26227e-17
0.0281374
0.0170457
0.00762139
0.00106643
0.00717
0.000570479
0.000362223
0.00451297
0.0023116
0.00338787
0.00128009
0.00178728
0.000790441
3.67175e-05
0.000500034
0.000243924
0.00010423
0.000100306
0.00184313
0.000441989
0.000106268
0.000854114
0.000274177
3.14659e-05
4.01029e-06
3.34216e-06
1.58898e-05
7.61855e-07
2.53167e-06
0.000218783
4.01323e-05
0.000232137
1.03977e-05
7.87035e-05
1.06428e-05
4.73927e-08
9.46037e-07
2.08213e-07
2.10447e-07
0.083675
0.0105618
0.00106407
2.43194e-06
1.31414e-12
0.0705065
0.0234099
0.0211733
0.0100473
0.00188955
0.00192335
0.00108608
2.55149e-05
3.6652e-05
1.95066e-10
0.0292669
0.0872032
0.0322137
0.0713769
0.0747732
0.0275289
0.0341681
0.00161499
0.0121008
0.00332518
0.00516906
0.00383553
0.00627798
0.00130149
4.93093e-05
0.00143145
9.85333e-05
0.000467562
0.000151463
0.000656412
2.95129e-05
5.58476e-09
4.88418e-06
4.66007e-08
1.38919e-07
9.83874e-08
2.98898e-07
2.56421e-09
6.95427e-14
1.26016e-15
0.0286201
0.0849483
0.0268923
0.0610586
0.0731285
0.0232304
0.0333194
0.0085203
0.00925939
0.0079839
0.00985056
0.00823566
0.00760025
0.00654124
0.00952482
0.0190269
0.0463869
0.0254608
0.00852558
0.0491586
0.0177615
0.00933423
0.0186055
0.0405051
0.0252174
0.00727822
0.048285
0.0151047
0.00912542
0.00557361
0.00234939
0.00518198
0.0025885
0.00535055
0.00181105
0.00415818
0.00246267
0.00162734
0.0121937
0.00292411
0.00516313
0.00379782
0.00645273
0.00115969
0.000259236
0.000761926
0.000891978
0.000199662
0.000248024
0.000571515
0.000852065
0.000138902
0.000717718
0.00304291
0.00246786
0.000235733
0.00385215
0.000529798
0.000342342
0.0007353
0.00310094
0.00258583
0.000219096
0.00400953
0.000478524
0.000358486
6.19007e-05
9.91785e-06
4.05437e-05
1.69436e-05
6.12982e-05
8.61579e-06
3.00001e-05
1.78049e-05
5.46435e-05
0.0015109
9.50282e-05
0.000494437
0.000162073
0.000703178
3.11059e-05
1.26675e-06
2.91506e-06
5.1885e-06
6.76475e-07
1.45634e-06
2.90081e-06
5.72474e-06
7.70968e-07
9.96512e-06
0.000138586
4.4423e-05
6.22819e-07
0.000211813
5.40472e-06
1.24557e-06
1.17011e-05
0.00016398
5.23465e-05
1.00564e-06
0.00023497
6.88874e-06
1.55899e-06
2.04253e-07
1.10309e-08
1.04255e-07
2.27519e-08
2.47859e-07
1.92164e-08
1.46893e-07
2.90159e-08
1.01855e-10
8.2432e-10
1.76358e-09
4.63571e-11
2.44928e-10
5.78827e-09
4.36664e-10
3.95397e-12
1.27686e-08
1.10265e-10
8.82479e-12
4.61877e-12
8.23065e-14
2.06506e-12
1.76442e-13
1.61989e-15
8.07361e-14
2.44241e-15
2.41395e-15
8.01545e-14
1.3007e-15
6.85792e-14
0.356366
0.298749
0.154936
0.108688
0.0803559
0.15822
0.161567
0.0398998
0.0252645
0.0108974
0.000508939
0.000112945
4.17081e-07
0.353298
0.157762
0.134639
0.24419
0.0477936
0.0268202
0.0085197
0.00566666
0.000459153
0.274592
0.285992
0.269226
0.290927
0.230979
0.167955
0.224862
0.172376
0.103221
0.12497
0.127101
0.101807
0.0901783
0.0887661
0.0207653
0.209549
0.209541
0.156212
0.11886
0.190764
0.137913
0.228944
0.160842
0.0830004
0.0938125
0.0551973
0.144875
0.0964422
0.104513
0.0493175
0.0604934
0.0310489
0.0167892
0.0673535
0.0438595
0.0198194
0.0398952
0.0118119
0.0276969
0.0103848
0.034964
0.0142445
0.0319642
0.0139189
0.0197968
0.00694382
0.00315193
0.0230435
0.0119426
0.00388284
0.00690026
0.00138311
0.00256218
0.000565706
0.00600226
0.00170646
0.00288946
2.32688e-16
5.18519e-19
7.48007e-18
5.4029e-21
7.83819e-20
8.68193e-19
4.31112e-21
2.06787e-20
6.78742e-23
4.062e-22
1.61013e-24
4.73994e-24
1.22166e-26
4.16587e-26
3.34677e-28
1.11566e-22
9.28096e-25
2.13175e-22
8.20202e-05
0.015918
6.83038e-11
9.71584e-18
1.59823e-21
9.22273e-23
1.17775e-23
4.18974e-25
1.30344e-26
5.83664e-07
0.00110193
5.63413e-14
1.35041e-19
8.95644e-25
1.95854e-24
5.76714e-27
8.95375e-27
9.81505e-28
3.66002e-12
1.28838e-05
3.01108e-17
2.59419e-21
2.14891e-27
4.53167e-26
1.06149e-28
2.17612e-28
8.54068e-29
2.96134e-13
5.38727e-09
2.32774e-18
3.75013e-23
9.11311e-30
2.91281e-28
1.73779e-28
2.31675e-30
3.4786e-30
1.38299e-17
1.00555e-13
2.98266e-21
5.25214e-18
1.04851e-24
2.33519e-24
9.55014e-28
1.81875e-25
8.47399e-19
5.79109e-16
1.20408e-21
4.83048e-19
8.60198e-26
1.11997e-22
0.143856
0.145661
0.0742062
0.146229
0.00739843
3.18768e-07
2.9014e-05
0.00178403
4.31452e-08
0.0727146
0.0035045
0.0185121
1.08754e-14
8.87182e-12
1.55273e-15
1.65611e-19
1.0196e-19
2.16866e-21
2.38742e-18
1.81593e-21
1.87765e-20
2.56596e-22
1.21596e-21
1.49226e-23
4.00221e-22
1.54785e-23
2.58567e-23
2.06269e-24
5.83651e-23
0.0155238
0.00593954
0.00054961
2.49508e-10
1.11631e-09
7.571e-06
4.57252e-13
3.49865e-05
2.37015e-17
1.9554e-16
1.02175e-18
1.07494e-22
1.08432e-21
1.04861e-23
1.08365e-20
4.09708e-25
1.09772e-22
1.13227e-24
2.58883e-24
1.24014e-25
3.76392e-24
6.69906e-27
6.90644e-26
2.46449e-26
1.28079e-24
0.00301927
0.000717736
0.00123328
2.02744e-06
3.61679e-13
2.64076e-13
8.83394e-09
4.82758e-14
6.91749e-08
9.26981e-06
2.47378e-19
6.93943e-18
4.19286e-20
1.37493e-25
2.56844e-23
2.45508e-25
3.76502e-22
7.02643e-27
3.20872e-24
2.70168e-26
2.63365e-26
5.64303e-27
3.27927e-25
9.46945e-29
9.65129e-28
7.01185e-28
4.65123e-26
4.34867e-06
0.000333953
6.98426e-09
1.34556e-07
6.77786e-10
1.68058e-14
1.09571e-14
1.08069e-13
3.64666e-18
7.76981e-07
6.62938e-13
6.08632e-11
3.19221e-21
5.65404e-20
6.97896e-23
5.94331e-28
1.42869e-25
1.21454e-27
7.36097e-25
8.79677e-27
6.99119e-27
1.67712e-28
1.75833e-28
5.62937e-29
3.41455e-27
3.84839e-26
4.2345e-25
1.41103e-27
6.87582e-27
8.8356e-19
1.04786e-23
1.99448e-23
4.56132e-21
1.0496e-19
7.06107e-23
1.56599e-21
2.96158e-17
9.09354e-23
7.88335e-22
1.46537e-18
5.74134e-18
2.08189e-20
8.15385e-20
2.77487e-14
1.68535e-18
7.09381e-16
2.51689e-20
1.04356e-17
5.25365e-22
1.05179e-19
1.93088e-25
2.21507e-22
1.34284e-25
2.93235e-09
7.28809e-10
2.67701e-12
5.08134e-16
1.43687e-14
8.51844e-15
4.06704e-13
1.67574e-16
4.10604e-15
5.53217e-12
8.71988e-14
2.75627e-14
1.07754e-17
2.88001e-16
4.1876e-17
1.4547e-15
8.00713e-19
1.68474e-17
2.41483e-14
3.19246e-15
3.16414e-16
1.8018e-19
4.00495e-18
1.71867e-18
4.90892e-17
3.04127e-20
6.81339e-19
2.68784e-16
4.81004e-18
2.53301e-18
1.51352e-21
3.54577e-20
2.15051e-21
5.59401e-20
5.38178e-23
1.76117e-21
0.00909307
0.0320844
0.00537916
0.013403
0.0265739
0.0044782
0.0109636
3.82382e-11
5.05811e-09
2.83985e-09
3.66027e-10
5.90628e-08
3.41936e-08
6.42741e-10
1.30142e-24
1.53535e-23
1.17961e-22
8.65741e-22
8.22958e-24
6.33729e-23
2.01503e-24
0.000135238
0.00230488
0.000250289
0.000330831
0.000592964
0.000803945
4.40776e-05
3.94864e-12
3.45243e-15
1.75405e-13
2.26179e-14
4.77231e-11
5.17727e-13
1.99716e-12
3.29462e-27
8.89124e-27
9.03721e-26
7.13226e-26
9.78022e-27
1.11584e-27
2.24623e-26
4.73435e-07
6.16368e-05
2.98323e-07
3.45574e-06
1.98534e-06
1.95313e-05
6.87059e-08
2.82669e-17
4.01138e-16
3.19452e-16
1.27337e-17
1.458e-15
2.47197e-17
4.99098e-16
3.83416e-28
6.1114e-29
8.79256e-28
1.63879e-27
6.29271e-28
3.66052e-29
5.72417e-28
3.60819e-11
3.47407e-08
9.70448e-11
3.07328e-10
6.29286e-10
1.95405e-09
5.67294e-12
1.08765e-19
7.52954e-18
2.98112e-19
3.59295e-20
5.38183e-18
1.18353e-19
2.23812e-18
8.49959e-30
7.02266e-31
4.16497e-30
1.33081e-29
6.03994e-30
2.09161e-29
6.38707e-30
2.80887e-19
3.70661e-16
1.09818e-19
4.90087e-15
2.53379e-17
3.00859e-16
6.32337e-18
5.47224e-13
1.97398e-16
2.85892e-14
4.04645e-15
1.77834e-14
9.30662e-17
3.83741e-16
2.28111e-19
7.88168e-18
1.40594e-19
2.8608e-18
2.26716e-19
4.87587e-18
1.51122e-19
1.61407e-26
7.98014e-28
1.58648e-25
5.13263e-25
1.14567e-26
2.17448e-23
2.85762e-25
1.82341e-22
1.55576e-25
6.98743e-25
2.74293e-22
1.10319e-21
3.38246e-24
1.41507e-23
0.000951387
0.00360584
0.00246271
0.00636851
0.00313419
0.00207508
0.00112302
1.82542e-07
8.36921e-06
5.58478e-06
5.09023e-05
3.64826e-06
2.3687e-06
6.67561e-05
0.000195673
0.000590603
0.000479692
0.000242477
0.000577951
0.0041016
0.00091137
0.000467771
0.00205647
0.00124878
0.000215188
1.72524e-06
4.35649e-09
2.03294e-07
2.25614e-05
7.73537e-08
6.85625e-07
4.40535e-06
0.000101409
7.17852e-05
0.000254915
2.71602e-05
0.015829
0.0535661
0.0269323
0.0612362
0.0444865
0.0227933
0.0189343
0.00239277
0.00136397
0.00110833
0.00290872
0.00436818
0.00761253
0.00649071
0.00521064
0.00541995
0.00829748
0.00686622
0.000993251
0.0160879
0.00265423
0.00212265
0.00969561
0.0387069
0.0122264
0.00654924
0.0272746
0.0143894
0.00409188
0.00136224
0.00018017
0.000604663
0.000454893
0.00262893
0.00173528
0.00409744
0.000997354
6.25896e-15
8.58075e-13
4.7702e-13
3.80907e-12
6.96635e-14
3.89338e-14
6.75195e-12
6.60004e-10
9.18165e-13
6.71339e-11
8.66944e-11
8.44346e-10
8.24988e-09
8.82248e-12
1.09409e-13
3.61633e-16
1.29733e-14
8.90607e-13
9.3372e-16
8.99792e-15
9.09161e-14
2.60485e-19
1.69063e-17
8.54409e-21
9.04632e-20
9.30174e-18
4.63458e-21
4.76141e-19
5.81975e-20
2.03933e-20
2.11572e-19
1.02103e-22
2.11238e-18
1.03101e-21
6.42569e-21
1.15453e-23
1.48528e-23
2.05635e-22
7.06423e-22
8.62139e-24
1.30942e-22
1.45572e-23
2.60791e-25
1.93591e-22
1.41375e-25
1.45683e-24
1.8285e-24
1.3838e-23
8.17464e-26
2.34698e-24
1.78587e-22
3.14151e-25
8.93736e-24
2.18206e-24
3.06013e-23
7.45567e-25
6.90478e-06
0.000280864
0.000110719
0.000146457
4.91661e-05
7.06253e-05
1.64829e-05
1.18657e-08
1.06627e-11
4.94946e-10
1.43647e-08
4.29533e-09
3.44522e-07
1.7226e-10
1.7535e-07
9.60974e-06
3.33191e-06
5.2234e-07
4.91593e-07
3.40464e-05
2.27691e-06
1.62513e-07
1.44173e-05
1.39583e-06
3.93564e-08
2.08491e-11
1.66184e-12
4.36494e-14
5.62441e-10
5.16868e-13
6.88559e-12
4.06432e-11
7.31193e-09
2.67399e-09
2.34025e-08
5.69109e-10
9.43682e-06
2.81856e-05
9.05048e-05
1.96255e-06
2.75283e-05
0.000100275
0.000142203
1.05943e-06
0.000318399
5.77668e-06
6.6661e-06
7.46225e-07
1.91343e-08
1.16954e-07
1.32076e-07
7.56989e-16
1.21837e-17
6.02326e-17
2.51306e-16
5.84106e-17
5.51479e-15
2.96501e-18
7.96667e-15
7.9606e-17
1.00144e-15
9.71473e-16
6.64069e-15
8.22985e-14
9.17803e-17
8.32724e-19
4.58335e-18
2.60606e-18
1.15221e-17
4.08659e-20
1.62895e-19
1.4215e-18
4.5082e-23
1.31955e-20
6.15289e-24
5.69332e-24
3.73052e-22
4.71655e-22
1.1348e-24
7.04211e-24
7.33392e-25
2.33634e-23
1.34367e-25
4.55249e-23
1.90854e-25
4.71083e-24
6.43686e-26
3.42317e-26
9.26611e-25
3.14995e-25
1.83105e-25
6.13265e-27
3.7363e-25
2.62032e-27
1.1715e-26
1.79931e-28
2.75245e-27
3.11111e-28
4.70298e-27
1.89324e-27
6.86866e-26
1.3228e-25
2.05585e-27
1.59804e-25
3.87555e-27
2.3331e-25
3.33405e-26
1.47178e-09
4.36947e-07
3.84308e-08
4.9158e-07
7.02757e-09
9.36934e-08
8.82257e-09
1.26649e-13
1.25948e-14
7.34953e-15
1.58979e-12
1.00585e-13
7.417e-12
2.49092e-14
2.30964e-11
6.63751e-10
1.08166e-10
1.53637e-10
2.21546e-10
8.1002e-08
1.39096e-09
1.56425e-10
1.40356e-08
1.42968e-09
2.22955e-11
3.22909e-14
2.89856e-15
1.86175e-15
2.63885e-13
1.67904e-15
5.30146e-15
4.83848e-14
3.5164e-12
2.73885e-12
2.4906e-11
3.62624e-13
8.46384e-09
5.26591e-09
3.66097e-08
1.22396e-09
7.57365e-08
6.11744e-07
4.50973e-07
1.2443e-09
3.79944e-06
1.13272e-08
8.23856e-09
4.15261e-07
6.04738e-05
2.29126e-06
1.91912e-07
1.78955e-05
1.7986e-06
4.35492e-08
1.3394e-09
2.1949e-11
1.99577e-10
1.44875e-10
7.30355e-09
3.31559e-09
3.22073e-08
7.62889e-10
2.33071e-19
9.82018e-19
9.00515e-19
3.33876e-19
1.4752e-20
4.76371e-19
1.25599e-20
1.21818e-16
6.23735e-17
4.29513e-18
3.91705e-18
5.19754e-17
1.38047e-16
1.3642e-18
3.50257e-20
2.03159e-19
1.19688e-19
1.03318e-19
1.1667e-21
3.26056e-21
3.00489e-20
1.18209e-24
8.13314e-24
3.74056e-26
1.10404e-25
1.46863e-24
6.82975e-24
2.99752e-26
2.07146e-25
2.50235e-26
5.02104e-25
2.40154e-27
1.55235e-24
5.06973e-27
1.01055e-25
6.23118e-27
8.57869e-28
5.86233e-26
1.07301e-26
1.73992e-26
3.40458e-28
3.18515e-26
8.15717e-29
3.75497e-28
2.74525e-30
4.41948e-29
9.06942e-30
1.13767e-28
4.60291e-29
2.37465e-27
3.10217e-27
3.51941e-29
4.03717e-27
1.09305e-28
8.00291e-27
8.493e-28
1.09382e-13
9.68839e-11
1.21686e-11
3.88489e-11
1.60768e-12
5.10657e-12
7.19183e-13
1.46679e-14
1.89529e-16
3.73584e-16
1.31121e-14
2.45497e-16
1.10653e-14
1.79698e-16
2.35792e-15
2.16258e-13
2.70634e-14
1.36079e-14
5.13845e-15
1.78947e-12
1.24118e-14
6.08198e-15
2.18215e-13
3.81304e-14
1.25419e-15
3.11065e-16
3.05228e-16
7.6409e-18
6.91524e-16
7.40001e-18
1.13363e-17
4.76666e-16
1.42789e-16
3.75219e-16
1.00875e-15
6.36542e-17
1.80546e-10
1.80661e-07
1.41096e-08
4.23896e-08
3.24281e-09
9.89715e-09
7.71458e-10
6.57393e-13
1.7275e-12
1.11971e-11
1.04712e-13
3.25887e-12
2.4579e-10
5.72338e-11
1.38053e-11
1.65167e-12
1.38939e-11
3.30397e-12
2.97108e-14
8.61428e-11
2.78413e-13
8.47861e-14
7.96719e-12
1.76981e-09
1.5668e-11
1.26556e-12
4.21281e-10
3.34076e-11
3.27494e-13
3.20545e-14
1.49508e-15
6.18106e-15
2.76824e-15
1.49696e-13
2.69224e-14
6.20694e-13
8.06194e-15
1.49174e-21
2.0368e-21
7.92844e-21
6.71531e-22
8.25052e-23
2.40564e-21
3.51814e-23
1.40604e-19
3.23929e-21
6.08617e-21
3.91602e-21
1.11948e-19
1.93722e-19
1.8145e-21
1.25005e-22
2.14593e-22
8.80535e-23
8.22555e-23
1.62918e-24
3.29096e-24
3.19559e-23
3.55428e-27
3.85938e-26
1.89482e-28
2.27447e-28
8.70369e-27
1.5574e-26
9.40408e-29
3.96397e-28
1.76847e-28
2.91542e-27
9.78199e-28
1.759e-27
3.80015e-29
4.49313e-28
7.0246e-29
7.39235e-30
5.51013e-28
1.73526e-28
1.68355e-28
5.67746e-29
2.9055e-28
2.77343e-28
6.20483e-28
7.81686e-26
4.09977e-27
1.2947e-27
1.50903e-28
9.47801e-27
8.06278e-28
7.29659e-27
1.98586e-25
4.94394e-26
3.33924e-27
1.51405e-27
2.14414e-26
5.98495e-21
2.63302e-19
2.72421e-20
4.11487e-19
7.0038e-21
1.00519e-19
2.01101e-20
1.95203e-22
7.4496e-22
4.60177e-24
9.07399e-23
1.76715e-22
6.17341e-22
2.65485e-23
5.85808e-19
1.79423e-17
9.01622e-19
2.44067e-17
5.51384e-19
9.82781e-18
1.02414e-18
7.05209e-21
3.56865e-21
1.70145e-22
4.33175e-22
6.06636e-21
4.51882e-21
1.1841e-21
1.87525e-20
2.5895e-20
4.17454e-22
4.98389e-21
1.5139e-20
3.1794e-20
2.12953e-21
1.0157e-19
8.78916e-22
2.5223e-24
2.17664e-22
3.03451e-25
1.59578e-25
1.34336e-24
5.62003e-27
1.45804e-26
8.39539e-27
1.14892e-27
2.25098e-28
6.45993e-17
3.50323e-22
3.92008e-25
6.01905e-19
5.00283e-23
6.63416e-20
2.17415e-21
8.30829e-21
3.91832e-22
3.54457e-24
6.23845e-19
1.11186e-22
9.2507e-21
2.27922e-19
2.89124e-23
2.46835e-21
4.44093e-26
4.68941e-21
4.18317e-24
3.62156e-22
8.70269e-22
3.07087e-25
2.69772e-23
7.82436e-25
1.35597e-23
3.17621e-26
1.39438e-24
1.44698e-21
1.43348e-17
1.84921e-19
4.49367e-19
8.36926e-18
1.38564e-20
5.91619e-20
4.8892e-18
8.7982e-21
7.749e-19
2.15757e-22
1.78887e-20
4.57448e-23
2.13257e-23
1.76036e-21
1.53446e-21
1.49032e-23
8.87408e-24
7.07484e-23
1.92072e-24
5.10479e-25
1.80473e-23
2.51843e-23
7.40252e-25
5.99163e-26
3.96326e-25
1.83914e-26
2.68186e-27
1.41834e-25
1.24412e-25
5.91588e-27
1.53803e-18
6.19762e-17
1.77056e-18
4.52607e-17
1.64255e-18
3.08735e-17
1.99213e-18
2.72609e-23
1.62611e-24
7.06167e-25
2.43831e-21
1.02652e-21
3.11088e-23
1.1033e-23
1.13584e-19
1.49941e-20
1.78977e-19
5.28202e-22
1.24268e-18
2.02711e-21
1.89985e-20
8.36978e-23
7.13409e-24
1.89929e-22
4.13916e-24
4.02803e-22
7.71702e-24
4.92366e-23
3.43285e-21
1.60374e-18
1.07927e-20
5.16967e-20
2.45686e-20
1.11365e-19
1.88172e-21
3.27505e-22
3.97825e-21
2.19474e-20
7.12476e-20
7.14674e-22
1.32247e-21
7.8095e-21
2.1822e-24
1.43808e-25
2.05889e-24
9.30978e-26
6.69291e-24
2.61949e-25
9.80566e-25
8.00662e-23
1.68462e-20
9.84264e-23
7.68462e-22
3.31692e-22
2.3019e-21
3.76358e-23
2.3797e-24
1.89948e-23
1.50167e-22
3.17238e-22
5.30139e-24
6.43476e-24
4.67155e-23
9.47298e-27
1.42601e-26
7.15875e-25
9.33392e-26
3.26628e-26
3.83641e-27
8.93965e-26
2.60453e-25
5.26563e-23
5.19495e-25
2.48226e-24
1.05442e-24
7.68036e-24
1.48114e-25
4.94251e-20
4.85084e-20
1.31454e-21
8.95138e-21
4.42132e-20
6.07173e-20
8.55775e-21
5.69957e-16
9.58444e-18
1.0812e-17
3.3551e-16
3.08181e-18
8.53794e-17
1.69739e-16
7.25979e-15
2.61579e-16
8.34899e-17
8.14258e-15
1.30693e-16
3.04449e-15
2.1497e-15
8.0908e-16
3.17988e-14
9.53125e-16
5.00675e-16
1.10438e-14
2.74724e-16
7.78505e-15
9.02982e-18
1.3661e-16
8.31294e-17
3.86161e-18
6.90213e-16
3.82653e-16
6.93933e-18
8.5986e-23
8.28765e-22
2.22634e-22
1.82048e-23
8.30537e-25
3.35207e-24
6.80507e-25
1.46151e-25
3.35359e-26
2.12122e-24
2.87776e-25
9.42114e-27
6.4544e-26
6.10829e-27
1.08946e-19
5.11378e-19
3.03955e-19
2.15687e-21
6.04932e-19
8.68851e-21
3.76004e-20
1.11153e-23
1.35619e-24
2.44798e-24
1.87279e-25
2.69931e-26
3.19754e-26
1.11051e-26
2.56967e-25
2.57764e-27
1.03562e-25
6.89913e-27
3.85338e-28
1.99031e-27
1.58282e-28
2.45108e-21
8.11388e-21
7.43984e-21
5.37621e-23
4.48782e-22
6.49862e-23
3.89185e-22
2.79731e-25
3.45922e-26
6.09502e-26
4.48154e-27
5.7214e-28
6.89145e-28
2.80454e-28
3.71396e-27
6.43572e-28
2.6471e-26
4.52482e-28
1.83282e-29
6.04762e-29
5.79022e-30
1.39864e-23
1.88058e-23
5.81435e-23
2.23837e-25
2.42347e-24
4.76954e-25
1.08582e-24
2.31507e-28
4.59334e-28
1.61098e-27
2.37615e-29
7.55833e-30
5.65525e-30
1.98537e-30
4.41089e-30
6.80918e-30
2.72544e-28
4.6057e-30
2.89689e-31
3.36502e-29
1.67013e-30
6.60884e-21
2.75357e-22
3.19941e-22
5.23423e-22
2.87381e-20
7.67258e-22
9.28493e-21
4.57201e-24
1.32784e-25
2.16635e-23
3.39629e-25
4.14406e-23
1.28283e-23
4.5692e-24
4.72916e-20
1.59489e-18
6.32519e-20
4.15043e-17
1.61583e-18
3.32021e-17
1.06588e-18
1.91431e-17
8.45477e-18
2.57271e-16
3.50013e-16
1.27745e-17
2.9384e-16
9.11971e-18
1.97065e-22
1.87441e-21
5.10687e-23
4.43027e-20
9.94618e-22
2.15658e-20
6.79221e-22
1.86682e-19
1.07329e-20
5.78169e-21
3.29151e-19
6.96024e-21
1.88675e-19
5.66808e-21
2.06605e-17
2.06393e-18
7.31788e-18
8.71767e-19
9.36527e-18
8.76075e-17
1.31656e-19
9.39604e-21
3.34084e-20
2.69009e-20
2.82088e-22
1.28183e-21
2.9143e-21
2.08502e-22
3.37003e-22
1.21228e-21
9.718e-22
9.30862e-24
3.4171e-23
8.81419e-23
5.96378e-24
1.80817e-24
2.51383e-24
9.10925e-25
2.06786e-26
5.23749e-26
1.02794e-25
1.15817e-26
4.70165e-24
2.7864e-24
9.86033e-24
1.77338e-23
6.12787e-25
1.98724e-23
3.85315e-24
4.48156e-19
1.66009e-16
4.84824e-17
7.3135e-18
1.25252e-19
2.10504e-18
3.1074e-20
2.34106e-21
2.7887e-18
1.91219e-19
1.29584e-19
2.11186e-21
1.13421e-20
2.83657e-22
7.97289e-23
4.74556e-20
7.63415e-21
2.54104e-21
4.73572e-23
4.10484e-22
7.72065e-24
1.99108e-23
3.42329e-24
3.62861e-22
1.81896e-23
3.39235e-25
7.80563e-25
4.99895e-26
6.91334e-24
2.87066e-21
4.05692e-23
9.09756e-23
1.70962e-24
1.61461e-23
3.53931e-24
2.94453e-26
7.14646e-27
6.7665e-25
3.56938e-26
1.79666e-27
8.23954e-26
2.86001e-26
2.75769e-19
9.85283e-18
1.06341e-18
3.30892e-17
3.11773e-19
1.4332e-17
4.11963e-18
3.65658e-26
9.75219e-26
1.87692e-26
2.24272e-27
1.53266e-25
5.10979e-26
2.58616e-26
1.24812e-25
3.1367e-26
3.33637e-24
8.38775e-27
1.47514e-24
3.18297e-25
1.05648e-24
5.43921e-23
1.59491e-24
2.28921e-23
1.14108e-23
6.65453e-25
9.98917e-23
2.14151e-23
9.75585e-24
2.06743e-24
1.44314e-22
7.36922e-20
5.73972e-22
1.12068e-20
1.18239e-22
1.60415e-23
1.29616e-25
6.0431e-24
7.29519e-22
1.25434e-23
2.41978e-22
5.07101e-24
2.26012e-25
3.34189e-26
1.58426e-24
6.68364e-23
1.35891e-24
9.62168e-24
2.25406e-25
3.22485e-29
3.60721e-28
1.69308e-26
7.63923e-25
1.53094e-26
3.80698e-26
9.23812e-28
9.03063e-23
2.86158e-24
4.21987e-23
3.82693e-23
2.64805e-24
3.32832e-22
8.55736e-23
3.6545e-20
1.28025e-20
2.29471e-21
1.50154e-23
1.88237e-23
1.27615e-22
1.37117e-24
1.33611e-22
4.1733e-23
3.43789e-23
5.11299e-20
0.197999
0.0270618
0.0178429
0.000528709
1.11135e-07
1.03391e-14
0.0507973
0.000881476
0.0168197
0.0171804
0.000507256
0.00478016
0.194972
0.00551694
0.000100363
0.00179765
0.00347701
4.6265e-06
0.000116793
0.0315852
0.00358862
2.41839e-07
5.18688e-05
0.000827324
1.02881e-08
4.67788e-07
0.00446805
0.0148284
6.20123e-05
7.48237e-11
3.64835e-08
1.58965e-13
3.38033e-12
0.0062441
8.57359e-05
4.33516e-19
0.000137116
6.43293e-05
2.11262e-06
4.77126e-07
7.29933e-06
1.09092e-07
3.15453e-10
1.81608e-12
3.88695e-09
1.47302e-10
5.53207e-13
1.54765e-13
1.07839e-12
2.45209e-15
1.01283e-14
1.80758e-16
0.059652
0.0952835
0.0796296
0.0291927
0.0549682
0.0465773
0.0336324
0.000770147
0.00114246
0.00100867
0.00431487
0.00344074
0.00305808
0.00483528
0.033247
0.0500814
0.0251041
0.0199