/*--------------------------------*- C++ -*----------------------------------*\
  =========                 |
  \\      /  F ield         | OpenFOAM: The Open Source CFD Toolbox
   \\    /   O peration     | Website:  https://openfoam.org
    \\  /    A nd           | Version:  9
     \\/     M anipulation  |
\*---------------------------------------------------------------------------*/
FoamFile
{
    format      ascii;
    class       volScalarField;
    location    "0.0017";
    object      rho.c4;
}
// * * * * * * * * * * * * * * * * * * * * * * * * * * * * * * * * * * * * * //

dimensions      [1 -3 0 0 0 0 0];

internalField   nonuniform List<scalar> 
14293
(
1.33204
15.7747
3.88747
24.6363
6.34754
13.6389
47.7337
5.60679
10.9145
3.33391
51.7319
11.4479
8.49533
8.39655
17.9139
16.2307
136.242
54.8913
101.372
2.35546
20.9081
4.51681
33.1632
7.87888
51.5984
60.0441
1.70529
2.15623
1.89174
5.37836
3.93859
2.67413
3.7532
2.73161
3.6148
6.77473
10.1513
4.89995
2.90953
6.98676
5.50144
2.93383
3.96937
6.69703
16.4202
4.52265
6.54882
4.43071
20.1425
34.8267
7.3324
4.13086
5.8608
12.9815
1.49135
1.64367
1.47647
1.66615
1.81907
2.03467
1.87337
7.8099
3.066
3.29828
2.58046
4.82756
3.45898
6.46209
2.90741
6.15521
4.52641
7.06516
9.66461
4.03257
5.67833
1.86498
1.98814
2.15729
2.32233
2.51461
2.69836
2.1507
1.68708
2.36458
2.09699
2.55028
2.07519
2.32921
2.86768
2.59047
2.6557
2.79174
3.07094
3.23534
3.14021
3.2994
2.97554
3.38237
3.02888
3.97837
3.52802
3.58505
4.02982
4.17423
14.6033
49.9794
3.33711
9.81303
7.97903
39.8863
9.84695
6.41914
4.75908
6.15188
8.81095
3.36448
3.88316
2.84432
2.10144
2.26637
2.5463
3.011
3.18742
2.37092
3.46303
2.58576
3.02685
3.10473
3.61757
3.52124
4.16867
6.63246
7.74872
22.6316
12.8316
7.2153
15.7206
64.4832
2.49158
3.10392
2.69725
2.65426
3.73731
3.25953
3.06222
4.33448
3.45119
3.73874
4.50669
4.12342
4.80471
5.30456
4.51761
46.6918
7.87011
4.72669
8.6355
6.53252
31.4113
2.53663
2.81897
3.01223
2.97575
3.16873
3.72887
3.53139
2.7481
3.03323
2.87564
3.50593
3.24384
3.39324
3.6599
2.91103
3.17856
4.12566
3.43363
3.6153
3.36629
2.72769
3.16839
3.09391
2.56127
2.87366
4.19304
3.54128
3.46928
3.81165
3.85947
4.4818
4.60782
4.66115
5.45802
5.53416
3.44376
3.25733
3.10028
3.66611
4.45885
4.10344
3.95583
2.73699
2.68521
2.84269
3.51811
3.25182
3.40329
3.36648
3.36395
4.70961
4.01523
4.65095
4.03173
4.86111
5.71997
9.46824
38.2599
71.963
14.4769
4.83163
18.8079
55.2615
8.89381
17.8746
35.9249
7.27382
37.1427
11.8732
31.6514
11.7281
4.76906
6.60782
7.81837
19.3634
10.6339
31.3396
29.0267
48.9136
9.73174
21.8013
32.0471
97.0374
77.5009
3.76343
5.19856
3.96955
5.1511
3.8474
4.04952
5.48395
3.59456
4.18035
3.41337
4.31327
3.5609
4.15557
4.99828
21.6854
4.76874
7.7464
12.3646
36.111
6.46036
10.5029
3.26819
4.49244
4.55077
4.73029
4.00021
3.93139
3.75338
4.63283
6.13007
5.11005
5.69533
7.81845
6.36567
6.85786
3.22955
2.84287
3.00352
3.69399
3.78667
3.94154
3.54139
8.11777
27.3138
101.819
12.6246
5.49557
58.1054
9.05539
4.96035
5.78003
4.34958
4.43113
7.27449
5.06354
6.14098
3.73752
5.44981
4.39777
5.11144
4.23455
5.09066
6.32126
2.9966
3.60262
3.11645
3.82489
4.23388
3.6962
4.39004
3.38091
4.23659
3.58099
4.3726
4.89125
5.10315
4.16927
2.41834
4.04893
3.40122
1.12389
1.53234
0.999375
2.01161
1.28876
2.80875
2.3093
6.31711
3.04314
1.94745
3.27205
2.51191
4.68391
1.05391
1.1384
1.18798
1.261
1.39484
1.45359
1.32123
1.2146
1.34978
1.25636
1.5386
1.51333
1.65806
1.40229
1.34022
1.61963
1.54802
1.874
1.56296
1.63193
1.96508
2.23889
1.854
2.13046
2.21921
2.51131
2.33226
2.64034
1.41933
1.88784
1.73082
1.73516
2.29765
1.88031
2.10428
2.67636
2.38598
2.535
3.00655
2.80774
2.95405
3.16978
1.58472
2.16402
1.72209
1.7966
2.10007
2.25484
1.6558
2.09758
2.68339
2.42169
2.77077
2.5141
2.86149
3.18563
1.90525
2.58302
1.90233
2.23188
2.05786
2.39098
1.75825
3.27445
2.73002
2.92061
3.21401
3.90113
3.60193
3.46029
2.39427
2.28768
1.92146
2.00835
2.93596
2.49888
2.3969
2.13824
2.87626
2.79405
3.13089
2.31965
2.65658
2.56349
2.68054
3.72315
3.01941
3.43061
2.81479
3.1772
3.9201
4.23674
3.66961
3.38329
3.56356
4.95764
4.47344
3.87216
3.3379
3.68604
3.03127
3.44954
4.76664
3.85399
4.2599
3.88943
5.58497
4.81869
5.47381
4.39037
4.90632
4.24072
5.24621
6.43816
5.30567
8.292
6.62586
6.77553
8.65117
12.5559
7.35653
5.43006
35.7529
59.0433
8.79748
12.7007
3.91674
4.84136
4.54161
5.25281
4.74744
5.682
6.46813
3.71533
4.72219
3.90943
4.53377
5.21377
5.42468
4.33239
3.47559
4.08423
4.25968
4.20956
4.40811
5.54681
5.86764
5.08605
5.64239
7.58628
6.00746
9.45876
7.85607
6.78142
3.55083
3.82373
4.13152
4.02272
4.98118
4.3014
4.63434
3.53097
3.74289
3.91428
4.11256
4.27358
4.70162
4.53013
5.56683
5.27013
5.39709
6.61425
6.77624
6.2884
8.0721
5.65922
4.59191
4.00223
4.20902
7.45906
6.03638
4.85151
4.87246
4.71467
4.01519
4.84689
6.73416
5.64218
5.80103
35.5179
50.6697
93.7551
53.2781
61.1477
23.0777
39.4975
8.339
9.09657
6.03882
10.7391
7.16152
7.53087
11.9415
4.24747
4.98304
3.97922
4.9695
5.13314
4.11964
4.10603
5.16342
5.20338
4.33247
5.00839
7.08722
5.97764
5.95634
3.7382
5.22009
4.6096
5.52237
4.81152
6.52182
7.68496
4.61744
6.29082
8.10227
8.43011
5.32336
6.78806
5.37247
5.57553
5.8286
4.84146
5.9542
8.76759
7.41012
7.02154
4.95011
4.20461
4.3835
5.24072
5.71593
5.92058
5.0548
4.53341
5.03784
4.30247
5.44345
4.67285
5.15
6.03761
4.9784
5.60874
5.83246
5.72308
5.95152
6.96971
6.71571
4.44634
5.79512
4.58037
5.23246
4.73147
5.39715
4.30191
8.42805
30.5401
93.2981
20.7939
49.0832
67.3356
193.476
6.56992
5.83698
5.38054
7.10184
11.3214
8.35716
9.34777
5.251
6.03907
7.32369
5.86511
6.09645
6.27109
5.03873
7.49948
9.37156
8.08691
9.84891
8.37329
10.3504
12.761
4.03744
4.22141
4.97535
5.02366
5.234
6.21787
6.54092
57.4463
8.15438
13.8983
111.518
167.551
25.9094
76.4285
7.2219
10.6608
12.0339
12.2483
9.61963
8.37024
8.82593
4.96636
5.56602
5.78006
5.67494
5.8859
6.87066
6.63433
8.06549
10.078
10.7854
10.559
11.6619
14.7339
16.618
4.60993
6.71419
5.43135
5.1557
5.61961
4.46827
5.33099
5.44313
5.65881
4.8175
5.75168
7.78786
6.79514
6.51809
6.16707
9.42917
7.89208
8.57029
7.34045
9.65008
11.5568
4.94019
5.40424
6.04633
6.07289
5.57634
7.10607
7.97243
5.60952
6.98787
5.94832
10.4507
8.16892
8.73339
11.2558
5.78809
6.20571
6.68203
7.73336
8.50953
9.57833
12.5468
5.51488
7.68807
6.43964
7.82606
6.56689
7.67335
9.14443
9.47186
37.9607
112.844
84.0082
18.2058
149.875
108.131
7.7702
10.2541
6.45691
8.22948
17.4471
13.6615
10.0811
4.83282
6.40582
6.03385
7.13982
5.15569
5.92932
5.61381
5.79492
8.22098
8.06852
7.99769
6.72148
6.90944
6.88938
5.33967
8.51008
5.62212
13.3545
8.1816
8.74938
14.3568
6.45724
10.4737
8.34043
9.03004
7.50762
9.96842
12.67
5.46205
7.50862
6.35054
7.61132
6.45513
7.53567
8.93102
13.1022
76.9442
84.1232
69.7758
96.2424
84.6044
89.389
12.1119
14.4407
9.0979
9.84011
23.4381
16.3992
13.507
6.02918
10.5322
6.40961
15.2417
8.75742
9.37601
16.4442
6.37893
4.9592
5.12157
5.64747
6.94623
7.22941
5.46424
7.81737
8.02983
8.6354
12.2013
13.1862
13.8983
15.0307
6.91844
6.19241
8.0434
6.74151
7.61343
9.20382
10.8884
5.63861
6.26143
6.49192
6.56911
6.808
8.04874
7.74649
6.57545
7.57979
9.35263
9.78529
15.4577
11.4785
12.8277
6.5991
8.10518
6.84858
8.243
9.595
9.93791
7.95356
8.39194
13.728
11.4014
16.0739
13
19.0441
23.892
7.24189
9.57885
6.20153
9.8872
19.962
11.886
16.3888
8.6993
6.86822
7.12561
8.43209
10.3207
10.7206
8.13986
8.50574
12.0071
7.16988
10.6291
22.992
12.8501
18.8438
7.11285
6.62956
5.60283
6.21787
10.2749
8.14072
7.46546
6.52655
8.01926
6.76584
8.14756
9.622
9.97593
7.87511
51.9416
141.508
89.983
145.641
182.636
101.311
137.929
11.9758
12.3682
9.95626
12.9471
23.7899
16.4039
17.1052
7.22186
13.8863
10.1284
15.7256
11.3201
17.1766
24.4578
10.7299
12.002
9.86277
18.582
15.1715
17.326
21.2709
6.20531
8.5496
7.15325
9.16947
7.54397
9.0041
11.1925
11.261
9.84605
10.0243
13.4884
13.9025
11.8221
17.0265
161.609
36.0355
126.721
77.0324
82.8263
63.045
91.7973
10.9906
27.4091
19.492
24.341
19.0135
13.7254
15.4094
6.37087
10.308
7.10395
8.10904
8.46147
7.38839
6.14646
14.0949
15.4326
10.9612
13.8453
31.7184
20.2357
19.3235
10.6343
10.2675
8.75807
11.9805
20.1241
14.5413
15.6881
9.62512
9.35911
7.8455
9.2848
15.094
12.0186
11.1673
8.98359
8.90958
7.53976
9.06495
13.374
10.9777
10.8432
7.05238
11.3908
9.48579
10.36
8.76809
13.2036
16.4177
91.6651
59.8161
63.539
19.5663
64.4384
100.909
91.9142
102.894
15.4659
18.1251
20.8727
23.9851
27.4927
32.2118
36.7206
7.72601
9.77923
7.0496
10.1676
18.1056
11.5555
15.8158
6.79034
8.82612
7.02421
8.37839
10.8234
11.2817
8.0897
9.05706
6.35123
6.6093
13.5471
8.76692
9.27417
14.366
8.96019
19.2398
11.6606
25.7416
15.1465
20.2902
34.641
9.20352
12.7827
9.90301
21.0395
16.2745
17.543
22.4656
18.8079
13.4037
14.6981
31.4962
21.1479
24.8333
38.4693
8.80338
8.80063
7.42736
8.95727
13.7619
11.1022
10.77
11.647
15.0571
11.144
19.5062
13.9672
17.4399
25.4844
7.32652
9.13531
7.59123
9.89487
12.2475
12.7866
9.48879
11.0758
9.55292
9.70184
13.3739
13.9868
11.6199
17.7856
12.5608
20.4072
13.0432
9.24203
13.5399
21.3313
33.5227
58.1749
118.634
49.8784
126.827
126.91
75.7723
4.26785
10.7017
25.3377
14.1968
29.6113
16.5013
22.2012
39.1225
16.8886
34.5442
19.4073
42.8982
24.456
28.9696
51.9273
7.07316
11.9031
10.3615
12.4575
9.63911
8.64752
8.2918
9.8876
9.19989
7.70934
9.27475
16.5305
12.822
11.3254
18.9982
19.8455
22.7988
29.6211
35.788
34.1461
53.1463
13.8695
14.6393
11.3403
20.1128
29.6454
24.4476
25.2699
10.2305
13.5733
12.6919
20.1583
13.2089
14.1379
9.8688
10.2012
10.2089
8.39968
11.2097
19.2014
14.6573
14.285
14.0084
11.3153
12.6492
17.7279
20.9159
16.0325
27.4307
25.0328
23.7718
13.95
15.0479
41.7222
26.9955
25.6745
22.0329
17.8618
13.167
14.095
33.8917
23.6305
19.2895
8.7064
15.1618
10.1033
21.5137
13.5486
16.3214
26.4903
13.1694
8.5113
8.88458
11.1335
16.8983
17.7303
10.6483
19.8069
15.5115
21.4257
33.9921
21.2756
28.6513
49.346
16.3684
13.8886
11.5772
18.522
14.2949
21.9894
30.6245
12.1884
26.8887
18.1765
21.8643
15.0029
23.9551
37.5807
17.8577
44.977
36.5066
38.7061
23.6065
27.0153
27.1767
25.4584
20.4512
16.5515
29.1339
57.3711
45.9549
36.8166
18.1431
20.0394
14.0593
22.2217
46.8511
34.212
28.8671
11.3334
21.8441
16.6087
19.6685
14.5848
23.8054
33.5202
13.8506
4.19096
83.2401
16.3139
11.5356
53.3804
3.44775
7.22223
8.19425
44.2107
8.08439
21.1857
75.5477
46.2761
25.5779
19.0423
63.7843
3.56771
4.55644
4.25975
4.41512
4.71752
6.02047
6.293
3.8008
5.28005
4.73104
5.65386
5.05412
6.87128
7.91027
6.61335
5.59965
4.77686
6.14754
7.47029
9.6017
12.2174
26.418
76.7951
87.1706
92.118
64.8167
98.4762
96.739
5.55243
8.7018
5.80546
14.2004
8.87942
9.39141
15.1183
12.7253
6.89818
12.1082
18.4735
10.1317
10.6712
19.5186
8.4569
10.3452
6.75028
12.7536
9.51062
16.191
22.3905
9.07766
7.89492
14.0241
11.7961
25.5073
13.7912
21.6905
7.30374
9.73423
6.34031
10.4366
20.4041
12.2663
17.0203
5.15615
3.34271
2.3768
7.11296
3.41693
1.67957
2.74535
2.75988
5.34362
4.86382
4.10766
21.2704
4.94319
4.37942
3.05939
8.71498
3.89583
1.75921
1.92042
1.97427
2.00444
2.06229
2.26712
2.36314
2.10084
1.89709
2.15234
2.44816
2.2157
2.53396
2.79933
2.68546
2.6797
2.36576
2.76033
3.14986
3.16815
3.64445
2.26005
2.8476
2.35129
3.30585
2.68603
2.79379
3.43001
2.32439
2.87415
2.42338
3.27185
2.70209
2.81335
3.40512
2.77182
3.03711
2.51537
2.99116
4.06179
3.30693
3.66766
2.87291
3.08288
2.59929
3.01667
4.07495
3.34106
3.6579
7.31057
6.21969
26.1641
36.2781
9.12139
22.208
94.0466
3.53177
3.52599
3.06679
4.22464
3.62808
4.24489
5.01137
3.7853
3.59755
3.13096
4.64809
3.75998
4.36506
5.46344
3.25232
4.53851
3.74147
4.69398
3.80512
4.42366
5.56139
4.09443
4.04151
3.24926
3.37934
5.60147
4.2098
4.25534
5.82791
4.85112
4.11481
4.98869
5.99846
6.02163
7.41691
6.19623
4.18807
5.15807
5.15509
8.21187
6.58557
6.20443
4.36023
6.56473
5.39013
5.2324
8.6414
6.78598
6.31265
3.62581
5.12532
5.11306
6.14154
4.03183
4.54265
4.5757
5.98295
6.00808
4.63276
5.46721
11.2487
7.37983
7.27994
13.2506
7.20539
9.54322
5.84989
7.16273
7.39909
9.5109
5.93884
7.64844
9.88711
10.8239
7.6655
9.90976
15.3235
8.34033
11.2964
7.73237
11.6683
7.84327
10.2765
16.7264
6.61738
12.9117
12.5024
15.1683
9.50671
9.28918
8.29628
19.9839
13.8829
10.976
31.6244
17.0268
22.0363
40.6293
11.3845
14.4511
8.88918
25.9299
15.241
19.8929
34.4682
22.9994
21.1158
13.8504
12.8789
21.1135
9.3383
13.8727
15.8728
17.941
11.2006
19.3507
28.3191
32.2927
48.3496
47.0629
17.6977
31.076
18.3532
10.9999
15.642
27.2071
14.632
39.7849
25.2012
16.4041
10.1678
14.59
25.1643
29.2845
26.069
15.8193
16.7785
45.6743
27.8196
31.0387
37.4959
26.2249
15.2126
27.147
63.4796
46.9532
38.483
25.1071
33.9957
18.3076
29.7074
65.6186
52.5283
41.4612
28.0792
35.0682
19.655
30.8772
61.324
50.638
43.8031
15.4067
12.8888
10.0826
12.7909
28.8322
20.9421
16.7971
17.2546
35.5737
36.8597
45.1643
21.0702
30.7932
29.4002
22.3498
15.8299
26.6783
28.2375
63.6486
47.5025
40.3776
11.365
20.8659
23.3552
19.1479
14.9669
16.11
14.0164
40.3423
28.6229
22.5414
34.0734
62.6776
58.3041
42.9386
10.4553
14.7399
13.4332
22.6069
15.3618
13.9876
10.0587
16.5141
36.5961
21.6106
41.8799
24.0874
32.4692
59.4785
37.266
40.3126
48.8121
31.3419
34.5443
18.7773
22.3061
15.8319
31.3197
26.8235
38.7476
18.6052
26.5971
22.1139
17.9578
30.7347
24.2877
35.3377
30.7815
38.7767
41.3727
14.9613
18.9404
12.0951
20.2103
44.2929
33.7118
25.8153
33.0414
44.3832
26.9965
29.7105
42.5273
35.2998
38.4528
12.284
31.1152
19.7894
24.9819
15.8651
26.6965
44.6153
42.9759
33.9884
27.9043
48.0781
61.1501
74.9519
98.3365
0.130547
11.2282
103.478
0.18313
39.321
13.0344
0.0193785
21.663
39.569
23.4328
34.9995
24.478
26.2227
35.9805
11.761
26.4765
23.6464
20.8464
17.7363
15.9751
14.845
24.9948
41.7856
29.1703
62.6802
44.4976
49.4291
64.9546
14.0156
31.0844
23.0969
29.5218
21.2044
37.3663
52.9088
33.8797
33.9108
19.7978
92.3663
57.5356
32.431
57.4993
90.8893
36.217
58.293
32.8236
20.8982
36.1586
58.2422
35.7997
22.7299
40.887
67.2038
91.1449
37.7012
60.3198
94.7197
67.5942
37.3341
40.8935
23.7222
43.3552
72.0657
64.4346
66.1942
37.0234
70.9408
42.1076
40.5807
23.4854
44.5205
45.1002
27.1845
36.5049
60.678
54.2042
55.3886
64.3637
55.1364
36.3519
44.4175
111.127
69.1898
78.1778
14.6884
24.0009
37.3063
19.6913
20.5948
25.1329
14.0391
23.7992
53.5368
31.6355
64.9131
38.249
51.7943
90.4894
38.2416
33.9676
22.6657
28.4224
72.6366
48.0484
44.3295
44.9433
37.1566
26.4023
39.9898
110.813
57.8361
72.9656
45.6067
45.722
28.9446
73.5682
52.0415
73.8933
85.6602
45.0358
54.2583
63.276
70.0168
80.0991
94.7318
114.951
75.9961
76.9272
61.9057
35.7218
52.3841
58.3193
77.8805
88.4573
79.6011
54.505
46.6131
30.8285
55.4256
77.1831
19.2741
59.6379
34.1243
46.2676
25.9491
46.6085
79.2924
17.1033
41.305
43.9508
33.1099
24.2045
29.8172
23.0521
31.5229
28.3902
19.8424
33.388
88.4645
49.7359
55.9833
49.254
55.5031
32.7391
77.8546
57.7124
76.4883
85.3437
67.1565
79.7767
40.8585
80.2672
72.7092
104.459
91.6492
56.9725
57.7857
58.536
46.0027
48.3818
28.0124
36.7401
2.48907
30.7501
2.52704
31.7256
7.76775
2.51482
6.82835
2.84271
4.81111
4.77818
2.85127
6.81545
3.35638
4.69404
6.22057
2.51743
4.73849
3.37961
6.3202
2.50941
2.594
2.57605
2.99735
2.97586
3.04647
3.0686
2.54274
2.60255
2.57925
3.01488
2.9822
3.0502
3.07844
39.1547
9.57115
3.26843
3.27532
9.55396
7.77084
39.2531
4.60602
8.2462
6.41429
4.57052
8.40884
6.30589
30.4979
2.68592
2.82555
2.66773
3.15094
3.43079
3.40985
3.17312
2.82837
2.68855
2.66832
3.15144
3.43725
3.17533
3.41206
2.65121
2.47334
2.63411
3.2979
3.16093
3.14293
3.31879
36.6652
11.5904
7.12945
7.0213
36.3562
11.5551
31.9508
3.69485
4.75743
3.65479
3.7393
5.04463
4.99302
3.77362
4.74683
3.67333
3.64724
3.73477
5.01808
3.76051
4.98512
2.48413
2.67519
2.64369
3.30646
3.18512
3.33749
3.15268
2.9019
3.33456
2.8834
3.5787
4.11695
4.09473
3.59949
3.34346
2.92795
2.8937
3.58857
4.14695
3.62319
4.10618
0.936755
3.18035
1.93219
2.7204
1.26463
0.936052
1.95673
1.24784
2.7379
1.82862
4.60857
2.37081
1.79507
3.19018
2.33343
4.56852
0.927637
1.09372
1.08258
1.32933
1.19722
1.34187
1.18614
0.959582
1.08747
1.10491
1.33546
1.21858
1.35569
1.19492
1.2489
1.52428
1.50256
1.50023
1.82596
1.5169
1.80407
1.25895
1.49808
1.51012
1.50239
1.82318
1.52109
1.80325
1.80159
2.11507
2.08353
2.44679
2.17155
2.47751
2.14561
1.8081
2.08345
2.07383
2.43815
2.16162
2.14211
2.4528
2.33658
2.46626
2.49848
2.74618
2.96301
2.78296
2.92649
2.47284
2.32438
2.45762
2.73301
2.93483
2.74551
2.9165
1.64262
1.51583
2.08509
1.91847
1.65584
2.07105
1.50297
1.65029
1.92815
1.53731
2.10892
1.6749
2.08016
1.5118
1.83752
2.30951
2.21737
2.69965
1.85409
2.29273
2.1965
1.84302
2.70596
2.33269
2.22613
1.86889
2.30135
2.19947
2.9311
2.61129
3.63894
3.15528
2.96299
2.58645
3.60437
2.92457
3.15848
2.6114
3.63032
2.58608
2.94594
3.60114
3.29994
4.16972
3.61231
4.55158
3.34225
4.11901
3.56784
3.28665
4.53831
4.13356
3.58095
3.3052
4.10662
3.55693
3.24918
3.99966
3.97958
4.12102
4.09703
5.37688
5.41123
3.25152
4.01019
3.98312
4.12706
4.09933
5.37958
5.41757
3.88889
4.48776
5.52924
6.78803
5.48368
4.45578
3.91693
3.88865
6.78647
5.51302
4.48629
3.91534
5.48017
4.45615
4.00331
3.88331
4.83287
4.67641
4.81473
3.86282
4.02491
4.01281
4.69384
3.90673
4.8773
4.04671
4.83179
3.87263
3.92133
4.56908
3.89552
4.87458
4.85027
6.00169
6.0397
3.90279
4.60923
3.94189
4.91289
4.8637
6.01123
6.06532
4.33567
5.00829
5.26263
6.20575
5.24453
4.98882
4.35636
4.34857
6.24211
5.32417
5.05725
4.38768
5.26784
5.00728
5.50329
6.32541
5.43995
7.87812
10.2452
10.1098
7.97142
5.42828
6.34873
5.46519
7.86619
10.1403
7.92843
10.081
12.9865
5.21555
7.71899
5.18772
7.90275
12.9218
7.95519
5.88105
9.51713
5.8391
8.4724
14.8208
14.7317
8.52478
9.51523
5.87794
5.8394
8.47328
14.7946
8.52123
14.7279
7.72203
5.22655
5.19191
7.90485
12.9839
7.95785
12.925
7.03971
7.86104
7.78625
11.973
11.836
13.4839
13.6049
7.06486
7.80879
7.77291
11.8498
11.803
13.4594
13.5038
6.14036
8.2331
6.12113
8.40129
12.9579
12.9255
8.44846
8.29073
6.21407
6.14686
8.42789
13.154
8.52348
12.9936
8.99451
11.5231
8.93265
15.7976
20.586
20.5003
15.9
11.5174
8.95813
8.92565
15.786
20.541
15.8344
20.4967
23.0793
13.4777
24.3218
39.2351
24.1903
22.951
13.5524
13.4781
39.2941
24.2938
23.0559
13.5426
24.1893
22.9507
12.6803
30.3766
21.3638
17.3373
12.7787
21.1965
17.2626
12.6814
21.3062
17.5013
30.4374
21.1697
17.3046
12.7962
36.3551
21.0438
20.9802
23.8471
34.9231
23.8881
35.1983
4.48621
6.74621
43.6744
8.68628
3.40068
6.77928
8.00161
43.8419
3.39467
4.19209
3.38501
4.18108
4.47587
5.89231
5.91054
3.3866
4.49712
4.2013
4.18406
4.47941
5.89675
5.92143
11.8624
11.8815
6.7684
18.1049
9.92894
9.90089
18.0705
5.45033
13.8772
7.99805
7.95579
5.43306
8.6505
13.8322
11.8993
6.7513
11.8715
9.90714
18.1167
9.93982
18.0792
7.95862
5.4606
5.43718
8.65461
13.8783
8.69129
13.8365
2.70032
5.23435
2.7022
1.87991
1.64357
2.70345
2.70831
5.24571
1.63976
1.93037
1.63133
1.92071
1.87165
2.2098
2.21953
1.63309
1.88338
1.93478
1.92246
1.87287
2.21149
2.22488
3.24933
2.21846
2.69115
2.20977
2.62406
2.63464
3.23785
2.27471
2.68636
2.26221
2.63353
3.20466
2.64608
3.18849
2.69168
2.22106
2.2103
2.62542
3.25537
2.63995
3.23944
2.68862
2.27989
2.2642
2.63589
3.21373
2.6533
3.19152
4.02094
3.17215
3.96007
5.2138
3.18562
3.94254
4.00668
3.1747
5.21822
4.03044
3.97144
3.19398
3.94637
4.00972
28.6651
15.4862
25.4616
15.4512
43.9051
25.3741
28.5987
15.4572
43.9925
28.6692
25.4481
15.4926
25.3765
28.6086
34.8707
24.0283
21.2696
36.4268
21.0401
23.8754
35.1146
30.8444
29.8705
26.363
26.4497
32.178
31.3058
30.2216
26.4872
32.2909
31.0855
30.0324
26.3983
31.4415
30.3156
40.978
68.3358
67.416
59.9949
58.1619
73.4814
73.9751
30.8113
26.6643
29.9273
27.765
31.9016
31.1419
30.4181
52.3107
71.1367
77.3269
92.6552
77.3597
77.5569
62.0987
46.2754
40.5726
33.7105
47.5434
52.7378
47.0661
55.349
42.3605
48.0944
42.9308
71.6237
55.564
52.0995
54.6699
50.4723
55.6964
31.9819
44.2674
135.149
72.6687
81.5238
40.5681
52.3499
29.2073
44.9431
125.534
65.2418
85.8878
60.244
75.8706
83.843
87.5321
81.2288
114.263
96.7621
36.9213
31.912
21.7331
37.9578
99.1756
66.7979
57.2937
30.2642
35.4121
34.7561
33.2556
34.0162
32.6196
31.9473
36.5452
79.2931
79.2454
88.2607
61.6754
59.0596
47.9878
60.772
69.0105
37.0004
51.4113
141.772
86.6713
98.1519
75.9873
59.3914
42.79
71.7057
150.179
100.205
122.395
53.5019
78.5472
79.4936
72.3722
80.862
97.8472
78.8905
49.308
68.1746
72.5687
66.3038
61.8821
65.4586
63.578
109.699
90.7907
67.9782
177.734
118.108
148.074
179.262
106.341
91.0107
56.4395
103.812
105.364
106.358
90.9955
93.6841
92.4633
60.7713
100.386
102.271
104.474
91.8511
74.8896
73.1245
69.3273
67.7289
66.3388
49.1823
64.6872
94.5926
93.4393
61.2246
94.3823
101.66
105.516
103.356
64.5986
52.7798
36.3096
65.5351
109.563
90.9461
98.2349
94.5707
98.8613
96.9383
91.038
97.2607
64.4646
91.0581
92.4752
74.7959
85.8246
96.1303
93.646
89.3951
90.4877
95.0151
98.3562
97.0935
93.3575
93.5988
70.5488
93.1068
63.7803
179.167
154.603
174.644
97.2858
108.577
121.391
84.6314
139.125
106.811
177.723
129.809
146.534
158.35
82.8323
150.068
108.463
176.993
138.446
144.032
162.775
60.0165
64.4985
71.6924
58.2738
62.8512
71.1169
63.9389
89.8383
82.4024
72.2184
61.8329
71.9703
62.3764
72.4157
39.1279
38.568
38.4429
43.3188
43.5542
43.4819
42.9552
98.3323
103.255
64.3535
86.9641
124.483
113.373
124.819
91.2323
91.3202
72.6046
86.7138
93.93
91.6062
90.5769
107.999
119.859
113.135
149.611
144.155
133.326
134.136
74.5178
144.415
157.982
169.239
120.398
110.299
137.181
132.696
104.455
96.948
126.487
97.9719
139.563
96.3661
30.0589
26.353
30.4492
30.8323
6.56777
31.4055
26.554
30.7471
13.2782
35.1916
0.527219
48.2159
0.151037
5.45698e-07
50.6167
3.12108e-05
2.24183e-10
46.6778
0.471804
2.37512e-07
8.78019e-14
41.3424
5.21109
2.05202e-07
6.6435e-13
2.22045e-16
21.9169
0.331335
2.11603e-06
1.28286e-11
2.22045e-16
2.22045e-16
0.00977001
9.61257e-07
1.29097e-11
2.22045e-16
2.22045e-16
2.22045e-16
4.99519e-08
2.20736e-12
2.22045e-16
2.22045e-16
2.22045e-16
2.22045e-16
2.62876e-15
2.22045e-16
2.22045e-16
2.22045e-16
2.22045e-16
2.22045e-16
2.22045e-16
2.22045e-16
2.22045e-16
2.22045e-16
2.22045e-16
2.22045e-16
29.0244
5.88503
8.47543
5.99071
25.0097
8.69892
30.1673
46.0493
39.4633
37.8107
16.8935
39.7953
47.1742
46.5431
23.5389
52.1816
51.3174
13.0782
52.1001
52.5102
52.7799
21.8639
45.156
48.8308
45.5754
44.9708
51.1062
49.3127
61.4048
57.0202
20.8533
12.7042
49.3619
57.55
59.465
6.09491
5.87472
6.08574
8.56147
8.19166
8.20529
8.54668
5.91134
6.21054
6.12658
8.65888
8.44618
8.82095
8.29497
6.79541
8.48023
6.7898
9.88095
13.2029
13.231
9.86028
8.56094
6.94452
6.84344
10.0018
13.6828
10.1988
13.4028
13.0795
22.7872
13.023
22.6644
23.4283
39.691
39.6993
13.0266
22.7618
23.5154
22.6642
23.4277
39.7303
39.7513
0.698258
31.6735
50.1762
50.0347
50.2527
32.5404
0.74164
21.8785
33.1169
33.0955
37.6649
37.7865
46.6139
46.1292
21.8908
37.4884
33.0625
33.0639
37.7027
46.4172
45.7063
24.7782
26.6172
24.9324
27.6103
28.8226
27.608
28.8058
26.4506
28.7897
16.9364
16.8415
26.3453
28.8407
38.3075
16.8351
26.4242
26.3472
28.8166
28.87
38.4367
38.0592
28.2001
27.1128
25.4344
28.7397
30.349
27.9432
29.2458
36.5564
12.3602
21.1676
12.3733
21.1557
20.8945
36.5815
12.4963
21.6055
21.3092
21.548
21.1406
36.8785
37.3867
28.6191
30.8413
28.5978
32.4683
30.4242
30.4387
32.5429
23.9288
24.8893
13.9437
13.9875
24.0628
25.0363
13.3248
44.5304
2.88936
37.6524
36.4092
43.5473
42.405
44.8412
14.1994
24.4584
13.847
25.9804
14.5401
25.4308
13.5282
5.42864e-05
1.62882e-08
6.11984e-16
34.3249
0.882177
3.5721e-11
2.22045e-16
25.9504
31.1571
0.00252237
2.49061e-08
7.43808e-16
0.000144579
4.79396e-08
3.03997e-15
1.58331e-05
5.3712e-11
2.22045e-16
2.22045e-16
4.39736
8.82061e-08
1.04909e-13
2.22045e-16
61.5124
0.0152641
9.92456e-07
70.8572
1.08346e-07
1.65747e-08
4.16075e-05
2.43253e-07
2.22323e-13
56.0625
0.0274091
1.60371e-11
2.22045e-16
76.4118
7.05997e-05
9.35037e-08
9.59721e-15
2.22045e-16
69.7128
24.0501
9.01428e-08
6.59735e-14
2.22045e-16
2.22045e-16
1.33026e-07
4.75173e-14
2.22045e-16
2.22045e-16
2.22045e-16
2.34016e-15
2.22045e-16
2.22045e-16
2.22045e-16
2.22045e-16
2.22045e-16
2.22045e-16
2.22045e-16
2.22045e-16
2.22045e-16
2.22045e-16
2.22045e-16
2.22045e-16
2.22045e-16
2.22045e-16
33.4726
0.0973938
0.2371
53.4435
0.173493
4.03164e-07
0.332429
3.92374e-06
1.26917e-11
25.963
0.364782
5.23698e-08
2.49167e-15
35.4172
3.66149
3.89441e-07
7.3245e-13
2.22045e-16
43.4725
0.256143
1.33709e-06
5.63682e-12
2.22045e-16
2.22045e-16
0.0044375
6.45576e-07
5.291e-12
2.22045e-16
2.22045e-16
2.22045e-16
9.07324e-09
9.5549e-13
2.22045e-16
2.22045e-16
2.22045e-16
2.22045e-16
3.17491e-16
2.22045e-16
2.22045e-16
2.22045e-16
2.22045e-16
2.22045e-16
2.22045e-16
2.22045e-16
2.22045e-16
2.22045e-16
2.22045e-16
2.22045e-16
33.8261
43.6483
1.46727e-05
7.43348e-12
2.22045e-16
4.87514e-05
1.24483e-11
2.22045e-16
2.22045e-16
2.22045e-16
2.22045e-16
2.22045e-16
2.22045e-16
2.22045e-16
2.22045e-16
2.22045e-16
2.22045e-16
2.22045e-16
2.22045e-16
2.22045e-16
2.22045e-16
2.22045e-16
6.34866e-15
2.22045e-16
2.22045e-16
2.22045e-16
2.22045e-16
2.22045e-16
2.22045e-16
2.57715e-08
4.78011e-14
2.22045e-16
2.22045e-16
2.22045e-16
2.22045e-16
2.22045e-16
0.109962
4.05071e-07
1.32856e-11
2.22045e-16
2.22045e-16
2.22045e-16
2.22045e-16
56.8856
90.1887
0.000161315
3.69215e-10
2.22045e-16
2.22045e-16
2.22045e-16
34.4262
105.721
0.00128507
2.08212e-10
2.22045e-16
2.22045e-16
26.3993
108.649
5.68764e-05
1.0454e-13
2.22045e-16
53.9256
8.21585
2.27901e-09
4.79964e-16
2.22045e-16
2.22045e-16
2.22045e-16
2.22045e-16
2.22045e-16
2.22045e-16
2.22045e-16
2.22045e-16
2.22045e-16
2.22045e-16
2.22045e-16
2.22045e-16
2.22045e-16
2.22045e-16
2.22045e-16
2.22045e-16
2.22045e-16
2.22045e-16
2.22045e-16
2.22045e-16
2.22045e-16
2.48443e-10
2.22045e-16
2.22045e-16
2.22045e-16
2.22045e-16
2.22045e-16
2.22045e-16
0.00127667
1.01563e-10
2.22045e-16
2.22045e-16
2.22045e-16
2.22045e-16
2.22045e-16
81.0296
0.785944
7.5538e-09
2.70345e-14
2.22045e-16
2.22045e-16
2.22045e-16
87.9783
80.4719
4.36985e-07
9.39894e-16
2.22045e-16
2.22045e-16
104.026
103.423
2.55293e-08
2.22045e-16
2.22045e-16
96.5015
0.00110864
1.30875e-10
2.22045e-16
2.22045e-16
2.22045e-16
2.22045e-16
2.22045e-16
2.22045e-16
2.22045e-16
2.22045e-16
2.22045e-16
2.22045e-16
2.22045e-16
2.22045e-16
2.22045e-16
2.22045e-16
2.22045e-16
2.22045e-16
2.22045e-16
2.22045e-16
2.22045e-16
2.22045e-16
2.22045e-16
2.22045e-16
2.22045e-16
2.22045e-16
2.22045e-16
2.22045e-16
2.22045e-16
2.22045e-16
2.22045e-16
1.19282e-09
3.49463e-16
2.22045e-16
2.22045e-16
2.22045e-16
2.22045e-16
2.22045e-16
0.0117789
2.46857e-08
1.79062e-14
2.22045e-16
2.22045e-16
2.22045e-16
2.22045e-16
174.72
4.08994e-07
1.46244e-13
2.22045e-16
2.22045e-16
2.22045e-16
101.716
14.6296
2.63875e-14
2.22045e-16
2.22045e-16
10.9237
0.000126632
4.5393e-16
2.22045e-16
2.22045e-16
2.22045e-16
2.22045e-16
2.22045e-16
2.22045e-16
2.22045e-16
2.22045e-16
2.22045e-16
2.22045e-16
2.22045e-16
2.22045e-16
2.22045e-16
2.22045e-16
2.22045e-16
2.22045e-16
2.22045e-16
2.22045e-16
2.22045e-16
2.22045e-16
2.22045e-16
2.22045e-16
2.22045e-16
2.22045e-16
2.22045e-16
2.22045e-16
2.22045e-16
2.22045e-16
2.22045e-16
4.03326e-15
2.22045e-16
2.22045e-16
2.22045e-16
2.22045e-16
2.22045e-16
2.22045e-16
0.023098
3.27219e-13
2.22045e-16
2.22045e-16
2.22045e-16
2.22045e-16
2.22045e-16
77.6666
2.59285
1.23183e-10
2.22045e-16
2.22045e-16
2.22045e-16
2.22045e-16
97.6508
0.0050392
1.80284e-11
2.22045e-16
2.22045e-16
2.22045e-16
98.3589
7.2871
2.37856e-13
2.22045e-16
2.22045e-16
2.22045e-16
2.22045e-16
2.22045e-16
2.22045e-16
2.22045e-16
2.22045e-16
2.22045e-16
2.22045e-16
2.22045e-16
2.22045e-16
2.22045e-16
2.22045e-16
2.22045e-16
2.22045e-16
2.22045e-16
2.22045e-16
2.22045e-16
2.22045e-16
2.22045e-16
2.22045e-16
2.22045e-16
2.22045e-16
2.22045e-16
2.22045e-16
2.22045e-16
2.22045e-16
2.22045e-16
2.22045e-16
2.22045e-16
2.22045e-16
2.22045e-16
2.22045e-16
2.22045e-16
2.22045e-16
2.22045e-16
9.58565e-13
3.58374e-16
2.22045e-16
2.22045e-16
2.22045e-16
2.22045e-16
2.22045e-16
2.86021e-06
1.32409e-07
1.0325e-15
2.22045e-16
2.22045e-16
2.22045e-16
2.22045e-16
101.807
0.00556687
2.64943e-07
6.56832e-16
2.22045e-16
2.22045e-16
2.22045e-16
0.00205773
3.76113e-10
2.22045e-16
2.22045e-16
2.22045e-16
2.22045e-16
2.22045e-16
2.22045e-16
2.22045e-16
2.22045e-16
2.22045e-16
2.22045e-16
2.22045e-16
2.22045e-16
2.22045e-16
2.22045e-16
2.22045e-16
2.22045e-16
2.22045e-16
2.22045e-16
2.22045e-16
2.22045e-16
2.22045e-16
2.22045e-16
2.22045e-16
2.22045e-16
2.22045e-16
2.22045e-16
2.22045e-16
2.22045e-16
2.22045e-16
2.22045e-16
2.22045e-16
2.22045e-16
2.22045e-16
2.22045e-16
2.22045e-16
2.22045e-16
2.22045e-16
2.22045e-16
2.22045e-16
2.22045e-16
2.22045e-16
2.22045e-16
2.22045e-16
2.22045e-16
2.22045e-16
1.01508e-11
5.88405e-16
2.22045e-16
2.22045e-16
2.22045e-16
2.22045e-16
2.22045e-16
0.00051631
1.06423e-07
8.33311e-16
2.22045e-16
2.22045e-16
2.22045e-16
2.22045e-16
61.6609
92.3426
8.13827e-08
1.26854e-09
2.22045e-16
2.22045e-16
2.22045e-16
2.22045e-16
2.22045e-16
2.22045e-16
2.22045e-16
2.22045e-16
2.22045e-16
2.22045e-16
2.22045e-16
2.22045e-16
2.22045e-16
2.22045e-16
2.22045e-16
2.22045e-16
2.22045e-16
2.22045e-16
2.22045e-16
2.22045e-16
2.22045e-16
2.22045e-16
2.22045e-16
2.22045e-16
2.22045e-16
2.22045e-16
2.22045e-16
2.22045e-16
2.22045e-16
2.22045e-16
2.22045e-16
2.22045e-16
2.22045e-16
2.22045e-16
2.22045e-16
2.22045e-16
2.22045e-16
2.22045e-16
2.22045e-16
2.22045e-16
2.22045e-16
2.22045e-16
2.22045e-16
2.22045e-16
2.22045e-16
2.22045e-16
2.22045e-16
2.22045e-16
2.22045e-16
2.22045e-16
2.22045e-16
2.22045e-16
2.22045e-16
2.06174e-13
2.38832e-16
2.22045e-16
2.22045e-16
2.22045e-16
2.22045e-16
2.22045e-16
5.85065e-06
2.89806e-09
1.40284e-12
2.22045e-16
2.22045e-16
2.22045e-16
2.22045e-16
2.22045e-16
2.22045e-16
2.22045e-16
2.22045e-16
2.22045e-16
2.22045e-16
2.22045e-16
2.22045e-16
2.22045e-16
2.22045e-16
2.22045e-16
2.22045e-16
2.22045e-16
2.22045e-16
2.22045e-16
2.22045e-16
2.22045e-16
2.22045e-16
2.22045e-16
2.22045e-16
2.22045e-16
2.22045e-16
2.22045e-16
2.22045e-16
2.22045e-16
2.22045e-16
2.22045e-16
2.22045e-16
2.22045e-16
2.22045e-16
2.22045e-16
2.22045e-16
2.22045e-16
2.22045e-16
2.22045e-16
2.22045e-16
2.22045e-16
2.22045e-16
2.22045e-16