/*--------------------------------*- C++ -*----------------------------------*\
  =========                 |
  \\      /  F ield         | OpenFOAM: The Open Source CFD Toolbox
   \\    /   O peration     | Website:  https://openfoam.org
    \\  /    A nd           | Version:  9
     \\/     M anipulation  |
\*---------------------------------------------------------------------------*/
FoamFile
{
    format      ascii;
    class       volScalarField;
    location    "0.0002";
    object      alpha.c4;
}
// * * * * * * * * * * * * * * * * * * * * * * * * * * * * * * * * * * * * * //

dimensions      [0 0 0 0 0 0 0];

internalField   nonuniform List<scalar> 
4077
(
1.63174e-44
5.60047e-42
1.18275e-46
2.59966e-46
1.55453e-46
4.53219e-44
8.07702e-44
1.18516e-44
5.95008e-44
1.28444e-39
2.71147e-37
1.08395e-41
1.89607e-41
1.08203e-41
1.88652e-41
2.38635e-39
2.38138e-39
2.74632e-39
3.90403e-39
9.41935e-38
4.42587e-37
3.82619e-50
2.54326e-47
4.45166e-51
2.09676e-48
4.22783e-55
5.38993e-57
6.14766e-56
7.78924e-58
3.63731e-50
8.76683e-52
1.92348e-51
7.72579e-48
2.39049e-52
3.48181e-51
5.55526e-49
3.91799e-47
2.14041e-48
2.14486e-48
2.10101e-48
8.2188e-57
5.4398e-57
2.02322e-56
6.37851e-59
2.38357e-56
6.77284e-59
7.64298e-57
1.22227e-57
3.49555e-57
1.0589e-59
7.47769e-58
1.36903e-57
2.45814e-57
9.24603e-60
1.79582e-48
3.30848e-49
3.27476e-49
1.18288e-46
4.68143e-46
5.25265e-46
1.43186e-46
2.46879e-50
3.64714e-50
2.47322e-50
1.49914e-52
3.44878e-52
1.31547e-52
3.78743e-52
1.09548e-47
7.73306e-48
1.09755e-47
3.5207e-58
4.22344e-58
5.8938e-59
1.71141e-56
1.71649e-56
3.55243e-58
2.10629e-56
2.03376e-56
4.41233e-58
1.5533e-57
3.79229e-61
8.12982e-60
2.30582e-58
1.77922e-58
7.20111e-60
6.17966e-59
1.26592e-60
4.4096e-61
9.61802e-60
2.72783e-58
2.24617e-58
1.45915e-60
8.62309e-60
7.39535e-59
1.0004e-61
1.32785e-60
2.04876e-59
3.15365e-59
1.21396e-61
8.42714e-61
1.94465e-59
3.78107e-61
1.78519e-58
7.94014e-60
2.31308e-58
6.94675e-60
6.19841e-59
1.27025e-60
4.3153e-61
3.44032e-58
8.03857e-60
2.62263e-58
8.31749e-60
7.27002e-59
1.38305e-60
1.43687e-53
4.45071e-51
4.30442e-51
4.30884e-51
3.26375e-53
2.19771e-53
2.32632e-53
3.07433e-53
1.30361e-43
1.95754e-45
1.31996e-43
1.30516e-43
1.32155e-43
1.26521e-43
8.08515e-42
2.76545e-45
1.95922e-45
2.77055e-45
5.4997e-46
3.56086e-44
8.19996e-42
5.61622e-46
5.50604e-46
5.62313e-46
3.57465e-44
1.28152e-43
4.76939e-52
5.00166e-49
1.74815e-49
1.81242e-49
5.08044e-49
2.26664e-51
5.2729e-52
7.30715e-42
2.31605e-43
8.11234e-42
7.29555e-42
8.0726e-42
1.3147e-41
3.82571e-40
2.8937e-43
2.3161e-43
2.89611e-43
1.53725e-39
2.54689e-41
5.92784e-52
7.30464e-58
2.01098e-57
3.59387e-56
1.20601e-55
8.51176e-56
8.73787e-56
6.54885e-58
3.30004e-56
1.22754e-55
2.61248e-60
5.19106e-60
4.9029e-58
7.79618e-58
5.86329e-60
4.92964e-58
2.56505e-60
5.85466e-60
2.03703e-57
1.52802e-59
1.13315e-57
1.5647e-59
1.13336e-57
5.84771e-60
2.1547e-60
4.63534e-60
4.29792e-58
6.40655e-58
2.19873e-60
4.53594e-60
4.27015e-58
2.16638e-58
6.77375e-54
1.89996e-58
6.27543e-54
1.90917e-59
4.28531e-55
8.51676e-57
1.12057e-54
2.04844e-51
2.43827e-62
3.86626e-62
2.66722e-60
3.36214e-60
9.91374e-61
1.76495e-58
1.82901e-60
5.49316e-59
4.53499e-56
2.6478e-58
1.40358e-56
2.1121e-62
3.49404e-62
2.32316e-60
3.03093e-60
1.86831e-57
8.5116e-61
1.55367e-58
1.64273e-60
4.8063e-59
4.09075e-56
2.35966e-58
7.43765e-56
1.2601e-56
6.43005e-56
2.10975e-63
6.05969e-62
2.40743e-61
1.67386e-58
8.79356e-61
7.66214e-62
1.01581e-59
1.8152e-60
3.27429e-60
4.31568e-57
2.74686e-57
8.51252e-57
4.59305e-59
8.50008e-58
2.72041e-57
9.80809e-60
6.25916e-55
9.91751e-59
4.39747e-54
7.86223e-58
6.92934e-59
3.78821e-55
1.26135e-56
8.90792e-57
1.85473e-56
4.23834e-54
9.08037e-55
3.62512e-54
1.39385e-46
1.04815e-43
9.49244e-49
1.51005e-52
4.28132e-46
3.18712e-48
1.01604e-51
8.34465e-47
5.63141e-65
1.6787e-64
1.1924e-62
1.57408e-62
9.42934e-65
1.19858e-62
5.59336e-65
1.04359e-64
3.86202e-62
2.60848e-64
2.22121e-62
2.59344e-64
2.22194e-62
1.04242e-64
4.07525e-62
1.25692e-62
5.28169e-60
7.80116e-61
4.07908e-63
5.28386e-60
4.1608e-62
7.4538e-62
3.35669e-60
1.68036e-62
9.17348e-60
1.66878e-62
9.17789e-60
7.46756e-62
4.67849e-65
1.48682e-64
1.008e-62
1.33664e-62
4.71208e-65
7.93903e-65
1.00901e-62
9.44867e-65
3.49777e-62
2.38402e-64
2.00342e-62
2.3631e-64
2.00639e-62
9.40378e-65
3.36745e-62
1.11515e-62
4.49808e-60
6.82638e-61
3.4554e-62
3.52274e-63
4.44833e-60
4.06297e-62
3.03124e-60
1.49555e-62
5.08057e-60
1.49912e-62
5.48344e-60
3.63269e-62
2.53622e-60
2.0466e-57
1.47967e-59
3.75558e-58
1.66838e-59
4.48894e-58
2.12339e-60
4.49768e-66
1.68943e-65
9.43658e-64
2.01454e-63
4.99782e-66
1.40863e-65
9.43702e-64
9.55678e-65
2.3169e-62
8.89597e-64
5.50443e-62
1.2836e-64
2.08981e-62
6.21191e-64
3.85236e-63
1.25709e-63
5.30499e-61
2.30701e-61
4.22776e-63
1.08441e-63
5.04213e-61
2.73896e-61
1.52416e-60
5.71592e-59
8.59727e-59
3.06841e-61
5.88168e-61
5.56205e-59
2.62301e-63
5.18439e-61
1.08157e-62
9.88977e-61
2.31205e-63
5.4608e-61
2.04733e-62
1.85006e-59
1.61796e-61
9.33846e-60
3.82163e-59
1.0839e-61
3.02779e-59
3.44129e-59
5.01786e-57
7.31258e-57
1.90862e-54
5.34012e-55
7.73124e-57
6.67658e-57
1.32319e-54
1.0624e-57
1.96321e-60
1.03263e-58
3.27179e-58
4.37849e-60
4.19374e-58
5.48749e-58
2.83321e-55
6.07248e-56
3.00003e-53
1.52891e-53
1.13479e-55
1.1419e-55
7.36175e-53
7.5369e-45
1.87319e-44
3.20223e-47
1.47806e-45
4.68806e-45
2.1592e-44
1.2534e-45
4.69181e-48
2.23018e-49
2.8859e-50
1.53207e-47
2.09028e-50
1.16729e-47
5.16963e-48
8.96672e-53
4.42191e-54
4.15949e-52
1.41882e-51
4.26785e-49
1.87557e-49
5.81091e-50
4.55837e-52
1.34004e-52
3.44452e-50
3.4056e-52
6.7211e-50
3.32339e-50
2.64591e-48
7.71308e-51
3.7123e-51
2.34702e-49
1.85495e-50
1.32088e-48
8.65984e-49
1.49079e-61
9.15616e-57
1.28547e-61
8.26605e-57
8.43139e-63
5.54734e-58
2.58145e-59
3.18017e-57
9.58366e-66
1.77753e-63
5.99864e-64
5.90758e-64
5.91127e-59
4.99877e-62
1.8089e-59
2.05021e-65
7.94611e-66
1.50607e-63
5.05243e-64
1.21004e-63
5.0052e-64
5.20657e-59
4.30637e-62
1.59121e-59
1.29581e-66
6.54366e-65
9.55507e-65
2.54703e-63
8.09347e-65
2.67023e-63
3.40488e-60
1.29152e-61
1.07772e-60
7.30934e-63
3.04092e-61
5.15379e-61
2.25245e-59
3.07995e-68
9.60291e-66
6.80284e-68
6.81209e-66
6.8523e-68
6.8219e-66
3.06508e-68
8.77429e-66
8.20062e-66
1.83286e-63
1.77301e-63
8.13535e-66
1.82875e-63
8.74798e-66
3.79579e-66
6.00904e-64
2.80629e-66
7.03578e-64
2.82252e-66
7.04694e-64
3.77512e-66
1.69194e-68
1.6149e-67
1.36387e-65
1.01973e-65
5.98203e-68
1.16376e-67
3.61474e-66
6.48918e-69
3.54428e-66
5.39955e-68
5.63843e-66
3.6511e-68
1.37196e-66
2.46358e-68
7.35102e-66
6.83495e-66
1.55234e-63
1.50572e-63
7.29296e-66
6.82964e-66
1.55203e-63
3.25301e-66
5.1055e-64
2.29488e-66
5.98915e-64
2.3727e-66
6.04547e-64
3.16348e-66
1.77697e-69
9.86338e-69
8.78758e-67
7.26103e-67
3.82891e-69
7.36792e-69
3.2387e-67
1.22925e-67
3.12633e-65
1.54883e-66
4.92256e-65
1.47291e-67
2.89545e-65
5.59995e-67
4.8941e-67
4.27754e-67
1.00042e-64
9.55767e-65
4.774e-67
4.18655e-67
1.03233e-64
7.75813e-66
5.27066e-64
3.12802e-65
2.96814e-63
2.4576e-66
1.54903e-63
6.73295e-65
2.24701e-62
3.34445e-64
5.82802e-63
3.88273e-62
1.04343e-64
7.92176e-62
1.96136e-62
3.31533e-60
5.78041e-63
3.52146e-61
9.94608e-61
1.43464e-62
1.20662e-60
1.82961e-60
6.90925e-57
3.37532e-54
1.38614e-51
5.91439e-49
2.36824e-46
5.67141e-44
2.08505e-41
1.87238e-59
8.70706e-57
3.67519e-54
1.47436e-51
5.28619e-49
1.59313e-46
5.61694e-44
4.34648e-62
1.96912e-59
8.24984e-57
3.22022e-54
1.1475e-51
3.80618e-49
1.30379e-46
9.02698e-65
4.02273e-62
1.67201e-59
6.4881e-57
2.34669e-54
8.07619e-52
2.70247e-49
1.33233e-61
6.1382e-59
2.52325e-56
1.02401e-53
4.08113e-51
1.4567e-48
5.4525e-46
6.74276e-64
3.30296e-61
1.64358e-58
6.66582e-56
2.60481e-53
9.32586e-51
3.06107e-48
3.64631e-64
1.63881e-61
6.84789e-59
2.74791e-56
1.05448e-53
3.83217e-51
1.35247e-48
2.22232e-66
1.04284e-63
4.60678e-61
1.83535e-58
6.92417e-56
2.42188e-53
7.66918e-51
8.54016e-67
3.80412e-64
1.5913e-61
6.32804e-59
2.39068e-56
8.56543e-54
2.87509e-51
5.761e-69
2.62833e-66
1.11726e-63
4.39423e-61
1.62446e-58
5.56837e-56
1.72795e-53
2.0061e-54
1.17692e-51
3.84616e-49
1.3995e-46
3.09491e-53
1.00814e-50
8.3918e-56
3.10585e-53
1.96011e-58
6.52222e-56
3.99511e-61
1.16651e-58
7.30239e-64
1.89185e-61
2.86568e-53
9.64096e-51
7.55163e-56
2.87843e-53
1.71804e-58
5.86401e-56
3.42636e-61
1.02258e-58
6.1571e-64
1.62304e-61
2.04481e-54
6.83445e-52
5.2615e-57
1.93295e-54
1.10768e-59
3.41235e-57
2.02853e-62
5.27939e-60
3.36768e-65
7.63731e-63
3.37999e-54
1.13329e-51
9.89356e-57
2.99649e-54
2.59427e-59
7.46837e-57
6.14696e-62
1.69325e-59
1.31581e-64
3.47027e-62
6.28422e-52
2.36057e-49
1.74678e-54
5.69105e-52
4.28445e-57
1.24755e-54
9.63714e-60
2.58733e-57
1.99767e-62
5.05055e-60
5.75387e-50
1.76542e-47
1.43798e-52
4.32528e-50
3.33561e-55
9.48499e-53
7.10912e-58
1.90377e-55
1.38414e-60
3.51374e-58
1.83007e-46
4.03194e-44
3.57405e-49
8.272e-47
6.66375e-52
1.58979e-49
1.18845e-54
2.87087e-52
2.02731e-57
4.89011e-55
3.31215e-60
7.89828e-58
7.10325e-46
1.52779e-43
2.05445e-48
4.51173e-46
5.03663e-51
1.12901e-48
1.10982e-53
2.51931e-51
2.25245e-56
5.12886e-54
4.26203e-59
9.65347e-57
7.58346e-62
1.69811e-59
1.98492e-48
4.26439e-46
6.52465e-51
1.40919e-48
1.81729e-53
3.94719e-51
4.47181e-56
9.73202e-54
9.96026e-59
2.16079e-56
2.03822e-61
4.38711e-59
3.87567e-64
8.24991e-62
4.83155e-51
1.02818e-48
1.72107e-53
3.64699e-51
5.21775e-56
1.10198e-53
1.38809e-58
2.91765e-56
3.31153e-61
6.9107e-59
7.19288e-64
1.48722e-61
1.43991e-66
2.94663e-64
2.05893e-60
1.2084e-62
2.78261e-63
2.51156e-65
5.81901e-68
2.96826e-67
2.09652e-64
1.35799e-61
7.83517e-59
5.09444e-56
3.67492e-66
4.39973e-68
1.28242e-70
1.34406e-69
8.99721e-67
5.58051e-64
3.21938e-61
1.76341e-58
4.71928e-69
6.91294e-71
2.39756e-73
4.7359e-72
3.0505e-69
1.805e-66
9.74456e-64
4.73091e-61
5.85381e-72
9.96239e-74
3.98695e-76
1.36308e-74
8.48095e-72
4.79338e-69
2.42684e-66
1.0755e-63
6.97751e-75
1.33169e-76
6.05589e-79
3.31918e-77
2.00141e-74
1.08629e-71
5.21159e-69
2.15053e-66
1.4897e-60
8.79219e-63
1.96067e-63
1.77802e-65
4.10505e-68
2.47804e-67
1.7725e-64
1.16717e-61
6.8745e-59
4.5843e-56
2.54719e-66
3.06445e-68
8.93475e-71
1.10981e-69
7.49806e-67
4.70882e-64
2.76208e-61
1.54594e-58
3.23527e-69
4.75558e-71
1.65364e-73
3.87942e-72
2.51614e-69
1.50265e-66
8.21557e-64
4.05722e-61
3.97585e-72
6.77455e-74
2.72791e-76
1.10996e-74
6.94351e-72
3.9519e-69
2.01969e-66
9.06645e-64
4.69392e-75
8.95067e-77
4.12196e-79
2.69016e-77
1.62945e-74
8.89268e-72
4.29665e-69
1.78992e-66
6.38062e-56
2.42827e-57
8.44198e-59
1.60655e-60
1.08778e-61
6.77243e-64
8.17651e-67
1.38121e-64
1.2664e-66
2.77553e-69
1.55245e-68
1.0895e-65
8.08528e-63
4.83914e-60
3.26505e-57
1.71489e-67
2.04412e-69
5.70732e-72
6.9893e-71
4.85564e-68
3.19639e-65
1.91098e-62
1.08152e-59
2.07227e-70
2.99177e-72
1.00307e-74
2.39423e-73
1.59431e-70
9.79013e-68
5.43282e-65
2.68818e-62
2.42381e-73
4.04775e-75
1.58232e-77
6.61306e-76
4.22326e-73
2.44845e-70
1.26191e-67
5.61781e-65
2.73371e-76
5.11585e-78
2.30144e-80
1.53815e-78
9.4607e-76
5.22462e-73
2.52944e-70
1.03619e-67
8.16432e-57
2.99678e-58
5.64305e-60
1.01243e-59
1.81827e-61
1.32603e-65
2.37334e-67
1.20612e-62
6.97036e-65
2.76521e-67
4.93247e-65
1.39429e-65
1.16748e-67
1.402e-69
3.14695e-67
1.50265e-64
4.69024e-62
1.81647e-59
7.50632e-57
1.55841e-68
1.68303e-70
3.11274e-72
9.98794e-70
4.32996e-67
1.63505e-64
6.61735e-62
2.63307e-59
1.68603e-71
2.20248e-73
6.91811e-75
2.66114e-72
1.16132e-69
4.75336e-67
1.94026e-64
7.46686e-62
1.76599e-74
2.6778e-76
1.48236e-77
6.33737e-75
2.83426e-72
1.20443e-69
4.91469e-67
1.84826e-64
1.79165e-77
3.06391e-79
3.01818e-80
1.379e-77
6.30376e-75
2.72666e-72
1.1077e-69
4.08812e-67
3.14689e-55
1.11578e-53
3.94305e-58
1.61688e-59
5.77342e-60
1.60444e-57
4.68044e-61
8.02794e-63
2.25182e-64
6.56891e-62
5.26765e-64
2.43442e-65
5.89419e-65
2.4615e-62
1.16524e-59
4.35219e-57
1.70365e-54
5.64938e-67
4.22827e-68
1.85564e-67
8.05222e-65
3.46604e-62
1.33169e-59
5.07269e-57
1.80782e-54
5.76014e-70
6.42652e-71
4.92271e-70
2.1756e-67
9.21597e-65
3.63817e-62
1.39433e-59
5.0447e-57
5.62812e-73
8.91564e-74
1.15204e-72
5.1985e-70
2.23136e-67
9.0577e-65
3.51993e-62
1.27908e-59
5.3259e-76
1.14835e-76
2.45425e-75
1.13361e-72
4.97401e-70
2.06936e-67
8.14698e-65
2.9614e-62
4.93476e-79
1.39034e-79
4.85383e-78
2.29397e-75
1.02814e-72
4.35634e-70
1.72964e-67
6.28275e-65
5.69954e-57
2.26237e-54
5.52791e-51
1.29603e-48
1.61353e-59
2.84916e-57
5.12001e-57
7.67815e-54
2.94245e-62
3.53362e-60
4.20586e-60
1.19602e-57
7.88616e-55
2.17343e-52
5.76944e-50
4.0612e-65
4.31267e-63
1.05106e-62
4.0227e-60
1.81945e-57
5.8566e-55
1.98867e-52
5.36508e-68
5.21592e-66
2.51227e-65
1.03531e-62
4.2746e-60
1.49667e-57
5.37254e-55
1.93353e-52
6.84093e-71
6.23634e-69
5.62492e-68
2.39936e-65
9.80258e-63
3.64422e-60
1.33437e-57
4.63931e-55
8.36619e-74
7.31857e-72
1.17543e-70
5.15161e-68
2.14147e-65
8.30883e-63
3.08965e-60
1.06747e-57
9.74484e-77
8.361e-75
2.30335e-73
1.03477e-70
4.40181e-68
1.75971e-65
6.6273e-63
2.29455e-60
1.07767e-79
9.27054e-78
4.2577e-76
1.95502e-73
8.48536e-71
3.45698e-68
1.31372e-65
4.54334e-63
3.84275e-59
1.95719e-56
7.42916e-54
2.952e-51
1.37838e-48
4.31541e-46
1.31552e-61
5.67331e-59
2.00788e-56
8.26112e-54
3.4518e-51
1.24958e-48
4.6692e-46
3.54382e-64
1.41567e-61
5.16182e-59
2.11945e-56
8.49482e-54
3.17006e-51
1.13487e-48
8.29155e-67
3.26556e-64
1.23702e-61
5.02845e-59
1.96214e-56
7.20279e-54
2.45956e-51
7.35098e-49
1.76003e-69
7.00569e-67
2.73158e-64
1.09762e-61
4.18667e-59
1.49505e-56
4.90379e-54
1.41998e-51
3.43792e-72
1.39547e-69
5.55765e-67
2.21149e-64
8.27772e-62
2.88149e-59
9.17173e-57
2.61029e-54
6.23147e-75
2.58625e-72
1.0481e-69
4.14362e-67
1.52943e-64
5.2217e-62
1.62922e-59
4.60096e-57
1.05679e-77
4.48794e-75
1.84592e-72
7.27671e-70
2.66235e-67
8.97626e-65
2.7689e-62
7.79714e-60
1.69053e-80
7.34156e-78
3.06067e-75
1.20712e-72
4.39944e-70
1.47404e-67
4.52241e-65
1.27276e-62
2.57015e-66
1.27142e-63
6.29585e-61
2.52488e-58
9.62507e-56
3.40063e-53
1.09004e-50
2.94959e-48
7.94525e-69
3.92836e-66
1.90862e-63
7.56372e-61
2.82489e-58
9.7785e-56
3.06957e-53
8.42515e-51
2.09054e-71
1.0325e-68
4.93869e-66
1.93888e-63
7.12396e-61
2.41867e-58
7.45455e-56
2.04425e-53
4.83548e-74
2.38945e-71
1.13091e-68
4.41445e-66
1.60301e-63
5.36103e-61
1.63024e-58
4.4631e-56
1.00583e-76
4.98218e-74
2.34406e-71
9.1312e-69
3.29236e-66
1.09027e-63
3.28841e-61
9.00146e-59
1.91778e-79
9.59187e-77
4.46503e-74
1.74151e-71
6.26219e-69
2.06375e-66
6.20238e-64
1.69936e-61
3.41384e-82
1.74048e-79
7.90834e-77
3.09708e-74
1.1149e-71
3.67258e-69
1.10378e-66
3.02823e-64
9.90697e-69
4.69496e-66
2.0713e-63
8.14224e-61
3.00394e-58
1.02198e-55
3.12857e-53
8.30527e-51
3.46228e-71
1.64058e-68
7.17197e-66
2.78968e-63
1.0119e-60
3.37604e-58
1.01663e-55
2.71207e-53
1.0045e-73
4.75515e-71
2.06482e-68
7.98253e-66
2.8628e-63
9.42373e-61
2.80924e-58
7.51081e-56
2.51824e-76
1.19288e-73
5.16476e-71
1.99285e-68
7.10194e-66
2.31857e-63
6.87169e-61
1.84019e-58
5.60559e-79
2.66258e-76
1.15348e-73
4.45797e-71
1.58556e-68
5.15724e-66
1.52502e-63
4.0908e-61
1.12911e-81
5.3899e-79
2.34113e-76
9.08856e-74
3.23802e-71
1.05344e-68
3.11717e-66
8.37687e-64
2.09007e-84
1.00472e-81
4.37548e-79
1.71014e-76
6.12158e-74
1.99846e-71
5.93151e-69
1.59717e-66
2.81311e-71
1.29351e-68
5.4866e-66
2.12889e-63
7.69831e-61
2.55962e-58
7.67036e-56
2.03e-53
1.06443e-73
4.90527e-71
2.07243e-68
7.97362e-66
2.84225e-63
9.2846e-61
2.73994e-58
7.22944e-56
3.31009e-76
1.52855e-73
6.45011e-71
2.47379e-68
8.751e-66
2.83138e-63
8.29744e-61
2.18985e-58
8.81668e-79
4.08599e-76
1.72762e-73
6.63302e-71
2.34077e-68
7.5431e-66
2.20494e-63
5.82529e-61
2.06848e-81
9.63786e-79
4.09431e-76
1.5788e-73
5.58054e-71
1.79856e-68
5.26e-66
1.39155e-63
4.35642e-84
2.04417e-81
8.74299e-79
3.39435e-76
1.20549e-73
3.89841e-71
1.14336e-68
3.03005e-66
8.36143e-87
3.95653e-84
1.70585e-81
6.68022e-79
2.38945e-76
7.7731e-74
2.29055e-71
6.08407e-69
4.18396e-58
1.98408e-57
1.08691e-57
1.31614e-58
3.04106e-60
3.99733e-59
3.69082e-62
6.00059e-69
5.52731e-56
6.93334e-58
1.56884e-58
5.09668e-59
4.94504e-61
2.4465e-58
1.35951e-58
1.60718e-59
3.57278e-61
5.69942e-63
8.97206e-70
4.80531e-60
4.0095e-63
8.81231e-66
2.44883e-69
1.26332e-64
1.47239e-62
3.25777e-67
7.47063e-67
1.24984e-64
2.70488e-63
2.31583e-65
8.97168e-65
9.69863e-58
1.56834e-56
2.25046e-54
6.28657e-54
3.19867e-55
5.4678e-54
1.26746e-49
1.75754e-48
3.84171e-52
5.9519e-51
3.42678e-56
3.24783e-62
3.56249e-60
1.2415e-54
1.84971e-53
3.34177e-57
5.47196e-56
9.0728e-65
2.12139e-67
1.26384e-66
8.28684e-69
2.76974e-63
7.79582e-62
1.84144e-60
5.32603e-60
8.77673e-63
6.61745e-62
5.40041e-61
3.30311e-68
3.42879e-67
2.79426e-69
9.49503e-66
2.14306e-66
1.62486e-67
2.62511e-67
1.36522e-50
1.17841e-50
1.23406e-50
1.30044e-50
9.04562e-59
2.70684e-63
2.31779e-63
5.59206e-57
1.91697e-56
1.35596e-59
5.46404e-59
1.26134e-56
1.86659e-57
2.11718e-59
1.88127e-56
5.81635e-59
3.0502e-56
3.56776e-57
2.63821e-62
4.03218e-59
4.98361e-61
3.44866e-60
5.23764e-61
4.71532e-60
1.91815e-62
2.00129e-66
6.17389e-69
7.15577e-69
8.17453e-67
9.18145e-69
8.41024e-67
1.59438e-66
1.67432e-57
2.22334e-58
5.39905e-57
2.24144e-59
3.1447e-57
8.89275e-60
3.62872e-57
2.04497e-67
1.86943e-69
1.20519e-67
9.96281e-70
4.43654e-67
1.41012e-69
1.06092e-67
2.13454e-63
2.63898e-60
1.3485e-61
3.96605e-61
5.23901e-62
4.18152e-61
3.14443e-63
1.9328e-67
5.96091e-68
4.60113e-65
2.04667e-66
1.65045e-67
1.02576e-67
1.32236e-65
2.74199e-68
5.0976e-71
2.55326e-69
8.30709e-69
9.97894e-71
1.05328e-68
1.3296e-68
8.11635e-66
1.7726e-66
9.37461e-64
4.4814e-64
3.1936e-66
3.05383e-66
2.31766e-63
5.14837e-65
9.3135e-65
4.676e-62
2.50577e-63
1.73946e-64
3.77625e-65
1.49217e-62
8.05771e-55
2.48408e-54
3.29841e-57
7.95129e-56
6.66414e-55
2.31511e-54
2.09561e-56
7.8116e-53
6.26202e-53
3.57793e-55
1.31169e-54
6.7081e-53
7.09482e-53
3.39638e-54
3.96309e-52
8.0247e-52
1.31446e-54
7.47786e-53
2.39255e-52
9.72251e-52
2.17804e-53
5.93214e-56
7.58772e-57
1.01658e-57
6.50109e-55
2.65709e-58
2.93758e-55
2.0288e-55
6.30199e-50
1.06638e-49
4.41433e-50
1.42521e-49
1.62509e-59
1.22901e-60
6.5008e-58
2.64461e-61
2.8048e-58
1.99438e-58
5.148e-59
1.05018e-54
3.89512e-56
1.49028e-57
4.68668e-60
2.0889e-63
1.59843e-65
8.3368e-55
3.72707e-56
1.12202e-57
1.2617e-59
2.25809e-63
1.14692e-65
1.68584e-64
3.85361e-57
5.74632e-59
3.89075e-56
3.52125e-57
5.65804e-59
7.58278e-61
7.45869e-61
4.51535e-65
2.31049e-67
2.04706e-63
4.10365e-65
2.2158e-67
3.90916e-57
6.5859e-59
2.23368e-56
2.00932e-57
5.86139e-59
8.47362e-61
7.49409e-61
1.58998e-67
4.3907e-65
1.98367e-67
1.96767e-63
4.97533e-66
2.3488e-65
1.45854e-67
5.10147e-60
6.5237e-62
1.45604e-68
4.10334e-67
3.80122e-66
1.50613e-68
4.1644e-65
1.56849e-67
4.19976e-67
2.03647e-65
2.06318e-67
1.9905e-65
8.70272e-65
5.83221e-66
4.18074e-68
1.85307e-66
1.15378e-68
8.29191e-66
2.65075e-68
1.48874e-66
1.24478e-54
1.41851e-54
5.60814e-57
3.60462e-56
8.03793e-57
4.4853e-56
8.68421e-59
2.35881e-60
2.2894e-61
3.5674e-59
1.35905e-58
8.35493e-60
1.29337e-59
3.70548e-60
9.67562e-61
8.9488e-59
2.17301e-61
1.6234e-58
5.31593e-59
1.68386e-59
1.0693e-63
1.70049e-65
1.11424e-64
5.19084e-62
1.82542e-61
6.23814e-63
2.03001e-62
1.28435e-60
1.20158e-62
2.75099e-62
1.49016e-59
1.87563e-58
5.98304e-60
6.59601e-60
3.40523e-51
7.15859e-52
6.77486e-52
1.88446e-54
2.7034e-53
1.98289e-54
1.46085e-53
1.02987e-48
2.6281e-49
4.9519e-49
2.88287e-51
4.49184e-51
7.86102e-52
2.24638e-51
9.10289e-56
3.12207e-59
2.62209e-58
5.35471e-57
4.50405e-56
7.93312e-59
2.75424e-58
1.47789e-53
1.9588e-56
4.72973e-56
2.26986e-54
8.95032e-54
2.10997e-56
9.72402e-56
6.05359e-62
1.77271e-64
4.23914e-64
3.66932e-62
5.35838e-62
1.74222e-64
3.45606e-64
4.7886e-65
1.41241e-62
2.68424e-65
5.58516e-63
1.02518e-64
8.07167e-63
2.46358e-65
3.53925e-65
4.02085e-63
5.82049e-63
1.88299e-65
5.92516e-63
1.765e-65
4.70484e-65
1.86163e-55
1.08767e-55
6.60645e-58
7.47416e-57
1.17348e-55
1.72313e-55
2.28693e-56
9.62516e-59
2.66666e-61
1.18833e-61
8.34424e-60
6.38597e-61
4.65353e-59
3.0361e-59
8.05955e-58
1.21008e-59
6.5202e-61
6.53474e-58
4.20102e-60
1.70241e-57
1.66731e-58
7.62169e-63
4.097e-64
2.33184e-63
3.71568e-61
3.67382e-62
2.04361e-61
1.16943e-61
1.23587e-62
5.30004e-64
5.41075e-61
3.79067e-63
1.62832e-60
7.34538e-61
1.40482e-61
7.84206e-63
1.98531e-60
4.03229e-63
7.60112e-61
1.09751e-60
3.98994e-63
1.68606e-62
7.7602e-63
7.47326e-61
1.97685e-60
3.96711e-63
1.08553e-60
3.91887e-63
1.68457e-62
8.77795e-63
2.2603e-60
4.44002e-63
8.49365e-61
1.89774e-62
1.2409e-60
4.38802e-63
8.18428e-63
7.54189e-61
2.10136e-60
3.89252e-63
1.1384e-60
3.89281e-63
1.75971e-62
6.23363e-62
1.58481e-61
3.05346e-64
1.24553e-63
1.72204e-61
3.59169e-64
1.58816e-63
1.34806e-68
1.65592e-67
1.46018e-64
1.80061e-65
1.48954e-62
1.18904e-59
1.42912e-68
1.72981e-67
1.49992e-64
1.52504e-65
1.28341e-62
1.04658e-59
9.96518e-70
1.24341e-68
1.01728e-65
8.95595e-64
7.21296e-61
7.33741e-62
8.3129e-60
1.75095e-52
3.08973e-50
3.25775e-54
4.69851e-54
1.40648e-43
7.17459e-49
9.04209e-47
1.7121e-67
1.68066e-67
9.63413e-70
1.87048e-71
9.48146e-70
2.30547e-71
1.82479e-69
1.73868e-68
1.74814e-69
2.11292e-68
1.67625e-66
2.44941e-65
1.55422e-66
5.38439e-66
5.2395e-66
1.03492e-69
8.3706e-68
2.69317e-67
1.31074e-68
1.48436e-69
7.92989e-68
2.60655e-67
9.02199e-67
7.11288e-65
2.32155e-64
1.58892e-67
1.29601e-66
6.7619e-65
2.24655e-64
1.42168e-63
5.90065e-62
2.217e-61
1.35624e-64
5.61333e-62
1.20067e-61
1.83549e-67
1.02603e-69
1.86983e-71
8.87379e-70
1.49614e-71
1.89013e-69
2.24594e-68
1.10097e-69
1.3764e-68
1.70495e-66
9.90746e-67
5.76147e-66
1.01688e-69
8.58263e-68
2.57367e-67
1.2239e-68
9.90667e-70
5.04766e-68
1.8699e-67
1.36842e-66
7.40503e-65
2.24274e-64
1.01512e-67
8.70423e-67
4.38109e-65
1.6325e-64
6.22439e-62
1.91471e-61
8.80249e-65
3.70357e-62
1.0329e-61
7.89789e-71
1.38737e-72
1.30824e-70
1.58173e-69
1.69369e-68
2.34982e-67
1.12021e-67
3.44935e-66
8.37805e-71
2.06191e-69
1.72116e-68
1.05198e-67
5.10948e-66
1.49405e-65
5.83688e-67
1.14175e-65
5.23366e-66
9.14481e-66
4.28019e-63
1.23873e-62
1.42776e-64
1.52574e-63
7.01349e-63
3.04303e-65
6.07238e-60
5.49681e-64
4.2838e-59
1.03997e-57
1.18254e-56
2.55702e-63
4.08032e-64
1.3443e-60
7.49131e-62
5.95082e-62
1.40912e-61
3.85952e-59
2.38443e-58
4.99896e-60
1.88846e-59
1.08534e-56
1.4609e-57
1.7287e-51
4.8734e-46
3.85317e-48
2.89415e-50
2.82176e-49
2.75262e-44
8.86889e-47
3.50336e-46
2.28025e-51
1.01783e-56
2.3472e-55
2.71694e-49
1.19788e-48
7.81162e-52
3.92957e-51
2.58558e-54
5.04818e-47
1.5892e-49
1.1702e-45
8.1639e-46
8.4763e-46
9.07372e-46
1.20492e-53
1.50787e-57
1.16852e-50
3.37822e-53
3.04376e-51
2.27898e-52
4.67315e-54
4.87052e-51
1.41798e-53
9.2635e-51
8.77961e-52
6.21882e-49
4.40577e-50
1.03845e-51
9.74218e-49
3.31589e-51
1.90026e-48
1.82386e-49
4.04266e-65
4.16497e-67
2.12056e-65
1.66149e-67
2.02232e-67
2.04681e-65
8.50042e-65
3.99581e-65
1.62999e-67
4.16437e-67
2.09958e-65
1.99706e-67
2.02145e-65
8.4953e-65
4.62635e-72
1.96069e-69
5.28981e-71
8.68781e-70
9.72173e-70
3.90977e-71
9.07692e-72
6.6506e-74
1.52602e-73
1.11994e-71
1.87194e-71
1.52627e-73
1.11645e-71
8.54535e-74
4.5608e-72
8.57422e-70
1.95943e-69
5.06537e-71
9.59315e-70
3.81577e-71
9.05698e-72
8.48969e-74
2.30544e-71
1.65766e-73
1.58806e-71
1.65682e-73
1.58328e-71
1.04261e-73
8.1404e-72
7.74553e-72
1.86752e-69
1.82446e-69
7.74149e-72
1.86732e-69
8.14212e-72
4.32167e-71
1.48799e-70
9.97763e-69
1.73993e-68
1.48912e-70
9.99402e-69
4.30167e-71
7.95221e-72
1.74792e-69
7.41501e-72
1.80918e-69
7.41278e-72
1.8088e-69
7.95729e-72
6.07874e-71
2.11092e-68
1.60877e-70
1.42698e-68
1.60618e-70
1.42508e-68
6.10238e-71
8.08069e-69
7.4258e-69
1.74899e-66
1.67572e-66
7.4191e-69
1.74814e-66
8.09351e-69
7.23593e-68
1.96048e-67
1.63147e-65
2.44188e-65
1.93464e-67
1.62791e-65
7.28639e-68
7.18996e-69
1.55414e-66
6.87989e-69
1.58478e-66
6.87929e-69
1.5848e-66
7.18873e-69
4.47314e-65
4.60014e-67
2.31245e-65
1.78098e-67
9.46673e-65
2.21689e-67
2.22822e-65
4.96463e-72
2.14553e-69
5.52362e-71
9.27176e-70
9.82319e-72
1.05529e-69
4.11859e-71
6.63449e-74
1.53279e-73
1.0975e-71
1.86568e-71
8.72483e-74
1.52309e-73
1.09024e-71
4.60107e-72
8.63242e-70
1.9462e-69
3.65754e-71
9.81179e-70
3.56317e-71
8.80778e-72
6.29912e-74
1.50445e-71
1.04143e-73
1.05156e-71
1.06241e-73
1.05482e-71
8.00725e-74
8.49759e-72
7.9684e-72
1.9539e-69
1.88774e-69
8.53319e-72
7.93745e-72
1.95135e-69
6.35411e-71
1.70918e-70
1.49787e-68
2.24229e-68
6.37742e-71
1.71945e-70
1.49606e-68
5.03813e-72
1.1072e-69
4.59605e-72
1.14095e-69
4.67968e-72
1.14758e-69
4.94556e-72
4.0468e-71
1.38623e-68
1.01108e-70
9.45368e-69
1.04437e-70
9.50286e-69
3.98024e-71
7.65697e-69
7.49825e-69
1.76509e-66
1.70287e-66
8.04874e-69
7.46718e-69
1.71949e-66
4.46655e-69
9.96526e-67
4.30313e-69
1.01547e-66
4.38457e-69
1.00289e-66
4.54107e-69
5.36847e-73
2.00794e-70
1.12853e-71
6.17691e-71
9.69174e-73
1.16277e-70
1.10923e-71
6.32288e-75
1.1036e-74
9.1046e-73
1.79762e-72
8.04586e-75
1.49536e-74
9.70328e-73
7.02694e-73
5.50459e-73
1.35357e-70
1.46416e-70
5.91406e-73
6.52369e-73
1.5163e-70
5.25227e-72
1.17099e-71
1.10712e-69
1.92277e-69
4.69944e-72
1.35725e-71
1.19413e-69
2.71262e-71
6.02684e-69
2.28382e-70
1.84481e-68
2.48224e-71
6.17855e-69
5.38818e-70
1.63731e-70
1.21235e-67
6.06021e-69
2.1051e-67
5.23328e-70
3.69653e-68
4.21611e-69
5.11147e-70
4.94702e-70
1.1574e-67
1.10934e-67
5.29714e-70
4.66835e-70
1.15418e-67
8.38536e-69
6.96519e-67
6.59459e-68
4.67134e-66
3.15166e-69
1.65425e-66
1.36165e-67
2.77619e-64
1.4852e-66
2.76469e-65
1.76412e-64
1.04185e-66
3.85785e-64
1.06588e-64
8.07193e-62
3.9315e-62
2.85376e-59
1.95007e-60
1.07029e-61
2.24717e-62
2.2705e-59
8.87493e-63
1.54462e-65
8.52946e-64
2.74099e-63
3.45093e-65
3.79457e-63
4.46093e-63
2.47944e-60
5.42057e-61
2.89507e-58
1.39492e-58
1.06689e-60
9.92785e-61
6.6753e-58
6.12577e-60
7.76013e-60
4.94785e-57
2.55541e-58
2.03075e-59
3.79983e-60
1.59954e-57
8.47038e-58
1.81938e-58
7.81572e-56
4.83757e-56
3.14724e-58
3.6009e-58
2.04498e-55
1.39123e-49
2.25982e-49
5.40163e-52
4.59237e-50
6.7391e-50
2.76361e-49
4.28363e-50
8.10874e-48
4.87614e-48
3.46811e-50
3.24463e-49
5.17713e-48
6.45014e-48
1.09049e-48
1.93484e-47
3.09683e-47
7.67886e-50
4.76609e-48
1.11492e-47
3.80566e-47
1.38356e-48
4.27283e-51
5.4422e-52
8.42855e-53
4.70991e-50
2.21676e-53
2.16549e-50
1.48416e-50
1.72488e-47
2.83903e-47
1.18084e-47
3.51567e-47
4.12638e-54
6.01157e-55
3.92149e-52
5.1742e-55
3.50272e-52
1.28279e-52
1.23485e-52
4.51605e-44
1.45334e-41
1.08805e-66
3.12238e-64
2.15392e-62
5.90081e-55
9.77139e-56
6.23189e-46
9.90059e-51
4.30778e-71
4.02037e-70
9.07654e-70
1.02812e-68
6.46683e-69
1.85311e-68
7.09079e-68
3.26879e-66
3.76354e-61
5.37587e-66
1.1284e-64
1.71301e-61
8.30974e-63
1.03353e-52
1.13024e-46
3.45656e-49
4.70811e-48
3.27099e-48
3.42816e-48
4.51534e-48
2.64663e-56
9.95831e-52
2.58691e-54
1.84551e-73
3.62873e-71
3.13711e-71
1.50204e-71
4.05828e-71
2.68119e-72
5.05178e-73
1.27878e-73
1.27792e-70
1.01505e-71
1.63553e-70
7.55184e-73
2.9693e-71
2.6143e-72
1.72164e-67
2.46919e-69
1.86097e-68
4.24998e-67
6.30682e-70
6.20133e-67
1.81831e-67
3.50979e-65
5.0005e-68
3.49727e-66
1.38599e-65
1.37313e-67
1.0979e-65
1.63274e-65
9.70758e-63
3.0721e-63
8.9284e-61
4.37735e-61
3.18506e-63
3.61331e-63
2.56758e-60
3.07936e-50
1.84209e-50
1.25208e-52
1.34796e-51
1.9737e-50
2.90298e-50
4.21298e-51
7.88479e-55
1.63068e-56
1.74532e-53
5.37534e-56
3.44598e-53
3.33621e-54
1.11102e-53
1.11562e-54
2.37009e-57
1.73159e-56
1.04496e-55
7.1146e-57
1.41706e-53
1.21566e-54
6.76293e-55
7.92025e-52
3.07743e-52
1.41212e-43
9.86324e-44
1.1439e-43
2.84061e-46
3.43045e-46
5.15501e-46
5.23476e-46
4.57113e-51
2.70001e-51
9.82875e-49
1.83644e-48
6.54829e-51
1.92011e-48
1.64209e-50
3.00987e-49
9.35335e-47
1.36526e-48
2.38644e-54
2.47641e-53
7.55982e-56
3.45551e-56
1.72563e-55
1.29565e-53
8.27036e-54
6.66623e-53
1.14039e-54
5.93604e-56
4.66355e-53
3.99217e-55
1.41478e-52
1.32628e-53
5.69828e-51
1.84946e-53
1.05867e-53
5.51426e-52
4.64951e-53
2.86016e-51
2.00605e-51
3.51887e-55
1.09773e-55
4.61154e-58
6.16898e-57
9.60263e-55
7.34334e-57
1.05364e-54
7.13564e-57
3.07536e-59
6.70286e-58
9.012e-59
3.56942e-60
2.05558e-56
1.55842e-57
6.86792e-46
3.44911e-48
3.63047e-48
8.66954e-47
8.44589e-47
2.71587e-49
2.67832e-49
5.24904e-53
3.99229e-53
1.30415e-50
8.26312e-52
2.48209e-54
8.09147e-52
1.15524e-53
1.09329e-58
6.46968e-58
8.64263e-56
9.98485e-59
2.4244e-58
2.59139e-56
4.26093e-56
5.33424e-61
1.39166e-63
1.74451e-62
8.60344e-61
9.57319e-63
1.65608e-61
4.34925e-64
1.56887e-63
5.99182e-62
1.41521e-64
9.77061e-62
1.03651e-63
1.86475e-62
4.52391e-65
6.36552e-64
2.61664e-63
3.70135e-65
3.93375e-62
4.91425e-62
8.98005e-63
1.56249e-62
5.1919e-60
1.46149e-62
1.31523e-62
2.08457e-59
2.10739e-61
1.98165e-59
2.05257e-61
2.56983e-60
5.10271e-60
1.41276e-62
7.17631e-63
1.855e-61
1.78825e-59
2.19827e-61
2.18235e-47
6.17615e-45
8.89134e-44
1.84188e-41
8.01054e-50
1.61533e-43
3.57349e-46
9.38271e-41
9.74897e-44
3.88792e-48
5.10004e-42
1.62165e-44
1.32324e-43
5.90504e-44
6.90384e-44
7.96902e-44
1.14153e-45
4.76368e-46
5.26038e-48
6.38516e-47
5.65076e-46
8.1067e-46
2.08743e-46
2.19453e-45
3.1825e-45
1.64022e-45
3.98536e-45
4.82586e-39
9.81705e-51
6.63526e-52
5.74065e-41
8.12329e-42
8.7713e-42
2.78765e-44
4.50928e-43
2.79618e-44
2.37582e-43
1.74203e-45
5.81289e-48
8.78282e-46
8.00144e-48
7.62019e-45
1.49845e-42
1.80857e-49
7.55733e-47
3.38911e-47
1.59817e-43
1.22578e-53
1.19244e-48
4.81564e-51
3.29549e-48
1.20459e-53
1.45778e-48
4.58013e-51
3.21835e-48
1.43077e-54
1.27325e-49
3.19075e-52
2.17469e-49
6.25953e-54
4.42031e-51
3.86483e-52
1.43888e-49
1.22128e-48
2.87294e-46
4.36645e-56
1.7642e-52
1.60083e-55
2.71137e-52
1.91887e-50
2.10158e-50
3.91775e-51
2.77859e-53
2.44002e-52
3.0345e-53
1.05002e-50
2.73806e-53
3.11703e-52
6.1988e-50
1.07753e-47
1.43963e-48
7.24696e-50
1.51004e-47
4.33365e-56
1.72246e-52
1.47988e-55
2.27835e-52
2.05661e-50
1.65138e-50
1.50826e-47
4.21864e-51
3.10519e-53
2.48524e-52
2.54989e-53
8.26593e-51
1.98284e-53
2.59996e-52
6.95194e-50
1.5276e-47
1.02556e-48
2.99618e-46
5.73752e-50
9.6623e-48
2.00286e-56
1.90167e-53
8.02539e-57
5.93585e-54
2.01354e-51
1.86281e-48
5.60326e-52
6.70241e-49
4.40712e-52
2.22312e-54
2.13322e-53
6.82612e-55
2.81542e-52