/*--------------------------------*- C++ -*----------------------------------*\
  =========                 |
  \\      /  F ield         | OpenFOAM: The Open Source CFD Toolbox
   \\    /   O peration     | Website:  https://openfoam.org
    \\  /    A nd           | Version:  9
     \\/     M anipulation  |
\*---------------------------------------------------------------------------*/
FoamFile
{
    format      ascii;
    class       surfaceScalarField;
    location    "0.0005";
    object      phi;
}
// * * * * * * * * * * * * * * * * * * * * * * * * * * * * * * * * * * * * * //

dimensions      [0 3 -1 0 0 0 0];

internalField   nonuniform List<scalar> 
17329
(
0
-3.55271e-14
0
0
0
0
0
0
0
0
0
0
-1.49214e-13
1.42109e-14
-4.47642e-12
2.84217e-14
3.87246e-13
-4.40536e-13
-2.40448e-11
3.33955e-13
7.10543e-15
0
0
0
0
0
0
0
2.13163e-14
-2.00018e-12
1.42109e-14
0
0
0
0
0
0
0
0
0
0
0
0
0
-8.88178e-14
0
2.44873
22.8392
7.40801
0.114726
-11.0882
-8.85713
3.71344
9.92774
-9.00143
1.73326
9.38326
12.7163
-13.8278
0.0728095
-5.2622
-7.9595
6.87521
10.0728
12.0588
-10.8796
-3.28644
0.344568
0.387022
0.417779
-3.0897
2.49273e-10
-4.53053e-09
-7.2595e-09
1.33417e-10
-9.60212e-09
-4.14507e-10
-7.21672e-11
-3.64155e-10
-3.29829e-10
-4.61897e-10
-3.09893e-09
4.47642e-11
4.25686e-11
4.08491e-11
4.26539e-11
-7.91648
-4.12171
9.60181
12.2354
-11.7264
5.45733
-0.999212
1.7563
-9.35319
-9.35564
5.46217
-10.7956
-0.750554
10.9663
10.9538
2.00742
-10.7795
-8.44312
-12.7988
-0.831969
12.4827
9.06993
2.05358
-8.52214
-12.5323
-3.41368
11.8756
8.86536
4.51337
-6.31108
0.113894
1.00307
-5.88402
0.983299
-0.0592133
-0.325534
0.488784
0.708611
-5.03579
0.686663
-8.15256
-7.22707
6.89375
8.28194
9.67283
-10.2068
0.00270565
-0.0847487
0.00299356
-0.0922164
0.00349369
-0.0638174
-3.4744
1.52551
-7.23712
0.98699
1.54684
-6.52594
-6.96433
-10.3989
-4.93416
5.95849
5.33594
3.63617
-0.31715
-0.788316
-0.588298
0.0477099
0.0315485
0.0334459
0.0014444
-0.121739
-0.0206788
0.00376127
-0.0958588
0.00335709
-0.00464502
6.32088e-05
0.000125887
-0.00345993
0.00010989
5.86944e-05
5.10979e-05
-0.00164828
5.98596e-05
-0.00106261
7.5429e-07
3.32974e-07
-1.40783e-05
-1.86305e-05
5.32681e-07
5.53199e-07
4.57652e-07
-1.06195e-06
-8.90278e-07
-7.74779e-07
4.07734e-07
5.29934
0.219504
5.03529
-1.42586
-12.2058
0.742334
14.9837
10.4593
-18.0251
0.0229218
0.137612
-1.56218
-2.30209
0.111951
0.000421945
0.00342328
-0.0721754
-0.00640304
-0.1345
0.00255438
-10.1292
-0.109271
3.14332
0.263865
3.3516
-7.84921
-1.211
1.15997
1.05264
0.874646
-0.0604426
-5.41049e-05
6.09989e-05
0.0016399
-0.0320258
0.00123025
-0.0362877
-0.000247805
0.000226502
0.000888118
-0.0176446
0.000645783
-0.719556
-0.137255
0.0311025
0.0161204
0.0110788
-0.00131491
-0.000488404
2.92178e-05
1.23443e-05
1.46924e-05
-0.00145739
-4.76404e-05
6.57809e-06
3.01346e-05
-0.000618431
1.98849e-05
2.48692e-07
-8.88762e-07
-4.9199e-07
1.2335e-06
-7.22801e-07
3.69256e-07
3.57896e-09
-2.02129e-07
-1.35083e-07
-2.00133e-07
-2.0175e-07
8.81734e-08
1.61466e-07
3.99731e-07
-4.30154e-07
3.36934e-09
-1.31742e-07
-1.31692e-07
-1.30393e-07
-7.51123e-08
-7.83606e-08
-5.51833e-08
-7.66557e-08
-1.95511e-08
2.7585e-10
-1.42001e-08
1.93376e-10
3.13917e-08
-5.54941e-07
-5.54717e-07
-3.82349e-07
-2.4747e-07
-1.75522e-07
-2.48307e-07
-8.98692e-08
-8.89491e-08
-6.70337e-08
-8.96973e-08
1.78778e-08
1.82525e-10
1.9558e-10
9.27436e-12
1.12481e-06
1.47342e-06
-0.000178259
4.05467e-06
-1.95378e-05
1.70855e-07
-2.04838e-07
-3.47337e-07
2.09454e-07
1.08715e-07
-1.69325e-07
-1.9903e-07
5.99816e-08
1.52881e-07
9.28348e-08
-3.00551e-07
1.81485e-08
-4.58761e-07
-4.58919e-07
-3.08682e-07
-1.1431e-07
-1.13505e-07
-1.1384e-07
-8.21722e-08
-5.14418e-08
-5.17058e-08
-5.18953e-08
-3.83936e-08
1.11204e-08
1.07536e-09
-6.15927e-08
1.1955e-09
-5.90205e-09
7.15767
-21.4153
-6.1322
4.01183
18.814
-20.1703
1.50678
3.66704
0.249743
5.48374
-16.9419
-4.13013
4.29899
5.81232
-5.13378
13.1957
-6.85336
2.04945
15.4528
-9.58988
0.485807
-14.3748
-1.14753
13.7614
-6.33538
2.46243
-13.3522
-3.68892
13.3213
-6.9455
5.24993
22.6284
7.27629
4.78495
-2.09018
5.59476
4.18446
22.5074
5.75937
22.8276
0.302746
2.24687
21.7546
8.69426
0.212083
21.569
4.48404
8.50095
-2.00283
4.09787
6.37553
20.0374
6.64749
20.5534
0.48524
-5.81709
-3.91878
0.809545
-15.3266
4.40301
6.45926
-17.9706
3.46721
7.69655
16.0764
-8.06244
8.06817
-7.11049
10.9593
6.86857
12.3528
-6.39817
-3.68611
-2.57832
0.406981
-1.74195
-11.9438
-5.88433
10.0286
-6.78494
5.69074
-7.11618
5.96311
8.87881
22.1173
6.88534
5.01961
21.421
-6.77078
18.9848
6.80313
8.20237
21.1848
7.91909
5.58972
5.5857
18.6149
4.76462
6.35179
16.4536
15.244
-9.29376
4.00082
8.83246
-1.55009
-6.57493
2.94875
7.66266
-6.70303
7.54446
14.2442
0.0911897
2.13519
19.8637
0.295809
19.4373
4.3373
-1.91481
3.71459
16.5942
16.7268
0.425471
-1.89321
19.8005
3.92597
3.71083
4.11103
0.493894
3.772
2.94303
-1.7672
17.6648
3.37369
4.80744
-17.7846
1.30209
5.28174
0.115138
4.83052
0.35393
2.67378
5.43592
14.3383
-8.3149
8.28301
-4.0562
-6.24927
8.17567
5.27154
-6.22293
7.81921
13.9471
-6.16052
15.4221
6.9362
17.8229
4.76476
15.8819
14.639
5.61221
9.53906
4.54622
3.63703
14.5954
9.60927
8.40121
15.3697
5.16267
13.4882
4.95607
9.01898
7.16677
4.89717
14.8158
3.96858
8.68242
14.3409
5.51488
8.27479
13.5743
-4.90111
3.53978
5.84416
18.6745
3.53132
4.00298
4.44827
16.8312
4.78163
-15.5478
-3.89545
5.84624
5.38228
5.1292
5.51153
5.66687
9.45518
12.9467
3.11077
-13.5852
-1.22265
11.8751
2.57478
-11.4034
11.5124
10.5371
-11.2684
-0.111671
-1.13001
9.73189
2.50853
9.5073
12.5813
-0.0711081
-0.790066
2.02284
10.0582
11.7943
9.86673
11.5591
-0.228627
13.5161
-6.21018
8.23048
-0.0164694
0.816237
-6.9472
7.78816
-0.189356
-7.06366
2.02138
7.87311
-1.48648
15.4672
2.89085
-15.3941
1.04806
-0.0123071
0.12605
2.34594
9.33582
12.6072
-12.7446
-3.71253
11.619
5.14948
10.7574
-11.1158
11.8867
10.8985
-11.1199
-3.71433
9.72079
5.18168
9.85876
12.7177
3.37741
10.1161
11.7805
4.65463
9.95822
11.4504
13.6145
-6.59764
8.66661
-3.34054
-7.0606
7.4614
4.23492
-7.16484
7.82202
4.0261
15.0075
-14.2744
-3.667
4.92973
5.33594
12.0466
-6.60793
8.63184
-6.79992
-7.2165
8.2764
7.12705
-6.6543
8.85999
12.7481
7.42587
13.533
12.6707
8.59541
7.02771
13.6625
7.71012
12.8163
-9.82879
4.11569
4.06044
12.799
-9.34128
10.6054
5.40884
12.2196
5.52349
4.2738
12.7215
8.35872
5.68843
12.0833
4.54674
8.98853
4.06088
7.2434
-14.4483
6.0432
5.71486
6.95755
5.61793
-13.9799
4.0291
6.40864
4.3563
7.79097
13.1692
5.77923
7.39683
4.87028
5.69528
10.723
10.7151
-10.531
-0.203954
0.508615
9.36047
-9.85849
-0.233503
9.89738
9.44831
1.63125
-10.0604
9.98446
0.28033
-9.37184
6.31021
-0.1548
-9.44965
6.16521
6.16721
-0.519088
1.62884
9.9754
9.89659
-0.249428
12.2972
8.91862
-0.188841
0.555411
7.54897
-0.214556
7.57648
1.57977
10.1167
-0.546642
10.2518
1.62752
8.68265
-10.2105
0.304183
4.88738
5.24399
-0.143883
8.62113
-0.241444
0.899116
4.7084
5.02116
9.44964
11.2895
-11.1251
-6.07622
10.0366
6.34075
9.41648
-10.3646
11.2708
10.4127
-11.1275
-6.05964
8.39428
6.18429
9.35559
11.9905
-5.16179
4.3217
6.61725
7.14227
9.08036
10.2313
8.59081
-2.87031
-10.8061
3.61416
-9.94592
9.04613
-8.60726
1.98464
3.00853
3.0089
-11.0297
-10.1205
9.8753
-3.36111
10.7819
4.68741
-10.7287
11.0163
-10.8815
2.86166
9.86168
3.6066
9.03357
12.3851
9.09675
-2.59982
6.3988
3.17824
7.3646
9.66177
2.79207
10.0506
8.54955
-8.9572
-1.54264
1.51068
1.97063
2.07498
3.48065
7.76681
3.99382
3.73854
-6.2974
8.38606
6.4452
-8.80014
9.83349
11.6183
-6.41483
-4.77688
3.52716
-6.71436
6.97204
9.61957
7.62063
11.1845
7.21566
12.3875
-7.22436
8.10141
-4.37419
-4.98593
3.37417
2.21653
-6.50357
6.31928
-13.6202
5.42177
6.5316
11.9493
6.78625
4.46888
-7.23612
2.56743
-11.2343
2.76056
3.99278
6.47961
10.1577
4.90033
-3.65062
-2.39573
0.356655
2.74177
2.92234
4.87352
5.23718
-8.25574
-4.622
1.08172
0.728231
1.07023
-5.4357
6.93155
6.62814
-9.10765
-4.04312
0.74954
0.537255
5.63462
6.3443
0.934078
1.42103
1.45277
0.0616358
0.0693382
0.0822793
6.07944
-9.83665
-9.03089
6.22306
-0.6214
-1.54609
0.0630054
0.122542
-6.11065
0.962008
0.963543
-5.22496
7.21065
4.5026
-9.34618
9.80308
-10.3744
-3.47877
0.999882
1.56375
6.23868
10.2
7.94068
-2.39924
0.609213
0.402447
3.6783
3.40734
-3.16187
1.22337
0.76067
1.16324
-5.50816
0.335369
0.532749
0.627169
5.22623
0.0299665
0.0497567
0.0715779
0.941472
-5.7282
0.921166
0.00461149
-0.776387
-0.00335124
0.0527163
-0.720715
0.0137215
0.0556166
0.0481314
-0.297885
5.97179
0.976967
-6.15642
0.106124
0.835892
-0.0548315
-0.159936
0.279144
0.783011
0.0639615
0.389356
-0.595566
3.25337
3.49582
-10.3977
0.203358
0.016103
-1.04821
0.00574519
-0.0706656
0.0291114
-0.134822
0.599573
0.0382875
0.499801
-5.49294
-1.05388
0.951588
-7.80738
0.000965228
0.0138648
0.0293869
0.196675
2.96067
3.1771
0.733237
0.175976
0.0788689
-0.539731
-0.00137614
0.0041718
0.0120039
0.0738672
0.576927
0.477424
0.187582
0.44037
0.0135567
0.320806
-2.77505
0.156794
0.305855
0.0138378
-0.52906
0.0307201
-0.216556
0.00295181
0.0111585
0.00911944
1.70435
5.18387
-2.78382
-0.385767
0.110242
0.254596
1.87062
0.592444
10.9068
8.21993
-15.5624
0.51788
4.7599
1.67775
-3.56196
-0.183761
0.196105
0.70414
8.35787
7.70366
-15.7798
3.98506
-12.5821
0.742557
4.14881
-5.16199
3.9319
-0.255314
-0.0640109
0.00825499
-1.82685
0.321696
5.13793
8.16863
-1.4812
-0.991634
2.31392
2.48675
0.0761347
0.108581
0.0329399
0.0173306
-0.387589
0.00365419
0.00698571
-0.217138
0.147172
0.0533912
0.106012
0.305506
0.000779401
0.00192891
-0.00809761
0.000253559
-0.0248615
0.000379188
0.000474828
0.006644
0.0109648
-0.114678
-0.000522111
-0.00153111
1.72036e-05
2.28864e-05
2.73854e-05
-0.0377782
0.000465043
0.000746771
-0.00906714
0.0366982
0.0336434
-0.476387
0.0188388
0.0258916
0.0011731
0.00152068
0.12479
-1.63268
-1.36642
0.135985
0.00276511
-0.129077
0.00471655
-0.00314749
0.000104211
8.0346e-05
0.000106202
-1.05978
0.0910155
0.0736856
-1.04021
1.63184
-6.54047
0.0866149
0.138051
0.00353396
0.0027776
0.936152
0.874429
-0.0264594
0.000655884
0.00080868
0.0304978
0.0510779
0.0593985
0.102659
0.0800763
-0.00269768
-0.00131294
3.79868e-05
3.96049e-05
6.68524e-05
0.00181617
0.00186832
0.00167202
0.00282236
0.057112
-0.82725
0.0526336
0.000364067
-0.034322
0.00115348
-0.00207597
2.74083e-05
8.66831e-05
6.79035e-05
-0.537248
0.111367
0.0528786
-0.871105
0.0145982
0.045311
0.00102244
0.00300247
0.00164381
-0.0330523
-0.0619778
0.00123689
-6.01483e-06
-0.000635187
6.96362e-07
2.49569e-05
-0.00125195
-8.00926e-05
4.39608e-05
-0.0946319
0.000218843
-0.00311871
-0.0140604
0.0448581
0.00220585
-0.874119
-0.168375
-1.62125
3.04453e-05
0.00148362
-0.0288331
0.00110213
9.36494e-07
-0.000633396
2.53831e-05
-0.000560494
4.53135e-06
2.24514e-05
-0.0397127
-3.65407e-05
0.000144646
0.00312204
0.0435548
0.00898535
0.322214
0.229004
-0.002235
0.000240202
0.000165661
0.00413396
-0.00164871
-9.94694e-05
7.96369e-06
1.42997e-05
0.00707768
0.0253253
0.0149427
0.000499672
0.000867198
0.000231767
0.0289941
-0.470189
-0.762998
0.0218577
0.000276074
-0.0507996
0.00160628
-0.00953432
0.000299529
-0.561157
-0.0108835
0.355078
1.63852
-10.6624
-5.68554
0.000245882
-0.00500305
0.000175424
-3.94719e-06
-8.66581e-05
8.75245e-07
3.41886e-06
-0.000321152
1.2552e-05
-0.0253045
0.000127307
-0.00848301
0.00761754
0.00179702
2.67391e-05
-1.74293e-10
1.84031e-12
3.20898e-06
-7.74741e-05
2.56361e-06
3.0018e-06
-1.41881e-06
-1.83642e-06
5.94649e-07
4.44886e-07
-6.90218e-05
3.8246e-06
2.67337e-06
0.0023202
0.00442904
-0.000101458
-4.5611e-05
2.08178e-06
3.37173e-06
6.50544e-05
9.86388e-05
9.1247e-07
-2.41912e-05
1.31865e-06
-1.56016e-05
1.19768e-06
1.94693e-06
-5.40195e-05
2.64083e-06
2.18386e-06
-9.64891e-07
6.41846e-07
3.13531e-07
2.76634e-07
-2.35031e-05
-6.02843e-05
1.75658e-06
1.34923e-06
-0.0018564
3.18248e-05
-0.000432501
0.00160961
-0.0315667
5.77603e-05
-1.02694e-06
-1.13149e-06
4.70819e-07
3.7713e-07
2.08399e-07
7.75594e-06
-0.000791859
1.40346e-05
-4.13314e-05
1.08743e-06
9.27466e-07
0.000890096
0.000510066
1.18156e-05
2.33933e-05
-4.82905e-05
1.29011e-06
1.56431e-06
2.86887e-05
0.001177
0.000517994
-8.21698e-06
3.60687e-07
4.91149e-07
8.57039e-06
-5.81376e-05
5.26501e-07
1.02561e-06
-2.31684e-05
1.74761e-06
1.23919e-06
9.33894e-07
2.70126e-05
4.34683e-07
2.21387e-07
2.24887e-06
-3.67231e-05
9.51635e-07
1.61124e-06
2.84802e-07
-1.03967e-05
7.01093e-07
-9.03161e-07
2.97277e-07
3.61408e-07
-6.10197e-05
-7.04038e-06
7.67232e-07
0.000224657
0.00100457
1.57002e-05
1.53838e-07
-1.17575e-05
3.24149e-07
2.41393e-07
-1.54506e-06
9.03555e-08
-7.64371e-06
3.14552e-07
-5.30094e-07
1.02076e-07
1.25183e-07
1.11115e-07
-0.000104706
3.49737e-06
4.97316e-06
8.19095e-05
-0.00153176
-7.11236e-06
3.88072e-07
4.28963e-07
5.64724e-06
-0.000112943
-6.58082e-10
-4.72303e-10
-1.12866e-09
2.72271e-10
-8.72754e-09
-1.22353e-09
2.36696e-10
-3.56846e-08
4.25554e-09
-1.12498e-07
-1.69423e-07
-1.69921e-07
-4.01479e-08
3.4476e-09
3.60891e-08
-5.84709e-08
-6.20044e-08
-3.45792e-07
-8.33588e-08
-4.13813e-09
-2.06121e-09
2.67189e-10
-8.72037e-08
-9.02088e-08
-9.07342e-08
9.34514e-07
1.11552e-06
-1.33036e-06
2.88915e-07
-7.92762e-07
4.08729e-07
-8.00561e-07
4.09079e-07
-1.08942e-06
-9.22118e-07
-1.6597e-06
-1.8754e-06
1.29413e-06
-1.18788e-06
2.61711e-07
-4.68539e-07
-6.94254e-07
3.67575e-07
-7.10355e-07
3.68718e-07
-2.37576e-06
4.80353e-07
-7.92683e-07
1.28678e-06
3.88325e-07
-2.71802e-07
-2.60241e-07
1.57068e-07
6.73708e-07
2.46938e-07
1.61509e-07
-2.52664e-07
4.17672e-07
2.12447e-07
-6.22376e-07
-2.62549e-07
2.19694e-07
-3.29772e-07
7.73198e-08
-3.89325e-07
3.28686e-07
-2.11825e-07
1.08562e-07
-2.01044e-07
1.07737e-07
-3.46572e-07
-3.3313e-07
-5.23669e-06
9.34479e-08
-1.8615e-07
-1.47688e-07
-1.76627e-07
-1.89878e-07
9.44317e-08
-2.2786e-07
-1.5903e-07
1.30774e-07
0
0
0
0
0
0
0
0
0
0
0
0
0
0
0
0
0
0
0
4.44089e-16
0
-8.88178e-16
0
0
8.88178e-16
0
0
0
-2.66454e-15
0
0
-1.77636e-15
-4.44089e-16
-1.77636e-15
-1.13687e-13
0
1.77636e-15
0
-8.88178e-16
-4.88498e-15
-3.55271e-15
-2.0961e-13
1.77636e-15
3.55271e-15
8.88178e-16
0
-2.66454e-15
0
0
4.44089e-16
0
0
0
0
0
0
-5.32907e-15
-8.88178e-16
-3.9968e-15
-2.27374e-13
1.77636e-15
3.55271e-15
0
-4.44089e-16
-4.44089e-16
-8.88178e-16
-6.03961e-14
0
0
0
0
0
0
0
0
0
0
0
0
0
0
0
0
0
-5.32907e-15
0
0
0
0
0
0
0
0
0
0
0
0
0
0
0
0
0
0
0
0
0
0
0
0
0
0
0
0
0
0
0
0
0
0
0
-2.22045e-16
0
0
0
2.22045e-16
0
0
0
0
0
1.15463e-14
8.43769e-15
4.44089e-16
-1.33227e-15
-8.49987e-13
-2.22045e-16
-1.19904e-14
0
0
-8.43769e-15
-4.61853e-14
0
-8.88178e-16
0
0
0
0
-2.22045e-16
-4.61853e-14
-1.05782e-12
1.90958e-14
1.37668e-14
-2.44249e-15
-1.18439e-12
0
-1.77636e-15
0
0
-2.88658e-14
-2.22045e-16
4.44089e-16
2.22045e-16
-2.17604e-14
0
-1.0969e-13
4.44089e-16
-7.54952e-14
0
-1.70441e-12
-1.55431e-15
2.08722e-14
1.46549e-14
3.33067e-15
-1.26432e-12
-3.33067e-14
0
4.44089e-16
-2.4869e-14
0
-1.23013e-13
0
-1.77636e-15
0
0
-1.96776e-12
2.22045e-16
4.44089e-16
2.22045e-16
-8.17124e-14
7.99361e-15
5.77316e-15
8.88178e-16
-4.92495e-13
0
-4.44089e-16
0
2.22045e-16
-8.88178e-16
-2.22045e-16
0
0
-4.44089e-16
0
-6.66134e-15
0
-3.15303e-14
0
-6.4837e-14
0
0
0
0
-8.88178e-16
0
0
0
0
0
-8.88178e-16
0
0
0
0
-6.66134e-15
2.22045e-16
0
0
-4.44089e-16
0
0
0
0
0
0
0
0
0
-2.22045e-16
0
0
0
0
0
0
0
0
0
0
0
0
0
0
0
0
0
0
0
0
0
0
0
0
0
2.22045e-16
0
0
0
0
0
0
0
0
0
0
-2.22045e-16
0
2.22045e-16
0
0
0
0
0
0
0
0
0
8.88178e-16
0
0
0
0
0
0
0
0
0
0
2.22045e-16
0
0
0
0
0
0
0
0
0
0
-9.76996e-15
4.44089e-14
1.59872e-14
4.44089e-14
2.22045e-14
-4.32498e-12
-1.15907e-13
-3.5838e-12
-1.12799e-13
-7.363e-13
-7.37188e-14
-8.02025e-13
-7.90479e-14
0
0
0
0
5.32907e-15
1.24345e-14
9.41469e-14
3.06422e-14
5.37348e-14
9.41469e-14
-7.4909e-12
-2.74003e-13
-5.21272e-12
-2.30038e-13
-1.14486e-12
-1.45217e-13
-1.14841e-12
-1.46105e-13
0
0
0
0
0
-5.32907e-15
8.88178e-16
8.88178e-16
4.44089e-16
4.44089e-16
8.88178e-16
-3.73035e-14
-1.77636e-15
-1.46549e-14
-8.88178e-16
-6.61693e-14
-5.32907e-15
-5.10703e-14
-4.44089e-15
0
0
0
0
0
0
0
0
0
0
0
0
0
0
0
0
0
0
0
0
0
0
0
0
0
0
0
0
0
0
0
0
0
0
0
0
0
0
0
0
0
-4.44089e-16
0
0
0
0
-4.44089e-16
0
0
0
0
8.57092e-14
2.75335e-14
8.57092e-14
4.92939e-14
-6.6871e-12
-4.91429e-12
-2.46025e-13
-2.10498e-13
-1.04805e-12
-1.108e-12
-1.33227e-13
-1.37224e-13
0
0
0
-4.44089e-16
0
0
0
-8.88178e-16
0
0
-4.44089e-16
0
0
0
0
0
0
0
0
0
0
0
0
0
0
0
0
0
0
-4.44089e-16
0
0
0
0
-8.88178e-16
0
-4.44089e-16
0
0
1.90958e-14
4.88498e-15
1.90958e-14
3.9968e-15
-3.49942e-13
-2.04237e-12
-1.90958e-14
-6.12843e-14
-3.61933e-13
-4.69402e-13
-4.04121e-14
-5.28466e-14
0
0
0
0
0
0
0
-4.44089e-16
0
0
0
0
0
0
0
0
0
0
0
0
0
0
0
0
0
0
0
0
0
0
0
0
0
0
0
0
0
0
0
0
0
0
0
-4.44089e-16
-8.88178e-16
0
0
-1.77636e-15
-4.44089e-15
0
-4.44089e-16
0
0
0
0
0
0
0
0
0
0
0
0
0
0
0
0
0
0
0
0
0
0
0
0
0
0
0
0
0
-2.22045e-15
0
0
-8.88178e-16
-2.22045e-16
0
0
0
0
0
0
0
0
0
0
0
0
0
0
0
0
0
0
0
0
0
0
0
0
0
0
0
0
0
0
0
0
0
0
0
0
0
0
0
0
0
0
0
0
0
0
0
0
0
0
0
0
0
0
0
0
0
0
0
0
0
0
0
0
0
0
0
0
0
0
0
0
0
0
0
0
0
0
0
0
0
0
0
0
-2.22045e-16
0
0
0
0
0
0
0
0
0
0
0
0
0
0
0
0
0
0
0
0
0
0
-2.22045e-16
0
0
0
0
0
0
0
0
0
0
0
0
0
0
0
0
0
0
0
0
0
0
-2.22045e-16
0
0
0
0
0
0
0
0
0
0
0
0
0
0
0
0
0
0
0
0
0
0
0
0
0
0
0
0
0
0
0
0
0
0
0
0
0
0
0
0
0
0
0
0
0
0
0
0
0
0
0
0
0
0
0
0
0
0
0
0
0
0
0
0
0
0
0
0
0
0
0
-8.88178e-16
4.44089e-16
0
0
0
8.88178e-16
-1.33227e-15
0
-4.44089e-16
-8.88178e-16
0
0
0
-1.77636e-15
0
-2.66454e-15
1.77636e-15
-2.22045e-16
-1.77636e-15
0
0
0
1.77636e-15
0
-2.66454e-15
0
-8.88178e-16
0
0
-4.44089e-15
0
0
0
0
0
0
0
0
-2.22045e-16
0
0
0
0
0
0
0
-2.66454e-15
1.77636e-15
0
1.77636e-15
0
-3.10862e-15
-1.33227e-15
0
-1.77636e-15
0
0
0
-4.44089e-15
0
-8.88178e-16
4.44089e-16
0
-4.44089e-16
0
0
0
0
0
-4.44089e-16
0
0
0
0
-1.33227e-15
0
0
0
0
0
0
0
0
-2.22045e-16
0
0
0
0
0
0
0
0
0
0
0
0
0
0
0
0
0
0
0
0
0
0
0
0
0
0
0
0
0
0
0
0
0
0
0
0
0
0
0
0
0
0
0
0
-2.22045e-16
0
0
0
0
0
0
0
-1.77636e-15
0
0
0
0
3.55271e-15
4.21885e-15
-4.61853e-14
-1.28786e-14
-1.68754e-14
0
0
0
0
-1.33227e-15
0
0
-4.44089e-16
0
-8.88178e-16
-6.66134e-16
6.66134e-16
-3.81917e-14
-7.54952e-15
0
0
0
0
0
0
0
0
0
0
0
0
0
0
0
0
0
0
0
0
0
0
0
0
-8.88178e-16
0
0
0
0
-1.33227e-15
0
0
0
0
0
0
0
0
0
0
0
0
0
0
0
0
0
0
0
0
0
0
0
0
0
0
0
0
0
0
0
0
0
0
0
0
0
0
0
0
0
0
0
0
0
0
0
0
0
0
0
0
0
0
0
0
0
0
0
0
0
0
0
0
0
0
0
0
0
0
0
0
0
0
0
0
0
0
0
0
0
0
0
0
0
0
0
0
0
0
0
0
0
0
0
0
0
0
0
0
0
0
0
0
0
0
0
0
0
0
0
0
0
0
0
0
0
0
0
0
0
0
0
8.88178e-16
0
1.77636e-15
0
-5.15143e-14
0
0
0
0
-4.9738e-14
0
0
-1.98211e-10
1.99574e-12
-2.53131e-14
-1.4571e-11
-1.84741e-13
3.39728e-13
-2.07383e-10
3.1477e-12
-1.93583e-11
-2.32617e-10
3.52429e-12
2.46247e-13
-2.16787e-11
5.59552e-14
-3.53717e-13
-9.31522e-12
2.22489e-13
-3.63531e-12
-8.35332e-13
3.15303e-14
1.46549e-14
-6.69242e-13
0
-8.88178e-16
-1.77636e-15
4.44089e-16
-1.42109e-14
1.33227e-15
-6.66134e-15
-4.17444e-14
1.55431e-15
-4.66294e-15
0
0
0
0
-8.88178e-16
0
0
0
0
0
0
0
0
0
0
0
0
0
0
0
0
0
-1.77636e-15
2.66454e-15
0
0
0
0
-1.03029e-13
3.55271e-15
-1.44773e-13
0
0
0
0
0
0
-1.77636e-15
0
0
0
0
0
0
-1.77636e-15
-6.17488e-11
1.08713e-12
1.33227e-14
-6.79456e-14
9.54126e-13
1.01787e-10
-3.85198e-10
-1.55431e-15
-1.39622e-12
-1.41465e-10
1.69376e-12
-2.25819e-13
-1.32063e-11
-1.98508e-12
-2.94937e-10
-6.88338e-15
-7.18612e-11
1.52189e-12
-1.58984e-13
-1.62669e-10
2.33413e-12
-1.66587e-11
8.64731e-12
9.72702e-11
-2.57572e-14
-3.96086e-10
8.65974e-15
-2.28395e-12
-4.44089e-15
-3.39642e-10
6.66134e-15
-1.01918e-13
-7.35656e-11
1.63025e-12
2.4114e-13
1.2015e-10
5.25091e-12
-4.36072e-10
-2.69962e-12
5.77316e-15
-1.67773e-10
2.46558e-12
6.02185e-13
-1.73483e-11
1.63971e-11
-3.49386e-10
1.39888e-14
-3.0048e-11
6.35936e-13
6.90559e-14
-6.8292e-11
9.92983e-13
-7.68852e-12
-5.01243e-12
4.07319e-12
7.51621e-13
-3.70384e-11
-6.43929e-15
-7.81597e-14
1.33227e-15
-1.36395e-10
1.04361e-14
-1.33227e-15
-5.15143e-14
1.33227e-15
2.22045e-16
3.78808e-13
9.4813e-14
-4.72333e-12
-7.54952e-15
2.22045e-16
-8.74856e-14
1.55431e-14
2.66454e-15
-5.23581e-13
1.15463e-14
-1.17106e-12
0
-3.9968e-15
0
0
-6.66134e-15
1.33227e-15
-3.68594e-14
-1.77636e-15
8.88178e-16
2.22045e-16
-3.33067e-14
0
0
0
-1.03917e-13
0
0
0
0
0
0
0
-3.55271e-15
0
0
0
0
0
-8.88178e-16
0
-1.77636e-15
0
0
0
0
0
0
0
0
0
0
0
0
0
0
0
0
-1.4011e-13
4.9738e-14
2.27818e-13
2.62013e-14
-1.74261e-12
-1.33227e-13
-7.23865e-14
4.44089e-15
-8.88178e-14
-1.42109e-14
-3.10418e-13
8.88178e-14
-8.65974e-14
-1.91624e-13
-4.44089e-15
-3.77476e-14
4.44089e-16
-2.15783e-12
-1.45217e-13
-3.44169e-13
8.88178e-16
-4.08562e-14
1.93179e-14
-7.59393e-14
2.22045e-15
9.76996e-15
5.55112e-15
-8.52651e-14
-7.10543e-15
0
-8.88178e-16
0
-1.33227e-15
0
-1.33227e-15
-2.88658e-15
-6.66134e-15
4.44089e-16
-1.77636e-15
-3.10862e-15
-2.66454e-15
1.11022e-15
-6.39488e-14
-5.32907e-15
0
0
0
0
0
0
0
0
0
0
0
0
0
0
0
0
0
0
0
0
0
0
0
0
-1.33227e-15
0
0
0
-4.44089e-16
0
1.77636e-15
-8.88178e-16
-5.32907e-14
0
0
-1.77636e-15
0
0
0
0
0
0
-4.61853e-14
1.77636e-15
0
-8.88178e-16
-4.9738e-14
0
0
0
0
0
0
0
0
0
0
0
0
0
0
0
0
0
0
0
0
0
0
0
0
0
0
0
0
0
0
0
0
0
0
0
0
0
0
0
0
0
0
0
0
0
0
0
0
0
0
0
0
0
0
0
0
0
0
2.22045e-16
0
0
0
0
0
0
0
0
0
0
0
0
0
0
0
0
0
0
0
0
0
0
0
0
0
0
0
0
0
0
0
0
0
0
0
0
0
0
0
0
0
0
0
0
0
0
0
0
0
0
0
0
0
0
0
0
0
0
0
0
0
0
0
0
0
0
0
0
0
0
0
0
0
0
0
0
0
0
0
0
0
0
0
0
0
0
0
0
0
0
0
0
0
0
0
0
0
0
0
0
0
0
0
0
0
0
0
0
0
0
0
0
0
0
0
0
0
0
0
0
0
0
0
0
0
0
0
0
0
0
0
0
0
0
0
0
0
0
0
0
0
0
0
0
0
0
0
0
0
0
0
0
0
0
0
0
0
0
0
0
0
0
0
0
0
0
0
0
0
0
0
0
0
0
0
0
0
0
0
0
0
0
0
0
0
0
0
0
0
0
0
0
0
0
0
0
0
0
0
0
0
0
0
0
0
0
0
0
0
0
0
0
0
0
0
0
0
0
0
0
0
0
0
0
0
0
0
0
0
0
0
0
0
0
0
0
0
0
0
0
0
0
0
0
0
0
0
0
0
0
0
0
0
0
0
0
0
0
0
0
0
0
0
0
0
0
0
0
0
0
0
0
0
0
0
0
0
0
0
0
0
0
0
0
0
0
0
0
0
0
0
0
0
0
0
0
0
0
0
0
0
0
0
0
0
0
0
0
0
0
0
0
0
0
0
0
0
0
0
0
0
0
0
0
0
0
0
0
0
0
0
0
0
0
0
0
0
0
0
0
0
0
0
0
0
0
0
0
0
0
0
0
0
0
0
0
0
0
0
0
0
0
0
0
0
0
0
1.77636e-15
0
0
0
0
0
0
0
0
0
0
0
0
0
0
0
0
0
0
0
0
0
0
0
0
0
0
0
0
0
0
0
0
0
0
0
0
0
0
0
0
0
0
0
0
0
0
0
0
0
0
0
0
0
0
0
0
0
0
0
0
0
0
0
0
0
0
0
0
0
0
0
0
0
0
0
0
0
0
0
0
0
0
0
0
0
0
0
0
0
0
0
0
0
0
0
0
0
0
0
0
0
0
0
0
0
0
0
0
0
0
0
0
0
0
0
0
0
0
0
0
0
0
0
0
0
0
0
0
0
0
0
0
0
0
0
0
0
0
0
0
0
0
0
0
0
0
0
0
0
0
0
0
0
0
0
0
0
0
0
0
0
0
0
0
0
0
0
0
0
0
0
0
0
0
0
0
0
0
0
0
0
0
0
0
0
0
0
0
0
0
0
0
0
0
0
0
0
0
0
0
0
0
0
0
0
0
0
0
0
0
0
0
0
0
0
0
0
0
0
0
0
0
0
0
0
0
0
0
0
0
0
0
0
0
0
0
0
0
0
0
0
0
0
0
0
0
0
0
0
0
0
0
0
0
0
0
0
0
0
0
0
0
0
0
0
0
0
0
0
0
0
0
0
0
0
0
0
0
0
0
0
0
0
0
0
0
0
0
0
0
0
0
0
0
0
0
0
0
0
0
0
0
0
0
0
0
0
0
0
0
0
0
0
0
0
0
0
0
0
0
0
0
0
0
0
0
0
0
0
0
0
0
0
0
0
0
0
0
0
0
0
0
0
0
0
0
0
0
0
0
0
0
0
0
0
0
0
0
0
0
0
0
0
0
0
0
0
0
0
0
0
0
2.22045e-16
0
0
0
0
0
0
0
0
0
0
0
0
0
0
0
0
0
0
0
0
0
0
0
0
0
0
0
0
0
0
0
0
0
0
0
0
0
0
0
0
0
0
0
0
0
0
0
0
0
0
0
0
0
0
0
0
0
0
0
0
0
0
0
0
0
0
0
0
0
0
0
0
0
0
0
0
0
0
0
0
0
0
0
0
0
0
0
0
0
0
0
0
0
0
0
0
0
0
0
0
0
0
0
0
0
0
0
0
0
0
0
0
0
0
0
0
0
0
0
0
0
0
0
0
0
0
0
0
0
0
0
0
0
0
0
0
0
0
0
0
0
0
0
0
0
0
0
0
0
0
0
0
0
0
0
0
0
0
0
-8.88178e-16
0
0
0
0
0
0
0
0
0
0
0
0
0
0
0
0
0
0
0
0
0
0
0
0
0
0
0
0
0
0
0
0
0
0
0
0
0
1.77636e-15
0
0
0
0
0
0
0
0
0
0
0
0
0
0
0
0
0
0
0
0
0
0
0
0
0
0
0
0
0
0
0
0
0
0
0
0
0
0
0
0
0
0
0
0
0
0
0
0
0
0
0
0
0
0
0
0
0
0
0
0
0
0
0
0
0
0
0
0
0
0
0
0
0
0
0
0
0
0
0
0
0
0
0
0
0
0
0
0
0
0
0
0
0
0
0
0
0
0
0
0
0
0
0
0
0
0
0
0
0
0
0
0
0
0
0
0
0
0
0
0
0
0
0
0
0
0
0
0
0
0
0
0
0
0
0
0
0
0
0
0
0
0
0
0
0
0
0
0
0
0
0
0
0
0
0
0
0
0
0
0
0
0
0
0
0
0
0
0
0
0
0
0
0
0
0
0
0
0
0
0
0
0
-8.61533e-14
-7.28306e-14
0
-2.35634e-09
-2.55533e-10
1.03659e-10
1.0372e-10
1.03812e-10
1.0329e-10
3.53282e-11
-5.76215e-11
2.20979e-12
5.15765e-12
7.21201e-13
1.27031e-09
6.05722e-10
2.63771e-11
0
-2.22045e-16
0
-6.66134e-16
-1.55431e-15
0
0
0
0
-5.36566e-10
5.21805e-12
1.77636e-15
1.57208e-13
1.02141e-14
-2.93099e-14
-1.74063e-10
7.6934e-12
8.66862e-13
-4.05009e-13
-8.08242e-14
-2.42029e-14
1.59872e-14
3.33067e-15
0
0
0
1.40599e-12
-4.42402e-12
2.2915e-12
-3.89022e-13
2.2915e-13
-5.41789e-14
-5.15143e-14
-1.27276e-12
1.42109e-14
4.26326e-14
1.19659e-08
-2.13854e-10
-1.34523e-10
-1.30464e-10
-1.11908e-10
1.07599e-08
1.79926e-09
-1.28806e-07
-9.02407e-11
-2.32483e-11
-1.85966e-10
3.13927e-12
9.25704e-12
-5.56e-12
-2.2693e-13
1.86073e-13
-1.86962e-12
4.87379e-11
-1.58717e-12
-7.00773e-13
-1.26907e-11
0
-2.22045e-16
0
-1.33227e-15
3.9968e-15
2.22045e-15
8.88178e-16
1.33227e-15
1.77636e-14
0
0
0
0
0
0
0
0
0
0
0
0
-4.4964e-13
3.40616e-13
-1.66267e-12
6.06182e-14
-1.63869e-13
4.21885e-14
-9.68114e-13
-1.17684e-13
7.02549e-13
-4.34586e-12
-1.93245e-12
8.52651e-14
2.34035e-13
-8.75966e-13
-5.32907e-15
-7.01661e-14
8.88178e-16
-2.37588e-14
4.52971e-14
1.2168e-13
2.4869e-14
-3.2143e-10
-8.13218e-10
5.63873e-11
9.60632e-11
-1.23594e-10
-1.05194e-09
3.57603e-11
-2.71978e-10
-1.44871e-09
1.61887e-10
-1.48952e-09
-1.08149e-09
1.39773e-10
1.42166e-10
-3.01374e-10
5.55535e-10
-1.21745e-08
-1.01092e-08
6.10172e-11
-9.83569e-12
-1.87987e-11
-3.98348e-12
-2.37468e-11
-3.47828e-11
4.89964e-12
3.45026e-11
-1.8727e-11
-3.89511e-12
-3.10862e-15
8.88178e-16
1.24345e-14
7.32747e-15
-1.77636e-15
-2.22045e-16
2.66454e-15
-4.44089e-16
-3.10862e-15
2.31459e-12
-7.81597e-14
2.36255e-13
-5.50671e-14
1.77636e-15
1.95399e-14
1.77636e-15
4.61853e-14
-4.79616e-14
-2.12808e-12
-2.34657e-12
4.39648e-12
2.52864e-12
5.96945e-12
-2.51354e-13
3.00204e-13
1.67571e-10
2.49845e-11
-1.53348e-09
-2.99671e-12
-8.39107e-13
4.8539e-13
-1.22788e-11
1.33999e-11
-4.9023e-12
1.50058e-12
-6.48948e-12
1.73674e-11
-4.88005e-11
-3.72413e-12
1.68843e-12
-1.86784e-12
1.01252e-13
-3.5727e-13
-9.30234e-12
0
0
0
0
0
0
0
0
0
0
0
0
0
0
0
0
0
0
0
0
0
0
0
0
0
0
0
0
0
0
0
0
0
0
0
0
0
0
0
0
0
0
0
0
0
0
0
0
0
0
0
0
0
0
0
0
0
0
0
0
0
0
0
0
0
0
0
0
0
0
0
0
0
0
0
0
0
0
0
0
0
0
0
0
0
0
0
0
0
0
0
0
0
0
0
0
0
0
0
0
0
0
0
0
0
0
0
0
0
0
0
0
0
0
0
0
0
0
0
0
0
0
0
0
0
0
0
0
0
0
0
0
0
0
0
0
0
0
0
0
0
0
0
0
0
0
0
0
0
0
0
0
0
0
0
0
0
0
0
0
0
0
0
0
0
0
0
0
0
0
0
0
0
0
0
0
0
0
0
0
0
0
0
0
0
0
0
0
0
0
0
0
0
0
0
0
0
0
0
0
0
0
0
0
0
0
0
0
0
0
0
0
0
0
0
0
0
0
0
0
0
0
0
0
0
0
0
0
0
0
0
0
0
0
0
0
0
0
0
0
0
0
0
0
0
0
0
0
0
0
0
0
-2.22045e-16
0
0
0
0
0
0
0
0
0
0
0
0
0
0
0
0
0
0
0
0
0
0
0
0
0
0
0
0
0
0
0
0
0
0
0
0
0
0
0
0
0
0
2.22045e-16
0
0
0
0
0
0
0
0
2.22045e-16
0
0
0
0
0
0
0
0
0
0
0
0
0
0
0
0
0
0
0
0
-2.22045e-16
0
0
0
0
0
0
0
0
0
0
0
0
0
0
0
0
0
0
0
0
0
0
0
0
0
0
0
0
0
0
0
0
0
0
0
0
2.22045e-16
0
0
0
0
0
0
0
0
0
0
0
0
0
0
0
0
0
0
0
0
-2.22045e-16
0
0
0
0
0
0
0
0
0
0
0
0
0
0
0
0
0
0
0
0
0
0
0
0
0
0
0
0
0
0
0
0
0
0
0
0
2.22045e-16
0
0
0
0
0
0
0
0
0
0
0
0
0
0
0
0
0
0
0
0
0
0
0
0
0
0
0
0
0
0
0
0
0
0
0
0
0
0
0
0
0
0
0
0
0
0
0
0
0
0
0
0
0
0
0
0
0
0
0
0
0
0
0
0
0
0
0
0
0
0
0
0
0
0
0
0
0
0
0
0
0
0
0
0
0
0
0
0
0
0
0
0
0
0
0
0
0
0
0
0
0
0
0
0
0
0
0
0
0
0
0
0
0
0
0
0
0
0
0
0
0
0
0
0
0
0
0
0
0
0
0
0
0
0
0
0
0
0
0
0
0
0
0
0
0
0
0
0
0
0
2.22045e-16
0
0
0
0
0
0
-2.22045e-16
0
0
0
0
0
0
0
0
0
0
0
0
0
0
0
0
0
0
0
0
2.22045e-16
0
0
0
2.22045e-16
0
0
0
0
0
0
0
0
-2.23199e-12
-9.6847e-12
1.20792e-12
1.20792e-12
5.93303e-13
1.19549e-12
2.40163e-12
-2.86207e-11
-2.44746e-11
-1.8856e-12
2.56164e-11
2.63078e-11
8.92229e-11
-4.01272e-10
1.15085e-10
-6.13854e-09
-6.16214e-09
2.81459e-11
3.02984e-11
-4.40004e-12
-5.11147e-13
3.06422e-13
3.55715e-13
5.69544e-13
-3.53451e-12
-1.54721e-12
-1.10134e-13
-7.99361e-15
-1.32561e-13
-6.08402e-14
-2.73115e-14
6.83897e-14
5.50671e-14
4.61853e-14
1.13731e-11
4.36229e-12
4.26104e-12
1.66711e-12
-3.88898e-11
-9.42643e-10
-1.46535e-10
5.17453e-12
-3.61844e-12
-3.02691e-11
1.84919e-12
-1.85629e-12
3.17746e-13
1.82965e-13
-1.7053e-12
-4.23261e-12
-4.08962e-12
1.50235e-12
7.64722e-13
1.14975e-12
-1.01252e-11
1.47349e-12
-1.73745e-11
-1.21916e-11
8.99281e-14
1.56763e-13
-5.99476e-12
1.85807e-12
4.3876e-13
4.65405e-13
4.08562e-13
-6.38423e-12
-7.2724e-11
2.03393e-12
-3.32179e-13
-7.29017e-12
3.16192e-13
2.38032e-13
-1.15463e-14
-8.39329e-14
-3.24185e-14
4.44089e-15
3.10862e-15
2.44249e-13
3.60378e-13
9.50351e-14
-2.8948e-12
5.28466e-14
1.03251e-13
4.13003e-14
2.16271e-13
2.56239e-13
1.15463e-14
4.88498e-15
4.4853e-14
2.66454e-14
0
0
0
0
0
-1.33227e-15
0
0
0
-1.33227e-15
0
0
0
0
-1.33227e-15
0
0
-1.33227e-15
-2.22045e-16
-8.88178e-16
2.22045e-16
0
-1.77636e-15
4.44089e-16
-1.77636e-15
1.77636e-15
6.66134e-16
-7.10543e-15
-2.22045e-15
4.75132e-07
-4.18878e-06
3.37696e-07
-1.74903e-05
2.018e-07
2.15871e-08
2.27149e-08
9.05765e-09
-1.46314e-07
-7.34372e-08
-6.02424e-08
-1.23985e-07
-1.39826e-07
-1.06499e-07
-1.36526e-07
-6.52738e-10
-5.05578e-11
-1.46657e-10
-1.79581e-11
2.15437e-11
4.59664e-08
-1.5258e-07
6.97316e-08
2.73169e-08
-1.86369e-07
-1.87271e-06
-1.50702e-07
-3.7238e-07
-8.67938e-07
-2.18204e-07
-1.83777e-07
-3.69649e-08
1.02609e-09
1.25869e-09
6.76738e-07
-2.35977e-05
-1.35359e-06
2.68667e-07
3.35312e-07
6.54435e-05
-0.00337042
-0.000455633
0.000134052
-0.00779744
0.000146531
1.19751e-06
-3.19e-05
1.24423e-06
-3.69867e-05
5.01585e-07
3.35455e-08
1.73872e-08
-8.0213e-08
-7.56433e-07
-6.81746e-08
-1.69134e-07
-1.18511e-07
-9.34379e-08
-2.28682e-07
1.89733e-11
-6.96867e-10
2.10658e-11
-1.68914e-11
6.43041e-13
6.55476e-13
3.89045e-10
2.82851e-10
-6.07086e-09
-7.00931e-10
9.78417e-12
2.56046e-10
3.3887e-09
2.3756e-09
-4.03329e-08
1.30505e-09
-8.18787e-08
-8.29286e-08
-8.25717e-08
-5.40376e-08
1.1992e-10
-1.09168e-09
8.6164e-11
7.29674e-11
-5.36849e-09
0.0186406
0.00473747
-1.23172
-0.128493
0.0477692
-6.02113
0.609454
0.0311374
0.452941
-0.407796
-4.18245e-05
-0.422583
0.000494465
0.0052763
0.0142382
0.000280653
-0.00023093
-0.0154052
-0.000652682
4.77652e-05
8.49299e-05
2.64335e-06
-6.3738e-06
-0.000128467
-4.86409e-06
7.43798e-07
7.79007e-07
3.43467e-07
-1.99858e-06
1.8175e-07
-6.17835e-07
-0.107241
7.38031
-16.0108
-0.566613
15.6892
20.0313
0.0280695
-20.0789
9.38076
0.0999049
19.0388
9.09266
-13.395
0.0490546
4.37221
-0.949816
-2.36127
3.73071
7.18527
-15.1573
14.28
0.0112439
1.01313
6.94574
-15.4007
14.1507
-0.0365658
0.269891
-11.4702
3.6014
4.06013
-13.5694
-2.97765
9.28371
5.48942
3.60763
1.26325
-4.8966
1.49298
-6.79474
0.821224
11.8743
-6.56593
6.67966
6.78015
-12.8599
-7.41599
-2.98318
1.0321
1.11804
0.604687
2.23642e-06
-0.00032619
-0.000101575
-1.65884e-05
3.55593e-06
7.40779e-06
0
0
0
0
0
0
0
0
0
0
0
0
0
0
0
0
0
0
0
0
0
0
0
0
0
0
0
0
0
0
0
0
0
0
0
0
0
0
0
0
-8.88178e-16
0
-8.88178e-16
0
0
0
-1.77636e-15
0
0
0
0
-3.55271e-15
3.55271e-15