/*--------------------------------*- C++ -*----------------------------------*\
  =========                 |
  \\      /  F ield         | OpenFOAM: The Open Source CFD Toolbox
   \\    /   O peration     | Website:  https://openfoam.org
    \\  /    A nd           | Version:  9
     \\/     M anipulation  |
\*---------------------------------------------------------------------------*/
FoamFile
{
    format      ascii;
    class       volVectorField;
    location    "0.0005";
    object      U;
}
// * * * * * * * * * * * * * * * * * * * * * * * * * * * * * * * * * * * * * //

dimensions      [0 1 -1 0 0 0 0];

internalField   nonuniform List<vector> 
5924
(
(-1.77886e-15 3.82787e-15 1.19431e-14)
(-4.75919e-20 0 1.04904e-17)
(0 0 0)
(-3.37199e-13 6.35854e-13 1.10859e-12)
(-2.3248e-12 7.54376e-12 1.15704e-11)
(-2.30112e-14 8.09747e-14 1.68315e-13)
(-5.17941e-18 5.02078e-18 7.50992e-16)
(0 1.11699e-20 0)
(-1.60176e-14 3.9182e-13 7.07397e-13)
(-5.59433e-18 1.85611e-15 6.47234e-15)
(-3.78296e-22 0 1.29259e-18)
(-3.99536e-18 -3.65626e-19 4.58923e-17)
(-2.17696e-20 0 9.79787e-22)
(-9.53935e-23 0 0)
(-1.92074e-14 2.38428e-14 3.54285e-14)
(-1746.48 504.403 120.263)
(-858.006 255.044 833.529)
(-1056.42 692.55 88.7676)
(-927.849 710.616 597.126)
(-138.247 115.606 158.632)
(-1.68947e-08 1.05813e-08 1.42679e-08)
(-2.9283e-09 1.6148e-09 3.21926e-09)
(-943.669 679.669 464.331)
(-632.264 632.335 154.357)
(-884.149 884.949 144.926)
(-1020.02 715.162 149.169)
(-980.912 717.145 407.594)
(-299.142 285.14 5.64122)
(-237.494 224.97 55.0438)
(-813.389 680.368 729.78)
(-1.17216 1.4006 1.38902)
(-359.647 384.625 267.803)
(-700.556 522.423 469.471)
(-18.7171 11.2282 16.5954)
(-1.53908 1.35633 0.685215)
(-0.0518571 0.0452269 0.0316326)
(-0.0198607 0.0242644 0.0306692)
(-0.000188517 7.9562e-05 0.000211255)
(-8.54996e-05 6.24646e-05 8.94346e-05)
(-765.433 524.47 80.4878)
(-1340.03 866.763 5.48129)
(-58.5957 46.8202 2.50571)
(-1.4281 1.03267 0.195599)
(-587.597 408.497 14.4932)
(-359.008 245.558 135.428)
(-0.652476 0.472891 0.00291552)
(-0.358676 0.251667 0.0396865)
(-12.522 5.8 5.15162)
(-0.0119958 0.00436912 0.0078093)
(-0.0124307 0.00838146 0.00246927)
(-9.75952e-05 5.63248e-05 4.75139e-05)
(-9.18234e-07 3.05465e-07 5.33769e-07)
(-3.29435e-05 1.31562e-05 2.71445e-05)
(-6.60633e-07 2.81592e-07 7.47997e-07)
(-2.79909e-08 1.61687e-08 3.05496e-08)
(-3.00302e-06 1.52765e-06 2.28866e-06)
(-3.80479e-08 1.71966e-08 2.30624e-08)
(-7.80781e-10 7.6998e-10 6.03347e-10)
(-0.00051175 0.000359326 0.00139428)
(-1.64831e-05 1.63875e-05 3.3233e-05)
(-1.23106e-05 7.59343e-06 1.86833e-05)
(-1.30881e-06 9.47622e-07 2.09303e-06)
(-5.23837e-08 3.82872e-08 1.23779e-07)
(-1634.01 308.163 706.38)
(-1479.16 241.378 73.3327)
(-1307.83 286.113 475.755)
(-1077.85 553.242 536.459)
(-1392.28 761.453 97.3161)
(-1129.62 580.849 187.451)
(-1080.74 623.141 437.622)
(-1748.75 496.571 364.814)
(-1830.35 392.215 316.762)
(-1850.08 399.335 100.795)
(-1743.79 658.281 109.199)
(-1736.02 646.178 339.173)
(-1707.63 509.306 310.504)
(-1734.72 527.052 95.1824)
(-262.789 76.2035 220.893)
(-1197.19 296.08 618.401)
(-1355.94 233.333 726.261)
(-888.091 624.118 819.484)
(-964.285 557.856 616.214)
(-146.31 91.1727 127.829)
(-890.729 573.342 608.976)
(-1736.08 419.545 822.129)
(-1759.74 471.777 589.871)
(-1780.54 367.757 522.134)
(-1615.2 543.113 790.003)
(-1718.19 611.884 561.562)
(-1623.81 449.405 507.287)
(-1426.1 341.305 615.534)
(-1362.94 730.612 314.741)
(-1168.82 538.673 233.843)
(-1174.31 534.664 79.7342)
(-1638.89 769.279 103.114)
(-1617.67 749.727 327.274)
(-1464.6 511.358 293.409)
(-1497.63 540.488 91.9726)
(-1698.17 295.459 289.009)
(-1734.4 311.973 90.2801)
(-1465.25 247.204 230.503)
(-1495.05 341.655 267.702)
(-1330.36 354.345 64.9085)
(-1527.44 355.22 85.2472)
(-1334.91 366.832 206.06)
(-1253.48 640.687 478.795)
(-1049.42 563.767 460.864)
(-1118.35 540.042 352.822)
(-1374.26 544.653 694.521)
(-1551.82 682.254 543.127)
(-1353.51 444.396 442.267)
(-1182.61 417.513 507.08)
(-1536.67 346.291 982.846)
(-1208.45 248.872 924.859)
(-1354.06 389.322 858.316)
(-1069.96 334.287 832.118)
(-1190.79 324.632 649.076)
(-1153.17 263.728 803.621)
(-1090.28 378.281 781.961)
(-1410.79 230.5 533.121)
(-1593.03 254.557 449.427)
(-1404.92 262.448 358.567)
(-1398.95 319.081 401.37)
(-1221.19 407.315 456.927)
(-1268.72 340.803 489.217)
(-1295.8 386.96 331.04)
(-1047.17 692.785 252.78)
(-927.144 801.185 197.097)
(-906.617 779.419 66.3694)
(-1030.2 680.45 188.099)
(-1008.03 662.953 60.716)
(-955.487 805.746 147.023)
(-935.008 787.631 47.1043)
(-1110.75 565.706 60.1773)
(-1044.63 605.873 45.9687)
(-1059.3 614.486 145.487)
(-1268.95 427.605 226.4)
(-1187.25 490.576 54.7795)
(-1268.98 417.94 74.7925)
(-1201.21 503.497 176.261)
(-999.596 674.455 362.903)
(-920.969 824.3 434.334)
(-927.246 812.436 314.275)
(-1006.92 722.529 435.563)
(-1020.99 696.405 311.924)
(-956.122 813.956 268.183)
(-935.157 808.859 407.27)
(-1112.11 600.142 307.335)
(-996.213 602.289 395.44)
(-1045.41 616.612 268.454)
(-1226.78 446.26 349.033)
(-1121.13 525.876 437.252)
(-1160.07 478.367 461.415)
(-1177.3 518.655 299.799)
(-934.555 603.056 751.171)
(-969.818 633.807 714.452)
(-1021.63 606.62 597.574)
(-1108.3 435.618 693.165)
(-975.695 454.936 778.702)
(-1076.52 454.754 614.197)
(-1030.73 508.356 752.763)
(-902.688 276.041 982.78)
(-1008.92 271.749 981.614)
(-870.54 384.225 924.755)
(-964.114 383.619 940.036)
(-1036.59 286.851 905.221)
(-990.147 400.867 857.868)
(-802.163 341.713 770.482)
(-1253.05 268.503 634.886)
(-1120.69 410.467 592.566)
(-1177.89 386.144 617.915)
(-1031.63 278.391 677.281)
(-1140.2 292.218 775.444)
(-1079.5 408.477 745.671)
(-950.437 369.178 620.011)
(-862.552 863.219 45.0213)
(-787.417 836.29 32.8047)
(-799.6 849.629 111.203)
(-657.939 658.643 17.7099)
(-657.442 657.467 67.5791)
(-848.941 799.416 111.525)
(-835.913 788.283 34.0258)
(-1003.5 700.057 48.0811)
(-895.935 639.12 32.8585)
(-905.803 644.758 109.07)
(-887.511 734.791 112.062)
(-663.394 531.843 17.3349)
(-875.536 725.869 34.3984)
(-657.899 526.638 63.6635)
(-906.905 737.041 719.023)
(-833.797 777.213 649.612)
(-906.33 832.478 576.723)
(-878.793 690.634 639.88)
(-973.143 739.119 578.315)
(-719.637 627.467 509.411)
(-873.026 761.16 517.172)
(-761.21 810.712 345.685)
(-524.035 524.717 219.791)
(-798.326 848.818 228.065)
(-877.618 879.326 406.657)
(-890.04 890.882 266.477)
(-847.868 798.138 227.415)
(-809.443 762.224 344.66)
(-1014.13 723.434 271.739)
(-818.866 583.26 315.768)
(-892.007 635.173 218.305)
(-882.475 730.281 225.627)
(-480.482 380.776 186.096)
(-833.786 690.288 336.828)
(-617.181 492.647 139.803)
(-736.839 531.523 749.06)
(-820.968 479.943 850.708)
(-927.584 504.517 886.075)
(-528.572 362.734 490.752)
(-839.545 569.338 703.122)
(-929.417 507.321 792.871)
(-708.048 392.415 669.686)
(-1017.55 631.382 574.184)
(-590.105 368.331 377.032)
(-875.928 539.061 462.85)
(-1019.6 504.21 546.179)
(-1105.21 513.4 602.604)
(-999.663 515.137 695.007)
(-821.577 415.538 530.476)
(-668.561 189.288 598.534)
(-747.314 204.474 562.232)
(-969.978 273.254 781.309)
(-904.39 367.109 721.818)
(-143.087 56.8347 119.574)
(-555.791 230.065 493.271)
(-620.17 245.915 462.308)
(-575.823 481.989 571.995)
(-286.577 267.631 279.994)
(-668.966 622.413 588.898)
(-247.995 194.989 227.512)
(-678.254 531.829 557.328)
(-366.906 320.985 297.043)
(-31.9481 25.8666 30.6734)
(-638.873 682.087 389.845)
(-47.8081 48.1742 29.767)
(-291.582 292.575 166.877)
(-688.8 692.812 520.619)
(-825.53 828.354 521.867)
(-385.2 364.162 269.143)
(-681.003 642.044 389.492)
(-897.771 667.492 501.432)
(-251.031 175.25 154.646)
(-610.189 437.421 320.197)
(-351.727 290.585 232.016)
(-223.535 171.922 112.244)
(-678.575 562.182 368.926)
(-28.5391 18.7801 14.0691)
(-288.112 273.89 24.6928)
(-23.3337 19.9463 0.233126)
(-21.4822 18.2091 1.18078)
(-677.201 608.479 67.1522)
(-272.808 233.852 5.29486)
(-679.032 611.394 18.3137)
(-260.303 221.972 21.759)
(-199.711 125.04 26.9506)
(-606.74 423.256 7.45516)
(-109.952 66.7493 1.91242)
(-19.6429 10.9795 2.52327)
(-214.24 160.447 4.45628)
(-347.375 264.223 52.9059)
(-9.38643 5.06663 0.143929)
(-106.273 64.0375 1.68708)
(-577.408 400.224 54.1577)
(-97.0376 57.6021 7.014)
(-8.2161 4.35978 0.372199)
(-205.021 152.638 3.80722)
(-192.688 142.277 15.5321)
(-9.12116 4.91383 0.0744148)
(-119.893 112.643 45.6087)
(-14.2086 11.7774 2.2162)
(-4.51692 3.6076 1.05193)
(-647.427 580.967 150.785)
(-97.7492 79.5518 34.0781)
(-530.345 474.321 211.868)
(-208.897 175.591 46.0784)
(-1092.25 719.696 209.859)
(-854.018 552.198 22.2676)
(-519.398 337.729 132.576)
(-112.487 73.4077 30.4736)
(-1032.11 768.433 29.0451)
(-714.948 540.415 187.118)
(-341.994 238.177 14.1041)
(-607.813 394.472 471.467)
(-6.65602 2.72037 5.36633)
(-161.146 94.6079 114.767)
(-800.299 422.628 630.601)
(-42.0049 17.5389 34.7212)
(-375.543 206.005 329.074)
(-416.602 218.235 306.8)
(-520.418 358.998 115.699)
(-65.1901 36.7041 11.6661)
(-23.9187 11.487 5.83146)
(-5.06129 2.56353 0.626449)
(-57.7056 38.6019 17.5179)
(-144.257 103.949 29.7946)
(-1.51565 0.714118 0.270957)
(-0.145822 0.087036 0.24664)
(-2.96863 2.24041 5.58852)
(-0.00887715 0.00631759 0.0143358)
(-0.195819 0.169294 0.38771)
(-13.7626 12.2931 18.8793)
(-9.91073 6.54198 12.461)
(-0.59794 0.438796 0.791793)
(-48.0134 53.2794 41.5528)
(-1.87773 1.91007 1.38791)
(-0.0419757 0.0429059 0.0414486)
(-34.7102 35.2717 36.6842)
(-367.891 370.819 317.722)
(-54.0021 49.7723 42.4478)
(-1.41421 1.23723 1.42615)
(-295.6 220.159 226.105)
(-0.536176 0.235589 0.411389)
(-20.3389 10.9848 12.904)
(-40.6691 30.2102 29.1256)
(-0.0275362 0.0143858 0.02025)
(-1.09165 0.690269 0.955268)
(-1.16095 0.639353 0.652298)
(-22.5815 20.6094 8.80798)
(-0.597696 0.461874 0.152675)
(-0.0357195 0.0271554 0.0127867)
(-44.1811 37.0978 24.9438)
(-18.0595 13.2359 6.18205)
(-283.783 252.457 153.037)
(-1.23775 0.819175 0.48262)
(-0.658483 0.479344 0.00950792)
(-0.0147372 0.00949262 0.000136121)
(-0.0278699 0.0175045 0.0027517)
(-0.881685 0.491798 0.0992767)
(-17.6029 12.4217 0.336513)
(-38.3619 28.1805 6.30048)
(-0.422967 0.239919 0.00524901)
(-0.59154 0.424303 0.0211443)
(-0.014927 0.00959657 3.27029e-05)
(-0.0133343 0.00849022 0.000385996)
(-0.375156 0.210351 0.0125151)
(-16.9721 11.9292 0.160819)
(-15.4973 10.7461 0.781906)
(-0.418224 0.237395 0.00178189)
(-123.108 76.6754 54.5942)
(-0.251602 0.0859336 0.0764029)
(-3.76959 1.47909 0.934105)
(-0.0126197 0.00524534 0.00362685)
(-10.2308 5.61873 2.98481)
(-0.682166 0.330411 0.233891)
(-0.20275 0.0871525 0.040864)
(-12.3805 9.15142 2.97461)
(-1.15506 0.690436 0.0302468)
(-0.215564 0.127403 0.0364166)
(-7.02983 3.9402 1.43596)
(-510.49 415.452 23.5852)
(-215.791 170.58 65.9012)
(-33.1821 20.8462 1.16139)
(-0.100746 0.0692298 0.01682)
(-0.00207283 0.00128969 0.00029369)
(-0.00768748 0.00481964 0.000708794)
(-0.223263 0.121515 0.0224357)
(-3.09978 1.93024 0.634255)
(-10.0347 6.66458 1.404)
(-0.0625799 0.0330694 0.00944039)
(-2.12813e-12 4.21304e-11 6.11633e-11)
(-0.00124876 0.00108843 0.00100958)
(-4.84565e-05 3.75418e-05 3.37377e-05)
(-0.00124158 0.000954464 0.000660102)
(-1.81258 1.37112 1.1616)
(-0.00104036 0.000671865 0.000745476)
(-0.0415049 0.0305159 0.0349462)
(-0.0425702 0.0272477 0.0226903)
(-0.000321423 0.000390767 0.000579538)
(-0.000770676 0.000800017 0.000967129)
(-2.09765e-05 2.23e-05 3.15245e-05)
(-0.000386584 0.000339364 0.000596607)
(-0.00893964 0.00922681 0.0172138)
(-0.619411 0.636686 0.961468)
(-0.0243352 0.0210486 0.0314938)
(-2.92915e-05 1.56493e-05 3.1115e-05)
(-0.00549991 0.00266573 0.00755706)
(-0.000330963 0.000195166 0.000429323)
(-0.355343 0.180436 0.408743)
(-0.00994989 0.00414666 0.00957146)
(-0.0005445 0.00028219 0.000501147)
(-0.0194665 0.0117167 0.0214763)
(-0.486127 0.187102 0.24111)
(-0.000268541 9.06227e-05 0.000155186)
(-0.00921836 0.00302476 0.00395841)
(-0.000484835 0.000198653 0.000205722)
(-0.000624547 0.000287257 0.000396624)
(-0.0241701 0.0111068 0.0114211)
(-3.7222e-05 1.61309e-05 2.05478e-05)
(-0.000815284 0.000551494 0.000297036)
(-0.0002641 0.000163534 4.75251e-05)
(-4.41258e-05 2.75054e-05 1.45851e-05)
(-0.000554345 0.00028558 0.000208449)
(-0.415339 0.242225 0.0936757)
(-0.0251775 0.0142596 0.00796793)
(-0.00771085 0.00397114 0.00136536)
(-4.01182e-05 3.3211e-05 0.000100897)
(-3.29601e-05 1.97224e-05 7.00088e-05)
(-6.36566e-06 4.59182e-06 1.23116e-05)
(-0.00202501 0.00116998 0.00396116)
(-0.0378674 0.0270436 0.0925211)
(-0.00013128 9.40055e-05 0.000242671)
(-0.00262544 0.00223404 0.0061283)
(-1.17649e-08 9.23231e-09 2.054e-08)
(-1.46105e-08 1.38259e-08 3.1922e-08)
(-3.31646e-07 2.97497e-07 9.55941e-07)
(-2.8662e-06 2.3055e-06 6.59574e-06)
(-1.526e-08 9.72464e-09 2.66694e-08)
(-2.47225e-08 1.84421e-08 3.98264e-08)
(-1.92022e-07 1.35821e-07 4.09455e-07)
(-9.50574e-05 7.03546e-05 9.96583e-05)
(-8.33089e-05 6.26731e-05 8.9732e-05)
(-8.588e-05 6.27533e-05 8.79159e-05)
(-8.57853e-05 6.03051e-05 8.97338e-05)
(-8.9815e-05 6.51919e-05 9.56273e-05)
(-9.30379e-05 6.67443e-05 9.64859e-05)
(-0.000448038 0.000325743 0.000476339)
(-0.000110226 6.27669e-05 5.21336e-05)
(-9.91045e-05 5.59681e-05 4.7192e-05)
(-9.94646e-05 5.6187e-05 4.57123e-05)
(-0.000105407 5.83765e-05 4.94624e-05)
(-0.000108677 6.07199e-05 5.26841e-05)
(-0.000521087 0.000290755 0.000240078)
(-9.9467e-05 5.40824e-05 4.7387e-05)
(-3.09799e-05 1.28356e-05 2.56289e-05)
(-3.14452e-05 1.24532e-05 2.55946e-05)
(-0.000142465 5.16165e-05 0.000116749)
(-3.32402e-05 1.32036e-05 2.68141e-05)
(-3.11309e-05 1.26885e-05 2.53389e-05)
(-3.66339e-05 1.48633e-05 2.97082e-05)
(-3.14299e-05 1.28164e-05 2.51466e-05)
(-1.72704e-05 1.6573e-05 3.45851e-05)
(-1.86165e-05 1.83607e-05 3.71402e-05)
(-1.69959e-05 1.63923e-05 3.27798e-05)
(-1.68366e-05 1.62259e-05 3.2936e-05)
(-1.68957e-05 1.55974e-05 3.30543e-05)
(-1.89188e-05 1.80065e-05 3.71972e-05)
(-7.36747e-05 7.50244e-05 0.0001622)
(-1.2259e-05 7.6297e-06 1.8205e-05)
(-1.18783e-05 7.27089e-06 1.76441e-05)
(-1.16219e-05 7.31367e-06 1.77654e-05)
(-1.3054e-05 7.85586e-06 1.93385e-05)
(-1.20291e-05 7.35194e-06 1.77167e-05)
(-4.85733e-05 2.43518e-05 7.61799e-05)
(-1.38848e-05 8.34786e-06 2.08822e-05)
(2.89721e-16 2.99052e-15 -3.39917e-16)
(0 0 -2.89439e-16)
(1.84519e-16 1.01731e-14 5.34497e-15)
(5.10431e-15 1.03587e-15 1.14029e-14)
(2.55215e-14 5.6127e-15 -7.76111e-15)
(1.2443e-13 6.88279e-14 -3.2482e-15)
(3.02849e-13 1.63089e-13 6.36451e-15)
(2.87697e-14 6.64856e-15 1.28734e-14)
(1.39208e-15 1.22318e-16 -6.92368e-15)
(3.26515e-13 1.79033e-13 -7.3974e-15)
(8.12758e-14 4.05188e-14 1.72142e-14)
(0 2.76363e-17 1.15823e-14)
(0 2.93724e-24 -7.04762e-15)
(5.63929e-15 5.82368e-15 -1.02494e-14)
(3.02964e-16 2.81565e-15 9.78865e-15)
(0 2.73698e-22 1.13258e-14)
(0 7.28205e-29 -3.7027e-15)
(3.02964e-16 2.83254e-15 -1.0579e-14)
(3.02964e-16 2.81495e-15 2.85503e-16)
(0 2.40113e-26 2.17111e-14)
(2.78471e-17 0 -4.2958e-15)
(4.88389e-12 1.24545e-12 -8.26286e-14)
(5.93956e-14 7.42445e-15 -3.61052e-14)
(3.25748e-13 1.86376e-13 1.13429e-15)
(6.03236e-15 1.35988e-15 -2.2057e-14)
(6.54279e-14 7.88847e-15 -1.34339e-15)
(3.6983e-13 2.00316e-13 -9.25254e-15)
(5.31219e-12 1.3777e-12 -9.77037e-15)
(7.79149e-12 2.00274e-12 -3.4946e-13)
(1.85611e-14 2.29242e-15 5.44436e-15)
(1.92572e-13 2.73776e-14 -3.04518e-14)
(1.0371e-12 5.99373e-13 -1.0028e-14)
(1.19719e-13 1.6705e-14 2.51171e-14)
(6.83977e-13 3.66164e-13 -4.51459e-14)
(1.18383e-11 3.15121e-12 -2.11629e-13)
(8.48614e-12 2.19068e-12 4.84207e-13)
(2.18557e-13 3.06258e-14 -2.28063e-15)
(1.16425e-12 6.76222e-13 1.07251e-15)
(1.99532e-14 3.05892e-15 -2.09558e-14)
(1.34336e-11 3.61107e-12 6.8128e-14)
(1.35496e-13 1.85611e-14 4.42669e-15)
(7.49869e-13 4.08617e-13 5.12371e-14)
(3.17952e-12 8.17617e-13 3.03453e-13)
(5.10431e-15 1.03964e-15 5.97896e-15)
(4.64028e-15 0 -3.05127e-14)
(5.93956e-14 1.909e-14 1.11968e-14)
(4.77949e-14 5.56833e-15 3.06592e-14)
(2.81201e-13 1.47811e-13 1.58914e-14)
(4.29226e-13 1.01158e-13 4.48703e-14)
(6.03236e-15 4.64028e-16 5.69819e-16)
(0 0 -2.64619e-15)
(6.03236e-15 1.46312e-15 4.89711e-16)
(0 6.92306e-18 -2.16119e-14)
(4.9651e-14 9.28056e-15 5.27071e-15)
(0 0 2.59949e-16)
(9.28056e-16 3.55001e-16 -5.29393e-16)
(0 0 7.17912e-15)
(0 3.03065e-19 5.55809e-15)
(0 0 -3.05102e-14)
(0 1.26961e-22 3.98953e-15)
(0 0 2.85469e-14)
(0 2.49236e-17 -5.70149e-15)
(0 0 -9.05947e-15)
(0 0 0)
(0 0 -2.18308e-15)
(0 5.27425e-21 0)
(0 5.61797e-21 -2.1354e-14)
(0 0 -3.05885e-16)
(0 0 -1.85347e-16)
(0 1.13576e-19 -8.24278e-16)
(0 0 7.24855e-15)
(0 -4.39398e-23 5.40997e-15)
(0 0 -1.13118e-14)
(0 2.24148e-26 4.14349e-15)
(0 0 2.8288e-14)
(0 -4.48862e-21 -5.82758e-15)
(0 0 -7.47431e-15)
(5.39539e-16 8.3335e-14 2.98406e-14)
(0 8.21645e-14 -2.86224e-15)
(0 0 3.24811e-15)
(0 0 -5.89501e-15)
(0 0 2.39696e-14)
(0 2.45028e-24 -2.92069e-15)
(0 1.58357e-24 -2.20053e-14)
(0 0 8.22638e-15)
(0 0 -3.97622e-15)
(0 2.23683e-22 -7.86848e-15)
(4.81635e-12 7.58968e-12 -2.12257e-13)
(0 0 0)
(9.28772e-12 1.53368e-11 2.89918e-13)
(0 0 0)
(2.34709e-13 1.62917e-13 3.88122e-14)
(0 0 0)
(1.25315e-14 8.65518e-15 -1.67076e-16)
(0 0 0)
(-1.01956e-21 6.38498e-15 -9.74083e-16)
(0 9.61353e-17 7.68544e-17)
(0 4.692e-16 -2.32014e-16)
(6.63737e-15 5.32333e-16 0)
(8.58942e-12 1.39936e-11 -2.82918e-13)
(0 1.91961e-15 5.73886e-15)
(9.65355e-15 2.48661e-15 -2.66615e-16)
(5.24528e-15 0 0)
(0 0 9.50195e-15)
(5.24528e-15 0 1.78671e-15)
(0 2.94498e-15 0)
(9.65355e-15 3.32974e-15 -4.00589e-16)
(2.46686e-12 3.1393e-12 4.65014e-13)
(0 0 5.60544e-15)
(6.40535e-15 3.48371e-16 -5.7649e-17)
(5.24528e-15 0 -9.66937e-16)
(0 0 9.49655e-15)
(5.24528e-15 0 1.78988e-15)
(0 0 0)
(5.24528e-15 9.03999e-18 -4.45462e-16)
(2.36344e-14 1.58387e-14 2.87526e-15)
(0 0 5.46774e-15)
(5.24528e-15 5.29691e-31 -1.43897e-16)
(5.24528e-15 0 -9.67524e-16)
(0 0 9.48843e-15)
(5.24528e-15 0 1.81244e-15)
(3.03253e-14 2.23565e-14 1.43849e-14)
(2.93365e-17 0 1.06408e-16)
(0 0 0)
(5.24528e-15 1.04186e-29 -4.69414e-16)
(1.24999e-14 6.79907e-15 -2.89663e-16)
(0 0 0)
(5.24528e-15 5.74741e-30 -1.88069e-16)
(5.24528e-15 0 -9.54863e-16)
(0 0 0)
(5.2421e-15 -4.88029e-28 2.2311e-20)
(0 0 0)
(7.31099e-18 0 0)
(0 0 0)
(0 0 0)
(9.52103e-20 0 -1.49898e-14)
(0 0 0)
(0 0 0)
(0 0 0)
(3.08981e-17 0 -2.59672e-15)
(0 0 0)
(0 0 0)
(0 0 -6.37398e-17)
(2.90309e-17 0 -1.22056e-14)
(0 0 0)
(0 0 0)
(7.78645e-20 0 -2.63083e-15)
(0 0 0)
(0 0 0)
(0 0 -6.56177e-17)
(0 0 -1.22056e-14)
(0 0 0)
(0 0 0)
(0 0 -2.52266e-15)
(0 0 0)
(0 0 0)
(0 0 -7.44901e-17)
(0 0 -1.22056e-14)
(0 0 0)
(-5.11435e-28 -2.28603e-15 -8.00668e-15)
(0 0 0)
(1.60263e-16 -8.89139e-16 -7.03846e-15)
(2.79069e-19 0 -2.77924e-15)
(0 0 -1.54076e-14)
(0 0 5.00814e-15)
(5.00119e-15 0 -3.6675e-17)
(-1.88992e-20 2.33591e-16 0)
(3.1466e-14 0 -9.91215e-15)
(1.07937e-13 2.89082e-13 -8.58452e-15)
(5.80035e-14 1.51193e-13 -4.64028e-15)
(3.68222e-16 4.64028e-16 -2.04425e-14)
(0 2.88969e-15 0)
(1.09511e-13 3.00514e-13 -9.66582e-15)
(1.60783e-17 1.95443e-15 6.6329e-15)
(4.7413e-14 1.3828e-13 -3.71222e-15)
(2.37731e-13 6.80624e-13 -3.32866e-14)
(1.85611e-15 1.06726e-14 -6.28441e-15)
(8.81653e-14 2.52855e-13 6.18156e-15)
(1.43604e-15 6.03319e-15 1.34757e-14)
(2.38974e-13 6.95057e-13 -1.15917e-14)
(1.85615e-15 9.74459e-15 -2.02815e-14)
(1.38262e-13 4.39839e-13 2.14539e-14)
(0 0 6.53973e-15)
(0 0 -1.29288e-15)
(3.36896e-17 0 2.91604e-14)
(0 0 7.01869e-16)
(4.40774e-19 0 0)
(0 0 0)
(0 0 3.1385e-15)
(2.55043e-13 7.39017e-13 1.83291e-14)
(9.88379e-14 2.74455e-13 -7.76343e-15)
(1.51341e-15 6.10845e-15 -1.40421e-14)
(2.32014e-15 1.19135e-14 0)
(1.46474e-13 4.74237e-13 -6.97245e-15)
(2.58e-13 7.56326e-13 1.54229e-14)
(2.29662e-15 1.0935e-14 1.31176e-14)
(6.95295e-14 1.65131e-13 -5.72677e-16)
(0 9.28056e-16 -5.00353e-15)
(2.08813e-14 4.43674e-14 3.91203e-15)
(1.41603e-16 0 1.35647e-14)
(7.47085e-14 1.72748e-13 1.63481e-14)
(2.41813e-18 4.64028e-16 -1.43327e-14)
(1.40531e-14 3.67597e-14 2.2382e-14)
(0 0 6.53923e-15)
(0 0 -1.18654e-15)
(2.95289e-18 0 2.91663e-14)
(0 0 7.00568e-16)
(3.30968e-20 0 0)
(0 0 0)
(0 0 3.13404e-15)
(6.72835e-15 6.91227e-15 6.96042e-16)
(9.28056e-16 7.70651e-16 5.98765e-17)
(6.29912e-18 0 -1.42929e-14)
(0 0 0)
(1.38814e-15 2.32014e-15 -4.34178e-15)
(6.96042e-15 7.0861e-15 7.03214e-16)
(0 0 1.29113e-14)
(0 0 -1.37975e-14)
(0 0 -4.85453e-15)
(0 0 6.81808e-20)
(0 0 1.30819e-14)
(0 0 0)
(0 0 -1.45485e-14)
(0 0 1.40295e-14)
(0 0 6.53835e-15)
(0 0 -1.17258e-15)
(0 0 2.89424e-14)
(0 0 6.99991e-16)
(0 0 0)
(0 0 0)
(0 0 3.12603e-15)
(1.76331e-14 3.1487e-14 5.86615e-15)
(9.07105e-13 1.11204e-12 6.58224e-13)
(1.60081e-16 2.11348e-16 0)
(1.35873e-14 1.11367e-14 3.81124e-15)
(4.80751e-14 7.0542e-14 3.22499e-14)
(5.46161e-13 7.00029e-13 2.47908e-13)
(1.00214e-16 0 0)
(0 0 1.46972e-17)
(0 0 0)
(0 0 1.69794e-16)
(0 0 0)
(0 5.39039e-16 1.871e-16)
(8.93544e-17 0 2.42402e-16)
(8.3525e-15 1.55177e-14 5.5902e-15)
(0 0 1.31686e-18)
(1.7169e-14 3.01392e-14 2.06916e-14)
(5.01752e-19 0 0)
(0 2.75656e-16 1.31035e-16)
(0 0 0)
(0 0 0)
(0 0 0)
(0 0 0)
(0 0 0)
(0 0 0)
(0 0 -1.47756e-14)
(0 0 0)
(0 0 -4.52725e-15)
(0 0 0)
(0 0 1.24661e-14)
(0 0 -1.37975e-14)
(0 0 -4.90014e-15)
(0 0 0)
(0 0 1.22902e-14)
(0 0 0)
(0 0 -1.5017e-14)
(0 0 1.37975e-14)
(0 0 6.65943e-15)
(0 0 -1.23512e-15)
(0 0 0)
(0 0 0)
(0 0 0)
(0 0 0)
(0 0 0)
(0 0 0)
(0 0 0)
(0 0 3.7059e-16)
(0 0 0)
(0 0 5.05995e-17)
(0 0 -6.29264e-18)
(0 0 -5.635e-17)
(1.36452e-16 0 1.48194e-17)
(0 0 2.33578e-17)
(0 8.17608e-17 1.90756e-16)
(0 0 2.35741e-17)
(0 0 -4.31861e-18)
(0 0 1.72792e-18)
(0 0 1.57228e-18)
(0 0 -4.6727e-15)
(0 0 1.36948e-16)
(0 0 0)
(0 0 -1.48891e-14)
(0 0 4.16388e-15)
(0 0 1.10712e-15)
(0 0 1.36139e-14)
(0 -1.0373e-18 4.49174e-15)
(2.32014e-16 1.12467e-13 4.06657e-14)
(1.7079e-14 1.30117e-14 8.579e-15)
(8.01305e-10 1.2615e-09 9.96068e-13)
(1.16184e-09 1.82809e-09 -2.78324e-11)
(1.30066e-09 2.05026e-09 5.82524e-12)
(8.50313e-11 9.18701e-11 2.03835e-11)
(1.19e-11 9.84815e-12 2.38651e-12)
(1.59162e-13 6.11071e-14 3.14181e-14)
(4.81603e-13 2.75117e-13 2.10901e-13)
(6.03236e-15 4.66302e-15 3.58562e-15)
(9.7472e-15 2.32187e-15 1.85611e-15)
(0 2.46738e-26 3.88818e-15)
(0 1.76337e-20 0)
(-2.32787e-14 2.32014e-16 -1.56791e-15)
(-4.45802e-15 3.12394e-13 3.06729e-13)
(0 1.46457e-16 0)
(9.60034e-19 2.51416e-15 2.88454e-15)
(2.97462e-17 6.96042e-16 -1.42013e-14)
(3.57476e-10 1.7795e-10 -3.11618e-12)
(3.4884e-08 3.42776e-08 2.3997e-10)
(1.98819e-11 1.72006e-11 -7.07882e-14)
(6.68918e-10 1.01628e-09 -1.00508e-11)
(2.44146e-08 2.37813e-08 5.40628e-11)
(1.89459e-11 1.57603e-11 -4.25282e-13)
(4.66267e-10 2.44684e-10 1.27744e-12)
(4.79909e-10 2.39032e-10 -2.02956e-11)
(8.85554e-10 1.3498e-09 -6.28023e-11)
(3.4093e-08 3.33031e-08 -7.66525e-10)
(4.29421e-11 3.75137e-11 -6.66863e-13)
(2.72992e-08 2.64641e-08 -1.00073e-09)
(2.98956e-11 2.46545e-11 -1.9232e-12)
(6.79283e-10 3.52816e-10 -1.36111e-11)
(5.08868e-10 2.54024e-10 3.12713e-11)
(3.82108e-08 3.73466e-08 1.90936e-10)
(4.824e-11 4.24973e-11 1.47329e-13)
(9.29807e-10 1.42415e-09 9.69095e-11)
(7.86131e-10 4.19789e-10 4.24773e-12)
(2.79369e-08 2.71148e-08 1.90952e-09)
(3.2146e-11 2.67033e-11 2.58672e-12)
(1.99847e-10 9.98969e-11 2.20667e-11)
(3.78537e-10 5.62712e-10 5.58158e-11)
(1.66459e-09 1.52688e-09 2.69747e-10)
(2.56721e-12 1.49628e-12 4.5446e-13)
(1.14435e-08 1.11225e-08 1.57959e-09)
(1.25041e-11 1.02175e-11 1.23451e-12)
(2.66629e-11 1.22921e-11 3.78181e-12)
(4.41127e-13 1.29928e-13 6.7284e-14)
(1.58023e-10 1.39514e-10 3.46878e-11)
(3.56081e-13 1.72138e-13 5.75395e-14)
(5.78736e-12 2.33587e-12 8.11754e-13)
(2.66953e-12 1.15682e-12 4.9029e-13)
(1.99648e-11 1.26103e-11 4.22695e-12)
(1.51314e-13 3.57003e-14 1.34568e-14)
(3.44142e-14 9.28056e-15 2.09271e-14)
(4.70988e-13 1.88513e-13 1.55831e-13)
(4.35258e-13 2.17918e-13 8.64384e-14)
(1.6518e-15 1.19316e-20 1.22417e-14)
(1.60693e-12 9.12493e-13 4.92076e-13)
(1.10103e-14 2.09048e-15 -1.39621e-14)
(9.00585e-15 2.32014e-15 -1.46393e-14)
(0 0 0)
(4.59388e-14 2.22733e-14 1.20606e-14)
(1.05525e-17 5.33929e-19 0)
(5.10431e-15 2.02245e-15 1.23749e-15)
(2.08103e-20 0 -5.03056e-17)
(1.80971e-14 7.88847e-15 3.16614e-15)
(0 2.34949e-17 0)
(0 0 1.35027e-14)
(0 3.00966e-17 -4.98378e-15)
(0 0 0)
(0 3.25023e-24 1.10816e-14)
(0 0 2.3119e-16)
(0 -1.92744e-19 -1.65304e-14)
(0 0 -1.39432e-14)
(1.76633e-11 2.45923e-11 1.06749e-11)
(1.28743e-12 1.63964e-12 6.91011e-13)
(1.5244e-11 1.4734e-11 1.02015e-11)
(3.44521e-13 1.80528e-13 1.09279e-13)
(2.49041e-11 3.59732e-11 1.81876e-11)
(7.62865e-13 7.67038e-13 2.55443e-13)
(1.34512e-11 1.26132e-11 8.19788e-12)
(6.70984e-13 1.16888e-12 7.51908e-13)
(1.29928e-14 7.75083e-15 7.3133e-15)
(2.20646e-14 2.18093e-14 1.31934e-14)
(3.85607e-13 3.63123e-13 2.23769e-13)
(4.12633e-14 4.87229e-14 2.56061e-14)
(4.3433e-13 4.44619e-13 3.87815e-13)
(5.3224e-13 7.75959e-13 3.76487e-13)
(0 0 -1.5641e-14)
(0 0 3.90809e-18)
(0 4.32884e-22 -1.15032e-14)
(0 2.96576e-18 -3.02181e-16)
(0 0 1.18764e-14)
(0 0 -2.91756e-15)
(0 4.58143e-20 -4.88161e-17)
(2.39524e-16 0 2.46604e-16)
(1.07257e-14 1.25303e-14 1.06726e-14)
(0 1.36174e-16 -6.88029e-16)
(1.88032e-14 3.43381e-14 3.16647e-14)
(8.34429e-18 0 -6.74545e-15)
(8.68227e-15 1.02086e-14 7.81306e-15)
(6.99739e-15 1.02086e-14 7.46965e-15)
(1.3881e-15 1.1553e-13 -7.53721e-15)
(0 2.06299e-18 0)
(4.64028e-16 9.81318e-15 2.89607e-15)
(1.46879e-15 1.01854e-13 1.54558e-14)
(1.40463e-15 1.06494e-13 1.40338e-14)
(1.39208e-15 9.85069e-15 2.89935e-15)
(0 1.09012e-16 5.81481e-16)
(0 0 0)
(0 -4.78233e-30 -5.46634e-19)
(0 0 0)
(0 -2.46924e-26 5.13868e-19)
(0 0 0)
(0 -3.32477e-23 0)
(0 0 0)
(0 -2.4801e-20 0)
(0 0 4.12469e-16)
(1.85611e-14 1.07275e-14 3.96804e-17)
(3.3642e-15 -9.09002e-17 7.97293e-15)
(5.7801e-15 0 -8.48721e-15)
(0 0 0)
(5.24528e-15 -4.2708e-19 0)
(0 0 -4.98971e-15)
(5.24528e-15 -1.87091e-19 -4.06598e-17)
(0 0 0)
(0 0 -8.26196e-16)
(0 0 0)
(0 0 1.45194e-15)
(0 0 0)
(5.24528e-15 -1.7979e-19 5.2655e-16)
(0 0 -4.98261e-15)
(5.24528e-15 -1.89281e-19 -3.22129e-17)
(0 0 0)
(0 2.30683e-18 7.04272e-17)
(0 0 0)
(5.24528e-15 -4.27839e-19 5.25158e-16)
(0 0 -5.05626e-15)
(5.24528e-15 -4.14616e-19 -4.56496e-17)
(0 0 0)
(5.24528e-15 -1.41598e-20 4.43069e-16)
(0 0 -5.18106e-15)
(5.24528e-15 -3.39984e-21 2.60362e-16)
(0 0 0)
(0 0 2.34897e-19)
(1.34568e-14 -1.69748e-27 -6.0239e-15)
(-9.56276e-15 0 -1.84909e-14)
(0 -1.09671e-38 0)
(0 1.85611e-14 0)
(0 0 0)
(0 0 -4.82234e-15)
(0 7.2561e-35 -1.13932e-15)
(0 5.37616e-15 -1.0635e-15)
(0 0 1.48605e-20)
(0 9.65406e-33 1.2122e-15)
(0 1.85611e-14 1.46018e-15)
(0 0 7.65447e-25)
(0 0 -4.49502e-15)
(0 5.42962e-30 -1.13519e-15)
(0 6.74282e-15 -9.57478e-16)
(0 0 7.73525e-25)
(0 5.51131e-28 1.20979e-15)
(0 1.64683e-14 1.31628e-15)
(0 0 -4.10789e-25)
(0 0 -4.55635e-15)
(0 2.81953e-25 -1.15418e-15)
(0 6.09117e-15 -9.58612e-16)
(0 0 -6.36715e-25)
(0 1.84022e-23 1.01528e-15)
(0 1.64683e-14 1.31256e-15)
(0 0 7.25847e-19)
(0 0 -7.00803e-15)
(0 8.0191e-22 -2.00251e-15)
(0 1.13419e-15 -1.33072e-15)
(0 0 1.45766e-17)
(5.01827e-15 -9.27429e-26 -3.4069e-17)
(0 0 0)
(5.43972e-15 -3.56731e-20 -1.21415e-16)
(0 -1.16809e-25 0)
(0 1.53011e-22 -5.93461e-15)
(0 0 0)
(0 0 0)
(0 0 1.11043e-14)
(0 0 0)
(0 0 0)
(0 0 -1.33423e-14)
(0 0 -1.11043e-14)
(0 0 1.63279e-14)
(0 0 5.67706e-15)
(0 0 0)
(0 0 -1.3202e-14)
(0 0 0)
(0 0 1.49866e-14)
(0 0 -1.51251e-14)
(0 2.87011e-41 0)
(0 0 0)
(0 6.25268e-42 0)
(0 0 0)
(0 0 0)
(0 1.2401e-39 0)
(0 3.58235e-44 0)
(0 1.93749e-39 0)
(0 0 2.77561e-16)
(0 0 0)
(0 5.78185e-36 0)
(0 0 0)
(0 8.9248e-38 -8.98489e-16)
(0 2.35825e-37 0)
(0 0 0)
(0 0 0)
(0 0 1.44812e-14)
(0 0 0)
(0 0 5.12795e-15)
(0 0 0)
(0 0 -1.22953e-14)
(0 0 1.63091e-14)
(0 0 5.71451e-15)
(0 0 0)
(0 0 -1.32029e-14)
(0 0 0)
(0 0 1.51123e-14)
(0 0 -1.51251e-14)
(0 2.22197e-33 0)
(0 0 0)
(0 8.68258e-34 0)
(0 0 0)
(0 1.75008e-35 0)
(0 0 0)
(0 5.01441e-32 0)
(0 0 0)
(0 0 0)
(0 0 1.44996e-14)
(0 0 0)
(0 0 5.12215e-15)
(0 0 0)
(0 0 -1.23161e-14)
(0 0 1.63091e-14)
(0 0 5.69687e-15)
(0 0 0)
(0 0 -1.31776e-14)
(0 0 0)
(0 0 1.50643e-14)
(0 0 -1.51251e-14)
(0 0 0)
(0 0 0)
(0 0 1.37817e-14)
(0 0 0)
(0 0 5.01919e-15)
(0 0 0)
(0 0 -1.28965e-14)
(0 0 1.64787e-14)
(0 0 5.54848e-15)
(0 0 0)
(0 0 -1.25738e-14)
(0 0 0)
(0 0 1.48006e-14)
(0 0 -1.36359e-14)
(0 0 2.79157e-17)
(0 0 0)
(0 0 0)
(0 0 2.15365e-17)
(0 0 0)
(0 0 1.46082e-18)
(0 0 2.69518e-16)
(0 0 6.66519e-17)
(0 0 0)
(0 0 0)
(0 0 -2.56e-16)
(0 0 0)
(0 0 6.14755e-16)
(0 0 -2.84823e-17)
(0 0 1.28664e-14)
(0 2.41208e-42 0)
(0 0 0)
(0 0 -1.49844e-14)
(0 1.93072e-40 0)
(0 2.69871e-42 0)
(0 6.16717e-44 1.9723e-14)
(0 0 1.22479e-14)
(0 3.79609e-35 0)
(0 0 0)
(0 0 -1.51273e-14)
(0 4.27984e-33 0)
(0 9.03605e-35 0)
(0 2.32719e-36 2.03933e-14)
(0 0 1.22479e-14)
(0 1.13039e-27 0)
(0 0 0)
(0 0 -1.53593e-14)
(0 4.27158e-26 0)
(0 1.76325e-27 0)
(0 5.8913e-29 2.03933e-14)
(0 0 1.25245e-14)
(0 2.28301e-21 0)
(0 0 0)
(0 0 -1.89019e-14)
(0 4.35816e-20 0)
(0 3.09795e-21 0)
(0 1.70973e-22 2.01613e-14)
(0 0 2.18587e-14)
(0 0 0)
(0 0 4.34984e-16)
(0 0 3.41186e-16)
(0 0 2.59344e-15)
(0 0 7.5065e-15)
(0 0 1.06695e-15)
(0 0 1.3942e-14)
(0 1.57023e-17 4.0605e-19)
(0 1.90046e-19 -7.87567e-16)
(1.34568e-14 7.8007e-19 -3.46333e-15)
(6.43364e-15 0 1.4062e-15)
(0 0 -3.81944e-16)
(0 0 -9.3847e-16)
(0 -1.73881e-28 2.8404e-18)
(0 0 -1.28016e-17)
(0 -1.49508e-26 0)
(0 0 1.46179e-14)
(0 0 3.20769e-15)
(0 0 -1.46456e-14)
(0 7.36411e-37 0)
(0 0 1.23018e-14)
(0 1.3897e-38 -5.68677e-15)
(0 2.67242e-40 -1.22408e-14)
(0 1.74191e-38 0)
(0 0 3.07013e-15)
(0 0 -1.44379e-14)
(0 1.0689e-29 0)
(0 0 1.23081e-14)
(0 2.35479e-31 -5.22066e-15)
(0 5.8761e-33 -1.20088e-14)
(0 2.62826e-31 0)
(0 0 2.96144e-15)
(0 0 -1.52018e-14)
(0 3.82496e-23 0)
(0 0 1.24648e-14)
(0 1.40314e-24 -5.2212e-15)
(0 4.9667e-26 -1.20088e-14)
(0 1.43768e-24 0)
(0 0 1.73555e-15)
(0 0 -2.36608e-14)
(0 4.32188e-18 -4.34109e-16)
(0 0 8.59018e-15)
(0 5.90989e-19 -6.0954e-15)
(0 4.51238e-20 -1.51797e-14)
(0 3.43347e-19 -2.08813e-15)
(0 0 0)
(0 0 1.49495e-14)
(0 0 -2.60491e-15)
(0 0 0)
(0 0 6.52643e-15)
(0 0 2.14285e-14)
(0 0 -1.21267e-14)
(0 0 0)
(0 6.41556e-37 0)
(0 0 0)
(0 -9.84862e-29 -1.33875e-16)
(0 0 1.17051e-19)
(0 -7.64572e-33 1.47953e-24)
(0 0 1.0651e-19)
(0 0 9.21073e-24)
(0 -4.3099e-31 3.43795e-29)
(0 0 8.63719e-24)
(0 -5.97672e-25 -1.29363e-16)
(0 0 9.21073e-24)
(0 -4.63889e-29 3.27251e-29)
(0 0 8.63894e-24)
(0 0 -6.965e-24)