/*--------------------------------*- C++ -*----------------------------------*\
  =========                 |
  \\      /  F ield         | OpenFOAM: The Open Source CFD Toolbox
   \\    /   O peration     | Website:  https://openfoam.org
    \\  /    A nd           | Version:  9
     \\/     M anipulation  |
\*---------------------------------------------------------------------------*/
FoamFile
{
    format      ascii;
    class       volScalarField;
    location    "0.00125";
    object      rho.air;
}
// * * * * * * * * * * * * * * * * * * * * * * * * * * * * * * * * * * * * * //

dimensions      [1 -3 0 0 0 0 0];

internalField   nonuniform List<scalar> 
10346
(
1.46744
3.26616
1.87634
2.62356
1.33884
1.22501
1.22561
2.63836
2.81434
1.27398
1.22613
2.43198
2.83181
3.14365
3.28335
2.65521
1.88199
1.2548
1.58805
1.78277
1.88871
2.01122
2.12266
2.5072
2.40919
2.63152
1.23378
1.84899
1.23563
3.27452
1.2279
1.225
2.77749
2.94303
2.82235
2.8283
2.56798
2.58718
2.1666
1.85026
2.77864
2.16899
2.99741
2.42616
2.79694
3.21096
1.24441
1.225
1.2272
1.22501
1.22553
1.225
1.225
2.17582
2.73604
2.28052
2.90569
3.18563
3.17623
2.84267
2.68491
3.11179
2.76401
3.05564
3.14343
3.04062
3.03106
2.94185
2.1524
2.67902
1.47266
2.02386
1.62851
1.31367
2.76936
2.27712
2.68002
1.63796
2.17601
1.7047
1.35135
3.69479
3.38446
3.40426
3.5881
3.34989
3.34141
2.74895
3.09425
2.98275
2.57774
3.10592
3.08187
3.20839
3.27787
1.89084
1.24342
1.55431
1.23896
1.48463
1.32084
1.22986
3.24936
3.10224
3.00681
3.16405
2.10041
2.81311
3.1696
1.67562
1.71644
2.29531
1.35584
1.23082
1.25178
1.25513
3.16864
2.77536
3.10332
1.69274
2.95993
2.5536
3.21773
3.55334
1.73656
2.96128
1.39776
2.24543
1.51908
1.25509
3.40859
2.38363
3.2293
2.21372
3.04154
1.85215
1.33646
1.50706
1.3538
1.26999
1.26844
1.24052
1.23167
1.22714
3.10415
1.44077
1.81001
1.39325
2.59354
2.04451
2.71817
1.24915
1.23018
1.32751
1.25418
1.22529
1.22636
1.23141
3.12036
1.28125
2.03975
1.37086
2.54347
1.44858
1.2355
1.23833
1.2282
1.28856
1.24841
1.2252
1.22953
1.2261
1.3105
1.22761
1.23741
1.22591
1.22931
1.22557
1.22511
1.30948
1.36069
1.97162
1.27546
1.22546
1.2317
1.22915
1.54043
2.38675
1.31662
3.48704
2.42266
2.84529
0.157088
2.48472
2.78685
1.49102
0.720465
1.68817
0.904722
1.18419
2.18496
0.433359
1.17522
1.47781
3.00713
1.44672
3.09097
1.95058
1.99226
3.10202
1.50634
2.35262
1.72896
2.10381
2.66624
2.586
1.35175
0.224441
0.190059
0.273156
0.25924
0.362906
0.431211
0.310417
0.552896
1.41165
2.43572
0.94805
1.80783
2.41094
3.21114
0.788721
0.50833
0.426435
1.05419
0.625406
0.720447
1.16903
0.341413
0.306662
0.238046
0.524618
0.488258
0.64697
0.38422
1.31003
1.30507
1.15826
1.51734
1.75981
1.96074
1.66787
1.48499
1.31864
1.28306
1.775
1.79612
2.02681
2.01131
2.2627
3.25883
2.67179
3.57408
2.56813
3.34022
1.25484
0.432734
0.88007
0.573623
0.665944
0.837935
0.998552
0.511987
1.42506
1.32755
1.25963
1.78052
1.88482
2.01544
2.11295
1.22555
2.34584
2.51817
2.74375
2.20946
1.78223
1.22647
1.03675
0.734435
0.612148
0.83652
1.43475
0.969681
1.29759
2.48321
2.02165
1.25517
1.92585
3.14306
1.23162
1.22511
1.69055
1.65413
1.47375
2.22407
2.04246
2.55785
1.84391
0.403159
0.5366
0.702989
0.630987
0.801554
0.989609
0.820481
1.18437
1.34702
0.878344
0.982383
1.81837
1.30016
1.46182
0.78972
0.993306
1.33171
0.777314
0.946653
1.14951
0.624227
1.67336
2.01136
1.7092
2.35421
2.73045
2.77764
2.33837
1.41144
1.22501
1.22527
2.47899
2.28695
2.8903
1.32647
3.19695
1.21638
2.04153
2.75337
2.84351
1.40831
3.27718
0.871249
1.46357
1.02116
1.58241
1.11813
1.28345
1.74736
1.94172
3.11354
2.37885
2.63971
2.6768
3.31955
2.11074
1.99335
1.76192
1.66371
2.64077
2.31321
2.39217
2.67531
1.10803
1.98124
1.61302
1.746
1.25327
1.44255
1.59502
3.24444
2.47233
2.534
2.82274
3.12853
3.43353
2.72095
2.105
1.86761
1.52406
2.4709
2.12235
2.34351
2.64722
0.716981
1.10383
0.887454
1.2053
1.32097
1.44473
1.05517
1.54529
0.973518
1.13352
1.34666
1.68382
1.80333
1.20447
1.84458
2.05253
2.6335
2.26532
2.94584
2.52272
3.32142
2.42187
2.92909
2.93963
3.12699
3.24605
3.62595
3.39788
2.40435
2.72376
2.46403
2.84876
2.6102
2.64137
2.71234
2.95517
2.89032
2.55294
3.63106
3.27763
3.50898
2.31526
1.62324
1.37155
1.18614
1.47133
2.19974
1.69356
1.94312
2.1986
2.62601
2.69232
2.68756
2.62379
2.79967
2.81529
3.16357
3.18819
3.61459
3.22795
3.48488
3.57353
3.00072
2.34535
2.01354
2.39054
2.58966
2.83292
2.77279
2.78361
1.82214
1.92287
1.4196
1.6133
2.71997
2.09118
2.1446
2.25401
2.74027
2.70595
2.70252
2.64843
2.78438
2.76333
1.59015
2.01354
1.78482
2.50877
2.12486
1.89054
1.46985
2.40626
2.81006
2.91348
2.80034
2.85784
3.05372
2.88846
1.34454
1.519
1.62282
1.62571
1.72875
2.1006
2.00228
1.26317
3.40791
2.90752
1.2438
3.03916
1.225
1.22911
2.82779
2.94295
2.81431
2.77718
2.16638
2.82226
2.56819
2.63508
2.78439
2.7868
2.85984
2.80854
2.70719
2.56559
2.6447
2.74866
2.62461
2.72492
2.02761
2.50977
2.74896
1.85211
2.99865
2.7799
2.79819
2.42815
2.17069
2.43383
2.28747
3.42704
3.04921
3.10117
2.8143
3.5826
3.69303
1.58792
2.37623
1.8598
2.55462
1.98162
2.38737
2.9558
2.66192
2.88115
2.85591
2.72622
2.83955
2.70823
2.2531
2.8177
3.67054
3.53078
3.36731
3.06564
3.6724
3.60113
3.36839
3.78628
3.45956
3.79916
3.18035
3.7652
3.47094
2.48243
1.88707
1.98068
2.58994
3.00611
3.04953
2.50098
3.49021
3.33855
3.68525
3.72443
1.9226
3.05528
3.23016
2.78499
2.60152
2.81409
2.88839
2.77442
2.24705
1.78942
2.76922
1.6397
2.27839
1.70526
2.68024
2.17749
2.6393
2.70641
2.85516
2.84413
2.54275
1.74003
1.68855
2.58723
3.07664
2.8755
2.95333
2.37634
2.98088
2.6179
1.84957
2.17747
2.90637
2.28199
2.73679
3.18527
3.17576
2.65608
2.55977
1.65716
2.62546
2.08993
1.2742
1.30017
1.92194
2.84823
2.63986
2.84324
2.45276
1.4635
1.59187
2.29395
1.73972
2.68723
2.66376
2.19692
1.33644
2.25056
1.32331
2.94135
1.62778
2.67851
1.47125
2.62135
2.15086
1.31335
2.75917
2.82918
2.24615
2.85635
3.30546
3.20292
3.24471
3.09473
3.10611
2.57895
2.98321
3.08006
3.2076
3.28313
3.64147
3.22329
3.31761
3.68883
3.67159
3.41394
3.46734
3.40378
3.38438
3.26691
3.69471
2.74476
3.34736
3.58692
2.42915
1.31538
2.17896
1.25243
1.70553
1.48119
1.23747
2.83351
1.94005
2.75436
1.35007
2.04724
1.7309
1.27879
2.66102
2.54219
2.87662
2.13734
1.277
1.45735
1.57055
3.84542
2.73145
2.24283
3.65865
3.42914
2.50664
1.42572
3.12312
3.30233
3.24695
2.51681
3.15231
3.23845
3.09915
3.55173
1.39627
1.73334
1.51678
2.2403
2.95723
2.62716
1.7169
1.35582
2.29523
1.67509
1.23082
1.25174
1.33883
2.53263
1.87487
2.54095
2.1243
1.88087
1.52001
0.967728
1.39979
2.37337
2.50533
1.30951
2.60795
1.92965
2.02477
1.62055
1.54
2.68332
1.15052
0.963282
1.14339
1.4248
1.43251
1.69815
1.68886
1.026
1.22618
0.985311
1.17449
1.45986
1.73212
1.80484
1.09707
1.31504
1.20237
1.44699
1.76726
1.92185
2.08388
1.25107
1.79319
2.80911
2.78299
1.45754
2.33827
1.2302
1.38939
1.74767
1.73465
2.03321
2.39875
2.40163
2.02521
1.50072
1.43261
1.79125
2.06863
2.50124
2.43247
2.14631
2.50045
2.05676
2.05908
2.31069
2.60236
2.59411
2.30979
1.34757
1.87039
1.62893
2.19045
1.9587
2.28846
2.51709
2.13981
2.50643
2.0816
2.33442
2.59715
2.59129
2.39363
1.6144
2.22091
1.78282
2.60031
2.2717
2.4358
2.71013
2.57295
2.23749
2.37083
2.59724
2.4849
2.5913
2.56614
2.17331
2.11779
2.45302
2.51002
2.68705
2.71321
2.82912
2.28776
2.45533
2.01035
2.61001
2.83094
2.75529
2.7978
2.61246
2.65646
2.5221
2.68559
2.18932
2.45521
2.73843
2.55105
2.33429
2.70781
2.60429
2.69817
2.58662
2.55427
2.56629
2.52013
2.70267
2.2564
2.69663
2.56024
2.60669
2.43859
2.69987
2.66341
2.71188
1.69075
2.2669
2.65658
2.48419
2.91949
2.78306
2.82768
2.82416
2.82773
2.58315
2.58276
2.92616
2.85049
2.75456
2.83644
2.81027
2.41145
2.7315
2.73831
2.30369
1.79401
2.71336
2.50646
1.43876
2.724
1.6447
1.45746
2.16727
1.97974
2.65611
2.50946
1.34003
1.87412
2.87129
2.83746
2.92273
2.54551
1.77421
1.23577
1.27708
1.98338
1.46306
2.53804
1.98348
1.27709
1.37757
1.70859
2.3937
1.88661
1.23141
1.36828
1.26627
1.23761
1.82978
1.2622
1.32609
1.22642
1.22965
1.25814
1.56035
2.06369
2.52831
1.442
1.23025
1.29193
1.24397
3.39268
3.0602
3.56937
2.95758
3.37079
2.805
1.70372
1.47736
1.22628
1.25699
1.23968
1.25291
1.5108
1.23784
1.26971
1.35296
1.87354
1.50596
1.22713
1.24046
1.26826
3.22533
2.64616
1.98813
2.26538
2.94767
3.1252
3.23932
3.40799
1.84888
3.22678
2.21057
3.27331
2.38049
1.3358
1.41716
1.23095
1.23755
1.22593
1.24562
1.23456
1.34806
1.22521
1.22631
1.25588
1.22669
1.23444
1.26442
1.43101
1.3103
1.22591
1.22761
1.22556
1.2293
1.23738
1.24439
1.22808
1.23128
1.29081
1.25467
1.22511
1.2263
1.22759
1.61116
1.71475
2.91617
1.52225
1.22691
1.25642
1.24752
1.61569
1.41646
2.66867
1.4918
1.22614
1.23809
1.25299
1.3089
1.27511
1.96803
1.35991
1.22546
1.23166
1.23556
1.57438
1.67593
2.87246
1.44682
2.85739
1.55166
0.840659
0.676259
0.614555
0.827388
0.61795
0.833598
0.84668
1.0973
1.08812
0.63439
0.915394
0.903906
0.855145
0.86804
1.12509
1.18274
1.09793
1.43366
1.08853
1.42278
1.91119
1.92816
1.41015
1.53857
1.12779
1.13686
1.45339
2.01922
1.44135
2.03435
1.18518
1.48781
1.12611
1.46107
2.10724
1.98729
1.54064
1.59218
1.22128
1.16447
1.49154
2.19832
2.08881
1.57088
1.93853
2.84796
2.51701
2.55513
2.52054
1.922
2.55676
1.99595
2.64071
2.66345
2.85424
2.55906
2.59045
2.11222
1.13183
2.13781
2.65587
3.24471
0.313149
1.24763
1.5871
1.22505
2.98185
1.35008
1.20176
2.50301
3.06377
3.20931
1.94953
1.41898
2.43399
0.327737
2.45269
1.42194
0.329165
1.1518
2.00278
3.1804
2.58524
3.19222
2.56193
1.67445
2.12935
1.46849
0.346041
1.18798
0.509956
1.45911
1.88505
2.88336
2.4339
1.72211
2.17943
2.71997
2.10685
3.33074
1.60173
1.16491
1.05266
1.94177
2.95531
2.00105
0.827025
1.65554
2.20631
2.07497
1.26992
2.06777
1.26936
2.1195
2.65089
2.14255
3.14478
2.96547
0.621803
1.59252
2.11806
3.03845
1.25757
2.1571
2.66921
2.74894
2.61073
1.36821
1.22861
0.442121
0.322909
0.437092
0.702234
0.563681
0.708937
0.556016
0.445575
0.323007
0.437621
0.702328
0.563357
0.711776
0.555179
2.81245
3.47079
1.99303
1.42687
3.41428
2.26565
3.60458
0.466945
0.378296
0.507423
0.588387
0.739189
0.792794
0.637885
0.450837
0.433806
0.592207
0.473576
0.635053
0.815613
0.64592
0.704292
1.13009
0.701063
0.990558
1.45822
0.994491
1.45603
1.97257
1.57082
2.65693
1.22558
1.26258
3.26106
2.49957
3.23172
1.22721
2.56595
2.99945
2.31144
3.3266
1.36605
0.715106
1.13601
0.703694
0.99333
1.47929
1.46235
1.00558
0.43105
0.663701
0.571654
0.877795
0.835478
0.996092
0.718335
1.64981
1.64574
1.99137
2.13926
2.13503
2.72357
2.73372
2.01584
1.65343
1.99512
2.16946
2.14455
2.72816
2.74914
0.743927
1.25193
0.796726
1.51749
1.03656
1.09436
1.5853
2.13004
2.12061
2.11355
2.91428
2.80463
2.92311
2.79886
2.13137
2.11684
2.11331
2.91095
2.78413
2.78983
2.91715
0.759347
1.31185
0.90505
1.37499
0.950985
1.11545
1.53299
1.3441
0.979937
0.875934
1.18186
1.81533
1.29767
1.68497
2.07213
1.80888
2.18772
2.22659
2.81172
2.3291
2.9323
2.19088
2.29047
2.31907
2.81131
2.96468
3.07526
2.88798
0.787193
0.774551
0.943963
0.990559
1.14687
1.32903
1.18131
2.50027
3.09735
1.68343
2.32761
3.16771
1.10417
1.88801
1.06683
1.54892
0.931656
1.40635
1.07506
1.53848
0.921225
1.06702
1.40587
1.55438
0.93208
1.53886
1.07877
0.920459
0.714608
1.20311
0.885187
1.10197
1.31891
1.44298
0.945914
0.601415
0.989152
0.770514
1.03231
1.14441
1.27753
0.872744
1.91058
1.77821
2.23148
1.89341
2.39835
2.11506
2.79922
1.59928
0.966807
1.11302
1.18021
1.55825
1.68669
1.03428
2.13111
2.11753
2.19456
2.65897
2.65621
2.65871
2.65653
2.11305
2.19367
2.18973
2.64368
2.65014
2.6554
2.64727
2.00702
2.50341
2.45618
2.69911
2.65864
3.23773
3.26538
2.4722
2.81935
2.53147
3.24272
3.12926
3.43174
3.00832
1.93784
2.63496
2.37483
2.67241
2.48003
3.10954
3.3159
1.10558
1.7437
1.2509
1.97827
1.44007
1.61058
2.18207
2.25027
2.23038
2.3206
2.663
2.7139
2.6573
2.68951
1.34426
0.970638
1.13088
1.54269
1.68115
1.80088
1.40878
1.34373
1.86596
1.82511
2.43059
1.34934
1.81658
1.86194
1.28507
1.69739
1.28513
2.00046
1.4276
1.82079
1.13947
1.62208
1.46967
1.18446
1.37026
2.19852
1.80697
1.6922
1.47097
1.25849
1.06887
1.30169
1.94247
1.51873
1.71463
1.8831
1.93551
1.39593
1.46444
2.59631
1.97587
2.02243
1.34616
2.43522
1.8349
1.88808
1.81822
1.86824
1.35989
2.06315
2.49804
2.65792
2.57271
2.69533
3.05407
2.95667
1.34318
1.6241
2.09946
1.51781
1.62183
1.72734
1.21473
2.4059
2.64246
2.46636
2.84955
2.7884
2.72476
2.71246
1.24081
1.45113
1.41963
1.52875
1.55829
1.91407
1.82094
2.40707
2.65685
2.39888
2.71
2.66741
2.69182
2.7021
1.56971
2.72897
2.32766
2.29865
1.71309
2.11614
2.15382
2.39762
2.65505
2.39522
2.7088
2.6631
2.69738
2.69112
1.61131
1.92075
1.4174
1.81973
2.71792
2.0888
2.43307
1.47375
2.22243
1.60821
1.83217
2.38508
2.4758
1.70655
3.15981
3.22715
3.48184
3.18895
3.57233
3.61445
3.10363
2.95039
2.54931
3.2736
2.88666
3.50613
3.08837
3.62953
3.37142
1.27487
1.22501
1.27484
3.61802
2.62985
3.69866
2.92268
1.22573
1.62729
1.22501
1.22508
1.28437
1.22969
2.73962
3.19051
2.73971
3.34722
3.52402
3.34069
3.54481
3.19321
2.76605
2.7479
3.34924
3.52154
3.54214
3.34953
2.43357
2.70959
2.51486
2.61593
2.69242
2.68531
2.53004
1.99605
3.08708
2.61888
2.73643
2.38342
3.23969
3.57029
2.81445
3.50054
3.24839
3.37524
2.90108
3.4365
3.47821
3.43528
3.10335
3.28904
2.63601
3.42621
3.3239
3.1146
3.42878
2.62658
3.26525
3.07812
3.31333
3.10459
3.41263
1.58696
2.55357
2.38639
2.37563
1.85907
2.04086
1.98043
2.28593
3.58109
3.04609
3.10027
2.5669
3.42529
3.69283
2.30541
2.90651
2.72526
2.91995
2.80204
2.93659
2.85419
1.48081
2.26451
2.21261
1.75613
1.78865
2.16644
2.74022
3.18356
3.05607
3.41561
3.44243
2.22375
3.04498
3.03713
3.29694
3.15538
3.0205
3.51532
3.31345
3.57999
3.43039
2.79895
2.12796
2.81567
2.63743
1.71741
1.76228
2.61008
2.12635
2.7862
2.81145
2.63609
1.71445
1.7622
2.60374
2.10424
2.31955
2.99119
2.68335
2.42009
2.75304
1.98861
2.53503
2.51567
1.89849
2.13123
3.15675
2.75829
2.76009
2.7496
2.72582
2.62678
2.64446
2.02468
2.50863
2.34969
3.79815
3.36609
3.456
3.78476
3.18274
3.57324
3.76542
3.14302
3.61527
3.04133
3.70609
3.63336
3.86836
3.60661
1.22851
1.225
1.225
1.22651
1.2268
3.15705
1.24943
2.7517
1.77127
2.69897
1.61856
2.54543
2.44286
1.48322
3.46836
1.92557
2.82447
2.39964
3.44239
2.79758
2.98985
3.00642
3.04931
2.93023
3.03034
3.224
2.99474
2.51354
3.07601
2.61924
2.95328
2.3794
3.14327
2.87623
1.85143
3.67134
2.81471
3.52813
3.36693
3.25737
3.67006
3.60197
2.58933
1.88625
1.97996
2.48202
3.00602
3.04948
2.38629
2.42545
1.80035
1.89331
2.4253
2.91882
2.97347
2.32744
2.40746
3.16603
3.11359
3.20815
2.71688
2.98243
2.98324
3.72419
3.33848
3.68357
3.49163
1.92667
3.05938
2.67566
1.55579
2.31759
2.58246
2.23816
1.27901
1.91209
1.35644
3.31753
3.22314
2.90674
3.64114
3.46866
3.68915
3.67214
3.27491
3.05667
3.59426
3.25697
3.35738
3.525
2.58405
3.51049
3.13453
3.08092
3.67219
3.68169
3.37276
3.60879
2.85591
2.82882
2.24554
2.7589
3.30595
3.19693
3.20307
2.38561
1.82973
1.40783
1.27618
1.43311
1.88157
2.33784
2.38498
1.27605
1.40604
1.82439
1.4329
2.33269
1.88036
2.70651
2.70874
2.14111
2.70642
3.3316
3.1677
3.16113
2.96952
2.9681
2.87832
2.63817
2.38379
2.29886
1.52394
1.35799
1.71505
2.22571
2.04714
1.24453
1.30534
1.56076
2.13838
2.66129
2.87685
2.54319
1.27707
1.92641
1.45793
2.94388
2.8836
2.94782
2.76991
1.43786
1.9552
2.26861
2.43702
1.90502
3.28431
2.88446
1.26777
1.49054
1.87483
3.84521
2.24665
2.50992
2.73438
3.65949
3.48782
3.4313
3.86794
3.05671
3.2059
3.79188
3.7565
3.14936
1.78272
3.33248
3.05001
3.383
3.303
1.47167
2.80162
1.95944
2.99366
3.31404
2.92667
3.30792
3.27542
3.27116
2.94263
1.79922
1.2343
1.29539
1.24145
1.5241
1.2656
1.39862
1.53522
1.79085
2.78319
2.22561
1.23613
1.42569
1.32661
2.6799
2.03459
2.17988
1.62337
1.54359
1.3203
1.25238
0.191262
1.27811
1.49901
0.227227
0.202878
1.40798
1.3191
3.05353
1.53653
2.61341
2.76429
0.85877
0.0544195
0.107115
0.239057
0.0410058
0.840426
0.189
1.50281
0.428656
0.546852
0.42002
1.48122
0.532071
1.50698
0.894309
0.0599656
0.119566
0.308887
1.16645
0.0743085
0.457379
1.53711
0.449798
0.554947
2.00983
1.66484
0.705759
0.781457
2.1686
2.17631
0.512027
0.859837
1.15344
0.817959
1.59413
2.21604
0.522242
0.881908
2.64876
2.01566
0.765752
1.14732
0.246112
0.236384
0.101307
0.178213
0.397098
0.386246
0.18585
0.104454
0.235083
0.10071
0.176952
0.385016
0.180175
0.383304
0.520683
0.420649
0.518131
0.772716
0.652725
0.644954
0.774821
0.418703
0.517938
0.517658
0.771279
0.640843
0.771368
0.641461
0.0421223
0.0405136
0.0517192
0.0882064
0.0672225
0.0921026
0.0645884
0.0531821
0.0401867
0.0514242
0.0876943
0.0655347
0.0898282
0.0641714
0.527339
0.525792
0.546899
0.806559
0.783753
0.784148
0.805524
0.548385
0.526813
0.547368
0.80619
0.788355
0.806193
0.784595
0.267937
0.307013
0.141039
0.42311
0.202259
0.231493
0.473363
0.0456006
0.0515652
0.0693705
0.072864
0.100312
0.114577
0.0822435
0.533696
0.499338
0.580755
0.678487
0.792524
0.849619
0.739827
1.02181
0.817758
1.74577
0.382323
1.29521
0.0944822
0.579941
2.52028
3.39652
1.63372
2.33599
1.84098
0.864499
0.943661
0.535675
0.574691
0.596575
0.794614
0.816805
0.866586
0.840791
0.0606762
0.105361
0.0838278
0.13669
0.117451
0.169644
0.0964012
0.367347
0.221539
0.173645
0.276908
0.663223
0.342331
0.553228
0.582476
0.799128
0.668577
0.954385
0.982613
0.842635
1.10276
0.509975
0.559642
0.559109
0.761955
0.76084
0.808697
0.811343
0.768953
0.566072
0.518414
0.511844
0.560356
0.762129
0.810188
0.152038
0.267549
0.112251
0.186527
0.260957
0.157357
0.108562
1.59302
2.25311
2.23197
2.78408
2.3126
0.921944
1.31285
0.264012
0.109987
0.154072
0.151341
0.185993
0.260302
0.108002
0.655427
0.808613
0.680348
0.965247
1.07454
1.10922
0.934647
0.561537
0.570665
0.611
0.776174
0.823025
0.828436
0.877214
0.29653
0.479574
0.603642
0.843911
0.468985
0.590508
0.305914
0.587964
0.469635
0.297583
0.294624
0.838773
0.466648
0.586457
1.08325
1.4891
0.937141
1.26162
1.47533
0.925865
1.09012
0.284095
0.120407
0.169299
0.190418
0.224038
0.31422
0.134424
1.08518
1.25911
0.922389
1.08136
1.25591
1.47297
0.921504
0.137416
0.123861
0.184681
0.148363
0.217425
0.284334
0.193243
0.505467
0.635779
0.327331
0.365682
0.958311
0.552266
0.695786
0.642549
0.813419
0.692397
1.05055
0.914639
0.968813
1.10332
1.52939
0.971035
1.11814
1.18792
1.39718
1.61553
1.04268
2.56183
2.58596
1.45145
2.58056
1.10007
2.55981
1.87087
1.11575
1.52179
1.09576
1.49357
1.51174
1.09279
1.11883
1.10012
1.52145
1.11918
1.11519
1.49541
1.51171
1.09368
0.290235
0.725111
0.38271
0.796527
0.430388
0.53982
0.94014
1.1285
2.59355
1.7446
2.00224
2.82906
1.43455
2.86585
0.223333
0.258015
0.429353
0.188982
0.361356
0.27175
0.156255
1.55796
1.11547
1.14015
1.20282
1.62152
1.64356
1.17355
0.679545
0.853625
0.67684
0.938935
1.15024
0.945016
1.14082
0.863768
0.950433
0.685617
0.854858
0.678249
0.940613
1.14215
0.967857
1.04299
1.16437
1.14996
1.28865
1.50886
1.33035
0.974412
1.13415
1.16807
1.25444
1.2924
1.51607
1.47876
1.07357
1.48854
1.06942
1.12235
1.58584
1.57437
1.12866
0.338856
0.166442
0.250935
0.374036
0.347957
0.489488
0.25758
0.424678
1.05147
0.718117
0.902237
0.62324
0.506284
0.78629
1.13442
1.50474
1.07971
1.49061
1.07097
1.12418
1.57745
0.695816
0.93243
0.74104
1.17971
0.967925
1.0218
1.24249
1.09492
1.62465
1.15285
1.62801
1.15396
1.21583
1.72361
1.31739
1.77441
2.02417
1.44572
1.79442
1.48332
1.2826
1.30797
1.5143
1.95741
1.30256
1.75708
1.15579
1.47542
0.522413
0.236664
0.339655
0.431253
0.485975
0.64447
0.304941
0.96576
1.10425
1.22525
1.14678
1.27993
1.44653
1.51316
1.02047
0.945997
0.824869
1.11671
1.51844
1.25674
1.35109
0.623575
0.875536
0.496055
0.665383
1.22791
0.802393
1.08442
1.63275
1.22717
1.3861
1.76373
1.69698
2.05735
1.51257
1.78146
1.42506
1.26023
1.3291
2.11438
1.88734
1.50729
0.834072
1.03435
0.60984
0.732008
1.43264
0.967254
1.17307
1.27549
1.81282
2.15913
1.56128
1.80024
1.28538
1.54723
1.56571
1.82136
1.29033
1.27746
2.16246
1.80371
1.54928
0.550531
0.534289
0.987063
0.628388
0.700556
0.798907
0.401101
1.66315
1.35835
1.39182
1.79971
2.16403
2.17099
1.76762
2.22016
1.47134
1.68784
1.94752
2.03965
2.55338
1.65193
1.10163
1.42534
1.09116
1.43729
1.41296
1.91605
1.93377
1.09029
1.44968
1.4253
1.43604
1.41219
1.91446
1.93209
1.86071
1.60732
1.31887
1.39413
2.31929
1.96272
1.70537
2.35052
1.67169
1.707
2.00838
2.7276
2.77309
1.98968
1.18735
1.49105
1.4639
1.54343
1.57756
1.9917
2.11132
1.32037
1.65441
1.36654
2.16017
1.74573
1.83607
2.26485
1.09897
1.52818
1.28595
1.7586
1.44938
1.71757
2.08634
0.868917
1.46207
1.28147
1.58055
1.0191
1.11587
1.3148
1.66299
2.39255
1.76221
2.63971
1.99184
2.10336
2.67508
1.28681
1.89031
1.68043
1.95023
1.72516
2.29338
2.51466
1.52653
2.47387
2.34556
2.10736
2.12555
1.7308
1.87096
2.25934
2.05072
3.31819
2.26264
2.62995
2.94151
1.84257
2.41789
3.62305
2.92554
3.1245
2.93509
3.24162
2.41924
1.85591
1.82611
1.52439
2.08226
2.77015
2.49101
2.46475
2.85263
1.94141
2.55924
1.92578
2.52198
2.52725
2.86029
2.01322
2.58269
1.99447
2.53475
2.83528
2.54068
2.84468
2.58029
2.00869
1.99205
2.53216
2.83182
2.53564
2.84332
2.55736
1.94217
1.92484
2.51975
2.84954
2.52397
2.85842
2.80851
2.91275
2.40433
2.48227
2.88863
2.79978
2.85764
2.06672
2.68302
2.18224
2.83081
2.57335
2.6536
2.83426
2.5905
2.39175
2.01454
2.34554
2.83284
2.77294
2.66652
1.99997
2.66599
2.11607
2.85567
2.56252
2.64355
2.87338
2.76884
2.56616
2.35638
2.76111
2.70555
2.81157
2.86145
2.76436
2.50594
2.29301
2.75371
2.82341
2.86619
2.8785
1.05895
1.21987
1.36726
1.18049
1.52487
2.85385
2.49995
1.44143
1.91515
0.618222
0.353833
1.14725
0.996085
1.28618
0.556021
0.642513
1.25579
0.274301
0.312832
0.429815
0.397807
0.474375
0.534502
0.581304
0.470006
0.65794
0.516029
0.840589
0.675324
0.718936
0.87792
0.407336
0.65884
0.502325
0.763897
0.590179
0.700956
0.877141
0.91432
0.967809
0.691759
1.0507
0.76609
0.813302
1.10289
0.817589
1.02505
0.785114
0.969404
0.997848
1.23816
1.27317
1.18387
0.766635
0.929371
1.01706
0.785149
0.625317
0.838116
1.51365
1.4475
1.10503
1.27997
1.22578
0.922514
0.965979
1.51692
1.14654
1.34907
1.11514
1.01909
0.82372
0.945469
2.01758
1.93099
2.6278
2.87254
2.35089
1.29895
2.71766
1.38895
0.925046
1.09616
1.2972
1.10792
1.40651
1.65645
1.83709
1.74732
1.3214
2.16236
1.59437
1.65544
2.26625
1.18169
1.47609
1.2103
1.85308
1.50022
1.5433
1.92456
1.52818
2.08596
1.71761
1.44895
1.75766
1.31253
1.09888
1.52681
1.50799
1.47125
1.84526
1.86885
1.92745
2.41445
1.82635
2.46486
2.08273
1.8566
2.77029
2.23234
2.49154
1.5535
1.61987
1.3301
1.70747
2.53039
2.14685
2.03724
0.346031
0.558417
0.0472328
0.149678
0.832285
0.061516
0.0236821
0.399091
0.104015
0.521498
1.15174
1.27596
0.618561
0.180058
0.684327
0.190647
0.0429433
0.163786
0.0677875
0.174251
0.0738012
0.108781
0.248996
0.201065
0.266303
0.295785
0.283855
0.319868
0.442817
0.394288
0.0262924
0.028314
0.0347174
0.0303864
0.037735
0.0511818
0.0379487
0.198584
0.281181
0.293485
0.306482
0.319518
0.443638
0.428266
0.0697972
0.0357412
0.0483259
0.0723624
0.0677016
0.10431
0.0495574
0.575397
0.378353
0.420429
0.599999
0.706195
0.779479
0.538604
0.155397
0.241373
0.103496
0.159631
0.485256
0.232577
0.352342
0.041849
0.0872761
0.0565853
0.0775845
0.0806125
0.119341
0.0539244
0.266709
0.188175
0.119503
0.169265
0.528517
0.258565
0.367453
0.424445
0.699727
0.482078
0.637768
0.787062
0.567093
0.87868
0.575061
0.404783
0.419209
0.601824
0.760295
0.781104
0.583818
0.707529
0.469243
0.486383
0.64276
0.858191
0.884639
0.623134
0.109681
0.10001
0.230998
0.108876
0.155784
0.166462
0.0723784
0.240935
0.651699
0.469778
0.679506
0.337508
0.353461
0.50003
0.819822
0.917891
1.29762
0.969157
1.01843
0.737953
1.07901
0.823925
0.99578
1.30398
1.05324
1.02086
1.08252
0.800564
0.0465089
0.0956849
0.022688
0.0164238
0.00915912
0.0226982
0.0494693
0.109244
0.0514068
0.0854334
0.00158431
0.00188222
0.202712
0.229497
0.281615
0.296168
0.00128666
0.00837187
0.00859186
0.0131593
0.0146832
0.046354
0.0400674
0.00408629
0.00749544
0.0105953
0.00997529
0.0117221
0.0155594
0.0218554
0.0135197
0.0172041
0.0143286
0.0177616
0.0149349
0.0164588
0.018602
0.00114366
0.00995328
0.00799485
0.0160323
0.0140448
0.0444351
0.0467238
0.0222673
0.018086
0.014043
0.0239002
0.0974053
0.0506094
0.0398474
0.0962086
0.0317423
0.0354442
0.105918
0.168982
0.0939078
0.186536
0.0332706
0.117701
0.0745191
0.0297868
0.0184055
0.0271333
0.0586563
0.230304
0.137683
0.160415
0.0549563
0.0635741
0.125799
0.108802
0.175797
0.183229
0.0932591
0.037717
0.104183
0.0336997
0.103174
0.0248348
0.0195598
0.0187537
0.0181148
0.0157757
0.0195312
0.0200826
0.220854
0.122073
0.159343
0.15568
0.0649507
0.0618094
0.123615
0.0256531
0.0292409
0.0234629
0.0194419
0.0177006
0.0209508
0.0210517
0.0680205
0.249763
0.164153
0.0741183
0.17477
0.0431169
0.1043
0.443479
0.395088
0.26671
0.284455
0.320416
0.201452
0.180401
0.0381188
0.028418
0.0348513
0.0305257
0.0379147
0.0264035
0.0237735
0.293905
0.428917
0.444292
0.320086
0.307028
0.191009
0.198973
0.0651522
0.168913
0.386559
0.34375
0.0272441
0.0462454
0.16029
0.0726469
0.135005
0.787794
0.54524
0.28308
0.512844
0.405241
0.42085
1.06234
1.17833
0.285344
0.14162
0.0570543
0.0193509
0.390917
0.225193
0.57508
0.286589
0.0465678
0.0188748
0.00483385
0.0636041
0.0290126
0.0607004
0.101036
0.0384231
0.159654
0.0944852
0.15751
0.063944
0.101365
0.238668
0.2094
0.407573
0.717106
0.811156
0.388413
1.14683
1.49679
0.180365
0.257148
0.163983
0.252571
0.27702
0.407411
0.37004
0.109928
0.183584
0.0904923
0.054126
0.117168
0.217792
0.151132
0.095273
0.157509
0.118958
0.181775
0.113875
0.154418
0.231214
0.268021
0.279841
0.176786
0.261393
0.273488
0.40501
0.390806
0.0332917
0.0221341
0.0240484
0.0267361
0.0326738
0.0471322
0.034672
0.133339
0.164918
0.0832768
0.201533
0.12322
0.168797
0.262372
0.197242
0.13975
0.210043
0.289493
0.401989
0.210259
0.303762
0.431098
0.31062
0.197683
0.474168
0.326736
0.233922
0.353656
0.17661
0.273487
0.310943
0.266762
0.303061
0.393268
0.430648
0.237568
0.154043
0.100592
0.154187
0.476186
0.228764
0.343965
0.0688631
0.0343033
0.0467848
0.0689172
0.0647009
0.101098
0.0462883
0.103823
0.353382
0.241903
0.155817
0.486357
0.233362
0.346671
0.0497711
0.0358576
0.048475
0.0699629
0.0679649
0.104677
0.0473623
0.562759
0.36723
0.403038
0.562887
0.680005
0.513
0.745059
0.600673
0.539498
0.378863
0.575788
0.706986
0.522004
0.780129
0.268218
0.273778
0.181018
0.233391
0.478569
0.346652
0.335996
0.386113
0.561297
0.40034
0.561422
0.725433
0.743967
0.545376
0.419644
0.584467
0.602446
0.575436
0.76089
0.781673
0.558822
0.278086
0.39459
0.521773
0.509756
0.384853
0.522097
0.657929
0.541888
0.573924
0.425084
0.713691
0.542008
0.574038
0.740657
0.722662
0.415364
0.54825
0.311035
0.592028
0.449431
0.431092
0.580049
0.616017
0.446901
0.746785
0.555147
0.588323
0.775707
0.101937
0.0929868
0.0953604
0.213803
0.150424
0.147695
0.0654942
0.229812
0.628434
0.636537
0.448585
0.330616
0.327211
0.478807
0.75423
0.864468
0.883452
1.1904
0.687167
0.976303
0.952771
0.753813
0.93299
0.95564
1.19885
0.97729
0.952957
0.734727
0.868701
0.541577
0.681173
0.684673
1.03685
0.876172
0.829823
0.650747
0.668494
0.515764
0.668583
0.990902
0.836677
0.811206
0.911317
0.931718
0.722378
0.749719
1.17247
0.957323
0.936173
0.846533
1.23896
1.21101
1.2851
1.06043
1.03669
1.00203
0.110199
0.478258
0.801378
0.734417
1.00195
0.533332
0.414666
0.247015
0.910848
0.813531
2.06344
0.759632
1.41486
0.556871
0.242075
0.25232
0.877558
0.647801
1.53378
0.197789
0.95024
0.0653614
0.208012
0.97806
0.576349
0.192665
1.43375
0.935565
0.820811
1.38785
1.76981
3.268
2.11597
1.27427
1.48166
0.686794
1.32911
1.54261
1.92534
1.24474
3.04678
1.44854
0.199532
0.320486
0.28301
0.347953
0.383998
0.435674
0.515865
0.722096
1.49919
1.55329
2.95796
1.41101
2.43848
1.47909
1.07092
0.957494
2.41559
0.999658
1.80304
1.2199
2.5017
0.317932
0.553326
0.589252
0.439586
0.475265
0.621436
0.745713
0.101755
0.0950693
0.0928898
0.147559
0.150014
0.213422
0.134735
0.0727678
0.100488
0.156452
0.109531
0.167348
0.232086
0.150467
0.930323
0.504012
0.848957
0.582929
0.649509
0.739655
1.02984
0.400477
0.653532
0.483555
0.771034
0.585842
0.678225
0.873344
0.229409
0.63565
0.628147
0.326951
0.329837
0.447986
0.78727
0.753908
0.882884
0.864289
0.952583
0.975742
1.18999
1.062
0.753523
0.955113
0.932804
0.952783
0.976788
1.19839
1.17789
0.501656
0.65319
0.338777
0.681508
0.355142
0.471499
0.833907
0.739203
0.9189
1.01938
0.970615
1.08034
1.29892
1.1529
0.824753
0.996605
1.02168
1.05425
1.08361
1.30519
1.27711
0.683506
0.720059
0.668473
0.829806
0.867699
0.887118
1.05169
0.14039
0.305731
0.220124
0.318414
0.29219
0.42865
0.208902
0.139856
0.317224
0.219371
0.305001
0.291259
0.427514
0.197247
0.133237
0.299873
0.21174
0.299628
0.276577
0.411887
0.192484
0.749488
0.931253
0.911153
0.936045
0.956963
1.14645
1.17219
0.0779778
0.6436
0.170123
0.0288671
0.0855708
0.19446
0.942381
0.0969361
0.278169
0.638724
0.32067
0.368583
1.33231
1.4803
0.844623
0.966363
0.365902
0.248696
0.286118
0.388069
0.447924
0.553238
0.483865
0.0613367
0.196688
0.144729
0.237689
0.106073
0.139822
0.303958
0.0340817
0.043343
0.0342685
0.0403013
0.0528349
0.0667831
0.0489446
0.35383
0.288396
0.275735
0.437432
0.456474
0.561519
0.540868
0.0542217
0.0420711
0.0568783
0.0877718
0.0811199
0.120015
0.0618871
0.368829
0.120084
0.26768
0.189182
0.530507
0.259958
0.400703
0.568368
0.425467
0.48293
0.700912
0.788692
0.879962
0.620091
0.623948
0.470002
0.487198
0.708535
0.859122
0.885671
0.685224
0.0610049
0.137407
0.084261
0.105965
0.118165
0.170608
0.0747579
0.174433
0.555205
0.368686
0.222645
0.665493
0.343948
0.459163
0.583954
0.956019
0.669862
0.800575
0.984742
1.10459
0.707512
0.681351
0.656081
0.935188
0.809745
1.07539
1.11055
0.782297
0.138254
0.124675
0.285961
0.149313
0.185798
0.218706
0.095097
0.291755
0.727394
0.542082
0.79891
0.384614
0.432382
0.582115
0.969412
1.04482
1.51107
1.15209
1.16604
1.29066
0.866384
0.975611
1.13525
1.51793
1.25556
1.16939
1.29392
0.944605
0.773015
0.716961
0.591334
0.794118
1.15546
0.929709
1.00127
1.10465
0.964691
0.688299
0.854621
1.32326
0.990973
1.1594
0.375955
0.167465
0.25908
0.340452
0.349708
0.491563
0.228446
1.13959
1.04242
0.826743
0.92634
1.56598
1.1556
1.25524
1.08633
0.49815
0.667682
0.62558
1.22944
1.0234
0.804495
0.804912
0.585084
0.456282
0.599708
1.12199
0.734211
0.979212
0.803829
0.598193
0.455093
0.584158
1.12124
0.733054
0.94958
0.781856