/*--------------------------------*- C++ -*----------------------------------*\
  =========                 |
  \\      /  F ield         | OpenFOAM: The Open Source CFD Toolbox
   \\    /   O peration     | Website:  https://openfoam.org
    \\  /    A nd           | Version:  9
     \\/     M anipulation  |
\*---------------------------------------------------------------------------*/
FoamFile
{
    format      ascii;
    class       volScalarField;
    location    "0.0003";
    object      alpha.c4;
}
// * * * * * * * * * * * * * * * * * * * * * * * * * * * * * * * * * * * * * //

dimensions      [0 0 0 0 0 0 0];

internalField   nonuniform List<scalar> 
2391
(
9.95861e-110
1.17725e-109
3.16292e-107
7.21843e-105
1.44456e-102
1.13865e-112
2.02637e-112
5.92592e-110
1.69341e-107
6.38793e-105
3.35534e-107
4.75157e-107
1.4176e-104
3.58159e-102
6.05357e-100
3.70758e-110
7.09019e-110
2.10801e-107
5.27593e-105
9.86335e-103
4.22409e-102
6.06108e-102
1.93527e-99
5.62784e-97
1.33642e-94
4.00155e-105
9.65601e-105
3.07388e-102
8.82879e-100
1.93311e-97
3.71805e-108
1.4354e-107
4.52508e-105
1.26212e-102
2.61033e-100
2.69751e-100
1.10625e-97
5.23335e-95
2.40011e-92
9.80442e-90
5.67277e-103
2.23106e-100
9.62223e-98
4.03352e-95
1.46325e-92
1.01553e-105
3.88538e-103
1.55488e-100
5.95897e-98
1.91329e-95
1.59795e-108
6.02452e-106
2.26859e-103
7.96099e-101
2.27663e-98
5.44525e-100
4.15132e-102
4.65009e-98
2.06354e-100
1.15483e-92
1.51673e-95
2.17982e-98
1.02978e-87
1.30823e-86
2.20399e-92
1.07477e-89
5.66572e-87
4.77377e-85
5.19571e-85
2.17169e-90
3.44205e-87
3.1e-87
1.20014e-86
1.49915e-89
5.90202e-88
1.68649e-89
2.93122e-88
6.63926e-92
2.21172e-92
6.6522e-92
9.44478e-95
4.4787e-94
8.88011e-95
4.77023e-94
1.02293e-91
2.41828e-89
1.72592e-91
8.36939e-90
2.5017e-89
1.07527e-89
2.4065e-89
1.69331e-91
4.46681e-92
1.71692e-91
4.6583e-92
1.2013e-93
1.86715e-94
1.40045e-93
2.18025e-94
1.31311e-85
1.02794e-86
1.79674e-88
8.64463e-86
5.21936e-88
1.99636e-90
1.00781e-87
1.01308e-89
4.25415e-97
2.52296e-96
3.42243e-97
3.08209e-96
1.24105e-78
1.15309e-94
5.67013e-92
2.71081e-89
1.25801e-86
5.80852e-84
2.52119e-81
3.39464e-97
1.95515e-94
1.00089e-91
4.88974e-89
2.17807e-86
8.38964e-84
9.79286e-100
5.63969e-97
2.79097e-94
1.31492e-91
5.62015e-89
2.15047e-86
2.57582e-102
1.40975e-99
6.54228e-97
3.02817e-94
1.43082e-91
7.86835e-89
5.86348e-105
3.03495e-102
1.30097e-99
5.54742e-97
2.39026e-94
1.11743e-91
1.16621e-107
5.75177e-105
2.29073e-102
8.74105e-100
3.16295e-97
1.15068e-94
2.11422e-110
9.93064e-108
3.7178e-105
1.27528e-102
3.82809e-100
1.01774e-97
6.50431e-97
3.07902e-94
1.39516e-91
6.04042e-89
2.50798e-86
9.92341e-84
1.66853e-99
8.33356e-97
3.96061e-94
1.80647e-91
7.85896e-89
3.26181e-86
1.32396e-83
4.37196e-102
2.22057e-99
1.06444e-96
4.92536e-94
2.16384e-91
8.97529e-89
3.50316e-86
1.09968e-104
5.48071e-102
2.56483e-99
1.18191e-96
5.35319e-94
2.41368e-91
1.0148e-88
2.53939e-107
1.22281e-104
5.46608e-102
2.40273e-99
1.0412e-96
4.54038e-94
1.89816e-91
5.34329e-110
2.47867e-107
1.05023e-104
4.29818e-102
1.69927e-99
6.67949e-97
2.566e-94
1.03293e-112
4.62446e-110
1.85808e-107
7.04599e-105
2.51869e-102
8.73163e-100
3.02358e-97
3.34439e-99
1.55867e-96
6.90252e-94
2.89045e-91
1.14175e-88
4.23508e-86
7.84859e-102
3.73129e-99
1.69334e-96
7.33474e-94
3.03331e-91
1.19787e-88
4.48204e-86
1.85188e-104
8.96302e-102
4.16124e-99
1.86274e-96
7.99712e-94
3.26539e-91
1.24765e-88
4.3219e-107
2.09918e-104
9.80393e-102
4.4523e-99
1.94958e-96
8.10494e-94
3.07509e-91
9.71493e-110
4.6648e-107
2.14725e-104
9.6316e-102
4.189e-99
1.76197e-96
7.17132e-94
2.05946e-112
9.68934e-110
4.33294e-107
1.88095e-104
7.93192e-102
3.26815e-99
1.33272e-96
4.06751e-115
1.8713e-112
8.08217e-110
3.36474e-107
1.36209e-104
5.41543e-102
2.14212e-99
1.51673e-101
7.02374e-99
3.08238e-96
1.27485e-93
4.949e-91
1.79397e-88
3.41669e-104
1.59462e-101
7.07353e-99
2.97253e-96
1.1812e-93
4.42332e-91
1.54485e-88
7.56441e-107
3.57424e-104
1.61323e-101
6.95036e-99
2.84877e-96
1.101e-93
3.9436e-91
1.65437e-109
7.89632e-107
3.61433e-104
1.5884e-101
6.65652e-99
2.61547e-96
9.3739e-94
3.54392e-112
1.69537e-109
7.77806e-107
3.4349e-104
1.45129e-101
5.7805e-99
2.12726e-96
7.30874e-115
3.47708e-112
1.57967e-109
6.905e-107
2.89611e-104
1.15218e-101
4.26741e-99
1.42821e-117
6.73e-115
3.0065e-112
1.28907e-109
5.31828e-107
2.0918e-104
7.67429e-102
6.0581e-104
2.79795e-101
1.2232e-98
5.03423e-96
1.9423e-93
6.98892e-91
1.3401e-106
6.21006e-104
2.72696e-101
1.12955e-98
4.39852e-96
1.60247e-93
5.41738e-91
2.86642e-109
1.33801e-106
5.93295e-104
2.49063e-101
9.86243e-99
3.6562e-96
1.25289e-93
5.98673e-112
2.81971e-109
1.26459e-106
5.38781e-104
2.16974e-101
8.15882e-99
2.80973e-96
1.22271e-114
5.79879e-112
2.61983e-109
1.12646e-106
4.58618e-104
1.74438e-101
6.06605e-99
2.42297e-117
1.15243e-114
5.21012e-112
2.24176e-109
9.14637e-107
3.49294e-104
1.22019e-101
4.60881e-120
2.19153e-117
9.86271e-115
4.218e-112
1.71273e-109
6.52525e-107
2.2754e-104
2.15625e-106
9.94913e-104
4.34221e-101
1.78307e-98
6.86118e-96
2.46187e-93
4.72853e-109
2.18578e-106
9.55852e-104
3.93482e-101
1.51908e-98
5.47304e-96
1.82801e-93
9.92485e-112
4.6081e-109
2.02552e-106
8.3913e-104
3.26398e-101
1.18484e-98
3.97847e-96
2.0115e-114
9.40087e-112
4.16275e-109
1.73957e-106
6.8314e-104
2.50066e-101
8.42701e-99
3.95649e-117
1.86214e-114
8.30337e-112
3.49656e-109
1.38447e-106
5.10601e-104
1.7277e-101
7.54586e-120
3.57287e-117
1.60035e-114
6.76722e-112
2.69144e-109
9.96949e-107
3.38164e-104
1.38974e-122
6.61147e-120
2.96707e-117
1.25525e-114
4.99431e-112
1.85136e-109
6.2796e-107
3.71626e-81
1.45793e-83
6.02529e-86
2.33032e-88
8.18818e-91
4.29106e-92
1.99432e-89
8.88834e-87
3.79138e-84
1.49216e-81
5.59899e-79
2.64654e-94
1.22981e-91
5.42742e-89
2.2609e-86
8.82046e-84
3.21016e-81
1.4148e-96
6.55552e-94
2.87779e-91
1.18964e-88
4.60696e-86
1.66139e-83
6.50969e-99
3.01e-96
1.31766e-93
5.42911e-91
2.09555e-88
7.5351e-86
2.61413e-101
1.20706e-98
5.2747e-96
2.16908e-93
8.35689e-91
3.00063e-88
9.32568e-104
4.30248e-101
1.87785e-98
7.71137e-96
2.9669e-93
1.06411e-90
1.07246e-78
5.53232e-81
2.50726e-83
9.97894e-86
3.5366e-88
1.92554e-76
1.53276e-90
1.60256e-93
1.59091e-96
1.38033e-87
3.32039e-81
1.97189e-87
9.23518e-85
4.06908e-82
1.68727e-79
4.39958e-85
3.70315e-82
2.17354e-79
1.39477e-76
2.33774e-87
1.68988e-87
9.41519e-85
6.05951e-82
1.0421e-92
4.88109e-94
4.28921e-98
3.75128e-103
1.61975e-103
1.40026e-107
1.54099e-107
4.85255e-105
6.71219e-107
5.16018e-107
1.30519e-104
2.69399e-102
2.92192e-86
6.55087e-86
3.37484e-83
8.14856e-78
1.67873e-88
7.93525e-89
4.30392e-86
4.36075e-83
8.91839e-94
5.173e-95
1.28195e-92
7.9954e-90
4.11377e-99
1.02989e-100
1.44396e-100
4.60103e-98
1.75178e-101
1.02392e-103
6.40473e-102
1.90727e-99
2.83634e-104
3.0331e-104
9.13114e-102
2.37501e-99
3.63165e-90
6.84413e-88
2.58396e-85
6.86756e-82
4.43956e-93
1.40861e-92
4.21767e-90
6.38367e-88
4.4437e-96
1.20915e-97
1.73612e-95
3.00451e-93
4.37294e-99
3.00576e-99
9.34253e-97
2.61181e-94
1.96957e-92
8.6844e-90
4.56704e-87
2.6803e-84
4.89953e-95
2.04418e-92
1.13189e-89
6.15941e-87
1.1439e-97
4.84903e-95
2.5273e-92
1.2541e-89
7.81391e-87
6.85698e-92
1.56709e-91
1.67904e-87
7.76474e-87
7.26433e-92
1.98934e-91
4.65834e-84
9.82585e-90
8.77114e-89
9.35729e-85
4.63019e-84
1.21935e-89
1.1208e-88
2.60214e-81
5.74568e-87
1.71996e-85
6.02408e-82
2.58115e-81
7.09342e-87
6.38468e-86
5.08514e-92
2.13593e-95
3.66213e-99
1.03282e-92
5.04455e-92
2.10958e-95
1.79695e-98
8.27626e-101
5.00879e-94
1.97578e-100
6.51257e-105
2.77563e-111
1.39838e-102
8.26117e-105
5.41877e-105
1.46428e-109
6.95368e-109
2.46974e-103
1.83028e-102
4.70852e-107
2.98572e-106
7.55701e-101
1.48743e-99
4.26483e-94
1.79757e-98
5.48227e-100
1.75562e-93
7.00373e-93
3.83768e-96
1.83502e-95
2.60613e-91
9.87168e-99
2.11312e-97
6.79607e-91
2.83113e-90
1.38362e-93
6.55408e-93
1.73437e-88
3.58186e-96
1.53383e-94
1.94543e-88
1.78146e-87
4.1031e-91
4.46065e-90
2.33615e-87
4.95643e-90
4.92435e-90
2.33407e-87
2.33247e-87
4.93004e-90
4.90868e-90
3.38728e-96
4.8378e-94
3.37692e-96
1.72112e-101
8.42286e-101
7.00284e-103
4.22229e-98
9.8547e-101
8.27455e-101
7.41663e-103
1.65723e-107
4.52998e-105
3.75248e-103
4.52211e-105
1.65746e-107
1.99132e-108
1.81491e-111
6.19859e-109
5.74076e-111
5.86499e-106
4.96868e-109
1.72254e-106
1.69044e-108
2.03925e-109
1.00123e-108
5.08052e-109
2.86577e-106
1.00439e-106
2.11968e-106
1.08361e-106
5.31777e-107
7.35396e-107
1.38704e-106
1.02413e-104
2.98622e-104
9.82199e-105
3.39503e-104
2.10752e-104
1.71581e-104
3.17495e-104
3.15321e-102
1.18227e-101
3.00985e-102
9.13751e-102
6.03165e-88
9.42885e-93
7.57566e-92
1.47305e-88
8.4275e-88
3.39393e-91
2.46971e-90
4.63029e-85
2.87371e-90
4.69678e-89
7.57453e-86
4.62677e-85
1.70532e-88
1.17447e-87
2.22892e-82
1.94924e-87
2.92954e-86
4.12283e-83
2.63015e-82
9.07935e-86
7.00637e-85
8.8585e-94
1.95419e-96
1.84031e-96
8.37287e-94
8.37667e-94
1.94669e-95
1.9436e-95
1.38403e-95
2.74451e-95
9.1935e-96
4.83255e-95
1.9008e-97
2.44658e-95
6.61279e-96
5.30502e-93
1.54918e-92
5.72022e-95
1.06073e-92
8.11619e-95
1.2035e-92
1.52322e-93
1.62582e-90
9.66614e-90
3.37528e-92
5.05217e-90
4.53871e-92
7.61824e-90
4.68869e-91
5.83198e-102
1.99218e-103
6.05999e-103
7.81703e-99
4.19033e-98
4.87989e-101
9.52851e-101
2.10271e-99
3.24433e-101
2.10583e-100
2.9593e-96
1.46805e-95
6.09046e-99
3.2829e-98
1.60834e-96
1.00256e-98
1.66664e-97
8.52429e-94
1.0731e-92
1.81829e-96
2.50453e-95
1.78128e-89
4.27327e-90
7.71902e-92
6.70583e-92
3.79374e-90
7.67564e-92
1.783e-89
8.06315e-89
2.73803e-89
3.29778e-91
4.06605e-91
8.89465e-89
3.3395e-91
8.00982e-89
1.78345e-89
1.22041e-91
5.32252e-90
7.42725e-92
1.74813e-89
7.58906e-92
1.75891e-89
7.99945e-89
8.66069e-91
3.45694e-89
2.1163e-91
1.18482e-88
3.32815e-91
5.1752e-89
9.68615e-87
2.35484e-87
4.18217e-89
9.07296e-90
2.10698e-87
4.15352e-89
9.69524e-87
4.58062e-86
1.53858e-86
1.84017e-88
2.25573e-88
4.76687e-86
1.86367e-88
4.5508e-86
9.69722e-87
3.86502e-89
2.89255e-87
4.01582e-89
9.45622e-87
4.1053e-89
9.55799e-87
4.54434e-86
4.84638e-88
1.98656e-86
1.12741e-88
6.75578e-86
1.85733e-88
2.52593e-86
5.87988e-84
1.45775e-84
2.37609e-86
5.35223e-87
1.31901e-84
2.37263e-86
5.88542e-84
2.78623e-83
3.15169e-83
1.17906e-85
1.70571e-85
3.12866e-83
1.17887e-85
2.78636e-83
5.88363e-84
2.22009e-86
1.76502e-84
2.25e-86
5.73596e-84
2.36573e-86
5.75632e-84
2.7488e-83
2.8702e-85
1.05701e-83
2.8153e-86
3.9093e-83
1.16068e-85
6.36868e-84
3.11464e-94
5.08008e-92
2.07464e-94
5.08508e-92
5.08002e-92
2.07457e-94
3.11472e-94
1.45243e-96
8.28225e-97
1.09655e-97
3.6611e-99
8.28181e-97
1.09284e-97
1.4525e-96
3.09947e-94
5.06927e-92
5.03955e-92
2.11364e-94
5.06412e-92
2.0687e-94
3.1307e-94
1.44411e-96
3.80695e-99
8.49728e-97
9.04506e-98
8.26003e-97
1.37755e-97
1.45625e-96
1.78977e-98
8.2746e-101
1.78826e-98
7.03179e-94
4.11356e-96
4.2335e-96
9.60493e-101
1.95694e-98
2.11612e-98
6.70915e-110
3.17596e-112
3.7855e-110
5.91955e-110
2.39864e-107
6.54024e-105
2.39164e-107
6.51386e-105
6.54152e-105
2.39502e-107
2.39646e-107
1.23836e-109
5.86681e-112
8.63607e-110
7.93947e-110
8.21519e-110
1.26998e-109
8.58179e-110
2.4812e-107
4.31693e-103
1.4562e-103
6.01714e-105
1.05772e-105
2.72232e-108
3.87718e-105
1.22259e-107
8.58481e-106
2.95293e-107
6.88826e-105
8.79546e-105
1.47847e-105
6.92246e-105
3.18192e-107
1.4843e-105
1.33837e-107
2.40882e-107
5.46241e-105
4.51781e-105
2.24328e-107
1.41296e-107
4.52841e-105
2.88282e-108
3.68001e-110
1.25592e-107
8.23909e-111
2.36157e-108
6.66321e-111
1.48648e-109
2.5528e-108
2.15594e-108
2.75891e-108
7.39932e-111
1.28238e-107
8.67988e-110
4.9369e-109
2.50721e-107
2.52552e-107
1.37735e-107
3.72991e-110
6.75015e-106
6.60018e-104
2.04931e-106
2.23863e-103
9.70826e-106
1.35211e-102
4.16708e-105
3.18025e-103
7.87132e-106
8.28297e-106
2.47606e-103
2.52644e-103
7.38919e-106
8.85215e-106
2.5389e-103
4.52489e-105
7.77112e-105
1.84498e-102
1.55825e-102
7.18757e-105
4.76316e-105
1.56197e-102
2.15965e-105
3.33701e-107
1.08719e-104
6.21488e-108
7.82193e-106
1.98298e-108
4.82995e-107
7.71874e-106
6.42655e-106
9.32465e-106
2.47827e-108
1.01935e-104
7.4013e-107
2.22674e-106
1.99106e-104
2.18486e-104
1.06046e-104
2.89815e-107
1.99761e-103
1.8941e-101
5.78909e-104
6.65188e-101
7.21342e-103
1.10505e-99
3.49341e-102
2.34357e-100
2.57104e-103
2.51546e-103
7.57546e-101
8.00962e-101
2.23193e-103
2.96278e-103
8.04702e-101
3.6099e-102
6.24438e-102
1.49969e-99
1.24276e-99
3.70548e-102
1.24572e-99
1.3886e-95
1.4619e-94
2.20227e-96
2.57334e-94
6.11681e-97
1.08109e-94
5.17439e-95
8.36085e-98
5.40564e-98
9.52048e-101
2.53833e-98
1.18112e-99
7.34003e-98
7.39546e-99
1.96252e-97
1.0927e-98
1.35342e-100
1.53381e-97
2.87747e-99
4.06788e-97
4.00723e-98
6.711e-93
8.9018e-92
1.37239e-93
1.32986e-91
3.7752e-94
6.05366e-92
2.51075e-92
3.19675e-95
2.69037e-97
3.2417e-98
2.79101e-96
4.19806e-97
1.5673e-95
9.73055e-96
7.7923e-95
6.88679e-96
5.33928e-98
5.53691e-95
1.71566e-96
1.71406e-94
1.48925e-95
4.14908e-90
6.11408e-89
9.47535e-91
8.58992e-89
2.6586e-91
4.06003e-89
1.6514e-89
1.0067e-92
1.49718e-94
1.14423e-95
9.4517e-94
2.16376e-94
5.15986e-93
3.32197e-93
5.30252e-92
4.87002e-93
3.76706e-95
3.91542e-92
1.23173e-93
1.18302e-91
1.02255e-92
3.7178e-99
3.15428e-101
2.17863e-101
5.57378e-98
5.55187e-98
1.53368e-98
9.44915e-99
9.98139e-103
3.49498e-101
1.89471e-100
1.84158e-103
8.88759e-101
1.70071e-101
6.34093e-101
3.23715e-100
2.10841e-101
3.41136e-98
7.28994e-101
6.21023e-98
2.30688e-98
6.54861e-99
1.09198e-97
6.13242e-99
1.03864e-95
2.16818e-98
2.0323e-95
6.75103e-96
1.90243e-96
1.9547e-102
1.20831e-102
1.04183e-99
2.77853e-103
4.73177e-100
8.6988e-101
3.26609e-100
7.25391e-100
4.30058e-100
3.67603e-97
1.03567e-100
1.70403e-97
3.23843e-98
1.20963e-97
5.32075e-97
3.43207e-97
2.7477e-94
7.57015e-98
1.25132e-94
2.33363e-95
9.22477e-95
8.26046e-82
7.90052e-85
2.64754e-84
3.69711e-82
8.24023e-82
7.85534e-85
2.62824e-84
5.17834e-79
4.56876e-82
1.65361e-81
2.17003e-79
5.16593e-79
4.54395e-82
1.64256e-81
2.35431e-76
3.01382e-79
8.91241e-79
1.39252e-76
2.34856e-76
2.99817e-79
8.80451e-79
2.3918e-105
4.01203e-106
1.01812e-106
2.24659e-103
6.75532e-104
6.56178e-104
6.5473e-104
1.67925e-88
3.94009e-91
3.81788e-91
1.64215e-88
1.64158e-88
3.80641e-91
3.80209e-91
4.77059e-104
6.60003e-104
6.16186e-104
1.26895e-101
2.05151e-101
1.25704e-101
2.02434e-101
1.42196e-101
6.3418e-102
1.89906e-101
3.93364e-99
6.29691e-99
3.91716e-99
6.2052e-99
4.70238e-99
1.88431e-99
4.86408e-99
1.1309e-96
1.69966e-96
1.12603e-96
1.63888e-96
4.7233e-92
5.03949e-95
1.13381e-94
3.14536e-93
1.40683e-92
5.44911e-95
1.44427e-94
8.10095e-90
8.56215e-93
1.92935e-92
1.22221e-90
4.04285e-90
1.77052e-92
7.41231e-92
6.85778e-87
1.37151e-90
2.01385e-89
4.9288e-88
4.16069e-87
9.67138e-90
4.5629e-89
2.58531e-97
9.78455e-99
1.49452e-99
3.48728e-97
8.09244e-97
8.8144e-98
3.16696e-97
4.5183e-95
1.16262e-97
4.62666e-97
1.43853e-94
4.06991e-94
3.70701e-95
1.49349e-94
5.35443e-92
4.19214e-95
3.16333e-94
7.32585e-92
2.21534e-91
1.80218e-92
7.44603e-92
8.4241e-100
8.41122e-103
1.72078e-101
8.41364e-100
8.37453e-103
2.01654e-100
2.02598e-100
1.83936e-101
7.74445e-100
1.03557e-101
9.44925e-100
1.07747e-102
2.55381e-100
1.63321e-100
1.06317e-90
6.18533e-93
6.2786e-93
1.13468e-90
2.34517e-93
3.37648e-91
3.29664e-91
1.04037e-89
3.52815e-92
3.91387e-92
7.61859e-90
1.54485e-92
2.22082e-90
3.05808e-90
5.78972e-88
3.4388e-90
1.20602e-90
6.23459e-88
1.46659e-90
1.85621e-88
1.79433e-88
6.9149e-87
2.1636e-89
2.18661e-89
5.00995e-87
9.19774e-90
1.4878e-87
2.07485e-87
4.65095e-85
2.28397e-87
8.37831e-88
4.91185e-85
1.42226e-87
1.52433e-85
1.46836e-85
3.90349e-84
1.40164e-86
1.3479e-86
2.94432e-84
5.97152e-87
8.80853e-85
1.15813e-84
6.83809e-80
3.92452e-77
2.36061e-74
1.95176e-87
6.39249e-85
1.83032e-82
8.279e-80
6.98007e-90
3.12802e-87
1.37321e-84
6.55228e-82
2.85334e-83
3.16506e-85
6.13555e-83
1.00588e-83
2.44007e-83
2.91082e-86
1.18927e-85
1.47586e-80
5.27067e-81
2.42795e-80
1.73089e-82
3.27916e-80
1.56763e-83
1.05709e-82
1.15523e-77
9.37309e-80
1.70081e-77
1.83492e-80
7.89565e-78
1.979e-80
4.75269e-80
3.35002e-87
1.30856e-87
5.41746e-87
6.91769e-90
1.79284e-89
1.4702e-90
5.65166e-90
9.83816e-85
4.94648e-85
1.27786e-84
2.05724e-87
3.30572e-87
5.67402e-88
1.49551e-87
5.9321e-82
1.07983e-82
1.35548e-82
2.97377e-85
2.18597e-84
2.3032e-85
1.60909e-84
1.25942e-82
1.03887e-83
5.12388e-81
2.57517e-78
1.32112e-75
1.86523e-85
9.37504e-83
4.15039e-80
1.67591e-77
6.58972e-77
2.36295e-74
2.59496e-69
7.98639e-72
1.1753e-84
2.05406e-81
2.04377e-81
2.05701e-81
6.28444e-82
1.18454e-104
3.87592e-102
2.46655e-104
7.09224e-102
1.235e-99
3.82716e-74
2.31431e-79
3.13311e-77
1.28816e-102
3.66254e-100
2.77607e-77
1.18558e-80
1.85401e-78
4.4907e-87
3.77717e-95
4.37518e-97
4.34452e-97
3.18281e-79
6.06493e-85
4.1186e-90
5.47463e-92
1.5058e-81
3.59176e-79
2.89485e-84
5.39073e-87
4.69065e-79
3.71036e-84
8.94667e-84
2.29877e-79
4.72062e-79
3.58893e-84
1.19562e-83
4.03792e-82
3.19364e-77
5.30351e-82
1.3815e-104
5.55002e-104
6.66771e-98
4.60629e-97
1.86028e-86
2.49341e-93
5.13509e-92
1.20353e-85
6.79101e-85
2.791e-88
1.67329e-87
5.28935e-103
5.34793e-106
1.77903e-103
1.4786e-105
3.55658e-102
2.75887e-102
3.26602e-102
8.18861e-100
2.29048e-99
6.87298e-100
9.81511e-100
4.28686e-80
9.54941e-85
3.48439e-84
2.21113e-80
8.58929e-80
5.18408e-83
2.71954e-82
9.95393e-83
5.43645e-78
1.31834e-80
1.07784e-87
4.8652e-87
2.04316e-89
3.00486e-87
2.44967e-89
4.39102e-87
3.11247e-88
5.58029e-94
8.57114e-96
5.08485e-95
6.79672e-91
3.87884e-90
1.53122e-93
8.84825e-93
2.65966e-81
6.48338e-82
1.20975e-83
3.512e-84
5.94799e-82
1.20902e-83
2.66183e-81
5.39473e-81
1.55496e-81
2.39474e-83
2.4307e-83
5.50276e-81
2.42148e-83
5.35699e-81
2.65884e-81
1.15774e-83
7.85364e-82
1.08593e-83
2.61847e-81
1.20206e-83
2.59003e-81
5.41818e-81
4.93589e-83
2.05614e-81
1.26566e-83
7.1222e-81
2.43525e-83
3.17325e-81
3.89325e-79
8.40378e-80
1.95318e-81
3.76832e-82
7.70951e-80
1.9519e-81
3.8956e-79
3.97208e-79
1.72586e-81
1.11371e-79
1.95479e-81
3.78113e-79
1.91986e-81
3.95634e-79
6.08971e-102
8.87267e-103
2.63851e-105
6.32816e-103
1.66444e-105
1.41214e-104
6.07593e-103
5.76564e-103
6.6394e-103
1.86905e-105
3.5022e-102
4.19244e-104
6.44522e-102
3.56563e-102
1.02909e-104
1.82678e-100
1.82229e-98
5.76834e-101
6.06834e-98
2.87346e-100
3.854e-97
9.05409e-98
2.12773e-100
2.06605e-100
6.68628e-98
6.81599e-98
1.99866e-100
2.21744e-100
6.85107e-98
1.18494e-99
1.93937e-99
4.64733e-97
3.91559e-97
1.1997e-99
3.92609e-97
1.52758e-87
9.25009e-87
1.10851e-88
2.52621e-86
4.34423e-89
1.12094e-86
6.05363e-87
7.22023e-90
9.48598e-92
7.45883e-93
6.23959e-91
1.25055e-91
3.46239e-90
2.12026e-90
1.99469e-89
6.46922e-91
1.35926e-92
1.44135e-89
2.40976e-91
4.19579e-89
3.85946e-90
7.95048e-95
5.65298e-96
8.46422e-93
1.9355e-95
1.46626e-92
5.82559e-93
1.66033e-93
2.02319e-94
1.18146e-94
9.83258e-92
2.83288e-95
4.65565e-92
8.50253e-93
3.23058e-92
5.01868e-74
9.59357e-77
1.57101e-76
3.81976e-74
5.04229e-74
9.53324e-77
1.57621e-76
7.14982e-97
4.13667e-97
6.22399e-97
2.43454e-94
3.09025e-94
2.39997e-94
2.87069e-94
3.47155e-84
1.63347e-87
9.0882e-87
3.38011e-85
3.35663e-84
5.10156e-87
3.06845e-86
2.22282e-89
2.62677e-92
1.17046e-91
3.47337e-89
1.17635e-88
8.13168e-90
3.04499e-89
1.7904e-82
1.05579e-84
4.20016e-85
1.87389e-82
7.5108e-85
5.58469e-83
5.50061e-83
5.82461e-82
2.1721e-84
3.79108e-84
4.88657e-82
1.3039e-84
1.51441e-82
1.80655e-82
2.17761e-80
1.25722e-82
1.48544e-82
2.34966e-80
1.5552e-82
7.38445e-81
6.87199e-81
5.84983e-72
3.55567e-77
2.36305e-79
9.39915e-77
5.91674e-75
1.02396e-75
4.53612e-75
9.29792e-78
3.74862e-75
3.69523e-78
1.37092e-77
3.13917e-79
9.6847e-80
5.86531e-80
2.28792e-82
1.18684e-81
1.43209e-82
1.31836e-81
4.65075e-77
4.64504e-77
1.09705e-79
1.11404e-79
5.93359e-73
7.12451e-75
9.1093e-74
3.03885e-75
2.50895e-71
2.502e-71
9.03229e-74
4.4968e-72
1.21449e-74
4.62241e-72
1.24123e-74
2.31222e-69
7.5619e-75
2.1892e-75
8.47252e-73
1.00011e-72
2.63555e-73
7.03172e-73
3.59206e-75
7.49455e-76
1.27671e-70
2.27508e-72
1.51109e-89
3.93207e-85
5.61038e-85
1.41076e-86
5.68891e-87
1.12294e-89
3.62308e-87
7.46971e-89
7.0551e-87
3.31385e-87
3.00428e-76
2.04942e-80
7.53754e-84
6.34924e-83
1.28363e-77
2.15468e-79
2.40426e-80
3.57449e-78
3.84531e-80
3.99681e-78
1.62544e-80
1.65152e-80
3.56308e-78
3.0752e-84
3.76067e-86
4.83238e-84
3.01703e-84
6.90237e-85
1.92026e-88
1.56854e-79
1.47945e-81
9.58299e-82
7.59769e-82
1.51369e-79
6.23023e-82
1.38211e-79
4.13558e-74
1.99773e-98
4.35111e-85
9.70295e-93
3.06887e-92
2.78858e-95
6.51935e-90
1.82351e-95
1.36436e-94
5.93767e-91
3.07582e-83
7.93888e-86
1.37563e-100
1.49841e-100
9.04905e-98
3.12399e-97
4.82109e-98
5.33374e-98
2.23336e-85
5.60651e-85
2.07056e-87
8.32683e-85
3.1747e-87
9.47609e-85
6.85721e-86
7.47033e-90
2.30382e-93
1.61515e-92
1.92291e-88
8.8587e-88
4.14611e-91
1.97469e-90
1.91324e-99
5.77369e-98
4.94447e-96
1.59498e-98
1.78911e-95
2.45525e-97
8.70042e-95
7.69972e-95
6.23675e-98
5.71099e-98
1.82861e-95
1.87399e-95
5.66701e-98
6.25174e-98
1.88484e-95
4.035e-97
4.94922e-97
1.3703e-94
1.2784e-94
4.03565e-97
1.28378e-94
1.64114e-87
1.11596e-89
1.87157e-90
1.65897e-88
1.88097e-89
8.0205e-88
5.2576e-88
2.05193e-92
1.52225e-93
2.26025e-90
5.43449e-93
3.82089e-90
1.60568e-90
4.51677e-91
2.63906e-92
1.61708e-91
2.41756e-89
1.1345e-91
2.39663e-92
2.09747e-89
7.269e-90
8.06663e-95
4.55362e-95
3.80994e-95
3.93436e-95
2.7295e-92
2.6225e-92
2.63899e-92
2.49864e-82
5.61331e-85
2.57343e-82
5.12869e-84
1.23295e-87
7.76328e-90
1.65369e-86
3.07858e-87
1.03264e-84
1.51368e-89
9.52225e-82
3.03504e-76
1.98813e-80
3.6108e-78
3.94922e-78
1.65956e-80
1.97932e-80
1.65942e-80
3.61095e-78
3.92384e-78
4.0599e-82
5.82128e-82
6.14758e-84
2.53237e-87
2.00261e-86
5.45246e-87
5.56057e-77
8.74192e-78
5.91544e-77
1.54418e-79
2.19768e-79
5.00415e-78
1.7301e-96
2.9414e-95
5.6118e-94
3.07742e-95
2.74124e-89
2.46425e-92
1.97501e-94
1.30318e-87
2.89506e-92
2.58599e-90
1.19011e-85
2.60252e-88
1.9925e-85
5.88751e-91
2.95301e-95
1.26715e-97
1.32367e-97
3.41037e-98
8.12049e-96
8.75928e-96
3.1639e-98
2.68162e-94
1.39086e-94
3.93194e-94
1.23624e-96
6.05236e-96
1.01361e-96
6.81872e-96
7.6955e-93
7.72329e-93
2.10231e-93
2.26261e-93
2.91313e-94
2.9809e-94
7.59507e-93
7.96692e-93
3.77624e-93
2.15408e-93
2.16322e-94
3.13275e-94
4.64106e-99
1.15672e-96
1.18529e-96
4.52357e-99
1.91611e-96
3.26354e-95
1.27943e-96
3.87903e-98
1.32294e-95
8.32687e-96
5.9346e-98
4.83788e-99
8.03404e-97
1.2393e-96
3.08145e-99
7.85777e-92
4.6784e-92
1.06023e-93
9.33765e-94
4.88002e-95
4.11498e-95
7.8328e-90
1.17374e-89
3.8639e-89
2.99829e-91
4.70983e-92
3.07394e-92
3.81151e-91
7.90763e-93
2.10064e-94
1.44095e-94
7.9149e-93
7.85867e-99
2.02806e-97
4.48618e-99
1.86039e-97
5.44154e-92
7.56984e-93
5.29202e-92
9.32779e-95
3.86529e-94
3.17378e-94
3.45338e-95
3.54164e-97
2.29201e-96
1.70157e-96
1.77078e-97
5.7543e-94
5.7735e-94
1.14581e-95
1.20302e-95
7.56193e-94
6.24763e-92
6.25548e-92
1.97974e-94
5.50317e-89
9.29632e-94
1.18192e-91
7.73549e-88
3.368e-80
6.27086e-87
1.32956e-91
6.1859e-87
1.31285e-91
3.00608e-82
3.18843e-69
1.62149e-78
1.28098e-85
2.60867e-70
2.4853e-75
1.59858e-79
1.46506e-86
5.98591e-72
1.58436e-74
5.36838e-77
7.20777e-79
5.57449e-74
4.31299e-79
1.66689e-77
7.2511e-81
1.59237e-78
1.25796e-77
7.13442e-81
2.00106e-90
1.26372e-85
1.97473e-90
1.13467e-78
7.56856e-82
1.20404e-79
8.65662e-79
5.36752e-82
3.2597e-91
2.86197e-86
3.02953e-80
1.90363e-83
1.32729e-79
1.18954e-79
7.69593e-84
8.26531e-90
6.38234e-85
2.22941e-80
9.458e-80
9.5852e-80
2.1581e-82
2.27483e-82
5.24181e-83
8.66584e-83
6.28025e-87
2.95329e-89
2.95903e-89
1.1435e-91
1.14133e-91
2.9128e-89
6.03117e-87
2.82845e-89
1.12589e-91
1.30865e-91
2.74794e-71
3.41073e-75
2.73071e-71
2.35567e-75
1.28269e-85
5.12265e-88
5.13571e-88
1.40396e-88
3.4031e-86
3.36641e-86
1.34796e-88
2.06157e-75
8.85455e-73
2.35682e-72
2.08519e-76
7.60299e-73
2.04486e-72
1.65985e-76
6.10109e-89
1.09241e-86
6.21383e-89
4.19632e-89
1.32606e-86
5.2334e-89
1.06354e-86
1.07598e-77
1.96636e-74
5.82273e-74
5.42882e-78
3.75626e-75
3.52729e-74
8.61866e-78
7.66453e-78
4.76847e-80
1.02233e-77
1.6818e-77
9.90028e-78
4.88345e-80
7.2313e-81
3.10515e-83
3.10378e-83
1.72477e-81
8.69928e-84
7.78515e-84
2.34231e-81
2.20641e-82
9.82252e-85
9.84457e-85
2.22709e-82
4.96582e-80
2.81933e-77
8.53891e-78
1.02063e-77
5.45487e-80
3.06017e-83
7.13459e-81
3.05245e-83
2.00893e-81
2.64823e-83
8.28939e-84
6.67294e-81
2.31589e-82
1.24782e-84
1.03912e-84
2.82969e-82
1.79091e-89
4.20847e-87
4.25563e-87
1.7605e-89
2.00762e-90
5.69281e-91
5.3353e-91
7.37343e-92
7.22157e-92
5.0557e-88
1.25548e-85
4.99562e-88
1.37398e-88
9.71554e-86
3.40463e-86
3.34647e-88
1.89477e-89
4.82639e-87
4.50262e-87
1.7198e-89
1.94021e-90
5.46512e-91
1.11948e-90
7.78188e-92
6.02219e-92
3.44239e-81
5.45165e-79
2.27797e-78
4.50703e-81
4.20113e-79
3.40304e-84
6.22468e-82
2.64992e-84
6.21843e-82
3.22033e-84
7.38754e-82
2.62035e-84
2.1254e-83
1.45141e-85
2.78005e-83
1.13484e-85
3.32508e-81
2.04893e-78
4.26283e-79
4.46717e-79
3.18852e-81
5.44394e-84
5.2885e-82
5.40982e-84
5.28782e-82
2.18826e-84
2.25198e-84
5.1752e-82
1.98083e-83
8.71695e-86
9.18406e-86
1.89378e-83
2.41779e-90
6.78595e-88
2.96153e-90
5.52156e-88
3.97772e-91
1.62678e-91
2.01746e-91
9.86829e-93
1.20964e-92
3.74835e-87
2.85333e-86
6.53041e-87
5.10612e-89
8.92212e-87
9.24307e-87
6.0719e-89
1.77514e-90
3.81244e-88
4.04556e-88
1.70831e-90
6.84788e-83
1.70627e-80
4.25462e-80
1.39265e-82
1.03482e-80
2.68524e-83
1.83942e-84
1.54187e-84
1.21193e-83
1.16898e-85
2.23628e-83
5.77249e-86
3.71405e-85
4.87393e-87
9.29868e-85
1.76869e-87
2.68997e-83
3.26127e-80
4.18397e-80
4.62852e-81
4.74395e-82
5.2337e-83
1.93533e-83
9.0727e-85
3.13046e-84
9.21036e-84
4.8152e-86
4.65513e-83
1.44367e-85
8.34689e-86
1.10082e-87
2.82183e-84
8.15969e-79
1.23811e-76
9.5676e-90
1.1047e-86
1.91667e-87
4.71698e-89
7.29142e-90
8.77945e-87
2.32166e-87
1.56152e-76
5.56732e-74
1.03516e-73
3.93086e-76
1.02886e-73
4.88654e-78
7.69964e-78
4.88569e-78
1.23951e-84
1.24044e-84
1.22241e-84
1.19778e-84
1.42592e-85
2.49042e-83
1.47706e-84
4.36384e-87
8.96011e-85
8.12744e-72
1.33236e-91
1.5982e-93
1.59453e-93
1.89823e-91
1.75571e-93
6.34671e-92
1.61321e-78
3.43731e-76
3.41896e-76
3.63588e-79
2.25517e-76
7.24491e-77
6.9744e-79
1.41496e-79
3.17621e-77
3.05706e-77
1.41391e-79
3.17372e-77
1.5871e-79
3.05711e-77
6.26663e-79
3.85445e-81
5.28785e-81
2.81094e-81
7.22217e-79
4.24387e-81
6.27578e-79
1.59426e-78
3.37326e-76
3.37872e-76
5.03141e-79
3.35686e-76
1.37377e-76
1.55361e-78
2.54511e-77
2.55638e-77
1.18871e-79
1.19513e-79
2.5515e-77
2.5628e-77
1.17911e-79
5.91936e-81
1.31082e-79
1.10085e-81
6.39584e-82
1.32229e-79
1.30782e-79
4.93001e-81
4.94236e-73
1.95876e-75
3.41809e-75
4.94101e-73
1.9607e-75
3.64415e-73
3.64403e-73
4.24134e-75
4.01565e-73
1.39391e-75
5.07273e-73
1.96085e-75
3.63541e-73
2.34333e-73
3.48968e-74
7.03463e-77
3.46832e-76
4.21796e-74
5.64108e-77
9.38161e-75
1.00566e-74
3.09202e-76
2.89632e-74
6.4762e-77
3.70656e-74
6.71479e-77
8.19616e-75
7.92036e-75
8.7833e-76
2.1994e-78
6.96211e-78
9.38588e-76
1.62972e-78
2.12819e-76
2.36222e-76
4.99011e-78
4.7696e-76
4.62031e-78
6.1302e-76
8.03661e-79
1.34756e-76
1.31314e-76
1.84042e-79
8.15359e-79
8.21086e-79
2.88758e-81
1.08299e-73
8.25531e-78
1.07025e-73
8.07903e-78
3.3214e-78
3.31612e-78
3.31912e-80
3.31415e-80
3.26639e-78
3.26715e-80
3.20869e-78
3.22114e-80
6.61561e-77
9.83851e-75
3.19887e-79
3.39404e-81
6.35224e-81
2.85762e-79
3.7973e-81
1.04657e-81
2.99541e-83
6.96142e-84
2.40026e-85
8.2537e-78
3.51234e-76
3.51207e-76
1.3735e-75
1.70747e-75
1.70735e-75
1.37365e-75
3.45223e-76
3.51763e-78
3.37184e-76
1.34968e-75
7.14031e-76
1.67989e-75
3.89028e-76
1.15546e-79
2.7212e-74
2.67019e-74
2.6649e-77
8.51305e-75
9.59741e-72
9.4839e-72
2.21116e-82
2.17903e-82
2.37036e-83
2.21046e-82
2.1436e-82
1.20401e-76
9.37073e-79
1.50186e-76
3.11239e-77
3.1681e-77
3.31891e-79
3.55842e-77
2.43969e-72
3.16432e-69
1.01137e-66
1.76532e-66
7.60466e-69
1.00904e-66
1.75993e-66
7.54613e-69
8.60357e-68
2.87231e-70
8.85651e-68
1.55024e-67
6.92813e-70
1.49155e-67
6.19701e-70
1.66402e-69
4.55739e-70
1.32371e-72
1.57652e-69
1.15742e-71
3.03126e-69
1.52593e-71
1.58021e-74
5.1276e-75
3.60524e-75
3.93657e-77
1.33745e-77
3.9671e-77
9.2027e-78
3.40589e-82
3.20985e-81
2.93845e-71
2.44744e-74
5.54536e-70
5.18684e-78
3.46246e-79
2.429e-74
1.52792e-78
2.51877e-82
1.18313e-82
1.85984e-82
3.35382e-83
1.05822e-84
1.57552e-84
2.86346e-83
1.25254e-78
1.22335e-75
4.72484e-76
1.52466e-78
1.52226e-78
3.27016e-79
3.09866e-76
6.96715e-77
3.10155e-76
6.58503e-77
1.42637e-78
1.45473e-78
4.42751e-79
3.10269e-76
8.98247e-77
3.03125e-76
3.01717e-76
2.90827e-71
9.15397e-72
3.21617e-69
3.20925e-69
9.08899e-72
6.39991e-69
6.37928e-69
3.16116e-80
1.47872e-77
4.37957e-78
6.39465e-80
2.20292e-80
8.10593e-80
1.57778e-77
4.38418e-67
1.70862e-73
5.5976e-71
1.18516e-70
2.63934e-72
2.35076e-72
4.45462e-73
5.29799e-70
1.28971e-64
1.14117e-65
2.10084e-67
3.83519e-68
6.87248e-70
2.67237e-88
8.83851e-84
4.37515e-94
1.65793e-96
1.667e-96
4.36698e-94
4.88592e-89
4.3701e-94
5.50757e-94
3.42516e-96
2.55143e-93
2.46806e-85
4.68832e-87
3.09508e-88
7.51676e-86
7.90512e-87
1.98358e-85
7.88695e-86
1.69608e-91
2.6476e-90
4.89767e-88
3.18931e-90
6.69413e-91
5.45235e-88
1.89936e-88
6.72857e-100
2.23582e-93
1.15362e-98
5.29358e-96
2.88354e-91
2.24412e-86
1.02047e-95
5.36596e-98
8.13317e-98
2.19167e-98
7.48168e-98
1.11821e-97
1.01578e-95
1.84055e-95
6.91624e-96
2.24215e-93
2.4687e-93
6.93124e-96
9.39041e-96
2.486e-93
1.2185e-100
1.50645e-102
1.28922e-101
1.80746e-100
1.53259e-103
5.02156e-101
6.41617e-103
4.7115e-100
8.02967e-100
6.23958e-99
7.17218e-99
2.56273e-101
1.99907e-100
5.15983e-103
1.60458e-102
1.74917e-100
1.72075e-100
1.96722e-100
6.28463e-103
1.26214e-99
2.60901e-100
8.34594e-102
1.63526e-99
1.7767e-99
1.268e-99
5.11705e-102
2.90638e-97
4.59398e-97
)
;

boundaryField
{
    ground
    {
        type            zeroGradient;
    }
    outlet
    {
        type            zeroGradient;
    }
    wall
    {
        type            zeroGradient;
    }
    wall2
    {
        type            zeroGradient;
    }
    wall3
    {
        type            zeroGradient;
    }
    internalPatch
    {
        type            internal;
    }
    procBoundary5to4
    {