/*--------------------------------*- C++ -*----------------------------------*\
  =========                 |
  \\      /  F ield         | OpenFOAM: The Open Source CFD Toolbox
   \\    /   O peration     | Website:  https://openfoam.org
    \\  /    A nd           | Version:  9
     \\/     M anipulation  |
\*---------------------------------------------------------------------------*/
FoamFile
{
    format      ascii;
    class       volVectorField;
    location    "0.0003";
    object      U;
}
// * * * * * * * * * * * * * * * * * * * * * * * * * * * * * * * * * * * * * //

dimensions      [0 1 -1 0 0 0 0];

internalField   nonuniform List<vector> 
2391
(
(0 0 -1.02666e-16)
(0 0 0)
(0 0 -1.02666e-16)
(0 0 0)
(0 1.58063e-20 0)
(0 0 0)
(0 0 0)
(0 0 0)
(0 0 0)
(0 0 0)
(0 0 1.79939e-20)
(0 0 -4.73471e-17)
(0 0 2.83541e-17)
(0 0 2.53621e-17)
(0 1.5804e-20 2.23682e-17)
(0 0 0)
(0 0 0)
(0 0 0)
(0 0 0)
(0 0 1.52761e-27)
(0 0 2.85308e-19)
(0 7.8313e-15 6.44118e-17)
(0 7.40526e-17 -9.46052e-18)
(0 7.40526e-17 -1.4357e-15)
(0 3.16531e-18 -1.34353e-17)
(0 0 0)
(0 0 0)
(0 0 0)
(0 0 0)
(0 6.23368e-20 -4.92302e-22)
(0 0 0)
(0 0 0)
(0 0 0)
(0 0 0)
(0 0 -8.90355e-24)
(0 0 -1.62945e-16)
(0 7.83209e-15 5.60816e-17)
(0 7.40526e-17 -1.94426e-17)
(0 7.40526e-17 -9.5187e-15)
(0 7.44687e-17 -5.70002e-16)
(0 0 0)
(0 0 0)
(0 0 0)
(0 0 0)
(0 6.3616e-18 -7.06718e-18)
(0 0 0)
(0 0 0)
(0 0 0)
(0 0 0)
(0 1.02441e-21 3.3925e-20)
(0 0 0)
(0 0 0)
(0 0 0)
(0 0 0)
(0 0 3.92457e-21)
(0 3.43445e-18 0)
(0 0 0)
(-4.49559e-21 3.44367e-18 -2.85469e-18)
(0 0 3.03958e-25)
(-7.07074e-17 2.6586e-16 -3.82958e-15)
(0 5.31574e-18 -3.02439e-20)
(0 0 -4.87445e-22)
(-7.84092e-15 -4.03365e-29 -4.01271e-15)
(0 0 3.02194e-17)
(-5.0273e-16 6.97804e-28 6.72656e-16)
(0 0 2.11531e-16)
(-3.28813e-18 0 2.19772e-16)
(-7.32302e-15 0 1.13265e-19)
(-7.09121e-15 0 1.75679e-16)
(-7.66396e-15 2.43032e-17 1.80555e-17)
(0 0 0)
(-1.395e-24 0 0)
(0 0 0)
(-7.06368e-20 0 0)
(0 0 5.48824e-16)
(0 0 0)
(0 0 0)
(0 3.52769e-18 0)
(-4.72509e-16 6.24813e-26 6.75438e-16)
(0 1.9144e-19 0)
(-4.64476e-16 3.71498e-24 6.72656e-16)
(0 8.01738e-29 -2.20882e-15)
(-5.23695e-16 0 3.50424e-15)
(0 3.45869e-24 0)
(0 0 -1.85928e-14)
(0 0 -5.42529e-15)
(0 0 1.00336e-14)
(0 0 1.29342e-14)
(0 -2.64525e-32 3.58053e-17)
(0 0 0)
(-3.53381e-22 -1.74102e-30 0)
(-9.71509e-22 -9.43647e-33 0)
(0 0 3.35214e-15)
(0 0 8.33114e-16)
(0 0 0)
(0 0 0)
(0 0 1.5607e-14)
(0 0 3.50622e-15)
(0 0 -9.0616e-15)
(-1.55587e-16 0 6.81694e-17)
(0 0 -2.20897e-16)
(-4.24257e-18 0 2.51117e-15)
(-1.38914e-16 0 1.03274e-15)
(0 0 -2.82703e-15)
(0 0 8.45695e-15)
(0 0 5.0816e-15)
(0 0 -1.42067e-14)
(0 4.88708e-26 -8.84517e-15)
(0 2.63377e-27 -6.31403e-15)
(0 0 1.52156e-14)
(0 6.15771e-26 1.54709e-14)
(-3.22284e-17 1.67317e-16 -1.03005e-14)
(0 0 0)
(0 -3.52875e-16 0)
(0 -2.67973e-38 0)
(0 1.22303e-32 -1.28799e-15)
(0 1.07875e-30 0)
(-2.99386e-18 -4.73987e-19 -4.02122e-16)
(0 0 0)
(0 0 0)
(0 0 0)
(0 2.06604e-27 -3.90574e-16)
(0 2.00571e-25 0)
(-8.40274e-17 1.06983e-19 -5.1167e-15)
(0 1.63824e-20 0)
(0 4.55155e-18 0)
(0 1.52282e-20 0)
(0 8.08441e-24 3.90574e-16)
(0 -4.63819e-26 0)
(-3.94079e-17 -2.20609e-19 1.2011e-15)
(0 0 0)
(0 1.0615e-16 0)
(0 0 0)
(0 0 0)
(0 2.41929e-21 1.28799e-15)
(-5.73379e-18 3.93995e-18 2.0811e-16)
(0 0 0)
(0 0 0)
(0 0 0)
(0 0 0)
(0 1.08694e-20 0)
(-2.76155e-25 5.96062e-18 -2.99082e-16)
(0 0 0)
(0 0 0)
(0 0 0)
(0 0 0)
(0 1.7643e-24 0)
(0 1.06928e-17 -4.29134e-18)
(0 0 0)
(0 0 0)
(0 0 0)
(0 0 0)
(0 0 0)
(0 0 0)
(0 0 0)
(0 0 0)
(0 0 0)
(0 0 0)
(0 0 0)
(0 0 5.36784e-16)
(0 0 0)
(0 0 0)
(0 0 0)
(0 0 0)
(0 0 0)
(0 0 0)
(0 2.11395e-16 9.90175e-15)
(0 0 0)
(0 0 0)
(0 0 0)
(0 0 0)
(0 0 0)
(0 0 0)
(-1.66584e-17 -6.11676e-16 -3.07468e-16)
(0 0 0)
(0 0 0)
(0 0 0)
(0 0 0)
(0 0 0)
(0 0 0)
(-1.66703e-17 6.00513e-16 -2.60875e-16)
(0 0 0)
(0 0 0)
(0 0 0)
(0 0 0)
(0 0 0)
(0 0 0)
(-1.37185e-18 6.61007e-18 0)
(0 0 0)
(0 0 0)
(0 0 0)
(0 0 0)
(0 0 0)
(0 0 0)
(0 4.05171e-17 0)
(0 0 0)
(0 0 0)
(0 0 0)
(0 0 0)
(0 0 0)
(0 0 0)
(0 0 0)
(0 0 0)
(0 0 0)
(0 0 0)
(0 0 0)
(0 0 0)
(0 0 1.0382e-17)
(0 0 0)
(0 0 0)
(0 0 0)
(0 0 0)
(0 0 0)
(0 0 0)
(0 6.47051e-18 5.29609e-16)
(0 0 0)
(0 0 0)
(0 0 0)
(0 0 0)
(0 0 0)
(0 0 0)
(0 -2.12039e-17 -8.53238e-17)
(0 0 0)
(0 0 0)
(0 0 0)
(0 0 0)
(0 0 0)
(0 0 0)
(0 2.01209e-17 6.38307e-16)
(0 0 0)
(0 0 0)
(0 0 0)
(0 0 0)
(0 0 0)
(0 0 0)
(0 2.94015e-19 0)
(0 0 0)
(0 0 0)
(0 0 0)
(0 0 0)
(0 0 0)
(0 0 0)
(0 1.85e-19 0)
(0 0 0)
(0 0 0)
(0 0 0)
(0 0 0)
(0 0 0)
(0 0 0)
(0 0 0)
(0 0 0)
(0 0 0)
(0 0 0)
(0 0 0)
(0 0 0)
(0 0 0)
(0 0 0)
(0 0 0)
(0 0 0)
(0 0 0)
(0 0 0)
(0 0 0)
(0 0 0)
(0 0 0)
(0 0 0)
(0 0 0)
(0 0 0)
(0 0 0)
(0 0 0)
(0 0 0)
(0 0 0)
(0 0 0)
(0 0 0)
(0 0 0)
(0 0 0)
(0 0 0)
(0 0 0)
(0 0 0)
(0 0 0)
(0 0 0)
(0 0 0)
(0 0 0)
(0 0 0)
(0 0 0)
(0 0 0)
(0 0 0)
(0 0 0)
(0 0 0)
(0 0 0)
(0 0 0)
(0 0 0)
(0 0 0)
(0 0 0)
(0 0 0)
(0 0 0)
(0 0 0)
(0 0 0)
(0 0 0)
(0 0 0)
(0 0 0)
(0 0 0)
(0 0 0)
(0 0 0)
(0 0 0)
(0 0 0)
(0 0 0)
(0 0 0)
(0 0 0)
(0 0 0)
(0 0 0)
(0 0 0)
(0 0 0)
(0 0 0)
(0 0 0)
(0 0 0)
(0 0 0)
(0 0 0)
(0 0 0)
(0 0 0)
(0 0 0)
(0 0 0)
(0 0 0)
(0 0 0)
(0 0 0)
(0 0 0)
(0 0 0)
(0 0 0)
(0 0 0)
(0 0 0)
(0 0 0)
(0 0 0)
(0 0 0)
(0 0 0)
(0 0 0)
(0 0 0)
(0 0 0)
(0 0 0)
(0 0 0)
(0 0 0)
(0 0 0)
(0 0 0)
(0 0 0)
(0 0 0)
(0 0 0)
(0 0 0)
(0 0 0)
(0 0 0)
(0 0 0)
(0 0 0)
(0 0 0)
(0 0 0)
(0 0 0)
(0 0 0)
(0 0 0)
(0 0 0)
(0 0 0)
(0 0 0)
(0 0 0)
(0 0 0)
(0 0 0)
(0 0 0)
(0 0 0)
(0 0 0)
(0 0 0)
(0 0 0)
(0 0 0)
(0 0 0)
(0 0 0)
(0 0 0)
(0 0 0)
(0 0 0)
(0 0 0)
(0 0 0)
(0 0 0)
(0 0 0)
(0 0 0)
(0 0 0)
(0 0 0)
(0 0 0)
(0 0 0)
(0 0 0)
(0 0 0)
(0 0 0)
(0 0 0)
(0 0 0)
(0 0 0)
(0 0 0)
(0 0 0)
(0 0 0)
(0 0 0)
(0 0 0)
(0 0 0)
(0 0 0)
(0 0 0)
(0 -6.63429e-16 9.53065e-15)
(-3.25839e-32 -5.56216e-18 6.33574e-16)
(-4.33911e-35 0 0)
(-5.11078e-38 0 0)
(-5.36482e-41 0 0)
(0 -1.99054e-29 0)
(0 -8.63263e-27 0)
(0 -3.26928e-24 0)
(0 -3.89605e-22 -1.37483e-15)
(0 -9.57735e-20 4.61236e-16)
(0 -1.04877e-17 -6.44762e-16)
(0 -5.95133e-31 0)
(0 -1.84304e-28 0)
(0 -4.75715e-26 0)
(0 -7.60695e-24 0)
(0 -5.14347e-21 0)
(0 -4.51665e-19 6.52342e-16)
(0 -5.6212e-33 0)
(0 -1.63559e-30 0)
(0 -4.11949e-28 0)
(0 -8.58234e-26 0)
(0 -8.32032e-23 0)
(0 -9.32774e-21 0)
(0 -3.78092e-35 0)
(0 -1.086e-32 0)
(0 -2.70093e-30 0)
(0 -5.62594e-28 0)
(0 -6.75702e-25 0)
(0 -6.15199e-23 0)
(0 -1.89287e-37 0)
(0 -5.37909e-35 0)
(0 -1.31344e-32 0)
(0 -2.65721e-30 0)
(0 -4.02005e-27 0)
(0 -3.33732e-25 0)
(0 -7.50223e-40 0)
(0 -2.11004e-37 0)
(0 -5.06453e-35 0)
(0 -9.98118e-33 0)
(0 -1.9423e-29 0)
(0 -1.54006e-27 0)
(-1.57734e-27 -1.96915e-17 1.07229e-14)
(-6.88294e-30 -3.91517e-19 0)
(-1.04494e-32 -2.71379e-21 0)
(-1.39111e-35 -1.53003e-23 0)
(-1.63985e-38 -7.28518e-26 0)
(-3.08006e-25 -4.43455e-16 -7.07689e-15)
(-1.79913e-23 2.89872e-16 -3.36205e-16)
(0 6.58082e-20 2.08691e-18)
(0 0 3.94684e-19)
(-3.25223e-15 1.56362e-16 -6.35193e-15)
(-2.33003e-15 4.09145e-18 4.44766e-16)
(0 -7.64207e-20 0)
(0 -1.81082e-18 0)
(0 -1.90092e-18 0)
(0 -3.48676e-18 3.52643e-15)
(0 0 0)
(0 0 0)
(0 0 0)
(0 0 0)
(0 0 -1.40392e-14)
(0 0 0)
(0 -1.04106e-14 -1.41087e-14)
(0 0 0)
(0 0 0)
(0 0 0)
(0 0 0)
(0 0 0)
(0 0 0)
(0 1.01973e-14 0)
(0 1.6705e-14 1.41059e-14)
(0 1.11367e-14 0)
(0 4.56497e-15 -5.46567e-15)
(0 4.56497e-15 0)
(0 4.56497e-15 -5.46567e-15)
(0 4.56497e-15 0)
(0 0 -5.03389e-15)
(0 0 0)
(0 0 0)
(0 0 -8.65332e-22)
(0 0 -1.4872e-14)
(0 0 2.60989e-19)
(0 -7.26425e-15 -1.34537e-14)
(0 0 -1.82397e-21)
(0 0 0)
(0 0 0)
(0 0 0)
(0 0 0)
(0 0 -1.67345e-14)
(0 0 0)
(0 0 1.18719e-15)
(0 0 0)
(0 5.05418e-15 2.80797e-15)
(0 0 0)
(0 0 1.63875e-14)
(0 0 0)
(0 5.01005e-17 7.37849e-18)
(0 4.63364e-15 -1.99836e-15)
(0 4.56497e-15 1.16544e-15)
(0 4.56457e-15 1.47793e-15)
(0 -1.80786e-42 2.83732e-15)
(0 0 1.88179e-15)
(0 0 -6.03618e-32)
(0 0 0)
(0 0 5.31465e-15)
(0 0 0)
(0 0 0)
(0 0 0)
(0 1.63543e-20 8.16351e-15)
(0 0 0)
(0 0 -1.70057e-14)
(0 0 0)
(0 -4.10913e-17 1.11115e-16)
(0 -3.34482e-15 2.07252e-15)
(0 4.56497e-15 -9.19944e-16)
(0 4.56495e-15 5.03481e-15)
(0 0 -5.33454e-15)
(0 -1.04622e-14 0)
(0 -2.97842e-36 -3.70549e-15)
(0 1.15141e-30 -7.3288e-15)
(0 0 -5.50685e-15)
(0 0 0)
(0 0 0)
(0 2.41172e-25 -4.07577e-15)
(0 5.69189e-18 -5.48773e-15)
(0 9.88047e-16 1.86284e-15)
(0 5.43823e-18 -1.8262e-15)
(0 9.67291e-21 7.55552e-16)
(0 -1.04106e-14 0)
(0 0 0)
(0 0 0)
(0 0 1.77043e-15)
(0 -9.73592e-15 1.47423e-14)
(0 0 0)
(0 0 0)
(0 0 0)
(0 0 2.72367e-14)
(0 0 0)
(0 -9.73592e-15 1.35272e-14)
(0 0 0)
(0 0 1.80081e-14)
(0 0 0)
(0 0 0)
(0 0 0)
(0 0 0)
(0 0 0)
(0 0 0)
(0 0 0)
(0 0 0)
(0 0 -1.63936e-14)
(0 0 0)
(0 0 1.31469e-14)
(0 0 2.0907e-17)
(0 0 -1.89128e-16)
(0 0 1.06522e-16)
(0 0 1.52216e-14)
(0 0 0)
(0 0 4.82328e-18)
(0 0 1.99683e-16)
(0 0 0)
(0 0 0)
(0 0 0)
(0 0 2.21132e-16)
(0 0 4.27646e-15)
(0 0 1.32753e-14)
(0 0 0)
(0 0 -3.55726e-15)
(0 0 0)
(0 0 0)
(0 0 0)
(0 0 0)
(0 0 0)
(0 0 0)
(0 0 0)
(0 0 0)
(0 0 -1.6705e-14)
(0 0 -1.11367e-14)
(0 0 -8.43158e-15)
(0 0 -1.10112e-14)
(0 0 0)
(0 0 1.32092e-14)
(0 0 0)
(0 0 -1.22904e-14)
(0 0 1.09708e-14)
(0 0 5.38281e-15)
(0 0 6.27103e-16)
(0 0 0)
(0 0 0)
(0 0 0)
(0 0 -5.56833e-15)
(0 0 1.12211e-14)
(0 3.45231e-38 1.2296e-14)
(0 1.90809e-35 1.53609e-14)
(-1.22912e-15 0 0)
(0 -1.94093e-15 0)
(-1.01782e-14 -1.6705e-14 0)
(0 0 1.33066e-14)
(-1.23354e-15 0 0)
(0 -1.17324e-15 0)
(-1.02707e-14 -1.00737e-14 -1.81705e-14)
(0 0 0)
(0 0 0)
(0 0 0)
(0 0 -1.36523e-14)
(0 1.22629e-15 0)
(-8.80433e-15 1.11367e-14 0)
(0 0 2.01848e-15)
(0 0 -1.53404e-14)
(0 0 1.60239e-14)
(-7.95777e-15 1.11367e-14 -5.04059e-16)
(0 0 0)
(0 0 0)
(0 0 0)
(0 0 4.88393e-15)
(0 0 -5.84263e-15)
(0 0 0)
(0 0 2.5414e-14)
(0 0 -1.7441e-14)
(0 0 3.71222e-15)
(0 0 0)
(0 0 0)
(0 0 0)
(0 0 0)
(0 1.6705e-14 0)
(0 4.14524e-34 0)
(0 4.28004e-32 0)
(0 1.04701e-14 -2.38044e-15)
(0 2.01469e-14 -1.3607e-14)
(0 2.87817e-32 -8.252e-15)
(0 1.05463e-30 1.37325e-14)
(0 1.11367e-14 0)
(0 1.36983e-30 -1.3472e-14)
(0 4.45264e-29 0)
(0 1.11367e-14 -1.18578e-14)
(0 1.00734e-14 1.00079e-14)
(0 3.05466e-29 0)
(0 9.61462e-28 0)
(0 1.11367e-14 0)
(0 2.97458e-27 0)
(0 6.68107e-26 0)
(0 1.11367e-14 2.0471e-15)
(0 1.01248e-14 1.05471e-14)
(0 6.56173e-26 0)
(0 1.53199e-24 0)
(0 -7.26425e-15 -1.46597e-14)
(0 0 0)
(0 0 0)
(0 0 0)
(0 0 0)
(0 1.40181e-41 -3.84786e-15)
(0 2.14488e-39 0)
(0 0 -2.01994e-21)
(0 0 1.50505e-15)
(0 0 0)
(0 0 1.86703e-14)
(0 0 0)
(0 1.67213e-37 1.11367e-14)
(0 1.82732e-35 1.29688e-14)
(0 0 -1.79362e-19)
(0 0 0)
(0 0 0)
(0 0 0)
(0 0 1.38195e-15)
(0 7.87961e-34 1.23623e-14)
(0 2.80041e-32 1.29296e-14)
(-1.04398e-14 0 1.14384e-14)
(0 0 0)
(-1.10798e-14 0 5.62607e-15)
(0 0 -3.62431e-15)
(0 0 -1.59702e-14)
(0 0 -1.51514e-14)
(0 0 -6.02886e-15)
(0 0 1.95316e-17)
(0 0 0)
(0 0 0)
(0 0 2.33798e-15)
(0 0 0)
(0 0 1.73126e-16)
(0 0 2.07193e-16)
(0 0 2.53437e-15)
(0 0 0)
(0 0 -1.09609e-14)
(0 0 -1.51045e-15)
(0 0 0)
(0 0 -6.94124e-16)
(0 0 1.36586e-14)
(0 0 0)
(0 0 0)
(0 0 0)
(0 0 0)
(0 0 0)
(0 0 0)
(0 0 0)
(0 0 0)
(0 1.11367e-14 -5.69274e-15)
(0 1.08251e-14 5.17916e-15)
(0 0 -5.56833e-15)
(0 0 0)
(0 -3.94923e-40 -1.11367e-14)
(0 -1.66189e-38 0)
(0 0 0)
(0 1.6705e-14 -5.62547e-16)
(0 4.91931e-15 1.2213e-14)
(0 0 1.09735e-14)
(0 0 1.2296e-14)
(0 -6.3279e-37 0)
(0 -3.76264e-35 0)
(0 0 0)
(0 1.11367e-14 1.26628e-14)
(0 2.1435e-15 1.12751e-14)
(0 0 1.18211e-14)
(0 0 1.34753e-14)
(0 -3.54127e-33 -1.52572e-14)
(0 -5.53192e-32 0)
(0 0 0)
(0 -3.03216e-15 0)
(0 0 0)
(0 0 0)
(0 -1.0415e-17 0)
(0 0 0)
(0 0 0)
(0 0 0)
(0 0 0)
(0 0 -1.55043e-14)
(0 0 -5.72954e-17)
(0 0 -6.1482e-15)
(0 0 1.29194e-14)
(0 0 0)
(0 0 0)
(0 0 0)
(0 -1.72081e-15 0)
(0 0 0)
(0 -2.38363e-16 0)
(0 0 0)
(0 0 0)
(0 0 0)
(0 0 -4.65563e-15)
(0 0 0)
(0 0 0)
(0 0 0)
(0 0 0)
(0 0 0)
(0 0 -5.72679e-15)
(0 0 0)
(0 0 5.26766e-15)
(0 0 -2.50841e-15)
(0 0 -2.42515e-14)
(0 0 0)
(0 0 0)
(0 0 0)
(0 0 0)
(0 0 0)
(0 0 0)
(0 0 0)
(0 0 0)
(0 0 0)
(0 0 0)
(0 0 -1.89059e-14)
(0 0 3.23953e-15)
(0 0 0)
(0 0 0)
(0 0 0)
(0 0 0)
(0 0 0)
(0 0 0)
(0 0 0)
(0 0 0)
(0 0 0)
(0 0 0)
(0 0 0)
(0 0 0)
(0 0 0)
(0 0 0)
(0 0 0)
(0 0 0)
(0 0 0)
(0 0 0)
(0 0 0)
(0 0 0)
(0 0 0)
(0 0 0)
(0 0 0)
(0 0 0)
(0 0 0)
(0 0 0)
(0 0 0)
(0 0 0)
(0 0 0)
(0 0 0)
(0 0 0)
(0 0 0)
(0 0 0)
(0 0 0)
(0 0 0)
(0 0 0)
(0 0 0)
(0 0 0)
(0 0 0)
(-1.04535e-19 0 0)
(-1.89299e-15 0 0)
(0 0 0)
(0 0 0)
(-8.01069e-18 0 0)
(0 0 0)
(-1.96342e-22 0 0)
(-1.26841e-18 0 0)
(0 0 0)
(-1.24547e-19 0 0)
(0 0 0)
(0 0 -2.1263e-14)
(-4.13108e-18 0 0)
(-7.11203e-21 0 0)
(-2.33901e-18 0 0)
(0 0 0)
(-3.22273e-15 0 9.32624e-17)
(0 0 5.43193e-15)
(-1.88024e-16 0 0)
(0 0 0)
(-3.20635e-17 0 1.60742e-15)
(-3.22779e-17 0 0)
(0 0 -1.2213e-14)
(0 0 2.74553e-14)
(-1.65108e-15 0 1.08326e-15)
(0 0 0)
(-1.07354e-16 0 0)
(-2.67113e-16 0 6.08223e-15)
(0 0 0)
(0 0 0)
(0 0 0)
(0 0 0)
(0 0 1.99683e-16)
(0 0 0)
(0 0 5.10371e-16)
(0 0 1.93326e-15)
(0 0 0)
(0 0 0)
(0 0 0)
(0 0 0)
(0 0 -2.77822e-14)
(0 0 0)
(0 0 0)
(0 0 -3.76262e-15)
(0 0 0)
(0 0 0)
(0 0 0)
(0 0 0)
(0 0 0)
(0 0 0)
(0 0 -2.50818e-14)
(0 0 -4.82526e-15)
(0 0 1.46391e-15)
(0 0 0)
(0 0 -3.64446e-15)
(0 0 4.43887e-15)
(0 0 2.55832e-15)
(0 0 0)
(0 0 -2.63196e-15)
(0 0 -1.93326e-15)
(0 0 2.18087e-14)
(0 0 -2.93662e-15)
(0 0 2.50841e-16)
(0 0 -2.4485e-14)
(0 0 0)
(0 0 0)
(0 0 1.859e-18)
(0 0 5.04326e-15)
(0 0 0)
(0 0 0)
(0 0 7.12426e-16)
(0 0 2.50841e-16)
(0 0 0)
(0 0 -3.14939e-15)
(0 0 2.3871e-14)
(0 0 0)
(0 0 0)
(0 0 2.52094e-15)
(0 0 0)
(0 0 0)
(0 0 0)
(0 0 0)
(0 0 0)
(0 0 6.53403e-15)
(0 0 2.92206e-15)
(0 0 -1.56585e-14)
(0 0 4.48662e-15)
(0 0 0)
(0 0 0)
(0 0 0)
(0 0 0)
(0 0 0)
(0 0 0)
(0 0 0)
(0 0 0)
(0 0 0)
(0 0 0)
(0 0 0)
(0 0 0)
(0 0 0)
(0 0 0)
(0 0 0)
(0 0 0)
(0 0 0)
(0 0 0)
(0 0 0)
(0 0 -1.80292e-14)
(0 0 -5.99958e-16)
(0 0 0)
(0 0 0)
(0 0 -3.47091e-15)
(0 0 0)
(0 0 0)
(0 0 0)
(0 0 0)
(0 0 0)
(0 0 0)
(0 0 0)
(0 0 0)
(0 0 0)
(0 0 0)
(0 0 0)
(0 0 0)
(0 0 0)
(0 0 0)
(0 0 0)
(0 0 0)
(0 0 0)
(0 0 0)
(0 0 0)
(0 0 0)
(0 0 0)
(0 0 0)
(0 0 0)
(0 0 0)
(0 0 0)
(0 0 0)
(0 0 0)
(0 0 0)
(0 0 0)
(0 0 0)
(0 0 0)
(0 0 0)
(0 0 0)
(0 0 0)
(0 0 0)
(0 0 0)
(0 0 0)
(0 0 0)
(0 0 0)
(0 0 0)
(0 0 0)
(0 0 0)
(0 0 0)
(0 0 0)
(0 0 0)
(0 0 0)
(0 0 -1.85277e-17)
(0 0 0)
(0 0 0)
(0 0 -8.58999e-16)
(0 0 0)
(0 0 -1.00554e-16)
(0 0 -1.18412e-16)
(0 0 1.65875e-17)
(0 0 0)
(0 0 0)
(0 0 1.59461e-15)
(0 0 0)
(0 0 1.65828e-16)
(0 0 1.71448e-16)
(0 0 -5.76456e-17)
(0 0 0)
(0 0 0)
(0 0 -3.63718e-15)
(0 0 0)
(0 0 -1.05232e-15)
(0 0 1.62575e-16)
(0 0 0)
(0 0 0)
(0 0 0)
(0 0 0)
(0 0 0)
(0 0 0)
(0 0 0)
(0 0 -8.65602e-16)
(0 0 0)
(0 0 0)
(0 0 -1.56587e-14)
(0 0 0)
(0 0 -2.9171e-15)
(0 0 -3.75608e-15)
(0 0 0)
(0 0 0)
(0 0 0)
(0 0 0)
(0 0 0)
(0 0 0)
(0 0 0)
(0 0 0)
(0 0 0)
(0 0 0)
(0 0 0)
(0 0 0)
(0 0 0)
(0 0 0)
(0 0 0)
(0 0 0)
(0 0 0)
(0 0 0)
(0 0 0)
(0 0 0)
(0 0 0)
(0 0 0)
(0 0 0)
(0 0 0)
(0 0 0)
(0 0 0)
(0 0 0)
(0 0 0)
(-1.04191e-14 0 1.01344e-14)
(0 0 -1.82682e-14)
(0 0 -1.7487e-14)
(0 0 1.07272e-14)
(0 0 -2.03173e-14)
(0 0 1.51568e-15)
(0 0 -2.09204e-15)
(0 0 0)
(0 0 0)
(0 0 2.74809e-15)
(0 0 0)
(0 0 1.81864e-15)
(0 0 5.73862e-15)
(0 0 6.6961e-16)
(0 0 0)
(0 0 1.13264e-14)
(0 0 -6.87986e-15)
(0 0 0)
(0 0 -1.89326e-15)
(0 0 -4.34534e-15)
(0 0 -1.62313e-14)
(0 0 0)
(0 0 0)
(0 0 0)
(0 0 0)
(0 0 0)
(0 0 0)
(0 0 0)
(0 0 0)
(0 0 0)
(0 0 -1.85233e-16)
(0 0 0)
(0 0 6.55078e-15)
(0 0 2.71183e-14)
(0 0 4.00147e-15)
(0 0 0)
(0 0 0)
(0 0 0)
(0 0 0)
(0 0 0)
(0 0 0)
(0 0 0)
(0 0 0)
(0 0 0)
(0 0 0)
(0 0 0)
(0 0 0)
(0 0 0)
(0 0 0)
(0 0 0)
(0 0 0)
(0 0 0)
(0 0 0)
(0 0 0)
(0 0 0)
(0 0 0)
(0 0 -7.43599e-15)
(0 0 0)
(0 0 0)
(0 0 0)
(0 0 0)
(0 0 0)
(0 0 0)
(0 0 0)
(0 0 0)
(0 0 0)
(0 0 1.03419e-15)
(0 0 0)
(0 0 0)
(0 0 0)
(-1.0074e-15 0 0)
(0 0 0)
(0 0 0)
(0 0 2.1944e-15)
(0 0 8.54411e-17)
(0 0 -3.58041e-17)
(0 0 2.46697e-19)
(-1.1936e-15 0 0)
(0 -4.58119e-17 0)
(-1.11367e-14 -5.52161e-18 1.63993e-14)
(0 0 1.45525e-14)
(0 0 2.00189e-15)
(0 0 1.86406e-15)
(0 0 1.5425e-16)
(0 0 1.37934e-14)
(0 5.78677e-31 8.75368e-15)
(0 2.75001e-29 -1.31514e-14)
(0 0 -1.13313e-15)
(0 0 9.29971e-17)
(0 7.9395e-31 -3.69488e-17)
(0 2.69953e-28 2.09886e-15)
(0 0 -5.48045e-15)
(0 1.10916e-27 0)
(0 3.62586e-26 0)
(0 0 1.90801e-15)
(0 0 1.36107e-16)
(0 1.13923e-26 1.77634e-14)
(0 3.85719e-25 1.99331e-15)
(0 0 -1.05114e-14)
(0 2.41742e-24 0)
(0 5.4379e-23 0)
(0 0 -1.90676e-15)
(0 0 -1.36388e-16)
(0 2.70768e-23 -2.34414e-17)
(0 6.56877e-22 -6.75356e-18)
(0 0 1.53006e-14)
(0 0 0)
(0 0 1.64918e-14)
(0 0 -3.24599e-18)
(0 0 -6.00806e-17)
(0 0 -1.24813e-16)
(0 0 -1.51197e-15)
(0 0 0)
(0 0 -1.18219e-14)
(0 0 1.27591e-14)
(0 0 4.31094e-17)
(0 0 -5.10366e-17)
(0 0 1.07391e-15)
(0 0 -1.38309e-15)
(0 0 0)
(0 2.59767e-36 0)
(0 3.22867e-34 0)
(0 0 -7.05981e-18)
(0 0 -4.28621e-19)
(0 0 -1.45095e-16)
(0 0 -4.46528e-18)
(0 0 0)
(0 -2.5062e-38 7.75927e-15)
(0 -1.099e-36 -1.64083e-14)
(0 0 -1.18979e-15)
(0 0 -1.55e-14)
(0 -1.79373e-37 -6.60089e-17)
(0 -1.89762e-35 9.85688e-16)
(0 0 0)
(0 -4.24222e-35 0)
(0 -2.15771e-33 0)
(0 0 1.05099e-14)
(0 0 -1.44542e-14)
(0 -9.56978e-34 1.93892e-14)
(0 -3.83783e-32 6.12901e-16)
(0 0 0)
(0 -1.57636e-31 0)
(0 -5.57225e-30 0)
(0 0 -1.64266e-15)
(0 0 -6.78225e-17)
(0 -2.64025e-30 -5.85818e-17)
(0 -6.52119e-29 -3.85538e-18)
(-1.05851e-19 0 0)
(0 0 0)
(0 0 0)
(-3.22653e-18 0 0)
(0 0 1.67954e-14)
(0 0 0)
(0 0 0)
(0 0 1.15519e-14)
(-1.56078e-15 0 0)
(0 0 0)
(-8.33072e-17 0 0)
(0 0 -1.05471e-14)
(0 0 0)
(0 0 0)
(0 -1.79504e-16 0)
(0 0 0)
(0 0 3.55567e-15)
(0 0 0)
(0 0 2.47275e-16)
(0 0 3.00137e-17)
(0 0 3.37165e-16)
(0 0 3.46469e-15)
(0 0 0)
(0 0 -4.00086e-15)
(0 0 0)
(0 0 -3.11489e-16)
(0 0 -1.20671e-16)
(0 0 -1.39291e-15)
(0 0 2.32482e-14)
(0 0 0)
(0 0 -1.80372e-14)
(0 0 1.95227e-15)
(0 0 -4.30498e-15)
(0 0 -1.31931e-15)
(0 0 -3.61918e-15)
(0 0 0)
(0 0 0)
(0 0 0)
(0 0 0)
(0 0 0)
(0 0 0)
(0 0 0)
(0 0 0)
(0 0 0)
(0 0 0)
(0 0 0)
(0 0 0)
(0 0 0)
(0 0 0)
(0 0 0)
(0 0 0)
(0 0 0)
(0 0 0)
(0 0 0)
(0 0 0)
(0 0 0)
(0 -3.95767e-15 8.80162e-15)
(0 -4.12753e-15 0)
(0 -3.95282e-15 9.89817e-15)
(0 0 5.22773e-15)
(0 0 -2.26001e-15)
(0 0 -5.01934e-15)
(0 0 3.69882e-15)
(0 -1.14568e-29 -3.75417e-22)
(0 -3.22772e-27 -2.62889e-19)
(0 -8.27823e-25 -1.15976e-16)
(0 -7.54652e-23 -1.05552e-14)
(0 0 -1.29498e-15)
(0 0 0)
(0 0 -1.27081e-15)
(0 0 -1.25463e-15)
(0 0 -1.19452e-15)
(0 0 -4.31279e-17)
(0 0 -3.93554e-17)
(0 0 8.96725e-16)
(0 0 -4.67269e-20)
(0 0 -1.98853e-21)
(0 0 0)
(0 0 7.85132e-15)
(0 0 -2.2974e-18)
(0 0 -4.84771e-20)
(0 0 -1.93939e-19)
(0 0 0)
(0 0 2.83536e-17)
(0 0 0)
(0 0 8.82797e-16)
(0 0 -4.30738e-20)
(0 0 -1.99069e-18)
(0 0 -5.82005e-17)
(0 0 1.48637e-14)
(0 0 -2.88503e-17)
(0 3.77633e-41 0)
(0 6.10462e-39 0)
(0 -1.61563e-39 -1.04666e-34)
(0 -1.62486e-37 -9.57667e-33)
(0 0 -3.28575e-16)
(0 0 -3.4519e-30)
(0 0 0)
(0 6.22819e-37 0)
(0 5.60168e-35 0)
(0 -1.45362e-35 -7.91488e-31)
(0 -1.13732e-33 -5.68029e-29)
(0 0 3.31141e-16)
(0 0 -7.16694e-29)
(0 0 0)
(0 4.08141e-33 0)
(0 2.44971e-31 0)
(0 -9.4401e-32 -4.42561e-27)
(0 -2.6164e-30 -1.1626e-25)
(0 -1.84515e-16 0)
(0 -1.76065e-16 0)
(0 -3.82013e-15 -1.08901e-14)
(0 -3.98336e-15 0)
(0 -3.81198e-15 0)
(0 -8.51318e-18 -6.06028e-23)
(0 -1.40252e-16 2.17499e-20)
(0 -1.48401e-16 -2.33805e-17)
(0 -1.3982e-16 -3.08155e-15)
(0 -3.22081e-24 -2.27133e-15)
(0 0 2.24418e-15)
(-5.5242e-24 6.92992e-22 -2.80217e-15)
(-6.44454e-25 0 -9.97638e-16)
(-2.19599e-15 -3.387e-21 1.55404e-15)
(-1.30064e-16 9.15511e-20 -2.09392e-15)
(-2.27941e-20 6.79786e-24 1.10654e-16)
(-1.67603e-15 5.13957e-22 5.10134e-16)
(-4.29014e-17 6.57297e-20 8.26143e-17)
(0 0 0)
(0 0 -1.9367e-27)
(0 0 0)
(0 0 -1.61364e-25)
(0 0 0)
(0 0 0)
(0 0 0)
(0 -7.38664e-16 0)
(0 1.11367e-14 0)
(0 4.56496e-15 0)
(0 0 5.30353e-26)
(0 0 -4.72029e-18)
(0 -5.74896e-16 -3.39295e-21)
(0 0 0)
(0 0 0)
(0 0 -4.01778e-16)
(0 4.49102e-15 9.78252e-16)
(0 -5.15266e-21 -1.68021e-15)
(0 0 0)
(0 0 0)
(0 4.55838e-15 5.19737e-15)
(0 6.13213e-29 2.02693e-15)
(-3.90616e-18 -5.98221e-17 -1.64825e-15)
(0 1.65798e-23 1.65991e-15)
(0 -1.15752e-24 3.14625e-15)
(0 0 0)
(0 0 0)
(0 0 0)
(0 0 0)
(0 0 0)
(0 0 0)
(0 0 0)
(0 0 0)
(0 -5.7444e-16 0)
(0 0 0)
(0 0 0)
(0 0 0)
(0 0 0)
(0 0 0)
(0 0 0)
(0 0 0)
(0 0 0)
(3.76324e-15 0 -4.91765e-15)
(-2.21366e-15 3.3721e-28 1.33859e-14)
(0 6.47679e-34 1.36203e-14)
(0 4.91253e-32 1.62546e-14)
(0 0 0)
(0 0 0)
(0 0 0)
(0 0 0)
(0 1.07891e-14 0)
(0 3.0112e-24 0)
(0 3.47595e-23 0)
(0 1.11047e-14 8.60234e-16)
(0 1.00672e-14 0)
(0 7.84984e-23 0)
(0 1.22653e-21 0)
(0 0 -3.00386e-17)
(0 0 0)
(0 0 0)
(0 0 4.58939e-17)
(0 -4.49174e-17 1.52881e-15)
(0 7.92209e-31 1.23889e-14)
(0 1.26161e-29 1.34314e-14)
(0 0 0)
(0 -5.89447e-16 1.20453e-19)
(-1.77175e-16 1.56257e-31 1.38519e-14)
(0 0 0)
(0 0 0)
(0 0 0)
(0 0 0)
(0 0 0)
(0 0 0)
(0 0 0)
(0 0 0)
(0 1.08062e-14 1.02653e-15)
(0 0 1.30834e-14)
(0 0 1.66129e-14)
(0 1.97853e-22 1.3681e-14)
(0 -3.47397e-30 0)
(0 -2.21934e-28 0)
(0 0 0)
(0 0 0)
(0 0 0)
(0 0 0)
(0 0 0)
(0 0 0)
(0 0 0)
(0 0 0)
(0 0 0)
(0 0 0)
(0 0 0)
(0 0 0)
(0 0 0)
(0 0 0)
(0 0 0)
(0 0 0)
(0 0 0)
(0 0 0)
(0 0 0)
(0 0 0)
(0 0 0)
(0 0 0)
(0 0 0)
(0 0 0)
(0 0 0)
(0 0 0)
(0 0 0)
(0 0 0)
(0 0 0)
(0 0 0)
(0 0 0)
(0 0 0)
(0 0 0)
(0 0 0)
(0 0 0)
(0 0 0)
(0 0 0)
(0 0 0)
(0 0 0)
(0 0 0)
(0 0 0)
(0 0 0)
(0 0 0)
(0 0 0)
(0 0 0)
(0 0 0)
(0 0 0)
(0 0 0)
(0 0 0)
(0 0 0)
(0 0 0)
(0 0 0)
(0 0 0)
(0 0 0)
(0 0 -1.87885e-24)
(0 0 0)
(0 0 0)
(0 0 0)
(0 0 0)
(0 0 0)
(0 0 0)
(0 0 0)
(0 0 0)
(0 0 0)
(0 0 0)
(0 0 0)
(0 0 0)
(0 0 0)
(0 0 0)
(0 0 0)
(0 0 0)
(0 0 0)
(0 0 0)
(0 0 0)
(0 0 0)
(0 0 0)
(0 0 0)
(0 0 0)
(0 0 0)
(0 0 0)
(0 0 0)
(0 0 0)
(0 0 0)
(0 0 0)
(0 0 0)
(0 0 0)
(0 0 0)
(0 0 0)
(0 0 0)
(0 0 0)
(0 0 0)
(0 0 0)
(0 0 0)
(0 0 0)
(0 0 0)
(0 0 0)
(0 0 0)
(0 0 0)
(0 0 0)
(0 0 0)
(0 0 0)
(0 0 0)
(0 0 0)
(0 0 0)
(0 0 0)
(0 0 0)
(0 0 0)
(0 0 0)
(0 0 0)
(0 0 0)
(0 0 0)
(0 0 0)
(0 0 1.10109e-14)
(0 0 0)
(0 0 0)
(0 0 0)
(0 0 -1.22534e-15)
(0 0 0)
(0 0 0)
(0 0 0)
(0 3.00957e-21 0)
(0 4.57641e-20 0)
(0 0 6.25097e-19)
(0 0 4.0898e-20)
(0 3.35655e-20 -3.47674e-20)
(0 9.65533e-19 -1.93994e-22)
(0 1.48986e-26 0)
(0 3.17612e-32 0)
(0 2.51518e-30 -1.98348e-15)
(0 0 1.36796e-17)
(0 3.32107e-25 1.49243e-16)
(0 0 6.99878e-17)
(0 8.04997e-25 1.85021e-15)
(0 4.52438e-21 -2.19963e-15)
(0 -2.62578e-28 0)
(0 -4.56426e-27 4.62514e-21)
(0 0 6.9611e-18)
(0 -1.25013e-25 2.59804e-16)
(0 -2.90789e-27 2.8288e-19)
(0 -8.95034e-26 6.4754e-18)
(0 0 0)
(0 0 0)
(0 0 0)
(0 0 0)
(0 0 0)
(0 0 0)
(0 0 0)
(0 0 0)
(0 0 0)
(0 0 0)
(0 0 0)
(0 0 0)
(0 0 0)
(0 0 0)
(0 0 0)
(0 0 0)
(0 0 0)
(0 0 0)
(0 0 0)
(0 0 0)
(0 0 0)
(0 -7.94083e-17 1.06733e-14)
(0 0 3.2577e-15)
(0 -5.74365e-21 -4.89849e-16)
(0 -3.18943e-19 -9.42622e-15)
(0 0 1.05419e-15)
(0 0 -4.71647e-18)
(0 0 -7.04055e-15)
(0 0 0)
(0 0 3.00226e-19)
(0 0 -7.34277e-17)
(0 0 -8.1092e-16)
(0 0 2.07895e-15)
(0 0 0)
(0 0 1.05517e-17)
(0 1.63191e-29 0)
(0 3.6854e-28 0)
(0 5.74757e-28 2.44707e-23)
(0 9.68419e-27 3.95495e-22)
(0 -1.2544e-19 -1.34802e-14)
(0 0 1.41631e-14)
(0 6.67662e-27 0)
(0 1.18691e-25 4.78693e-21)
(0 0 0)
(0 0 -5.88378e-15)
(0 0 0)
(0 0 1.14788e-19)
(0 0 0)
(0 0 0)
(0 0 0)
(0 0 3.46635e-19)
(0 0 0)
(0 0 -1.11363e-14)
(0 0 0)
(0 0 1.64355e-19)
(0 0 3.11935e-15)
(0 0 4.33762e-25)
(0 0 9.82895e-15)
(0 0 0)
(0 0 -2.30368e-19)
(0 0 -2.53854e-20)
(0 0 -4.11811e-21)
(0 0 -3.24235e-20)
(0 0 0)
(0 0 -4.25301e-15)
(0 0 0)
(-3.25081e-21 6.41968e-29 2.1776e-14)
(0 0 0)
(0 0 0)
(0 0 0)
(0 0 0)
(0 0 0)
(0 0 0)
(0 0 0)
(0 0 0)
(0 -6.91122e-15 0)
(0 0 0)
(0 0 0)
(-1.26977e-21 2.33514e-28 1.75503e-15)
(0 -6.83891e-15 -1.10257e-23)
(0 0 0)
(-1.16802e-24 1.22913e-26 1.40443e-14)
(0 0 0)
(0 0 0)
(0 0 0)
(0 0 0)
(0 0 0)
(0 0 0)
(0 0 0)
(0 0 0)
(0 0 0)
(0 0 0)
(0 0 0)
(0 0 0)
(0 0 0)
(0 0 0)
(0 0 0)
(0 0 0)
(0 0 0)
(0 0 0)
(0 0 0)
(-1.44516e-22 -1.61542e-17 -6.13618e-16)
(0 4.57121e-15 0)
(0 0 0)
(0 0 0)
(0 0 1.10753e-25)
(-6.12344e-19 4.50144e-15 -4.96317e-16)
(-4.16633e-15 4.28635e-15 2.55278e-15)
(0 0 0)
(0 0 0)
(0 0 0)
(-9.16555e-16 1.17725e-26 1.40063e-14)
(-1.49374e-16 2.15688e-30 1.76823e-14)
(-7.08277e-24 2.67022e-24 0)
(0 4.54626e-23 -1.00944e-17)
(-1.77305e-19 9.87101e-15 0)
(0 9.86256e-15 0)
(0 3.67777e-20 0)
(0 2.37012e-19 0)
(0 0 0)
(0 0 0)
(0 0 0)
(0 0 0)
(0 0 0)
(0 0 0)
(0 0 0)
(0 2.57514e-18 0)
(-7.17216e-19 0 1.30834e-14)
(2.18127e-24 1.04936e-15 -2.13976e-15)
(-5.02501e-19 3.83107e-21 1.21174e-14)
(-3.12531e-21 9.45363e-16 1.4025e-14)
(-1.52929e-17 -3.82368e-27 0)
(1.82501e-22 -5.99245e-28 9.6515e-17)
(0 0 0)
(0 0 0)
(0 0 0)
(0 0 0)
(0 0 0)
(0 0 0)
(0 0 0)
(0 0 0)
(0 2.55417e-23 0)
(0 0 0)
(0 0 0)
(0 0 0)
(0 0 0)
(0 0 0)
(0 0 0)
(0 4.20404e-22 0)
(0 0 0)
(0 2.03931e-16 0)
(0 0 0)
(0 0 0)
(0 0 0)
(0 0 0)
(0 0 0)
(0 0 0)
(0 0 0)
(0 0 0)
(0 0 0)
(0 0 0)
(0 0 0)
(0 0 0)
(0 0 0)
(0 0 0)
(0 0 0)
(0 0 0)
(0 0 0)
(0 0 2.97853e-16)
(0 1.77472e-17 0)
(0 2.40539e-16 0)
(0 0 0)
(0 0 0)
(0 0 0)
(0 0 0)
(0 0 -1.44949e-16)
(-5.17928e-18 0 0)
(0 1.51341e-18 0)
(0 1.16633e-17 4.40276e-19)
(-2.62748e-16 0 6.76015e-25)
(0 3.71455e-17 1.11466e-25)
(0 4.08867e-16 1.00084e-26)
(0 6.28965e-25 0)
(0 8.19744e-29 -1.26281e-14)
(0 2.60092e-23 6.02634e-20)
(0 2.61228e-23 1.61842e-14)
(0 1.06451e-19 -1.72378e-14)
(0 -1.00723e-25 4.49866e-20)
(-4.42422e-17 -1.30281e-24 3.04648e-15)
(-5.25603e-17 -1.79407e-24 8.7052e-17)
(-1.90672e-19 2.08455e-27 2.07559e-24)
(-1.30456e-19 -1.54981e-26 5.55414e-19)
(-2.54998e-15 6.7622e-22 -7.40402e-16)
(0 -7.59036e-15 0)
(0 0 0)
(0 0 0)
(0 0 0)
(0 0 0)
(0 0 0)
(0 0 0)
(0 0 0)
(0 0 0)
(-1.84553e-19 3.08063e-35 0)
(-1.82157e-17 2.7905e-55 3.73776e-20)
(-1.84856e-17 9.60493e-26 5.11258e-19)
(-1.88906e-19 1.79945e-18 9.17621e-23)
(-7.0316e-17 -6.34351e-25 1.83613e-19)
(-5.4765e-17 -5.44954e-25 4.04482e-18)
(0 -2.17393e-18 -1.20604e-16)
(-5.55256e-27 -2.70713e-15 5.44441e-19)
(0 0 1.79964e-16)
(-2.41836e-22 1.7407e-25 0)
(-7.79744e-20 1.27811e-24 7.78457e-23)
(0 0 0)
(0 8.11993e-15 0)
(0 0 0)
(0 0 -1.26346e-16)
(0 4.11678e-41 -3.56382e-16)
(0 0 2.49217e-17)
(-1.20669e-15 0 -1.27394e-15)
(0 8.12604e-15 -2.21734e-17)
(-2.77387e-16 -1.8098e-35 7.2126e-15)
(0 0 -2.46535e-16)
(-2.88392e-16 1.40704e-18 -3.20897e-17)
(-1.33965e-18 2.04613e-17 2.22117e-21)
(-2.92003e-20 -5.5545e-28 -9.08544e-17)
(-2.21849e-20 -3.08299e-26 3.46047e-18)
(-1.32461e-19 2.09938e-16 2.15189e-16)
(0 0 5.77804e-17)
(-1.2067e-15 3.5629e-18 2.20368e-15)
(-1.2067e-15 5.7081e-17 2.20368e-15)
(-1.2067e-15 0 2.20368e-15)
(0 0 0)
(0 1.03318e-40 0)
(-1.2067e-15 0 2.20368e-15)
(-1.20576e-15 0 1.83568e-15)
(-1.20719e-15 0 1.79872e-15)
(0 1.98525e-22 0)
(-1.18547e-15 0 1.80526e-15)
(0 1.61107e-35 -2.67308e-15)
(-1.11699e-15 0 5.17966e-15)
(0 3.47886e-33 0)
(0 0 0)
(0 0 0)
(0 0 -2.8543e-15)
(0 0 0)
(0 0 -2.4695e-14)
(0 0 4.9582e-15)
(0 0 2.37295e-16)
(0 0 6.22013e-19)
(0 0 0)
(0 0 2.75444e-15)
(0 0 -1.18655e-14)
(0 0 1.61395e-14)
(0 0 -1.43011e-14)
(0 0 -5.68108e-16)
(0 2.88302e-39 1.89161e-14)
(0 0 3.28699e-15)
(-1.2067e-15 1.14135e-15 -1.28569e-15)
(0 8.24949e-40 1.01944e-16)
(-1.2067e-15 0 -1.62001e-15)
(-1.2067e-15 0 1.9723e-15)
(0 2.2519e-37 2.53638e-15)
(0 5.32032e-39 -3.4588e-15)
(-1.2067e-15 0 -4.86971e-15)
(0 0 1.29931e-14)
(0 1.52001e-35 9.79711e-15)
(0 2.24325e-37 -8.4981e-15)
(0 0 -1.39009e-14)
(0 2.09149e-15 -6.83456e-16)
(0 0 -8.16857e-16)
(0 0 3.70523e-15)
(0 0 0)
(0 0 1.59575e-14)
(0 0 -1.16825e-14)
(0 0 2.97858e-16)
(0 0 4.58036e-18)
(0 -7.16483e-35 2.86467e-16)
(0 0 8.96419e-16)
(0 0 -3.83362e-16)
(0 0 3.25331e-15)
(0 0 2.66019e-17)
(0 0 4.76366e-15)
(0 0 -1.1641e-14)
(0 0 1.62984e-14)
(0 0 -5.64917e-16)
(0 0 -1.18563e-14)
(0 8.77327e-34 -1.24485e-14)
(0 0 1.34912e-14)
(0 4.05577e-32 1.42721e-14)
(0 9.95886e-21 -3.62758e-16)
(-1.19365e-15 0 -3.13089e-15)
(0 1.4879e-19 -3.13548e-17)
(-1.20669e-15 0 2.15207e-15)
(0 1.91929e-30 2.28617e-15)
(0 1.05589e-31 -3.76092e-15)
(-1.18153e-15 0 -4.50924e-15)
(0 0 1.48286e-14)
(0 2.5093e-29 9.95458e-15)
(0 1.37516e-30 -1.16484e-14)
(0 0 -1.18964e-14)
(0 0 0)
(0 0 0)
(0 0 0)
(0 0 0)
(0 0 0)
(0 0 -2.71273e-19)
(0 0 0)
(0 0 0)
(-1.41993e-18 -9.06796e-33 1.94714e-15)
(-4.60019e-19 0 1.77183e-15)
(-3.84995e-20 0 3.43224e-30)
(0 0 0)
(-3.97351e-20 2.29989e-56 1.23607e-21)
(0 0 0)
(0 0 0)
(0 0 0)
(0 0 0)
(0 -4.82716e-34 1.44283e-14)
(0 0 0)
(0 0 0)
(0 0 0)
(0 0 0)
(3.84023e-15 -7.95777e-15 0)
(0 0 0)
(0 0 4.91769e-17)
(0 0 -2.94465e-18)
(0 0 -5.53324e-19)
(0 -8.72225e-15 -1.33096e-14)
(0 6.16961e-36 0)
(-1.34349e-23 0 2.95551e-16)
(7.69068e-15 7.76387e-24 1.46002e-14)
(0 0 0)
(0 0 0)
(0 0 0)
(0 0 4.33072e-15)
(0 0 0)
(0 0 0)
(0 0 -3.51286e-16)
(0 0 0)
(0 0 0)
(0 0 -3.13419e-16)
(0 1.74872e-34 -4.57656e-16)
(0 0 4.40136e-15)
(0 0 0)
(0 0 0)
(0 0 1.79977e-16)
(0 0 0)
(0 0 0)
(0 0 0)
(0 0 5.02964e-15)
(0 0 5.09656e-17)
(0 1.04912e-14 -3.07414e-15)
(-2.69993e-16 9.25656e-18 1.57151e-14)
(-1.11132e-15 1.31715e-33 0)
(-7.63174e-15 0 1.61103e-14)
(-1.076e-14 0 -1.61103e-14)
(-1.00586e-14 6.18686e-25 1.99962e-18)
(-1.05312e-14 3.09437e-23 2.61136e-18)
(-7.43736e-17 1.04303e-25 0)
(-9.72706e-19 3.42087e-24 5.21815e-20)
(0 0 0)
(0 0 0)
(0 0 0)
(0 0 0)
(0 0 0)
(0 0 2.27327e-17)
(0 0 1.00317e-17)
(0 0 6.77318e-20)
(0 0 0)
(0 0 0)
(0 0 0)
(0 -2.29244e-38 -1.98191e-14)
(0 0 -7.71292e-17)
(0 -1.15052e-33 -7.85058e-17)
(0 0 0)
(0 0 0)
(0 0 0)
(0 0 0)
(0 0 0)
(0 0 0)
(0 0 0)
(0 -8.82182e-15 1.41045e-14)
(7.78884e-17 0 -7.56592e-19)
(0 0 2.55786e-18)
(0 -4.10149e-32 0)
(0 0 1.28758e-16)
(0 0 -9.82048e-17)
(0 -9.68179e-28 -3.30754e-17)
(0 6.05508e-21 1.24462e-18)
(0 0 0)
(0 7.69532e-20 0)
(0 0 0)
(0 0 -2.47646e-15)
(0 0 3.43128e-15)
(0 0 0)
(0 -8.72225e-15 -3.60609e-16)
(0 0 0)
(0 0 -4.86891e-17)
(0 -1.02103e-26 0)
(0 0 -2.44773e-16)
(0 0 -1.73926e-15)
(0 0 -8.16809e-16)
(0 0 0)
(0 0 0)
(0 0 2.19853e-14)
(0 0 0)
(0 0 0)
(0 0 5.01682e-16)
(0 0 0)
(0 2.6407e-39 0)
(0 2.57878e-37 0)
(7.45591e-18 0 0)
(0 0 -1.25421e-15)
(0 0 0)
(7.23101e-18 0 0)
(0 0 0)
(0 0 -2.27378e-14)
(0 0 4.82647e-15)
(0 0 1.12134e-14)
(0 0 0)
(0 0 -3.65115e-15)
(0 0 1.42599e-14)
(0 0 -1.43551e-14)
(0 0 0)
(0 9.74805e-36 3.24981e-16)
(0 0 0)
(0 3.29488e-34 0)
(7.23451e-18 0 0)
(0 0 0)
(0 0 3.56915e-15)
(6.9828e-18 0 0)
(0 0 0)
(0 0 -1.20181e-14)
(0 0 1.89062e-14)
(0 0 0)
(0 0 -1.54411e-14)
(0 0 -5.01682e-16)
(0 0 1.89161e-14)
(0 0 0)
(0 0 0)
(0 0 0)
(0 0 0)
(0 0 0)
(0 0 -1.32063e-15)
(0 0 3.37404e-16)
(0 0 1.37068e-16)
(0 0 -2.13329e-16)
(0 0 3.31497e-15)
(0 0 2.0832e-15)
(0 0 -3.39616e-15)
(0 0 -2.79129e-15)
(0 0 1.30498e-14)
(0 0 9.71704e-15)
(0 0 -8.52033e-15)
(0 0 -1.38366e-14)
(0 0 -2.87049e-17)
(0 0 0)
(0 0 0)
(0 0 0)
(0 0 -2.40486e-15)
(0 0 0)
(0 0 2.86631e-15)
(0 0 0)