/*--------------------------------*- C++ -*----------------------------------*\
  =========                 |
  \\      /  F ield         | OpenFOAM: The Open Source CFD Toolbox
   \\    /   O peration     | Website:  https://openfoam.org
    \\  /    A nd           | Version:  9
     \\/     M anipulation  |
\*---------------------------------------------------------------------------*/
FoamFile
{
    format      ascii;
    class       volScalarField;
    location    "0.00035";
    object      overpressureMax;
}
// * * * * * * * * * * * * * * * * * * * * * * * * * * * * * * * * * * * * * //

dimensions      [1 -1 -2 0 0 0 0];

internalField   nonuniform List<scalar> 
4972
(
6.78435e+06
6.66823e+06
2.72543e+08
9.79278e+06
6.19562e+06
9.03212e+07
2.91029e+08
6.37377e+06
1.06726e+07
6.63996e+06
1.21694e+07
6.32207e+06
3.30032e+07
9.09555e+06
6.14808e+06
2.63912e+08
6.73089e+06
7.03437e+06
1.41161e+07
7.59167e+06
1.02876e+07
5.42703e+06
5.21304e+06
9.16846e+06
6.11152e+06
2.84555e+08
1.71794e+07
2.63267e+08
5.27959e+06
4.09392e+06
5.07252e+07
1.00359e+07
1.19966e+07
5.3247e+06
9.36766e+07
7.98692e+06
5.72189e+06
7.78283e+06
3.44709e+06
6.13743e+06
4.21194e+06
6.02937e+06
5.21911e+06
4.36776e+06
3.44291e+06
3.87414e+06
4.17166e+06
3.62043e+06
1.71186e+07
1.6805e+07
6.8003e+06
9.44652e+06
3.12213e+07
1.20932e+07
6.78012e+06
9.4639e+06
4.59015e+06
6.41178e+06
6.03465e+06
5.43023e+06
5.63448e+06
5.89221e+06
4.26069e+07
5.07105e+07
4.07794e+07
9.96726e+09
3.00244e+08
1.13185e+08
1.44607e+07
2.06432e+07
2.50247e+07
7.47959e+06
8.71364e+06
8.23897e+07
1.01541e+07
1.49219e+07
5.24182e+06
1.04039e+07
7.07776e+06
6.19136e+06
7.0273e+06
5.871e+06
7.04321e+06
7.28998e+06
2.37623e+07
2.2381e+07
9.55187e+06
1.45913e+07
1.00706e+07
1.05816e+07
3.93253e+07
3.81465e+07
5.42188e+07
9.29214e+09
1.04906e+08
2.6614e+08
1.41303e+07
5.96049e+06
7.14343e+06
5.27188e+06
1.05309e+07
7.11837e+06
7.08574e+06
6.33771e+06
7.5328e+06
1.06789e+07
8.93002e+06
2.1443e+07
2.51626e+07
8.72547e+07
1.47646e+07
6.18994e+06
6.87256e+06
4.97966e+06
6.2068e+06
5.29994e+06
9.10672e+06
6.074e+06
6.44318e+06
9.3003e+06
8.34227e+06
2.11738e+07
8.69243e+06
1.85097e+07
7.58983e+07
1.50014e+07
6.31979e+06
1.01007e+07
1.48749e+07
9.5065e+06
2.85935e+07
6.31123e+06
1.18335e+07
2.26517e+08
4.38543e+07
3.30918e+07
1.00121e+10
1.19619e+08
2.26508e+08
1.94758e+07
6.20922e+06
2.2766e+07
8.58297e+06
9.72954e+06
8.18567e+07
1.1842e+07
1.51113e+07
6.09352e+06
1.48696e+07
9.35581e+06
3.2652e+07
9.38074e+06
6.15647e+06
3.39119e+07
4.64417e+07
3.36596e+07
1.14025e+10
1.17207e+08
2.63912e+08
1.05734e+07
1.2018e+07
6.71167e+06
1.7179e+07
1.66642e+07
9.46643e+06
2.81815e+07
6.72718e+06
5.23933e+06
7.04725e+06
6.998e+06
1.0328e+07
6.18572e+06
5.86369e+06
6.17615e+06
3.93726e+07
5.41957e+07
2.6615e+08
3.78354e+07
9.29214e+09
1.04312e+08
2.90976e+08
1.49461e+07
1.09609e+07
2.53228e+07
2.12644e+07
9.32194e+06
1.09207e+07
9.53119e+07
9.59586e+06
7.56328e+06
1.15275e+07
2.38279e+07
2.39661e+07
1.0043e+08
1.47989e+07
6.20671e+06
4.31835e+06
4.06261e+06
1.09781e+07
4.65288e+06
4.54072e+06
7.14051e+06
1.85707e+07
1.81e+07
5.03973e+06
4.01019e+06
2.73414e+07
5.38194e+06
1.20006e+07
1.1215e+07
2.18791e+07
9.78539e+06
7.17034e+06
1.41394e+07
2.31025e+07
9.20262e+07
3.99698e+06
5.0436e+06
4.09735e+06
6.56331e+06
4.33618e+06
1.07625e+07
4.49423e+06
4.73622e+07
3.94869e+07
1.28522e+07
3.97996e+07
9.75628e+09
2.84552e+08
1.18133e+08
1.13795e+07
4.918e+06
5.41408e+06
1.75102e+07
3.76684e+06
2.80567e+07
5.41943e+06
3.64718e+07
5.43404e+07
3.62519e+07
9.14893e+09
2.63271e+08
1.04882e+08
1.44661e+07
1.66405e+07
1.64779e+07
4.90591e+06
3.85097e+06
2.87216e+07
5.18793e+06
1.11622e+07
9.90592e+06
5.12775e+06
4.37074e+06
3.85585e+06
5.89618e+06
4.34746e+06
6.76457e+06
3.00255e+08
1.4455e+07
4.29143e+07
4.06236e+07
9.96726e+09
2.72532e+08
1.13185e+08
2.37835e+07
7.26172e+06
1.4563e+07
2.19571e+07
9.28762e+06
8.9103e+07
1.05073e+07
1.86586e+07
5.06445e+06
5.36254e+06
1.78867e+07
4.01471e+06
2.73526e+07
5.32518e+06
6.91922e+06
4.21907e+06
4.61257e+06
1.03782e+07
3.89048e+06
5.79564e+06
4.32277e+06
7.58952e+06
2.14967e+07
2.53403e+07
9.29335e+06
1.49679e+07
1.09331e+07
1.09523e+07
6.34636e+06
5.73017e+06
1.21728e+07
4.60067e+06
7.83765e+06
6.17685e+06
4.83494e+06
4.01983e+06
5.10002e+06
7.13996e+06
3.86386e+06
5.75143e+06
4.05668e+06
5.7258e+06
5.81279e+06
5.77879e+06
1.13197e+07
4.46348e+06
8.08583e+06
6.03831e+06
4.89786e+06
5.33622e+06
1.03376e+07
4.60448e+06
3.89781e+06
6.91873e+06
5.85468e+06
4.22189e+06
4.01759e+06
5.06716e+06
6.94262e+06
3.79856e+06
5.34156e+06
5.62858e+06
4.07931e+06
3.43328e+08
1.82814e+08
1.68306e+08
1.09854e+09
1.28149e+08
9.20628e+08
5.51524e+08
2.50744e+07
6.50144e+07
6.99168e+07
3.68538e+07
5.17758e+07
2.8129e+07
3.10648e+07
3.78758e+08
1.72564e+08
2.13257e+08
1.68566e+09
7.40517e+08
5.32542e+08
1.42251e+08
1.12398e+08
2.68184e+07
7.28724e+07
5.28255e+07
5.602e+07
4.25568e+07
1.52533e+08
2.52807e+08
1.64483e+08
1.42047e+08
1.01237e+09
5.5893e+08
1.38324e+09
9.87112e+07
8.2891e+07
2.29143e+07
2.44909e+07
2.26631e+07
4.38077e+07
3.6204e+07
4.44982e+07
1.54352e+07
1.08073e+07
9.22202e+06
1.67257e+07
9.67679e+06
1.50011e+07
1.75279e+07
3.57568e+08
1.92726e+08
1.7512e+08
1.1401e+09
1.28428e+08
1.36494e+09
5.71204e+08
1.0616e+07
1.64399e+07
9.07888e+06
2.25735e+07
8.46466e+06
2.13704e+07
1.00037e+07
3.49926e+08
1.89488e+08
1.58394e+08
1.6981e+09
5.01361e+08
1.36122e+09
1.31358e+08
1.61737e+08
1.02914e+08
3.79684e+07
9.86909e+07
7.39538e+07
3.44503e+08
7.24044e+07
2.82495e+07
7.27661e+07
7.74385e+07
3.78309e+07
3.31562e+07
5.90813e+07
3.13617e+07
1.19501e+07
2.38063e+07
1.80086e+07
9.19361e+06
2.39231e+07
9.13412e+06
1.06155e+07
1.20262e+07
9.08533e+06
2.31006e+07
1.76921e+07
9.18557e+06
2.37857e+07
1.04661e+07
7.54626e+06
9.01937e+06
5.82308e+06
9.05104e+06
6.444e+06
6.43916e+06
8.43671e+06
1.25935e+07
2.94236e+07
2.92478e+07
1.14124e+07
2.72662e+07
1.15099e+07
1.17388e+07
1.45641e+08
9.87738e+07
6.4635e+07
3.59467e+07
7.5897e+07
5.5256e+07
1.86013e+08
1.61735e+08
9.86953e+07
1.02856e+08
3.79682e+07
7.23859e+07
3.44503e+08
7.39522e+07
1.45708e+08
9.00742e+07
6.31785e+07
3.47888e+07
7.31923e+07
5.42866e+07
1.84502e+08
8.3466e+08
9.88716e+09
6.45441e+09
5.58567e+09
9.87998e+09
2.02814e+09
1.33109e+09
3.47744e+08
1.97359e+08
2.00533e+08
1.57308e+09
7.05293e+08
1.4082e+08
5.46012e+08
2.40325e+08
8.03155e+07
8.24269e+07
5.00482e+08
7.26011e+07
3.26685e+08
4.04486e+08
8.45163e+07
2.33594e+07
2.37583e+07
2.29644e+07
4.38488e+07
4.4445e+07
3.62984e+07
1.9423e+07
3.96846e+07
1.3227e+07
1.9603e+07
3.61974e+07
1.31295e+07
1.94934e+07
1.89696e+07
1.381e+07
4.36779e+07
2.29179e+07
1.34515e+07
1.87443e+07
3.98622e+07
1.44704e+07
8.9818e+06
1.54134e+07
1.00469e+07
1.42681e+07
1.56745e+07
9.21351e+06
2.32383e+07
6.50061e+07
6.4468e+07
3.32547e+07
2.65271e+07
5.13542e+07
2.81064e+07
1.82984e+07
4.17084e+07
1.99424e+07
1.33161e+07
3.57585e+07
1.90784e+07
1.226e+07
2.07338e+07
4.2089e+07
2.15169e+07
1.39173e+07
3.79307e+07
1.37692e+07
2.09396e+07
1.59378e+07
1.71855e+07
1.00521e+07
1.09964e+07
1.58701e+07
1.01278e+07
1.71555e+07
1.45298e+08
6.36553e+07
8.78034e+07
3.4583e+07
5.63569e+07
7.14827e+07
1.8148e+08
1.46165e+08
8.69578e+07
6.10367e+07
3.39636e+07
5.57012e+07
1.77213e+08
7.30223e+07
1.71171e+08
1.09479e+08
1.06259e+08
4.18273e+07
3.47479e+08
7.70754e+07
7.94963e+07
8.9616e+08
4.32283e+09
3.19226e+09
9.9548e+09
9.87953e+09
2.59294e+09
2.65306e+09
2.64638e+08
8.90674e+07
8.69342e+07
1.03731e+09
8.17712e+07
3.67468e+08
3.47157e+08
3.66554e+08
1.61117e+08
1.99756e+08
1.07986e+09
7.21317e+08
1.32261e+08
4.96441e+08
8.28738e+07
2.29024e+07
2.27166e+07
2.45036e+07
3.61792e+07
4.38027e+07
4.45589e+07
1.5675e+07
1.01568e+07
9.89958e+06
1.58907e+07
9.81388e+06
1.59335e+07
1.62204e+07
2.05553e+07
1.35386e+07
4.10517e+07
2.10543e+07
3.78713e+07
1.37225e+07
2.00709e+07
1.98501e+07
1.43636e+07
4.65477e+07
2.18267e+07
3.92759e+07
2.13706e+07
1.34111e+07
2.54555e+07
3.47082e+07
6.6026e+07
7.17054e+07
5.33014e+07
2.88642e+07
3.08122e+07
1.27967e+07
9.36947e+06
8.33423e+06
1.44356e+07
8.28093e+06
1.44864e+07
1.32022e+07
1.53953e+07
1.72963e+07
1.21856e+07
3.56074e+07
1.07643e+07
3.00059e+07
1.6563e+07
1.65627e+07
1.68064e+07
1.20226e+07
3.54934e+07
1.79178e+07
1.13465e+07
2.97435e+07
2.02127e+07
3.10333e+07
5.48315e+07
5.70911e+07
2.57348e+07
4.05541e+07
2.41398e+07
9.9081e+06
8.43605e+06
1.42171e+07
2.04804e+07
7.82879e+06
1.85509e+07
9.89472e+06
9.75897e+06
1.41834e+07
2.04385e+07
8.19491e+06
9.61942e+06
7.70374e+06
1.85311e+07
6.75605e+06
9.08041e+06
5.62904e+06
9.04163e+06
6.14478e+06
6.24003e+06
8.50169e+06
1.0429e+07
2.62695e+07
2.6283e+07
1.0912e+07
1.06632e+07
2.15173e+07
1.08772e+07
6.70087e+07
1.85662e+07
1.9657e+07
1.85646e+07
3.51276e+07
3.51257e+07
2.89359e+07
3.39815e+08
1.37163e+08
1.80506e+08
1.51698e+09
9.93021e+07
4.14949e+08
5.3426e+08
1.2147e+08
3.23766e+07
8.19898e+07
8.19864e+07
5.75196e+07
5.75088e+07
3.6777e+08
1.12411e+08
2.68424e+07
5.28449e+07
7.29961e+07
1.52529e+08
5.60671e+07
4.25305e+07
7.5871e+08
9.91076e+09
9.83739e+09
9.91076e+09
1.21028e+09
1.21028e+09
9.94448e+09
2.03169e+08
7.75754e+07
7.76914e+07
5.2426e+08
3.96895e+08
6.22189e+07
3.96895e+08
3.39815e+08
1.80506e+08
1.37162e+08
1.51698e+09
4.14944e+08
9.9303e+07
5.34261e+08
1.64753e+07
1.26925e+07
3.75068e+07
1.68286e+07
1.15007e+07
2.94815e+07
1.82836e+07
1.57627e+07
1.27484e+07
3.88373e+07
1.75503e+07
1.76475e+07
2.97417e+07
1.1008e+07
1.3413e+07
8.73848e+06
1.00001e+07
1.54855e+07
1.38756e+07
1.55047e+07
8.70888e+06
2.08866e+07
6.00388e+07
5.74127e+07
3.31483e+07
2.52787e+07
4.17806e+07
2.7463e+07
9.10325e+06
1.9932e+07
1.3726e+07
8.4077e+06
7.46903e+06
1.6978e+07
9.3243e+06
8.88761e+06
8.2635e+06
1.8709e+07
1.35654e+07
8.77646e+06
1.66013e+07
7.37477e+06
6.07277e+06
8.94468e+06
5.78433e+06
8.92921e+06
5.71614e+06
5.93906e+06
8.3942e+06
9.26738e+06
2.68044e+07
2.2902e+07
1.12424e+07
9.44981e+06
1.92818e+07
1.04072e+07
1.02255e+08
4.91073e+07
7.3846e+07
2.61119e+07
5.36425e+07
3.86305e+07
1.44862e+08
1.23511e+08
8.71002e+07
8.70094e+07
3.18562e+07
5.58969e+07
2.45195e+08
5.59379e+07
1.02265e+08
7.33516e+07
4.85815e+07
2.59337e+07
1.44809e+08
3.84661e+07
5.34779e+07
1.4016e+09
9.94141e+09
9.91197e+09
9.94141e+09
1.57229e+09
1.57229e+09
2.89996e+09
1.71035e+08
6.40326e+07
6.30058e+07
6.37706e+08
4.11046e+08
5.292e+07
4.11046e+08
2.52809e+08
1.42077e+08
1.64448e+08
1.01237e+09
9.86885e+07
5.5893e+08
1.38324e+09
5.90958e+07
1.68444e+07
1.82617e+07
1.68169e+07
3.16582e+07
2.49426e+07
3.16333e+07
1.17997e+07
1.80294e+07
9.1715e+06
2.39401e+07
9.05198e+06
1.05089e+07
2.39945e+07
1.17852e+07
1.75004e+07
2.28222e+07
9.01739e+06
1.02804e+07
9.08824e+06
2.35337e+07
7.34832e+06
9.07956e+06
5.69599e+06
9.00066e+06
6.29456e+06
6.33952e+06
8.45552e+06
1.21939e+07
2.95955e+07
2.90739e+07
1.10954e+07
1.12996e+07
1.12778e+07
2.70057e+07
1.45297e+08
3.46405e+07
8.77222e+07
6.37775e+07
7.14613e+07
1.81477e+08
5.64865e+07
1.7117e+08
4.18157e+07
1.06187e+08
1.09494e+08
7.70487e+07
7.94946e+07
3.47479e+08
3.66554e+08
1.61053e+08
1.99758e+08
1.07986e+09
1.32223e+08
4.96445e+08
7.21317e+08
1.46237e+08
3.37322e+07
6.0835e+07
8.67757e+07
1.77216e+08
5.56732e+07
7.28156e+07
8.9616e+08
9.9548e+09
3.19226e+09
4.32283e+09
2.59294e+09
2.65306e+09
9.87953e+09
2.64638e+08
8.91118e+07
8.45686e+07
1.03731e+09
3.67449e+08
3.47042e+08
8.19274e+07
3.78758e+08
2.1326e+08
1.72578e+08
1.68566e+09
5.32541e+08
1.4232e+08
7.40516e+08
2.12765e+07
2.22912e+07
1.43217e+07
4.82215e+07
1.3744e+07
4.16119e+07
2.18712e+07
2.17466e+07
2.07627e+07
1.37954e+07
4.28029e+07
2.0952e+07
1.38932e+07
3.93487e+07
1.71756e+07
1.03583e+07
1.06468e+07
1.73076e+07
1.72686e+07
1.03496e+07
1.74751e+07
2.84321e+07
7.74564e+07
7.35342e+07
3.83321e+07
3.17623e+07
5.92346e+07
3.3444e+07
1.74502e+07
1.03581e+07
1.14957e+07
1.78713e+07
1.04856e+07
1.74133e+07
1.90346e+07
2.28281e+07
1.51396e+07
4.9288e+07
2.22191e+07
4.16889e+07
1.44788e+07
2.4032e+07
1.98492e+07
1.36234e+07
4.43195e+07
2.02109e+07
3.76625e+07
2.0856e+07
1.25599e+07
2.86249e+07
4.02318e+07
8.41126e+07
7.43016e+07
5.91758e+07
3.23532e+07
3.6248e+07
1.14428e+07
2.38313e+07
9.73126e+06
1.82699e+07
2.29626e+07
9.26986e+06
1.05598e+07
1.15061e+07
9.58295e+06
2.40691e+07
1.80321e+07
2.29004e+07
1.07337e+07
9.21683e+06
6.66724e+06
4.01085e+06
5.31406e+06
4.28066e+06
6.04784e+06
5.35275e+06
4.29932e+06
1.12676e+07
2.63481e+07
2.737e+07
1.03258e+07
2.44282e+07
1.06113e+07
1.06532e+07
1.80793e+07
1.22734e+07
1.96319e+07
4.07535e+07
1.19866e+07
1.81317e+07
3.57248e+07
1.98944e+07
1.49516e+07
2.03295e+07
4.51235e+07
2.21209e+07
1.36501e+07
3.63776e+07
2.47824e+07
3.65228e+07
6.62315e+07
7.2647e+07
2.79186e+07
3.20279e+07
5.26272e+07
1.6047e+08
9.50571e+07
3.74163e+07
9.50617e+07
7.18084e+07
2.79491e+08
7.17961e+07
1.389e+08
9.04118e+07
3.21547e+07
6.10799e+07
6.84963e+07
5.2632e+07
1.84072e+08
7.77844e+07
2.1949e+07
2.09167e+07
2.09456e+07
3.99769e+07
4.00208e+07
3.32957e+07
1.38869e+08
3.23284e+07
9.03456e+07
6.04921e+07
1.83933e+08
6.85787e+07
5.23853e+07
1.5213e+09
9.95405e+09
9.95405e+09
9.84289e+09
1.49206e+09
2.23301e+09
1.49206e+09
3.57568e+08
1.92724e+08
1.749e+08
1.1401e+09
5.71204e+08
1.36494e+09
1.284e+08
2.53307e+08
8.32909e+07
8.33919e+07
4.95755e+08
4.11416e+08
7.4763e+07
4.11416e+08
1.05846e+07
1.66359e+07
2.25412e+07
9.27774e+06
9.92312e+06
8.57486e+06
2.13216e+07
6.94891e+06
4.53283e+06
5.61939e+06
4.42772e+06
6.09835e+06
6.39714e+06
4.70173e+06
1.0997e+07
2.70304e+07
2.71288e+07
1.04696e+07
1.05749e+07
2.42887e+07
1.09141e+07
1.35182e+08
8.17885e+07
5.75405e+07
3.06351e+07
6.9093e+07
4.84751e+07
1.66155e+08
1.77919e+08
1.06127e+08
1.06275e+08
4.46126e+07
8.16282e+07
3.05172e+08
8.15961e+07
1.35234e+08
8.18642e+07
5.76023e+07
3.05627e+07
1.66328e+08
4.85035e+07
6.90672e+07
1.39966e+09
4.3084e+09
4.3084e+09
9.94691e+09
2.64474e+09
3.014e+09
2.64474e+09
3.4993e+08
1.5832e+08
1.8952e+08
1.6981e+09
1.31349e+08
1.36122e+09
5.01362e+08
2.25962e+08
8.21823e+07
8.21985e+07
1.00296e+09
3.34355e+08
6.89167e+07
3.34363e+08
8.45172e+07
2.23316e+07
2.65574e+07
2.23066e+07
4.57574e+07
3.33794e+07
4.57357e+07
1.03174e+07
2.21287e+07
8.9821e+06
1.60625e+07
2.02784e+07
8.40509e+06
1.00581e+07
1.03263e+07
8.95034e+06
2.20095e+07
1.59426e+07
1.01041e+07
2.02125e+07
8.36034e+06
7.13448e+06
4.75732e+06
5.57061e+06
4.32675e+06
4.67458e+06
7.3537e+06
6.05731e+06
1.05159e+07
2.72471e+07
2.71597e+07
1.04559e+07
1.09652e+07
2.28139e+07
1.05209e+07
3.47744e+08
2.00534e+08
1.9722e+08
1.57308e+09
1.40796e+08
7.05292e+08
5.46006e+08
8.45122e+07
2.37596e+07
2.3388e+07
2.29464e+07
4.44888e+07
4.38356e+07
3.62654e+07
1.456e+08
9.88266e+07
3.6187e+07
6.40034e+07
7.60723e+07
1.85878e+08
5.509e+07
1.45742e+08
3.47025e+07
9.01082e+07
6.33553e+07
1.84714e+08
7.31584e+07
5.42659e+07
8.3466e+08
6.45441e+09
9.88716e+09
5.58567e+09
9.87998e+09
2.02814e+09
1.33109e+09
3.43331e+08
1.82812e+08
1.68231e+08
1.09854e+09
9.20627e+08
5.51524e+08
1.28158e+08
2.40322e+08
8.03904e+07
8.24222e+07
5.00482e+08
3.26692e+08
4.04486e+08
7.26387e+07
1.82553e+07
1.33091e+07
1.99468e+07
4.17782e+07
1.22504e+07
1.90922e+07
3.57824e+07
2.05377e+07
2.11706e+07
4.16986e+07
1.36946e+07
2.07095e+07
3.77324e+07
1.35741e+07
1.5742e+07
9.81914e+06
1.69158e+07
1.0657e+07
1.68748e+07
1.57145e+07
9.8969e+06
2.49175e+07
6.52121e+07
6.9448e+07
3.63937e+07
3.07754e+07
2.79725e+07
5.16758e+07
1.13234e+07
1.8435e+07
9.76982e+06
2.3661e+07
9.31786e+06
1.0344e+07
2.28346e+07
1.13589e+07
1.78968e+07
2.39206e+07
9.38977e+06
1.05486e+07
2.28018e+07
9.15761e+06
6.90164e+06
4.39666e+06
5.54404e+06
4.37722e+06
6.08537e+06
6.13427e+06
4.55634e+06
1.12559e+07
2.63881e+07
2.73519e+07
1.03593e+07
1.04567e+07
1.0879e+07
2.43291e+07
2.17485e+07
4.29702e+07
2.09958e+07
1.39274e+07
1.40016e+07
3.95034e+07
2.09006e+07
2.1217e+07
4.82427e+07
2.22989e+07
1.4331e+07
2.19e+07
4.16287e+07
1.3729e+07
1.70966e+07
1.71177e+07
1.0657e+07
1.03918e+07
1.73744e+07
1.03651e+07
1.71391e+07
5.21012e+06
5.17301e+06
7.84287e+06
8.24241e+06
5.92344e+06
7.92638e+06
4.82252e+06
4.49756e+06
5.18579e+06
4.70967e+06
4.37014e+06
5.97984e+06
4.45952e+06
4.79417e+06
4.67792e+06
3.9272e+06
3.74932e+06
3.70391e+06
3.99671e+06
4.44668e+06
4.2331e+06
4.72645e+06
3.87313e+06
3.82231e+06
3.66762e+06
4.34221e+06
4.04718e+06
4.30064e+06
3.80624e+06
4.52566e+06
6.19283e+06
6.62813e+06
4.30924e+06
4.01599e+06
6.86223e+06
3.44039e+06
3.80223e+06
4.55235e+06
3.65323e+06
4.35472e+06
3.99806e+06
3.90486e+06
4.64382e+06
8.13281e+06
4.18085e+06
7.32864e+06
4.20814e+06
7.71044e+06
4.50319e+06
3.85675e+06
4.63981e+06
4.16085e+06
4.02535e+06
4.13714e+06
4.16994e+06
4.42704e+06
2.79007e+06
3.21742e+06
2.52775e+06
6.58366e+06
6.67055e+06
7.86168e+06
3.23092e+06
4.45487e+06
7.8356e+06
2.91044e+06
2.7928e+06
2.57786e+06
3.2458e+06
3.73422e+06
3.90573e+06
4.33425e+06
3.70862e+06
3.76571e+06
3.93726e+06
4.68119e+06
3.46317e+06
4.01496e+06
4.23777e+06
3.66152e+06
4.75875e+06
4.07621e+06
3.82289e+06
3.86056e+06
3.43213e+06
4.3082e+06
4.22914e+06
7.50884e+06
8.20109e+06
4.69541e+06
7.91591e+06
4.28116e+06
4.5279e+06
4.6735e+06
4.16505e+06
4.22592e+06
4.03262e+06
4.17673e+06
3.89038e+06
4.43722e+06
3.1984e+06
3.04333e+06
3.36372e+06
2.76124e+06
3.00043e+06
3.08582e+06
3.48664e+06
3.53039e+06
3.00277e+06
3.52024e+06
3.57009e+06
3.23979e+06
3.25201e+06
3.88104e+06
3.05329e+06
3.18433e+06
3.52718e+06
3.39655e+06
2.77362e+06
3.00033e+06
3.07665e+06
3.5835e+06
3.02941e+06
3.58269e+06
3.55318e+06
3.24343e+06
3.29497e+06
3.93388e+06
3.16825e+06
3.54693e+06
3.67646e+06
3.61091e+06
3.16967e+06
3.19548e+06
3.5432e+06
3.54844e+06
3.93475e+06
6.84572e+06
7.07071e+06
3.66413e+06
7.44494e+06
3.89212e+06
4.13514e+06
7.62683e+06
4.11169e+06
8.15408e+06
4.00557e+06
7.92521e+06
4.33367e+06
3.82307e+06
3.51982e+06
3.82015e+06
3.99122e+06
3.7431e+06
3.54329e+06
4.1552e+06
2.77896e+06
3.19239e+06
2.66668e+06
2.76692e+06
2.88567e+06
2.9429e+06
2.99473e+06
2.70347e+06
3.21916e+06
2.69945e+06
2.80373e+06
2.87525e+06
2.95876e+06
2.99618e+06
6.93342e+06
5.48865e+06
3.86372e+06
3.77714e+06
2.79424e+06
3.06421e+06
3.32986e+06
2.94426e+06
5.87899e+06
5.17187e+06
5.00118e+06
4.11352e+06
3.65242e+06
4.11452e+06
4.03113e+06
7.08554e+06
5.1785e+06
5.85718e+06
4.12368e+06
3.81859e+06
4.17055e+06
4.14982e+06
6.04704e+06
2.71904e+06
3.62e+06
3.95541e+06
4.45026e+06
3.73443e+06
4.48309e+06
3.87753e+06
3.51016e+06
4.0002e+06
3.68516e+06
4.64293e+06
4.05037e+06
4.50498e+06
3.88545e+06
3.51653e+06
2.97493e+06
2.74264e+06
2.98029e+06
3.17315e+06
3.48061e+06
3.44302e+06
3.24536e+06
3.42144e+06
2.66537e+06
3.07306e+06
2.75233e+06
2.97324e+06
3.44004e+06
3.18459e+06
2.52641e+06
2.41704e+06
1.5596e+06
2.43483e+06
3.08767e+06
2.83946e+06
2.1289e+06
2.55814e+06
855891
1.6052e+06
2.43319e+06
2.43576e+06
1.65089e+06
867837
2.98826e+06
3.10177e+06
3.04335e+06
3.36403e+06
3.55773e+06
3.45771e+06
3.26339e+06
3.02733e+06
3.08653e+06
3.50978e+06
3.07403e+06
2.99469e+06
3.46512e+06
3.26673e+06
2.36314e+06
2.40709e+06
2.58824e+06
2.26413e+06
2.11526e+06
2.24013e+06
2.14949e+06
2.31531e+06
2.36844e+06
2.54872e+06
2.29724e+06
2.08246e+06
2.27945e+06
2.12045e+06
2.39426e+06
2.58415e+06
2.59585e+06
2.31867e+06
2.12453e+06
2.1566e+06
2.30825e+06
2.58235e+06
2.40041e+06
2.56447e+06
2.26065e+06
2.13806e+06
2.15981e+06
2.24554e+06
6.4286e+06
6.9178e+06
4.54542e+06
5.68757e+06
6.30267e+06
2.73929e+06
2.58109e+06
6.40389e+06
5.05207e+06
6.03914e+06
4.65802e+06
3.74742e+06
3.38629e+06
3.74852e+06
3.77395e+06
5.06472e+06
5.61748e+06
6.7421e+06
4.04531e+06
3.81694e+06
4.07582e+06
4.07651e+06
4.41108e+06
7.0229e+06
4.59827e+06
3.92556e+06
6.83446e+06
6.40485e+06
4.11203e+06
4.34822e+06
6.34582e+06
4.12653e+06
3.76219e+06
6.83444e+06
3.93716e+06
6.38916e+06
3.41264e+06
3.16538e+06
2.9668e+06
2.78672e+06
3.21205e+06
2.97125e+06
3.43816e+06
3.23001e+06
2.91271e+06
2.66106e+06
2.83859e+06
3.2366e+06
3.01735e+06
2.86926e+06
3.57814e+06
6.59442e+06
3.3542e+06
6.15403e+06
3.27295e+06
6.31309e+06
3.70063e+06
3.48086e+06
6.65661e+06
6.19582e+06
3.3007e+06
3.59053e+06
3.23307e+06
6.33615e+06
5.92398e+06
3.07216e+06
3.0201e+06
2.87577e+06
5.61623e+06
2.92745e+06
5.56128e+06
2.71081e+06
2.71953e+06
2.72197e+06
2.39976e+06
2.42744e+06
2.38346e+06
2.45012e+06
5.93472e+06
5.87481e+06
3.03063e+06
2.9181e+06
5.51544e+06
2.86377e+06
5.51501e+06
2.72371e+06
2.71772e+06
2.39224e+06
2.7118e+06
2.71504e+06
2.39545e+06
2.44466e+06
3.76032e+06
3.92621e+06
6.88596e+06
7.21747e+06
3.72626e+06
3.88717e+06
7.4616e+06
2.88274e+06
3.45157e+06
3.07649e+06
3.23101e+06
3.07008e+06
3.42155e+06
3.22227e+06
2.11692e+06
1.89448e+06
1.63447e+06
1.69371e+06
2.12283e+06
1.91274e+06
1.81543e+06
1.73656e+06
1.62766e+06
1.91496e+06
2.11737e+06
1.70916e+06
1.92359e+06
1.83995e+06
2.01257e+06
1.92029e+06
1.59173e+06
1.72721e+06
1.99542e+06
1.9402e+06
1.72265e+06
2.00387e+06
1.93909e+06
1.61471e+06
2.00902e+06
1.7336e+06
1.94191e+06
1.72219e+06
4.65274e+06
1.96929e+06
2.65502e+06
2.7918e+06
2.8599e+06
2.10256e+06
4.76719e+06
2.12506e+06
2.099e+06
1.4062e+06
1.04867e+06
2.10349e+06
2.1762e+06
1.57662e+06
2.11086e+06
2.114e+06
1.42227e+06
2.12336e+06
1.04323e+06
2.17233e+06
1.57321e+06
2.80488e+06
4.5628e+06
1.81807e+06
2.80005e+06
2.84437e+06
2.06107e+06
4.75383e+06
2.45113e+06
187137
4.35631e+06
2.09242e+06
4.84488e+06
3.25963e+06
2.88769e+06
2.18666e+06
2.30586e+06
5.76057e+06
896776
637076
2.42458e+06
2.38141e+06
6.06027e+06
1.40805e+06
880581
7.3459e+06
2.92878e+06
2.76023e+06
3.17008e+06
2.64938e+06
2.98333e+06
2.85228e+06
2.75755e+06
2.5163e+06
2.66233e+06
2.37737e+06
2.17431e+06
2.46904e+06
2.67838e+06
2.43488e+06
2.19927e+06
7.16668e+06
6.73641e+06
3.88311e+06
3.86665e+06
3.67182e+06
3.72754e+06
6.58107e+06
6.05916e+06
3.05549e+06
5.53654e+06
6.20985e+06
3.42559e+06
3.22475e+06
5.51526e+06
2.62299e+06
2.09675e+06
1.92838e+06
2.40589e+06
2.64345e+06
2.46743e+06
2.17173e+06
2.04262e+06
2.14992e+06
1.90008e+06
2.38516e+06
2.60526e+06
2.59669e+06
2.29097e+06
2.70592e+06
2.37303e+06
2.13657e+06
2.57313e+06
2.82735e+06
2.69487e+06
2.37642e+06
239999
1.54264
0.231315
163.111
0.0329545
272.635
0.0845322
1.47881e+06
1.406e+06
1.95044e+06
2.19225e+06
931011
1.97137e+06
949964
3.59228e+06
3.21189e+06
2.46807e+06
6.05504e+06
3.48021e+06
3.5543e+06
5.63569e+06
4.39727e+06
1.633e+06
2.1217e+06
2.69928e+06
1.20651e+06
958459
3.87055e+06
3.60046e+06
3.77066e+06
2.57289e+06
6.22059e+06
3.54282e+06
3.29681e+06
5.03717e+06
3.73596e+06
4.5014e+06
3.0015e+06
6.78588e+06
3.82095e+06
3.72038e+06
6.02004e+06
2.31281e+06
1.0563e+06
1.0575e+06
922091
926261
73878.6
89996.6
18592.6
652072
22396.3
1.66121e+06
295380
1.56029e+06
280527
905194
1.04028e+06
69406.2
1.0493e+06
87292.8
2.28489e+06
2.07849e+06
2.91526e+06
1.8462e+06
1.1807e+06
1.51601e+06
991912
60887.2
110420
627454
17638
13355.2
1.917e+06
293229
235639
2.67868e+06
923829
1.80501e+06
1.1543e+06
100468
55732.4
2.86128e+06
4.26613e+06
257213
58285.4
51171
5492.08
4503.9
741.611
914.164
174511
35442.5
35176.6
1951.33
2657.05
438.206
340.121
4.16991
351.844
5.73431
5953.45
4987.79
72.1684
93.3401
92.5663
1.09882
69.9724
11.6077
0.269748
0.19355
15.284
160.45
1.62783
2.04861
3303.1
3199.71
39.0396
31.2776
20.8902
0.48763
35.7465
5.88415
0.0416528
0.0830656
3.61463
0.0280866
0.110217
0.0283565
1.04963
0.0470456
0.0411954
1.42747
3.55852
15.495
1633.92
0.00227812
634188
0.00835096
22.6713
0.0072692
0.0295357
0.0288074
442.619
627.041
2177.46
2.07785e+06
1653.45
2.86231e+06
952.477
26.9709
0.0136022
73.2555
2399.44
1.42565e+06
2.14043e+06
1.55983e+06
1137.41
1.90809e+06
0.00934095
0.0126913
30.7117
92.3767
54.6088
1781.44
1.54693e+06
0.0129379
96.3229
0.0064103
2.9304
102.322
78159
470804
0.155124
2.299
0.0176379
0.0383883
533.258
0.464838
16.3197
0.00778789
0.0114791
0.00206241
0.0219411
2.28565e+06
1.05126e+06
1.04356e+06
906675
885484
70266.1
87834.7
2.12929e+06
1.10912e+06
1.04158e+06
965802
892109
77249.4
99218.3
15.1212
86.0165
514.511
0.00304964
0.00784763
0.0174021
0.0110092
1.65692e+06
651230
632859
294253
277209
18303
22281.4
1.59432e+06
682458
612390
307775
261358
18315.5
24008
390517
62145.3
43339.2
10783.5
7797.04
559.282
815.135
4.26665e+06
1.80291e+06
1.15567e+06
1.40938e+06
928199
56118.9
100332
2.02516e+06
210124
721703
141358
579247
27586.5
3589.92
1.28943e+06
66087.3
352318
16174.9
117560
6632.97
826.982
2.66576e+06
888193
621002
289003
232300
13115.5
17333.8
237862
4424.01
18387.5
907.283
3628.15
231.41
52.3318
55509.7
1232.24
45153.5
679.544
28.8778
20.6253
894.219
0.0079759
42.1303
18.7964
0.000146636
5.87728e-05
0.00179773
0.00547176
0.00221987
1.19767
45.321
6.28526e-05
0.000145618
0.00568392
0.0016233
854.648
52740.9
41317.7
1169.28
28.0805
1585.11
19.6006
103591
1634.2
84377
1604.68
47.518
33.6063
2154.4
690.733
60218.4
45736.9
1290.49
30.5953
1767
21.5267
1775.75
115888
91497.7
1762.93
51.4282
36.6881
2391.73
1316.09
60892.3
46856.7
709.413
30.8204
961.377
22.0195
5906.23
70.8368
4900.69
268.169
5.67246
4.08791
349.328
6215.88
69.8402
4724.37
272.709
5.93509
4.1971
369.625
7.76289e+06
5.58564e+06
5.88082e+06
8.16972e+07
6.12684e+06
7.65524e+06
3.96938e+06
3.08654e+06
4.65413e+06
4.71252e+06
1.04824e+07
3.96231e+06
6.1923e+06
4.10525e+06
5.46203e+06
4.54606e+06
6.40389e+06
9.42579e+06
6.02258e+06
5.70119e+06
5.41188e+06
6.65306e+06
6.08061e+06
2.20117e+07
1.95164e+07
8.54646e+06
1.18113e+07
9.72027e+06
9.03261e+06
3.78319e+06
3.45073e+06
3.65832e+06
4.38673e+06
6.55895e+06
5.24568e+06
4.87986e+06
2.08898e+07
5.7541e+07
5.98196e+07
3.31019e+07
4.17593e+07
2.73735e+07
2.53697e+07
1.55815e+07
3.83521e+07
1.72901e+07
1.26324e+07
2.96143e+07
1.08929e+07
1.73259e+07
1.64683e+07
3.74527e+07
1.67576e+07
1.27167e+07
2.93779e+07
1.83234e+07
1.14852e+07
1.33811e+07
1.54696e+07
9.91313e+06
8.71515e+06
1.54299e+07
8.66351e+06
1.38746e+07
4.20748e+06
7.4173e+06
4.45866e+06
4.44097e+06
7.08033e+06
5.00579e+06
7.40752e+06
3.35562e+06
3.69388e+06
3.43916e+06
3.2863e+06
3.54479e+06
3.99536e+06
3.80749e+06
6.58679e+06
3.66274e+06
3.76151e+06
4.094e+06
6.12337e+06
4.05843e+06
6.69229e+06
3.81941e+06
7.82975e+06
4.02284e+06
7.24441e+06
3.84491e+06
4.11076e+06
7.43109e+06
1.97125e+06
300.573
2.36319e+06
7310.58
1.21533e+06
1.81425e+06
2.81535e+06
2.71162e+06
2.6715e+06
2.98794e+06
3.06415e+06
2.8075e+06
2.83919e+06
2.57485e+06
2.56078e+06
2.88679e+06
3.2771e+06
3.22489e+06
2.97103e+06
2.93866e+06
2.62678e+06
2.66643e+06
1.74512e+06
2.34621e+06
2.33121e+06
2.23511e+06
1.06758e+06
945980
2.26026e+06
2.37575e+06
2.5979e+06
2.59996e+06
2.4062e+06
1.72664e+06
1.57946e+06
2.40982e+06
1.57681e+06
2.39251e+06
2.44669e+06
2.13782e+06
304953
682105
1.82327e+06
2.29919e+06
2.66574e+06
2.64389e+06
2.36374e+06
659880
1.25239e+06
2.07869e+06
1.40908e+06
4727.71
361198
205639
268571
148212
1.5413e+06
1.09679e+06
22071.1
1653.09
12771.2
116793
61875.5
571810
371.631
47478.6
30202.4
734.988
10.6171
10.1164
1024.01
1080.05
130889
70447.3
1049.62
21.5244
18.2976
1595.09
226.784
1978.65
15813.7
427.196
0.760519
51.5583
6.6768
596.402
4442.94
33493.5
588.332
1.34324
11.6384
71.8243
3051.38
65.1981
2009.86
27.1021
1.4891
0.937945
41.3341
363.393
305.475
208.931
3.63224
9.91667
5.52287
6.51407
299.411
370.829
221.295
9.59543
6.43673
5.43121
3.74048
798.452
56230.2
34669
422.779
11.8305
11.012
522.463
3240.81
38.2753
3136.25
157.496
1.59235
2.00144
160.371
2157.41
444.022
16660.7
240.387
0.822464
7.00181
29.5124
212.069
22.8355
1610.89
91.6401
0.157146
1.30387
11.2856
156.608
1.57743
110.668
7.85915
0.165816
0.110231
11.6524
756.835
4.11689
154.603
10.0123
0.0628569
0.318913
2.00895
93.1601
10.9418
63.9698
1.0529
0.282566
1.56699
0.198531
11.5493
0.638996
47.8072
3.07157
0.013232
0.0440081
0.663147
119.902
9.47963
68.4727
1.11115
0.289064
1.97047
0.173797
11.4345
91.5976
68.985
0.278191
1.5494
1.10565
0.203229
58.3655
177.051
110.479
1.04169
2.61457
1.5985
0.698926
5.78611
20.5403
35.1518
0.48809
0.0475385
0.088825
0.236186
32.0207
0.835106
0.0226466
1.05147
0.719264
45.127
0.569918
29.1865
0.0215839
0.781854
0.986958
0.661877
41.5159
0.523706
10.7484
0.502619
0.00987407
0.247146
0.169585
0.342029
14.9829
11.2797
0.528222
0.25789
0.010014
0.177638
15.8435
0.363684
3.60804
2.90316
20.8587
0.323866
0.0147565
0.0630823
0.0530613
29.9603
0.992272
0.668503
0.794425
0.539676
0.0217154
0.0288582
32.4111
1.05335
0.72342
0.839382
0.579715
0.0228163
0.0295697
15.607
0.00891945
0.203835
0.273309
0.299312
0.232231
17.8127
16.2894
0.279743
0.304914
0.218578
0.245314
0.00955655
0.00794508
10.0306
0.0166998
0.0310562
0.0362402
0.217063
1.15461
0.172172
5.51474
0.132165
0.00987665
0.0604466
0.0781351
0.157216
5.25357
3.53694
0.0185948
0.00773274
0.0119659
0.0555878
0.110484
0.415621
10.2745
0.0373756
0.220141
0.0331382
0.178779
0.0176133
0.0144718
0.0634629
0.168278
0.00997509
0.0106817
0.00932794
0.0949674
0.109953
0.162954
0.00971286
0.010225
0.106365
0.0935028
0.0638113
0.00910526
474489
1.04081e+06
1.24056e+06
595.457
1.38209e+06
127.861
1.76247
20.0175
1.38446e+06
1.31775e+06
1.33139e+06
568027
530980
426945
474129
1.33554e+06
1.35475e+06
1.35658e+06
307988
452019
327638
182488
960520
1.30984e+06
1.35581e+06
235756
85721.4
64087.4
282174
778128
967296
1.19492e+06
152968
9847.27
31834.6
61057.6
30542.6
486.023
25080.9
13841.7
327.067
17583.6
253.695
7385.46
305.18
16258
8134.51
50.3578
141.174
3242.11
4788.75
1268.22
105.736
14.353
918.613
6258.78
78.6854
2534.04
130.309
12.0429
6.57174
441.169
39.0799
822.858
2.81237e+06
1.94991e+06
2.96383e+06
1.88273e+06
3.38018e+06
3.8026e+06
1.71108e+06
1.90523e+06
3.07385e+06
2.33747e+06
2.52074e+06
2.76015e+06
3.27136e+06
3.50048e+06
2.61396e+06
3.71498e+06
3.67163e+06
3.12139e+06
2.95183e+06
2.78091e+06
2.99027e+06
3.75165e+06
2.73782e+06
3.13852e+06
3.26046e+06
2.84346e+06
3.25404e+06
3.43207e+06
2.74217e+06
1.67679e+06
1.52193e+06
1.55376e+06
1.84283e+06
1.92114e+06
2.15771e+06
2.08761e+06
3.04991e+06
3.52888e+06
3.47558e+06
3.71379e+06
3.14548e+06
3.03922e+06
3.67314e+06
1.78372e+06
1.7939e+06
1.64972e+06
2.45737e+06
2.28282e+06
2.1041e+06
2.30339e+06
1.96136e+06
1.8641e+06
1.84104e+06
2.36511e+06
2.33577e+06
2.30902e+06
2.25727e+06
1.98529e+06
2.00744e+06
1.92471e+06
2.44732e+06
2.5331e+06
2.54535e+06
2.42805e+06
400738
479010
5.43626