/*--------------------------------*- C++ -*----------------------------------*\
  =========                 |
  \\      /  F ield         | OpenFOAM: The Open Source CFD Toolbox
   \\    /   O peration     | Website:  https://openfoam.org
    \\  /    A nd           | Version:  9
     \\/     M anipulation  |
\*---------------------------------------------------------------------------*/
FoamFile
{
    format      ascii;
    class       surfaceScalarField;
    location    "0.00035";
    object      phi;
}
// * * * * * * * * * * * * * * * * * * * * * * * * * * * * * * * * * * * * * //

dimensions      [0 3 -1 0 0 0 0];

internalField   nonuniform List<scalar> 
14317
(
6.97706
0.128014
3.3638
-2.81489
-2.80019
-2.80287
-2.81399
-0.716118
-0.970065
-0.836108
-1.01
-12.4763
-10.1317
-3.42346
6.63502
1.73436
0.0276869
0.0136974
0.402049
0.382628
-1.30219
0.0855013
3.37934
-2.64522
-2.62097
-2.61678
-2.60223
-0.854991
-0.919979
-0.847648
-0.934948
-12.0554
3.3418
10.4039
0.13626
0.0222279
0.427843
0.418409
2.17494
0.0319823
1.71647
0.432388
0.392551
-1.28601
-12.3561
3.31137
-10.3117
0.0148513
13.6728
6.38482
3.38955
0.0385558
-0.821533
-0.888946
-0.890186
-0.821512
-2.64573
-2.63597
-2.62499
-2.6238
13.7556
-12.3599
10.1281
-3.44777
-6.81715
6.76257
6.51521
10.3616
-1.79178
-0.916141
-0.878278
-0.937597
-0.86099
-0.925524
-0.877173
-0.944371
-0.855942
-1.75253
-1.76527
-1.71995
6.88924
3.45723
0.022097
-2.78541
-2.77099
-2.77391
-2.78304
-0.793858
-0.951017
-0.880446
-1.00938
6.80114
1.6412
0.00339119
0.431747
-1.27521
-1.29399
1.68887
3.35777
-2.65279
-2.63739
-2.61896
-2.62636
-0.872854
-0.932551
-0.861742
-0.948303
6.85876
3.60494
-2.79684
-2.7834
-2.79495
-2.77957
-0.859331
-1.01113
-0.950546
-1.06876
6.99535
-0.013037
0.448723
0.419884
-1.31743
1.74535
-12.0727
-3.50109
-3.35077
6.8496
6.70961
-12.5266
-10.0904
-3.19727
6.4203
1.69664
1.78276
-1.24574
-1.21644
-1.22253
1.76031
6.39053
-10.3352
-3.3356
-3.31829
6.8097
6.78551
0.0837667
3.37568
-0.823217
-0.890405
-0.901452
-0.819398
-2.62608
-2.60796
-2.58833
-2.60049
13.692
6.81802
-6.71956
-3.35898
9.80237
-10.2434
13.5323
0.0765967
6.86495
3.35699
-2.56034
-2.53961
-2.53233
-2.5321
-0.876359
-0.914578
-0.867471
-0.919987
0.0295734
-0.00975744
0.361665
0.398521
-3.06134
3.47694
-0.0421019
-6.67449
9.8
3.43388
-10.2707
13.6156
0.0293929
-0.00338774
0.418225
0.38234
-1.30315
1.736
-1.61477
-0.00155664
0.448841
2.08063
-1.32475
1.71953
0.426756
0.394645
-1.29308
3.50273
-2.55866
-2.54518
-2.53909
-2.52878
-0.883547
-0.922178
-0.925657
-0.869445
-9.73938
-10.3384
-3.51207
0.0138974
1.66791
-1.2582
0.393615
-1.23416
1.64045
0.0991838
3.37002
-2.65083
-2.63156
-2.62416
-2.61528
-0.806896
-0.878558
-0.805266
-0.88707
6.70925
-1.73724
10.0399
6.89524
-1.72611
-1.72545
-1.69265
-0.931103
-0.902892
-0.944634
-0.861061
-0.909028
-0.88407
-0.840452
-0.924423
6.80708
-6.70746
-10.3008
9.78339
-3.29579
6.75602
0.462406
0.423118
2.15684
0.0254997
-6.55462
-12.6142
-9.85172
9.81893
13.2553
-6.8725
-3.21625
-10.2307
10.1926
6.27875
13.4504
-15.7168
-10.9878
-8.83726
11.4877
-0.0659288
-16.583
3.48255
-10.1536
14.3235
-12.5011
-17.1072
2.88195
0.120283
-0.1397
3.17867
-16.9597
3.21606
0.16745
0.105773
3.31359
-10.1148
10.2086
13.5255
-6.63137
9.69619
-10.2373
10.0918
13.3575
-9.87351
3.33061
10.3125
-16.6259
3.28016
-10.1846
14.367
-10.5391
-19.4821
-11.288
13.0511
3.22903
-17.009
3.24677
-3.35097
-10.5364
-17.585
7.03963
-1.63532
1.61062
-0.00533542
-1.23421
0.366062
1.95823
1.62867
-1.64746
0.0314625
1.96865
-1.24741
0.338391
-12.0516
-3.46502
6.81145
6.70666
0.0170215
0.0298448
0.656487
-2.36841
0.62658
-1.72492
-0.0124016
0.019993
0.379529
0.40422
2.24375
6.6406
-1.71379
6.5087
-0.787849
-0.830054
-0.794911
-0.836139
-0.753567
-0.808239
-0.800967
-0.771577
-1.67924
-1.68118
-1.63354
6.85541
-0.00824104
-2.80623
-2.79326
-2.79285
-2.80264
-0.686295
-0.943612
-0.80583
-0.983887
10.2658
3.55068
12.0219
-1.6124
-1.65006
-0.144463
-1.67638
-1.64747
-1.70133
-1.66305
-1.65593
-1.67199
-3.50426
-10.0984
-6.43112
6.76311
-12.3215
-3.55003
-6.89644
6.79864
-12.4138
-10.4685
-0.110404
-6.43901
-0.142758
-6.50492
-6.73656
6.83843
-7.06984
-0.133327
1.65088
1.63067
0.00610283
-1.23638
-1.24286
0.390599
1.66772
0.0141541
1.64032
-1.23404
-1.25817
0.393147
1.6741
1.6188
0.025848
-1.22318
-1.26705
0.375171
0.0259711
0.000662867
0.000315763
0.434387
0.427816
0.398535
0.0159925
1.71613
0.00291087
0.398107
0.41478
-1.28736
1.68024
-0.00676238
0.0149558
0.40633
0.429595
-1.2585
1.77106
1.75151
1.73727
-1.22786
-1.21511
-1.20737
-1.6803
1.66675
-0.0203364
-1.27678
2.16035
0.450971
0.0140059
-1.66288
2.13409
-1.32056
0.408695
-3.51127
-10.3367
6.69227
0.0134994
-0.018083
0.408131
-3.05596
0.373574
0.0157529
-1.7241
-0.0161705
0.424192
0.45756
2.16494
6.66734
-0.103425
-2.66756
-2.65346
-2.63799
-2.63922
-0.814299
-0.880117
-0.811251
-0.887507
-1.78112
6.70192
-0.942712
-0.89583
-0.866632
-0.953894
-0.8846
-0.844527
-0.904312
-0.825454
-1.77446
-1.77645
-1.73017
-10.0663
-3.26075
12.5138
-6.38966
6.57313
13.3835
3.28698
10.1847
-1.60482
-1.63324
-1.64219
-1.64214
-1.63561
-1.67512
-1.69073
0.150387
-12.3552
10.0771
6.60811
-12.4356
3.19734
13.7136
0.111577
-6.4458
6.64756
-6.41248
13.5443
0.146764
6.41897
13.4393
-10.3304
-3.36928
-3.33451
6.79495
6.70633
13.7582
0.0112385
1.66617
-1.28013
0.409315
2.14515
1.66356
-1.27091
0.406228
2.15347
0.0204617
3.47977
-3.06503
0.371431
0.368601
6.72979
6.73461
-1.76188
-1.76598
-1.71957
-0.884376
-0.843048
-0.82103
-0.906916
-0.895798
-0.847921
-0.819443
-0.909885
0.0993367
6.71072
13.7738
-2.65097
-2.63138
-2.61533
-2.62427
-0.807527
-0.878838
-0.805559
-0.887711
6.68372
13.8261
-2.66497
-2.64731
-2.63771
-2.63556
-0.812134
-0.878367
-0.887633
-0.807364
1.69835
-0.00383979
-1.30106
-1.26997
0.432658
0.0382169
1.7095
-1.28162
-1.31757
0.394388
1.63937
1.65464
-1.22956
-1.24627
0.408165
0.00388043
0.0296983
0.426577
0.445577
0.407701
-0.00683115
0.0179839
0.443438
0.461749
-1.30061
1.72018
0.00212021
0.424698
0.412272
-1.28324
1.767
1.78938
-1.24895
-1.22575
-1.2245
3.3728
-10.1216
0.00985035
13.5345
-12.4601
-9.99345
13.3812
-9.97273
-6.36917
6.6949
13.3416
3.41432
12.0116
-1.59585
-0.00644202
-1.61921
-1.60781
-1.62054
-1.66888
-1.63234
-1.68897
-12.3397
-3.43383
6.72532
-6.44281
6.77045
0.0185942
-3.31954
-10.2615
13.6418
6.74275
-0.819823
-0.889598
-0.897608
-0.814703
-2.63334
-2.61394
-2.59761
-2.60015
13.7116
0.00877338
-0.0136888
0.406905
0.38101
-3.05997
3.48137
-0.00877061
2.15248
-1.27018
0.439324
-0.0135023
1.68319
2.12208
-1.29607
0.439244
0.00283744
-0.0198386
2.16437
0.461576
0.440142
6.82313
-1.75158
-1.72688
-1.70316
-0.913462
-0.866305
-0.843922
-0.934743
-0.900655
-0.860612
-0.845369
-0.917654
10.0966
-3.40786
-6.65118
6.77124
-12.4738
-3.37012
13.5262
6.65754
-3.38505
-6.4383
13.4438
6.7194
-12.3585
-10.3224
13.6782
-10.1325
-6.42757
13.5412
12.0209
-1.61364
-1.61199
-1.64211
-1.67974
-1.70391
-1.63321
-1.61272
-1.62735
-6.87965
-3.46464
-3.38432
13.7085
6.90049
-0.835169
-0.898682
-0.906465
-0.834127
-2.64755
-2.63073
-2.61825
-2.62969
13.7479
0.420266
0.398989
-3.06152
3.48138
-1.67717
-0.0352408
0.458208
2.15791
-1.31546
1.70832
-0.1441
-0.84889
-0.911904
-0.92458
-0.841988
-2.65625
-2.64434
-2.63729
-2.62451
13.8065
6.83831
-1.69026
0.434937
2.14014
-1.28214
-1.73756
-0.0269999
2.17663
0.451182
0.466717
0.00609136
1.95725
0.352798
-1.24701
1.61828
-12.0534
-3.43878
6.78369
-1.73045
-0.775881
-0.823343
-0.830194
-0.776599
-0.772763
-0.8366
-0.827165
-0.783502
-1.68877
-1.68921
-1.64353
6.62467
-1.63916
0.36495
-1.23214
1.96248
0.0112563
0.661659
-2.34572
0.627298
-1.72021
0.012569
0.385821
0.385252
2.23904
-2.80618
-2.79474
-2.8056
-2.79481
-0.688117
-0.949346
-0.820819
-0.994697
-1.24474
-1.23952
-1.24681
1.79313
-0.00188907
0.435038
0.420431
-1.30522
1.73844
-0.0380311
0.428807
-1.26413
-1.26422
1.67729
0.427439
-1.29961
-1.27512
-0.0040032
-0.00843985
0.436902
0.429301
0.436603
0.005456
0.450494
0.452529
-1.29264
-0.0290243
0.420654
0.434784
-1.3044
-1.72586
-0.0331966
2.17259
-1.27857
0.468635
-3.56359
-10.3571
6.89431
-1.68579
2.15737
-1.33146
0.441312
1.71989
-0.0253543
0.420266
0.405298
-3.07403
-0.154037
-2.6609
-2.6507
-2.64275
-2.63508
-0.828978
-0.893342
-0.825946
-0.90163
-1.74637
-0.0257145
0.452925
0.469698
2.18523
-1.81467
-0.941925
-0.903475
-0.965497
-0.875188
-0.906509
-0.870118
-0.85443
-0.932206
-1.78736
-1.77109
-1.73699
6.88725
-1.64207
-0.0305802
-1.26432
0.39104
1.96967
-12.0537
-3.59252
6.89022
-1.64376
1.96568
-1.26801
0.400926
1.6513
-0.0203436
0.688638
-2.34947
0.673328
-1.71402
-0.0211167
0.418444
0.416212
2.23638
-1.73099
-0.814282
-0.860511
-0.861659
-0.813085
-0.816462
-0.87147
-0.818052
-0.867577
-1.6896
-1.68902
-1.63923
6.76046
-0.128151
-2.81561
-2.80407
-2.79995
-2.81501
-0.737734
-0.997995
-0.87662
-1.04403
-0.0391594
-1.33371
-1.27696
0.477514
-0.0196908
-1.28161
-1.28164
0.416829
1.68543
-1.27756
-1.33172
0.473117
1.7255
-0.0293476
-0.00561516
0.460907
0.429097
0.461465
-0.0193166
0.475879
0.476677
-1.2889
-0.0322897
-0.0131555
0.420298
0.448684
-1.3184
-1.27163
-1.23101
-1.27325
1.8132
6.64013
-1.67961
-1.68322
-1.63339
-0.793185
-0.835972
-0.841818
-0.802854
-0.753341
-0.812395
-0.800137
-0.777881
6.50452
-2.79542
-2.78107
-2.78198
-2.79125
-0.7824
-0.947268
-0.876833
-1.00058
6.77
-1.63417
0.368595
1.95397
-1.24927
1.6168
1.62725
-1.64637
0.341553
-1.24475
1.97163
0.655004
-2.37685
0.663932
-1.72469
0.38024
0.40298
2.24577
6.97221
-2.82396
-2.81251
-2.82414
-2.81124
-0.704063
-0.975932
-0.846528
-1.0153
-10.0653
-3.26217
6.57291
-12.3692
-3.33396
6.60655
-3.28781
-6.44215
6.64658
10.1815
12.0666
-1.60512
-1.64268
-1.63313
-1.6412
-1.63592
-1.67544
-1.69099
-12.438
-10.3973
-6.4138
0.430898
-1.26766
-1.2926
1.69242
1.65501
0.408084
-1.24673
-1.22932
1.6392
-0.015845
0.424681
0.412619
-1.28345
1.72027
1.70946
0.392588
-1.31804
-1.28105
-0.0258311
0.407921
0.445567
0.426118
0.439709
0.46115
-1.30021
1.7156
-0.0273759
0.39211
0.432232
-1.28531
-1.74756
-1.77397
-1.71947
-0.902363
-0.860426
-0.918181
-0.846628
-0.89026
-0.837963
-0.90442
-0.823648
6.72697
-2.64036
-2.62369
-2.60965
-2.60261
-0.799607
-0.873355
-0.876324
-0.799189
6.65727
-0.0114087
0.439983
2.13505
-1.27739
1.66412
0.401037
2.15446
-1.281
-0.0206027
0.369168
0.412923
-3.04351
-2.64887
-2.63604
-2.61776
-2.62422
-0.82459
-0.89283
-0.827624
-0.894228
-0.0218881
0.422826
0.462165
2.1559
0.379203
0.373577
-3.03172
3.44922
-3.39574
-10.2619
6.85887
13.7231
6.70874
0.0462255
-0.816996
-0.880725
-0.889853
-0.812934
-2.64106
-2.6311
-2.6177
-2.61244
13.7817
1.6746
0.00944283
2.13438
-1.28302
0.421984
1.69261
2.11799
-1.30571
0.409577
0.00126495
2.1516
0.427378
0.443874
6.74094
6.80038
-1.74448
-1.74172
-1.69813
-0.908093
-0.867131
-0.835197
-0.926289
-0.885187
-0.846194
-0.823649
-0.908059
9.83006
-10.2516
13.6025
-3.37388
-10.2738
6.86447
13.6116
-10.2861
0.0558029
13.6471
9.913
3.43289
-1.70995
0.0228199
-1.72726
-1.69368
-1.73614
-1.77355
-1.73796
-1.77593
-3.40597
-9.93793
-6.81381
6.9066
-6.80099
0.0209986
-6.80863
6.90758
0.00117306
-1.3139
2.09442
0.441499
0.018113
1.73109
2.08313
-1.3337
0.424688
-3.44768
-10.0398
6.90217
-0.0088919
0.0136297
0.415383
-2.94213
0.395287
-0.00758131
0.0133469
0.443037
0.461743
2.09332
-0.00903801
-2.56348
-2.54747
-2.53639
-2.53971
-0.855159
-0.895123
-0.84558
-0.898832
6.89485
-1.72616
-1.72548
-1.69265
-0.931185
-0.903203
-0.86138
-0.944578
-0.909404
-0.883721
-0.840152
-0.924851
3.46695
-0.802253
-0.872264
-0.876894
-0.800982
-2.66132
-2.64274
-2.62995
-2.63065
13.8292
-1.66002
2.13783
0.390532
-1.30818
1.69839
3.31989
-0.843628
-0.909836
-0.921433
-0.836231
-2.64649
-2.62735
-2.62146
-2.60755
13.7439
6.83382
-10.3301
6.68305
13.7462
6.89134
6.70208
-1.773
-0.872642
-0.831126
-0.895
-0.811442
-0.928748
-0.881842
-0.939711
-0.852207
-1.77074
-1.76456
-1.72296
6.83783
1.66245
-1.66434
2.14644
0.436752
-1.27003
-1.73615
2.17528
0.445481
0.415901
3.47173
-10.3164
13.6673
9.76731
-10.2766
13.533
6.86547
-10.3054
13.6139
6.92172
9.90648
-3.46557
-6.86117
6.92028
-3.43834
-6.87335
6.92209
9.87438
-1.71983
-1.71802
-1.68111
-1.7247
-1.74685
-1.78159
-1.78296
-6.83844
-1.25449
0.37087
-1.25453
1.65995
-0.00712827
-1.22133
0.402354
-1.25658
1.66506
1.7303
-1.20403
-1.23315
-1.23295
1.77308
1.6148
0.401396
-1.22158
-1.25573
-0.00103929
0.433207
0.433589
0.413376
0.418028
0.382709
-1.30342
1.68306
0.00722506
0.416546
0.415839
-1.26598
10.029
-0.92329
-0.906485
-0.942079
-0.857896
-1.71621
-1.71631
-1.68437
-0.923562
-0.906378
-0.942167
-0.857796
6.86008
-3.42227
-3.42192
6.87091
0.0100656
-2.55334
-2.53743
-2.52701
-2.52617
-0.861625
-0.903464
-0.850848
-0.908896
6.83676
0.448498
-1.3247
2.08044
0.00819674
0.401395
-2.9292
0.402303
0.00787469
0.450617
0.450251
2.09015
-2.55345
-2.53736
-2.52591
-2.52694
-0.861243
-0.904055
-0.851715
-0.908947
1.62465
-0.0241937
-1.23097
-1.27368
0.421158
-1.25958
-1.25979
0.389548
1.62462
-1.2308
-1.2745
0.422354
-0.000602301
0.430752
0.43036
0.420078
-0.0135068
0.394516
0.426592
-1.29267
1.70043
-0.0155864
0.436142
0.436929
-1.28002
1.73157
-1.24224
-1.21197
-1.24255
1.73529
-0.0170741
-1.34048
2.09065
0.462384
2.09084
-1.34132
0.46331
-3.50393
-9.99218
6.93087
-0.0132518
0.421773
-2.95688
0.42223
-0.0140994
0.468034
0.469058
2.11181
6.8848
-0.07934
-2.55842
-2.54511
-2.52868
-2.53883
-0.883137
-0.922622
-0.925518
-0.870086
6.89254
-1.71846
-1.71858
-1.68782
-0.937447
-0.918493
-0.871056
-0.954105
-0.937591
-0.918941
-0.871415
-0.95393
10.29
9.85706
3.50601
-0.0840895
-1.71952
-1.6837
-1.72525
-1.7969
-1.76363
-1.7965
-3.464
-10.2857
-3.50125
-9.8682
-9.76127
-10.3317
-0.104449
-0.0920499
-0.0938552
0.41417
0.398195
-1.28742
1.71622
1.77095
-1.21499
-1.22748
-1.20771
1.75171
1.63075
-1.23665
0.389922
-1.24249
1.65067
1.67411
1.61899
0.376846
-1.22326
-1.26702
0.427609
0.43406
0.398449
1.73446
0.40217
0.382903
-1.30211
1.6802
0.405911
0.429754
-1.25842
2.14535
0.409325
-1.28058
1.66632
-10.3321
-3.33594
6.7958
6.73643
-1.76185
-1.76581
-1.71972
-0.884454
-0.843219
-0.907028
-0.821085
-0.895952
-0.848483
-0.819396
-0.910265
6.73066
1.66377
0.4071
-1.27111
2.15361
0.371247
-3.06516
0.368441
0.428195
0.418751
2.17505
6.68311
-2.66527
-2.64763
-2.63583
-2.63815
-0.81205
-0.878188
-0.807243
-0.887365
0.441152
2.09411
-1.31369
1.71007
-3.4479
-3.35569
6.90156
6.8138
-2.56324
-2.54716
-2.53621
-2.53929
-0.854186
-0.895156
-0.845428
-0.898462
6.80072
1.73105
0.425642
-1.33368
2.08353
0.395727
-2.94228
0.414907
0.442319
0.461886
2.09334
6.86538
-2.5604
-2.53988
-2.53266
-2.5323
-0.876781
-0.914529
-0.867062
-0.920348
9.92883
-3.35943
6.83344
-10.3205
-3.32034
6.82673
-3.33073
6.84042
10.2997
9.87438
-1.68464
-1.71663
-1.72759
-1.75826
-1.79099
-1.79778
-9.79555
-10.3127
-10.3297
-3.31669
-3.33696
6.80794
13.6827
-1.28085
0.401793
2.15518
0.0333965
1.66433
-1.27786
0.439716
2.13502
3.46518
-3.04471
0.412871
0.368915
0.0256743
6.7289
-1.7732
-1.74762
-1.71949
-0.890389
-0.838323
-0.905079
-0.823859
-0.902107
-0.860687
-0.846666
-0.918132
13.7271
-2.64877
-2.63682
-2.62478
-2.61733
-0.82433
-0.89259
-0.894141
-0.827527
0.154615
6.6577
13.7196
-2.64002
-2.62393
-2.60279
-2.6094
-0.799815
-0.87346
-0.799109
-0.876348
-10.067
10.1743
13.4926
-10.3133
-3.22874
10.1319
6.28959
13.4941
3.34647
10.1473
-0.0874981
-1.75214
-1.70464
-1.75484
-1.68473
-1.72971
-1.7295
-10.0895
3.1303
-0.118154
13.2978
13.2307
6.42377
-0.113669
13.5415
6.15932
13.2315
13.1945
-16.861
3.29137
6.22255
0.141913
-3.2836
16.7826
-3.19498
6.7145
6.2397
3.27729
3.24008
-0.112254
-3.46472
-3.46237
-3.44674
0.16177
3.14675
-16.923
-0.135642
6.66454
6.32806
0.176908
6.82426
6.16206
-0.126582
6.65885
-10.2436
10.2316
13.5688
-10.2957
-3.31412
10.1826
6.62403
13.5931
3.38594
10.2024
-1.68659
-1.73222
-1.73911
-1.75558
-1.71014
-1.76082
-10.1384
3.25697
13.3281
13.2768
6.78427
13.5899
6.46042
13.2707
13.2402
-10.3004
-3.29571
9.78264
6.75594
13.5506
3.36093
10.2992
-1.68445
-1.71649
-1.72735
-1.79102
-1.75803
-1.79786
-9.92685
10.3221
6.83997
-9.79545
3.31854
13.6664
6.83455
13.6082
6.82423
13.6467
-16.9965
3.23338
6.52857
-3.26367
-3.26288
16.8714
6.69515
6.52555
3.28813
3.31974
-3.47108
-3.47664
-3.46452
-16.9743
3.22896
6.69378
6.70504
6.56554
6.70414
6.55767
1.30901
-0.403789
-0.425343
0.872807
0.842516
-0.877767
0.392948
-1.28501
1.70596
0.0196612
0.824926
0.386246
-1.28815
1.70972
0.022696
0.809463
0.426831
0.408703
0.0255793
0.00909639
-0.873681
1.73072
0.801682
0.805545
0.0184124
0.868604
-0.85882
0.0143498
0.847169
-0.863662
-2.10863
-0.405698
-0.405483
0.786273
0.784104
2.49675
0.429578
2.11835
0.019404
0.877518
0.436393
2.12313
0.862653
0.418569
0.397439
0.0218716
2.61753
0.887206
0.87766
0.0175447
0.813174
2.53841
0.800173
2.54193
-0.437169
-0.429877
1.30913
0.869742
0.879873
-0.882283
-1.28463
0.385763
0.0338159
1.7033
0.84731
-1.2729
0.42832
1.69206
0.819364
0.417988
0.455408
0.02347
-0.861118
0.863541
-0.850794
0.0155092
0.888232
-0.863862
1.72868
0.828508
0.811389
1.299
1.32591
-0.416341
0.839138
-0.879232
-0.848377
-1.24808
-1.26781
1.5785
0.763657
1.60316
0.424015
-1.30537
-0.847442
6.26629e-05
1.75523
0.458682
-1.31899
1.751
-0.88459
0.0176344
0.857199
-0.833455
1.7548
1.72654
0.89882
-0.881045
-0.885822
-0.861249
0.00324834
-0.456535
-0.429828
1.32067
0.90222
0.864443
-0.894386
-1.29846
0.425319
-0.0200108
0.868881
1.71514
-1.30033
0.446533
0.841151
1.71749
0.446969
0.463177
-0.0153229
-0.89471
0.882444
-0.880939
-0.013778
0.905195
-0.879854
0.859035
0.823822
1.74189
1.25808
1.272
1.27504
-0.842888
-0.880515
-0.822693
-1.27717
-1.32911
-0.765374
1.7522
-1.27561
-1.25565
-0.763451
1.72644
-1.35258
-1.27976
-0.734917
-0.847769
-0.864813
1.70256
-0.922321
-0.895981
-0.866463
-0.827864
2.96105
-0.400837
-0.443952
-2.49074
0.363288
-3.0075
-0.0133758
3.47577
0.323766
-2.9976
0.0289663
3.46831
0.43894
0.411634
0.0260515
-0.00746618
-2.61498
3.46406
0.0310171
-2.52677
-0.0125819
-2.53925
1.30875
-0.398946
-0.437778
0.885113
0.838851
-0.875512
0.378021
-1.28035
0.0355229
0.842159
1.70105
0.417229
-1.29089
0.809272
-0.00657455
1.71221
0.432265
0.413628
0.0210691
-0.872147
0.00539865
0.832502
0.794334
1.72999
0.0259984
0.877865
-0.854382
0.849613
-0.86312
0.000262291
1.24313
-2.15167
-0.417801
-0.772051
2.04251
-1.33982
-1.56449
1.74705
0.310656
-1.27747
-0.00122295
1.78098
0.448613
2.14607
-1.7196
-0.917025
0.00173228
1.78274
-1.70277
-0.913305
-0.813745
0.000455955
-0.452087
-0.404588
1.30842
0.898564
0.843488
-0.880696
-1.2756
0.388813
0.846269
-1.29496
0.432901
0.8204
0.420228
0.442237
-0.867119
0.859588
-0.871827
0.87905
-0.853272
0.849621
0.803079
1.31175
-0.417139
1.32929
-0.888092
0.85042
-0.872365
0.406544
-1.30967
0.0155082
-0.842518
1.75363
-1.22118
-1.19782
0.74413
1.58196
1.55943
-1.33491
0.4048
0.0167109
-0.825073
1.781
-0.823663
0.833369
1.7495
0.0159101
-0.888776
-0.868606
0.831836
-0.801672
1.76729
-0.433033
-2.10374
-0.403671
0.811444
0.779255
2.48723
0.433522
2.11535
0.910558
0.024911
2.10295
0.468313
0.871665
0.411489
0.438413
2.59759
0.0287752
0.810037
2.52184
0.913151
0.88331
0.83977
2.52925
0.0321852
-2.04744
1.17802
-0.462877
-0.791429
0.405771
2.06074
-0.813013
-1.74094
-0.0159178
-1.21745
1.92169
-1.57181
0.472358
-1.19993
-0.00516364
-0.779588
-1.71294
-0.828955
-0.0112717
1.20674
-2.04985
-0.42497
-0.827991
0.434847
-1.22816
0.0318903
0.37964
2.07093
-0.827786
-1.74932
0.0182006
1.92803
-1.24031
-1.58128
-0.80841
-1.71284
-0.854265
0.029682
-0.351911
-0.315156
2.62715
-2.43171
-2.53989
0.602335
0.0343542
0.274536
0.303599
-2.22057
0.00753992
0.0268414
-2.52855
0.62913
0.0108746
-2.29587
-0.00534516
-2.30793
0.0453161
-2.15232
-0.439334
-0.396055
0.411862
2.18707
-1.70144
-0.00645591
0.377272
2.19953
-1.70838
0.0298414
0.411331
0.440135
-0.00874689
0.0242569
-1.71527
-0.0206165
0.014958
1.30566
1.28148
-0.425219
-0.845854
-0.854567
0.860332
0.428686
-1.31441
-0.823502
1.76604
0.00460511
0.440588
-1.29719
-0.831934
1.7337
-0.000975448
-1.22235
-1.20959
0.739979
1.57148
1.57608
-0.809597
0.863144
1.7605
-0.810468
0.87353
1.71298
-0.860284
-0.863378
0.000444997
1.32942
-0.416805
1.31185
-0.887898
0.849893
0.404871
-1.33463
1.7809
0.0164566
-1.3097
0.40648
-0.842922
0.0158327
1.7537
-1.19764
-1.22184
0.743942
1.58232
1.55944
0.831991
1.76759
-0.88828
0.0159217
-0.824016
0.833457
1.74928
1.327
1.27902
-0.410046
-0.875135
0.841283
0.411862
-1.33591
1.78701
0.0194657
0.424212
-1.28346
-0.855288
1.7209
0.0131443
-1.21758
-1.23363
0.723575
1.59517
1.57248
0.842841
1.78221
-0.835925
0.853706
1.71323
-0.885227
0.0158372
-0.421602
-0.443559
-0.426425
0.855793
0.850605
0.417153
0.389163
0.0286719
0.00371025
0.427909
0.400636
0.86229
0.0200773
-0.00125406
0.414067
0.431371
0.830449
-0.000357328
0.0128849
0.841524
0.021506
0.844283
0.827882
-0.000534302
0.816465
0.0110948
-0.406537
1.28568
-0.43814
0.402961
-1.26798
1.68797
0.00697335
-1.26263
0.397077
0.0164225
1.68086
0.442663
0.420824
0.0196704
-0.00472061
0.0185673
1.70628
-0.000362714
1.27823
-0.430046
-0.4123
0.421789
-1.25193
1.66601
-0.00436034
0.400834
-1.24079
1.6563
0.0126164
0.415952
0.437532
-0.00185125
0.0169631
1.69543
-0.00324582
0.0119604
1.29206
1.27089
1.27527
-1.27221
-1.29775
-1.28026
-1.30211
-1.27051
-1.31953
-2.24315
1.22195
-0.450321
-0.784227
0.467966
2.23081
-0.869666
-1.79597
-0.0184473
0.342929
-1.24191
-0.0240212
-1.28327
2.09285
-1.60111
-0.882133
-1.78523
-0.809059
-0.022881
1.26503
-0.406938
-2.23532
-0.831789
0.300992
-1.28771
0.0161502
2.19147
0.440077
-0.905853
0.0104156
-1.76312
2.08857
-1.33835
-1.59889
-0.84225
0.0109619
-0.932239
-1.77837
-0.417614
-0.458998
2.95825
-2.49081
-2.99639
0.341051
0.0136702
0.452887
0.422419
-2.60693
0.0143677
-0.0155173
-3.01149
0.380448
-0.0284218
-2.52797
0.011952
-2.54577
-0.0237024
-0.406766
-2.10425
-0.453745
0.472212
2.12827
-1.71572
-0.0157006
2.10869
0.436268
0.0122548
-1.69579
0.444745
0.407366
0.0128193
-0.0136286
0.0141931
-1.72869
-0.024721
-2.23078
-0.398649
1.2214
0.432428
2.21028
0.0153186
-1.29222
2.08348
-1.25125
0.303586
0.01622
0.018212
-2.24168
1.22409
-0.403586
0.425104
2.2241
-1.28429
2.0918
0.293677
-1.23619
-0.414939
2.96544
-0.409505
0.417247
0.41764
0.0180233
-3.00479
0.341874
0.0167029
0.326221
-3.01099
0.0140293
1.31664
1.29648
-0.420882
-0.847071
-0.868524
0.842005
0.488681
-1.31644
-0.886155
-0.0181579
0.421778
-1.30686
-0.837731
1.76023
0.00038957
-1.27629
-1.24192
0.766227
1.60245
-0.88736
0.924437
-0.822468
0.847311
1.75205
-0.85902
-0.882971
-0.0023436
1.31828
-0.395835
1.30625
-0.859051
0.821601
-1.30531
0.402122
0.0237836
1.75753
0.460885
-1.32387
-0.901231
0.0107085
-1.29977
-1.25438
0.735736
1.62148
-0.920162
0.898966
-0.863277
0.0302434
0.828096
1.76183
-0.446913
1.31645
1.33174
-0.895618
0.880376
-1.32363
0.436968
1.7674
-1.30959
0.43699
-0.834384
1.75744
-1.22517
-1.21405
0.762987
1.56529
1.57825
-0.879812
-0.82673
0.865047
1.74935
0.866822
1.76168
-0.457495
-0.453459
-0.427004
0.879553
0.862527
0.398255
0.440187
0.0325936
0.416443
0.435767
0.870575
-0.00857696
0.0203144
0.426554
0.434141
0.851628
-0.00277256
0.833052
0.851882
0.854022
-0.0123788
0.85937
0.0218719
1.30065
-0.427958
-0.407574
0.469559
-1.27745
-0.0218141
0.433522
-1.28467
0.0197246
0.412344
0.427698
-0.00726597
0.0183616
-0.0105701
0.0180101
-0.438203
1.29288
-0.45027
0.406906
-1.2811
1.70464
0.00453567
-1.26218
0.425744
1.68728
0.439557
0.452847
-0.00228708
1.71627
-0.0124593
1.2722
1.25762
1.27436
-1.3304
-1.27692
-1.35358
-1.27927
-1.27471
-1.25556
2.95283
-0.422547
-0.443356
-2.48384
0.337866
-3.01047
0.00985102
3.48132
0.371547
-2.99737
-0.012281
3.47286
0.45281
0.425637
-2.60882
0.00496099
-0.0181379
3.46227
-2.53832
0.00675779
-2.52388
-0.0145589
-2.21248
1.23026
-0.417661
-0.809295
0.331272
-1.24364
-0.00141624
0.445492
2.20395
-0.90369
-0.000169249
-1.28645
2.07148
-0.910493
-0.832855
0.00389228
-2.21239
-0.437236
1.23464
-0.797325
-1.26854
0.337605
-0.0146588
0.470501
2.18868
-0.889373
-0.0165272
-1.31113
2.05643
-0.900644
-0.819175
-0.0142609
-2.09624
-0.421466
-0.430913
0.432322
0.420205
0.00894398
-0.0138416
0.448651
2.11947
0.00438213
0.467598
2.10179
-0.0175314
0.00687965
-0.0142693
2.9675
-0.443311
-0.457781
-2.49594
0.36022
-2.99725
3.47284
0.385125
-3.00601
3.47716
0.464835
0.44385
-2.61547
3.46847
-2.52992
-2.53466
1.25724
-2.22901
-0.447165
-0.817411
2.08947
-1.32806
-1.59353
1.73008
0.352827
-1.28787
-0.0330415
1.77366
0.481395
2.21464
-0.90716
-1.7839
-0.0283053
1.78142
-0.913356
-1.76494
-0.840141
-0.0267233
-0.424419
1.24405
-2.21516
-0.81941
2.07857
-1.29727
-1.60296
-1.25608
0.328627
2.19527
0.449728
-0.906101
-1.75451
-0.842381
-0.920962
-1.75484
-0.439645
-2.10703
-0.442835
0.442018
0.440503
-0.0289304
0.477166
2.11523
-1.70324
-0.0282482
2.11382
0.459044
-1.69948
-1.72382
-0.0296458
1.18638
-2.05142
-0.444558
-0.795364
0.464962
-1.19807
0.00694767
1.61212
1.92579
-1.24
1.63457
0.374167
2.06179
-0.825521
0.014935
1.62832
-0.801206
-0.835021
0.0117922
-0.441557
1.19139
-2.054
-0.810631
1.92928
-1.2312
-1.57928
2.06746
0.380244
-0.816826
-1.7487
-1.20501
0.463476
-0.823835
-0.789598
-1.72462
-0.347738
-0.331308
2.65508
-2.43814
-2.55094
0.625212
0.0102574
0.279646
0.278581
-2.21292
0.0156392
-2.50654
0.645682
-2.29894
-2.30252
0.00989173
-0.395874
-2.11528
-0.399395
0.393898
2.16698
-1.70154
0.00628362
2.20031
0.396083
-1.69948
0.413325
0.430285
0.0103204
-1.71246
0.0229858
1.27065
1.27089
1.28135
-0.889146
-0.840066
-1.28869
-1.33327
1.76695
-1.28597
-1.28469
-0.779332
1.75284
-1.28817
-1.33147
-0.760726
-0.878996
1.71998
-0.878982
-0.85685
-0.897747
1.29604
-0.431908
-0.446412
0.882824
-0.867753
0.418927
-1.27541
-0.00501144
1.69667
0.440587
-1.28254
0.848257
1.70411
0.45298
0.439721
-0.876465
0.00230966
0.837379
1.72241
-0.853755
0.011883
0.888491
-0.856615
1.32339
1.32451
-0.45874
-0.881877
-1.23704
-1.2357
1.59227
0.450172
-1.33627
-0.0336249
1.7845
0.450502
-1.33574
-0.848361
-0.0338733
1.76348
-0.836214
-0.888931
-0.0309365
-0.417378
1.29786
1.32637
-0.846273
-0.879632
-1.25005
-1.27261
-1.32017
0.456901
-0.88911
-1.30402
0.424585
-0.847158
-0.859456
-0.884945
-0.833323
-0.887861
-0.433971
-0.435223
-0.45716
0.879597
0.869543
0.432571
0.424434
0.00295453
-0.0212407
0.423936
0.422333
0.858273
0.00821405
0.43233
0.424943
0.875859
-0.0210163
0.850963
0.856227
0.851507
0.0120207
0.855969
-0.0223147
-0.410593
1.2975
-0.408824
0.43309
-1.2766
0.020904
-1.27665
0.430363
0.416921
0.418608
0.00868937
0.0118704
-0.431035
1.29785
-0.447143
0.440652
-1.28177
-0.0353521
-1.27828
0.418028
0.453029
0.440062
-0.0212002
-0.026415
1.23522
-2.2335
-0.445149
-0.808089
0.357093
-1.24491
-0.0334281
0.470412
2.21626
-0.898545
-1.77313
-0.0203083
2.09499
-1.29678
-1.63092
-0.913366
-1.77715
-0.8328
-0.0217416
-0.436634
-2.23754
1.27452
-0.842167
-1.30442
0.33486
1.78227
2.21417
0.47212
-0.919965
-1.78635
-1.34998
2.09113
-1.60933
1.74235
-0.860145
-0.935921
-1.78138
1.79065
-0.447016
-0.468458
2.95768
-2.49906
-3.01203
0.371516
-3.00981
0.384881
-0.0356687
0.463307
0.45346
-2.62483
-0.027047
-2.54449
-2.54342
-0.0307018
-0.429089
-2.11821
-0.467799
0.481738
2.12888
-1.71625
-0.0248195
2.12676
0.464268
-1.71546
0.462449
0.430739
-0.0290317
-1.74083
-0.0318741
1.24073
-2.05445
-0.481475
-0.857999
0.408837
2.07269
-0.845942
-1.74798
-0.0194646
1.93418
-1.25634
-1.58144
0.493501
-1.25322
-0.0318511
-0.818529
-1.71559
-0.874485
-0.030347
-0.484419
-2.05103
1.24039
-0.848926
-1.25064
0.500584
1.65583
2.06812
0.412468
-0.845988
-1.75091
-1.2607
1.92959
-1.58223
1.66486
-0.88601
-0.822563
-1.71556
1.67057
-0.3874
-0.396824
2.65849
-2.44799
-2.55504
0.671022
0.318816
0.325652
-2.21407
-0.0168289
-2.51709
0.679941
-0.0186557
-2.30911
-2.30186
-0.0274689
-0.441217
-2.12708
-0.442117
0.428311
2.19642
-1.6959
-0.0280449
2.17144
0.426979
-1.69854
0.470144
0.454923
-0.0203088
-1.71788
-0.0267578
1.31844
1.31322
-0.449162
-0.865368
-0.865135
0.864703
0.488378
-1.31837
-0.915494
-0.0109558
0.448122
-1.32378
-0.841599
-0.0230767
-1.24737
-1.3
0.802042
-0.823772
0.876407
-0.913429
0.930163
-0.881821
-0.882311
-0.02959
1.34517
-0.446144
1.34644
-0.903473
0.880206
-1.34421
0.431446
-0.012867
1.78591
0.431279
-1.34457
-0.86872
-0.0128148
-1.25952
-1.25803
0.770605
1.61065
-0.860447
0.864155
-0.904932
-0.0230912
0.864615
1.78258
-0.449342
1.31219
1.31899
-0.865998
0.864694
-1.32457
0.448659
1.77388
-1.31823
0.48766
-0.91517
-1.29756
-1.24973
0.798627
1.62969
-0.882631
-0.911709
0.930125
0.876813
1.77762
-0.465497
-0.465899
-0.453047
0.879985
0.893987
0.425454
0.456481
-0.0126974
0.451786
0.451444
0.857807
-0.0203411
0.42591
0.455792
0.895524
-0.0320984
-0.0130872
0.847815
0.84801
0.880193
-0.0221274
0.880426
-0.0165437
-0.434046
1.30054
-0.434251
0.470298
-1.27334
-0.0208984
-1.27349
0.470577
0.444758
0.443929
-0.0186635
-0.0172394
1.32002
-0.457486
-0.430261
0.447712
-1.29926
-0.0343537
0.425242
-1.29885
-0.0198774
0.447382
0.463078
-0.0236243
-0.0157459
-0.0158933
-0.0137761
1.28916
1.27387
1.28938
-1.2805
-1.36145
-1.306
-1.30582
1.77057
-1.36013
-1.28062
1.78628
1.73644
1.17362
-0.467611
-2.0448
-0.783617
1.91829
-1.22571
-1.57102
1.62308
0.478653
-1.19231
1.60793
2.05691
0.410251
-0.824803
-1.74209
1.61827
-0.829359
-0.786704
-1.7132
-0.423058
1.20858
-2.05052
-0.834505
1.92912
-1.23912
-1.58101
2.07316
0.384114
-0.82592
-1.74838
-1.22838
0.433042
-0.853798
-0.802762
-1.71273
-0.354961
-0.33491
2.67912
-2.45306
-2.58417
0.644021
0.276151
0.315821
-2.22602
-2.54508
0.629388
-2.31871
-2.3133
-0.436268
-0.385762
-2.12165
2.12708
0.409361
-1.70173
2.20328
0.380043
-1.70824
0.420182
0.440288
-1.71622
1.29764
-0.421786
1.31522
-0.868579
-0.848633
-1.24224
-1.2712
1.60072
0.42235
-1.30836
-0.838385
1.7615
-1.31513
0.486499
-0.878611
-0.822912
1.75249
-0.883641
-0.860281
-0.881069
1.31633
1.33176
-0.446914
-0.895388
-0.879626
-1.22509
-1.21408
1.5783
1.56524
0.4365
-1.30964
-0.834885
1.75741
0.437163
-1.32357
-0.819014
1.76731
-0.826333
1.74925
-0.811337
1.76206
-0.879757
-0.863598
1.29227
-0.450016
-0.437945
-0.86178
0.406627
-1.28068
1.70456
0.425775
-1.26247
-0.0162916
1.68749
0.452902
0.439411
-0.85187
-0.0196615
1.71615
-0.853518
-0.833404
-0.0183875
-0.396924
1.31755
1.30629
-0.85901
-0.869756