/*--------------------------------*- C++ -*----------------------------------*\
  =========                 |
  \\      /  F ield         | OpenFOAM: The Open Source CFD Toolbox
   \\    /   O peration     | Website:  https://openfoam.org
    \\  /    A nd           | Version:  9
     \\/     M anipulation  |
\*---------------------------------------------------------------------------*/
FoamFile
{
    format      ascii;
    class       volVectorField;
    location    "0.0002";
    object      rhoU;
}
// * * * * * * * * * * * * * * * * * * * * * * * * * * * * * * * * * * * * * //

dimensions      [1 -2 -1 0 0 0 0];

internalField   nonuniform List<vector> 
2202
(
(0 0 -9.1374e-17)
(9.3343e-17 -1.05097e-21 3.23401e-15)
(-1.5672e-21 -2.47954e-18 1.89885e-15)
(2.91741e-37 -4.14892e-18 -2.7157e-15)
(9.4721e-23 -2.35522e-15 0)
(0 -2.60131e-18 -2.94168e-15)
(0 0 2.2461e-16)
(9.27689e-19 0 -1.35203e-18)
(0 0 -1.13277e-20)
(1.60298e-22 0 6.1981e-22)
(-1.15101e-27 0 8.66445e-22)
(4.33438e-41 0 -4.31772e-22)
(9.91505e-28 0 -5.98066e-16)
(0 0 -2.90494e-18)
(0 0 8.97813e-22)
(0 0 0)
(-8.81909e-26 0 0)
(1.51142e-41 0 0)
(1.08658e-25 0 4.50046e-15)
(0 0 0)
(0 0 8.72183e-33)
(0 0 2.69048e-27)
(0 0 -1.17309e-30)
(0 0 4.00989e-26)
(0 0 0)
(0 0 0)
(0 0 2.3973e-23)
(0 0 6.53916e-18)
(0 0 0)
(0 0 0)
(0 0 -4.36156e-15)
(0 0 0)
(0 0 0)
(0 0 0)
(-1.72676e-23 0 -2.20894e-16)
(2.43378e-39 0 -6.31192e-19)
(2.0005e-23 -4.54488e-18 -1.16653e-16)
(0 0 -9.88761e-20)
(0 0 0)
(0 0 0)
(0 0 0)
(0 0 -4.50204e-15)
(0 0 0)
(0 0 0)
(0 0 -2.79926e-16)
(0 0 0)
(0 0 0)
(0 0 0)
(0 0 0)
(0 0 0)
(0 0 0)
(0 0 0)
(0 0 0)
(0 0 0)
(0 0 0)
(0 0 0)
(0 0 0)
(0 0 0)
(0 0 0)
(0 0 0)
(0 0 0)
(0 0 0)
(0 0 0)
(0 0 0)
(0 0 0)
(0 0 0)
(0 0 0)
(0 0 0)
(0 0 0)
(0 0 0)
(0 0 0)
(0 0 0)
(0 0 0)
(0 0 0)
(0 0 0)
(0 0 0)
(0 0 2.92164e-22)
(0 0 2.03267e-19)
(0 0 8.71769e-17)
(0 0 2.03267e-19)
(0 0 2.9187e-22)
(0 0 2.94697e-25)
(0 0 0)
(0 0 0)
(0 0 0)
(0 0 0)
(0 0 0)
(0 0 0)
(0 0 0)
(0 0 0)
(0 0 0)
(0 0 0)
(0 0 0)
(0 -3.32109e-38 0)
(0 -2.87563e-35 0)
(0 -6.00923e-33 0)
(0 -6.73148e-31 0)
(0 -9.93434e-29 0)
(0 -1.10625e-30 0)
(0 0 0)
(0 0 0)
(0 0 0)
(0 0 0)
(0 0 0)
(0 0 0)
(0 0 0)
(0 0 0)
(0 0 0)
(0 0 0)
(0 0 0)
(0 0 0)
(0 0 0)
(0 0 0)
(0 0 0)
(0 0 0)
(0 0 0)
(-6.89547e-22 -1.47007e-19 -1.74725e-16)
(-1.78405e-23 8.10314e-24 2.94055e-20)
(0 -2.72559e-18 7.57258e-15)
(6.7903e-17 -1.16702e-17 -6.5774e-17)
(0 -8.86394e-19 -8.71886e-15)
(0 -2.0092e-32 -2.27309e-22)
(0 -1.39812e-35 0)
(0 -4.14791e-38 1.17628e-15)
(0 4.63814e-28 -8.83836e-15)
(3.5011e-21 0 0)
(1.20155e-21 0 -9.09495e-15)
(0 0 -8.17664e-15)
(3.36909e-49 0 0)
(1.88743e-21 0 0)
(0 0 0)
(1.96576e-20 9.12525e-24 7.52572e-15)
(0 -8.81745e-21 7.39915e-15)
(0 -1.65131e-18 0)
(5.90222e-33 -1.30754e-16 0)
(0 -1.66092e-18 0)
(1.72453e-25 9.57539e-25 -9.26988e-17)
(0 6.69746e-19 0)
(0 0 0)
(1.47583e-34 1.31592e-16 0)
(0 0 0)
(3.15136e-41 2.24726e-22 -5.06477e-23)
(0 0 0)
(0 0 0)
(0 0 0)
(0 0 0)
(5.38635e-45 0 -4.50137e-25)
(0 0 0)
(0 0 0)
(0 0 0)
(0 0 0)
(0 0 -3.15299e-27)
(0 0 0)
(0 0 0)
(0 0 0)
(0 0 0)
(0 5.74187e-22 -1.3197e-18)
(0 1.65681e-25 8.04676e-17)
(0 0 8.81046e-17)
(0 0 0)
(0 0 0)
(0 0 0)
(0 0 0)
(0 0 0)
(0 3.36607e-32 8.93001e-17)
(0 0 0)
(0 0 0)
(0 0 0)
(0 0 0)
(0 0 8.68781e-17)
(0 0 0)
(0 0 0)
(0 0 0)
(0 0 0)
(0 -1.32557e-26 0)
(0 0 0)
(0 0 0)
(0 0 0)
(0 0 0)
(0 0 0)
(0 0 0)
(0 0 0)
(0 0 0)
(0 0 0)
(0 0 0)
(0 0 0)
(0 0 0)
(0 0 0)
(0 0 0)
(0 3.00893e-24 0)
(0 0 3.02143e-18)
(0 0 0)
(0 0 0)
(0 0 0)
(0 0 0)
(0 0 0)
(0 0 0)
(0 0 0)
(0 0 0)
(0 0 0)
(0 0 0)
(0 0 0)
(0 0 5.14585e-27)
(0 0 0)
(0 0 0)
(0 0 0)
(0 0 0)
(0 0 0)
(0 0 0)
(0 0 0)
(0 0 0)
(0 0 0)
(0 0 0)
(0 0 0)
(0 0 0)
(0 0 0)
(0 0 0)
(0 0 0)
(0 0 0)
(0 0 0)
(0 0 0)
(0 0 0)
(0 0 0)
(0 0 0)
(0 0 0)
(0 0 0)
(0 0 0)
(0 0 0)
(0 0 0)
(0 0 0)
(0 0 0)
(0 0 0)
(0 0 0)
(0 0 0)
(0 0 0)
(0 0 0)
(0 0 0)
(0 0 0)
(0 0 0)
(0 0 0)
(0 0 0)
(0 0 0)
(0 0 0)
(0 0 0)
(0 0 0)
(0 0 0)
(0 0 0)
(0 0 0)
(0 0 0)
(0 0 0)
(0 0 0)
(0 0 0)
(0 0 0)
(0 0 0)
(0 0 0)
(0 0 -4.2413e-19)
(0 0 0)
(0 0 0)
(0 0 0)
(0 0 0)
(0 0 0)
(0 0 0)
(0 0 0)
(0 0 0)
(0 0 0)
(0 0 0)
(0 0 0)
(0 0 0)
(0 0 0)
(0 0 0)
(0 0 0)
(0 0 0)
(0 0 0)
(0 0 0)
(0 0 0)
(0 0 0)
(0 0 0)
(0 0 0)
(0 0 0)
(0 0 0)
(0 0 0)
(0 0 0)
(0 0 0)
(0 0 0)
(0 0 0)
(0 0 0)
(0 0 0)
(0 0 0)
(0 0 0)
(0 0 0)
(0 0 0)
(0 0 0)
(0 0 0)
(0 0 0)
(0 0 0)
(0 0 0)
(0 0 0)
(0 0 0)
(0 0 0)
(0 0 0)
(0 0 0)
(0 0 0)
(0 0 0)
(0 0 0)
(0 0 0)
(0 0 0)
(0 0 0)
(0 0 0)
(0 0 0)
(0 0 0)
(0 0 0)
(0 0 0)
(0 0 0)
(0 0 0)
(0 0 0)
(0 0 0)
(0 0 0)
(0 0 0)
(0 0 0)
(0 0 0)
(0 0 0)
(2.03108e-26 -3.15184e-29 0)
(1.50024e-21 0 -7.9635e-15)
(-7.55551e-22 0 0)
(7.92528e-42 0 0)
(3.42322e-21 2.11486e-16 0)
(0 0 0)
(8.77085e-24 1.43349e-22 1.56923e-15)
(8.33503e-24 1.90449e-24 -8.17664e-15)
(0 2.21523e-26 0)
(2.10687e-47 9.2933e-29 0)
(9.64509e-20 8.88364e-31 0)
(0 7.81707e-33 0)
(0 0 -2.62452e-20)
(0 0 0)
(0 0 0)
(0 0 0)
(0 0 0)
(0 0 0)
(0 0 0)
(0 0 0)
(0 0 0)
(0 0 0)
(0 0 0)
(0 0 0)
(0 0 0)
(0 0 0)
(0 0 0)
(0 0 0)
(0 0 0)
(0 0 0)
(0 0 0)
(0 0 0)
(0 0 0)
(0 0 0)
(0 0 0)
(0 0 0)
(0 0 0)
(0 0 0)
(0 0 0)
(0 0 2.92164e-22)
(0 0 2.03267e-19)
(0 0 8.71769e-17)
(0 0 2.03267e-19)
(0 0 2.9187e-22)
(0 0 2.94697e-25)
(0 0 0)
(0 0 0)
(0 0 0)
(0 0 0)
(0 0 0)
(0 0 0)
(0 0 -4.98562e-17)
(0 0 0)
(0 0 0)
(0 0 0)
(0 0 0)
(0 0 0)
(0 0 0)
(0 0 0)
(0 0 0)
(0 0 0)
(0 0 0)
(0 0 0)
(0 0 0)
(0 0 0)
(0 0 0)
(0 0 0)
(0 0 0)
(0 0 0)
(0 0 0)
(0 0 0)
(0 0 0)
(0 0 0)
(0 0 0)
(0 0 0)
(0 0 0)
(0 0 0)
(-1.37559e-21 -8.5059e-20 -7.60841e-15)
(2.99567e-37 -1.11139e-17 -6.62174e-17)
(2.21603e-21 -1.47143e-15 -6.53411e-15)
(0 -4.05585e-17 -2.34805e-18)
(0 -1.62694e-26 0)
(0 -4.75534e-24 -8.90534e-15)
(0 -9.43162e-22 0)
(0 -1.12441e-19 0)
(0 -1.3043e-17 0)
(0 -1.98198e-19 0)
(0 -2.77624e-29 0)
(0 -1.5326e-26 0)
(0 -1.81965e-24 0)
(0 -2.57961e-22 0)
(0 -2.88623e-20 0)
(0 -3.98937e-22 0)
(0 -2.60136e-32 0)
(0 -1.38734e-29 0)
(0 -2.11764e-27 0)
(0 -3.1561e-25 0)
(0 -3.31438e-23 0)
(0 -4.69434e-25 0)
(0 -4.23257e-35 8.14938e-20)
(0 -2.7384e-32 3.6222e-17)
(0 -4.65809e-30 3.22729e-15)
(0 -5.58855e-28 3.6222e-17)
(0 -6.7116e-26 8.1377e-20)
(0 -8.59877e-28 1.16936e-22)
(0 -1.02024e-15 0)
(0 -9.9513e-16 1.25517e-18)
(0 -2.1693e-15 -3.08451e-15)
(0 0 -8.83861e-15)
(0 0 2.21173e-19)
(0 0 2.29163e-25)
(0 0 0)
(0 0 0)
(0 0 0)
(0 0 5.53482e-16)
(0 0 -2.41581e-17)
(0 0 9.00283e-19)
(0 0 3.06558e-17)
(0 0 5.09138e-16)
(0 0 7.85877e-15)
(0 0 -2.61941e-19)
(0 0 3.47194e-23)
(0 0 0)
(0 0 3.16253e-17)
(0 1.54374e-22 -4.69825e-18)
(7.08088e-27 1.86972e-20 0)
(0 0 -5.97123e-25)
(9.54834e-29 0 0)
(0 0 -3.4078e-18)
(0 0 -6.90631e-20)
(0 0 1.24072e-20)
(0 0 1.64158e-22)
(0 0 0)
(0 0 0)
(0 0 0)
(0 0 0)
(0 0 0)
(0 0 0)
(4.1787e-42 0 0)
(0 0 0)
(0 0 -3.33025e-17)
(2.97755e-43 0 0)
(0 0 -3.33025e-17)
(0 0 0)
(0 0 0)
(0 0 0)
(0 0 0)
(0 0 0)
(1.49098e-29 0 -1.07639e-16)
(0 0 -5.09448e-17)
(0 0 5.00418e-17)
(1.59248e-41 0 1.73669e-18)
(0 0 3.43696e-17)
(0 0 0)
(0 0 0)
(0 0 0)
(0 0 0)
(0 0 0)
(0 1.0731e-20 -4.3165e-15)
(0 0 -5.73563e-17)
(7.01243e-37 2.42718e-15 2.07475e-17)
(0 0 -2.17738e-17)
(1.81748e-26 0 -1.34528e-17)
(0 0 -1.71217e-16)
(0 0 -5.10602e-18)
(0 0 2.35277e-19)
(0 0 -2.22875e-19)
(0 0 -2.37883e-19)
(0 0 -1.9131e-18)
(0 0 -9.14355e-20)
(0 0 3.64923e-22)
(0 0 -1.61033e-21)
(2.90487e-21 1.9582e-22 -7.3979e-15)
(0 5.21125e-17 -9.0458e-15)
(0 0 -8.93216e-17)
(6.04095e-33 2.38957e-15 8.75342e-17)
(0 0 8.93611e-19)
(0 0 -3.38394e-16)
(0 0 -9.12114e-18)
(0 0 1.78762e-18)
(0 0 3.168e-20)
(0 0 5.50408e-22)
(0 0 0)
(0 0 1.16837e-16)
(0 0 0)
(0 2.73281e-18 -6.08548e-16)
(0 0 -4.08612e-17)
(0 0 -6.52943e-19)
(7.54813e-25 6.7905e-19 -5.88792e-17)
(0 4.53826e-28 5.79236e-15)
(-3.28757e-21 2.19394e-26 4.76083e-15)
(0 2.24957e-22 4.75608e-15)
(0 -3.05953e-22 -3.3624e-21)
(0 0 -4.96169e-23)
(0 0 -4.56038e-25)
(0 5.20393e-31 1.24672e-15)
(0 5.14247e-31 1.35587e-15)
(0 0 1.27717e-15)
(0 -2.8187e-24 0)
(0 0 0)
(0 0 0)
(0 0 2.95286e-20)
(0 0 0)
(0 0 5.285e-25)
(0 0 0)
(0 0 0)
(0 0 0)
(0 0 0)
(0 0 0)
(0 0 0)
(0 0 0)
(0 0 0)
(0 0 0)
(0 0 0)
(0 0 0)
(0 0 0)
(0 0 0)
(0 0 0)
(0 0 0)
(0 0 0)
(0 0 0)
(0 0 0)
(0 0 0)
(0 0 0)
(0 0 0)
(-7.09507e-20 -1.81162e-15 -1.57051e-15)
(0 -2.12132e-26 2.03332e-15)
(1.40477e-20 -6.65953e-19 0)
(1.27304e-18 -6.34277e-19 -5.57156e-19)
(0 0 2.62153e-17)
(0 -1.45009e-16 7.9123e-17)
(0 0 1.23444e-15)
(0 0 -5.24805e-17)
(0 0 -1.12823e-22)
(0 0 -6.57615e-16)
(0 0 -8.26308e-15)
(0 0 5.72481e-16)
(0 -5.27616e-16 9.09495e-15)
(0 0 0)
(0 0 0)
(0 0 0)
(0 0 0)
(0 0 0)
(0 0 0)
(0 0 0)
(0 0 0)
(0 0 0)
(0 0 0)
(0 0 0)
(0 0 0)
(0 0 -4.85242e-23)
(0 0 7.12168e-15)
(0 0 0)
(7.13964e-25 0 0)
(0 -1.11025e-16 0)
(0 0 0)
(0 -5.27616e-16 -6.07436e-15)
(0 -3.68045e-16 1.31004e-17)
(0 0 0)
(0 0 0)
(0 0 0)
(0 0 0)
(0 0 0)
(0 0 0)
(0 -3.86059e-16 5.50771e-16)
(0 0 0)
(0 0 0)
(7.46319e-18 0 -6.29007e-15)
(0 0 -6.65791e-16)
(0 -9.09495e-15 -9.40896e-16)
(0 0 0)
(0 0 0)
(0 0 0)
(0 0 0)
(0 0 0)
(0 0 0)
(0 0 0)
(0 0 0)
(0 0 0)
(0 0 0)
(0 0 0)
(0 0 0)
(0 0 0)
(0 0 -7.0106e-17)
(-1.31235e-18 0 1.21815e-15)
(1.84783e-16 0 7.04405e-15)
(0 0 5.49683e-18)
(2.11644e-26 0 1.21264e-14)
(1.8922e-16 0 2.87116e-18)
(0 0 4.10184e-18)
(0 0 0)
(0 0 0)
(0 0 0)
(0 0 0)
(0 0 0)
(0 0 0)
(0 0 0)
(0 0 0)
(0 0 0)
(0 0 0)
(0 0 0)
(0 0 0)
(0 0 0)
(0 0 0)
(0 0 0)
(0 0 0)
(0 0 0)
(0 0 0)
(0 0 0)
(0 0 0)
(0 0 0)
(0 0 0)
(0 0 0)
(0 0 0)
(0 0 0)
(0 0 0)
(0 0 8.24842e-32)
(0 0 0)
(0 0 1.00141e-32)
(0 0 4.06202e-33)
(0 0 1.61094e-31)
(9.55163e-20 0 -2.84704e-15)
(1.85527e-15 -1.14904e-15 1.07572e-15)
(0 0 0)
(0 0 0)
(0 0 5.72041e-15)
(0 0 9.39949e-20)
(0 0 0)
(0 0 -1.27597e-16)
(0 0 0)
(0 1.36279e-20 5.573e-20)
(0 0 -1.143e-17)
(0 0 1.21462e-16)
(0 0 1.61921e-18)
(0 0 -6.44705e-16)
(0 0 -7.67735e-15)
(0 0 -6.36644e-16)
(0 -5.50677e-15 7.84393e-15)
(0 0 0)
(-2.15457e-17 0 0)
(0 0 0)
(-4.59139e-24 0 -8.17628e-15)
(0 -9.09335e-15 1.50451e-14)
(0 0 0)
(0 0 0)
(0 0 0)
(-1.47272e-21 0 0)
(-1.92781e-23 0 -4.2821e-17)
(-3.34792e-17 0 7.90711e-16)
(0 0 -4.98693e-15)
(-1.54655e-21 0 -4.27185e-17)
(-8.22401e-22 0 -4.67116e-17)
(0 0 0)
(0 0 0)
(0 0 2.36934e-29)
(0 0 0)
(0 0 4.16955e-29)
(0 0 6.25408e-30)
(0 0 4.7589e-30)
(-4.16437e-20 0 -6.64895e-15)
(0 -4.43955e-15 0)
(0 0 0)
(0 -8.08327e-15 1.36576e-14)
(0 0 -3.86108e-31)
(0 -7.03501e-15 -1.28736e-16)
(0 0 0)
(0 -4.43955e-15 1.90881e-21)
(0 -7.03501e-15 3.78959e-18)
(0 0 0)
(0 0 0)
(0 0 2.84842e-19)
(0 0 0)
(0 0 0)
(0 0 0)
(0 0 0)
(0 -4.44244e-15 5.90991e-16)
(0 -7.03501e-15 7.6403e-15)
(0 0 -5.9138e-34)
(0 0 0)
(0 0 0)
(0 1.3185e-15 2.02942e-15)
(0 0 0)
(0 0 0)
(0 0 0)
(0 0 1.9643e-19)
(0 0 2.72041e-25)
(0 0 0)
(-2.2815e-20 0 0)
(0 0 4.72674e-25)
(0 0 0)
(-3.25983e-18 0 6.30947e-24)
(0 -1.39258e-15 -5.09227e-16)
(0 0 1.04605e-16)
(0 0 0)
(0 0 0)
(0 0 0)
(0 0 0)
(0 0 0)
(0 0 0)
(0 0 0)
(0 0 0)
(0 0 0)
(0 0 0)
(0 0 0)
(0 0 0)
(0 0 0)
(0 0 0)
(0 0 -1.58508e-32)
(0 0 0)
(0 0 0)
(0 0 0)
(0 0 0)
(0 0 0)
(0 0 0)
(0 0 0)
(0 0 0)
(0 0 0)
(0 0 0)
(0 0 0)
(0 0 2.38943e-19)
(0 0 0)
(0 -8.53453e-15 1.40378e-14)
(0 -1.35347e-15 9.62195e-15)
(0 0 0)
(0 0 0)
(0 0 0)
(0 0 0)
(0 0 0)
(0 0 0)
(0 0 0)
(0 0 0)
(0 0 0)
(0 0 0)
(0 0 2.00962e-19)
(0 0 1.23966e-23)
(0 0 0)
(0 0 1.83271e-22)
(0 0 0)
(0 0 0)
(0 0 0)
(0 0 0)
(0 0 0)
(0 0 0)
(0 0 0)
(0 0 0)
(0 0 0)
(0 0 0)
(0 0 0)
(0 0 0)
(0 0 0)
(0 0 0)
(0 0 0)
(0 0 0)
(0 0 0)
(0 0 0)
(0 0 0)
(0 0 0)
(0 0 0)
(4.59232e-28 -9.09495e-15 1.59739e-14)
(0 0 0)
(0 0 0)
(0 0 2.39097e-21)
(0 0 0)
(2.70346e-26 0 -8.67116e-15)
(0 0 0)
(0 0 0)
(0 0 0)
(0 0 0)
(1.73036e-14 1.07138e-14 1.20529e-14)
(5.87895e-17 0 0)
(1.73309e-18 1.08126e-18 0)
(2.41118e-33 0 3.88698e-18)
(1.23392e-17 0 2.12109e-17)
(-1.24732e-23 0 2.34739e-18)
(7.70831e-18 4.19311e-18 1.18725e-17)
(4.07002e-46 3.06939e-32 -3.22756e-15)
(-9.10674e-16 -4.85626e-16 1.68444e-14)
(0 0 0)
(2.7804e-53 -9.17834e-21 -1.81899e-14)
(0 -6.83844e-20 -2.48564e-18)
(0 0 0)
(1.54005e-27 0 0)
(0 0 1.61706e-30)
(0 0 1.07864e-25)
(5.79443e-27 0 0)
(0 0 -1.75821e-15)
(0 0 2.77769e-23)
(0 0 -1.60033e-14)
(0 0 -3.02994e-15)
(0 1.99757e-27 0)
(0 2.00894e-20 -3.45697e-18)
(0 0 1.98418e-18)
(0 0 0)
(-3.74079e-24 0 0)
(2.91909e-24 0 0)
(0 0 -2.29509e-14)
(0 0 0)
(0 4.25183e-19 -2.03475e-21)
(0 0 0)
(0 0 2.70592e-32)
(0 2.13356e-16 0)
(0 2.13356e-16 0)
(-1.33784e-15 0 -3.08431e-15)
(0 1.46316e-15 1.23212e-14)
(0 0 0)
(0 -1.67267e-14 1.36423e-14)
(-1.59243e-14 0 1.36424e-14)
(0 -3.38297e-21 0)
(0 -6.33603e-23 0)
(-1.04849e-15 -1.78178e-14 9.23966e-15)
(1.46197e-16 0 0)
(2.29332e-15 0 1.36424e-14)
(1.51503e-14 -4.26712e-16 1.36424e-14)
(-1.59273e-14 1.81899e-14 1.34578e-14)
(1.08348e-17 0 -1.49895e-14)
(2.64877e-53 6.77984e-19 -1.67486e-14)
(3.49778e-22 0 1.19613e-15)
(1.41392e-16 -3.25176e-18 -1.57976e-14)
(1.2142e-14 -1.53709e-14 -6.95244e-15)
(-1.75448e-17 0 -1.77762e-15)
(-2.61442e-16 -3.03848e-18 0)
(0 0 0)
(0 0 1.14467e-23)
(0 0 4.85104e-23)
(0 0 0)
(0 0 1.13529e-24)
(0 0 0)
(0 0 3.35624e-23)
(0 0 0)
(0 0 -3.87777e-21)
(-3.38857e-25 0 -3.02339e-22)
(0 0 0)
(0 0 -9.00162e-20)
(0 0 0)
(0 0 -4.28704e-21)
(0 0 0)
(0 0 0)
(0 0 2.62971e-29)
(0 0 4.74675e-29)
(0 0 0)
(0 0 0)
(0 0 8.70971e-28)
(0 0 0)
(0 0 0)
(0 0 3.05077e-24)
(0 0 1.79653e-27)
(0 0 0)
(0 0 0)
(0 0 5.48144e-26)
(0 0 0)
(0 0 1.5659e-18)
(2.67996e-24 0 1.05881e-21)
(0 0 0)
(0 0 -1.60599e-18)
(0 0 0)
(0 0 -4.29367e-17)
(0 0 0)
(0 0 -9.80967e-19)
(0 0 -2.17822e-16)
(0 0 0)
(0 0 -1.16656e-14)
(0 0 1.35574e-14)
(0 0 -1.80486e-15)
(0 0 0)
(0 0 0)
(0 0 1.49351e-22)
(0 0 5.63804e-22)
(0 0 0)
(0 0 0)
(0 0 6.26041e-21)
(0 0 0)
(0 0 2.69602e-14)
(0 0 7.31095e-18)
(0 0 6.52692e-21)
(0 0 4.71596e-15)
(0 0 2.39227e-16)
(0 0 2.39569e-19)
(0 0 1.04548e-19)
(0 0 2.39227e-16)
(0 0 -3.9541e-16)
(0 0 -1.83352e-14)
(0 0 1.28362e-17)
(0 0 1.62911e-14)
(0 0 -3.06606e-15)
(-1.70064e-14 2.64324e-25 1.36424e-14)
(0 1.56685e-14 1.36424e-14)
(0 1.80092e-31 0)
(0 -1.48483e-14 1.25522e-14)
(-1.61212e-14 -1.14548e-15 1.19019e-15)
(0 -9.29954e-16 0)
(0 -9.76981e-17 0)
(-1.71535e-14 2.60218e-22 1.11554e-14)
(1.03885e-15 2.15746e-25 0)
(1.59705e-14 1.0397e-23 1.36424e-14)
(0 0 0)
(0 0 3.33759e-22)
(0 0 1.39321e-21)
(0 0 0)
(0 0 2.97044e-21)
(0 0 0)
(0 0 1.37657e-20)
(0 0 0)
(0 0 3.7325e-24)
(-6.58008e-22 0 4.45994e-23)
(-7.33999e-22 0 0)
(-7.21484e-20 0 -2.4956e-22)
(0 0 0)
(-6.59632e-20 0 -7.65473e-25)
(0 0 0)
(0 0 1.73245e-23)
(7.36575e-22 0 9.27413e-22)
(0 1.50323e-27 0)
(7.43206e-20 0 7.12631e-20)
(4.51357e-22 0 0)
(0 1.26249e-26 9.09902e-22)
(0 0 0)
(0 0 -8.53485e-19)
(0 0 -3.24777e-23)
(0 1.14257e-25 0)
(0 9.29485e-24 -2.39505e-19)
(0 2.1369e-24 3.78766e-22)
(0 5.59127e-25 -4.67286e-21)
(0 -2.80688e-16 -1.34162e-14)
(3.48616e-17 0 1.34162e-14)
(2.4754e-16 -2.93968e-16 1.40455e-14)
(-2.98528e-16 7.50267e-18 5.6113e-16)
(0 0 0)
(0 0 2.01934e-18)
(0 -3.11132e-19 1.93172e-18)
(0 0 3.59074e-20)
(0 -3.364e-21 2.2087e-18)
(0 0 0)
(0 0 2.21002e-19)
(-5.24946e-20 0 3.14022e-22)
(-1.14488e-17 0 -2.87212e-20)
(0 0 2.89129e-24)
(-1.16097e-17 0 -1.3425e-22)
(1.22819e-17 0 8.16821e-18)
(5.76269e-20 0 3.44595e-18)
(0 0 0)
(0 3.11077e-21 0)
(0 0 0)
(0 2.87823e-22 0)
(0 0 0)
(0 8.07867e-21 0)
(0 1.04769e-19 0)
(0 0 -1.98996e-16)
(3.58016e-52 0 1.0765e-15)
(3.57321e-20 0 3.17453e-15)
(0 0 -9.99647e-16)
(0 3.41658e-30 -5.30832e-15)
(0 -1.07993e-20 0)
(0 1.59451e-14 1.36318e-14)
(0 3.03113e-16 1.36424e-14)
(0 0 -1.10961e-15)
(0 0 8.93426e-17)
(0 0 8.89651e-17)
(0 0 8.91054e-17)
(0 0 0)
(0 0 0)
(0 0 0)
(0 9.05515e-18 0)
(0 1.64392e-15 0)
(0 5.36647e-17 0)
(0 1.78259e-16 0)
(0 0 0)
(0 0 0)
(0 0 0)
(0 2.18972e-19 0)
(0 6.00298e-17 0)
(0 3.1824e-18 0)
(0 2.66543e-18 0)
(0 -7.77302e-19 -3.18534e-15)
(0 3.01849e-17 -8.68425e-22)
(0 -5.63451e-17 1.25751e-15)
(5.04973e-21 1.57131e-20 4.54747e-15)
(0 0 -2.82217e-21)
(0 0 0)
(2.34272e-18 6.93254e-16 1.36198e-14)
(0 0 2.64226e-24)
(0 0 0)
(0 0 1.47306e-23)
(0 0 0)
(8.01694e-32 0 0)
(0 0 0)
(0 0 0)
(4.6349e-28 6.64565e-19 0)
(1.61579e-19 -1.34806e-17 -1.42362e-25)
(2.6402e-20 1.13431e-23 0)
(0 0 0)
(5.74327e-46 2.8626e-16 0)
(0 0 0)
(1.46295e-39 2.74795e-17 1.45068e-14)
(0 2.13356e-16 0)
(0 0 0)
(0 0 0)
(0 0 0)
(0 0 0)
(0 0 0)
(0 0 0)
(-3.20482e-24 -4.58902e-31 0)
(0 0 1.80006e-18)
(0 0 -3.56843e-19)
(0 0 0)
(0 0 0)
(0 1.62285e-29 0)
(0 0 0)
(0 3.14323e-32 0)
(0 0 0)
(0 0 0)
(0 1.09003e-30 0)
(0 9.59355e-32 0)
(0 0 0)
(4.71629e-27 8.17085e-15 0)
(8.84317e-38 7.1768e-16 -1.43066e-14)
(0 0 0)
(0 0 0)
(1.28451e-24 9.09495e-15 0)
(4.55805e-23 9.09495e-15 1.67267e-14)
(0 2.13356e-16 -1.11563e-15)
(9.43287e-18 -3.20115e-16 1.36424e-14)
(3.43465e-23 1.81899e-14 -1.44532e-15)
(8.67091e-22 0 0)
(3.45802e-16 -1.61265e-14 1.99672e-15)
(5.9154e-23 0 1.36381e-14)
(7.61778e-18 2.04656e-17 1.6734e-14)
(1.47331e-21 6.67135e-19 0)
(0 6.03083e-27 0)
(0 0 0)
(0 1.24426e-30 0)
(0 0 0)
(0 0 0)
(0 5.2214e-29 0)
(0 8.03499e-30 0)
(0 3.42301e-25 0)
(0 0 0)
(0 0 0)
(0 1.92628e-25 0)
(0 0 0)
(0 5.4105e-27 0)
(0 4.46657e-24 0)
(0 7.7801e-28 0)
(0 0 0)
(0 0 0)
(0 2.76088e-27 0)
(0 0 0)
(0 6.61037e-29 0)
(0 7.574e-27 0)
(0 0 0)
(0 0 2.80106e-23)
(0 0 1.27366e-22)
(0 0 0)
(0 0 2.11019e-30)
(0 0 0)
(0 0 5.9708e-32)
(0 0 0)
(0 0 -4.17195e-24)
(0 0 -4.13968e-25)
(0 0 0)
(0 0 0)
(0 0 0)
(0 0 0)
(0 0 0)
(0 0 0)
(0 0 0)
(0 0 0)
(0 0 0)
(0 0 0)
(0 0 0)
(0 0 0)
(0 0 0)
(0 0 0)
(0 0 0)
(0 0 0)
(0 0 0)
(0 0 0)
(2.70279e-26 1.70064e-14 1.36424e-14)
(1.19383e-24 0 1.36424e-14)
(4.00158e-23 7.44545e-31 0)
(1.02686e-24 -1.62328e-14 -2.85201e-15)
(6.13528e-25 -1.62338e-14 1.19125e-15)
(3.71212e-23 -1.04782e-15 1.38044e-14)
(1.12316e-23 -1.07692e-15 0)
(0 0 0)
(0 0 3.57856e-23)
(0 0 2.24634e-22)
(0 0 0)
(0 0 0)
(0 0 8.00353e-22)
(0 0 3.92218e-21)
(0 0 0)
(0 0 6.26558e-21)
(0 0 0)
(0 0 3.75951e-20)
(0 0 0)
(0 0 1.64819e-22)
(0 0 1.76996e-23)
(0 0 0)
(0 0 -3.9821e-23)
(0 0 0)
(0 0 -4.73515e-22)
(0 0 0)
(0 8.39605e-20 0)
(0 0 0)
(0 1.82128e-20 0)
(0 0 0)
(0 3.21354e-19 0)
(0 1.63515e-18 0)
(0 0 0)
(0 5.20817e-29 0)
(0 0 0)
(0 1.31611e-30 0)
(0 0 0)
(0 0 0)
(0 0 0)
(0 0 0)
(0 0 1.88699e-18)
(0 0 1.8781e-18)
(0 0 2.22824e-20)
(0 0 2.29474e-18)
(0 0 0)
(0 0 2.52475e-19)
(0 0 0)
(0 0 -3.60545e-19)
(0 0 -3.80007e-19)
(0 0 -3.31813e-21)
(0 0 -4.17423e-19)
(0 0 0)
(0 0 -3.40983e-20)
(0 0 0)
(0 2.08961e-27 0)
(0 0 0)
(0 6.10397e-29 0)
(0 0 0)
(0 0 0)
(0 0 0)
(1.87364e-20 0 2.85617e-15)
(8.96446e-22 1.02789e-28 -1.15734e-15)
(8.87897e-45 5.11591e-23 0)
(2.66746e-33 4.24043e-27 0)
(3.05495e-44 0 0)
(1.58786e-29 0 6.98353e-26)
(8.11549e-41 6.23332e-21 0)
(9.54932e-31 4.52914e-25 2.49054e-24)
(8.11733e-41 0 2.49174e-24)
(6.24331e-37 7.49502e-19 -2.27914e-20)
(2.89768e-28 2.99944e-23 -2.39017e-16)
(6.24554e-37 0 -2.36413e-16)
(1.47772e-25 7.44819e-17 -1.44577e-24)
(4.00181e-33 7.6282e-17 0)
(8.97882e-26 7.37149e-17 -1.53288e-23)
(3.99986e-33 7.6273e-17 0)
(2.70039e-16 1.15837e-23 0)
(8.50317e-15 1.68138e-14 1.36424e-14)
(5.89346e-23 0 1.25659e-14)
(1.13784e-22 2.59409e-17 8.21742e-17)
(1.59767e-21 0 -1.55545e-14)
(8.17238e-21 3.61077e-19 0)
(3.77131e-20 1.84179e-23 0)
(0 0 0)
(0 0 0)
(0 0 0)
(0 9.9956e-18 0)
(0 1.73777e-15 0)
(0 6.11526e-17 0)
(0 1.87548e-16 0)
(0 0 0)
(0 0 0)
(0 0 0)
(0 0 0)
(0 0 0)
(0 0 0)
(0 0 0)
(6.09167e-41 2.3341e-15 4.83256e-23)
(3.2885e-28 2.33172e-15 -3.2067e-15)
(1.63852e-23 2.25456e-15 2.25852e-15)
(4.68158e-19 1.00434e-21 -2.11289e-15)
(0 0 0)
(0 2.1087e-22 0)
(0 0 0)
(0 0 0)
(0 6.65305e-17 0)
(0 -1.20952e-17 -2.25053e-17)
(1.65698e-14 7.48118e-16 -4.54175e-15)
(0 0 0)
(0 4.05152e-18 0)
(0 0 0)
(0 2.32297e-21 0)
(0 0 1.6292e-14)
(5.09798e-23 0 0)
(0 1.40795e-14 0)
(0 0 0)
(0 0 -1.69795e-14)
(5.12123e-21 4.78453e-16 0)
(0 1.36424e-14 0)
(0 0 -3.60931e-15)
(0 1.72836e-14 1.67267e-14)
(0 4.00105e-26 0)
(0 0 0)
(0 1.73119e-27 0)
(0 0 0)
(0 0 0)
(0 1.71082e-25 0)
(0 3.67566e-29 0)
(0 0 1.78155e-14)
(3.94192e-19 3.21628e-15 -5.67623e-24)
(0 1.54676e-14 -1.99093e-19)
(0 0 5.41985e-31)
(0 0 -4.90667e-17)
(1.14103e-17 9.08992e-15 0)
(0 1.36424e-14 0)
(0 1.81899e-14 -1.10475e-17)
(0 0 1.97091e-14)
(0 0 9.25888e-18)
(-5.05887e-17 1.81899e-14 -4.16171e-16)
(0 7.35289e-28 0)
(0 0 0)
(0 2.80614e-28 0)
(0 0 0)
(0 0 0)
(0 9.09962e-27 0)
(0 8.51549e-30 0)
(0 4.17886e-26 0)
(0 0 0)
(0 0 0)
(0 2.38761e-23 0)
(0 0 0)
(0 7.25643e-25 0)
(0 4.68007e-25 0)
(0 4.97106e-27 0)
(0 0 0)
(0 5.73918e-28 0)
(0 0 -1.72967e-14)
(0 0 0)
(0 2.31878e-26 0)
(0 1.66442e-29 0)
(0 4.27059e-24 0)
(0 0 0)
(0 0 0)
(0 7.90922e-22 0)
(0 0 0)
(0 1.78602e-23 0)
(0 1.94975e-22 0)
(0 4.2798e-25 0)
(0 0 1.61296e-14)
(0 0 0)
(0 6.2103e-23 0)
(0 0 0)
(0 2.00256e-24 0)
(0 1.2855e-23 0)
(0 6.50345e-27 0)
(0 0 0)
(0 0 -1.76654e-14)
(0 2.90255e-24 0)
(0 0 0)
(0 8.31665e-26 0)
(0 3.41187e-25 1.87026e-14)
(0 0 0)
(0 4.69112e-20 0)
(0 0 0)
(0 1.07275e-20 0)
(0 0 0)
(0 1.93603e-19 0)
(0 9.17128e-19 0)
(0 0 1.6059e-14)
(0 1.56511e-22 0)
(0 0 0)
(0 8.92721e-24 -1.43373e-14)
(0 0 -1.7274e-14)
(0 9.76321e-23 1.87605e-14)
(0 2.26431e-21 0)
(0 0 0)
(0 4.38874e-21 0)
(0 0 -2.65847e-14)
(0 8.0911e-22 0)
(0 0 0)
(0 1.70258e-20 0)
(0 1.07539e-19 0)
(0 0 0)
(0 0 0)
(0 0 0)
(0 0 0)
(0 0 1.95366e-14)
(5.97393e-37 -1.51383e-16 0)
(0 7.00334e-17 0)
(2.08316e-17 1.11375e-14 -8.92254e-15)
(0 0 0)
(0 1.81899e-14 0)
(2.69014e-47 7.58556e-15 0)
(0 0 0)
(0 1.00938e-14 -1.10198e-20)
(0 -2.71402e-31 -2.21202e-14)
(0 0 2.39227e-16)
(0 -2.30532e-35 2.39227e-16)
(0 0 0)
(0 0 0)
(0 0 0)
(0 -4.16247e-33 2.59079e-14)
(0 9.15788e-15 -1.68816e-14)
(0 0 1.96129e-14)
(0 1.81035e-14 1.51958e-14)
(0 0 -3.40756e-15)
(0 1.08724e-14 -1.20418e-15)
(5.51777e-38 9.09495e-15 5.83364e-17)
(0 -1.10269e-29 0)
(0 0 0)
(0 -3.02999e-29 0)
(0 0 4.6051e-15)
(0 0 0)
(0 -2.24451e-28 0)
(0 -3.26235e-31 2.39227e-16)
(0 -8.3352e-28 0)
(0 0 -2.74998e-15)
(0 0 0)
(0 -9.33261e-25 0)
(0 0 0)
(0 -2.0243e-26 -2.02823e-18)
(0 -2.13406e-26 0)
(0 0 7.28236e-16)
(0 -8.11189e-28 -2.3583e-14)
(0 0 2.70048e-14)
(0 0 -1.92291e-15)
(0 -1.46621e-26 0)
(0 -6.49828e-25 -6.92828e-17)
(0 -1.02911e-26 -4.42715e-15)
(0 1.81035e-14 -1.51496e-14)
(0 0 -2.11307e-14)
(0 9.19455e-15 1.48505e-14)
(0 0 -1.41202e-14)
(0 0 -1.64649e-15)
(0 -1.97485e-23 2.79426e-15)
(0 0 2.34175e-15)
(0 -1.27473e-24 2.08511e-16)
(0 -3.83896e-23 3.62513e-15)
(0 -7.97425e-22 -3.35971e-15)
(0 0 0)
(0 -2.05119e-23 -4.00281e-16)
(0 0 0)
(0 -4.10524e-25 0)
(0 0 0)
(0 -3.43432e-24 0)
(0 -1.30853e-22 0)
(0 -6.21121e-21 0)
(0 0 -3.27451e-16)
(0 0 -1.42235e-14)
(0 0 8.95301e-16)
(0 -3.39612e-22 -3.0858e-15)
(0 -1.4658e-20 3.18377e-15)
(0 -2.00098e-19 -8.00356e-16)
(0 2.37804e-22 0)
(0 0 0)
(0 0 0)
(0 2.2383e-20 0)
(0 0 0)
(0 0 0)
(0 0 1.50749e-14)
(0 1.3251e-25 0)
(0 0 0)
(0 2.39701e-23 0)
(0 0 0)
(0 4.45842e-21 0)
(0 0 -3.62548e-16)
(0 1.80424e-18 -1.9753e-20)
(0 0 -9.73963e-17)
(0 0 -8.28759e-17)
(0 1.22196e-16 0)
(0 1.22429e-16 0)
(0 1.26776e-16 0)
(0 1.26783e-16 0)
(0 1.36762e-20 1.26132e-18)
(0 0 9.56833e-17)
(0 7.29673e-17 0)
(0 6.59614e-19 0)
(0 0 9.74628e-17)
(0 7.29784e-17 0)
(0 7.29726e-17 0)
(0 0 -1.64541e-14)
(1.41015e-16 -2.08222e-18 -2.23382e-17)
(1.47763e-15 2.05609e-15 1.36424e-14)
(-2.06669e-17 1.19044e-15 1.08931e-14)
(1.96114e-16 0 -1.36206e-16)
(0 -3.28014e-18 1.68986e-23)
(0 -3.28014e-18 0)
(1.45764e-36 0 -8.66031e-15)
(8.03516e-33 -1.81509e-16 0)
(9.66902e-33 -1.8925e-16 0)
(-9.57119e-16 -1.64067e-16 0)
(-1.16175e-15 0 -1.66858e-14)
(-1.50084e-14 1.52499e-14 3.03188e-15)
(-1.02003e-16 -1.85e-16 0)
(0 0 0)
(0 0 7.68297e-30)
(0 0 0)
(0 6.46288e-18 0)
(0 3.90004e-16 0)
(0 3.45646e-17 0)
(0 5.80178e-17 0)
(0 0 2.75082e-16)
(0 0 4.91578e-29)
(0 0 0)
(0 6.55595e-19 0)
(0 8.54775e-17 0)
(0 5.17636e-18 0)
(0 6.61729e-18 0)
(0 0 -1.39195e-14)
(0 6.81551e-17 1.61797e-14)
(0 0 -7.56495e-18)
(0 0 0)
(0 1.35564e-15 -2.53021e-17)
(0 0 0)
(0 0 0)
(0 -1.69366e-19 3.54085e-15)
(0 0 6.09412e-18)
(0 -3.09852e-21 8.10731e-19)
(0 0 1.1004e-20)
(0 0 -2.03099e-20)
(0 0 1.60954e-17)
(0 0 -1.58456e-17)
(9.15554e-43 0 0)
(0 0 0)
(4.58985e-44 0 -1.81899e-14)
(8.82785e-46 0 0)
(4.58985e-44 0 0)
(0 0 0)
(1.24627e-42 0 8.36336e-15)
(0 9.23873e-24 -8.39969e-16)
(0 0 1.35724e-14)
(0 0 -1.35724e-14)
(0 0 0)
(0 1.30182e-21 3.12869e-18)
(0 0 -1.69697e-14)
(0 0 -2.22136e-16)
(5.95251e-37 -1.37131e-16 0)
(0 0 -6.01044e-17)
(2.83706e-41 0 -5.49412e-16)
(9.13721e-37 -1.79809e-16 0)
(0 0 -4.87665e-16)
(3.3623e-41 0 -6.39235e-15)
(1.122e-36 -1.87469e-16 9.09495e-15)
(0 0 6.13436e-16)
(0 2.62712e-19 -3.70441e-18)
(0 0 1.6707e-14)
(0 0 1.64688e-14)
(0 3.95014e-17 3.52769e-18)
(0 2.35226e-17 0)
(0 7.23475e-17 -1.78311e-14)
(0 0 1.14432e-15)
(0 -3.29927e-18 -1.81899e-14)
(0 -4.521e-19 1.1301e-17)
(2.08375e-17 -3.75538e-17 1.57968e-14)
(2.59206e-17 1.5748e-14 1.69342e-14)
(0 -3.29927e-18 -1.58085e-14)
(0 -2.45181e-18 2.09681e-14)
(0 0 1.44017e-16)
(0 -1.21854e-19 1.31335e-17)
(5.84177e-17 0 -1.16033e-15)
(0 0 3.11245e-15)
(0 -3.21461e-18 0)
(0 -2.59717e-17 0)
(0 2.27471e-15 0)
(0 2.27379e-15 -4.51417e-15)
(3.92559e-43 2.27379e-15 0)
(0 2.27375e-15 -4.51417e-15)
(0 2.27471e-15 -9.71953e-16)
(0 2.27465e-15 9.30271e-16)
(3.80011e-40 2.29478e-15 8.06978e-17)
(0 2.27463e-15 9.84925e-16)
(0 2.64382e-15 2.15457e-15)
(0 2.19579e-15 -2.21874e-15)
(1.56225e-35 4.83675e-17 9.68656e-16)
(0 2.1769e-15 -1.23893e-15)
(0 -9.55601e-17 -2.05701e-15)
(1.05915e-31 -2.22801e-15 1.9719e-15)
(0 -9.64526e-17 8.75342e-17)
(0 2.83152e-22 0)
(0 1.83285e-18 -1.60398e-19)
(0 2.40375e-20 0)
(0 -6.74944e-23 -7.57344e-21)
(0 4.37294e-20 -2.32442e-16)
(0 0 -1.93476e-22)
(0 0 0)
(0 0 4.94796e-17)
(0 -5.04159e-22 0)
(0 0 0)
(0 0 0)
(0 0 1.10636e-23)
(0 0 0)
(0 0 0)
(0 0 0)
(0 0 0)
(0 0 0)
(0 0 0)
(0 0 0)
(0 0 0)
(0 0 0)
(0 0 0)
(0 0 0)
(0 0 0)
(0 0 0)
(0 0 0)
(0 0 0)
(0 -1.90299e-20 -5.53314e-20)
(0 0 -1.45765e-21)
(0 0 -1.99058e-23)
(-9.10203e-22 -8.31911e-24 -5.94498e-15)
(-1.28055e-19 -1.65548e-18 1.54753e-15)
(-8.60684e-19 0 7.36286e-17)
(-3.60089e-18 0 -8.86522e-16)
(6.98085e-24 -6.17933e-20 -5.66293e-16)
(-4.49131e-18 0 -2.38896e-21)
(-1.86592e-22 0 -3.37355e-16)
(-8.41333e-23 -6.17933e-20 -2.40526e-16)
(-6.24901e-25 -6.17933e-20 -5.54165e-16)
(1.71163e-21 -6.17933e-20 -7.42692e-16)
(0 -9.09495e-15 0)
(0 -5.06058e-17 9.55223e-18)
(0 0 0)
(0 0 0)
(0 0 0)
(0 0 0)
(0 -9.09495e-15 1.80986e-23)
(0 0 0)
(0 0 0)
(0 0 0)
(0 -5.16953e-17 0)
(0 -8.3516e-22 1.20312e-17)
(0 -5.16953e-17 1.3283e-19)
(0 -8.37956e-22 -5.12309e-20)
(0 -9.09495e-15 -2.67032e-19)
(-5.62659e-17 -3.19163e-23 1.24319e-15)
(-4.18509e-18 -9.06335e-15 1.75866e-14)
(0 0 -2.14581e-29)
(0 0 -8.52937e-30)
(-1.08981e-25 0 -2.60019e-34)
(-1.83176e-16 -1.74738e-14 -6.85559e-15)
(0 0 0)
(0 0 0)
(0 0 0)
(0 0 0)
(0 0 0)
(0 0 0)
(0 0 0)
(0 0 0)
(0 0 0)
(0 0 0)
(0 0 0)
(0 0 0)
(0 0 0)
(0 0 0)
(0 0 0)
(0 0 -5.00295e-31)
(0 0 0)
(0 0 -9.0619e-30)
(0 0 0)
(0 0 0)
(0 0 0)
(-5.92594e-17 -5.51976e-18 -8.51241e-19)
(-1.24225e-23 -3.91541e-18 -1.8464e-18)
(-5.66166e-17 -5.85227e-18 5.47368e-22)
(-3.02741e-21 -4.20391e-18 3.31638e-16)
(-3.49919e-19 -4.00701e-18 6.55006e-17)
(-5.66222e-17 -5.85209e-18 -8.33901e-19)
(1.87682e-18 -4.31752e-16 -5.738e-24)
(-9.30978e-16 0 1.22625e-14)
(-1.97969e-17 0 3.07637e-17)
(1.71246e-16 1.01255e-15 1.57928e-14)
(0 0 0)
(0 0 8.62659e-32)
(0 0 0)
(0 0 9.5564e-31)
(0 7.29119e-16 1.5456e-21)
(0 7.25759e-16 1.95678e-15)
(0 7.30433e-16 4.16027e-15)
(-3.25908e-20 -4.74309e-18 -2.14616e-16)
(0 1.55356e-31 -3.65239e-15)
(1.06836e-18 0 -2.65315e-16)
(0 2.31228e-26 2.46615e-15)
(-1.92807e-18 3.51664e-24 3.19936e-15)
(0 0 0)
(0 0 -8.9234e-28)
(-1.09714e-20 -3.27159e-19 -4.0849e-16)
(0 0 6.62687e-17)
(1.08062e-15 0 -6.77903e-22)
(0 2.32869e-30 1.74608e-18)
(0 0 0)
(0 0 0)
(0 0 0)
(0 0 0)
(0 0 0)
(0 0 -8.8155e-22)
(0 0 1.39062e-26)
(-2.48711e-15 0 -1.79272e-14)
(-2.48711e-15 -2.84208e-27 -9.34561e-24)
(-2.84037e-15 0 0)
(-2.84037e-15 0 7.82527e-15)
(1.07734e-14 -4.68714e-21 -3.35514e-15)
(-1.70825e-24 0 2.12036e-18)
(0 0 -1.4833e-28)
(0 0 -1.8121e-20)
(0 0 0)
(-2.4418e-15 -2.57783e-25 1.13477e-14)
(0 0 -7.28276e-18)
(0 0 -1.6549e-36)
(1.4123e-14 -9.97914e-16 -6.73602e-16)
(0 0 0)
(0 0 0)
(0 0 0)
(0 0 0)
(0 0 0)
(0 0 0)
(0 0 0)
(0 0 0)
(0 0 0)
(0 0 0)
(0 0 0)
(0 0 0)
(0 0 0)
(0 0 0)
(0 0 0)
(0 0 0)
(0 0 0)
(0 0 0)
(0 0 0)
(0 0 0)
(0 0 0)
(0 0 0)
(0 0 0)
(0 0 0)
(0 0 0)
(0 0 0)
(0 0 0)
(0 0 0)
(0 0 0)
(0 0 0)
(0 0 -1.0732e-27)
(0 -3.15543e-19 0)
(0 -8.30895e-17 2.0978e-30)
(0 -2.25663e-18 0)
(0 -7.27653e-18 6.31961e-29)
(0 2.54356e-18 -6.56124e-20)
(-6.4969e-15 1.6972e-17 1.31727e-14)
(0 2.43633e-18 -4.33634e-20)
(0 0 0)
(0 0 0)
(-4.5487e-20 0 0)
(-4.955e-18 0 3.15962e-26)
(-1.58675e-18 0 0)
(-2.21952e-16 0 1.9725e-25)
(-2.5473e-15 -7.88159e-26 -5.48368e-17)
(-2.73553e-15 -2.93613e-22 -2.04158e-15)
(-6.85431e-16 8.90665e-17 1.25316e-14)
(0 0 0)
(7.69491e-32 8.73543e-19 1.36512e-26)
(0 2.39028e-15 0)
(-1.45821e-16 0 -2.24117e-19)
(-8.28688e-19 -2.00194e-19 7.74323e-16)
(-6.83035e-15 1.62583e-14 1.31341e-14)
(0 -4.65337e-21 -8.68945e-18)
(-3.15329e-17 2.48842e-21 1.36424e-14)
(-1.09724e-16 -2.03185e-19 -2.43413e-16)
(-6.35775e-19 -3.271e-19 -3.85883e-16)
(-1.14896e-15 0 1.36424e-14)
(-1.74793e-14 0 0)
(-5.00988e-16 0 -1.39462e-14)
(-1.35813e-14 0 1.36424e-14)
(-8.36465e-17 0 1.00191e-15)
(-2.89492e-20 0 1.33094e-14)
(0 0 1.13482e-15)
(0 0 0)
(0 0 -1.83559e-29)
(0 0 -1.1591e-28)
(0 0 0)
(0 0 0)
(0 0 -3.15067e-19)
(0 0 -2.52163e-18)
(0 2.56295e-19 -6.51946e-19)
(0 0 0)
(0 0 0)
(-1.0243e-19 0 4.7665e-20)
(-2.77236e-19 0 -6.38314e-18)
(-4.08267e-20 0 0)
(-1.97009e-18 0 -3.25137e-19)
(0 0 0)
(0 0 0)
(0 0 0)
(0 0 -3.80062e-18)
(0 0 -4.21168e-16)
(0 0 -4.995e-17)
(0 0 -2.51875e-17)
(0 0 0)
(0 0 0)
(0 0 0)
(-2.23047e-18 0 -8.3022e-17)
(-9.30047e-20 0 0)
(0 0 0)
(0 0 0)
(0 0 0)
(-1.49754e-16 0 0)
(-4.7086e-18 0 0)
(-2.77334e-16 0 1.45109e-18)
(-1.70121e-24 0 1.77275e-18)
(0 0 1.80408e-27)
(0 0 0)
(-2.26992e-25 0 3.01557e-19)
(-1.51183e-26 0 0)
(-1.45991e-24 0 1.81815e-18)
(0 0 0)
(0 0 0)
(0 0 0)
(0 0 0)
(0 0 0)
(0 0 0)
(0 0 0)
(0 0 -9.4398e-18)
(0 0 -1.17933e-27)
(0 0 0)
(0 0 0)
(0 0 -2.38588e-28)
(0 0 -4.2555e-29)
(0 0 -8.98186e-28)
(1.81899e-14 -1.31081e-15 1.36424e-14)
(-8.02538e-26 5.6183e-19 1.21588e-16)
(-1.81884e-14 1.87485e-28 -1.68501e-16)
(-4.11627e-25 1.09674e-16 2.67076e-16)
(-4.11627e-25 5.93674e-19 2.71567e-16)
(-8.85136e-22 1.61286e-28 1.00196e-16)
(-6.74738e-19 8.78926e-29 -1.10992e-16)
(0 0 0)
(0 0 0)
(0 0 0)
(0 0 0)
(0 0 0)
(0 0 0)
(0 0 0)
(0 0 0)
(1.8444e-15 0 0)
(0 -2.52482e-16 0)
(6.30472e-17 0 0)
(0 -9.54942e-18 0)
(0 -5.63131e-19 0)