/*--------------------------------*- C++ -*----------------------------------*\
  =========                 |
  \\      /  F ield         | OpenFOAM: The Open Source CFD Toolbox
   \\    /   O peration     | Website:  https://openfoam.org
    \\  /    A nd           | Version:  9
     \\/     M anipulation  |
\*---------------------------------------------------------------------------*/
FoamFile
{
    format      ascii;
    class       volScalarField;
    location    "0.0021";
    object      alpha.c4;
}
// * * * * * * * * * * * * * * * * * * * * * * * * * * * * * * * * * * * * * //

dimensions      [0 0 0 0 0 0 0];

internalField   nonuniform List<scalar> 
16514
(
5.67959e-05
0.00158253
0.00070269
0.000641991
1.83012e-07
5.95658e-07
0.0015483
4.02119e-06
0.00214997
0.00147487
0.0020524
0.000581072
0.000394864
0.000544566
0.000367447
0.00110073
0.00132615
0.00186391
0.000392346
0.000250373
0.000480966
0.00031853
0.00103625
0.000602202
0.00098251
0.000132525
0.000243099
0.000223034
0.000118982
0.000388972
0.00165707
0.000654726
6.76587e-07
0.000598146
4.46404e-06
0.000656177
6.98993e-07
9.367e-06
0.00222926
4.09514e-06
0.000645162
2.12336e-07
0.000414953
6.31901e-07
8.80931e-06
0.00221072
0.00131012
4.98079e-05
5.00402e-09
1.32669e-05
2.4422e-06
1.05347e-07
0.000289409
0.00218918
0.000406779
0.00157377
0.0022067
0.00158178
0.000606056
0.000411394
0.00222133
0.00159484
0.00158961
0.000611055
0.00061034
0.000413689
0.000413753
0.0021276
0.00158009
0.00151433
0.000601992
0.000570761
0.000406343
0.000382011
0.00194271
0.00114045
0.00136747
0.000418965
0.000508687
0.000334263
0.000265984
0.000138658
0.00025163
0.00105317
0.000656225
0.00105619
0.000254396
0.000140564
0.000656553
0.00106053
0.00105877
0.00025533
0.000139954
0.000254661
0.000140932
0.000955432
0.000869844
0.000604148
0.000315212
0.000213893
0.000189388
0.000119829
0.00104792
0.000606967
0.000997328
0.00013496
0.000248387
0.000230093
0.000122334
0.000721569
0.000528804
0.000887927
0.000195811
7.30485e-05
0.000149003
0.000100654
0.000405074
0.000522066
0.000871536
6.8802e-05
0.000140649
0.000187692
9.67018e-05
0.000639304
0.000218196
0.000381163
6.88996e-05
0.000129125
6.71959e-05
3.31271e-05
0.000527697
0.000179796
0.000347024
4.60673e-05
0.000100046
5.90674e-05
2.52102e-05
6.05782e-05
8.15373e-06
0.000101322
3.32262e-06
6.87093e-06
9.10779e-05
5.36813e-05
6.43027e-05
8.96945e-06
0.000106977
9.38574e-06
0.000109691
6.59528e-05
4.68153e-06
9.5118e-06
0.000110161
0.000110681
6.64745e-05
4.64628e-06
6.59783e-05
4.74011e-06
7.65299e-06
0.000106686
9.77581e-05
4.31879e-06
6.34171e-05
5.72287e-05
3.67335e-06
0.000110641
0.00010005
0.000206208
3.0621e-05
4.88331e-06
1.19817e-05
1.38464e-05
6.31118e-05
5.9662e-06
8.2574e-05
4.70213e-05
1.80608e-06
3.42962e-05
2.76759e-06
7.56595e-05
3.47852e-06
5.21292e-06
2.43594e-06
1.54364e-06
3.09041e-05
4.33238e-05
1.40194e-05
1.68285e-06
3.16563e-05
4.70168e-07
1.35938e-06
2.73985e-05
1.17661e-05
1.52968e-05
1.88928e-06
3.3956e-05
3.49038e-05
7.13704e-07
1.98673e-06
1.5819e-05
3.51353e-05
7.20964e-07
1.56207e-05
1.95818e-06
3.47096e-05
2.0091e-06
1.59181e-05
1.45798e-05
1.79494e-06
3.29613e-05
2.90651e-05
5.12165e-07
1.49013e-06
1.24738e-05
4.30431e-05
2.57414e-05
1.25161e-06
1.00966e-06
2.18135e-05
1.1978e-05
4.82437e-07
3.20288e-07
9.6134e-07
5.79237e-07
5.42402e-06
1.42253e-05
2.12109e-05
8.67908e-06
2.2964e-05
6.72946e-07
6.08008e-06
3.58932e-07
1.58068e-05
1.08272e-06
9.41778e-06
5.48041e-07
2.04171e-07
5.81038e-06
5.62501e-06
6.83436e-08
1.9664e-07
2.21908e-06
3.54453e-07
3.30052e-06
9.33692e-06
4.68659e-06
4.41826e-08
1.58265e-07
1.50489e-06
0.00505982
0.0486985
0.0437343
0.00198147
0.0248479
0.00841927
0.00631656
0.0245152
0.00221861
0.0541214
0.00640952
0.00510705
0.0246192
0.00219811
0.00152365
0.0197335
0.0546337
0.00639513
0.0337786
0.025369
0.0014227
0.00417289
0.000254682
0.00111295
0.0155444
0.0537692
0.0533142
0.0432606
0.0291742
0.0290264
0.0231751
0.023353
0.0534557
0.0437663
0.0432981
0.0294408
0.0291323
0.0232171
0.0234366
0.0543811
0.0441463
0.0438327
0.0296244
0.0293621
0.023581
0.0233246
0.0257267
0.0527735
0.0381097
0.0421394
0.0282231
0.0222269
0.0198756
0.00512268
0.00084637
0.000133615
9.35016e-06
0.000110933
0.000653368
0.00188151
0.0127934
0.0337568
0.0244698
0.0332854
0.0175443
0.0177266
0.0126485
0.0243658
0.0335006
0.0332174
0.0175265
0.0126721
0.0176539
0.0126084
0.0337411
0.0242459
0.0333962
0.012697
0.017741
0.0174896
0.0124449
0.0420332
0.0219612
0.0318455
0.0245739
0.0174957
0.01644
0.0125771
0.0227735
0.0281402
0.0317756
0.0164935
0.00991112
0.0144444
0.0115753
0.0179664
0.0121583
0.017732
0.00910869
0.0130263
0.00898093
0.00605573
0.0145568
0.00633296
0.0145321
0.0113459
0.00476829
0.0113927
0.00476761
0.00637062
0.0147253
0.0146012
0.0113777
0.00481503
0.0114659
0.00478697
0.0227904
0.0112621
0.0169766
0.00771326
0.0115769
0.00853498
0.005511
0.0147631
0.00624037
0.0145491
0.00480256
0.0114967
0.0113038
0.00467006
0.012393
0.0058225
0.0138129
0.0106353
0.00369712
0.00935355
0.00431099
0.00795238
0.00769758
0.0118745
0.00588463
0.00235367
0.00369091
0.00385242
0.00587436
0.00222087
0.00336962
0.00836825
0.00221601
0.00336339
0.00583373
0.00836862
0.00221479
0.00584302
0.0033814
0.0084151
0.00336823
0.00582137
0.0104037
0.00316007
0.00814242
0.00291314
0.00759981
0.00570002
0.00210417
0.00802059
0.0121341
0.00789127
0.00602736
0.00389074
0.00379914
0.00239008
0.00583107
0.00336489
0.00842572
0.00824706
0.0021009
0.00325006
0.00566272
0.00766892
0.00247179
0.00187605
0.00434858
0.00659649
0.00295729
0.00518362
0.00403068
0.00220891
0.00593404
0.00396804
0.000857773
0.00139731
0.00258217
0.00323416
0.00322071
0.00515143
0.00143545
0.00241182
0.00144382
0.000832407
0.00316664
0.00496306
0.00300985
0.00130201
0.00228424
0.00139996
0.000772216
0.00187467
0.00330361
0.0051817
0.00373009
0.00073642
0.00129303
0.00229001
0.00249098
0.000887119
0.000482851
0.000448716
0.000819774
0.00147183
0.00155939
0.00256034
0.000489585
0.00157799
0.000467288
0.00152398
0.000904665
0.000260642
0.00116898
0.00113348
0.00195928
0.000819115
0.000227227
0.000432752
0.000452569
0.000502941
0.000265726
0.000917643
0.000506967
6.35541e-05
0.000267051
0.000134945
0.000239464
0.000437477
0.000847317
0.00048481
5.4963e-05
0.00024081
0.000127149
0.0442019
0.0248539
0.0234915
0.0425559
0.00928869
0.00438855
0.00843877
0.0062674
0.0542475
0.0440463
0.0541356
0.0293105
0.0290855
0.0235111
0.0233069
0.052692
0.0385888
0.0487165
0.0255196
0.0279965
0.022283
0.0199486
0.0251124
0.0126732
0.0128761
0.0341592
0.0339549
0.0178674
0.0176704
0.020364
0.0288245
0.0324946
0.0101326
0.014663
0.011844
0.016735
0.0145524
0.00608594
0.014322
0.0047392
0.0114119
0.0112209
0.00459313
0.0121777
0.0036176
0.00495083
0.00566042
0.0135863
0.0105651
0.00423069
0.0058761
0.00220003
0.00334831
0.00572371
0.00210268
0.00827308
0.00322964
0.00661836
0.0052499
0.00244061
0.00151211
0.00187478
0.00770658
0.00293404
0.147318
0.00960292
0.0813634
0.0484137
0.0400909
0.0987256
0.0566398
0.0368493
0.19881
0.24462
0.181634
0.194639
0.151448
0.141846
0.109962
0.0804513
0.0809078
0.112359
0.111802
0.152464
0.111983
0.0802984
0.110824
0.148912
0.112014
0.0761366
0.105651
0.0791138
0.0556992
0.121917
0.0601758
0.0745144
0.0569066
0.0939386
0.0727872
0.0440648
0.0575614
0.0267853
0.0391137
0.0569915
0.0807205
0.0563233
0.0390114
0.308276
0.0446591
0.175543
0.188774
0.124485
0.170861
0.0438785
0.30446
0.0929094
0.302044
0.172386
0.140454
0.0441449
0.0610028
0.139405
0.0940715
0.308686
0.26537
0.224854
0.264977
0.225453
0.189532
0.189465
0.264988
0.221746
0.304823
0.300982
0.260105
0.218644
0.185184
0.301011
0.262193
0.259368
0.221595
0.218684
0.184755
0.18705
0.281075
0.2326
0.25643
0.207692
0.221558
0.18433
0.168632
0.118638
0.153109
0.220461
0.170904
0.215256
0.149465
0.115582
0.169497
0.216066
0.213983
0.14866
0.11567
0.150258
0.114697
0.218435
0.170816
0.217313
0.116711
0.152015
0.151411
0.115714
0.148758
0.0763381
0.0925464
0.0914765
0.146725
0.122338
0.0752557
0.0916347
0.148963
0.146853
0.122186
0.076146
0.123742
0.0752449
0.161644
0.184044
0.207819
0.145568
0.0961305
0.129991
0.109919
0.151147
0.0939787
0.151404
0.0769744
0.125305
0.125102
0.0766602
0.0856193
0.0918807
0.148701
0.121643
0.067671
0.111441
0.0742042
0.0751397
0.0989595
0.0597497
0.096844
0.0438066
0.0586908
0.0734208
0.0964232
0.0435681
0.0735162
0.0590689
0.0974388
0.058505
0.0729328
0.0740888
0.0596049
0.0984893
0.0979908
0.0436154
0.0591698
0.073367
0.0843155
0.0505489
0.0360015
0.0941975
0.0412396
0.0566575
0.0696476
0.0534047
0.0745549
0.0453468
0.0323116
0.0220871
0.0528514
0.0319233
0.0687273
0.0411619
0.0285291
0.0514279
0.0207954
0.0307819
0.0353697
0.0166696
0.0249423
0.0147055
0.03637
0.0143601
0.0216744
0.0245949
0.0111006
0.0276728
0.0392288
0.0250806
0.00464083
0.0084125
0.0166047
0.0278002
0.0569589
0.0569165
0.0809532
0.0575314
0.0399333
0.0393726
0.0268402
0.0181629
0.0267992
0.0398221
0.0189137
0.0275775
0.0181487
0.0121528
0.0403507
0.0188419
0.0276707
0.0179695
0.0268463
0.0181168
0.0119938
0.0369512
0.0220963
0.0148128
0.0146677
0.0250001
0.0167795
0.0096974
0.0127443
0.0188637
0.0126663
0.0121061
0.00512103
0.00790264
0.00798661
0.0167873
0.00626893
0.00972557
0.0111151
0.00399362
0.00725922
0.00628683
0.010795
0.00949598
0.00598395
0.0110303
0.00385107
0.00708709
0.00619928
0.00288051
0.00147237
0.0024707
0.00241686
0.00396137
0.00456819
0.00721815
0.0555663
0.0753172
0.211111
0.107276
0.0195792
0.0458581
0.0403357
0.0815603
0.169531
0.167401
0.170647
0.134349
0.129038
0.130861
0.0988784
0.220363
0.326936
0.324415
0.575265
0.390138
0.221138
0.176487
0.311229
0.384058
0.564741
0.479821
0.453185
0.337566
0.310807
0.190128
0.485084
0.440648
0.46545
0.538774
0.507993
0.507303
0.482849
0.483787
0.446759
0.424416
0.560287
0.538979
0.526261
0.522059
0.516574
0.484535
0.472995
0.139102
0.259988
0.324441
0.0620786
0.106667
0.139094
0.138067
0.149625
0.0777912
0.13769
0.258228
0.429818
0.346678
0.144627
0.446218
0.363215
0.422959
0.325335
0.384911
0.364646
0.307542
0.518318
0.423945
0.462846
0.427176
0.464692
0.406447
0.370021
0.44785
0.37239
0.427156
0.328968
0.386241
0.366908
0.312709
0.530263
0.433786
0.485489
0.444036
0.489208
0.440889
0.390057
0.498122
0.436033
0.479995
0.383678
0.436178
0.424279
0.373081
0.460823
0.391332
0.390267
0.344808
0.419563
0.413639
0.342723
0.306258
0.269806
0.269071
0.25373
0.254655
0.219376
0.206946
0.357603
0.375603
0.410104
0.351276
0.271103
0.318655
0.299458
0.272002
0.270718
0.326317
0.30914
0.209398
0.255992
0.257913
0.346061
0.366587
0.404162
0.348152
0.261501
0.292694
0.313916
0.386839
0.370282
0.375284
0.316233
0.324808
0.329832
0.269105
0.394727
0.384084
0.439571
0.39053
0.288553
0.337656
0.34055
0.400935
0.378087
0.3476
0.390015
0.2936
0.34567
0.327868
0.652409
0.672817
0.655201
0.666934
0.663362
0.676254
0.623685
0.624262
0.66709
0.67347
0.673812
0.66631
0.67337
0.67275
0.666031
0.68331
0.68165
0.681907
0.681982
0.680007
0.677843
0.666874
0.666536
0.66674
0.673461
0.671934
0.66518
0.669101
0.66588
0.662245
0.667057
0.662665
0.665301
0.671722
0.670202
0.664826
0.673377
0.679651
0.671966
0.670673
0.615028
0.657933
0.646694
0.657266
0.656962
0.644224
0.596392
0.673053
0.665731
0.637098
0.659934
0.65505
0.642086
0.666822
0.661964
0.659157
0.664006
0.558076
0.50775
0.592614
0.652773
0.565151
0.631381
0.607181
0.661325
0.52811
0.660352
0.661657
0.663391
0.656908
0.660377
0.656351
0.659714
0.667576
0.679756
0.669173
0.65851
0.597941
0.664378
0.643314
0.661416
0.663489
0.664007
0.661023
0.662784
0.663486
0.660693
0.662358
0.66545
0.665793
0.661749
0.664648
0.664763
0.662457
0.665617
0.643006
0.664202
0.664258
0.662404
0.668253
0.641128
0.668972
0.674602
0.67397
0.673059
0.667028
0.668392
0.674088
0.66178
0.660787
0.661125
0.660487
0.66047
0.660886
0.660137
0.638281
0.590597
0.589161
0.639878
0.541223
0.60918
0.590464
0.660678
0.660083
0.66042
0.660031
0.659367
0.659706
0.6597
0.667601
0.673336
0.643825
0.667777
0.674322
0.655157
0.678584
0.660509
0.662876
0.658543
0.6614
0.663446
0.660872
0.658536
0.659873
0.661542
0.660596
0.657621
0.662374
0.659455
0.658099
0.663799
0.660542
0.644769
0.664813
0.666859
0.641596
0.663454
0.671827
0.666079
0.665391
0.66894
0.667287
0.672685
0.668961
0.658878
0.658156
0.656781
0.656666
0.658556
0.65848
0.657098
0.649059
0.572368
0.620545
0.642487
0.635047
0.602415
0.654882
0.669066
0.666267
0.650836
0.663421
0.661985
0.674813
0.664244
0.659269
0.659029
0.65722
0.657048
0.659398
0.658927
0.657367
0.662272
0.659048
0.654038
0.652882
0.663158
0.656363
0.659862
0.655088
0.663338
0.661235
0.661011
0.662489
0.660401
0.660029
0.662143
0.659612
0.660208
0.659962
0.659044
0.659383
0.659
0.65866
0.660099
0.662829
0.660663
0.659499
0.660872
0.65871
0.66164
0.657078
0.659142
0.658548
0.661105
0.659041
0.658505
0.660605
0.658698
0.659255
0.659607
0.65847
0.657361
0.657694
0.65813
0.655404
0.655803
0.656118
0.657719
0.658047
0.657503
0.657177
0.655519
0.655374
0.65745
0.657755
0.65889
0.656718
0.659898
0.653158
0.65414
0.654451
0.656768
0.655438
0.655752
0.656446
0.515083
0.47823
0.620928
0.590729
0.663148
0.386202
0.50749
0.612015
0.529832
0.67767
0.668718
0.671378
0.654668
0.640404
0.647234
0.618917
0.243264
0.388735
0.55716
0.600693
0.454762
0.236926
0.387631
0.647585
0.58645
0.624335
0.561625
0.605983
0.583084
0.538093
0.653713
0.598467
0.632536
0.585478
0.624583
0.598201
0.564615
0.629898
0.554125
0.597863
0.575777
0.611216
0.579388
0.540092
0.451465
0.506557
0.557408
0.537908
0.433639
0.485879
0.49134
0.566154
0.570032
0.603388
0.564042
0.481741
0.518709
0.529335
0.577336
0.603965
0.608408
0.541667
0.571495
0.490999
0.508708
0.58589
0.544379
0.52722
0.529763
0.554086
0.484477
0.484895
0.550956
0.557021
0.58972
0.562554
0.490959
0.528547
0.525703
0.520804
0.444242
0.418022
0.433052
0.468123
0.486605
0.476423
0.533418
0.46089
0.517445
0.438603
0.396
0.384988
0.453066
0.472059
0.383888
0.461802
0.41609
0.345203
0.339453
0.424552
0.453825
0.501075
0.502957
0.435347
0.383664
0.436511
0.382628
0.462855
0.383999
0.460153
0.414921
0.341643
0.417504
0.338665
0.577049
0.519938
0.63757
0.59731
0.618298
0.666668
0.588868
0.505847
0.663154
0.658509
0.622887
0.624215
0.64731
0.645047
0.657482
0.564733
0.512037
0.569745
0.532074
0.601993
0.607521
0.542568
0.63418
0.637335
0.655126
0.640453
0.602632
0.641137
0.617043
0.594079
0.572083
0.546236
0.62456
0.596256
0.619287
0.616466
0.650488
0.633006
0.65235
0.6409
0.599057
0.634137
0.613853
0.584632
0.574473
0.568905
0.629574
0.629528
0.625797
0.615366
0.545302
0.582055
0.586141
0.61767
0.536749
0.586549
0.589447
0.619816
0.522514
0.559223
0.570513
0.607542
0.572481
0.580817
0.364913
0.317438
0.295468
0.237328
0.289258
0.310372
0.37244
0.363319
0.235415
0.309571
0.289882
0.365194
0.287689
0.308237
0.635193
0.525787
0.641604
0.576515
0.6203
0.651219
0.651904
0.653827
0.661396
0.652504
0.65818
0.647115
0.447049
0.255575
0.447691
0.64997
0.61965
0.670084
0.659211
0.660168
0.657899
0.659803
0.657569
0.655932
0.657772
0.665773
0.663675
0.662322
0.663181
0.661403
0.648023
0.658646
0.657838
0.656575
0.656902
0.65626
0.656581
0.65502
0.654733
0.660645
0.572665
0.637944
0.570154
0.635949
0.601824
0.513177
0.595377
0.646888
0.64947
0.441515
0.594808
0.632076
0.589771
0.202323
0.379664
0.634877
0.119972
0.300146
0.518897
0.202734
0.652015
0.656984
0.655263
0.653006
0.64603
0.653414
0.648504
0.657916
0.653295
0.656035
0.653471
0.647534
0.649627
0.654003
0.620996
0.65745
0.645998
0.62451
0.633448
0.649256
0.588572
0.625717
0.65891
0.648473
0.626031
0.635812
0.592088
0.650175
0.651402
0.654071
0.654355
0.652435
0.64899
0.648914
0.652244
0.652701
0.654824
0.655118
0.652879
0.649966
0.649918
0.652683
0.548281
0.510922
0.598587
0.552401
0.381147
0.447677
0.490646
0.553765
0.513757
0.602674
0.554214
0.380738
0.493745
0.448212
0.591375
0.611151
0.478667
0.612634
0.543347
0.635345
0.541426
0.649436
0.634812
0.636125
0.637094
0.643857
0.647258
0.643159
0.649087
0.636906
0.643685
0.635562
0.642644
0.634501
0.619977
0.590629
0.612382
0.54293
0.610385
0.540138
0.477852
0.576048
0.649747
0.639964
0.645932
0.646483
0.6459
0.645314
0.649798
0.649412
0.646331
0.645739
0.645477
0.644834
0.639664
0.641322
0.493137
0.347976
0.31589
0.315688
0.423428
0.380889
0.422044
0.492077
0.315073
0.422881
0.313874
0.420306
0.34696
0.254363
0.632065
0.641859
0.640247
0.631944
0.625647
0.620623
0.635074
0.4028
0.5773
0.479433
0.402507
0.45836
0.525638
0.321309
0.621997
0.620853
0.635186
0.621885
0.557743
0.60297
0.595286
0.640026
0.628635
0.638224
0.630806
0.623319
0.618092
0.634038
0.617628
0.617711
0.632731
0.620468
0.553791
0.599825
0.593425
0.572759
0.397053
0.474116
0.400309
0.454455
0.319026
0.523283
0.275256
0.255242
0.348263
0.274882
0.157084
0.210566
0.201812
0.254058
0.273314
0.344686
0.273693
0.157022
0.210075
0.201246
0.238612
0.366691
0.292284
0.360407
0.235694
0.289516
0.305094
0.291031
0.214208
0.213941
0.240638
0.241611
0.19588
0.172715
0.31182
0.211631
0.211934
0.260831
0.264923
0.21385
0.167031
0.176659
0.138521
0.175895
0.167206
0.208188
0.166162
0.131128
0.278022
0.223638
0.267275
0.230761
0.277541
0.22027
0.178243
0.295045
0.220585
0.199084
0.216435
0.243431
0.264989
0.246189
0.175265
0.219544
0.176994
0.166916
0.207018
0.165373
0.130261
0.300759
0.245672
0.286196
0.24472
0.288882
0.230427
0.192193
0.619963
0.612298
0.582926
0.611062
0.603174
0.604509
0.625034
0.336068
0.240357
0.221061
0.239663
0.291223
0.273839
0.282432
0.602165
0.505518
0.5399
0.503762
0.574331
0.575928
0.556758
0.090413
0.119948
0.156656
0.210144
0.116565
0.157689
0.15759
0.320539
0.379689
0.180539
0.378518
0.244276
0.457323
0.244553
0.158351
0.173893
0.197276
0.157011
0.108067
0.123807
0.137561
0.0807865
0.106373
0.137877
0.130282
0.0763787
0.100466
0.100975
0.173634
0.157708
0.19603
0.156224
0.10742
0.122758
0.137217
0.189597
0.193474
0.236032
0.182504
0.110758
0.14707
0.142504
0.176661
0.171577
0.215812
0.17074
0.101096
0.130453
0.134951
0.176772
0.191474
0.2277
0.177837
0.106595
0.134489
0.144856
0.0988398
0.134837
0.106276
0.104945
0.0813317
0.0744556
0.0558778
0.0774382
0.100504
0.135174
0.0785779
0.102157
0.0744592
0.0557411
0.105348
0.107763
0.136432
0.077314
0.101224
0.0751461
0.0564681
0.0821609
0.107197
0.0826634
0.122835
0.0717084
0.094479
0.0951038
0.0563388
0.0757393
0.10133
0.137074
0.0795086
0.107912
0.104473
0.0615673
0.0614114
0.0808511
0.0557109
0.0299338
0.041208
0.0411688
0.0396468
0.0546057
0.0742763
0.0541076
0.027701
0.0391778
0.0393951
0.0567943
0.0560284
0.076249
0.0546393
0.0278144
0.0395632
0.0396873
0.0130109
0.0191447
0.027887
0.0391043
0.0191005
0.0279021
0.0276467
0.000261169
2.6445e-05
2.42453e-05
5.91587e-05
0.000124448
0.000131947
6.16108e-05
1.98576e-06
1.91688e-07
1.97578e-08
1.59216e-08
6.02807e-08
5.80479e-07
7.09196e-07
0.192732
0.0866728
0.0729203
0.0453051
0.226313
0.196628
0.244726
0.0940149
0.270542
0.225874
0.310479
0.313998
0.272824
0.227735
0.193897
0.292549
0.216639
0.177947
0.31322
0.269055
0.226396
0.190964
0.179295
0.225297
0.179311
0.121107
0.156465
0.120863
0.156854
0.151815
0.22056
0.172683
0.116073
0.102715
0.138459
0.152681
0.152207
0.151344
0.0937911
0.126813
0.0774546
0.0774905
0.127267
0.143375
0.0922802
0.150449
0.0754653
0.0693216
0.115982
0.124724
0.0765013
0.100882
0.0606892
0.0762225
0.045015
0.0605562
0.100941
0.0428622
0.0642639
0.0374842
0.0583772
0.0523169
0.0885274
0.0978407
0.362617
0.33546
0.170512
0.102103
0.183326
0.191316
0.370666
0.401916
0.370895
0.267745
0.383622
0.381564
0.275503
0.269926
0.276396
0.391699
0.396783
0.391119
0.289325
0.282798
0.28198
0.286203
0.342039
0.346907
0.369878
0.251634
0.266113
0.270824
0.254438
0.249744
0.273539
0.369314
0.349344
0.375574
0.273672
0.25491
0.116445
0.181722
0.11572
0.118853
0.186869
0.187629
0.118943
0.180871
0.114377
0.106929
0.183924
0.10763
0.115992
0.17215
0.119074
0.120365
0.19268
0.120219
0.190193
0.190054
0.119773
0.166967
0.106489
0.171492
0.183486
0.113366
0.184848
0.115836
0.659192
0.634962
0.659579
0.656045
0.656505
0.647315
0.648005
0.648797
0.651046
0.660026
0.668788
0.670232
0.643916
0.650916
0.504105
0.591964
0.659636
0.657508
0.657582
0.657824
0.655555
0.655709
0.65766
0.670328
0.663661
0.663756
0.662246
0.666125
0.665938
0.662014
0.65946
0.657062
0.657358
0.655282
0.657089
0.654824
0.657415
0.656174
0.65626
0.65659
0.654579
0.654409
0.654733
0.654254
0.661317
0.672352
0.672259
0.640868
0.659254
0.658432
0.635809
0.669883
0.66352
0.663706
0.664734
0.660747
0.661643
0.660643
0.65284
0.663659
0.670164
0.653641
0.594044
0.641668
0.621099
0.656342
0.655712
0.656008
0.6543
0.653517
0.653845
0.653974
0.658302
0.642335
0.656433
0.655739
0.650431
0.64062
0.658042
0.655407
0.652975
0.650783
0.649826
0.649604
0.653181
0.655179
0.652572
0.653732
0.647893
0.649928
0.64903
0.651909
0.65467
0.65205
0.651928
0.648584
0.649061
0.648843
0.652247
0.651733
0.652832
0.654806
0.648457
0.62265
0.634795
0.657127
0.645705
0.617594
0.621321
0.642096
0.638861
0.578998
0.615032
0.607984
0.651663
0.650739
0.647481
0.648113
0.648345
0.65103
0.651353
0.628898
0.548514
0.570382
0.549353
0.59862
0.609616
0.585019
0.652884
0.605389
0.658747
0.651722
0.655557
0.637957
0.6137
0.646113
0.644495
0.446028
0.648628
0.665494
0.567458
0.635657
0.257698
0.448509
0.656558
0.657977
0.655761
0.656197
0.654074
0.652974
0.654445
0.662912
0.661039
0.657918
0.658588
0.65315
0.640245
0.653968
0.651029
0.563333
0.629707
0.555302
0.621173
0.590067
0.504792
0.655226
0.654465
0.65479
0.652822
0.65314
0.652093
0.651811
0.656277
0.652481
0.65454
0.65104
0.645284
0.647813
0.651112
0.623551
0.65667
0.644888
0.619274
0.63248
0.646002
0.587006
0.651838
0.645978
0.650814
0.648934
0.638577
0.642827
0.648414
0.650014
0.602779
0.632909
0.612402
0.622182
0.57258
0.641827
0.651912
0.653334
0.653622
0.650553
0.648347
0.648257
0.650371
0.64982
0.646123
0.65007
0.648647
0.644349
0.644037
0.648502
0.509116
0.551014
0.597033
0.54586
0.378487
0.488416
0.444132
0.501119
0.530829
0.580119
0.53858
0.385894
0.478993
0.443865
0.645779
0.63298
0.629797
0.628968
0.637736
0.640702
0.642595
0.581018
0.606568
0.600702
0.469168
0.52851
0.628371
0.535229
0.64648
0.643965
0.635895
0.641795
0.640808
0.643202
0.646637
0.483566
0.314529
0.343929
0.320269
0.41503
0.417058
0.379653
0.603961
0.555546
0.364545
0.445262
0.615088
0.530178
0.631958
0.675995
0.686363
0.675794
0.673002
0.657784
0.651057
0.653943
0.626257
0.645394
0.559836
0.611088
0.578101
0.620543
0.583946
0.533469
0.65302
0.587988
0.628394
0.565744
0.614864
0.587334
0.538525
0.65848
0.608084
0.638124
0.602528
0.63311
0.604806
0.570546
0.519255
0.56409
0.598258
0.561534
0.47194
0.510929
0.523795
0.505512
0.507438
0.564009
0.536712
0.42163
0.47988
0.481619
0.567118
0.573992
0.607679
0.56571
0.477995
0.517252
0.528234
0.514711
0.419184
0.402214
0.421332
0.458497
0.460853
0.475077
0.661783
0.669694
0.663823
0.661283
0.665849
0.660092
0.660635
0.661249
0.661916
0.668854
0.531596
0.557848
0.665833
0.66774
0.680309
0.680876
0.662265
0.666612
0.662759
0.663583
0.661622
0.664903
0.663544
0.662884
0.661846
0.662826
0.663648
0.661743
0.661285
0.663755
0.671551
0.668732
0.662634
0.668081
0.669507
0.672015
0.657717
0.671603
0.674451
0.666096
0.667146
0.668104
0.673871
0.672554
0.661582
0.661706
0.662064
0.661331
0.660569
0.660842
0.661029
0.660399
0.66095
0.660205
0.660474
0.6608
0.660493
0.660638
0.5419
0.612805
0.626954
0.654881
0.62144
0.662119
0.606253
0.683192
0.675469
0.664886
0.68037
0.681713
0.677174
0.656397
0.663798
0.662513
0.665658
0.666447
0.666729
0.662469
0.665515
0.661741
0.663781
0.664142
0.661964
0.663827
0.661821
0.664071
0.669151
0.674825
0.67462
0.674934
0.667646
0.668964
0.674756
0.667594
0.646881
0.652101
0.665971
0.667614
0.669778
0.669884
0.662198
0.661704
0.662151
0.661052
0.661377
0.661424
0.661109
0.660959
0.660419
0.660755
0.661025
0.660514
0.660847
0.660705
0.526983
0.641419
0.588828
0.592963
0.60104
0.647326
0.594708
0.669648
0.673596
0.642336
0.672638
0.676707
0.681646
0.64787
0.659885
0.673784
0.663159
0.660091
0.661529
0.660189
0.660277
0.661531
0.663681
0.667567
0.674644
0.689241
0.667104
0.667442
0.681008
0.682206
0.661361
0.66356
0.6632
0.661741
0.663745
0.661738
0.663844
0.666409
0.672759
0.671823
0.673396
0.667273
0.66753
0.673204
0.660533
0.660122
0.660444
0.660714
0.66041
0.66075
0.660362
0.680466
0.689404
0.688648
0.681807
0.688417
0.68196
0.689558
0.661506
0.663728
0.663658
0.661588
0.663701
0.661692
0.663844
0.667423
0.67367
0.673381
0.667395
0.673261
0.673623
0.667633
0.663737
0.661722
0.661644
0.663838
0.661531
0.661767
0.663852
0.667455
0.673603
0.673882
0.673658
0.667528
0.667613
0.673802
0.660091
0.660455
0.660451
0.660197
0.660552
0.660635
0.660275
0.660684
0.660128
0.660415
0.660624
0.660482
0.660759
0.66033
0.688733
0.682071
0.68168
0.681453
0.689396
0.681929
0.68946
0.687746
0.685727
0.682477
0.682151
0.687364
0.682505
0.689324
0.667094
0.667348
0.673786
0.667454
0.673814
0.67372
0.667618
0.660961
0.663523
0.661395
0.663605
0.661627
0.661335
0.663806
0.659526
0.659946
0.660311
0.660561
0.659907
0.660266
0.660199
0.680537
0.682056
0.684369
0.685237
0.682229
0.682146
0.688693
0.535404
0.489071
0.493484
0.578883
0.655841
0.652679
0.672251
0.640062
0.502335
0.495546
0.565136
0.552711
0.537553
0.534031
0.488047
0.650326
0.629981
0.664164
0.61568
0.595027
0.586705
0.640558
0.497436
0.566567
0.539771
0.54003
0.545391
0.499912
0.575245
0.495955
0.548477
0.546946
0.535438
0.497087
0.544471
0.490279
0.605623
0.657078
0.606414
0.585461
0.645935
0.59598
0.637291
0.648297
0.606145
0.589356
0.587154
0.649285
0.61096
0.637265
0.547201
0.560631
0.52253
0.611688
0.565942
0.507705
0.59106
0.592672
0.638283
0.650352
0.653652
0.611516
0.62455
0.640802
0.651685
0.573479
0.652647
0.648786
0.680754
0.677562
0.687546
0.692299
0.687893
0.690728
0.681021
0.6851
0.691256
0.676116
0.688539
0.691204
0.687287
0.692547
0.691525
0.691313
0.688169
0.678108
0.674219
0.684689
0.6822
0.689263
0.673438
0.68486
0.675953
0.673836
0.686696
0.674431
0.670198
0.671794
0.682948
0.66902
0.674855
0.676152
0.687121
0.678666
0.627537
0.657832
0.65865
0.667847
0.675239
0.685574
0.677523
0.63513
0.654389
0.661481
0.667593
0.663677
0.671004
0.675738
0.629344
0.660372
0.653897
0.662057
0.607036
0.609045
0.605523
0.636931
0.633804
0.639021
0.657421
0.645373
0.660603
0.662489
0.654355
0.657401
0.659234
0.659728
0.661178
0.51234
0.658273
0.670993
0.655061
0.673132
0.667258
0.688324
0.661234
0.663396
0.663436
0.660681
0.662887
0.660521
0.662726
0.667271
0.673646
0.673358
0.666746
0.673268
0.673423
0.666674
0.659793
0.660093
0.660157
0.659242
0.659603
0.659443
0.659082
0.685071
0.682076
0.681767
0.681521
0.683629
0.680235
0.674236
0.660297
0.660916
0.663128
0.660082
0.661438
0.659241
0.662277
0.666764
0.667074
0.673767
0.67294
0.665845
0.670278
0.666562
0.658441
0.659786
0.661961
0.659455
0.660081
0.657892
0.661639
0.66491
0.665894
0.672712
0.672269
0.664435
0.668266
0.665938
0.658879
0.659469
0.659832
0.659018
0.657861
0.658204
0.658662
0.674607
0.675397
0.680697
0.674417
0.621067
0.661353
0.654869
0.669468
0.67889
0.670772
0.672741
0.613997
0.656877
0.651758
0.657057
0.65837
0.658724
0.658398
0.656528
0.656867
0.658046
0.658798
0.659248
0.659982
0.655566
0.656985
0.657705
0.660994
0.669705
0.647516
0.662637
0.663495
0.660735
0.662111
0.6654
0.657762
0.654646
0.655663
0.656376
0.655989
0.656703
0.657419
0.660166
0.569171
0.601107
0.572351
0.635031
0.637662
0.619172
0.119278
0.115117
0.119985
0.374773
0.370206
0.287629
0.0867741
0.289334
0.0879104
0.126281
0.330834
0.371209
0.11214
0.273085
0.0746445
0.0820816
0.370466
0.357746
0.358127
0.273077
0.273043
0.266107
0.265891
0.372941
0.358324
0.359237
0.277961
0.275427
0.267339
0.267522
0.357432
0.350065
0.277047
0.329192
0.26889
0.262726
0.248166
0.329413
0.290061
0.330073
0.245059
0.211024
0.211714
0.244515
0.328536
0.290924
0.330968
0.245816
0.210268
0.212444
0.244309
0.292176
0.249132
0.294665
0.21938
0.249556
0.222147
0.186838
0.118768
0.186671
0.186336
0.181921
0.115709
0.181998
0.115392
0.316565
0.242376
0.289702
0.200444
0.236192
0.2169
0.178819
0.11937
0.189537
0.187851
0.182703
0.115226
0.115613
0.18282
0.119182
0.189065
0.18378
0.11247
0.179518
0.16941
0.105351
0.153134
0.148982
0.200205
0.19925
0.248797
0.186313
0.147105
0.166969
0.104938
0.0880925
0.141734
0.142159
0.166711
0.104938
0.16736
0.103781
0.140813
0.0881323
0.142511
0.104954
0.166133
0.148783
0.0774109
0.0917181
0.105901
0.170342
0.15109
0.0932483
0.0994716
0.133978
0.160295
0.146852
0.0728078
0.119446
0.0904823
0.100117
0.0611052
0.0453218
0.125762
0.0597145
0.0982225
0.0770439
0.660059
0.663872
0.653671
0.654698
0.653966
0.658928
0.655171
0.659867
0.657032
0.660315
0.65779
0.659297
0.659526
0.658044
0.65687
0.656271
0.661161
0.661279
0.661994
0.660091
0.656913
0.658627
0.654328
0.655236
0.654243
0.650689
0.650628
0.655399
0.653718
0.654312
0.658471
0.65423
0.651284
0.65066
0.654802
0.656735
0.65406
0.652352
0.6526
0.654177
0.650521
0.650481
0.653397
0.659193
0.656629
0.656867
0.656727
0.658984
0.659223
0.656581
0.652564
0.656015
0.65309
0.654159
0.651179
0.650517
0.65467
0.657342
0.661063
0.657786
0.65611
0.661797
0.659792
0.65678
0.653195
0.655267
0.654403
0.652925
0.652616
0.653479
0.654928
0.653071
0.653931
0.655481
0.654506
0.654054
0.653048
0.6547
0.658558
0.657869
0.656386
0.656608
0.658182
0.656781
0.658197
0.659569
0.6632
0.65859
0.659632
0.660772
0.657946
0.661226
0.660381
0.662868
0.661018
0.660564
0.66136
0.660021
0.661506
0.658866
0.656583
0.657371
0.658904
0.659361
0.657011
0.658514
0.653123
0.65248
0.654825
0.654269
0.654724
0.653065
0.65258
0.6531
0.654188
0.652439
0.654757
0.652541
0.653041
0.654663
0.652073
0.651331
0.650685
0.651344
0.651328
0.651342
0.65209
0.651834
0.651174
0.651161
0.650638
0.651199
0.651774
0.651211
0.653095
0.652461
0.654354
0.654796
0.654856
0.653055
0.652507
0.654367
0.656502
0.65639
0.6575
0.65603
0.654637
0.65599
0.653065
0.65427
0.652419
0.654726
0.652464
0.653027
0.654782
0.652013
0.651787
0.650941
0.651807
0.651446
0.651462
0.652332
0.651847
0.651192
0.651178
0.650758
0.651257
0.651783
0.65127
0.653229
0.654499
0.655308
0.652985
0.655012
0.652664
0.653519
0.654265
0.655601