/*--------------------------------*- C++ -*----------------------------------*\
  =========                 |
  \\      /  F ield         | OpenFOAM: The Open Source CFD Toolbox
   \\    /   O peration     | Website:  https://openfoam.org
    \\  /    A nd           | Version:  9
     \\/     M anipulation  |
\*---------------------------------------------------------------------------*/
FoamFile
{
    format      ascii;
    class       volScalarField;
    location    "0.0021";
    object      impulseMax;
}
// * * * * * * * * * * * * * * * * * * * * * * * * * * * * * * * * * * * * * //

dimensions      [1 -1 -1 0 0 0 0];

internalField   nonuniform List<scalar> 
16514
(
15.1196
96.0271
74.5405
76.5482
0.239957
0.552072
100.077
1.95804
109.845
96.4855
106.33
61.2563
52.8511
58.2954
49.9094
85.9328
91.7748
101.731
49.6544
41.3459
54.4225
46.0604
88.974
72.8418
85.3079
33.8187
43.6258
40.7407
31.0685
65.5739
98.8036
79.0592
0.629846
63.2675
2.19787
79.8334
0.655507
3.67991
113.086
1.89244
77.7999
0.278987
64.5578
0.590224
3.40743
111.202
92.3651
32.4762
0.0303966
6.98603
1.35407
0.184753
57.8941
112.241
54.8477
102.518
113.614
103.903
64.4049
55.9593
113.947
103.343
104.231
64.04
64.7107
56.2448
55.5598
108.18
101.403
98.2951
62.4933
59.9661
53.9964
51.4588
104.058
88.6509
94.0524
52.0703
56.4887
47.9788
43.5841
35.6994
45.5874
91.4568
80.4571
92.8517
46.6671
36.7267
80.7726
92.2582
93.1748
46.9331
36.2871
46.24
36.9695
84.6894
82.0467
74.2248
46.724
40.4856
38.3194
32.278
90.264
74.5484
87.0736
34.7645
44.678
42.1634
32.3447
77.1864
70.1266
82.7159
38.7363
25.0983
34.4585
29.0839
62.0247
67.986
80.494
23.334
32.4281
36.983
27.5307
75.7387
55.1537
65.2188
25.923
33.4696
25.6509
18.7857
70.4799
50.2117
62.6363
20.5385
29.4244
23.8012
15.6497
16.9674
3.18199
22.3525
1.64181
2.71026
20.4424
15.2347
18.1785
3.53373
23.6739
3.73719
24.4148
18.8537
2.33642
3.79922
24.1972
24.6274
19.038
2.28975
18.6212
2.37654
2.98511
23.1936
21.5573
2.09771
17.6776
16.1646
1.80857
43.9881
41.6555
53.7474
17.8643
6.56999
10.823
12.0723
16.5857
2.45763
19.3263
14.1443
1.09908
11.7393
1.45957
17.9958
1.62531
2.17031
1.28971
0.945911
10.5773
13.0571
7.08265
1.09074
11.7028
0.451304
0.902839
10.2486
6.00607
7.86531
1.23522
12.7343
13.3061
0.674269
1.31827
8.30176
13.4551
0.685664
8.11693
1.28638
13.0845
1.341
8.41058
7.47249
1.16747
12.2568
10.9645
0.495855
0.99295
6.49626
13.467
10.1725
0.895196
0.768985
9.11555
6.4985
0.496723
0.342477
0.697996
0.502181
3.45364
6.54842
8.47897
4.74742
9.29065
0.582415
3.96646
0.386813
7.37995
0.788221
5.28013
0.543625
0.29982
4.23332
4.14528
0.155314
0.292739
2.31274
0.39813
2.71783
5.41043
3.58671
0.11157
0.249296
1.68521
189.899
236.999
239.502
170.038
226.073
178.437
158.759
226.556
128.131
244.443
159.473
145.827
225.002
125.926
111.764
215.524
243.514
157.616
228.252
222.296
112.536
139.623
73.9541
104.414
210.583
244.065
244.624
240.192
220.678
221.501
215.934
215.004
244.773
239.905
240.361
221.121
221.681
216.132
215.484
242.007
238.74
236.887
219.832
217.813
214.038
211.787
211.635
239.894
231.021
234.37
215.116
208.821
205.035
190.013
100.28
61.2622
20.9846
54.8089
142.593
166.322
199.724
233.505
227.044
234.333
209.08
208.036
200.879
227.265
233.938
234.524
209.307
200.293
208.555
201.13
232.561
222.633
230.408
198.563
206.966
204.513
195.938
233.136
207.273
226.737
221.466
201.931
200.328
194.642
219.525
223.86
227.559
201.311
188.125
197.227
192.499
215.301
207.918
215.2
188.028
195.539
187.913
180.028
193.528
160.075
194.595
187.808
149.981
186.654
151.361
160.354
194.068
194.816
188.044
150.718
187.227
151.657
219.223
204.719
213.636
182.771
192.194
186.176
176.362
192.488
154.718
190.051
148.755
185.531
182.933
145.683
182.766
150.82
186.843
179.495
136.207
175.118
141.535
199.502
197.859
207.091
179.072
159.694
168.757
170.697
168.632
127.33
139.56
179.68
128.865
141.021
169.993
179.941
129.195
169.307
140.332
179.05
141.337
170.279
177.73
132.097
171.598
129.615
169.699
163.116
121.655
199.564
207.238
198.05
179.281
170.802
169.077
159.924
167.339
138.249
177.232
174.444
122.464
134.982
164.33
170.742
124.888
117.764
155.116
166.002
130.555
160.294
155.366
123.11
164.217
155.171
101.187
112.211
145.621
180.758
180.704
190.77
148.859
160.788
148.981
135.838
179.062
187.566
175.493
142.66
157.06
146.958
131.342
117.907
148.686
160.125
152.98
95.6636
109.52
140.863
144.335
120.19
88.2758
85.4956
99.6533
131.41
133.959
144.762
88.572
134.185
86.3761
132.081
120.643
74.4994
157.533
155.509
169.158
134.812
102.086
117.855
120.29
107.076
75.4677
121.65
107.3
47.7928
92.0509
61.5084
71.0451
99.907
117.134
104.918
43.6931
87.1407
59.3426
238.125
221.569
218.143
233.232
173.15
152.758
176.259
156.487
242.943
236.052
241.231
219.155
216.906
213.305
210.8
238.824
229.484
235.563
210.078
213.921
207.538
203.375
224.223
194.722
197.663
231.874
229.471
206.152
203.415
213.742
222.199
226.313
186.191
195.438
190.939
199.893
191.665
153.168
188.928
147.573
184.647
181.713
144.047
180.938
133.628
143.361
148.818
185.398
177.929
139.426
166.269
124.632
137.005
162.844
120.684
173.109
133.262
163.858
158.377
122.212
109.007
115.488
169.014
128.35
295.342
215.654
292.779
258.029
279
274.522
276.291
255.484
314.196
317.838
299.541
312.928
308.3
293.907
289.032
295.575
283.314
302.637
289.884
309.063
302.438
283.126
298.509
306.494
301.137
278.9
287.006
281.676
273.332
278.896
252.252
256.804
250.796
273.087
268.19
245.777
286.282
259.748
268.449
287.714
294.828
275.491
266.976
319.422
249.83
311.146
300.888
281.918
311.215
250.242
318.637
265.337
320.51
310.62
303.283
248.876
262.639
281.922
264.839
320.148
318.259
303.101
318.454
303.523
301.111
300.805
317.767
302.413
318.612
317.7
317.103
301.871
300.647
317.718
317.778
317.121
302.558
301.93
300.721
301.046
319.856
316.151
317.947
302.232
303.455
299.752
297.489
292.133
297.632
315.6
311.224
315.313
297.729
292.533
311.299
315.616
315.353
297.824
292.326
297.79
292.654
315.567
309.211
314.948
291.366
297.314
296.211
289.634
284.385
261.539
265.027
265.285
284.283
282.068
261.979
265.4
284.62
284.37
282.177
261.869
282.187
262.117
306.876
310.653
313.433
294.29
283.548
291.243
287.11
284.625
263.942
284.398
261.063
281.797
280.937
259.671
260.184
262.496
283.664
279.375
254.737
276.82
257.628
271.695
277.797
256.513
278.196
250.637
257.136
272.32
278.323
250.819
272
256.867
278.068
257.29
272.47
270.8
255.747
277.251
275.752
246.735
253.928
268.867
270.381
248.058
240.134
273.536
243.893
251.425
266.216
262.442
268.986
246.584
239.885
232.768
262.282
239.76
266.121
243.665
235.404
260.851
229.757
238.298
252.513
238.765
247.628
224.739
254.689
223.195
231.993
246.101
230.43
270.829
268.507
247.676
210.402
240.183
236.513
266.164
287.751
275.722
295.05
286.415
278.979
267.109
259.766
251.56
260.488
279.71
261.781
270.807
251.55
242.333
276.802
258.473
269.255
246.867
257.536
250.005
239.08
254.891
232.158
224.788
223.339
246.257
238.8
215.722
251.606
260.945
249.86
241.509
220.463
230.309
232.022
239.567
207.076
216.471
230.436
197.29
221.017
207.099
225.642
213.395
202.168
228.836
193.846
217.684
205.473
198.456
173.312
186.118
184.304
196.442
208.673
220.177
297.742
322.742
356.712
313.017
275.296
310.019
283.983
327.096
353.307
343.441
351.554
346.365
338.105
336.679
330.189
391.17
366.441
360.328
343.847
373.508
390.655
362.696
369.679
382.812
366.868
378.039
366.119
358.196
341.634
321.288
367.444
346.601
345.972
373.519
372.974
366.202
381.294
375.735
374.058
384.185
350.392
356.168
347.461
363.303
354.005
357.561
359.334
356.736
368.732
385.322
328.53
385.973
351.152
386.987
316.73
305.807
346.691
359.122
369.277
342.832
320.158
377.5
383.792
386.817
386.997
382.969
383.993
384.968
377.577
380.289
386.338
377.298
381.656
383.375
373.912
365.003
377.139
376.368
382.609
378.032
380.184
380.479
359.04
368.51
368.501
357.614
357.995
358.034
355.245
367.07
364.127
368.561
354.631
358.3
357.262
353.138
347.341
333.726
334.11
332.743
346.538
346.248
332.788
383.294
389.02
386.62
382.554
385.129
390.117
383.744
373.915
369.879
377.494
376.496
366.979
368.03
375.892
387.451
389.298
385.975
383.914
384.291
385.404
383.364
378.491
375.726
385.331
378.63
369.706
379.45
369.699
354.812
366.28
365.197
361.92
352.273
352.519
350.085
361.145
363.657
367.085
354.981
348.359
352.407
350.931
344.675
333.81
332.957
344.764
330.97
343.03
332.234
351.679
324.137
352.6
292.037
286.332
321.408
319.559
318.558
281.745
304.461
293.894
279.024
289.089
299.976
289.731
326.61
321.671
335.582
312.001
305.543
314.956
329.578
314.653
303.324
314.614
311.138
317.245
322.635
302.322
298.6
291.625
300.674
280.575
288.872
298.354
290.799
338.544
330.806
344.296
324.736
346.67
333.856
338.372
318.595
303.419
310.602
324.713
303.022
311.222
325.9
318.76
312.819
330.362
309.972
326.445
323.041
305.583
332.276
342.061
331.975
320.506
342.573
330.208
334.016
1618.57
316.265
1587.57
304.076
298.494
1352.32
286.813
1316.21
291.427
275.636
304.333
275.763
275.139
311.406
278.361
313.386
306.005
271.75
274.359
308.145
268.34
268.733
312.91
299.784
271.203
265.838
305.963
264.6
267.287
306.554
285.309
283.459
271.914
280.324
268.939
271.267
279.343
279.403
286.282
287.895
282.092
272.204
273.838
281.583
530.736
1605.71
525.489
553.142
1557.03
558.814
1552.03
302.741
316.298
301.432
296.634
312.436
312.368
295.958
528.424
1585.45
538.811
554.9
1522.91
1533.52
567.254
304.621
318.989
317.495
298.064
314.799
313.429
298.448
324.245
271.098
361.465
284.803
271.42
326.627
357.332
325.322
274.634
285.045
371.336
271.855
333.387
358.835
280.151
270.546
283.277
274.844
271.578
280.088
282.337
281.219
273.724
275.99
284.926
273.275
281.895
282.901
595.439
1433.69
1340.94
653.396
1452.04
608.87
641.677
294.759
310.799
295.94
310.315
310.414
294.771
295.086
295.776
313.033
310.976
297.815
311.352
296.866
295.748
593.895
1469.01
644.617
1357.89
599.477
1470.11
640.284
323.175
669.25
543.799
1076.55
289.47
430.701
1578.4
1219.49
278.371
318.754
337.029
276.896
328.243
351.709
291.546
1558.91
561.06
591.145
1502.49
590.923
623.085
1468.33
392.556
303.891
361.226
383.618
339.347
425.559
312.04
395.087
306.399
329.275
285.701
352.269
381.234
303.805
1469.86
1524.74
627.737
661.754
1348.97
701.614
1418.35
695.67
1274.98
671.462
1400.72
631.006
661.046
1352.98
418.275
483.171
363.328
421.893
365.928
477.536
330.308
733.055
1151.84
718.099
694.55
1212.13
726.529
1290.05
370.642
366.032
342.749
332.485
332.499
366.07
346.011
360.153
368.203
335.293
340.031
343.956
347.888
340.192
340.724
347.489
327.666
332.76
341.817
337.11
366.004
327.592
332.855
352.44
365.026
356.256
357.423
348.608
356.118
365.694
341.724
349.427
348.962
350.943
346.285
352.964
357.696
331.594
338.379
338.197
345.03
342.073
348.652
351.585
355.491
355.129
346.173
357.075
369.69
366.932
360.472
367.393
358.225
357.674
361.651
375.762
371.863
366.903
349.672
338.2
336.496
339.345
347.718
352.243
354.362
339.777
351.217
342.965
339.777
348.315
352.517
355.027
360.709
357.733
351.303
358.13
371.804
368.09
365.661
367.082
369.605
372.337
373.664
375.694
373.996
372.011
362.694
364.26
360.236
356.485
355.173
354.658
357.706
343.299
331.601
341.33
344.705
332.458
331.568
345.99
364.43
363.818
360.668
356.608
355.205
357.98
354.678
343.735
331.644
341.476
344.746
332.36
346.069
331.551
360.754
366.332
335.472
344.71
327.921
326.532
325.819
325.689
328.158
333.845
326.03
331.399
324.499
333.415
335.775
325.241
331.659
330.831
324.288
323.788
332.768
333.566
334.156
338.152
336.74
339.318
346.558
341.773
343.971
336.337
339.713
334.747
334.873
333.59
338.683
343.313
326.525
325.471
324.354
335.246
340.303
337.564
337.813
338.251
335.396
324.353
324.814
323.643
334.564
337.162
376.017
353.738
344.828
343.729
361.999
351.964
348.766
344.423
362.487
355.633
352.348
346.904
352.635
349.405
344.073
342.048
330.86
327.362
330.247
341.576
344.855
344.071
327.394
341.935
330.729
344.771
330.243
341.563
729.381
497.668
789.752
487.811
559.424
1001.29
592.616
493.116
348.846
1064.94
709.877
424.872
366.111
397.801
375.777
432.57
357.593
333.141
432.47
381.492
484.594
374.607
481.106
549.284
423.605
327.233
343.466
341.511
336.843
334.525
349.091
367.018
1390.21
1288.49
743.756
1260.22
737.057
757.985
1160.94
344.647
361.626
349.275
354.487
342.117
351.631
361.873
568.969
532.331
961.834
561.32
607.839
709.375
556.598
401.807
386.824
466.657
402.888
512.949
488.18
397.975
486.448
418.062
544.484
599.262
526.911
489.445
622.247
426.446
604.082
550.268
604.467
535.786
632.875
494.053
380.829
358.527
339.959
384.118
462.353
428.361
414.575
388.999
370.457
352.396
389.108
470.053
422.089
433.105
737.007
1125.62
746.572
751.803
927.782
732.572
1038.87
761.593
1175.89
762.27
760.94
966.051
750.314
1061.09
364.75
352.512
342.394
368.846
383.838
371.101
390.924
373.212
365.312
355.136
373.222
388.735
396.747
375.862
419.528
477.315
444.483
481.836
436.134
467.316
432.036
629.842
642.465
545.87
551.496
642.817
532.863
636.426
629.921
551.398
642.92
545.786
636.981
642.988
559.533
419.299
481.506
436.005
476.33
431.637
444.168
487.307
745.367
703.683
856.89
873.829
731.081
721.642
954.88
747.002
876.729
731.964
866.065
724.411
705.713
794.908
394.972
412.605
391.994
393.836
405.811
387.314
403.349
394.679
393.611
405.684
391.346
402.918
412.364
397.385
679.861
797.39
709.003
680.745
678.641
654.096
731.199
453.012
490.322
446.683
452.804
506.029
497.536
457.511
639.647
562.73
646.189
639.955
572.514
629.151
569.06
780.818
661.905
694.664
674.249
667.961
643.391
724.501
552.428
624.407
634.436
633.995
563.948
618.968
563.795
481.653
445.825
439.473
449.491
499.462
452.728
493.136
420.638
398.454
413.897
420.514
403.399
425.806
401.627
394.917
415.902
409.171
418.247
400.804
422.344
399.983
327.357
344.751
330.837
344.112
326.407
330.57
340.621
378.276
367.324
365.558
376.402
378.573
375.246
362.26
362.744
357.475
347.372
359.026
350.152
347.287
343.892
391.473
389.837
391.236
382.442
384.767
382.179
378.188
356.884
355.232
358.045
345.692
349.721
346.856
342.051
378.696
366.061
375.745
367.489
378.818
368.937
377.079
389.575
387.355
387.125
377.541
380.872
380.373
374.85
331.629
329.371
341.023
328.759
341.073
338.454
325.179
651.545
638.278
613.729
634.236
626.967
631.4
676.874
342.605
336.203
324.485
327.356
340.609
329.478
338.828
626.396
570.019
596.057
565.931
609.097
613.795
570.032
400.483
401.537
402.578
424.796
426.492
425.865
427.629
456.054
511.811
462.933
508.618
458.164
504.024
460.649
371.487
363.277
376.346
371.229
348.821
364.872
356.493
380.223
384.542
389.034
377.257
363.269
369.97
371.714
359.625
365.894
372.388
369.19
344.831
360.97
354.53
332.586
323.901
337.935
334.238
311.065
319.028
327.559
351.874
353.409
356.764
343.417
330.387
338.14
336.843
334.903
325.633
338.553
334.778
313.503
329.478
319.992
331.127
347.477
339.667
339.474
331.06
322.608
313.76
305.803
322.508
329.127
304.519
321.255
313.98
297.026
337.529
334.159
343.793
317.219
327.818
320.668
309.66
337.292
347.709
339.373
363.803
346.405
354.43
356.44
297.083
314.097
322.513
329.036
304.461
312.911
321.305
321.186
319.11
330.014
312.658
292.178
301.397
303.555
288.81
305.936
314.774
305.863
279.667
296.809
288.765
294.809
300.811
311.721
304.101
276.215
293.03
287.167
258.244
269.541
286.611
295.796
267.675
284.61
278.764
90.928
34.0803
32.1901
57.6401
72.9059
75.3614
46.8642
2.11514
0.481328
0.0723643
0.0612024
0.141327
0.944516
1.11133
300.761
259.057
264.99
248.191
314.513
317.964
326.323
263.261
318.028
302.758
319.196
320.079
318.216
302.959
300.178
332.143
306.192
299.937
323.236
319.699
303.225
299.227
308.604
315.233
310.233
290.907
296.901
288.903
295.539
307.444
314.16
306.649
286.04
283.042
292.068
293.469
283.776
284.234
264.367
281.343
260.528
258.938
280.241
281.946
261.515
282.816
256.586
253.385
276.226
278.428
270.242
276.749
255.176
268.041
245.797
253.114
275.034
242.608
261.051
238.375
250.284
246.476
269.21
272.463
318.863
335.351
285.906
263.404
286.787
289.446
314.468
332.458
317.512
303.15
317.01
318.815
304.008
303.545
304.244
335.293
320.344
323.237
311.021
305.144
305.976
312.293
319.545
320.491
319.96
303.608
303.612
304.515
304.328
310.311
312.306
336.336
324.926
324.962
306.327
305.558
269.559
286.509
270.081
269.965
287.127
287.287
269.331
286.693
268.647
266.952
286.929
266.261
268.156
285.94
268.128
269.091
289.358
269.562
287.652
287.641
268.734
286.132
265.072
285.725
288.592
266.38
287.149
267.364
304.769
325.781
275.936
660.536
608.561
979.323
456.6
1075.76
362.985
313.012
298.524
282.226
397.333
312.318
375.884
347.106
274.111
334.833
329.374
287.218
370.69
361.073
292.458
281.296
272.907
272.294
275.387
283.036
285.315
277.895
286.912
380.52
352.53
393.136
328.908
427.703
306.964
1442.36
1453.08
598.221
652.457
1344.65
643.454
1329.31
310.809
296.865
295.21
310.835
295.469
297.922
313.569
289.171
290.535
280.05
292.038
298.432
286.116
301.043
318.656
310.983
303.001
303.603
324.862
310.712
318.877
630.314
1375.51
1417.09
670.335
1244.87
694.488
1295.88
285.545
301.411
288.576
292.406
321.403
307.291
291.028
314.663
428.581
376.436
491.019
506.772
415.266
323.441
456.133
370.781
568.926
406.86
534.783
498.129
341.765
690.097
1213.77
1058.51
705.815
709.603
682.585
1196.09
299.827
320.603
347.04
367.464
332.409
302.695
310.009
313.6
320.361
298.743
302.065
351.907
326.74
316.824
702.29
1108.17
716.223
1024.92
713.778
715.492
1159.76
307.712
327.646
363.124
361.43
340.863
314.749
321.765
486.985
333.823
330.795
1050.35
694.367
759.281
547.174
926.173
505.645
370.894
426.779
310.146
478.446
446.037
393.874
387.571
420.052
365.042
474.209
361.057
478.352
539.817
412.907
305.464
326.236
323.377
318.537
313.38
330.99
351.261
320.247
342.412
330.13
332.397
319.712
332.196
342.218
1314.26
1233.7
726.854
1177.13
718.477
735.109
1099.35
414.834
598.425
541.539
591.543
525.999
622.74
482.772
383.753
357.972
340.396
380.329
460.931
422.686
414.097
425.105
598.978
548.348
590.778
531.028
616.255
487.38
363.626
402.864
335.454
384.567
467.077
421.147
427.183
753.794
1142.59
747.717
740.419
941.485
735.999
1019.54
1044.69
713.857
724.603
726.519
869.947
706.876
977.357
352.449
368.692
342.414
364.712
383.011
390.369
365.793
343.966
387.138
330.803
368.668
390.669
398.117
370.143
616.606
540.136
625.174
539.74
622.978
628.806
524.059
412.808
471.622
472.273
437.326
429.176
459.399
427.648
721.454
843.691
679.628
814.078
695.061
710.675
909.69
389.383
388.7
408.103
390.894
402.122
399.877
382.204
348.757
361.985
373.82
374.093
366.665
369.786
342.191
357.463
360.261
363.955
356.86
363.666
362.606
357.682
364.762
352.728
357.559
360.158
356.283
356.595
365.108
365.93
365.47
370.77
367.942
370.344
366.596
370.865
376.052
350.27
351.46
358.766
350.87
355.001
363.854
360.165
367.246
358.629
358.272
367.765
375.804
372.128
368.501
366.305
373.001
366.862
373.591
384.182
376.038
381.342
372.285
360.532
366.025
372.43
379.638
380.261
370.017
377.8
377.188
383.176
380.344
381.67
386.369
378.299
1707.41
288.698
324.394
1795.92
475.813
1768.67
1628.2
493.062
313.406
484.865
336.378
381.847
508.63
287.517
443.424
317.021
391.206
359.21
466.32
546.043
511.952
392.447
373.166
511.941
404.388
561.678
381.239
389.548
529.294
404.326
394.53
367.597
481.316
549.372
393.133
518.401
376.369
489.895
399.888
564.007
377.213
404.412
384.158
528.065
583.174
1751.14
533.037
535.056
1766.41
593.44
1722.64
596.772
544.172
1759.89
1720.17
545.646
605.323
1711.01
355.266
373.298
435.132
380.605
386.602
454.868
357.071
387.332
382.545
387.693
359.213
378.171
456.476
357.879
303.132
306.9
284.924
276.216
301.844
332.625
317
312.597
285.062
290.385
341.82
315.273
336.832
325.286
293.694
299.256
302.373
333.772
315.613
326.819
327.425
298.939
295.567
322.517
283.068
308.952
329.158
320.713
512.478
1664.73
514.419
1645.69
509.513
509.644
1683.28
514.549
1631.62
523.82
516.733
1674.54
523.267
1667.83
323.691
315.386
324.009
313.422
335.794
339.215
337.004
317.514
326.86
325.293
341.222
339.864
339.845
338.148
635.603
326.35
315.218
1673.38
353.876
1757.42
1635
398.006
296.388
321.279
356.206
365.753
381.522
298.731
395.707
331.663
440.342
387.868
443.598
361.149
359.176
375.323
340.081
432.879
392.256
437.05
351.771
354.248
336.798
367.841
565.563
1772.44
580.315
554.309
1728.78
550.267
1720.44
421.539
381.373
388.1
366.894
365.766
375.383
366.697
354.611
319.098
327.531
370.397
351.231
354.36
327.518
328.037
334.674
342.218
349.184
362.242
341.517
327.295
289.864
341.267
322.017
313.848
333.833
339.007
312.26
291.705
313.021
305.929
327.661
312.64
312.2
328.332
1704.45
584.107
567.441
1734.85
561.547
566.484
1702.04
557.058
1626.49
1683.45
544.339
569.32
539.089
1677.83
363.055
353.233
360.465
376.407
373.776
359.999
365.464
343.53
335.333
324.413
346.199
348.487
344.709
353.82
315.086
306.848
319.72
316.959
329.658
328.33
314.288
371.47
304.217
359.079
314.425
347.835
349.665
312.298
1564.06
1629.1
606.797
579.849
1604.38
599.801
1660.47
343.163
337.936
350.718
359.665
347.825
347.337
357.459
281.854
312.093
331.605
326.832
330.596
328.528
345.841
294.247
342.17
336.558
342.016
336.412
309.984
318.986
320.304
314.886
342.666
339.789
336.794
310.377
319.346
322.637
292.214
278.62
289.038
305.96
299.753
308.177
297.276
328.017
327.245
331.009
324.254
329.196
328.052
325.55
328.021
334.361
331.628
324.714
331.371
328.58
327.779
283.42
279.34
289.726
306.46
301.296
297.852
310.017
318.152
314.704
328.456
325.005
327.015
319.876
312.658
318.614
325.564
330.283
316.328
327.515
313.187
321.709
362.6
359.872
331.674
333.725
339.184
304.821
354.268
359.967
354.675
337.736
325.932
349.142
356.745
332.555
343.742
362.553
364.101
362.651
347.442
361.885
353.404
360.257
338.789
348.322
343.901
352.747
336.603
346.899
348.012
292.208
318.72
304.806
308.681
318.698
330.611
319.219
356.629
363.985
359.67
356.564
364.491
356.999
363.35
318.728
342.992
332.146
342.288
341.973
331.15
351.687
336.278
322.493
328.953
338.938
341.3
344.729
331.433
349.291
363.516
351.196
350.379
354.276
341.558
358.425
422.039
338.147
313.105
331.152
1169.72
661.734
674.913
1632.62
359.545
361.77
366.774
311.105
359.3
332.351
317.22
357.735
348.796
314.877
312.944
350.979
305.401
372.285
316.052
315.075
329.735
328.758
307.266
319.658
326.261
315.251
1665.96
607.384
581.231
1614.05
601.22
636.32
1572.35
359.686
347.833
347.468
337.572
350.576
342.747
355.956
399.416
376.212
320.514
399.719
352.51
435.033
331.526
322.898
320.203
331.286
332.24
330.83
336.562
322.911
383.714
362.372
305.121
392.939
339.873
424.43
324.007
302.22
303.44
314.481
323.978
317.16
322.647
314.642
1499.05
1579.08
638.886
675.144
1406.76
712.939
1503.69
346.741
360.3
347.668
346.5
360.863
348.067
359.185
324.308
330.207
344.052
338.076
346.404
333.486
351.489
1438.54
1539.81
628.713
669.486
1367.32
701.428
1483.56
432.056
374.168
381.409
547.533
479.139
483.915
349.187
333.052
349.308
336.692
343.408
334.645
341.512
327.206
709.829
758.403
1274.26
1293.1
736.8
743.728
1399.85
344.368
354.272
351.59
361.539
341.912
349.148
357.434
271.413
267.698
270.145
323.673
321.828
322.246
261.424
322.897
264.535
279.874
322.766
323.899
289.57
320.794
268.617
259.044
322.344
323.679
324.199
307.125
307.336
307.817
307.529
323.01
324.523
324.484
307.896
307.628
307.963
308.004
323.658
324.238
308.029
323.391
307.769
307.74
306.658
323.904
323.171
324.344
307.075
305.111
305.146
306.845
324.154
322.953
324.399
307.024
303.85
304.72
306.729
321.119
318.75
321.762
303.811
306.501
304.38
300.536
271.239
289.762
289.822
289.34
270.134
289.311
269.92
323.402
318.084
321.719
302.136
305.846
303.854
299.219
270.846
289.579
289.804
289.159
268.499
269.349
288.848
269.185
289.239
288.481
267.182
288.151
286.674
265.132
308.885
295.732
314.608
314.117
318.88
300.51
294.966
287.862
267.918
264.129
285.426
285.227
287.886
267.632
287.495
265.664
283.274
263.081
284.515
266.873
286.81
283.515
257.703
261.679
265.283
286.694
283.992
262.035
263.84
281.248
285.505
283.231
255.774
278.189
261.162
274.824
252.475
246.112
279.665
251.435
273.941
257.382
1843.39
745.696
2082.53
9883.44
2001.92
1825.28
980.214
679.788
943.632
666.048
1899.03
1821.49
710.536
793.503
1907.18
1307.96
639.012
1434.41
794.353
772.427
3539.34
995.225
1128.88
1985.46
1120.01
3046.03
1655.89
1003.87
2074.21
1747.6
2146.46
1749.02
151208
4967.05
9883.26
892.654
1095.09
2113.56
1178.24
1149.98
3062.6
1973.81
2103.73
689.206
1900.44
835.116
959.799
1822.94
719.883
1918.07
2030.74
2607.18
9371.2
1986.09
130776
4329.33
8059.27
1109.92
814.584
1520.69
1321.22
784.193
797.022
4144.93
7340.1
5533.16
5069.45
25870.1
15925.1
24699.6
4568.85
3304.44
1384.3
1467.29
1367.16
1982.58
1747.14
1971.05
1070.48
934.793
1841.47
1167.66
852.086
1713.09
1259.89
1067.17
933.135
1885.87
1209.54
1256.7
1753.26
834.697
957.406
708.925
735.239
1101.42
1095.13
1123.41
677.556
1470.09
3020.26
3112.57
2039.05
1539.06
2087.36
1550.39
952.667
1264.26
1041.56
938.629
894.918
1245.88
980.064
952.146
933.639
1249.38
1036.8
973.76
1241.31
895.485
1220.54
3054.09
1115.79
3049.13
1168.59
1176.11
2998.62
945.103
1636.81
1604.27
1020.66
952.226
1317.28
951.751
4485.97
2715.85
3434.54
1660.68
2369.34
1987.69
4984.99
5434.43
4123.49
4122.67
1883.7
2509.29
7042.1
2509.67
4484.82
3427.74
2703.55
1655.99
4979.92
1984.65
2366.51
26802.4
88685.7
80112.3
88685.3
32624.8
32625.8
45798.1
5874.93
3242.35
3223.6
15999.4
11788.7
2996.18
11794.7
7340
5070.23
5532.38
25869.9
4568.55
15924.8
24699.6
2522.36
1189.92
1250
1189
1837.07
1634.23
1836.09
1050.44
1178.4
969.553
1444.78
950.866
1009.86
1332.82
1041.55
1149.38
1408.34
938.01
992.14
942.213
1315.46
1271.78
3065.48
1145.28
3062.95
1193.42
1189.54
3013.76
995.89
1619.79
1575.11
1023.18
1044.71
1017.53
1652.69
4402.94
1749.32
3305.87
2662.36
3044.4
6670.95
2561.77
5049.91
2041.32
3916.08
3896.58
3351.16
3366.42
11312.5
12618
6202.18
8035.03
27404.2
4328.84
13592.2
15231.8
4350.3
1704.63
2541.46
3151
6623.8
2534.52
3022.84
16542.1
93195.5
49046.2
72351.3
49349.5
49936.3
81675.6
9751.59
4287.53
4170.05
24003.7
9333.2
8912.6
3070.27
12997.4
8142.18
6732.31
36606.1
11519.4
4328.1
14409.6
1263.47
1408.19
1049.04
2353.19
916.805
1846.72
1322.79
1216.44
1289.54
963.36
2051.06
1250.61
892.984
1757.09
1119.87
777.142
767.842
1237.57
1079.53
717.775
1116.32
1518
3040.84
2811.91
1924.05
1808.84
2734.97
1867.92
356.852
348.802
327.022
311.079
334.652
327.434
336.69
337.992
314.244
325.405
328.441
311.611
314.686
329.643
326.799
319.62
339.637
333.072
326.153
319.332
333.953
340.382
340.599
358.301
326.964
344.221
332.817
314.771
339.536
330.944
327.605
335.403
337.809
329.731
332.519
333.368
330.16
348.99
354.6
346.929
349.343
341.015
341.034
349.534
318.025
324.11
320.735
332.017
326.662
329.83
328.7
324.604
326.376
328.911
334.925
333.351
336.054
332.027
324.248
331.596
340.772
338.404
342.427
335.217
346.249
333.139
344.654
336.282
341.165
348.042
341.303
348.577
337.56
347.159
339.387
336.032
342.207
338.993
334.496
342.827
353.345
351.638
350.302
346.867
343.791
349.769
337.793
351.812
340.661
344.012
355.639
358.199
340.833
317.729
329.295
320.565
336.674
334.94
336.338
333.602
344.837
364.247
351.038
348.907
361.568
360.561
355.708
332.757
331.9
325.288
341.566
338.063
337.569
346.47
313.036
294.746
283.913
287.611
264.877
302.32
327.905
316.26
260.878
247.712
251.639
257.293
260.548
270.663
267.024
272.197
272.523
259.776
277.149
267.238
277.075
286.421
298.103
281.199
277.571
283.875
295.777
299.037
280.412
304.278
298.132
288.087
289.822
312.069
304.428
298.39
270.722
289.829
273.505
281.634
294.132
278.387
296.752
287.666
294.875
279.298
287.395
309.469
301.912
295.329
292.601
302.824
304.035
318.802
305.77
289.446
306.74
297.922
317.952
318.922
323.056
310.678
311.735
305.604
327.236
299.803
336.332
320.513
347.075
361.115
265.745
289.246
341.26
275.803
283.674
304.587
353.822
355.204
299.734
357.128
355.034
328.243
313.967
297.738
316.111
360.196
323.983
342.996
344.888
319.44
351.462
352.487
316.171
261.153
243.573
248.563
249.846
256.468
277.005
272.049
345.923
358.704
353.185
361.555
339.243
329.296
358.572
274.448
275.256
258.89
303.758
287.024
269
288.456
303.171
285.238
281.313
313.026
309.579
297.255
293.224
310.414
305.535
293.655
321.644
332.392
319.862
307.235
1724.55
361.776
1726.53
404.944
1905.46
1789.2
1121.1
460.142
502.252
382.856
414.946
564.867
396.382
546.146
516.901
846.703
1927.55
989.313
703.388
1830.04
744.671
1831.26
1367.22
1528.31
3696.06
692.613
797.884
821.022
820.942
550.691
738.686
465.915
598.305
944.428
552.396
594.592
1229.62
1324.27
2125.26
1004.42
1314.02
917.673
1785.95
1256.49
1406.74
2361.57
1062.47
916.538
1342.14
1838.2
1521.27
2992.4
3071.33
2034.37
1711.51
1847.71
2671.67
1102.82
1180.61
770.933
778.323
1125.64
724.43
1132.04
377.787
339.575
359.425
397.951
386.867
443.203
442.576
592.042
1814.69
633.717
1860.71
713.925
639.035
1817.75
1715.6
556.69
561.245
610.213
1766.14
626.995
1775.26
1733.85
557.157
556.455
1759.46
567.707
586.656
1776.67
1683.71
313.51
342.706
1680.51
341.506
623.573
292.867
568.905
269.75
316.06
342.583
354.803
299.971
282.05
329.473
314.728
349.245
316.197
325.816
316.186
291.397
319.268
286.048
328.404
330.565
337.091
300.904
293.813
287.481
303.806
341.456
312.752
314.527
335.646
297.51
324.324
290.981
314.177
328.543
330.351
299.429
313.331
307.006
292.296
1670.79
531.623
529.959
529.502
1629.83
524.292
1636.78
344.474
341.824
343.181
318.209
326.85
318.424
328.516
270.924
315.517
312.9
308.965
276.142
309.063
272.912
282.263
271.331
272.662
287.021
278.407
275.123
288.579
1688.68
559.73
543.975
1634.92
571.558
547.713
1640.92
346.98
346.207
350.87
331.543
343.968
325.203
336.815
278.188
352.856
329.979
338.819
290.868
320.907
279.591
1528.4
1533.16
559.942
542.487
1588.11
535.729
1590.19
289.385
289.532
278.526
292.231
304.506
294.502
281.684
312.85
298.425
297.447
304.532
317.611
304.232
319.326
591.38
1486.41
1514.3
1571.84
592.615
563.177
1586.54
321.391
314.717
305.447
321.507
335.66
312.262
327.126
338.965
408.292
383.581
368.142
1522.55
461.095
707.61
436.915
502.185
380.202
406.66
572.9
389.559
511.742
546
4360.58
1160.7
1446.13
707.028
815.257
820.191