/*--------------------------------*- C++ -*----------------------------------*\
  =========                 |
  \\      /  F ield         | OpenFOAM: The Open Source CFD Toolbox
   \\    /   O peration     | Website:  https://openfoam.org
    \\  /    A nd           | Version:  9
     \\/     M anipulation  |
\*---------------------------------------------------------------------------*/
FoamFile
{
    format      ascii;
    class       surfaceScalarField;
    location    "0.0021";
    object      phi;
}
// * * * * * * * * * * * * * * * * * * * * * * * * * * * * * * * * * * * * * //

dimensions      [0 3 -1 0 0 0 0];

internalField   nonuniform List<scalar> 
47833
(
-3.32893
-0.448557
1.08635
0.734587
1.41094
-0.784379
3.87213
-3.89496
-1.58293
1.73473
-0.810756
3.65554
-3.82581
-1.72724
0.495846
3.68694
-0.336864
-3.83318
-0.0194499
-0.0470606
-0.256403
-0.0143263
-0.492212
-0.100247
0.019269
-1.371
0.482409
3.90066
1.55144
-0.328913
-3.9041
-0.0444809
-1.3088
-0.236033
0.0610779
0.166628
0.473076
3.95352
-0.323301
-3.91029
-1.38192
3.87651
0.639217
1.56125
-3.89684
3.93723
0.626602
-3.9119
1.21401
0.416068
-0.283373
3.59702
0.415508
1.33799
-0.282431
3.42226
1.21384
0.54998
3.54328
0.548141
1.33211
3.34207
-0.799605
3.78402
-3.8559
-1.39486
3.83849
1.57139
-3.8816
3.91056
-3.90694
1.20561
-0.682617
-0.676747
1.30205
3.02731
1.21152
3.45599
1.32122
3.2174
0.491246
3.8149
-0.333983
-3.87168
-1.7325
3.63925
0.655469
-3.82773
3.78062
0.650859
-3.85499
-1.43278
0.391747
-0.267145
2.62018
0.409251
-0.278237
3.1316
1.4166
0.537396
3.00611
0.51027
2.43174
-1.40912
1.44269
3.51228
-3.77629
-1.30164
0.899089
-0.732189
1.42069
3.88598
-3.89443
-1.24477
3.71163
-1.71956
-0.179238
-3.828
-0.547138
-0.113254
-0.00666917
-3.95759
1.21148
-0.152603
3.62706
-1.07166
-1.45967
-0.256374
-0.021867
0.185405
0.28061
-0.121815
-1.72391
3.71883
-3.82668
0.0115171
-0.00283982
-0.564994
-0.118151
0.047159
-0.0131999
-1.98774
0.265876
-0.311674
0.263156
-0.11313
1.36475
3.96052
-3.89893
-1.18679
0.105671
-1.25903
-0.11004
0.152507
-0.207346
-1.73347
0.441723
3.7009
-3.83278
0.0176667
-0.0547545
-0.289139
-0.0206186
0.919374
-1.74977
-0.76358
3.51066
-3.78753
-0.519383
-0.107582
0.0179403
0.0784031
-1.90759
0.251448
-0.300219
0.415352
1.37721
3.95977
-3.90892
-1.19909
1.0711
1.4383
3.83709
-3.87629
-1.26458
-1.6168
-1.28912
2.48205
-3.45979
-0.0432309
-0.00667487
-0.00510182
-2.57864
-0.535895
0.482665
0.482854
0.49785
-0.565988
-0.951206
0.0890859
0.111044
-0.160025
-0.037623
-0.209232
0.0132551
-1.74467
1.06494
3.39321
-3.74337
1.36006
-0.174858
-3.90067
-1.18243
-3.90982
-0.150883
1.33891
3.46871
-0.176962
1.54136
-3.90172
1.35172
3.95471
-0.030815
-3.8895
-1.17486
3.90838
-0.0302504
1.5325
-3.89339
1.20854
-0.0302962
3.639
-1.06868
-0.028501
1.33699
3.48738
1.35252
3.95508
-3.88823
-1.17506
-0.116539
3.91367
0.270212
1.54588
-3.90199
3.90941
1.53361
-3.89308
-0.0916206
1.2192
0.224413
3.63813
-1.07918
1.21079
3.64232
-1.07047
0.0934705
1.33946
3.49186
0.226963
1.34683
3.48301
1.38907
3.94421
0.571411
-3.90864
-1.21166
0.425987
3.90872
1.55751
-3.90627
3.8868
0.584866
1.56799
-3.89781
0.361467
1.22581
3.61762
-1.08709
1.22918
0.499944
3.57202
-1.09335
0.364192
1.35031
3.44953
0.501144
1.3485
3.38295
1.40338
3.91984
-3.90442
-1.22652
-0.747631
3.80438
0.915157
1.59396
-3.86172
3.85264
1.58031
-3.88372
-0.637952
1.22877
0.775011
3.39013
-1.10394
1.23062
3.4987
-1.09913
0.635116
1.34213
3.27804
0.764099
1.32883
3.11873
-1.43972
-0.140909
2.74099
-3.8309
-0.147579
3.20476
-0.178674
-3.87492
-1.71091
3.71709
-0.0286539
-3.81607
3.83261
-0.0294321
-3.86914
1.44022
-0.0265513
3.23717
-0.0243188
2.79791
-1.71231
3.71925
-3.81519
-0.119616
3.83657
0.276226
-3.87668
3.83402
-3.86923
0.0940143
1.44293
3.24425
-1.44813
-0.091906
0.219814
2.77486
0.226323
3.22602
2.80936
1.45249
3.76373
1.24432
-3.8399
-1.28351
1.08371
3.7371
1.60415
-3.81836
3.64094
1.24709
1.60507
-3.81186
0.906525
1.2195
3.23003
-1.10479
1.19602
1.02322
2.97913
-1.09666
0.881155
1.30142
2.87349
0.974559
1.25123
2.4971
0.435388
3.82569
-3.87596
-1.74047
3.65924
0.603572
-3.82731
3.79529
0.597025
-3.86064
-1.44642
0.348649
2.68156
0.361528
3.17136
1.4358
0.494343
3.06852
0.472357
2.51527
-0.760258
3.68391
0.924172
-3.82147
-1.74669
3.59656
-3.81395
3.7489
-3.82873
0.620021
1.41547
2.90289
-1.38115
-0.583725
0.676204
2.01893
0.734565
2.65166
2.30178
-0.812168
3.47289
-3.77865
-1.73543
3.56891
-3.81119
3.72919
-3.83136
-1.34716
-0.613985
1.88415
-0.656952
2.51259
1.38994
2.80828
2.19633
1.45619
3.65878
-3.81212
-1.29829
-1.39488
3.32539
1.55197
-3.70852
3.50895
1.58974
-3.77707
-1.10913
1.06489
2.07359
-1.02455
1.14854
-1.07334
1.02543
1.166
2.05475
1.03308
1.51121
1.08406
3.59323
-3.8063
-1.72442
3.21408
1.19179
-3.67721
3.47127
1.2319
-3.76736
-1.3233
0.738829
1.65818
0.829393
2.31853
1.23218
0.889441
1.91749
0.753241
1.14738
-0.842369
0.266317
-0.1819
0.84657
-1.83913
0.0886159
-0.0633645
0.288227
-0.19716
-0.206451
-1.10169
0.0688489
0.141001
-1.67722
0.103771
0.819975
0.374421
0.341523
0.809783
-0.8557
-0.0956322
0.86924
-1.94733
-0.031829
-0.301649
-0.105867
-0.797362
-2.00427
0.267533
-0.00435828
-0.31159
0.862237
-0.022825
-0.801361
1.54121
-0.0192079
0.880306
-0.0021374
0.195868
-2.01844
0.270885
-0.315058
-0.059354
0.866549
0.152272
-0.807404
0.865774
-0.804379
0.0554759
1.55696
0.884502
-1.51349
-0.00924656
0.0342028
0.193085
0.142691
0.8815
0.198696
-1.77132
0.226663
0.100622
-0.279099
0.248807
0.86037
-0.806156
0.844859
0.342375
-0.799064
-1.39607
0.0553142
0.17865
0.232614
0.867268
1.21124
0.316275
0.838677
0.0682633
0.155863
-1.35705
3.02519
-3.60578
-1.68441
2.94335
-3.58498
3.29499
-3.7012
1.09372
0.893279
1.41314
-0.696141
-0.893572
0.452578
0.754688
0.845055
-0.426051
0.77533
0.493638
-0.759907
-1.57983
0.192273
-0.247841
0.817951
-0.784541
0.384508
1.00407
0.793288
-0.824609
-0.0707148
0.0641936
0.096497
0.430459
0.726666
0.126943
1.43315
0.785416
-0.106498
0.130449
0.170224
0.0670889
-0.923333
0.111574
-0.738779
0.0827092
-0.399194
0.68011
0.755483
-0.775853
0.181449
-0.126205
-0.825733
0.036294
-0.0269164
0.231255
-0.158787
-0.083372
-0.420493
0.0208738
-0.717079
0.0397572
0.722628
0.289863
0.219565
-0.809993
-0.0624767
-0.903597
-0.0128756
-0.0814589
0.945864
0.826979
-0.0151051
-0.120636
-0.577864
0.000150638
4.89626e-05
-0.0101807
0.0481501
0.955397
0.831901
-0.12251
-0.584566
-0.824037
-0.0362254
0.101576
-0.929342
-0.00526841
0.0212646
0.12645
-0.79935
0.163253
-0.867137
0.0335127
0.204821
0.770204
0.755455
0.272408
-0.0919417
-0.452868
0.020984
0.0398525
0.210247
0.534983
0.711401
-0.720242
0.707846
0.619864
-0.65779
0.0746086
0.0669322
-0.111935
-0.631979
0.0521895
0.0683886
0.444383
0.634814
0.450783
0.415664
0.513693
0.0381916
0.0447727
-0.0649204
-0.338835
0.0378159
-0.587868
-0.454779
-0.546367
-0.233124
-0.326432
0.646494
0.319933
0.646453
0.688963
-0.510584
-0.039967
0.0353839
-0.596964
-0.234579
0.229669
-0.0735013
-0.373083
0.340962
0.0451764
0.0461952
-0.0710502
-0.304998
0.0257836
-0.0413541
0.348921
-0.443742
0.299614
0.334369
0.368159
-0.02468
-0.183097
0.0139288
0.0265046
0.218789
-0.380526
0.028008
-0.47973
0.194732
0.327581
0.264554
0.344658
0.272335
-0.0234534
-0.139819
0.00870856
0.0195423
0.13908
-1.5154
-1.2427
2.64181
1.41857
-2.18635
2.15168
-0.600215
1.08733
0.728379
-1.71303
-0.955889
-1.04579
-0.119042
2.05095
1.17472
0.233852
-1.59055
-1.62916
-1.61246
2.93127
1.82763
-2.32882
2.28061
-1.32443
-0.135143
0.260044
-1.84618
-2.66454
-1.38082
1.56984
3.53664
-0.172968
0.318669
-3.15769
-0.175038
1.32988
0.323489
-1.14753
0.248102
-0.122531
-1.3179
2.2682
-1.83044
0.302175
-0.13638
-3.63324
-1.75435
0.233292
-0.121146
1.03886
1.91764
-1.43688
-0.922421
0.27685
-0.127366
-3.1435
1.32964
-1.14752
0.906034
-3.39207
-0.7358
1.41567
-1.22036
-1.33701
0.378191
2.30222
-1.86654
-3.65486
-1.77161
0.467881
0.994527
-1.83381
-0.812925
-3.70303
0.780414
-0.638492
-1.38577
2.41784
-1.99123
0.352172
1.05492
1.96449
-1.49196
-0.937139
-3.18728
0.425234
1.346
-1.16213
0.998469
-0.86053
1.1263
2.29134
-1.86049
-0.984499
1.14265
1.15073
2.3513
-1.91949
-1.00546
1.67818
-3.68416
-1.47514
1.55362
-1.35851
-3.53261
1.08694
1.45129
-1.25229
1.6899
-3.57186
-1.91344
-1.5388
-1.86195
-3.70158
1.17974
-1.41124
0.928519
2.46213
-2.03324
-0.113351
1.92667
0.226331
-1.44796
-0.930596
1.02332
1.88325
0.00314828
-1.39751
-0.911824
2.00848
-0.00089967
1.14928
-1.54251
-0.140644
1.13242
2.42966
0.268113
-1.00559
1.11349
-0.00726318
2.39237
-0.990925
0.14643
-0.0103038
1.25601
2.50901
1.27806
2.54661
0.276614
1.01933
1.88129
-1.39533
-0.90644
-0.119339
2.04008
0.234603
1.16871
-1.57715
2.00547
1.14662
-1.53916
-0.128121
1.12804
0.256462
2.42129
-1.00079
1.11088
2.3899
-0.986937
0.128012
1.25448
2.50578
0.259555
1.27425
2.53696
1.06135
2.01507
0.47539
-1.55374
-0.938433
0.357115
2.08239
1.18659
-1.62578
2.12632
0.483061
1.19865
-1.67696
0.387196
1.14255
2.463
-1.01347
1.15144
0.518927
2.50608
-1.0168
0.393443
1.29052
2.5764
0.526463
1.30301
2.61651
-0.650156
1.17798
0.784312
2.62893
-1.03434
1.07252
2.07899
-1.63025
-0.944511
-0.609047
2.24341
0.739045
1.22956
-1.80989
2.18215
1.21302
-1.7415
1.16322
2.56193
-1.02353
0.658688
1.31698
2.66632
0.796837
1.33514
2.72476
-1.50068
-1.25916
2.63254
1.43485
1.69155
-2.18125
-3.6777
1.57954
1.87537
-1.39071
-3.53795
-1.89118
1.7995
-1.82134
-1.56008
-3.09112
-2.16165
-3.50042
1.48981
-1.37769
-2.07635
-1.79985
3.22691
-2.5724
-1.90708
-1.37272
2.99184
1.57373
-2.36202
-1.44276
-0.161527
2.79349
0.300427
-0.126079
2.16901
0.245626
-1.72389
-1.29677
2.24109
-0.00755752
-1.80308
2.12734
-0.00426602
-1.67769
0.153106
1.4185
-0.0131396
2.62728
0.287403
-0.0159016
2.75524
-1.29473
2.23715
-1.79843
-0.119989
2.15654
0.24003
-1.70826
2.12368
-1.67356
0.129698
1.41712
2.62368
-1.43851
-0.132623
0.273145
2.78155
0.265573
2.65393
2.75106
0.36674
2.19466
-1.7503
-1.35145
2.3355
0.50669
-1.90257
2.23274
0.493642
-1.79273
-1.45587
0.412243
2.81857
0.402083
2.6905
1.46961
0.535705
2.72712
0.548879
2.85802
2.22536
1.10509
-1.79355
-0.968759
0.925075
1.19763
2.69973
-1.04849
0.876265
2.30353
1.2514
-1.87325
2.35799
1.01983
1.27652
-1.92728
1.22156
1.07415
2.77195
-1.06753
0.943652
1.35922
2.7903
1.09847
1.38738
2.86705
-1.36666
2.37583
-1.9478
-0.620977
2.33095
0.756174
-1.90213
2.28071
-1.84694
0.670888
1.48523
2.77413
-1.5079
-0.690388
0.842274
2.97874
0.815683
2.83346
2.91038
1.18074
2.41169
1.29552
-1.98153
-1.03165
-1.16888
2.47227
1.34046
1.32775
-2.04084
2.4125
1.30512
-1.98127
-1.23218
1.2835
1.40299
2.95695
-1.11836
1.24941
2.85275
-1.0907
1.26308
1.42169
2.9625
1.46479
1.44341
3.08918
-0.160237
1.21277
0.298514
-1.0649
-3.12074
1.31483
-0.0240853
-1.13493
1.19656
-0.0160615
-1.05197
0.165857
3.2888
-0.0181806
1.3622
-3.32597
-0.180571
1.53331
0.333935
0.307332
-0.0254746
1.51653
-3.11549
1.31385
-1.13311
-0.130385
1.21077
0.270191
-1.06271
1.19477
-1.04918
0.132106
3.28333
1.36086
-3.31205
-0.130023
0.28431
1.53298
0.275437
1.37862
1.51606
0.899435
2.37973
-1.95184
-1.43957
2.51082
1.08106
-2.07793
2.42917
1.04732
-1.99924
-1.53628
1.00251
3.06559
0.969087
2.9059
1.57073
1.1305
2.99702
1.17281
3.17354
0.408252
1.22585
-1.0757
-3.23729
1.363
0.577016
-1.17602
1.23754
0.546539
-1.08285
-3.35492
0.437817
1.55052
0.416738
1.3954
3.41426
0.557707
1.40974
0.595251
1.56924
-0.687454
1.27275
0.83521
-1.10965
-3.30601
1.38636
-1.19494
1.25248
-1.09385
0.701779
3.51563
1.42794
-3.56452
-0.760311
0.935054
1.62475
0.855203
1.45305
1.59408
-1.2019
2.54559
1.36834
-2.10874
-1.47361
2.56746
-2.12858
2.48257
-2.05067
1.61274
1.30466
3.11352
-1.35741
-1.66629
1.56652
3.39725
3.32862
1.49547
3.2991
3.64006
-0.180682
0.331823
-1.7531
-0.191809
0.356504
-0.186207
0.34506
3.50902
1.54883
-0.020325
-1.73654
-3.61611
-0.0279277
-0.0269869
-0.0222722
0.134835
3.50567
1.54758
-1.73706
-3.61333
-1.56663
-0.138558
0.29174
-3.52783
-0.133085
0.293054
0.282521
0.991408
1.29858
-1.13
-3.59562
1.48507
1.27685
-1.28775
1.33162
1.15971
-1.15533
-3.61442
1.1187
1.65403
1.01996
1.48773
3.6599
1.20081
1.53357
1.31024
1.68749
-1.2169
2.54249
1.3836
-2.10687
1.46139
2.47851
-2.04922
-1.06241
2.55795
1.64391
-2.12362
-1.09794
1.32713
1.59184
3.09895
-1.15269
1.64312
1.51854
3.28705
1.3806
1.80377
3.31098
-1.19608
1.5895
1.87445
3.38603
-1.58519
0.441699
-3.5558
0.452522
0.427348
3.58161
1.60195
0.572229
-1.78649
-3.67237
0.637468
0.615804
0.593504
0.722742
3.61254
1.62673
-3.64828
-0.786281
0.965405
-1.80662
-3.69012
-1.66204
-0.754362
0.92916
0.885801
-1.34645
1.43529
1.56072
-1.23072
-3.64964
1.52014
-1.32358
1.37595
-1.18716
3.68759
1.40325
1.59345
-1.50744
-3.68151
1.74511
1.70313
1.72021
1.66372
1.62913
-1.55041
2.75164
1.75298
-2.24787
-1.56663
2.75821
-2.25141
2.6248
-2.17403
-1.73688
1.81416
3.44707
1.7126
3.38249
1.83885
1.97615
3.44253
2.09295
3.442
-1.31
2.77747
1.49772
-2.26453
1.84767
2.66501
-2.20636
-1.13945
2.83783
-2.29768
-1.18961
-2.05794
1.55512
3.45157
-1.32744
1.45392
3.40627
-1.24972
2.15949
1.69099
3.44603
1.80132
3.42392
-3.68019
1.15075
-1.71008
1.11895
1.06278
3.69535
1.76882
1.25736
-1.89108
-3.67742
1.36413
1.34207
1.32352
3.68237
1.83727
1.47132
-1.54124
-1.9113
1.75793
-1.53289
-3.63741
1.70996
-1.9101
-3.63054
1.70412
1.50559
1.80208
-1.28939
-3.6354
1.87886
1.75147
1.87586
1.74151
-3.62525
1.58458
2.0439
-1.41327
1.57914
2.05803
-1.35797
3.56474
1.79442
2.10966
1.73006
2.01613
-1.70473
3.144
-2.42445
-1.98076
3.15766
-2.44363
2.94287
-2.33524
2.27333
1.95434
3.4365
-2.04585
-2.3672
3.31935
3.35135
3.37501
-1.96368
1.96925
-3.56734
1.85752
1.92906
2.002
3.53562
2.14176
-3.45166
-1.83266
1.85487
2.14816
1.95592
-3.56225
1.55918
-1.41304
-2.29842
1.66363
-1.46803
1.63069
-1.4226
2.31835
3.52453
1.83417
-3.4126
-2.09511
1.56027
1.83223
1.66843
-1.06853
0.358836
2.0994
1.19943
-1.64711
0.523783
-0.390804
2.36125
-1.37078
-1.93405
0.672013
-1.38653
2.40577
-1.97775
-0.493255
-1.09345
0.633533
2.21384
1.23243
-1.76684
-2.75563
-1.28389
3.59814
-0.740592
1.46649
-3.02332
-1.67909
-0.800711
3.71279
-2.70657
-1.40137
1.59179
3.56904
0.464039
-3.21091
0.471509
1.34852
-1.16417
0.350621
1.97967
-1.51138
-0.950793
-1.08221
2.15386
1.21847
-1.70898
2.04095
0.484949
-1.58228
-0.958281
0.400024
1.15192
2.47687
-1.02211
1.1656
0.536694
2.53053
-1.03023
0.410488
1.29977
2.59204
0.546233
1.31668
2.64146
0.615783
2.10749
-1.64762
-0.966586
-1.11063
2.25612
1.24893
-1.84422
2.16098
-1.78829
-0.982835
-0.679445
1.19102
2.65565
-1.04744
1.17796
2.59312
-1.03841
0.690645
1.3321
2.69823
1.34937
2.31923
-1.35012
-1.88742
-0.439729
-1.48333
0.577521
2.88556
-1.46542
2.83653
0.37391
2.21243
-1.77231
2.26006
0.507405
-1.82541
0.424043
0.559591
2.75256
-1.40238
2.43923
-1.98852
-0.652066
2.34747
-1.90802
2.31198
-1.87594
-1.52297
-0.726428
-0.705424
2.87156
-1.50137
2.94695
2.80757
0.437284
1.23148
-1.08054
-3.27495
1.36726
0.623736
-1.17965
1.24703
0.576956
-1.09129
-3.37709
0.48729
1.55289
0.449155
3.47622
0.590939
1.41969
0.645193
1.57239
3.49047
-0.724535
-1.11943
-1.42012
-0.810545
1.62511
-0.784677
-1.22574
-3.35424
1.39154
-1.20002
1.26347
-1.10398
3.54603
1.43987
1.59985
3.6645
0.482798
-1.77092
0.521941
0.504226
3.68542
-1.61341
0.636515
-1.78634
0.691671
3.60136
0.609786
0.667918
3.67361
-0.764487
3.70382
-1.64122
1.8342
-0.838395
-0.866468
-1.80789
3.6364
0.970238
-0.517933
-0.525168
0.692207
0.632771
-0.581903
-1.78512
-1.38204
-1.14411
1.30337
-0.481932
-0.676952
0.815751
0.590757
-0.447481
-1.18474
-0.632077
-1.11857
1.61427
0.764123
-0.7082
0.982043
-0.797329
0.841623
-0.645264
-0.676024
1.41961
0.8815
0.794982
-0.763777
1.16977
-0.733075
-0.760388
-0.77543
0.889052
0.900111
-0.938667
1.61426
-0.942661
1.07489
1.07738
-0.29059
0.412952
0.384916
-0.0888167
-0.301214
0.468409
0.400487
-0.202824
-0.04211
-0.272828
0.679808
0.912621
-0.420515
-0.560543
0.332079
0.542089
0.522697
-0.242502
-0.116066
0.589549
0.431001
0.534971
-0.173163
0.548037
0.793297
0.989385
-0.439635
0.660666
0.807416
1.03864
-0.511131
-0.539319
0.64234
0.661989
-0.347643
-0.645564
-0.739845
1.09353
0.854558
-0.643488
-0.48477
0.59787
-0.241055
-0.395522
-0.568225
0.715359
1.02258
-0.602383
0.446365
-0.14766
-0.333752
0.64694
0.573164
-0.244466
0.837575
1.09356
-0.657277
0.763638
-0.378406
-0.382528
0.399887
0.6431
-0.302307
-0.235235
0.690682
0.505162
-0.297013
-0.919329
0.64762
-0.527188
0.59281
-0.477317
1.08131
0.941081
0.710171
1.12688
0.768478
1.23332
1.3543
0.865648
-0.559131
-0.746023
-0.780264
1.01743
0.909598
-0.888031
0.998306
-0.654489
-0.872064
-1.43518
0.796036
-0.666715
1.13126
0.692806
-0.571976
0.98517
1.48901
0.816798
1.00438
0.930301
1.15425
-0.723222
0.887926
-0.533257
-1.03879
-0.894025
1.37784
1.0332
-0.848586
-0.830395
1.26683
0.962739
-0.618844
0.747837
-0.486669
0.756795
-0.377069
0.980227
1.18743
1.2978
-0.00815256
0.0128876
0.33088
0.054063
0.392951
-0.204348
-1.40811
-1.18667
-0.104285
0.211256
0.497555
-0.56614
-0.00106089
-0.0172447
0.0312675
0.622378
-0.104064
-0.606102
-0.0159576
0.705708
0.0589685
-0.794418
1.11374
-0.0521997
0.89818
0.127287
0.0835755
-0.0555012
-0.54438
0.472474
-0.0190316
0.21677
-0.110331
-1.38808
-1.1771
-0.0319742
0.303493
-0.051326
0.528087
-0.180744
0.202455
-0.111703
-0.941818
0.92412
-0.813222
-0.0547774
0.120178
0.369655
0.296481
0.117042
-0.225433
-0.592824
0.128107
0.535786
-0.0946487
-0.281585
-0.649754
0.720086
-0.326503
-1.43016
-1.19901
0.333708
-1.14271
-1.09733
1.57097
-0.505414
-0.833468
1.27081
-0.444652
0.845726
-0.725405
-1.01001
0.303039
0.943617
-0.831905
0.349443
0.1728
0.247424
-0.212269
0.0415534
0.207413
-0.027956
0.461046
0.240481
0.151554
0.612256
-0.106298
0.526298
-0.507373
0.308009
0.0910631
0.487313
0.118227
0.622768
0.227509
0.623024
-0.510631
0.160201
-0.10846
0.716319
0.681369
0.24239
0.735731
0.760594
-0.307672
0.0233914
0.438212
0.404267
-0.0387319
0.089573
-0.0127906
0.449123
0.0514437
-0.501553
0.0267175
0.596364
-0.0609874
-0.178577
0.28198
-0.126266
0.0243546
0.666226
-0.15691
0.0602701
0.0262104
0.400676
0.454587
0.569746
0.0310934
0.389764
-0.469931
0.028856
0.661774
0.562
0.28193
-0.11449
0.627217
-0.159133
-0.0387507
0.112479
0.423598
0.354559
0.0591677
0.39629
0.423602
-0.074362
0.587561
0.439849
-0.486241
0.563289
0.386412
-0.465179
0.0710802
0.654648
0.556981
0.684689
0.604479
0.385594
0.397621
0.0206274
-0.248114
-0.158867
0.48426
0.517043
-0.0578646
0.407482
0.508953
0.0163873
-0.31818
0.659835
-0.537421
0.639064
0.7343
-0.51709
0.335361
0.760661
0.850089
0.779039
0.927479
-0.817782
-0.0364766
0.9574
0.10259
-0.301506
-0.0259043
0.7923
0.0791334
0.011972
0.210668
-0.00573251
-0.516398
0.445754
0.032135
0.0121028
0.250422
0.031497
0.239809
0.768023
0.0247572
0.735283
0.0209242
0.905489
-0.509111
0.43831
0.0175649
-0.0459847
0.287316
0.0534827
0.182706
0.244057
0.229092
0.074018
0.761198
0.729562
-0.796552
-0.0798923
0.138575
0.932474
0.120392
0.769641
0.898983
0.0793073
0.365832
0.0902258
-0.625215
0.5982
0.200869
-0.179444
0.447336
0.139574
-0.0143441
-0.835735
0.213361
0.984495
0.181275
0.833821
0.862887
0.272294
0.89655
0.310117
1.03301
0.955607
-0.0478129
0.121994
-0.689536
-0.935443
-0.0872361
1.05057
0.183536
-0.0816405
0.177182
-0.825958
-0.897565
0.905566
0.0147583
-0.800377
0.757663
0.0257548
-0.656836
1.05889
0.0198776
0.857182
0.00940592
1.01757
-0.894646
0.90089
-0.793997
-0.0977321
0.777366
0.162963
-0.672003
0.751515
-0.649684
0.093244
1.05485
0.852205
-1.09725
-0.107962
0.201304
1.04078
0.16134
0.881702
1.01412
-0.644259
0.668234
-0.263206
-0.213413
0.594109
-0.176972
0.529853
-0.107108
0.369524
0.887262
0.968521
-0.903172
-0.412041
1.03161
1.0933
0.239732
0.801195
-0.693688
-1.08653
0.94979
0.415432
-0.8335
0.808937
0.337612
-0.696756
-1.15739
0.305811
1.06144
0.242588
0.908485
1.21952
0.345361
0.923601
0.422342
1.07449
-0.532407
0.980301
-0.856229
-1.17907
0.962434
-0.840484
0.824359
-0.704986
0.454862
1.29535
0.946561
-1.36978
-0.542214
1.11069
0.966873
1.09229
-1.02008
-0.070583
0.158653
1.2654
-0.0610403
0.141457
-0.0943155
0.194928
1.21414
0.976747
0.0149598
-1.15218
-1.36108
0.00171605
0.00562721
0.0113737
0.0938023
1.20926
0.972441
-1.14906
-1.35532
-1.00426
-0.096539
0.180388
-1.24625
-0.108454
0.207672
0.168443
-1.03395
0.278957
-1.29707
0.318295
0.257428
1.347
1.05572
0.366395
-1.21702
-1.47074
0.454216
0.437266
0.39003
1.47008
-0.478097
0.597396
1.2537
-0.558089
0.686261
-0.578493
0.713493
1.40918
1.07865
-1.23477
-1.52327
-0.913767
1.54571
1.03983
-0.812454
1.47759
0.902181
-0.780178
1.04187
1.04093
-0.906547
1.07316
1.18183
-0.935324
-1.06844
1.22025
1.21489
1.54539
1.03222
1.18292
1.52196
0.724411
1.27821
0.822014
0.854218
1.56999
1.14402
0.852922
-1.30532
-1.66203
0.996418
0.960685
0.896379
-1.22905
-1.03304
1.18192
1.69561
-0.983722
1.12555
-1.10316
1.25576
1.62728
1.17981
-1.33948
-1.71935
-1.468
-1.28704
1.85673
1.34705
1.091
-0.889997
0.997169
-0.775824
1.26459
-0.845303
-0.822153
1.0448
0.956117
-0.98485
1.69381
1.22874
1.12711
-1.66432
-1.52982
1.73155
2.01761
-1.42319
-1.38086
-1.19951
1.45446
-1.20571
-1.41317
-1.34684
1.53337
1.81135
1.09476
-0.952738
-1.09912
0.88653
1.17554
-0.875449
-0.76074
-0.59938
0.808094
0.733084
-0.481941
-0.752842
0.989198
1.18566
-0.701813
0.735402
-0.370376
-0.482221
0.695353
0.882607
0.902917
-0.525521
-0.578135
0.97707
0.831008
0.981351
-0.639054
0.89093
1.15036
1.29394
-0.766796
1.03065
1.2136
1.37344
-1.11091
1.19178
-0.960643
1.11451
1.36065
0.899367
-0.620512
-0.99041
1.20964
1.17657
-0.918166
1.08762
1.07528
-0.772075
1.1911
1.28844
1.46488
1.37155
1.56492
0.792354
1.02658
-0.697049
-0.672688
-1.18211
1.26164
1.03172
-0.978591
1.11885
0.931179
-0.808304
-1.3386
1.03768
1.53595
-0.899819
0.963404
-0.833414
1.40779
1.10954
1.48999
1.19154
1.60694
1.62624
1.18257
-0.854423
1.11175
1.3353
-0.969693
1.37481
1.26437
-1.71574
1.15493
1.50526
-1.00798
1.0373
-0.901945
1.78091
1.1862
1.39966
1.31401
1.55065
-1.09406
1.33268
-1.06388
1.27708
1.22254
-0.932822
1.35626
-1.09078
1.48642
1.27598
1.57486
-1.36404
-1.57325
1.764
1.68345
1.7715
1.28412
-1.43174
1.47759
1.42235
1.35228
1.85372
1.46097
-1.93413
-1.48863
1.66899
1.605
1.90906
1.15656
-1.00681
1.69384
1.2032
-1.04943
1.25861
-1.09623
1.59128
1.8731
1.25061
-1.96755
-1.74536
1.43524
1.31963
1.37042
2.10886
-1.49866
-1.88129
-1.62888
-1.55384
-1.80743
-2.03362
-1.94148
-1.65746
-0.457296
-0.434885
0.606384
-0.425273
0.619969
0.181355
0.194754
-0.912606
0.0373133
0.62999
-1.22827
0.382284
-1.1199
-0.951333
1.4195
1.50214
-0.238593
0.287551
-0.113477
0.397177
-0.16001
-1.14026
1.09525
-0.872514
-0.762909
-1.69587
-0.247767
-0.19489
1.38354
-0.800767
-0.719698
0.689055
-0.569103
-1.52783
0.24227
0.282287
1.14422
-0.0541302
-0.883329
0.54893
-1.07885
1.18356
-0.941925
-0.649776
-0.558782
0.794812
0.0839613
0.846918
-0.919405
0.58387
-1.11019
-0.797999
1.17471
0.740069
-1.21797
-0.655373
-0.569322
-0.37984
0.614432
-0.434343
0.249304
-0.409325
0.292428
-0.29803
0.586096
-0.209404
0.452376
-0.125259
2.01495
1.96797
-2.40696
-1.56806
-1.52594
2.28344
-1.42608
1.96112
-1.97097
2.20769
0.827107
-0.57882
1.64838
1.80158
-1.36061
-1.65275
0.0184933
-1.44818
-1.97471
-1.54923
1.28456
0.746461
2.03237
2.49514
2.38047
-2.9285
3.3058
-2.72145
2.07651
1.88125
2.29874
-2.41712
-1.6411
-1.01166
1.23535
1.34635
-1.68091
1.33207
-1.97444
0.779447
-1.42524
2.33063
-2.0922
2.45112
-2.5566
3.00648
2.46
-2.78438
-2.81983
3.26134
2.43631
-3.93838
-3.34896
4.3463
-3.08148
3.76559
0.058662
-0.805109
-2.94988
-2.66421
3.0923
2.96116
1.39323
-1.20989
-0.621093
0.26659
0.86874
1.51903
1.3798
0.0868601
-0.624458
-1.46924
0.580245
0.153904
-0.318141
0.136731
-0.20886
0.147654
-0.014566
-0.0784348
-0.293617
-2.22482
2.12718
-1.94918
-0.68645
0.328625
2.16069
0.824253
0.664449
-0.7045
-0.492704
-0.560515
0.726657
1.29989
-0.566406
-0.836133
-0.586741
0.419305
0.746621
-3.98532
-3.49038
1.60233
4.37174
3.96044
2.48067
-3.20318
-3.48133
-3.03076
3.63182
2.43097
-3.72365
-2.91365
4.0999
-2.97519
-3.29695
-3.51988
1.80235
3.75525
-3.67705
1.75174
-3.02282
4.04959
2.46297
-3.23093
-2.76676
-2.91842
-3.19455
1.89957
-2.83265
-1.92818
-1.29595
-1.86025
1.19563
2.17653
-1.47221
-1.26624
-1.7148
1.10081
0.9569
-0.947631
-1.22011
0.688946
1.42914
-0.981685
-1.83952
-1.65978
0.805682
-1.16156
-1.16696
-1.0353
1.37875
-0.897083
-0.947824
-1.03711
0.643172
-1.09895
-0.9112
-0.833951
-1.70966
1.02542
-0.681928
1.34531
-1.54214
-1.75857
-1.60528
2.11505
2.42289
-2.46465
-2.12767
-2.68906
2.92709
0.0669449
0.0166357
-1.88021
-1.95329
0.820676
-0.464164
0.927122
1.9838
0.835245
-1.77955
-0.640372
1.44051
0.925693
-2.06164
1.00716
1.32194
2.0688
-0.944258
-0.10424
-0.296152
0.231264
-0.309785
0.484938
-0.262598
-0.31968
0.875393
0.895011
0.75183
-0.621363
1.69342
-1.51553
0.187062
1.79639
-0.421241
-2.15095
-1.92994
2.17131
0.508923
0.690874
-0.313385
-0.630295
-0.564313
0.735684
0.0500386
-0.107783
0.157617
-0.0249042
2.48287
-3.03409
-2.93382
3.49605
3.03523
-2.75671
-2.57567
1.97395
3.22589
-3.0563
1.91735
3.53417
2.74448
2.43582
-2.28436
-2.32789
-2.70856
2.46576
-2.58846
-2.82765
-2.7207
-2.59917
1.97915
-2.26157
-2.29958
2.02575
-3.56777
-3.21455
3.84722
3.58825
-1.10268
-2.54984
-2.67056
0.359274
2.87708
-3.03815
-3.19657
3.43619
-1.05627
-2.7044
-2.31853
0.324242
2.90308
-3.27557
-2.80258
3.58623
1.29038
-2.61396
-2.88537
-2.1949
-2.39644
0.585467
2.40667
-3.37095
3.75838
-2.85077
2.57238
-2.80101
1.93038
3.15055
-3.26064
1.8499
3.64468
2.35313
2.40695
-2.5071
-2.66549
2.43947
-2.88668
-2.80245
-2.39049
1.96638
-2.81381
2.03203
-2.41936
-1.93795
-0.981971
0.790324
2.13606
2.04443
-0.45204
-2.07096
-1.6739
0.00275885
-0.707176
-1.67497
0.380526
1.31922
-1.19208
-1.38254
-0.652536
1.38446
-1.17862
1.36936
-1.22518
-0.936324
-0.662709
-1.23974
-0.958055
-0.515737
-1.39804
-0.947297
0.738919
0.974509
1.35736
-0.374718
-1.43127
-0.0493117
-0.693701
-1.68227
0.382435
0.659383
-0.602409
0.427729
-0.77699
0.548763
-0.829131
-0.643459
-0.94154
-0.646719
-0.719005
-0.404502
-0.643061
-0.555725
0.728544
-0.218283
-0.083566
0.167226
0.219017
-0.060782
-0.240035
0.217476
0.647938
-0.151195
0.116275
0.0903518
-0.485156
0.366385
-0.376449
-0.503179
-0.564017
-0.339112
-0.156356
0.118126
-2.12866
-2.40839
2.02078
2.85812
2.39202
-1.84044
-2.58376
2.37259
-2.12561
-2.54604
-1.70026
2.55391
-2.05309
2.0493
-1.68307
2.47135
-1.81193
2.04558
-1.96302
2.27617
-2.39454
-1.68668
-1.40598
2.00859
-1.619
-1.37389
2.37789
-2.47648
2.79609
-1.25703
-2.36233
2.59674
-2.90106
3.23472
1.43595
-2.19385
-2.51438
1.82259
-1.58344
1.01606
-1.68229
0.80278
-2.05401
-2.12589
2.16021
2.39957
-2.57445
2.4172
2.40262
-2.59406
2.43688
-2.70569
-2.36249
-2.15048
2.03563
1.84577
2.00474
-1.57451
2.03099
-1.91893
2.0573
2.0779
2.77744
-2.50278
-2.35597
2.92764
-1.29799
-2.36115
0.583512
2.70945
-2.80301
3.22125
-2.46056
1.43094
-2.37866
-1.54041
2.04634
-1.68341
0.945368
-1.71748
-2.03973
-2.07684
0.784971
-1.99375
-1.33188
-1.19241
1.39027
-1.86797
-0.210535
-1.94639
2.12986
-1.94412
-0.217695
-0.00339068
-1.72651
-1.58519
-1.16097
-1.18546
-0.398315
1.36594
-1.15617
-0.962699
-0.384561
-1.00914
-0.930094
-0.244758
1.37066
-0.13322
-0.358125
1.82245
-0.196016
-0.309135
-0.43644
0.0132427
-1.02373
-0.675622
-0.479891
0.708115
0.768119
-0.745614
-0.0996251
-1.00917
-0.330829
-0.242702
-0.386932
-0.572116
0.737821
-0.215627
-0.0464975
0.204717
-0.0420779
-0.159786
0.192357
-0.586436
-0.393744
-0.352922
0.308066
0.127974
-0.0746188
0.121233
-0.559637
-0.377004
0.126128
-3.07129
3.26925
-2.29591
2.97852
-3.27953
2.31123
-4.05465
-1.40199
1.79197
3.01326
0.632955
-3.03469
0.0373826
1.28171
-2.37379
-1.44876
-0.13161
-1.66361
4.99244
4.8449
2.25248
-4.11444
-4.49627
0.693376
1.9835
-4.67394
-1.18957
-3.36327
1.22323
-1.51833
-1.00868
-2.17281
-5.95243
2.0496
2.34372
-1.91918
2.83116
-2.27362
0.43746
2.76753
-2.31184
-3.04945
1.63978
2.18172
4.60608
5.03781
-1.64359
-4.25536
-4.3884
-1.94601
4.2224
4.92253
1.76842
-4.34996
4.47662
4.37633
-3.29083
-4.45333
4.36003
1.60503
5.11314
-1.74865
-4.27061
1.46084
2.46817
3.5026
-4.04495
-4.39834
3.40424
0.806096
2.94762
1.81703
4.88306
-4.24797
3.24452
-1.8999
-10.5582
2.0608
-0.786919
3.26566
-2.69575
1.24439
0.00848386
-3.43503
-1.94408
-2.41489
2.51378
0.26114
1.95195
-8.29778
-3.57892
0.964239
0.325962
-7.20194
2.66699
-1.53537
-0.272903
-3.26539
-2.48828
2.54399
-2.48869
3.9297
-3.95576
2.48188
-4.07693
4.51641
4.53952
-4.25849
-4.44467
3.23475
4.09109
-3.99554
0.0332553
-3.86584
2.73482
1.78627
2.71686
-1.83659
3.15607
-3.45602
1.43016
2.25068
1.08981
-0.368991
4.21001
-3.82859
1.79634
-4.17959
0.195219
-3.1173
-0.747213
-1.77367
1.39764
-1.21558
-1.40613
1.71996
-1.27715
3.73021
1.34759
-1.65385
-3.90152
0.405155
1.73502
-3.38981
-3.3997
2.22945
-0.514853
1.15195
-3.67529
1.11146
-0.354688
-1.39965
-0.105501
3.16165
0.113547
-1.71545
-2.30017
2.8931
1.85123
-1.88831
2.92337
-0.351381
-3.08571
3.47906
-2.16044
2.97295
-3.36733
-0.405222
-1.84251
-2.29025
2.76685
-1.87953
-2.80054
-0.978824
2.15878
-2.03549
0.912491
0.313136
2.64955
0.673134
2.50764
-3.34519
2.45281
-1.25154
-3.19973
2.65201
-2.16653
-3.51816
2.46385
1.51477
-3.23568
-2.39697
-1.30622
-1.1189
-1.01771
2.19004
-1.12728
-0.873142
-2.38341
2.05124
1.77938
-0.789328
-2.72019
0.48361
2.00353
-0.88665
-3.3816
-3.25679
2.14987
2.63001
-2.91254
1.93152
2.72119
-3.01598
0.387185
-2.1745
-2.18837
2.91641
-3.024
3.50282
2.84521
-3.26983
-2.06832
2.74944
0.376164
0.351012
3.90964
-3.60185
14.5097
-3.81643
-0.904121
4.16995
0.559095
-0.164553
1.07243
0.726721
4.50025
-3.95019
0.691994
2.68933
4.46432
-0.908812
-2.32778
-3.89857
4.05061
-0.512104
3.43212
0.106689
-2.85315
-4.57766
0.0191356
2.12186
-0.539781
-4.9068
0.630306
8.79964
-5.67463
-0.670857
1.08918
1.29744
3.05427
-5.64803
-1.63853
-3.18956
1.27292
-3.69832
-3.25931
3.70677
4.80764
-4.23608
-2.36733
-11.1849
1.92381
1.73398
-3.15478
-0.404719
0.682584
-8.61626
4.1427
7.42479
-3.32732
-4.1046
-0.0556842
9.17721
2.13237
-1.82994
7.24966
2.54987
-4.4709
-4.43995
0.554428
2.47915
-2.10797
-1.71995
1.9583
3.24342
4.53123
-2.11004
1.1682
-3.97072
-1.20528
4.68643
1.10747
-4.07975
4.48832
-3.3938
2.47969
-3.88484
2.62241
0.801284
-1.18167
-2.36277
5.05649
-1.37393
-3.36029
3.62937
5.42289
1.18997
-4.23445