/*--------------------------------*- C++ -*----------------------------------*\
  =========                 |
  \\      /  F ield         | OpenFOAM: The Open Source CFD Toolbox
   \\    /   O peration     | Website:  https://openfoam.org
    \\  /    A nd           | Version:  9
     \\/     M anipulation  |
\*---------------------------------------------------------------------------*/
FoamFile
{
    format      ascii;
    class       volScalarField;
    location    "0.0021";
    object      rho.air;
}
// * * * * * * * * * * * * * * * * * * * * * * * * * * * * * * * * * * * * * //

dimensions      [1 -3 0 0 0 0 0];

internalField   nonuniform List<scalar> 
16514
(
2.14165
2.3126
2.4387
2.43589
1.25572
1.29106
2.30193
1.43934
2.24045
2.31711
2.25575
2.46132
2.46811
2.46172
2.46601
2.37615
2.342
2.28024
2.46451
2.45684
2.46367
2.46358
2.36954
2.44758
2.38524
2.43136
2.46335
2.45604
2.41277
2.47792
2.29294
2.43065
1.29978
2.4629
1.46274
2.42947
1.3027
1.59347
2.22746
1.43269
2.43261
1.26034
2.48036
1.29537
1.57108
2.22987
2.33213
2.47951
1.22939
1.82394
1.37804
1.24921
2.49928
2.23329
2.471
2.29506
2.23188
2.29428
2.46629
2.47498
2.23001
2.29092
2.29306
2.46283
2.46688
2.47595
2.47194
2.24065
2.29396
2.30555
2.45959
2.45932
2.46831
2.46639
2.26217
2.35993
2.3277
2.46464
2.46194
2.46562
2.46219
2.44351
2.46917
2.36246
2.43112
2.36204
2.47471
2.45184
2.43114
2.35966
2.36138
2.4761
2.44775
2.47155
2.45398
2.38101
2.4
2.44216
2.46438
2.45625
2.45119
2.42403
2.36354
2.4428
2.37627
2.43788
2.46609
2.4601
2.4229
2.42859
2.46
2.39912
2.45192
2.36057
2.436
2.39929
2.48459
2.46504
2.40961
2.33672
2.42241
2.44447
2.38338
2.43319
2.50639
2.47995
2.37082
2.43045
2.36797
2.26873
2.45978
2.51146
2.48835
2.29886
2.40372
2.34609
2.19671
2.19055
1.55204
2.29137
1.40762
1.51011
2.25983
2.14562
2.21964
1.5816
2.31215
1.59833
2.32474
2.23606
1.47636
1.6034
2.32001
2.32821
2.24037
1.4717
2.22978
1.48032
1.53491
2.30365
2.27807
1.45304
2.20739
2.17054
1.42458
2.51277
2.50926
2.50878
2.24978
1.83059
2.03881
2.08692
2.18033
1.48676
2.23968
2.115
1.35114
2.03567
1.38916
2.2123
1.40563
1.45938
1.37124
1.33431
1.99029
2.08011
1.82844
1.35029
2.03429
1.2798
1.32976
1.97739
1.76732
1.87006
1.36593
2.0718
2.09273
1.30484
1.37495
1.89317
2.09803
1.30619
1.88328
1.37145
2.0843
1.3775
1.89889
1.84966
1.35865
2.05475
2.00671
1.28486
1.33976
1.79647
2.09359
1.97455
1.32893
1.3151
1.92933
1.79702
1.28496
1.26754
1.30715
1.28544
1.59045
1.79886
1.89892
1.68716
1.93727
1.29449
1.63169
1.27264
1.84504
1.31728
1.72327
1.29018
1.2628
1.6519
1.64544
1.24563
1.26198
1.48793
1.27393
1.52634
1.73183
1.60222
1.24008
1.25692
1.42382
1.21246
0.771057
0.789413
1.46758
0.894361
1.39318
1.72023
0.891647
2.06379
0.749385
1.7107
1.82
0.893798
2.07428
2.19971
0.948054
0.74896
1.71792
0.825954
0.87123
2.18201
1.88579
2.50479
2.27162
0.989168
0.753049
0.751117
0.787588
0.954416
0.951317
0.996025
0.99925
0.74978
0.785874
0.786282
0.949932
0.949795
0.994542
0.994854
0.750561
0.785595
0.788208
0.9507
0.955063
0.996298
1.00272
0.98626
0.757142
0.815291
0.797462
0.966325
1.01774
1.04269
1.20667
2.30667
2.55045
2.4011
2.55724
1.87796
1.51263
1.13469
0.835229
0.892272
0.833411
1.05425
1.05774
1.13061
0.891286
0.832121
0.832266
1.05288
1.13084
1.05361
1.12934
0.832621
0.902371
0.837693
1.1362
1.05655
1.06637
1.15041
0.793517
1.0161
0.842738
0.882124
1.05842
1.07935
1.13128
0.920101
0.873404
0.850884
1.08631
1.21584
1.11753
1.17627
0.932302
1.00712
0.936251
1.19765
1.1174
1.20276
1.29811
1.23806
1.71317
1.23327
1.29794
1.81989
1.3033
1.81285
1.7101
1.23179
1.23127
1.29598
1.8113
1.29704
1.81008
0.907082
1.04603
0.954759
1.27328
1.16323
1.22736
1.35237
1.23491
1.73665
1.24468
1.8203
1.30199
1.3157
1.84231
1.29693
1.77034
1.2647
1.34243
1.93257
1.38444
1.88
1.09976
1.12003
1.01851
1.31395
1.59464
1.45789
1.42752
1.51535
2.06905
1.93862
1.38667
2.06375
1.93247
1.50761
1.3847
2.06229
1.50914
1.93172
1.3869
1.9304
1.50568
1.34504
1.96692
1.41351
2.00084
1.44501
1.52924
2.08639
1.09648
1.01131
1.1104
1.30412
1.42267
1.44349
1.58522
1.52111
1.94132
1.39509
1.41475
2.09927
1.96435
1.54743
1.44974
2.05914
2.1413
1.6585
1.50284
2.0035
1.59218
1.63485
2.06567
1.508
1.64249
2.30054
2.18851
1.78757
1.32365
1.32628
1.20028
1.76583
1.57549
1.76126
1.97131
1.34225
1.23249
1.38398
1.85368
1.6253
1.78983
2.0323
2.1318
1.74947
1.57828
1.68034
2.35125
2.21946
1.86646
1.81091
2.15022
2.41334
2.43364
2.31637
2.00231
1.96558
1.79666
2.40969
1.95941
2.42396
1.98477
2.14044
2.50098
1.64798
1.67552
1.47727
1.98452
2.40215
2.2211
2.19153
2.30408
2.49763
2.13094
2.30038
2.56522
2.44495
2.54963
2.51379
2.36741
2.17935
2.32206
2.55958
2.47843
2.55267
0.79154
0.910231
0.929589
0.807393
1.41105
1.68932
1.4066
1.73487
0.754948
0.796648
0.758728
0.958623
0.966583
1.0042
1.01442
0.767263
0.826747
0.785567
1.00183
0.980729
1.03219
1.0577
0.898883
1.16135
1.14334
0.83814
0.845893
1.06409
1.07767
0.957461
0.88277
0.860368
1.23327
1.13292
1.19084
1.10053
1.24626
1.76099
1.26135
1.83574
1.31336
1.33273
1.86421
1.32201
1.96308
1.85551
1.80123
1.28634
1.36505
1.9069
1.53258
2.08437
1.95383
1.5648
2.11416
1.43196
1.98217
1.53136
1.61607
2.08623
2.22286
2.16068
1.47278
2.02611
0.405955
0.966705
0.455397
0.634739
0.549434
0.515441
0.534255
0.651176
0.318952
0.292993
0.380417
0.327664
0.358799
0.416907
0.447467
0.443152
0.485417
0.397082
0.441557
0.354568
0.398135
0.48718
0.418339
0.369897
0.404497
0.514513
0.461971
0.496266
0.551886
0.489493
0.652254
0.624353
0.66661
0.528076
0.558983
0.699988
0.499499
0.651989
0.58936
0.493574
0.446353
0.539182
0.597964
0.278073
0.71746
0.372293
0.392202
0.498717
0.373633
0.715595
0.281479
0.593305
0.274004
0.371272
0.391239
0.71584
0.606114
0.473524
0.592267
0.274702
0.30128
0.362953
0.298485
0.360604
0.388938
0.386982
0.303611
0.366351
0.280655
0.281901
0.305942
0.367552
0.39389
0.282158
0.304933
0.306281
0.365618
0.367107
0.393497
0.391721
0.278524
0.30771
0.299451
0.365828
0.36066
0.388614
0.397317
0.466019
0.425397
0.334338
0.375129
0.337204
0.427319
0.467832
0.375406
0.335861
0.337582
0.427037
0.466091
0.425283
0.467615
0.332585
0.370803
0.330675
0.464462
0.422867
0.421783
0.465005
0.470118
0.628359
0.59647
0.595583
0.470259
0.499294
0.627762
0.594323
0.467825
0.469278
0.498437
0.625447
0.496812
0.626596
0.376066
0.345788
0.333747
0.425747
0.487599
0.438315
0.471681
0.466034
0.592272
0.464832
0.624351
0.49496
0.494072
0.624815
0.605862
0.59581
0.466358
0.497142
0.643785
0.507647
0.630285
0.57858
0.534497
0.667861
0.535274
0.716867
0.667396
0.579237
0.534581
0.71606
0.577567
0.665477
0.533091
0.666408
0.578693
0.576746
0.664761
0.531569
0.531747
0.720571
0.666809
0.578927
0.551899
0.693108
0.755018
0.537493
0.73325
0.67555
0.588052
0.597691
0.551555
0.690993
0.742177
0.803606
0.600147
0.745343
0.576511
0.720724
0.787934
0.611991
0.833857
0.760148
0.674756
0.787371
0.713974
0.877979
0.657963
0.893319
0.812436
0.7257
0.860668
0.605803
0.588176
0.712156
1.05056
0.833994
0.799058
0.625759
0.493001
0.536232
0.444731
0.497564
0.548547
0.594272
0.650057
0.714808
0.647111
0.546149
0.670367
0.605511
0.714074
0.788332
0.557111
0.685302
0.611763
0.739942
0.661268
0.722069
0.807163
0.653672
0.806791
0.875506
0.885993
0.720206
0.784331
0.962496
0.74545
0.673863
0.753991
0.792635
0.978202
0.88585
0.875097
0.780592
1.05528
0.957701
0.859442
1.16153
0.947504
1.05351
0.892933
0.981685
1.09707
0.869821
1.19295
0.971622
1.067
1.17373
1.44547
1.28943
1.30751
1.16848
1.06432
0.952903
0.470466
0.426464
0.250298
0.373494
0.657332
0.568124
0.542309
0.457171
0.294313
0.281155
0.297833
0.344172
0.326333
0.329279
0.376736
0.240936
0.189091
0.172832
0.0733
0.141328
0.242214
0.312067
0.181603
0.133076
0.0599827
0.0922742
0.141002
0.179304
0.228154
0.312975
0.0905198
0.146968
0.15041
0.0715554
0.0804983
0.0832462
0.0929616
0.0962106
0.105706
0.120002
0.0719078
0.0883296
0.104466
0.0899759
0.103113
0.122467
0.121688
0.360754
0.2229
0.166634
0.531611
0.386582
0.375743
0.344279
0.341706
0.42015
0.342662
0.207305
0.110525
0.171611
0.327695
0.104662
0.14953
0.118634
0.16428
0.132528
0.149066
0.183458
0.079669
0.116305
0.102243
0.119211
0.105473
0.131109
0.147107
0.110304
0.158558
0.125038
0.16963
0.135157
0.152133
0.189474
0.0774086
0.114681
0.0980523
0.11563
0.105575
0.126341
0.140598
0.111297
0.143516
0.113692
0.177658
0.146843
0.146894
0.178552
0.146838
0.208277
0.204181
0.228659
0.16895
0.166211
0.22536
0.185925
0.201385
0.205783
0.227758
0.223173
0.243742
0.267684
0.171604
0.151444
0.13598
0.165387
0.225529
0.183498
0.205149
0.203437
0.200659
0.165305
0.184741
0.266263
0.222511
0.225626
0.16283
0.146027
0.129734
0.162302
0.220474
0.199235
0.180903
0.135204
0.136767
0.138921
0.169724
0.163047
0.165277
0.197952
0.155393
0.144139
0.1239
0.153507
0.208751
0.171558
0.187226
0.153875
0.203317
0.208347
0.168447
0.235554
0.17991
0.22638
0.0236245
0.00317078
0.00659699
0.00144539
0.00324435
0.0388516
0.0311503
0.0595468
0.00148149
0.00170818
0.00214504
0.00162872
0.00302478
0.0025831
0.00164106
0.0404699
0.00347347
0.0127786
0.00892276
0.0125457
0.00704842
0.0215807
0.00182318
0.00155373
0.00206716
0.00361301
0.00260272
0.00563165
0.00192697
0.00367217
0.0086079
0.00891969
0.00202028
0.00497116
0.00484083
0.00221573
0.00801313
0.00463971
0.0139769
0.0094533
0.0402435
0.0152
0.0277556
0.0411546
0.0246224
0.0247772
0.0588374
0.0158515
0.0135087
0.0374365
0.0048062
0.0113599
0.0154821
0.00659951
0.00409631
0.00958061
0.00291699
0.06895
0.0862496
0.0422672
0.0180689
0.0609636
0.0263435
0.0461925
0.0020787
0.190037
0.00159424
0.00163592
0.0055165
0.00333458
0.0181958
0.00164398
0.0019121
0.00210305
0.0317284
0.0175652
0.0472963
0.258748
0.00427264
0.0774233
0.00155226
0.00156779
0.00220406
0.0016774
0.0015903
0.00239861
0.00155376
0.00237745
0.0056131
0.0140209
0.00267926
0.015494
0.00629614
0.00628658
0.0531443
0.0836753
0.0382701
0.0597847
0.0412688
0.0197264
0.0897233
0.00614671
0.00702718
0.0230186
0.0288716
0.00238782
0.00718142
0.0095619
0.00282582
0.001628
0.00171953
0.00181058
0.00240815
0.003308
0.00165849
0.112411
0.172753
0.140891
0.133443
0.223157
0.209424
0.156973
0.00158231
0.00160309
0.00158696
0.00159355
0.00160294
0.00159723
0.00158753
0.0736692
0.0998428
0.148385
0.0940404
0.1032
0.171904
0.0429227
0.00299425
0.0167721
0.00777816
0.0078982
0.00700556
0.00701155
0.00337053
0.0017255
0.00167755
0.00312322
0.00160012
0.00265846
0.0015542
0.00181969
0.0688187
0.0443717
0.106304
0.0244996
0.0222265
0.0988976
0.0688299
0.0348441
0.00296731
0.0102599
0.0138468
0.00855545
0.0119448
0.0329082
0.00161751
0.00161574
0.00165662
0.00161347
0.00161615
0.00159634
0.00165312
0.147434
0.248912
0.185584
0.200188
0.211167
0.179357
0.132111
0.0946966
0.0795597
0.131565
0.036492
0.148663
0.039386
0.0749287
0.0019397
0.00282552
0.00444809
0.00184712
0.00383877
0.00172944
0.00212177
0.00153366
0.00155433
0.00202804
0.00165363
0.00148783
0.00166743
0.00159902
0.00164932
0.00149177
0.00155842
0.00155626
0.00147303
0.00155259
0.00154781
0.00148522
0.00158803
0.00158886
0.00158111
0.00160136
0.00159114
0.00158434
0.00159403
0.00151754
0.00146756
0.00153856
0.00153537
0.00174493
0.00154772
0.00156888
0.00160458
0.00184095
0.002024
0.00156978
0.00154759
0.00155238
0.00163687
0.00156408
0.00157449
0.00156732
0.0015741
0.00158087
0.00156587
0.00158718
0.0016254
0.00165015
0.00162289
0.00161942
0.00160153
0.00159884
0.00161738
0.00324388
0.00178226
0.00246467
0.00159355
0.00222276
0.00169486
0.00183198
0.00170752
0.001648
0.00163734
0.00159345
0.00161243
0.0015997
0.00161373
0.117803
0.229451
0.0710998
0.0872662
0.0673968
0.158601
0.0981223
0.0432465
0.0731753
0.0905534
0.109345
0.0321706
0.0452489
0.0419298
0.0791549
0.0535489
0.293283
0.214338
0.186527
0.136051
0.141744
0.295504
0.212429
0.0304716
0.0541014
0.0418308
0.0642278
0.0492583
0.0606808
0.0764127
0.0988387
0.0524717
0.0474091
0.0699279
0.0751987
0.0592415
0.0695366
0.0666274
0.086166
0.0616978
0.0974015
0.0770302
0.0728773
0.0985296
0.117724
0.0891975
0.0717476
0.0843933
0.13299
0.102862
0.111995
0.0615221
0.0592533
0.048587
0.0683041
0.0968031
0.0846765
0.0795388
0.197878
0.190212
0.171826
0.149567
0.163875
0.146825
0.186804
0.0913411
0.0940427
0.110209
0.122803
0.120692
0.131675
0.125174
0.0891206
0.103967
0.0806438
0.0802116
0.120536
0.0922594
0.106942
0.0928521
0.134391
0.144067
0.125248
0.112303
0.104687
0.121517
0.211135
0.167868
0.162643
0.158146
0.204049
0.181742
0.192067
0.177605
0.212466
0.163271
0.176559
0.232074
0.232765
0.185202
0.145136
0.112363
0.123401
0.151193
0.179221
0.148609
0.17987
0.154889
0.212881
0.157804
0.174824
0.23292
0.173211
0.233723
0.275019
0.122043
0.169981
0.20587
0.105602
0.143205
0.290685
0.218808
0.167963
0.183189
0.205529
0.215021
0.210463
0.205686
0.148261
0.215951
0.231115
0.227734
0.257763
0.242966
0.237322
0.259725
0.201926
0.128201
0.168462
0.183883
0.10423
0.133907
0.152004
0.202022
0.236401
0.226457
0.186084
0.215479
0.211237
0.182236
0.109187
0.15925
0.177432
0.179564
0.113808
0.116794
0.164495
0.289055
0.271398
0.278187
0.228846
0.234156
0.228713
0.23134
0.250873
0.223489
0.247303
0.211263
0.200676
0.187783
0.224548
0.16963
0.14578
0.0993542
0.116366
0.11189
0.144518
0.162683
0.199335
0.231324
0.258766
0.296182
0.260919
0.230553
0.203323
0.199859
0.296905
0.230584
0.260763
0.198324
0.261853
0.231856
0.00423719
0.0476437
0.0028385
0.0303761
0.012831
0.00169928
0.00251856
0.00408137
0.00169871
0.00162967
0.0015458
0.00914652
0.107885
0.205382
0.101317
0.00831959
0.0372415
0.00518315
0.0015196
0.00205348
0.00162257
0.00210374
0.00164719
0.00187858
0.00282834
0.00245546
0.00361868
0.00832744
0.00375282
0.00867812
0.0130893
0.0055785
0.00155735
0.00155859
0.00155135
0.00158007
0.00157071
0.00162021
0.00158888
0.0139207
0.0543629
0.0229265
0.0562088
0.0238529
0.0361364
0.0764626
0.0197766
0.00601282
0.00179944
0.0775512
0.0150183
0.00476862
0.0217204
0.248452
0.13233
0.0125846
0.343854
0.15448
0.0516399
0.261553
0.0044513
0.00296184
0.00192849
0.00239487
0.00620634
0.00416401
0.00342162
0.0027986
0.00235049
0.00186209
0.00234432
0.00587031
0.00324772
0.00405144
0.0222188
0.00590611
0.0138394
0.0206816
0.0129733
0.00849624
0.0329535
0.0202843
0.00550782
0.0129386
0.0201034
0.0122873
0.0313839
0.00825066
0.00186524
0.00161771
0.00165466
0.00180413
0.00184749
0.00218523
0.00165677
0.00177314
0.00157248
0.00160515
0.00177545
0.00179483
0.00210797
0.00163747
0.0575462
0.0798353
0.0381001
0.0541447
0.134395
0.102674
0.0784424
0.0533384
0.0757928
0.0357668
0.0529121
0.130192
0.0755471
0.100706
0.031644
0.0194842
0.072385
0.0190017
0.0481773
0.0124066
0.0492013
0.00327883
0.00675093
0.00878234
0.0085476
0.00461735
0.00592949
0.00474541
0.00331562
0.00859641
0.0046385
0.00893155
0.00480997
0.00678879
0.012931
0.0321779
0.0191221
0.04852
0.0198739
0.0503089
0.073219
0.0307047
0.00212243
0.00404651
0.00216673
0.00212764
0.00277366
0.00284131
0.00180346
0.00212794
0.00213007
0.00278316
0.00217093
0.0028716
0.00406719
0.0028492
0.0760168
0.14049
0.166996
0.164688
0.10419
0.130898
0.105894
0.0771067
0.165448
0.104783
0.169482
0.107837
0.141788
0.207006
0.00590413
0.00280711
0.00399155
0.00590608
0.00665833
0.00874558
0.00423621
0.103985
0.0301246
0.0720003
0.104407
0.0733316
0.0478329
0.144505
0.00998878
0.0126903
0.00666207
0.0100018
0.0315691
0.0151434
0.0198246
0.00298738
0.00652447
0.00429063
0.0061025
0.00712125
0.009271
0.00439747
0.0135892
0.0110245
0.00715618
0.0103291
0.0332357
0.0160331
0.0204427
0.0322117
0.110924
0.0762184
0.106722
0.0764254
0.149506
0.0491292
0.181513
0.204456
0.139911
0.182115
0.294822
0.227693
0.249174
0.213043
0.191371
0.146338
0.185496
0.303798
0.234585
0.253786
0.29261
0.194797
0.256926
0.193342
0.291787
0.25468
0.227966
0.201761
0.264951
0.269176
0.246025
0.241482
0.288223
0.313602
0.169223
0.248297
0.237225
0.206473
0.197539
0.236543
0.279578
0.28524
0.333176
0.285937
0.310918
0.264764
0.311572
0.359774
0.212424
0.251742
0.208016
0.241969
0.20081
0.237692
0.282423
0.200484
0.266772
0.286796
0.264163
0.240794
0.221362
0.243836
0.291236
0.250371
0.300278
0.326441
0.274598
0.317081
0.371241
0.223923
0.250784
0.199573
0.256882
0.20332
0.236132
0.288839
0.00886343
0.010152
0.0195681
0.0104285
0.0134307
0.0131116
0.00675896
0.197752
0.25263
0.296916
0.270761
0.213031
0.257793
0.234234
0.0153607
0.0502029
0.0359521
0.0512127
0.0238974
0.0233496
0.0319978
0.39585
0.348278
0.297431
0.229719
0.332656
0.281799
0.278267
0.145987
0.108866
0.248808
0.11062
0.195931
0.0742048
0.19326
0.333548
0.310921
0.285349
0.334206
0.413066
0.384229
0.361459
0.444092
0.392365
0.336324
0.363016
0.473063
0.419735
0.413603
0.32004
0.348995
0.295045
0.339622
0.424304
0.395697
0.366564
0.283704
0.296398
0.24075
0.277339
0.379902
0.331951
0.323321
0.295418
0.2935
0.248578
0.279655
0.375408
0.325598
0.327205
0.275527
0.286303
0.234941
0.275246
0.372106
0.31886
0.328023
0.374683
0.341813
0.392791
0.393473
0.446336
0.427078
0.481052
0.420129
0.36604
0.320231
0.423688
0.369023
0.416977
0.472579
0.398149
0.407155
0.349999
0.44005
0.382013
0.431304
0.491225
0.475784
0.416229
0.469474
0.387467
0.4999
0.445514
0.439193
0.472545
0.416151
0.365597
0.319482
0.424
0.373838
0.367913
0.504241
0.510333
0.449323
0.483738
0.606678
0.54623
0.540469
0.52576
0.467865
0.414987
0.468282
0.585106
0.524104
0.525851
0.47937
0.482114
0.422586
0.472663
0.597445
0.534702
0.530973
0.730823
0.652593
0.586506
0.526797
0.659614
0.59251
0.5881
2.45245
2.53482
2.52408
2.60368
2.56003
2.5507
2.56423
1.46827
1.28699
1.235
1.23352
1.24388
1.34182
1.36116
0.389098
0.630721
0.590495
0.719139
0.338303
0.551146
0.515893
0.59769
0.301054
0.364064
0.279915
0.29376
0.311455
0.366125
0.389937
0.475047
0.508193
0.523637
0.367552
0.381805
0.395061
0.41254
0.373703
0.330921
0.368921
0.463654
0.422293
0.464614
0.42271
0.572733
0.398182
0.418757
0.478792
0.552069
0.53708
0.440231
0.468628
0.468809
0.596671
0.497211
0.628538
0.630207
0.496959
0.538327
0.604349
0.479171
0.637414
0.66091
0.553967
0.505873
0.578128
0.533222
0.668448
0.580703
0.725543
0.671923
0.533822
0.738231
0.621582
0.761677
0.68116
0.703838
0.580338
0.542544
0.261029
0.439476
0.448642
0.609473
0.430136
0.512503
0.261244
0.392637
0.259628
0.331569
0.27972
0.279047
0.33729
0.333188
0.338956
0.398571
0.339808
0.343158
0.463023
0.371088
0.375186
0.469746
0.267115
0.284242
0.280134
0.347267
0.337718
0.34268
0.350814
0.492707
0.479489
0.413617
0.35628
0.348304
0.378992
0.384781
0.550701
0.427202
0.546699
0.5466
0.427812
0.43089
0.550726
0.436482
0.558527
0.57318
0.43704
0.573855
0.558825
0.448812
0.585136
0.578126
0.504655
0.551052
0.440437
0.444311
0.555756
0.527786
0.580158
0.460968
0.519836
0.594864
0.450177
0.564491
0.00163837
0.0399817
0.00155639
0.00154112
0.00155283
0.00173791
0.00572963
0.00166603
0.00561338
0.0431451
0.00529845
0.00493562
0.012331
0.0141935
0.122497
0.127206
0.00156332
0.00150367
0.001503
0.00189418
0.00157542
0.00157464
0.00187571
0.00571999
0.00203231
0.00211496
0.00413927
0.0124984
0.0106842
0.00379613
0.00156794
0.00150402
0.00149819
0.00159217
0.00211284
0.00164265
0.00191608
0.00156699
0.00157102
0.0015562
0.00155901
0.00158953
0.00156042
0.0015853
0.0505739
0.0153174
0.019128
0.0770119
0.0372687
0.0310731
0.0695489
0.00457936
0.00234207
0.00206088
0.00972428
0.00411268
0.00368673
0.0101407
0.0390734
0.014773
0.0135221
0.027887
0.0642705
0.0280802
0.0651213
0.00154629
0.00155826
0.00156114
0.00155784
0.00158061
0.00156263
0.00158099
0.00813386
0.0339726
0.023408
0.019863
0.0129175
0.0301052
0.00736284
0.00300532
0.00180071
0.00538589
0.00248313
0.00249151
0.00179764
0.00292534
0.00185376
0.00335642
0.00289753
0.00530256
0.00259195
0.00199494
0.00297778
0.00160867
0.0016134
0.00167015
0.00178834
0.00179364
0.00160718
0.00161033
0.0179009
0.00735727
0.0121794
0.0286799
0.0283665
0.00692437
0.0176321
0.102275
0.0760123
0.0554812
0.0494304
0.122734
0.0704696
0.0961511
0.00162288
0.00161491
0.00194416
0.00168769
0.00183209
0.00166947
0.00160898
0.0466526
0.0924517
0.0692464
0.121035
0.0682887
0.0467124
0.0928398
0.0042556
0.0487154
0.00184106
0.00163989
0.00154014
0.00326477
0.0147982
0.00183887
0.00667558
0.104665
0.00872395
0.00715936
0.0348596
0.0139448
0.221905
0.133452
0.00156357
0.00226188
0.00167946
0.00258168
0.00177775
0.00204496
0.00339874
0.00308434
0.00429895
0.0101616
0.00523146
0.0123791
0.0165554
0.00701406
0.0196644
0.0634587
0.0279285
0.0729027
0.0338836
0.0449069
0.0899194
0.00155756
0.00156346
0.00155524
0.00158382
0.00158689
0.0016739
0.00160247
0.00303687
0.00241995
0.00193074
0.00257345
0.00638263
0.00349887
0.00462425
0.0212836
0.00612561
0.0144071
0.023442
0.013388
0.00960274
0.0341747
0.00413901
0.00352529
0.00229515
0.00288116
0.00829769
0.00447383
0.00532505
0.00872527
0.0333151
0.0205577
0.027222
0.0176611
0.0435234
0.0111733
0.00179582
0.00158254
0.00162874
0.00185222
0.00183606
0.00219686
0.00166964
0.00164451
0.00217139
0.0017591
0.00195682
0.00204225
0.00262126
0.00173177
0.0821545
0.0555481
0.0396538
0.0601545
0.137599
0.0809116
0.11144
0.101434
0.0779208
0.0532508
0.0675578
0.156445
0.0963534
0.120806
0.0038458
0.00961738
0.00783911
0.0107797
0.00581474
0.00517039
0.00707652
0.0378307
0.0214211
0.0241468
0.081028
0.0590382
0.014968
0.0536823
0.00233837
0.00226629
0.00470877
0.00244921
0.00344309
0.00306954
0.00190835
0.0873244
0.176775
0.153284
0.186037
0.121239
0.113433
0.145934
0.050599
0.0693058
0.148239
0.106653
0.0408544
0.0702765
0.0324002
0.0126587
0.00594577
0.0134725
0.0158417
0.0224029
0.0268894
0.0255565
0.03679
0.0312453
0.0657636
0.0442517
0.0617375
0.0416241
0.0549368
0.0776165
0.0253676
0.0511289
0.0351097
0.0589671
0.0411803
0.051433
0.0701429
0.0205325
0.0402863
0.0295893
0.0435306
0.0328735
0.0437113
0.0545923
0.08052
0.0595088
0.0487841
0.0622633
0.0980953
0.0857584
0.0738385
0.084568
0.0809232
0.0607664
0.0720855
0.120739
0.0971318
0.093251
0.058473
0.0529336
0.0419131
0.0586975
0.0909424
0.0781908
0.0705044
0.0801257
0.120504
0.131923
0.116721
0.106417
0.102524
0.0928954
0.00175538
0.015331
0.00383478
0.00173193
0.00582085
0.00174194
0.00161061
0.00167075
0.00160905
0.0181621
0.167948
0.148403
0.00159422
0.00193643
0.00879882
0.0223439
0.00180998
0.00781502
0.0024662
0.00244158
0.00175204
0.0030519
0.00306251
0.00159707
0.00161458
0.00169852
0.00155483
0.00162457
0.00165713
0.00175421
0.0337423
0.0241141
0.0512185
0.00718221
0.00965243
0.02537
0.061335
0.00235869
0.0121052
0.00244813
0.00165473
0.0031872
0.00324037
0.00834263
0.00180645
0.00171678
0.00190442
0.00165282
0.00172541
0.0016873
0.00167178
0.00171415
0.00165705
0.0017463
0.00169183
0.00166948
0.00170865
0.00169198
0.159077
0.111247
0.0998427
0.0832137
0.122472
0.0705324
0.134212
0.0322874
0.0432332
0.0812094
0.0436472
0.0128961
0.0318556
0.0946664
0.00468137
0.00211659
0.00481506
0.0121792
0.0100315
0.00192857
0.00391779
0.00155947
0.0015482
0.00201735
0.00160097
0.00154045
0.0015846
0.00186042
0.00525234
0.00557089
0.019127
0.0158453
0.00177691
0.00423774
0.0044086
0.0476971
0.0775302
0.0701957
0.0345756
0.0298073
0.0414949
0.0126673
0.0020974
0.00186891
0.0024117
0.00162056
0.00166601
0.00164383
0.00163631
0.00159029
0.00161893
0.00160211
0.00161725
0.0016503
0.00163072
0.00164611
0.175917
0.102187
0.152266
0.131449
0.121524
0.0932073
0.143947
0.061139
0.0713607
0.11792
0.0527328
0.0550962
0.0172375
0.106121
0.00155234
0.00191667
0.00146399
0.00158615
0.00155295
0.00169939
0.00161061
0.00165045
0.00150736
0.00142104
0.0115962
0.00105652
0.00148276
0.00140665
0.00121492
0.00192619
0.00167027
0.00158973
0.00160736
0.00160961
0.00155615
0.00162736
0.00154908
0.00148621
0.00133435
0.00142615
0.00133159
0.00145263
0.00145218
0.0015113
0.00168178
0.0017254
0.00170396
0.00164222
0.00167861
0.00166162
0.00165694
0.00199614
0.00137936
0.00698552
0.00129933
0.0108701
0.0028265
0.00202225
0.0015725
0.0015055
0.00151936
0.00161188
0.00155073
0.00157989
0.00152775
0.00144117
0.00135513
0.00132311
0.00146338
0.00133878
0.00132155
0.00144759
0.00150496
0.00157822
0.00156728
0.0015209
0.00156311
0.00158917
0.00152609
0.00146451
0.00144399
0.001819
0.00134042
0.00145724
0.00143683
0.00164982
0.00161648
0.00157783
0.00160425
0.0016615
0.00164622
0.00161095
0.00162318
0.00160696
0.00159503
0.00163919
0.00159932
0.00158713
0.00162446
0.00161838
0.00191759
0.00139097
0.00122837
0.00116859
0.000936745
0.0012331
0.00113481
0.0071921
0.026708
0.0055627
0.00147453
0.0161528
0.00395817
0.00337175
0.00152204
0.00141175
0.00152659
0.00139661
0.00149011
0.00135865
0.00142463
0.00152873
0.0014925
0.00153993
0.00148527
0.00155967
0.00154962
0.00151367
0.00155723
0.00156406
0.00155893
0.00158332
0.00157555
0.00156968
0.00159131
0.00398566
0.00222799
0.00590027
0.00479957
0.0020143
0.00143409
0.00229512
0.185861
0.18336
0.189209
0.202765
0.134467
0.157141
0.0713497
0.113122
0.17637
0.18266
0.156106
0.162331
0.162931
0.168512
0.189718
0.0959853
0.121727
0.0837202
0.130438
0.135347
0.145296
0.111647
0.186712
0.172038
0.164604
0.174493
0.190638
0.194501
0.184572
0.196883
0.179726
0.16792
0.175094
0.20539
0.192959
0.196911
0.161329
0.0987961
0.139669
0.156356
0.171647
0.187856
0.132887
0.140594
0.159017
0.143521
0.156942
0.163493
0.177782
0.133581
0.18727
0.196728
0.211106
0.193692
0.205178
0.202381
0.193498
0.177072
0.183541
0.180938
0.170739
0.198729
0.188716
0.162993
0.0260436
0.0542693
0.0250861
0.0922666
0.0819589
0.0497941
0.00497309
0.00436317
0.0237125
0.0147411
0.048534
0.033901
0.00827972
0.0666154
0.0278478
0.00166226
0.00517879
0.000879418
0.00383568
0.00247954
0.00934069
0.0114361
0.12391
0.0281034
0.0506786
0.0168063
0.0970274
0.0460792
0.0507435
0.104948
0.0333623
0.0724991
0.120215
0.0994748
0.0514057
0.0509491
0.0163168
0.0130666
0.0070267
0.0166407
0.0363295
0.0271354
0.022168
0.0230329
0.0120566
0.0124194
0.0180971
0.0309362
0.0269663
0.0190407
0.125907
0.114311
0.125108
0.0595129
0.0441195
0.0522256
0.0463314
0.0243215
0.0433094
0.040275
0.0439766
0.0340022
0.0334743
0.0294645
0.00285947
0.0294488
0.00155095
0.00151538
0.00157056
0.00153032
0.00153828
0.00155459
0.00153153
0.0775581
0.00567186
0.00384845
0.0221202
0.00300629
0.00139041
0.00210348
0.00154408
0.00147709
0.00149795
0.0015255
0.00146943
0.00151076
0.00144607
0.00141268
0.00149229
0.00136017
0.00140116
0.00153491
0.00193731
0.00151228
0.00157551
0.0015496
0.00156785
0.0015477
0.00154291
0.00153297
0.0015373
0.00490982
0.00203774
0.0014215
0.00227282
0.00591581
0.00410229
0.0120799
0.0015062
0.00151784
0.00145494
0.00149631
0.00168295
0.001508
0.00150925
0.00177774
0.00150785
0.00188334
0.00302851
0.00241797
0.00507973
0.00177634
0.00149208
0.00150459
0.00143894
0.00148992
0.00173448
0.0015266
0.00151697
0.0019615
0.00154965
0.0021276
0.00326374
0.00266746
0.00589442
0.00182448
0.00154642
0.00154237
0.00153879
0.00152876
0.0015432
0.00153267
0.00153796
0.00749184
0.0112058
0.00386598
0.00757791
0.0366238
0.0136348
0.0223733
0.0102119
0.00489416
0.0147661
0.00835346
0.0417942
0.0160218
0.024577
0.0015425
0.00153714
0.001531
0.00152627
0.00154152
0.00152826
0.00153685
0.00150907
0.00211583
0.00205604
0.00187626
0.00163606
0.00162037
0.00169344
0.00528278
0.0133351
0.00384322
0.00364344
0.00895086
0.00840762
0.00247729
0.00152723
0.00160784
0.00154942
0.00154834
0.00154398
0.00154285
0.0015381
0.0142413
0.0575797
0.0368287
0.0547722
0.0246397
0.0231602
0.0379388
0.53947
0.555792
0.545927
0.249199
0.252172
0.284202
0.605208
0.288397
0.600096
0.481886
0.253308
0.246974
0.443213
0.287245
0.553512
0.614293
0.254008
0.255669
0.256848
0.330278
0.332105
0.336264
0.335146
0.252386
0.252342
0.254932
0.33041
0.332121
0.335596
0.334195
0.247434
0.251503
0.32893
0.254801
0.330234
0.334275
0.338927
0.267198
0.287853
0.267491
0.34888
0.372339
0.371938
0.348572
0.263271
0.285528
0.265278
0.34778
0.370451
0.370675
0.346861
0.268081
0.287239
0.265962
0.354059
0.33762
0.351485
0.373547
0.542419
0.424175
0.426688
0.432997
0.549652
0.431343
0.551813
0.264315
0.298854
0.271596
0.374668
0.349109
0.357677
0.386873
0.544342
0.427485
0.42764
0.433355
0.555136
0.553182
0.433419
0.548727
0.427818
0.431385
0.560131
0.435531
0.442963
0.571099
0.355927
0.40362
0.317223
0.322105
0.288924
0.375442
0.409677
0.448696
0.569908
0.601092
0.474711
0.474937
0.447909
0.571338
0.448579
0.574845
0.4759
0.601901
0.474607
0.572304
0.449178
0.46099
0.616
0.592727
0.570073
0.441788
0.458085
0.589488
0.582103
0.482245
0.453592
0.46462
0.630937
0.496175
0.596208
0.512611
0.648847
0.693255
0.483864
0.656584
0.519552
0.617912
0.00176707
0.00438112
0.00190505
0.00177644
0.00189401
0.0017977
0.00181348
0.00172005
0.00181314
0.00177465
0.00182012
0.00179092
0.00174554
0.00179803
0.00185635
0.00178246
0.00211207
0.00418448
0.00186298
0.00174347
0.00167052
0.00190469
0.00185617
0.00187093
0.00183927
0.00194886
0.00191409
0.00183201
0.00191303
0.00182062
0.00277185
0.0018021
0.00176151
0.00189435
0.00170526
0.00184503
0.00186199
0.00191656
0.00186578
0.00185941
0.00194716
0.00191207
0.00191644
0.00176373
0.00185261
0.00181468
0.00183233
0.00180594
0.00176627
0.00186402
0.00183723
0.00170909
0.00173977
0.00182737
0.00176096
0.00189168
0.00172465
0.00177512
0.00165279
0.00169095
0.00179807
0.00163142
0.00172189
0.00168833
0.00175724
0.00189076
0.00174662
0.00171833
0.00177136
0.00172159
0.00176875
0.00181796
0.0018251
0.00177951
0.00182223
0.00179817
0.00184192
0.00179413
0.00174381
0.00175345
0.00176874
0.001785
0.001772
0.00176449
0.00173479
0.00210086
0.00508843
0.00225825
0.00257043
0.00285543
0.00187204
0.00305026
0.0018655
0.00259835
0.00173002
0.00173868
0.00233873
0.00169819
0.00198078
0.00175233
0.00172299
0.00175643
0.00166359
0.00186605
0.00172928
0.00169252
0.00188412
0.00188836
0.00184001
0.00187995
0.00186953
0.00186751
0.00189717
0.0018828
0.00185809
0.00188384
0.00183057
0.00189114
0.00186623
0.00185917
0.00192856
0.00194674
0.00194398
0.00194734
0.00193437
0.00193467
0.00195035
0.00190899
0.0019072
0.00190757
0.00191953
0.00191492
0.00189683
0.00191438
0.00180757
0.00185239
0.00179805
0.00180095
0.00177949
0.00183386
0.00182285
0.00174756
0.00217907
0.00188042
0.00199029
0.00176146
0.00177088
0.0018562
0.00180236
0.00178237
0.00184539
0.00180353
0.00181462
0.00183212
0.00178561
0.00179034