/*--------------------------------*- C++ -*----------------------------------*\
  =========                 |
  \\      /  F ield         | OpenFOAM: The Open Source CFD Toolbox
   \\    /   O peration     | Website:  https://openfoam.org
    \\  /    A nd           | Version:  9
     \\/     M anipulation  |
\*---------------------------------------------------------------------------*/
FoamFile
{
    format      ascii;
    class       volScalarField;
    location    "0.0021";
    object      rho.c4;
}
// * * * * * * * * * * * * * * * * * * * * * * * * * * * * * * * * * * * * * //

dimensions      [1 -3 0 0 0 0 0];

internalField   nonuniform List<scalar> 
16514
(
24.5937
9.01274
11.7291
12.2259
32.195
31.4057
9.07341
28.7546
8.16116
9.22016
8.29443
14.1172
15.717
14.3496
15.9702
10.1167
9.54119
8.56236
15.603
17.5076
14.8189
16.5226
10.371
12.4607
10.547
21.0936
17.9714
18.2628
21.434
13.5071
8.64094
12.1616
31.8389
14.0229
29.099
12.1209
32.0252
28.091
7.98319
27.7784
12.16
32.4704
13.8071
31.681
27.8018
7.99131
9.25186
26.0482
42.2482
28.603
28.4118
34.1004
15.3889
8.10448
15.6315
9.02253
8.07466
9.00675
13.979
15.6113
8.02412
8.91957
8.96299
13.8076
13.8867
15.5337
15.4523
8.06247
8.93005
9.02153
13.825
13.9545
15.4739
15.6366
8.26111
9.77849
9.27813
14.9744
14.3079
16.0843
16.9501
21.0084
17.8908
10.3215
12.1671
10.3209
17.8946
21.0292
12.1508
10.2497
10.2903
17.8434
20.9536
17.7715
21.008
10.1705
10.6012
11.8497
16.0355
17.6179
18.3602
20.4485
10.2681
12.3535
10.3953
21.0064
17.8035
18.0194
21.298
11.4287
12.8497
10.7442
18.6083
23.5194
19.7536
22.0572
14.0727
13.018
10.9596
23.8267
20.2063
18.9471
22.2611
11.5258
16.3354
13.6811
23.0973
19.9087
23.376
27.3045
12.5621
17.7794
14.2823
25.8626
21.6006
24.2867
29.1547
25.0322
27.9769
23.1293
28.5319
27.7863
23.339
25.1382
25.073
28.2375
23.0728
28.3985
23.0575
25.1347
29.3318
28.3538
22.785
22.9388
25.0575
29.0654
24.8851
29.3281
27.5961
22.7505
22.8596
28.7335
24.7965
24.8557
28.5121
20.3756
21.2296
16.7896
27.9259
37.9984
33.2738
32.4302
23.9495
27.5452
23.228
25.1819
28.9175
25.9385
28.515
23.812
28.0507
27.7626
28.5544
28.9983
26.3131
25.5126
29.7712
29.9083
27.2405
31.1685
29.671
27.2393
29.649
30.0752
30.3052
27.4159
27.5865
32.1917
30.6018
30.3463
27.5768
32.2688
30.1767
30.3948
27.3848
30.6439
30.3944
29.9286
30.0531
27.2149
27.2062
31.4853
29.8408
29.84
25.0414
26.5628
29.4582
29.8524
27.2393
29.0594
31.2856
31.3151
29.741
30.3821
30.7924
28.467
27.5769
29.8971
27.5282
30.4971
30.983
31.6407
28.3866
29.9064
30.1032
30.9626
32.9957
31.0619
31.3226
35.6905
33.226
34.0046
31.7641
32.6024
29.8489
31.8657
36.3683
33.6183
34.8719
4.0441
2.00233
2.00315
5.51067
2.40659
3.79592
4.80216
2.40485
7.02528
1.8427
4.73859
5.13697
2.41448
7.04975
7.97033
2.67579
1.84785
4.74795
2.27962
2.48267
7.8367
5.48761
14.9216
8.85636
2.88697
1.85335
1.84554
1.99743
2.35761
2.34773
2.53591
2.543
1.84216
1.99483
1.9945
2.34095
2.34205
2.53116
2.52997
1.86912
1.99991
2.02338
2.34432
2.36503
2.53348
2.55744
2.51278
1.91851
2.17869
2.08048
2.41821
2.62029
2.73307
3.99656
9.42845
18.831
42.8386
19.9891
8.4807
5.5991
3.08298
2.18285
2.40455
2.17922
2.77325
2.77742
3.08089
2.40336
2.17778
2.17711
2.77013
3.08034
2.76959
3.07945
2.18427
2.45214
2.21359
3.0899
2.77497
2.80599
3.13133
2.12209
2.65227
2.32057
2.51127
2.84283
2.9036
3.14325
2.53521
2.39927
2.28238
2.88322
3.40545
3.02172
3.22865
2.7429
3.07763
2.7598
3.44375
3.0989
3.47057
3.91479
3.14325
4.77733
3.12914
3.40544
5.32228
3.4163
5.30419
4.75248
3.11328
3.11812
3.39599
5.26788
3.39134
5.28235
2.5711
3.17843
2.80591
3.6876
3.2375
3.54752
4.09903
3.11634
4.79488
3.14089
5.2793
3.39599
3.42803
5.33772
3.33416
4.91446
3.20811
3.51491
5.77119
3.67958
5.48746
3.50253
3.55863
3.11218
3.97539
5.47552
4.67555
4.56187
4.33276
7.04592
6.04386
3.7877
7.04381
6.03516
4.3261
3.78094
7.03577
4.32328
6.00595
3.77861
6.01981
4.32245
3.53454
6.00354
3.82793
6.23063
3.94334
4.33495
6.92072
3.48125
3.07376
3.49371
3.91232
4.52523
4.56311
5.38882
4.34191
6.02083
3.78872
3.83556
7.15947
6.09655
4.41037
3.95165
6.67016
7.4359
4.87451
4.17039
6.29196
4.57148
4.84915
6.74885
4.24725
4.90003
9.40538
7.93275
5.70879
4.64469
4.67107
3.99956
6.59733
5.38233
6.54653
8.20902
4.67068
4.03235
4.749
6.86458
5.49542
6.63248
8.47799
7.29891
5.37119
4.52777
5.06478
10.2005
8.25617
6.11593
5.83801
8.66697
11.6703
12.1499
9.65556
7.17862
6.93341
5.71629
11.5388
6.86253
11.7494
6.96253
8.5012
14.6164
6.70161
6.78084
5.51771
8.24581
14.0778
10.7667
10.5645
10.7838
14.554
8.47536
10.6877
24.3544
13.8478
18.6583
15.1172
11.3915
8.74906
10.8823
25.4017
14.4223
19.0315
2.01484
2.45813
2.54402
2.10651
3.77427
4.95478
3.81583
4.84292
1.86775
2.04546
1.89778
2.37346
2.40727
2.55535
2.5897
1.95229
2.20189
2.03726
2.56734
2.47091
2.66168
2.77712
2.41723
3.14005
3.09399
2.19306
2.22766
2.78777
2.82609
2.68226
2.41223
2.2995
3.43316
3.05593
3.24553
2.91159
3.1643
4.92653
3.20894
5.35929
3.43471
3.48413
5.4489
3.43736
5.95841
5.34481
5.08518
3.29586
3.59081
5.63397
4.35782
7.08383
6.07708
4.43805
7.21636
3.87677
6.17866
4.25613
4.6193
6.8367
8.12258
7.52923
4.01214
6.40883
1.34947
3.25271
1.61528
1.97844
1.99874
1.58152
1.84141
2.13986
1.16791
1.06196
1.23434
1.1777
1.3009
1.36514
1.49848
1.6097
1.65479
1.44543
1.49039
1.29697
1.44608
1.65798
1.45888
1.31106
1.4506
1.68689
1.5167
1.66864
1.8594
1.45598
1.88176
1.74295
1.91126
1.60332
1.74926
2.07493
1.79546
2.29915
2.05396
1.79254
1.61188
1.84814
2.0633
0.860898
1.94605
1.14433
1.10865
1.33156
1.14573
1.9446
0.848381
1.48342
0.921405
1.15483
1.33223
1.95422
1.82579
1.35869
1.49059
0.883121
0.944627
1.01865
0.967329
1.04097
1.11646
1.1396
0.929651
1.00921
0.841773
0.838188
0.927764
1.00532
1.10552
0.840529
0.934107
0.929149
1.00806
1.00457
1.10453
1.10695
0.980141
1.0803
1.01082
1.14549
1.08186
1.18597
1.2605
1.34956
1.22174
1.03068
1.14403
1.02983
1.21952
1.34839
1.14421
1.03324
1.0305
1.21864
1.3491
1.22043
1.34768
1.04245
1.18215
1.06669
1.35858
1.22936
1.25456
1.38799
1.21922
1.6195
1.49102
1.48444
1.21351
1.32735
1.61466
1.48197
1.21382
1.2116
1.32557
1.61361
1.32736
1.61245
1.24019
1.19867
1.11735
1.30892
1.55
1.39614
1.45085
1.22273
1.51252
1.24503
1.62055
1.33578
1.35913
1.64394
1.63558
1.55925
1.28898
1.40874
1.78585
1.48975
1.69704
1.6077
1.45972
1.7684
1.45691
1.94417
1.76521
1.60611
1.45546
1.94304
1.60661
1.76469
1.45709
1.76347
1.60508
1.61627
1.77235
1.4656
1.49196
1.98899
1.80013
1.64818
1.64524
1.96763
2.18613
1.55041
2.06405
1.86326
1.7167
1.92125
1.73624
2.05549
2.27008
2.53472
1.92774
2.28094
1.77711
2.11558
2.36188
1.94649
2.59591
2.31065
2.17575
2.70325
2.39747
2.85765
2.15283
2.89056
2.55628
2.41641
3.04735
2.23111
2.04954
2.38917
3.99876
3.25205
2.69095
2.23024
1.79098
1.84044
1.60967
1.79021
1.99425
2.0494
2.28875
2.57535
2.29076
1.99524
2.50477
2.22828
2.56952
2.9076
1.99329
2.5099
2.22903
2.57686
2.28993
2.57128
2.91605
2.13784
2.53162
2.8441
2.84917
2.39082
2.68465
3.22276
2.83713
2.50486
2.8435
2.90717
3.84019
3.32803
3.31868
2.68757
3.69948
3.22639
3.03723
4.26155
3.469
3.68326
3.05687
3.23836
3.72655
3.04177
4.2941
3.48505
3.69341
4.68279
5.96458
4.98845
5.01653
4.26163
4.01399
3.46829
1.77728
1.71137
1.16578
1.42881
2.55713
2.27074
1.98553
1.8568
1.31157
1.21235
1.32348
1.47795
1.36456
1.37092
1.53455
1.1442
1.03255
0.915485
0.504981
0.858437
1.15066
1.41367
0.981501
0.803795
0.592498
0.693625
0.734795
0.939703
0.85232
1.15768
0.625142
0.686985
0.631564
0.630929
0.648149
0.666892
0.695369
0.720315
0.726125
0.785156
0.514165
0.550839
0.543797
0.586413
0.566312
0.599754
0.627165
1.57335
1.11758
0.908423
2.16463
1.63525
1.61521
1.48145
1.27912
1.59366
1.47624
1.02263
0.699341
0.809741
1.27746
0.717927
0.871859
0.773983
0.899757
0.803142
0.87223
0.980726
0.671067
0.77067
0.738156
0.790662
0.763834
0.834981
0.875703
0.756531
0.934504
0.820625
0.930985
0.819899
0.892254
1.01663
0.561818
0.713992
0.644268
0.658453
0.604545
0.673055
0.739011
0.631675
0.781687
0.676704
0.759607
0.671662
0.703354
0.795224
0.653582
0.737183
0.758714
0.807311
0.692511
0.713882
0.828792
0.989474
1.01663
1.03268
1.12567
1.10926
1.1526
1.25434
0.991472
0.903772
0.869835
0.950308
1.1411
0.999401
1.08387
1.02932
1.01563
0.90667
0.989563
1.25391
1.1091
1.12495
0.928538
0.865781
0.822819
0.929207
1.10889
1.04662
0.981466
0.730949
0.788144
0.798304
0.900419
0.823551
0.827384
0.936785
0.850652
0.819025
0.740367
0.757862
0.951297
0.836978
0.858557
0.73792
0.793853
0.847976
0.753603
0.93491
0.817743
0.869327
0.533005
0.192045
0.303762
0.0863842
0.17087
0.96501
0.568271
0.840257
0.0884231
0.111
0.120047
0.0958329
0.163436
0.158782
0.0968353
0.683985
0.219499
0.545127
0.282469
0.490314
0.371974
0.625161
0.106156
0.0921729
0.134065
0.211896
0.144688
0.293957
0.111521
0.193695
0.395935
0.385607
0.115208
0.257074
0.261486
0.125599
0.384315
0.288068
0.497218
0.410861
0.584794
0.461306
0.574197
0.884925
0.648018
0.576268
0.738108
0.628818
0.489147
0.66979
0.244893
0.40939
0.432789
0.322064
0.216712
0.376123
0.15918
0.712118
0.72101
0.584384
0.49383
0.640584
0.518529
0.635611
0.110975
0.52689
0.082526
0.0872561
0.242542
0.180463
0.46319
0.0823837
0.102723
0.110738
0.40483
0.33914
0.632035
1.52849
0.215659
1.20413
0.0823846
0.0870559
0.113122
0.0888874
0.087555
0.11978
0.0820551
0.121112
0.217446
0.344665
0.133507
0.371216
0.236174
0.269608
0.420871
0.447978
0.411035
0.48505
0.447924
0.369528
0.50846
0.207414
0.210892
0.351348
0.422191
0.120374
0.230155
0.280785
0.148342
0.0848201
0.0901442
0.0942708
0.129763
0.173706
0.0860931
0.468079
0.522637
0.487823
0.623322
0.71328
0.823306
0.592568
0.0824317
0.0825129
0.0822041
0.0826931
0.0820669
0.08224
0.0818371
0.456834
0.651811
0.566492
0.690865
1.14867
1.02074
0.669261
0.147227
0.406423
0.327083
0.298401
0.258735
0.296623
0.164393
0.0904987
0.091207
0.150543
0.0827537
0.129984
0.0813909
0.0940404
0.653108
0.513672
0.878731
0.554773
0.428198
0.632951
0.963567
0.618849
0.147094
0.388085
0.585741
0.277635
0.43704
0.87399
0.0833021
0.0821251
0.0836677
0.0815101
0.0826677
0.0816814
0.084106
0.978521
1.06533
1.19532
1.78041
1.34669
0.829106
1.37388
1.1147
1.36241
1.6891
0.950336
1.50421
0.979876
1.30828
0.100177
0.153146
0.230943
0.0942394
0.201053
0.0891743
0.108599
0.0836957
0.0784743
0.102453
0.0804739
0.0816934
0.0854354
0.0817614
0.0811239
0.0824316
0.0820568
0.0813876
0.0810874
0.0814224
0.0805292
0.0813658
0.0806142
0.0817538
0.0807687
0.081476
0.0814674
0.080466
0.0804752
0.0785192
0.0804486
0.0800215
0.0793185
0.0938489
0.0797227
0.0857168
0.0825528
0.0991282
0.107483
0.0857452
0.0803869
0.0800125
0.0892004
0.0783728
0.0794054
0.0795306
0.0794295
0.0784859
0.078481
0.079465
0.0808179
0.0819336
0.0812938
0.0816509
0.0813331
0.0804848
0.0807269
0.167454
0.0909245
0.127955
0.0819903
0.116857
0.0870939
0.0982349
0.0839877
0.0804441
0.0808746
0.0795486
0.0791997
0.0795374
0.0797646
0.789058
1.37189
0.703402
0.903314
1.10855
0.946806
0.796458
0.560412
0.626177
1.02189
1.11982
0.746502
0.785273
0.699104
1.11388
0.725969
0.974489
0.733621
1.09596
0.903511
0.708128
0.979091
0.722379
0.561085
0.589914
0.593182
0.624482
0.617704
0.655337
0.67259
1.03911
0.525167
0.674536
0.606268
0.910475
0.673789
0.604272
0.939983
0.814588
0.729432
0.917559
0.927936
0.765702
0.864707
0.811723
0.710917
0.694576
0.750106
0.882401
0.773487
0.85968
0.619122
0.565612
0.589717
0.674343
0.720858
0.710946
0.658515
1.3577
1.21938
1.12373
0.792504
1.11399
0.717668
1.04655
0.62651
0.570599
0.54777
0.605222
0.767562
0.611774
0.589888
0.669716
0.871488
0.80564
0.754142
0.82547
0.708341
0.863781
0.775522
0.877293
0.928729
0.827749
0.815485
0.764131
0.885281
1.40945
0.882566
1.00019
0.707211
0.912071
0.754458
0.966511
0.752811
0.707688
0.646107
0.686205
0.795954
0.781102
0.755483
0.71309
0.613205
0.676873
0.658805
0.742922
0.656213
0.736621
0.615733
0.709758
0.617273
0.671584
0.795728
0.67928
0.785936
1.83572
0.783537
1.06742
1.23093
1.21064
1.39228
1.74174
0.57133
0.912112
1.04194
0.712044
0.801184
1.30103
1.35189
1.45723
0.601661
0.638976
0.68045
0.827231
1.00638
1.09018
0.92766
0.924361
1.0085
1.09293
1.33108
0.900981
1.3167
1.21575
0.966581
1.04447
0.765289
0.997341
0.805011
1.16727
1.27941
1.47232
1.77122
1.72044
1.74538
1.15112
1.42928
1.71462
1.81302
1.3427
1.25268
1.97117
1.57744
1.61589
1.99192
1.73608
1.52762
1.42474
1.60789
1.45575
1.4737
1.87707
1.59732
0.946755
0.733441
0.979957
1.15671
1.13467
1.44611
0.749546
0.860097
0.876333
0.974027
0.871417
0.834413
0.792497
0.74671
0.975288
0.842056
0.880948
0.75422
0.874413
0.836727
0.192699
0.535152
0.133357
0.475854
0.370302
0.0823976
0.12569
0.205459
0.0915089
0.0794917
0.0776305
0.351813
0.758083
1.01068
0.711779
0.33079
0.563204
0.27907
0.0783436
0.108998
0.0835761
0.111342
0.0847884
0.0956371
0.148665
0.137862
0.196726
0.351814
0.202577
0.359131
0.400157
0.272412
0.0775095
0.0772326
0.0776215
0.0780381
0.078403
0.0805461
0.0781823
0.448234
0.594056
0.488083
0.606698
0.496629
0.53345
0.651652
0.417149
0.269289
0.0865835
0.634383
0.475778
0.211818
0.434858
1.14096
0.798384
0.375537
1.4521
0.833908
0.558184
1.18426
0.221391
0.154769
0.0979685
0.119961
0.278253
0.20984
0.167671
0.14711
0.117631
0.0948095
0.117534
0.265966
0.15961
0.204867
0.463245
0.282975
0.410463
0.445627
0.386834
0.337032
0.502947
0.43756
0.269545
0.397029
0.437721
0.373137
0.484866
0.330659
0.0915239
0.0792251
0.0818901
0.0890439
0.0890717
0.106743
0.0808161
0.0876708
0.0774977
0.0798911
0.0878486
0.0866956
0.103206
0.0799842
0.612262
0.674564
0.550527
0.58635
0.817178
0.724655
0.657854
0.575548
0.645545
0.528624
0.575146
0.789917
0.634454
0.710681
0.489368
0.426775
0.614637
0.419336
0.542662
0.376727
0.552404
0.161302
0.27962
0.327809
0.32117
0.215854
0.268896
0.221305
0.162063
0.320733
0.215839
0.326563
0.221339
0.278336
0.368452
0.489196
0.418569
0.542618
0.42474
0.552619
0.614923
0.474545
0.103989
0.188484
0.103519
0.101685
0.133626
0.136761
0.087255
0.103842
0.10144
0.133712
0.1027
0.137064
0.188141
0.13292
0.63996
0.80672
0.901466
0.888809
0.709895
0.795814
0.721631
0.641242
0.890172
0.710544
0.906149
0.724153
0.808418
1.01365
0.254844
0.131645
0.18573
0.253996
0.282592
0.328821
0.192001
0.695696
0.471537
0.610043
0.695923
0.610246
0.534604
0.800958
0.3398
0.366358
0.275868
0.338633
0.474902
0.397717
0.416025
0.138218
0.272477
0.196315
0.259635
0.296532
0.340168
0.197782
0.376822
0.356775
0.287487
0.344063
0.48734
0.40863
0.421651
0.485639
0.72696
0.630519
0.706134
0.626553
0.822459
0.542027
0.913477
1.00542
0.801942
0.914328
1.28814
1.0433
1.14211
1.03651
0.951099
0.827857
0.926829
1.31417
1.06753
1.15713
0.98769
0.764517
0.890143
0.788698
1.01361
0.913197
0.880162
1.0556
1.25424
1.26999
1.20064
1.18399
1.33659
1.41407
0.895934
1.15894
1.06726
1.02107
0.936513
1.0647
1.20792
1.29039
1.45075
1.29099
1.40001
1.24588
1.39995
1.56376
1.04914
1.1773
1.0306
1.07175
0.941576
1.06662
1.21153
1.05633
1.26897
1.33685
1.25403
1.18419
1.11717
1.20091
1.30721
1.17568
1.33608
1.44536
1.27793
1.41651
1.59435
0.923443
1.02126
0.903706
1.0264
0.906756
1.01778
1.14133
0.330729
0.381666
0.482272
0.388045
0.410992
0.405843
0.285119
0.837408
1.02696
1.06887
1.03876
0.914898
0.961102
0.936924
0.399653
0.545258
0.526276
0.551964
0.463333
0.457979
0.477391
1.63529
1.46296
1.29526
1.04982
1.38125
1.21027
1.19914
0.806576
0.707834
1.09859
0.716902
0.94561
0.614104
0.934542
1.48907
1.40624
1.32825
1.48876
1.74975
1.65854
1.57337
1.83983
1.64948
1.45895
1.57183
1.95876
1.76372
1.74896
1.43605
1.53364
1.36014
1.50506
1.77862
1.68866
1.58857
1.14752
1.14579
1.02006
1.14713
1.42639
1.27687
1.29046
1.31981
1.31054
1.16283
1.20739
1.53154
1.36263
1.36478
1.15013
1.14046
1.01825
1.14766
1.42772
1.29352
1.27616
1.53047
1.47148
1.64577
1.64631
1.83165
1.71242
1.90828
1.59412
1.45273
1.29594
1.5941
1.45479
1.62612
1.77757
1.65884
1.68069
1.49518
1.73209
1.54364
1.71983
1.92447
1.95966
1.75744
1.94487
1.66642
2.05976
1.86198
1.84689
1.77795
1.62373
1.45098
1.2915
1.59314
1.42698
1.44961
2.03793
2.05109
1.83852
1.91279
2.38124
2.13788
2.12859
1.98425
1.81395
1.62425
1.81461
2.22095
2.02619
1.98349
1.77716
1.82159
1.62859
1.81774
2.22605
2.03432
1.98475
2.84221
2.50105
2.26968
2.02849
2.50629
2.27555
2.22192
13.9339
32.2256
32.9388
24.8523
18.7276
18.3158
24.5159
34.359
41.1061
38.8398
39.1204
35.9868
37.7609
37.3844
1.11583
1.69054
1.71211
1.95658
1.10408
1.95738
1.88019
1.53128
0.943435
1.01883
0.86513
0.964205
1.02713
1.05453
1.14539
1.77731
1.63651
1.68573
1.30834
1.33888
1.20197
1.2736
1.19923
1.03778
1.14904
1.35672
1.22815
1.3834
1.25401
1.98256
1.36325
1.39627
1.47071
1.74863
1.71696
1.36053
1.25501
1.2309
1.50448
1.34163
1.63088
1.65844
1.36563
1.54963
1.58091
1.31968
1.71175
1.81749
1.62677
1.42613
1.61749
1.46905
1.77861
1.64867
1.99341
1.80965
1.49532
2.06524
1.85697
2.18335
1.87054
1.979
1.72484
1.55523
0.74774
1.66714
1.13822
1.58704
1.00446
1.33902
0.665271
1.36006
0.702432
0.768879
0.761931
0.810112
0.813453
0.813844
0.861244
1.45398
1.05335
1.13262
1.31674
0.955817
1.01926
1.40514
0.801015
0.910707
0.860631
0.937383
0.869851
0.915914
0.978985
1.57063
1.49144
1.55735
1.26475
1.20526
1.08037
1.13958
1.25494
0.957696
1.20843
1.23043
0.982035
1.03054
1.28013
1.0638
1.31747
1.39957
1.08973
1.42632
1.34385
1.16319
1.42835
1.36663
1.26404
1.27029
1.04502
1.09835
1.32248
1.48051
1.47334
1.23141
1.41155
1.50081
1.15909
1.38832
0.0874891
0.672355
0.0825218
0.0766539
0.0772197
0.0821402
0.267614
0.0790566
0.255091
0.815677
0.276551
0.248061
0.434066
0.477019
0.937935
0.980779
0.0827773
0.0763639
0.0762665
0.0970951
0.0793752
0.0792475
0.09693
0.267752
0.109438
0.112032
0.198004
0.452618
0.429441
0.188085
0.0835808
0.0764897
0.0761866
0.0804901
0.109774
0.0832703
0.0998063
0.0773994
0.0775268
0.0773321
0.0765815
0.0776181
0.076648
0.0774204
0.838504
0.539428
0.573335
0.902757
0.710889
0.685868
0.89204
0.240289
0.129449
0.113124
0.409164
0.210899
0.186114
0.404908
0.749036
0.494815
0.509461
0.643508
0.757875
0.594094
0.837204
0.0769554
0.0768888
0.0771373
0.0765352
0.0770182
0.0767298
0.0771601
0.340436
0.637061
0.599896
0.569489
0.462539
0.617453
0.32727
0.147043
0.0893547
0.251123
0.119225
0.120124
0.0890452
0.144813
0.0921818
0.167959
0.139273
0.250272
0.124704
0.0991
0.147506
0.0778403
0.0776332
0.0793047
0.0856514
0.0859619
0.0777016
0.077507
0.533583
0.327922
0.446634
0.569907
0.595998
0.316799
0.495507
0.944738
0.820013
0.760081
0.754874
0.979956
0.816654
0.939456
0.0789307
0.0775784
0.0932313
0.0801177
0.0877274
0.0812841
0.0774291
0.732215
0.850661
0.765002
0.96613
0.799085
0.685488
0.906168
0.211789
0.642763
0.0976847
0.0796391
0.0764303
0.149376
0.393273
0.0863806
0.295291
0.728435
0.337895
0.333506
0.506839
0.431019
1.07302
0.92041
0.0797783
0.118069
0.0857332
0.132203
0.0896994
0.102312
0.173062
0.165923
0.222988
0.380973
0.257952
0.416739
0.435025
0.30994
0.503041
0.646822
0.523471
0.72411
0.579965
0.590182
0.728768
0.0767093
0.0767701
0.0771203
0.0770557
0.0779638
0.0822684
0.0777288
0.157431
0.120478
0.0975321
0.127139
0.279337
0.169373
0.225381
0.44573
0.28623
0.410763
0.465343
0.385349
0.354399
0.503635
0.204334
0.168405
0.112974
0.140535
0.329135
0.208851
0.250128
0.353609
0.562279
0.485211
0.500354
0.442762
0.57778
0.382334
0.0884358
0.0773663
0.0805887
0.0906063
0.087593
0.106508
0.0803918
0.0789539
0.103691
0.0854009
0.0947586
0.0954306
0.123792
0.0824763
0.678914
0.588192
0.553197
0.615991
0.823209
0.661613
0.764041
0.82089
0.74756
0.660295
0.667715
0.934921
0.759122
0.825717
0.183497
0.339494
0.304697
0.360731
0.254721
0.23348
0.298003
0.531527
0.439913
0.468291
0.657652
0.609242
0.406838
0.573802
0.112285
0.106224
0.211861
0.11354
0.160322
0.145044
0.0901616
0.697302
0.938479
0.860289
0.983964
0.793602
0.75188
0.865079
0.610623
0.667421
0.875218
0.727407
0.538955
0.61014
0.41875
0.39399
0.357458
0.44816
0.473611
0.45923
0.509533
0.490397
0.521387
0.543465
0.62749
0.560479
0.645645
0.562691
0.587566
0.669903
0.498584
0.559493
0.507665
0.585812
0.54119
0.561757
0.619267
0.411797
0.471556
0.473326
0.48859
0.499055
0.541068
0.545252
0.662053
0.570152
0.579069
0.617026
0.721249
0.706125
0.62778
0.66999
0.64931
0.596301
0.631913
0.783924
0.718371
0.695024
0.591902
0.536534
0.527412
0.591763
0.683853
0.657203
0.610543
0.66863
0.789733
0.832702
0.770171
0.759523
0.736718
0.693203
0.0937686
0.317217
0.184217
0.0944653
0.23287
0.0938603
0.0841168
0.0905373
0.0863296
0.326483
0.415459
0.357102
0.0920123
0.106052
0.21994
0.32141
0.0978758
0.267106
0.129836
0.125992
0.0956431
0.145341
0.153925
0.0882196
0.087569
0.0938027
0.0865667
0.0876656
0.0902775
0.0965653
0.346656
0.346507
0.355407
0.229957
0.265817
0.326435
0.369154
0.121024
0.264532
0.123295
0.0958675
0.143485
0.141672
0.227712
0.0984966
0.0926088
0.102646
0.0890548
0.0937913
0.0918283
0.0898443
0.0924235
0.088909
0.094582
0.0901248
0.0890679
0.0926074
0.0905948
0.383661
0.372479
0.355419
0.363769
0.340247
0.350604
0.35842
0.300299
0.34098
0.329513
0.31539
0.257149
0.321376
0.340574
0.21435
0.110442
0.19644
0.320874
0.29592
0.102636
0.171813
0.0832782
0.0864564
0.106551
0.0864168
0.0862138
0.0851363
0.100827
0.190163
0.185365
0.317212
0.293985
0.101017
0.168736
0.165338
0.388235
0.411804
0.387498
0.386467
0.365673
0.366321
0.294199
0.111392
0.0994283
0.126979
0.0850714
0.0879391
0.0875723
0.0868369
0.0835196
0.0841154
0.0836673
0.0858241
0.0867849
0.086029
0.0870024
0.456475
0.411619
0.423996
0.434394
0.396987
0.381145
0.384845
0.389707
0.393804
0.404452
0.359824
0.336517
0.285138
0.360066
0.0786916
0.126232
0.0803082
0.0809706
0.0814808
0.0895574
0.0830647
0.0881178
0.0831645
0.084524
0.461642
0.112091
0.0867867
0.0843663
0.0947339
0.133766
0.0899088
0.0874494
0.0884469
0.0857069
0.0863365
0.087217
0.0857425
0.086498
0.0875544
0.0924617
0.0887952
0.0865068
0.0862311
0.096758
0.088807
0.0920578
0.0910301
0.0859945
0.088572
0.0879183
0.0864511
0.116823
0.10899
0.197277
0.0993259
0.230326
0.13585
0.125397
0.082903
0.0826671
0.0835371
0.0855084
0.0855046
0.0836163
0.0843351
0.0851971
0.0903425
0.0877105
0.0862705
0.0882743
0.0882051
0.0859575
0.0835331
0.0836372
0.083072
0.0846674
0.0822416
0.0848099
0.0843977
0.0878808
0.0956474
0.107119
0.0902842
0.0874607
0.0857742
0.101709
0.0830896
0.0810395
0.0828902
0.0864451
0.0859413
0.0835548
0.0837548
0.083438
0.0815989
0.085457
0.0829628
0.0816938
0.0850817
0.0835803
0.178104
0.108603
0.0967978
0.0918665
0.0979538
0.097771
0.117184
0.317131
0.365227
0.186951
0.108034
0.266498
0.157149
0.168246
0.0904563
0.0848167
0.101602
0.0838575
0.0993157
0.0910381
0.0849972
0.0794572
0.081938
0.0803167
0.0814603
0.0820235
0.0809504
0.0833113
0.0784259
0.0792358
0.0794934
0.0815049
0.0799645
0.0801687
0.0814149
0.264249
0.166305
0.368049
0.335548
0.154934
0.112317
0.195567
0.417398
0.343243
0.416528
0.76519
0.470044
0.904819
0.285952
0.244903
0.353154
0.380506
0.328864
0.350825
0.308994
0.338761
0.378614
0.249901
0.307229
0.295606
0.321714
0.27513
0.303842
0.272769
0.356997
0.36727
0.311512
0.356781
0.489381
0.406879
0.45268
0.466826
0.43557
0.38024
0.380739
0.492384
0.458533
0.426069
0.426103
0.325538
0.348233
0.347466
0.546215
0.471636
0.330896
0.348441
0.338792
0.278111
0.318805
0.482045
0.44781
0.292554
0.426696
0.601394
0.573737
0.770146
0.557539
0.47629
0.592202
0.397685
0.816543
0.70304
0.687093
0.587398
0.610949
0.424484
0.506656
0.542059
0.354961
0.798204
0.595934
0.429835
0.274576
0.150649
0.24329
0.182474
0.224285
0.259142
0.193797
0.253366
0.283173
0.181234
0.337386
0.107458
0.17953
0.2022
0.344928
0.382854
0.754102
0.647138
0.321272
0.355684
0.381847
0.542105
0.753693
0.402699
0.26035
0.226492
0.584681
0.326812
0.437602
0.516843
0.508354
0.445184
0.382978
0.475704
0.527182
0.548384
0.464105
0.324899
0.310658
0.279016
0.390432
0.409612
0.372063
0.398773
0.881535
0.743648
0.543863
0.652853
0.511232
0.726255
0.542254
0.475488
0.54463
0.469942
0.487045
0.525679
0.424005
0.475848
0.149622
0.577247
0.0839203
0.0826912
0.0772392
0.0766145
0.077595
0.0785066
0.0796193
0.654022
0.273738
0.220675
0.520926
0.183764
0.083229
0.191111
0.0806219
0.0807496
0.0818197
0.0789342
0.0798529
0.0781165
0.0789197
0.0835793
0.0989283
0.0899724
0.0832456
0.100512
0.126475
0.0894326
0.0800671
0.0787788
0.0801591
0.0778275
0.0780765
0.0773333
0.0770357
0.339163
0.155727
0.110652
0.167733
0.36973
0.267876
0.467081
0.0779186
0.0787307
0.0797007
0.0772478
0.0905685
0.077735
0.0822276
0.103643
0.089494
0.124061
0.184516
0.135891
0.2751
0.103363
0.0764633
0.0774701
0.0781012
0.0766707
0.0927894
0.0783113
0.0823691
0.112081
0.0906456
0.13566
0.195531
0.146741
0.299584
0.105595
0.0774283
0.0775063
0.0778462
0.0770457
0.0768716
0.0770132
0.0768797
0.373955
0.456546
0.258429
0.375212
0.558956
0.444741
0.522217
0.422409
0.29646
0.499031
0.38951
0.589675
0.465891
0.538269
0.0766362
0.0767085
0.0769368
0.0767457
0.0764256
0.0763731
0.076632
0.0776472
0.11146
0.108942
0.0953001
0.0839748
0.0833187
0.0908811
0.281296
0.400176
0.205183
0.197408
0.360978
0.352399
0.138293
0.076623
0.0798813
0.076615
0.0767772
0.0770161
0.0771576
0.0765189
0.449666
0.610134
0.53457
0.594893
0.498447
0.488559
0.56567
1.26167
1.41269
1.3129
0.758518
0.714073
0.956353
1.59711
0.90901
1.54006
1.44331
0.892681
0.790136
1.49259
1.00473
1.73764
1.66033
0.7233
0.766875
0.775603
0.851227
0.858172
0.916246
0.909601
0.737348
0.812945
0.789867
0.895576
0.873269
0.93057
0.954214
0.834217
0.848886
0.928568
0.900063
0.976075
0.992528
1.04937
0.831118
0.915897
0.839194
0.98836
1.07067
1.07633
0.982138
0.878161
0.928985
0.853113
1.00215
1.11898
1.08977
1.02832
0.967698
1.0563
0.968476
1.12727
1.04165
1.12645
1.22514
1.26988
1.02889
1.03581
1.09991
1.33374
1.09345
1.34102
0.91971
1.07713
0.980368
1.17178
1.07375
1.14089
1.25031
1.2862
1.07497
1.05092
1.11417
1.38442
1.35621
1.13945
1.35316
1.11089
1.1635
1.43197
1.1816
1.24544
1.504
1.29974
1.3473
1.16772
1.17573
1.0621
1.23119
1.35701
1.1818
1.42719
1.54723
1.27577
1.2817
1.17575
1.43418
1.19585
1.47993
1.32744
1.56284
1.29601
1.44918
1.22384
1.33498
1.72613
1.60626
1.49654
1.23762
1.33246
1.60177
1.53543
1.38506
1.27384
1.34886
1.75609
1.47139
1.61924
1.57706
1.87412
2.05573
1.4491
1.88626
1.58808
1.73095
0.097203
0.19549
0.105495
0.0989384
0.103612
0.097663
0.0987822
0.0936484
0.100023
0.0975667
0.100606
0.0981967
0.0957341
0.099392
0.10241
0.0984236
0.114154
0.193664
0.101588
0.0957347
0.0928766
0.10487
0.102715
0.103625
0.10164
0.108113
0.106204
0.10148
0.106001
0.10078
0.147769
0.0996541
0.0978128
0.105079
0.0948928
0.102166
0.101811
0.104864
0.10154
0.102687
0.107854
0.105931
0.105737
0.0958443
0.101131
0.0990433
0.100647
0.0986567
0.0965058
0.102444
0.0999284
0.0934093
0.0948193
0.10093
0.0976377
0.10479
0.095744
0.0968767
0.090795
0.0925175
0.0990196
0.0903902
0.094207
0.0935841
0.0976716
0.105511
0.0968123
0.0955837
0.0982797
0.0959955
0.0982487
0.0996666
0.0994255
0.0969009
0.099798
0.0979065
0.100971
0.0983043
0.0962029
0.0965559
0.0977405
0.0987147
0.0977788
0.0976685
0.095596
0.111779
0.218187
0.122204
0.138549
0.144903
0.10336
0.160233
0.101322
0.134383
0.095034
0.0960566
0.119647
0.093577
0.10764
0.0967253
0.0953614
0.0977272
0.0923857
0.102601
0.095911
0.0934745
0.104512
0.104711
0.101936
0.104002
0.103558
0.103605
0.105168
0.10443
0.102702
0.104412
0.101311
0.104771
0.103539
0.102865
0.107109
0.108011
0.107875
0.108031
0.107314
0.107346
0.108318
0.106007
0.105844
0.105848
0.106519
0.106262
0.105305
0.106252
0.100368
0.102732
0.0995908
0.099836
0.0987178
0.101781
0.101116
0.0972172
0.121303
0.104497
0.109723
0.097903
0.0988573
0.103111
0.100061
0.0986408
0.102296
0.099898
0.100602
0.101673
0.099007
0.0994439
0.0971521
0.100323
0.0975665
0.0999768
0.100076
0.096448
0.101828
0.10444
0.10442
0.102874
0.102335
0.103743
0.102374
0.0979793
0.0975992
0.0951478
0.0965447
0.0965385
0.0990724
0.0952304
0.0992683
0.099036
0.10153
0.102155
0.0985517
0.100417
0.10099
0.104041
0.101335
0.102609
0.103753
0.102784
0.104161
0.103263
0.104484
0.102003
0.104609
0.103908
0.105042
0.103595
0.103681
0.106385
0.107219
0.107622
0.107681
0.106738
0.107132
0.107554
0.105482
0.105185
0.105612
0.106265
0.105669
0.10605
0.10481
0.100229
0.099908
0.0986304
0.101984
0.0984944
0.100345
0.101759
0.0974565
0.0949233
0.0940879
0.0945771
0.0958962
0.0963158
0.0954205
0.0981976
0.0968546
0.0946758
0.0962707
0.0966536
0.0983591
0.0960675
0.100607
0.100635
0.102686
0.0997088
0.101068
0.102139
0.0992613
0.0994118
0.0972079
0.10008
0.0975814
0.0995614
0.0999082
0.0971234
0.101536
0.103813
0.104199
0.102611
0.101822
0.102169
0.103401
0.0986244
0.0955738
0.0979604
0.0970386
0.0991218
0.0974934
0.0965624
0.0938851
0.0942504
0.0914582
0.0934943
0.0935015
0.0952334
0.092079
0.0960741
0.0990652
0.0974598
0.0982242
0.0961968
0.0978188
0.0977457
0.0919153
0.0889713
0.0908243
0.0899914
0.0917727
0.0903018
0.0899284
0.0939814
0.0940219
0.0959956
0.0915066
0.0937308
0.0958622
0.0920789
0.565572
0.540319
0.433624
0.418836
0.656539
0.617567
0.827039
0.718459
0.418848
0.449675
0.450341
0.483702
0.483909
0.515238
0.514537
0.421777
0.472821
0.455467
0.499901
0.488202
0.520567
0.535148
0.63408
0.611999
0.76918
0.534779
0.378561
0.324161
0.227759
0.172564
0.157412
0.112123
0.111687
0.301252
0.294372
0.378854
0.356926
0.313839
0.220957
0.132536
0.417548
0.337836
0.414234
0.451314
0.33256
0.230686
0.212469
0.363533
0.392291
0.398974
0.340327
0.78866
0.577214
0.573828
0.606883
0.797412
0.770933
0.607939
0.34943
0.273522
0.340173
0.407904
0.444875
0.415023
0.45666
0.698485
0.541472
0.554928
0.580884
0.654163
0.704501
0.562153
0.515146
0.547968
0.652985
0.45179
0.650358
0.462456
0.503017
0.532015
0.645246
0.573211
0.521791
0.644214
0.484946
0.551027
0.486176
0.547486
0.489938
0.554444
0.600898
0.603206
0.553211
0.545237
0.623335
0.547394
0.585545
0.663658
0.668924
0.58324
0.501019
0.600452
0.528035
0.561074
0.637888
0.612931
0.579861
0.573791
0.635859
0.556506
0.595556
0.705235
0.682564
0.614404
0.401796
0.368815
0.375614
0.468564
0.258044
0.513575
0.614422
0.573833
0.218242
0.247379
0.299772
0.292528
0.327506
0.360143
0.33986
0.499343
0.316709
0.385054
0.431937
0.38045
0.390103
0.420472
0.376408
0.30501
0.285467
0.413364
0.449514
0.452756
0.403629
0.387389
0.366144
0.334088
0.427221
0.470688
0.459514