/*--------------------------------*- C++ -*----------------------------------*\
  =========                 |
  \\      /  F ield         | OpenFOAM: The Open Source CFD Toolbox
   \\    /   O peration     | Website:  https://openfoam.org
    \\  /    A nd           | Version:  9
     \\/     M anipulation  |
\*---------------------------------------------------------------------------*/
FoamFile
{
    format      ascii;
    class       volScalarField;
    location    "0.0021";
    object      rhoE;
}
// * * * * * * * * * * * * * * * * * * * * * * * * * * * * * * * * * * * * * //

dimensions      [1 -1 -2 0 0 0 0];

internalField   nonuniform List<scalar> 
16514
(
674304
1.11292e+06
1.11305e+06
1.12094e+06
262886
274672
1.11806e+06
328445
1.10818e+06
1.1175e+06
1.10933e+06
1.07046e+06
1.04025e+06
1.0586e+06
1.02628e+06
1.11705e+06
1.11725e+06
1.11118e+06
1.02247e+06
980598
1.04298e+06
1.00701e+06
1.12374e+06
1.11469e+06
1.12162e+06
932310
997343
979345
907190
1.09732e+06
1.10928e+06
1.12467e+06
277657
1.07831e+06
337447
1.12596e+06
278660
389687
1.1056e+06
325769
1.12313e+06
264396
1.09926e+06
276147
380380
1.10549e+06
1.11145e+06
954136
254562
494439
305330
260785
1.08198e+06
1.10733e+06
1.04921e+06
1.11839e+06
1.10717e+06
1.11888e+06
1.08291e+06
1.05417e+06
1.10646e+06
1.11771e+06
1.1186e+06
1.08067e+06
1.0838e+06
1.05532e+06
1.05213e+06
1.10557e+06
1.11705e+06
1.1161e+06
1.07429e+06
1.06393e+06
1.0451e+06
1.03317e+06
1.10708e+06
1.11605e+06
1.11585e+06
1.03222e+06
1.05019e+06
1.01653e+06
993643
948003
1.00873e+06
1.12518e+06
1.12681e+06
1.12636e+06
1.01485e+06
956110
1.12732e+06
1.12544e+06
1.12643e+06
1.01628e+06
952952
1.01254e+06
957997
1.11324e+06
1.1155e+06
1.11059e+06
1.00819e+06
974475
961727
915880
1.12412e+06
1.11801e+06
1.1221e+06
940805
1.0037e+06
988478
919711
1.11616e+06
1.11058e+06
1.11997e+06
966391
845088
935114
888465
1.09197e+06
1.10552e+06
1.11874e+06
822542
917314
953603
871274
1.11066e+06
1.07182e+06
1.09729e+06
853097
925274
850277
760762
1.10796e+06
1.05567e+06
1.09294e+06
786740
890465
828981
708542
708826
372578
788877
316397
355725
761761
677714
729501
384762
806689
391697
816450
740686
342662
393729
813300
818964
743478
340879
736732
344127
365592
799878
777324
333692
720923
694610
322798
1.02772e+06
1.01573e+06
1.06785e+06
746355
498961
609718
637894
700342
346541
744757
657218
295586
608331
309470
723969
315583
335989
302868
289595
582341
635475
497721
295358
608736
270857
288031
575836
467830
518798
301036
631030
643148
279391
304325
530418
646096
279843
525545
303051
638447
305227
533185
508453
298384
620903
592490
272566
291577
481879
643108
573193
287694
282875
548629
481369
272571
266763
280141
272734
388575
482402
533000
430635
553427
275802
406181
268460
505179
283653
447100
274330
265193
414816
412027
259640
264926
347284
268879
362446
450766
393535
257880
263274
322700
624766
464636
452077
722788
497685
707397
876476
495226
1.04539e+06
431418
871290
937141
500971
1.05176e+06
1.09509e+06
532484
436734
879112
491659
508828
1.08356e+06
969076
1.14744e+06
1.1147e+06
548121
433319
429288
447905
508912
504393
527002
531851
428550
449914
447069
506811
503602
526129
529508
444040
455228
462580
512493
520311
535482
543710
543769
453485
483303
472107
530738
554706
568582
622913
1.11915e+06
1.12912e+06
860433
1.10908e+06
914163
743140
592210
473188
492914
468753
553760
559049
586423
491986
470824
467854
552808
589478
556458
585419
476269
508941
483828
596434
562844
571648
606345
477235
559597
496284
511594
578726
585665
606769
519526
505423
493637
583732
638150
599144
620206
530020
554206
530451
632696
602330
633971
670216
628387
869902
623021
656285
929929
662313
923380
868082
625375
621968
655131
925202
658977
921695
519397
567712
536390
661507
618395
643253
692699
631873
891877
641286
933559
666376
677244
946986
673334
911219
654791
693446
991063
716025
966509
585116
592726
557818
676465
794691
735590
721827
768110
1.04793e+06
989491
700421
1.04346e+06
983685
760189
699124
1.04263e+06
764108
985681
703687
982428
758795
698578
1.00496e+06
732033
1.01985e+06
746043
786140
1.05212e+06
584355
556600
590363
673285
719900
729625
790047
774532
993327
712464
725782
1.06206e+06
1.00547e+06
790970
745552
1.04455e+06
1.07691e+06
848679
772906
1.0228e+06
815403
835890
1.04368e+06
776516
839240
1.11799e+06
1.08622e+06
906997
665391
666505
619992
874709
785272
872061
975910
673467
633731
691521
919526
809771
886612
1.00677e+06
1.07005e+06
892087
809561
857731
1.13253e+06
1.09735e+06
946438
918575
1.07064e+06
1.14202e+06
1.14576e+06
1.12299e+06
1.00758e+06
989402
911679
1.14069e+06
986225
1.14238e+06
998424
1.06546e+06
1.14649e+06
802093
815290
727010
982355
1.17708e+06
1.09801e+06
1.08432e+06
1.12997e+06
1.14772e+06
1.06161e+06
1.12805e+06
1.08522e+06
1.17419e+06
1.12928e+06
1.14294e+06
1.15108e+06
1.0821e+06
1.13562e+06
1.06425e+06
1.18043e+06
1.12319e+06
458639
514211
525276
476281
729268
865491
718743
888025
439757
466991
447878
516020
525410
539359
549315
457049
487061
469882
548638
536536
561334
574162
504771
612684
600764
479974
488724
567002
577682
536055
508414
498564
646555
605797
628315
591099
637110
904734
649102
941586
672055
685861
958305
684768
1.00574e+06
955267
927394
665021
705046
980114
781323
1.056e+06
999626
801058
1.06787e+06
735174
1.01401e+06
788199
828994
1.05579e+06
1.1022e+06
1.08377e+06
758191
1.03302e+06
345684
529599
343376
415379
367127
382478
373097
418961
315474
311714
339930
317516
321531
347754
353693
337426
362317
328507
352701
320677
327844
361742
336622
325570
330648
370994
357810
364761
379655
374104
429729
418451
433122
384988
393690
444947
353423
407331
387995
350255
338681
374572
391591
289085
432372
316940
319996
352326
314982
429917
283644
376686
302247
318395
331911
434866
406129
365731
381962
295281
298744
311990
304008
318708
323197
329086
293763
306875
281328
278502
291268
304230
317101
279326
294441
291496
306656
303974
316494
318615
307701
314137
309867
333783
326624
336109
342261
345648
332449
305335
314372
302859
329379
342523
313647
304510
302559
328564
343137
330351
341577
308200
322649
312803
347112
334578
339907
352078
337883
395039
378606
374916
334526
348945
391320
374149
336262
333848
348122
392791
350214
390456
327543
321901
317946
346206
364288
352056
358123
341555
389084
348537
397807
355034
361349
404573
407927
398018
357086
369191
422772
377114
413187
382970
366859
412556
363411
428342
408721
379436
362492
427394
380411
410148
364447
407796
378477
384859
415114
369090
375100
441627
421841
390650
390157
439911
460680
382392
450373
430248
397953
404932
392322
443000
459416
477622
404584
459391
398436
450890
472722
408161
487487
463846
426843
460815
437408
500696
420859
506137
480141
441762
484553
384627
388188
437406
549532
464824
467352
396250
350549
375283
339590
354288
367446
392129
407446
427272
405382
365490
406315
384670
427222
451998
373010
414336
388514
439921
413441
431431
460906
421152
479849
500415
505247
441704
460551
528783
432759
408271
436988
454149
518998
487015
482256
458338
558974
526376
484319
595925
513772
558456
498960
536806
576324
489116
608797
524068
564161
593664
704044
642888
650267
598780
555147
516170
338231
350071
322326
313003
414222
441864
367910
404422
337145
299802
342786
356888
313564
318177
332461
333496
356210
299432
222391
338018
336538
378327
328143
311165
289206
278071
289559
316606
278687
306785
240940
255504
246650
293831
295400
304926
305114
317279
307026
320865
215854
231065
224571
239209
228847
237154
242840
390870
346305
320670
448438
369809
408176
365406
310766
323504
358467
303696
255690
262285
301858
303072
326654
315531
317261
311141
327232
335698
293485
294523
307705
304090
319699
327116
316243
321886
357464
337943
332430
319089
336683
353262
226614
263908
251717
241305
234808
248819
255070
256617
300721
268325
272285
253590
259964
279173
251521
268959
274222
277782
256595
260362
282013
338970
325852
332150
352850
346480
336177
358259
366639
330277
343603
346351
361506
338426
366379
332408
325958
320737
340115
359455
347076
354605
335254
310991
321208
336240
343437
347536
329130
249610
270405
276419
289735
259323
263071
272663
309544
289208
279436
265852
290765
271586
285278
258482
279427
282949
263775
288769
266692
286138
278200
81513.1
134376
35443.1
76653.4
819625
270502
471745
35992.4
47637.9
54977.7
40860.3
80816
69568.6
41076.1
666090
102326
343544
190152
349512
181375
365730
44792.5
38565.2
57066.4
91094.5
61722.2
127060
47485.1
85499.1
193683
176131
50325.3
131927
116566
54356.1
176751
128455
267272
193398
294824
216744
303458
572881
344561
283633
380420
385928
241497
363876
108022
183423
191475
141893
93792.5
165178
68704.3
344970
326223
268341
236392
306844
242581
323231
46152.7
594862
28291.7
31929.6
153823
118350
405830
32366.7
44936.7
48660.4
377869
261654
569674
1.3324e+06
116140
819000
29872
33395
48245.3
34160.2
35121.5
55566.9
30969.5
52301.5
131754
256990
64710.3
294092
158102
189253
395516
431236
346398
472314
394169
304827
492587
125708
132323
292591
378148
56828.5
153089
199453
73193.2
29277
32428.8
36357.2
63402.5
99507.9
31232.6
526374
645627
522754
692551
741843
961124
612140
28737.1
28617.3
28941.3
30054.4
29605.7
29358.7
29953.8
494899
824787
748202
777534
1.30434e+06
1.27667e+06
662052
80481.6
341533
270067
233499
188923
227344
101410
36690.8
38574.3
82942.7
34210.8
65843.3
32027.2
40631.9
644545
464689
789053
490621
372720
602213
901470
573970
75002.6
296391
393016
201307
332256
749745
31657.3
30905.9
32682
32443.4
30835.8
31144.5
33513.2
1.02667e+06
1.01047e+06
1.04189e+06
1.65352e+06
1.42442e+06
793180
1.25907e+06
1.16373e+06
1.21429e+06
1.44442e+06
647946
1.5818e+06
862446
1.10863e+06
42155.8
87474.3
169317
39341.5
131210
34421.9
50807.4
34291.9
29713.6
44275.9
33614.4
31708.9
36312.4
28740.2
32745.6
31519.2
30151.9
30423
32269.1
31132.9
31313
33088.3
28823.1
29174.1
29312.3
29792.3
30227.6
30335.6
29922.4
30573.8
31962.1
30558.5
31357.4
39503.7
32370
35701.3
34496.9
42604.5
46482.5
35941.4
31932.2
32329.4
37802
29250.8
28978.1
29465.9
30519.2
30430.4
30801
30147.3
33066.3
32597.8
32777
31159.6
31433.4
31594.2
31319.7
73399.8
39030.2
55725
33954.2
50129.9
36754.3
41880.9
35771.3
32975.4
33690.6
31811.1
31879.9
32422.6
31508.2
348286
833989
432000
496878
944276
354888
372014
292588
259539
1.18442e+06
1.26536e+06
557815
551595
411682
869791
398300
294062
269173
721956
648690
279762
292694
263437
314570
290408
313974
306007
324532
325929
314820
1.00021e+06
236699
383164
284187
573275
328102
263886
582419
409981
388838
483801
531270
388463
422071
350097
327116
343725
356127
369798
343890
390295
280730
241986
280069
309573
291315
312984
276819
1.08476e+06
1.09801e+06
958245
421793
778867
316412
588375
329261
249904
230802
269357
408888
248160
235254
298741
427547
407995
356092
351807
305277
400390
347029
352973
374427
323317
345272
314848
384518
995411
397960
554813
277453
370999
273578
459190
325896
257079
259016
256990
275479
267996
295784
284661
252103
293364
250575
266808
248654
264071
241935
257718
243078
249903
273759
252806
269257
1.60294e+06
353203
1.19126e+06
1.17107e+06
785158
1.61379e+06
1.53825e+06
655429
1.31874e+06
1.51004e+06
1.01322e+06
1.14089e+06
1.66143e+06
1.67691e+06
1.59899e+06
767044
724014
866416
866123
1.18968e+06
1.26472e+06
956987
1.23948e+06
949811
1.43263e+06
1.51643e+06
585910
1.25315e+06
1.06988e+06
987414
1.04603e+06
833981
1.10982e+06
985035
1.29147e+06
1.24499e+06
1.25736e+06
1.45151e+06
1.7771e+06
1.71636e+06
690034
1.1104e+06
1.30656e+06
1.60649e+06
1.27056e+06
1.18969e+06
1.81419e+06
1.65917e+06
1.66955e+06
1.77634e+06
1.3665e+06
1.34056e+06
1.33166e+06
1.57093e+06
960760
1.20181e+06
1.53483e+06
1.39398e+06
472928
352747
518546
747377
733245
954890
262686
286052
283931
291186
279641
273176
284999
260953
290792
275374
283114
263693
280041
273164
90653.5
227811
60321.5
207585
169692
35244.2
54924.7
89724.8
38131.4
33396.5
30145.6
155047
316747
314202
294136
143561
282222
119228
31388.9
45950.4
34595.5
47243.2
35348.5
40493.1
63707
58322.5
83507.6
151680
86563.7
155782
173040
117574
29685.2
30418.5
30987.2
31011
31543.1
33405
31921
208714
281792
225180
288565
230119
240903
291189
192275
120597
37572.1
269355
270090
102004
202636
319943
301886
163795
336102
279164
238855
335727
98226.5
66926.8
41824
51881.5
125370
92050.2
74641.5
62859.6
50574.1
39990.1
50530.9
118602
70265.4
89359.2
202949
123296
179007
193249
170112
146889
216906
188641
116044
171222
188763
162308
207007
143426
39575.3
32605.8
34308.2
38074.8
38979.5
46706.6
34129.3
37260.5
31454.1
33016
37362.1
37555.2
44704.4
33637.2
269288
302650
250160
255835
311347
300547
274081
249816
288100
238191
249862
298513
262385
293850
209557
187319
245802
183039
226586
164302
231760
71198.8
132246
148913
145133
98269.5
120188
101338
71631.3
144970
98343.1
148425
101601
131712
168732
209152
182589
226281
186114
231008
245129
206593
45158.4
87502.5
45943
44946.1
59456.3
61166.7
37882.7
45062.6
44826.6
59506.7
45542.7
61350.9
87421.2
60119.7
265322
282478
310683
304868
273020
301447
278440
265191
304917
272838
311065
278113
282012
314225
124534
59419.9
85964.6
124154
142057
168315
90340.8
257164
205071
243337
256804
246045
227304
267490
165042
167388
130092
164439
217851
197200
191614
62990.3
136018
92210.9
127782
151432
176128
93713
173770
175779
137313
167866
224757
204265
194922
212498
268617
251791
260447
252981
274548
230855
287211
311563
280087
286934
327125
292933
319855
322951
299698
289177
290875
335844
300227
324795
295515
266743
286151
270735
299317
289920
283165
350669
359065
365330
367056
360627
374573
376132
286323
319723
284156
304092
270730
283920
297464
343629
354737
343353
367410
355702
366785
378890
324297
334049
310927
297891
279121
288496
307108
352654
368621
376502
360192
361632
348454
369986
348835
345313
361218
385128
367729
372386
389647
285548
288789
267846
291176
270782
276733
294934
169744
205211
264974
209974
220008
216260
143862
274469
291110
303401
296466
277593
293819
287345
198508
243589
264186
247045
233519
230084
219199
347867
339722
329056
294518
313847
304649
301301
269053
261992
291908
265574
281876
247529
278368
386107
373931
372229
385175
406698
399214
389825
387251
374587
357049
381117
413981
399325
394301
385556
403632
384111
390753
417695
409999
395411
295985
299419
282001
288425
317080
304240
303176
344919
337883
323489
299722
332881
313693
318480
285385
293950
275379
284905
310822
295944
301229
330345
354674
374589
373800
393679
349801
370236
323788
309909
298148
327578
313927
326943
340176
379098
390967
365490
363976
339506
354304
379424
431022
408919
425617
401360
435895
420687
415470
339852
326787
309734
297486
326706
312116
313324
415934
421284
395959
372312
420786
398270
393614
356410
343331
324953
343317
376638
363151
356463
345780
355397
332932
347256
384409
371172
360241
430162
400974
386573
365067
405004
390668
378527
1.17542e+06
1.00504e+06
989102
1.16117e+06
1.18603e+06
1.18826e+06
1.08059e+06
339690
273325
256288
255830
259083
292421
299388
324194
427115
400442
438502
331451
715725
757663
391701
300544
311862
291511
333020
331865
324203
333283
772351
577134
541752
516357
482482
377864
372608
333765
309823
320255
349536
336354
354355
342914
642603
439131
399797
370469
446064
492673
368981
350250
343326
384637
357568
401009
407841
363462
443946
401405
367964
416209
435193
431037
376791
388206
372070
418605
393554
445957
425658
377497
453616
422129
463450
433145
446645
421860
387067
270745
766728
328146
419235
295760
432787
246242
669449
258162
251842
296164
312743
270450
266629
285881
711309
468499
504397
524760
333728
356463
561084
281833
331999
325715
298154
282685
300970
313812
591435
585083
744971
532088
527472
372596
379240
336877
281184
322762
331599
291387
305850
345267
311853
352268
368447
321339
376051
360323
336417
395705
379936
408348
344735
315631
331426
358388
451199
387303
358324
448127
409182
346168
372870
36976.4
365364
34593.7
30155
29835.8
36318.3
126476
34103.8
126505
530786
125160
122830
204948
248805
446116
564252
34529.7
30355.1
30140.7
41797.6
33218.2
32990
41728.4
141991
47644.1
49168.6
95676.5
254218
227099
87606
35193.1
31056.9
30512.8
33940.6
47454.7
35356.2
42898.9
29509.8
29326
29671.5
30850.4
30677.4
30672.9
30810.5
592805
314681
364396
589756
439147
395771
550459
111438
56031.1
48939.6
200815
94488.6
84078.4
188514
440025
246469
269035
341746
395162
296469
473453
29934.6
29904.4
29632.4
31044.6
31174.7
31483.1
30900.4
176334
334904
333315
299920
235194
313806
163297
67132.8
38547.8
122281
53651.2
53970.2
38306.4
65490.2
39880.3
75446.1
62989.1
119255
55976.8
43150.8
66091.6
32874.3
32001.1
34426.6
37525.2
37789.7
32614
32154.6
262633
152933
218418
266471
289686
151381
231623
574504
452793
440371
419387
546596
438686
549009
33609.3
32758
41351.4
35030.4
38657.5
35018.8
32319.6
382133
424041
366509
502708
406926
336850
491020
93215.5
328491
41441.9
33650.4
30589.8
69073.1
183477
38526.4
138821
301612
147657
149159
223805
198919
339593
398908
33094.1
50531.5
36087.9
57629.3
38352.2
44121.5
76141.1
71801.3
97072.4
168813
115274
188476
193423
138186
242896
311086
246195
352445
277967
271691
330349
30323.8
30920.9
31473
31632.4
32585.2
35066.7
32507.8
68151.5
52093.7
41530.2
55606.3
126304
75608.6
100568
193231
125356
179562
204124
169555
156976
216661
92256.6
77148.5
49592.6
62567.6
154349
97208.3
113944
161645
255558
220855
223024
201273
254988
172345
37785
31874.1
33787.7
39133.5
38294.2
46558.2
34394.9
33823.1
46289
37119.7
41541.1
42843.6
55894.9
35992.9
304699
256048
251565
270304
312512
274401
318661
377780
337874
308964
297140
368009
321556
349468
83306.9
155968
147774
168245
121117
108695
136821
231091
194581
210018
263918
258623
181521
241276
49705.6
47522.6
101415
51478.3
74123.5
65734.3
39881.1
291213
325138
302755
347764
308815
289831
332449
321259
306175
314478
307304
280429
251564
190580
218470
197347
251957
269723
250568
280225
268626
270362
301236
308158
292856
320604
293298
288898
313483
273484
274172
263322
285625
281681
275171
287741
206223
204576
229285
213999
242697
252637
230653
278882
244865
273045
279490
290437
309995
260351
306454
295918
291272
293958
319680
315769
304725
267254
225903
245979
267035
273457
286882
251830
292031
302054
325051
293836
316666
306714
277476
31121.4
227306
89914.6
28379.8
116923
28381.1
27815.5
28933.7
30234.3
214840
491800
420308
33219.8
43553.7
130954
271747
32811.3
152680
46971.5
46968.1
30654.9
60153.7
64203.6
29677.2
28525.2
31756.5
29806
28843.6
28513.3
33899.8
272464
247345
288733
120159
158085
235192
316772
50061.3
167901
48489.3
35654.2
62039.9
64505.2
127443
30717.1
29003.4
34138.9
27983.3
27919.8
27858.4
27657.9
28474.8
27966.4
28287.9
28200.3
28365.5
28202.6
28019.7
456319
387039
354927
364198
404753
329007
442992
268458
301824
360383
313954
174787
258971
400694
120473
42902.7
106231
223021
188489
36614
81586.1
29117.7
31735.6
41942.9
29137.3
30564.9
28851.3
37156.7
103978
104920
243317
207015
39150.5
82325.5
84139.5
346331
385579
348917
310515
278480
308242
193894
40932.2
36229.8
53488.7
28144.5
29990.3
28595.4
27686.8
28064.8
28154.3
28441.5
27896.7
28084.1
28305.2
27823.1
530563
454561
543935
470277
424566
403475
489537
400271
473386
530957
344992
371908
217007
452597
28807.1
53157.2
31467.7
27596.2
28921.9
28091.4
28171.2
29083.3
31146.8
32403.2
242344
46198.4
31377
33045.6
38224.8
59095.9
29130.9
30164.9
30094.2
29047.1
30019.9
29067.6
30275.8
30930.7
33290.8
35317.7
34766.2
31550.1
31901.8
38157.1
28341.7
28234.5
28446.3
28273.7
28097.3
28374.2
27992.2
50239.1
46760.5
121754
41709.7
165836
64173.5
59580.5
28789.7
30399.8
30111.3
28869.9
30072.3
28959.7
30331.7
32094.8
36710.9
34916.6
31824.4
34423.2
34982.6
32314.7
30742.3
29187.7
29449.2
30193.7
29641.7
29109
30581.4
34186.5
40141.6
46401.8
36079.4
32768.4
32421.2
41658.7
27654.7
27989.2
27973
27885.7
28148.6
28114.3
27786.2
28278.3
28160.2
28018.7
28559.3
28584.3
28346.7
27901.2
77824.7
45874.8
41187
37797.5
40618.1
41413.8
48435.4
188584
339660
110098
46735.4
219687
82553
88768.4
37427.9
34088.8
42724.2
33286.1
41350.1
37138.1
32722.1
29995.1
31330.1
29307.3
30817
29186.4
29802.3
30743.3
28301.7
27708.8
28187.5
28196.3
28196.4
28647
27775.9
115215
71173.6
188055
165434
65739.8
47576.6
87266.1
552282
464299
514040
844043
709044
1.11775e+06
358073
435769
458743
483068
458888
493518
466389
502674
495073
399312
428196
405338
469386
446550
498661
456528
486234
557750
482626
536435
611557
530001
649046
556557
595765
531772
550758
589446
638156
534640
624987
477952
521211
557930
886614
715138
554444
596114
563021
480508
534406
795589
702852
515343
612808
709025
670470
945214
749839
589965
791324
636047
1.08255e+06
1.09822e+06
1.02754e+06
871761
896312
715531
278629
229064
170538
710215
787611
423919
145195
92742.9
237973
194540
318293
292775
144742
390938
337495
82064.8
181657
43490.6
106633
99293.9
237098
211842
1.10631e+06
561455
404621
301549
608106
623133
715819
627132
342120
379201
820226
549733
546362
445590
302411
250316
220574
317147
274618
320775
254210
179781
156596
196923
259151
186409
187513
199196
1.15904e+06
870381
868777
689671
265967
582540
373171
275725
255226
204120
213960
265327
196506
231206
64155.2
306267
34886.6
33581.1
31501.6
29427.9
29138.6
27467.8
29061.2
292238
118420
95750.5
270241
77492.4
33022.6
84891.7
28764.6
30546.3
30246.6
29117.8
30559.3
29496.2
30933.5
32215.5
41175.9
36831.6
33487.9
42270.9
53217.2
36945.3
27433.2
27944.1
27833.8
27504
27960
28313.2
27795.6
168407
66132.4
46993
72195.9
189846
117424
246199
30104.6
29595.3
31067.4
29859.4
37597.3
30990.4
33400.8
43459.9
36816.8
52075.5
77845.3
57287
117161
43254
30240.9
29609.7
31085.2
29853.3
38924.3
31798.8
33744.8
47596
37864.6
57813
83187.3
62551.4
130570
44391.2
28680.5
27826.5
28381.1
28933.6
29344.1
29758.5
28469.8
170489
238357
112078
171427
279978
206696
271286
201256
133964
269066
180483
298445
220341
281853
29059.4
28028.5
28532.1
29039
29593
29949.1
28587.9
31135.6
47199.2
45899.4
40293
34933.3
34466.9
37822.7
120578
173241
87889.9
83847.9
157256
152137
58438.8
29740
33122.1
30415.6
30248.2
30968.5
30795.9
29309.8
209954
290682
241340
282322
231403
225512
284125
345373
382154
361515
280217
263599
313412
408086
303248
393554
373650
302356
288506
355222
317296
394732
415983
267678
278846
282589
283111
286006
302130
299349
273157
293689
287458
299929
292048
307429
314390
296274
300286
308931
305395
318053
321999
328846
291936
305650
295139
316132
325762
327899
313596
304530
309118
299353
320800
337327
332090
326727
307234
311665
308998
333224
326100
334749
339831
348254
308807
311623
327902
361571
325180
364423
309477
319447
312705
342698
332971
338259
347068
353647
325214
317251
333164
377183
369671
340480
371140
334656
344870
386137
348883
357433
396001
323273
346722
316632
320804
314521
342471
350761
343231
377786
396393
354551
356945
340678
380631
348093
392681
367530
401341
361531
385693
354586
364526
417326
405683
393742
354915
365679
406383
400960
374160
361913
369181
424638
380692
409982
383238
430092
445298
376005
434189
387229
419455
28172.1
84923.5
28877.4
31861.6
28821.3
28572
29280.7
29092.9
28624.9
29085.6
28323.8
28315.4
28131.7
28684
28692.7
28905.5
37336.5
79302.8
34816.8
29505.8
29872.6
32318.8
29184.8
28612.5
28818.9
29070.8
29671.7
28661.4
29046
29282.9
53038.3
28879.4
31174.1
30127
30262
30390.6
28953
28861.5
29002.7
29203.7
29012.3
29605.8
29030
28596.8
28726.7
28741.7
28906.5
28559
28473.5
28781.4
29221.6
30338.8
30483.3
29360.9
31135.7
30053.6
30581.2
29386.7
29880
30267.3
29157.9
30215
28986
30173.9
29856.4
34316.8
29808.2
30355.9
30100.9
30469.7
30399.9
29847.6
29230.7
29534.7
29293.2
29591.2
29444.1
29659.3
29515
28655.4
29505.5
29092.1
29186.4
29548
29181.5
36479.8
95501
41829.6
48467.5
53076.4
32840.6
60082.1
32952.7
50249
30964.9
32066.4
42402.5
29990.4
36297.5
30648.7
29690.6
31760.2
30069.6
34070.9
29887.3
29432.4
28949.3
29475.6
28988.5
29022.6
28960.4
29178.9
29101.9
28910.5
28632.3
29365.2
28780.9
28961.3
29149.4
28761.7
29176.2
29149.5
29221.9
29160
29139.6
29153.5
29401.4
29187.3
29621.9
29618.9
29168.1
29176.8
29526.2
29178.4
29715.3
29578.8
29749.7
29012.9
29503.2
29294.2
29986.9
29892.2
40699.5
34086.6
35174.3
30432.8
31748.7
32434.1
29605.8
29402.1
29425.2
29026.9
29799.3
29255.8
29598.8
30391.5
30879.8
30750.4
31019.6
30589
30631.8
30583.9
30091.3
29956.4
29942
30429.2
30241.6
29779.2
30265.1
29964.5
30081.4
30395.3
30710.2
29770
30378.3
30168.2
29556
28944.3
31112.4
30050.6
29623.1
29101.7
30550.7
28925.2
28995.4
28776
29296.6
28916
28916.6
29200.3
29017.5
29107.7
29475
29031.2
29099.9
29073.6
29290
29031.1
28975.2
29161.9
29081.1
29025.2
29111.8
29242.1
29100.1
29484.2
29576.6
29113.6
29069.2
29143.2
29449.2
29829.4
29252
29656.9
29468.1
29655.4
29870.7
29434.4
30129.3
29827.4
30332
30421.2
29916.2
29973.9
30537.7
30199.5
30068.4
30444.9
30783
30030
30291.7
30640.3
29904.6
29373.2
29598.3
29816.9
30004
29519.1
29781.8
30487.6
30996.3
30688.6
31055.8
30552.9
30603.9
30921.4
30096.4
29833.8
29908.7
30361.9
30169.6
30226.5
29761.5
30287.2
30607.4
30232.1
30913.4
30432.6
30174
30738.9
29875.3
29882.9
30179.8
30411.4
29926.2
30032.2
30216.9
29492.4
29231.5
29006
29712.6
29433.4
29237.5
29620
29421.4
29681.1
29339.9
29676.3
29353.5
29247.8
29669.4
29737.1
30339.4
29938.8
29782.8
29556.7
29948.6
30075
242642
238563
200172
218377
263212
251618
291916
275111
213909
219498
215734
231984
228993
232350
234629
205897
207884
209747
222066
224368
229432
228988
357077
269455
529467
256258
182895
181231
117724
85328.1
78866.9
48750.4
46571.7
201806
176985
235863
236876
172575
107913
56453.1
241861
192808
243096
256338
181709
123777
115516
203375
209499
206968
197005
599744
445470
400983
398470
553650
490510
434609
180562
142905
174164
217033
204112
202458
231786
428548
315127
345696
345446
345374
402634
311179
285639
257893
369794
225920
350772
225454
293090
276740
310479
261872
233005
326250
225913
271749
224103
239533
222710
239557
250626
249918
241030
242009
253861
241443
249359
264008
265833
249748
221276
248690
224723
238135
252026
250136
238965
244078
257752
241838
250258
274652
269616
252769
197695
202340
240093
186881
160516
209601
250477
235882
122603
229599
314072
157104
188268
191166
178295
533358
206802
422242
251357
226747
205545
214515
203694
169214
157914
214129
226284
225094
210461
201572
191886
182372
215881
218061
221518
215124
181518
191133
189922
204692
203379
198654
208187
211784
199228
202079
211652
224026
215531
216876
221237
231645
219525
239694
232775
217673
224340
224482
235850
237316
244501
234060
230457
227134
26346.6
126940
34433.9
156687
91003.8
64348.4
155555
333908
56490.6
128555
178485
59324.2
34233.9
37564.2
39675.4
190216
139583
133490
266462
222796
89875.4
46517.7
24892.7
33178.7
32730.8
23920.4
32219
32231.6
22947.3
97575.9
204027
258158
195248
236160
108964
69606.4
71395.2
39627.6
33072.6
33897.8
43452.3
28119.9
32437.5
454474
237853
337800
221044
314773
273432
156032
134365
92115.8
72593.3
58340.4
49992.5
36131.7
23997.5
144355
157632
122968
77485.8
111718
120265
64543.6
27744.6
28712.4
27849.2
29524.9
28593.4
28227.3
29263.2
29121.5
28787.5
29644.7
28471.9
29588.3
28658.2
28615.7
29771.5
28616.1
28510.3
28656.5
28400.4
28254.1
28254.1
28369.2
28999.3
30186.3
30220.7
28933.3
29761.9
28934.8
29837
29161.6
29136.2
30185.3
30173.1
30069.8
29039.9
30065.9
29314.5
29055.2
29536.5
28837.3
29270
29024.4
29447.7
29691.5
29796.8
30250.1
30077.3
29760.6
30042.7
29888.1
29568.4
29819.8
30162.6
30000.2
29529.9
30029.5
29748.3
29493.4
29922.4
29317.6
29814.5
29464.5
29476
29852.5
28687.6
29899.2
29739.2
28921
29972.4
28888.7
29897
28412.1
28390.9
28538.8
28498.3
28630.2
28444.9
28298.8
27744.2
28044.9
27897.5
28225
28005.4
28063.4
28119.1
27774.5
28001.9
28019.9
27987.1
28224
28240.4
28049.6
27475.6
31981
28653.8
27610
28615.6
29046.5
32351.4
28853.1
30919.4
31327
37660
50643.1
69797.6
58169.5
319606
423489
28468.5
29743.2
29630.5
28690.4
29842.8
28545.7
30020.4
31131.9
33833.5
33456
34956.1
31579.4
31878.4
34737
28594.3
30001.3
29813.7
28838.5
30332.3
28703.7
30154.4
31622.5
34830.6
34367.2
32301.7
38184.6
35658.7
32134.1
27522
27892.6
27774.1
27846.9
27378.5
27715.3
27488.6
37406.9
40977.1
40757.3
42630.1
78940.1
42884.7
68359.3
30782.5
29814.1
29630.1
29065.3
30300.1
28897.6
30512.4
63883.5
37044
37131.1
40368.7
32515.7
32631.8
40524.7
27522.3
27822.6
27825.7
27434.5
27835.7
27794.4
27425.7
41890.8
38734.2
42233.8
51090.4
112412
44181.9
72478.5
31088.6
29950.9
29899.2
29348
30689.9
29134.8
30625.4
28360.8
28205.1
28689.6
28068.1
27505.4
27914.2
27641.2
58678.7
40170.2
37763.4
34782.4
45498.8
41429
32953
495772
174629
210832
69668.9
264716
79629
216735
28889.9
28636.4
28415.1
27738.8
28228.3
28086.7
27636.4
355242
173940
153678
90652.9
239395
69544.8
201280
31664
30731.7
36229.3
40436.4
30538.1
31136.2
34219.4
35893.2
32326.7
30893.4
32742.6
30515.2
33001.7
30723.8
32004.1
30556.1
31189.5
31263.4
31700.7
30070.9
30734
31388.4
30918.3
30909.9
32506
33095.1
31528.2
32007.1
30956
32427.2
42150.8
36384.3
33629.4
35406.6
33354.1
36163.6
30639.8
30614.3
30733.8
30569
30395.2
30741.6
30789.9
30785.7
30502.9
30963.2
30346.1
30378.4
30756.4
30901.7
30969.6
31121.9
31160.8
31135.4
30949.1
30973.3
31068
30464
30248
30202.5
30473.2
30190.6
30599.8
30430.6
31186.4
34439.8
33520.1
31290.9
33298.9
32699.8
30926.3
41662.5
36936.7
41032.4
84298.3
57618.6
34374.8
37777
35835.3
37564.4
37575.9
34830.6
36078.1
34611.4
36143.9
38070.5
36837.8
38052.2
36001.9
37178.4
35203.9
36458.4
258818
267690
284681
258634
286270
267667
276871
259418
269772
283996
288843
268510
280090
261141
256516
203073
236145
190095
268183
205751
216359
213700
280811
302445
283899
302897
224227
330114
346845
265308
247451
289352
309998
289476
236662
212548
256746
269473
296603
293685
322406
289924
240287
226187
315379
256501
360586
356855
394424
293985
274547
322279
273634
366311
199528
205795
222340
222983
224978
230539
234052
207020
218019
221734
222232
225483
239899
237128
181616
194498
186399
210459
204285
208194
214123
210061
194292
186803
179807
185207
202692
206631
231258
219026
204702
207133
195091
215937
228710
203112
207257
195815
217432
234725
222912
229888
214490
236890
228123