/*--------------------------------*- C++ -*----------------------------------*\
  =========                 |
  \\      /  F ield         | OpenFOAM: The Open Source CFD Toolbox
   \\    /   O peration     | Website:  https://openfoam.org
    \\  /    A nd           | Version:  9
     \\/     M anipulation  |
\*---------------------------------------------------------------------------*/
FoamFile
{
    format      ascii;
    class       volScalarField;
    location    "0.001";
    object      rhoE;
}
// * * * * * * * * * * * * * * * * * * * * * * * * * * * * * * * * * * * * * //

dimensions      [1 -1 -2 0 0 0 0];

internalField   nonuniform List<scalar> 
10157
(
253245
253245
253245
253245
253245
253309
258436
293374
260169
253245
253245
253245
253245
253245
253245
253245
253245
253245
253245
253245
253245
253245
253245
253245
253245
253245
253245
253245
253245
253245
253245
253245
253245
253245
5.012e+06
253245
253245
253245
253245
332288
253245
253245
253245
253245
253536
253245
253245
253245
253245
253245
253245
253245
253245
253245
253245
253245
253245
253245
253245
253245
253245
253245
253245
253245
253245
253245
253245
253245
253245
253245
253245
253245
253245
253245
253245
253245
253245
253245
253245
253245
253245
253245
253245
253245
253245
253245
253245
253245
253245
253245
566383
253245
253245
253245
253245
253245
253245
253245
253245
253245
253245
253245
469438
253245
253245
253245
253245
1.43641e+06
253245
253245
253245
253245
253245
253245
253245
253245
253245
253246
253245
253245
253245
253245
253551
253245
253245
253245
253245
253245
253394
253245
253245
253245
253245
253245
253245
253245
253245
253245
253245
253245
253245
253245
253245
253245
253245
253245
253245
253245
253245
253245
253245
253245
253245
253245
253245
253245
253245
253245
253245
253245
253245
253245
253245
253245
253245
253245
253245
253245
253245
253245
253245
253245
253245
253245
253245
253245
253245
253245
253245
253245
253245
253245
253245
253245
253245
253245
253245
253245
253245
253245
253245
253245
253245
253245
253298
253253
253245
253245
253245
253245
253245
253245
253245
253245
259783
253247
253482
253484
259863
296194
253247
253246
255068
266882
253432
258497
291226
253247
436133
253245
253245
253245
253245
253245
253245
253246
253245
253245
253245
253245
253245
253245
253245
253245
253245
457708
457322
253245
253245
253245
253245
253245
253245
253245
253245
466051
253245
253245
253245
253245
253245
253245
253245
253245
253245
253245
253245
253245
253245
253245
253245
253245
253245
253245
253245
253245
253245
253245
253245
253245
253245
253245
253245
253245
253245
253245
253245
253245
253245
253245
253245
253245
253245
253245
253245
253245
253245
253245
253245
253245
253245
253245
253245
253245
253245
253245
253245
253245
253245
253245
253245
253245
253245
253245
253245
253245
253245
253245
253245
253245
253392
253245
253245
253245
253245
253245
253245
253245
253245
253245
253245
5.19938e+06
274399
256476
253261
253245
253245
253245
253245
253245
253245
253245
3.52973e+06
3.38276e+06
3.65221e+06
3.88974e+06
262132
253245
253245
253245
253245
253245
253245
253245
253245
253245
253245
253245
253245
253245
253245
253245
253245
253245
253245
253245
253245
253245
253245
253245
253245
253245
253245
253245
253245
253245
253245
253245
253245
253245
253245
253245
253245
253245
253245
253245
253245
253245
253245
253245
253245
253245
253245
253245
253245
253245
253245
253245
253245
253245
253245
253245
253245
253245
253245
253245
253245
253245
253245
253245
253245
253245
253245
253245
253245
253245
253245
253245
253245
253245
253245
253245
253245
253245
253245
253245
253245
434334
253260
253247
253245
253245
253245
253245
253245
253245
253245
253245
2.12251e+06
3.82282e+06
4.6736e+06
1.60755e+06
253249
253245
253245
253245
253245
253245
253245
253245
253245
253245
253245
253245
253245
253245
253245
253245
253245
253245
253245
253245
253245
253245
253245
253245
253245
253245
253245
253245
253245
253245
253245
253245
253245
253245
253245
253245
253245
253245
253245
253245
253245
253245
253245
253245
253245
253245
253245
253245
253245
253245
253245
253245
253245
253245
253245
253245
253245
253245
253245
253245
253245
253245
253245
253245
253245
253245
253245
253245
253245
253245
253245
253245
253245
253245
253245
253245
253245
253245
253245
253245
253245
254819
253246
253245
253245
253245
253245
253245
253245
253245
253245
253245
297388
2.64832e+06
2.40882e+06
1.15535e+06
253245
253245
253245
253245
253245
253245
253245
253245
253245
253245
253245
253245
253245
253245
253245
253245
253245
253245
253245
253245
253245
253245
253245
253245
253245
253245
253245
253245
253245
253245
253245
253245
253245
253245
253245
253245
253245
253245
253245
253245
253245
253245
253245
253245
253245
253245
253245
253245
253245
253245
253245
253245
253245
253245
253245
253245
253245
253245
253245
253245
253245
253245
253245
253245
253245
253245
253245
253245
253245
253245
253245
253245
253245
253245
253245
253245
253245
253245
253245
253245
253245
253246
253245
253245
253245
253245
253245
253245
253245
253245
253245
253245
869372
1.44434e+06
608344
253245
253245
253245
253245
253245
253245
253245
253245
253245
253245
253245
253245
253245
253245
253245
253245
253245
253245
253245
253245
253245
253245
253245
253245
253245
253245
253245
253245
253245
253245
253245
253245
253245
253245
253245
253245
253245
253245
253245
253245
253245
253245
253245
253245
253245
253245
253245
253245
253245
253245
253245
253245
253245
253245
253245
253245
253245
253245
253245
253245
253245
253245
253245
253245
253245
253245
253245
253245
253245
253245
253245
253245
253245
253245
253245
253245
253245
253245
253245
253245
253245
253245
253245
253245
253245
253245
253245
253245
253245
253245
253245
253245
253245
253245
253264
253245
253245
253245
253245
253245
253245
253245
253245
253245
253245
253245
253245
253245
253245
253245
253245
253245
253245
253245
253245
253245
253245
253245
253245
253245
253245
253245
253245
253245
253245
253245
253245
253245
253245
253245
253245
253245
253245
253245
253245
253245
253245
253245
253245
253245
253245
253245
253245
253245
253245
253245
253245
253245
253245
253245
253245
253245
253245
253245
253245
253245
253245
253245
253245
253245
253245
253245
253245
253245
253245
253245
253245
253245
253245
253245
253245
253245
253245
253245
253245
253245
253245
253245
253245
253245
253245
253245
253245
253245
253245
253245
253245
253245
253245
253245
253245
253245
253245
253245
253245
253245
253245
253245
253245
253245
253245
253245
253245
253245
253245
253245
253245
253245
253245
253245
253245
253245
253245
253245
253245
253245
253245
253245
253245
253245
253245
253245
253245
253245
253245
253245
253245
253245
253245
253245
253245
253245
253245
253245
253245
253245
253245
253245
253245
253245
253245
253245
253245
253245
253245
253245
253245
253245
253245
253245
253245
253245
253245
253245
253245
253245
253245
253245
253245
253245
253245
253245
253245
253245
253245
253245
253245
253245
253245
253245
253245
253245
253245
253245
253245
253245
253245
253245
253245
253245
253245
253245
253245
253245
253245
253245
253245
253245
253245
253245
253245
253245
253245
253245
253245
253245
253245
253245
253245
253245
253245
253245
253245
253245
253245
253245
253245
253245
253245
253245
253245
253245
253245
253245
253245
253245
253245
253245
253245
253245
253245
253245
253245
253245
253245
253245
253245
253245
253245
253245
253245
253245
253245
253245
253245
253245
253245
253245
253245
253245
253245
253245
253245
253245
253245
253245
253245
253245
253245
253245
253245
253245
253245
253245
253245
253245
253245
253245
253245
253245
253245
253245
253245
253245
253245
253245
253245
253245
253245
253245
253245
253245
253245
253245
253245
253245
253245
253245
253245
253245
253245
253245
253245
253245
253245
253245
253245
253245
253245
253245
253245
253245
253245
253245
253245
253245
253245
253245
253245
253245
253245
253245
253245
253245
253245
253245
253245
253245
253245
253245
253245
253245
253245
253245
253245
253245
253245
253245
253245
253245
253245
253245
253245
253245
253245
253245
253245
253245
253245
253245
253245
253245
253245
253245
253245
253245
253245
253245
253245
253245
253245
253245
253245
253245
253245
253245
253245
253245
253245
253245
253245
253245
253245
253245
253245
253245
253245
253245
253245
253245
253245
253245
253245
253245
253245
253245
253245
253245
253245
253245
253245
253245
253245
253245
253245
253245
253245
253245
253245
253245
253245
253245
253245
253245
253245
253245
253245
253245
253245
253245
253245
253245
253245
253245
253245
253245
253245
253245
253245
253245
253245
253245
253245
253245
253245
253245
253245
253245
253245
253245
253245
253245
253245
253245
253245
253245
253245
253245
253245
253245
253245
253245
253245
253245
253245
253245
253245
253245
253245
253245
253245
253245
253245
253245
253245
253245
253245
253245
253245
253245
253245
253245
253245
253245
253245
253245
253245
253245
253245
253245
253245
253245
253245
253245
253245
253245
253245
253245
253245
253245
253245
253245
253245
253245
253245
253245
253245
253245
253245
253245
253245
253245
253245
253245
253245
253245
253245
253245
253245
253245
253245
253245
253245
253245
253245
253245
253245
253245
253245
253245
253245
253245
253245
253245
253245
253245
253245
253245
253245
253245
253245
253245
253245
253245
253245
253245
253245
253245
253245
253245
253245
253245
253245
253245
253245
253245
253245
253245
253245
253245
253245
253245
253245
253245
253245
253245
253245
253260
253647
253245
253245
253245
253245
254646
253245
253245
253245
253245
253245
253245
253245
253245
253245
253245
253245
253245
253245
253245
253245
253245
3.45053e+06
253245
253245
264264
253245
253245
253277
253245
253245
253245
253245
253245
253245
253245
253245
253245
253245
253245
253245
253245
253245
253245
253245
253245
253245
253245
253245
253245
253245
253245
253245
253245
253245
253245
253245
253245
258097
253245
253292
253245
253245
328721
253250
253245
253245
253245
253245
253245
253245
253245
253245
253245
253245
253245
253245
253245
253245
253245
253245
253245
253245
253245
253245
253245
253245
253245
253245
253245
253245
253245
253245
253245
253245
253245
253245
253245
253245
253245
253245
253245
253245
253245
260415
253245
253245
253245
253245
253245
253245
253245
253245
253245
253245
253245
253245
253245
253245
253245
253245
253245
253245
253245
253245
253245
253245
253245
253245
256146
253245
253245
253245
253245
495855
253253
253245
253245
253245
253245
253245
253245
253245
253245
485764
261352
253245
253245
253245
253245
253245
253245
253245
253245
3.71989e+06
3.33529e+06
3.54162e+06
4.94068e+06
5.1316e+06
4.71386e+06
4.33805e+06
3.53476e+06
2.79302e+06
2.70616e+06
2.98246e+06
2.34419e+06
562637
369876
253245
253245
253245
253245
253245
253245
253245
253245
253245
253245
253245
253245
253245
253245
253245
253245
253245
253245
253245
253245
253245
253245
253245
253245
253245
253245
253245
253245
253245
253245
253245
253245
253245
253245
253245
253245
253245
253245
253245
253245
253245
253245
253245
253245
253245
253245
253245
253245
253245
253245
253245
253245
253245
253245
253255
253245
320481
5.44053e+06
253245
253245
253245
253245
253245
253245
253245
253245
253245
253245
253245
253245
253245
253245
253245
253245
253245
253245
253245
253245
253245
253245
253419
1.29628e+06
253245
253245
253245
253245
253245
253245
253245
253245
253245
253245
253245
253245
253245
253245
253245
253245
253245
253245
253245
253245
253245
253245
253245
260283
253245
253245
253245
253245
253245
253245
253245
253245
253245
253245
253245
253245
253245
253245
253245
253245
253245
253245
253245
253245
253245
253245
253245
253844
253245
253245
253245
253245
253245
253245
253245
253245
253245
253245
253245
253245
253245
253245
253245
253245
253245
253245
253245
253245
253245
253245
253245
253245
253245
253245
253245
253245
253245
253245
253245
253245
253245
253245
253245
253245
253245
253245
253245
253245
253245
253245
253245
253245
253245
253245
253245
253245
253245
253245
253245
253245
253245
253245
253245
253245
253245
253245
253245
253245
253245
253245
253245
253245
253245
253245
253245
253245
253245
253245
253245
253245
253245
253245
253245
253245
253245
253245
253245
253245
253245
253245
253245
253245
253245
253245
253245
253245
253245
253245
253245
253245
253245
253245
253245
253245
253245
253245
253245
253245
253245
253245
253245
253245
253245
253245
253245
253245
253245
253245
253245
253245
253245
253245
253245
253245
253245
253245
253245
253245
253245
253245
253245
253245
253245
253245
253245
253245
253245
253245
253245
253245
253245
253245
253245
253245
253245
253245
253245
253245
253245
253245
253245
253245
253246
253245
253245
253245
253245
253245
253245
255534
253245
253314
275815
253245
253245
253245
253245
253245
253245
253245
253245
253245
253245
253245
253245
253245
253245
253245
253245
253245
253245
253245
253245
253245
253245
253245
253245
253245
253245
253245
253245
253245
253245
253245
253305
4.87415e+06
253245
253245
253245
328436
253245
253245
253245
253872
253245
253245
253245
253245
253245
253245
253245
253245
3.59761e+06
1.54902e+06
271014
257385
253245
253249
5.27615e+06
4.22471e+06
3.843e+06
3.36328e+06
3.55733e+06
4.96442e+06
4.70526e+06
3.90893e+06
358095
2.79657e+06
2.72934e+06
3.54316e+06
2.95375e+06
562231
507900
253594
253259
492224
253259
253260
517445
397093
253397
253552
253416
257923
481195
253258
4.03841e+06
3.41335e+06
3.8949e+06
5.26309e+06
4.95428e+06
3.9788e+06
1.51554e+06
4.06204e+06
3.09667e+06
3.11724e+06
1.82327e+06
363618
302171
254254
427152
253258
253250
253253
426869
253260
518391
253386
422193
257233
253260
509054
253496
260197
479380
253544
253258
253260
507769
253549
261514
2.7104e+06
253633
1.95292e+06
2.72719e+06
2.36695e+06
406748
254677
253535
253247
359831
476723
370133
253248
253256
2.74026e+06
2.68019e+06
2.67084e+06
406529
301040
254672
253668
5.45154e+06
3.79417e+06
4.43654e+06
4.98618e+06
1.18542e+06
4.01573e+06
5.22204e+06
3.84403e+06
293615
2.80512e+06
310419
3.62531e+06
2.12016e+06
253857
253496
253247
344532
368000
253309
253772
253262
350747
253247
278742
253246
343618
253255
253249
3.38611e+06
3.33651e+06
3.39954e+06
3.73623e+06
3.62923e+06
3.71621e+06
3.63795e+06
3.40777e+06
3.41292e+06
3.46072e+06
3.65478e+06
3.74356e+06
3.79879e+06
3.70272e+06
3.60772e+06
3.2825e+06
3.3321e+06
4.51852e+06
3.77669e+06
3.77081e+06
4.54308e+06
3.55602e+06
3.46722e+06
3.50897e+06
3.85904e+06
3.86256e+06
3.93087e+06
3.77386e+06
3.43366e+06
3.35501e+06
3.42056e+06
3.76779e+06
3.72704e+06
3.8023e+06
3.67342e+06
2.62906e+06
1.59396e+06
331918
273810
253653
253416
253248
3.5703e+06
3.40634e+06
3.42292e+06
3.96202e+06
4.56301e+06
3.93867e+06
4.59472e+06
3.5784e+06
3.28128e+06
3.32021e+06
3.79222e+06
4.51773e+06
4.53644e+06
3.78707e+06
2.90964e+06
2.72448e+06
2.93624e+06
3.05059e+06
2.7247e+06
3.05911e+06
2.70848e+06
3.61394e+06
3.42627e+06
3.46807e+06
4.58256e+06
3.96654e+06
4.03107e+06
4.65238e+06
2.70631e+06
2.90952e+06
2.94088e+06
2.72591e+06
3.0551e+06
3.03896e+06
2.71116e+06
258928
253248
253250
369624
253245
253245
264378
253333
366918
255738
253245
259229
253245
264348
2.39529e+06
253389
1.88963e+06
1.19537e+06
301146
253498
253247
3.66443e+06
3.50813e+06
3.38951e+06
3.79047e+06
4.62612e+06
4.56912e+06
3.77856e+06
3.61987e+06
3.45806e+06
3.43957e+06
4.00088e+06
4.76259e+06
4.0656e+06
4.65577e+06
3.56225e+06
3.69604e+06
3.50941e+06
4.10845e+06
4.89939e+06
4.75239e+06
4.22543e+06
3.53403e+06
3.71848e+06
3.40949e+06
3.75297e+06
4.65092e+06
4.58516e+06
3.71549e+06
3.4529e+06
3.4535e+06
3.49038e+06
3.79256e+06
3.86267e+06
3.9752e+06
3.89348e+06
4.49767e+06
4.06492e+06
361351
5.34858e+06
667022
254099
4.02155e+06
3.04192e+06
2.75301e+06
2.97832e+06
3.01967e+06
2.56899e+06
2.94913e+06
2.66347e+06
3.60953e+06
3.67679e+06
3.68602e+06
3.97265e+06
4.03455e+06
4.20037e+06
4.12512e+06
3.04194e+06
2.75814e+06
2.98247e+06
2.99276e+06
2.55664e+06
2.66244e+06
2.90235e+06
1.48018e+06
253246
282009
253395
253407
284040
253246
2.71447e+06
2.66143e+06
2.71967e+06
2.52877e+06
2.50567e+06
2.30539e+06
2.26502e+06
254175
253245
253245
254321
253282
253245
256783
4.34972e+06
3.94121e+06
504545
5.74724e+06
3.6438e+06
325021
253682
3.49714e+06
3.58206e+06
4.166e+06
4.90832e+06
4.18731e+06
4.39627e+06
5.0694e+06
2.66704e+06
2.64968e+06
2.71732e+06
2.53269e+06
2.51395e+06
2.27504e+06
2.31107e+06
5.18712e+06
4.3509e+06
4.98804e+06
253267
255538
520760
255972
1.04601e+06
254813
253253
253245
253358
274595
253246
1.80426e+06
259219
253301
274204
5.3958e+06
253457
2.71532e+06
260729
5.37479e+06
5.17097e+06
253466
253322
2.74315e+06
2.01175e+06
3.52104e+06
3.72164e+06
3.56894e+06
4.17804e+06
4.35382e+06
4.49488e+06
4.06563e+06
253245
253245
254023
284655
258782
253247
253245
4.28869e+06
4.11128e+06
4.96474e+06
5.09238e+06
5.11459e+06
4.25795e+06
4.1376e+06
4.13692e+06
5.11789e+06
4.28549e+06
4.35429e+06
5.02527e+06
5.17553e+06
4.19976e+06
3.67072e+06
4.36851e+06
3.8482e+06
4.68624e+06
3.71218e+06
3.50311e+06
4.67826e+06
2.83008e+06
3.16496e+06
2.82622e+06
2.38564e+06
2.79964e+06
2.51145e+06
2.05402e+06
2.72029e+06
2.70257e+06
2.70436e+06
2.31156e+06
2.44131e+06
2.15616e+06
1.95157e+06
4.08806e+06
3.79148e+06
3.64669e+06
5.07559e+06
4.41327e+06
4.68879e+06
5.24293e+06
253650
253247
253246
253670
253245
272756
253246
3.37171e+06
274669
253291
1.55474e+06
253421
253245
259779
4.35052e+06
4.30744e+06
5.0262e+06
5.22496e+06
5.16065e+06
4.44503e+06
4.20114e+06
280102
253245
253865
282292
253844
253246
253245
4.45042e+06
4.44525e+06
5.35871e+06
5.12351e+06
5.25405e+06
4.59351e+06
4.29642e+06
2.71112e+06
2.73069e+06
2.68727e+06
2.30567e+06
2.44832e+06
2.16181e+06
1.93827e+06
3.81044e+06
3.96624e+06
3.78721e+06
4.46707e+06
4.70878e+06
4.83984e+06
4.35693e+06
3.69507e+06
4.52026e+06
4.18955e+06
4.69393e+06
3.59988e+06
3.30842e+06
4.63625e+06
3.12144e+06
3.10442e+06
2.83097e+06
2.34494e+06
2.71732e+06
2.3708e+06
1.95119e+06
253245
253585
253245
253245
253303
270279
253246
275839
253245
253730
253300
253247
253247
253245
2.95093e+06
264216
253337
255657
1.02746e+06
253266
253245
253697
253246
263803
253245
253245
253302
253245
254832
1.47113e+06
316977
253247
253245
253433
253255
253326
4.8968e+06
2.32781e+06
253279
253246
1.47642e+06
308327
4.8073e+06
5.18486e+06
5.35941e+06
4.67229e+06
5.35541e+06
4.78232e+06
5.1878e+06
1.24437e+06
255703
253268
253300
253246
2.07561e+06
284833
5.19502e+06
5.37751e+06
4.81092e+06
4.88453e+06
4.64368e+06
5.39848e+06
5.21358e+06
3.746e+06
4.53227e+06
4.9299e+06
4.6941e+06
5.19545e+06
5.03325e+06
5.19669e+06
4.45928e+06
5.29172e+06
4.59386e+06
4.80049e+06
5.37684e+06
5.29494e+06
4.67794e+06
4.65304e+06
5.45053e+06
4.7955e+06
5.05252e+06
5.57143e+06
5.44234e+06
4.92714e+06
2.62113e+06
2.62355e+06
2.71903e+06
2.03033e+06
1.56992e+06
1.56736e+06
1.05352e+06
3.99422e+06
4.28328e+06
4.44893e+06
4.75379e+06
4.89809e+06
5.25545e+06
5.1792e+06
253249
256875
253245
253260
789566
253246
265601
253250
807852
499513
253246
253245
265653
257309
3.94874e+06
3.84566e+06
4.85942e+06
3.0633e+06
4.10962e+06
4.529e+06
2.28738e+06
265985
253314
253245
255718
253246
253245
253260
1.35652e+06
253281
253373
253726
253245
253386
253245
1.17491e+06
253729
253391
253386
253285
253245
253245
253245
701801
253355
253644
1.06472e+06
253291
253245
1.14079e+06
253262
253292
746268
253245
253245
253372
262662
499785
496145
509699
263974
263393
263236
4.85993e+06
5.16863e+06
5.3076e+06
4.55478e+06
5.34404e+06
4.94595e+06
5.18227e+06
3.11733e+06
4.46808e+06
2.90763e+06
1.30982e+06
4.44727e+06
1.24344e+06
3.15977e+06
4.97989e+06
5.36707e+06
5.20991e+06
4.49187e+06
5.39989e+06
5.2189e+06
5.11303e+06
4.45564e+06
1.29286e+06
3.14096e+06
3.06561e+06
2.82749e+06
4.41514e+06
1.1974e+06
508032
521682
518844
264401
263736
263783
264502
4.84921e+06
4.40553e+06
4.03005e+06
5.02587e+06
5.23756e+06
5.36155e+06
5.32753e+06
2.71479e+06
2.64448e+06
2.4362e+06
2.07004e+06
1.66243e+06
1.61895e+06
1.14918e+06
393014
260212
405419
258861
365649
258341
257263
412519
261216
470216
423265
261848
259623
259159
2.89294e+06
4.13866e+06
732674
2.55702e+06
4.31904e+06
999799
2.58849e+06
2.98619e+06
4.24268e+06
2.70484e+06
829865
4.37821e+06
1.07874e+06
2.73836e+06
2.21056e+06
1.85129e+06
766002
529095
719854
2.26223e+06
1.79324e+06
526657
253282
253245
253251
254230
253245
253245
1.85266e+06
762661
2.25805e+06
2.19461e+06
525775
708505
1.79144e+06
495416
504712
508156
263989
263174
263277
263904
521441
514078
517645
264427
264416
264570
264352
5.0435e+06
5.24001e+06
5.33627e+06
4.56178e+06
5.09736e+06
5.25462e+06
4.94896e+06
2.68027e+06
2.30453e+06
2.80286e+06
2.00805e+06
860101
1.26772e+06
1.51772e+06
521431
507205
507579
264377
264490
263714
263748
495444
498839
484686
263940
262609
263346
263200
486631
497048
486632
262856
263476
262855
262444
504521
494995
492026
263968
263894
263163
263255
2.73177e+06
2.74511e+06
2.41924e+06
1.76275e+06
982637
1.83217e+06
908469
427613
473759
422809
261951
262140
259793
259558
2.41391e+06
2.72232e+06
2.36065e+06
980485
1.82733e+06
1.7578e+06
909083
3.86608e+06
4.88497e+06
4.7987e+06
2.74997e+06
3.81414e+06
1.83352e+06
4.38406e+06
4.25921e+06
4.71936e+06
4.85614e+06
5.15578e+06
5.26862e+06
5.59131e+06
5.5868e+06
265635
253245
253245
253247
253653
253310
253245
261645
436443
260230
480719
455417
262398
261136
1.92203e+06
1.40396e+06
2.04586e+06
569682
1.0979e+06
656619
357091
253250
253245
253245
253245
253259
253245
256359
254764
253245
253251
253245
253259
253245
256366
468359
515673
495587
263067
264138
263054
261656
458298
260936
449973
469451
476206
262268
261907
2.07329e+06
1.401e+06
481981
459290
618083
1.82177e+06
1.64864e+06
2.03664e+06
454176
1.36174e+06
450973
596625
1.63445e+06
1.75046e+06
483418
462900
462857
262524
262589
261530
261572
5.12521e+06
5.20644e+06
5.07257e+06
5.21781e+06
3.40839e+06
4.94179e+06
4.98986e+06
435655
261110
454850
480059
465105
261600
262367
462498
261567
462788
483031
481051
262517
262570
2.56426e+06
2.22341e+06
2.68087e+06
1.58968e+06
558436
754789
1.29321e+06
2.22537e+06
1.97762e+06
2.56332e+06
1.59383e+06
577161
1.31923e+06
763742
5.23202e+06
5.14406e+06
5.27441e+06
5.43374e+06
3.12987e+06
4.90323e+06
4.94754e+06
5.33608e+06
5.47793e+06
4.52608e+06
5.56708e+06
5.52721e+06
5.18249e+06
5.25423e+06
2.59783e+06
2.57732e+06
2.97942e+06
1.77468e+06
681738
986867
1.34338e+06
254136
253511
253245
253245
253245
253245
253266
5.22636e+06
5.17265e+06
5.07375e+06
5.03736e+06
4.72368e+06
4.03693e+06
4.48199e+06
424972
259381
416167
372518
380488
257887
257569
427508
259966
429205
381733
384046
258022
257917
406245
378165
427325
261146
259737
258842
257701
253247
5.28261e+06
347911
253315
253245
2.16112e+06
253937
253305
253246
260048
253261
253245
253245
253245
253253
260726
531537
253245
253245
253298
253246
352494
253258
253293
253245
253246
253245
253245
253251
253245
253245
488114
253287
257930
253246
381912
384039
258021
429268
427802
259875
259968
377982
405939
457329
261130
257695
259730
258831
422325
475908
473210
261925
259762
259538
262102
411222
469072
456017
261156
259579
259107
261794
364817
258825
404527
391900
434982
260162
258297
5.23892e+06
5.32128e+06
5.04051e+06
4.94083e+06
5.3202e+06
5.33776e+06
4.27421e+06
253245
274484
259922
481826
253249
255724
253245
256506
253250
253245
564369
253250
256746
253245
396495
259391
417296
371481
352551
257505
256792
253245
369120
256213
253245
253245
254972
253279
253245
258692
254953
253245
253245
253294
253259
1.60411e+06
253248
253563
253245
253245
270274
253388
253587
5.49685e+06
1.653e+06
253246
259081
253245
253280
4.91186e+06
5.37683e+06
5.42344e+06
4.84334e+06
5.58446e+06
5.45294e+06
4.00382e+06
253245
253245
253456
253245
253245
253264
253245
253247
254670
253245
253245
254809
253245
253266
3.81274e+06
483433
2.09756e+06
1.4367e+06
948477
328431
3.26122e+06
258520
352937
256805
257516
371788
417756
259409
3.98917e+06
566309
2.32271e+06
1.72184e+06
1.21098e+06
3.54508e+06
374386
1.04695e+06
357683
1.43804e+06
954651
270116
287997
663328
1.48675e+06
384229
1.42182e+06
299781
1.01169e+06
945233
292432
1.02067e+06
342715
1.26941e+06
807046
268071
280076
620987
1.72496e+06
1.92672e+06
2.32266e+06
467760
954257
567696
317136
4.84324e+06
5.38307e+06
5.01711e+06
5.24282e+06
4.83164e+06
4.43119e+06
5.36628e+06
5.22881e+06
5.39335e+06
5.20068e+06
3.0128e+06
3.70039e+06
3.16016e+06
3.56969e+06
5.35217e+06
5.21115e+06
5.17375e+06
3.05163e+06
3.69553e+06
3.16565e+06
3.59198e+06
1.49104e+06
949183
1.00674e+06
386029
405645
298474
292176
303921
256095
333188
257335
367353
328404
255931
4.86641e+06
5.34308e+06
5.09392e+06
2.68147e+06
2.72683e+06
2.162e+06
3.24835e+06
253245
1.14888e+06
255714
253245
253245
263778
253265
253245
253258
253245
253246
258692
253245
253295
253245
253245
254112
253245
253245
253246
253255
5.32319e+06
4.08141e+06
3.50741e+06
2.55805e+06
4.41343e+06
5.24412e+06
4.67546e+06
1.48951e+06
383389
1.4235e+06
946261
299953
292331
1.01419e+06
311849
367741
316397
257328
255325
257037
255480
364968
317207
313430
257404
255371
257203
255503
5.50267e+06
2.19726e+06
3.25845e+06
3.82265e+06
5.31708e+06
4.28463e+06
4.53928e+06
334695
974319
1.32172e+06
815391
266066
277728
588414
257357
328786
255944
333725
304213
256113
255077
387491
310469
343547
256429
258064
256431
255274
2.35158e+06
1.08259e+06
1.97363e+06
404080
946415
586140
301141
364686
316995
313345
257387
257194
255369
255497
358838
315973
311321
257300
257002
255307
255466
979442
1.52963e+06
2.32361e+06
382665
894054
531393
290174
5.36555e+06
3.52845e+06
5.22442e+06
4.69386e+06
2.62426e+06
2.02784e+06
5.03648e+06
1.40417e+06
921492
996391
376258
401738
297277
289448
5.29645e+06
5.70953e+06
5.42757e+06
5.44151e+06
4.91019e+06
4.39858e+06
5.66883e+06
5.29885e+06
4.87658e+06
5.07676e+06
2.77871e+06
2.86154e+06
2.31889e+06
3.32752e+06
4.79166e+06
4.31605e+06
2.35596e+06
3.28024e+06
1.26128e+06
1.99032e+06
509917
327935
296764
333822
256137
254691
255928
254809
297940
333813
336178
256216
254788
256128
254849
325628
283493
312288
254612
255837
255361
254335
2.17305e+06
747439
1.16632e+06
406369
581671
303264
273912
993726
339871
1.26152e+06
800746
267112
279444
605091
291722
350609
304435
255909
256678
255057
254612
253279
253245
253245
253587
253246
253245
253245
253245
959721
259144
253245
254864
253245
253255
302832
323715
290796
255012
256485
255758
254591
304445
291730
328807
255057
256682
255912
254612
323131
343634
290484
302368
256455
254997
254580
3.3358e+06
5.63074e+06
5.40655e+06
4.71714e+06
2.35277e+06
1.74365e+06
5.16288e+06
4.96641e+06
4.67529e+06
4.27324e+06
2.90241e+06
2.00656e+06
1.49261e+06
3.44806e+06
5.23003e+06
3.63735e+06
4.33488e+06
1.97605e+06
3.87504e+06
2.87418e+06
1.07728e+06
1.29203e+06
817831
632833
346180
303565
280528
268526
4.66586e+06
3.96296e+06
1.73678e+06
2.78772e+06
856543
1.45534e+06
361017
4.50925e+06
4.365e+06
3.88572e+06
2.2067e+06
1.70272e+06
1.06348e+06
1.44111e+06
253245
253245
255976
256167
253245
253246
253245
253250
253245
253246
257988
253250
253246
253245
253245
253979
253259
253245
253245
253251
253245
1.78419e+06
525472
781763
332519
427974
274559
263064
4.44052e+06
4.26378e+06
3.73438e+06
2.0255e+06
1.52014e+06
906621
1.26787e+06
253245
253250
253245
253245
253253
253245
253245
674893
258734
417368
258764
417051
300470
254838
1.0357e+06
1.84161e+06
666522
261495
2.82759e+06
287558
514143
718033
260419
458422
259618
439423
313930
255282
4.99058e+06
5.30541e+06
5.43037e+06
4.74742e+06
1.27883e+06
3.2918e+06
2.98056e+06
4.54504e+06
2.64833e+06
4.47259e+06
1.80706e+06
582223
1.91172e+06
546651
738372
316866
447380
260815
274927
259864
255362
253385
253245
253245
255249
253245
253245
253245
253245
253245
253245
256638
253247
253245
253245
253717
254265
281485
274848
296511
254804
254018
682648
492720
312702
323530
270201
261601
255562
1.15856e+06
309239
367134
282997
313398
257459
255314
1.35983e+06
461238
430078
365461
347190
259884
261159
535571
281914
255423
257874
263234
319239
390682
779431
503968
1.40864e+06
257411
388468
272821
2.41982e+06
268379
254327
283237
302067
278588
254997
254153
268048
305245
284670
255089
253754
254365
254149
738545
597289
1.39511e+06
351165
255838
273051
265774
3.06923e+06
2.19339e+06
4.77042e+06
3.7175e+06
321219
933924
1.67874e+06
283062
254986
301727
278416
268294
254147
253769
4.86266e+06
5.36639e+06
5.70005e+06
4.66698e+06
919703
2.97525e+06
2.51009e+06
3.83759e+06
2.26469e+06
4.22947e+06
1.46237e+06
345041
431529
1.07437e+06
4.54203e+06
2.56951e+06
4.45218e+06
1.75162e+06
571339
1.89507e+06
518488
3.9548e+06
2.41307e+06
4.29114e+06
1.56633e+06
378777
1.20601e+06
470557
268038
305200
278728
255088
254364
254148
253754
263576
282164
264404
254199
254271
253618
253589
261765
270138
259280
254045
253835
253524
253439
1.44607e+06
461063
427483
365686
346383
259786
261156
903740
315818
373048
285847
315776
257676
255553
1.13748e+06
376174
301151
294013
356325
256500
257098
1.07978e+06
377332
301632
360119
295514
256621
257137
944431
271625
295791
328900
284088
255654
254621
253245
253246
253300
253245
253245
259680
253957
253245
253245
253245
253313
253245
253245
253245
253258
253245
253245
253341
253245
253245
253245
492219
254441
293447
263548
261888
529954
286619
293294
263505
528770
492265
254446
261910
286765
422570
265469
256292
254054
259076
342577
275891
441952
256345
254469
270628
289138
259547
345174
282247
263482
280271
254202
253617
253584
254272
281994
263502
279884
254192
253616
253586
254265
598283
1.23923e+06
511455
321572
254852
265846
262071
1.87055e+06
2.66691e+06
4.7004e+06
3.47234e+06
289733
739975
1.28806e+06
397273
2.7816e+06
2.25965e+06
1.25159e+06
318006
287765
1.67475e+06
280266
263463
264380
254202
254274
253617
253584
457274
2.41452e+06
906392
502534
279517
315089
259530
3.50147e+06
1.79968e+06
2.95769e+06
573008
397533
327953
786000
913318
269323
290185
281750
322921
255464
254438
5.03235e+06
3.95555e+06
3.40333e+06
3.17059e+06
2.57638e+06
736996
1.06541e+06
271662
273220
260847
253897
253954
253494
253471
253287
253245
253257
253298
253245
253259
253245
253245
253245
253246
253245
253245
253245
253245
253245
253245
253245
253245
253254