/*--------------------------------*- C++ -*----------------------------------*\
  =========                 |
  \\      /  F ield         | OpenFOAM: The Open Source CFD Toolbox
   \\    /   O peration     | Website:  https://openfoam.org
    \\  /    A nd           | Version:  9
     \\/     M anipulation  |
\*---------------------------------------------------------------------------*/
FoamFile
{
    format      ascii;
    class       volScalarField;
    location    "0.002";
    object      rho.c4;
}
// * * * * * * * * * * * * * * * * * * * * * * * * * * * * * * * * * * * * * //

dimensions      [1 -3 0 0 0 0 0];

internalField   nonuniform List<scalar> 
16153
(
2.9352
4.01018
3.04888
2.10014
2.20767
5.55695
4.57834
4.58442
5.46576
32.7836
47.9816
0.268962
1.90521
2.08759
2.27939
2.71037
2.29284
3.44361
3.14844
4.35008
4.48778
13.9517
13.2738
25.5016
17.7107
13.3633
1.35392
1.57892
1.68483
1.96117
1.55588
1.48657
1.73319
1.15863
1.98458
1.66266
1.63575
1.49518
1.70103
1.08969
1.26733
1.92867
1.62337
2.54957
1.13759
2.19068
1.68979
1.45873
2.88048
2.9435
2.15137
2.482
1.85397
1.72499
2.88379
3.80186
2.68051
6.25093
2.14831
5.2706
3.60846
4.17149
9.1608
11.3587
8.43162
7.81333
5.23296
6.627
17.9387
43.0812
29.2604
10.8632
9.63872
15.5292
19.3882
9.28846
10.6178
20.3638
1.2776
0.501021
2.02205
0.923052
3.22192
3.76849
3.71289
13.7872
25.0155
54.2945
0.486425
1.04136
1.49729
0.66473
1.47618
1.45034
0.700196
1.6452
0.858226
2.08893
2.63934
2.05594
4.60067
2.67037
2.60196
6.52183
2.783
7.32673
3.43645
6.38137
16.9962
20.017
10.0972
20.6512
2.58929
4.63655
8.50303
24.5582
4.69689
27.604
34.4613
27.2598
32.9126
36.8219
1.05191
0.786647
0.663353
0.522376
0.818847
0.693386
1.01016
2.80006
1.3994
1.3319
1.27275
1.91763
1.90915
1.96184
14.058
5.78245
7.38075
5.40984
10.4489
8.0917
10.3408
25.9205
17.5007
19.1123
19.3026
21.2587
22.7888
24.2929
19.2138
35.297
41.4367
46.7258
48.9618
40.672
40.3509
42.9215
44.2923
0.990608
1.02532
0.71131
0.507221
1.04938
0.741098
0.956997
1.06833
0.554113
1.25828
0.973217
1.11405
0.811983
1.2321
1.16407
0.576094
1.07967
0.973424
0.898233
0.776677
1.42473
1.86818
1.49802
1.24739
1.14556
1.5016
1.82533
1.65207
2.32337
1.53931
2.68247
2.92728
2.22265
2.19173
2.85696
4.36578
1.79887
3.96126
4.85427
2.6923
3.05576
6.97372
4.09197
3.24094
3.98423
3.76196
3.46975
3.84979
5.26569
4.79043
4.97976
5.27376
8.40105
4.52157
6.68832
5.57968
16.5813
7.5391
13.6011
15.5391
10.6606
13.023
18.3856
4.45635
2.81291
3.83324
2.92217
3.9241
3.01877
4.48619
8.47413
6.85074
6.84856
8.65577
5.67891
3.56275
4.58583
8.0536
3.5808
5.79294
7.78173
11.5816
17.4882
12.0276
16.6165
9.76348
6.30542
11.2268
12.4042
6.92378
8.28571
16.3071
14.9896
18.9212
18.1966
31.175
11.9387
23.7082
23.3831
31.2567
26.1785
34.2454
35.5896
28.6423
30.1187
36.2092
23.7485
34.1761
40.4903
21.8564
41.3878
33.7448
35.4881
55.2225
0.0439121
27.6248
49.9167
2.86827
28.3366
0.10352
33.5838
36.7165
28.1294
37.3855
41.9445
38.9681
42.1977
3.51048e-07
47.9222
0.224131
1.35743
1.49854
1.56556
1.5231
1.45708
1.4444
1.74354
3.22094
1.63002
3.34897
5.44622
12.3946
5.62881
4.51208
13.5425
14.094
1.57306
1.50755
1.3705
1.37523
1.48032
1.38021
1.60897
1.54481
1.41966
1.44
1.49049
1.457
1.41665
1.51589
1.2878
1.36261
1.56849
1.59199
1.43884
1.215
1.61086
1.1004
1.57735
0.89739
1.55334
1.03422
1.6064
0.955816
0.925772
0.832279
1.48011
1.40013
0.903158
0.829305
1.4342
1.01101
1.37982
0.996002
1.59078
0.876846
1.45636
1.17126
1.76971
1.18648
1.86798
1.95117
1.40989
1.43392
2.34807
2.36551
2.48689
2.3836
4.70553
1.79648
3.18101
3.42939
1.85049
1.44009
1.95737
2.03695
1.65818
1.66903
2.19396
2.15518
2.50797
2.49392
3.27909
1.99838
2.62168
2.63035
8.6401
3.88916
8.93713
9.36765
6.07686
5.97241
15.0159
3.37814
4.42054
7.10477
3.40984
4.91474
4.7535
6.72271
20.9329
50.4013
53.369
47.0143
19.1531
25.5093
26.4638
4.62465
13.4832
9.82421
1.69616
23.7416
0.000110883
27.0724
1.4402e-11
39.4052
7.59855e-07
2.22045e-16
5.38433e-15
2.34068
5.41661
3.65068
6.19375
5.93201
13.7759
8.46374
14.659
5.39454
12.2071
18.0714
30.7347
11.7405
21.595
20.3185
26.6498
21.4509
23.5124
24.6774
20.1884
4.18723
0.370447
40.6918
0.71459
49.7955
0.0152666
9.96135
13.7315
17.4383
6.90658
11.029
14.6195
18.2266
18.3897
21.5003
24.912
23.1806
31.6851
27.5706
33.4004
27.9657
28.7698
0.374967
23.1163
1.09714
0.0925603
0.00218445
0.249224
2.38815e-05
1.52453e-05
0.00243574
0.000515024
3.26343e-11
7.02445e-09
3.56227
0.0544859
0.0166377
0.0772802
0.000825058
1.60302
1.13705
2.76471
2.42002
1.18232
2.85432
1.54574
1.79669
2.76891
1.73977
4.22073
1.34471
3.24086
2.26305
9.35197
8.12424
7.85124
6.0467
8.22268
7.94163
9.2597
10.0794
6.70832
10.9553
10.5932
8.93366
8.63123
12.2125
5.08196
2.51046
6.24327
8.59512
3.20697
4.00164
10.1178
8.53515
13.3947
10.4409
21.438
6.64085
16.0344
13.5168
21.4334
14.7129
14.2505
16.6182
16.1671
19.9165
19.3911
19.9004
14.3219
23.2323
20.4967
18.1177
16.6131
22.5887
19.8725
20.3733
19.1584
22.2239
17.6476
21.6003
20.5905
28.14
22.428
25.1289
29.3313
23.4183
27.3454
29.7665
33.0984
34.7874
37.2704
0.749878
32.5704
12.4372
38.4447
45.5824
41.5677
43.2563
42.7457
44.6075
44.046
44.263
28.8354
45.5965
2.49487
0.0163155
46.5305
12.1763
0.107283
5.31161
7.76637
4.74566
5.46578
7.85527
9.11094
9.01272
11.3376
14.1839
14.4408
16.6252
19.3805
21.3207
15.8692
25.75
26.1684
22.8895
24.2716
24.5289
25.4637
27.5877
14.8239
0.577938
6.55467
1.91082
0.00758426
0.000968687
0.0551515
39.2235
40.9903
43.3648
40.6646
45.2109
9.88529
43.2376
6.55895e-07
1.26536e-13
5.38358e-13
2.46793e-09
2.41395e-11
2.22045e-16
2.22045e-16
0.0537761
1.21263e-05
2.72948e-05
4.75233e-11
5.35172
7.96314
10.5145
6.18154
8.55775
9.89023
11.9816
19.7141
25.6648
26.5009
22.3851
24.2708
26.2103
28.1818
22.1745
23.648
5.5869
22.9262
24.2295
14.5832
1.97081
0.433174
0.000115925
2.56742e-08
0.0250592
3.69083e-05
1.16378e-06
7.46007e-08
20.1465
0.00150808
0.000251566
3.22211
1.33461
0.0126954
7.83586e-06
21.8984
0.145773
0.0129548
7.39548
19.4717
0.034905
0.00306767
1.56808
0.00405036
0.000388316
0.123855
0.00587937
1.47398e-05
7.8263e-08
0.000178848
6.5236e-10
2.88005e-10
1.8435e-06
4.60597e-08
4.23428e-13
1.56093e-14
1.7617e-11
2.22045e-16
2.22045e-16
2.22045e-16
1.61034e-15
2.22045e-16
2.22045e-16
7.40525e-06
2.59314e-08
7.34737e-16
2.22045e-16
6.90458e-07
7.90885
4.61646
38.3426
0.0154898
46.2212
46.724
0.304507
0.260898
3.72243
0.00106174
48.5402
44.6485
18.3211
30.422
17.8838
30.2695
0.134167
0.000450179
1.34555e-11
2.15486e-07
0.204831
3.00522e-05
22.6562
20.344
1.01863
18.7082
23.2062
21.0119
0.677561
26.3823
27.1441
0.0454155
33.2193
0.268128
3.29296
0.000242747
0.0025055
0.000427487
5.29665e-08
0.0191584
2.62826e-06
8.38695e-07
7.56289e-12
6.46801e-09
2.1889e-09
1.71306e-15
8.86019e-08
1.52281e-12
1.08905e-13
2.22045e-16
1.12406e-13
0.00712154
0.000253208
6.25724e-08
2.29964e-09
8.44791e-09
1.70635e-12
3.10026e-05
6.0001e-06
1.18004e-09
2.22045e-16
2.22045e-16
4.63922e-12
2.22045e-16
8.80214e-16
2.22045e-16
2.22045e-16
2.22045e-16
2.22045e-16
2.22045e-16
2.22045e-16
2.22045e-16
2.22045e-16
2.22045e-16
2.22045e-16
2.22045e-16
0.00110338
6.4569e-06
3.36243e-08
2.71971e-10
3.93681e-12
2.22045e-16
2.22045e-16
2.22045e-16
2.22045e-16
2.22045e-16
1.99607
1.32736
1.44672
1.18463
1.30052
1.63044
1.35789
1.45232
1.53957
2.22045e-16
2.22045e-16
2.22045e-16
2.22045e-16
2.22045e-16
2.22045e-16
2.22045e-16
2.22045e-16
2.22045e-16
2.22045e-16
2.22045e-16
7.28282e-10
2.53095e-11
2.22045e-16
2.22045e-16
2.22045e-16
4.83875
0.00501396
4.11023e-08
0.0638577
86.5097
0.00203116
66.5088
0.0150743
1.38861e-06
2.65268e-08
4.24423e-14
4.00613
4.36033
10.6672
25.2764
75.9633
83.3435
34.7356
0.00913301
0.00168064
3.80222e-07
23.6532
81.8171
16.9118
28.5886
37.7858
31.1696
41.4765
61.2509
50.546
2.83021
2.74686
3.74402
5.30786
2.69957
5.61471
5.07196
4.14219
3.73281
4.32744
4.14655
4.89595
4.4704
5.04705
3.62898
4.03678
4.44406
6.22496
4.8796
6.19128
6.10268
5.63149
5.34792
7.23956
6.43033
6.6639
5.50359
8.01643
8.35221
6.59215
6.61202
5.70951
7.9527
6.72287
6.84443
11.2087
7.86248
9.63702
8.98605
2.54187
3.32097
4.69725
4.01348
13.0705
1.51623
2.95697
1.80589
2.0376
4.50036
2.49012
2.53519
4.29539
2.5039
5.61194
2.20446
2.18636
2.50203
2.60977
2.24756
2.56373
2.1513
3.30645
2.87433
3.29574
3.7816
2.84834
3.24686
3.87867
4.39984
3.83468
5.38401
4.73509
4.32062
3.82689
5.49447
4.79639
3.29288
5.26657
3.97165
4.41014
3.36888
5.53458
39.6756
53.9708
1.83806
1.81581
1.47003
1.55967
1.8681
1.51089
1.7915
2.09519
2.36521
2.41954
2.04843
1.74943
1.41092
1.4474
1.70851
2.29962
2.72616
2.55887
2.89378
2.35047
2.66735
2.50482
1.92577
1.64156
2.14718
1.75708
1.96078
1.59059
2.10983
2.18941
2.7718
2.52651
2.40276
1.83271
1.68866
1.52403
2.016
2.75538
2.41516
2.01691
2.27316
2.40001
2.70591
2.33612
3.28528
3.21089
2.77125
3.86619
2.72509
1.96099
2.32125
2.32047
3.77613
4.19458
3.73334
5.06828
3.54632
4.53609
4.12254
3.08502
2.42027
3.00406
2.91691
2.90668
2.64548
3.32376
3.87112
5.48705
4.66508
4.45379
3.18226
3.21857
2.74106
3.67094
3.62925
3.05835
3.15005
2.54958
3.50561
3.05119
3.31694
5.75574
6.33611
5.09447
7.13785
4.89136
3.81917
4.25418
4.49615
4.41241
4.58924
3.45506
5.38834
3.67797
5.47916
4.40231
3.71066
2.52668
2.83735
3.58944
2.95677
3.45194
3.7867
6.32087
8.2069
7.74058
6.82391
5.48373
5.89219
5.17718
6.05891
9.00617
8.77349
7.48985
10.2252
5.99357
4.42657
4.92256
9.32464
3.87156
6.769
8.23177
12.2687
20.1134
13.8201
17.7718
47.5839
26.0546
39.7575
36.1061
23.0066
44.4416
35.5647
1.00274
0.980983
1.17826
1.43812
1.75673
2.41101
2.09642
2.52234
2.41413
2.27961
2.3417
2.37107
3.43741
0.821667
1.1134
1.48385
0.915637
1.73359
1.86339
1.86256
1.75343
1.59265
1.09395
1.00676
1.01616
1.08474
1.08035
1.00235
1.00927
1.08552
1.04022
0.974574
1.07736
0.928784
1.00175
0.892746
1.06055
1.55992
1.32326
1.74761
1.52048
1.3356
1.79467
1.53881
1.59281
1.59854
1.42184
2.05064
1.36999
1.88251
1.67315
1.76305
1.44002
2.24289
1.92789
1.7483
1.40046
2.37783
1.68052
1.921
1.15698
2.39951
1.28907
2.42872
1.51674
1.3589
1.08693
2.26482
1.64002
1.39284
1.08456
2.06425
1.39423
1.5714
1.25442
1.86
1.13594
1.90393
1.49461
0.0210874
1.40786e-09
2.36187e-08
5.32441e-16
1.90689e-13
3.77664e-06
0.000140289
7.63568e-08
3.64646e-07
2.69234e-11
4.46127e-10
1.66317e-15
2.22045e-16
2.22045e-16
2.22045e-16
6.17597e-14
2.22045e-16
2.22045e-16
2.7147
3.20775
1.92421
20.0301
24.3637
0.00128698
0.000451624
7.00155e-09
3.6155e-12
4.1524
4.58972
3.59279
31.9041
36.699
9.74937e-06
2.94342e-13
6.00914e-12
2.22045e-16
14.9941
8.43734
26.2717
100.126
0.0613008
2.43277e-13
2.22045e-16
2.22045e-16
2.22045e-16
28.7936
7.64558
81.1494
1.28861e-06
2.22045e-16
2.22045e-16
2.22045e-16
2.22045e-16
2.22045e-16
31.0864
27.621
0.0277341
69.2956
2.22045e-16
7.52452e-11
2.22045e-16
2.22045e-16
0.000347566
56.7429
3.20485e-16
0.016674
2.22045e-16
2.22045e-16
2.32721
2.64372
2.52839
2.26601
3.21577
1.53704
3.00529
3.90092
1.7231
2.82521
3.89298
3.30265
5.54002
2.24435
6.40948
17.724
35.8584
34.032
21.7327
22.56
36.9714
17.0598
15.3612
3.66926
0.360643
29.4733
3.33027
0.956332
0.0851065
3.25918
3.5662
4.5851
2.57884
7.22728
7.88156
5.36678
7.75912
10.8895
7.9715
27.8748
28.8135
48.989
6.89034
59.3319
75.2146
1.20799
0.038872
0.780852
0.17855
0.00479912
5.42929
1.92375e-06
0.00178451
2.27125e-05
3.41472
3.72229
2.92288
8.61689
13.9118
16.5341
8.16373
24.1705
7.97204
5.26646
76.5862
83.8427
107.206
37.3534
0.00481923
0.140027
0.899591
6.24335e-07
0.000132003
4.8787e-06
3.55215e-09
5.46523e-06
1.18889e-09
1.3669e-13
2.22045e-16
7.3352e-13
4.96564e-16
4.69073
3.10539
6.1742
4.08702
8.12041
38.5759
73.394
19.5304
93.5722
4.91973
14.7162
6.64031
32.5707
93.3849
1.12485e-08
7.80466e-12
4.04208e-11
2.9378e-13
2.22045e-16
2.22045e-16
2.22045e-16
2.22045e-16
2.22045e-16
2.22045e-16
2.22045e-16
2.22045e-16
4.04366e-10
2.22045e-16
2.22045e-16
85.9015
6.1766e-13
9.66656e-07
0.000151601
0.00694911
1.47912e-09
1.57242e-07
49.718
7.95104e-05
0.955864
0.0890976
42.4416
6.24574e-05
0.0304147
7.34037
42.7373
13.7816
55.3211
96.2673
0.00153177
0.30182
2.22045e-16
1.04035e-07
2.22045e-16
3.08787
3.35088
3.4315
17.5748
7.30652
8.38358
3.89994
19.84
8.43446
4.92422
14.1658
5.854
51.045
14.5711
35.7922
12.5426
74.1503
37.9119
34.0402
66.4654
80.4473
60.7428
93.6676
115.216
109.84
0.622284
116.96
74.0661
90.469
84.5444
3.61725e-05
0.684279
0.000936246
0.0331957
2.14332e-09
0.0002881
3.2046
3.15585
3.1316
3.2879
3.23464
3.21069
3.12291
2.01374
1.53249
1.59753
1.21809
0.899005
0.942095
1.16156
30.6647
30.5983
26.6306
24.4388
30.4768
26.6637
32.1999
5.56325
4.45497
4.5252
5.60551
4.44047
5.38535
5.73808
2.75644
5.13082
3.87769
3.31304
1.70567
2.26499
2.4461
0.120525
13.3044
39.2818
47.6747
2.25692
3.29927
29.7199
10.154
7.68757
10.7039
8.63408
9.5397
7.85398
11.6732
51.1646
16.2174
29.2609
35.9021
10.8898
18.2919
19.2746
5.53191e-12
1.25715e-06
0.000196877
0.000158082
4.29307e-10
1.65905e-10
2.46565e-08
10.0635
6.7879
11.8571
8.00423
9.85765
6.75598
12.584
81.7914
83.2969
88.3961
80.3693
71.412
81.3227
77.2955
2.22045e-16
2.22045e-16
2.22045e-16
2.22045e-16
2.22045e-16
2.22045e-16
2.22045e-16
0.000970302
89.2555
23.7352
54.9966
87.2278
87.8943
7.90841
15.8887
69.9578
45.5788
73.561
48.0662
29.2127
56.5827
55.2392
59.0985
68.9573
68.2178
58.9673
59.6903
13.8799
2.22045e-16
2.22045e-16
2.22045e-16
2.59752e-13
2.22045e-16
7.98126e-14
2.22045e-16
3.38671e-07
2.22045e-16
2.22045e-16
4.10095e-11
2.33383e-07
2.22045e-16
2.167e-14
3.06326
3.1587
3.08324
3.29755
3.24064
3.16202
2.98767
1.58921
2.20669
2.27268
2.21751
1.08431
1.1206
2.15969
2.75886
2.79121
2.87181
2.68978
3.24634
3.49873
3.83066
3.73121
3.43716
3.34654
3.62857
2.43708
2.01475
2.78218
2.35704
1.39574
1.20846
2.65848
2.92171
3.44139
3.05552
3.27253
3.09477
3.03199
2.79601
2.89927
3.10717
2.8667
3.01745
3.03025
2.9114
2.99279
2.95035
2.92873
2.63457
2.69719
2.85707
3.38123
3.48817
3.80105
3.79046
3.42132
3.39701
3.74966
3.24442
3.03577
3.5913
3.24972
3.26834
2.98749
3.55887
3.20939
3.58601
3.18193
3.59081
3.08233
3.10781
2.8232
3.41408
5.72965
3.00809
3.13954
2.0809
4.34524
4.50852
1.98658
1.76282
2.72367
2.11301
1.36872
1.28397
1.05202
1.68573
3.51099
7.94039
4.29166
2.35594
6.40061
5.09517
2.93834
17.2344
12.3199
20.7126
17.8938
12.5534
20.8394
17.0842
18.4396
19.1539
16.631
25.7091
13.7511
22.0789
21.6937
0.405081
4.05851
5.35313
13.1144
3.33133
4.37937
0.58891
20.0564
25.6636
34.9024
31.8255
31.2502
27.8496
8.73551
0.105669
8.22768
0.459913
0.720965
1.81571
2.3882
0.0125452
5.4544
4.50823
4.44107
5.58613
4.32532
5.52569
5.60787
3.43975
3.59693
4.60122
4.3058
1.7603
3.24523
2.44993
5.13859
4.18238
3.94984
5.45924
7.0909
6.7842
8.06426
9.0772
6.82024
7.24803
9.11862
6.53481
9.55009
8.31073
6.09197
5.92331
3.70876
8.89135
7.06814
10.3623
7.48772
9.97613
5.54798
4.36985
4.32372
5.70638
7.05681
6.76187
7.14978
9.1921
6.36941
7.42819
8.48847
7.33125
10.525
7.76218
9.53296
5.73982
16.5764
8.45209
6.20331
8.88795
4.05234
13.679
5.84283
13.7726
9.39443
5.31773
6.24139
3.77724
9.41615
48.3553
13.9907
25.8475
10.535
39.5583
22.8746
19.6474
37.9137
21.827
32.4738
39.2551
27.7158
30.759
43.4948
53.3059
54.7673
65.6803
35.8404
45.0691
59.4563
73.626
6.7607e-06
0.0224278
0.0328255
0.0267238
0.000704562
0.00103674
0.00128799
0.00192203
36.7967
0.00159752
0.0829115
0.133633
4.85411
2.86089e-06
1.44132e-08
0.000707195
6.4372e-09
2.16816e-08
4.52684e-06
5.50113e-06
5.31764e-11
13.053
8.87116
10.8973
8.78202
11.3202
9.04117
12.2312
18.9753
13.2219
21.3471
17.6892
9.50054
12.8863
15.1509
19.1486
14.0526
14.0106
18.3268
13.9444
8.53595
8.51081
13.1189
8.82497
12.8367
14.3958
30.0248
32.7052
47.2472
22.2145
34.2624
23.4402
26.648
24.0994
25.2865
22.1133
28.4534
13.9846
13.6569
11.8059
16.8358
10.2541
8.41953
7.2084
11.9573
7.66134
11.9561
10.1355
8.41263
5.58658
6.22223
6.74476
6.57867
6.8581
8.31355
15.5924
21.2594
19.3667
16.721
12.3145
10.2995
9.76431
13.063
99.7315
50.0172
83.3264
66.2118
64.4777
38.2619
88.5844
51.177
76.4863
94.5227
62.749
55.7857
34.3462
80.4132
104.786
101.143
100.229
87.5056
97.9683
99.396
91.2533
7.50195
88.5226
1.7321
1.9797
96.6273
105.919
0.0033622
0.0213615
0.00327361
0.0410279
8.0271e-12
9.83666
3.7377e-07
3.98674e-06
2.22045e-16
3.86165e-13
2.0567e-12
1.04851e-12
5.48658e-16
2.22045e-16
6.79644e-15
2.22045e-16
1.39856e-08
2.22045e-16
2.22045e-16
8.65444e-16
1.36192e-13
2.22045e-16
2.22045e-16
3.67999e-16
2.22045e-16
2.22045e-16
2.22045e-16
2.22045e-16
2.22045e-16
17.6602
8.61157
13.4833
9.16192
14.9896
10.1335
15.3643
54.0923
76.529
64.2893
40.8936
47.9393
31.7479
64.4052
40.2308
28.684
33.0277
34.1292
25.1374
12.594
22.5882
33.4693
14.3141
21.2345
40.5221
92.4857
76.3046
84.9528
60.2791
93.7228
80.9543
87.1608
54.2988
65.1546
45.5728
77.4484
8.13253
5.85699
6.51744
4.79758
8.0557
5.73401
6.65482
19.6331
23.1795
17.7562
26.3051
15.1037
10.8115
13.6941
12.1622
12.1973
10.0933
10.7041
24.5258
7.85199
16.197
17.6062
9.65918
5.22652
8.21597
10.9721
6.31269
7.94472
13.5342
25.1721
48.956
34.174
36.0487
19.6757
23.3792
16.1089
28.3961
0.0521865
11.8253
90.9811
83.739
39.7717
86.3439
1.4451
84.8621
5.55157
87.3772
85.0064
93.5893
84.4049
37.2342
0.00155364
0.951491
6.43151e-05
9.20875
1.49843e-06
0.00393899
0.0632289
2.22045e-16
9.827e-06
2.22045e-16
2.22045e-16
4.93241e-11
7.85242e-10
2.22045e-16
2.22045e-16
2.22045e-16
2.22045e-16
2.22045e-16
1.38414e-14
2.22045e-16
2.22045e-16
2.22045e-16
2.22045e-16
2.22045e-16
2.22045e-16
2.22045e-16
2.22045e-16
2.22045e-16
2.22045e-16
2.22045e-16
6.90504e-15
2.22045e-16
2.22045e-16
2.22045e-16
2.22045e-16
2.22045e-16
2.22045e-16
2.37772e-12
2.22045e-16
2.22045e-16
2.22045e-16
2.22045e-16
0.212587
99.6201
33.3161
84.0085
9.72225
63.2965
3.18172
7.66235e-06
0.0510706
1.83177e-08
1.57982e-09
0.00375874
0.000568506
6.065e-12
54.605
53.5785
50.7578
51.5211
53.9759
54.9987
51.4917
0.398177
1.12681
0.00294197
1.59291e-07
6.52112
0.0118939
1.95226e-05
3.94667
52.1433
0.0542349
0.0181085
25.9718
14.7913
0.00129543
13.4309
0.755335
9.78035e-06
20.6573
1.43765e-07
1.55441e-09
0.000616104
2.22045e-16
2.22045e-16
4.93687e-16
2.22045e-16
2.22045e-16
46.6243
3.64779e-06
2.22045e-16
0.0795801
2.22045e-16
17.4082
16.5703
13.2475
5.27984
0.0447044
24.6837
0.213655
27.365
24.8463
0.000417579
1.84229
1.63133e-12
12.6583
8.23075e-09
0.00187197
1.60351
2.46988e-15
2.50825e-08
8.28053e-09
4.88304e-08
2.22045e-16
2.12382e-15
2.58566
53.6317
0.0267506
11.6768
10.7447
14.1235
13.4961
10.8293
14.1787
11.5877
24.0052
18.0346
10.1628
10.4375
18.9984
23.2796
2.16043
0.000219415
1.79543
1.53012e-06
1.36167e-06
0.0311156
0.0344133
1.54901e-08
2.22045e-16
3.7487e-09
2.22045e-16
2.22045e-16
6.43035e-14
1.88251e-12
2.22045e-16
47.4837
43.9693
48.4325
48.8551
46.5186
46.5321
49.2605
6.242e-05
2.22045e-16
2.22045e-16
3.45054e-06
1.59522e-06
1.78725e-12
7.01663e-13
12.4632
14.2716
13.8602
17.068
11.5871
14.9073
14.7865
17.2809
1.89175
14.6269
0.00122292
27.4092
0.0828749
2.04331
25.8519
21.7625
26.7973
26.4546
24.7021
24.2113
27.7296
0.859404
26.5908
26.1888
23.6986
12.0364
12.3607
25.1282
2.98205e-07
3.32198e-09
1.81289e-06
5.66131e-15
0.000556818
2.63668e-13
2.32773e-10
0.00873175
23.005
0.0403057
0.239101
1.57157
4.99582
4.50052e-05
4.55319e-11
0.000568373
0.00352594
0.0436231
8.97219e-08
2.05349e-06
1.26739e-05
2.22045e-16
5.48342e-16
2.11623e-08
4.24681e-15
2.17041e-15
2.22045e-16
1.56386e-14
2.05849e-15
0.000222358
1.00312e-08
1.30101e-13
9.37392e-10
5.7299e-09
6.75779e-15
36.9856
49.6636
3.39116
0.0974697
48.1357
29.9201
0.198309
84.7284
99.9169
87.474
98
100.947
103.059
90.1068
65.2671
58.3957
71.098
48.9107
61.2749
62.2975
73.5249
51.1292
30.7653
44.6639
50.8991
37.9505
55.3381
53.3236
20.2274
10.9548
11.2568
16.8712
9.21299
9.46998
16.7013
0.000209955
2.70285
1.31352
2.60192
0.00116904
0.759292
0.00059316
1.28359e-08
4.20036e-10
4.23855e-05
0.00395975
1.12413e-07
0.00218996
3.35125e-08
42.9
21.0241
30.369
37.2755
17.5259
27.1981
25.4361
0.0426791
4.30467e-08
0.0110818
0.255413
6.12372e-06
0.00022136
2.5622e-10
2.22816e-07
2.22045e-16
4.61957e-10
5.5689e-05
1.00198e-10
4.62755e-09
2.67271e-16
42.2457
91.5127
107.928
68.3296
82.741
94.3393
100.792
3.989e-07
2.22045e-16
5.09412e-11
5.79078e-06
4.61478e-13
7.43538e-13
2.22045e-16
2.22045e-16
2.22045e-16
1.0567e-15
2.94904e-12
2.22045e-16
2.22045e-16
2.22045e-16
9.76906e-11
4.03942e-08
0.00579593
1.29818e-10
0.0732537
1.57141e-06
0.000116604
2.22045e-16
2.22045e-16
2.22045e-16
2.22045e-16
2.22045e-16
2.22045e-16
2.22045e-16
2.22045e-16
2.22045e-16
2.22045e-16
2.22045e-16
2.22045e-16
2.22045e-16
2.22045e-16
13.1535
7.15637e-07
0.00804235
0.00149388
104.191
1.33306
5.86449
1.73893e-08
2.22045e-16
4.63682e-14
1.42248e-15
1.89542e-11
2.22045e-16
2.22045e-16
3.43541e-09
0.0321745
0.0022731
80.863
0.00805492
0.00272417
4.54512e-07
36.3486
0.00764435
11.96
68.6348
0.204357
0.0390879
0.000176497
2.22045e-16
4.68186e-09
3.15472e-16
4.74815e-07
5.90293e-13
9.19658e-13
2.22045e-16
1.2533e-06
1.28012e-06
8.66157e-13
0.000336342
9.78528e-10
1.43473e-09
2.88901e-16
12.5572
25.4005
15.5444
18.1267
13.0385
10.5549
21.333
80.2432
45.6973
67.5542
52.7362
58.6835
38.6878
73.4514
0.000644905
114.067
4.23861
3.33878
13.7278
107.475
0.00668754
2.45774e-15
8.33817e-11
2.22045e-16
2.28616e-15
5.92277e-13
2.43488e-08
2.22045e-16
2.93995e-14
3.22332e-14
8.89442e-08
6.62784e-09
1.0896e-10
9.41827e-05
1.05986e-15
43.7351
25.8147
27.5741
44.64
10.3396
46.2738
3.14885
0.0630832
39.1194
69.321
60.0472
0.00973919
87.7208
0.00228529
6.36809e-08
108.177
0.00947849
0.172351
5.06061e-07
9.08149e-06
2.62302e-12
3.3129e-10
9.25398e-12
7.03144e-06
6.30297e-11
2.22045e-16
2.22045e-16
2.22045e-16
3.59469e-14
0.00150192
3.06551e-08
7.36966e-08
1.54197e-14
2.35216e-13
2.22045e-16
2.22045e-16
2.22045e-16
3.00241e-15
2.22045e-16
2.22045e-16
2.22045e-16
2.22045e-16
100.538
100.847
101.646
101.937
105.572
105.809
104.754
2.22045e-16
2.22045e-16
2.22045e-16
2.22045e-16
2.22045e-16
2.22045e-16
2.22045e-16
1.24096e-15
2.22045e-16
2.22045e-16
2.22045e-16
2.22045e-16
2.22045e-16
2.22045e-16
3.25373e-13
8.32985e-11
7.81053e-05
1.35173e-06
4.90157e-13
6.99132e-09
5.03845e-14
0.000504596
4.46848e-05
0.159608
10.2862
0.169838
5.88343
0.0477791
0.00562052
3.85396e-10
5.25869e-05
1.86377
0.000733236
0.13617
1.46943e-05
1.57694e-15
1.03111e-15
7.74809e-09
0.000410184
1.09668e-09
8.18442e-09
5.6675e-16
2.22045e-16
2.22045e-16
2.22045e-16
2.49613e-15
2.22045e-16
2.22045e-16
2.22045e-16
1.99415e-11
1.70699e-09
0.000582111
0.00105441
4.36508e-09
9.25142e-06
2.62414e-11
2.29315e-05
2.14685e-05
5.95787e-11
0.00061372
9.2231e-11
3.92211e-07
2.07193e-09
4.62497e-06
1.09318e-11
7.95127e-12
2.83237e-11
1.25786
1.84849
2.61833
3.74138
4.18349
49.7029
1.72183
2.75731
3.04433
2.07262
3.04323
3.76196
1.18574
2.91153
3.26636
4.43376
3.57567
3.62621
5.98113
2.1429
3.65582
3.1792
5.78537
4.1002
3.49727
5.4454
3.14447
2.28508
4.64715
4.77033
5.8039
9.34371
12.4511
2.47605
2.93333
0.392145
2.98578
3.28335
3.18057
3.52685
3.85378
4.06309
6.61193
10.6394
3.7545
4.9851
14.5373
24.2829
7.86492
18.2249
43.1675
74.8096
1.68791
1.47712
1.5069
2.03596
1.74436
1.78983
1.98373
2.83714
2.30403
2.37068
2.09128
2.71944
2.79829
2.01863
1.83095
1.60652
1.83237
2.17946
2.19722
1.92035
2.4833
2.53788
2.85153
3.45657
2.26094
3.39941
2.99874
2.58126
2.45753
2.5616
2.17805
3.46167
2.58606
2.94316
2.99034
3.60675
4.13733
5.08026
3.34611
4.05192
2.99162
4.91991
3.30232
3.15928
2.89685
3.84655
3.55874
3.32357
4.02907
3.37454
5.93403
6.16583
3.47161
5.92044
5.68396
3.31511
3.982
3.79662
3.40315
4.24803
3.74146
4.12389
3.93497
3.22495
5.79754
5.34082
3.17461
5.61574
3.16461
5.18659
3.87625
4.24693
4.11177
4.38755
4.40417
4.15067
4.56483
3.97826
5.35201
5.84879
3.30443
5.10825
5.00225
3.56193
4.37065
4.64915
4.40681
5.31418
4.74088
4.82652
5.18293
6.26992
7.00748
9.44532
4.92621
5.67409
4.00532
7.16215
15.6577
14.3056
23.7686
6.75191
15.6898
10.1429
10.1291
3.06708
2.8895
2.94971
3.11566
3.42786
3.71998
4.18539
4.47486
5.57146
3.69459
6.55692
6.62662
4.22922
6.27983
6.46588
6.08336
7.34418
8.96964
11.3926
11.5933
16.4422
30.4618
25.5529
41.2719
8.3756
6.67768
18.736
2.48793
2.46913
3.00624
3.11758
2.53188
3.07943
2.42671
2.66891
3.33055
3.11327
3.6954
2.72324
3.2854
3.03369
3.87232
3.61061
4.34211
5.22716
3.50276
4.01999
5.14304
4.01239
5.82535
4.16258
5.96489
4.17458
5.78132
3.97985
4.08996
4.17155
5.73917
5.49889
3.98717
4.27858
5.45361
4.23401
5.38772
4.67303
5.38449
4.44944
5.33385
4.43948
5.53112
5.0626
5.78377
6.75034
4.79453
5.76657
6.93871
7.0088
8.75198
9.00412
13.7825
7.05012
9.34891
0.00192669
25.1048
2.22045e-16
2.22045e-16
2.22045e-16
2.22045e-16
2.22045e-16
2.22045e-16
2.22045e-16
2.22045e-16
2.22045e-16
2.22045e-16
2.22045e-16
2.22045e-16
2.22045e-16
2.22045e-16
2.22045e-16
2.22045e-16
2.22045e-16
2.22045e-16
2.22045e-16
2.22045e-16
2.22045e-16
2.22045e-16
5.70486e-13
2.22045e-16
2.22045e-16
2.22045e-16
2.22045e-16
2.22045e-16
2.22045e-16
2.22045e-16
2.22045e-16
2.22045e-16
2.22045e-16
2.22045e-16
2.22045e-16
2.22045e-16
3.31189e-11
2.22045e-16
2.22045e-16
1.64892e-11
2.22045e-16
2.22045e-16
2.22045e-16
2.22045e-16
2.22045e-16
2.22045e-16
2.22045e-16
2.22045e-16
2.22045e-16
2.22045e-16
2.22045e-16
2.22045e-16
2.22045e-16
2.4605e-16
2.22045e-16
2.22045e-16
2.22045e-16
2.22045e-16
2.22045e-16
2.22045e-16
2.22045e-16
2.22045e-16
2.22045e-16
2.22045e-16
2.22045e-16
2.22045e-16
2.22045e-16
2.22045e-16
2.22045e-16
2.22045e-16
2.22045e-16
2.22045e-16
2.22045e-16
3.54841e-12
2.22045e-16
2.22045e-16
2.22045e-16
2.22045e-16
2.22045e-16
2.22045e-16
2.22045e-16
2.22045e-16
2.22045e-16
2.22045e-16
2.22045e-16
2.22045e-16
2.22045e-16
2.22045e-16
2.22045e-16
2.22045e-16
2.22045e-16
2.22045e-16
2.22045e-16
2.22045e-16
2.22045e-16
2.22045e-16
2.22045e-16
2.22045e-16
2.22045e-16
2.22045e-16
2.22045e-16
2.22045e-16
2.22045e-16
2.22045e-16
2.22045e-16
0.172563
14.8389
51.1695
5.88098
4.40765
8.57444
29.2664
19.5436
45.5658
20.0962
96.9672
54.7708
9.80414
16.4817
24.4114
7.30579
10.9737
16.5725
10.6068
5.13155
6.27774
5.27016
6.31497
7.20937
5.99838
7.82719
7.83695
6.01608
10.7423
30.2066
78.8693
0.0112333
14.4681
69.7719
71.6775
77.1119
0.490094
9.46184
6.86958
7.16053
9.71638
14.0601
8.83606
9.51015
12.0867
45.6074
47.869
79.2537
29.1472
29.1833
17.5896
53.3895
22.7337
12.4173
22.4863
31.9802
13.8376
19.1745
39.1577
51.7969
85.7666
91.2257
68.2541
71.964
90.6174
77.4606
0.494293
7.60119
15.4933
1.12647
0.517594
0.570157
0.630646
1.33617
0.679979
0.812284
1.83675
1.03129
0.545796
0.444836
0.451087
0.452386
0.593638
0.482068
0.537994
0.598751
0.685794
0.792558
0.641876
0.738349
0.890883
1.00116
0.9355
0.735724
0.857634
1.10457
0.922569
1.04253
0.982144
1.1472
0.909994
1.02837
1.17755
1.18119
1.28831
0.782652
0.637336
0.674772
1.35814
1.37368
1.26018
1.24426
1.00694
1.56196
0.883216
1.32444
0.809416
1.52284
1.3357
0.852466
0.707562
0.749485
1.38144
1.44245
1.2936
1.25651
1.0313
0.946767
0.912496
1.38536
1.40655
1.39391
1.42149
1.22122
1.61717
1.57465
0.957322
1.29008
1.28859
1.03663
93.2385
0.0108276
0.104192
82.1683
86.5537
85.9818
37.1389
77.0928
91.4813
88.8906
5.83469e-11
4.83514e-14
2.22045e-16
2.22045e-16
3.58812
3.5124
3.59962
3.54256
3.73301
4.31406
3.8328
4.01133
4.48716
5.15303
4.34215
6.27223
4.47685
7.57267
7.12963
4.92447
7.80446
8.60905
6.09832
10.5695
9.82673
16.4538
13.1616
12.23
22.0659
21.2335
15.71
29.153
32.8122
58.7013
41.4611
49.242
2.22045e-16
2.22045e-16
2.22045e-16
2.22045e-16
2.22045e-16
2.22045e-16
2.22045e-16
2.22045e-16
2.22045e-16
2.22045e-16
2.22045e-16
2.22045e-16
2.22045e-16
2.22045e-16
2.22045e-16
2.22045e-16
2.22045e-16
81.9327
69.1194
90.0307
2.55041e-09
8.0483e-16
4.78752e-09
2.22045e-16
2.22045e-16
2.22045e-16
2.22045e-16
2.22045e-16
2.22045e-16
2.22045e-16
2.22045e-16
2.22045e-16
2.22045e-16
2.22045e-16
2.22045e-16
2.22045e-16
1.06377
1.08043
1.19281
1.44227
1.49215
1.55028
1.65657
1.30721
1.34605
1.76383
1.51009
1.68386
1.85319
1.9803
1.46465
1.58397
1.82894
1.71271
1.34215
1.42519
1.21837
1.58159
1.87435
1.80223
1.82849
1.66714
2.04864
2.14323
1.99746
2.03202
2.46982
2.08888
2.14583
1.80041
1.77212
1.09651
1.12222
1.2849
1.46135
1.49647
1.60426
1.64685
1.36741
1.56117
1.33716
1.59381
1.81205
1.76338
2.01743
1.93868
2.20177
2.0159
2.24459
2.02391
2.31061
2.53382
2.57043
2.24985
2.77867
2.24301
2.43069
1.97332
1.84737
2.14036
2.17912
2.70425
2.21371
2.25581
2.8038
2.86504
1.55503
1.77309
2.14081
2.07191
2.24776
2.33692
2.59873
2.18546
2.42378
3.05841
3.32219
2.66809
2.87261
2.10779
1.9618
2.59462
2.38257
2.3564
2.4853
2.79611
2.98257
2.51962
2.15567
2.00427
3.51385
3.61877
3.00871
3.04912
2.82341
2.38077
2.45801
3.06559
2.63735
3.31424
3.01558
2.3756
3.02878
2.44732
2.50393
3.09795
2.9338
2.99873
1.43233
1.61076
2.0477
1.69723
1.9276
1.50392
1.31532
2.69047
3.41209
2.95112
3.15279
4.23881
3.75939
3.76359
2.84427
3.1826
3.0833
4.74737
4.57481
4.01667
4.16374
2.36082
3.10977
2.83143
2.68437
2.93777
3.18849
3.42319
2.31348
1.85591
1.79225
3.38581
3.58168
2.95387
2.71211
2.85097
3.54104
2.68293
3.30281
3.06197
3.70792
3.17967
2.534
2.10469
2.36568
2.70182
2.4628
2.74528
2.97178
3.85912
7.98453
33.849
60.7018
5.18175
6.2639
4.27996
7.54026
21.5742
15.1394
28.9123
37.0921
46.9531
42.3428
3.89474
4.21344
4.23308
5.27233
4.27665
4.31994
3.86164
4.00668
5.5749
5.02879
5.09068
4.4931
4.56523
4.25204
5.22606
6.20662
5.95996
9.88292
4.63203
8.72824
7.11312
6.64657
14.3763
20.0179
11.5232
13.6334
8.69835
9.51765
16.392
25.3547
15.6157
33.3271
13.159
27.7296
20.0531
19.1245
34.9996
31.2444
27.6908
28.8457
24.0924
21.8081
34.9061
37.0536
32.8645
51.9912
26.4199
47.1445
41.7886
78.2025
3.24154
48.0002
64.6577
77.2349
70.8105
60.3948
54.8779
64.9486
22.463
0.0185967
6.9346e-07
3.21361e-09
2.22045e-16
2.22045e-16
2.22045e-16
30.3727
2.00105
4.09108
23.7957
20.836
0.00997249
9.40973
2.30922
10.2975
16.6297
11.2862
27.8384
26.5595
22.1702
1.3693
0.594899
0.48552
0.0168815
0.000506774
0.00632775
0.149747
14.0122
17.0032
15.1784
17.8729
28.4132
27.2474
32.0596
13.0376
6.41816
0.866627
24.9851
0.0305151
0.803691
0.00068567
0.00262971
9.94831e-07
2.83613e-09
1.63077e-07
1.41613e-05
1.83082e-07
1.26215e-05
6.57602e-13
2.22045e-16
2.22045e-16
2.22045e-16
2.22045e-16
3.10238e-07
5.86537e-13
2.22045e-16