/*--------------------------------*- C++ -*----------------------------------*\
  =========                 |
  \\      /  F ield         | OpenFOAM: The Open Source CFD Toolbox
   \\    /   O peration     | Website:  https://openfoam.org
    \\  /    A nd           | Version:  9
     \\/     M anipulation  |
\*---------------------------------------------------------------------------*/
FoamFile
{
    format      ascii;
    class       volScalarField;
    location    "0.0017";
    object      overpressure;
}
// * * * * * * * * * * * * * * * * * * * * * * * * * * * * * * * * * * * * * //

dimensions      [1 -1 -2 0 0 0 0];

internalField   nonuniform List<scalar> 
13155
(
143.64
2.2203e-05
1.54177e-05
4.07425e-07
9.90985e-09
0.000192963
6.14341e-06
1.53363e-07
1.53645e-05
17498.7
0.000201609
0.000317093
0.000690094
0.000570477
2.12777e-06
0.00618878
3.53617e-05
7.76473e-05
3.77881e-06
0.000750563
0.000513479
2.51414e-05
1036.23
0.44932
236.968
7.07661
0.114726
676.632
0.00570523
4675.61
25899.3
8058.53
274.375
1771.5
528.272
1068.17
0.000467959
2.23481e-06
7.33208e-06
1.43521e-05
1.64962e-05
6.33352e-05
0.000105916
0.0131445
0.000313853
0.0502184
0.0426844
0.00192057
0.00233897
0.314671
177.029
2255.2
501.926
57.8535
26.3465
133.763
9.08745
3.76342e-05
0.00366787
0.00152928
0.000141945
0.00390102
0.00637783
0.0402847
0.00289262
0.147117
0.00664923
0.0435341
0.339207
0.00560821
0.0233236
0.0537632
1.21219
3.04474
0.347801
6.94402
0.144367
85.9928
0.161078
15.298
0.0716988
969.537
6.43017
4.26094
0.00044179
8.3186e-07
0.00019093
4.0415e-07
1.28057e-09
1.45519e-10
1.00757e-07
8.81846e-09
5.47506e-05
1.49905e-06
3.88973e-08
8.87667e-10
0
4.36557e-11
5.56863e-06
1.8123e-07
5.23869e-09
5.82077e-11
0
0
2.14961e-07
7.37782e-09
1.74623e-10
0
0
0
6.97037e-09
2.03727e-10
0
0
0
0
1.45519e-10
0
0
0
0
0
0
0
0
0
0
0
1.21734e-05
4.28554e-08
3.75336e-05
7.19883e-08
2.76486e-10
0
2.75031e-09
6.8394e-10
1.50202e-05
4.3308e-07
1.05065e-08
1.45519e-10
0
0
1.36407e-06
4.55912e-08
1.22236e-09
0
0
0
5.05679e-08
1.68802e-09
0
0
0
0
1.49885e-09
0
0
0
0
0
0
0
0
0
0
0
0
0
0
0
0
0
3.0006e-08
4.1764e-09
8.48377e-09
0
0
0
1.45519e-11
2.74084e-06
5.84259e-08
1.16415e-09
0
0
0
1.83616e-07
5.19503e-09
7.27596e-11
0
0
0
5.58794e-09
1.16415e-10
0
0
0
0
1.16415e-10
0
0
0
0
0
0
0
0
0
0
0
0
0
0
0
0
0
1.38243e-09
5.67525e-10
8.58563e-10
0
0
0
0
2.663e-07
4.84579e-09
2.91038e-11
0
0
0
1.48866e-08
3.34694e-10
0
0
0
0
3.63798e-10
0
0
0
0
0
0
0
0
0
0
0
0
0
0
0
0
0
0
0
0
0
0
0
0.000505763
7.00747e-07
4.65661e-09
0
0
0.00031212
1.00845e-07
1.45519e-10
0
0
0
4.52303e-07
5.74801e-09
2.91038e-11
0
0
0
1.53232e-08
1.74623e-10
0
0
0
0
3.20142e-10
0
0
0
0
0
0
0
0
0
0
0
0
0
0
0
0
0
0
0
0
0
0
0
0.0136112
5.52471e-06
3.24566e-07
1.41881e-08
6.54836e-10
0
1.36705e-05
1.99099e-07
3.15777e-09
0
0
0
3.34127e-07
6.34464e-09
7.27596e-11
0
0
0
7.61065e-09
1.30967e-10
0
0
0
0
1.30967e-10
0
0
0
0
0
0
0
0
0
0
0
0
0
0
0
0
0
0
0
0
0
0
0
2.33626e-05
1.10832e-06
5.72181e-08
2.35741e-09
4.36557e-11
0
8.40912e-07
3.67436e-08
1.67347e-09
0
0
0
2.68337e-08
1.07684e-09
0
0
0
0
6.40284e-10
0
0
0
0
0
0
0
0
0
0
0
0
0
0
0
0
0
0
0
0
0
0
0
0
0
0
0
0
0
8.68255e-07
5.2547e-08
2.61934e-09
5.82077e-11
0
0
3.31347e-08
1.81899e-09
4.36557e-11
0
0
0
1.07684e-09
0
0
0
0
0
0
0
0
0
0
0
0
0
0
0
0
0
0
0
0
0
0
0
0
0
0
0
0
0
0
0
0
0
0
0
2.70229e-08
1.62981e-09
1.45519e-11
0
0
0
1.04774e-09
0
0
0
0
0
0
0
0
0
0
0
0
0
0
0
0
0
0
0
0
0
0
0
0
0
0
0
0
0
0
0
0
0
0
0
0
0
0
0
0
0
6.98492e-10
0
0
0
0
0
0
0
0
0
0
0
0
0
0
0
0
0
0
0
0
0
0
0
0
0
0
0
0
0
0
0
0
0
0
0
0
0
0
0
0
0
0
0
0
0
0
0
6.92899e-05
7.32791e-07
3.43659e-05
5.74408e-07
9.19099e-08
1.06229e-09
6.47269e-08
1.41154e-09
1.89175e-10
0
1.01863e-10
0
0.0130353
4.94765e-10
2.39204e-07
0.00427714
2.91038e-11
6.54691e-08
1.70639e-05
6.651e-06
4.61951e-07
0.000125161
5.99156e-06
1.95377e-06
1.35464e-07
9.09035e-06
7.57345e-05
6.5959e-06
0.000102816
4.83915e-06
4.29515e-05
4.9712e-06
2.04018e-08
4.01924e-07
1.00496e-07
2.14422e-07
1.15688e-08
3.26225e-07
8.02102e-08
1.01863e-10
6.79574e-09
2.18279e-09
6.1118e-10
4.36557e-11
5.80621e-09
1.74623e-09
5.95173e-09
1.01863e-10
1.01863e-10
2.91038e-11
1.74623e-09
5.82077e-11
4.36557e-11
1.37155e-05
2.11789e-07
5.53991e-08
2.31666e-08
2.61934e-10
6.22822e-09
1.01863e-10
0
0
0
0
0.000244219
0
7.49424e-09
2.39076e-06
0
3.49246e-10
7.34261e-07
1.726e-07
1.55705e-08
4.5386e-07
3.83006e-08
9.16771e-09
1.68802e-09
1.74e-06
1.41897e-05
1.52274e-06
4.89206e-07
5.29065e-06
5.78715e-07
3.89991e-09
9.46748e-08
2.78524e-08
2.13913e-08
1.20781e-09
4.68863e-08
1.00117e-08
0
1.64437e-09
5.67525e-10
1.45519e-11
0
8.44011e-10
1.45519e-10
1.45519e-10
0
0
0
0
0
0
2.12312e-08
6.97037e-09
2.32831e-09
0
6.8394e-10
0
0
0
0
0
2.29629e-08
0
2.91038e-11
4.22006e-09
0
0
5.13683e-09
8.58563e-10
3.34694e-10
6.31553e-09
1.68802e-09
1.89175e-10
8.73115e-11
2.12051e-07
1.75527e-06
1.93875e-07
6.71134e-08
7.46513e-07
6.98637e-08
3.7835e-10
1.07539e-08
3.08501e-09
2.663e-09
8.73115e-11
5.12227e-09
1.06229e-09
0
1.16415e-10
0
0
0
4.36557e-11
0
0
0
0
0
0
0
0
1.41154e-09
3.04339e-07
1.45519e-10
0
2.35013e-08
1.01863e-10
0
0
0
0
1.04774e-09
0
0
1.45519e-10
0
0
4.36557e-10
0
0
3.7835e-10
1.60071e-10
0
0
3.03116e-08
1.76195e-07
1.56288e-08
3.66999e-07
7.40009e-07
2.31521e-08
0
7.13044e-10
1.60071e-10
7.42148e-09
1.30967e-10
8.14907e-10
5.82077e-11
0
0
0
0
0
0
0
0
0
0
0
0
0
0
1.22725e-05
2.98751e-07
2.18279e-09
0.000532977
2.29274e-05
2.14713e-05
1.01674e-06
4.61296e-08
4.22006e-10
0
1.17948e-06
8.85193e-08
5.45842e-08
4.29281e-09
3.34694e-10
0
0
8.54197e-09
1.30967e-09
4.07454e-10
0
9.07077e-05
5.14182e-06
1.95811e-07
1.10344e-06
2.30211e-08
0.0117138
2.86505e-05
1.39698e-09
3.07045e-09
41.2607
7.0365e-05
5.67548e-06
2.61105e-07
3.48518e-08
1.00408e-09
0.000748142
3.25293e-05
1.86946e-06
7.78382e-08
2.89583e-09
0
1.98687e-05
1.19701e-06
6.37228e-08
2.6921e-09
4.36557e-11
0
5.38552e-07
3.54339e-08
1.80444e-09
0
0
0
1.32422e-08
9.02219e-10
0
0
0
0
0.519524
0.175283
0.00966296
0.0337697
0.000643703
0.00376648
0.00885729
0.00020638
0.0105073
0.000112432
0.0014729
0.00105351
3.53415e-05
4.95638e-05
2.5895e-05
1.15803e-06
3.74246e-07
0.000126722
5.69999e-08
2.4583e-06
1.07604e-06
1.04439e-07
5.41079e-06
6.26067e-07
1.85333e-07
3.17814e-08
3.0607e-05
1.47265e-08
4.11921e-06
2.22644e-09
1.71582e-07
4.01196e-08
9.16771e-09
2.51719e-07
5.1572e-08
1.02445e-08
3.55067e-09
2.30416
2.01082
0.00778497
0.000137815
0.293342
0.00862247
0.01198
0.000481604
0.000287551
8.42102e-06
4.98796e-07
0.000457715
2.73747e-05
2.4006e-05
1.64077e-06
2.67786e-06
4.36412e-08
3.24508e-09
2.32377e-06
3.81769e-07
1.49274e-07
2.42289e-08
0.0147845
0.119359
4.44363e-05
0.000492926
8.3985e-05
0.00153651
0.000106744
1.45704e-05
7.89405e-05
6.90758e-06
6.76816e-05
2.36018e-07
5.37446e-07
1.4597e-07
4.18077e-08
4.50818e-08
1.19035e-08
1.37079e-07
1.99361e-09
3.30328e-09
1.22236e-09
3.63798e-10
3.0559e-10
1.01863e-10
1.16415e-09
2.37803e-06
1.13237e-05
2.20668e-05
6.71846e-05
1.04595e-05
1.95958e-05
2.66741e-06
3.39889e-07
8.14616e-08
2.65382e-06
6.4465e-07
7.21193e-08
2.43502e-06
3.79514e-07
1.56305e-06
3.76874e-05
4.73468e-06
8.21659e-06
6.24076e-06
1.36542e-05
9.62173e-07
2.17071e-07
6.20974e-07
5.17903e-08
1.04716e-06
6.1118e-08
1.5105e-06
1.36904e-07
2.08092e-09
1.14087e-08
2.36905e-08
8.57253e-08
1.04046e-08
2.11585e-08
2.37196e-09
2.32831e-10
2.91038e-11
3.56522e-09
7.567e-10
0
2.6339e-09
3.20142e-10
1.55705e-09
6.49597e-08
7.34872e-09
1.11613e-08
8.25094e-09
1.50903e-08
1.13505e-09
1.74623e-10
8.58563e-10
4.36557e-11
1.97906e-09
1.45519e-11
2.2992e-09
1.45519e-10
0
0
1.45519e-11
1.16415e-10
0
0
0
0
1.01863e-10
0
0
1.01863e-10
0
0
0
5.82077e-11
0
0
0
0
0
0
0
0
0
2.91038e-11
0
0
0.00943784
0.00223655
0.0015896
0.000232458
7.11017e-05
5.26726e-05
0.000324247
1.46669e-07
5.41331e-09
1.50758e-08
3.92902e-10
4.72937e-09
1.04628e-08
2.09882e-07
0.000708721
0.00121287
0.000209606
0.000103342
7.98356e-06
2.2115e-05
2.86882e-05
6.28643e-08
1.16415e-10
4.65661e-10
1.22236e-09
1.99361e-09
4.38013e-09
1.72295e-08
2.74042e-07
2.04361e-06
4.87144e-06
5.06378e-07
2.44407e-06
3.97122e-08
2.11148e-08
5.20391e-07
7.94098e-08
6.82048e-08
8.49832e-09
3.32439e-07
2.03727e-08
6.15837e-08
4.72937e-09
9.40636e-08
5.77711e-09
1.53988e-07
1.21508e-08
2.61934e-10
2.98314e-09
7.58155e-09
1.21654e-08
6.8394e-10
1.35333e-09
3.17232e-09
0
0
8.14907e-10
1.01863e-10
2.91038e-11
0
3.0559e-10
1.16415e-10
6.27188e-09
5.96629e-10
1.03319e-09
6.8394e-10
1.9063e-09
5.82077e-11
0
4.36557e-11
0
1.45519e-10
0
2.32831e-10
0
0
0
0
0
0
0
0
0
0
0
0
0
0
0
0
0
0
0
0
0
0
0
0
0
0
0
0
0
3.98447e-05
3.33138e-05
6.25032e-06
7.54677e-07
1.31551e-06
5.55464e-06
3.27855e-07
4.07454e-10
5.82077e-11
1.74623e-10
0
3.04135e-09
0
1.45519e-11
5.50965e-07
1.19879e-07
2.13011e-07
5.69125e-08
1.06375e-08
3.4328e-08
7.45058e-09
1.45519e-11
0
0
0
0
0
0
4.99131e-09
2.12458e-09
6.22094e-08
9.63337e-09
8.01811e-09
9.45874e-10
4.23752e-08
2.51748e-09
7.72707e-09
5.52973e-10
1.13359e-08
6.40284e-10
1.99943e-08
1.35333e-09
0
2.03727e-10
6.98492e-10
1.41154e-09
0
8.73115e-11
3.0559e-10
0
0
4.36557e-11
0
0
0
0
0
7.27596e-10
1.45519e-11
1.01863e-10
4.36557e-11
1.89175e-10
0
0
0
0
0
0
0
0
0
0
0
0
0
0
0
0
0
0
0
0
0
0
0
0
0
0
0
0
0
0
0
0
0
0
0
0
1.13068e-08
2.67173e-08
1.13214e-08
6.8394e-10
2.98314e-09
1.45519e-09
1.23691e-09
0
0
0
0
0
0
0
3.12866e-09
3.95812e-09
2.56114e-09
2.61934e-10
3.34694e-10
6.8394e-10
1.16415e-10
0
0
0
0
0
0
0
4.09782e-08
1.74623e-10
4.99131e-09
2.73576e-09
1.81899e-09
2.75031e-09
1.32422e-08
1.26922e-06
2.46073e-08
2.45834e-06
4.25967e-06
7.98755e-08
2.2263e-07
3.76876e-05
0
0
0
1.45519e-10
0
1.60071e-10
2.91038e-11
0
0
0
0
0
0
0
5.96629e-10
1.76078e-09
1.42667e-07
3.40515e-09
5.15138e-09
3.34694e-10
1.3606e-08
7.27596e-11
0
5.52973e-10
5.67525e-10
0
0
2.13913e-09
0
0
0
0
0
0
0
0
0
0
0
0
0
0
0
0
1.01863e-10
0
0
0
0
0
0
0
0
0
0
0
5.96629e-10
4.36557e-10
9.02219e-10
0
1.01863e-10
1.45519e-11
4.36557e-11
0
0
0
0
0
0
0
1.89175e-10
1.16415e-10
1.30967e-10
0
0
0
0
0
0
0
0
0
0
0
4.3636e-06
1.17667e-05
2.84436e-06
2.44523e-06
2.21786e-07
9.25822e-07
7.44185e-07
1.88884e-08
3.17523e-08
1.16706e-08
1.10012e-08
1.06229e-09
2.96859e-09
3.75439e-09
0.0843239
10.52
0.498813
0.609844
1.45263
0.000443251
0.00639991
0.00109915
0.0148556
0.000433575
0.00663462
0.00130379
1.39829e-06
1.50237e-05
3.17789e-06
2.94443e-05
1.37591e-06
1.53885e-05
3.23995e-06
0.379896
0.0747821
0.0534636
15.0612
2.36073
1.71206
20.4132
0.0243408
0.0508501
0.00700469
7.10083
0.234493
0.784147
2.10702
0.00140519
0.00145869
0.000207939
0.062334
0.0472137
0.441385
0.00691132
1.76236e-05
2.61488e-06
8.05869e-06
0.00542162
6.29147e-05
0.000604769
0.000371923
1.65048e-07
5.99073e-07
1.92391e-07
3.52407e-06
6.53327e-06
1.69827e-05
2.17539e-06
1.22193e-05
0.000141997
0.000129313
8.4534e-06
0.000215891
9.99407e-06
8.48823e-06
4.32628e-08
5.90371e-08
3.94211e-08
8.39078e-07
5.54704e-07
7.05521e-07
5.74088e-07
9.19681e-09
8.06176e-09
1.3606e-08
1.18322e-07
1.79425e-07
1.83296e-07
1.1448e-07
2.79397e-09
2.03727e-09
2.40107e-09
3.18396e-08
2.18424e-08
2.94531e-08
2.44909e-08
0.132277
11.212
0.598382
40.9328
12.4391
255.283
2.15147
0.0119965
0.00757053
0.0720083
0.0307545
0.0934755
0.00683008
0.00100828
0.0306266
0.00180719
0.00764313
0.58648
0.030336
0.110721
5.21296e-05
0.000162222
4.03742e-05
0.00118921
0.000568168
0.00221606
0.000519911
5.41109e-05
0.00058526
2.11347e-05
0.000294276
5.34755e-05
0.000585037
2.15268e-05
2.87047e-06
6.99059e-06
2.03343e-06
2.90872e-05
8.91045e-05
2.90622e-05
9.21374e-05
1.69603e-07
3.84331e-07
1.35507e-07
4.4781e-06
1.63594e-06
4.53508e-06
1.64562e-06
1.59489e-08
3.35713e-08
1.29367e-08
1.29861e-07
3.30911e-07
1.31346e-07
3.31012e-07
1.72523e-06
3.02437e-05
2.52185e-06
2.61042e-05
2.39137e-06
2.54009e-05
1.73695e-06
4.08356e-07
4.44976e-06
4.09149e-06
2.9504e-07
4.95111e-06
4.02244e-07
3.0447e-07
0.00773245
0.489835
0.0278878
0.00130477
0.0212703
0.000864487
0.00655828
4.69454e-06
9.68241e-07
1.20683
3.4948e-06
1.09245e-05
1.65733e-06
3.16184e-07
1.66048e-06
2.08442e-07
0.000667604
1.89308e-05
415.079
29.0882
21.1933
0.00253572
0.0108911
1.20359e-05
1.48005e-06
1.50452e-07
4.08744e-06
4.5175e-07
6.83372e-07
6.04865e-07
1.43578e-06
8.34116e-08
3.36586e-08
2.36265e-07
5.99015e-07
1.03033e-06
6.0536e-08
1.43147e-07
2.99187e-07
1.89029e-08
5.19707e-07
4.68717e-08
8.37754e-08
7.14936e-08
1.97193e-07
9.45874e-09
5.50091e-07
2.23547e-07
4.01342e-08
1.42299e-06
2.16532e-08
6.48541e-06
1.68904e-07
1.73918e-05
3.2568e-05
0.00579691
5.75742e-05
0.000205601
2.99519e-06
0.000513083
36.0452
170.536
1576.39
675.542
30416.4
3851.53
7713.99
1.02547
3.49734
76.5367
1.79269
7.3696
0.313631
0.0910175
0
1.74623e-10
2.61934e-10
0
0
0
0
0.000160143
1.02305e-05
5.93136e-06
3.63134e-06
1.86759e-07
1.68326e-05
8.26185e-07
3.65253e-09
6.46105e-09
3.63798e-10
8.34785e-07
4.5824e-08
4.16767e-08
6.65023e-09
0
0
0
2.50293e-09
2.32831e-10
2.91038e-10
0
0
0
0
0
0
0
0
0.00070505
3.17133e-05
0.000534492
4.28577e-05
0.000840001
4.14499e-05
3.00506e-06
5.41828e-05
1.98183e-06
4.90835e-06
2.84026e-06
2.69691e-07
3.90457e-07
1.31811e-07
4.76633e-07
1.27839e-07
1.32379e-07
2.65136e-08
6.24277e-09
1.93104e-08
7.05768e-09
1.3868e-08
3.73984e-09
3.82715e-09
6.98492e-10
1.45519e-10
8.00355e-10
1.89175e-10
5.5105e-06
2.23814e-06
1.92827e-07
1.92391e-07
1.72935e-06
1.35333e-07
7.76816e-06
2.40115e-06
7.52625e-08
2.88681e-07
1.70548e-08
6.78585e-07
5.77566e-08
6.56277e-07
1.69821e-08
4.39613e-08
2.80852e-09
2.2701e-09
1.21145e-07
1.45956e-08
5.52973e-10
1.5134e-09
4.65661e-10
8.14907e-10
0
1.8772e-09
2.91038e-11
2.76486e-10
0
2.18279e-10
0
0
5.82077e-11
1.01863e-10
0
0
0
0
0
1.45519e-11
0
0
0
0
0
0
0
0
0
0
0
0
0
0
0
0
1.85471e-06
3.90246e-06
5.0597e-08
2.25795e-06
4.47748e-07
5.52206e-06
5.28933e-07
2.49187e-07
1.76369e-08
8.51287e-09
2.59461e-08
6.83067e-08
9.80508e-08
8.55507e-08
5.82077e-09
3.52156e-09
1.01863e-10
4.86034e-09
1.00408e-09
1.43627e-08
1.55705e-09
1.16415e-09
4.36557e-11
0
1.16415e-10
2.18279e-10
5.52973e-10
4.36557e-10
2.03727e-10
5.96629e-10
3.34694e-10
1.16415e-10
0
0
1.45519e-11
0
0
0
0
0
1.01863e-10
0
0
0
0
0
0
0
0
1.01863e-09
4.22006e-09
6.8685e-09
1.50074e-07
2.38506e-08
4.82105e-08
1.0099e-08
0.253815
0.00757153
0.000560046
0.0131335
0.117206
0.0586354
0.00514494
0.000731401
3.04649e-05
7.17858e-05
0.00820447
0.000709263
0.000641976
0.00033924
7.14518e-06
2.63861e-06
2.66932e-06
8.75263e-05
5.08149e-05
8.17747e-05
4.89186e-05
2.45243e-07
7.75035e-08
7.98609e-08
3.70339e-06
1.59199e-06
3.70937e-06
1.62472e-06
2.77243e-07
3.38687e-06
2.59912e-07
2.2379e-06
3.64307e-07
2.14022e-06
2.2084e-07
2.59024e-09
5.42786e-09
3.94357e-09
3.15194e-08
2.49565e-08
3.73257e-08
2.31084e-08
0.000351066
3.75852e-05
0.000872185
3.3884e-06
5.76387e-05
2.33617e-05
5.86473e-05
0.000503046
0.00461896
0.000523112
0.0126154
0.00603544
0.048029
0.145784
9.93896e-09
1.5425e-09
3.0559e-10
3.01661e-08
3.15777e-09
3.92902e-10
1.16415e-10
3.20142e-10
1.45519e-11
0
1.45519e-10
4.36557e-11
0
0
0
0
0
0
0
0
0
0
0
0
0
0
0
0
0
0
0
0
0
0
0
5.50807e-06
1.68511e-07
4.5402e-09
5.82077e-11
1.1427e-06
3.6438e-08
9.31323e-10
0
1.43045e-07
3.8126e-09
4.36557e-11
0
1.12632e-08
2.32831e-10
0
0
1.76078e-08
2.32831e-10
0
0
0.000158525
2.94353e-05
4.87898e-06
4.40312e-07
9.38729e-07
1.38099e-05
2.83064e-07
5.48607e-09
4.36557e-11
0
0
6.16274e-07
1.55414e-08
3.20142e-10
0
0
0
6.38611e-07
2.04163e-08
5.38421e-10
0
0
0
0
1.75933e-08
5.82077e-10
0
0
0
0
0
4.07454e-10
0
0
0
0
0
0
570513
581216
13295.9
0.0274787
576032
168.747
0.00110216
1.03964e+06
2.14272
20.3266
630909
0.0175723
0.00110356
327215
2.60778
0.000101079
402123
0.0557802
6711.31
9.79305
7280.29
0.00653235
0.000153793
75.9952
0.00330582
8.66612e-06
50.5564
4.47461e-05
1.41801
0.683224
95088.2
6.02071
0.000611075
1.83516e-05
947.363
0.0530794
0.000155668
9.42673e-07
55.3423
0.00028451
0.0267388
0.00313765
0.00010376
2.6372e-06
8078.51
0.74867
0.0011202
1.78476e-05
1.26369e-07
184.965
0.00392697
0.000216731
5.90693e-06
1.72309e-07
1.29847
0.000594919
1.85172e-05
5.97152e-07
1.75205e-08
0.000182767
6.52802e-06
2.36148e-07
8.04721e-09
0.000443093
2.3574e-05
8.92251e-07
3.08646e-08
9.02219e-10
1.50139e-05
7.82369e-07
3.21306e-08
1.16415e-09
0
1.35583e+06
1.12074e+06
4107.62
872844
253.177
542207
361.872
468370
26.8759
1.42098e+06
1.22954e+06
612.012
697941
65.0482
0.0462948
901687
12095.4
1.07089e+06
37128
13.52
948.686
0.0272314
0.00200683
1633.4
630.481
1187.88
66.5896
650.467
0.059478
0.0723721
17.9547
0.0121412
0.298824
0.0127847
0.00574128
0.00101273
1930.82
1977.45
0.0876593
0.00213584
0.00312012
15838.5
680.706
264178
7752.95
5319.36
1.37075
0.948446
38.3072
0.0127922
16.2129
0.169061
0.0933333
0.000750538
0.0028338
0.00184654
0.000197162
0.0107185
0.000473618
0.000137087
3.00812e-05
1188.93
3001.36
0.302057
0.00394134
0.0172107
7.8558e-05
1.42996e-05
3929.07
6.93909
0.0827478
393438
991684
337004
71.4788
208281
5.71558
1095.53
0.210374
333.383
0.106269
22426.2
121600
3430.06
1.30652
2.13214
0.0577283
2.27746
2.26431
0.102574
4.64228e-05
0.000100962
2.04995e-05
37.1924
509.951
0.388778
33.2278
1.83371
18.0743
0.0903434
0.0242441
0.0525399
0.00243319
0.0331168
0.00173282
0.00448887
0.000252804
0.00026142
0.000114807
1.42122e-05
0.000288729
0.000102027
2.44496e-05
5.30238e-06
8.99099
10.5099
1.26116e+06
1.3174e+06
1.21965e+06
1.24742e+06
966262
1.13065e+06
87020.6
699265
206192
813450
631937
166916
114937
43727.5
681917
278587
34715.1
487793
96923.2
14014.5
1.38532e+06
1.32501e+06
887841
99089.8
225474
256.401
215.219
2695.62
6.55686
8405.07
22.2827
77.3056
687239
534796
299187
147270
3365
47535.2
773176
311702
2.34843
556.224
1.36109
2.07793
16.2458
82.2453
0.200496
13342.2
24.1451
338.396
234.966
179.469
21696.7
26.315
5296.2
9.31643
844.219
322.862
20186.6
787.593
29.1526
6105.93
821.155
45.6212
15.9556
1.0192
0.198301
1.20999
0.838813
29.6933
2.54435
0.0497331
6.23802
0.497722
0.799545
0.254979
0.405319
0.0265796
0.0329785
0.0370749
0.0409551
0.00113566
0.0710704
0.00344367
0.012413
69935.6
77.2451
2748.93
73199.5
75.4029
2745.16
2.65311
2.62629
87.3779
7.44082e-05
0.0336638
0.000150065
0.000842375
0.00057262
0.00245191
3.90445e-05
0.0780583
0.000186064
0.00240638
8301.76
2695.61
10879.1
83.3631
39824.3
528.791
1348.07
20101.7
35823.5
353.993
2970.1
2481.76
1307.66
11.5823
9.53725
22.3745
79.8293
190.07
157.418
1.81816
164.548
2.01406
4.87297
9.51651
31.313
0.284224
0.153373
0.0910903
0.108778
0.00652417
0.559014
0.0647809
0.0239976
0.331585
0.682302
0.605672
0.0167153
4.65276
0.0514953
0.0991283
0.0375235
0.00160655
0.00697306
0.0028891
0.0142491
0.00609166
0.0208056
0.00263874
0.0150069
0.000459489
0.00105102
0.00478182
0.0108378
0.000222068
0.000984926
0.000271379
0.00147921
3.46101e-05
0.00240587
7.89273e-05
0.000407959
21712.2
48.5083
983.369
133.064
1614.12
3.43299
6.1614
73.2985
0.0875549
0.00068483
0.0055115
0.164746
0.00219519
0.00964251
0.00017093
0.000338311
0.000891809
2.83269e-05
3.75688e-06
7.14262e-06
647.542
74766
251.531
196.262
6130.18
3549.97
30.5314
0.482449
538.999
23285.7
66.0123
448.316
17058.3
47.8385
743.435
0.226368
0.204655
0.591771
0.00173165
8.15289
0.019055
0.0169918
188375
609856
15064.1
626178
94331.5
617210
1406.08
0.0675639
0.3879
0.0280736
14.0926
0.0424858
0.160821
0.0113951
0.00906547
0.0842812
0.00239335
0.0309514
0.00132012
0.0110927
0.000391614
117476
218407
303817
35130.8
68498.9
4363.09
0.20736
981.875
0.097839
27.6275
0.143675
0.9347
0.0460205
0.000345373
0.000504569
3.3776e-05
0.000730795
0.000215019
6.45581e-05
1.20806e-05
118.06
18715.4
3.41833
149.828
0.736441
69.8198
0.225025
0.0385309
0.254781
0.0111068
0.120578
0.00708228
0.0369423
0.00221149
5.24417e-05
1.24007e-05
2.84708e-06
5.49639e-05
1.48971e-05
3.47562e-06
8.43356e-07
90439.6
7820.32
44399.7
3145.55
14230.1
1204.57
461.768
4680.22
106.478
9.00777
1467.72
124.498
3.54354
46.8524
6537.54
396089
281.386
87492.5
8.91651
141946
0.382168
6.15111e-06
1.91922e-06
3.79892e-07
9.65651e-06
2.34254e-06
6.67293e-07
1.45941e-07
0.60387
0.10391
0.000648826
1.98147e-05
5.48447e-07
265038
442369
303721
989983
1.13388e+06
249483
564739
182854
346427
830055
856626
1.43398e+06
375765
261114
606416
768938
122241
1.24325e+06
83151.4
235156
364041
2.29854
7.77426
142.039
0.00309889
0.0195082
7.13675e-05
4.58215e-06
2.08223e-07
8.57108e-09
2.61934e-10
0.000180721
1.95351e-06
1.27868e-07
6.41739e-09
2.03727e-10
0
5.43515e-06
4.25658e-07
2.25846e-08
9.02219e-10
0
0
5.12227e-08
3.28873e-09
1.16415e-10
0
0
1.32262e-07
1.04046e-08
4.94765e-10
0
0
0
843628
945531
791645
896620
1.0813e+06
651220
1.11487e+06
957667
646222
1.3058e+06
941618
1.08288e+06
1.31233e+06
976157
1.19634e+06
1.00037e+06
770180
1.71362e+06
593987
1.44807e+06
505879
23788.1
1.49924e+06
1.18965e+06
1.68349e+06
1.54359e+06
468520
1.51969e+06
365011
183593
12464.2
1.04437e+06
1.59633e+06
43872.4
1.43513e+06
1.16555e+06
1.4615e+06
891723
994888
1.57007e+06
1.55761e+06
1.54216e+06
1.72483e+06
1.7989e+06
616560
619625
85731.8
250912
19519.6
175.391
860503
964640
826696
972318
991804
851653
834848
782849
835891
785431
839907
896615
1.0114e+06
1.10619e+06
944825
1.03391e+06
886302
960897
1.38487e+06
1.13192e+06
1.39758e+06
1.1485e+06
1.16195e+06
1.42187e+06
1.3613e+06
1.48254e+06
1.54636e+06
1.5336e+06
1.48782e+06
1.4313e+06
1.20616e+06
1.30775e+06
1.53261e+06
1.21666e+06
1.46948e+06
1.4976e+06
1.47241e+06
1.47358e+06
1.51663e+06
1.42276e+06
814064
969855
837967
819221
771255
1.01172e+06
931892
872721
1.5935e+06
1.57491e+06
1.21883e+06
1.55234e+06
1.50416e+06
1.50316e+06
1.54691e+06
1.02665e+06
911494
918275
1.0155e+06
1.18157e+06
1.21356e+06
1.03452e+06
1.38463e+06
1.04587e+06
1.42223e+06
1.16521e+06
1.21575e+06
1.48103e+06
1.18091e+06
1.57548e+06
1.4755e+06
1.63146e+06
1.69401e+06
1.70426e+06
1.69589e+06
1.40153e+06
1.77061e+06
1.5073e+06
1.45111e+06
1.57457e+06
1.60191e+06
1.55352e+06
1.61901e+06
1.54245e+06
1.04049e+06
1.38614e+06
1.29886e+06
1.20539e+06
1.26136e+06
1.64003e+06
1.36394e+06
993848
1.63167e+06
1.3972e+06
710400
551447
273867
821998
100009
1.02254e+06
1.33902e+06
1.14466e+06
1.39752e+06
1.14842e+06
1.54809e+06
1.61424e+06
1.32997e+06
1.43428e+06
1.30375e+06
1.60589e+06
1.18617e+06
1.45107e+06
503100
1.03547e+06
1.52601e+06
1.75847e+06
1.76398e+06
1.69324e+06
1.2102e+06
1.34943e+06
1.7443e+06
984499
1.67313e+06
635567
1.47045e+06
961739
666484
1.33938e+06
433636
497569
259319
12348.5
164848
92837.6
842860
135795
5857.93
735719
353121
341144
132281
117419
25555.6
1.75962e+06
1.22286e+06
1.61115e+06
992095
1.57738e+06
531341
377044
1.13786e+06
98336.2
138578
228719
20129.2
264156
739629
799206
448716
274482
759006
810539
490087
781951
541322
323882
548643
609234
565395
291394
788177
614220
233901
463263
366994
642908
619279
522613
623467
605157
396881
652516
472619
498880
301485
538855
236043
392517
268856
398015
498960
281636
386366
167185
358117
39955.6
339395
19552.1
348421
10.1266
0.0947749
0.00204375
0.0014443
0.000146399
3.76758e-05
4.24391e-06
9.53019e-07
112229
165270
17708.3
74325.7
1948.22
70900
148371
89495.4
302710
227678
239699
354000
3270.89
34025.3
8666.75
181526
112463
201407
55979.8
42446.6
164184
36222.5
285606
992.81
98242.2
743975
254641
11627.5
416673
80923.1
52011.6
731965
647012
783390
1.52077e+06
848908
653558
741882
728962
801560
1.22837e+06
1.18422e+06
1.55943e+06
1.14989e+06
1.4653e+06
391799
975080
323866
70578.8
579971
1.32377e+06
65152.6
721235
665057
741706
862627
1.80071e+06
265551
274593
6994.42
966.282
751625
640966
732050
673497
662307
754683
728228
700318
737969
689540
690998
805355
887603
898520
1.01256e+06
1.29641e+06
1.0416e+06
985758
1.58822e+06
1.71703e+06
1.58644e+06
1.577e+06
719904
1.24537e+06
1.78291e+06
566914
596428
1.13164e+06
613295
767776
448614
905182
473412
295538
208122
367493
352234
679208
381654
431530
202508
304320
1.47595e+06
842724
1.23301e+06
373974
466826
905811
563418
583713
608144
660204
583699
652177
723040
705707
962141
1.01799e+06
691539
986607
942033
1.26733e+06
295423
1.36097e+06
1.24618e+06
1.68019e+06
520214
566698
517988
601489
586641
535472
500801
543249
625440
652268
588280
611318
557764
578710
525350
598970
538507
621636
584362
558552
676199
706954
622335
768907
622031
780462
665552
762127
863859
1.07874e+06
843375
895538
732972
898438
611140
746239
645682
835586
812321
704808
1.23267e+06
1.3293e+06
1.0197e+06
1.52007e+06
1.09588e+06
1.44098e+06
1.22926e+06
1.22567e+06
1.57232e+06
957770
1.31931e+06
1.31721e+06
1.3446e+06
1.05847e+06
997609
1.5917e+06
1.25809e+06
1.76407e+06
1.57049e+06
1.487e+06
16888.3
441359
371181
553061
400466
668683
291185
148746
371698
227485
160319
226855
428022
276910
188645
384241
221115
249516
224923
454382
394573
176719
151509
180031
175693
201429
179785
206114
211096
232939
215809
263837
240524
246761
271023
468542
212799
233480
447658
212346
225379
441019
282745
423699
463578
518355
469211
286726
311014
591644
579767
556877
511691
491778
518813
489411
186053
190404
217444
153587
182970
184105
211583
248999
292772
263352
240216
221446
254640
280645
226878
232382
226372
263944
271181
256723
263497
216100
193807
409288
402845
202460
209225
334568
759782
662002
688154
598238
623454
656001
640463
603164
653144
649523
532753
572124
533179
572470
242909
293871
284709
239852
233504
280946
272561
312763
197929
249484
255051
207632
264586
228226
174351
375008
390695
191724
387621
218453
317899
255827
258654
274010
288315
307234
272186
323957
394472
229322
354108
276188
241389
351543
400090
693234
618015
733453
638109
796925
641981
621261
206062
193706
210629
226007
239418
245284
233108
745842
770716
757289
648392
675843
660488
636445
278251
272412
285414
314968
326121
333531
322340
208414
275989
233179
256506
213960
239492
284145
298769
529137
475565
591545
465541
562411
331062
274442
254828
268575
324497
310940
331916
301538
712480
830061
800518
710464
689713
628046
622982
325605
309321
276251
284138
384650
336106
318669
812407
825777
826910
656314
610822
590370
656273
343723
268938
233198
309411
230630
322955
295638
944454
1.02812e+06
1.15011e+06
981947
840470
963895
796825
209916
258986
264521
200527
216734
253212
243426
786715
694380
687035
747533
740899
851958
846932
601627
477298
780915
801338
697430
369956
508133
229429
308885
257536
265768
220936
247671
295071
338365
300568
349452
279711
293105
341796
330810
361035
385725
509535
193515
580741
340232
74086.9
693890
323115
540146
464472
549603
337945
355518
1.13531e+06
1.25241e+06
692360
872849
1.00122e+06
1.13336e+06
1.13487e+06
368348
347247
306642
294211
402708
350045
331080
312378
398978
322093
384762
304040
313214
400674
22114.7
765.295
151937
363392
4000.34
278761
45.5574
275082
290492
282639
335074
326826
334735
343322
373879
346255
344720
314806
356659
349629
366029
755407
812368
820716
617589
441445
528132
539776
293306
244718
315916
325843
276897
270493
348917
406390
286302
331897
427417
408806
355428
360871
250764
223223
242401
309114
283418
281801
318767
454113
354103
345962
421329
335557
326394
423780
198174
210620
218518
238194
247898
276204
289776
850521
872971
870497
941884
973628
957656
1.00161e+06
341602
391877
368373
510606
321452
422544
395258
300788
366024
354111
300218
291559
344167
353806
815860
934080
922796
1.05303e+06
934608
933552
981785
489823
820820
401268
324643
653458
597066
967864
246712
283993
334560
206779
229827
262560
309428
326695
215160
301550
502785
568669
611874
560563
290928
377853
287052
296811
382508
390307
303792
379735
314194
379197
346059
364031
343120
394420
488624
522935
420241
380313
550417
416924
376383
363847
428599
371795
379731
433040
438499
371641
905028
1.00833e+06
980659
953836
1.11209e+06
1.04438e+06
975844
630507
758125
605955
423796
501465
479898
426485
332766
306987
342969
355486
364763
408766
421491
1.09817e+06
957937
1.26611e+06
1.21546e+06
826944
960268
1.29795e+06
739968
517105
576804
351460
378148
408678
389976
307646
269343
298850
398657
398458
349328
362686
424078
347170
335457
312211
389988
405842
322543
272207
308197
260556
380700
314162
349387
360552
461731
392667
401061
389596
445530
451885
381346
400723
496050
415458
615621
523003
543363
629025
393073
374894
464405
317852
356887
377321
439700
1.02982e+06
1.25713e+06
519213
886845
660249
1.18749e+06
527611
704708
514523
558545
416965
399727
436455
422996
555235
517941
501059
379995
567458
466035
434881
352204
299899
387713
264757
249740
402178
355234
390723
438841
378044
386342
476039
449450
399657
480595
514174
502163
425855
404047
412682
417247
441074
376314
448367
406409
372330
368326
395207
391510
351355
336730
253234
265775
345674
357563
1.18529e+06
938326
1.10656e+06
993865
922303
1.1259e+06
1.18161e+06
536803
411627
366650
397030
432765
496914
424133
1.1682e+06
996732
1.17439e+06
878019
1.06679e+06
962937
1.23525e+06
544353
636937
542077
524404
472872
598909
467654
97.2041
8592.05
400.763
112715
6886.75
18.1788
13.3681
484016
426517
409577
396892
493919
464172
411431
658748
464067
606158
524903
436065
571374
644577
528073
492438
502144
600329
603315
510326
500944
21581.1
3639.1
1.05829
103.559
0.403627
1.81871
5014.93
135.635
372.604
34848.2
358.693
81242.3
154550
290.834
336706
366904
305440
361513
367592
321354
279646
321305
375130
333700
363478
359993
366808
355062
439341
649174
381277
397475
411813
541529
450045
351997
344882
297840
392802
370310
386252
379658
378174
385698
368557
311041
383241
284431
371246
1.18851e+06
994352
799618
1.19163e+06
880131
1.15792e+06
1.17027e+06
509215
537654
579977
438313
444856
423022
467018
364398
364744
376760
373133
348554
373397
340709
597407
523051
457703
552788
513695
603753
484770
104348
0.223978
0.29144
0.0146646
0.0129501
0.000561159
0.0034535
0.000100085
2.18578
0.00902163
0.000419332
1.23902e-05
238731
352564
387.132
68817.9
917.69
4.95423
19507.9
335127
1165.31
14026.1
62785.9
262288
587415
640659
153355
1.27725e+06
817181
770208
1.14918e+06
873124
1.26954e+06
1.26846e+06
528981
575108
566307
526812
526746
453402
444938
533767
545734
646104
583671
403235
463920
462653
668810
667614
672720
501519
645076
642313
547475
278267
395143
341600
436588
462487
442349
406472
424505
544620
435701
644469
522632
540611
653227
512315
515038
524283
579480
586754
592994
586840
374.559
1602.04
185529
138.554
34306.6
11.2986