/*--------------------------------*- C++ -*----------------------------------*\
  =========                 |
  \\      /  F ield         | OpenFOAM: The Open Source CFD Toolbox
   \\    /   O peration     | Website:  https://openfoam.org
    \\  /    A nd           | Version:  9
     \\/     M anipulation  |
\*---------------------------------------------------------------------------*/
FoamFile
{
    format      ascii;
    class       surfaceScalarField;
    location    "0.0017";
    object      phi;
}
// * * * * * * * * * * * * * * * * * * * * * * * * * * * * * * * * * * * * * //

dimensions      [0 3 -1 0 0 0 0];

internalField   nonuniform List<scalar> 
38371
(
-0.014543
-0.00116219
0.00080154
-0.000997497
0.00064234
0.000607272
-3.64003e-08
-3.96891e-08
1.03064e-09
1.85378e-09
1.26233e-09
-8.50238e-09
1.12604e-09
-9.69944e-09
-3.99936e-08
6.88026e-10
9.96771e-10
-4.83542e-09
3.01021e-11
-2.52214e-10
1.67688e-11
2.47198e-11
-1.1525e-10
-5.90461e-12
3.90799e-13
5.68434e-13
-2.66454e-12
1.52902e-08
-1.68183e-07
9.35628e-09
-6.98846e-08
-5.05758e-08
-6.06276e-08
-6.39266e-08
-4.23694e-08
4.85727e-10
2.4324e-10
-1.58298e-09
-1.32513e-09
5.67724e-12
-3.69056e-11
-3.23581e-11
-2.2912e-09
-5.42881e-10
-1.79057e-08
-2.03074e-09
4.44565e-10
1.34053e-09
8.99675e-10
-2.18474e-09
0.106325
-0.134632
0.107408
-0.968485
-0.349301
0.0804583
6.41959e-10
9.40249e-09
-4.24602e-08
-4.64826e-10
-1.65783e-07
2.77054e-09
3.35601e-08
3.12746e-08
-3.8165e-08
-8.55943e-08
-1.05365e-07
5.01891e-09
-2.70555e-08
-1.716e-08
-5.86875e-08
-3.14377e-07
-1.27066e-07
-2.45794e-07
3.1321e-08
6.43553e-08
-1.81635e-06
-1.9631e-07
-3.98277e-08
-4.68581e-08
-5.55483e-08
-8.89241e-08
-1.00804e-06
-1.51367e-07
2.61706e-08
-3.67055e-08
-6.07511e-08
-3.20625e-07
-9.20084e-08
-5.3056e-08
-4.02788e-08
-4.92972e-08
-1.30825e-07
2.05653e-10
1.48423e-11
-9.53753e-11
-7.54179e-11
1.63465e-11
5.21361e-13
6.19729e-08
2.08287e-08
-7.7653e-07
-1.63927e-07
-7.18675e-08
2.41562e-08
4.62967e-10
-1.48527e-08
-2.16422e-10
-2.9709e-10
-1.15336e-09
6.52157e-10
-1.17534e-08
7.48764e-10
1.81896e-09
-6.93432e-09
-9.44706e-09
-2.75883e-10
-1.54595e-10
1.01384e-10
-6.42286e-11
1.86645e-08
-1.24339e-08
-3.6991e-07
-3.92757e-08
-1.46748e-08
1.09417e-08
-1.97258e-07
6.29161e-09
-1.18555e-08
-4.13063e-07
3.88731e-10
-0.0236183
0.00442937
-0.00904034
0.00676408
-0.100426
0.00306302
1.69738e-06
-5.80312e-05
2.95289e-06
-1.56808e-06
-1.05304e-05
1.57621e-06
-0.00357907
-0.0044411
-0.0257337
0.000618665
0.000894938
0.00151591
5.84272e-05
-0.0001456
-0.00016483
1.94133e-05
-0.000783126
2.62593e-05
2.65094e-06
1.06218e-06
-4.73206e-07
-6.07312e-06
-7.67567e-07
1.73673e-06
-6.35852e-06
-3.04497e-06
-9.22855e-06
-8.68544e-06
-2.99251e-06
-2.77372e-06
-2.33658e-06
0.00237602
-0.0673931
-0.0184124
-0.0114846
0.00268864
0.00317417
-3.94043e-07
-3.41472e-07
1.54106e-07
-2.40403e-06
1.48267e-07
-0.0384258
0.0304041
-0.357502
0.0169811
0.179645
0.165219
-1.2404
-0.465691
0.0549288
0.0540748
-0.555321
-0.00151052
-0.00546859
0.00112742
0.000787673
0.00183663
0.010058
0.00563883
-0.0307751
0.0124672
0.00277905
0.00364474
-0.0195563
0.00727175
2.38096e-09
1.6425e-09
2.78498e-09
-6.79125e-08
-9.32578e-09
-5.73914e-11
-3.11096e-10
8.03047e-12
9.55458e-12
-3.67706e-11
-5.01015e-10
1.21376e-11
-3.3321e-10
-3.28999e-10
-4.29478e-10
-1.36622e-09
6.24865e-11
7.71485e-11
-3.35977e-10
-9.5527e-09
2.27359e-10
-1.03885e-08
-2.41184e-09
5.41252e-08
1.30724e-07
-2.01094e-06
-2.88953e-07
-1.77598e-08
-9.47497e-09
1.35215e-09
3.11833e-07
-1.54712e-06
-1.65167e-07
2.45757e-07
1.49336e-07
-5.074e-06
-5.02126e-07
-8.86688e-07
7.89094e-09
-5.25218e-08
-1.22942e-06
-8.49216e-06
-0.00165824
0.00112008
0.000700359
-0.0197804
0.000454234
0.0118312
0.0153629
-0.205092
0.00335613
0.00211705
-0.0554895
-0.000343737
0.000214676
0.00038114
-0.000544526
5.93202e-05
0.000172491
9.46523e-05
0.000902411
3.31659e-05
2.10144e-05
-1.28414e-07
-5.73451e-08
-8.00934e-09
1.7249e-09
3.67579e-09
1.06471e-09
-1.14219e-09
-3.26716e-06
1.63463e-08
-1.06117e-06
-9.8346e-08
1.98187e-09
-4.81206e-08
-4.86758e-07
5.55317e-08
-4.63511e-07
-6.06795e-07
-3.07642e-06
-1.36304e-06
7.94878e-08
-1.20683e-06
-6.23776e-07
-3.76163e-06
-3.78478e-06
-3.53695e-06
-7.82553e-06
-8.63109e-07
-8.58107e-07
-2.38086e-07
2.90857e-06
-3.32201e-06
2.14341e-06
2.23009e-06
-3.85673e-06
-4.05237e-05
-6.38745e-06
-1.95461e-06
-4.16795e-05
-6.94934e-06
-2.65172e-06
-4.99086e-06
-1.80776e-06
-1.41734e-05
-3.15169e-06
1.06773e-07
-8.53385e-07
6.48426e-07
-1.35501e-06
-1.10631e-06
-7.45797e-06
-1.55314e-06
-1.15552e-06
-2.14561e-06
-4.01798e-06
-1.3889e-06
-1.67008e-06
-1.14612e-06
-1.24542e-06
-1.02405e-06
3.33857e-06
-1.3041e-05
-6.10623e-06
3.12059e-06
-2.14956e-05
-1.16087e-06
8.41674e-08
3.18331e-08
-5.50859e-07
9.40246e-08
-7.88327e-06
-1.11518e-06
1.72545e-07
-2.418e-05
3.98254e-06
-1.12387e-05
1.99866e-05
-5.5969e-05
-4.67851e-05
-8.04367e-08
-6.11752e-06
-0.000125038
-2.75676e-06
-0.00821404
-0.0023861
0.000335307
0.000329562
0.000386763
-1.61779e-06
1.28894e-06
-3.27824e-06
-5.64584e-06
1.51683e-06
-0.000281176
-0.000590971
-0.00134506
5.3833e-05
6.96785e-05
6.97449e-05
1.1195e-06
1.31572e-06
-4.10144e-06
-1.72277e-06
-2.39136e-05
-3.41221e-06
-4.28971e-06
-1.28587e-06
-1.77141e-06
-1.67438e-06
-1.72281e-06
-1.8274e-06
-3.78361e-06
-1.84682e-06
-0.019337
-0.0161937
-0.0979482
0.00370277
0.00362404
0.00472481
-9.97294e-05
-8.63369e-05
4.4841e-05
2.8018e-05
-0.000732025
2.2986e-05
-7.06598e-05
-0.000524104
-9.78018e-05
2.37695e-05
1.66578e-05
1.51623e-05
6.46868e-09
1.05231e-08
1.3581e-09
-5.94592e-07
-1.24455e-08
-1.05313e-08
-3.36109e-09
-3.27355e-09
7.87139e-11
6.50857e-12
-4.90648e-10
-5.01004e-11
-2.01773e-10
-3.85398e-11
-3.15104e-09
6.22884e-10
5.48354e-09
7.00162e-10
1.00206e-09
3.29695e-10
5.99606e-10
3.13577e-10
1.4726e-12
-2.54516e-10
1.13083e-11
-8.31513e-12
1.96021e-12
6.55032e-13
1.42952e-12
5.8753e-13
9.32587e-15
-6.50147e-13
4.08562e-14
-1.38556e-13
6.21725e-15
3.55271e-15
6.21725e-15
2.22045e-15
-9.32587e-15
-7.10543e-15
-7.10543e-14
5.32907e-15
0
-1.29674e-13
-7.54952e-15
-8.9706e-14
-1.61901e-10
-4.92051e-13
8.61533e-13
2.45493e-12
2.43361e-13
8.66862e-13
8.88178e-14
-4.05009e-13
-1.20792e-13
-2.0961e-13
-7.81597e-14
5.82966e-09
3.06835e-09
1.14077e-09
-1.43875e-09
-4.44452e-10
-8.4186e-10
-4.2486e-10
1.59211e-10
5.08678e-11
2.80131e-11
-5.15143e-13
-7.90479e-13
6.44818e-13
1.58096e-13
4.09273e-12
8.52651e-13
6.50147e-13
1.63425e-13
6.75016e-14
1.40332e-13
7.10543e-14
9.9476e-14
2.13163e-14
1.42109e-14
1.77636e-15
-5.32907e-15
1.77636e-15
-1.77636e-15
7.10543e-15
0
0
-6.03961e-14
-1.59872e-14
-1.95399e-14
-8.88178e-15
7.10543e-15
0
5.67233e-10
3.71557e-10
1.17993e-10
-1.59612e-08
1.88862e-11
1.085e-11
3.55271e-12
5.47118e-13
2.62901e-13
9.59233e-14
1.42109e-14
7.10543e-15
0
0
0
0
0
0
1.82681e-11
1.74083e-11
4.10694e-12
-4.64631e-10
6.60805e-13
5.54223e-13
1.3145e-13
2.13163e-14
1.42109e-14
0
0
0
0
0
0
0
0
0
5.04485e-13
6.11067e-13
1.20792e-13
-1.16245e-11
1.42109e-14
2.13163e-14
0
0
0
0
0
0
0
0
0
0
0
0
1.42109e-14
1.42109e-14
0
-2.62901e-13
0
0
0
0
0
0
0
0
0
0
0
0
0
0
0
0
-7.10543e-15
0
0
0
0
0
0
0
0
0
-4.89797e-10
3.19158e-10
2.70136e-10
5.39782e-11
-2.36084e-08
-2.51464e-10
-9.70353e-11
-7.37921e-11
-5.01643e-11
4.19931e-12
1.01608e-12
-1.94493e-11
-1.71241e-12
-2.50111e-12
-1.32694e-12
-1.7652e-10
-9.12037e-10
1.23532e-10
1.05122e-09
8.55831e-11
5.89111e-11
4.27653e-11
2.67962e-10
1.07669e-10
-1.69997e-12
3.33955e-13
-4.70326e-11
1.99663e-12
-2.17071e-12
4.72511e-13
2.00728e-13
2.46914e-13
9.32587e-14
-5.32907e-15
1.77636e-15
-2.16716e-13
1.06581e-14
-3.19744e-14
2.66454e-15
8.88178e-16
1.33227e-15
4.44089e-16
0
-4.44089e-16
-1.77636e-15
-1.77636e-15
0
0
-2.22045e-15
-4.44089e-16
-8.88178e-16
-4.12648e-12
-8.88178e-15
-1.08358e-13
1.95399e-14
6.75016e-14
1.24345e-14
7.10543e-14
1.77636e-14
-1.42109e-14
-7.10543e-15
-7.10543e-15
-1.77636e-15
1.59815e-09
7.9163e-10
3.82553e-10
-2.47663e-10
-1.02119e-10
-1.15602e-10
-2.79705e-11
4.53753e-11
1.32445e-11
9.54969e-12
3.87246e-13
-4.60076e-13
-2.14939e-13
2.00728e-13
1.08713e-12
2.13163e-13
2.13163e-13
3.90799e-14
1.06581e-14
1.77636e-14
8.88178e-15
2.13163e-14
7.10543e-15
3.55271e-15
-1.77636e-15
-1.77636e-15
-1.77636e-15
0
0
0
0
-1.77636e-15
-3.55271e-15
0
0
0
0
1.37234e-10
9.9206e-11
3.77653e-11
-2.94927e-09
4.68958e-12
2.79954e-12
1.15818e-12
1.27898e-13
6.39488e-14
2.84217e-14
0
0
0
0
0
0
0
0
4.12825e-12
4.19931e-12
1.26832e-12
-9.09424e-11
1.49214e-13
1.27898e-13
3.90799e-14
7.10543e-15
0
0
0
0
0
0
0
0
0
0
1.06581e-13
1.35003e-13
3.55271e-14
-2.37321e-12
0
7.10543e-15
0
0
0
0
0
0
0
0
0
0
0
0
0
0
0
-5.68434e-14
0
0
0
0
0
0
0
0
0
0
0
0
0
0
0
0
0
0
0
0
0
0
0
0
0
0
-3.66818e-12
-1.08358e-13
5.18696e-13
7.60281e-13
2.57572e-13
-2.53593e-11
-1.15463e-13
-8.39329e-14
-1.95399e-14
4.33431e-13
9.23706e-14
-1.77636e-13
-5.68434e-14
-7.4607e-14
-1.59872e-14
-1.8467e-11
-1.56319e-13
3.41949e-14
-5.72342e-12
2.32703e-13
-2.52243e-13
5.32907e-14
1.90958e-14
2.66454e-14
9.76996e-15
-8.88178e-16
0
-2.30926e-14
0
-1.77636e-15
0
0
0
0
0
-4.44089e-16
0
0
1.77636e-15
0
-4.44089e-16
-4.44089e-16
-4.44089e-16
-2.30926e-14
0
-1.77636e-15
0
0
0
7.10543e-15
0
0
0
0
0
2.7967e-10
1.35515e-10
5.00187e-11
-3.95453e-11
-2.09113e-11
-2.35438e-11
-5.08749e-12
-1.25464e-08
5.91882e-12
1.7053e-12
1.08713e-12
-1.06581e-14
-1.06581e-13
-8.52651e-14
3.55271e-15
1.20792e-13
2.84217e-14
2.13163e-14
1.77636e-15
-1.77636e-15
0
0
0
0
0
0
0
0
0
0
0
0
0
0
0
0
0
0
1.77138e-11
1.33369e-11
4.18154e-12
-4.52779e-10
5.18696e-13
3.12639e-13
1.1724e-13
1.42109e-14
7.10543e-15
3.55271e-15
0
0
0
0
0
0
0
0
4.40536e-13
4.61853e-13
1.24345e-13
-1.02887e-11
1.42109e-14
1.42109e-14
3.55271e-15
0
0
0
0
0
0
0
0
0
0
0
7.10543e-15
1.42109e-14
3.55271e-15
-2.20268e-13
0
0
0
0
0
0
0
0
0
0
0
0
0
0
0
0
0
-7.10543e-15
0
0
0
0
0
0
0
0
0
0
0
0
0
0
0
0
0
0
0
0
0
0
0
0
0
0
-4.35207e-14
-3.9968e-15
2.13163e-14
3.90799e-14
7.99361e-15
-1.05338e-12
-4.44089e-15
-2.66454e-15
-4.44089e-16
5.68434e-14
1.42109e-14
-1.24345e-14
-5.32907e-15
-7.10543e-15
-1.77636e-15
-2.37321e-12
-6.21725e-15
1.33227e-15
-7.67386e-13
2.4869e-14
-8.88178e-15
-4.26326e-14
4.44089e-16
8.88178e-16
4.44089e-16
0
-4.44089e-16
-1.77636e-15
0
1.77636e-15
0
-4.44089e-16
-4.44089e-16
-4.44089e-16
0
-4.44089e-16
0
0
1.77636e-15
0
-4.44089e-16
-4.44089e-16
-4.44089e-16
-1.77636e-15
0
0
0
0
0
0
0
0
0
0
0
2.68443e-11
1.82112e-11
1.27862e-11
-6.34337e-12
-3.5314e-12
-2.38014e-11
-2.24887e-12
4.83169e-13
1.7053e-13
2.66454e-13
-1.42109e-14
-1.95399e-14
-3.73035e-14
-3.55271e-15
7.10543e-15
7.10543e-15
0
-1.77636e-15
-1.77636e-15
-1.77636e-15
0
0
0
0
0
0
0
0
0
0
0
0
0
0
0
0
0
1.37845e-12
1.10134e-12
3.33955e-13
-3.75451e-11
3.55271e-14
2.13163e-14
1.06581e-14
0
0
0
0
0
0
0
0
0
0
0
2.84217e-14
2.84217e-14
1.77636e-14
-7.67386e-13
0
0
0
0
0
0
0
0
0
0
0
0
0
0
0
0
0
-1.42109e-14
0
0
0
0
0
0
0
0
0
0
0
0
0
0
0
0
0
0
0
0
0
0
0
0
0
0
0
0
0
0
0
0
0
0
0
0
0
0
0
0
0
0
0
0
1.71464e-09
-3.90545e-08
3.32803e-09
-1.69706e-09
3.31856e-09
-3.9791e-08
8.21565e-14
-5.72795e-11
6.17861e-12
6.7768e-13
6.14353e-12
-2.23332e-11
-1.62093e-14
-3.29958e-13
3.9968e-14
6.43929e-15
5.28466e-14
-9.76996e-14
3.55271e-15
-1.77636e-15
-3.90799e-14
-8.88178e-16
-7.10543e-15
1.77636e-15
7.10543e-15
0
-3.19744e-13
-3.55271e-15
-1.77636e-15
0
1.82954e-09
-2.62067e-07
-1.3027e-10
7.49607e-09
4.37079e-09
6.62581e-13
-3.58513e-12
-7.8531e-11
2.16538e-12
1.59162e-12
-1.9087e-12
-1.22835e-12
-1.55387e-11
-4.56524e-12
1.77636e-15
-7.10543e-15
-7.4607e-14
3.55271e-15
3.55271e-15
-9.76996e-15
-3.10862e-15
-3.64153e-14
-1.28786e-14
0
-4.44089e-16
0
0
1.77636e-15
0
-4.44089e-16
-8.88178e-16
-4.44089e-16
0
0
0
0
0
0
0
0
0
0
0
0
3.97762e-11
3.27134e-11
6.85674e-12
-3.61219e-10
-1.87292e-10
-2.42952e-11
-7.06848e-11
5.54223e-13
2.62901e-13
2.30926e-13
-3.09086e-13
-1.3145e-13
-1.29141e-12
-3.6593e-13
7.10543e-15
7.10543e-15
0
-1.77636e-15
-1.77636e-15
-8.88178e-15
-3.55271e-15
0
0
0
0
0
0
0
0
0
0
0
0
0
0
0
0
1.3074e-12
1.11555e-12
1.84741e-13
-6.02327e-11
2.13163e-14
1.42109e-14
0
0
0
0
0
0
0
0
0
0
0
0
2.13163e-14
2.84217e-14
3.55271e-15
-1.00187e-12
0
0
0
0
0
0
0
0
0
0
0
0
0
0
0
0
0
-1.42109e-14
0
0
0
0
0
0
0
0
0
0
0
0
0
0
0
0
0
0
0
0
0
0
0
0
0
0
0
0
0
0
0
0
0
0
0
0
0
0
0
0
0
0
0
0
2.74109e-07
2.0482e-07
2.2199e-07
-3.7558e-06
-9.46068e-07
-1.00079e-06
-8.98717e-07
-9.69937e-07
9.43157e-11
-1.68821e-09
-8.0408e-10
-6.83207e-10
1.49763e-10
1.36627e-10
3.55893e-12
-1.51676e-10
-3.01839e-11
-5.59197e-12
9.98313e-12
8.94929e-12
1.19904e-13
-6.51212e-12
-1.79234e-12
-9.05942e-14
3.14415e-13
3.8014e-13
4.26326e-14
6.39488e-14
1.77636e-14
-2.46558e-12
-1.77636e-15
-1.77636e-15
-1.77636e-15
-8.88178e-16
-7.81597e-14
-8.17124e-14
-2.4869e-14
-2.84217e-14
0
0
-6.39488e-14
1.04475e-09
1.06011e-09
5.11019e-10
-2.60117e-10
-2.74615e-10
-2.36779e-10
-2.18879e-08
-2.1206e-09
-2.49571e-09
-7.32854e-10
1.85381e-11
1.06368e-11
6.37002e-12
-2.07301e-12
-1.90159e-12
-1.65201e-12
-1.77991e-12
-8.84999e-11
-1.5639e-11
-2.26805e-11
-1.309e-11
2.84217e-13
1.35003e-13
1.13687e-13
-1.77636e-15
-7.10543e-15
-4.44089e-15
-8.88178e-16
-9.50351e-13
-3.19744e-13
-7.6561e-13
-3.62377e-13
7.10543e-15
7.10543e-15
0
0
0
0
0
-2.66454e-14
-8.88178e-15
-3.01981e-14
-1.06581e-14
0
0
0
0
0
0
0
0
0
2.46416e-11
2.88551e-11
1.32481e-11
-5.85828e-10
5.54223e-13
4.33431e-13
1.98952e-13
7.10543e-15
7.10543e-15
0
0
0
0
0
0
0
0
0
5.18696e-13
6.6791e-13
1.56319e-13
-1.26761e-11
1.42109e-14
1.42109e-14
0
0
0
0
0
0
0
0
0
0
0
0
7.10543e-15
1.42109e-14
0
-2.4869e-13
0
0
0
0
0
0
0
0
0
0
0
0
0
0
0
0
0
0
0
0
0
0
0
0
0
0
0
0
0
0
0
0
0
0
0
0
0
0
0
0
0
0
0
0
0
0
0
0
0
0
0
0
0
0
0
0
0
0
0
0
0
0
1.57744e-09
1.89445e-09
1.20709e-09
-3.74597e-08
-1.67981e-09
-1.2212e-08
-2.08905e-09
-6.81811e-10
7.64686e-11
9.6513e-11
5.83213e-11
-2.14839e-09
-3.79794e-11
-2.61373e-11
-2.21068e-11
4.10694e-12
5.05196e-12
2.50111e-12
-1.26427e-10
-1.61737e-12
-1.13154e-12
-1.06226e-12
1.91847e-13
2.06057e-13
9.59233e-14
-4.88853e-12
-4.08562e-14
-3.9968e-14
-3.90799e-14
7.10543e-15
7.10543e-15
3.55271e-15
-1.7053e-13
0
0
0
5.61187e-11
7.03793e-11
3.41345e-11
2.34479e-12
3.18323e-12
1.08713e-12
1.06581e-13
1.49214e-13
6.75016e-14
7.10543e-15
7.10543e-15
0
0
0
0
0
0
1.71951e-12
2.3519e-12
9.80549e-13
-2.91536e-11
7.10543e-14
9.9476e-14
2.84217e-14
0
7.10543e-15
0
0
0
0
0
0
0
0
0
3.55271e-14
5.68434e-14
2.13163e-14
-7.17648e-13
0
0
0
0
0
0
0
0
0
0
0
0
0
0
0
0
0
-1.42109e-14
0
0
0
0
0
0
0
0
0
0
0
0
0
0
0
0
0
0
0
0
0
0
0
0
0
0
0
0
0
0
0
0
0
0
0
0
0
0
0
0
0
0
0
0
0
0
0
0
0
0
0
0
0
0
0
0
0
0
0
0
0
0
5.55787e-11
6.58389e-11
5.47793e-11
-1.00445e-09
3.43192e-12
4.22773e-12
3.01981e-12
-6.98037e-11
1.91847e-13
2.20268e-13
1.42109e-13
-3.60245e-12
7.10543e-15
7.10543e-15
3.55271e-15
-1.49214e-13
0
0
0
-7.10543e-15
0
0
0
2.01794e-12
2.75691e-12
1.72662e-12
-2.84075e-11
1.13687e-13
1.63425e-13
8.52651e-14
7.10543e-15
7.10543e-15
3.55271e-15
0
0
0
0
0
0
0
0
6.39488e-14
9.9476e-14
4.9738e-14
-9.02389e-13
0
7.10543e-15
3.55271e-15
0
0
0
0
0
0
0
0
0
0
0
0
0
0
-2.13163e-14
0
0
0
0
0
0
0
0
0
0
0
0
0
0
0
0
0
0
0
0
0
0
0
0
0
0
0
0
0
0
0
0
0
0
0
0
0
0
0
0
0
0
0
0
0
0
0
0
0
0
0
0
0
0
0
0
0
0
0
0
0
0
0
0
0
0
0
0
0
0
0
0
0
0
0
0
0
0
0
0
1.53477e-12
1.86162e-12
1.82609e-12
-2.54659e-11
1.06581e-13
1.20792e-13
1.10134e-13
-1.81899e-12
7.10543e-15
7.10543e-15
3.55271e-15
-9.23706e-14
0
0
0
0
0
0
0
0
0
0
0
5.68434e-14
8.52651e-14
6.39488e-14
-7.31859e-13
0
7.10543e-15
3.55271e-15
0
0
0
0
0
0
0
0
0
0
0
0
0
0
-2.13163e-14
0
0
0
0
0
0
0
0
0
0
0
0
0
0
0
0
0
0
0
0
0
0
0
0
0
0
0
0
0
0
0
0
0
0
0
0
0
0
0
0
0
0
0
0
0
0
0
0
0
0
0
0
0
0
0
0
0
0
0
0
0
0
0
0
0
0
0
0
0
0
0
0
0
0
0
0
0
0
0
0
0
0
0
0
0
0
0
0
0
0
0
0
0
0
0
0
0
0
4.26326e-14
4.9738e-14
-5.96856e-13
0
0
-4.26326e-14
0
0
0
0
0
0
0
0
0
0
0
0
0
-1.42109e-14
0
0
0
0
0
0
0
0
0
0
0
0
0
0
0
0
0
0
0
0
0
0
0
0
0
0
0
0
0
0
0
0
0
0
0
0
0
0
0
0
0
0
0
0
0
0
0
0
0
0
0
0
0
0
0
0
0
0
0
0
0
0
0
0
0
0
0
0
0
0
0
0
0
0
0
4.05625e-10
1.15967e-09
7.31768e-11
5.93836e-12
-1.65863e-11
4.59099e-12
-3.60219e-11
5.72875e-13
-3.1454e-10
8.95153e-11
-1.24223e-10
1.96704e-10
4.07467e-10
5.33174e-12
-1.18292e-11
1.55564e-12
-1.59139e-12
3.79874e-12
-2.25095e-11
5.20028e-13
1.13465e-12
7.06102e-14
9.76996e-15
-4.9738e-14
7.10543e-15
-4.84057e-14
1.11022e-15
-1.00941e-12
1.62537e-13
-1.74305e-13
3.67706e-13
6.00409e-13
1.15463e-14
-7.9492e-14
2.88658e-15
-2.66454e-15
9.76996e-15
-3.73035e-14
1.33227e-15
3.10862e-15
4.44089e-16
-2.66454e-15
-4.44089e-16
-4.44089e-16
0
0
-4.88498e-15
2.22045e-16
-2.22045e-16
4.44089e-16
1.33227e-15
0
0
0
0
0
0
-3.25386e-06
4.79421e-09
4.50546e-08
8.11114e-08
-5.06262e-14
-6.26166e-14
2.22045e-16
1.88289e-11
2.60014e-12
-1.94325e-11
2.4527e-12
1.63869e-13
-1.08552e-06
-1.18663e-08
1.45079e-08
5.78257e-09
2.63349e-08
1.33227e-15
0
-2.22045e-16
-4.88498e-15
-4.88498e-15
5.96545e-12
7.01217e-13
1.01252e-13
-2.84439e-13
-4.18909e-12
3.64153e-13
3.86905e-10
5.35394e-11
-1.01049e-08
1.06413e-10
1.5171e-11
-2.5171e-11
-1.46976e-11
-2.32103e-11
1.37668e-12
1.12923e-11
2.07882e-09
3.00265e-09
-1.59884e-07
-3.76956e-09
-2.07348e-09
-8.71998e-10
-9.37757e-10
1.35959e-10
2.97504e-11
-3.61477e-09
1.74882e-11
7.88525e-12
-5.97566e-12
-6.05871e-12
-7.38565e-12
4.74483e-11
6.59917e-13
3.64153e-12
-1.60821e-10
4.74412e-11
3.22413e-11
1.49458e-11
3.07665e-11
2.51867e-09
3.13161e-10
3.45022e-11
2.09825e-10
2.92714e-09
1.94762e-10
3.47828e-10
1.45158e-10
1.86348e-10
-9.75877e-11
1.34596e-10
4.74545e-11
1.21023e-11
1.52256e-11
1.85261e-11
1.55905e-09
3.23952e-10
1.60238e-10
3.98934e-11
-2.5171e-12
1.01252e-13
1.22569e-13
3.59712e-14
8.26006e-14
2.25739e-11
1.73017e-12
4.84945e-13
3.10685e-12
5.99343e-12
-8.1517e-12
9.98313e-13
3.05089e-13
4.34763e-13
-2.04281e-12
2.93099e-13
9.05942e-14
5.24025e-14
8.4821e-14
8.70415e-14
1.77778e-11
2.1787e-12
2.47979e-12
6.1906e-13
-5.50671e-14
0
4.44089e-16
8.88178e-16
4.44089e-16
5.02709e-13
2.75335e-14
8.88178e-15
6.57252e-14
1.95399e-14
-1.1191e-13
3.55271e-15
1.77636e-15
1.33227e-15
-4.26326e-14
5.32907e-15
0
4.44089e-16
0
0
3.9968e-13
3.64153e-14
5.32907e-14
1.33227e-14
1.56319e-13
1.95399e-14
-1.91003e-12
-2.07923e-12
-1.37712e-12
5.32907e-15
0
0
1.77636e-15
-2.30926e-14
-1.77636e-15
-3.10862e-15
-1.11022e-14
-3.73035e-14
4.44089e-14
7.10543e-15
-8.10019e-13
-1.99396e-13
-5.71987e-13
1.40332e-13
7.10543e-15
0
0
0
7.50737e-11
2.43513e-10
6.19136e-11
1.66223e-12
-4.44844e-12
1.32827e-12
-9.58167e-12
7.50511e-13
5.24913e-13
-1.31406e-12
1.3145e-13
-1.68976e-13
3.67262e-13
-2.03526e-12
1.2701e-13
3.72147e-13
9.59233e-14
2.22045e-15
-1.46549e-14
2.22045e-15
-1.19904e-14
1.33227e-15
-1.03029e-13
1.42109e-14
-1.79856e-14
3.5083e-14
5.72875e-14
8.88178e-16
-8.88178e-15
2.22045e-16
-2.22045e-16
8.88178e-16
-3.55271e-15
0
8.88178e-16
0
0
0
0
0
0
0
0
0
0
0
0
0
0
0
0
0
-6.38361e-08
-1.39257e-09
7.78315e-10
2.70664e-10
1.47155e-09
-8.88178e-16
-8.88178e-16
0
4.06342e-13
7.63833e-14
-4.37872e-13
5.63993e-14
2.37588e-14
-6.4418e-10
-3.94491e-11
6.15685e-12
3.99814e-12
1.38103e-11
4.44089e-16
0
0
0
0
1.46549e-14
4.44089e-15
8.88178e-16
-3.10862e-15
-1.95399e-14
2.66454e-15
1.58575e-11
3.65397e-12
-6.57106e-10
2.31815e-12
7.96696e-13
-4.40536e-13
-1.11022e-13
-4.00124e-13
1.03029e-13
3.89022e-13
9.77529e-12
1.08535e-11
-5.47432e-10
-3.68061e-12
-2.19513e-12
-6.22169e-13
-1.99218e-12
9.91207e-13
3.19744e-13
-2.4361e-11
1.24345e-14
6.83897e-14
-1.42109e-14
-1.33227e-14
-1.06581e-14
2.23821e-13
1.59872e-14
5.68434e-14
-5.02673e-11
1.17542e-11
6.58673e-12
2.02993e-12
5.135e-12
4.96057e-10
1.62754e-10
2.26361e-11
4.85496e-11
-2.06288e-11
1.33049e-11
5.08305e-12
1.34559e-12
1.58762e-12
1.9984e-12
-3.03219e-10
1.85736e-10
4.28821e-11
4.10285e-11
1.8936e-11
6.12577e-12
-6.94556e-13
3.01981e-14
2.26485e-14
7.10543e-15
1.02141e-14
6.52634e-12
1.40332e-12
3.8991e-13
8.41993e-13
5.8975e-13
-9.166e-13
1.02141e-13
3.06422e-14
5.72875e-14
-3.03757e-13
3.01981e-14
1.24345e-14
4.44089e-15
9.32587e-15
9.76996e-15
2.10143e-12
3.72147e-13
3.12639e-13
1.08358e-13
-1.24345e-14
0
0
0
0
1.29674e-13
2.4869e-14
7.99361e-15
1.59872e-14
1.77636e-15
-1.59872e-14
0
0
0
-3.55271e-15
0
0
0
0
0
4.26326e-14
7.10543e-15
5.32907e-15
1.77636e-15
3.55271e-15
8.88178e-16
-2.79776e-14
-2.4869e-14
-7.54952e-15
3.55271e-15
0
0
0
0
1.77636e-15
-4.44089e-16
-4.44089e-16
-4.44089e-16
0
0
-5.32907e-15
-8.88178e-16
-1.33227e-15
0
0
0
0
0
1.65201e-13
-4.80505e-13
1.32339e-13
-1.04849e-12
7.12763e-14
6.61693e-14
-1.57652e-13
1.35447e-14
-2.35367e-14
4.57412e-14
-2.49134e-13
1.28786e-14
3.64153e-14
8.43769e-15
0
-1.33227e-15
0
-8.88178e-16
0
-1.11022e-14
1.55431e-15
-2.44249e-15
3.55271e-15
6.21725e-15
0
-4.44089e-16
0
0
0
0
0
0
0
0
4.44089e-16
0
0
0
4.44089e-16
0
0
0
0
0
4.44089e-16
0
0
0
0
-2.79954e-12
-2.51799e-13
8.99281e-14
-1.86517e-14
2.10942e-13
0
0
0
4.44089e-16
1.33227e-15
-3.55271e-15
4.44089e-16
0
1.59872e-14
-4.64073e-13
-2.30926e-14
1.31006e-14
8.88178e-16
4.35207e-14
4.44089e-16
0
0
0
0
4.44089e-16
8.88178e-16
0
0
-8.88178e-16
0
1.54543e-13
6.21725e-14
-2.74269e-12
0
6.21725e-15
0
4.44089e-16
-4.44089e-16
3.55271e-15
1.06581e-14
8.52651e-14
1.68754e-13
-4.79616e-12
-1.95399e-14
-1.77636e-15
-1.24345e-14
5.32907e-14
1.33227e-14
-9.64562e-13
-1.77636e-15
1.77636e-15
-4.44089e-16
-4.44089e-16
0
5.32907e-15
8.88178e-16
3.55271e-15
-6.58673e-12
1.41931e-12
7.92255e-13
2.42917e-13
6.44373e-13
-1.31356e-10
6.20641e-11
2.07958e-11
-8.79652e-12
-1.00027e-09
2.70006e-12
6.06271e-12
-2.37854e-12
1.80655e-12
2.91323e-13
1.62093e-13
1.9007e-13
2.49578e-13
-4.52847e-11
2.49081e-11
3.66107e-12
5.17453e-12
-4.47971e-10
2.20801e-12
6.0929e-13
-7.4607e-14
2.66454e-15
1.77636e-15
4.44089e-16
4.44089e-16
7.14095e-13
1.6076e-13
4.17444e-14
9.05942e-14
7.28306e-14
-9.76996e-14
1.11022e-14
3.10862e-15
6.66134e-15
-3.73035e-14
3.55271e-15
8.88178e-16
4.44089e-16
4.44089e-16
4.44089e-16
2.27374e-13
3.73035e-14
3.37508e-14
1.06581e-14
1.77636e-15
0
-4.44089e-16
-4.44089e-16
-4.44089e-16
1.06581e-14
1.77636e-15
0
1.77636e-15
0
1.77636e-15
-4.44089e-16
-4.44089e-16
-4.44089e-16
1.77636e-15
0
0
-4.44089e-16
-4.44089e-16
-4.44089e-16
3.55271e-15
0
0
0
1.77636e-15
0
-4.44089e-16
-8.88178e-16
-4.44089e-16
0
0
0
0
0
1.77636e-15
-4.44089e-16
-4.44089e-16
-4.44089e-16
1.77636e-15
0
-8.88178e-16
-4.44089e-16
-4.44089e-16
0
0
0
0
0
1.19904e-14
-1.95399e-14
8.88178e-15
-7.01661e-14
1.11022e-15
1.4837e-12
4.86944e-12
1.03584e-12
-2.41402e-11
-1.99867e-11
-7.98761e-12
4.44089e-16
1.77636e-15
-2.22045e-16
0
0
0
0
0
1.61204e-13
-8.12683e-13
8.59313e-14
-1.33316e-12
1.26565e-13
4.44089e-16
2.22045e-15
-8.21565e-15
8.88178e-16
-6.66134e-15
-3.55271e-15
0
0
0
0
4.44089e-16
0
0
0
8.88178e-16
-1.55431e-15
0
-1.77636e-15
0
0
4.44089e-16
0
0
0
0
-1.19016e-13
-6.66134e-15
4.21885e-15
4.44089e-16
1.06581e-14
0
0
0
4.44089e-16
4.44089e-16
0
0
0
8.88178e-16
-1.82077e-14
-4.44089e-16
0
1.77636e-15
0
4.44089e-16
0
0
0
0
0
0
0
0
0
0
1.59872e-14
5.32907e-15
-2.66454e-13
0
0
-4.44089e-16
0
-4.44089e-16
0
1.77636e-15
3.55271e-15
1.06581e-14
-2.80664e-13
-4.44089e-16
0
-4.44089e-16
3.55271e-15
7.10543e-15
-1.08358e-13
0
0
0
0
0
0
0
0
-3.0731e-13
-2.18048e-12
1.86517e-14
-1.33227e-15
-3.01981e-14
-2.39897e-11
5.63993e-12
-5.32818e-12
-1.5266e-11
-6.21725e-15
5.06262e-13
3.9968e-12
8.45368e-12
-2.11919e-12
-3.29576e-11
-3.63798e-12
-3.7611e-10
-1.80904e-11
1.55147e-11
-3.38247e-10
-2.35563e-11
5.87974e-13
-1.00897e-12
-3.55271e-15
-1.77636e-15
0
0
0
4.9738e-14
4.44089e-15
2.66454e-15
5.32907e-15
1.74083e-13
1.15463e-13
-2.93099e-14
-5.06262e-14
-1.37668e-14
-3.55271e-15
3.55271e-15
-8.88178e-16
-5.32907e-15
-8.88178e-16
-3.28626e-14
2.84217e-14
-4.52971e-14
1.77636e-15
-3.55271e-15
1.77636e-15
0
-4.44089e-16
-4.44089e-16
-4.44089e-16
0
0
0
0
0
1.77636e-15
-4.44089e-16
-4.44089e-16
0
1.77636e-15
0
-4.44089e-16
-4.44089e-16
-4.44089e-16
0
0
0
0
0
1.77636e-15
-8.88178e-16
-4.44089e-16
-4.44089e-16
-4.44089e-16
0
0
0
0
0
1.77636e-15
-4.44089e-16
-4.44089e-16
-4.44089e-16
0
-8.88178e-16
0
0
0
0
0
0
0
0
1.07931e-11
-9.09977e-10
-4.68853e-10
1.1604e-10
7.72826e-12
1.06124e-10
-2.24709e-11
1.67066e-12
-9.15978e-12
-1.50329e-11
1.15463e-14
5.15143e-14
-1.1724e-13
-5.81757e-14
-1.2923e-13
1.13828e-08
1.02016e-08
-1.96003e-07
-3.00185e-07
-8.22401e-10
-1.90301e-10
-7.9731e-10
5.59608e-09
4.50855e-10
4.68104e-10
-8.4386e-09
-1.17757e-11
-1.25921e-11
-4.15445e-13
1.81148e-10
4.21837e-10
-9.25147e-09
4.47843e-10
1.33357e-10
-6.10756e-12
-2.14229e-12
3.39817e-12
1.13087e-12
1.95044e-11
2.13802e-11
4.32809e-12
8.72413e-13
2.38032e-13
3.03535e-13
2.88658e-13
-1.36113e-13
-3.50342e-12
-1.19948e-12
3.88134e-13
6.52811e-14
4.72955e-13
-2.53131e-14
3.10862e-15
-2.15383e-14
0
4.44089e-16
-4.44089e-16
0
-4.44089e-16
2.38813e-11
2.45954e-11
-4.74376e-10
-1.82521e-13
1.67422e-13
-1.44551e-13
7.8817e-12
2.05702e-12
1.58273e-12
-3.69891e-11
9.99201e-14
1.03473e-13
5.28466e-14
1.59872e-13
1.03384e-12
1.18661e-12
1.39444e-13
3.93019e-14
3.70814e-14
7.37188e-14
2.06501e-14
7.10543e-14
1.06581e-13
-1.95399e-14
9.99201e-15
2.66454e-15
7.10543e-15
6.66134e-15
-2.66454e-15
-2.79776e-14
2.66454e-15
1.33227e-15
-3.55271e-15
3.55271e-15
0
0
0
0
4.44089e-16
0
0
0
1.54543e-13
2.11386e-13
-3.6593e-12
1.33227e-14
6.43929e-15
1.33227e-14
-1.24345e-14
3.37508e-14
-6.37712e-13
2.30926e-14
-8.88178e-15
3.33067e-15
2.44249e-15
8.88178e-16
5.32907e-15
1.24345e-14
-1.77636e-15
4.44089e-16
4.44089e-16
8.88178e-16
0
3.55271e-15
3.55271e-15
0
0
0
0
0
6.51841e-10
-3.51115e-07
-2.91669e-08
-1.40857e-07
-1.37781e-08
-1.39536e-08
-1.66105e-08
-1.42515e-08
-1.22423e-08
8.83098e-11
-5.72499e-08
-1.34316e-09
-1.83927e-09
-2.98545e-10
-3.78621e-09
5.27933e-12
-6.5377e-11
-8.98837e-12
-1.92752e-11
-6.85141e-12
-5.81288e-10
-4.59597e-11
-1.75914e-10
2.7029e-11
2.35012e-11
8.41904e-12
-2.3443e-11
-1.78131e-10
-2.03229e-11
-2.60284e-10
6.25278e-13
-3.55094e-12
-7.90479e-13
-1.59872e-12
-5.40012e-13
-7.10187e-11
2.09509e-07
7.68495e-08
8.48708e-08
-6.25075e-08
-5.77501e-07
-4.46069e-07
-1.77682e-09
4.62213e-10
2.05068e-10
1.13906e-10
-2.67384e-11
-1.18027e-09
1.20792e-13
-3.01981e-14
-2.04281e-14
-1.22569e-13
-6.23501e-13
1.1724e-13
-1.20792e-13
-5.52447e-13
-3.33955e-13
-9.24416e-12
-0.000703889
-0.00441986
-0.00146175
0.000167624
0.000132433
0.000188926
2.7674e-09
-1.12168e-08
-1.02092e-08
2.45488e-09
-1.54042e-08
1.28193e-10
-6.41844e-10
-1.48892e-10
2.31427e-10
-2.08459e-09
4.49241e-12
-5.08429e-11
-3.90621e-12
1.05409e-11
-8.50875e-11
3.37508e-12
1.44595e-12
-7.63833e-14
-2.53131e-13
-6.30607e-13
-3.15303e-13
-3.94884e-12
-4.03055e-12
-4.48193e-11
-4.46292e-11
-2.91962e-11
2.4869e-14
-8.3844e-13
4.51591e-08
5.12253e-08
-2.12453e-07
-4.66839e-08
-1.38362e-06
-1.51461e-07
-2.37249e-07
-3.4985e-07
-7.6742e-08
-9.02297e-08
-5.54439e-08
-6.60017e-08
-6.75232e-08
-5.08532e-08
2.52665e-09
1.99596e-09
-1.50896e-09
-1.38886e-08
-6.60596e-09
-2.04801e-08
1.51374e-10
1.13396e-10
-8.75167e-11
-1.09266e-09
-6.71945e-10
-1.12047e-09
6.87095e-12
4.17444e-12
-2.85549e-12
-3.57945e-11
-1.72422e-11
-4.20002e-11
2.62901e-13
1.35003e-13
-1.47082e-12
3.55271e-15
-4.26326e-14
1.12841e-09
1.46942e-09
-8.03077e-09
7.92681e-11
8.18616e-11
-6.05148e-10
4.63274e-12
4.10338e-12
-3.14131e-11
2.20268e-13
1.59872e-13
-1.3074e-12
7.10543e-15
3.55271e-15
-4.26326e-14
0
0
2.82299e-11
4.03624e-11
-2.0092e-10
2.0961e-12
2.51532e-12
-1.52554e-11
1.27898e-13
1.24345e-13
-8.31335e-13
7.10543e-15
3.55271e-15
-3.55271e-14
0
0
0
0
0
6.53699e-13
-4.59011e-12
4.9738e-14
-3.62377e-13
0
-1.42109e-14
0
0
0
0
0
2.26711e-07
2.82687e-06
-0.000129313
-5.4714e-07
9.44627e-07
2.71357e-07
-4.44336e-05
7.69694e-08
3.24297e-08
-4.45915e-07
-1.12596e-06
-1.03059e-06
-4.13234e-06
-3.14852e-06
7.13307e-07
1.08825e-07
-1.01807e-06
-8.20539e-07
-1.6202e-05
-1.18187e-05
-9.09118e-06
-8.64446e-07
-7.63416e-07
-6.6318e-06
2.12411e-09
2.82812e-08
2.57298e-08
-4.73548e-07
-1.77986e-07
-1.43413e-06
-3.51901e-07
-6.87845e-07
1.89995e-07
3.745e-08
-2.94423e-07
-1.59889e-07
-1.65162e-06
-5.33065e-06
-2.60589e-07
-2.90092e-06
-9.79898e-07
-2.03879e-07
1.12248e-09
-6.64985e-08
5.41605e-08
1.30645e-08
-2.71032e-06
-1.91159e-09
4.97724e-10
1.85735e-10
-3.14197e-08
9.02236e-09
9.82552e-09
-2.61424e-08
-8.4268e-07
-5.34597e-07
-8.40614e-07
-8.37998e-07
2.59071e-08
4.9706e-09
-2.64216e-08
-1.58697e-08
-3.26116e-07
-6.18497e-08
-7.74777e-08
-9.66897e-08
-9.04204e-08
-8.93219e-08
3.16796e-10
3.84686e-10
4.8626e-10
-4.71251e-08
-3.5737e-09
4.80254e-10
2.3954e-10
-3.49911e-10
-2.58567e-10
-6.48221e-10
-3.64992e-09
-1.18922e-08
1.13127e-11
8.46301e-12
-6.49059e-12
1.7375e-12
-1.72085e-12
-4.41198e-11
8.50811e-10
3.22766e-10
-7.49783e-10
-2.06001e-09
8.96464e-10
-1.03065e-08
1.23546e-12
-4.4964e-13
2.07612e-13
-4.75175e-14
-5.55778e-12
4.60147e-11
2.93818e-11
-9.63036e-10
-6.55023e-10
1.7998e-11
1.12941e-11
-7.923e-12
-2.73683e-11
-1.48828e-11
-6.20561e-10
1.41309e-12
1.2394e-10
1.10688e-10
-8.51367e-10
-9.99894e-11
-1.07265e-10
-5.22406e-10
-1.28518e-09
1.5719e-11
4.82636e-12
-3.07212e-10
2.91678e-12
1.47615e-12
-1.20082e-12
-2.79599e-12
-3.46345e-12
2.89546e-13
-5.15513e-10
2.25665e-10
1.80192e-10
-2.23349e-09
2.56684e-13
-1.30118e-13
6.68354e-14
-5.77316e-15
-1.41887e-12
2.54086e-11
7.643e-12
-2.38847e-11
-6.48428e-11
2.97007e-11
-3.45122e-10
3.15303e-14
-4.21885e-15
1.33227e-15
-1.83853e-13
6.66134e-16
4.44444e-12
1.88916e-12
-7.49569e-11
6.71463e-13
2.76223e-13
-2.47358e-13
-7.63389e-13
-5.70655e-13
1.11022e-13
5.17808e-12
5.96501e-12
-2.70148e-11
-3.29825e-12
-3.64864e-12
3.09086e-12
-8.63434e-11
1.48859e-12
4.91163e-13
-2.30536e-11
1.29674e-13
-3.81917e-14
-9.85878e-14
-1.19904e-13
6.83897e-14
1.1907e-05
1.1594e-05
-2.63161e-05
-0.000193112
-0.000165135
5.94727e-06
-0.000112281
-0.000167821
-8.27256e-05
7.66029e-06
1.16397e-05
9.40892e-06
6.70837e-08
-7.18262e-07
5.37967e-08
-4.90025e-08
-4.98099e-07
1.2304e-09
-6.65475e-09
1.39681e-09
8.43288e-11
-8.64279e-09
-3.11796e-05
-4.39515e-05
-9.05122e-06
2.38771e-06
2.15763e-06
3.73001e-06
1.41722e-07
1.9426e-07
-8.48658e-08
-3.34595e-07
-3.7504e-07
-6.45401e-08
1.07327e-07
-1.30506e-06
-1.48666e-06
-1.06262e-06
-1.544e-06
-1.53627e-06
2.67338e-07
-4.62015e-08
-7.07278e-08
-3.64647e-07
1.09695e-07
-1.55023e-06
-9.79891e-07
-1.21299e-06
-9.0533e-07
-7.30559e-07
-1.00264e-06
-9.97043e-07