/*--------------------------------*- C++ -*----------------------------------*\
  =========                 |
  \\      /  F ield         | OpenFOAM: The Open Source CFD Toolbox
   \\    /   O peration     | Website:  https://openfoam.org
    \\  /    A nd           | Version:  9
     \\/     M anipulation  |
\*---------------------------------------------------------------------------*/
FoamFile
{
    format      ascii;
    class       volScalarField;
    location    "0.0017";
    object      rho.air;
}
// * * * * * * * * * * * * * * * * * * * * * * * * * * * * * * * * * * * * * //

dimensions      [1 -3 0 0 0 0 0];

internalField   nonuniform List<scalar> 
13155
(
1.2262
1.225
1.225
1.225
1.225
1.225
1.225
1.225
1.225
1.33979
1.225
1.225
1.225
1.225
1.225
1.225
1.225
1.225
1.225
1.225
1.225
1.225
1.23279
1.225
1.2269
1.22506
1.225
1.23014
1.225
1.25784
1.39255
1.27973
1.22719
1.23858
1.22916
1.23328
1.225
1.225
1.225
1.225
1.225
1.225
1.225
1.225
1.225
1.225
1.225
1.225
1.225
1.225
1.2264
1.24132
1.22883
1.22547
1.22522
1.22608
1.22508
1.225
1.225
1.225
1.225
1.225
1.225
1.225
1.225
1.225
1.225
1.225
1.225
1.225
1.225
1.225
1.22501
1.22503
1.225
1.22506
1.225
1.22569
1.225
1.22513
1.225
1.23232
1.22505
1.22504
1.225
1.225
1.225
1.225
1.225
1.225
1.225
1.225
1.225
1.225
1.225
1.225
1.225
1.225
1.225
1.225
1.225
1.225
1.225
1.225
1.225
1.225
1.225
1.225
1.225
1.225
1.225
1.225
1.225
1.225
1.225
1.225
1.225
1.225
1.225
1.225
1.225
1.225
1.225
1.225
1.225
1.225
1.225
1.225
1.225
1.225
1.225
1.225
1.225
1.225
1.225
1.225
1.225
1.225
1.225
1.225
1.225
1.225
1.225
1.225
1.225
1.225
1.225
1.225
1.225
1.225
1.225
1.225
1.225
1.225
1.225
1.225
1.225
1.225
1.225
1.225
1.225
1.225
1.225
1.225
1.225
1.225
1.225
1.225
1.225
1.225
1.225
1.225
1.225
1.225
1.225
1.225
1.225
1.225
1.225
1.225
1.225
1.225
1.225
1.225
1.225
1.225
1.225
1.225
1.225
1.225
1.225
1.225
1.225
1.225
1.225
1.225
1.225
1.225
1.225
1.225
1.225
1.225
1.225
1.225
1.225
1.225
1.225
1.225
1.225
1.225
1.225
1.225
1.225
1.225
1.225
1.225
1.225
1.225
1.225
1.225
1.225
1.225
1.225
1.225
1.225
1.225
1.225
1.225
1.225
1.225
1.225
1.225
1.225
1.225
1.225
1.225
1.225
1.225
1.225
1.225
1.225
1.225
1.225
1.225
1.225
1.225
1.225
1.225
1.225
1.225
1.225
1.225
1.225
1.225
1.225
1.225
1.225
1.225
1.225
1.225
1.225
1.225
1.225
1.225
1.225
1.225
1.225
1.225
1.225
1.225
1.225
1.225
1.225
1.225
1.225
1.225
1.225
1.225
1.225
1.225
1.225
1.225
1.225
1.225
1.225
1.225
1.225
1.225
1.225
1.225
1.225
1.225
1.225
1.225
1.225
1.225
1.225
1.225
1.225
1.225
1.225
1.225
1.225
1.225
1.225
1.225
1.225
1.225
1.225
1.225
1.225
1.225
1.225
1.225
1.225
1.225
1.225
1.225
1.225
1.225
1.225
1.225
1.225
1.225
1.225
1.225
1.225
1.225
1.225
1.225
1.225
1.225
1.225
1.225
1.225
1.225
1.225
1.225
1.225
1.225
1.225
1.225
1.225
1.225
1.225
1.225
1.225
1.225
1.225
1.225
1.225
1.225
1.225
1.225
1.225
1.225
1.225
1.225
1.225
1.225
1.225
1.225
1.225
1.225
1.225
1.225
1.225
1.225
1.225
1.225
1.225
1.225
1.225
1.225
1.225
1.225
1.225
1.225
1.225
1.225
1.225
1.225
1.225
1.225
1.225
1.225
1.225
1.225
1.225
1.225
1.225
1.225
1.225
1.225
1.225
1.225
1.225
1.225
1.225
1.225
1.225
1.225
1.225
1.225
1.225
1.225
1.225
1.225
1.225
1.225
1.225
1.225
1.225
1.225
1.225
1.225
1.225
1.225
1.225
1.225
1.225
1.225
1.225
1.225
1.225
1.225
1.225
1.225
1.225
1.225
1.225
1.225
1.225
1.225
1.225
1.225
1.225
1.225
1.225
1.225
1.225
1.225
1.225
1.225
1.225
1.225
1.225
1.225
1.225
1.225
1.225
1.225
1.225
1.225
1.225
1.225
1.225
1.225
1.225
1.225
1.225
1.225
1.225
1.225
1.225
1.225
1.225
1.225
1.225
1.225
1.225
1.225
1.225
1.225
1.225
1.225
1.225
1.225
1.225
1.225
1.225
1.225
1.225
1.225
1.225
1.225
1.225
1.225
1.225
1.225
1.225
1.225
1.225
1.225
1.225
1.225
1.225
1.225
1.225
1.225
1.225
1.225
1.225
1.225
1.225
1.225
1.225
1.225
1.225
1.225
1.225
1.225
1.225
1.225
1.225
1.225
1.225
1.225
1.225
1.225
1.225
1.225
1.225
1.225
1.225
1.225
1.225
1.225
1.225
1.225
1.225
1.225
1.225
1.225
1.225
1.225
1.225
1.225
1.225
1.225
1.225
1.225
1.225
1.225
1.225
1.225
1.225
1.225
1.225
1.225
1.225
1.225
1.225
1.225
1.225
1.225
1.225
1.225
1.225
1.225
1.225
1.225
1.225
1.225
1.225
1.225
1.225
1.225
1.225
1.225
1.225
1.225
1.225
1.225
1.225
1.225
1.225
1.225
1.225
1.225
1.225
1.225
1.225
1.225
1.225
1.225
1.225
1.225
1.225
1.225
1.225
1.225
1.225
1.225
1.225
1.225
1.225
1.225
1.225
1.225
1.225
1.225
1.225
1.225
1.225
1.225
1.225
1.225
1.225
1.225
1.225
1.225
1.225
1.225
1.225
1.225
1.225
1.225
1.225
1.225
1.225
1.225
1.225
1.225
1.225
1.225
1.225
1.225
1.225
1.225
1.225
1.225
1.225
1.225
1.225
1.225
1.225
1.225
1.225
1.225
1.225
1.225
1.225
1.225
1.225
1.225
1.225
1.225
1.225
1.225
1.225
1.225
1.225
1.225
1.225
1.225
1.225
1.225
1.225
1.225
1.225
1.225
1.225
1.225
1.225
1.225
1.225
1.225
1.225
1.225
1.225
1.225
1.225
1.225
1.225
1.225
1.225
1.225
1.225
1.225
1.225
1.225
1.225
1.225
1.225
1.225
1.225
1.225
1.225
1.225
1.225
1.225
1.225
1.225
1.225
1.225
1.225
1.225
1.225
1.225
1.225
1.225
1.225
1.225
1.225
1.225
1.225
1.225
1.225
1.225
1.225
1.225
1.225
1.225
1.225
1.225
1.225
1.225
1.225
1.225
1.225
1.225
1.225
1.225
1.225
1.225
1.225
1.225
1.225
1.225
1.225
1.225
1.225
1.225
1.225
1.225
1.225
1.225
1.225
1.225
1.225
1.225
1.225
1.225
1.225
1.225
1.225
1.225
1.225
1.225
1.225
1.225
1.225
1.225
1.225
1.225
1.225
1.225
1.225
1.225
1.225
1.225
1.225
1.225
1.225
1.225
1.225
1.225
1.225
1.225
1.225
1.225
1.225
1.225
1.225
1.225
1.225
1.225
1.225
1.22534
1.225
1.225
1.225
1.225
1.225
1.225
1.225
1.225
1.225
1.225
1.225
1.225
1.225
1.225
1.225
1.225
1.225
1.225
1.225
1.225
1.225
1.225
1.225
1.225
1.225
1.225
1.225
1.225
1.225
1.225
1.225
1.225
1.225
1.225
1.225
1.225
1.225
1.225
1.225
1.225
1.225
1.225
1.225
1.225
1.225
1.225
1.225
1.225
1.225
1.225
1.225
1.225
1.225
1.225
1.225
1.225
1.225
1.225
1.225
1.225
1.225
1.225
1.225
1.225
1.225
1.225
1.22502
1.22502
1.225
1.225
1.225
1.225
1.225
1.225
1.225
1.225
1.225
1.225
1.225
1.225
1.225
1.225
1.225
1.225
1.225
1.225
1.225
1.225
1.225
1.225
1.225
1.225
1.225
1.225
1.225
1.225
1.225
1.225
1.225
1.225
1.225
1.225
1.225
1.225
1.225
1.225
1.225
1.225
1.225
1.225
1.225
1.225
1.225
1.225
1.225
1.225
1.225
1.225
1.225
1.225
1.225
1.225
1.225
1.225
1.225
1.225
1.225
1.225
1.225
1.225
1.225
1.225
1.225
1.225
1.225
1.225
1.225
1.225
1.225
1.225
1.225
1.225
1.225
1.225
1.225
1.225
1.225
1.225
1.225
1.225
1.225
1.225
1.225
1.225
1.225
1.225
1.225
1.225
1.225
1.225
1.225
1.225
1.225
1.225
1.225
1.225
1.225
1.225
1.225
1.225
1.225
1.225
1.225
1.225
1.225
1.225
1.225
1.225
1.225
1.225
1.225
1.225
1.225
1.225
1.225
1.225
1.225
1.225
1.225
1.225
1.225
1.225
1.225
1.225
1.225
1.225
1.225
1.225
1.225
1.225
1.225
1.225
1.225
1.225
1.225
1.225
1.225
1.225
1.225
1.225
1.225
1.225
1.225
1.225
1.225
1.225
1.225
1.225
1.225
1.225
1.225
1.225
1.225
1.225
1.225
1.225
1.225
1.225
1.225
1.225
1.225
1.225
1.225
1.225
1.225
1.225
1.225
1.225
1.225
1.225
1.225
1.225
1.225
1.225
1.225
1.225
1.225
1.225
1.225
1.225
1.225
1.225
1.225
1.225
1.225
1.225
1.225
1.225
1.225
1.225
1.225
1.225
1.225
1.225
1.225
1.225
1.225
1.225
1.225
1.225
1.225
1.225
1.225
1.225
1.225
1.225
1.225
1.225
1.225
1.225
1.225
1.225
1.225
1.225
1.225
1.225
1.225
1.225
1.225
1.225
1.225
1.225
1.225
1.225
1.225
1.225
1.225
1.225
1.225
1.225
1.225
1.225
1.225
1.225
1.225
1.225
1.225
1.225
1.225
1.225
1.225
1.225
1.225
1.225
1.225
1.225
1.225
1.225
1.225
1.225
1.225
1.225
1.225
1.225
1.225
1.225
1.225
1.225
1.225
1.225
1.225
1.225
1.225
1.225
1.225
1.225
1.225
1.225
1.225
1.225
1.225
1.225
1.225
1.225
1.225
1.225
1.225
1.225
1.225
1.225
1.225
1.225
1.225
1.225
1.225
1.225
1.225
1.225
1.225
1.225
1.225
1.225
1.225
1.225
1.225
1.225
1.225
1.225
1.225
1.225
1.225
1.225
1.225
1.225
1.225
1.225
1.225
1.225
1.225
1.225
1.225
1.225
1.225
1.225
1.225
1.225
1.225
1.225
1.225
1.225
1.225
1.225
1.225
1.225
1.225
1.225
1.225
1.225
1.225
1.225
1.225
1.225
1.225
1.225
1.225
1.225
1.225
1.225
1.225
1.225
1.225
1.225
1.225
1.225
1.225
1.225
1.225
1.225
1.225
1.225
1.225
1.225
1.225
1.225
1.225
1.225
1.225
1.225
1.225
1.225
1.225
1.225
1.225
1.225
1.225
1.225
1.225
1.225
1.225
1.225
1.225
1.225
1.225
1.225
1.225
1.225
1.225
1.225
1.225
1.225
1.225
1.225
1.225
1.225
1.225
1.225
1.225
1.225
1.225
1.225
1.225
1.225
1.225
1.225
1.225
1.225
1.225
1.225
1.225
1.225
1.225
1.225
1.225
1.225
1.225
1.225
1.225
1.225
1.225
1.225
1.225
1.225
1.225
1.225
1.225
1.225
1.225
1.225
1.225
1.225
1.225
1.225
1.225
1.225
1.225
1.225
1.225
1.225
1.225
1.225
1.225
1.225
1.225
1.225
1.225
1.225
1.225
1.225
1.225
1.225
1.225
1.225
1.225
1.225
1.225
1.225
1.225
1.225
1.225
1.225
1.225
1.225
1.225
1.225
1.225
1.225
1.225
1.225
1.225
1.225
1.225
1.225
1.225
1.225
1.225
1.225
1.225
1.225
1.225
1.22509
1.225
1.22501
1.22501
1.225
1.225
1.225
1.225
1.225
1.225
1.225
1.225
1.225
1.225
1.225
1.225
1.225
1.225
1.225
1.225
1.225
1.22511
1.22502
1.22501
1.22515
1.225
1.225
1.225
1.22505
1.225
1.22501
1.22502
1.225
1.225
1.225
1.225
1.225
1.225
1.225
1.225
1.225
1.225
1.225
1.225
1.225
1.225
1.225
1.225
1.225
1.225
1.225
1.225
1.225
1.225
1.225
1.225
1.225
1.225
1.225
1.225
1.225
1.225
1.225
1.225
1.225
1.225
1.225
1.225
1.225
1.225
1.225
1.225
1.225
1.225
1.225
1.225
1.225
1.225
1.225
1.225
1.225
1.225
1.22509
1.22501
1.22532
1.2251
1.22687
1.22502
1.225
1.225
1.225
1.225
1.225
1.225
1.225
1.225
1.225
1.225
1.225
1.225
1.225
1.225
1.225
1.225
1.225
1.225
1.225
1.225
1.225
1.225
1.225
1.225
1.225
1.225
1.225
1.225
1.225
1.225
1.225
1.225
1.225
1.225
1.225
1.225
1.225
1.225
1.225
1.225
1.225
1.225
1.225
1.225
1.225
1.225
1.225
1.225
1.225
1.225
1.225
1.225
1.225
1.225
1.225
1.225
1.225
1.225
1.225
1.225
1.225
1.225
1.225
1.225
1.225
1.225
1.225
1.225
1.225
1.225
1.225
1.22501
1.225
1.225
1.225
1.225
1.225
1.225
1.225
1.225
1.22813
1.22524
1.22517
1.225
1.225
1.225
1.225
1.225
1.225
1.225
1.225
1.225
1.225
1.225
1.225
1.225
1.225
1.225
1.225
1.225
1.225
1.225
1.225
1.225
1.225
1.225
1.225
1.225
1.225
1.225
1.225
1.225
1.225
1.225
1.225
1.225
1.225
1.225
1.225
1.225
1.225
1.225
1.22529
1.2263
1.23608
1.22988
1.38174
1.24944
1.27326
1.22501
1.22503
1.22561
1.22501
1.22506
1.225
1.225
1.225
1.225
1.225
1.225
1.225
1.225
1.225
1.225
1.225
1.225
1.225
1.225
1.225
1.225
1.225
1.225
1.225
1.225
1.225
1.225
1.225
1.225
1.225
1.225
1.225
1.225
1.225
1.225
1.225
1.225
1.225
1.225
1.225
1.225
1.225
1.225
1.225
1.225
1.225
1.225
1.225
1.225
1.225
1.225
1.225
1.225
1.225
1.225
1.225
1.225
1.225
1.225
1.225
1.225
1.225
1.225
1.225
1.225
1.225
1.225
1.225
1.225
1.225
1.225
1.225
1.225
1.225
1.225
1.225
1.225
1.225
1.225
1.225
1.225
1.225
1.225
1.225
1.225
1.225
1.225
1.225
1.225
1.225
1.225
1.225
1.225
1.225
1.225
1.225
1.225
1.225
1.225
1.225
1.225
1.225
1.225
1.225
1.225
1.225
1.225
1.225
1.225
1.225
1.225
1.225
1.225
1.225
1.225
1.225
1.225
1.225
1.225
1.225
1.225
1.225
1.225
1.225
1.225
1.225
1.225
1.225
1.225
1.225
1.225
1.225
1.225
1.225
1.225
1.225
1.225
1.225
1.225
1.225
1.225
1.225
1.225
1.225
1.225
1.225
1.225
1.225
1.225
1.225
1.225
1.225
1.225
1.225
1.225
1.225
1.225
1.225
1.225
1.225
1.225
1.225
1.225
1.225
1.225
1.225
1.225
1.225
1.225
1.225
1.225
1.225
1.225
1.225
1.225
1.225
1.225
1.225
1.225
1.225
1.225
1.225
1.225
1.225
1.225
1.225
1.225
1.225
1.225
1.225
1.225
1.225
1.225
1.225
1.225
1.225
1.225
1.225
1.225
1.225
1.225
1.225
1.225
1.225
1.225
1.225
1.225
1.225
1.225
1.225
1.225
1.225
1.225
1.225
1.225
1.225
1.225
1.225
1.225
1.225
1.225
1.225
1.225
1.225
1.225
1.225
1.225
1.225
1.225
1.225
1.225
1.225
1.225
1.225
1.225
1.225
1.225
1.225
1.225
1.225
1.225
1.225
1.225
1.225
1.225
1.225
1.225
1.225
1.225
1.225
1.225
1.225
1.225
1.225
1.225
1.225
1.225
1.225
1.225
1.225
1.225
1.225
1.225
1.225
1.225
1.225
1.225
1.225
1.225
1.225
1.225
1.225
1.225
1.225
1.225
1.225
1.225
1.225
1.225
1.225
1.225
1.225
1.225
1.225
1.225
1.225
1.225
1.225
1.225
1.225
1.225
1.225
1.225
1.225
1.225
1.225
1.225
1.225
1.225
1.225
1.225
1.225
1.225
1.225
1.225
1.225
1.225
1.225
1.225
1.225
1.225
1.225
1.225
1.225
1.225
1.225
1.225
1.225
1.225
1.225
1.225
1.225
1.225
1.225
1.225
1.225
1.225
1.225
1.225
1.225
1.225
2.90239
2.30712
1.31171
1.225
3.07412
1.22636
1.225
3.90362
1.22502
1.22517
3.04172
1.225
1.225
2.67084
1.22502
1.225
2.43497
1.225
1.27581
1.22508
1.27582
1.225
1.225
1.22562
1.225
1.225
1.22538
1.225
1.22501
1.22501
1.832
1.22505
1.225
1.225
1.23259
1.225
1.225
1.225
1.22542
1.225
1.225
1.225
1.225
1.225
1.28517
1.22501
1.225
1.225
1.225
1.22647
1.225
1.225
1.225
1.225
1.22501
1.225
1.225
1.225
1.225
1.225
1.225
1.225
1.225
1.225
1.225
1.225
1.225
1.225
1.225
1.225
1.225
1.225
1.225
4.47833
4.17731
1.25418
3.8784
1.22689
3.07571
1.22784
2.80635
1.22521
4.31553
4.04315
1.22917
3.18017
1.22549
1.225
3.79863
1.28486
3.82228
1.36651
1.22511
1.23097
1.225
1.225
1.23713
1.22919
1.23439
1.22555
1.22953
1.225
1.225
1.22514
1.225
1.225
1.225
1.225
1.225
1.23619
1.23654
1.225
1.225
1.225
1.33907
1.23024
2.62558
1.28302
1.26539
1.22501
1.22501
1.22531
1.225
1.22514
1.225
1.225
1.225
1.225
1.225
1.225
1.225
1.225
1.225
1.225
1.23276
1.24636
1.225
1.225
1.225
1.225
1.225
1.25229
1.22506
1.225
2.45526
3.80141
2.28806
1.22558
1.98374
1.22505
1.2332
1.225
1.22733
1.225
1.32409
1.63567
1.24444
1.22501
1.22502
1.225
1.22502
1.22502
1.225
1.225
1.225
1.225
1.22531
1.22915
1.225
1.22528
1.22502
1.22515
1.225
1.225
1.225
1.225
1.225
1.225
1.225
1.225
1.225
1.225
1.225
1.225
1.225
1.225
1.225
1.22508
1.22509
4.63774
4.41373
4.58012
4.3356
4.31481
4.51055
1.6745
3.83571
2.02485
3.72878
3.63415
1.88141
1.80994
1.46487
3.40107
2.44148
1.38504
3.19264
1.62411
1.31049
4.25071
4.16343
3.59513
1.58
1.96523
1.22646
1.22655
1.24094
1.22505
1.26884
1.22517
1.22549
3.70538
2.90031
2.44142
1.74528
1.24646
1.4522
3.26101
2.13732
1.22502
1.22875
1.22501
1.22502
1.22511
1.22561
1.225
1.28726
1.22519
1.22733
1.22678
1.22636
1.32165
1.2252
1.25757
1.22508
1.23048
1.22754
1.32043
1.23134
1.22523
1.26705
1.2304
1.22538
1.22513
1.22501
1.225
1.22501
1.22501
1.22523
1.22502
1.225
1.22505
1.225
1.22501
1.225
1.225
1.225
1.225
1.225
1.225
1.225
1.225
1.225
1.225
1.45804
1.22556
1.2402
1.4695
1.22555
1.24019
1.22502
1.22502
1.22563
1.225
1.225
1.225
1.225
1.225
1.225
1.225
1.225
1.225
1.225
1.28728
1.24606
1.29854
1.2257
1.4988
1.22932
1.23571
1.36895
1.47297
1.22791
1.24812
1.24448
1.23547
1.2251
1.22508
1.22519
1.22567
1.22658
1.22631
1.22502
1.22637
1.22502
1.22504
1.22508
1.22526
1.225
1.225
1.225
1.225
1.225
1.225
1.225
1.225
1.225
1.22501
1.22501
1.225
1.22504
1.225
1.225
1.225
1.225
1.225
1.225
1.225
1.225
1.225
1.225
1.225
1.225
1.225
1.225
1.225
1.225
1.225
1.225
1.225
1.225
1.225
1.225
1.225
1.33569
1.22539
1.23221
1.22607
1.23694
1.22503
1.22505
1.2256
1.225
1.225
1.225
1.225
1.225
1.225
1.225
1.225
1.225
1.225
1.225
1.225
1.22964
1.61661
1.22684
1.22656
1.25988
1.24975
1.22524
1.225
1.22779
1.32873
1.22547
1.22812
1.3047
1.22535
1.2287
1.225
1.225
1.225
1.225
1.22506
1.225
1.225
2.15184
2.71226
1.32217
2.7558
1.73419
2.84287
1.23551
1.225
1.225
1.225
1.22512
1.225
1.225
1.225
1.225
1.225
1.225
1.225
1.225
1.225
1.225
1.88601
2.36299
2.75781
1.46438
1.66953
1.2583
1.225
1.2325
1.225
1.22523
1.225
1.22501
1.225
1.225
1.225
1.225
1.225
1.225
1.225
1.225
1.22598
1.35923
1.22503
1.22625
1.22501
1.22559
1.225
1.225
1.225
1.225
1.225
1.225
1.225
1.225
1.225
1.225
1.225
1.225
1.225
1.225
1.225
1.65848
1.26831
1.41335
1.24624
1.30714
1.23289
1.22846
1.25148
1.22582
1.22507
1.23513
1.22592
1.22503
1.22537
1.26946
2.84342
1.22722
1.70705
1.22507
1.94387
1.225
1.225
1.225
1.225
1.225
1.225
1.225
1.225
1.22501
1.225
1.225
1.225
1.225
0.404688
0.259353
0.580257
1.94411
2.93888
0.997952
3.39794
0.735986
1.42497
1.99406
2.70318
3.72678
2.35322
1.24969
3.29418
3.08768
1.87286
4.13047
1.76404
1.53286
2.83095
1.22502
1.22507
1.22618
1.225
1.225
1.225
1.225
1.225
1.225
1.225
1.225
1.225
1.225
1.225
1.225
1.225
1.225
1.225
1.225
1.225
1.225
1.225
1.225
1.225
1.225
1.225
1.225
1.225
1.225
1.225
1.225
1.225
1.225
1.58893
2.2971
1.3813
1.62326
2.69194
2.75703
2.82399
2.44818
2.87123
3.34251
2.37046
2.74738
3.37978
2.66929
3.08806
3.09025
3.64845
5.02736
3.19933
3.80562
3.35679
1.37009
4.7604
3.08083
4.68645
4.49375
3.5045
5.03491
2.33787
2.30626
1.29455
4.06046
4.79993
1.39508
3.75337
2.99984
3.80335
2.26515
2.67225
4.18437
4.11282
4.24795
5.0551
5.61561
2.82731
2.87074
1.50087
2.29781
1.34217
1.22645
1.84535
2.14688
1.92787
2.3501
2.20519
1.97759
1.79092
1.68579
1.97492
1.78969
1.91056
1.96761
2.46347
2.63205
2.27958
2.34542
2.07993
2.21445
3.51884
2.65741
3.65193
2.89044
2.72673
3.70458
3.44782
4.34779
4.34965
4.33639
4.31608
3.72864
3.04408
3.28223
4.10162
2.91031
3.8514
4.12723
4.48816
4.41645
4.36921
4.673
1.97325
2.42503
2.02069
1.98502
1.81332
2.53683
2.30658
2.11858
4.32735
4.28898
3.13256
4.06206
3.91148
4.22819
4.2546
2.7879
2.27955
2.26736
2.72469
3.23644
3.11757
2.61529
3.71505
2.61271
3.943
3.12569
3.57876
4.3491
3.36787
4.83529
4.3138
4.5189
5.6582
4.91037
5.03731
3.92169
5.53069
4.98025
3.90127
4.37294
4.3529
4.63474
4.7013
4.5237
4.46489
4.41744
4.75001
4.23371
4.8855
4.7013
5.24327
3.86436
5.26134
4.49619
3.71466
3.23744
2.09954
3.5197
1.65625
2.61358
3.55275
3.05339
4.04069
3.23705
4.17455
4.50639
3.66438
4.19092
4.06969
4.38008
3.94475
4.25516
2.57549
3.69455
5.88415
5.35228
5.8328
5.67447
5.49207
5.52015
5.40152
4.1391
5.98464
3.81037
5.30328
4.8881
3.93511
5.44266
3.34734
3.549
2.16652
1.31472
1.95997
1.74186
4.1072
2.05281
1.26186
3.91098
2.31867
2.3259
1.79179
1.77082
1.33643
5.12028
4.28917
5.18731
4.56374
5.62465
2.75076
2.495
4.44939
1.85569
1.99094
2.5372
1.36576
0.379765
0.849222
1.01774
0.543059
0.908089
1.17783
1.35369
1.68792
1.464
2.08336
1.09308
2.15151
1.78167
2.25067
1.21944
1.91158
1.99503
1.10752
2.3386
1.60156
3.1833
2.63001
1.96848
3.18875
2.99921
2.99126
3.51301
3.08023
2.62683
1.57864
3.44005
1.29177
2.78593
1.61195
3.10064
3.39197
2.65678
2.59553
2.21581
2.80795
1.4989
2.81542
1.36503
2.27219
1.22509
1.225
1.225
1.225
1.225
1.225
1.225
1.225
1.92448
2.00964
1.33313
1.62005
1.23899
1.60138
1.87663
1.66174
2.4063
1.86138
2.0301
2.44019
1.24757
1.41249
1.27934
2.03375
1.71785
1.9989
1.5136
1.50738
2.21993
1.4313
2.53206
1.23253
1.69473
3.9804
2.24262
1.29221
3.03943
1.59701
1.50565
1.33769
1.45178
1.99536
4.6314
4.55215
1.42214
1.73355
1.7405
2.00869
3.73038
3.57789
4.81893
5.2749
5.88015
2.66158
4.77141
2.79436
1.67445
3.82986
5.74465
1.57465
1.68029
1.49249
1.72318
2.35785
5.63464
2.48391
2.6514
1.27719
1.23271
1.57276
1.30955
1.64598
1.46683
1.35977
1.69308
1.5209
1.55985
1.67357
1.46716
1.57981
1.9925
2.40352
2.44532
2.94495
3.99709
3.0745
2.86638
5.06336
5.60024
5.49656
5.79285
3.96671
5.11107
6.07407
3.15634
3.3754
4.73231
3.90678
3.44752
3.11665
4.42424
3.11383
2.78748
2.43534
3.07483
2.94545
4.03203
3.01891
3.19553
2.36168
2.82069
5.7336
4.59341
5.39002
2.94398
3.3016
4.69855
0.811356
1.23654
1.04582
1.53553
1.26662
1.54424
1.73836
1.78482
2.79569
3.20506
1.77688
3.13147
3.12406
4.06468
1.84961
5.40989
4.0125
6.20944
1.0389
1.13694
1.07753
1.27937
1.18623
1.11982
0.98989
1.1394
1.37013
1.48131
1.36741
1.29006
1.20832
1.31844
1.11067
1.30498
1.14696
1.39045
1.37889
1.22985
1.90239
1.76507
1.59717
2.12899
1.57354
2.1517
1.89919
2.3192
2.58774
3.35192
2.76292
2.66954
2.28032
2.83796
1.59429
2.09638
1.87733
2.53172
2.71576
2.23825
3.95928
4.1918
3.40151
4.99172
3.47463
4.7213
4.13748
4.10783
5.49937
4.12666
4.89056
4.72181
4.66713
3.91971
3.38793
5.15241
4.27126
5.95447
5.63936
5.11451
1.32893
2.82651
2.50934
3.41274
2.44834
3.54582
2.4372
0.462053
1.80101
0.910488
0.622327
1.00554
2.13264
1.14102
1.06219
1.94219
0.973343
1.13246
1.17644
2.35976
2.66651
0.664474
0.49472
0.699784
0.627404
0.846107
0.660278
0.881486
0.825826
0.946449
0.862234
1.14587
1.03272
1.07189
1.18738
0.339806
0.126572
0.175618
0.401405
0.171155
0.22873
0.319682
0.895431
1.2763
1.71923
1.98259
1.5425
0.50156
1.02019
0.885991
1.04937
0.989893
0.918916
0.700583
0.772427
0.860075
0.830446
0.782968
1.01322
0.545922
0.755274
0.711695
0.937807
1.10103
1.36235
1.22558
1.01006
0.923176
1.13678
1.25893
0.944153
0.978306
1.00529
1.19004
1.23136
1.22477
1.26525
0.298981
0.509205
0.848411
0.597786
0.616357
0.371395
0.859831
0.94263
0.720161
0.811164
0.469317
0.565118
0.657858
0.557748
1.17687
1.33825
1.4129
1.03941
1.17889
0.919224
1.25397
1.15512
1.41246
1.44619
1.04053
1.06488
1.30406
1.33725
1.03445
0.934174
1.1227
1.23911
0.881366
1.05074
1.10976
2.24645
2.54585
2.6768
1.19388
2.73536
1.39616
2.72509
1.24733
1.21343
1.35254
1.46081
1.49367
1.33157
1.6482
0.47495
0.248187
0.515576
0.45528
0.316093
0.589427
0.397193
1.0299
0.806864
1.42787
1.22209
1.60594
0.914987
1.30261
1.00613
1.09362
1.03565
1.33462
1.25912
1.29866
1.38062
1.11332
1.19025
1.39986
0.944085
1.02025
1.20437
1.14385
0.472112
0.420929
0.489921
0.633853
0.698483
0.721189
0.656152
0.808156
1.26959
1.04656
1.02812
0.839568
1.08271
1.30752
1.20094
2.17821
2.3311
2.46926
3.19609
2.77181
1.34544
1.39026
1.27316
1.416
1.784
1.55649
1.7345
1.59419
1.7496
2.24507
2.19549
1.92529
1.91346
1.51803
1.54693
1.55317
1.43269
1.26914
1.31266
1.86746
1.60421
1.48349
1.1102
1.23918
1.31791
0.778042
0.836705
0.906947
0.682432
0.652663
0.627998
0.751487
1.01819
0.479085
0.756418
0.902539
2.78127
3.16388
3.48591
2.84
2.40089
2.90814
2.36449
1.23834
1.58497
1.47748
1.15042
1.09097
1.36909
1.46094
1.54476
1.19478
1.34002
1.52714
1.60133
1.75467
1.83374
1.57386
1.66002
2.28586
2.0516
2.2878
1.56299
1.53853
0.956022
1.44933
1.21857
1.07629
0.889331
1.14056
1.36768
0.763144
0.576017
0.827207
0.452221
0.523803
0.763702
0.699004
2.97775
2.76159
2.62154
2.26773
3.08524
2.8137
1.70483
2.41197
1.58381
2.24158
2.25377
2.27728
1.66809
1.84311
3.86427
3.94021
2.65525
2.7345
2.96302
3.49888
3.41366
1.79796
1.6902
1.48133
1.38321
1.97579
1.68513
1.56811
1.5041
2.02216
1.5586
2.05954
1.55536
1.61158
2.15177
1.38328
1.23116
2.12515
2.65431
1.25585
2.62539
1.22538
0.62908
0.920401
0.650314
1.10452
0.848133
0.872408
1.13086
1.02744
0.849118
0.708149
0.653775
0.91061
0.775239
0.971937
1.81466
1.53028
1.75599
1.01231
1.28647
1.07538
1.30735
1.42494
1.0415
1.31785
1.54587
1.15659
1.31212
1.65502
1.99556
1.5898
1.8566
2.28526
2.35153
2.02298
1.95262
1.43641
1.35994
1.51905
1.83755
1.76387
1.62986
2.00503
2.51503
1.79051
1.85888
2.15753
1.65173
1.70918
2.30287
1.23221
1.39232
1.44015
1.51398
1.5734
1.80699
1.88738
1.3385
1.41704
1.65417
1.62437
1.92234
1.69793
1.99276
1.73621
1.9375
1.84853
2.58981
1.60063
2.09609
2.03865
0.743894
1.2397
0.979023
0.962079
0.688324
0.915733
1.1755
1.98827
2.56776
2.51961
2.89369
2.26966
2.27434
2.82174
2.5915
3.2853
2.03042
1.70432
2.6677
2.2115
3.2369
1.64353
1.82518
2.19025
1.29761
1.52066
1.67425
2.01545
2.63769
2.24539
2.54411
1.76596
2.28561
2.59273
2.12783
1.75891
2.18506
1.60915
1.67143
2.42929
2.27466
1.83776
1.16788
0.820084
1.32067
1.18958
1.06029
0.931757
1.41993
2.77286
3.05397
2.35992
1.98006
2.93369
2.22551
2.07337
0.921268
1.31729
0.97266
1.00173
1.31615
1.35815
0.950409
1.8129
2.27302
1.90655
2.01834
2.53057
2.17574
2.13872
1.59093
1.50044
1.60536
1.21053
0.986473
1.02768
1.17079
1.5269
1.23114
1.5686
1.43061
1.46318
1.84695
1.89605
3.25647
3.32145
4.01709
3.72056
3.31515
3.25492
4.45398
2.07754
2.16252
2.17521
1.61509
1.49282
1.46143
1.80293
1.98506
1.72269
1.84206
2.59017
2.44542
2.11307
2.30173
2.58918
2.14871
1.94981
1.78146
2.53993
2.40959
1.96694
1.81809
2.05072
1.7183
2.58565
2.03279
2.28162
2.39077
1.49685
1.08457
1.13491
1.05516
1.38863
1.4321
1.00419
1.92096
2.42571
1.98517
3.01398
2.44312
2.52551
3.09097
1.58972
1.72298
2.08053
1.27947
1.63377
1.51581
1.97285
4.13285
4.38072
2.55828
4.27392
3.13149
4.69789
2.91539
1.62051
1.83968
1.67742
1.32742
1.34832
1.14661
1.55845
2.58607
2.60018
2.30088
1.90871
2.86517
2.28262
2.26436
2.35248
2.00015
2.4601
1.82227
1.63331
2.21943
2.26064
1.3565
1.44957
1.10794
1.13766
1.76835
1.49262
1.38838
1.63811
1.86804
1.81249
1.3654
1.18824
1.23779
1.31702
2.79305
2.85803
2.9794
2.4605
2.35959
2.18218
2.58513
2.63246
2.26401
2.17445
1.69246
1.76321
2.24633
2.33073
2.9446
2.23046
2.36034
2.00213
2.25986
2.42781
2.88763
2.38345
1.68209
1.51904
1.83079
1.79205
2.21887
1.95287
3.29908
2.51307
3.03561
2.99227
2.631
2.96909
3.70436
3.29713
3.49485
2.91104
3.05783
2.70105
3.23455
2.53098
1.22581
1.28858
1.22828
1.92327
1.27627
1.22515
1.22511
1.68612
1.52608
1.27054
1.19105
1.85422
1.56982
1.44363
3.31299
2.22337
2.80597
2.57301
2.08499
2.64804
3.19699
2.72613
2.75925
2.84978
3.26246
3.32375
3.23281
3.25919
1.38046
1.25327
1.22501
1.22587
1.225
1.22502
1.26351
1.22613
1.22807
1.46574
1.22795
1.75114
2.15002
1.2274
2.59945
2.50234
2.62412
2.41861
2.60494
2.63047
2.59786
2.03496
2.59969
2.12086
2.70249
2.37243
2.44444
2.72135
2.791
3.28945
2.25799
2.98084
2.81531
3.37868
2.81883
2.33286
2.26793
1.96512
2.72654
2.81113
2.73526
2.53145
2.78593
2.53017
2.38613
2.04664
2.57813
1.87836
2.44668
3.12375
2.18004
2.52348
2.97166
2.36427
2.62054
3.42407
1.84178
2.03285
2.34965
1.50167
1.63537
1.37336
1.7741
2.73253
2.40013
2.64668
2.67092
2.24424
2.54125
2.73516
3.47226
3.1403
3.28017
2.88495
2.98357
3.40216
3.28487
1.78422
1.225
1.225
1.225
1.225
1.225
1.225
1.225
1.22502
1.225
1.225
1.225
2.50995
2.78686
1.22817
1.67668
1.2324
1.22504
1.36414
2.77233
1.23376
1.31527
1.57641
2.45481
3.04038
2.96044
2.02834
4.12633
3.33138
3.41758
4.75301
3.27177
4.41291
4.73638
2.02612
2.34198
2.29038
1.79147
1.82754
1.54329
1.49543
2.17945
2.36464
2.81128
2.57177
1.64949
1.93514
2.10335
3.42086
3.48891
3.12383
2.39845
3.21608
2.97361
2.59952
2.7023
2.89888
2.85582
3.09631
3.01067
2.75603
2.78203
1.72317
2.239
1.76411
2.83843
2.29963
2.36558
2.88544
1.81699
1.82505
1.87593
2.39783
2.44617
2.50655
2.46023
1.22807
1.23769
2.29998
1.22615
1.46173
1.2251
1.22632
2.66908
2.26322
2.77802
2.49242
2.78441
2.69762
2.77244
2.77464
2.78773
2.83613
2.69023
2.98391
2.95817
2.6116
2.55735
2.70316
2.67744
2.55469
2.62755
2.49441
2.25106
1.28971
1.22866
1.6383
1.28291
1.23235
1.225
1.22506
2.7645
2.46618
2.73993
2.77843
2.56638
2.71038
2.73557
2.85428
2.83786
2.71427
2.6851
2.22922
2.83948
2.58968
3.03217
1.93372
2.59952
2.33668
1.83252
2.46616
2.95349
2.0754
2.70426
2.7375
1.92823
1.9795
2.60915
2.56667
3.51239
3.49637
3.28375
3.21049
2.99455
3.37286
3.46952
2.76004
2.55718
2.79871
2.81072
2.53214
2.82359
2.77725
2.72858
3.6172
3.63345
3.43459
2.42539
2.44673
3.40809
3.48893
3.73829
4.19147
3.49738
4.53769
4.78661
3.43227
2.49709
2.56337
2.78649
2.2157
1.94589
1.67853
1.95469
2.99874
2.78016
2.23252
2.8126
2.91995
2.90475
2.46971
1.97534
2.3479
2.03634
2.84982
2.60167
2.65874
2.8868
4.11257
2.77071
3.4555
3.02859
3.79849
3.18021
4.03069
3.10748
3.16574
2.80446
2.90484
2.06927
2.23869
2.7535
2.38736
2.75747
2.76773
2.71475
2.66061
2.69903
2.68434
2.68833
2.51938
2.65296
2.65281
2.69313
2.36915
1.84417
2.62118
2.7871
2.66662
2.78767
2.78719
2.56067
2.45829
2.25735
2.50814
2.46076
2.96482
2.84696
2.86808
2.96261
3.28888
3.39984
3.02327
3.07499
3.36506
3.29977
3.42299
2.2889
2.98827
2.85137
2.4515
2.14224
2.74792
2.93941
0.558612
0.724485
0.754591
0.616171
0.65929
0.640591
0.761136
0.701365
0.672444
0.578814
0.668559
0.786982
0.697024
1.78102
0.707544
0.970511
0.987061
1.0843
1.16184
1.77109
1.81832
1.17255
1.79477
1.88293
2.08014
2.05827
0.690334
0.83468
0.929718
0.85934
0.784351
0.737284
0.8206
0.856317
0.876463
0.757857
1.20392
1.12694
1.03839
1.37438
1.00219
1.34731
1.23505
1.40085
1.59291
1.81061
1.60214
1.57581
1.42301
1.58876
1.05242
1.37376
1.23994
1.57862
1.58523
1.4152
1.97932
2.07062
1.80217
2.37039
1.7884
2.32207
2.01661
1.78501
2.37681
2.01691
1.41355
1.50038
0.959238
0.379716
0.508893
0.966504
0.89749
0.824271
0.806598
0.0501878
0.0167814
0.168094
0.646038
0.856382
0.250468
1.66388
1.22063
1.2992
0.390643
0.848655
0.983247
1.13783
1.94892
0.823718
0.807418
1.09028
1.10568
1.2927
0.974729
0.891115
1.01037
1.43781
1.68883
0.91117
0.753658
0.940737
0.863986
0.799393
0.982631
0.863213
1.00742
0.94464
1.04749
1.22099
0.889863
1.06808
1.17572
0.966846
1.23475
1.09027
1.69018
1.26072
1.43589
1.40779
1.7026
2.59495
2.40741
1.64314
3.87193
2.25546
2.05077
2.08056
2.05069
2.42965
1.97644
3.29811
3.53006
3.47588
1.49987
4.23592
5.01126
1.5219
2.84783
2.84602
3.46719
4.90805
4.34723
5.20207
2.88633
1.67315
1.24535
1.52887
1.50743
2.02548
1.7901
2.082
2.39344
2.0177
2.41836
1.76847
2.35594
1.98658
3.30713
2.42878
2.8652
2.82366
2.8904
2.75937
3.40384
3.49982
3.10892
3.03361
4.04852
2.94297
3.7954
3.51342
3.21892
4.52704
4.04978
3.16165
3.04469
4.19594
3.7498
3.33716
3.03757
4.26092
3.12139
4.05295
3.14607
4.10882
3.07811
4.29602
3.14404
4.86218
4.71461
5.18008
0.211994
0.447539
0.614871
0.288877
0.472494
0.590548
0.899538
0.818549
0.631801
1.1067
1.70257
1.227
0.922539
1.72455
1.59839
0.557487
1.01176
1.37969
0.551646
1.04562
1.29644
0.967799
0.786397
1.22277
2.03859
1.36238
2.19599
2.79545
1.93115
2.73202
2.82688
1.73269
2.87058
3.06296
2.10327
2.58131
2.57279
2.29406
2.47642
2.17483
2.19184
2.62369
2.33355
2.19136
2.41567
2.65359
2.40739
3.11744
2.27082
2.76077
2.60748
2.48602
3.43772
2.76083
1.43376
3.95364
4.66671
4.06236
1.57268
3.66985
2.77734
1.91522
2.63263
3.53438
3.07449
3.42658
2.91412
2.95495
2.87996
4.02621
3.85654
3.23911
3.56301
1.66823
1.4751
2.36066
2.37928
2.65991
1.90426
3.47799
2.80006
2.92551
1.77275
2.8113
2.15533
3.27179
2.53128
0.00797549
0.0507065
0.0213841
0.0485484
0.0291973
0.170173
0.138258
0.117292
0.370803
0.300085
0.323903
0.478687
0.550653
0.816711
0.342727
0.409229
0.599597
0.910396
0.85442
0.947714
0.413085
0.0187477
0.0502947
0.0444124
0.0695494
0.0311172
0.0346588
0.0779107
0.104324
0.220407
0.204429
0.150881
0.275506
0.297538
0.167874
0.0108414
0.00728046
0.00963073
0.0106401
0.0154442
0.0171175
0.0117093
0.288579
0.3351
0.32702
0.424536
0.37801
0.399488
0.443151
0.0256245
0.00952333
0.0135061
0.0227439
0.0348312
0.0208144
0.0139562
0.387023
0.146262
0.259959
0.28777
0.432184
0.34074
0.201723
0.118746
0.0271208
0.0642304
0.150775
0.0675552
0.0425025
0.0961681
0.459434
0.338486
0.445522
0.353731
0.347559
0.462695
0.475034
0.456457
0.449092
0.3397
0.560796
0.527485
0.44373
0.485486
0.315527
0.260079
0.199775
0.163332
0.26282
0.320184
0.21582
1.32563
1.48035
1.61618
1.22264
1.13577
1.27781
1.38288
0.392023