/*--------------------------------*- C++ -*----------------------------------*\
  =========                 |
  \\      /  F ield         | OpenFOAM: The Open Source CFD Toolbox
   \\    /   O peration     | Website:  https://openfoam.org
    \\  /    A nd           | Version:  9
     \\/     M anipulation  |
\*---------------------------------------------------------------------------*/
FoamFile
{
    format      ascii;
    class       volScalarField;
    location    "0.0017";
    object      rhoE;
}
// * * * * * * * * * * * * * * * * * * * * * * * * * * * * * * * * * * * * * //

dimensions      [1 -1 -2 0 0 0 0];

internalField   nonuniform List<scalar> 
13155
(
253604
253245
253245
253245
253245
253245
253245
253245
253245
298109
253245
253245
253245
253245
253245
253245
253245
253245
253245
253245
253245
253245
255840
253246
253838
253263
253245
254938
253245
265021
320387
273647
253931
257686
254567
255920
253245
253245
253245
253245
253245
253245
253245
253245
253245
253245
253245
253245
253245
253246
253688
258903
254501
253390
253311
253579
253268
253245
253245
253245
253245
253245
253245
253245
253245
253245
253245
253245
253246
253245
253245
253245
253248
253253
253246
253262
253245
253460
253245
253283
253245
255672
253261
253256
253245
253245
253245
253245
253245
253245
253245
253245
253245
253245
253245
253245
253245
253245
253245
253245
253245
253245
253245
253245
253245
253245
253245
253245
253245
253245
253245
253245
253245
253245
253245
253245
253245
253245
253245
253245
253245
253245
253245
253245
253245
253245
253245
253245
253245
253245
253245
253245
253245
253245
253245
253245
253245
253245
253245
253245
253245
253245
253245
253245
253245
253245
253245
253245
253245
253245
253245
253245
253245
253245
253245
253245
253245
253245
253245
253245
253245
253245
253245
253245
253245
253245
253245
253245
253245
253245
253245
253245
253245
253245
253245
253245
253245
253245
253245
253245
253245
253245
253245
253245
253245
253245
253245
253245
253245
253245
253245
253245
253245
253245
253245
253245
253245
253245
253245
253245
253245
253245
253245
253245
253245
253245
253245
253245
253245
253245
253245
253245
253245
253245
253245
253245
253245
253245
253245
253245
253245
253245
253245
253245
253245
253245
253245
253245
253245
253245
253245
253245
253245
253245
253245
253245
253245
253245
253245
253245
253245
253245
253245
253245
253245
253245
253245
253245
253245
253245
253245
253245
253245
253245
253245
253245
253245
253245
253245
253245
253245
253245
253245
253245
253245
253245
253245
253245
253245
253245
253245
253245
253245
253245
253245
253245
253245
253245
253245
253245
253245
253245
253245
253245
253245
253245
253245
253245
253245
253245
253245
253245
253245
253245
253245
253245
253245
253245
253245
253245
253245
253245
253245
253245
253245
253245
253245
253245
253245
253245
253245
253245
253245
253245
253245
253245
253245
253245
253245
253245
253245
253245
253245
253245
253245
253245
253245
253245
253245
253245
253245
253245
253245
253245
253245
253245
253245
253245
253245
253245
253245
253245
253245
253245
253245
253245
253245
253245
253245
253245
253245
253245
253245
253245
253245
253245
253245
253245
253245
253245
253245
253245
253245
253245
253245
253245
253245
253245
253245
253245
253245
253245
253245
253245
253245
253245
253245
253245
253245
253245
253245
253245
253245
253245
253245
253245
253245
253245
253245
253245
253245
253245
253245
253245
253245
253245
253245
253245
253245
253245
253245
253245
253245
253245
253245
253245
253245
253245
253245
253245
253245
253245
253245
253245
253245
253245
253245
253245
253245
253245
253245
253245
253245
253245
253245
253245
253245
253245
253245
253245
253245
253245
253245
253245
253245
253245
253245
253245
253245
253245
253245
253245
253245
253245
253245
253245
253245
253245
253245
253245
253245
253245
253245
253245
253245
253245
253245
253245
253245
253245
253245
253245
253245
253245
253245
253245
253245
253245
253245
253245
253245
253245
253245
253245
253245
253245
253245
253245
253245
253245
253245
253245
253245
253245
253245
253245
253245
253245
253245
253245
253245
253245
253245
253245
253245
253245
253245
253245
253245
253245
253245
253245
253245
253245
253245
253245
253245
253245
253245
253245
253245
253245
253245
253245
253245
253245
253245
253245
253245
253245
253245
253245
253245
253245
253245
253245
253245
253245
253245
253245
253245
253245
253245
253245
253245
253245
253245
253245
253245
253245
253245
253245
253245
253245
253245
253245
253245
253245
253245
253245
253245
253245
253245
253245
253245
253245
253245
253245
253245
253245
253245
253245
253245
253245
253245
253245
253245
253245
253245
253245
253245
253245
253245
253245
253245
253245
253245
253245
253245
253245
253245
253245
253245
253245
253245
253245
253245
253245
253245
253245
253245
253245
253245
253245
253245
253245
253245
253245
253245
253245
253245
253245
253245
253245
253245
253245
253245
253245
253245
253245
253245
253245
253245
253245
253245
253245
253245
253245
253245
253245
253245
253245
253245
253245
253245
253245
253245
253245
253245
253245
253245
253245
253245
253245
253245
253245
253245
253245
253245
253245
253245
253245
253245
253245
253245
253245
253245
253245
253245
253245
253245
253245
253245
253245
253245
253245
253245
253245
253245
253245
253245
253245
253245
253245
253245
253245
253245
253245
253245
253245
253245
253245
253245
253245
253245
253245
253245
253245
253245
253245
253245
253245
253245
253245
253245
253245
253245
253245
253245
253245
253245
253245
253245
253245
253245
253245
253245
253245
253245
253245
253245
253245
253245
253245
253245
253245
253245
253245
253245
253245
253245
253245
253245
253245
253245
253245
253245
253245
253245
253245
253245
253245
253245
253245
253245
253245
253245
253245
253245
253245
253245
253245
253245
253245
253245
253245
253245
253245
253245
253245
253245
253245
253245
253245
253245
253245
253245
253245
253245
253245
253245
253245
253245
253245
253245
253245
253245
253245
253245
253245
253245
253245
253245
253245
253245
253245
253245
253245
253245
253245
253245
253245
253245
253245
253245
253245
253245
253245
253245
253348
253245
253245
253245
253245
253245
253245
253245
253245
253245
253245
253245
253245
253245
253245
253245
253245
253245
253245
253245
253245
253245
253245
253245
253245
253245
253245
253245
253245
253245
253246
253245
253245
253245
253245
253245
253245
253245
253245
253245
253245
253245
253245
253245
253245
253245
253245
253245
253245
253245
253245
253245
253245
253245
253245
253245
253245
253245
253245
253245
253245
253245
253245
253245
253245
253245
253245
253251
253250
253245
253245
253246
253245
253245
253245
253245
253245
253245
253245
253245
253245
253245
253245
253245
253245
253245
253245
253245
253245
253245
253245
253245
253245
253245
253245
253245
253245
253245
253245
253245
253245
253245
253245
253245
253245
253245
253245
253245
253245
253245
253245
253245
253245
253245
253245
253245
253245
253245
253245
253245
253245
253245
253245
253245
253245
253245
253245
253245
253245
253245
253245
253245
253245
253245
253245
253245
253245
253245
253245
253245
253245
253245
253245
253245
253245
253245
253245
253245
253245
253245
253245
253245
253245
253245
253245
253245
253245
253245
253245
253245
253245
253245
253245
253245
253245
253245
253245
253245
253245
253245
253245
253245
253245
253245
253245
253245
253245
253245
253245
253245
253245
253245
253245
253245
253245
253245
253245
253245
253245
253245
253245
253245
253245
253245
253245
253245
253245
253245
253245
253245
253245
253245
253245
253245
253245
253245
253245
253245
253245
253245
253245
253245
253245
253245
253245
253245
253245
253245
253245
253245
253245
253245
253245
253245
253245
253245
253245
253245
253245
253245
253245
253245
253245
253245
253245
253245
253245
253245
253245
253245
253245
253245
253245
253245
253245
253245
253245
253245
253245
253245
253245
253245
253245
253245
253245
253245
253245
253245
253245
253245
253245
253245
253245
253245
253245
253245
253245
253245
253245
253245
253245
253245
253245
253245
253245
253245
253245
253245
253245
253245
253245
253245
253245
253245
253245
253245
253245
253245
253245
253245
253245
253245
253245
253245
253245
253245
253245
253245
253245
253245
253245
253245
253245
253245
253245
253245
253245
253245
253245
253245
253245
253245
253245
253245
253245
253245
253245
253245
253245
253245
253245
253245
253245
253245
253245
253245
253245
253245
253245
253245
253245
253245
253245
253245
253245
253245
253245
253245
253245
253245
253245
253245
253245
253245
253245
253245
253245
253245
253245
253245
253245
253245
253245
253245
253245
253245
253245
253245
253245
253245
253245
253245
253245
253245
253245
253245
253245
253245
253245
253245
253245
253245
253245
253245
253245
253245
253245
253245
253245
253245
253245
253245
253245
253245
253245
253245
253245
253245
253245
253245
253245
253245
253245
253245
253245
253245
253245
253245
253245
253245
253245
253245
253245
253245
253245
253245
253245
253245
253245
253245
253245
253245
253245
253245
253245
253245
253245
253245
253245
253245
253245
253245
253245
253245
253245
253245
253245
253245
253245
253245
253245
253245
253245
253245
253245
253245
253245
253245
253245
253245
253245
253245
253245
253245
253245
253245
253245
253245
253245
253245
253245
253245
253245
253245
253245
253245
253245
253245
253245
253245
253245
253245
253245
253245
253245
253245
253245
253245
253245
253245
253245
253245
253245
253245
253245
253245
253245
253245
253245
253245
253245
253245
253245
253245
253245
253245
253245
253245
253245
253245
253245
253245
253245
253245
253245
253245
253245
253245
253245
253245
253245
253245
253245
253245
253245
253245
253245
253245
253245
253245
253245
253245
253245
253245
253245
253245
253245
253245
253245
253245
253245
253245
253245
253245
253245
253245
253245
253245
253245
253245
253245
253245
253245
253245
253245
253245
253245
253245
253245
253245
253271
253246
253247
253249
253245
253245
253245
253245
253245
253245
253245
253245
253245
253245
253245
253245
253245
253245
253246
253245
253245
253283
253251
253249
253296
253245
253245
253245
253263
253246
253247
253250
253245
253245
253245
253245
253245
253246
253245
253245
253245
253245
253245
253245
253245
253245
253245
253245
253245
253245
253245
253245
253245
253245
253245
253245
253245
253245
253245
253245
253245
253245
253245
253245
253245
253245
253245
253245
253245
253245
253245
253245
253245
253245
253245
253245
253245
253245
253245
253245
253245
253245
253273
253246
253347
253276
253883
253250
253245
253245
253245
253245
253245
253245
253245
253245
253245
253245
253246
253245
253245
253245
253245
253245
253245
253245
253245
253245
253245
253245
253245
253245
253245
253245
253245
253245
253245
253245
253245
253245
253245
253245
253245
253245
253245
253245
253245
253245
253245
253245
253245
253245
253245
253245
253245
253245
253245
253245
253245
253245
253245
253245
253245
253245
253245
253245
253245
253245
253245
253245
253245
253246
253245
253245
253245
253245
253245
253245
253245
253248
253245
253245
253245
253245
253245
253245
253245
253245
254283
253318
253298
253245
253245
253245
253245
253245
253245
253245
253245
253245
253245
253245
253245
253245
253245
253245
253245
253245
253245
253245
253245
253245
253245
253245
253245
253245
253245
253245
253245
253245
253245
253245
253245
253245
253245
253245
253245
253245
253245
253245
253335
253671
257196
254936
333059
262937
272773
253248
253254
253436
253249
253263
253246
253245
253245
253245
253245
253245
253245
253245
253245
253245
253245
253245
253245
253245
253245
253245
253245
253245
253245
253245
253245
253245
253245
253245
253245
253245
253245
253245
253245
253245
253245
253245
253245
253245
253245
253245
253245
253245
253245
253245
253245
253245
253245
253245
253245
253245
253245
253245
253245
253245
253245
253245
253245
253245
253245
253245
253245
253245
253245
253245
253245
253245
253245
253245
253245
253245
253245
253245
253245
253245
253245
253245
253245
253245
253245
253245
253245
253245
253245
253245
253245
253245
253245
253245
253245
253245
253245
253245
253245
253245
253245
253245
253245
253245
253245
253245
253245
253245
253245
253245
253245
253245
253245
253245
253245
253245
253245
253245
253245
253245
253245
253245
253245
253245
253245
253245
253245
253245
253245
253245
253245
253245
253245
253245
253245
253245
253245
253245
253245
253245
253245
253245
253245
253245
253245
253245
253245
253245
253245
253245
253245
253245
253245
253245
253245
253245
253245
253245
253245
253245
253245
253245
253245
253245
253245
253245
253245
253245
253245
253245
253245
253245
253245
253245
253245
253245
253245
253245
253245
253245
253245
253245
253245
253245
253245
253245
253245
253246
253245
253245
253245
253245
253245
253245
253245
253245
253245
253245
253245
253245
253245
253245
253245
253245
253245
253245
253245
253245
253245
253245
253245
253245
253245
253245
253245
253245
253245
253245
253245
253245
253245
253245
253245
253245
253245
253245
253245
253245
253245
253245
253245
253245
253245
253245
253245
253245
253245
253245
253245
253245
253245
253245
253245
253245
253245
253245
253245
253245
253245
253245
253245
253245
253245
253245
253245
253245
253245
253245
253245
253245
253245
253245
253245
253245
253245
253245
253245
253245
253245
253245
253245
253245
253245
253245
253245
253245
253245
253245
253245
253245
253245
253245
253245
253245
253245
253245
253245
253245
253245
253245
253245
253245
253245
253245
253245
253245
253245
253245
253245
253245
253245
253245
253245
253245
253245
253245
253245
253245
253245
253245
253245
253245
253245
253245
253245
253245
253245
253245
253245
253245
253245
253245
253245
253245
253245
253245
253245
253245
253245
253245
253245
253245
253245
253245
253245
253245
2.37276e+06
2.35351e+06
287112
253245
2.38798e+06
253667
253245
4.3862e+06
253250
253296
2.54788e+06
253245
253245
1.3212e+06
253252
253245
1.55703e+06
253245
270190
253269
271635
253245
253245
253435
253245
253245
253371
253245
253249
253247
518686
253260
253245
253245
255617
253245
253245
253245
253383
253245
253245
253245
253245
253245
273677
253247
253245
253245
253245
253708
253245
253245
253245
253245
253248
253245
253245
253245
253245
253245
253245
253245
253245
253245
253245
253245
253245
253245
253245
253245
253245
253245
253245
5.53947e+06
4.63025e+06
263577
3.48323e+06
253878
2.24095e+06
254150
1.80692e+06
253312
5.98238e+06
5.25836e+06
254776
2.79887e+06
253408
253245
3.64031e+06
283971
4.52018e+06
349698
253279
255620
253245
253245
257338
254823
256220
253411
254873
253245
253245
253290
253245
253246
253245
253245
253245
258085
258202
253245
253245
253245
293718
254948
1.10169e+06
272847
266642
253248
253247
253341
253245
253286
253245
253245
253245
253245
253245
253245
253245
253245
253245
253245
256222
260780
253246
253245
253245
253245
253245
263123
253262
253245
1.53472e+06
4.19498e+06
1.32424e+06
253424
867718
253259
255988
253246
254079
253245
310818
591052
261862
253248
253250
253245
253251
253251
253245
253245
253245
253245
253338
254521
253246
253328
253250
253290
253245
253245
253245
253245
253245
253245
253245
253245
253245
253245
253245
253245
253245
253245
253245
253267
253271
4.93872e+06
5.44382e+06
4.81868e+06
5.17618e+06
3.78392e+06
4.46387e+06
490761
2.66872e+06
858791
3.24536e+06
2.41434e+06
733558
572477
368339
2.67544e+06
1.10087e+06
343685
1.85524e+06
519641
288944
5.89739e+06
5.66676e+06
3.69908e+06
525337
926308
253886
253783
260010
253261
274500
253301
253438
2.63029e+06
2.06749e+06
1.17012e+06
670814
261697
378514
3.09943e+06
1.21251e+06
253251
254637
253248
253250
253286
253451
253246
287168
253305
254091
253833
253694
308921
253311
266581
253268
255358
254052
304964
255216
253318
268626
255300
253359
253285
253248
253245
253248
253247
253319
253251
253245
253261
253246
253247
253246
253246
253245
253245
253245
253245
253245
253245
253245
253245
439549
253438
260143
448874
253434
260133
253252
253252
253463
253245
253245
253245
253245
253245
253245
253245
253245
253245
253245
274252
260010
280798
253453
357955
254568
256621
304909
347045
254130
260701
259472
256521
253274
253269
253301
253445
253720
253639
253250
253656
253250
253257
253269
253323
253246
253245
253245
253245
253245
253246
253245
253245
253246
253247
253247
253245
253257
253245
253245
253245
253245
253245
253245
253245
253245
253245
253245
253245
253245
253245
253245
253245
253245
253245
253245
253245
253245
253245
253245
253245
308937
253366
255706
253578
257289
253254
253260
253428
253245
253245
253245
253245
253245
253245
253245
253245
253245
253245
253245
253245
254866
456378
253874
253736
268738
262165
253321
253246
254595
313093
253410
254367
296811
253365
255108
253246
253246
253246
253245
253265
253245
253245
818218
2.50139e+06
291703
2.52351e+06
515101
2.52215e+06
256768
253245
253246
253245
253280
253245
253245
253245
253245
253245
253245
253245
253245
253245
253245
584521
916551
1.26336e+06
345123
438666
264221
253246
255703
253245
253314
253245
253247
253245
253245
253245
253245
253245
253245
253245
253245
253540
301267
253254
253620
253247
253420
253246
253245
253246
253245
253245
253245
253245
253245
253245
253245
253245
253245
253245
253245
253245
500570
273010
369903
261144
289493
256262
254400
265025
253511
253268
256922
253556
253254
253362
269747
1.59044e+06
253949
493565
253267
661470
253246
253245
253245
253245
253245
253245
253245
253245
253247
253245
253245
253245
253245
1.28595e+06
2.19247e+06
1.37551e+06
3.71735e+06
4.12448e+06
1.04635e+06
2.29536e+06
828964
1.35421e+06
2.92409e+06
3.11959e+06
5.67183e+06
1.51744e+06
1.03245e+06
2.38464e+06
2.67648e+06
597106
5.36361e+06
482136
977757
1.4909e+06
253251
253264
253600
253245
253245
253245
253245
253245
253245
253245
253245
253245
253245
253245
253245
253245
253245
253245
253245
253245
253245
253245
253245
253245
253245
253245
253245
253245
253245
253245
253245
253245
253245
3.19739e+06
3.40095e+06
3.02063e+06
3.38192e+06
3.93938e+06
2.65307e+06
4.08923e+06
3.48271e+06
2.62534e+06
4.94229e+06
3.3276e+06
3.91807e+06
5.00844e+06
3.48444e+06
4.42125e+06
3.46184e+06
2.97977e+06
7.08686e+06
2.41279e+06
5.60708e+06
1.97379e+06
314630
6.33815e+06
4.41201e+06
7.18819e+06
6.69872e+06
1.82014e+06
6.42376e+06
1.45266e+06
799250
284896
4.34509e+06
6.95201e+06
367968
5.54254e+06
4.30149e+06
5.73922e+06
3.08341e+06
3.49309e+06
6.51283e+06
6.42127e+06
6.54386e+06
7.00648e+06
7.52822e+06
2.40585e+06
2.43337e+06
484339
1.01445e+06
303256
253684
3.15198e+06
3.52586e+06
2.963e+06
3.52325e+06
3.62802e+06
3.06022e+06
3.073e+06
2.85109e+06
2.94583e+06
2.80391e+06
2.99695e+06
3.25747e+06
3.67264e+06
3.98677e+06
3.36672e+06
3.76302e+06
3.17647e+06
3.43894e+06
5.24175e+06
4.14997e+06
5.3457e+06
4.26221e+06
4.28115e+06
5.51245e+06
5.10814e+06
5.74501e+06
6.09487e+06
6.12128e+06
5.71452e+06
5.42921e+06
4.51165e+06
4.81695e+06
6.0375e+06
4.47879e+06
5.74129e+06
5.69345e+06
5.7156e+06
6.0137e+06
6.10604e+06
5.55356e+06
2.85207e+06
3.46093e+06
2.9498e+06
2.83001e+06
2.69218e+06
3.62704e+06
3.27102e+06
3.06807e+06
6.47293e+06
6.48403e+06
4.55646e+06
6.30002e+06
5.99738e+06
6.32796e+06
6.43423e+06
3.5889e+06
3.19284e+06
3.22202e+06
3.58668e+06
4.21643e+06
4.37514e+06
3.69831e+06
5.29378e+06
3.70566e+06
5.24954e+06
4.25394e+06
4.30276e+06
5.598e+06
4.27242e+06
5.74843e+06
5.42717e+06
6.53377e+06
6.59504e+06
6.81435e+06
6.46371e+06
5.32842e+06
6.69981e+06
5.91339e+06
5.41558e+06
6.31142e+06
6.39778e+06
5.96333e+06
6.17389e+06
6.35413e+06
4.09223e+06
5.75016e+06
5.12711e+06
5.00521e+06
5.02052e+06
6.76131e+06
5.44525e+06
4.08446e+06
6.37862e+06
5.8633e+06
2.74194e+06
2.09794e+06
1.08732e+06
3.28607e+06
527805
3.6309e+06
5.20322e+06
4.18933e+06
5.3371e+06
4.16253e+06
6.36478e+06
6.61257e+06
5.12124e+06
6.11475e+06
5.56934e+06
6.83072e+06
5.05849e+06
6.24808e+06
1.93084e+06
4.31221e+06
5.72788e+06
6.95091e+06
6.57529e+06
6.8303e+06
4.61382e+06
5.32726e+06
7.16241e+06
4.05706e+06
6.42432e+06
2.40845e+06
6.11722e+06
3.57158e+06
2.52624e+06
5.36965e+06
1.67047e+06
1.85814e+06
1.04189e+06
284613
724354
506101
3.34663e+06
638271
268003
2.84923e+06
1.37499e+06
1.33555e+06
624414
579618
319078
7.48337e+06
5.27342e+06
6.9908e+06
4.08821e+06
6.70961e+06
2.08425e+06
1.47685e+06
4.88249e+06
528659
642357
958343
304872
1.29815e+06
3.12791e+06
3.28775e+06
1.9967e+06
1.15339e+06
2.99914e+06
3.13223e+06
1.93817e+06
2.97726e+06
2.1702e+06
1.30619e+06
2.16358e+06
2.2421e+06
2.26349e+06
1.16507e+06
2.81392e+06
2.20998e+06
944240
1.75123e+06
1.33519e+06
2.48147e+06
2.46281e+06
1.96176e+06
2.51487e+06
2.34235e+06
1.59033e+06
2.61764e+06
1.9015e+06
1.90615e+06
1.15479e+06
2.14315e+06
964161
1.59573e+06
1.07547e+06
1.61399e+06
2.01648e+06
1.17932e+06
1.55531e+06
752803
1.47106e+06
358350
1.39678e+06
303467
1.41276e+06
253270
253245
253245
253245
253245
253245
253245
253245
572674
748066
298701
455663
258130
447083
716679
509240
1.27934e+06
1.13146e+06
1.13014e+06
1.51573e+06
261467
342930
275223
807787
584655
929026
404144
364866
739987
347975
1.1657e+06
255731
530847
3.0043e+06
1.10038e+06
282844
1.65991e+06
478576
391849
2.82352e+06
2.2987e+06
2.66523e+06
5.74869e+06
3.36246e+06
2.38202e+06
2.60292e+06
2.50195e+06
2.77077e+06
4.40611e+06
4.24974e+06
5.8616e+06
4.40518e+06
5.97543e+06
1.57454e+06
3.67046e+06
1.3377e+06
443600
2.18126e+06
5.18823e+06
428713
2.53497e+06
2.34708e+06
2.60466e+06
2.9468e+06
7.13079e+06
1.06916e+06
1.14316e+06
270902
255664
2.76777e+06
2.41973e+06
2.63763e+06
2.4353e+06
2.46086e+06
2.71177e+06
2.71083e+06
2.50507e+06
2.63267e+06
2.52508e+06
2.41269e+06
2.80637e+06
3.06429e+06
3.09623e+06
3.53495e+06
4.55157e+06
3.59719e+06
3.42298e+06
5.75013e+06
6.66768e+06
5.84866e+06
6.15943e+06
2.70516e+06
4.61113e+06
7.21808e+06
2.15366e+06
2.27344e+06
4.21987e+06
2.31722e+06
2.80567e+06
1.77449e+06
3.39071e+06
1.86096e+06
1.17065e+06
890412
1.42794e+06
1.42228e+06
2.56298e+06
1.53122e+06
1.70228e+06
851034
1.2419e+06
5.5242e+06
3.33366e+06
4.73934e+06
1.47247e+06
1.83083e+06
3.57974e+06
2.36591e+06
2.16164e+06
2.39466e+06
2.31693e+06
2.10627e+06
2.23737e+06
2.55918e+06
2.42122e+06
3.33455e+06
3.52888e+06
2.33143e+06
3.38647e+06
3.30483e+06
4.53727e+06
1.17803e+06
5.17311e+06
4.41357e+06
6.5084e+06
1.99136e+06
2.17587e+06
1.95595e+06
2.19943e+06
2.20843e+06
1.98843e+06
1.96033e+06
2.03306e+06
2.25176e+06
2.33489e+06
2.07363e+06
2.25907e+06
2.02919e+06
2.08732e+06
1.93382e+06
2.1361e+06
1.94972e+06
2.18253e+06
2.01258e+06
1.98042e+06
2.30618e+06
2.45613e+06
2.13254e+06
2.6142e+06
2.16616e+06
2.66626e+06
2.24769e+06
2.58294e+06
2.9487e+06
3.71689e+06
2.86846e+06
3.04976e+06
2.47242e+06
3.06925e+06
2.05609e+06
2.50442e+06
2.14906e+06
2.82133e+06
2.71615e+06
2.34458e+06
4.42151e+06
4.70068e+06
3.54025e+06
5.67226e+06
3.83125e+06
5.22974e+06
4.40017e+06
4.4581e+06
5.98097e+06
3.52542e+06
4.91133e+06
4.83473e+06
4.93336e+06
3.85175e+06
3.38469e+06
5.89354e+06
4.38251e+06
6.7377e+06
5.7638e+06
5.33334e+06
296482
1.8646e+06
1.64491e+06
2.24456e+06
1.82954e+06
2.70713e+06
1.22217e+06
791689
1.41946e+06
979166
779271
935738
1.61754e+06
1.12271e+06
824023
1.47743e+06
948162
1.0079e+06
932537
1.7324e+06
1.59765e+06
839592
789736
839197
846608
890588
852218
898709
931642
986046
935463
1.06881e+06
997736
1.01062e+06
1.08511e+06
2.2257e+06
1.23664e+06
1.28339e+06
2.05097e+06
1.19398e+06
1.21085e+06
2.09282e+06
1.1948e+06
1.68273e+06
1.81856e+06
2.03465e+06
1.85485e+06
1.34012e+06
1.27243e+06
2.41061e+06
2.25763e+06
2.23157e+06
2.03089e+06
2.11623e+06
2.16162e+06
2.00396e+06
824539
858649
913744
778820
832160
853527
905860
1.00329e+06
1.13453e+06
1.04287e+06
993024
936461
1.02547e+06
1.10589e+06
974244
982905
958692
1.07105e+06
1.08894e+06
1.04753e+06
1.0659e+06
1.13192e+06
938100
1.64884e+06
1.74204e+06
944095
1.07073e+06
1.34897e+06
3.12812e+06
2.87475e+06
2.90188e+06
2.78002e+06
2.79736e+06
2.84135e+06
2.86838e+06
2.29217e+06
2.42761e+06
2.36406e+06
2.05635e+06
2.16278e+06
2.1406e+06
2.1089e+06
989655
1.14526e+06
1.12405e+06
992643
971097
1.11207e+06
1.08972e+06
1.21221e+06
846107
990117
1.01578e+06
897534
1.06063e+06
938769
776146
1.5256e+06
1.58048e+06
832460
1.57301e+06
919894
1.32171e+06
1.00355e+06
1.02004e+06
1.06035e+06
1.11305e+06
1.17484e+06
1.06473e+06
1.22832e+06
1.76489e+06
1.21842e+06
1.59204e+06
1.31026e+06
1.23e+06
1.54672e+06
1.84028e+06
2.79227e+06
2.61099e+06
2.7536e+06
2.45492e+06
2.95387e+06
2.61845e+06
2.32807e+06
887226
839203
898590
948126
989192
1.00696e+06
971770
2.99934e+06
3.02264e+06
2.86206e+06
2.66262e+06
2.69955e+06
2.52977e+06
2.50044e+06
1.31076e+06
1.31086e+06
1.33449e+06
1.39261e+06
1.41462e+06
1.4385e+06
1.41621e+06
928042
1.10909e+06
975856
1.06669e+06
941387
992379
1.13403e+06
1.20252e+06
2.08424e+06
1.81485e+06
2.34327e+06
1.87532e+06
2.16053e+06
1.3036e+06
1.06864e+06
1.0188e+06
1.05893e+06
1.25499e+06
1.19473e+06
1.26314e+06
1.17667e+06
2.49154e+06
2.87732e+06
2.74272e+06
2.48068e+06
2.36996e+06
2.25051e+06
2.19505e+06
1.26247e+06
1.20495e+06
1.09948e+06
1.12142e+06
1.46346e+06
1.29633e+06
1.23237e+06
3.25986e+06
3.26845e+06
3.20846e+06
2.7271e+06
2.49944e+06
2.36818e+06
2.80654e+06
1.47687e+06
1.21508e+06
1.02937e+06
1.25433e+06
1.11389e+06
1.37487e+06
1.21328e+06
3.2273e+06
3.58582e+06
3.98054e+06
3.46138e+06
2.92498e+06
3.33026e+06
2.72153e+06
887600
1.06014e+06
1.06723e+06
859118
912449
1.03089e+06
1.00641e+06
2.92293e+06
2.68918e+06
2.57789e+06
2.74451e+06
2.67634e+06
3.10661e+06
3.05018e+06
2.17417e+06
1.69634e+06
2.73164e+06
2.83932e+06
2.43264e+06
1.36094e+06
1.82695e+06
973091
1.21075e+06
1.03901e+06
1.09207e+06
955735
1.01295e+06
1.16722e+06
1.44906e+06
1.36389e+06
1.47198e+06
1.33024e+06
1.35361e+06
1.45941e+06
1.43769e+06
1.45495e+06
1.57898e+06
1.9705e+06
831500
2.27082e+06
1.409e+06
455106
2.4065e+06
1.21147e+06
1.89044e+06
1.69399e+06
1.9346e+06
1.27152e+06
1.33444e+06
4.02328e+06
4.39654e+06
2.42791e+06
3.11969e+06
3.56845e+06
4.05922e+06
4.00507e+06
1.40412e+06
1.31847e+06
1.1854e+06
1.14912e+06
1.52603e+06
1.34177e+06
1.26877e+06
1.22134e+06
1.52962e+06
1.25084e+06
1.49847e+06
1.20237e+06
1.23242e+06
1.55822e+06
310259
255160
702395
1.47885e+06
263306
1.16498e+06
253359
1.24401e+06
1.21831e+06
1.26756e+06
1.35202e+06
1.37552e+06
1.40024e+06
1.3779e+06
1.52374e+06
1.45595e+06
1.48945e+06
1.38967e+06
1.47924e+06
1.48265e+06
1.50458e+06
2.74089e+06
3.05559e+06
2.9984e+06
2.43782e+06
1.67032e+06
2.04983e+06
2.0048e+06
1.1466e+06
1.01218e+06
1.24133e+06
1.26668e+06
1.10676e+06
1.07648e+06
1.34555e+06
1.48734e+06
1.11806e+06
1.27447e+06
1.60084e+06
1.56513e+06
1.36773e+06
1.36529e+06
1.01131e+06
930760
996357
1.22365e+06
1.14641e+06
1.1265e+06
1.27744e+06
1.76754e+06
1.35247e+06
1.34359e+06
1.60964e+06
1.29194e+06
1.27608e+06
1.64689e+06
853093
896812
923770
993486
1.02686e+06
1.13221e+06
1.18233e+06
3.3463e+06
3.36932e+06
3.25652e+06
3.62418e+06
3.63313e+06
3.63945e+06
3.71557e+06
1.30147e+06
1.48845e+06
1.38925e+06
1.93849e+06
1.23294e+06
1.60256e+06
1.48631e+06
1.30687e+06
1.44579e+06
1.44914e+06
1.24484e+06
1.28976e+06
1.42576e+06
1.40922e+06
2.85091e+06
3.2383e+06
3.17688e+06
3.66678e+06
3.29923e+06
3.27763e+06
3.41545e+06
1.82067e+06
2.91474e+06
1.48364e+06
1.22997e+06
2.32468e+06
2.12148e+06
3.47126e+06
1.0222e+06
1.156e+06
1.35428e+06
880855
962840
1.07788e+06
1.25639e+06
1.33815e+06
914663
1.23979e+06
1.99165e+06
2.273e+06
2.45677e+06
2.25546e+06
1.1804e+06
1.50224e+06
1.15592e+06
1.18991e+06
1.54509e+06
1.55236e+06
1.2277e+06
1.51807e+06
1.33354e+06
1.48709e+06
1.37267e+06
1.47107e+06
1.41168e+06
1.54133e+06
1.91027e+06
2.05384e+06
1.61676e+06
1.44354e+06
2.11905e+06
1.57824e+06
1.45202e+06
1.49966e+06
1.70706e+06
1.52053e+06
1.5467e+06
1.71416e+06
1.74218e+06
1.52445e+06
3.33796e+06
3.65878e+06
3.65784e+06
3.47492e+06
4.02489e+06
3.83736e+06
3.51566e+06
2.3773e+06
2.86154e+06
2.29426e+06
1.68994e+06
1.99654e+06
1.89837e+06
1.69797e+06
1.3019e+06
1.22848e+06
1.3362e+06
1.39633e+06
1.42763e+06
1.58182e+06
1.62889e+06
3.78885e+06
3.32601e+06
4.41645e+06
4.27018e+06
2.90165e+06
3.34132e+06
4.60411e+06
2.62074e+06
1.91612e+06
2.04798e+06
1.33367e+06
1.44458e+06
1.5121e+06
1.48791e+06
1.235e+06
1.09248e+06
1.18656e+06
1.59462e+06
1.56726e+06
1.37306e+06
1.44752e+06
1.69162e+06
1.39356e+06
1.32865e+06
1.24372e+06
1.5763e+06
1.61647e+06
1.29812e+06
1.11351e+06
1.24787e+06
1.06744e+06
1.53883e+06
1.26983e+06
1.40836e+06
1.45827e+06
1.81566e+06
1.58286e+06
1.61058e+06
1.57664e+06
1.75719e+06
1.7901e+06
1.55194e+06
1.53338e+06
1.89362e+06
1.58633e+06
2.40852e+06
2.01152e+06
2.09292e+06
2.46695e+06
1.52542e+06
1.44617e+06
1.79099e+06
1.26194e+06
1.38318e+06
1.46994e+06
1.69676e+06
3.6489e+06
4.41854e+06
1.87983e+06
3.252e+06
2.3921e+06
4.25294e+06
2.00145e+06
2.6206e+06
1.97607e+06
2.12231e+06
1.64857e+06
1.55072e+06
1.70852e+06
1.64928e+06
2.09895e+06
1.93971e+06
1.8404e+06
1.43321e+06
2.17512e+06
1.7672e+06
1.63349e+06
1.41777e+06
1.21264e+06
1.53363e+06
1.08574e+06
1.0208e+06
1.50834e+06
1.40325e+06
1.53733e+06
1.73747e+06
1.51977e+06
1.54716e+06
1.86518e+06
1.77534e+06
1.56776e+06
1.88813e+06
2.04371e+06
1.98087e+06
1.69451e+06
1.61399e+06
1.64625e+06
1.65817e+06
1.76237e+06
1.54049e+06
1.79591e+06
1.6056e+06
1.49569e+06
1.45387e+06
1.58814e+06
1.58047e+06
1.41554e+06
1.35876e+06
1.04794e+06
1.09228e+06
1.39852e+06
1.44566e+06
4.42239e+06
3.49045e+06
4.09864e+06
3.70648e+06
3.435e+06
4.16912e+06
4.39479e+06
2.08098e+06
1.59459e+06
1.42406e+06
1.52707e+06
1.67926e+06
1.91785e+06
1.63045e+06
4.13956e+06
3.53264e+06
4.2189e+06
3.14957e+06
3.77921e+06
3.38149e+06
4.47005e+06
2.14844e+06
2.50385e+06
2.06401e+06
2.04428e+06
1.82763e+06
2.33258e+06
1.77339e+06
253488
274994
254248
573726
270633
253290
253278
1.90596e+06
1.66265e+06
1.62233e+06
1.58092e+06
1.93473e+06
1.82926e+06
1.60834e+06
2.60086e+06
1.76746e+06
2.3514e+06
2.00725e+06
1.66155e+06
2.20662e+06
2.53532e+06
2.04674e+06
1.94562e+06
1.98733e+06
2.38388e+06
2.40129e+06
2.05438e+06
2.02133e+06
308843
262393
253248
253504
253246
253250
265877
253584
254177
344408
254142
476839
710430
253972
1.38771e+06
1.48565e+06
1.27545e+06
1.46357e+06
1.49188e+06
1.33407e+06
1.17575e+06
1.30224e+06
1.52818e+06
1.35105e+06