/*--------------------------------*- C++ -*----------------------------------*\
  =========                 |
  \\      /  F ield         | OpenFOAM: The Open Source CFD Toolbox
   \\    /   O peration     | Website:  https://openfoam.org
    \\  /    A nd           | Version:  9
     \\/     M anipulation  |
\*---------------------------------------------------------------------------*/
FoamFile
{
    format      ascii;
    class       volScalarField;
    location    "0.00025";
    object      lambda.c4;
}
// * * * * * * * * * * * * * * * * * * * * * * * * * * * * * * * * * * * * * //

dimensions      [0 0 0 0 0 0 0];

internalField   nonuniform List<scalar> 
4789
(
9.24611e-08
2.78889e-08
1.27155e-07
1.57489e-23
1.33447e-22
9.10707e-39
3.27215e-38
4.11583e-76
2.83627e-54
9.98455e-113
9.24173e-105
5.7576e-23
3.46333e-38
3.73189e-75
2.74309e-113
3.84939e-18
8.18198e-35
1.30603e-50
2.25326e-85
3.47132e-122
4.59952e-40
1.1748e-39
1.04883e-71
2.03133e-74
1.47697e-73
1.79858e-107
1.03545e-110
9.29007e-110
8.06895e-146
1.81032e-07
8.88282e-08
5.47269e-24
2.77875e-23
2.41753e-38
5.00727e-22
3.85848e-74
2.9537e-109
1.48712e-74
6.02688e-110
7.33758e-103
9.30988e-140
1.05352e-120
8.12779e-160
6.23211e-84
1.93594e-119
5.39967e-158
1.13176e-198
3.92951e-119
1.98931e-157
3.58878e-198
3.61479e-242
2.0435e-157
4.44677e-198
2.29629e-241
1.8621e-287
5.49695e-33
1.44783e-49
3.40219e-84
1.88048e-120
1.74104e-159
1.65095e-49
1.67555e-83
2.24342e-119
6.6799e-158
4.43962e-199
4.04846e-50
2.03476e-83
4.44047e-119
1.46982e-157
4.19115e-198
3.979e-241
5.09432e-287
0
1.4869e-198
1.20642e-241
3.46086e-287
0
0
3.27287e-242
6.71048e-288
0
0
0
1.77247e-29
1.04666e-44
2.14746e-76
1.53448e-78
4.94793e-112
9.25758e-115
6.88338e-150
1.92189e-153
7.25509e-191
1.44926e-43
6.19729e-18
6.88932e-33
1.79986e-49
1.15633e-66
1.98085e-100
9.8897e-102
1.59013e-136
1.1265e-138
6.43935e-177
1.62911e-32
9.73714e-83
5.85974e-83
8.82292e-83
9.3241e-83
9.77705e-83
1.13321e-48
1.13471e-48
1.1333e-48
1.13477e-48
3.44296e-148
2.56813e-111
3.44841e-148
2.4692e-183
2.17076e-183
1.67968e-144
2.90178e-145
6.14235e-145
1.56969e-144
1.24698e-33
1
3.76098e-31
1.38493e-63
0.5
3.53196e-15
2.84198e-30
5.525e-31
3.37387e-15
1.68805e-15
8.33222e-15
6.62392e-63
1.46244e-63
7.86001e-63
6.90469e-107
1.68357e-72
1.1827e-117
2.65123e-83
6.90242e-107
1.75621e-122
1.97495e-122
2.18915e-86
1.65788e-86
1.72994e-86
2.32199e-86
1.18469e-117
5.84867e-147
3.17458e-146
8.92394e-110
5.23354e-110
6.31123e-110
6.9225e-110
3.31858e-118
1.81682e-83
9.08624e-147
6.19326e-111
3.32185e-118
2.59646e-153
2.32199e-153
2.44385e-115
8.04852e-116
1.69287e-115
2.34911e-115
6.83581e-148
9.35525e-182
9.87113e-183
1.93609e-144
3.0444e-144
1.46083e-144
4.03725e-144
1.0047e-18
1.63511e-33
6.94049e-51
6.42925e-102
1.35497e-138
8.21587e-07
6.53381e-06
6.81964e-06
3.05706e-22
2.34144e-19
5.82861e-20
4.5427e-38
6.37884e-35
3.89593e-35
4.76075e-54
1.56727e-50
1.09355e-70
7.56437e-89
1.39547e-84
3.5535e-108
3.13875e-05
9.11188e-15
1
1
1
0.5
9.11175e-15
3.89195e-127
1
1.37881e-78
9.49751e-43
1.37097e-108
1.79867e-143
4.59646e-32
5.45617e-32
2.19521e-15
3.05303e-127
4.33409e-127
6.97789e-128
1
0.5
0.5
1
1
1
1
1
1.95539e-15
1.93364e-15
1
1
0.5
2.97372e-46
3.09883e-46
8.15923e-79
2.73115e-79
3.01121e-46
2.94635e-46
1.09257e-79
1.59776e-78
4.31651e-109
3.62159e-77
8.59393e-109
1.00649e-75
1.02019e-124
1.55794e-78
3.12503e-144
6.81365e-144
2.53218e-160
1
1
1
1
1
1
1
1
1
1
1
1
0.5
1.47792e-13
0
2.56856e-227
2.1475e-204
3.28348e-199
1.14322e-224
1.10906e-263
1.70236e-306
0
0
0
0
0
0
1.07878e-183
4.06368e-162
7.1109e-158
3.94657e-182
9.37845e-219
6.18737e-260
2.68558e-304
0
0
0
0
0
1.5405e-142
1.1926e-122
2.00094e-118
3.19995e-142
5.47247e-177
4.82142e-200
4.19003e-258
1.87609e-302
0
0
0
0
6.39503e-85
3.52736e-82
2.50621e-105
4.19491e-122
5.2137e-158
7.8132e-199
1.39715e-256
8.42713e-302
0
0
0
2.23281e-50
2.43808e-48
2.25731e-70
1.07331e-84
1.02815e-114
4.51536e-157
1.1147e-197
5.76827e-256
2.2188e-301
0
0
1.24495e-33
2.32913e-32
3.13383e-38
2.55699e-45
1.42054e-78
1.2459e-113
2.31595e-156
3.26548e-197
6.13462e-256
1.98813e-301
0
5.18599e-17
1.54444e-16
1.13207e-22
3.33653e-30
4.13305e-44
7.12127e-78
4.95898e-113
2.46856e-156
2.53421e-197
3.5743e-256
1.11571e-301
0.00120013
0.000115714
7.93714e-08
1.71745e-14
4.89419e-29
9.17435e-44
7.38728e-78
2.16424e-113
6.20856e-157
3.4641e-198
1.27157e-257
1
5.61453e-14
7.98278e-29
4.94371e-44
1.79141e-78
7.43783e-114
1.20599e-157
1.42803e-199
2.94286e-225
3.19488e-199
2.45218e-204
2.43771e-226
2.20984e-264
5.31555e-308
0
0
0
0
0
0
4.33586e-182
3.73908e-158
4.03444e-161
1.62851e-183
2.67979e-219
5.11709e-261
8.72634e-306
0
0
0
0
0
1.54989e-141
2.37927e-119
4.14031e-121
3.07517e-143
1.23407e-177
7.99466e-217
2.73588e-259
1.04578e-303
0
0
0
0
4.09607e-83
4.25221e-83
5.76872e-106
3.90676e-138
9.13958e-175
1.9418e-215
6.14318e-258
9.67738e-303
0
0
0
5.73751e-49
6.73865e-49
1.2125e-70
3.36529e-101
3.01941e-115
6.16423e-174
2.79831e-214
5.62832e-257
1.77655e-302
0
0
1.20653e-32
1.14658e-32
2.86803e-38
1.31973e-45
2.70792e-79
2.8633e-114
3.97035e-173
8.75808e-214
9.86384e-257
2.65779e-302
0
2.67921e-16
1.05927e-16
9.68622e-23
2.28127e-30
2.30525e-44
2.39187e-78
1.09759e-113
3.19247e-173
8.46078e-214
2.64773e-257
6.53659e-303
0.00196448
0.000124948
7.58322e-08
1.09219e-14
3.44579e-29
4.91025e-44
1.46089e-78
7.3585e-114
1.68394e-173
1.30741e-214
2.45953e-258
1
3.59726e-14
5.398e-29
2.56043e-44
6.35264e-79
1.80322e-114
2.12517e-174
5.04195e-216
1.37472e-245
1.40099e-227
6.29874e-227
9.56428e-244
1.25711e-278
0
0
0
0
0
0
0
8.15862e-201
8.69864e-183
5.63927e-183
1.12546e-199
4.13337e-232
1.03025e-273
0
0
0
0
0
0
1.58058e-157
4.39102e-142
3.08177e-142
4.12251e-157
6.52212e-189
1.7888e-228
1.97838e-272
0
0
0
0
0
1.04855e-104
1.03686e-104
3.95072e-114
2.93592e-148
1.40737e-186
3.72362e-227
9.57687e-271
0
0
0
0
2.31253e-69
1.86235e-69
4.61392e-78
3.58061e-110
3.74043e-146
1.0617e-184
2.42106e-226
3.09919e-270
0
0
0
5.35328e-37
6.16046e-37
7.68237e-44
1.66588e-73
1.03972e-107
7.12979e-145
6.38674e-184
1.009e-225
4.25591e-270
0
0
2.26852e-21
2.67149e-21
5.54967e-28
3.10424e-40
2.98971e-72
3.31929e-107
1.4106e-144
9.99574e-184
8.33375e-226
1.79215e-270
0
9.46864e-07
1.09982e-06
1.02436e-12
1.09645e-24
2.49922e-39
7.72408e-72
3.46759e-107
9.27733e-145
4.96421e-184
3.33087e-226
1.78317e-271
1.29047e-09
4.54688e-24
3.34191e-39
6.56141e-72
6.22028e-108
1.6229e-145
6.36614e-185
6.25344e-228
4.9345e-288
1.6628e-267
1.77838e-266
9.94727e-285
0
0
0
0
0
0
0
0
1.12614e-240
2.22525e-222
2.37657e-221
1.76153e-238
7.13285e-274
0
0
0
0
0
0
0
1.21051e-196
4.34014e-179
5.38448e-178
2.18541e-195
1.77559e-228
1.4651e-270
0
0
0
0
0
0
2.56978e-137
8.49294e-137
7.51578e-154
6.00429e-186
5.86222e-226
1.27476e-268
0
0
0
0
0
1.30458e-100
3.6667e-100
1.27659e-111
1.96601e-145
2.28226e-183
3.35673e-224
5.53314e-268
0
0
0
0
1.70163e-65
2.06685e-65
6.73216e-76
5.90702e-108
6.94563e-144
4.36902e-182
1.20866e-223
9.22845e-268
0
0
0
1.30308e-33
1.69465e-33
5.54336e-42
7.86579e-72
1.50872e-106
6.13855e-143
3.52506e-182
1.14746e-223
9.48018e-268
0
0
3.31574e-18
4.55165e-18
2.23807e-26
5.17059e-39
6.96931e-71
3.91699e-106
4.96404e-143
2.22936e-182
3.08092e-224
1.71969e-268
0
9.29736e-24
2.40953e-38
1.04286e-70
3.56726e-106
2.56827e-143
6.99247e-183
9.87567e-225
1.20084e-269
0
4.94066e-314
2.66795e-312
0
0
0
0
0
0
0
0
0
1.85958e-284
1.03709e-265
9.95276e-265
2.54506e-282
0
0
0
0
0
0
0
0
6.84724e-238
2.24989e-220
1.83907e-219
1.52233e-236
1.08989e-271
0
0
0
0
0
0
0
1.63143e-177
6.59709e-177
2.49814e-193
1.22132e-226
6.36768e-269
0
0
0
0
0
0
3.62267e-136
9.28787e-136
2.5645e-152
3.01815e-184
1.68954e-224
1.24009e-267
9.88131e-314
0
0
0
0
1.95312e-99
3.28405e-99
1.36835e-110
1.15951e-144
2.16335e-182
2.64899e-223
1.39296e-266
9.88131e-314
0
0
0
1.38192e-64
1.89846e-64
5.29902e-75
6.27818e-107
5.51282e-143
1.61318e-181
1.15646e-222
9.66245e-267
4.94066e-314
0
0
6.77978e-33
8.7224e-33
3.01361e-41
2.27522e-71
7.21698e-106
2.16266e-142
3.30581e-181
5.62405e-223
5.91526e-267
0
0
9.53743e-39
1.1145e-70
9.1694e-106
1.78226e-142
9.45031e-182
8.57777e-224
3.1061e-268
0
0
0
0
0
0
0
0
0
0
0
0
0
0
1.77864e-312
6.9268e-311
0
0
0
0
0
0
0
0
0
4.3264e-283
3.37079e-264
2.24249e-263
2.73515e-280
0
0
0
0
0
0
0
0
2.81122e-237
2.54709e-219
1.54224e-218
1.94444e-235
7.58735e-271
0
0
0
0
0
0
0
5.62285e-194
1.62708e-176
3.31146e-176
1.70171e-192
5.59286e-226
4.39277e-268
4.94066e-314
0
0
0
0
0
3.20715e-152
2.56492e-135
4.05873e-135
2.50031e-151
6.74514e-184
7.26056e-224
5.65502e-267
1.97626e-313
0
0
0
0
3.50126e-111
4.94806e-99
8.81571e-99
4.5412e-110
2.66839e-144
4.97975e-182
7.97015e-223
1.64654e-266
3.45846e-313
0
0
0
1.6836e-64
2.37472e-64
1.03069e-74
6.76579e-107
9.39976e-143
2.85128e-181
1.6933e-222
1.16533e-266
9.88131e-314
0
0
1.73525e-71
5.31838e-106
1.43154e-142
2.00384e-181
2.7307e-223
2.03749e-267
0
0
0
0
0
0
0
0
0
0
0
0
0
0
0
0
0
0
0
0
0
0
0
0
0
0
0
1.65512e-311
5.17287e-310
0
0
0
0
0
0
0
0
0
8.50373e-283
1.81901e-263
1.39285e-262
5.19919e-280
0
0
0
0
0
0
0
0
3.49169e-237
6.85182e-219
5.1057e-218
3.37151e-235
2.37116e-270
0
0
0
0
0
0
0
8.51792e-194
2.38074e-176
6.78236e-176
3.03967e-192
9.39358e-226
7.81767e-268
9.88131e-314
0
0
0
0
0
2.45517e-152
2.27367e-135
5.79382e-135
1.57482e-151
1.00429e-183
8.61283e-224
7.3432e-267
3.95253e-313
0
0
0
0
4.21897e-99
6.75333e-99
4.35621e-110
2.17452e-144
4.26669e-182
7.18454e-223
1.78814e-266
2.47033e-313
0
0
0
3.5086e-107
4.16722e-143
1.15533e-181
3.87631e-223
4.31287e-267
0
0
0
0
0
0
0
0
0
0
0
0
0
0
0
0
0
0
0
0
0
0
0
0
0
0
0
0
0
0
0
0
0
0
0
0
0
0
0
0
5.20251e-311
9.89416e-310
0
0
0
0
0
0
0
0
0
9.47894e-283
3.06074e-263
2.12023e-262
5.33543e-280
0
0
0
0
0
0
0
0
6.26514e-237
8.37291e-219
3.05129e-218
5.18983e-235
2.77801e-270
0
0
0
0
0
0
0
6.32911e-194
1.56978e-176
3.74131e-176
8.73996e-193
4.64958e-226
1.03232e-267
9.88131e-314
0
0
0
0
0
1.08101e-135
1.3106e-135
6.28719e-152
5.02879e-184
8.32001e-224
6.12938e-267
1.97626e-313
0
0
0
0
3.83453e-145
1.46969e-182
8.54848e-224
1.82053e-267
0
0
0
0
0
0
0
0
0
0
0
0
0
0
0
0
0
0
0
0
0
0
0
0
0
0
0
0
0
0
0
0
0
0
0
0
0
0
0
0
0
0
0
0
0
0
0
0
0
0
0
0
0
3.41399e-311
8.3339e-310
0
0
0
0
0
0
0
0
0
7.21358e-283
1.30823e-263
2.73042e-262
4.92652e-280
0
0
0
0
0
0
0
0
2.15386e-237
2.71333e-219
1.31227e-218
1.63335e-235
1.30356e-270
0
0
0
0
0
0
0
5.05025e-177
1.0665e-176
3.00431e-193
3.06727e-226
1.83063e-268
4.94066e-314
0
0
0
0
0
2.02201e-185
4.41055e-225
6.28198e-268
0
0
0
0
0
0
0
0
0
0
0
0
0
0
0
0
0
0
0
0
0
0
0
0
0
0
0
0
0
0
0
0
0
0
0
0
0
0
0
0
0
0
0
0
0
0
0
0
0
0
0
0
0
0
0
0
0
0
0
0
0
0
0
0
0
0
1.01778e-311
5.35419e-310
0
0
0
0
0
0
0
0
0
3.14283e-283
8.8543e-264
5.5783e-263
4.69862e-281
0
0
0
0
0
0
0
0
4.78573e-220
8.53649e-220
1.57851e-236
2.82773e-271
0
0
0
0
0
0
0
7.75365e-228
8.08558e-270
0
0
0
0
0
0
1
1
1
1
1
1
3.59834e-05
2.50584e-11
7.67139e-18
1.03135e-17
4.76567e-26
2.2403e-05
4.94821e-33
6.47388e-33
3.06345e-41
2.30435e-18
5.41219e-65
8.18581e-65
2.33755e-75
4.70844e-34
3.1022e-100
1.08074e-99
2.70719e-111
1.73962e-66
4.04055e-137
8.85144e-137
3.25544e-153
3.29912e-102
5.67954e-179
5.02648e-178
2.56216e-195
1.36882e-139
1.99992e-14
1.90384e-29
4.43317e-45
9.83556e-80
1.21521e-14
1.20029e-29
2.01608e-45
8.04616e-96
2.43992e-24
8.69299e-40
6.51685e-73
3.03412e-109
1.54162e-38
3.93946e-71
1.11759e-106
3.46276e-144
8.01806e-71
2.76481e-106
1.52328e-143
4.01637e-183
3.4745e-106
3.36613e-143
1.09931e-182
4.78115e-225
2.26413e-143
1.7436e-182
1.21923e-224
4.2043e-269
3.75247e-183
5.44097e-225
5.82798e-269
0
1.24947e-225
1.54362e-269
0
0
1.30981e-270
0
0
0
1
1
1
1
1
1
1
1
1
2.00936e-09
1
1
4.38562e-09
1.76161e-23
2.66486e-05
1.86655e-11
7.43307e-24
2.464e-38
0.5
0.5
2.08243e-18
1.28171e-26
3.10674e-39
4.17521e-71
1.76821e-07
2.2607e-07
6.27274e-34
3.52104e-42
2.49646e-72
1.08812e-106
2.84632e-23
3.47418e-23
2.51378e-66
1.02589e-76
1.85124e-108
1.59998e-144
1.94586e-39
1.71682e-39
1.02362e-101
6.8368e-113
1.05784e-146
2.22834e-184
7.76037e-74
7.40688e-74
4.92183e-139
2.94665e-155
4.63369e-187
2.94243e-227
3.11164e-110
3.06841e-110
1
6.49903e-76
4.21893e-111
1.15613e-152
1.89302e-194
3.6386e-238
1.90952e-42
1.48554e-76
3.57895e-112
2.51306e-154
1.55144e-196
1.43222e-27
2.14154e-43
9.02225e-78
9.20107e-114
9.11751e-156
8.6697e-20
6.21792e-36
5.30599e-52
8.94392e-87
2.20722e-123
1.6722e-115
8.83612e-176
9.2137e-132
5.96316e-177
3.53385e-147
1.38109e-187
6.31119e-184
2.70117e-226
1.11586e-225
2.47948e-270
1.71529e-269
0
0
0
0
0
0
0
0
0
1.74149e-05
8.56862e-10
6.3384e-19
6.84875e-25
2.0246e-34
1.92074e-40
4.1946e-50
2.98627e-74
8.48441e-85
2.24997e-111
1.21502e-121
3.75736e-150
1
1
1
1
1
1
1
1.69066e-06
1.42235e-06
7.43295e-22
6.01622e-22
7.71886e-38
7.16675e-38
8.72096e-54
9.00844e-54
1.48661e-88
1.73751e-88
1
1
1
1
8.93781e-07
1
1
1
0.00163912
4.77102e-08
2.98629e-21
0.000129665
9.57185e-05
6.04282e-08
5.46793e-17
2.97106e-23
1.78186e-36
7.8536e-18
6.1753e-18
6.36692e-23
3.24809e-33
1.80455e-38
3.04576e-52
9.52314e-76
4.58902e-103
3.66775e-113
9.30258e-140
2.72919e-49
1.74024e-83
1.20775e-119
2.20922e-34
3.62895e-34
1.99236e-38
1.19498e-50
3.05697e-50
1.7373e-54
1.54565e-85
1.86546e-84
6.70487e-105
1
3.1982e-108
3.0837e-146
2.59065e-186
7.63673e-230
3.83334e-24
1.94617e-39
1.13717e-72
6.25055e-109
3.99745e-147
1.30344e-187
3.32298e-07
3.55602e-22
1.09581e-37
1.00211e-69
3.00352e-104
5.02283e-141
2.62037e-07
2.70811e-22
7.90227e-38
4.85728e-70
5.01381e-105
5.52168e-142
1.7811e-10
1.2351e-25
3.32937e-41
6.40883e-75
9.70994e-112
4.58802e-150
2.53459e-24
1.01985e-39
7.4426e-73
7.00486e-109
6.8252e-147
6.20895e-187
3.12656e-39
4.40638e-72
1.53535e-107
1.14017e-145
1.40534e-185
3.25429e-228
4.44477e-72
8.93666e-108
5.6625e-145
9.15158e-185
1.43707e-227
2.30593e-272
3.81517e-145
1.13941e-184
3.10657e-227
7.28074e-272
0
4.1129e-185
1.39139e-227
7.28962e-272
0
0
4.30373e-228
2.01748e-272
0
0
0
4.54794e-273
0
0
0
0
1
1
1
1.80998e-09
1
2.87878e-08
7.1795e-24
6.2839e-40
7.85578e-74
1.3885e-109
1
4.83543e-08
4.56939e-23
8.98202e-39
5.40204e-71
7.11037e-106
1
2.21425e-08
5.27595e-24
4.25201e-40
3.92729e-74
5.56512e-110
1
5.518e-08
5.70804e-23
1.17168e-38
6.70248e-71
7.65265e-106
4.95366e-07
6.05523e-22
1.64775e-37
2.16053e-69
1.20953e-103
3.3546e-140
0.5
3.95268e-13
2.09695e-33
2.38133e-49
2.81206e-83
4.65017e-120
8.68723e-15
7.97916e-36
3.77931e-51
3.36914e-85
4.58192e-121
6.15949e-160
3.73204e-11
1.97428e-27
9.41918e-43
6.54896e-80
3.14369e-116
5.3615e-155
4.53147e-35
2.52019e-50
3.66014e-84
5.9733e-120
2.03105e-158
3.92973e-199
5.83654e-27
5.51027e-42
3.91591e-79
3.82716e-115
4.52258e-153
3.594e-193
3.45624e-50
1.34558e-83
2.31343e-119
1.87775e-157
2.51597e-198
5.94027e-242
5.53555e-42
1.90749e-78
4.12721e-114
6.59905e-152
6.10119e-192
1.79622e-234
5.82988e-84
3.01064e-119
2.69667e-157
7.93253e-198
4.96103e-241
5.99597e-287
1.203e-78
3.6496e-114
1.03949e-151
1.42064e-191
3.35052e-234
6.51208e-279
1.27963e-119
2.30321e-157
5.9626e-198
8.17489e-241
2.77393e-286
0
6.62734e-115
4.88793e-152
9.19554e-192
7.18585e-234
1.59277e-278
0
3.01344e-158
1.50934e-198
4.28725e-241
1.86856e-286
0
0
4.53699e-153
2.53266e-192
2.60343e-234
1.27679e-278
0
0
1.7797e-199
1.02291e-241
6.35752e-287
0
0
0
8.69517e-194
3.9009e-235
2.70132e-279
0
0
0
1
1
1
1
0.5
1
9.62479e-15
3.64979e-11
3.15774e-35
2.14043e-27
1.09974e-50
1.04419e-42
7.83406e-85
3.60481e-121
1.37116e-160
9.89338e-80
1.44604e-116
3.6825e-155
1
1
1
1
1
1
1
1
1
1
1
1
1
1
1
1
1
1
1
1
1
1
1
1
1
1
1
1
1
1
1
1
1
1
1
1
1
1
1
1
1
1
1
1
1
1
1
1
1
1
1
1
1
1
1
1
1
1
1
1
1
1
1
1
1
1
1
1
1
1
1
1
1
1
1
1
1
1
1
1
1
1
1
1
1
1
1
1
1
1
1
1
1
1
1
1
1
1
1
1
1
1
1
1
1
1
1
1
1
1
1
1
1
1
1
1
1
1
1
1
1
1
1
1
1
1
1
1
1
1
1
1
1
1
1
1
1
1
1
1
1
1
1
1
1
0.5
2.05297e-07
1.31907e-29
1
1
1
1
1
1
1
1
1
1
1
1
1
1
1
1
1
1
1
1
1
1
1
1
1
1
1
1
1
1
1
1
1
1
1
2.50048e-12
1.0781e-14
1
6.91135e-16
8.37331e-47
2.08592e-37
1.3415e-38
1.02443e-39
1
1
1
1
1
1
1
1
1
1
1
1
5.56151e-07
5.72107e-15
1.3996e-15
5.63481e-07
5.9271e-07
6.48497e-22
4.07967e-22
1
1
1
1
1
1
1
1
1
1
1
1
1
1
1
1
1
1
1
1
1
1
1
1
1
1
1
1
1
1
1
1
1
1
1
1
1
1
1
1
1
1
1
1
1
1
1
1
1
1
1
1
1
1
1
1
1
1
1
1
1
1
1
1
1
1
1
1
1
1
1
1
1
1
1
1
1
1
1
1
1
1
1
1
1
1
1
1
1
1
1
1
1
1
1
1
1
1
1
1
1
1
1
1
1
1
1
1
1
1
1
1
1
1
1
1
1
1
1
1
1
1
1
1
1
1
1
1
2.54495e-14
1
1
1
1
1
0.5
6.61631e-15
1
1
0.5
1
1
1
0.5
2.0643e-15
0.5
1.08606e-14
5.62868e-47
9.04977e-15
8.45952e-53
2.08558e-37
8.49442e-53
2.086e-37
8.53038e-53
2.08566e-37
8.43305e-53
6.09526e-44
1.31991e-29
5.3439e-44
1.31988e-29
5.1999e-44
1.72006e-29
5.19773e-44
1
1
1
1
1
1
1
1
1
1
1
1
1
1
2.03428e-31
1
1
1
1
1
1
1
1
1
1
1
1
1
9.25416e-33
1
1
1
1
1
1
1
2.1602e-32
0.000293921
1.41057e-14
2.82469e-15
1.00968e-28
8.64022e-44
4.5678e-75
1
1
1
1
1
1
1
1
1
1
1
1
1
1
1
1
1
1
1
1
1
1
1
1
1
1
1
1
1
1
1
1
1
1
1
1
1
1
1
1
1
1
1
1
1
1
1.36474e-15
1
1
1
1
1
1
1
1
1
1
1
1
1
3.5717e-15
0.5
1
1.85657e-47
1
1
1
0.5
0.5
1.18224e-61
1.13477e-80
1
1
1
1
1
3.90471e-15
2.19938e-46
0.5
1
1.13348e-60
1.42287e-14
3.63779e-16
2.70442e-61
3.18123e-75
0.5
2.16072e-60
4.4907e-78
1.21434e-94
5.04227e-95
1.0119e-108
0
3.34597e-49
2.30177e-49
3.94328e-75
4.00729e-76
3.2178e-76
1
1
1
1
1
1
0.5
1
1
1
1
1
1
0.5
2.17155e-15
1
1
1
1
1
1
4.92123e-62
1.35721e-47
8.66487e-63
1
0.5
0.5
8.09046e-48
8.17706e-61
3.85039e-62
0
5.77401e-16
0
8.46228e-18
7.85595e-18
9.61589e-33
1.02066e-32
1.06828e-28
2.26336e-43
2.06379e-43
1.05969e-28
1.06836e-28
2.39364e-43
2.05349e-43
1.56878e-109
4.59145e-75
6.70504e-109
2.25629e-75
5.58753e-109
1.98113e-75
4.016e-109
1
1
1
1
1
1
1
1
1
1
1
1
1
1
1
1
1
1
1
1
1
1
1
1
1
1
1
1
1
1
1
1
1
1
1
1
1
1
1
1
1
1
1
1
1
1
1
1
1
1
1
1
1
1
1
1
1
1
1
1
1
1
1
1
1
1
1
1
1
1
1
1
1
1
1
1
1
1
1
1
0.5
1
1
1
1
1
1
1
1
1
1
1
1
1
1
1
1
1
1
1
1
1
1
1
1
1
1
1
1
1
1
1
1
1
1
1
1
1
1
1
1
1
1
1
1
1
1
1
1
1
1
1
1
1
1
1
1
1
1
1
1
1
1
1
1
0.5
1
0.5
1
1
1
1
1
1
1
1
1
1
1
1
1
1
1
1
1
1
1
0.5
5.3056e-32
6.2786e-32
1
1
1
1
1
1
1
1
1
1
1
1
1
1
1
1
1
1
1
1
1
1
1
1
1
1
1
1
1
1
1
1
1
1
1
1
1
1
1
1
1
1
1
1
1
1
1
1
1
1
0.5
0.5
0.5
1
1
1
8.73883e-15
1
3.09283e-15
5.69422e-15
1
1.74914e-29
3.43307e-15
6.13353e-32
3.4248e-15
7.38728e-48
0.5
1.74177e-47
3.43939e-15
1
1
1
1
1
1
1
1
1
1
3.14246e-31
1
1
3.21867e-15
1
1.50056e-32
1.41356e-32
3.59119e-32
3.1385e-79
1.54277e-80
8.95235e-81
1
1
1
1
1
1
1
1
1
1
0.5
1
1
1
1
0.5
0.5
9.91308e-29
1
0.5
2.53902e-14
0.5
7.59724e-15
1.80564e-14
1.82581e-29
0.5
4.90073e-15
1.69767e-14
1.13693e-14
1
7.51211e-15
7.87889e-15
1
0.5
4.41387e-29
4.29722e-15
1.24303e-14
6.44035e-32
3.05254e-60
0.5
1.00587e-14
2.06667e-60
7.8151e-29
9.22442e-60
3.78547e-29
1.02716e-60
7.90351e-29
1.39963e-60
5.2195e-29
4.00023e-43
1.08652e-75
5.74006e-44
3.38052e-75
1.33313e-43
1.05218e-75
4.00275e-43
1
3.05973e-31
2.42318e-15
4.23018e-15
5.04379e-60
2.21146e-15
1.75533e-60
2.12323e-61
4.97402e-48
4.61667e-80
1.33359e-93
1.07101e-93
5.70843e-94
2.76499e-94
2.37407e-94
1.47522e-109
1.47313e-108
2.2826e-109
3.10333e-109
3.94192e-75
3.02097e-109
3.94344e-75
6.12989e-109
3.94237e-75
6.08137e-109
9.49281e-76
8.66914e-44
7.30272e-76
8.64078e-44
6.3419e-76
1.73385e-43
7.25565e-76
3.22993e-81
0
7.9471e-81
0
3.21927e-81
0
7.92993e-81
1
1
1
1
1
1
1
1
1
1
1
1
1
1
1
1
1
1
1
1
1
1
1
1
1
1
1
1
1
1
1
1
1
1
1
1
1
1
1
1
1
1
1
2.84265e-14
1
1
1
1
1
1
1
1
1
1
1
1
1
1
1
1
1
1
1
1
1
1
1
1
1
1
1
1
1
1
1
1
1
1
1
1
1
1
1
1
1
1
1
1
1
1
1
1
1
1
1
1
1
1
1
1
1
1
1
1
1
1
1
1
1
1
1
1
1
1
1
1
1
1
1
1
1
1
1
1
1
1
1
1
1
1
1
1
1
1
1
1
1
1
1
1
1
1
1
1
1
1
1
1
1
1
1
1
1
1
1
1
1
1
1
1
1
1
1
1
1
1
1
1
1
1
1
1
1
1
1
1
1
1
1
1
1
1
1
1
1
1
1
1
1
1
1
1
1
1
1
1
1
1
1
1
1
1
1
1
1
1
1
1
1
1
1
1
1
1
1
1
1
1
1
1
1
1
1
1
1
1
1
1
1
1
1
1
1
1
1
1
1
1
1
1
1
1
1
1
1
1
1
1
1
1
1
1
1
1
1
1
1
1
1
1
1
1
1
1
1
1
1
1
1
1
1
1
1
1
1
1
1
1
1
1
1
1
1
1
1
1
1
1
1
1
1
1
1
1
1
1
1
1
1
1
1
1
1
1
1
1
1
1
1
1
1
1
1
1
1
1
1
1
1
1
1
1
1
1
1
1
1
1
1
1
1
1
1
1
1
1
1
1
1
1
1
1
1
1
1
1
1
1
1
1
1
1
1
1
1
1
1
1
1
1
1
1
1
1
1
1
1
1
1
1
1
1
1
1
1
1
1
1
1
1
1
1
1
1
1
1
1
1
1
1
1
1
1
1
1
1
1
1
1
1
1
1
1
1
1
1
1
1
1
1
1
1
1
1
1
1
1
1
1
1
1
1
1
1
1
1
1
1
1
1
1
1
1
1
1
1
1
1
1
1
1
1
1
1
1
1
1
1
1
1
1
1
1
1
1
1
1
1
1
1
1
1
1
1
1
1
1
1
1
1
1
1
1
1
1
1
1
1
1
1
1
1
1
1
1
1
1
1
1
1
1
1
1
1
1
1
1
1
1
1
1
1
1
1
1
1
1
1
1
1
1
1
1
1
1
1
1
1
1
1
1
1
1
1
1
1
1
1
1
1
1
1
1
1
1
1
1
1
1
1
1
1
1
1
1
1
1
1
1
1
1
1
1
1
1
1
1
1
1
1
1
1
1
1
1
1
1
1
1
1
1
1
1
1
1
1
1
1
1
1
1
1
1
1
1
1
1
1
1
1
1
1
1
1
1
1
1
1
1
1
1
1
1
1
1
1
1
1
1
1
1
1
1
1
1
1
1
1
1
1
1
1
1
1
1
1
1
1
1
1
1
1
1
1
1
1
1
1
1
1
1
1
1
1
1
1
1
1
1
1
1
1
1
1
1
1
1
1
1
1
1
1
1
1
1
1
1
1
1
1
1
1
1
1
1
1
1
1
1
1
1
1
1
1
1
1
1
1
1
1
1
1
1
1
1
1
1
1
1
1
1
1
1
1
1
1
1
1
1
1
1
1
1
1
1
1
1
1
1
1
1
1
1
1
1
1
1
1
1
1
1
1
1
1
1
1
1
1
1
1
1
1
1
1
1
1
1
1
1
1
1
1
1
1
1
1
1
1
1
1
1
1
1
1
1
1
1
1
1
1
1
1
1
1
1
1
1
1
1
1
1
1
1
1
1
1
1
1
1
1
1
1
1
1
1
1
1
1
1
1
1
1
1
1
1
1
1
1
1
1
1
1
1
1
1
1
1
1
1
1
1
1
1
1
1
1
1
1
1
1
1
1
1
1
1
1
1
1
1
1
1
1
1
1
1
1
1
1
1
1
1
1
1
1
1
1
1
1
1
1
1
1
1
1
1
1
1
1
1
1
1
1
1
1
1
1
1
1
1
1
1
1
1
1
1
1
1
1
1
1
1
1
1
1
1
1
1
1
1
1
1
1
1
1
1
1
1
1
1
1
1
1
1
1
1
1
1
1
1
1
1
1
1
1
1
1
1
1
1
1
1
1
1
1
1
1
1
1
1
1
1
1
1
1
1
1
1
1
1
1
1
1
1
1
1
1
1
1
1
1
1
1
1
1
1
1
1
1
1
1
1
1
1
1
1
1
1
1
1
1
1
1
1
1
1
1
1
1
1
1
1
1
1
1
1
1
1
1
1
1
1
1
1
1
1
1
1
1
1
1
1
1
1
1
1
1
1
1
1
1
1
1
1
1
1
1
1
1
1
1
1
1
1
1
1
1
1
1
1
1
1
1
1
1
1
1
1
1
1
1
1
1
1
1
1
1
1
1
1
1
1
1
1
1
1
1
1
1
1
1
1
1
1
1
1
1
1
1
1
1
1
1
1
1
1
1
1
1
1
1
1
1
1
1
1
1
1
1
1
1
1
1
1
1
1
1
1
1
1
1
1
1
1
1
1
1
1
1
1
1
1
1
1
1
1
1
1
1
1
1
1
1
1
1
1
1
1
1
1
1
1
1
1
1
1
1
1
1
1
1
1
1
1
1
1
1
1
1
1
1
1
1
1
1
1
1
1
1
1
1
1
1
1
1
1
1
1
1
1
1
1
1
1
1
1
1
1
1
1
1
1
1
1
1
1
1
1
1
1
1
1
1
1
1
1
1
1
1
1
1
1
1
1
1
1
1
1
1
1
1
1
1
1
1
1
1
1
1
1
1
1
1
1
1
1
1
1
1
1
1
1
1
1
1
1
1
1
1
1
1
1
1
1
1
1
1
1
1
1
1
1
1
1
1
1
1
1
1
1
1
1
1
1
1
1
1
1
1
1
1
1
1
1
1
1
1
1
1
1
1
1
1
1
1
1
1
1
1
1
1
1
1
1
1
1
1
1
1
1
1
1
1
1
1
1
1
1
1
1
1
1
1
1
1
1
1
1
1
1
1
1
1
1
1
1
1
1
1
1
1
1
1
1
1
1
1
1
1
1
1
1
1
1
1
1
1
1
1
1
1
1
1
1
1
1
1
1
1
1
1
1
1
1
1
1
1
1
1
1
1
1
1
1
1
1
1
1
1
1
1
1
1
1
1
1
1
1
1
1
1
1
1
1
1
1
1
1
1
1
1
1
1
1
1
1
1
1
1
1
1
1
1
1
1
1
1
1
1
1
1
1
1
1
1
1
1
1
1
1
1
1
1
1
1
1
1
1
1
1
1
1
1
1
1
1
1
1
1
1
1
1
1
1
1
1
1
1
1
1
1
1
1
1
1
1
1
1
1
1
1
1
1
1
1
1
1
1
1
1
1
1
1
1
1
1
1
1
1
1
1
1
1
1
1
1
1
1
1
1
1
1
1
1
1
1
1
1
1
1
1
1
1
1
1
1
1
1
1
1
1
1
1
1
1
1
1
1
1
1
1
1
1
1
1
1
1
1
1
1
1
1
1
1
1
1
1
1
1
1
1
1
1
1
1
1
1
1
1
1
1
1
1
1
1
1
1
1
1
1
1
1
1
1
1
1
1
1
1
1
1
1
1
1
1
1
1
1
1
1
1
1
1
1
1
1
1
1
1
1
1
1
1
1
1
1
1
1
1
1
1
1
1
1
1
1
1
1
1
1
1
1
1
1
1
1
1
1
1
1
1
1
1
1
1
1
1
1
1
1
1
1
1
1
1
1
1
1
1
1
1
1
1
1
1
1
1
1
1
1
1
1
1
1
1
1
1
1
1
1
1
1
1
1
1
1
1
1
1
1
1
1
1
1
1
1
1
1
1
1
1
1
1
1
1
1
1
1
1
1
1
1
1
1
1
1
1
1
1
1
1
1
1
1
1
1
1
1
1
1
1
1
1
1
1
1
1
1
1
1
1
1
1
1
1
1
1
1
1
1
1
1
1
1
1
1
1
1
1
1
1
1
1
1
1
1
1
1
1
1
1
1
1
1
1
1
1
1
1
1
1
1
1
1
1
1
1
1
1
1
1
1
1
1
1
1
1
1
1
1
1
1
1
1
1
1
1
1
1
1
1
1
1
1
1
1
1
1
1
1
1
1
1
1
1
1
1
1
1
1
1
1
1
1
1
1
1
1
1
1
1
1
1
1
1
1
1
1
1
1
1
1
1
1
1
1
1
1
1
1
1
1
1
1
1
1
1
1
1
1
1
1
1
1
1
1
1
1
1
1
1
1
1
1
1
1
1
1
1
1
1
1
1
1
1
1
1
1
1
1
1
1
1
1
1
1
1
1
1
1
1
1
1
1
1
1
1
1
1
1
1
1
1
1
1
1
1
1
1
1
1
1
1
1
1
1
1
1
1
1
1
1
1
1
1
1
1
1
1
1
1
1
1
1
1
1
1
1
1
1
1
1
1
1
1
1
1
1
1
1
1
1
1
1
1
1
1
1
1
1
1
1
1
1
1
1
1
1
1
1
1
1
1
1
1
1
1
1
1
1
1
1
1
1
1
1
1
1
1
1
1
1
1
1
1
1
1
1
1
1
0.5
0.5
0.5
0.5
0.5
0.5
0.5
0.5
0.5
0.5
0.5
0.5
0.5
0.5
1
1
1
1
1
1
1
1
1
1
1
1
1
1
1
1
1
1
1
1
1
1
1
1
1
1
1
1
1
1
1
1
1
1
1
0.5
0.5
0.5
0.5
0.5
0.5
0.5
1
1
1
1
1
1
1
1
1
1
1
1
1
1
1
1
1
1
1
1
1
1
1
1
1
1
1
1
1
1
1
1
1
1
1
1
1
1
1
1
1
1
1
1
1
1
1
1
1
1
1
1
1
1
1
1
1
1
1
1
1
1
1
1
1
1
1
1
1
1
1
1
1
1
1
1
1
1
1
1
1
1
1
1
1
1
1
1
1
1
1
)
;

boundaryField
{
    ground
    {
        type            zeroGradient;
    }
    outlet
    {
        type            zeroGradient;
    }
    wall
    {
        type            zeroGradient;
    }
    wall2
    {
        type            zeroGradient;
    }
    wall3
    {
        type            zeroGradient;
    }
    internalPatch
    {
        type            internal;
    }
    procBoundary1to0
    {
        type            processor;
        value           nonuniform List<scalar> 
235
(
3.25739e-106
4.65445e-119
4.65445e-119
8.51706e-71
8.51706e-71
1.21765e-38
4.1863e-72
3.27486e-108
4.83954e-144
7.90263e-175
5.03139e-215
1.12202e-184
4.45286e-147
4.45286e-147
1.23641e-157
1.49158e-119
1.67038e-83
2.06436e-49
6.49558e-34
0.00041557
0.5
0.5
0.5
0.5
0.5
1
1
1
1
1
1
1
1
1
1
1
1
1
1
1
1
1
1
1
1
1
1
1
1
1
1
1
1
1
1
1
1
1
1
1
1
1
1
1
1
1
1
1
1
0.5
9.43933e-15
8.53562e-30
3.64029e-44
6.58285e-86
5.54712e-86
5.54712e-86
1.67189e-122
1.2193e-175
5.13051e-176
1.22956e-183
1.34902e-184
8.74581e-191
7.10597e-191
4.51206e-172
4.20434e-119
8.18811e-118
8.09569e-118
1.16462e-118
6.14052e-118
1.1567e-70
5.994e-38
5.994e-38
5.99384e-38
3.40363e-23
3.40363e-23
1.21765e-38
4.1863e-72
3.27486e-108
6.77401e-07
0.5
0.5
0.5
0.5
1
1
1
1
1
1
1
1
1
1
1
1
1
1
1
1
1
1
1
1
1
1
1
1
1
1
1
1
1
1
1
1
1
1
1
1
1
1
1
1
1
3.80473e-15
4.14852e-30
1.58725e-44
3.45169e-86
7.82122e-86
7.82122e-86
1.23593e-105
5.6287e-143
5.55008e-143
3.03368e-171
2.80491e-171
4.73691e-172
1.50042e-118
6.18577e-118
1.16146e-70
5.99369e-38
5.99369e-38
5.99339e-38
5.99339e-38
1.93714e-38
1.59384e-23
4.73873e-71
4.73873e-71
2.62458e-107
1.16146e-70
5.99369e-38
1.84989e-07
1
1
1
1
1
1
1
1
1
1
1
1
1
1
1
1
1
1
1
1
1
1
1
1
1
1
1
1
1
1
1
1
1
1
1
1
1
1
1
1
1
1
1
1
1
1
1
1
1
1
1
1
1
1
1
1
1
1
1
1
1
1
1
1
)
;
    }
    procBoundary1to2
    {
        type            processor;
        value           nonuniform List<scalar> 
657
(
1.63199e-148
4.79823e-111
5.10522e-51
6.81084e-85
6.81084e-85
1.84326e-158
6.19538e-189
7.09511e-231
4.11145e-188
2.6971e-148
4.17967e-111
3.97658e-76
6.33638e-36
6.33638e-36
5.10522e-51
6.81084e-85
1.34791e-68
1.34791e-68
1.13973e-138
6.85917e-178
3.06515e-199
4.41046e-232
1.11042e-275
0
5.04135e-275
1.24598e-230
4.14358e-188
2.35157e-148
4.33378e-112
8.91915e-77
2.11797e-43
6.99027e-15
6.99027e-15
3.98981e-07
4.86214e-22
3.62766e-37
2.49523e-24
2.35745e-40
2.35745e-40
1.271e-108
5.21617e-150
3.59263e-149
4.32913e-108
2.94615e-40
2.94615e-40
2.00306e-24
6.0111e-09
1
1
1
1
1
1
1
1
1
1
1
1
1
1
1
1
1
1
1
1
1
1
1
1
1
1
1
1
1
1
1
1
1
1
1
1
1
1
1
1
1
1
1
1
1
1
1
1
1
1
1
1
1
1
1
1
1
1
1
1
1
1
1
1
1
1
1
1
1
1
1
1
1
1
1
1
1
1
1
1
1
1
1
1
1
1
1
1
1
1
1
1
1
1
1
1
1
1
1
3.10907e-15
1.24632e-30
1.36694e-62
3.31579e-110
4.36239e-110
1.39866e-62
5.11101e-48
5.11101e-48
9.8493e-48
9.03511e-48
5.44877e-48
1.97715e-62
6.79462e-63
2.8059e-95
2.62786e-95
4.6314e-110
1.41658e-110
2.70588e-147
2.50758e-162
1.5019e-151
4.39535e-146
1.09453e-108
1.677e-108
1.677e-108
6.33378e-144
1.30078e-181
4.28733e-221
1.27529e-223
3.29947e-223
1.08104e-222
2.95287e-221
2.32604e-185
1.15338e-147
1.54902e-110
1.54902e-110
1.53829e-110
4.86055e-111
4.86055e-111
1.04332e-148
1.94458e-189
8.52362e-233
2.76689e-232
2.64487e-192
2.64487e-192
3.93187e-233
2.34827e-276
0
0
0
0
0
0
0
7.48144e-275
1.603e-230
2.07499e-188
1.2743e-149
3.88903e-113
1.40047e-77
6.39626e-44
3.80313e-29
1.12229e-13
6.99027e-15
3.98981e-07
3.98981e-07
1
1
1
1
1
9.53694e-09
1
1
1
1
1
1
1
1
1
1
1
1
1
1
1
1
1
1
1
1
1
1
1
1
1
1
1
1
1
1
1
1
1
1
1
1
1
1
1
1
1
1
1
1
1
1
1
1
1
1
1
1
1
1
1
1
1
1
1
1
1
1
1
1
1
1
1
1
1
1
1
1
1
1
1
1
1
1
1
1
1
1
1
1
1
1
1
1
1
1
1
1
1
1
1
1
1
1
1
1
1
1
1
1
1
1
6.645e-15
1.24587e-30
1.27824e-62
8.12079e-30
6.20313e-15
6.20313e-15
6.43381e-15
6.61376e-15
6.31084e-15
1.72194e-15
2.52494e-30
5.0467e-61
5.48022e-61
1.97875e-79
1.80008e-79
6.88821e-108
5.53323e-108
4.81221e-115
2.95976e-110
3.14675e-75
3.14675e-75
3.14675e-75
1.6772e-108
1.17182e-143
1.83823e-181
4.59722e-184
3.62913e-187
6.69129e-187
3.27911e-186
1.3098e-148
1.30131e-110
5.28349e-76
5.27138e-76
5.27138e-76
5.27191e-76
5.27191e-76
5.28376e-76
5.1247e-76
2.96891e-111
1.31117e-148
4.83527e-189
2.06813e-151
2.06813e-151
5.00383e-190
3.7658e-231
1.94307e-275
0
0
3.88903e-113
1.40047e-77
6.39626e-44
3.80313e-29
3.80313e-29
1.12229e-13
1.26089e-13
1.26089e-13
1
3.98981e-07
3.98981e-07
1
1
1
1
1
1
1
1
1
1
1
1
1
1
1
1
1
0.5
0.5
0.5
0.5
7.91564e-15
5.46527e-15
2.56597e-15
8.32453e-48
3.62676e-48
1.25254e-75
3.7785e-75
8.50203e-81
2.83503e-81
3.14675e-75
3.14675e-75
1.03398e-42
1.03398e-42
6.57146e-43
2.87599e-75
1.78015e-109
9.36331e-146
3.80313e-29
5.49069e-34
1.15336e-14
0.5
1
1
1
1
1
1
1
1
1
1
1
1
1
1
0.5
3.34591e-15
4.27038e-43
7.11479e-49
1
5.28349e-76
5.27138e-76
1
1
1
1
1
1
1
1
1
1
1
1
1
1
1
1
1
1
1
1
1
1
1
1
1
1
1
1
1
1
1
1
1
1
1
1
1
1
1
1
1
1
1
1
1
1
1
1
1
1
1
1
1
1
1
1
1
1
1
1
1
1
1
1
1
1
1
1
1
1
1
1
1
1
1
1
1
1
1
1
1
1
1
1
1
1
1
1
1
1
1
1
1
1
1
1
1
1
1
1
1
1
1
1
1
1
1
1
1
1
1
1
1
1
1
1
1
1
1
1
1
1
1
1
1
1
1
1
1
1
1
1
1
1
1
1
1
1
1
1
1
1
1
1
1
1
1
1
1
1
1
1
1
1
1
1
1
1
1
1
1
1
1
1
1
1
1
1
1
1
1
1
1
1
1
1
1
1
1
1
1
1
1
1
1
1
1
1
1
1
1
1
1
1
1
1
1
1
1
1
1
1
1
1
1
1
1
1
1
1
1
1
)
;
    }
    procBoundary1to3
    {
        type            processor;
        value           nonuniform List<scalar> 
568
(
5.11118e-113
2.96951e-86
1.48044e-51
2.97047e-77
1.21994e-43
1.85624e-28
1.23305e-20
8.51226e-17
1.46649e-21
1
1
1
1
1
1
1
1
1
1
1
1
1
1
1
1
1
1
1
1
1
1
1
1
1
1
1
1
1
1
1
1
1
1
1
1
1
1
1
1
1
1
1
1
1
1
1
1
1
1
1
1
1
1
1
1
1
1
1
1
1
1
1
1
1
1
1
1
1
1
1
1
7.61728e-05
1.26939e-17
5.95139e-35
1.90605e-68
2.39312e-104
2.39312e-104
3.05454e-177
1.44363e-219
1.70256e-264
1.41738e-263
7.71494e-280
0
0
0
0
0
0
0
0
0
0
0
0
0
1.72486e-272
2.21151e-229
2.4547e-188
8.12393e-152
2.06998e-140
2.87605e-120
5.89338e-123
5.79379e-152
6.53267e-83
2.13933e-48
1.39447e-32
6.60285e-36
8.10211e-37
1.06824e-41
5.14916e-26
0.000115829
1
1
1
1
1
1
1
1
1
1
1
1
1
1
1
1
1
1
1
1
1
1
1
1
1
1
1
1
1
1
1
1
1
1
1
1
1
1
1
1
1
1
1
1
1
1
1
1
1
1
1
1
1
1
1
1
1
1
1
1
1
1
1
1
1
1
1
1
1
1
1
1
1
1
1
1
0.000183448
1.00492e-16
2.31806e-34
1.19393e-67
2.22835e-103
2.22835e-103
3.22045e-176
9.05255e-218
2.01312e-233
3.82037e-275
0
0
0
0
0
0
0
0
0
1.53982e-271
1.83333e-227
2.56976e-186
6.32327e-148
2.87147e-112
2.61169e-103
1.09477e-52
1.94285e-75
7.262e-110
8.17132e-74
1.73154e-40
4.5587e-12
4.5587e-12
0.000115829
0.000115829
0.000115829
1
1
1
1
1
1
1
1
1
1
1
1
1
1
1
1
1
1
1
1
1
1
1
1
1
1
1
1
1
1
1
1
1
1
1
1
1
1
1
1
1
1
1
1
1
1
1
1
1
1
1
1
1
1
1
1
1
1
1
1
1
1
1
1
1
1
1
1
1
1
7.28061e-13
7.93578e-29
1.52172e-44
3.41602e-79
5.86218e-115
5.86218e-115
3.5127e-190
4.61006e-230
3.14595e-273
0
0
0
0