/*--------------------------------*- C++ -*----------------------------------*\
  =========                 |
  \\      /  F ield         | OpenFOAM: The Open Source CFD Toolbox
   \\    /   O peration     | Website:  https://openfoam.org
    \\  /    A nd           | Version:  9
     \\/     M anipulation  |
\*---------------------------------------------------------------------------*/
FoamFile
{
    format      ascii;
    class       volVectorField;
    location    "0.00025";
    object      rhoU;
}
// * * * * * * * * * * * * * * * * * * * * * * * * * * * * * * * * * * * * * //

dimensions      [1 -2 -1 0 0 0 0];

internalField   nonuniform List<vector> 
4789
(
(-5.99715e-11 5.217e-11 4.17562e-10)
(-5.84212e-11 -4.88191e-11 3.52706e-10)
(-1.88602e-10 -2.41795e-12 1.15947e-09)
(-4.39774e-13 -3.19236e-13 2.90229e-12)
(-1.34299e-12 -5.89314e-15 1.16069e-11)
(-1.13741e-15 -6.72085e-16 1.81032e-14)
(-4.91922e-15 1.82023e-18 7.87061e-14)
(-8.07681e-22 0 9.18634e-19)
(-4.59303e-21 4.81447e-21 5.51267e-18)
(-1.10656e-24 0 0)
(-5.07238e-24 2.31251e-23 0)
(-3.45055e-13 3.19935e-13 3.2244e-12)
(-8.84231e-16 6.57858e-16 1.72823e-14)
(0 3.23975e-23 1.48313e-19)
(0 9.7971e-26 0)
(-4.87325e-12 7.74661e-12 2.66595e-11)
(-1.76502e-14 3.13335e-14 1.57869e-13)
(0 0 2.11907e-16)
(0 0 8.29326e-23)
(0 0 0)
(-5.52219e-17 1.26319e-16 4.07573e-15)
(5.17937e-18 8.84231e-16 5.9638e-15)
(2.88606e-18 0 3.4295e-20)
(0 0 1.47813e-19)
(0 0 1.25176e-18)
(3.06739e-24 0 1.8164e-25)
(0 0 0)
(0 0 0)
(1.74605e-27 0 0)
(-5.44336e-12 3.81051e-11 1.80641e-10)
(6.17237e-12 6.96434e-11 2.56765e-10)
(-2.32874e-14 1.96222e-13 9.91866e-13)
(2.15372e-14 3.44976e-13 1.21837e-12)
(1.81266e-16 1.08817e-14 1.84762e-14)
(4.13189e-14 1.63909e-12 1.91952e-12)
(-9.58139e-15 -6.05661e-18 -6.25524e-17)
(0 0 0)
(-1.08268e-14 0 -1.11266e-18)
(0 0 0)
(-1.08103e-14 0 1.19354e-18)
(0 0 0)
(-1.04781e-14 0 -1.29987e-18)
(0 0 0)
(3.90948e-17 -5.12476e-18 2.07506e-19)
(-5.86677e-18 -1.12534e-14 0)
(0 0 1.67335e-23)
(0 0 0)
(0 0 0)
(0 0 6.25522e-17)
(0 0 0)
(0 0 0)
(0 0 0)
(0 0 0)
(0 0 0)
(0 0 0)
(1.12972e-13 2.15775e-14 1.6657e-13)
(1.52518e-17 0 5.77833e-16)
(1.06336e-20 0 -6.23962e-18)
(5.31074e-23 0 3.1125e-30)
(1.27418e-25 0 0)
(5.46403e-16 0 8.14134e-16)
(0 0 4.19531e-20)
(0 0 2.39513e-20)
(0 0 7.92156e-33)
(0 0 0)
(8.83166e-16 3.95378e-17 6.69116e-16)
(9.14369e-19 0 0)
(7.93683e-22 0 0)
(0 0 0)
(0 0 0)
(0 0 0)
(0 0 0)
(0 0 0)
(0 0 0)
(0 0 0)
(0 0 0)
(0 0 0)
(0 0 0)
(0 0 0)
(0 0 0)
(0 0 0)
(0 0 0)
(0 0 0)
(9.19108e-14 1.15529e-13 1.95053e-13)
(8.83948e-18 0 1.12555e-14)
(0 -3.1823e-18 -1.62886e-17)
(0 0 -1.04379e-14)
(0 0 0)
(0 0 2.35038e-25)
(0 0 0)
(0 0 0)
(0 0 0)
(7.31411e-17 9.55923e-16 -2.7858e-15)
(3.58309e-12 5.95422e-12 1.0569e-11)
(1.63518e-14 2.95356e-14 6.43622e-14)
(1.78349e-16 1.59684e-18 1.27673e-16)
(3.20085e-17 0 2.45759e-17)
(2.31811e-18 0 0)
(6.91436e-20 0 1.9276e-23)
(8.17836e-21 0 0)
(8.57123e-23 0 0)
(2.20246e-23 0 0)
(3.22957e-14 7.65653e-14 6.82541e-14)
(-2.52375e-19 1.03786e-15 2.60824e-17)
(2.43247e-15 -3.66594e-15 -1.25444e-15)
(9.86695e-17 -3.01877e-19 -4.81139e-16)
(1.12616e-21 0 4.93993e-16)
(0 0 -7.85684e-17)
(-4.06077e-18 -4.8243e-16 7.19188e-16)
(1.11572e-15 4.09217e-16 6.28391e-16)
(0 6.38823e-16 7.32348e-16)
(0 5.01932e-16 6.27343e-16)
(0 0 -1.71561e-15)
(5.96974e-16 -7.32726e-15 -3.25788e-15)
(4.23851e-17 0 -2.14522e-17)
(0 0 -3.66925e-18)
(0 0 1.12493e-17)
(0 0 2.37222e-15)
(0 0 0)
(0 0 -3.72528e-15)
(0 0 -2.54251e-19)
(2.0981e-13 3.14948e-14 1.75229e-13)
(2.99608e-12 2.67788e-12 -2.56379e-13)
(0 2.08744e-15 1.02016e-17)
(0 0 6.29658e-15)
(1.24684e-13 2.90226e-13 -1.40328e-14)
(6.77068e-14 2.13289e-13 -4.5184e-15)
(0 5.42544e-15 -2.74411e-14)
(4.58434e-18 3.0311e-15 3.08124e-14)
(7.53958e-14 2.50412e-13 -6.76582e-15)
(3.00071e-17 5.39695e-15 4.53654e-15)
(1.19429e-13 2.86657e-13 -7.34276e-15)
(0 0 1.47763e-14)
(0 0 -1.88003e-14)
(0 4.5909e-19 -5.05282e-15)
(0 0 6.56762e-19)
(1.37322e-24 6.56097e-16 -1.16704e-14)
(0 0 -8.29776e-17)
(-5.08892e-18 1.23657e-14 -7.01893e-15)
(5.53667e-27 0 -8.56659e-19)
(0 0 0)
(0 0 0)
(0 2.24686e-18 1.26364e-18)
(0 6.93179e-19 0)
(0 6.47112e-20 0)
(0 3.8385e-17 2.25036e-17)
(0 0 -8.18044e-18)
(0 0 0)
(0 0 0)
(0 0 3.90696e-17)
(0 0 -5.97062e-18)
(0 0 0)
(2.57348e-21 0 2.54271e-16)
(0 0 -4.02165e-18)
(1.73382e-15 1.51104e-20 -1.08991e-14)
(0 0 -3.07911e-20)
(-1.28049e-15 -3.48418e-16 -9.67178e-15)
(5.02945e-19 0 -9.95689e-20)
(0 0 0)
(0 0 0)
(0 0 3.65067e-19)
(0 0 0)
(0 0 0)
(0 0 -1.10977e-18)
(-7.14426e-17 0 -3.45819e-16)
(0 0 0)
(0 0 0)
(0 0 -3.25662e-15)
(0 0 0)
(0 0 2.23333e-15)
(0 0 -3.30015e-19)
(6.09496e-12 1.61522e-12 1.23125e-11)
(3.0803e-14 8.20928e-15 8.30748e-14)
(0 0 -1.2931e-16)
(0 0 2.55912e-28)
(0 0 0)
(-7.77951e-11 1.39019e-10 1.00817e-09)
(6.21811e-11 2.60702e-10 2.11566e-09)
(1.23592e-10 6.23637e-11 7.21603e-10)
(-8.3653e-13 1.43631e-12 1.1806e-11)
(5.37461e-13 2.61903e-12 2.52954e-11)
(7.84172e-13 3.60456e-13 4.58373e-12)
(-2.82735e-15 6.37791e-15 1.09912e-13)
(1.80524e-15 1.40673e-14 2.22142e-13)
(2.32964e-15 6.31594e-16 2.26421e-14)
(0 0 2.01029e-16)
(0 0 5.93518e-16)
(8.37449e-25 0 1.62122e-26)
(0 0 0)
(0 0 0)
(1.94209e-27 0 0)
(8.37802e-10 2.092e-10 1.19531e-09)
(1.60837e-11 3.30171e-12 1.73911e-11)
(1.96428e-07 1.06519e-07 -2.64977e-08)
(1.05192e-10 6.45602e-11 -1.55958e-11)
(6.67419e-06 1.0544e-06 2.69649e-06)
(1.33357e-09 2.8189e-10 1.00765e-09)
(1.28876e-14 2.97044e-14 1.10097e-14)
(0 0 1.71208e-15)
(8.05119e-10 4.91133e-10 -2.3089e-11)
(0 0 5.02716e-15)
(9.85286e-15 2.1373e-14 4.11734e-15)
(0 -3.79878e-16 -1.43796e-15)
(0 0 -7.27408e-15)
(0 0 -2.91612e-14)
(0 0 -4.66821e-17)
(5.05275e-16 6.52167e-15 -4.02961e-14)
(0 0 -1.01098e-14)
(0 0 -4.45729e-15)
(0 0 -4.09938e-15)
(2.54893e-12 4.30151e-12 -5.19204e-13)
(1.97057e-14 7.01472e-14 -9.77536e-15)
(2.32426e-14 8.09934e-14 9.81958e-15)
(2.37934e-12 4.13689e-12 -3.35785e-13)
(1.846e-11 3.03773e-11 -1.15402e-12)
(1.69589e-13 5.30666e-13 1.73507e-14)
(1.74136e-13 5.21429e-13 -2.52483e-14)
(1.84314e-11 3.0593e-11 -4.67147e-13)
(5.05275e-16 6.5436e-15 -2.35437e-16)
(5.05275e-16 6.4981e-15 2.63337e-14)
(1.83231e-13 5.76878e-13 -2.47989e-15)
(2.1886e-11 3.68013e-11 2.04758e-13)
(1.52455e-13 2.64452e-13 6.58598e-14)
(0 4.68725e-21 0)
(0 4.08792e-16 1.90444e-17)
(0 0 -1.58174e-15)
(0 0 -1.43252e-14)
(0 2.55444e-16 9.10388e-19)
(0 3.01412e-16 4.77581e-17)
(0 0 1.28435e-14)
(0 5.09518e-19 0)
(0 0 5.26979e-16)
(0 -1.24791e-15 -2.17314e-17)
(0 -3.81835e-16 1.21103e-15)
(0 1.26255e-16 2.93773e-17)
(0 0 -2.04726e-14)
(0 -3.59133e-16 -2.08504e-16)
(0 0 6.54366e-15)
(0 0 -1.83773e-14)
(0 0 1.76769e-14)
(3.79422e-09 2.76033e-09 -5.34365e-10)
(1.43892e-06 9.70409e-07 -7.50964e-08)
(3.12131e-08 2.16487e-08 -1.46696e-09)
(1.92587e-06 1.09967e-06 6.07826e-08)
(4.56859e-08 3.16105e-08 1.12682e-09)
(4.43265e-07 1.92367e-07 5.08023e-08)
(6.01734e-09 4.19635e-09 1.00963e-09)
(1.64904e-08 7.35062e-09 4.37768e-09)
(2.5704e-10 1.76826e-10 7.1238e-11)
(7.95212e-10 8.27514e-10 3.76537e-10)
(1.35318e-11 2.44056e-11 6.64049e-12)
(6.23777e-11 6.72586e-11 4.68445e-11)
(9.92344e-13 1.69449e-12 7.54056e-13)
(7.80678e-11 7.14696e-11 4.59971e-11)
(1.27649e-12 1.69486e-12 5.31192e-13)
(0 0 0)
(-1.47948e-27 0 0)
(1.58518e-27 0 0)
(4.41074e-27 0 0)
(1.65595e-28 0 0)
(8.09808e-31 0 0)
(4.86499e-33 0 0)
(5.37858e-36 0 0)
(1.55617e-39 0 0)
(2.46495e-42 0 0)
(-4.0359e-42 0 0)
(0 0 0)
(0 0 0)
(-5.37952e-25 0 0)
(6.67031e-25 0 0)
(2.34208e-24 0 0)
(7.38804e-26 0 0)
(4.18471e-28 0 0)
(2.7351e-30 0 0)
(3.40435e-33 0 0)
(1.12179e-36 0 0)
(7.09261e-40 0 0)
(-1.26862e-39 0 0)
(0 0 0)
(0 0 0)
(-1.39264e-22 0 0)
(2.59125e-22 0 0)
(1.18029e-21 0 0)
(3.03993e-23 0 0)
(2.07768e-25 0 0)
(1.46221e-27 0 0)
(2.03899e-30 0 0)
(7.6158e-34 0 0)
(1.90216e-37 0 0)
(-3.71591e-37 0 0)
(0 0 0)
(-1.86891e-20 0 0)
(9.59178e-20 0 0)
(2.20593e-19 0 9.04548e-15)
(1.13074e-20 0 0)
(9.86527e-23 0 0)
(2.96732e-25 0 8.35294e-15)
(4.58484e-28 0 -9.14662e-15)
(4.87506e-31 0 0)
(4.71714e-35 0 0)
(-1.00805e-34 0 0)
(0 0 0)
(-8.68495e-18 -2.03132e-15 0)
(3.386e-17 -5.6694e-15 0)
(3.64863e-17 0 0)
(1.52447e-18 0 -9.14662e-15)
(1.786e-20 0 -9.04548e-15)
(5.67943e-23 0 0)
(2.38505e-25 0 -1.13687e-14)
(1.17371e-28 0 -9.20404e-15)
(1.08431e-32 0 0)
(-2.51828e-32 0 0)
(0 0 0)
(-1.88496e-14 -3.68625e-13 -6.84723e-15)
(1.06664e-14 -8.35627e-13 2.62973e-15)
(1.27558e-14 -5.66193e-14 0)
(1.93826e-16 -1.26319e-16 8.54241e-15)
(3.05823e-18 0 8.99601e-15)
(1.02593e-20 0 1.00596e-14)
(4.63552e-23 0 0)
(2.63096e-26 0 7.92435e-15)
(2.41049e-30 0 0)
(-5.76707e-30 0 0)
(0 0 0)
(-2.71635e-12 -3.6964e-11 -1.05421e-12)
(1.73828e-12 -8.49115e-11 1.35466e-13)
(1.88953e-12 -7.58652e-12 -1.59793e-14)
(6.17285e-14 -1.69336e-13 -1.14318e-14)
(4.92938e-16 -7.57435e-16 -1.04213e-14)
(1.75573e-18 0 0)
(8.80932e-21 0 -1.01744e-14)
(5.45834e-24 0 -1.05476e-14)
(6.04078e-28 0 0)
(-1.20453e-27 0 0)
(0 0 0)
(-2.47861e-10 -3.74526e-09 -1.26491e-10)
(2.14226e-10 -7.20898e-09 -3.34198e-11)
(1.9053e-10 -8.40921e-10 -7.00364e-12)
(9.43438e-12 -2.27037e-11 -1.31664e-13)
(1.81929e-13 -2.60914e-13 -1.17476e-14)
(9.58557e-16 -1.00994e-15 0)
(1.86337e-18 0 0)
(2.74817e-21 0 -1.13687e-14)
(2.16131e-25 0 0)
(-2.23997e-25 0 0)
(0 0 0)
(1.27342e-09 -2.24771e-09 -3.04578e-11)
(2.47766e-11 -2.73102e-11 -2.43682e-13)
(2.6098e-13 -2.1589e-13 -8.21072e-16)
(1.17767e-15 -5.05275e-16 0)
(1.74837e-18 0 -1.13687e-14)
(1.08316e-22 0 0)
(-3.43401e-23 0 0)
(0 0 0)
(0 0 0)
(-1.26705e-27 0 0)
(1.48554e-27 0 0)
(4.37036e-28 0 0)
(7.24754e-30 0 0)
(3.65027e-32 0 0)
(8.94352e-35 0 0)
(1.03997e-37 0 0)
(3.12741e-41 0 0)
(1.42067e-42 0 0)
(-1.34463e-42 0 0)
(0 0 0)
(0 0 0)
(-4.57158e-25 0 0)
(6.99405e-25 0 0)
(1.93415e-25 0 0)
(3.29754e-27 0 0)
(1.84597e-29 0 0)
(4.93703e-32 0 0)
(6.39818e-35 0 0)
(2.28864e-38 0 0)
(4.17608e-40 0 0)
(-4.06251e-40 0 0)
(0 0 0)
(0 0 0)
(-1.15585e-22 0 0)
(3.13885e-22 0 0)
(7.79787e-23 0 0)
(1.44269e-24 0 0)
(9.02122e-27 0 0)
(2.60102e-29 0 0)
(3.75086e-32 0 0)
(1.51403e-35 0 0)
(1.15133e-37 0 0)
(-1.14035e-37 0 0)
(0 0 0)
(-1.50796e-20 0 0)
(1.35939e-19 0 0)
(2.86865e-20 0 0)
(6.15058e-22 0 0)
(4.26852e-24 0 0)
(1.30305e-26 0 0)
(2.07575e-29 0 0)
(9.37762e-33 0 0)
(2.94901e-35 0 0)
(-2.95525e-35 0 0)
(0 0 0)
(-6.6846e-18 -4.37082e-15 0)
(5.43438e-17 -2.14396e-15 0)
(1.00888e-17 0 0)
(2.56109e-19 0 0)
(1.94924e-21 0 0)
(6.1901e-24 0 0)
(1.07304e-26 0 0)
(5.47419e-30 0 0)
(6.99355e-33 0 0)
(-7.02848e-33 0 0)
(0 0 0)
(-1.12042e-14 -8.02619e-13 7.05026e-15)
(1.83923e-14 -3.77598e-13 1.4986e-14)
(3.66852e-15 -3.21634e-14 3.15797e-16)
(1.0306e-16 0 0)
(8.54322e-19 0 0)
(2.79393e-21 0 0)
(5.14376e-24 0 0)
(2.99741e-27 0 0)
(1.56797e-30 0 0)
(-1.52806e-30 0 0)
(0 0 0)
(-1.83682e-12 -8.13136e-11 1.24254e-12)
(2.60288e-12 -3.90746e-11 2.14319e-12)
(7.82951e-13 -5.3659e-12 1.51132e-13)
(3.92297e-14 -1.27162e-13 1.83162e-15)
(3.56185e-16 -3.78596e-16 0)
(1.20727e-18 0 0)
(2.34558e-21 0 0)
(1.52673e-24 0 0)
(3.73369e-28 0 0)
(-3.03362e-28 0 0)
(0 0 0)
(-2.38263e-10 -7.33909e-09 1.70822e-10)
(2.50379e-10 -4.37374e-09 2.05037e-10)
(1.36979e-10 -7.03826e-10 2.32637e-11)
(7.37514e-12 -1.8247e-11 5.31313e-13)
(1.37875e-13 -1.94654e-13 4.358e-15)
(5.01108e-16 -5.04999e-16 0)
(1.19577e-18 0 0)
(7.19296e-22 0 0)
(1.255e-25 0 0)
(-5.42795e-26 0 0)
(0 0 0)
(1.0695e-09 -1.88375e-09 8.01897e-11)
(1.97101e-11 -2.10244e-11 8.39652e-13)
(1.93453e-13 -1.55648e-13 4.96017e-15)
(7.59503e-16 -1.26319e-16 5.8265e-18)
(3.13637e-19 0 1.22741e-21)
(6.47697e-23 0 0)
(-8.39459e-24 0 0)
(0 0 0)
(0 0 0)
(-3.8387e-29 0 0)
(3.6861e-29 0 0)
(1.70187e-29 0 0)
(1.38623e-31 0 0)
(4.57399e-34 0 0)
(7.36992e-37 0 0)
(4.86242e-40 0 0)
(5.63988e-44 0 0)
(0 0 0)
(-4.27954e-43 0 0)
(0 0 0)
(0 0 0)
(-1.34875e-26 0 0)
(1.49214e-26 0 0)
(8.28928e-27 0 0)
(7.79711e-29 0 0)
(2.7312e-31 0 0)
(4.70352e-34 0 0)
(3.38457e-37 0 0)
(3.16199e-41 0 0)
(0 0 0)
(-1.43365e-40 0 0)
(0 0 0)
(0 0 0)
(-3.39865e-24 0 0)
(5.70543e-24 0 0)
(3.78357e-24 0 0)
(4.12565e-26 0 0)
(1.56887e-28 0 0)
(2.91784e-31 0 0)
(2.27264e-34 0 0)
(2.29715e-38 0 0)
(4.11605e-47 0 0)
(-4.44802e-38 0 0)
(0 0 0)
(-4.47152e-22 0 0)
(2.15408e-21 0 0)
(1.60512e-21 0 0)
(2.04206e-23 0 0)
(8.76603e-26 0 0)
(1.79041e-28 0 0)
(1.4937e-31 0 0)
(1.81295e-35 0 0)
(4.15302e-43 0 0)
(-1.27071e-35 0 0)
(0 0 0)
(-1.85502e-19 0 0)
(7.86378e-19 0 0)
(6.24271e-19 0 0)
(9.57805e-21 0 0)
(4.88594e-23 0 0)
(1.11021e-25 0 0)
(9.91613e-29 0 0)
(1.40291e-32 0 0)
(2.03311e-39 0 0)
(-3.31982e-33 0 0)
(0 0 0)
(-7.52502e-17 -3.35148e-14 9.39468e-15)
(2.91595e-16 -2.82053e-14 2.96849e-15)
(2.2011e-16 -1.64043e-15 0)
(4.42303e-18 0 0)
(2.75269e-20 0 0)
(6.95084e-23 0 0)
(6.83324e-26 0 0)
(1.05154e-29 0 0)
(6.32815e-36 0 0)
(-7.86716e-31 0 0)
(0 0 0)
(-1.10903e-13 -5.13853e-12 1.36043e-12)
(1.05438e-13 -4.54092e-12 6.34455e-13)
(7.10303e-14 -3.54757e-13 5.35764e-14)
(2.08987e-15 -6.3062e-15 5.05275e-16)
(1.50062e-17 0 0)
(4.20056e-20 0 0)
(4.79089e-23 0 0)
(8.03087e-27 0 0)
(1.39076e-32 0 0)
(-1.67433e-28 0 0)
(0 0 0)
(-2.08384e-11 -7.4845e-10 1.58496e-10)
(2.17635e-11 -7.15914e-10 1.34749e-10)
(1.01129e-11 -3.89194e-11 8.23235e-12)
(4.17667e-13 -9.47759e-13 2.10481e-13)
(7.03054e-15 -9.96258e-15 1.32635e-15)
(2.27168e-17 0 0)
(3.16605e-20 0 0)
(6.53602e-24 0 0)
(2.27214e-29 0 0)
(-3.16136e-26 0 0)
(0 0 0)
(5.1594e-11 -9.52465e-11 2.51558e-11)
(1.01234e-12 -1.13813e-12 3.09763e-13)
(1.0288e-14 -8.46335e-15 1.51291e-15)
(1.80293e-17 0 1.60264e-18)
(5.43051e-21 0 2.01687e-22)
(2.82513e-26 0 0)
(-5.21684e-24 0 0)
(0 0 0)
(0 0 0)
(-9.88079e-32 0 0)
(1.32894e-31 0 0)
(5.65637e-32 0 0)
(2.98715e-34 0 0)
(7.52682e-37 0 0)
(5.75869e-40 0 0)
(3.46896e-44 0 0)
(3.98821e-43 0 0)
(0 0 0)
(-3.96536e-43 0 0)
(0 0 0)
(0 0 0)
(-3.88262e-29 0 0)
(6.119e-29 0 0)
(3.13628e-29 0 0)
(1.82691e-31 0 0)
(4.89805e-34 0 0)
(4.11265e-37 0 0)
(3.70505e-41 0 0)
(1.33719e-40 0 0)
(0 0 0)
(-1.32865e-40 0 0)
(0 0 0)
(0 0 0)
(-1.05227e-26 0 0)
(2.61008e-26 0 0)
(1.62366e-26 0 0)
(1.06874e-28 0 0)
(3.10278e-31 0 0)
(2.95445e-34 0 0)
(3.69828e-38 0 0)
(4.15412e-38 0 0)
(0 0 0)
(-4.1233e-38 0 0)
(0 0 0)
(-1.45289e-24 0 0)
(1.0641e-23 0 0)
(7.76549e-24 0 0)
(5.95002e-26 0 0)
(1.94771e-28 0 0)
(2.19221e-31 0 0)
(3.5332e-35 0 0)
(1.18995e-35 0 0)
(0 0 0)
(-1.17836e-35 0 0)
(0 0 0)
(-7.30369e-22 0 0)
(4.06944e-21 0 0)
(3.39353e-21 0 0)
(3.19252e-23 0 0)
(1.24111e-25 0 0)
(1.69731e-28 0 0)
(3.34564e-32 0 0)
(3.12502e-33 0 0)
(-7.04651e-44 0 0)
(-3.07995e-33 0 0)
(0 0 0)
(-3.27134e-19 0 0)
(1.50453e-18 0 0)
(1.34268e-18 0 0)
(1.70973e-20 0 0)
(7.99883e-23 0 0)
(1.32443e-25 0 0)
(3.20602e-29 0 0)
(7.44347e-31 0 0)
(-5.9463e-40 0 0)
(-7.30312e-31 0 0)
(0 0 0)
(-5.17693e-16 -5.51448e-14 2.69592e-14)
(5.80017e-16 -6.3163e-14 2.58839e-14)
(4.803e-16 -3.91073e-15 1.32635e-15)
(9.22056e-18 0 0)
(4.9182e-20 0 0)
(9.7045e-23 0 0)
(3.03574e-26 0 0)
(1.592e-28 0 0)
(-2.51059e-36 0 0)
(-1.55549e-28 0 0)
(0 0 0)
(-2.57541e-13 -9.19988e-12 4.58323e-12)
(2.29585e-13 -9.47256e-12 4.53478e-12)
(1.5869e-13 -5.94823e-13 3.10035e-13)
(4.55173e-15 -1.09704e-14 5.24223e-15)
(2.63181e-17 0 0)
(6.20049e-20 0 0)
(2.66475e-23 0 0)
(3.02313e-26 0 0)
(-6.78526e-33 0 0)
(-2.93957e-26 0 0)
(0 0 0)
(6.78463e-13 -1.19266e-12 7.85546e-13)
(1.13912e-14 -1.37687e-14 7.87936e-15)
(3.2532e-17 0 1.76977e-17)
(2.01035e-20 0 7.63501e-21)
(5.04491e-24 0 0)
(-1.28994e-29 0 0)
(-4.85233e-24 0 0)
(0 0 0)
(0 0 0)
(0 0 0)
(1.42893e-34 0 0)
(7.10503e-35 0 0)
(2.60934e-37 0 0)
(7.78543e-40 0 0)
(2.81807e-44 0 0)
(3.17431e-52 0 0)
(0 0 0)
(0 0 0)
(0 0 0)
(0 0 0)
(0 0 0)
(0 0 0)
(7.82506e-32 0 0)
(4.34352e-32 0 0)
(1.74669e-34 0 0)
(4.62894e-37 0 0)
(3.12005e-41 0 0)
(1.73786e-48 0 0)
(0 0 0)
(0 0 0)
(0 0 0)
(0 0 0)
(0 0 0)
(0 0 0)
(4.00293e-29 0 0)
(2.49175e-29 0 0)
(1.13389e-31 0 0)
(2.73997e-34 0 0)
(3.14646e-38 0 0)
(6.91079e-45 0 0)
(0 0 0)
(0 0 0)
(0 0 0)
(0 0 0)
(0 0 0)
(1.91092e-26 0 0)
(1.33074e-26 0 0)
(7.17327e-29 0 0)
(1.68038e-31 0 0)
(2.94993e-35 0 0)
(2.10738e-41 0 0)
(0 0 0)
(0 0 0)
(0 0 0)
(0 0 0)
(0 0 0)
(8.53202e-24 0 0)
(6.56015e-24 0 0)
(4.51257e-26 0 0)
(1.11689e-28 0 0)
(2.69461e-32 0 0)
(5.08098e-38 0 0)
(0 0 0)
(0 0 0)
(0 0 0)
(0 0 0)
(0 0 0)
(3.58694e-21 0 0)
(2.95888e-21 0 0)
(2.8821e-23 0 0)
(8.06972e-26 0 0)
(2.544e-29 0 0)
(9.85602e-35 0 0)
(0 0 0)
(0 0 0)
(0 0 0)
(0 0 0)
(0 0 4.94645e-21)
(1.44182e-18 0 0)
(1.21156e-18 0 0)
(1.8299e-20 0 0)
(5.91709e-23 0 0)
(2.49554e-26 0 0)
(1.55179e-31 0 0)
(0 0 0)
(0 0 0)
(0 0 0)
(0 0 0)
(-8.84231e-16 -5.34696e-14 4.50311e-14)
(8.25676e-16 -6.39747e-14 5.14268e-14)
(4.49954e-16 -4.42115e-15 3.2768e-15)
(1.06715e-17 0 0)
(3.97667e-20 0 0)
(2.34498e-23 0 0)
(1.98764e-28 0 0)
(0 0 0)
(0 0 0)
(0 0 0)
(0 0 0)
(5.16501e-15 -9.60022e-15 9.21831e-15)
(2.22941e-17 0 2.64735e-17)
(1.89643e-20 0 7.16605e-20)
(2.06474e-25 0 4.52749e-25)
(0 0 0)
(0 0 0)
(0 0 0)
(0 0 0)
(0 0 0)
(0 0 0)
(7.96653e-38 0 0)
(3.0292e-38 0 0)
(2.39385e-41 0 0)
(2.98953e-43 0 0)
(0 0 0)
(0 0 0)
(0 0 0)
(0 0 0)
(0 0 0)
(0 0 0)
(0 0 0)
(0 0 0)
(4.97347e-35 0 0)
(2.01125e-35 0 0)
(2.43802e-38 0 0)
(1.78529e-40 0 0)
(0 0 0)
(4.47907e-60 0 0)
(0 0 0)
(0 0 0)
(0 0 0)
(0 0 0)
(0 0 0)
(0 0 0)
(2.9218e-32 0 0)
(1.28927e-32 0 0)
(2.26386e-35 0 0)
(1.01758e-37 0 0)
(0 0 0)
(7.56767e-56 0 0)
(0 0 0)
(0 0 0)
(0 0 0)
(0 0 0)
(0 0 0)
(0 0 0)
(1.60052e-29 0 0)
(7.90296e-30 0 0)
(1.92536e-32 0 0)
(5.59737e-35 0 0)
(0 0 0)
(5.49618e-52 0 0)
(0 0 0)
(0 0 0)
(0 0 0)
(0 0 0)
(0 0 0)
(0 0 0)
(8.11995e-27 0 0)
(4.57122e-27 0 0)
(1.52592e-29 0 0)
(3.02872e-32 0 0)
(0 0 0)
(2.42868e-48 0 0)
(0 0 0)
(0 0 0)
(0 0 0)
(0 0 0)
(0 0 0)
(0 0 0)
(3.80786e-24 0 0)
(2.45856e-24 0 0)
(1.16813e-26 0 0)
(1.67544e-29 0 0)
(0 0 0)
(7.36567e-45 0 0)
(0 0 0)
(0 0 0)
(0 0 0)
(0 0 0)
(0 0 6.51231e-22)
(0 0 0)
(1.65887e-21 0 0)
(1.21141e-21 0 0)
(8.94811e-24 0 0)
(1.01938e-26 0 0)
(0 0 0)
(1.62325e-41 0 0)
(0 0 0)
(0 0 0)
(0 0 0)
(0 0 0)
(0 -6.99914e-21 9.64292e-17)
(6.81287e-19 0 1.2925e-16)
(5.3947e-19 0 7.37769e-18)
(6.73787e-21 0 0)
(7.25467e-24 0 0)
(0 0 0)
(2.66399e-38 0 0)
(0 0 0)
(0 0 0)
(0 0 0)
(0 0 0)
(4.53625e-18 0 2.25217e-17)
(5.69361e-21 0 1.78017e-20)
(0 0 2.87575e-23)
(3.27055e-35 0 0)
(0 0 0)
(0 0 0)
(0 0 0)
(0 0 0)
(0 0 0)
(0 0 0)
(4.92458e-42 0 0)
(1.42034e-42 0 0)
(0 0 0)
(7.67436e-46 0 0)
(0 0 0)
(0 0 0)
(0 0 0)
(0 0 0)
(0 0 0)
(0 0 0)
(0 0 0)
(0 0 0)
(3.9371e-39 0 0)
(1.24854e-39 0 0)
(0 0 0)
(4.82668e-43 0 0)
(0 0 0)
(0 0 0)
(0 0 0)
(0 0 0)
(0 0 0)
(0 0 0)
(0 0 0)
(0 0 0)
(3.01467e-36 0 0)
(1.06484e-36 0 0)
(0 0 0)
(2.88057e-40 0 0)
(0 0 0)
(3.58313e-60 0 0)
(0 0 0)
(0 0 0)
(0 0 0)
(0 0 0)
(0 0 0)
(0 0 0)
(2.2018e-33 0 0)
(8.75867e-34 0 0)
(0 0 0)
(1.64138e-37 0 0)
(0 0 0)
(3.78536e-56 0 0)
(0 0 0)
(0 0 0)
(0 0 0)
(0 0 0)
(0 0 0)
(0 0 0)
(1.51589e-30 0 0)
(6.82913e-31 0 0)
(0 0 0)
(9.02675e-35 0 0)
(0 0 0)
(2.00015e-52 0 0)
(0 0 0)
(0 0 0)
(0 0 0)
(0 0 0)
(0 0 0)
(0 0 0)
(9.66451e-28 0 0)
(4.93008e-28 0 0)
(0 0 0)
(4.86879e-32 0 0)
(0 0 0)
(6.76505e-49 0 0)
(0 0 0)
(0 0 0)
(0 0 0)
(0 0 0)
(0 0 5.63758e-24)
(0 0 0)
(5.59431e-25 0 0)
(3.2193e-25 0 0)
(0 0 0)
(2.63944e-29 0 0)
(0 0 0)
(1.6091e-45 0 0)
(0 0 0)
(0 0 0)
(0 0 0)
(0 0 0)
(0 0 2.82072e-23)
(2.89136e-22 0 1.43827e-19)
(1.86527e-22 0 4.01274e-21)
(0 0 0)
(1.49695e-26 0 0)
(0 0 0)
(2.79764e-42 0 0)
(0 0 0)
(0 0 0)
(0 0 0)
(0 0 0)
(0 0 8.84381e-21)
(9.28237e-24 0 8.00218e-26)
(0 0 4.41252e-29)
(3.59804e-39 0 0)
(0 0 0)
(0 0 0)
(0 0 0)
(0 0 0)
(0 0 0)
(0 0 0)
(1.53461e-48 0 0)
(4.33079e-49 0 0)
(0 0 0)
(3.4834e-48 0 0)
(0 0 0)
(0 0 0)
(0 0 0)
(0 0 0)
(0 0 0)
(0 0 0)
(0 0 0)
(0 0 0)
(2.38586e-45 0 0)
(7.71707e-46 0 0)
(0 0 0)
(2.29833e-45 0 0)
(0 0 0)
(0 0 0)
(0 0 0)
(0 0 0)
(0 0 0)
(0 0 0)
(0 0 0)
(0 0 0)
(3.27722e-42 0 0)
(1.19423e-42 0 0)
(0 0 0)
(1.42652e-42 0 0)
(0 0 0)
(0 0 0)
(0 0 0)
(0 0 0)
(0 0 0)
(0 0 0)
(0 0 0)
(0 0 0)
(4.05603e-39 0 0)
(1.6116e-39 0 0)
(0 0 0)
(8.30035e-40 0 0)
(0 0 0)
(0 0 0)
(0 0 0)
(0 0 0)
(0 0 0)
(0 0 0)
(0 0 0)
(0 0 0)
(4.74006e-36 0 0)
(1.93083e-36 0 0)
(0 0 0)
(4.51301e-37 0 0)
(0 0 0)
(0 0 0)
(0 0 0)
(0 0 0)
(0 0 0)
(0 0 0)
(0 0 0)
(0 0 0)
(5.58546e-33 0 0)
(2.17219e-33 0 0)
(0 0 0)
(2.28963e-34 0 0)
(0 0 0)
(0 0 0)
(0 0 0)
(0 0 0)
(0 0 0)
(0 0 0)
(0 0 5.93671e-28)
(0 0 0)
(6.77934e-30 0 0)
(2.52033e-30 0 0)
(0 0 0)
(1.08886e-31 0 0)
(0 0 0)
(0 0 0)
(0 0 0)
(0 0 0)
(0 0 0)
(0 0 0)
(0 0 2.97025e-27)
(7.91701e-27 0 0)
(3.11117e-27 0 3.0491e-25)
(0 0 0)
(4.95311e-29 0 0)
(0 0 0)
(0 0 0)
(0 0 0)
(0 0 0)
(0 0 0)
(0 0 0)
(0 0 3.40375e-22)
(2.27114e-26 0 3.89908e-24)
(0 0 8.87718e-26)
(0 0 0)
(0 0 0)
(0 0 0)
(0 0 0)
(0 0 0)
(0 0 0)
(0 0 0)
(0 0 0)
(3.20264e-57 0 0)
(0 0 0)
(1.35069e-50 0 0)
(0 0 0)
(0 0 0)
(0 0 0)
(0 0 0)
(0 0 0)
(0 0 0)
(0 0 0)
(0 0 0)
(0 0 0)
(1.92656e-54 0 0)
(0 0 0)
(9.43514e-48 0 0)
(0 0 0)
(0 0 0)
(0 0 0)
(0 0 0)
(0 0 0)
(0 0 0)
(0 0 0)
(0 0 0)
(0 0 0)
(1.07116e-51 0 0)
(0 0 0)
(6.2246e-45 0 0)
(0 0 0)
(0 0 0)
(0 0 0)
(0 0 0)
(0 0 0)
(0 0 0)
(0 0 0)
(0 0 0)
(0 0 0)
(5.45752e-49 0 0)
(0 0 0)
(3.86785e-42 0 0)
(0 0 0)
(0 0 0)
(0 0 0)
(0 0 0)
(0 0 0)
(0 0 0)
(0 0 0)
(0 0 0)
(0 0 0)
(2.52133e-46 0 0)
(0 0 0)
(2.25761e-39 0 0)
(0 0 0)
(0 0 0)
(0 0 0)
(0 0 0)
(0 0 0)
(0 0 0)
(0 0 0)
(0 0 0)
(0 0 0)
(1.0426e-43 0 0)
(0 0 0)
(1.23471e-36 0 0)
(0 0 0)
(0 0 0)
(0 0 0)
(0 0 0)
(0 0 0)
(0 0 0)
(0 0 4.04333e-35)
(0 0 0)
(0 0 0)
(3.79638e-41 0 0)
(0 0 0)
(6.31892e-34 0 0)
(0 0 0)
(0 0 0)
(0 0 0)
(0 0 0)
(0 0 0)
(0 0 0)
(0 0 2.02238e-34)
(0 0 0)
(1.19186e-38 0 0)
(0 0 0)
(3.03453e-31 0 0)
(0 0 0)
(0 0 0)
(0 0 0)
(0 0 0)
(0 0 0)
(0 0 0)
(0 0 1.49951e-46)
(1.37889e-28 0 4.30446e-45)
(0 0 1.52612e-46)
(0 0 0)
(0 0 0)
(0 0 0)
(0 0 0)
(0 0 0)
(0 0 0)
(0 0 0)
(0 0 0)
(4.34448e-60 0 0)
(0 0 0)
(1.8854e-53 0 0)
(0 0 0)
(0 0 0)
(0 0 0)
(0 0 0)
(0 0 0)
(0 0 0)
(0 0 0)
(0 0 0)
(0 0 0)
(2.69036e-57 0 0)
(0 0 0)
(1.38881e-50 0 0)
(0 0 0)
(0 0 0)
(0 0 0)
(0 0 0)
(0 0 0)
(0 0 0)
(0 0 0)
(0 0 0)
(0 0 0)
(1.53577e-54 0 0)
(0 0 0)
(9.68925e-48 0 0)
(0 0 0)
(0 0 0)
(0 0 0)
(0 0 0)
(0 0 0)
(0 0 0)
(0 0 0)
(0 0 0)
(0 0 0)
(8.01358e-52 0 0)
(0 0 0)
(6.38642e-45 0 0)
(0 0 0)
(0 0 0)
(0 0 0)
(0 0 0)
(0 0 0)
(0 0 0)
(0 0 0)
(0 0 0)
(0 0 0)
(3.78318e-49 0 0)
(0 0 0)
(3.96755e-42 0 0)
(0 0 0)
(0 0 0)
(0 0 0)
(0 0 0)
(0 0 0)
(0 0 0)
(0 0 0)
(0 0 0)
(0 0 0)
(1.59562e-46 0 0)
(0 0 0)
(2.31796e-39 0 0)
(0 0 0)
(0 0 0)
(0 0 0)
(0 0 0)
(0 0 0)
(0 0 0)
(0 0 0)
(0 0 0)
(0 0 0)
(5.9173e-44 0 0)
(0 0 0)
(1.27085e-36 0 0)
(0 0 0)
(0 0 0)
(0 0 0)
(0 0 0)
(0 0 0)
(0 0 0)
(0 0 0)
(0 0 0)
(1.88992e-41 0 0)
(0 0 0)
(6.52981e-34 0 0)
(0 0 0)
(0 0 0)
(0 0 0)
(0 0 0)
(0 0 0)
(0 0 0)
(0 0 0)
(3.1495e-31 0 0)
(0 0 0)
(0 0 0)
(0 0 0)
(0 0 0)
(0 0 0)
(0 0 0)
(2.83648e-07 -2.34963e-06 -1.88632e-07)
(1.25125e-08 -3.47868e-08 -1.02234e-09)
(2.01634e-06 -1.28369e-05 3.3163e-07)
(1.59127e-08 -4.36003e-08 1.33591e-09)
(9.71402e-09 -9.93748e-08 3.19079e-08)
(1.108e-09 -3.53128e-09 1.05748e-09)
(5.04985e-11 -1.34914e-09 8.53421e-10)
(1.78e-11 -5.26239e-11 3.48624e-11)
(-2.61358e-13 -6.84763e-12 7.48578e-12)
(2.34473e-13 -7.30929e-12 7.81471e-12)
(1.54534e-13 -4.6522e-13 4.72368e-13)
(-3.55723e-11 -5.1595e-10 9.6297e-10)
(-3.78956e-16 -2.72101e-14 4.16049e-14)
(3.97184e-16 -3.33941e-14 4.77186e-14)
(2.1543e-16 -1.76846e-15 3.57252e-15)
(-1.21312e-13 -1.80484e-12 4.59835e-12)
(0 0 9.0839e-21)
(1.31994e-19 0 6.12069e-17)
(9.44111e-20 0 2.57143e-18)
(0 -5.9109e-15 2.03348e-14)
(0 0 8.64326e-25)
(8.01281e-24 0 0)
(3.6721e-24 0 2.1814e-22)
(0 0 1.02073e-17)
(0 0 9.6395e-32)
(0 0 0)
(3.13573e-36 0 0)
(0 0 2.78081e-22)
(0 0 0)
(0 0 0)
(5.05451e-39 0 0)
(0 0 0)
(2.50136e-11 -1.35133e-11 -1.58197e-13)
(1.98841e-13 -8.43235e-14 -1.26319e-16)
(6.93285e-16 0 0)
(5.73722e-20 0 0)
(1.88624e-11 -9.44376e-12 6.36635e-13)
(1.41793e-13 -5.69008e-14 3.26287e-15)
(2.53296e-16 0 9.24897e-19)
(3.71469e-20 0 0)
(1.08817e-12 -6.39333e-13 2.39066e-13)
(8.2633e-15 -2.77901e-15 8.12788e-16)
(4.12058e-18 0 9.13835e-20)
(2.69787e-23 0 0)
(1.34593e-14 -7.07385e-15 7.49593e-15)
(1.21802e-17 0 4.84003e-18)
(8.04987e-22 0 0)
(-1.79341e-26 0 0)
(1.21111e-17 0 3.80232e-17)
(2.85529e-22 0 7.04417e-22)
(0 0 0)
(0 0 0)
(0 0 2.08061e-20)
(2.95685e-32 0 0)
(0 0 0)
(0 0 0)
(0 0 2.79855e-25)
(3.38267e-36 0 0)
(0 0 0)
(0 0 0)
(0 0 1.13083e-23)
(0 0 0)
(0 0 0)
(0 0 0)
(0 0 7.08802e-44)
(0 0 0)
(0 0 0)
(0 0 0)
(0 0 0)
(0 0 0)
(0 0 0)
(0 0 0)
(7.84723e-05 -0.000116793 -1.35444e-06)
(5.2516e-08 -5.58227e-08 -2.58942e-09)
(2.22474e-09 -1.63703e-09 -3.25905e-11)
(0.00917917 -0.0269234 0.00623152)
(6.75535e-08 -7.10115e-08 3.10378e-09)
(1.79867e-09 -1.23742e-09 8.57369e-11)
(0.0039739 -0.0173272 0.00679537)
(0.000222514 -0.000662005 0.000253548)
(7.58201e-09 -9.50732e-09 3.72974e-09)
(9.90526e-11 -7.70664e-11 2.824e-11)
(3.54787e-08 -7.56259e-07 8.59248e-07)
(1.69739e-09 -3.71833e-09 3.62751e-09)
(6.71737e-11 -8.75639e-11 8.07035e-11)
(1.22489e-12 -9.9561e-13 9.09871e-13)
(3.38184e-11 -5.50665e-10 1.0068e-09)
(1.34737e-11 -2.66131e-11 3.97312e-11)
(5.209e-13 -6.75621e-13 9.17938e-13)
(9.91353e-15 -6.82121e-15 1.08683e-14)
(-1.05615e-09 -7.376e-09 2.13816e-08)
(9.58672e-10 -8.20146e-09 2.43125e-08)
(1.0852e-13 -1.93546e-12 4.96358e-12)
(7.80766e-14 -1.73734e-13 3.34628e-13)
(2.57692e-15 -2.65269e-15 6.7324e-15)
(4.23743e-18 0 1.09738e-17)
(-5.84551e-12 -4.65301e-11 1.97965e-10)
(5.64021e-12 -4.86623e-11 2.10806e-10)
(5.30165e-17 -6.93589e-15 2.36848e-14)
(4.11092e-17 -1.26319e-16 1.43374e-15)
(0 0 3.41029e-18)
(6.23703e-21 0 2.25689e-22)
(-1.95335e-14 -2.18633e-13 9.36129e-13)
(1.90734e-14 -2.22891e-13 9.69728e-13)
(6.43042e-21 0 0)
(3.5829e-21 0 2.21167e-19)
(0 0 4.01716e-20)
(1.14211e-23 0 3.94063e-22)
(-3.70151e-18 -3.78956e-16 4.21128e-15)
(3.77954e-18 -3.78956e-16 4.51978e-15)
(0 0 0)
(6.63804e-34 0 0)
(0 0 7.02702e-44)
(5.8859e-26 0 3.71136e-42)
(0 0 3.85354e-19)
(0 0 4.23134e-19)
(0 0 0)
(1.08693e-36 0 0)
(0 0 0)
(1.4342e-28 0 0)
(0 0 0)
(0 0 0)
(1.61693e-06 -6.63089e-06 9.21751e-06)
(0 -3.86926e-18 3.27798e-19)
(0 0 3.6285e-21)
(0 0 3.45201e-25)
(0 0 3.85218e-32)
(0 0 0)
(-2.12308e-16 -1.23181e-15 2.30013e-15)
(0 0 2.17148e-18)
(0 0 1.58264e-22)
(0 0 2.65733e-29)
(0 0 0)
(-6.18087e-14 -1.44798e-13 2.65749e-13)
(-1.24922e-21 0 1.13928e-15)
(-1.72746e-24 0 4.98774e-20)
(-2.21503e-27 0 1.19927e-26)
(-2.69166e-30 0 0)
(-2.95442e-12 -4.59045e-12 1.32512e-11)
(-1.42331e-14 -2.58077e-14 1.00494e-13)
(-8.39913e-21 -4.99102e-17 7.02622e-17)
(-1.38942e-24 -6.8387e-20 1.11153e-24)
(-1.77446e-27 -6.86551e-23 0)
(-4.88192e-21 0 1.67678e-17)
(0 0 0)
(-1.07724e-21 0 0)
(0 0 0)
(-7.39538e-22 0 0)
(0 0 0)
(-6.8514e-22 0 0)
(0 0 0)
(0 0 0)
(0 0 0)
(0 0 0)
(0 0 0)
(0 0 0)
(0 0 0)
(0 0 0)
(0 0 0)
(0 0 0)
(0 0 0)
(0 0 0)
(0 0 0)
(4.33871e-10 -7.02092e-10 1.63939e-09)
(3.10679e-11 -2.39718e-11 6.04682e-11)
(3.26747e-12 -5.01605e-12 1.57391e-11)
(1.82726e-13 -1.42233e-13 4.63993e-13)
(1.53302e-14 -2.70896e-14 1.14386e-13)
(1.26319e-16 0 2.01175e-15)
(2.57792e-18 0 2.35697e-16)
(0 0 3.74272e-18)
(1.06135e-31 0 0)
(0 0 6.09011e-41)
(1.76262e-34 0 0)
(0 0 0)
(6.32626e-07 -4.35621e-07 -6.54468e-08)
(1.71132e-06 -1.24844e-06 7.86275e-08)
(7.72157e-08 -4.37301e-08 4.45416e-08)
(2.16628e-07 -4.62544e-07 6.46999e-07)
(5.167e-09 -3.69979e-09 6.34794e-09)
(-3.75339e-07 -3.7904e-07 3.78636e-06)
(7.60626e-07 -2.30684e-06 2.31332e-05)
(-4.58587e-11 -1.43867e-10 1.12492e-09)
(4.58262e-11 -1.79834e-10 1.19833e-09)
(-4.23241e-13 -1.48087e-12 1.31368e-11)
(4.20249e-13 -1.95975e-12 1.40618e-11)
(-1.56873e-15 -6.49893e-15 1.24894e-13)
(1.57562e-15 -1.15409e-14 1.3053e-13)
(0 0 3.26721e-16)
(0 0 3.4191e-16)
(0 0 0)
(0 0 0)
(1.08754e-05 -1.96453e-06 8.19823e-06)
(5.21337e-06 -1.18947e-06 6.97987e-06)
(1.12169e-06 5.73117e-08 1.29593e-06)
(7.21397e-08 -4.40784e-08 3.67197e-07)
(6.63673e-10 -2.01682e-10 1.15118e-09)
(-2.31279e-06 7.74908e-07 2.32264e-05)
(1.70563e-06 -9.69806e-07 7.02469e-05)
(3.86578e-08 4.54113e-09 1.50723e-07)
(2.45259e-09 -7.98494e-13 4.76041e-09)
(6.07415e-11 -4.44327e-11 3.70592e-10)
(4.84371e-12 -1.59459e-12 1.19776e-11)
(-1.98898e-10 5.37184e-12 4.07359e-09)
(1.89987e-10 -6.41642e-11 5.74332e-09)
(1.91077e-10 -3.32969e-12 1.00529e-09)
(1.83493e-11 1.10932e-14 4.81856e-11)
(4.53951e-13 -3.07574e-13 2.99556e-12)
(2.60906e-14 -7.92679e-15 8.50272e-14)
(-2.13736e-12 6.44818e-14 3.7648e-11)
(1.51595e-12 -5.7779e-13 6.32057e-11)
(1.9638e-12 -2.25172e-14 1.08202e-11)
(1.20255e-13 -4.60348e-17 3.91594e-13)
(1.20848e-15 -6.31594e-16 1.74644e-14)
(0 0 2.73559e-16)
(1.13259e-29 0 0)
(0 0 1.28029e-38)
(1.91677e-32 0 0)
(0 0 0)
(0 -4.42792e-20 7.17525e-15)
(0 -2.44819e-22 1.14899e-36)
(0 -8.23537e-25 0)
(-1.33952e-14 4.17021e-16 3.50634e-13)
(7.85509e-15 -2.18857e-15 6.0239e-13)
(1.02749e-14 -1.72662e-17 8.02468e-14)
(0 1.04044e-18 1.57797e-15)
(0 -5.50025e-18 3.8355e-15)
(2.50477e-28 -7.39552e-20 0)
(0 3.00644e-21 0)
(0 -1.17725e-20 0)
(4.30955e-31 -2.03973e-22 0)
(0.0215902 -0.0566533 0.0247048)
(0 0 2.25444e-22)
(0 0 7.62287e-22)
(0 0 2.07855e-41)
(0 0 0)
(6.41076e-13 -2.89603e-13 7.16165e-13)
(2.62582e-15 -7.57912e-16 5.23269e-15)
(4.13605e-18 0 3.58156e-19)
(6.54618e-21 0 2.97432e-20)
(2.22425e-23 0 2.27702e-39)
(6.12039e-26 0 0)
(1.07996e-09 -4.05136e-10 -1.01045e-11)
(1.01445e-11 -2.64819e-12 -3.83435e-14)
(6.9203e-14 -1.31027e-14 0)
(2.6705e-17 0 0)
(-2.3477e-19 0 5.66757e-15)
(0 0 0)
(7.56312e-10 -2.65704e-10 3.16052e-11)
(7.00161e-12 -1.81028e-12 2.13645e-13)
(4.70764e-14 -9.46242e-15 5.82622e-16)
(1.87459e-17 0 0)
(-1.11714e-19 0 0)
(0 0 0)
(6.16343e-11 -1.83697e-11 1.17753e-11)
(5.4428e-13 -1.29281e-13 8.30543e-14)
(2.44402e-15 0 1.01148e-16)
(2.03059e-20 0 0)
(-8.80658e-20 0 0)
(0 0 0)
(8.77825e-13 -2.86663e-13 4.81342e-13)
(5.79967e-15 -7.57912e-16 2.59758e-15)
(3.52907e-19 0 5.96974e-20)
(-1.84292e-23 0 0)
(-8.02052e-20 0 0)
(0 0 0)
(5.94605e-15 -1.51582e-15 5.45963e-15)
(5.9193e-19 0 7.15673e-19)
(0 0 0)
(0 0 0)
(0 0 0)
(0 0 0)
(1.19374e-19 0 1.76294e-18)
(1.88867e-29 0 0)
(0 0 0)
(0 0 0)
(0 0 0)
(0 0 0)
(2.23673e-33 0 0)
(0 0 0)
(0 0 0)
(0 0 0)
(0 0 0)
(0 0 0)
(0 0 0)
(0 0 0)
(0 0 0)
(0 0 0)
(0 0 0)
(0 0 0)
(0 0 0)
(0 0 0)
(0 0 0)
(0 0 0)
(0 0 0)
(0 0 0)
(0 0 0)
(0 0 0)
(2.71492e-08 -1.51484e-08 -6.04028e-10)
(2.02487e-08 -1.00429e-08 1.03271e-09)
(6.52949e-09 -2.69273e-09 1.79889e-09)
(7.92449e-11 -3.48736e-11 5.79789e-11)
(3.48334e-08 -4.54809e-09 -6.04293e-10)