/*--------------------------------*- C++ -*----------------------------------*\
  =========                 |
  \\      /  F ield         | OpenFOAM: The Open Source CFD Toolbox
   \\    /   O peration     | Website:  https://openfoam.org
    \\  /    A nd           | Version:  9
     \\/     M anipulation  |
\*---------------------------------------------------------------------------*/
FoamFile
{
    format      ascii;
    class       volScalarField;
    location    "0.0027";
    object      rho;
}
// * * * * * * * * * * * * * * * * * * * * * * * * * * * * * * * * * * * * * //

dimensions      [1 -3 0 0 0 0 0];

internalField   nonuniform List<scalar> 
22448
(
0.736672
0.731111
0.715625
0.706263
0.677099
0.872098
0.93337
0.878764
0.916687
2.14503
2.36464
1.97285
0.6888
1.01133
0.744325
0.952982
1.14849
1.6403
1.19268
1.46448
1.89475
2.01361
1.80411
2.37373
1.53404
1.05616
0.724031
0.706404
0.641699
0.774623
0.646785
0.797979
0.713199
0.817576
0.883773
1.05509
0.896242
0.914053
0.800225
0.923022
1.15596
1.22348
0.994939
1.29416
1.03636
1.40694
1.09454
1.28642
1.45094
1.87491
1.30968
1.61544
1.19466
1.43375
1.84813
2.15042
1.47048
2.19829
1.62291
2.4072
1.70243
2.03658
2.36145
1.72734
2.01599
2.33674
1.98439
1.86847
1.02808
1.53468
1.26035
1.05877
1.23452
1.59499
1.3721
1.26699
1.11873
1.29383
0.437503
0.17809
0.5309
0.20297
0.832376
0.339199
1.20721
0.689263
1.63951
1.89828
0.14408
0.416039
0.45735
0.152126
0.449185
0.418966
0.190515
0.433723
0.161505
0.560805
0.667409
0.236281
0.76719
0.495014
0.292013
0.651984
0.276352
0.967209
1.05095
0.467882
1.28832
1.01586
0.565672
1.39925
1.2705
1.78241
0.577086
1.83858
1.65136
1.07956
2.34805
2.00066
1.32161
2.30811
0.321524
0.251328
0.26608
0.181312
0.255639
0.271485
0.315237
0.43711
0.291599
0.315864
0.22374
0.384428
0.325962
0.352225
0.805023
0.50601
0.528287
0.397345
0.685817
0.590201
0.616963
1.67419
0.99924
1.09668
0.857907
1.39227
1.22312
1.35465
1.99731
1.18974
1.61576
1.71894
1.98319
2.04523
2.40906
1.5561
2.12126
0.360121
0.336507
0.228269
0.146214
0.339786
0.231076
0.357191
0.364342
0.147847
0.354004
0.240114
0.343901
0.233712
0.375092
0.330226
0.184027
0.27096
0.292345
0.260372
0.278141
0.349816
0.433279
0.373549
0.253665
0.17851
0.396619
0.408299
0.278888
0.4861
0.203656
0.52262
0.366035
0.459475
0.316931
0.55008
0.505866
0.253691
0.434542
0.458732
0.374268
0.400555
0.588775
0.698626
0.592726
0.425205
0.324696
0.620679
0.670256
0.495809
0.791506
0.385951
0.88234
0.701913
0.763071
0.584759
0.910244
0.956836
0.470467
0.82682
0.887389
0.694052
0.732469
1.149
1.58377
1.30765
1.26984
1.47139
1.33632
1.52407
1.50443
1.56989
1.24315
1.31351
1.48665
1.83313
1.66735
1.85549
1.86008
1.73685
1.73317
1.9686
1.81491
1.83568
1.71281
1.94208
1.26919
1.03375
0.853859
0.722473
1.06156
1.23991
1.05139
1.48797
0.88812
1.59497
1.52869
1.42975
1.26973
1.71268
1.90966
1.07363
1.74499
1.81237
1.47916
1.60872
2.06914
1.71857
1.12215
1.69352
1.75166
1.63897
1.8767
1.85166
2.38277
2.10399
2.43298
1.84246
2.34176
2.41896
1.48807
1.92769
1.48851
1.77036
1.87648
1.90437
1.92627
2.15689
1.22503
1.67848
2.03455
0.531573
0.576181
0.617838
0.824948
0.898774
1.15278
1.24696
1.57118
1.26216
1.6035
1.61071
0.995475
1.33197
1.57965
1.09671
1.02048
0.526939
0.521839
0.526758
0.537296
0.526961
0.533299
0.520489
0.543476
0.550309
0.57619
0.579616
0.542809
0.548955
0.57741
0.703317
0.627786
0.626488
0.678094
0.630415
0.697666
0.689751
0.786435
0.750618
0.850267
0.843313
0.774204
0.764247
0.872682
1.05906
0.926758
0.925318
0.976327
0.962234
1.00854
1.01153
1.16161
1.06078
1.17879
1.19686
1.09381
1.10174
1.26685
1.50239
1.26965
1.31083
1.4034
1.38284
1.36496
1.45972
1.60909
1.51748
1.42101
1.79281
1.41348
1.63403
1.66011
1.26705
1.20491
1.25702
1.37821
1.17505
1.28912
1.40304
1.33936
1.50164
1.36619
1.60738
1.35354
1.53317
1.36328
1.03576
1.31406
1.68108
1.40065
1.37405
1.09685
1.30978
1.30324
1.61762
1.46042
1.33119
1.16051
1.23573
1.5405
1.12828
2.33167
2.36215
1.58686
1.05881
1.20266
1.16586
0.834983
1.4099
0.979353
1.29711
1.50759
1.22912
1.8215
1.22531
1.68684
1.26976
1.225
1.225
0.598204
0.695842
0.661561
0.717188
1.01815
1.64978
1.07154
1.64117
0.723643
0.864077
1.03509
1.29744
1.11651
1.60808
1.21915
1.40974
1.95679
2.02869
2.05056
2.27967
1.62444
1.7689
1.36224
1.56734
2.26582
1.83642
0.963645
1.71248
1.65852
0.911405
0.992717
1.72619
1.70366
1.1634
1.74306
1.84619
1.33909
1.65164
1.74861
1.9974
2.06966
1.75435
1.52824
1.89009
2.14347
1.47318
1.2531
1.44128
1.25048
1.22643
1.29304
1.23919
1.22756
1.22503
2.22552
1.5289
1.30856
2.05202
1.25605
0.432269
0.403706
0.59182
0.607516
0.410467
0.601642
0.424135
0.445465
0.623235
0.445981
0.661617
0.420457
0.619218
0.477243
1.47534
1.31257
1.30809
1.02391
1.31532
1.31591
1.47334
1.48204
1.04025
1.33971
1.37241
1.32465
1.33679
1.49205
0.613542
0.491581
0.731324
0.805671
0.532885
0.557347
0.826308
0.713287
0.905129
0.736775
1.08412
0.639215
0.94131
0.828837
1.50107
1.35653
1.41953
1.17299
1.5007
1.37037
1.47193
1.13367
0.853345
1.27399
1.46949
0.965087
1.00099
1.5275
1.35174
1.74842
1.4466
2.01691
1.19357
1.81034
1.63035
2.06323
1.72124
2.11956
1.99958
1.8997
1.9084
2.08651
2.1058
1.82428
1.92739
1.62214
1.97598
1.89556
2.03074
1.96842
1.24453
1.75934
1.8073
1.62531
1.73402
2.03594
2.00075
1.85541
1.61952
1.56112
1.84537
1.97204
1.66456
0.808413
1.15352
0.845435
0.818986
1.16576
1.12826
1.11474
0.974277
1.3385
1.07128
1.08419
1.43309
1.44498
1.32619
1.61689
1.74491
1.67738
1.81405
1.81381
1.93797
1.84478
1.98529
1.41631
1.6052
1.70699
1.28759
1.30514
1.50637
1.99806
2.0019
2.0082
2.13371
2.13007
2.16043
2.19581
1.22616
1.2256
1.22502
1.22826
1.2251
1.22504
1.22501
2.06135
1.25947
1.26283
1.22504
0.865987
0.893801
1.25569
0.841792
1.19646
1.16202
1.22936
1.19034
1.40903
1.64094
1.22625
1.53271
1.57479
1.71269
1.81501
2.03815
1.64505
1.95789
1.79801
1.95591
1.8206
1.39002
1.28783
1.23369
1.40979
1.24647
1.24861
1.23291
1.92539
1.44039
1.44222
1.92493
1.93009
1.7896
1.33289
1.8728
1.2288
1.23027
1.36949
1.84215
1.22773
1.22862
1.72622
1.22615
1.22636
1.24754
1.25314
1.22529
1.22528
1.2288
1.22505
1.22504
1.22541
1.22527
1.22502
1.22501
1.22502
1.225
1.225
1.22502
1.22501
1.225
1.225
1.22501
1.225
1.225
1.225
1.22805
2.42806
2.26255
2.21081
1.36484
2.35663
2.09186
2.26929
1.75398
2.37415
1.48989
2.36998
1.54423
1.03751
1.22728
1.33964
1.75666
2.21727
1.29066
1.225
1.24202
1.77078
1.23413
2.03078
1.81134
1.59412
1.3775
2.06348
1.85405
1.42859
2.16221
1.98005
1.33765
1.9506
2.18208
2.06546
1.24501
1.8203
1.37747
1.22676
1.98379
1.23461
1.23536
1.22503
1.22531
1.22544
1.22502
1.2285
1.22503
1.22502
1.22501
1.22503
1.76403
1.29971
1.22609
1.22571
1.22817
1.22515
1.22546
1.22502
1.22501
1.225
1.225
1.225
1.225
1.225
1.225
1.225
1.225
1.225
1.225
1.225
1.225
1.225
1.225
1.225
1.225
1.23404
1.22772
1.22525
1.225
1.22546
1.225
1.225
1.225
1.225
1.225
1.04764
1.2192
1.08679
1.20329
1.07753
1.20587
1.28858
1.13741
1.34752
1.225
1.225
1.225
1.225
1.225
1.225
1.225
1.225
1.225
1.225
1.225
1.22502
1.225
1.225
1.225
1.225
0.817459
1.5606
1.53094
2.51288
2.12893
2.00911
2.34024
2.37808
1.241
1.22712
1.225
0.473405
0.487078
0.637261
0.765341
0.984784
1.38489
2.65672
2.85486
1.68691
1.23312
1.10444
1.50369
0.901973
1.03358
1.22071
1.10536
1.27969
1.46674
1.33745
0.550408
0.710667
0.515451
0.736586
0.89308
0.833144
0.592348
0.526094
0.527964
0.572495
0.538781
0.582576
0.582608
0.588068
0.52836
0.538109
0.580832
0.663764
0.648187
0.745773
0.744283
0.657564
0.656591
0.749245
0.656649
0.736358
0.652373
0.738461
0.949951
0.842852
0.839398
0.94094
0.8432
0.951629
0.946228
0.93049
0.827054
0.827206
0.931085
0.426433
0.50332
0.816732
1.40749
2.05947
0.474787
0.465526
0.501189
0.534366
0.721806
0.73499
0.817212
1.21054
1.1232
2.05328
0.430543
0.427402
0.440144
0.431835
0.432817
0.445076
0.425606
0.547542
0.499593
0.512568
0.559461
0.49391
0.553018
0.567649
0.904104
0.801774
0.825212
0.922281
0.800886
0.903254
0.930687
1.66025
1.36365
1.4496
1.64592
1.40173
1.5912
1.71628
2.00974
2.15149
0.413561
0.437916
0.418169
0.479259
0.443144
0.423353
0.408262
0.427031
0.446824
0.452013
0.421758
0.397297
0.384484
0.389362
0.392143
0.440168
0.443114
0.463831
0.476136
0.442752
0.455094
0.459539
0.421757
0.485798
0.468111
0.446017
0.450705
0.430241
0.439115
0.436357
0.480553
0.461333
0.455232
0.405969
0.412717
0.396769
0.423867
0.521998
0.502334
0.474605
0.587535
0.471226
0.555998
0.521425
0.541195
0.513749
0.488261
0.566973
0.504593
0.440676
0.454322
0.486955
0.620795
0.634326
0.709995
0.730414
0.62512
0.64241
0.707442
0.592357
0.656764
0.706719
0.664556
0.626309
0.586378
0.676819
0.612794
0.724425
0.640038
0.696227
0.573117
0.627961
0.551357
0.653235
0.868228
0.7923
0.749837
0.90516
0.768167
0.886245
0.843318
0.885448
0.81518
0.785538
0.918064
0.837056
0.711455
0.740322
0.803371
1.03006
1.04994
1.17833
1.2304
1.02552
1.06049
1.19326
0.988719
1.00552
1.13754
1.09415
0.998247
0.954517
1.14226
1.01022
1.22018
1.04736
1.17616
0.955613
1.05764
0.914267
1.11088
1.66387
1.44884
1.39501
1.7244
1.92678
1.90147
1.96548
2.17091
1.8284
1.99002
2.08723
1.92092
2.15163
1.98496
2.06661
1.68087
1.89504
1.13687
1.11954
1.83525
1.64383
1.94703
0.44913
0.456583
0.512582
0.627871
0.78722
0.418532
0.44005
0.560083
0.711381
0.8832
1.14316
1.28375
1.43743
0.453049
0.583092
0.520724
0.489458
0.560119
0.602914
0.818124
0.894972
1.14809
0.506152
0.59324
0.601613
0.499289
0.519118
0.652268
0.617482
0.546774
0.653291
0.704075
0.590519
0.774408
0.72438
0.848903
1.1374
0.500595
0.541456
0.476267
0.526226
0.5481
0.481397
0.494702
0.51277
0.536748
0.593235
0.510445
0.563214
0.490453
0.538808
0.643562
0.638583
0.547809
0.665746
0.581851
0.702213
0.606102
0.716837
0.740731
0.847999
0.757828
0.77575
0.678899
0.79128
0.944206
0.918349
0.83958
0.974769
0.865579
0.990904
0.928165
1.02456
1.05917
1.13383
1.13645
1.06381
1.02762
1.09919
1.40687
1.22501
1.22502
1.225
1.225
2.28499
1.26477
1.80949
1.23846
1.22593
1.22554
1.22501
1.225
1.225
1.225
1.22501
1.225
1.225
0.392432
0.464227
0.260428
0.808684
1.4182
1.2531
1.22651
1.22502
1.225
0.470001
0.544302
0.31077
0.946232
1.41412
1.23482
1.22503
1.22501
1.225
0.809113
0.855808
0.474492
1.52955
1.34419
1.22548
1.225
1.225
1.225
1.43972
1.46741
1.00016
2.30515
1.23591
1.22502
1.225
1.225
1.225
2.38184
2.24264
2.65496
1.33551
1.22523
1.29893
1.225
1.225
1.67183
2.00089
1.22525
2.23078
1.225
1.22501
0.435143
0.418212
0.451363
0.428527
0.465747
0.217422
0.410687
0.507292
0.222929
0.434584
0.505633
0.476022
0.459827
0.27518
0.481262
1.22674
1.64689
1.69625
0.839268
1.26291
1.67815
1.66786
1.25231
1.45029
1.23944
1.41738
1.2442
1.39469
1.22957
0.514995
0.658466
0.545991
0.242743
0.579277
0.764436
0.286386
0.759917
0.538466
0.374678
0.657418
1.29031
1.80604
1.63757
1.16368
1.39241
2.01488
1.4236
1.23998
1.3595
1.22732
1.37226
1.22939
1.26129
1.22536
0.844935
1.06274
1.11934
0.856345
0.560961
1.03857
1.24104
0.725417
1.25801
1.23794
0.862324
0.650676
1.25539
1.41475
1.94822
1.33758
1.98171
1.35127
1.43
1.23067
1.22739
1.24332
1.22507
1.25086
1.22517
1.22581
1.22502
1.49439
1.24534
1.60175
1.49577
1.44302
1.01767
2.01169
2.19933
1.52548
1.4453
2.23516
2.13708
1.94034
1.76868
2.20432
1.29947
1.23355
1.22644
1.25033
1.23048
1.22519
1.22503
1.22506
1.2252
1.22501
1.23096
1.23512
1.22504
1.22505
1.37919
1.91646
1.61733
2.20422
2.71563
1.22766
1.28884
1.24029
1.69569
1.74779
2.76718
2.52165
1.33075
2.07308
0.555539
1.67079
0.637919
1.8561
1.0142
2.06206
2.29283
1.22512
1.5943
1.22506
0.399515
0.411612
0.346571
0.633136
0.461665
0.575746
0.364318
0.647008
0.485355
0.462801
0.613242
0.408514
0.878003
0.553734
0.771727
0.491493
0.927657
0.69
0.778124
1.07774
0.745355
1.50106
0.921017
1.44212
1.1122
1.82133
1.34365
1.66289
2.55535
1.7923
2.63466
2.14241
2.82403
2.70901
1.25438
2.1037
0.477832
0.455263
0.475603
0.469304
0.460388
0.480287
0.473506
0.267063
0.212242
0.217098
0.202955
0.143709
0.147395
0.197873
1.36689
1.34986
1.5094
1.41778
1.34622
1.50757
1.3723
0.597316
0.535191
0.548543
0.600359
0.545
0.590864
0.601292
0.251315
0.339114
0.272103
0.25357
0.170411
0.234391
0.182478
1.29969
1.3186
1.49796
1.40619
1.32284
1.30288
1.48275
0.942814
0.84701
0.835449
0.96306
0.839078
0.95556
0.936445
0.547797
0.364269
0.415768
0.384621
0.228687
0.338921
0.256854
1.23681
1.25183
1.35906
1.31202
1.24682
1.2406
1.30387
1.76505
1.47316
1.45664
1.72793
1.48012
1.73817
1.73379
1.34568
0.772304
1.01986
0.971153
0.490528
0.713188
0.646059
1.22519
1.22622
1.23112
1.22854
1.22566
1.22541
1.22667
2.638
2.14546
2.55032
2.21104
1.21171
1.84303
2.76246
2.14803
1.22156
2.08661
1.83311
1.70777
2.79017
2.30397
2.23667
1.31633
1.72883
1.98907
1.67945
1.9575
2.27235
1.22501
1.22501
1.23355
1.27683
1.22504
1.23063
1.22501
1.34193
1.22506
1.22633
1.23461
1.24656
1.22501
1.22502
0.461737
0.460824
0.467458
0.470536
0.467457
0.471741
0.457534
0.219112
0.328141
0.331759
0.348294
0.163713
0.164472
0.345327
0.440546
0.464495
0.466998
0.437494
0.471295
0.483401
0.507288
0.502445
0.481698
0.481657
0.49094
0.340225
0.230236
0.355243
0.354562
0.170956
0.166502
0.367942
0.449827
0.489859
0.474075
0.467954
0.471094
0.445288
0.45479
0.439922
0.450331
0.459507
0.466705
0.486887
0.477281
0.480134
0.48375
0.481677
0.463976
0.468632
0.477894
0.48837
0.481888
0.496162
0.512279
0.472565
0.49093
0.509202
0.481231
0.452021
0.486566
0.491007
0.462514
0.469798
0.502075
0.493485
0.504306
0.487075
0.510981
0.489525
0.496359
0.477527
0.507729
0.47045
0.352735
0.361999
0.333439
0.45587
0.465284
0.325608
0.224098
0.289605
0.235426
0.208759
0.160229
0.152398
0.219456
0.37176
0.503525
0.39004
0.340732
0.492052
0.473674
0.354862
1.12987
0.833026
1.45664
1.23197
0.838719
1.4628
1.12129
1.14908
1.24367
0.870682
1.50027
0.849606
1.47714
1.18393
1.25482
1.26029
1.24919
1.25075
1.25829
1.24774
1.25669
1.35735
1.41817
1.33118
1.50418
1.3403
1.50668
1.34287
1.25144
1.24794
1.25008
1.24146
1.25474
1.24504
1.24703
0.577953
0.548293
0.538647
0.602626
0.525388
0.60853
0.592061
0.378815
0.261496
0.41148
0.424712
0.179242
0.391024
0.192448
0.541904
0.51841
0.498078
0.565272
0.644349
0.677871
0.774773
0.740977
0.687196
0.661403
0.720252
0.453098
0.502819
0.317107
0.468527
0.232716
0.210457
0.520684
0.599513
0.697022
0.626668
0.667258
0.589779
0.535141
0.541072
0.585065
0.666206
0.673504
0.750821
0.74887
0.664223
0.669993
0.748182
0.655259
0.726576
0.650372
0.733285
0.417976
0.589686
0.457985
0.404441
0.519552
0.375541
0.559895
0.297272
0.418769
0.327217
0.276706
0.210289
0.195659
0.304515
0.745838
0.510391
0.577028
0.442281
0.683859
0.613627
0.490275
1.30272
0.903643
1.53009
1.32381
1.23534
0.948979
1.56037
1.38181
1.36024
1.08119
1.58967
1.00722
1.58119
1.46886
1.23762
1.2449
1.2375
1.23583
1.24219
1.23984
1.23373
1.27888
1.39274
1.26681
1.41131
1.28476
1.45319
1.26081
1.23364
1.23221
1.23185
1.22821
1.23544
1.23057
1.23043
0.893256
0.866339
0.827266
0.957645
0.802081
0.964694
0.923459
0.632093
0.354469
0.403257
0.643645
0.258323
0.57825
0.289892
0.824412
0.770453
0.740596
0.854471
1.00456
1.08156
1.23014
1.19698
1.08128
1.04061
1.15334
0.848887
0.470447
0.566956
0.726016
0.394429
0.332684
0.838981
0.929354
1.11885
0.965174
1.07231
0.913453
0.803669
0.815858
0.89236
1.07312
1.09272
1.25654
1.23256
1.08738
1.06312
1.24816
1.08302
1.07164
1.25315
1.25323
1.08361
1.07847
1.26006
1.04135
1.17821
1.0115
1.21766
1.06278
1.24018
1.06284
1.24199
1.02173
0.662227
0.775012
0.636253
0.779655
0.551877
0.919515
0.491965
0.60646
0.799968
0.451439
0.377967
0.303109
0.553378
1.60991
0.931552
1.15459
0.760761
1.49483
1.14104
0.950267
1.64595
1.17609
1.57737
1.41982
1.56203
1.28523
1.53108
1.69548
1.40208
1.47086
1.34607
1.38537
1.44383
1.65763
1.22653
1.22909
1.22664
1.22615
1.22807
1.22717
1.22573
1.2305
1.27863
1.22846
1.24272
1.23298
1.26542
1.22713
1.22565
1.22547
1.22538
1.22509
1.22599
1.22528
1.22523
1.59774
1.41904
1.40715
1.69769
1.35155
1.65941
1.6699
1.23992
0.904613
0.707975
1.1995
0.486732
0.994339
0.616556
1.50951
1.32626
1.26517
1.58858
1.87311
1.99722
2.133
2.20644
1.94183
1.95485
2.12456
1.81256
1.5068
1.17563
1.43154
1.03884
0.796618
1.69454
1.77258
2.11097
1.86585
2.01391
1.77486
1.46767
1.48088
1.69581
1.49257
1.72782
1.75633
1.7465
1.40529
1.4549
1.68816
1.76983
1.47526
1.48073
1.75791
2.06552
2.02587
2.23575
2.27905
2.03321
2.02938
2.31187
2.06907
1.96751
2.2008
2.24799
2.01287
2.0408
2.29811
2.03993
2.21952
1.97859
2.27477
2.05315
2.22627
2.02999
2.27093
2.34495
2.04651
1.48073
1.65312
1.92973
1.23654
2.23895
1.33004
2.27661
1.80929
1.36866
1.23639
0.881786
1.86287
2.51611
2.3386
2.43596
2.0847
2.08557
2.31107
2.33345
1.33759
1.49797
1.27467
1.2564
1.50994
1.44218
1.23999
1.25297
1.23442
1.24653
1.22679
1.31428
1.22859
1.23095
1.22504
1.22513
1.22503
1.22509
1.22507
1.22509
1.22504
1.22528
1.22631
1.23257
1.22689
1.22569
1.22552
1.22748
1.22533
1.22591
1.2341
1.22863
1.22578
1.22539
1.22813
2.39063
1.47928
1.83645
2.02266
1.9849
2.11738
2.30843
2.1744
2.02578
1.54359
1.64122
2.04063
2.24095
1.49974
2.17092
1.27958
1.58369
1.8296
1.6356
1.90024
2.08264
2.31018
2.02571
1.74872
1.75839
2.03317
2.29388
1.83013
2.27147
1.94516
1.76284
1.84083
2.0027
2.19905
1.8529
1.30038
1.25618
1.22501
1.27122
1.22504
1.225
1.23392
1.225
1.225
1.2253
1.22501
1.225
1.21139
1.34233
1.225
2.20333
1.22501
1.3282
1.28245
1.30917
1.27433
1.24021
1.29314
1.28313
1.43962
1.35363
1.22527
1.5288
1.22583
1.42131
1.22504
1.31764
1.35218
1.22502
1.23466
1.23549
1.23743
1.22506
1.22605
1.71321
2.39117
1.94259
1.42106
1.36569
1.30169
1.29689
1.3632
1.29735
1.42497
1.36144
1.34884
1.26675
1.25926
1.38754
1.33626
1.25483
1.2467
1.27331
1.2318
1.22969
1.26567
1.25296
1.22827
1.2255
1.22751
1.22517
1.22518
1.22632
1.22601
1.22509
1.95008
1.20875
1.54491
1.75877
1.54522
1.7224
1.99645
1.28104
1.22644
1.22578
1.24443
1.23872
1.22503
1.22508
1.41503
1.29101
1.35595
1.2792
1.36026
1.28968
1.40476
1.32696
1.24861
1.29711
1.23734
1.3184
1.245
1.29224
1.48891
1.23535
1.37887
1.56832
1.37751
1.52292
1.45821
1.34176
1.36688
1.59208
1.40806
1.40501
1.33444
1.5718
1.23488
1.22714
1.23161
1.22548
1.23979
1.22634
1.22881
1.28752
1.43413
1.26812
1.37121
1.29955
1.48884
1.2518
1.22849
1.24429
1.28549
1.28232
1.23492
1.23243
1.2465
1.22553
1.22601
1.23425
1.22886
1.22614
1.22545
1.22847
1.22649
1.24782
1.23309
1.22941
1.2284
1.23288
1.22809
2.0405
1.88232
1.66562
1.8021
1.84098
2.1126
1.74099
1.92445
1.25721
1.84687
1.90619
1.92792
2.14179
2.12383
1.99402
1.22784
1.8447
2.02749
1.84016
2.17426
2.15884
1.7461
1.96721
1.17447
1.20731
2.01621
1.8023
2.14661
0.819083
0.598509
0.609351
0.877415
0.624965
0.634899
0.867719
1.24605
1.86316
1.83998
1.53358
1.22632
1.45502
1.22571
1.22507
1.22505
1.22611
1.30222
1.2253
1.27307
1.22517
1.03888
0.689399
0.75108
1.08027
0.703655
0.995166
0.75464
1.6168
1.22787
1.83293
1.40288
1.22546
1.26399
1.22507
1.2255
1.22501
1.22509
1.25934
1.22511
1.23167
1.22504
1.75676
1.11058
1.34753
1.69308
1.05741
1.50751
1.26561
1.24714
1.22502
1.24424
1.243
1.22503
1.22566
1.22501
1.22501
1.225
1.22503
1.228
1.22502
1.2251
1.225
1.85634
2.16544
2.21137
1.63226
2.02377
1.93987
2.08607
1.225
1.22501
1.2257
1.22516
1.225
1.22501
1.225
1.225
1.225
1.225
1.22501
1.225
1.22501
1.225
2.29911
2.57643
2.59126
2.53768
1.85292
2.34491
2.39513
1.31885
1.23261
1.29569
1.23507
1.31646
1.2343
1.23188
1.23895
2.52644
1.98879
2.41055
2.75141
2.45846
1.26853
2.47143
2.0706
2.47178
2.34991
2.8075
2.53
1.30667
1.22501
1.2511
1.22504
2.52894
1.23397
1.22531
1.22502
1.26507
1.55669
1.22507
2.65149
1.24121
1.22745
1.22502
0.620995
0.881575
0.647876
0.896799
0.668453
0.645328
0.935772
1.32764
0.834293
0.948097
1.19429
0.916822
0.82217
1.3411
2.14245
1.6626
1.98508
1.87158
1.82111
1.53935
1.98158
1.47835
2.04445
1.38845
1.33164
1.42804
1.84637
1.24516
1.31691
1.62385
2.39319
2.11869
1.64997
2.28507
1.40025
1.70527
0.830635
0.863598
0.944696
2.10859
0.969225
2.14954
2.11407
0.986619
1.2332
1.12264
2.27289
1.41655
2.31541
1.3687
1.64198
2.12764
1.91381
1.99073
2.51038
1.31148
1.24211
1.2287
2.38656
2.28088
1.22716
1.22825
1.22501
1.22562
2.46258
1.55153
1.64951
1.22679
1.22626
1.22501
1.225
1.225
1.22819
1.22528
1.22501
1.22501
1.225
2.04919
2.12972
1.56366
1.94091
2.2095
2.2629
2.47912
1.22904
1.26864
1.27387
1.22966
1.2417
1.22643
1.22573
1.26266
1.23019
1.27295
1.22885
1.25379
1.22759
1.2295
1.23817
1.23872
1.34017
1.33273
1.23721
1.33225
1.23652
1.22506
1.22504
1.24883
1.31016
1.22675
1.2888
1.22625
1.23694
1.22503
1.22875
1.2554
1.22553
1.23434
1.22514
1.22503
1.22501
1.22505
1.22669
1.22503
1.22519
1.22501
1.225
1.225
1.22501
1.22514
1.225
1.22502
1.225
1.23879
1.23921
1.33878
1.32395
1.23751
1.32656
1.23711
1.27163
1.27176
1.23114
1.30221
1.23202
1.27348
1.23472
1.30065
1.23405
1.23074
1.22502
0.479448
0.542279
0.936059
1.11912
0.84089
1.86636
0.50649
0.440208
0.457168
0.536006
0.465735
0.508269
0.477781
0.648354
0.536891
0.553277
0.879751
0.725722
0.801447
0.746427
1.0708
1.01205
0.902416
1.20738
1.36664
1.27106
1.06826
0.992001
1.14109
1.67951
1.44777
1.77214
1.95815
1.03749
0.911671
2.45269
0.450923
0.475303
0.469017
0.492052
0.556609
0.751489
0.631964
0.831026
1.07405
1.5107
1.09461
1.39447
1.90327
2.08146
1.86469
2.51957
0.49748
0.480404
0.486488
0.509015
0.469403
0.47601
0.49904
0.449729
0.428556
0.439609
0.435005
0.440982
0.450518
0.424993
0.515255
0.493644
0.511109
0.519899
0.506273
0.485502
0.543383
0.453162
0.484543
0.496413
0.449001
0.498496
0.467144
0.479361
0.576451
0.613614
0.547624
0.660967
0.546048
0.587014
0.613969
0.617568
0.545282
0.615605
0.608311
0.546925
0.530234
0.616612
0.751826
0.826409
0.70895
0.766906
0.824188
0.709175
0.898707
0.858093
0.707813
0.81769
0.712178
0.813974
0.707622
0.838716
1.15021
1.01912
0.951795
1.17969
0.946936
1.04144
1.06888
1.1865
0.94113
1.07128
1.12631
0.928898
0.979545
1.04578
1.16351
1.27152
1.24523
1.30287
1.29579
1.18471
1.41635
1.53543
1.20636
1.35156
1.26869
1.29985
1.16665
1.40187
1.20114
1.14526
1.23991
1.50641
1.38973
1.49412
1.43187
1.77687
1.51639
1.70858
1.62844
1.45384
1.52607
1.63598
1.68841
1.85474
1.94332
1.64688
1.88203
1.8141
1.53504
0.460238
0.447394
0.457624
0.47082
0.503081
0.505677
0.638831
0.554822
0.628152
0.896502
0.725757
0.845703
1.28105
0.987533
1.14631
1.72394
1.30132
1.46322
2.02488
1.64363
1.85643
1.98675
2.03526
2.17917
0.995829
1.35413
1.21548
0.46906
0.456815
0.45725
0.464724
0.464208
0.465548
0.459911
0.48341
0.480401
0.50264
0.51022
0.477629
0.481443
0.510909
0.630455
0.546208
0.556789
0.619076
0.556904
0.616063
0.625743
0.731758
0.70448
0.816739
0.8234
0.70946
0.717975
0.854037
1.10408
0.927521
0.933065
1.00694
0.983091
1.03747
1.04289
1.22041
1.12669
1.2862
1.29344
1.15417
1.15943
1.33593
1.57633
1.43076
1.45076
1.66879
1.45659
1.57139
1.65212
1.61536
1.87453
1.61611
1.92539
1.63748
1.8491
2.58615
2.8803
1.225
1.225
1.225
1.225
1.225
1.225
1.225
1.225
1.22501
1.225
1.22501
1.225
1.225
1.225
1.225
1.225
1.22501
1.225
1.22576
1.225
1.225
1.22501
1.229
1.22501
1.225
1.22641
1.22501
1.225
1.225
1.22501
1.225
1.22501
1.225
1.225
1.225
1.22502
1.22557
1.22502
1.225
1.22524
1.22501
1.225
1.225
1.225
1.225
1.225
1.225
1.225
1.225
1.225
1.225
1.225
1.225
1.225
1.225
1.225
1.225
1.225
1.225
1.225
1.225
1.225
1.225
1.225
1.225
1.225
1.225
1.225
1.225
1.225
1.225
1.225
1.225
1.225
1.225
1.225
1.225
1.225
1.225
1.225
1.225
1.225
1.225
1.225
1.225
1.225
1.225
1.225
1.225
1.225
1.225
1.225
1.225
1.225
1.225
1.225
1.225
1.225
1.225
1.225
1.225
1.225
1.225
1.225
1.225
2.49246
0.982393
2.51338
0.926432
0.933495
0.881226
1.51999
1.93928
1.3338
1.11369
1.81186
1.34765
0.754701
0.935897
1.12304
0.65884
0.884276
1.0103
0.819443
1.02126
0.963362
1.01662
1.42345
1.24631
1.38568
1.26584
0.920142
0.851027
1.35162
1.27332
1.85712
2.21662
2.48379
1.67908
2.42687
1.94702
2.5647
1.57139
0.860359
0.836213
0.891171
1.01913
1.05743
1.01283
1.00658
1.36564
1.97005
1.75558
1.28116
1.88802
1.39119
1.734
1.2698
1.49276
1.90628
1.79613
1.42979
1.29224
1.75375
1.61815
2.01864
2.50509
1.49398
2.07764
1.7775
1.70973
2.09643
0.919615
1.23036
0.816823
0.486674
0.508794
0.579212
0.724117
0.878027
1.0105
1.00659
1.14815
0.494589
0.574198
0.583788
0.601928
0.537828
0.637001
0.68613
0.749699
0.635394
0.761253
0.814709
0.697954
0.919233
0.793872
0.89397
0.942453
0.82627
0.93205
0.989107
0.862059
1.06224
1.02634
1.08064
0.961477
1.00081
1.21247
1.06719
0.446689
0.464152
0.47081
0.436411
0.442339
0.468631
0.462658
0.527941
0.57279
0.605862
0.608269
0.549922
0.515798
0.546705
0.464867
0.483726
0.510791
0.453745
0.477277
0.505762
0.480413
0.454665
0.445737
0.440092
0.422051
0.427607
0.428643
0.433777
0.650286
0.717823
0.643167
0.673211
0.68174
0.756326
0.744092
2.29469
2.4212
2.3303
1.96007
2.07604
2.27363
2.30802
1.96234
2.116
2.22669
1.22502
1.22501
1.225
1.225
0.48574
0.47748
0.485712
0.476824
0.499196
0.530367
0.500103
0.531932
0.67187
0.581061
0.58622
0.659741
0.795266
0.905678
0.767884
0.962677
1.43202
1.07199
1.17725
1.2632
1.72072
1.66326
1.45593
2.01643
2.46781
1.91171
2.29011
2.18609
2.51298
2.45358
2.41531
2.13655
1.225
1.225
1.225
1.225
1.225
1.225
1.225
1.225
1.225
1.225
1.225
1.225
1.225
1.225
1.225
1.225
1.225
2.15923
1.7403
1.97321
1.22529
1.22501
1.22501
1.225
1.225
1.225
1.225
1.225
1.225
1.225
1.225
1.225
1.225
1.225
1.225
1.225
0.478357
0.464474
0.483538
0.43843
0.444061
0.459906
0.464189
0.562291
0.514903
0.549467
0.56275
0.495537
0.498589
0.552166
0.800769
0.878883
0.875414
0.793841
0.830348
0.907707
0.890432
0.705094
0.697656
0.61947
0.713114
0.630574
0.625414
0.710231
0.425421
0.430057
0.424044
0.439018
0.444124
0.459468
0.453736
0.464116
0.469335
0.484723
0.444162
0.449285
0.461574
0.467137
0.491835
0.508281
0.494969
0.459015
0.478515
0.477032
0.497536
0.868667
0.869673
0.779376
0.886709
0.801133
0.799456
0.895875
0.434561
0.462577
0.457758
0.453568
0.474587
0.493573
0.470259
0.412619
0.417563
0.423591
0.420428
0.425127
0.427163
0.432445
0.526405
0.578829
0.602582
0.513645
0.570684
0.53595
0.599938
0.593127
0.501593
0.497419
0.555516
0.512344
0.570082
0.533326
0.654356
0.795076
0.689146
0.6498
0.742102
0.687863
0.790936
0.632772
0.666459
0.74446
0.629821
0.714374
0.644257
0.72662
0.435272
0.436349
0.45148
0.459966
0.459387
0.469552
0.444769
0.439921
0.451271
0.449967
0.455524
0.458017
0.438816
0.444621
1.01971
1.05264
1.03568
0.949128
0.95823
0.982961
0.959184
0.491101
0.501492
0.499102
0.559185
0.571508
0.511041
0.561505
0.626385
0.637724
0.726358
0.739908
0.649954
0.638379
0.726026
0.843498
1.01586
0.90782
0.838278
0.93958
0.898512
1.0082
0.792992
0.823955
0.909746
0.904763
0.804677
0.812902
0.907716
0.47464
0.48308
0.468148
0.472528
0.492597
0.498879
0.457901
1.05026
0.93624
0.963838
1.01315
0.957068
0.997844
1.09211
0.513452
0.696272
1.29204
2.8121
0.613737
0.68305
0.537495
0.753539
1.22711
0.935957
1.49939
2.6579
1.76598
2.89145
0.539726
0.632239
0.524574
0.621922
0.640239
0.532877
0.531038
0.556385
0.641269
0.703969
0.582825
0.660109
0.54898
0.592559
0.749462
0.779972
0.639899
0.863245
0.652863
0.903343
0.729
0.891724
1.01921
1.35713
1.01897
1.08934
0.854527
1.09045
1.69636
1.72352
1.22375
1.8464
1.3604
2.226
1.46972
2.1059
2.25242
3.18221
2.05375
2.79743
1.74173
2.54686
2.94932
3.25503
2.40246
2.9122
2.84402
2.94242
2.64923
2.36476
2.81862
2.66124
2.70178
2.00805
2.53326
2.39459
2.75398
2.09594
0.837801
2.39376
2.31667
1.22504
1.225
1.225
1.225
0.526903
0.630706
1.62636
2.3604
1.47038
1.19485
0.545115
1.22346
1.43697
0.832716
1.96989
2.14648
2.2305
2.14534
1.71515
1.73457
1.26081
1.23005
1.24792
1.41379
1.03782
1.47827
1.06308
1.52702
1.39783
2.00305
1.58182
2.19559
2.25228
2.18235
2.28002
1.28717
2.1893
1.22705
1.40698
1.22513
1.22506
1.22557
1.24279
1.22799
1.22603
1.225
1.225
1.225
1.225
1.225
1.22812
1.225
1.225
1.22501
1.225
1.225
1.225
1.225
1.225
1.22501
1.225
1.225
1.37263
1.225
1.225
1.225
1.225
1.225
1.225
1.225
1.225
1.225
1.225
1.225
1.225
1.225
1.225
1.225
1.225
1.225
1.225
1.225
1.225
1.225
1.225
1.225
1.225
1.225
1.225
1.225
1.225
1.225
1.225
1.225
1.225
1.225
1.225
1.225
1.225
1.225
1.225
1.225
1.225
1.225
1.225
1.225
1.225
1.225
1.225
1.225
1.225
1.225
1.225
1.225
1.225
1.225
1.225
1.225
1.225
1.225
1.225
1.225
1.225
1.225
1.225
1.225
1.225
1.225
1.2403
1.225
1.22501
1.225
1.225
1.225
1.225
1.225
1.225
1.22585
1.225
1.225
2.10465
1.225
1.225
2.26127
1.22502
1.225
1.225
1.225
1.225
1.225
1.225
1.225
1.225
1.225
1.225
1.225
1.225
1.225
1.34761
1.225
1.225
1.225
1.225
1.225
1.225
1.225
1.225
1.225
1.225
1.225
1.225
1.225
1.225
1.225
1.225
1.225
1.225
1.225
1.225
1.225
1.225
1.225
1.225
1.225
1.225
1.225
1.225
1.225
1.225
1.225
1.225
1.225
1.225
1.225
1.225
1.225
1.225
1.225
1.225
1.225
1.225
1.225
1.225
0.433218
0.511588
0.516373
0.452304
0.456368
0.518943
0.524507
0.797829
0.817875
0.916426
0.923045
0.941653
0.836199
0.819757
1.01299
1.16022
1.10441
1.04703
1.14677
1.12114
1.22968
1.05929
1.05572
1.12118
1.10612
1.17408
1.18834
1.05918
0.576962
0.58521
0.524497
0.535098
0.601267
0.541802
0.604539
0.750432
0.755228
0.664412
0.688472
0.786215
0.685875
0.778806
0.442934
0.525289
0.544077
0.463291
0.536534
0.479377
0.559709
1.09201
1.0905
0.983725
1.00132
1.15971
1.02235
1.01761
0.945672
0.957926
0.852124
0.88557
0.988448
0.87641
0.98045
1.05667
1.12629
1.1997
1.08124
1.05982
1.24876
1.17396
1.00058
1.02918
1.19
1.04508
1.0659
1.15605
1.21596
0.485593
0.57829
0.632109
0.509443
0.598372
0.655267
0.556251
1.10838
1.1624
1.18373
1.30732
1.3957
1.23302
1.32434
0.593258
0.700782
0.776126
0.72701
0.806747
0.619132
0.69374
2.25705
2.40223
1.225
1.225
1.225
1.225
1.22501
1.225
1.225
1.225
1.225
1.225
1.225
1.225
1.225
1.225
1.225
1.225
1.225
1.225
1.225
1.225
1.225
1.225
1.225
1.225
1.225
1.225
1.225
1.225
1.225
1.225
1.225
1.225
0.563828
0.629294
0.536814
0.552255
0.538376
0.573257
0.532316
0.572509
0.582491
0.539785
0.530851
0.556284
0.592301
0.642555
0.590105
0.602932
0.557206
0.591495
0.600445
0.865297
1.50871
2.27669
0.645704
2.16161
0.727582
2.31252
1.67334
0.573991
1.1423
0.62876
1.36337
0.558187
1.17261
0.8076
2.46769
1.28944
2.72358
1.6072
0.66572
1.39071
1.16366
2.32182
0.952121
1.94404
1.51322
2.67761
2.23696
1.91993
2.47157
1.21415
2.13241
1.91058
2.38698
2.16268
2.36062
2.43856
2.42447
1.95028
2.10529
0.956697
0.668369
0.865888
0.655702
0.67947