/*--------------------------------*- C++ -*----------------------------------*\
  =========                 |
  \\      /  F ield         | OpenFOAM: The Open Source CFD Toolbox
   \\    /   O peration     | Website:  https://openfoam.org
    \\  /    A nd           | Version:  9
     \\/     M anipulation  |
\*---------------------------------------------------------------------------*/
FoamFile
{
    format      ascii;
    class       surfaceScalarField;
    location    "0.0012";
    object      phi;
}
// * * * * * * * * * * * * * * * * * * * * * * * * * * * * * * * * * * * * * //

dimensions      [0 3 -1 0 0 0 0];

internalField   nonuniform List<scalar> 
28984
(
1.09675
6.23544
10.6655
-5.82282
-10.5857
-3.77918
3.79344
4.87159
8.04971
-4.7748
-8.43859
-0.594537
-0.19186
0.0616559
0.0929301
0.126659
-1.43039
-1.96421
0.367822
0.593323
-0.673156
-4.25733
0.00951206
-0.0333361
-0.059885
0.0167369
-0.301153
0.00592668
7.48436e-07
-2.77046e-05
-2.31952e-06
-3.15982e-06
6.26736e-07
3.00896e-06
-0.00176056
-0.00018962
2.12736e-05
-7.10089e-05
3.14508e-05
7.07798e-05
-1.4825
1.04244
1.01315
-1.58291
-5.23938
0.718917
1.55999
2.94889
6.35655
-2.79274
-1.59074
-7.31767
-0.17942
0.0030369
0.00494465
-0.0178785
-0.00897656
0.00850672
-0.00355326
-0.00021888
6.83433e-05
-0.000244961
4.04105e-05
0.000142794
-3.16777
5.60054
9.27367
-9.25116
-5.28265
0.292443
-4.80481
-1.34798
0.49264
-1.87855
0.566172
-9.83753
0.727209
4.05674
-4.74994
5.89039
2.79867
-5.60343
-2.89233
5.67388
-8.17928
4.60777
-6.98241
1.13131
9.36388
-9.71753
6.97384
-0.436077
-1.18252
0.0147257
0.0509054
0.0781783
0.000464166
-0.0087837
-0.0531322
-0.00366898
0.000817878
0.00165612
6.14556
10.4893
2.01512
-10.2162
-5.70331
1.16915
10.3246
6.71084
-10.2448
10.173
2.24424
6.62312
-10.0737
1.19059
6.22398
10.6808
-5.80069
6.09262
2.32244
10.4365
-5.71867
-1.17508
2.30467
6.25881
9.8474
6.43131
10.1276
-0.812123
0.288367
0.351284
-3.18338
-1.48883
0.000296398
-0.019408
-0.0027081
-0.00268555
0.000770974
0.000384882
-0.995828
0.0286082
0.0374146
-0.220079
0.0636317
-0.00420831
-0.00412672
0.000627851
-0.0154238
0.000278451
0.000385556
-3.91256
0.830902
1.44759
-6.28979
1.62068
-0.000566897
-0.00400123
4.07391e-05
5.5692e-05
0.000119133
2.32448e-07
-6.67365e-07
-1.82567e-06
-2.74267e-07
4.12839e-07
5.4572e-07
2.61202
5.19824
1.63186
-2.581
-6.98054
1.30759
4.7048
2.79427
-1.41385
-6.87308
3.00537
2.18324
1.2346
-6.39706
0.863413
1.61957
1.86985
-2.02126
-1.06214
0.93921
0.599263
0.890392
-1.51939
0.427761
0.746105
0.691971
-0.689374
0.277802
0.185496
0.323055
5.94758
9.91639
-9.59718
-5.41592
-3.3443
8.83556
3.79421
5.73769
-9.02262
9.68606
6.28879
-9.63141
-3.33145
5.07544
3.65551
8.53639
-5.0256
5.75233
9.76304
-5.48669
3.08714
5.75252
8.91466
3.20617
4.70261
7.0944
-0.00420807
0.00124373
0.00229366
-0.0515154
0.000722914
3.0154e-07
4.73607e-07
-4.49349e-06
-5.02724e-07
6.23858e-07
-0.00600173
-0.00087556
0.000243766
7.78275e-05
0.000121326
2.46893e-06
-6.08097e-06
9.14133e-07
2.10958e-06
-2.61802e-05
-2.76453e-06
-0.0011329
-0.000335784
-5.41694e-05
4.81889e-05
1.26681e-05
2.93763e-05
-1.26025e-06
-2.84842e-06
3.17779e-07
7.00908e-07
1.41657e-06
1.8274e-07
-1.21067e-06
-8.10638e-06
-1.67737e-06
-3.5121e-07
-5.29064e-07
-1.43326e-06
-4.89162e-07
-3.7868e-07
-2.84014e-07
-2.76745e-07
-3.03216e-07
3.16096e-07
5.70805e-07
1.18212
10.0201
-9.983
-6.84577
9.06901
2.21648
-9.60595
6.77279
9.82837
2.31128
-9.89852
6.02569
-1.08075
2.08235
8.70658
0.814327
-6.28615
6.83178
5.30712
1.60364
5.85026
4.79599
9.07007
1.12963
5.72704
-5.63991
-9.42626
3.61379
1.46174
-4.48956
4.8708
5.50906
2.19391
-5.48576
7.66644
-0.965794
1.84033
5.02883
0.381195
-8.3646
2.28663
2.11658
0.828933
1.66901
1.51142
5.36589
0.902011
2.02725
-1.13479
-6.16226
-1.08239
0.268375
0.150095
0.206282
-2.46295
0.991045
0.646884
-5.21254
-0.151338
0.0171444
0.0250977
0.0409589
-0.0567604
0.104677
0.208979
-0.274351
0.0495947
0.0360288
0.0768813
0.00541793
0.0079488
0.014207
2.02489
3.14286
-2.23125
-6.4313
-0.827294
0.362729
0.33222
-3.19377
0.191046
1.2007
1.25433
-5.50497
-0.191797
0.0577011
0.0790134
-0.198364
0.0329741
0.309838
0.343321
-0.817134
0.0422735
0.0682301
0.0970246
0.0114743
0.0208977
0.00743495
3.83454
5.87028
2.79122
-7.63214
-4.15217
3.58784
7.23587
4.73568
-8.20545
2.95998
3.80439
5.92266
-4.15367
3.06872
1.65129
2.74099
-6.88002
1.36844
0.654002
1.21501
-2.68221
1.54693
2.56583
2.501
0.183424
0.258029
0.325939
-3.23785
7.96096
3.55912
-8.81218
-6.416
8.10176
-9.10674
6.08868
9.19963
-9.38975
5.17189
2.61673
7.35619
-1.71176
-3.31288
0.500443
0.86633
0.813723
3.11873
3.20977
2.05998
3.68748
0.0871212
0.142888
-0.455649
-0.219895
-0.0660995
0.00156029
0.000992006
-0.00571009
0.00290323
0.0470368
0.0301357
-0.162777
-0.0480958
0.000683678
0.000999467
-0.00208578
0.0020708
0.0202909
0.0299438
-0.0584873
0.0172584
0.00657763
0.00933506
0.000223819
0.000318457
0.000697482
-2.78863
3.48917
2.45443
-4.18585
-8.17624
2.26044
-3.59599
2.18071
4.84555
-5.06043
5.11255
2.14795
3.91133
-0.332576
-1.59344
0.0773872
0.0485156
0.119747
0.521908
0.615506
1.75395
1.0031
-0.316057
0.0799546
0.0536154
-1.01259
-0.225106
0.0903979
-1.10728
0.0387041
0.375661
-3.27043
0.0121157
0.00775896
0.021983
-0.00115835
-0.00209454
0.000333353
0.000686927
0.000204806
0.00187966
0.00363042
0.00419753
0.00135662
3.35357
3.47975
-0.616102
1.29026
0.133571
-4.75184
0.535959
0.264469
-3.96431
1.14667
-0.825541
-0.270624
0.0182068
0.0291486
0.0476931
0.519235
0.754082
0.192285
0.362192
1.70553
1.54516
-6.0577
-3.05265
-0.208512
0.0582517
0.0285353
0.0398805
-0.801349
0.398015
0.339975
-3.49594
-0.0669782
0.0114406
0.00839344
-0.0796119
0.0932766
-0.565449
0.130862
0.0112533
0.0131218
0.021837
0.00104199
0.00137848
0.00248631
2.6097
4.91267
-7.62823
-0.78535
0.142817
0.0822865
-1.60019
0.110815
0.785917
0.445423
-4.93879
-0.607058
0.0544137
0.111005
0.0799019
0.372013
0.660293
0.0348625
0.0290597
0.0530795
0.00305225
0.00594441
0.00350452
0.0296717
0.0456673
0.0198113
-0.637719
0.00694163
0.0174445
-0.312076
0.0110146
0.0022063
0.00339023
0.00562852
0.00206713
-0.117085
0.00338494
0.0010613
0.000677655
0.00199068
0.000244176
0.000397288
0.000721545
7.27531e-05
0.000124708
0.000231315
1.71947
1.55275
1.03185
-0.0410342
-0.387816
0.00535883
0.0166545
-0.146619
-0.299888
0.0194197
0.033417
-0.325737
-0.0734984
0.00704499
0.0128769
0.250287
0.11174
0.184207
-0.00645649
0.00193278
-0.0071086
0.00112646
-0.0186509
0.000372683
-0.00134983
0.000736227
0.0108708
-0.0406126
0.00440651
0.00141374
0.0021987
-5.04759e-05
-0.00085358
1.52078e-05
9.80883e-06
3.60389e-05
7.82355e-05
0.00017665
0.000391612
0.000252781
0.555725
1.09973
-2.52507
-0.0910822
0.0016729
-0.0104962
0.0016612
0.00351596
0.0601972
-0.358423
0.0491472
-0.252196
0.00396792
0.0050342
0.0100372
0.128452
0.183585
0.0154434
0.00785927
0.00857395
0.000231588
0.00023236
0.000516192
-0.00547024
0.000589327
-0.00207568
-0.0103981
0.000134257
-0.000418948
0.000413728
0.00380319
-0.0123064
0.00171642
0.00349197
0.0012243
-0.000578626
-6.07854e-05
5.72964e-06
1.02437e-05
2.51549e-05
0.0001869
0.000276692
3.64548e-05
0.000139328
0.00716296
0.0122358
-0.235124
-0.000435925
0.000258061
-0.00622303
7.57612e-05
0.00014124
0.00142302
-0.0331899
0.000804988
-0.000146253
4.56344e-05
2.62204e-05
9.22411e-05
0.000253887
0.000495708
1.57758e-05
3.01004e-05
5.71766e-05
3.13134e-06
1.1094e-05
-0.0364256
0.0067533
-0.144129
0.00307304
-0.046796
0.00739977
-0.162548
0.00470669
0.0664763
-0.920941
0.00150628
0.00141069
0.00270806
-0.00014231
-0.000148211
9.84621e-06
2.5305e-05
1.46981e-05
0.000274985
0.000151181
0.000106583
0.000266472
0.0416653
-0.680388
-0.0537847
0.0520195
-0.342944
0.0503904
1.15183
-7.94827
9.07263
-9.09067
8.00566
-3.76858
-1.14204
4.31416
8.16297
1.95685
-7.45099
-3.82274
-2.02634
1.76926
1.56465
-5.66704
0.787976
-3.69948
-2.12668
4.20753
7.1769
1.7755
-6.94516
-3.35038
-2.24544
3.20049
5.2024
-6.39272
2.26418
0.82171
2.90938
13.4244
-13.326
-2.20189
-3.09287
-9.11828
3.2671
2.71137
-2.18165
9.36073
-1.47901
-7.52642
1.43948
1.99192
-1.72388
5.60577
-0.478378
-0.274813
0.032861
-0.116568
0.0337746
0.0332366
-13.2141
0.690374
3.15178
-2.53052
12.6767
-1.94011
-9.58311
2.80083
-2.25715
10.4029
-2.17067
-1.22898
8.13887
2.01311
2.68519
-7.47814
4.81994
-4.30511
0.951987
-11.8166
11.6547
3.61094
4.38893
-3.89236
-2.81885
-9.74699
9.8354
4.80161
-4.12146
-0.691163
11.6329
0.670784
-11.5536
-3.22108
-1.07192
8.0918
1.88393
-7.38272
-1.92514
-2.34048
6.6612
2.36286
2.31554
-5.74304
-1.87422
-7.94004
2.22886
-1.8887
6.76258
-2.17827
-2.04087
7.35816
1.95126
2.48406
-6.02274
3.97407
-3.64813
-8.89356
3.65636
8.74337
3.2867
-2.75627
-2.3388
7.30065
2.36853
-5.99226
-3.03161
-2.10884
7.35382
1.82832
-6.55757
0.685676
1.48414
-2.22019
-1.35794
-6.08073
1.47108
2.12865
-1.95552
-2.21619
7.35244
2.74866
-6.50895
-1.07093
-4.0089
0.481746
0.300581
-0.671852
0.522322
2.58626
-2.30845
7.13493
2.85744
-6.81863
3.76035
-1.83279
-3.32514
6.99624
2.08628
-6.88491
-2.45564
-3.20641
6.18027
-6.65167
2.65025
0.743757
-1.61979
-4.69794
0.426192
0.690102
0.0115145
-0.0580278
-0.363513
-0.0423919
0.00745899
0.0209653
2.68789
12.4758
0.854672
-12.166
-2.00961
0.764491
13.2073
3.6337
-13.1652
12.2716
0.760622
3.39913
-12.048
0.720502
3.11218
13.3903
-2.40826
3.01016
0.704939
12.5356
-2.33009
-0.699408
0.717662
3.67099
12.2953
3.80251
13.1386
-0.684464
5.40363
11.2417
0.711404
-11.2165
1.06366
-11.3287
5.30954
11.3279
3.72961
-3.1799
-9.6814
4.77948
9.66138
6.88316
-6.59451
0.822191
10.2251
-10.4804
3.21884
5.86971
-5.33556
-2.1536
8.80954
-7.92108
6.42572
-6.21933
-10.3238
1.17483
10.1245
3.20313
4.69537
-5.0697
-8.83408
-3.08585
7.08439
-1.36542
8.23738
2.07794
-7.586
-1.68063
-2.40027
10.2685
3.05341
-9.80043
10.4197
-9.92955
-1.78302
-1.19678
2.48525
2.05029
8.88534
-1.98744
2.76988
10.797
-2.16506
1.19491
3.37531
10.5774
2.05658
2.99688
8.81686
-0.720043
11.9934
0.691003
-11.8408
-4.3593
12.4971
5.03682
-12.5301
12.8897
-12.8973
4.28386
-0.694213
0.74733
11.987
0.69717
-4.45188
5.04695
12.3296
0.807522
4.85331
11.5881
12.7797
-2.41022
6.57952
2.42975
-5.75296
-1.55675
-1.97684
6.9251
2.39069
-6.09742
6.89779
-6.15113
-1.58921
2.40785
2.27057
7.8939
-1.83404
2.21498
2.41972
7.87716
-1.78258
-2.43599
2.44403
2.68885
8.13575
2.73915
8.03278
-1.96004
6.94508
2.37384
-5.81286
2.21427
6.74438
-5.79439
-1.57309
7.10666
1.99199
-6.00778
-1.63337
-2.16411
2.38748
1.92588
7.96875
-1.86847
2.2783
8.08392
-1.80299
2.11325
2.81772
8.04762
1.8668
2.94605
7.77863
-2.47353
3.93976
7.76588
2.49916
-6.35509
-8.74152
3.68832
4.14477
8.26826
0.272186
-0.84683
-3.89832
0.472115
0.477029
1.36233
-4.4339
-2.31224
4.78081
-6.58832
5.78165
-5.25021
3.54262
8.29659
-7.95618
2.55626
-3.79714
-7.23147
1.53697
2.48999
0.00103242
0.00136517
-0.0113263
-0.0577828
-0.011152
0.00246418
0.692968
3.19012
-2.53375
-12.4762
3.0946
1.02195
-2.5047
12.1917
3.11278
0.794976
-2.49982
12.1638
-0.693779
0.847274
3.70739
0.717864
-12.8939
3.74686
12.3039
1.19905
3.66903
11.8876
3.82733
-2.12899
7.41313
2.61737
-6.26506
-1.98874
7.43566
2.11993
-6.37681
-1.74756
7.39636
-6.21926
-1.7031
1.9364
2.44272
7.72236
-1.92108
2.45613
2.19854
7.58473
-1.93387
1.88036
2.96835
7.58443
2.93757
2.15994
7.35122
2.89235e-05
-0.000559535
-0.00118411
-4.40984e-05
4.62901e-05
4.79688e-05
1.7393
-1.29927
4.82847
5.59079
-5.51391
-4.84957
0.462607
-3.37692
-0.48041
0.379794
-2.57687
0.571027
0.147116
-4.50756
0.802248
-3.45913
1.23183
-0.00656402
-0.425349
4.98474
5.66655
0.858723
-5.52088
-4.91871
0.0184056
-1.24043
0.127822
-0.813651
0.112887
0.000608494
1.45609e-05
-0.00336084
-0.00154343
0.000131545
0.000135784
2.41319e-06
-1.11491
8.08604
1.94085
-7.40983
-3.71236
9.86195
4.34797
-9.45315
10.0766
-9.62861
3.9607
1.24254
10.345
-1.37336
-3.51671
2.29882
4.034
8.83682
4.50328
10.1027
2.13003
8.7919
-1.76604
3.96319
6.65565
2.00549
-6.77273
-2.02097
0.104066
0.150544
0.207972
-0.0905054
-0.00775552
0.00209815
0.00135825
0.00420304
-0.656857
-0.332568
0.125772
-1.34839
0.0573859
0.0975594
-3.93694
1.02794
2.81462
-6.0032
2.63247
-0.00336668
-0.0173299
0.000242441
0.000394425
0.000716715
-4.58142e-05
-0.000257146
-1.58015e-05
2.98612e-06
5.68327e-06
1.14367e-05
-2.30429
6.89988
2.3302
-5.80567
-2.85137
7.27455
3.38358
-6.25949
7.03732
-6.11314
3.24589
-2.53144
2.53135
8.20358
2.72128
-3.25342
3.8202
8.5217
2.70274
3.85151
8.20026
8.25823
5.64244
12.0257
-12.0828
0.688367
11.4841
6.17346
-11.5945
10.7939
0.805822
5.92862
-10.8012
0.705005
5.58838
11.7652
5.3691
0.913586
11.0928
-0.719296
1.12997
5.8028
10.5865
6.01844
11.098
-10.9794
2.96289
-2.40409
11.1168
-1.41098
2.67429
2.38614
-2.15641
2.93703
-2.36552
10.7494
1.52308
3.493
-2.14962
-9.59045
3.28378
3.35038
10.2885
3.50575
10.9585
2.53038
3.19489
4.276
11.7609
-0.702248
0.934233
0.837493
-12.4151
11.9812
-11.3193
-4.22087
1.66608
4.73889
11.328
0.714015
-4.43321
4.96912
1.0852
4.79359
1.41329
11.5815
-2.14365
7.43238
1.89521
-6.17942
-2.84621
7.50494
3.43556
-6.18973
7.3501
-5.92003
3.39486
2.11029
7.90772
-2.13022
-3.44619
1.72726
3.79935
7.31411
3.88305
7.72119
1.80801
7.60684
-0.424839
0.0242045
0.0267819
-0.193018
0.0278475
-9.21373e-06
-1.79138e-06
-1.56864e-05
2.23681e-06
7.01866e-07
2.05144e-06
-0.000266809
-0.000544774
1.4359e-05
2.20089e-05
2.16789e-05
2.15684
4.65829
5.46897
-5.40808
-4.75226
-2.39824
0.289454
0.216588
-1.85025
0.314779
-2.67631
3.1054
4.1185
-4.92738
-4.27579
2.64266
-0.0354406
-0.164314
0.00802914
-0.136611
0.0111544
0.00734906
3.37722
-3.12089
-6.80753
7.04412
-7.97222
6.23778
1.02098
7.14752
9.81997
-9.85688
3.71254
-2.64396
6.52148
8.83229
-8.21649
-3.68202
-2.45479
0.0978567
0.332861
0.394618
-10.0192
1.08024
6.27966
9.06477
0.00349442
-0.26123
-0.0274429
-0.0988071
0.00697299
0.0106201
2.05444
-7.95791
-2.61467
3.30381
3.67004
4.9308
9.65174
-9.30259
-1.35542
8.28501
2.20159
4.83501
-7.57808
9.43772
5.42698
-9.16354
-1.61926
4.54202
2.60294
8.97468
4.98047
9.86212
1.97094
5.39706
9.65288
3.06622
5.05174
9.19484
2.72037
2.52649
-2.02383
-8.71033
2.62424
2.92714
-2.12824
8.6821
2.52638
2.68421
-2.00084
8.55512
-2.85422
2.78325
3.06725
3.4264
-9.13053
3.2167
9.2094
2.9096
3.04684
8.40055
3.06075
-3.22598
7.10716
3.78417
-6.83481
-1.90913
7.14609
2.12583
-6.80009
7.33092
-6.49457
-3.39589
1.72004
3.62232
6.87131
1.81553
7.31656
3.27244
2.07219
6.97994
1.89235
3.40096
6.39547
4.02145
10.5085
1.69994
-2.44788
-9.6606
3.45965
10.0839
-10.2998
-4.02351
4.53116
10.6691
-1.96394
-3.71247
3.10513
4.23352
4.50954
10.8259
2.76835
-8.30307
2.47247
-2.04919
7.83733
-2.1233
2.54167
1.81263
-2.03486
2.56915
-2.03701
8.11076
2.05935
3.06196
-1.77552
-7.6043
1.30644
2.39095
5.62785
2.75541
7.21581
1.71662
2.96653
-2.39419
6.98232
2.87052
-6.92273
3.0485
-2.55854
7.14147
-6.92932
3.1794
-1.87405
7.33292
-6.6112
-1.79778
-2.61512
2.29576
6.74333
2.83594
-1.89385
2.43219
7.28775
-1.94282
2.48525
2.82539
6.95164
2.5561
6.23296
2.62102
0.700813
10.8493
-11.0596
-6.34607
9.8023
1.35309
6.67097
-9.89391
10.2612
0.989683
-10.383
6.18165
-0.893789
1.51666
10.216
1.05791
-6.34521
10.2452
6.6857
1.8824
10.0745
6.55282
10.5841
-10.9282
5.23259
1.95638
11.0611
0.815873
5.4132
5.26397
1.37625
10.6903
-0.970505
1.70772
5.6992
1.15653
-11.0015
5.79701
10.9925
2.2142
5.71476
10.7262
5.81871
3.97123
7.65405
-6.5175
2.7603
8.12309
4.59852
-6.89219
7.89888
2.77111
4.64357
-6.94147
3.0277
4.4118
8.67495
4.35027
2.95692
8.06364
3.35856
4.94158
8.59351
3.16585
4.67302
7.94824
4.12222
7.51851
-6.67167
-2.24516
6.95876
1.70656
4.42993
-6.99104
7.38166
4.61045
-7.1494
-2.11263
3.93384
1.59983
6.83115
4.18443
7.50241
2.09246
4.27609
7.08483
1.42112
3.75253
5.76725
1.83537
2.45478
-1.9878
-7.01989
1.68077
1.42293
-1.52025
3.85559
2.32916
2.04297
-1.92126
-7.03845
1.20813
2.02465
3.91728
1.72439
2.797
6.43763
2.58617
1.87941
1.5237
1.0706
2.0497
3.5499
8.37313
-3.04064
2.88705
3.56237
-9.06733
9.05149
3.3183
-3.60755
4.11345
-8.20738
-3.32215
2.86168
3.43514
7.27705
2.99874
3.92205
2.90363
8.00218
-1.71342
8.49411
2.6249
-7.73377
-5.82994
9.07032
6.19788
-8.8103
9.21928
-9.00018
5.79418
2.40829
9.59874
-2.90158
-5.61553
9.02253
3.74542
6.10907
9.6323
6.27138
9.25186
3.5177
5.63753
4.96813
-5.47385
-4.88106
-0.0250961
0.393971
4.55515
5.59865
-4.68601
-0.0218216
0.344898
4.8143
4.37817
-5.01977
-0.0191033
4.78153
0.729329
4.32346
-5.03389
4.53985
0.819595
5.58729
-4.71372
-0.252715
0.55064
3.32696
2.31348
3.47943
2.46005
-0.0143938
3.44056
7.79724
1.99547
-1.63108
-7.03851
1.05739
3.59172
-7.33412
-2.83847
2.56135
4.07199
-1.92892
-3.21894
1.40877
3.23616
3.62859
6.08524
1.58513
-3.32623
6.71795
3.63055
-6.79164
2.5511
7.00619
-6.87545
6.67751
-6.78755
2.88616
3.0415
2.29484
6.43167
-1.99924
-2.61208
2.25503
3.19798
1.69446
3.01239
5.50552
5.24508
2.28056
-10.1928
5.04324
10.386
-2.32657
4.7699
3.44194
4.95941
10.143
2.77361
5.41285
-3.35386
-9.43918
5.02081
3.78111
9.24261
5.48265
10.184
5.27936
3.65109
4.94057
5.65021
-5.53109
-4.91005
-1.09827
4.38695
1.41389
3.76642
-4.89509
-1.23891
4.21202
1.61295
5.28221
-4.62485
4.64788
4.13851
-4.98984
4.42895
5.48705
-4.68992
0.815548
1.88759
2.95657
0.976884
1.35629
2.34524
10.4883
6.14145
-1.09717
2.01659
1.19055
-10.6639
10.6783
1.16923
-6.23101
6.70594
-6.08792
-10.173
2.30436
6.25322
9.84436
2.32265
10.434
2.24478
6.61776
4.10828
6.93281
-6.90099
1.66433
6.50492
4.2047
-6.75915
1.53638
3.61304
6.15841
6.03649
1.81046
3.9271
-6.64023
3.2035
1.61345
5.20864
1.24066
3.11523
4.24545
1.13545
2.26637
2.45424
6.98817
9.56684
1.78403
-9.41193
1.13749
9.57399
7.48487
-9.40126
9.5171
2.04442
7.41492
-9.12077
1.1473
7.11256
9.98353
7.05241
2.13076
9.89888
-1.17502
2.28107
7.31368
9.60696
7.44448
9.71846
-0.0221865
-0.0172792
0.00187676
-0.0400204
0.000907321
0.0014921
-5.64167
2.06622
3.6336
-6.7726
3.53573
3.87653
6.00798
8.14264
-8.11211
-0.0226279
-0.00662056
0.000281052
0.00045142
0.000734537
-4.9006
0.369868
0.603229
0.656869
-4.75922e-06
-9.98587e-07
-2.01486e-06
4.2674e-07
1.27685e-06
1.43495e-06
-0.00670128
-0.0013995
0.000146215
0.000105663
0.000264042
-6.35452
0.861046
1.86776
-2.95177
1.30382
2.79441
1.55584
2.61577
5.19967
1.62966
-3.00391
-0.940487
0.18538
0.27723
0.322875
1.23269
2.18411
0.599497
0.89139
5.25311
4.41984
2.48464
-5.30679
-4.59993
1.63583
3.9178
3.11761
-4.73145
1.90168
3.83475
4.91412
-4.51164
3.06432
2.05157
4.23929
-4.33193
3.12631
1.68708
2.19292
-4.43671
0.96006
0.877656
1.51676
0.705541
0.47231
0.70031
-6.20949
1.16946
-1.19508
1.6789
-2.18003
1.70088
1.96834
-1.5274
2.1004
-1.78787
5.04253
1.91631
2.23707
-0.585489
-2.25091
0.200089
0.117371
0.244096
0.821303
0.822479
1.58916
1.43129
9.915
5.94386
3.16946
-3.33022
-9.2729
3.65434
8.53148
-3.34476
-5.59616
5.73282
3.79401
-5.74744
-9.68561
5.74667
8.91015
9.76037
6.2843
3.77981
3.17722
8.36519
-7.38293
-5.12668
7.68508
3.3924
5.34898
-7.68624
7.80467
3.13513
-7.55675
-5.32472
3.88224
5.45918
8.20564
3.72315
8.44033
4.78596
3.38512
7.63138
3.31214
4.68388
6.87666
6.60209
9.15517
-8.63951
-3.12306
8.61797
6.78244
3.79716
-8.50937
9.13427
7.20337
-8.61616
-3.22974
6.28629
8.81281
3.8201
6.79405
9.38997
3.3414
6.9432
9.10744
6.25588
8.17932
3.71183
3.7122
6.20039
-6.64877
-1.89953
2.751
2.3614
-5.84304
1.53466
5.09054
3.41999
-6.3758
-1.51005
1.20146
1.10825
0.781249
2.47821
3.26941
0.711333
1.10615
1.01121
0.238151
0.301119
0.152746
3.60782
4.51297
-7.87572
3.29504
2.57881
5.95312
4.12328
3.14317
-8.50972
3.577
4.14825
7.56234
3.77397
4.77058
7.23512
3.14064
4.14737
1.77816
2.67345
3.56207
-2.29272
6.44257
1.59789
-6.87545
-4.80757
6.70975
4.79229
-7.16675
7.22183
-7.25592
4.05495
2.00568
6.05019
-1.48046
-2.76032
0.465499
0.795755
0.796324
3.03232
3.48285
1.06812
3.16948
-7.78326
8.91168
2.27981
-8.98123
7.84873
1.16912
9.41022
-9.11325
9.25726
2.24016
-9.09626
7.35653
-1.14768
2.26885
9.09778
1.0202
-7.52676
8.12778
6.99554
1.9531
7.74979
6.66947
9.29078
-6.36924
1.70771
1.68481
-1.82657
2.7783
1.13022
3.57911
4.24364
1.51665
3.04522
-0.265493
-1.35047
0.0562198
0.0788599
0.113864
0.559734
0.539251
0.669419
1.48041
4.87052
4.01609
-5.17724
-4.4877
-1.43443
0.708408
-2.95188
0.797943
-1.92805
0.846635
1.30862
-3.49836
1.33848
1.99464
3.03981
-4.04795
1.95166
-3.9151
1.12266
0.305722
0.219827
0.289407
0.0718837
0.0880587
0.0840355
2.02926
3.14854
1.48306
-0.192881
-1.01726
0.0331565
0.079412
-0.827799
-1.04638
0.333057
0.191605
-1.20195
-0.310957
0.0682334
0.0971699
1.25568
0.344267
0.721897
-4.37416
0.721708
0.350429
-3.34005
1.10724
0.310665
3.21906
-4.42062
-0.0163203
3.09066
0.661227
-4.41471
0.716914
-0.106103
0.25929
0.481402
0.0128834
-0.802211
0.0706496
0.0923476
0.00215893
0.0328602
0.0614275
0.0798159
0.534319
-0.00488337
1.45154
5.57003
-6.56329
-3.31483
1.3071
0.795599
-5.29394
1.44282
4.28331
1.46246
-6.26129
-1.55824
0.172809
0.310566
0.255792
0.726467
1.42394
0.590554
0.432254
0.635651
0.058594
0.116606
0.0885684
1.18201
6.97724
-9.82758
6.01914
2.08121
8.70254
6.84068
2.31111
9.06687
-1.13098
2.21587
6.76737
0.813395
-9.36246
5.29984
6.82343
1.60212
4.78834
5.84016
6.96828
-0.575461
1.17743
0.639849
-3.13413
-0.945731
0.0841815
-0.0470276
-0.529353
0.0773948
1.64821
-0.397139
-3.49207
0.206481
0.170357
-0.141697
0.259149
-0.0063276
-0.135518
0.00451039
0.00591266
0.006417
-0.00579707
0.00991319
0.0105733
0.131945
0.165742
-0.980261
2.24426
1.21247
-4.18889
-4.02537
0.567104
-3.06032
0.865135
2.77383
-4.33976
0.553603
0.341661
0.380105
-0.035064
-0.362129
0.0241268
0.0270056
0.0337713
0.0448935
0.0574697
0.302685
0.262759
-1.14357
0.112891
-0.725715
0.100674
0.173167
2.11064
-3.73472
-0.00984719
1.96762
-3.67581
-0.0568259
0.259658
0.339224
-0.285337
0.0021655
0.0157003
0.0164239
0.000456551
0.380937
-0.00169048
0.0136541
0.0143741
0.898753
1.96011
-0.989078
0.0494789
0.0359331
0.0767064
1.08009
0.645476
-0.590513
0.0170218
0.0249398
0.0407167
0.365746
0.590028
0.267469
0.149507
0.205503
0.00539637
0.00792
0.0141529
-7.39297
8.31152
-8.53116
7.32281
-3.29884
8.17889
3.77813
-8.31482
8.86478
-8.76971
6.77469
3.04626
8.32047
-2.42014
-5.55274
1.63203
2.46231
2.75355
6.1222
5.46527
3.18367
6.71616
-3.23675
5.59783
3.55788
-9.19863
5.16473
7.34664
6.41116
8.09921
2.89103
6.08293
-1.70861
-5.66461
0.809757
0.498003
0.862527
3.20147
3.10325
4.60083
2.79564
5.35466
7.21969
3.54839
-7.54583
3.91763
7.70406
6.04082
-7.9178
3.81852
5.44554
7.62754
5.98601
3.17455
4.82751
-7.22591
3.93222
2.57619
4.92949
3.28578
4.9025
6.28542
0.89151
1.81358
1.59487
-8.04753
2.95441
5.9085
-4.86679
3.58611
4.7299
3.7934
5.85978
3.82779
2.78722
-1.35952
-3.04889
0.182164
0.255863
0.323695
0.649939
1.20689
1.64532
2.73211
0.545759
0.611063
-2.55285
-0.238366
0.0113342
-0.0889292
0.010536
0.0125432
0.30179
-1.73598
0.312264
-0.0729271
0.00239911
0.00290159
0.00321736
0.0740222
0.0843507
0.0327782
0.0318419
0.0350693
0.000990193
0.0011681
0.00133017
1.27264
1.37629
-3.92586
-1.17402
0.0947281
0.117509
-0.934486
0.135592
0.766126
1.05733
-3.41323
-0.19709
0.0116782
0.012937
0.0158519
0.17438
0.148971
0.0811497
0.0719381
0.0643882
0.00435429
0.00485643
0.00591803
-1.24291
0.691052
-4.33189
0.456996
-2.19524
0.490599
-3.65852
0.446186
2.14141
-5.74602
0.181959
0.117218
0.234627
-0.0124118
-0.03428
0.00621472
0.00211441
0.00382071
0.0331059
0.0221049
0.0514694
0.0205927
4.11715
5.08312
-6.88348
-0.938373
0.286399
0.247721
-2.61083
0.157025
-0.469183
0.11305
0.143149
0.0760711
1.70467
1.95181
-5.85223
0.963922
0.916276
0.091537
0.131227
0.161698
0.0106953
0.0153294
0.00726524
7.24256
5.88191
-0.945902
1.81521
0.516057
-6.27768
3.61516
0.388541
-7.82641
2.20562
-1.67874
-2.51927
0.131674
0.209497
0.253738
0.864382
1.59513
1.12619
2.81412
1.53578
1.69621
0.807044
-0.0663609
-0.348956
0.00831078
0.0192256
-0.207252
-0.285957
0.0282856
0.0395175
-0.0923104
-0.39555
0.0129901
0.0216397
0.12966
0.337307
0.190299
-0.225332
0.0599809
0.0387492
-0.375527
0.0121129
0.0219721
0.315588
0.0798191
0.0332697
0.0535278
-0.00115581
-0.0167339
0.000333717
0.000204629
0.000687033
0.00187603
0.00362352
0.00951397
0.00592404
-5.48684
-0.907905
3.0668
1.20399
4.0967
-1.43406
-0.598684
0.151765
0.162847
0.135586
-1.54282
-4.2124
1.41599
1.20074
0.865138
0.273597
-1.57772
-2.45888
-0.28564
0.271232
1.70054
-4.92593
-1.26071
5.07432
-4.84353
1.51516
-5.13313
-1.1274
3.99024
5.58648
3.54966
-0.385647
4.93133
0.723914
-3.85486
-4.02875
-0.421987
4.75577
5.30467
0.801661
-4.32941
0.0834517
-3.46863
-2.26029
0.48328
-0.00396763
0.266374
-5.60929
3.17422
4.6662
-0.000503819
0.00998059
-0.0708
-0.0333544
-0.223398
0.00975208
0.0113236
-1.44668
-5.09761
2.6219
1.58888
2.68891
-1.06832
-1.61093
0.180269
0.167537
-5.0271
2.16504
4.99878
-4.84558
-5.1638
1.9294
4.05756
5.49129
3.05623
-2.57042
4.1077
5.11346
-4.33313
-4.94385
-2.96021
4.33591
3.1751
-4.53119
-0.406663
5.22149
0.762041
-4.04503
3.46097
4.8338
-3.74893
-0.0123852
5.16146
3.93633
-3.95476
-0.0192748
0.385446
3.81935
5.626
-0.00994769
3.89434
0.753613
5.65952
-0.396133
0.783158
4.4679
5.50361
4.40568
5.46645
-0.0153618
3.62133
-1.06271
1.40819
-3.99127
-1.11863
5.25906
1.48807
4.15057
-4.16355
3.5949
5.03744
-3.93904
5.24851
4.08767
-4.11088
3.93981
5.64371
1.17814
4.49758
5.49961
1.58943
4.52207
5.46034
3.66039
1.76991
-4.02948
1.88615
5.2497
4.24865
-4.22877
3.73745
5.18615
2.14953
-4.06878
5.2065
2.31678
4.41339
-4.33316
4.13281
2.35767
5.41502
2.02704
4.54111
5.37746
2.45738
4.53177
5.24421
-0.0184907
-0.0684299
0.00219581
0.00288606
0.00236049
4.31571
3.60803
4.95504
-4.60807
-4.52504
-3.57969
4.40471
4.03081
3.61264
-4.42879
-4.24153
3.95126
4.11945
-4.4404
4.22058
-0.422539
0.0280211
-0.156855
-0.156886
0.0254868
0.025487
0.195021
-1.70394
-1.40149
-1.74545
0.245056
0.254685
-0.0105166
0.00040103
-0.00223354
-0.00323145
0.00030279
0.000339215
4.66037
5.26591
-4.24481
-0.0235017
-0.428526
5.15694
0.840143
-4.78943
5.1446
-4.73461
-0.0250703
4.89695
-0.400356
0.804812
5.38156
0.387365
-4.87803
5.03018
-0.0209071
0.797248
5.02561
5.36442
-0.0192022
-1.18726
5.25231
1.59476
-4.48802
4.83929
5.29792
-4.40105
5.10377
-4.82084
4.88561
1.22046
5.34096
-1.21274
-4.84946
1.61169
4.79874
4.94868
1.64561
5.24649
-5.62697
3.18733
0.583117
4.61595
0.34755
3.85609
-0.00420745
3.90051
0.720512
5.29914
-0.347413
0.725851
4.15761
0.239598
-5.30181
3.0452
3.35168
-0.00611864
0.524371
3.01976
3.21804
4.13274
-0.0106056
3.87841
5.18062
-4.1547
-2.78802
4.93398
3.29492
4.7286
-4.67451
5.09543
4.59828
-4.53636
-2.80487
4.1647
3.18933
5.11253
4.18337
5.30277
2.83252
4.44525
5.03458
3.08978
4.29106
4.73083
-1.10849
3.90786
1.5023
-5.58597
3.15273
4.44337
3.91323
5.22595
1.1146
4.13922
-0.804606
-5.07654
1.03754
2.69441
2.50468
2.91237
2.9393
1.4938
4.08538
2.03676
5.16419
-4.65115
-5.13285
4.86657
2.60023
-4.8123
5.02218
2.50359
-4.7293
-4.78041
1.95411
4.55939
2.06232
5.09438
4.66138
2.42917
4.87219
2.20253
4.16724
-5.33173
2.90786
3.49805
1.89364
3.87929
3.80899
2.24646
-4.84788
1.173
2.33629
1.70222
1.8363
3.98617
4.48997
2.10388
3.80893
1.13953
1.78318
1.12861
3.70056
4.81992
4.67387
-4.71221
4.37992
4.8307
4.02294
-4.68695
3.44198
4.04346
4.8165
4.55617
3.92957
-4.61546
3.8028
3.52693
4.37321
3.19251
4.00903
4.28086
3.01523
3.43971
3.28825
-2.96803
4.7714
3.35272
-4.73296
-5.06334
4.65008
-4.70539
4.93911
-4.76152
2.68466
4.46032
4.55543
-4.09364
-2.30153
2.10048
2.093
2.7928
4.02236
3.37825
-4.75865
2.13772
1.6034
-2.50542
3.42194
2.6394
3.67532
3.81059
2.25451
3.49416
-0.870042
-2.5917
0.427142
0.423278
0.292258
1.07014
0.613434
2.18812
2.9407
4.1795
4.73474
-0.324904
0.691066
-3.32275
-2.16931
0.209513
0.442416
0.275688
-4.18035
-0.0140864
0.176702
-4.76739
1.51201
-0.0077509
0.592361
0.400429
1.42126
-0.0136788
4.11308
4.60563
1.05516
-0.599661
-4.33809
0.71022
0.927014
-0.89145
-3.97344
1.12786
-2.97126
-1.94664
0.365404
1.21916
1.38388
-3.82578
0.679816
0.61421
-3.72543
1.23873
1.64645
2.95683
3.30853
1.79147
-0.553068
-1.00703
0.0871017
0.0829281
0.491897
0.358427
1.14235
4.24153
4.57754
-4.61951
-3.95148
2.98112
3.46246
-4.18529
3.46252
4.11964
4.22058
-4.44052
-3.29201
2.18192
1.43262
2.26433
3.29199
3.4247
2.18217
2.2647
1.43287
0.644718
0.644523
4.7726
4.48271
-4.59268
-3.18699
2.39176
2.74334
-4.08541
3.33574
3.772
-4.38323
4.43652
-3.39092
1.38349
0.861538
1.49677
2.62588
2.86378
2.0539
1.8683
1.2272
0.416418
0.285029
0.38522
-2.55138
2.10683
1.99986
3.04557
2.96701
0.607049
0.372641
-1.24224
0.130618
0.115491
0.10914
1.71615
1.97107
0.467681
0.785037
0.782483
0.0275411
0.0269775
0.0303238
1.74983
1.71723
2.58915
-0.230467
-0.890754
0.0769263
0.0691944
-0.213443
-0.506187
0.0324828
0.0341358
-1.53611
-0.778637
0.305825
0.185342
1.28841
0.795201
-0.0982511
-0.070093
0.00942338
0.0103428
-0.988135
-0.606368
0.0867906
0.095721
-3.18877
-3.62517
1.69116
-3.5473
0.811632
-3.47343
1.37847
2.83571
-4.16211
0.544106
0.381228
0.0670653
0.0762649
-0.00503466
-0.00503554
0.00078477
0.000784794
0.00108803
-0.141886
-0.0305516
0.00517547
0.00660675
-0.874899
0.158683
-0.514886
0.0305532
0.0340253
0.874975
0.141919
0.158727
0.00517639
0.0066081
-0.350284
0.0193165
0.0212111
-0.483594
0.0759254
0.0741333
0.559925
0.124544
0.111688
0.121443
-0.0166965
-0.00400812
0.000418736
0.000629189
0.000492674
0.0137889
0.0155678
0.00373076
0.0049921
-0.00364492
0.00108684
0.00130382
0.00100587
0.10041
0.116503
0.003868
0.00444988
0.0116856
0.0104691
0.0117153
-0.000327375
-0.00320096
0.000104101
0.000119528
8.3186e-05
0.000384946
0.000442463
0.00311556
0.00260163
-0.500344
0.0314714
-0.405452
0.0441215
-0.547992
0.117459
-1.10738
0.149486
0.337126
-2.44801
0.0226415
0.0267819
0.0225861
-0.00685365
-0.00128976
0.000362613
0.000445355
0.000276644
0.00593754
0.00509927
0.00148352
0.00180665
3.59135
6.74217
-7.59323
-2.74384
0.449457
0.272113
-3.49998
0.42154
2.71927
1.54034
-6.30112
-2.66811
0.240146
0.427901
0.38649
1.50098
2.40857
0.254596
0.176097
0.296659
0.0162708
0.0277695
0.0215402
0.0382057
-0.00607178
0.0342186
0.0159204
-0.00289576
-0.00133579
4.16868e-05
0.000113424
0.000117095
0.000436147
-0.0440188
0.00364288
8.53941e-05
-0.0390191
0.00019122
0.0016567
3.49009e-05
0.00120195
0.00313619
0.00113551
0.000533208
0.00143683
-0.125861
0.0021902
0.00595949
-0.0922909
0.0068902
0.0109394
0.0612044
0.0454842