/*--------------------------------*- C++ -*----------------------------------*\
  =========                 |
  \\      /  F ield         | OpenFOAM: The Open Source CFD Toolbox
   \\    /   O peration     | Website:  https://openfoam.org
    \\  /    A nd           | Version:  9
     \\/     M anipulation  |
\*---------------------------------------------------------------------------*/
FoamFile
{
    format      ascii;
    class       volScalarField;
    location    "0.0012";
    object      rho.air;
}
// * * * * * * * * * * * * * * * * * * * * * * * * * * * * * * * * * * * * * //

dimensions      [1 -3 0 0 0 0 0];

internalField   nonuniform List<scalar> 
10045
(
1.83102
3.4754
1.37201
1.88591
1.24485
1.225
1.22509
2.13557
2.84446
1.23494
1.22518
2.94706
1.81039
3.0684
3.20999
3.10341
1.30436
1.22712
1.9542
2.22153
2.33561
2.48588
2.58951
2.9533
2.8893
1.64631
1.22604
1.29306
1.22593
2.48061
1.22517
1.225
2.75982
2.84027
2.61535
2.4397
2.04292
1.93389
1.58525
2.27582
3.19115
2.66264
3.26582
2.89681
3.14873
3.26243
1.22795
1.225
1.22532
1.225
1.22507
1.225
1.225
2.67738
3.12875
2.7672
3.17523
3.22851
3.12123
3.19272
3.07994
2.93512
3.08575
3.14089
2.59986
2.35431
3.20714
2.55744
1.53681
2.13743
1.27105
1.45864
1.31075
1.24174
2.60414
1.64681
2.2248
1.31292
1.60637
1.33411
1.24888
3.54124
3.43402
3.28279
3.02532
2.36957
2.83213
1.59948
3.30819
3.23424
3.03292
3.19509
2.11371
2.8818
2.98161
1.41849
1.22852
1.29657
1.22754
1.2774
1.24471
1.22588
3.06742
2.59462
3.16757
3.03428
1.34955
1.83884
2.47455
1.31701
1.3289
1.66286
1.25006
1.22589
1.2295
1.23015
2.87619
1.76018
2.27094
1.27381
2.02268
1.5831
3.03923
2.6369
1.29499
1.72105
1.24855
1.3813
1.25286
1.22834
3.20725
1.39639
2.09119
1.35138
1.95617
1.28787
1.23293
1.27756
1.24621
1.23243
1.23211
1.22754
1.22596
1.22531
2.42754
1.24359
1.28222
1.2396
1.56976
1.33945
1.64147
1.22933
1.22594
1.24619
1.23031
1.22504
1.22523
1.22608
2.17736
1.22956
1.32878
1.23685
1.49924
1.24408
1.22572
1.22722
1.22554
1.23717
1.22925
1.22503
1.22575
1.22518
1.23983
1.22535
1.22687
1.22513
1.22565
1.22508
1.22501
1.23406
1.2354
1.30768
1.22884
1.22504
1.22542
1.22539
1.29853
2.90215
1.55436
2.65024
2.75629
2.8695
0.211596
2.96114
2.74503
1.27681
0.949957
2.07087
1.09705
1.50228
2.68871
0.560628
1.39584
1.69381
2.95878
1.63867
3.40469
2.28109
2.31267
2.41253
1.77385
1.77772
2.05018
2.40963
2.83682
1.93254
1.24895
0.296873
0.255645
0.359375
0.349435
0.477043
0.56261
0.417257
0.706836
1.77777
2.92618
1.20108
2.1663
2.89023
3.26147
0.967142
0.64321
0.545881
1.2779
0.788823
0.897909
1.40577
0.445896
0.409301
0.319226
0.678327
0.648705
0.827476
0.51419
1.49776
1.53425
1.36473
1.80354
2.05466
2.31393
1.98852
1.69028
1.49275
1.43815
2.05314
2.10167
2.38727
2.31204
2.69461
3.46088
1.76914
3.32758
3.11645
2.82856
1.22831
0.580706
1.11715
0.743935
0.857285
1.09171
1.25701
0.683998
1.64871
1.55244
1.44188
2.05765
2.15896
2.28941
2.3846
1.22509
2.61033
1.87577
2.27369
2.51137
1.39061
1.22525
1.24323
0.903081
0.763936
1.02867
1.70975
1.1774
1.55067
2.72366
1.45755
1.23016
1.38083
2.79514
1.22595
1.22501
1.95144
1.95609
1.73316
2.65579
2.47392
3.05246
2.21315
0.53462
0.70523
0.887606
0.830029
1.01207
1.22822
1.06074
1.4481
1.62769
1.08593
1.20385
2.2432
1.58513
1.76385
1.00582
1.27453
1.65073
1.0163
1.1883
1.43497
0.828004
1.92642
2.36047
1.96971
2.7572
2.95145
3.16892
2.62649
1.26594
1.225
1.22504
2.70878
1.62169
2.86936
1.2411
3.34134
1.50749
2.51102
1.65396
3.19236
1.23814
2.97921
1.05637
1.7248
1.22383
1.888
1.34387
1.53335
2.1003
2.35375
3.44001
2.82902
3.10273
3.12934
3.57154
2.56685
2.30768
2.07033
1.94166
2.81108
2.56629
2.62984
2.80166
1.34635
2.45414
1.97286
2.12275
1.513
1.75697
1.92693
3.3492
2.68217
2.87715
3.13817
2.96878
3.42923
2.87988
2.44511
2.21109
1.81127
2.69261
2.41037
2.60201
2.78161
0.930257
1.34842
1.10389
1.47235
1.63983
1.75913
1.32995
1.91292
1.24418
1.40264
1.65175
2.10751
2.22908
1.51251
2.20489
2.48388
3.15473
2.76408
3.43301
3.05569
3.6886
2.85895
3.1543
3.37429
3.18757
3.52389
3.70611
3.26536
2.59388
2.59994
2.63609
2.68964
2.74404
2.73232
2.42847
3.38739
3.28853
3.06384
3.65117
3.61599
3.65317
2.81429
1.91962
1.62661
1.41017
1.75851
2.72429
2.05033
2.37635
2.51021
2.79746
2.78517
2.77362
2.79018
2.65975
2.69344
3.3918
2.84054
3.21866
3.12434
3.55894
3.4238
3.04775
2.6341
2.34036
2.67879
2.75356
2.68195
2.81012
2.8046
2.24395
2.36439
1.71007
1.95603
3.13706
2.56219
2.65234
2.54167
2.76713
2.82816
2.76863
2.80089
2.60064
2.49311
1.95635
2.48776
2.22344
2.95398
2.59124
2.33733
1.83337
2.68068
2.94606
2.94192
2.89525
2.84207
2.90301
2.62351
1.62674
1.87412
1.97864
2.017
2.12783
2.59592
2.49731
1.22797
3.07359
3.36418
1.22605
1.95273
1.225
1.22538
2.43911
2.83985
2.84432
2.75976
1.58506
2.61519
2.04353
2.81163
2.74726
2.85234
2.8342
2.66338
2.28522
1.96595
2.32288
2.67223
2.71364
2.72029
1.49545
1.99403
2.51586
2.27781
3.26577
3.1915
3.14873
2.89814
2.66403
2.94828
2.79712
3.75341
3.54583
3.4391
3.29204
3.77612
3.71523
1.89702
2.92882
2.27639
3.06364
2.4487
2.89071
3.28724
2.82655
2.67751
2.86092
2.22243
2.68901
2.17392
1.58707
3.27375
3.51126
3.73056
3.43357
3.41589
3.72227
3.11598
3.37145
3.80524
3.71979
3.67061
2.13317
3.25184
3.00504
2.96621
2.35692
2.46145
3.04363
3.30702
3.2673
2.99141
2.65641
3.0061
3.58549
3.34428
1.35523
1.87456
2.43433
2.88041
1.9876
2.35104
2.70983
2.43061
1.6057
1.3489
2.60478
1.31339
1.6478
1.33428
2.2254
1.60752
2.13772
2.20805
2.83456
2.80885
1.95702
1.34306
1.3272
2.0164
3.03797
2.36178
2.86432
1.59919
2.40842
1.94137
1.36457
2.67851
3.17462
2.76815
3.1287
3.22703
3.11976
3.1035
2.08857
1.33789
2.24698
1.54697
1.23514
1.24125
1.43781
2.70253
2.07798
2.76998
1.83827
1.27089
1.29997
1.66834
1.37191
2.38944
2.34199
1.62923
1.24965
1.67196
1.24667
2.55574
1.31056
2.13644
1.27079
1.88342
1.53579
1.24168
3.1745
3.24229
2.76797
3.21287
2.86346
3.21801
3.30556
3.30781
3.19412
3.03343
3.23378
2.11068
2.87961
3.20887
3.77085
3.47245
3.47594
3.59862
3.41532
3.36956
2.60757
3.2808
3.43308
3.47507
3.53932
1.59679
2.36439
3.02162
1.86259
1.24425
1.60547
1.23026
1.33971
1.27643
1.22725
2.56324
1.40017
2.26961
1.24793
1.47807
1.33459
1.23404
2.00415
1.82744
2.60308
1.50808
1.23295
1.26455
1.28558
3.59469
1.59818
1.40265
2.76263
2.25755
1.42969
1.24567
3.22886
3.00618
2.72461
1.49732
2.47606
2.80427
3.29583
2.63173
1.24835
1.29443
1.25262
1.37984
1.71772
1.64327
1.32904
1.25006
1.66277
1.31687
1.22589
1.22949
1.24485
2.55466
1.43325
2.15875
1.62158
2.21688
1.78426
1.11476
1.65981
1.87377
2.56183
1.2425
2.5232
1.47465
2.3602
1.89395
1.82865
2.851
1.34483
1.1086
1.33526
1.67841
1.68629
1.97811
1.97133
1.19012
1.44299
1.13802
1.37638
1.71685
2.01071
2.08439
1.27937
1.55429
1.41112
1.7182
2.04718
2.20461
2.36798
1.22973
2.1254
2.90999
2.90378
1.26858
1.59684
1.22573
1.64759
2.07842
2.06654
2.31333
2.61703
2.61369
2.30968
1.78638
1.70091
2.12345
2.34521
2.67868
2.63225
2.41867
2.55401
2.28287
2.28299
2.49903
2.56602
2.5506
2.50162
1.5913
2.20927
1.93913
2.47123
2.24399
2.55115
2.71171
2.35758
2.55003
2.30316
2.51405
2.49175
2.52625
2.55603
1.92436
2.53686
2.11534
2.73988
2.52662
2.64996
2.78683
2.55435
2.44512
2.55078
2.41977
2.61761
2.67421
2.266
2.51158
2.46015
2.67625
2.76575
2.80234
2.81017
2.80433
2.60477
2.71318
2.35311
2.75648
2.67637
2.81249
2.78627
2.41582
2.70694
2.648
2.69864
1.66649
1.9956
2.6482
2.65147
1.83028
2.68369
2.3857
2.66498
2.35222
2.65968
2.65375
2.16666
2.5928
1.74512
2.63767
2.28446
2.66783
1.9851
2.49982
2.67829
2.65592
1.34861
1.74808
2.29555
2.75048
2.88012
2.90383
2.57796
2.8115
2.57804
1.92707
2.80382
2.81611
2.90913
2.3081
2.77143
2.49925
1.72696
2.48847
2.68787
1.77763
1.39107
2.4179
1.92714
1.26988
2.54417
1.32894
1.27535
1.58646
1.50452
2.24758
1.95753
1.24325
1.37406
2.4594
2.34717
2.86769
1.87438
1.33953
1.22683
1.23531
1.45531
1.27525
1.9761
1.45536
1.23531
1.25677
1.33468
1.78842
1.40532
1.22608
1.25141
1.23291
1.22721
1.38537
1.23219
1.24416
1.22522
1.22578
1.23056
1.28406
1.44544
1.83907
1.2639
1.22574
1.2359
1.2279
3.43673
1.79675
2.96784
1.75302
2.86451
1.59018
1.26196
1.27792
1.22521
1.23083
1.22778
1.23004
1.28549
1.22742
1.23238
1.24608
1.37106
1.27735
1.22531
1.22753
1.23208
3.10796
1.52759
1.30967
1.37243
1.92689
2.28399
2.56094
3.20542
1.28743
2.08748
1.35063
2.47774
1.39543
1.23288
1.26458
1.22606
1.22715
1.22515
1.22864
1.22677
1.24972
1.22503
1.22519
1.23
1.22525
1.2266
1.2315
1.26348
1.23979
1.22513
1.22535
1.22508
1.22565
1.22686
1.22794
1.22552
1.22602
1.23745
1.23011
1.22502
1.2252
1.22539
1.26364
1.26416
1.62382
1.24783
1.22513
1.22686
1.22684
1.25322
1.23834
1.52522
1.24429
1.22506
1.22575
1.22656
1.23399
1.22881
1.30711
1.23534
1.22504
1.22542
1.22592
1.89479
2.01893
2.78349
1.72343
2.8877
1.85854
0.962908
0.777031
0.702346
0.947966
0.707423
0.956362
0.971083
1.26876
1.25729
0.727981
1.05432
1.04114
0.983145
0.997688
1.30362
1.37542
1.26906
1.70672
1.25725
1.68785
2.29641
2.30816
1.67152
1.84297
1.30562
1.31702
1.72982
2.39061
1.71414
2.39724
1.37847
1.77877
1.30454
1.74111
2.46592
2.36019
1.8513
1.91111
1.42444
1.35211
1.78212
2.5277
2.43864
1.89037
2.32191
2.86435
2.76065
2.77709
2.7553
2.31081
2.77102
2.37115
2.83087
2.83502
2.83418
2.77901
2.79027
2.47174
1.37613
2.40189
2.74224
3.30613
0.413569
1.22685
1.85968
1.22501
2.41117
1.24358
1.50985
2.91968
3.41524
3.33892
1.47982
1.78659
2.86928
0.442363
2.88284
1.79158
0.44473
1.40069
2.38169
3.34799
1.86494
3.34998
1.85366
2.01795
2.38757
1.84929
0.466745
1.44265
0.681645
1.76083
2.33473
3.157
1.73925
2.07703
2.42614
2.87983
2.56228
3.2393
1.29962
1.35856
1.32754
2.37474
3.28731
2.49632
1.05335
1.94521
2.43162
1.5599
1.23458
1.55723
1.23445
2.34628
2.73878
2.6503
2.52207
3.15693
0.825302
1.92408
2.58409
3.19715
1.23169
2.378
2.7318
2.51402
2.74454
1.25647
1.22563
0.580159
0.436639
0.574305
0.902069
0.749514
0.909737
0.740512
0.584925
0.43691
0.575141
0.902585
0.750699
0.914377
0.740011
3.2911
3.00762
2.31425
1.24579
3.3705
2.78548
3.56353
0.611453
0.509347
0.661884
0.783294
0.948062
1.01311
0.846683
0.572293
0.568879
0.745533
0.621864
0.801014
1.01555
0.839166
0.885974
1.37479
0.882765
1.22076
1.77488
1.22494
1.77277
2.31858
1.28563
2.88382
1.22507
1.22997
3.12555
1.7158
2.43861
1.22527
1.54005
3.04773
2.81014
3.0667
1.25059
0.899488
1.38214
0.886201
1.22429
1.80211
1.78085
1.23866
0.5787
0.854834
0.741708
1.1147
1.08907
1.2544
0.947568
1.98976
1.98438
2.36755
2.60803
2.60481
3.13785
3.13955
2.39564
1.99301
2.37141
2.63797
2.61368
3.1399
3.14807
0.93258
1.51687
0.99312
1.85045
1.27496
1.3427
1.93726
2.49065
2.39018
2.47513
3.15812
2.89182
3.15827
2.89307
2.48715
2.38395
2.47259
3.15078
2.86847
2.88375
3.14397
0.911863
1.525
1.07782
1.60725
1.13678
1.32258
1.79512
1.62443
1.20132
1.08337
1.44543
2.23962
1.5825
2.06705
2.46637
2.18598
2.60831
2.69836
3.19545
2.8071
3.29612
2.5448
2.52304
2.67153
2.87552
3.17166
3.24634
2.9114
1.00317
1.0134
1.18559
1.27165
1.43224
1.64798
1.4993
2.9912
2.07707
1.25939
2.85516
3.35098
1.36847
2.27166
1.33542
1.91649
1.19334
1.77421
1.34508
1.90604
1.1808
1.33621
1.7735
1.92323
1.19619
1.90618
1.35145
1.18055
0.927805
1.4703
1.10172
1.34673
1.63782
1.7574
1.19904
0.78139
1.21015
0.959423
1.26251
1.4185
1.54133
1.10982
2.22371
2.10784
2.65595
2.26512
2.8743
2.56712
3.35298
1.97782
1.24066
1.39459
1.47744
1.96071
2.08321
1.32551
2.35964
2.35105
2.42473
2.72858
2.73342
2.70583
2.69649
2.34572
2.42048
2.42041
2.71643
2.72917
2.70416
2.69005
2.33637
2.9169
2.93764
3.05235
3.15236
3.65321
3.40521
2.68275
3.13541
2.87477
3.34885
2.96995
3.42911
2.96041
2.34915
3.09802
2.8245
3.12597
2.95705
3.43695
3.56934
1.34388
2.12005
1.51066
2.45088
1.75434
1.97021
2.68609
2.46126
2.4522
2.52918
2.71821
2.7363
2.67798
2.65968
1.64938
1.24131
1.40005
1.91025
2.10496
2.22676
1.7749
1.64537
2.31208
2.23718
2.87172
1.652
2.2298
2.30875
1.60556
2.12616
1.63845
2.43565
1.78047
2.23804
1.45733
1.91847
1.75688
1.40864
1.62542
2.72309
2.16534
2.04883
1.71241
1.48287
1.26491
1.53725
2.35732
1.80177
2.02785
2.30241
2.39504
1.71128
1.79814
2.99156
2.40553
2.49595
1.6486
2.8747
2.24857
2.33858
2.23149
2.316
1.66574
2.42629
2.82192
2.89515
2.82431
2.87322
3.09376
2.96474
1.62546
2.01541
2.59506
1.87297
1.97765
2.12638
1.50592
2.59532
2.73292
2.63773
2.68997
2.74585
2.5996
2.42756
1.49471
1.7847
1.74332
1.84652
1.88793
2.37522
2.26858
2.60634
2.75266
2.60598
2.65931
2.35446
2.40638
2.63567
1.93253
3.08019
2.80412
2.74362
2.11361
2.55809
2.63727
2.59997
2.75197
2.60371
2.65863
2.34846
2.63097
2.40534
1.95389
2.36189
1.70785
2.24143
3.13609
2.5601
2.92436
1.86918
2.66566
2.00018
2.26215
2.8452
2.89133
2.14529
3.38961
3.12478
3.55763
2.84219
3.42451
3.22151
2.41577
3.38338
3.06067
3.61338
3.28621
3.652
3.4036
3.65128
2.86632
1.22772
1.225
1.2288
3.2261
3.203
3.22131
2.97771
1.22508
1.28545
1.225
1.22501
1.23241
1.22551
3.13748
3.36585
3.14496
3.53791
3.3392
3.5227
3.37445
3.36507
3.15458
3.14962
3.53524
3.32001
3.3649
3.5211
2.61934
2.72131
2.66509
2.23185
2.585
2.50013
2.03806
2.40427
3.60859
3.16824
3.27378
2.92986
3.68298
3.77813
3.1845
3.24412
3.3316
3.5191
3.24531
3.53257
3.1164
3.36986
2.86846
2.5633
1.9146
3.35043
2.62302
2.89409
3.35923
1.91049
2.52712
2.84641
2.60722
2.88592
3.3262
1.89605
3.06315
2.89012
2.92841
2.27555
2.51018
2.44747
2.79521
3.77573
3.54347
3.43914
3.11545
3.75282
3.71596
2.64933
2.95831
2.90481
2.87591
2.91
2.82195
2.40308
1.75077
2.81761
2.75488
2.11698
2.16722
2.6878
3.20307
2.36998
2.78344
3.28858
3.24012
1.57868
2.12435
2.67503
3.30985
3.39131
3.32243
3.53773
2.49889
3.4941
2.88302
2.55297
1.59643
2.58928
2.29454
1.36376
1.38353
2.24376
1.59637
2.54397
2.58687
2.29402
1.3627
1.38356
2.2386
2.55747
2.79467
3.09663
3.05664
2.86452
3.0499
2.45679
2.97909
2.92926
2.33503
2.59062
3.16953
3.06789
3.13559
2.67153
2.72028
2.71468
2.32041
1.49356
1.9917
1.77433
3.67116
3.37072
3.71778
3.8049
2.13731
3.32841
3.25505
3.40424
3.86933
3.55277
3.85619
3.02311
3.75261
3.48376
1.2254
1.225
1.225
1.22517
1.22522
2.43538
1.22807
2.46073
1.38338
2.30943
1.32561
2.12488
1.94204
1.28575
3.12933
1.41092
2.09885
1.51201
2.86101
1.81044
2.4645
3.11015
2.82877
3.00121
2.22619
3.01649
2.66186
1.72836
3.03814
1.94311
2.86486
1.60114
2.79696
2.36358
1.36516
3.72245
3.27187
3.72948
3.43444
3.46078
3.51304
3.1201
3.0435
2.35623
2.46083
2.96608
3.30748
3.26783
2.90199
2.92337
2.23947
2.34636
2.92332
3.28912
3.27108
2.8551
2.86309
3.23934
3.01571
2.99619
3.08333
3.11827
3.23244
3.34694
3.00799
3.58556
2.66178
1.35637
1.87921
1.77232
1.30257
1.71665
2.05539
1.70041
1.23657
1.446
1.25529
3.4765
3.47273
3.36405
3.77115
2.61059
3.59963
3.41739
3.41795
2.00079
3.3366
2.69467
3.38511
2.96638
1.55409
3.77017
3.45408
3.44094
3.69925
3.67373
3.46223
3.16521
3.21305
3.24228
2.76752
3.17453
2.86482
3.34163
3.21872
1.86371
1.40284
1.26765
1.23605
1.27364
1.42868
1.81336
1.86337
1.23603
1.26725
1.40045
1.27361
1.80934
1.42814
3.14622
3.18827
2.6601
3.14621
3.04891
3.35107
3.27732
2.67918
2.73905
2.44745
1.84718
1.61881
1.55158
1.26931
1.25587
1.35177
1.70166
1.54871
1.22884
1.2432
1.29977
1.50869
2.00454
2.60381
1.82845
1.23296
1.38102
1.26465
2.66053
2.39569
2.92586
2.15733
1.25695
1.38319
1.54235
1.66637
1.32949
2.37118
1.78868
1.23176
1.25747
1.36235
3.59594
1.4039
1.43083
1.60002
2.76569
2.65373
2.26156
3.8202
1.81698
1.9572
3.25533
3.10119
1.80023
1.28191
2.88257
2.10362
3.24344
2.33355
1.24852
1.67059
1.32072
3.27346
3.14893
1.83427
3.20461
3.05344
2.98414
3.29712
1.38853
1.22676
1.23922
1.22814
1.28908
1.2334
1.26163
1.27434
1.3208
1.91915
1.52879
1.22657
1.25748
1.24176
1.88736
1.37968
1.42396
1.28923
1.27592
1.23708
1.22867
0.25965
1.521
1.74014
0.302058
0.274766
1.63577
1.56853
2.90373
1.78548
2.77326
2.31559
1.05818
0.0724942
0.142312
0.302946
0.054547
1.03648
0.25653
1.72022
0.506409
0.597718
0.49924
1.71004
0.576131
1.72504
1.09867
0.079868
0.158544
0.4154
1.40304
0.0998465
0.568856
1.76593
0.531878
0.611509
2.31081
1.98482
0.827213
0.855886
2.4626
2.46938
0.568104
0.986211
1.33448
0.927541
1.86535
2.50126
0.581642
1.01372
2.78225
2.2898
0.850998
1.32608
0.311333
0.298881
0.134661
0.235056
0.501368
0.488225
0.244847
0.138279
0.297393
0.133798
0.233359
0.48754
0.237185
0.485016
0.585382
0.495952
0.580031
0.877366
0.776254
0.767579
0.880036
0.49455
0.585805
0.579884
0.87613
0.765204
0.877971
0.764486
0.0561379
0.053938
0.0688744
0.117935
0.0906967
0.123055
0.0872157
0.0705638
0.0535252
0.0684136
0.117191
0.0882771
0.119771
0.0866157
0.570307
0.566338
0.594104
0.893573
0.859106
0.857455
0.894248
0.60167
0.567959
0.595159
0.893338
0.86436
0.895985
0.858327
0.337973
0.385532
0.186357
0.532847
0.266066
0.303231
0.592998
0.0609731
0.0690996
0.0924141
0.0982045
0.133923
0.152704
0.110682
0.603111
0.589147
0.657084
0.805734
0.901436
0.965518
0.875201
1.20011
1.058
2.09851
0.51195
1.54817
0.127011
0.712568
3.05346
3.26546
1.84168
2.62468
2.20939
1.00716
1.03355
0.583594
0.628741
0.660287
0.874535
0.910235
0.967839
0.927625
0.081399
0.140247
0.111679
0.181703
0.157843
0.224551
0.129609
0.459793
0.289587
0.228511
0.360168
0.815043
0.440472
0.687699
0.685891
0.900969
0.755927
1.08212
1.15054
0.99191
1.24813
0.565877
0.634258
0.632977
0.851363
0.849132
0.917073
0.921318
0.857933
0.64073
0.574666
0.567241
0.63427
0.850319
0.918643
0.203129
0.35639
0.151978
0.253651
0.34824
0.209847
0.147324
1.83301
1.58709
2.61924
2.80446
2.56589
1.02308
1.53131
0.351651
0.148929
0.20547
0.202184
0.252922
0.347317
0.146568
0.718035
0.896876
0.754603
1.07867
1.18606
1.24033
1.03133
0.626614
0.648761
0.6954
0.869376
0.923352
0.943195
1.0005
0.387084
0.616608
0.754329
1.04119
0.604001
0.739257
0.398608
0.736323
0.60425
0.388041
0.38463
1.03494
0.601035
0.734521
1.23648
1.71916
1.1141
1.50216
1.70257
1.10152
1.24475
0.377253
0.162651
0.225344
0.252793
0.30275
0.415506
0.181259
1.23938
1.50007
1.09893
1.2347
1.49594
1.70024
1.09709
0.182204
0.166238
0.24267
0.199179
0.28592
0.370469
0.258676
0.647571
0.791694
0.425217
0.472328
1.17092
0.703249
0.861019
0.716061
0.920682
0.786508
1.17711
1.02573
1.10464
1.2595
1.76873
1.15231
1.27759
1.3577
1.66025
1.87493
1.23336
2.77608
2.76617
1.72985
2.76244
1.27152
2.77317
1.38231
1.25131
1.74518
1.21553
1.70722
1.73119
1.2103
1.25658
1.21994
1.74436
1.25676
1.25101
1.70955
1.73152
1.21158
0.374799
0.876361
0.485559
0.965097
0.545497
0.672224
1.12272
1.30728
2.79235
1.33776
1.42388
2.76052
1.70301
2.90212
0.295483
0.347914
0.56046
0.254284
0.475189
0.357665
0.210524
1.79429
1.24065
1.28388
1.35801
1.87115
1.90603
1.30968
0.776637
0.977868
0.772223
1.07402
1.33147
1.08208
1.31922
0.989537
1.08677
0.782306
0.979044
0.773667
1.07563
1.32068
1.0883
1.20848
1.30999
1.34087
1.45983
1.71928
1.55039
1.08095
1.24568
1.30029
1.38946
1.45001
1.71552
1.65734
1.21014
1.72798
1.20379
1.28502
1.85498
1.84454
1.29448
0.434443
0.222468
0.325718
0.482128
0.460193
0.624483
0.342909
0.543819
1.27496
0.895424
1.09444
0.786412
0.640913
0.964486
1.30028
1.74754
1.21546
1.73089
1.20529
1.28708
1.84852
0.797272
1.07386
0.850006
1.37007
1.1105
1.17504
1.45324
1.2381
1.88844
1.30963
1.89973
1.32938
1.41024
1.99997
1.49128
2.05275
2.38396
1.63751
2.09935
1.68816
1.43776
1.49534
1.79997
2.30956
1.5314
2.0512
1.36196
1.69092
0.675869
0.317522
0.443828
0.558247
0.646109
0.824809
0.40724
1.09099
1.22874
1.37927
1.29935
1.475
1.65615
1.77304
1.17655
1.08175
0.945
1.28867
1.81569
1.46327
1.59676
0.759588
1.04086
0.616435
0.814681
1.44019
0.969163
1.28094
1.8681
1.4199
1.56776
2.03373
2.00466
2.41467
1.77012
2.05901
1.64871
1.4426
1.55452
2.38588
2.16142
1.7752
1.02617
1.2408
0.761466
0.900607
1.70751
1.17502
1.39371
1.49198
2.10602
2.45966
1.86526
2.09788
1.50517
1.84935
1.8712
2.11534
1.51078
1.49432
2.46249
2.10169
1.85211
0.704286
0.702687
1.22578
0.827212
0.885111
1.00939
0.532243
1.89142
1.50475
1.56186
2.07044
2.52226
2.55752
2.02759
2.65071
1.7303
1.94799
2.27702
2.47025
3.04749
1.95329
1.27275
1.69146
1.26027
1.71177
1.67541
2.30227
2.31573
1.2593
1.72717
1.6912
1.70992
1.67425
2.29989
2.31223
2.15072
1.92144
1.54976
1.64738
2.58494
2.25235
2.03628
2.75316
1.92438
1.96674
2.35642
2.94977
3.16484
2.30981
1.38104
1.78287
1.74486
1.85488
1.89879
2.36429
2.46944
1.48378
1.94387
1.56876
2.50152
2.03853
2.16852
2.58394
1.25766
1.81688
1.48421
2.11706
1.71195
2.05011
2.46338
1.0541
1.72333
1.53148
1.886
1.22191
1.34172
1.55256
1.94086
2.63014
2.07075
2.81057
2.30638
2.40921
2.8016
1.50727
2.28965
2.03637
2.33841
2.08725
2.61938
2.78107
1.81427
2.69444
2.60344
2.44708
2.41325
2.0522
2.21443
2.69011
2.48143
3.68679
2.7608
3.15065
3.42925
2.20219
2.85429
3.70496
3.15234
3.18672
3.37035
3.52109
2.75333
2.22056
2.204
1.79623
2.4362
2.90985
2.75635
2.75549
2.87074
2.32689
2.78061
2.31558
2.76478
2.76161
2.89027
2.36698
2.77161
2.35487
2.7653
2.80793
2.76235
2.83163
2.77024
2.36119
2.35196
2.76323
2.80266
2.75799
2.83001
2.77857
2.32569
2.31379
2.76252
2.86462
2.75781
2.8877
2.94544
2.94179
2.67933
2.72315
2.62445
2.89515
2.84217
2.4091
2.79729
2.50924
2.75958
2.77982
2.8265
2.68162
2.75397
2.67947
2.34122
2.63418
2.68134
2.8101
2.83687
2.37498
2.83661
2.47498
2.83404
2.78131
2.83261
2.7826
2.80923
2.79063
2.65047
2.87192
2.18076
2.51743
2.87326
2.88579
2.77843
2.61953
2.89032
2.40401
2.91352
2.66686
1.19149
1.4038
1.56959
1.34801
1.79673
2.40254
2.82303
1.62699
2.32164
0.679865
0.389412
1.29981
1.13152
1.48439
0.637505
0.715933
1.46197
0.300767
0.352411
0.475863
0.447457
0.536871
0.591136
0.655569
0.517663
0.735662
0.578602
0.927303
0.745561
0.807519
0.984865
0.465157
0.752451
0.571824
0.876627
0.675658
0.799049
1.00427
1.02531
1.10337
0.785631
1.17722
0.85127
0.920386
1.25885
0.913579
1.13406
0.863627
1.06957
1.11832
1.38115
1.44513
1.36224
0.867111
1.05783
1.16458
0.893722
0.709174
0.952123
1.7735
1.65738
1.22958
1.47491
1.37987
1.02363
1.09111
1.81373
1.32509
1.59415
1.28679
1.17497
0.943666
1.08107
2.44283
2.35081
1.83473
2.24542
2.76728
1.23416
1.95647
1.61917
1.04624
1.25302
1.49785
1.2585
1.6292
1.97996
2.16948
2.04046
1.485
2.50342
1.83476
1.94502
2.5849
1.31378
1.69609
1.36733
2.17118
1.70304
1.78972
2.28477
1.81677
2.46315
2.0501
1.71128
2.116
1.53079
1.25748
1.80204
1.77467
1.72428
2.24119
2.27249
2.34821
2.81023
2.20423
2.75561
2.43658
2.22122
2.90986
2.61948
2.75657
1.83353
1.91073
1.52775
2.03198
2.8371
2.53688
2.45608
0.423217
0.607699
0.0631607
0.199781
0.984957
0.0824862
0.0301853
0.494692
0.129201
0.598686
1.32597
1.40843
0.721505
0.204355
0.746252
0.202797
0.056188
0.201676
0.0891904
0.215394
0.0971953
0.143066
0.307149
0.217451
0.304304
0.325132
0.326319
0.353093
0.492004
0.454937
0.0335251
0.0367972
0.0450226
0.0396709
0.049247
0.0671509
0.0502353
0.211384
0.302929
0.318179
0.330354
0.346916
0.485759
0.464522
0.0915749
0.0472143
0.0631495
0.0951335
0.0910037
0.137254
0.0663136
0.639036
0.434164
0.465372
0.667754
0.810791
0.868825
0.621018
0.203202
0.296517
0.136049
0.20895
0.589377
0.300591
0.432735
0.0556127
0.11584
0.0747013
0.102343
0.108351
0.157365
0.0722265
0.330569
0.246437
0.157206
0.221775
0.647745
0.335053
0.453491
0.492908
0.784934
0.538448
0.712706
0.912361
0.65788
0.983997
0.631793
0.438748
0.458238
0.661425
0.829515
0.861316
0.635124
0.780693
0.509919
0.533714
0.707668
0.93685
0.977535
0.678515
0.144138
0.134178
0.299094
0.146082
0.203678
0.217386
0.0972856
0.312214
0.78168
0.582535
0.818531
0.428179
0.449359
0.610378
0.915297
1.05357
1.4623
1.11718
1.1391
0.851126
1.2093
0.908755
1.09039
1.45746
1.15351
1.13122
1.20087
0.87305
0.0579452
0.0994919
0.0287474
0.0200498
0.00940942
0.0288277
0.0650696
0.143681
0.067462
0.0954597
0.00169199
0.00183902
0.231692
0.245264
0.303411
0.325622
0.0012743
0.00882407
0.00821047
0.014243
0.0143445
0.0466434
0.0442525
0.00397981
0.00823108
0.0113574
0.011371
0.0129165
0.0183828
0.0267574
0.0156653
0.0210627
0.0168028
0.0217864
0.0176826
0.0198647
0.0229463
0.00117747
0.00991859
0.0075696
0.0160602
0.0134786
0.043744
0.0475548
0.0279438
0.0218651
0.0162656
0.0301918
0.121119
0.0630239
0.0519731
0.100014
0.0347879
0.0350212
0.110193
0.190901
0.105264
0.202086
0.0432669
0.146647
0.0931944
0.0369202
0.0224514
0.0346894
0.0731352
0.250583
0.15604
0.170108
0.0608954
0.0645891
0.13179
0.122414
0.187095
0.195106
0.0949191
0.0382527
0.108329
0.0327503
0.105147
0.0314319
0.0242389
0.0230269
0.022267
0.0188729
0.0241395
0.0250111
0.235528
0.127042
0.16554
0.163247
0.0662401
0.061332
0.126822
0.0329859
0.037706
0.0297898
0.0241476
0.0216656
0.02618
0.0264256
0.0895007
0.308079
0.202124
0.0976158
0.216034
0.0564193
0.129554
0.492782
0.455836
0.304785
0.327036
0.353781
0.21793
0.204768
0.0504666
0.0369367
0.0452064
0.0398567
0.049493
0.0336741
0.0303074
0.31869
0.465258
0.48655
0.347624
0.330955
0.203194
0.211849
0.0857423
0.180068
0.437244
0.41956
0.0353197
0.0618204
0.20981
0.0955234
0.180104
0.925047
0.593875
0.311085
0.587365
0.439274
0.465881
1.21634
1.30217
0.322588
0.156922
0.0631594
0.0212895
0.446915
0.245479
0.650068
0.313408
0.0512553
0.0201837
0.00531328
0.0681029
0.0308638
0.0666119
0.111475
0.0500637
0.196289
0.11796
0.193761
0.084192
0.133272
0.292714
0.232544
0.446801
0.809097
0.916828
0.425836
1.27378
1.75336
0.196024
0.292924
0.185321
0.28735
0.304116
0.450095
0.42318
0.118554
0.199341
0.0997215
0.0578812
0.126101
0.241865
0.16738
0.105858
0.176583
0.132858
0.204802
0.126834
0.172852
0.261227
0.288837
0.303498
0.188958
0.281825
0.296419
0.442463
0.423825
0.0429177
0.0279505
0.030305
0.0346147
0.0419846
0.0614278
0.0457638
0.143647
0.178718
0.0891704
0.225086
0.136172
0.187282
0.293325
0.221396
0.156264
0.23662
0.325917
0.455426
0.2361
0.343974
0.473476
0.340575
0.214981
0.529536
0.364151
0.260465
0.395604
0.191839
0.298529
0.345805
0.291138
0.336906
0.431113
0.479358
0.29135
0.201281
0.132297
0.201476
0.575385
0.294908
0.419806
0.0903351
0.0452591
0.0609198
0.0904017
0.0869654
0.133005
0.0618805
0.136483
0.433944
0.297154
0.203749
0.590579
0.301578
0.423952
0.0666091
0.0473731
0.0633592
0.0918032
0.0913626
0.137724
0.0633411
0.624561
0.419581
0.445068
0.624714
0.777441
0.587527
0.829806
0.668522
0.621982
0.43474
0.6395
0.811617
0.599225
0.869593
0.304761
0.310562
0.203322
0.263016
0.545933
0.39305
0.382006
0.41891
0.61689
0.437354
0.61705
0.792851
0.820941
0.594034
0.458777
0.635881
0.662195
0.63227
0.830223
0.86204
0.608178
0.312785
0.44473
0.590121
0.575945
0.43351
0.588525
0.74264
0.59485
0.639018
0.473077
0.784648
0.594989
0.639132
0.825899
0.819333
0.468856
0.621305
0.351024
0.67303
0.508965
0.489694
0.636793
0.686831
0.497695
0.820601
0.609142
0.655118
0.865213
0.134127
0.124747
0.12792
0.276697
0.196681
0.193175
0.0880322
0.296433
0.748631
0.760122
0.553977
0.418655
0.413959
0.579281
0.840172
0.987349
1.01077
1.34092
0.786482
1.09157
1.06525
0.831611
1.02413
1.04768
1.33769
1.08339
1.05693
0.80253
0.985212
0.610899
0.770182
0.771494
1.18053
0.988578
0.938942
0.734182
0.753052
0.581299
0.753138
1.12556
0.943146
0.916875
1.00552
1.0275
0.793955
0.835882
1.32182
1.0711
1.04726
0.954344
1.4238
1.38903
1.47146
1.20125
1.17346
1.13869
0.144828
0.578687
0.873996
0.802155
1.13862
0.604436
0.470711
0.279614
1.03865
0.928115
2.45413
0.872368
1.68201
0.6385
0.313626
0.327416
1.0428
0.841132
1.79581
0.261935
1.1059
0.0878505
0.275881
1.14295
0.748804
0.255084
1.66416
1.08652
0.916426
1.56995
2.0304
3.40636
2.56838
1.46857
1.65813
0.786093
1.53648
1.7285
2.30768
1.43224
3.38324
1.62132
0.225191
0.365039
0.32174
0.396022
0.43812
0.498339
0.589403
0.793637
1.70176
1.83329
3.11107
1.58998
2.79543
1.72944
1.22583
1.09329
2.74347
1.13818
2.16477
1.40383
2.84718
0.360729
0.628326
0.670227
0.500084
0.54184
0.708309
0.848416
0.13389
0.127535
0.124618
0.193005
0.196168
0.276233
0.17976
0.0978135
0.134808
0.204517
0.146941
0.218515
0.300422
0.200785
1.07058
0.577298
0.974445
0.667418
0.744612
0.846982
1.18733
0.458046
0.747199
0.552134
0.88488
0.671212
0.775499
1.00136
0.295932
0.759238
0.748347
0.413656
0.417745
0.553333
0.924568
0.839783
1.01017
0.987158
1.06502
1.09087
1.34037
1.21596
0.831236
1.04704
1.02391
1.0567
1.08274
1.33712
1.30163
0.612155
0.78318
0.429661
0.820555
0.451309
0.584399
0.986493
0.85243
1.05463
1.14023
1.11871
1.21085
1.46395
1.32725
0.909781
1.09138
1.13227
1.1547
1.20222
1.45896
1.40985
0.77471
0.817482
0.756454
0.940919
0.985986
1.00987
1.202
0.187272
0.390036
0.284791
0.406852
0.384925
0.54123
0.276979
0.18659
0.405471
0.283878
0.389186
0.383823
0.53998
0.261264
0.177781
0.382364
0.274095
0.382078
0.363229
0.517807
0.25486
0.835644
1.02698
1.00534
1.04713
1.07072
1.27336
1.32153
0.102885
0.708681
0.222885
0.0375729
0.112873
0.260193
1.12492
0.130318
0.361743
0.713773
0.371366
0.402186
1.55264
1.65924
0.994122
1.0799
0.406441
0.287064
0.314953
0.454222
0.502946
0.621833
0.566075
0.0811385
0.24427
0.181116
0.297041
0.14018
0.184066
0.378862
0.0448388
0.0569957
0.0447275
0.0534704
0.0699749
0.0887295
0.0653362
0.382352
0.311725
0.295243
0.474899
0.501827
0.619026
0.588962
0.0726334
0.0559134
0.0751153
0.116535
0.109034
0.158274
0.0829907
0.455087
0.157962
0.331742
0.247709
0.649928
0.336753
0.496552
0.659262
0.494079
0.539455
0.786246
0.91407
0.985436
0.723185
0.679432
0.510736
0.534692
0.781869
0.937888
0.978777
0.747196
0.0818427
0.182644
0.112264
0.141051
0.158778
0.225785
0.10045
0.229551
0.689955
0.461414
0.290991
0.817503
0.442397
0.570915
0.687581
1.08393
0.757339
0.902556
1.15288
1.2502
0.829157
0.755709
0.718587
1.03175
0.898139
1.1869
1.24184
0.856686
0.183304
0.167292
0.372412
0.200393
0.244094
0.287507
0.127826
0.376635
0.878694
0.674655
0.96756
0.487732
0.547754
0.714942
1.09004
1.21043
1.72203
1.34321
1.31193
1.46219
1.00919
1.08234
1.24694
1.71786
1.39072
1.3019
1.45184
1.03454
0.881553
0.81478
0.673441
0.906426
1.33184
1.06167
1.14895
1.27272
1.10717
0.786481
0.977477
1.55213
1.1344
1.34367
0.484324
0.223759
0.344726
0.436299
0.462238
0.626751
0.30355
1.32478
1.20377
0.949402
1.06363
1.8763
1.33912
1.47113
1.28277
0.61869
0.817016
0.761619
1.44162
1.2016
0.971183
0.948161
0.707501
0.564294
0.727057
1.30223
0.876766
1.144
0.947157
0.725521
0.563
0.70656
1.30158
0.875674
1.10531
0.917039
0.698674
0.550561
0.698355
1.25587
0.849967
1.08634
2.03686
1.42166
1.77219
1.87046
2.00654
1.63726
2.41813
1.25928
1.67344
1.3887
1.75301
1.75689
1.53745
2.09446
1.25848
1.75136
1.38758
1.67248
1.75618
1.46804