/*--------------------------------*- C++ -*----------------------------------*\
  =========                 |
  \\      /  F ield         | OpenFOAM: The Open Source CFD Toolbox
   \\    /   O peration     | Website:  https://openfoam.org
    \\  /    A nd           | Version:  9
     \\/     M anipulation  |
\*---------------------------------------------------------------------------*/
FoamFile
{
    format      ascii;
    class       volVectorField;
    location    "0.0012";
    object      U;
}
// * * * * * * * * * * * * * * * * * * * * * * * * * * * * * * * * * * * * * //

dimensions      [0 1 -1 0 0 0 0];

internalField   nonuniform List<vector> 
10045
(
(-844.721 -480.675 61.3945)
(-663.369 -389.882 397.075)
(-44.0043 -25.5475 11.3011)
(-179.86 -110.509 50.4074)
(-5.96747 -2.54589 1.9597)
(-0.000447956 -0.000140977 0.000123721)
(-0.0250944 -0.00812958 0.00371966)
(-250.684 -112.421 124.13)
(-550.067 -235.212 151.243)
(-3.03295 -0.90266 0.546239)
(-0.0510225 -0.0125208 0.0128377)
(-748.17 -436.194 362.012)
(-192.342 -104.836 97.4385)
(-662.846 -359.263 39.93)
(-578.417 -415.902 314.177)
(-768.619 -565.679 55.3604)
(-29.4005 -16.3005 1.0837)
(-0.643285 -0.264279 0.181702)
(-822.377 -472.415 154.928)
(-826.021 -516.847 60.7506)
(-815.544 -509.778 170.627)
(-861.565 -483.048 60.6964)
(-844.028 -475.692 176.74)
(-805.725 -500.493 177.853)
(-825.501 -512.115 58.2992)
(-117.438 -73.1553 39.5285)
(-0.281161 -0.10565 0.0715746)
(-23.9429 -10.2154 12.4362)
(-0.230679 -0.122499 0.089639)
(-328.331 -239.825 215.551)
(-0.0464039 -0.0178716 0.0174899)
(-8.59221e-05 -4.12009e-05 1.69242e-05)
(-499.279 -213.911 162.258)
(-481.913 -236.202 130.471)
(-400.624 -199.292 130.807)
(-352.633 -153.782 94.1645)
(-238.086 -105.566 78.2427)
(-203.471 -102.496 55.1564)
(-107.047 -52.5009 34.0652)
(-784.641 -452.025 253.509)
(-720.598 -458.006 371.622)
(-780.195 -491.443 279.219)
(-714.679 -409.312 368.424)
(-794.973 -454.437 287.578)
(-750.501 -467.034 282.586)
(-648.991 -396.355 342.263)
(-0.822586 -0.350313 0.23716)
(-0.000135359 -4.18238e-05 3.49673e-05)
(-0.0876878 -0.0334299 0.0145791)
(-0.00055304 -0.000235751 0.000167164)
(-0.0169822 -0.00936911 0.00349358)
(-0.000217443 -0.000101009 3.00025e-05)
(-4.83198e-05 -2.16201e-05 1.15571e-05)
(-809.117 -552.93 59.0923)
(-751.838 -552.355 173.367)
(-795.835 -543.935 176.662)
(-745.525 -499.066 168.425)
(-664.675 -471.697 42.5606)
(-625.437 -442.074 141.184)
(-768.731 -516.563 52.9124)
(-822.981 -461.175 55.7397)
(-609.545 -331.991 132.965)
(-795.84 -446.483 174.313)
(-711.081 -427.99 157.136)
(-448.407 -268.541 25.5782)
(-377.702 -227.232 86.1063)
(-744.085 -450.625 48.2041)
(-356.326 -200.021 97.8116)
(-90.1449 -52.4015 28.5528)
(-247.747 -140.491 82.2278)
(-14.3826 -6.58605 3.12429)
(-71.4137 -36.657 18.3951)
(-26.8006 -12.0344 7.25708)
(-5.05781 -2.10621 1.16032)
(-408.194 -177.161 164.069)
(-119.186 -59.7035 56.7918)
(-274.799 -139.864 112.982)
(-27.6126 -10.2389 10.692)
(-113.696 -49.4008 45.2079)
(-33.9074 -14.6086 11.7842)
(-7.41519 -2.68225 2.43482)
(-552.725 -323.231 344.826)
(-619.556 -387.389 389.868)
(-572.485 -322.825 357.728)
(-425.722 -270.837 283.319)
(-295.435 -172.798 194.281)
(-428.421 -265.936 273.975)
(-113.278 -67.5185 76.6024)
(-675.755 -459.199 362.091)
(-694.725 -507.283 271.789)
(-751.268 -514.984 284.878)
(-669.77 -443 256.564)
(-258.215 -182.196 138.52)
(-494.503 -350.22 195.579)
(-501.783 -331.707 269.346)
(-61.911 -24.9618 15.1748)
(-1.03453 -0.288402 0.209331)
(-23.0941 -8.28782 6.06121)
(-0.738038 -0.22799 0.123293)
(-16.8462 -6.61132 3.56218)
(-6.13745 -2.17801 1.40554)
(-0.249504 -0.0725462 0.0472042)
(-565.709 -313.717 295.23)
(-445.078 -245.969 171.896)
(-721.308 -401.817 268.211)
(-595.944 -357.65 226.687)
(-45.0589 -22.4074 19.311)
(-207.553 -121.798 81.0385)
(-366.522 -224.311 194.727)
(-27.9588 -14.1299 9.58239)
(-31.4722 -14.6383 12.589)
(-123.049 -67.9608 49.7626)
(-7.78718 -3.0088 2.26949)
(-0.247362 -0.0876471 0.0660292)
(-1.29795 -0.495831 0.335681)
(-1.50015 -0.51609 0.439392)
(-534.087 -347.955 120.158)
(-185.297 -115.22 9.61291)
(-324.801 -226.438 18.132)
(-18.018 -9.38543 3.17894)
(-258.231 -178.707 60.5741)
(-130.504 -78.3421 29.2581)
(-589.792 -383.215 35.7267)
(-325.257 -200.448 174.163)
(-20.78 -11.6114 7.31572)
(-134.982 -85.7191 80.3103)
(-6.99864 -3.18296 2.04213)
(-47.3615 -24.7192 27.2315)
(-8.1073 -3.79027 4.88554)
(-0.906143 -0.40091 0.278025)
(-524.975 -352.848 340.587)
(-52.5998 -34.6932 36.942)
(-228.713 -156.298 158.601)
(-41.8074 -25.7266 23.9969)
(-211.919 -140.207 134.504)
(-19.7286 -10.5518 13.0756)
(-2.27024 -1.12815 1.39991)
(-16.0097 -8.2887 4.13556)
(-6.22088 -3.24263 1.35559)
(-2.14594 -0.943704 0.416861)
(-2.01008 -0.996446 0.44685)
(-0.71297 -0.295162 0.145639)
(-0.259918 -0.115646 0.0472227)
(-0.0830329 -0.0361836 0.0159049)
(-370.335 -242.847 147.692)
(-6.41497 -2.73473 2.13707)
(-20.1304 -10.8323 7.79081)
(-4.98251 -2.29546 1.26697)
(-118.386 -76.7283 45.0535)
(-42.1818 -22.5114 13.8477)
(-137.416 -84.7695 68.4958)
(-1.26759 -0.360269 0.362415)
(-0.266452 -0.0682857 0.0615206)
(-6.63587 -2.0939 1.89633)
(-1.57177 -0.504005 0.406715)
(-0.0121944 -0.00335048 0.00302261)
(-0.0631798 -0.0179919 0.0139231)
(-0.305819 -0.0898732 0.0807098)
(-276.743 -157.625 172.744)
(-1.33512 -0.453056 0.743219)
(-33.6451 -15.9402 21.7375)
(-3.86832 -1.48031 1.7306)
(-91.806 -51.3522 54.2841)
(-5.85916 -2.48885 3.56635)
(-0.198436 -0.0666551 0.104193)
(-0.629929 -0.22831 0.109781)
(-0.151194 -0.0456629 0.0232963)
(-3.70354 -1.34432 0.702025)
(-1.24429 -0.418608 0.257307)
(-0.00817241 -0.00261443 0.00154829)
(-0.207805 -0.0722382 0.0397193)
(-0.0502282 -0.0146114 0.00974074)
(-4.37036 -2.02125 1.24028)
(-0.0928379 -0.0417952 0.0247628)
(-0.511145 -0.237929 0.127455)
(-0.0332876 -0.0126807 0.00844714)
(-0.179138 -0.0705925 0.0420205)
(-0.0205249 -0.00870113 0.00449889)
(-0.00378784 -0.00157918 0.000924458)
(-2.46367 -1.28842 0.901146)
(-2.77969 -1.50794 1.86834)
(-24.357 -14.1145 15.8008)
(-1.01818 -0.456836 0.627849)
(-0.00911537 -0.00447832 0.00319898)
(-0.104388 -0.0479555 0.0641966)
(-0.0979983 -0.0446281 0.0323897)
(-4.22863 -14.3898 22.0969)
(-642.468 -732.578 56.8245)
(-324.761 -628.519 138.387)
(-239.141 -312.631 120.94)
(-316.211 -575.201 191.461)
(-267.604 -470.847 235.515)
(-204.938 -1072 83.8474)
(-196.051 -753.451 331.985)
(-153.921 -537.815 141.445)
(-5.97641 -10.0484 14.5633)
(-228.174 -1039.4 66.2962)
(-203.089 -800.602 241.408)
(-194.012 -620.881 150.227)
(-364.573 -933.518 62.7064)
(-330.842 -797.231 333.368)
(-358.02 -929.79 60.8364)
(-279.859 -620.874 131.567)
(-169.914 -493.81 237.665)
(-168.822 -596.127 154.431)
(-181.522 -521.717 201.243)
(-306.199 -711.536 381.651)
(-242.818 -525.949 239.265)
(-267.014 -562.343 194.269)
(-157.35 -318.369 88.1037)
(-198.365 -555.248 201.746)
(-50.7354 -163.766 78.6739)
(-206.019 -567.962 233.208)
(-285.317 -564.668 196.627)
(-267.661 -517.071 263.892)
(-102.402 -203.073 54.8872)
(-2.69312 -7.4385 2.44123)
(-188.148 -982.658 75.5355)
(-262.434 -1057.76 78.6671)
(-243.811 -971.272 67.6624)
(-221.361 -1075.56 74.6939)
(-213.989 -1003.17 61.5186)
(-268.098 -985.244 63.0438)
(-277.507 -1055.98 71.6509)
(-409.301 -900.475 63.1814)
(-404.179 -901.235 61.9091)
(-367.444 -780.97 359.95)
(-541.068 -829.711 63.8603)
(-448.268 -664.103 253.058)
(-511.714 -825.302 58.2885)
(-395.828 -648.611 342.067)
(-154.268 -628.021 165.734)
(-218.204 -798.34 89.2934)
(-167.43 -808.675 100.94)
(-178.924 -685.772 148.737)
(-197.587 -848.882 86.0806)
(-246.095 -836.228 86.4362)
(-219.414 -681.095 147.54)
(-301.29 -953.608 62.1983)
(-377.241 -1002.7 71.2053)
(-320.589 -1034.36 74.4779)
(-319.057 -961.122 65.1567)
(-381.327 -993.891 70.1276)
(-366.559 -931.207 68.0186)
(-331.297 -1028.21 70.4854)
(-139.374 -490.73 244.979)
(-174.943 -519.5 219.91)
(-142.58 -519.473 225.364)
(-164.406 -591.206 227.435)
(-160.415 -570.786 244.313)
(-196.902 -582.051 247.733)
(-201.001 -597.176 228.738)
(-173.854 -503.622 230.586)
(-141.523 -497.776 234.684)
(-147.283 -515.404 205.682)
(-170.053 -607.412 201.635)
(-163.533 -585.674 232.331)
(-203.696 -600.093 232.453)
(-212.788 -614.652 196.126)
(-289.544 -559.415 253.96)
(-328.183 -684.049 389.165)
(-83.9566 -154.536 46.1929)
(-337.161 -476.014 165.03)
(-439.93 -656.19 351.36)
(-265.286 -427.642 273.477)
(-0.396997 -0.898117 0.275318)
(-229.695 -1065.59 70.0787)
(-224.935 -983.399 79.9629)
(-225.258 -1002.74 66.0792)
(-273.604 -980.172 69.4333)
(-277.219 -1011.48 64.7198)
(-271.304 -955.386 90.8681)
(-281.831 -1042.19 69.3513)
(-190.028 -540.027 191.474)
(-158.732 -545.24 203.711)
(-153.681 -531.826 195.813)
(-174.513 -616.522 190.365)
(-175.838 -611.46 207.193)
(-216.824 -610.562 184.222)
(-217.09 -596.446 202.806)
(-0.00337294 -0.0146771 0.020994)
(-121.87 -448.281 491.923)
(-41.4832 -157.971 142.276)
(-6.63754 -249.373 226.231)
(-51.4481 -451.552 503.979)
(-0.936205 -34.121 48.7317)
(-0.000661052 -0.0416214 0.0606383)
(-235.97 -618.616 137.278)
(-322.615 -773.8 77.3132)
(-270.574 -786.131 80.1312)
(-293.944 -821.056 90.8243)
(-303.633 -681.126 166.307)
(-339.651 -803.924 101.655)
(-261.153 -679.274 152.005)
(-313.536 -544.164 189.378)
(-36.488 -71.0828 18.2524)
(-0.517434 -1.50211 0.439706)
(-28.6952 -43.5165 19.0846)
(-275.209 -377.323 110.437)
(-0.114821 -0.258144 0.0467813)
(-0.00159105 -0.00373191 0.000942283)
(-203.721 -504.551 234.427)
(-250.332 -541.599 213.132)
(-210.131 -525.576 215.232)
(-237.867 -603.04 257.628)
(-284.388 -631.397 256.151)
(-283.741 -626.91 276.58)
(-240.968 -610.192 236.965)
(-428.246 -965.235 69.7505)
(-474.152 -923.892 69.2217)
(-454.719 -866.954 67.2272)
(-426.574 -952.092 69.7332)
(-410.38 -895.192 73.4785)
(-448.78 -853.205 87.1153)
(-466.677 -905.485 68.0781)
(-215.313 -882.649 143.903)
(-193.575 -742.914 173.546)
(-212.536 -876.111 103.423)
(-257.839 -857.826 111.673)
(-246.907 -800.763 266.198)
(-259.45 -864.064 162.744)
(-235.621 -738.689 186.252)
(-320.625 -950.306 74.8178)
(-322.957 -974.198 63.5828)
(-358.204 -895.748 127.385)
(-377.805 -969.658 68.1337)
(-364.146 -913.674 84.3468)
(-315.886 -924.223 107.273)
(-331.576 -1009.43 69.0423)
(-220.616 -538.638 197.451)
(-251.156 -541.483 227.29)
(-209.595 -517.141 227.434)
(-247.529 -615.039 236.514)
(-292.547 -594.431 183.35)
(-291.668 -618.897 245.136)
(-256.712 -611.669 189.632)
(-2.86076 -7.53536 12.3026)
(-0.000113829 -0.00026066 0.000347032)
(-0.00182826 -0.00686244 0.00964378)
(-156.459 -442.12 478.848)
(-33.4189 -97.7872 88.5039)
(-218.384 -372.111 391.856)
(-1.68948 -3.80023 3.53988)
(-528.842 -608.712 349.517)
(-558.664 -783.553 61.5384)
(-491.342 -684.79 309.869)
(-106.185 -139.378 7.20444)
(-516.073 -768.491 52.8844)
(-2.45971 -4.12031 1.4148)
(-331.071 -501.124 269.002)
(-372.103 -762.22 84.1608)
(-368.484 -638.191 161.413)
(-416.562 -749.464 102.644)
(-345.134 -686.158 194.437)
(-381.3 -784.696 121.77)
(-416.628 -762.927 153.472)
(-385.15 -695.265 236.132)
(-182.644 -680.312 262.647)
(-190.529 -703.134 314.828)
(-181.197 -670.998 274.848)
(-223.823 -676.603 287.29)
(-237.455 -744.789 349.785)
(-227.763 -686.13 323.598)
(-224.23 -690.69 278.242)
(-279.84 -569.502 180.155)
(-241.873 -566.601 200.225)
(-232.377 -556.477 186.227)
(-285.386 -566.828 166.136)
(-256.877 -593.822 176.662)
(-251.638 -572.675 195.828)
(-272.746 -538.761 181.677)
(-301.612 -837.005 125.79)
(-290.138 -801.4 298.173)
(-342.35 -835.504 218.175)
(-319.254 -741.625 239.769)
(-342.573 -815.074 149.213)
(-301.769 -846.978 188.075)
(-277.731 -737.638 207.703)
(-182.89 -656.155 236.66)
(-183.68 -644.726 187.004)
(-184.151 -666.002 242.989)
(-225.951 -654.841 243.998)
(-190.612 -543.069 139.114)
(-213.594 -625.011 229.17)
(-222.166 -624.04 178.626)
(-211.999 -565.205 286.3)
(-170.676 -573.972 286.228)
(-164.13 -560.984 231.098)
(-169.723 -559.965 280.079)
(-175.929 -592.798 242.481)
(-212.544 -571.232 235.89)
(-198.405 -530.774 264.652)
(-512.703 -877.356 68.0984)
(-521.345 -784.063 104.547)
(-493.697 -827.401 78.0038)
(-478.745 -811.893 115.609)
(-518.402 -813.986 61.3376)
(-506.966 -784.938 146.676)
(-494.853 -856.646 63.7538)
(-398.472 -875.849 149.015)
(-416.475 -924.457 65.3988)
(-402.575 -873.089 103.845)
(-437.526 -840.427 130.54)
(-444.193 -880.738 61.6621)
(-437.57 -862.531 167.612)
(-448.149 -879.125 62.8905)
(-296.058 -566.672 222.29)
(-344.775 -598.518 249.798)
(-343.134 -598.795 282.803)
(-330.162 -657.597 289.949)
(-329.125 -641.966 305.798)
(-373.809 -677.034 334.481)
(-361.904 -640.181 336.868)
(-300.713 -572.909 235.463)
(-348.964 -565.015 189.725)
(-350.075 -590.559 254.307)
(-314.635 -568.082 174.284)
(-324.774 -608.164 256.107)
(-343.14 -587.812 264.912)
(-313.511 -522.261 159.801)
(-179.079 -618.298 176.621)
(-133.766 -461.066 147.105)
(-172.441 -587.211 195.2)
(-166.945 -465.755 122.082)
(-213.775 -590.855 166.11)
(-201.338 -553.333 181.981)
(-135.035 -367.296 118.932)
(-265.616 -673.799 304.777)
(-275.265 -731.262 367.414)
(-309.1 -709.177 334.498)
(-274.655 -627.974 337.828)
(-300.023 -663.367 324.356)
(-257.771 -663.798 332.481)
(-267.317 -702.228 302.724)
(-408.801 -648.655 201.287)
(-480.92 -712.258 174.838)
(-452.721 -731.634 133.147)
(-446.976 -745.217 194.961)
(-466.525 -723.895 338.168)
(-480.144 -740.509 233.226)
(-425.431 -711.262 286.517)
(-17.6116 -448.788 501.508)
(-15.8017 -458.675 474.14)
(-13.6772 -401.288 476.802)
(-43.6624 -400.538 475.135)
(-48.935 -459.377 474.344)
(-34.6369 -336.504 369.608)
(-10.3435 -343.391 378.283)
(-261.673 -636.58 245.489)
(-191.546 -453.956 118.679)
(-222.146 -483.294 200.216)
(-264.278 -546.745 152.013)
(-287.375 -611.25 246.183)
(-229.425 -572.208 218.743)
(-252.236 -594.507 167.506)
(-282.195 -547.661 230.346)
(-248.687 -565.357 234.753)
(-245.979 -545.86 279.188)
(-239.669 -540.311 223.138)
(-201.628 -400.532 197.362)
(-247.82 -494.674 200.728)
(-212.471 -485.612 238.843)
(-382.222 -830.016 250.856)
(-360.392 -750.576 281.704)
(-379.285 -795.463 182.664)
(-414.151 -783.974 219.198)
(-395.02 -753.737 371.359)
(-421.232 -820.448 277.312)
(-400.411 -757.729 327.841)
(-86.5179 -451.057 500.69)
(-103.224 -379.46 445.519)
(-115.879 -443.811 453.758)
(-74.6202 -393.587 465.3)
(-83.0969 -454.623 467.368)
(-58.0412 -317.86 346.416)
(-75.6961 -284.913 306.396)
(-472.088 -822.417 155.033)
(-482.728 -861.416 60.6812)
(-516.468 -826.024 60.7237)
(-500.079 -805.546 177.836)
(-475.353 -843.881 176.76)
(-509.438 -815.595 170.666)
(-480.348 -844.621 61.3704)
(-319.052 -561.006 173.226)
(-338.19 -537.104 162.007)
(-295.278 -527.666 149.403)
(-321.583 -511.205 174.264)
(-269.985 -483.725 159.313)
(-275.882 -451.14 125.557)
(-228.275 -368.336 122.014)
(-543.577 -752.478 139.466)
(-582.055 -752.756 60.6268)
(-572.571 -738.007 160.684)
(-549.178 -787.229 60.6195)
(-540.905 -776.503 164.473)
(-578.932 -772.065 173.791)
(-585.326 -779.251 59.3768)
(-0.512986 -0.685134 0.353613)
(-385.711 -443.51 309.088)
(-472.869 -655.39 390.773)
(-0.158676 -0.286992 0.123711)
(-139.567 -211.133 133.973)
(-0.00010293 -0.000171897 3.74431e-05)
(-0.0442084 -0.0971494 0.0320909)
(-153.932 -352.419 93.8048)
(-236.323 -481.616 130.027)
(-235.511 -549.931 150.753)
(-214.275 -499.281 161.955)
(-52.5206 -106.983 33.9821)
(-199.473 -400.496 130.527)
(-105.809 -238.227 78.1341)
(-188.149 -430.687 462.163)
(-125.94 -354.818 412.677)
(-144.132 -424.51 431.582)
(-163.133 -391.023 393.531)
(-137.727 -314.11 358.71)
(-81.8374 -233.28 247.079)
(-71.4998 -162.981 171.512)
(-100.474 -334.378 134.516)
(-134.549 -454.375 219.017)
(-159.586 -542.08 217.003)
(-179.266 -493.598 196.678)
(-29.9787 -82.9837 37.431)
(-85.5685 -226.817 92.4505)
(-137.979 -371.042 181.096)
(-451.75 -784.719 253.675)
(-408.887 -714.459 368.382)
(-457.633 -720.54 371.637)
(-466.597 -750.277 282.543)
(-454.083 -794.814 287.593)
(-491.124 -780.214 279.289)
(-435.892 -748.151 362.128)
(-393.928 -632.86 296.472)
(-420.808 -620.194 358.18)
(-391.791 -622.3 322.934)
(-433.449 -665.044 397.837)
(-409.531 -679.6 375.628)
(-381.746 -624.364 361.093)
(-383.15 -590.132 369.885)
(-509.952 -702.209 218.703)
(-534.133 -691.634 357.582)
(-547.241 -708.87 250.742)
(-499.013 -711.865 367.409)
(-520.284 -748.336 264.148)
(-554.243 -736.496 282.524)
(-508.229 -677.281 367.711)
(-299.656 -518.09 217.385)
(-231.445 -368.432 185.248)
(-290.83 -466.951 191.871)
(-148.088 -257.515 129.328)
(-226.821 -404.465 164.1)
(-154.322 -245.755 102.272)
(-59.4571 -99.5973 47.2866)
(-345.244 -704.457 366.592)
(-273.567 -566.376 328.588)
(-324.764 -645.323 343.821)
(-334.969 -643.098 387.068)
(-372.615 -689.617 388.622)
(-334.994 -614.97 355.472)
(-243.839 -457.673 285.588)
(-360.714 -541.302 182.086)
(-389.519 -565.156 288.294)
(-379.412 -585.782 275.539)
(-338.045 -544.596 265.902)
(-155.211 -221.244 80.7371)
(-289.715 -433.992 237.032)
(-269.344 -411.454 133.878)
(-632.077 -721.6 174.346)
(-616 -744.163 59.5427)
(-609.57 -739.568 171.116)
(-594.831 -741.978 174.495)
(-589.553 -696.62 49.7253)
(-570.34 -675.365 161.001)
(-606.298 -754.777 56.4235)
(-178.751 -345.471 160.38)
(-247.991 -456.557 130.211)
(-293.563 -567.664 242.595)
(-270.191 -478.764 225.45)
(-20.2522 -40.031 11.9997)
(-97.6209 -175.463 91.1678)
(-181.311 -298.883 92.884)
(-210.974 -410.394 436.974)
(-96.2575 -157.812 173.012)
(-138.38 -238.914 231.206)
(-165.005 -332.607 329.178)
(-130.675 -250.029 277.507)
(-44.1941 -84.8387 91.459)
(-15.7289 -27.5626 31.512)
(-177.58 -408.456 163.991)
(-10.3165 -27.7514 10.7465)
(-59.898 -119.422 56.8894)
(-14.6428 -33.9564 11.7925)
(-140.095 -274.916 112.916)
(-49.6364 -114 45.2993)
(-112.857 -251.218 124.338)
(-23.2054 -236.162 213.917)
(-12.3551 -416.145 404.132)
(-40.8144 -410.823 398.379)
(-17.4688 -171.113 173.998)
(-0.656294 -29.4517 30.5414)
(-2.4213 -25.5222 26.5934)
(-4.98725 -182.993 186.133)
(-331.818 -492.584 143.302)
(-204.208 -277.173 94.8228)
(-296.685 -439.504 147.202)
(-70.6439 -102.863 29.6592)
(-199.929 -295.585 84.3726)
(-124.958 -185.991 62.4412)
(-25.8091 -40.484 12.0389)
(-552.531 -809.093 59.0771)
(-498.57 -745.296 168.367)
(-543.537 -795.812 176.658)
(-551.931 -751.774 173.33)
(-471.144 -664.311 42.5233)
(-441.507 -625.032 141.079)
(-565.24 -768.562 55.3413)
(-52.0362 -184.989 221.215)
(-4.66814 -22.8971 33.6999)
(-42.1819 -219.656 264.943)
(-14.3421 -72.7825 86.4337)
(-0.485062 -1.74644 2.87508)
(-0.567694 -2.90879 4.72563)
(-13.5406 -47.6981 58.1752)
(-91.8889 -362.679 347.606)
(-36.7397 -205.866 186.023)
(-68.892 -394.098 380.627)
(-26.9354 -144.574 146.972)
(-2.66388 -10.9707 11.8137)
(-3.17792 -18.4835 19.5028)
(-28.6669 -104.76 107.476)
(-3.36872 -30.2477 43.5587)
(-7.46411 -247.554 302.923)
(-25.589 -239.662 291.844)
(-9.85231 -91.6543 106.973)
(-0.106497 -4.56854 7.29551)
(-2.78878 -100.707 116.774)
(-0.419648 -3.98444 6.39868)
(-199.858 -355.785 97.4154)
(-12.0149 -26.7402 7.22576)
(-140.429 -247.448 81.9855)
(-6.5466 -14.2983 3.0964)
(-110.134 -179.222 50.1108)
(-52.2417 -89.8709 28.4117)
(-2.09908 -5.03835 1.15374)
(-596.872 -682.879 279.865)
(-549.422 -665.428 368.689)
(-587.819 -711.919 276.986)
(-556.566 -696.025 278.214)
(-354.739 -421.315 239.898)
(-500.833 -597.146 242.448)
(-479.905 -607.732 338.17)
(-458.776 -675.667 362.024)
(-442.467 -669.448 256.434)
(-514.606 -751.239 284.852)
(-506.84 -694.612 271.72)
(-181.59 -257.527 138.123)
(-349.614 -493.923 195.367)
(-415.41 -578.123 313.979)
(-432.831 -597.523 378.476)
(-486.963 -629.811 403.993)
(-440.88 -632.753 400.925)
(-412.061 -538.301 368.396)
(-349.865 -504.592 339.329)
(-418.652 -568.233 375.06)
(-246.537 -328.042 232.315)
(-322.321 -571.973 357.471)
(-386.966 -619.407 389.802)
(-389.528 -663.3 397.106)
(-322.756 -552.339 344.667)
(-67.0188 -112.584 76.1391)
(-172.093 -294.424 193.657)
(-270.228 -425.048 282.935)
(-50.8485 -136.363 162.637)
(-1.49142 -3.25678 5.62112)
(-37.5486 -80.9503 98.9675)
(-0.300768 -0.864929 1.44516)
(-8.96905 -25.0552 31.857)
(-4.5129 -10.6419 14.4695)
(-0.144812 -0.352884 0.600799)
(-104.18 -311.677 294.53)
(-17.5219 -44.4465 40.529)
(-98.8533 -235.979 220.152)
(-1.57256 -5.217 5.72567)
(-21.1548 -60.3145 63.4403)
(-10.4611 -25.787 28.0935)
(-0.676989 -1.9652 2.16058)
(-132.73 -193.47 98.3433)
(-110.796 -152.493 64.5007)
(-235.893 -345.607 143.966)
(-49.8987 -79.6574 31.3879)
(-1.13955 -2.22403 0.702375)
(-6.55456 -11.6729 3.66454)
(-9.68511 -18.0481 6.81756)
(-361.621 -495.999 278.317)
(-75.0492 -97.4784 42.8152)
(-34.0855 -50.7156 20.565)
(-258.697 -329.36 207.576)
(-174.47 -244.301 149.591)
(-40.8439 -58.5184 39.5643)
(-3.43532 -5.59541 2.36134)
(-514.853 -666.076 153.783)
(-415.078 -508.819 31.5734)
(-330.734 -437.253 25.7869)
(-69.3935 -92.8152 21.1192)
(-282.513 -373.742 87.83)
(-370.317 -453.192 107.165)
(-538.447 -693.388 46.939)
(-199.773 -324.338 173.737)
(-3.15103 -6.93413 2.0205)
(-11.5033 -20.615 7.24935)
(-3.75123 -8.03584 4.84292)
(-24.4593 -46.9363 26.993)
(-85.1491 -134.24 79.9022)
(-72.632 -116.701 39.2312)
(-14.6705 -31.5086 12.5975)
(-3.00998 -7.78447 2.26681)
(-67.9871 -123.005 49.7017)
(-14.1123 -27.9124 9.55612)
(-0.0876901 -0.247264 0.0659574)
(-0.495258 -1.29555 0.334716)
(-2.54731 -5.96666 1.95789)
(-86.231 -249.228 492.459)
(-31.6435 -33.8393 58.8555)
(-115.035 -152.627 256.84)
(-24.5804 -80.7645 111.799)
(-118.408 -416.406 508.486)
(-105.552 -297.048 543.165)
(-44.0527 -269.33 429.493)
(-48.8426 -348.335 479.271)
(-3.94911 -132.196 181.184)
(-10.155 -252.702 519.118)
(-1.75604 -2.73552 5.09741)
(-125.083 -224.761 417.818)
(-19.934 -49.7678 71.6267)
(-154.686 -420.648 503.238)
(-137.879 -302.092 545.124)
(-224.961 -300.401 475.449)
(-249.46 -402.357 453.758)
(-46.5296 -302.883 449.764)
(-17.1443 -262.332 419.831)
(-18.0641 -295.637 441.538)
(-16.382 -283.985 527.887)
(-45.3442 -289.799 535.356)
(-47.0768 -332.456 550.516)
(-16.5896 -326.826 545.795)
(-98.7933 -274.168 441.25)
(-104.323 -310.519 460.987)
(-71.4651 -272.67 436.431)
(-75.3225 -307.061 455.585)
(-75.3446 -293.423 539.719)
(-78.5717 -336.194 551.422)
(-110.718 -340.331 549.237)
(-127.347 -276.266 445.541)
(-135.271 -315.5 467.9)
(-157.239 -280.368 451.171)
(-168.357 -323.693 477.042)
(-171.769 -308.91 543.734)
(-144.749 -345.372 543.062)
(-179.855 -349.668 532.077)
(-0.471733 -0.669144 1.30596)
(-264.862 -317.09 488.471)
(-293.33 -364.341 433.133)
(-344.8 -321.147 437.683)
(-6.80843 -6.80784 12.4669)
(-66.2619 -74.4836 81.4309)
(-0.0851886 -0.103119 0.183367)
(-18.5723 -340.906 472.046)
(-50.765 -407.134 507.31)
(-18.351 -400.636 502.752)
(-48.2527 -377.326 544.733)
(-15.7033 -401.093 517.391)
(-47.5464 -403.369 517.953)
(-16.5517 -373.168 542.319)
(-111.253 -358.928 490.192)
(-79.6443 -353.354 484.706)
(-84.0487 -411.654 509.17)
(-81.165 -379.077 541.677)
(-113.635 -396.954 501.501)
(-80.7556 -401.796 512.306)
(-114.808 -379.54 533.81)
(-34.2299 -254.631 518.406)
(-13.8813 -292.921 571.054)
(-42.6735 -297.036 573.436)
(-43.0088 -326.422 548.721)
(-9.28212 -255.318 457.049)
(-31.6711 -254.882 452.501)
(-13.8841 -323.421 547.913)
(-189.208 -287.894 461.138)
(-242.312 -350.813 493.4)
(-204.039 -335.589 487.195)
(-241.139 -322.179 520.203)
(-206.692 -317.001 535.648)
(-212.775 -349.463 514.924)
(-239.696 -343.541 491.965)
(-104.625 -300.324 562.339)
(-60.7487 -253.392 509.987)
(-73.4357 -298.965 570.398)
(-74.0213 -326.696 543.465)
(-76.486 -237.451 406.93)
(-55.4358 -249.339 436.769)
(-104.869 -324.921 532.35)
(-145.322 -366.823 495.923)
(-191.377 -420.877 492.607)
(-181.417 -377.783 500.018)
(-144.456 -388.018 485.423)
(-148.858 -377.866 521.351)
(-180.838 -373.358 503.977)
(-169.833 -371.312 461.333)
(-108.837 -240.735 463.644)
(-136.304 -300.956 550.029)
(-166.783 -299.926 532.161)
(-91.7722 -217.373 361.041)
(-134.549 -320.52 515.873)
(-160.452 -310.705 492.227)
(-96.5278 -185.247 295.935)
(-281.158 -362.287 486.593)
(-306.723 -333.518 486.694)
(-268.044 -319.85 497.14)
(-308.856 -360.232 466.407)
(-283.766 -307.92 467.188)
(-255.897 -328.07 462.264)
(-253.577 -295.787 410.857)
(-254.591 -390.766 483.608)
(-223.834 -415.45 475.67)
(-218.808 -387.79 496.775)
(-207.714 -362.892 481.638)
(-181.91 -292.766 350.581)
(-223.542 -341.976 449.784)
(-184.984 -342.679 420.815)
(-129.648 -197.103 349.418)
(-209.739 -279.696 473.987)
(-192.867 -294.423 507.939)
(-178.465 -292.499 455.919)
(-55.8452 -78.362 120.381)
(-84.7322 -137.181 211.621)
(-182.683 -261.403 395.459)
(-41.0222 -340.194 510.403)
(-13.9124 -124.274 170.105)
(-10.8783 -324.047 444.583)
(-7.27287 -221.647 342.303)
(-36.1515 -321.725 439.474)
(-25.3106 -217.324 333.13)
(-12.8369 -339.195 511.451)
(-70.7955 -336.775 502.342)
(-55.543 -181.608 268.783)
(-84.1549 -293.232 391.225)
(-21.9494 -106.724 146.032)
(-61.9657 -312.165 422.818)
(-42.8933 -204.677 309.341)
(-99.3769 -328.979 486.462)
(-58.8826 -146.41 212.281)
(-98.5633 -262.123 341.741)
(-124.262 -315.066 460.053)
(-141.673 -291.861 417.793)
(-11.402 -23.4226 36.1751)
(-50.1622 -100.09 143.995)
(-99.8378 -214.637 271.856)
(-335.107 -335.109 467.649)
(-303.653 -303.636 381.035)
(-321.163 -344.794 437.697)
(-232.595 -216.656 308.878)
(-278.18 -278.177 416.45)
(-216.683 -232.601 308.908)
(-123.264 -123.257 158.577)
(-280.756 -383.783 461.916)
(-243.883 -320.794 352.676)
(-259.781 -376.367 421.027)
(-147.208 -209.838 242.159)
(-222.157 -303.528 391.919)
(-187.909 -232.451 287.521)
(-77.7972 -99.9147 116.341)
(-188.631 -204.49 319.694)
(-212.607 -253.393 417.497)
(-77.0144 -91.303 149.144)
(-22.7928 -28.2062 47.5153)
(-162.477 -207.186 298.712)
(-107.641 -124.426 173.564)
(-6.06405 -6.73336 13.4446)
(-145.228 -252.603 349.848)
(-12.4255 -18.121 30.3737)
(-5.00102 -8.84656 15.092)
(-46.7665 -72.4219 93.3361)
(-31.3762 -52.4787 78.7743)
(-126.317 -190.828 253.676)
(-81.8162 -147.099 183.403)
(-2.69336 -3.18491 4.74509)
(-26.1065 -27.9757 37.9725)
(-208.439 -221.54 248.905)
(-177.728 -213.128 225.88)
(-278.501 -319.3 374.826)
(-107.051 -121.302 147.435)
(-18.2961 -22.6812 29.4715)
(-0.208304 -0.208285 0.494558)
(-1.34086 -1.2412 2.98035)
(-40.6014 -38.1354 61.2903)
(-7.18765 -7.18765 15.0466)
(-123.91 -123.907 184.937)
(-38.1459 -40.6093 61.3045)
(-1.24149 -1.34102 2.98099)
(-3.79208 -4.91836 9.45524)
(-15.0697 -21.0383 30.174)
(-79.9553 -106.415 140.423)
(-27.5381 -33.3103 48.5909)
(-0.100173 -0.141883 0.286179)
(-3.34079 -4.53086 7.46927)
(-0.874925 -1.08521 2.25527)
(-0.186174 -0.321297 0.591392)
(-18.0111 -33.4894 43.7484)
(-0.584426 -1.12661 2.00805)
(-1.75687 -3.62875 5.24894)
(-0.0165143 -0.03209 0.0541951)
(-0.054331 -0.117544 0.200711)
(-0.518998 -0.976416 1.44539)
(-6.24093 -14.7789 13.6651)
(-29.3301 -53.0342 50.3168)
(-70.3758 -140.958 130.78)
(-3.89617 -8.68082 9.98735)
(-0.0619956 -0.150181 0.162255)
(-1.10189 -2.25274 2.66128)
(-0.229983 -0.605268 0.662489)
(-471.252 -577.996 390.883)
(-127.451 -147.988 112.051)
(-320.313 -388.83 282.441)
(-121.176 -147.122 97.4629)
(-322.626 -404.914 273.356)
(-79.032 -103.429 75.5247)
(-7.48251 -10.3908 7.5002)
(-1.15502 -11.7258 15.0161)
(-0.00308061 -0.0359201 0.0522001)
(-0.020849 -1.16597 1.49667)
(-0.00900357 -0.47055 0.744715)
(-0.0880485 -1.00485 1.28981)
(-0.303746 -13.4774 17.0972)
(-0.0389486 -0.407834 0.646314)
(-0.937203 -2.13138 0.412772)
(-3.21971 -6.18051 1.34372)
(-25.3758 -43.732 11.1992)
(-8.25367 -15.946 4.11032)
(-0.0359994 -0.0825962 0.0158277)
(-0.293951 -0.709876 0.144903)
(-0.991947 -2.0014 0.443997)
(-435.042 -566.38 225.06)
(-73.371 -94.9667 48.0451)
(-19.8054 -28.8582 9.41519)
(-33.0639 -49.5792 22.5549)
(-159.839 -215.44 87.524)
(-243.588 -299.682 125.226)
(-277.314 -358.608 198.691)
(-352.341 -524.582 340.334)
(-10.4626 -19.5941 12.983)
(-155.685 -227.993 158.115)
(-25.5471 -41.5736 23.8478)
(-239.253 -327.77 215.161)
(-34.4736 -52.3307 36.7492)
(-1.11975 -2.25638 1.39094)
(-1.5551 -8.54163 11.1643)
(-0.0439622 -0.17272 0.274184)
(-0.0948638 -0.412022 0.53028)
(-0.00401756 -0.0255465 0.0369187)
(-0.116548 -0.715298 0.91941)
(-0.0518301 -0.293774 0.466758)
(-1.32662 -5.0915 6.82548)
(-0.00276506 -0.00337466 0.00658497)
(-0.0182329 -0.0243591 0.0487182)
(-0.585885 -0.763573 1.32848)
(-0.0264092 -0.0290755 0.0638468)
(-0.165348 -0.197944 0.431814)
(-0.852331 -0.929529 1.74843)
(-5.47093 -6.39827 10.9973)
(-2.01664 -4.35935 1.23638)
(-0.0127068 -0.033296 0.00854695)
(-0.0417425 -0.0926891 0.0246868)
(-0.00866774 -0.0204141 0.00444178)
(-0.0703655 -0.178506 0.0416716)
(-0.237234 -0.50979 0.127153)
(-0.350162 -0.821837 0.23667)
(-0.0253602 -0.0830058 0.130703)
(-0.0539025 -0.191448 0.244774)
(-0.790615 -2.44202 3.32484)
(-0.358556 -0.957541 1.31411)
(-0.000893418 -0.0026112 0.00358823)
(-0.0123297 -0.0325054 0.0506169)
(-0.0238617 -0.0723531 0.0910248)
(-7.39061 -10.1839 4.89335)
(-7.84475 -10.1215 7.87629)
(-83.7125 -104.523 72.9695)
(-3.94685 -6.08373 4.41419)
(-0.0201429 -0.0296336 0.0140507)
(-0.290823 -0.437054 0.324936)
(-0.277734 -0.444539 0.2009)
(-5.70617 -8.64551 4.54747)
(-2.25752 -4.13156 1.97759)
(-67.623 -92.8976 58.031)
(-3.3252 -5.55087 3.70568)
(-0.00743186 -0.0136967 0.00754852)
(-0.0982339 -0.196368 0.113408)
(-0.243201 -0.402067 0.252128)
(-1.27718 -2.44503 0.893881)
(-0.452605 -1.01027 0.623042)
(-13.996 -24.1912 15.6959)
(-1.49671 -2.76282 1.85706)
(-0.00437757 -0.00896194 0.00315873)
(-0.0475181 -0.103634 0.0637885)
(-0.121484 -0.229113 0.089121)
(-124.012 -528.137 317.663)
(-118.258 -437.554 456.419)
(-100.166 -410.045 346.527)
(-54.2617 -514.336 308.656)
(-13.3835 -462.215 394.626)
(-51.6663 -423.425 446.736)
(-19.3335 -357.571 285.747)
(-91.3907 -366.303 245.445)
(-17.9387 -349.641 225.506)
(-19.5339 -390.129 251.245)
(-39.641 -362.297 234.149)
(-46.3508 -401.204 258.67)
(-45.8029 -368.397 293.97)
(-49.744 -414.385 316.985)
(-20.2134 -404.489 309.763)
(-64.5647 -367.455 242.22)
(-102.313 -374.579 301.906)
(-104.147 -406.913 265.478)
(-75.0729 -406.215 263.848)
(-73.8291 -373.385 299.516)
(-79.9812 -419.557 321.509)
(-110.449 -422.91 324.398)
(-50.8602 -448.996 281.453)
(-20.4594 -505.76 302.992)
(-20.4077 -439.4 274.902)
(-53.0637 -474.343 346.157)
(-19.2554 -543.093 382.646)
(-55.4528 -548.352 386.413)
(-20.4028 -465.859 340.009)
(-19.5536 -415.635 439.947)
(-19.8545 -378.276 351.91)
(-49.3509 -387.112 359.782)
(-52.2878 -444.399 391.269)