/*--------------------------------*- C++ -*----------------------------------*\
  =========                 |
  \\      /  F ield         | OpenFOAM: The Open Source CFD Toolbox
   \\    /   O peration     | Website:  https://openfoam.org
    \\  /    A nd           | Version:  9
     \\/     M anipulation  |
\*---------------------------------------------------------------------------*/
FoamFile
{
    format      ascii;
    class       volScalarField;
    location    "0.0003";
    object      alpha.c4;
}
// * * * * * * * * * * * * * * * * * * * * * * * * * * * * * * * * * * * * * //

dimensions      [0 0 0 0 0 0 0];

internalField   nonuniform List<scalar> 
2506
(
3.27445e-09
0.00154866
0.305681
9.39776e-09
0.0189984
0.431367
4.75493e-13
0.0139119
0.453901
1.6715e-15
2.32067e-12
1.17884e-07
0.00087204
7.91653e-13
3.52764e-05
0.0126665
1.65341e-14
4.98149e-06
0.264271
1.2018e-15
1.35947e-13
4.79425e-12
3.73599e-15
1.5617e-12
9.43066e-10
5.11086e-16
1.84729e-13
2.07801e-11
9.88159e-11
0.425401
0.402332
0.512625
0.252161
0.350354
0.094738
0.246651
0.531625
0.486153
0.394857
0.359064
0.351549
0.254912
0.216532
0.363935
0.315039
0.133705
0.334498
0.178101
0.173619
0.0153878
0.440881
0.502398
0.495607
0.464081
0.455316
0.485217
0.44915
0.462246
0.509976
0.529972
0.471891
0.461996
0.5084
0.473723
0.454149
0.50888
0.47332
0.448041
0.436172
0.496443
0.465788
0.509881
0.53029
0.532288
0.509407
0.507057
0.53141
0.511448
0.510092
0.532022
0.528515
0.509563
0.506931
0.531212
0.51176
0.436617
0.481666
0.42625
0.39438
0.438929
0.38996
0.477803
0.346404
0.306786
0.0062729
0.134876
0.0914292
0.000168222
3.81625e-05
0.0115832
0.194298
0.340847
0.0242106
0.127133
1.02153e-06
0.000134017
0.420171
0.41112
0.474694
0.388932
0.433206
0.374729
0.458779
0.283558
0.0196643
0.28141
0.000832135
0.140524
0.000648812
0.110953
0.42799
0.414909
0.443933
0.360125
0.410595
0.379822
0.465689
0.411752
0.418144
0.364346
0.350057
0.410044
0.353752
0.421543
0.152029
0.0142698
0.270761
9.81824e-06
0.0288582
0.000633704
0.13173
0.377877
0.440907
0.414634
0.421475
0.409984
0.403015
0.388816
0.414867
0.391078
0.465005
0.368312
0.454274
0.423162
0.358543
0.39111
0.410798
0.336767
0.341904
0.327969
0.403535
0.397889
0.406418
0.403612
0.361237
0.339871
0.350213
0.393314
0.416617
0.210531
0.341419
0.306314
0.300306
0.206743
0.158003
0.163732
0.388293
0.340287
0.32276
0.252007
0.389162
0.323645
0.336495
0.392183
0.378047
0.364758
0.259411
0.336642
0.428967
0.329631
0.036698
0.00252577
2.5381e-06
0.0575781
0.00165591
7.70021e-06
1.50753e-09
0.346471
0.414185
0.314473
0.326035
0.384342
0.269239
0.376177
0.204549
0.324291
0.299916
0.279098
0.183486
0.157093
0.133258
0.370644
0.334055
0.315178
0.222081
0.29808
0.383491
0.315757
0.381845
0.303751
0.303182
0.241344
0.318225
0.366958
0.326191
0.330151
0.167237
0.258657
0.286566
0.19486
0.14311
0.114132
0.263726
0.00024752
0.0856044
0.000272755
0.0788115
6.21508e-08
0.00338099
0.366213
0.322514
0.308882
0.234305
0.296447
0.374262
0.310632
0.334465
0.370685
0.296807
0.291092
0.267454
0.358422
0.348805
0.342646
0.383039
0.307322
0.320579
0.372491
0.287119
0.355801
0.29196
0.269177
0.27598
0.169928
0.181172
0.160683
0.192728
0.289851
0.2635
0.273515
0.168291
0.182751
0.158312
0.19125
0.252188
0.256889
0.237199
0.163951
0.145148
0.122068
0.140612
0.0461215
1.93827e-05
0.0289479
3.10557e-11
7.31157e-06
9.01878e-12
1.50461e-06
0.235854
0.129911
0.229496
0.0893779
0.033813
0.0944589
0.0317017
0.338481
0.185412
0.182117
0.165847
0.254779
0.266889
0.27122
0.226624
0.139449
0.229834
0.114977
0.0454002
0.110485
0.04576
0.00512618
2.47818e-05
0.0420703
1.12619e-12
2.48171e-08
1.97242e-11
5.44636e-06
0.0718988
0.0121042
0.0699065
0.041457
0.00552916
0.0438012
0.00512085
0.194709
0.120167
0.209731
0.137379
0.0726596
0.0630981
0.0326576
0.000926429
1.43435e-10
0.00029447
1.6088e-06
2.64734e-07
2.48938e-12
6.68432e-13
0.0686804
0.277351
0.14047
0.224077
0.131552
0.0848037
0.0377637
0.228075
0.102394
0.201873
0.0307244
0.0884257
0.0684786
0.0216028
0.000216999
6.21919e-08
1.98287e-13
0.000405573
2.1481e-07
2.83258e-10
5.03538e-13
0.287221
0.235773
0.240274
0.090493
0.19858
0.18492
0.322125
0.298767
0.263494
0.273961
0.114071
0.34129
0.224162
0.199955
0.215537
0.107566
0.192113
0.0407783
0.0993573
0.0791051
0.0300177
6.96062e-10
1.4728e-05
0.00080277
5.30409e-09
1.18774e-06
5.42647e-13
1.29242e-12
0.295007
0.249349
0.259407
0.141205
0.228924
0.217366
0.31572
0.00998084
0.0466611
0.0623128
0.0349018
0.00218383
0.0236298
0.00392531
0.182224
0.116671
0.213823
0.0767039
0.0175665
0.0262311
0.0553701
0.00803524
0.0680538
0.0545608
0.00493358
0.0408014
0.030391
0.00312515
0.20897
0.131311
0.225048
0.112042
0.0344707
0.0996914
0.0428286
0.213879
0.13083
0.194614
0.0829792
0.056167
0.100574
0.0437332
0.229939
0.241455
0.200197
0.162354
0.134799
0.0948721
0.123549
0.457924
0.549477
0.515011
0.417562
0.586098
0.527054
0.447786
0.434281
0.547106
0.517168
0.452456
0.472527
0.511964
0.555629
0.467913
0.562681
0.532893
0.546164
0.584908
0.526836
0.570866
0.577605
0.554515
0.541023
0.501596
0.527353
0.529145
0.51949
0.569074
0.514429
0.439459
0.469336
0.430481
0.495341
0.485458
0.453855
0.566377
0.589691
0.578485
0.571463
0.575105
0.564546
0.581662
0.557228
0.528779
0.569783
0.524234
0.555495
0.509856
0.57263
0.549033
0.453345
0.553807
0.471276
0.557627
0.549673
0.449539
0.541764
0.434936
0.490418
0.45803
0.520551
0.492794
0.459392
0.56441
0.548121
0.550593
0.564871
0.549117
0.56362
0.565808
0.589748
0.590072
0.587242
0.584991
0.586083
0.588875
0.591012
0.545884
0.530034
0.544758
0.524117
0.543101
0.528192
0.546877
0.495845
0.453259
0.493585
0.450627
0.495405
0.494395
0.455142
0.520208
0.540852
0.55203
0.519993
0.547021
0.511015
0.526751
0.522629
0.555177
0.549068
0.529113
0.520403
0.549725
0.529448
0.570053
0.55542
0.568537
0.571979
0.561139
0.564827
0.577774
0.560948
0.545587
0.535688
0.551682
0.553201
0.546433
0.560741
0.56289
0.549631
0.54486
0.559992
0.548268
0.558741
0.564235
0.5762
0.576683
0.583696
0.585686
0.575442
0.584429
0.577514
0.559209
0.545171
0.534513
0.541128
0.551152
0.545573
0.555385
0.572386
0.57149
0.562866
0.579749
0.563842
0.571577
0.580494
0.574093
0.57627
0.570416
0.58315
0.569077
0.58188
0.575403
0.546195
0.546942
0.541228
0.563513
0.55787
0.530581
0.552763
0.541853
0.529985
0.539305
0.553183
0.526915
0.552328
0.54362
0.53729
0.521159
0.525617
0.543734
0.518235
0.542855
0.539009
0.55015
0.56769
0.562484
0.55764
0.561166
0.556323
0.551504
0.58378
0.57246
0.567616
0.576029
0.582109
0.577434
0.574005
0.591017
0.591529
0.588481
0.590476
0.59024
0.589195
0.59237
0.586852
0.584373
0.577366
0.582076
0.583228
0.58076
0.588106
0.58571
0.580986
0.575077
0.572545
0.582076
0.58481
0.576059
0.5869
0.5756
0.584491
0.576436
0.586203
0.585111
0.577196
0.582848
0.567403
0.573665
0.570348
0.579428
0.576679
0.57346
0.588045
0.580364
0.587639
0.583184
0.586343
0.581848
0.58937
0.556083
0.558443
0.544925
0.566841
0.554872
0.568135
0.546183
0.545709
0.529662
0.527413
0.546123
0.544828
0.528201
0.547049
0.559846
0.558146
0.568651
0.573092
0.57171
0.556859
0.561245
0.556528
0.558822
0.565836
0.539221
0.567781
0.544832
0.553628
0.541836
0.530661
0.524297
0.511374
0.541275
0.53188
0.525066
0.560505
0.571298
0.560752
0.573952
0.559424
0.572599
0.561866
0.529254
0.554829
0.550318
0.522483
0.527812
0.55624
0.523872
0.495964
0.453309
0.497363
0.455144
0.49667
0.496167
0.455201
0.531061
0.526314
0.557019
0.555019
0.529391
0.558271
0.527929
0.531783
0.558007
0.530291
0.558283
0.530841
0.530466
0.559261
0.530269
0.551861
0.554883
0.520019
0.556481
0.524357
0.527403
0.494889
0.491172
0.454525
0.450687
0.494664
0.491815
0.454881
0.502923
0.542293
0.530349
0.516018
0.501235
0.531335
0.517227
4.38934e-12
8.86256e-09
6.33811e-12
0.00267486
0.00281952
1.9527e-05
1.48559e-05
0.066033
0.0750888
0.022381
0.0134221
0.0595117
0.015676
0.0843902
3.84365e-12
1.44432e-11
6.2525e-13
6.38216e-05
0.00171615
6.01055e-08
1.23791e-05
0.0653775
0.0222021
0.0770834
0.0135275
0.015582
0.05915
0.0836422
0.0619118
0.0100997
0.0493763
0.0366073
0.00925931
0.00644714
0.0465429
0.0164699
4.89177e-10
0.000194735
3.02105e-12
2.80599e-07
2.69176e-13
4.36706e-11
0.230915
0.0456177
0.069
0.0528041
0.150562
0.138168
0.118136
0.132183
0.0264878
0.0729787
0.00869776
0.0306818
0.0115981
0.0028571
0.177051
0.0420141
0.126835
0.0219914
0.0757285
0.0440752
0.00984759
0.0443754
0.00760314
0.00717177
0.00984308
0.00965669
0.000895498
0.000935806
0.00337246
0.0117503
0.0309027
0.0146389
0.000213859
0.00108818
0.00471728
6.97297e-05
1.49635e-08
7.46195e-13
4.47426e-08
7.77421e-12
1.35666e-12
7.22168e-14
0.0736576
0.0591861
0.142652
0.0365822
0.00304227
0.00975273
0.0133717
0.0821914
0.0654308
0.142525
0.0478862
0.00547646
0.0152928
0.0219509
0.105441
0.0189909
0.0630095
0.00501093
0.0216044
0.0096481
0.00192113
0.026095
0.000567438
0.000734234
0.0113439
0.0093035
0.00345997
0.000123436
0.169249
0.0588987
0.134264
0.0470688
0.0230072
0.0142358
0.06844
0.0158054
0.00139428
0.00406776
0.000148873
0.0170478
0.00374876
0.00126614
0.0338601
0.00515159
0.00878932
0.000931152
0.0314345
0.00590371
0.00920349
0.0390281
0.00377119
0.00588997
0.00607219
0.00853306
0.000727079
0.000419485
0.030616
0.0067029
0.00430746
0.00864337
0.00567726
0.000777557
0.000416333
0.0208405
0.0126759
0.00437478
0.000929856
0.00288587
0.0275428
0.00896078
6.33275e-13
2.37072e-09
1.28979e-12
0.00163444
3.23907e-06
4.04378e-06
3.58894e-10
0.0615201
0.00902054
0.0450707
0.0259049
0.00668554
0.00390532
0.0379031
0.0125274
0.000435393
0.00161958
9.69066e-05
0.00287326
0.00769094
0.000908332
0.00119674
0.0035532
0.0153635
0.0103592
6.06038e-05
0.00217263
0.00067198
0.0330765
0.00478985
0.000898101
0.00683688
0.00584564
0.0283966
0.0087409
0.003947
0.00744626
0.0265994
0.0189857
0.000335248
0.002407
0.00486603
0.000860598
0.00024485
0.000218366
1.66561e-05
1.48977e-05
2.32497e-06
2.6816e-06
0.000428997
6.81568e-05
6.8729e-05
5.35106e-06
5.72928e-06
5.97223e-07
5.92934e-07
0.000627679
5.65213e-05
0.000143846
3.26642e-06
9.35525e-06
1.36068e-06
4.3394e-07
0.000449251
0.000203242
9.86408e-05
1.3335e-05
5.76587e-06
2.06824e-06
8.20598e-07
0.0150626
0.00035457
0.00159301
0.000555296
0.00223317
9.92696e-05
1.11639e-05
0.000367696
2.82049e-05
5.47334e-05
2.2676e-06
4.60945e-06
4.53423e-07
2.07161e-07
0.00342817
0.00154606
0.00197794
8.40922e-05
0.000140651
5.46328e-05
0.000212765
0.00342119
0.00160511
0.00198586
8.59565e-05
0.000155064
5.99479e-05
0.000214781
0.00646095
0.00163237
0.00306321
0.000411908
0.000928439
0.00013656
2.01192e-05
0.00421282
2.24434e-05
0.000125426
1.09165e-05
0.000708532
0.00017375
0.00112334
0.00949573
0.000216691
0.000491441
8.30515e-05
0.000914353
0.0019419
0.00338177
0.00692536
0.00811456
0.0274853
0.00295743
4.90113e-05
0.000578539
0.000453436
0.000110257
0.000565639
0.00321785
0.000826015
7.77144e-07
0.000101901
1.34342e-05
0.00276483
0.00378344
0.0194548
0.00909483
4.90678e-05
0.000914432
0.00123413
0.0208897
0.0149175
0.0659563
0.0169511
0.000365047
0.00391618
0.00260666
0.000996394
0.000898965
0.000510607
6.68339e-05
2.64385e-05
9.25223e-06
2.37806e-05
0.000248534
5.69513e-05
0.00211295
0.000649559
3.70087e-07
5.36304e-05
9.3522e-06
0.00935219
0.00183081
0.00362092
9.04414e-05
0.000928861
0.0019083
0.0153705
1.16552e-12
4.73052e-14
2.61494e-14
3.18168e-07
1.75389e-07
2.8433e-12
1.43011e-12
0.00110798
3.87378e-05
0.00112958
3.46105e-05
4.03351e-07
3.48426e-05
4.23859e-07
1.2865e-10
6.95973e-13
3.49766e-08
1.01814e-15
3.37463e-14
8.11029e-15
3.48909e-13
4.87683e-08
2.61798e-12
8.73411e-09
2.0403e-14
7.93984e-13
9.06853e-15
2.61839e-13
0.000513751
6.4722e-06
0.000470514
1.88869e-05
1.52701e-07
2.04037e-05
1.39808e-07
0.000421159
2.08751e-06
0.000209941
1.09491e-07
1.52425e-05
6.00748e-06
3.91335e-08
0.000115099
2.02882e-06
1.97773e-05
9.65462e-08
1.0098e-06
1.30565e-07
1.14019e-08
0.000865492
0.00053948
0.000241687
6.12893e-05
2.12921e-05
2.9044e-06
1.01712e-05
9.95293e-14
1.86565e-15
1.92917e-14
7.51187e-10
2.06423e-07
2.30431e-13
1.20841e-12
3.45985e-05
0.000666067
0.00100813
2.75871e-05
1.65714e-07
3.47468e-07
1.36306e-05
0.000163732
4.10414e-06
0.000341804
1.33454e-05
3.51924e-08
5.70236e-06
9.29454e-08
0.000905028
9.87817e-06
0.000493872
2.76915e-07
2.56929e-05
1.02604e-05
9.93818e-08
2.96303e-05
1.38871e-06
2.5743e-05
1.88699e-07
1.02027e-08
2.19421e-07
8.82058e-09
0.000357643
2.46368e-05
0.00045947
7.63301e-06
1.4055e-07
5.11809e-06
1.86033e-07
0.000348839
2.42195e-05
0.000465256
7.92913e-06
1.03512e-07
5.08417e-06
1.82341e-07
0.000303361
2.65771e-05
0.00015378
1.64846e-06
5.2781e-07
4.53755e-06
1.74291e-07
0.00022968
4.79424e-06
0.000105406
8.29854e-08
2.69342e-06
9.42023e-07
2.92153e-08
7.547e-06
1.09105e-05
5.50727e-07
1.01263e-06
6.93024e-08
4.76814e-08
5.72189e-09
0.00243023
5.21511e-06
2.81208e-06
8.85948e-06
0.00013347
0.000327028
0.000195366
5.28004e-06
8.11594e-07
1.5468e-05
1.07054e-07
1.52607e-09
5.01521e-09
3.26591e-08
1.99337e-07
5.25919e-06
5.06658e-06
3.53925e-08
1.42188e-09
3.66914e-08
1.32637e-09
2.31057e-05
4.43764e-07
9.59138e-06
7.30785e-09
1.62778e-07
6.05141e-08
2.55976e-09
0.00159437
1.90601e-06
4.65471e-05
5.92977e-06
0.000134496
1.19734e-06
3.27243e-08
1.65815e-16
3.59173e-14
1.23434e-14
4.97603e-08
1.24262e-13
5.12916e-12
1.20444e-14
3.54674e-13
3.04992e-16
2.94365e-15
3.964e-08
3.58183e-12
5.25642e-13
1.54122e-14
0.000257734
4.9316e-07
4.3669e-05
3.5619e-08
3.23175e-06
3.20992e-07
3.19124e-09
1.49586e-09
9.65819e-15
2.46265e-13
1.04964e-15
3.51385e-14
1.38945e-16
3.4292e-15
0.000107878
3.1044e-08
3.14367e-07
4.41845e-08
8.27407e-06
5.82196e-06
8.34919e-07
1.72276e-06
1.39811e-07
3.73191e-06
2.53891e-08
3.80572e-10
1.08967e-08
9.13312e-10
4.198e-05
2.70771e-08
5.12283e-06
6.59086e-09
1.20951e-06
1.19399e-07
6.00905e-10
0.000145186
3.99775e-07
2.38167e-05
2.4486e-08
1.40847e-06
1.40208e-07
2.18111e-09
7.81045e-07
2.54405e-09
1.6319e-08
1.71901e-06
4.77176e-07
4.35972e-09
2.82201e-06
1.49773e-05
1.49788e-06
0.000125355
1.53843e-06
9.87603e-10
1.34035e-08
1.20857e-07
1.3294e-07
8.32456e-10
1.17798e-07
1.61188e-08
1.32906e-10
1.86411e-08
1.15184e-10
1.54861e-08
2.30873e-10
3.39758e-08
3.08059e-09
9.07781e-12
1.31327e-09
2.24074e-11
4.50114e-06
3.04565e-07
4.39832e-05
8.8834e-07
3.98192e-10
5.29385e-09
7.09717e-08
3.05084e-11
4.0636e-08
4.11907e-09
3.0297e-10
4.34376e-08
4.1571e-09
3.10476e-11
1.0182e-07
2.5632e-10
3.99414e-08
9.48891e-11
1.38471e-08
5.10884e-09
3.32449e-11
7.60252e-07
1.62613e-08
2.49366e-09
1.53159e-06
4.38762e-07
4.30784e-09
2.77793e-06
2.60124e-06
7.34795e-07
2.31747e-05
1.48545e-07
3.20338e-10
4.12578e-09
1.32761e-08
7.67132e-05
7.58753e-07
2.47644e-05
1.44608e-07
1.56286e-08
3.52284e-09
5.97056e-07
1.03633e-09
5.75664e-07
1.84664e-07
5.6623e-08
9.09321e-10
3.0795e-10
1.64307e-07
4.75946e-10
2.21913e-08
7.00548e-08
9.11239e-09
1.83097e-11
2.70041e-09
6.30496e-11
1.36533e-07
6.51527e-08
1.55573e-06
8.78763e-09
2.74169e-11
3.51383e-10
7.20029e-10
8.87595e-07
4.00099e-09
7.95363e-08
2.3778e-10
4.99337e-09
4.27633e-10
2.06899e-11
4.15665e-07
1.9857e-09
5.51501e-08
8.49368e-11
2.42337e-09
2.99983e-10
1.12555e-11
6.38991e-10
4.74727e-07
1.29995e-07
1.4038e-08
2.52791e-10
6.42009e-11
5.44257e-08
3.70553e-07
3.49269e-09
3.82502e-09
2.24456e-09
2.70431e-09
3.1159e-11
2.75421e-11
3.34624e-07
1.50884e-09
3.20294e-09
1.24894e-09
2.45172e-09
2.61018e-11
1.21016e-11
7.37796e-08
2.302e-09
7.84765e-10
1.40118e-09
4.7795e-10
1.73821e-11
5.79639e-12
3.0185e-07
3.45373e-09
2.26488e-09
3.0702e-11
3.11058e-07
3.50296e-09
2.15633e-09
2.22889e-07
1.15606e-09
2.10929e-11
5.86604e-10
2.68489e-09
9.53333e-08
1.50703e-09
2.35438e-09
1.57042e-09
2.20358e-07
7.91108e-08
7.14345e-12
8.02045e-10
5.32956e-10
4.78713e-08
1.4621e-10
8.19334e-12
6.05638e-10
2.85766e-08
1.11442e-09
2.581e-10
4.65811e-08
8.62446e-12
1.67468e-10
8.54141e-10
3.05214e-08
1.15038e-09
2.55825e-10
8.99343e-09
1.3781e-10
4.6958e-12
2.70606e-09
4.62649e-11
2.62913e-08
8.76103e-10
2.13781e-08
6.28522e-08
2.59374e-06
1.49002e-08
3.73853e-12
1.3707e-10
3.70308e-10
9.27222e-09
1.41844e-09
2.96198e-07
5.9561e-09
1.00475e-12
1.64186e-10
2.89224e-11
2.71782e-08
1.65317e-08
1.26713e-06
5.8692e-09
2.18336e-12
1.27914e-10
8.98838e-11
1.23723e-08
6.99639e-10
2.1086e-10
2.35631e-10
7.08252e-11
1.80897e-12
4.83693e-12
4.29987e-08
1.00346e-09
9.11567e-10
3.03463e-10
2.67669e-10
7.06258e-12
7.6595e-12
2.60725e-08
2.02612e-10
5.80346e-10
4.94815e-11
1.56444e-10
3.96385e-12
1.49455e-12
0.477849
0.296161
0.386456
0.329793
0.166386
0.495809
0.338119
0.401358
0.193838
0.432718
0.464668
0.433664
0.492451
0.421546
0.479423
0.445053
0.436806
0.50991
0.447336
0.48309
0.485473
0.435381
0.449509
0.485813
0.510271
0.508442
0.488033
0.485182
0.508916
0.488504
0.0547931
0.00515163
9.33116e-06
0.314005
0.0756023
0.00754842
2.80994e-05
0.409487
0.402033
0.452274
0.357524
0.453537
0.408689
0.358111
0.406065
0.435651
0.341096
0.398334
0.3954
0.448654
0.354258
0.385358
0.339784
0.395725
0.323916
0.384403
0.325308
0.397028
0.382611
0.385819
0.313789
0.337562
0.373968
0.322592
0.394376
0.315615
0.257483
0.176377
0.258076
0.179554
0.115838
0.115312
0.3566
0.193038
0.28312
0.291137
0.356004
0.283708
0.291193
0.232569
0.155482
0.311483
0.252073
0.174148
0.109605
0.0916976
0.353405
0.268495
0.265826
0.185757
0.342776
0.279288
0.285681
0.0743803
0.170583
0.169923
0.0499955
0.014082
0.0505236
0.0137544
0.00788793
0.0519616
0.0537516
0.0246586
0.00237203
0.0245024
0.00239754
0.140593
0.0682519
0.162099
0.0455788
0.00891466
0.0353712
0.0121305
0.0411344
0.00715623
0.0506002
0.0224013
0.00136467
0.0167502
0.00208138
0.00700098
2.61868e-05
0.00126161
0.000405745
0.00708297
0.00121635
0.000396941
0.00611934
0.000626162
0.000178836
1.90886e-05
0.00426441
0.00100155
0.000318855
3.90499e-11
5.68691e-10
6.39987e-09
7.57084e-10
1.61157e-12
5.6722e-12
6.26757e-11
3.44693e-09
3.01374e-12
3.97788e-10
2.32519e-12
2.77652e-10
3.21916e-11
8.199e-13
8.39159e-11
4.89094e-10
1.54049e-08
5.13637e-09
1.62142e-12
1.6532e-10
2.75873e-11
1.00759e-08
7.79757e-12
1.00336e-10
4.95209e-12
6.21619e-11
8.07297e-13
1.7446e-13
1.07251e-08
5.07511e-10
1.07248e-10
2.40649e-10
5.2345e-11
6.41041e-13
2.72915e-12
3.51634e-09
3.04581e-10
2.62939e-10
2.76754e-11
2.3766e-11
2.49592e-12
4.53893e-13
6.48924e-10
1.92931e-13
1.19328e-11
7.00158e-11
1.59614e-11
2.93735e-12
2.70412e-09
1.06435e-08
8.90234e-12
6.35473e-12
1.803e-12
1.02439e-10
6.84177e-11
7.89056e-10
1.20277e-09
1.08235e-11
6.40108e-11
2.41642e-12
1.39817e-09
5.57374e-11
9.62168e-12
6.62414e-10
1.74878e-12
9.24033e-12
9.28681e-13
3.02304e-11
1.88909e-10
4.68859e-12
1.62965e-10
5.86848e-13
2.44613e-12
2.24939e-13
6.58256e-11
5.89776e-12
1.21405e-12
1.99513e-12
2.39385e-10
9.47194e-12
2.31962e-10
4.62207e-13
8.89542e-12
1.93358e-12
6.9896e-12
4.39741e-11
1.00331e-09
3.48713e-10
9.80394e-13
1.52811e-11
2.90985e-12
2.2367e-10
1.0813e-10
1.92766e-08
1.75151e-09
1.69381e-12
2.19315e-11
1.15021e-11
1.53207e-10
2.14267e-10
4.30942e-09
2.233e-11
6.97034e-13
1.75022e-12
1.46104e-12
3.35933e-11
1.33025e-10
7.01996e-09
6.47867e-10
5.04848e-13
1.24528e-11
3.52602e-12
1.68784e-09
2.66551e-12
3.02e-11
1.03916e-12
9.28275e-12
4.64418e-13
3.03917e-13
1.33034e-10
3.4539e-11
7.90937e-12
3.4177e-12
9.64271e-13
4.4175e-13
2.61942e-13
7.67818e-10
7.51401e-13
9.45378e-13
2.31276e-12
2.28335e-11
4.40342e-12
6.45973e-11
3.5801e-10
1.45841e-13
3.6073e-12
1.11833e-13
1.86334e-12
9.07546e-14
6.77268e-14
4.60632e-11
5.9919e-13
6.97483e-13
5.58424e-13
2.31066e-12
8.05103e-13
4.13804e-12
7.83839e-11
3.00087e-13
3.39985e-13
2.87591e-13
1.10464e-12
2.28336e-12
7.11677e-13
1.42824e-10
3.79433e-13
1.39892e-12
3.65569e-13
1.23888e-12
3.54422e-13
3.40157e-13
1.47127e-14
2.34448e-14
1.98146e-16
9.37787e-17
1.43891e-15
1.31152e-15
2.7803e-16
4.87269e-18
1.06729e-17
3.34862e-17
3.10732e-18
5.97973e-20
1.88321e-15
2.63585e-14
2.18785e-15
4.82785e-11
4.96236e-13
4.8257e-11
5.47426e-13
9.06079e-16
9.2958e-16
3.01796e-16
5.19363e-12
1.6261e-13
2.37712e-13
2.2756e-14
8.9614e-17
6.40989e-15
3.69661e-16
2.33467e-14
8.33662e-15
1.02154e-11
5.72552e-14
1.38923e-11
8.6246e-11
2.38884e-11
1.33878e-12
1.45548e-12
1.24951e-12
1.66546e-12
8.72134e-11
1.45165e-11
2.40788e-11
1.47832e-12
1.62863e-12
1.41548e-12
1.81705e-12
0.252983
0.0667081
0.0112588
0.00178988
0.262933
0.0145568
0.0868288
0.000273353
0.266377
0.241021
0.243668
0.137721
0.161698
0.134235
0.16688
0.227951
0.262919
0.239601
0.13258
0.148948
0.119611
0.161738
0.0857163
0.181733
0.182391
0.0771673
0.0235403
0.0765571
0.0230911
0.161218
0.0798198
0.176668
0.072647
0.0168043
0.0620483
0.0209723
0.0473331
0.0158071
0.0623802
0.00921366
0.0451928
0.00986947
0.0661836
0.0441798
0.0530332
0.00680613
0.0143729
0.0371217
0.00886048
0.0621673
0.0196492
0.000265526
0.00271643
0.00391532
0.0193508
0.00280623
0.00382063
0.000134814
0.00243989
0.000211159
0.0179793
0.00246919
0.0145032
0.0033206
3.59207e-05
5.60925e-07
1.41427e-09
1.68535e-11
0.00201664
3.75027e-09
0.0001469
4.82058e-11
8.82943e-06
0.234065
1.20814e-05
2.20544e-16
7.34291e-12
0.00863184
8.87474e-18
4.06422e-16
8.3293e-16
0.013961
0.0478077
0.00721855
0.000984273
0.0778802
0.000126188
0.00284392
2.44496e-08
2.03614e-06
2.53357e-07
1.28541e-10
0.0209433
5.28975e-06
8.72204e-07
4.52661e-10
0.205805
0.201966
0.168747
0.126476
0.0974481
0.0667546
0.092481
0.0243158
4.56863e-12
4.85847e-06
8.32583e-10
0.000385043
1.07069e-13
4.65273e-10
6.22316e-07
6.71094e-08
2.52887e-12
0.000150329
2.04326e-10
3.74477e-11
8.26958e-13
0.134307
0.0273557
0.0958676
0.0110819
0.0459778
0.0274226
0.00525491
0.148617
0.0529292
0.113946
0.0340105
0.0185016
0.0111365
0.0511499
1.6526e-07
3.60857e-10
1.12011e-12
1.18242e-06
2.44881e-11
1.33789e-10
1.88362e-13
0.0395236
0.00418536
0.0269091
0.0152764
0.00334305
0.0017793
0.0238039
0.0203615
0.00255348
0.00243337
0.00372127
0.00355007
0.000187487
0.000207663
0.0181684
0.00138738
0.00204239
0.00219592
0.00303912
0.000142779
8.35913e-05
0.00178691
0.00100762
0.000905449
2.79372e-05
7.21245e-05
2.34269e-05
8.78546e-05
1.06388e-05
0.0011888
0.000564072
0.00173608
0.000848868
2.06458e-05
6.73821e-05
0.00383375
0.000666498
0.00118225
0.000185293
0.000385807
3.01076e-05
5.41285e-06
0.0111715
0.0184675
0.0519066
0.011409
0.00023643
0.0028702
0.00154483
0.0150165
0.00468499
0.00412228
0.00249236
0.00216103
0.000180485
0.000463293
5.40342e-05
0.00138784
0.00956664
0.00453214
9.92645e-06
0.000319733
0.000475375
0.00565236
0.000936958
0.00244754
4.06937e-05
0.00123577
0.000429132
0.00981699
4.06325e-06
0.000138472
4.18036e-06
1.56082e-06
2.94154e-08
1.43923e-06
2.89799e-08
3.36415e-06
0.000605877
0.000265245
0.000185139
6.73321e-05
5.12054e-07
2.02883e-06
4.83598e-08
5.85861e-06
5.49284e-08
0.000298908
0.000275104
4.15565e-06
4.77456e-06
7.79365e-07
9.47984e-05
8.6329e-05
2.16124e-06
1.77466e-08
2.48612e-06
1.55309e-08
6.88829e-05
1.02215e-08
1.55783e-06
0.000114779
2.91161e-06
1.10556e-06
2.02651e-08
6.34319e-06
4.77409e-14
1.11141e-12
2.76342e-14
1.336e-12
8.33839e-16
4.50326e-14
0.00129851
7.28651e-07
2.00436e-06
3.92656e-06
0.000181385
4.42144e-05
7.59066e-05
1.69511e-08
3.77331e-06
3.34958e-08
0.000135419
0.000215725
2.92765e-06
1.53806e-06
3.39582e-05
5.40027e-07
6.37949e-05
1.50192e-06
4.92485e-09
7.48182e-07
1.05837e-08
0.00411821
1.34389e-05
1.02729e-05
0.000445334
0.000370408
1.15707e-05
1.30758e-07
0.00107114
1.36924e-06
2.46598e-05
3.25298e-06
5.92265e-05
4.48259e-07
1.84368e-08
2.01379e-07
4.80322e-09
6.45168e-07
9.50135e-10
1.65048e-07
1.15457e-09
8.30999e-07
0.000430517
2.05427e-06
0.000167753
3.00032e-06
9.11504e-08
1.90979e-08
1.30007e-05
1.00348e-13
3.82593e-10
2.48223e-14
8.5499e-13
1.6008e-14
3.2134e-15
1.28155e-16
4.75571e-09
5.32363e-05
8.96679e-08
9.94462e-06
4.62908e-07
6.85455e-08
6.42799e-10
1.06577e-05
9.59846e-09
1.76152e-06
1.27884e-09
2.14733e-07
3.19087e-08
1.74078e-10
2.60106e-07
6.53351e-08
3.52364e-10
1.40099e-07
3.27331e-09
7.9021e-10
5.76679e-07
0.000314894
1.09702e-06
0.000115804
2.43439e-06
6.44841e-08
1.34557e-08
1.06799e-05
2.56942e-05
2.85951e-09
4.71487e-07
6.58314e-08
4.38911e-06
2.27773e-08
3.69199e-10
2.48519e-05
2.66336e-07
6.9383e-06
3.54237e-08
5.45136e-09
1.21681e-09
1.49137e-07
3.49325e-08
9.36017e-08
7.20804e-08
5.33328e-10
9.67584e-10
4.19059e-10
6.30942e-12
8.51331e-09
1.53332e-12
1.88469e-10
9.23068e-09
1.57244e-12
5.22179e-11
1.87577e-10
1.30858e-12
2.31893e-12
2.68911e-10
2.24304e-08
7.45046e-11
1.09827e-08
1.61955e-10
4.1384e-12
2.7621e-10
3.77223e-08
3.7019e-12
3.95278e-10
3.2681e-08
2.40293e-10
6.77876e-08
1.22253e-07
1.07245e-05
9.546e-08
8.99123e-12
6.08885e-10
1.13851e-09
3.65308e-08
7.67954e-08
6.64948e-06
7.78533e-08
6.52231e-12
4.31596e-10
9.38761e-10
5.95534e-09
2.88454e-08
7.84282e-07
4.84525e-09
1.71514e-12
1.79748e-10
4.16351e-11
7.12866e-08
1.8092e-08
9.06236e-11
2.4855e-09
5.00413e-11
1.24183e-11
1.01082e-08
4.13037e-09
9.63714e-09
2.97207e-07
1.38726e-09
8.25559e-13
4.50607e-11
2.25601e-11
7.17369e-13
3.59767e-11
1.23263e-12
3.11042e-09
6.26701e-11
6.42065e-09
1.29639e-10
5.87053e-10
1.22028e-10
1.05371e-12
2.05377e-08
6.7956e-10
1.41526e-10
9.90969e-08
7.41545e-10
6.79099e-09
1.48732e-07
2.3914e-09
1.60838e-12
9.76305e-11
1.34308e-11
2.09227e-16
2.11566e-16
6.21443e-16
4.36514e-16
2.14647e-16
2.36146e-14
5.26947e-16
9.10534e-10
2.30142e-13
5.99982e-12
2.61839e-13
9.76417e-12
2.3637e-13
1.57861e-13
4.03006e-12
1.4422e-13
2.03338e-13
6.45339e-10
2.19102e-13
4.65695e-12
8.8553e-12
2.72119e-12
3.54189e-11
2.10008e-11
2.9955e-09
4.12349e-10
6.96841e-12
5.03871e-12
5.89239e-13
4.81064e-12
7.02474e-13
8.50168e-10
1.68182e-11
1.089e-10
2.66084e-12
4.44394e-13
3.38238e-13
5.72739e-12
3.3655e-12
1.03422e-12
1.60977e-10
6.84371e-10
5.01745e-11
7.80287e-12
2.66216e-12
1.49836e-12
8.11405e-13
5.5936e-13
5.10871e-13
3.29908e-16
3.28059e-16
3.29631e-16
3.35643e-16
6.37211e-16
5.42519e-16
1.34415e-14
1.07693e-12
5.18104e-12
1.14956e-12
5.86335e-10
9.00873e-12
4.94615e-12
1.14222e-12
1.72703e-10
4.81106e-13
3.27904e-12
5.03548e-13
2.72783e-12
5.02509e-13
4.59961e-13
8.1334e-13
8.46891e-13
8.92322e-13
7.67526e-12
1.44963e-11
9.67842e-13
8.71988e-13
1.12989e-15
1.11006e-15
1.09874e-15
1.9545e-15
1.47009e-14
1.10723e-15
1.18256e-15
3.84916e-15
3.59157e-15
3.61025e-15
3.73516e-14
2.02777e-14
3.76022e-15
3.68646e-15
1.38435e-11
1.57616e-12
1.30963e-11
1.47994e-12
1.37274e-12
1.46552e-12
1.39141e-12
8.12443e-13
7.49075e-13
1.11561e-12
8.09349e-13
1.13659e-11
2.00951e-12
7.66396e-13
1.46526e-12
2.31926e-12
2.24916e-11
3.11259e-12
1.34385e-12
1.4572e-12
1.3642e-12
6.15935e-13
6.18147e-13
7.19104e-13
6.26241e-13
2.4121e-11
1.14449e-12
1.04279e-12
1.17341e-12
1.25683e-12
1.24525e-12
1.33945e-11
1.62333e-11
1.35658e-12
1.34319e-12
2.92245e-11
2.85254e-12
3.05874e-11
2.81482e-12
2.57927e-12
2.79014e-12
2.58751e-12
1.0897e-11
1.56214e-12
2.33936e-11
1.55881e-12
1.33923e-12
1.42645e-12
1.39059e-12
9.07854e-12
6.13019e-13
3.34758e-12
5.87476e-13
5.91892e-13
5.62538e-13
6.44516e-13
1.86375e-11
1.07897e-12
6.81384e-12
1.0614e-12
1.17986e-12
1.05592e-12
1.00477e-12
3.25644e-14
3.00707e-14
3.04732e-14
1.04372e-12
2.53635e-13
3.39063e-14
4.28031e-14
3.86632e-12
1.04748e-13
8.86803e-13
1.0255e-13
9.74747e-14
9.63604e-14
1.18197e-13
2.34205e-13
2.41007e-13
4.16799e-13
5.93822e-12
3.56488e-13
2.70929e-13
2.39364e-13
3.38652e-17
3.83007e-16
3.90537e-17
3.29937e-17
3.29417e-17
3.47434e-17
3.36057e-17
1.38009e-15
1.0077e-14
1.38569e-14
1.23939e-15
1.25107e-15
1.20195e-15
1.20444e-15
1.57319e-11
2.56969e-12
5.79485e-12
1.31562e-12
1.25915e-12
1.22278e-12
1.25167e-12
1.50774e-12
7.72861e-13
3.11294e-12
5.79511e-13
5.50705e-13
5.19594e-13
5.30714e-13
8.86552e-13
8.40824e-13
2.51844e-11
8.50385e-13
1.75079e-12
1.07981e-12
9.98396e-13
3.73208e-13
2.16593e-13
1.90251e-13
1.83747e-13
1.97185e-13
5.7983e-12
2.95659e-13
)
;

boundaryField
{
    ground
    {
        type            zeroGradient;
    }
    outlet
    {
        type            zeroGradient;
    }
    wall
    {
        type            zeroGradient;
    }
    wall2
    {
        type            zeroGradient;
    }
    wall3
    {
        type            zeroGradient;
    }
    internalPatch
    {
        type            internal;
    }
    procBoundary3to0
    {
        type            processor;
        value           nonuniform List<scalar> 
249
(
1.23195e-19
4.17374e-20
3.79399e-18
1.15396e-17
1.15396e-17
6.51575e-16
1.24583e-17
1.24583e-17
1.24583e-17
1.01605e-16
1.11044e-16
1.82655e-15
1.82655e-15
1.02199e-13
2.99318e-12
3.25857e-10
2.472e-08
2.472e-08
1.13608e-10
1.32829e-13
1.32829e-13
1.33865e-14
1.33865e-14
5.47153e-13
5.47153e-13
7.28943e-12
1.56891e-11
2.60756e-11
2.05719e-11
5.56538e-12
1.36782e-13
1.36782e-13
1.09854e-12
1.09854e-12
3.97473e-10
5.20185e-08
5.20185e-08
5.19272e-10
1.74856e-12
1.74856e-12
1.74856e-12
8.055e-13
8.055e-13
1.54461e-13
3.10206e-16
3.10206e-16
5.23159e-17
5.23159e-17
9.17517e-15
9.01762e-15
9.01762e-15
2.02204e-14
2.02204e-14
2.02204e-14
9.55268e-13
9.55268e-13
9.55268e-13
5.09927e-13
5.09927e-13
5.06197e-14
1.00968e-12
1.00968e-12
3.03939e-12
3.03939e-12
1.52649e-12
1.52649e-12
9.86963e-14
9.86963e-14
9.86963e-14
1.12253e-14
1.12253e-14
3.96997e-16
3.96997e-16
8.298e-18
8.298e-18
4.44895e-20
1.38149e-19
1.02772e-20
1.4686e-18
6.62679e-17
3.79399e-18
3.79399e-18
3.79399e-18
1.15396e-17
1.15396e-17
1.04403e-15
3.43994e-14
1.07887e-15
1.24583e-17
1.89281e-16
1.82655e-15
1.82655e-15
8.40117e-14
6.86388e-13
6.84718e-11
5.28716e-09
5.28716e-09
2.45099e-11
1.32829e-13
1.32829e-13
1.33865e-14
1.33865e-14
5.47153e-13
5.47153e-13
2.75346e-12
4.71974e-12
6.63169e-12
1.36782e-13
1.36782e-13
1.09854e-12
1.09854e-12
3.71423e-10
4.78141e-08
4.78141e-08
4.64474e-10
1.74856e-12
8.055e-13
8.055e-13
1.54461e-13
1.54461e-13
1.54461e-13
1.42181e-14
3.10206e-16
3.10206e-16
5.23159e-17
5.23159e-17
9.34818e-16
9.17517e-15
9.17517e-15
9.17517e-15
9.01762e-15
9.01762e-15
2.02204e-14
9.55268e-13
5.09927e-13
5.09927e-13
5.06197e-14
5.06197e-14
5.06197e-14
1.00968e-12
1.00968e-12
3.03939e-12
3.03939e-12
1.52649e-12
1.52649e-12
9.86963e-14
1.12253e-14
1.12253e-14
4.16697e-14
3.96997e-16
3.96997e-16
8.298e-18
8.298e-18
2.57473e-17
2.57473e-17
2.57473e-17
1.06786e-15
6.62679e-17