/*--------------------------------*- C++ -*----------------------------------*\
  =========                 |
  \\      /  F ield         | OpenFOAM: The Open Source CFD Toolbox
   \\    /   O peration     | Website:  https://openfoam.org
    \\  /    A nd           | Version:  9
     \\/     M anipulation  |
\*---------------------------------------------------------------------------*/
FoamFile
{
    format      ascii;
    class       volScalarField;
    location    "0.0034";
    object      p;
}
// * * * * * * * * * * * * * * * * * * * * * * * * * * * * * * * * * * * * * //

dimensions      [1 -1 -2 0 0 0 0];

internalField   nonuniform List<scalar> 
30819
(
140531
148530
182089
163505
262348
247207
132032
134934
130703
119325
118324
127054
120242
135043
126188
121614
163892
151401
139265
129313
118001
112285
112517
115745
110094
110946
116628
118757
113509
112951
113135
111925
117628
118899
120225
115661
114359
114697
116702
120572
122730
124346
130170
123908
129753
128835
121975
122873
253682
244663
156910
134799
171011
137549
176576
114563
128723
122867
123895
115473
121196
129830
123582
119977
117514
122284
119218
125429
128697
125460
131249
124816
132397
130872
123914
125292
118103
125260
116616
122412
133283
124020
131314
139834
163148
136453
137532
132281
137108
125297
128014
121996
131552
140611
129290
139073
141204
130352
126849
139376
157742
150447
137077
134398
148323
135591
127629
127069
129464
128732
130158
132549
132309
129918
126672
129006
125875
127878
133132
133989
136598
155076
152254
146306
147113
137227
139626
130090
123482
136125
128250
138042
133488
127005
129280
130294
132502
135282
139657
138711
135640
120981
121331
128509
132370
126329
132230
126500
130821
128032
127322
130114
131296
134893
136056
142890
135700
133803
131937
130421
136818
138103
126408
121173
120893
128057
127954
132478
132889
131926
137491
132803
142929
140193
141074
137067
137680
135155
133495
146823
141089
144698
139462
128443
121980
123445
134723
129442
127814
133566
131787
137229
131712
141030
141760
136467
136772
132760
138084
132078
142659
143735
137340
138065
147075
145153
135880
142872
140637
133988
139098
128043
126490
133258
134412
127123
129469
136960
166971
264651
257085
148918
191374
142166
185479
120004
132083
122390
135760
126089
128673
138767
133018
137453
130202
132369
143799
135853
140077
133859
126659
143106
144432
135452
127663
136658
128787
135395
125308
131811
146437
135526
142318
138280
136363
146209
128973
140434
130728
138282
254808
142278
180552
169101
130260
136083
122256
175399
176570
124476
126239
128631
135408
137889
139895
142564
134869
149701
144372
127128
131491
140845
145802
130810
138915
133407
151184
145060
148028
154565
114329
91585
106446
107922
92801.2
106536
121676
109546
109562
132915
104581
118387
110114
94250.8
123739
111184
90963.8
95691.8
95731.4
92132.7
93000.8
96011.1
96856.8
91582.4
97459.7
96445.8
95385.2
94130.4
97877.1
99059.9
95925.7
98655.6
96831.5
100186
98584.3
100511
102314
100896
106802
101132
104960
100290
101088
105774
107301
102542
101766
102061
107924
103232
106742
97842.2
107231
98768.2
109693
101298
102125
110503
100435
97970.8
102156
103192
100695
104501
107100
108243
101025
99800.2
103141
113010
104413
111592
108804
103540
104939
109426
104704
106552
111331
102531
113189
104379
114784
106011
107970
116939
117801
113437
105169
105986
118758
110421
114317
111940
109206
106820
108815
116579
111538
113698
107028
112908
117029
120025
108362
111510
115496
109176
115576
106583
110313
122543
113089
119505
92842.7
154302
80826.9
192019
233447
181990
97713
163845
117439
164409
172851
181215
171782
173733
199915
189092
190175
114860
94039.6
117697
89317.5
125553
115672
127523
84572.4
112526
191434
115488
105447
131355
101968
180396
134928
177164
164331
197402
178424
144037
164595
145124
161267
166627
180022
174917
154951
212841
229647
217662
223145
207276
204796
209227
98155.9
100969
133943
91410.6
106663
109572
100564
122904
109833
143048
152482
105671
117468
129939
208036
178293
209513
183668
134236
142054
173840
237566
171004
202288
145129
121469
138807
107710
92754.6
101334
92824.5
91701.5
101439
100850
101468
91741.5
90820.3
89915.4
98408.2
100951
99325.4
100018
132322
116499
111853
118326
114034
107617
115370
177408
204712
195584
184216
157006
160185
181146
132454
111292
114325
103524
102445
103647
106005
160259
117506
121655
115175
118713
108020
111712
81899.6
97416
87386.3
83076.8
92398.8
90629.5
85045.7
152891
129644
111864
121623
119869
131644
144217
107988
115188
108082
108270
115737
108455
116115
93237.7
92751.4
92055.6
101183
102457
101802
101663
142673
111152
83040.9
114180
120825
103459
109946
99842.7
84953.2
62249.6
72982.5
132684
130663
125024
125350
149033
119682
119742
142069
124684
144151
65851.6
88271.2
89052
145843
113671
109284
102981
109908
105199
110235
121163
131899
112417
123270
124406
137013
133878
140339
131878
136770
144194
149011
140982
140970
145336
116753
116612
108763
118716
110307
109232
114435
108635
64879.2
95442.1
95464.6
86618.2
116574
61964.2
130266
143754
144755
119428
134620
143114
137981
105773
64581.9
97026.1
90529.7
62913.7
58293.2
95469.6
125104
134118
128871
139642
123100
133811
133787
114714
119826
113069
113968
127336
126625
116649
124030
124089
126681
130765
134434
135044
127864
151038
146328
145884
141854
138500
138974
143031
57026
63564.6
85504.5
58686.5
59978.4
80598.5
109344
109773
110820
113794
107175
103692
106805
108156
136904
123781
124749
132887
122636
123914
134636
118375
107579
132962
72990.7
105585
119333
87248.1
98781.6
122935
91565.9
74850.9
120309
65590.8
104461
156771
164245
150904
156625
144147
145456
158293
87752.4
86462.8
63522.9
60100.4
58484.3
90510.7
87993.1
132940
123492
129229
127037
131156
126299
131656
131648
118188
133010
136433
127838
131396
130972
120521
106736
114468
121456
129124
124030
113609
74093.2
54283.8
56230.8
63399.2
65498.6
55181.4
62630.9
88943
66469.8
94181.3
104558
72314.4
75750.8
95200.6
162799
127149
147669
134148
120074
103558
148879
131090
150885
139283
135490
134239
123256
147982
91258.3
86191.1
74225.3
88854.7
76520.9
71362.5
81025
55352.2
64880.1
63258
58719.8
57044.1
64424.2
66021.1
56597.2
65007
63869.7
59655.1
57210.3
64052.5
66044.8
117233
113779
80421.2
98749.2
86894
104007
130593
73719.1
82227
72317.9
72882
83392.1
74463.9
81900.9
72501.7
81832.8
72464.6
72023.6
81979.2
73696.6
80602.4
35660.4
109982
50343.1
105937
125081
85291.7
81573.7
132010
98378.5
153327
113780
83729.2
146138
83283.1
113774
92996.3
84270.3
89678.1
79753.6
73536.5
74416.3
78296.2
88067.7
92301.1
79638.3
85851.5
75879.3
76492.4
79121.2
85544.8
79588
88397.6
116884
96552
92141
117492
102424
108170
126132
114758
93041.4
99329.5
106417
94614.5
100975
115231
41566
90486.2
50705.1
145242
109896
152181
88976.3
48994.5
34765.1
40377.3
85545.4
147472
53256.5
57469.6
100534
92085.6
77978.6
80746.1
80369.7
91375
91014.5
94796.2
79627.4
74537.2
100448
86840.6
112030
82123.7
84712.9
96140.5
90299.3
97050.7
86702.9
93161.7
98901.6
86390.1
112290
99834.9
108075
107893
124285
91348.1
102423
133629
111449
115614
141298
123570
135274
122840
129167
110253
108578
131504
109672
127544
109596
104102
98836.8
105112
120026
108718
118704
123528
120685
111635
119244
143509
130849
134143
120250
100897
116365
141878
130260
136858
97507.7
82083.2
97644.1
87438.5
92704.8
72730.6
81864.4
94776.1
86069.9
74701.8
85594.5
110060
119949
106946
61736.4
100035
70907.2
71572.9
80103.1
76573.2
49427.1
47813.4
106338
110021
115236
77168.1
93232.6
102839
122882
122810
121649
98064.8
112981
91956.9
59109.9
75246.8
128081
148165
150504
145841
136057
140216
141720
124187
159516
147854
136782
131924
134403
153235
42791.6
45662.9
71937
61936.5
35780.8
41329.1
38481.1
88541.8
132487
130265
102254
51991.2
90856.5
55070.3
37062.2
43923.7
47872.2
37252.1
34524.4
36646.4
35228.7
59938.4
45022.8
55214.3
38958.4
38967.2
39200.5
38576.4
73940.8
42268
57883.8
42645.1
47326
40806.4
51298.8
60920.1
156175
118406
100643
67657.4
50693.8
131457
152640
143930
141096
130292
135360
118108
148493
77418.2
48413.2
62627.2
43919.6
47609
41720.6
52666.3
54594.9
38112.5
44192.1
41596.9
42040.2
51715.1
38565.3
36991.8
41289.5
36800.7
38528
38452.9
35450.6
39454.7
81758.2
46378
54251.8
83653.3
46278.4
66782.7
106931
40807.9
47739
44023.8
47284.5
41980.1
42254.2
47006.9
222326
201856
240369
187841
118056
137681
165667
141364
122754
108895
166827
128234
128872
117261
139873
126849
127497
137156
198410
83592.9
138474
55871.3
178677
73468.9
142689
144564
179359
156576
151402
142830
154046
167977
176740
216246
248367
212514
223970
186424
203953
149458
150990
139434
162827
150764
147456
159820
131628
119341
128955
130741
129821
139447
140952
189890
179242
166910
164157
196738
181823
176494
130449
129354
137743
150945
129711
149732
143735
190400
150666
170414
139580
164370
102565
136363
153742
138973
150901
149460
164883
151525
162073
164315
163576
178960
175104
191485
178869
191522
221966
200731
206024
202955
183819
165592
189655
227437
126726
242562
93736.3
113763
162647
153950
84691.7
63626.1
101883
56448.3
66181.4
89896.6
68332.3
101878
95765.7
129965
56584.7
67607.1
90835.4
69313.7
162966
184328
173001
148569
166767
157622
177026
193352
230982
214644
192531
207432
209883
232302
181736
169413
165307
182224
178304
196633
202119
215712
194823
193574
226988
206175
209163
232836
243236
257239
256010
223243
211171
239093
221809
171834
138406
112053
119353
99598.9
83332.4
146344
55432.9
54435.7
56016.9
68404.2
64299.6
64809.8
63719.9
176048
119976
154570
118050
103732
85718.8
143335
265990
245130
222866
229483
258582
248928
251576
204124
191501
194947
214427
203241
222179
210122
233933
208684
200134
217328
241720
223065
241795
158199
220610
157657
112586
166857
168959
116207
196788
119652
164044
173843
211220
171461
126503
84541.1
86737.5
73590.3
86480.4
75369.5
74634
101879
260954
269919
268481
239891
247224
218175
190975
234018
236679
233569
212045
235107
226091
249467
97215.4
97986.8
116565
121230
101657
104114
105655
60925.6
61630.8
59129.6
65992.6
69783.8
67676.5
67973.4
181898
217767
146062
156306
114266
115794
133602
198075
170966
214756
163669
122140
125408
143618
74079.6
84257.2
77339.2
83940.5
75690.5
75650.7
82755.6
120087
112982
107791
114688
109157
110605
117015
149228
121162
238834
247467
94838.2
255732
173621
104026
237540
240873
247555
251330
235256
240148
235171
209548
254959
239569
254125
227273
221009
188931
250181
242497
252939
237277
241547
230681
216282
210620
118473
193646
144174
209253
188185
111711
211726
218323
241886
204794
131981
158417
175420
83214.2
129518
167354
152914
83490
112590
90178.4
134418
194986
205505
176250
97396.6
155445
102931
107071
115278
108115
107604
116953
108568
116107
113066
115765
113209
107479
112454
109060
111729
90735.5
85977
102951
133558
91080.7
117903
88535.7
87919.7
93604.4
89208.9
93538.1
90940.1
97162.6
87865.5
91928.7
86917.3
95634
96206.1
93703.2
102367
89046.8
108916
116568
110003
117532
109079
109629
116789
98281.5
94371.7
101139
98414.5
95785.6
103627
91566.6
118235
110661
240399
174987
123816
140917
115517
96914.1
118195
122830
117799
102640
124042
122658
123447
97757.5
222007
222446
192832
223086
188812
198632
157781
184306
127415
151003
122569
144764
129943
121872
118556
120996
116995
120879
115973
120215
120052
197293
146288
163158
156720
172198
140108
134742
174647
98376.3
134184
108514
151527
124296
104003
118489
120548
120955
116013
115840
119691
119703
128224
123640
133799
126834
126715
123927
127956
96703.7
109485
113588
116684
103459
114887
103415
122148
124754
122969
126925
123749
123650
126983
108443
98904.1
108411
103763
114221
113914
104393
112634
135209
138553
123967
116566
126738
110488
120715
123904
109710
115918
119619
124673
109955
125270
122993
125017
123380
127430
123505
127045
109986
100498
108872
113959
107384
114650
105580
115592
123628
115366
109665
119188
118847
109993
124214
123579
116370
118815
112450
119372
110898
114680
118936
110042
112111
126266
116887
121258
114614
122829
127355
129313
117613
119588
124043
64486.7
62249.2
80152
62737.7
76985.5
76165
82185.9
82641.8
69059.3
68682.3
75958.4
77394.9
64784.8
85522.2
82522.1
69051.1
72297.1
63407.1
65157.6
64452.8
68427.7
67612.2
68754.5
69365.2
68602
97014
88621.8
104413
88198.2
75520.8
93695.1
63234
64234.1
64430.5
67083.7
67425
68653.2
68594.9
72593.3
76403.2
71932.9
73191.5
78301.8
77755.8
73739.4
66747.4
68655.3
66221.9
70551.2
73327.5
72963.6
71021.4
61797.2
64124.6
63924.9
66695.7
66175.3
68521.2
68282.6
62572
66995
64815.2
68675.2
66760.7
69032.3
70927.6
71573.1
76216.1
71742.2
73029.3
77739.3
73103.5
77553.6
66222.2
68679.9
66295.8
70491.1
72988.7
72828.1
70562.2
74195.7
70597
72107.2
76032.8
77305.4
74199.1
79289.7
75053.8
80209.4
82086.5
77880.8
77443.2
79699.9
75500.3
66379.1
69199
66368.9
73331.2
70724.9
70715.5
73532.2
74879.9
79739.7
81773.8
77519.9
77185.3
75076.9
79449.9
71256.1
75558.8
70758.5
77774.9
73055.4
72863.2
77667.9
81059.2
90019.6
82650.4
90967.4
83740.9
85512.3
92580.1
75965.7
72876
71228.9
73521.9
79749.3
75174.2
78286.4
69460.6
70256.6
67345
71580.1
76377.5
74518
73458.3
72861.2
80591.4
78126.3
79367.2
76583.9
81539.1
84167.2
75953.4
84681.9
80800.7
82454.4
78142.1
82912.2
86928.6
79949.9
77811.4
75233.2
75280.6
82955.1
78115.2
80099.3
90343.6
93755.7
86831.2
88773.4
99046.6
95576.6
92463.3
91662.5
86699.1
84481.1
87552.7
96769.7
89983.2
94474.5
76098.8
82428.3
83955.7
80768.4
79072.4
77775.1
80918.9
85108.9
83582
80651.1
85321.1
92544.3
88138.8
89516.2
65510.4
117471
60627.6
124608
77931.4
121211
137392
122539
116306
118404
133406
132849
125919
122059
122873
119547
110807
87592.7
125544
108088
67269.9
130916
110215
132339
91315.6
82576.1
68565.8
86503.2
120332
127450
123407
118825
116513
123250
126864
115343
116708
119108
112045
113873
119457
117247
115454
126790
119507
119301
117107
122933
127471
61698.7
77032.8
75038.2
127230
112498
119916
96384.9
74519.4
75113.3
62619.9
71813.4
98675
75953.3
57911.6
108432
104237
110163
110772
113677
115601
108582
121882
126818
124561
126287
128035
128385
124247
131170
127496
128656
129681
125855
128931
132689
125912
86178.1
111513
118505
114969
129262
96790.3
66606
95146.2
87202.7
88984
72894
61573.1
81888
89930.2
71575.6
96873.4
105271
73791.4
81162.1
96059.8
104253
115233
108298
110909
106436
114206
108444
118807
113643
115273
122323
124888
126410
120531
117500
99310.1
92686.1
122093
119656
95819.9
101442
120842
119606
117692
125453
131525
128970
128376
89304.1
72986.1
92647.4
72827.4
93001.5
94141.4
75623
125783
121009
120629
127022
133740
131999
130055
112251
69196.9
83234.5
102640
115162
87145.1
74525.7
142536
166449
154774
120044
98007.4
94081.6
117247
129211
131387
133619
130549
132682
130723
127646
124776
115846
118480
121782
122190
128042
115056
60785.3
60273.2
56516.8
84728.9
68785.3
61476.6
66006.1
56926.9
58279.8
56179.9
62215.6
62514
60460.7
62051.1
63771
73121.9
69045.5
72731.2
69124
67800.6
76176.6
132163
137862
134000
129507
135284
131203
134993
122777
123354
114916
127355
119861
112904
119166
114945
117632
111266
122020
116958
111651
116476
113550
110912
98890.7
80773.5
120661
90599.8
103455
124488
137123
112820
120621
129815
133109
105549
124968
124672
122251
98807.9
106069
101611
103806
67162.6
62452.7
64951.9
68341.8
69831.1
65661.1
71029.8
105632
79313.8
98523
97834.2
87256.8
80758.3
103060
62976.7
61953
65765.2
69737.4
66037
67030.4
66358.3
59781.1
59252.2
57893.4
62375.3
65191.9
64207.5
64024.7
104124
77669.1
98271.3
97492.7
82588.6
101573
79002
121052
108023
118166
90827
84506.2
94179.4
79673.3
76513.8
72949.9
76193.6
82471.6
71950.6
80312.1
79238.7
60432.6
60426.8
58261.6
62420.9
66465.6
64575.3
64239.6
83888.6
92314.4
76683.1
66598.7
76974.2
71800.7
71616
125565
127491
121348
114684
121617
118115
119274
74732.1
66870.8
68507.2
65059.1
70597
69899.1
66175.8
131826
135888
152014
139378
126133
144319
132523
64540.4
72331.1
70374.2
70025.1
67857.9
73213.9
75309
74171.5
83616.7
75626.2
83855
76395.8
77888.6
85555
73771.7
70496.7
75544.5
75429.3
71215.5
77848.5
70869
68746.9
76488.3
72944.8
73275.2
69276.2
74174.9
77786.8
112635
102006
118847
94444.1
108845
114410
102230
99593
104572
85873.2
89090.5
101957
83148.9
103453
67008.4
69819.4
73580.7
73600.3
68810.1
71773.6
68811.8
66853.3
73705.2
70632.4
72830.9
69002
71539.5
68385.1
79421.8
85530.5
77610.7
79996.3
89358.1
81947.4
87549.3
73803.7
75646.6
71570.3
76515.6
82511.4
78714.4
80243.3
134758
125824
124848
143913
142262
130249
129777
82067.7
86197.7
79011.6
80589.5
90854
83785.9
87937.5
160628
144718
144786
159012
152583
137645
138986
108415
96020.5
108267
113211
105472
112907
103603
124245
109687
122486
118948
118411
110277
123093
45410.9
50854.7
51644.9
61928.9
57487.5
118847
142957
90021.2
85227.7
44117.9
56178.3
59114.9
66609.2
50608.7
54135.2
50165.9
125954
51998
80147.1
82719.5
116973
75854.3
54735
42724.2
41645.7
40749.7
52487.4
44485.2
43925.1
45284.4
136195
117028
102100
129763
125052
92028.9
103499
44391.7
47445.8
43023.8
49311.8
45309.6
45638
49364.8
48882
70551.8
60796.7
60332.7
54626.2
52382.2
67180.1
44494.5
42267.2
42544.6
45983.3
47942.3
47943.8
46156
47486.2
45372.4
52362.6
54751.1
49373
51155.9
49353.3
121460
116202
118088
89007.1
97632.1
89938.2
98231.8
84870.2
110619
111853
76403.3
63828.9
79292.5
58881.3
58199
53802
48302.1
47661.6
54673.2
49592.5
51869.1
46638.7
49061.1
44764.1
47691.3
53211.6
49673.1
51340.2
52046.8
51141.5
48105.1
48790.6
54917.9
52288
51948.3
62381.7
58284.2
59884.1
70108.2
56097.2
65540.9
67658.6
58123.6
53381.4
58979.1
57647.2
55000.7
61870
53458
49656.3
51938.8
55569
54597
51618.8
50226.4
53629.1
50912.9
55971.9
56574.1
57006.3
52990.9
54422.8
53977.5
44559.2
47441.4
94465.8
43200.4
47913.4
46449.7
52007.7
52858.5
53750
52217.6
50596.3
40071.5
42517
49569.1
43044.8
51869.7
57010.8
41583
41407.6
37343
38368
40995.8
43604.4
41979.8
66784
56023.6
73679
83454.6
56274.7
61836.7
84849.5
37484.8
39313.8
35803.9
37176
38714.9
41466.1
40680.7
47946.9
42826.8
41270.8
47969.3
42220.8
44210.5
49218.6
45613.7
48814.4
43882.9
45159.6
42038.1
43978.1
45819.1
55883.2
55144.9
64165.1
55702
65035.6
56166.2
64677
40372.7
44299.6
42039.7
44223.4
45561.9
46200.9
43277.1
44725.7
44723.3
42531
44285.7
47370.3
46202.4
45655.3
48331.3
49566.9
45612.6
47263.9
49669.7
51018.5
45788.3
54720.9
50910.3
49054
47615.8
53101.8
51561.5
49052
43381.4
39484.1
40740.7
43405.1
45096.4
42550.4
45874.2
46385.4
46878.5
43073.3
44591
48087.6
44305.7
48012.4
49116.7
45965
43865
45993.4
52332.6
48176
50629.7
45195.9
51664.2
48018.2
46739.2
53284.4
49723.5
50998.3
80130.9
74445.8
85513.3
86589
75462
74082.5
84125.4
57080.1
65253.1
64889.9
58260.4
57126.5
65313
65999.1
57456.7
65018.1
64101
58826.5
57240.1
65187.4
66179
47698.4
50201
52819.9
52544.1
51476.7
49103.4
48875.7
47587.4
48659.8
50530.7
52619.3
51272.9
49152
46735.1
46480.4
48276.3
49716
52151.5
45973.9
49887.9
48814
48575.1
54466.8
55049.2
53773.8
51599.7
50759.1
52606.5
82866.4
73189.8
83023.6
74103.5
83693.5
74702.1
83515.7
84063.5
74241.9
74228.6
74350.8
83645.5
74739.9
83595.2
59823.3
60260.4
58430
66068.6
68566.4
67317.6
67046.8
74727.5
84227.5
84064.3
76476
75571
75357.7
83731.7
46664.6
52616.1
83647.3
49505.3
60718.4
58545.9
65060.3
55658.7
64677.9
54611.1
45969.3
57913.2
61195.1
64979.4
54519.5
68530.1
59307.6
58423.3
65436.3
85250.4
72005.6
63749.9
87294.5
84690.1
47974.4
53140
50310.4
49137.9
51619.6
52557.1
53801.6
47569.6
50472
48673.8
49145.4
51219.5
52612.5
52241.9
46491.5
49720.9
48293.3
48825.7
49909.1
52165.7
51890.9
48589.3
55064.9
54474.1
50767.6
51620
53783.4
57018.3
56962.1
59314.3
55416.6
56258.1
61200.1
60259.7
57453.7
52613.8
54555.4
51480.2
54555.6
58311.1
57404.2
55658.6
66030.9
60270.2
59831.1
67052.7
67321
61847
68578.4
54455.4
59141
55089.7
56402.9
60067.6
60346.3
56076.5
51363.8
54846
51642.4
54853
57564
57747.2
54627.5
53718.3
57601.5
53620.2
55823.4
59856.5
55763.8
59763.8
57941.6
58651.6
54991.8
57167.7
63346.2
60862.5
60006.5
51173.5
54777.1
51576.5
54781.1
57632.6
54527.5
57830.2
56686.8
56277.1
53296.5
56278.9
61989.3
59205.7
59308.7
74663.9
84205.2
84068.3
75359
75559
76486.9
84856.3
58127.3
62748.8
61476.3
64596.3
60804.4
62060.1
59051.9
62642.8
71472.3
69163.2
67316.8
64384.1
70641.3
73140.9
61574.6
70122.7
68370.6
66067.8
63750.7
70122.1
72086.6
58434.5
62116.9
64762.1
60954.9
61090.7
62268.4
58243.4
58356
62192.3
61138.8
65104.7
58221.3
61292.5
62239.3
59659.8
65756.2
66268
65087.3
62560.7
63364
62364.2
76940.7
78779.1
86705
78104
87861.7
80170.2
86139.7
85757.3
77664.4
76266.9
77663.7
87098.7
79275.9
85757.9
69468.1
68849.9
66423.3
72390.5
77369.7
74531.5
75062.5
88857.5
91055.8
89265.8
79512.9
83807.8
81330.1
81793.8
82864.7
88336.6
92011.5
93138.8
84928.7
86193.7
90085
150375
156212
149970
134654
134347
132772
136370
97799.6
95341.3
123047
119298
121680
96674.4
90170.1
116896
92102
99064.2
91914.7
100981
93700.4
100584
102290
93891.3
103571
102496
97175.3
95545.2
103901
105241
94043.7
98552
95812.5
105010
102504
104200
106829
108066
117953
109572
118371
109512
110889
119434
111616
122318
113517
118042
124533
118004
123479
118697
110619
111346
112137
121497
113211
120479
99579.3
100667
102557
105971
110521
107548
108755
124751
123179
120392
111355
113860
112833
115531
91024.1
101479
97929.5
100325
93704.8
97726.9
94953.5
124456
115723
126432
128221
118952
114334
117273
135976
151047
149639
141096
142391
157112
158706
140721
143112
132982
135773
154879
146331
143716
146218
140151
136510
158571
163245
155984
151677
139606
155391
152926
146391
144123
160822
163577
245947
208763
167772
227358
212200
229464
246198
184680
172490
179968
151071
154155
156673
160086
145260
162189
158473
149197
152607
166996
171116
139132
151501
159035
154550
143081
150124
147297
162361
187769
197301
181629
190425
157901
164209
158546
148390
149837
176338
165894
167703
178427
153232
166592
171745
161381
156658
176056
181939
206903
171146
200613
194588
189204
163283
167096
160709
154289
151764
170097
184827
173210
181218
212367
193692
240756
261926
260418
154185
118595
169218
200422
197742
212106
178851
180940
215173
208808
173419
204084
183775
224503
187463
219327
157415
171162
161176
189367
177090
181829
194928
186706
214338
223069
177075
209098
201183
171647
176153
170856
165631
187509
209708
194318
201623
254152
152429
192072
254943
261831
110606
156525
221596
180577
214627
230533
192111
197771
237266
198406
229425
237832
204657
250902
213022
244267
223599
206071
217176
245568
248843
251104
253602
205386
228651
190651
193126
247192
231760
208410
237973
219367
230615
254928
251995
256035
258077
196482
217762
250303
240639
200844
235806
212502
241089
258687
235325
229315
255598
257415
259488
224203
245803
206414
213184
260316
251016
231620
258237
238345
257605
248928
250709
259012
259216
114736
129950
117309
106629
131233
121677
141605
135013
110838
107466
103314
106102
109473
110151
113707
119196
110420
114737
117816
113360
117815
122509
120896
115580
112118
120006
114765
118535
124003
112211
125512
115755
126113
116362
120186
130263
94363.3
105570
113176
118272
116309
110841
121235
118296
116218
113402
107759
115900
109127
112024
112486
114609
117385
116324
113806
111176
113800
115898
119012
120521
121173
119679
115944
115993
119676
101148
98502.8
91574.6
95751.7
103661
105433
98270.3
121969
118651
119032
120546
118288
116909
120429
104633
101234
107858
97579.7
104272
107851
101232
100469
113927
108853
109964
107385
114635
102636
112778
109784
116089
108477
105304
114334
111812
109087
96511.6
126120
113136
124520
111850
108930
116757
104449
97733
98611.2
105515
100116
106479
107912
92921.4
107531
93803.1
116723
104264
93996.3
113854
115872
101080
93133.8
92896.1
93389.2
100859
101330
101329
106703
92844.6
115178
116837
93006
113052
93011.6
107354
96528
112463
96985.9
94273.3
104053
104666
102242
93555.2
102063
93151.3
93393.6
102467
101886
101764
115503
115404
113251
109311
110581
108353
114151
93936.1
101000
92803.3
93166.3
101471
101143
100772
109343
116319
109372
108432
115807
108667
115085
107313
113580
107195
107285
113702
107041
113608
93158.4
92886.9
93381.1
101144
101320
101339
100845
114303
107367
114219
115236
108116
108138
115241
94359.2
95802.2
94910.4
102962
101942
102248
103627
93220.9
101082
95080
101789
93996.7
101788
102769
114214
115244
108131
107553
115210
108098
114294
116422
118008
118691
110359
109045
109349
110997
106326
98668.1
96626.4
95262.5
97024.7
102986
104727
114725
115865
117170
109847
108713
107784
108710
121186
120049
112087
122715
114351
115812
124336
112332
101215
104367
106400
102989
110872
114463
101191
106974
99251.8
104201
101943
109752
112095
121828
112142
119930
117598
119143
111544
110148
125213
114660
122868
117761
129339
120296
126509
108864
107733
105128
113099
120262
115851
117082
117233
130341
120827
119110
132963
128230
123135
118653
126928
119942
108479
131208
124800
129241
124897
119032
121231
116918
120558
118300
120436
121969
129952
128343
125835
123855
123059
124251
125741
112781
109786
105305
114336
111820
116095
118300
127327
124279
122630
121135
120485
122625
124280
127660
131066
135497
128691
132323
125359
128011
121238
116361
120544
112158
116363
117480
121241
125532
127630
122820
117554
114665
120650
122726
129513
126008
134261
140104
136189
121513
130912
134260
130538
125335
130758
126425
121110
125594
124253
119617
125103
122880
133809
127826
128594
124591
119870
129947
124591
140385
129601
135013
121152
126633
137085
125259
141832
131016
135691
148868
178413
133424
160391
192626
169533
143480
148748
148708
140459
139974
136493
137671
142349
149637
159870
153409
132754
132773
129030
130517
134640
134682
139901
135443
140645
132620
137241
137208
142841
146585
131807
125642
130787
133036
128606
138992
134955
149427
143170
137121
152641
145378
139565
145851
136088
136848
132340
142285
143663
146434
138898
146396
149027
142617
161326
156568
149234
153429
141931
145851
138512
142732
149616
152887
145570
129463
126827
123076
125924
130155
132558
137035
151298
154291
146179
162022
156986
149210
153740
136336
138085
131241
140504
135004
142161
147989
149226
202765
174853
143311
161266
154417
226442
227070
138793
138136
133916
154322
148559
153512
159640
135257
146425
153241
140742
147189
135996
129950
140743
144323
136522
148168
139950
144699
153236
164004
242214
217262
219593
189087
253881
265415
143702
137501
132848
151168
139837
144766
156606
151467
154207
145711
150147
165719
156357
159062
148474
148473
142963
165774
159207
165777
172926
156084
150780
144375
175070
168696
160961
166736
161043
154477
142774
150352
169978
156667
162848
156382
159712
147650
152884
176080
165644
162007
169177
154830
162166
191613
182637
173456
181445
167620
195104
205717
204056
173773
181703
215646
158239
185081
177856
166863
173220
188905
197218
158849
175939
183686
180338
165660
172460
168501
214727
189842
181104
189848
238954
199615
227078
170670
203982
193672
189422
180664
207185
219548
194029
242333
232577
183542
218415
191217
228932
176963
197403
184166
219584
202447
212317
231157
213557
258191
251158
200394
249841
211742
239814
206930
253545
246156
256626
222984
234131
261367
259434
243779
258893
255249
252874
259247
258897
207386
202777
192639
224359
256494
238059
243965
247413
250616
241501
258839
259539
259898
259701
248454
230586
260042
221313
262888
255784
239896
250733
259736
257661
259802
259528
257994
256284
229340
263724
259494
245790
265637
256141
264473
260053
257369
261405
256375
258543
253366
248507
256248
240672
263277
250671
264757
265154
262544
258388
242315
258316
238493
257909
257140
233105
256384
260978
257609
251228
257453
256932
249752
261538
260335
259012
256004
243767
254438
247380
256497
236950
257765
255684
215194
225694
253162
261433
260907
262165
238478
251944
247953
231100
259092
263519
268505
261450
265235
265558
266716
251331
226880
255874
254123
197936
248137
219190
208027
250793
251888
186300
243549
241550
180781
201859
246521
249088
238586
163677
234365
173227
261490
258802
262394
241837
204781
220261
233008
251341
236695
184358
194358
243423
208406
247033
144865
148145
106230
168627
142886
230979
182702
300199
201114
116125
121968
116384
123688
133964
139994
154047
140814
128611
129476
158078
131892
165196
134562
111128
113317
108183
111723
113906
116678
119126
128949
142186
129856
151565
144924
160716
189172
110675
119280
113488
119851
116704
122259
125785
163945
139273
133555
169579
146339
190399
161855
118834
124732
121973
127577
121972
124730
130665
117559
126469
120005
128712
122548
125311
131840
127220
123142
121973
126667
128031
133617
132178
123706
125634
131629
131086
128958
134833
137169
81622.6
80822.5
84730.4
82425.7
98757.9
113234
98408.2
92313.6
77352.8
92002.9
106380
80852.6
95888.4
96732.4
87029
87550.3
103094
102856
81063.6
83054.5
82491.4
86471.5
85907.7
87415.1
88005.8
82240.8
93000.6
96464.3
90699.3
87478.8
103836
108879
80454.7
77656
81881.8
81902.1
84794.7
82484.3
86499.7
80816.4
82500.1
82257
85678.9
85578
87145.1
87427.4
100774
115972
95158.7
110801
97452.4
111674
127874
85091.3
86897.9
84502.8
89487.8
92595.7
91898.9
90134.5
91521.8
96075.9
90919.1
92502.4
98407.7
97755.5
93134.1
80085.1
86711.2
84382.8
87304.5
84904.1
88936.2
91324.5
85603.3
94369.4
87531.7
96266.4
89679.8
91847.9
98497.4
80563.8
82678.3
85846.8
82687.1
85768.1
87776.5
87975.2
84566
86611.7
84235.6
89209.8
92059.1
91653.1
89556.3
86670
95121.1
89574.4
93563.9
87797.9
91624.1
97174.7
90675.4
95645.8
90519.9
92212.3
97901.3
97455.2
92554.6
92176.2
96695.2
89974.6
94218.6
102892
96484.1
100770
94647.8
100647
97778.9
102455
97092.2
99978.8
95326.6
80975.9
84677.8
83353.8
87438.9
86270.3
88714.7
89982.6
84888.3
88086.7
85190.7
92670
90043
90540.1
93490.5
88972
87168.1
89710.7
91378.1
93710.7
92324.5
96315.8
94365.5
100203
97319.1
102278
96865.9
99716.8
94758.1
100982
99927.1
94436.8
96693.1
108481
102030
103171
91043.2
96924.5
91206.9
98625.5
93087.3
93529.1
99334.2
92607
95855.5
90146.2
93991.1
102114
96433.1
99577.7
94308.8
103058
96647.4
105108
98793.7
101383
107688
87467.3
89137.2
86050.2
91490.5
96327.2
94682.4
92919.3
81322.6
142447
79321
146574
151316
138436
122372
126814
136585
135874
148049
144212
153159
129367
130580
93587.5
129692
139528