/*--------------------------------*- C++ -*----------------------------------*\
  =========                 |
  \\      /  F ield         | OpenFOAM: The Open Source CFD Toolbox
   \\    /   O peration     | Website:  https://openfoam.org
    \\  /    A nd           | Version:  9
     \\/     M anipulation  |
\*---------------------------------------------------------------------------*/
FoamFile
{
    format      ascii;
    class       surfaceScalarField;
    location    "0.0034";
    object      phi;
}
// * * * * * * * * * * * * * * * * * * * * * * * * * * * * * * * * * * * * * //

dimensions      [0 3 -1 0 0 0 0];

internalField   nonuniform List<scalar> 
91859
(
-1.17194
-0.912073
-0.49274
1.10501
0.560941
1.06199
1.28417
0.397989
-1.12568
-0.329494
-1.15886
1.28402
-1.39307
-0.695463
-1.38088
1.64418
0.792616
1.53181
0.435258
-0.358937
-1.26646
1.49776
1.39952
-2.32832
-1.56257
-0.853339
2.3019
1.62467
0.936686
-2.32812
2.44007
-0.468328
1.5438
0.565861
-0.744044
-0.280555
1.05743
-1.20126
0.328877
0.903694
-1.04925
-0.185965
1.1057
-1.02187
0.245026
1.14883
-0.704712
-0.167985
1.07249
0.228419
-1.25911
0.868856
-0.226529
-0.45614
0.870624
0.265266
0.59338
-1.01841
-0.127482
-0.412332
0.877739
0.180763
0.551057
-1.07885
0.336001
-0.890861
-0.277153
0.937839
-0.837965
1.09065
-0.86181
-0.789002
0.938
0.158494
0.897522
-1.17167
-0.817634
-0.378345
1.06965
0.432229
0.971718
-0.394751
-0.643297
0.945747
-1.01204
0.772088
0.452807
-0.303371
-0.540236
0.895047
0.345549
-0.996343
0.673042
-1.22306
-0.634601
-1.26422
0.724031
1.40241
1.30414
-1.14398
-1.17818
0.471286
1.30576
-1.02183
-0.534952
1.02661
-0.922691
1.20402
0.611159
1.11387
-0.917304
0.398012
0.954729
-0.854233
-0.40456
0.880856
0.541535
-1.095
0.108347
0.762932
-0.967573
-0.287308
0.761944
0.154059
-0.953201
-0.293661
-0.631671
0.139477
0.746937
0.122643
0.757655
-0.532787
0.638729
0.169441
0.762519
-0.537104
0.190235
0.755935
0.865227
-0.428422
0.871059
0.566616
-1.04665
-0.196214
0.760591
0.23105
-0.898115
-0.336993
0.757732
-0.923774
-0.309466
-0.214618
0.666878
0.25904
0.777083
-0.561463
0.648519
0.766005
-0.545233
0.238947
0.76651
0.866937
0.286797
0.785788
0.875244
-0.494604
0.878997
-1.0019
0.629943
-0.264768
0.795371
0.30243
-0.88625
-0.422401
0.773578
-0.885853
-0.37572
0.305284
0.692826
0.79665
-0.585845
0.724229
0.35586
0.823454
-0.616569
0.336688
0.811906
0.890857
0.391017
0.843149
0.912574
-0.147756
0.981343
0.205767
-1.18007
-0.693961
1.07859
-1.27968
0.857832
0.986097
-1.19765
-0.17442
-0.885686
0.231218
1.02561
-0.875845
1.04842
1.01552
0.157346
0.958912
0.21114
0.961148
0.590946
2.32259
-2.24476
-0.490732
-1.74395
1.86454
2.35624
-2.19565
-1.68441
0.292567
1.84683
-1.25066
0.216008
-1.23366
1.45448
1.3589
-1.05434
0.186138
1.27505
1.02013
-1.51387
-0.223376
1.80031
1.22082
0.296351
-1.07323
-0.246636
0.310102
1.29304
1.03122
-1.54197
1.84784
-0.372806
1.24894
0.452622
0.853285
0.145511
-0.69136
-0.914548
0.176534
1.01788
1.1203
0.166161
-0.818608
-0.862603
0.919616
0.220036
-0.821984
1.06323
0.79374
0.193753
-0.69413
0.946136
0.210518
0.903636
0.233593
1.0243
1.12875
-0.590569
0.917701
-1.00001
0.720913
-0.347226
0.858284
-0.917517
-0.526942
0.401018
0.824032
-0.897101
-0.473914
-0.412311
0.798141
0.893071
-0.689091
0.475747
0.759527
0.855943
-0.651464
0.451418
0.878561
0.939769
0.917812
0.971872
0.51903
-0.254523
0.969083
-1.11861
0.297616
-0.719108
1.06235
-1.22787
0.881303
0.972455
-1.14693
-0.286926
-0.915954
0.342841
1.05125
1.05557
-0.896602
1.04762
1.03636
0.26316
0.960862
0.314609
0.966462
-0.244065
0.813329
0.295645
-0.71127
-0.87231
0.925886
-0.827225
0.800127
-0.699397
0.264135
0.954833
0.910619
-0.971254
-0.29365
0.355307
1.04447
1.15472
0.318689
0.924601
1.03146
1.13859
-0.372413
-0.168554
1.48462
-1.31863
0.387453
0.373124
1.09439
-0.218255
2.03302
0.291873
-2.02845
0.173877
0.0428205
-0.724446
1.71618
0.383698
-1.68528
-0.546189
-0.298243
-1.459
0.341544
0.731947
0.0548998
-0.316348
1.59686
0.32183
-1.44088
0.170331
-0.509498
-0.183727
-1.54594
0.245902
0.699768
-0.322298
-0.487002
1.43627
0.275765
0.697581
-1.3325
-1.42129
1.23709
-0.259684
-0.0539922
0.269341
0.231371
-1.35756
-0.15956
0.150653
0.184831
0.00821525
1.2836
-0.248889
-1.30637
0.0137044
0.14927
0.241727
-1.42968
-0.40171
0.57336
1.28084
-0.399056
0.428977
-0.27636
1.1168
0.240031
-0.0903115
0.290081
-0.632921
-0.380573
-1.3884
0.420474
0.808752
-0.345217
0.378328
-1.56417
-0.176083
1.56961
0.397975
-0.278569
-1.35437
-0.167828
0.265161
1.33309
0.349666
-0.302775
-0.307048
-1.25075
0.326818
0.4646
-0.383446
1.69038
0.473601
0.520037
-1.71502
0.900037
1.9872
-0.0226596
-1.98166
0.5432
-0.219034
1.80697
0.364147
1.70458
0.425837
-1.69946
-0.311898
0.331807
1.58272
0.516999
0.457236
-0.00643431
1.8037
0.319286
-0.0816954
1.63155
-0.473613
1.51814
0.682053
-1.46538
-0.324413
1.50238
0.297082
-0.273821
-1.37787
-0.293599
-0.292947
0.285919
0.492112
1.56932
-0.255243
-1.48933
-0.321074
1.48712
0.540397
0.304551
-0.10019
1.55605
0.311604
-0.0841081
1.49854
-1.38948
-0.240813
1.37267
0.428456
-0.391873
-0.254323
0.233782
0.580527
-1.25686
-0.289217
1.42324
0.283465
-0.189716
-1.29432
-0.451885
0.648998
-1.29197
1.45804
-0.245642
-1.32512
0.316859
-0.0383671
1.45339
0.317612
0.0285621
1.41566
-0.548013
1.71857
0.346131
-1.66332
0.252048
0.203141
1.94755
-1.95402
1.89523
-1.91198
0.40747
-0.218489
0.324011
1.77595
0.436808
0.382748
1.79057
0.147882
0.310606
1.67098
0.299194
1.69789
0.372452
-0.28332
-0.0941132
0.251952
0.289929
-1.4294
0.149887
0.0138993
-0.0731406
0.273962
-1.50457
0.170065
0.324767
0.270314
0.139142
1.4427
0.26125
0.103519
0.207459
0.325132
-0.322374
1.55603
0.3118
-1.41276
-0.0360402
1.61175
-1.50902
1.64137
-1.51899
0.18256
0.122874
0.312439
1.60881
-0.316595
-0.135231
1.60378
0.361614
1.64477
0.350105
0.328934
1.559
-0.216895
0.198474
0.241281
-0.0460352
-1.29568
0.166326
-0.0103406
-0.0897694
0.273126
0.281273
1.38166
0.104639
-1.32841
-0.247406
0.278611
0.366978
0.303725
0.135933
0.338319
-1.3259
-0.0808191
1.30253
0.254349
-0.204073
-0.213692
0.384247
-1.20606
0.178741
-0.310307
0.49169
-1.22636
0.26952
1.3942
-0.115024
-1.26904
1.37292
-0.0285718
-1.24766
0.258914
0.315519
0.106441
1.38445
0.190781
1.36261
0.319625
-1.53362
-0.235983
0.401776
1.53697
0.450806
-0.34079
-0.0238759
0.360058
-1.36701
0.24495
0.0284384
-1.3986
0.196165
-0.316563
1.48373
0.324653
-1.3313
1.51697
-1.36376
0.349407
1.5192
0.362534
1.48335
-0.246891
-1.28589
0.410523
-0.25849
-1.15375
0.275146
-0.164893
-1.19031
-0.0992499
-0.274063
0.076033
0.274036
0.0903517
0.00376903
0.168346
0.318575
0.188657
0.32835
0.254505
-0.17646
-1.49965
0.226937
-0.508472
-1.58779
0.698136
-1.55403
-0.343558
0.239657
0.545295
0.252615
-0.30833
0.273648
0.521278
0.267524
-0.0917496
1.5067
-1.34002
0.305524
-0.324902
1.433
-1.28162
0.327799
1.45518
-1.30386
-0.379567
-0.422537
1.48536
0.448381
0.576665
-0.372476
0.387933
-0.304969
1.5085
0.511141
1.45278
1.12841
0.156226
0.00216088
0.298934
0.374536
-0.23785
0.445506
-0.31315
0.334053
1.20623
-0.341296
0.362734
-0.357254
0.591431
0.397829
-1.22328
0.525744
0.32614
-0.274312
-1.40129
0.311432
-0.520702
-1.5011
0.70959
-1.44788
0.317363
-0.310246
0.52496
-0.337988
0.357269
0.548725
0.300891
0.332127
-0.343068
-1.32729
0.375139
1.09109
-0.584807
-1.42134
1.1826
0.765997
-1.36116
1.10058
0.391233
-0.384813
0.588486
-0.442612
0.420259
0.637765
0.356814
0.376978
-0.451407
1.34294
0.489448
0.753074
1.36199
-0.505853
0.69285
0.748231
-0.412839
1.09692
0.45991
-0.465933
0.519649
0.913991
-0.688049
1.16831
0.858472
-1.2995
1.08965
-0.341093
0.98636
0.388842
0.777672
0.974304
1.06018
0.934551
-0.941768
0.401962
1.06089
1.08133
0.368707
0.978921
0.97263
0.427708
0.996813
0.46602
1.07611
1.11224
-1.28727
0.516818
1.52299
1.42397
2.23638
0.967801
-2.24857
-1.77951
-0.880199
1.84351
2.31586
-2.26026
-1.75897
0.689903
1.86406
-1.17097
-0.992945
-0.514427
0.591612
1.38029
1.09794
-0.628433
-1.19904
-1.63027
0.724903
2.01135
1.33494
-0.95616
-0.37482
0.442525
1.32801
1.0563
-1.16947
-1.5939
1.94285
-0.537631
1.30079
0.350174
0.832884
-0.730002
-0.94877
0.97507
0.46411
-0.874044
1.14072
0.857131
0.408927
-0.753979
-0.994824
0.420256
1.0621
1.17621
0.376248
0.944386
1.02288
0.438315
0.96891
0.489533
1.08364
1.20133
-0.443354
1.02811
0.506402
-0.862801
1.08481
1.0144
1.00432
0.492796
1.00825
1.01982
-1.04821
-0.536146
1.12186
0.612888
1.18841
1.04829
0.564846
1.09644
1.14808
-1.01489
1.09932
1.14101
1.0203
0.172295
0.199432
-1.12852
1.2487
-1.136
0.26317
1.25946
1.25739
0.187618
1.18542
1.02766
0.227789
0.248087
1.19399
-0.473018
0.917009
-0.812128
0.543318
-0.983906
0.998975
-0.896955
0.885236
-0.781718
0.506125
1.05422
0.998138
-1.08875
-0.564015
1.13969
1.26228
0.644411
1.03167
0.580422
1.10953
1.2298
-0.305364
-1.04426
0.367097
1.17343
1.11237
-1.02953
1.15747
-1.14443
1.26889
1.26765
0.284536
1.03497
-1.04958
-0.311123
0.375676
1.21863
0.34232
1.20329
-2.37034
-1.37135
-0.844459
2.42077
1.47405
0.941053
-0.493034
-1.1128
0.566282
-0.897011
1.32633
-0.597963
-1.56237
0.689418
1.88439
-1.07852
-1.48643
-0.897632
1.76666
-0.634461
0.996553
0.720949
0.742879
1.21279
-0.503799
-0.981604
0.574005
-0.862167
0.424225
1.27445
-1.05125
0.377406
0.694148
1.11364
-0.86297
-1.53053
1.83139
-0.512796
-1.05499
1.97289
0.95004
-0.510181
-1.62897
0.59224
0.707501
1.14391
0.438488
-0.898455
0.391463
1.1678
0.774486
-0.924784
1.19591
0.455037
0.789643
-0.958842
0.422709
0.77609
1.3522
0.787636
0.48936
1.37819
0.435183
0.857861
1.40073
0.504214
0.8712
1.42554
1.25946
-0.522979
-1.03715
0.827801
0.595644
-0.818509
-0.5773
0.907662
0.655495
-0.559578
1.43959
0.634189
0.723831
1.17746
-0.938612
1.22661
-0.996723
0.807524
0.801472
1.40726
0.88748
1.45403
0.407044
1.22173
-0.988032
-0.878345
1.29852
-1.08061
0.972912
1.2473
-1.01989
0.473272
-0.947139
0.466126
1.04508
1.50471
0.449574
1.45125
0.962619
0.521459
1.47574
0.541787
1.0633
-0.300485
-0.424292
0.765502
-0.812773
0.351087
0.0607776
0.0901584
0.224788
-0.317081
-0.52468
0.136871
0.582784
-0.1644
-0.240994
0.640358
0.195688
-0.757922
0.0995104
-0.0724986
0.122332
0.251667
-0.252906
-0.194745
0.0905923
0.632781
-0.810393
0.318079
-0.809651
-0.745833
-0.261984
0.273802
-0.225081
-0.581118
0.587986
-0.647041
0.767987
-0.606495
0.134198
-0.954424
-0.826606
-0.508355
1.14777
0.581413
-0.26044
-0.213638
0.565973
0.335497
-0.577567
0.257942
-0.752569
-0.438474
0.653938
0.503706
-0.225448
-0.322572
0.687018
0.25916
-0.760541
0.122812
0.14923
0.285437
-0.279125
-0.839034
-0.760631
0.377217
-0.612416
0.324823
0.598224
0.0892364
0.215373
0.0586703
-0.253079
0.0682608
0.352073
0.128236
-0.445846
0.355035
0.0745462
0.133316
-0.429578
0.0652925
0.314113
0.297274
0.319212
0.100623
0.317639
0.0825102
0.381124
0.413464
0.118224
0.381569
0.425705
0.100649
0.229859
-0.242675
-0.10168
0.380865
0.128849
0.170555
-0.427169
0.364497
0.146873
-0.425558
-0.134719
0.332454
0.167525
0.362234
0.32352
0.33809
0.15199
0.385735
0.438928
0.186659
0.395478
0.459804
0.18027
0.333614
0.146299
-0.322336
0.152772
0.409459
0.202889
-0.441368
0.200881
0.346223
0.396876
0.452154
0.179267
0.242109
-0.473014
0.366259
0.237157
0.443764
0.222703
0.412993
0.492217
0.262537
0.437814
0.536313
0.0760311
0.493097
-0.630235
-0.199989
0.634155
0.12658
-0.799293
0.496842
0.0994418
-0.619671
-0.450892
0.108719
0.0963574
0.531183
0.452229
0.133743
0.53976
0.150484
0.653322
-0.215058
0.633579
-0.777408
-0.132554
0.512267
0.160858
-0.598699
0.500741
-0.608824
0.170544
0.45811
0.548346
-0.470953
-0.191546
0.232355
0.673116
0.208
0.565658
0.659298
0.105924
0.465364
-0.544752
0.580748
0.179668
0.464604
0.1443
-0.604175
0.142715
0.65388
0.115669
0.53286
0.618684
0.154116
0.531217
0.187632
0.653141
-0.176377
0.462649
-0.452423
0.216399
0.218034
0.394034
-0.381294
0.505669
0.287366
-0.519841
-0.279529
0.423421
0.561073
0.329706
0.392476
0.499711
0.308699
0.467996
0.588309
0.50205
0.644746
0.362398
-0.560202
0.58228
-0.182109
0.472508
0.222553
0.46599
0.194122
0.631385
0.533496
-0.652738
-0.235773
0.286709
0.662589
0.23712
0.54101
0.65578
-0.27772
0.658514
-0.751736
0.187258
0.53571
-0.601475
0.571396
0.217355
-0.621228
-0.492401
0.275065
0.697181
0.247418
0.594229
0.521104
0.29101
0.632916
0.322215
0.729846
0.265456
0.4839
-0.653505
0.61314
0.37914
0.500636
0.311688
-0.684454
0.340265
0.675161
0.282819
0.555209
0.724882
0.332247
0.575405
0.397639
0.692483
-0.731697
0.15713
-0.684222
0.149314
0.124488
0.606703
0.696125
0.165319
-0.778083
-0.733049
0.207819
0.178548
0.196899
-0.37256
0.72333
-0.781763
-0.255366
0.667525
-0.698654
0.303048
0.61658
-0.65497
0.340732
0.554313
0.678855
-0.590533
-0.375401
0.811955
0.435529
0.728779
0.39778
0.768578
0.208484
0.610451
0.708126
-0.620198
-0.225211
0.273704
-0.729578
-0.248023
0.301489
-0.789265
-0.736923
0.254085
-0.363265
0.547581
0.42161
-0.701066
0.631957
0.522117
0.387243
0.770683
0.599985
-0.819603
-0.460074
0.737139
0.527935
0.627831
0.448849
0.713561
0.760383
0.206792
-1.53557
0.0755888
1.66656
-0.846482
-0.952682
2.45767
1.16798
-0.724808
0.654185
-0.0973527
0.156189
-0.158094
0.0451618
-1.07637
2.67429
0.91324
1.64848
-0.696348
-2.25115
2.80394
0.778262
-0.769789
2.69034
-1.94753
-0.222053
2.02824
2.14049
-0.0781043
-0.00931689
-0.804715
0.90102
0.584247
-0.279017
-0.87943
1.57841
-2.43047
-0.0564655
0.678302
-0.0455552
-0.345897
0.221752
-0.412053
-1.05999
0.984772
1.27642
-0.828037
0.634685
-2.03283
-1.3597
-0.816822
0.200825
1.43227
2.58546
0.925983
-0.495428
-0.633395
0.871559
0.997435
2.58756
-0.374795
-0.763994
2.65095
1.10971
0.974886
-0.56759
1.02662
2.56486
0.855042
-0.45983
0.835469
2.69464
1.61442
-0.806836
2.70178
0.935858
1.65331
2.63286
0.781737
1.59591
-0.689813
0.359612
-1.01453
1.11135
0.877168
-0.441568
1.20613
0.216945
0.435928
-0.179852
-1.02286
-0.256889
0.737862
-0.879597
-0.0682084
1.13381
-0.568876
0.015781
1.32281
-0.197514
0.486393
-0.205342
-1.10314
-0.102599
-1.19929
0.40924
0.0580738
0.547641
-0.962045
1.03855
0.161331
1.21546
-0.811363
-0.947621
-0.0667712
-1.26231
1.12803
1.04558
0.127586
-0.124747
0.0906518
-0.125387
0.862209
-0.825251
0.600462
-0.69458
-1.03445
-1.90007
-0.200214
1.26556
0.331303
-1.97358
0.329293
-0.766749
1.11163
-0.432294
0.787607
-1.0582
-0.697106
0.433974
0.349713
0.167718
-0.31517
-0.168069
0.945275
-0.111856
0.986355
-1.16916
-0.654218
-1.18005
-0.698977
0.0537032
0.252922
0.616824
-0.11074
-0.629729
0.626763
0.866155
-0.221316
-0.663306
-2.14522
0.613592
0.615193
-0.641697
-0.116896
-2.55358
-0.131642
1.60366
1.08842
-0.33533
0.875646
0.340907
-0.27902
0.60091
1.46097
-0.691069
2.18448
0.235077
1.32716
0.64196
-0.732684
0.920782
2.5964
1.13955
-0.645496
-0.589977
1.03493
1.98261
-0.594697
0.192131
1.04677
2.36599
-0.528257
-0.841457
2.43038
1.6056
0.484333
2.61956
1.64704
0.448757
2.39164
1.50991
1.92413
1.40897
0.0533816
2.76909
0.847553
-0.747573
-2.16418
0.652601
2.70846
-0.758267
2.42019
0.804049
2.7671
-0.811695
-2.19918
2.71797
0.628168
2.5188
2.75251
0.833187
2.00884
2.64063
0.611748
2.34529
0.262443
2.20861
-1.65543
0.233418
-0.657213
0.104503
1.5708
-0.341624
0.383171
-1.35165
-0.0245964
0.0132257
-1.21073
0.701689
0.597234
0.290002
-0.52102
-1.60555
0.00938256
-1.57009
-0.469416
0.492039
1.51586
-0.16614
-1.31806
0.647246
-0.325497
-1.50517
0.532506
0.154226
0.795784
-0.422949
-0.386641
-1.39041
0.565889
0.0138121
-0.195884
0.840781
-0.34857
1.34764
-0.275681
1.17554
0.930445
-0.780154
0.131623
0.844451
-0.89424
0.149682
0.83971
1.09293
-0.466359
-1.85054
0.11104
-0.552302
2.02528
-2.51849
-0.420082
1.23468
-0.196555
0.467058
-0.709307
1.82166
1.6055
-0.0400411
-1.15266
-1.15816
0.250072
-1.01456
1.24884
0.433009
-0.905649
-0.458207
1.70562
2.37675
0.603679
-2.50293
-2.44751
0.649751
-0.00922643
0.768121
-1.91501
0.997848
1.63239
-0.192889
-2.00476
-2.22227
0.760489
-0.426015
-1.01831
-1.327
-0.666537
-0.44979
0.0871486
-0.0712241
-0.713182
0.339291
-1.22919
-0.518431
-0.881168
0.198816
-1.72467
0.185096
0.105786
1.77709
0.592974
-1.37485
0.438781
1.49161
-0.688205
0.576391
0.286504
-1.37417
-0.0111489
-0.621309
0.274167
-1.50761
0.01023
-1.57024
0.425511
1.64457
-0.403504
0.513546
-1.37017
0.51617
-1.22577
-0.474107
-0.32219
0.422999
-0.115591
1.35112
0.452091
-0.214595
-0.183087
-1.12811
0.368586
-0.363676
-0.0886585
1.28034
-0.0249603
0.737491
-1.04037
-0.133291
0.674462
-1.25576
-0.182571
0.612365
-0.0534767
0.693655
-1.02933
-0.00488592
-1.25722
0.854585
-0.742682
-1.3661
-0.247884
1.39013
0.90047
-1.48625
-0.344082
1.46885
-0.88286
-0.0077537
-1.24053
1.05417
-0.0752107
-1.27057
0.779497
-0.191544
-1.33596
-0.102419
-1.16206
1.00411
-0.599025
2.3311
0.214803
-2.08154
2.44094
2.32747
2.61329
0.15335
1.81894
2.21018
-1.66465
0.215556
1.11384
1.78154
-0.377662
1.64127
-0.162585
1.66082
1.96369
-0.893421
0.581491
-1.13597
0.803337
0.603344
-0.61796
-0.905878
-0.896889
0.626701
-0.734578
-1.06562
0.721681
-0.615844
0.284291
-0.797701
-0.720326
0.117594
-0.59094
-0.79816
0.287317
-0.643262
0.400515
-0.641013
0.135461
1.10238
-1.55353
-1.55704
1.21408
0.838304
-0.848058
-1.22414
0.766088
-0.921612
-0.49583
0.979116
-0.154613
-0.0900504
-1.00532
-0.237999
-0.413932
0.454108
-0.939871
-0.384892
0.428516
-0.243989
0.631799
-0.896664
0.149127
-0.153066
-0.152722
-0.358105
-0.48567
-0.413586
-0.34988
0.101066
-0.0845399
0.0648228
-0.180164
-0.245538
-0.0684617
-0.49377
-0.0571292
-0.299092
-0.513237
-0.0974148
-0.155507
1.01455
-0.5037
1.40401
-1.30748
0.702959
1.44821
-0.669504
0.962432
-0.597925
0.203864
-0.89352
-1.061
-0.595203
0.19283
1.24271
0.1999
-0.583739
1.49035
0.463602
-1.18772
1.29848
-0.551322
-0.69056
-1.19276
1.32612
0.879598
-1.37679
1.50941
-0.275056
0.764905
-1.19483
-0.754156
0.18482
-0.888186
0.971025
-0.259974
-1.05219
-0.352481
-1.03002
0.981271
0.386839
0.363148
-0.0956712
-0.424304
1.30139
0.439896
-0.173655
-1.10039
0.359166
-0.0830353
-0.231207
-1.17255
0.597013
1.06182
0.0834003
0.660996
-0.883023
-0.141653
0.590994
-0.293224
0.675009
-0.974884
-0.580918
-2.48574
6.65648
2.78279
1.64957
-1.41973
0.590834
3.60762
-0.499609
0.379048
0.927193
-1.65395
1.78662
-0.99152
0.545937
-0.228977
2.80064
-0.369125
0.0749264
-0.687575
1.47403
3.50693
0.634974
-1.48413
-1.44323
-2.21635
4.52853
2.04423
1.51368
0.720141
-0.663589
0.565848
3.23634
-0.671949
-0.427027
-2.13283
2.27701
-0.341079
-2.23102
0.349429
0.278202
-3.09305
-1.45987
-1.77078
1.39424
0.585071
-0.839044
-0.808352
0.943286
1.62418
-1.55145
-0.587491
-1.428
-1.81987
1.57056
-1.56549
1.22104
-0.534586
-0.57353
2.16922
0.341379
-2.19574
4.63228
1.95788
-2.04614
-0.829789
4.32089
-1.91284
-1.50332
5.33782
0.813474
2.04973
-3.17325
2.23726
0.212378
-1.89659
2.72656
-5.79088
0.338184
-2.68891
3.17447
4.62607
-2.57877
2.25817
-0.442181
-2.16005
1.40843
-3.904
-0.31744
-2.08071
1.84279
2.45101
-0.300187
-0.915378
2.47194
0.674499
1.12886
-0.204758
3.06484
-0.801801
0.311051
0.564566
-0.0560969
2.67456
0.726705
-0.412328
-0.473282
-0.713444
1.40698
-0.615194
-1.29853
-0.052132
-2.07588
-1.20831
-1.267
0.839728
-0.173796
-0.759692
0.025756
0.943008
-0.919174
1.32821
-2.3409
0.513037
-0.167738
-0.23157
-1.68122
4.2396
1.49235
-1.42846
1.0151
3.98504
-0.962108
4.12501
-2.12671
1.22227
-2.04906
-1.55586
1.69274
4.20225
1.50896
-1.04822
-2.02471
3.58924
1.06845
1.47117
-1.54864
3.24149
-1.203
0.999821
3.68108
-1.68776
-1.13109
4.85024
0.69121
-1.69982
4.79206
1.8173
4.38947
-1.67749
1.03532
-1.92449
4.6569
1.96635
-2.39297
0.452017
5.37999
2.4485
0.655255
4.0902
-2.03733
0.355654
4.70266
-2.45117
-2.21249
6.17606
2.37892
0.454091
5.4348
5.8282
-2.3225
-0.352856
-2.8219
6.44505
3.16671
-2.72259
6.06866
2.87315
0.233302
5.15355
-2.64883
5.39515
-2.61354
0.174136
3.31902
-0.0694504
1.82706
3.31292
-1.43581
0.468357
3.69619
0.892466
1.79087
-0.292424
2.86677
-1.47111
0.35051
-0.646894
3.0901
0.709158
-1.39047
2.88897
-0.778343
2.74319
-1.1717
-0.387276
-1.66811
-1.56565
0.959415
1.33133
-2.19334
-1.65292
-1.59645
1.31218
-0.609369
-1.15881
-1.74805
0.915981
1.14146
1.59068
-1.38249
-1.51305
-2.50663
-1.1281
-0.132362
-2.13402
0.0519926
0.260687
-1.90696
-1.38852
-1.88698
-0.974624
0.299028
-2.01462
1.8974
-4.92304
-2.51482
-0.459884
2.61047
3.86761
-2.65016
-0.0373926
2.70057
-3.25452
-0.424479
-2.27602
1.71388
0.0043316
-2.21606
4.04798
-0.0660811
-2.61966
-0.424467
-2.42832
3.04963
1.64644
-0.736905
-1.47702
0.531459
-1.80273
-1.66905
1.33641
-0.743215
-0.986918
0.73289
1.19355
-1.35593
-1.26492
1.37959
-1.19352
-1.21467
-1.64037
-0.792274
-1.79099
-0.961748
-1.21144
-1.02211
-1.02072
3.01663
0.0880711
2.80563
0.518372
-0.213337
-1.14378
0.0799622
2.74782
-0.0140928
0.420785
2.6468
-0.734143
-0.333721
-0.896101
2.64111
0.00329112
2.87489
-0.408476
0.625359
2.56361
-0.535775
0.362634
1.02993
3.4169
-1.11509
-1.17281
3.83971
1.00766
3.70023
-1.17987
0.887541
-1.40684
-1.07789
2.91046
1.8368
-0.398041
0.222754
2.95378
-1.80165
0.550335
3.20354
-0.630512
2.72775
-1.48307
-0.574332
3.76856
0.432574
-1.99058
1.7494
3.62908
-1.73008
3.99815
2.1033
0.204629
3.27245
-1.96437
0.392352
3.61653
-2.37652
0.258323
4.03941
0.180964
3.49579
-2.14279
-0.0356325
-2.98886
3.372
-5.55226
-2.73849
3.12547
4.49921
-2.99948
3.25739
4.47264
-0.0463302
-2.786
0.355747
-4.58963
-2.47536
3.60726
-2.49915
3.57342
-2.71821
1.37851
-0.918564
-2.05323
2.18199
1.14065
-1.39963
1.70878
0.749223
-0.570022
-1.51467
0.752963
-0.763877
1.3245
0.0830753
0.362986
-1.1392
-0.385758
1.69712
-0.640096
-0.713423
-1.50441
0.886708
-1.06581
-1.10985
-1.96487
1.92852
1.28938
0.0755575
1.3783
-0.355324
-1.16706
0.500597
-0.364502
-1.29915
0.707049
0.162345
3.01752
-0.273975
-1.02359
3.43321
3.19477
-0.826521
-0.941993
-1.04004
2.65159
0.683902
0.567167
2.36231
-0.598819
-0.642667
2.551
-1.05805
2.51126
-0.876856
-2.28813
4.81223
0.254962
3.85287
-2.1786
3.87008
-2.25074
-2.54118
0.145087
4.21727
-0.0944357
2.56745
3.53599
-2.33373
3.56538
-2.31715
4.31457
-1.23126
-0.385432
0.206516
-2.21771
-0.849192
0.489669
-0.923093
0.353216
0.00829158
-0.875201
-0.149394
-1.37124
-0.951226
-0.582163
-1.43785
-0.970763
-0.685145
1.60066
-0.307567
-0.656595
-0.33469
-1.18262
-0.671244
0.570975
1.33347
-1.82043
-1.04676
2.11988
-0.122142
-0.253485
-2.0612
-2.18966
-0.745083
-0.307312
0.00236606
2.05375
-1.51863
-0.888166
-2.09797
-0.652808
-0.0838549
-1.15364
-0.947378
-0.659573
-1.8926
2.58927
0.868249
-0.54953
0.214339
0.806294
2.54538
-0.687656
0.657625
2.57531
-0.551523
-0.0537523
2.65471
0.940593
2.73629
0.83249
-0.0740809
2.51434
0.627564
2.52123
0.794696
0.885713
-1.4506
-1.07755
0.785242
1.13566
-0.702081
-1.15299
1.83344
-1.01668
-1.84004
-0.710641
1.17294
-0.802066
-1.02774
-0.756508
-0.91869
-1.5483
-0.956525
3.67687
-2.54112
-0.0955193
0.103315
0.0740129
2.52884
-2.16232
0.277916
-3.68601
2.99508
2.25845
-3.20769
0.305856
-1.9183
2.70465
0.3573
2.98479
0.0923157
-2.1581
2.23832
-0.225793
-2.0898
-2.83374
-0.435026
1.39823
-0.144387
3.43907
-2.41788
2.24134
-3.0347
-1.93642
2.31917
2.54881
-2.08104
2.9662
-0.573006
0.22514
-0.433468
2.17095
-0.3173
-0.659799
2.3948
-0.566516
2.64436
-0.0688839
0.333228
2.79422
-0.234768
0.116846
2.31812
-0.346603
2.04963
-0.154007
-0.0768064
-0.919589
-1.74393
-0.822395
1.51038
-0.984646
-2.20806
-1.34245
2.35981
1.22679
-0.877132
-1.02709
-1.88612
1.13508
-2.05886
-0.732396
-1.19473
2.10598
-0.880832
-0.61452
-1.70717
-0.852321
-1.12965
-1.97877
1.10278
-0.587307
-1.0012
-1.84163
0.860625
-0.5231
-0.857942
-0.851791
-0.764927
-0.597415
-0.735488
0.967173
-0.603622
-0.432943
1.19907
-0.686839
-0.379178
-0.321955
-1.12722
-0.46134
-0.470177
-0.247723
-0.631843
0.37922
0.531049
-0.571997
-2.27149
-0.454559
0.965106
-0.0115895
0.320058
-0.407886
1.83881
-0.242778
0.0162255
0.328127
-2.01862
0.38655
-0.721501
0.024167
-0.928863
0.253363
-0.796782
2.52146
0.545208
-0.177592
2.6082
2.66591
0.387649
0.0531589
2.29201
-0.195756
-0.555163
1.97442
0.21178
1.98315
0.097297
2.31978
-0.660487
-1.50688
1.05218
0.450693
-1.74578
-0.850638
1.69062
-1.89832
-1.02855
1.88827
0.323776
-0.539571
-1.41658
-0.719971
-1.53468
-0.312439
-0.865246
-1.73893
-0.709951
-1.66178
-0.956906
-2.17213
2.36193
1.19775
1.23185
-1.90094
-0.659514
2.03046
-1.25274
-2.02479
-0.697861
2.20936
1.15648
-0.802118
-1.88997
1.01248
-1.17232
-0.839897
-1.96592
1.06794
-1.01617
-0.577073
-1.82393
-0.550594
-1.73737
-1.02351
-0.746954
-0.887449
1.01379
1.55531
-0.597177
-0.358874
-1.36026
-0.765388
-0.467085
1.75995
-0.632966
-0.745389
-1.5609
0.856061
-0.743427
-0.934742
0.982374
-1.62605
-0.469914
-0.802735
-0.36785
-0.621743
-1.41532
1.12888
-0.361832
-0.0794082
-0.0733755
0.202111
-0.392427
1.04879
-0.708789
-0.28304
-1.00811
0.158317
-1.28727
-0.160855
-0.320778
-0.479953
1.08616
-1.77111
1.89943
-1.12266
0.420093
-1.81502
1.899
-1.9072
2.05128
-0.886382
-0.30127
-1.70724
0.276854
0.746144
-1.49354
-0.76467
-1.61023
-0.894642
-1.60273
1.45309
-0.482993
-1.25132
0.183072
-0.499498
-0.640979
-1.5199
-0.192228
-0.676807
0.0930848
1.4285
-0.371813
-1.21529
-0.503287
-1.30527
-0.537514
-1.97059
1.63585
2.12915
-2.43885
-2.84617
9.26799
-1.91927
-3.41709
2.13925
1.79825
-2.28034
-1.60151
-2.63488
2.47025
3.45327
-1.77743
-2.79966
-10.3255
-1.62583
10.8677
-4.5648
-7.36945
7.28725
-4.17493
-2.78802
2.82941
-7.27363
-4.27256
-2.43059
3.23174
3.16788
-0.763632
7.45679
-2.60606
1.82584
2.07515
5.22813
6.05383
3.88603
-7.11382
0.192408
-1.12825
3.36367
1.75418
-4.69836
0.053019
3.71786
-4.12948
-4.62567
-0.598949
4.24274
1.74354
3.10791
-1.92979
0.128689
-2.59911
4.08665
4.35443
-2.08697
-4.04912
0.923517
2.22029
3.14083
-1.75187
1.65551
-2.74882
4.67024
1.52233
1.07003
-3.70789
-1.80424
0.354161
0.740668
-2.26232
1.82755
-1.68426
-4.02365
-1.91926
3.11387
-6.20311
-2.05007
-4.63972
6.19672
-1.87448
-4.36519
3.5535
5.93685
-3.881
-1.78646
6.81021
2.5955
-1.97153
-3.48152
2.32631
7.0008
-2.50006
-3.89186
5.96896
-1.99469
4.61785
-1.83785
-4.27481
3.89274
-5.06767
-1.91448
4.98923
-2.02553
-3.8488
4.85436
-1.8351
3.98195
-3.55286
-1.85517
-3.92569
4.84653
-1.7577
-3.67015
3.88186
-1.60905
-2.00621
-3.91806
-8.35658
-3.03361
8.88741
-2.4909
-1.56275
8.88296
-3.32288
7.92079
-2.51697
1.35124
8.48543
-3.10491
9.55582
-3.86676
3.62865
-1.23622
2.06019
-2.93437
3.27126
-1.99595
-1.57035
2.92836
2.99076
2.64048
-1.40501
-2.40426
3.30925
-1.71123
-3.10012
3.10403
-1.27974
2.42077
-0.885601
-2.50063
-1.32747
2.93882
0.99527
2.42258
-2.86104
-2.58687
-0.234036
-3.46861
-2.81944
-2.20906
-0.31994
2.96991
1.49788
-2.93849
-2.44023
-10.7421
-0.69374
9.98198
-5.45364
-6.76519
-2.8308
5.35446
-2.8019
0.984402
3.28294
0.462924
4.45354
-2.50765
-1.13483
1.91544
-0.27868
0.455389
-2.11667
2.45954
1.44211
1.78376
-1.26253
-2.3766
-1.86319
-1.99905
2.05463
-2.31569
-2.69531
-1.51925
2.86374
2.35046
-2.82532
-2.51385
3.36809
-3.23112
2.45915
-0.0208264
2.56226
1.45857
0.270709
-2.38863
1.71385
-1.74282
-1.11421
-2.07202
1.89119
1.69014
-1.31033
-1.49175
-2.18976
-3.49516
-0.193704
-3.68725
2.77118
4.59466
-1.17776
-4.20532
-1.48318
4.62677
-4.47089
-3.09149
3.04734
-0.823388
3.34209
-3.74604
3.68913
-1.36767
3.38638
-3.46955
-1.01674
-2.83536
-0.549158
2.37591
-3.73748
-2.95836
2.04344
-5.95068
-1.49325
5.03656
-1.94344
6.99893
-3.13379
1.65821
-2.91852
2.32586
-5.77401
-1.6982
4.7672
0.688402
-3.07089
6.50777
-1.97325
-3.29238
4.72639
3.23388
1.53372
4.12458
-2.61564
4.04287
-3.09481
1.58147
-2.66253
2.41216
4.55435
-3.28902
3.1257
4.71345
-1.30015
-3.11824
3.87675
-2.54917
3.79738
2.84011
5.5999
2.13281
5.79115
1.16326
6.30319
1.82243
-2.61005
-2.54408
1.39834
6.57349
1.64743
2.00056
5.24015
0.738407
6.02254
5.69297
9.32551
-3.66337
-1.19433
-5.24327
-4.29629
9.23365
8.77957
0.972433
-3.74786
-0.552877
-9.62356
-4.67866
9.3341
-4.18338
8.45992
-4.42987
-2.60494
0.0055916
2.14165
3.51933
-0.476613
-2.81882
-0.79005
2.63922
-2.93095
-0.679638
2.49733
-2.14042
-0.276079
1.74786
-2.24599
-0.411891
1.92118
-0.399661
-2.41997
2.60027
2.93818
-2.0658
1.3069
3.64061
3.50268
-0.942936
-2.64772
3.21406
2.20155
0.552611
2.85144
-1.79012
3.21898
2.67366
-2.14848
-1.05342
8.20727
2.55416
6.81742
7.41555
-3.09382
0.826928
7.85897
-0.531603
3.59808
7.50435
6.98241
8.42496
6.59703
-2.88198
-1.91027
0.665835
0.931875
-5.38752
-2.06538
4.15874
0.884464
1.94534
-1.88848
2.84711
-5.86517
-0.404254
4.93846
-0.139566
5.95544
0.112746
-2.75646
-4.17652
-2.29693
2.58352
1.2728
-2.245
-2.96037
3.18878
-0.876002
-2.77003
0.910096
-2.81481
-1.8587
0.338107
-2.22664
1.56822
-2.18612
3.34231
-0.98561
1.98422
-1.22401
-2.60451
0.506019
1.29662
2.54408
-2.26087
-1.64911
-2.4533
-0.0103397
2.3669
4.97205
-0.257736
-2.82484
-0.900403
-0.786382
1.63536
-2.58464
-2.00594
-0.839823
-2.2017
1.87966
0.169639
-2.86997
-2.55898
-0.726545
0.185491
-2.37898
1.15822
-1.04062
-0.855762
-2.3354
-0.10502
0.518538
-2.26993
-1.07597
2.10132
-2.01902
-1.61749
-2.27546
-1.37349
-2.13449
2.60511
-0.641357
-2.4022
2.10886
-2.31396
1.36775
-1.95611
1.99307
0.413521
-1.74739
0.881422
-2.35131
0.118502
1.24179
-2.0537
1.54894
0.179312
2.28881
-0.633496
0.141224
-2.24045
-0.903424
-0.189251
2.20662
0.614924
-0.886613
-2.11124
0.377699
-1.09265
-1.97739
-1.68326
-2.36313
-1.48115
-2.22031
-1.87796
7.79448
-3.58575
0.489261
-0.00429697
-8.29942
7.66501
-0.172126
3.86886
3.6818
-6.72662
5.81969
7.22488
8.31569
-4.41669
-0.151856
-4.68058
8.07312
-0.0280939
8.33222
-4.3711
-3.73942
5.95228
7.312
-3.98394
-0.375169
4.57304
-3.04263
6.05398
-3.25846
1.83123
-2.76174
0.690703
-3.04781
1.76389
-2.16516
-2.2168
-2.47974
-0.203067
-2.1484
-1.40541
-0.290806
-2.86223
1.37372
2.37704
-1.74807
-2.85788
-2.86967
0.609895
-3.01306
-2.95135
-1.93033
-2.83925
0.15571
1.60037
-1.55609
2.55102
2.89455
-0.689584
-2.35851
4.13831
-0.675331
-2.49348
-0.498152
-0.787592
0.399162
0.56958
2.55824
-1.58464
-1.89627
-2.65303
-0.505703
-0.749039
-2.55316
-1.74436
-1.52871
2.2202
-2.36149
-1.93123
-2.7324
-2.20882
-2.04631
-2.21214
-2.03978
-2.37222
1.98534
-1.94138
-2.71579
-1.87422
2.33173
-2.75123
-2.76272
-1.8682
-2.69559
-2.70256
-2.66925
-1.94529
-0.296862
1.91053
-1.42553
-1.7408
-2.17153
-0.917659
-1.93852
1.92466
-2.60829
-1.90029
-1.89611
2.55171
-1.7603
-1.98463
-2.62468
-1.78808
-1.75301
-1.96139
-2.63519
1.99247
-2.12511
-1.89882
2.29907
-2.37933
-2.7401
-2.29081
-2.3944