/*--------------------------------*- C++ -*----------------------------------*\
  =========                 |
  \\      /  F ield         | OpenFOAM: The Open Source CFD Toolbox
   \\    /   O peration     | Website:  https://openfoam.org
    \\  /    A nd           | Version:  9
     \\/     M anipulation  |
\*---------------------------------------------------------------------------*/
FoamFile
{
    format      ascii;
    class       volScalarField;
    location    "0.00315";
    object      overpressureMax;
}
// * * * * * * * * * * * * * * * * * * * * * * * * * * * * * * * * * * * * * //

dimensions      [1 -1 -2 0 0 0 0];

internalField   nonuniform List<scalar> 
27604
(
703355
684256
583427
622750
907888
781941
688364
609460
880375
763091
605926
865641
758950
619786
567930
729907
673410
892790
865030
852800
832115
821270
786085
794851
882402
841242
843656
810183
812691
778152
775448
823270
774098
813210
751701
723775
717624
758768
533457
664045
627575
461560
459163
457590
472228
764385
697497
756089
725536
675761
670625
732262
766048
801957
804768
743986
707105
710643
740950
832506
831915
801729
804522
777137
770132
751020
691288
746378
749010
719047
661757
664950
716048
796054
743541
774895
703592
736953
723148
693503
695457
649136
670903
618550
644525
665946
701132
787378
714448
764332
694366
740211
718354
677524
741076
673755
724495
658232
711806
699732
650394
688998
613172
635187
655945
638552
659736
685694
595079
655538
639794
592534
580865
629119
575661
712748
695372
739330
694672
637195
670047
658279
631992
652453
682199
673364
600582
625662
645789
650825
657252
694604
673951
603650
631558
640250
524105
466348
529002
461619
521243
521014
466562
643337
576842
586433
598851
615286
567340
555922
612703
542099
563048
570597
600551
555762
533432
652001
589149
586186
601910
611000
628921
621690
0.852284
0.025571
0.00415314
0.00067652
8.04254e-05
7.15083e-06
5.00091e-07
34134.7
1.11829
0.0700714
0.0145506
0.00194362
0.000155098
1.01513e-05
245175
6336.92
25.8186
0.398521
0.0308873
0.00340026
0.000188831
301878
280505
193598
931.209
1.17552
0.0355395
0.00362704
389049
354244
317948
280913
6719.75
1.44634
0.0357431
514941
455221
396344
340263
290797
7658.7
1.12468
596818
498851
413373
342281
284547
1360.1
633293
501852
401259
323672
219494
0.0217047
0.00851207
0.00181657
0.000269219
3.15409e-05
2.86516e-06
2.04091e-07
2.90563
0.310628
0.0257808
0.00497627
0.000625106
5.74358e-05
4.0397e-06
71038.1
1171.65
4.75955
0.129342
0.0114781
0.0010145
6.82055e-05
294832
274292
100663
160.315
0.372971
0.0188257
0.00105201
379284
344887
310111
256171
1150.99
0.65833
0.0142446
502464
442426
385647
331514
281098
1323.99
0.37575
580420
485474
401898
333361
264976
239.458
663891
488607
390596
315750
137298
0.00789135
0.00188148
0.000416535
6.81277e-05
7.2515e-06
6.19024e-07
4.24916e-08
0.287017
0.0348804
0.00932639
0.00161174
0.00015941
1.31939e-05
8.70059e-07
272.955
13.8564
0.377129
0.0206876
0.00294707
0.000249443
1.57562e-05
284100
175641
1837.8
2.09339
0.0412133
0.0039345
0.000258648
362389
329700
295182
43558.6
11.5807
0.0592059
0.00346904
465383
418924
364509
313562
110245
13.4722
0.0395311
519260
451766
377940
314912
58453.7
2.84243
471833
511878
368251
299677
3555.35
0.00139959
0.000315766
6.95613e-05
9.83244e-06
1.04119e-06
8.6904e-08
5.83532e-09
0.017866
0.00631903
0.00164244
0.000224293
2.31423e-05
1.86441e-06
1.21683e-07
1.65579
0.1921
0.0212441
0.00426835
0.000448166
3.56067e-05
2.21336e-06
4694.72
510.214
2.18326
0.0812561
0.00725205
0.00060011
3.659e-05
318201
290975
40228.4
39.06
0.206842
0.00821922
0.00050876
406085
390429
318565
183870
127.884
0.217121
0.00526162
415277
379089
399263
325351
196363
55.7635
0.06327
377875
307746
394892
320152
65589.5
3.66141
411516
374778
614.849
0.99768
0.000152197
3.53476e-05
7.11781e-06
1.00976e-06
1.0732e-07
9.0804e-09
5.09317e-10
0.00292762
0.000686252
0.000152399
2.15667e-05
2.25852e-06
1.86512e-07
1.25292e-08
0.033547
0.012271
0.00279963
0.000401708
4.19861e-05
3.37558e-06
2.19181e-07
4.83789
0.401271
0.0333901
0.00610601
0.000684375
5.52357e-05
3.45756e-06
4298.29
899.165
4.36719
0.127938
0.00904627
0.000749908
4.70551e-05
278746
258322
28708.8
40.3552
0.234232
0.00748576
0.000499839
269999
278569
279150
87399.7
49.2382
0.107064
0.00386601
308099
273049
280783
278630
42435.1
7.29504
0.0265085
272042
378.655
1.43741
0.0225421
1.6468e-05
3.79531e-06
6.91507e-07
9.35834e-08
9.67702e-09
6.98492e-10
0
0.000339421
7.4523e-05
1.40735e-05
1.91173e-06
1.97106e-07
1.64582e-08
1.06229e-09
0.00579542
0.00125542
0.000256925
3.45226e-05
3.50548e-06
2.86003e-07
1.91067e-08
0.0620672
0.0189442
0.00429902
0.000566003
5.67522e-05
4.51227e-06
2.92857e-07
0.558276
0.46556
0.0433253
0.00759228
0.00079064
6.21606e-05
3.9109e-06
3516.76
327.888
2.07496
0.0828271
0.00853217
0.000694665
4.31576e-05
200967
174231
3984.38
5.40984
0.0804009
0.00592551
0.000367217
261535
244145
211907
5220.7
2.62144
0.0355229
0.00250077
218020
202081
2.10029
0.0434091
0.00914027
1.47411e-06
3.36004e-07
5.77711e-08
7.39237e-09
6.40284e-10
0
0
2.94976e-05
6.57883e-06
1.14122e-06
1.48779e-07
1.50467e-08
1.1496e-09
0
0.000529207
0.000112137
1.9778e-05
2.582e-06
2.60086e-07
2.13768e-08
1.38243e-09
0.0083073
0.00170267
0.000316688
4.08809e-05
4.05511e-06
3.28728e-07
2.18715e-08
0.0394058
0.0228879
0.00487069
0.000572562
5.56718e-05
4.42176e-06
2.88812e-07
0.523187
0.552766
0.0501493
0.00727109
0.000643084
4.98595e-05
3.186e-06
1869.05
189.768
1.57762
0.0600903
0.00633352
0.000444845
2.78004e-05
184904
105356
790.095
1.578
0.037534
0.00290158
0.000180187
183662
14046.6
0.0398145
0.0125269
0.000877131
1.09183e-07
2.44036e-08
3.98722e-09
4.36557e-10
0
0
0
2.08626e-06
4.69416e-07
7.88859e-08
9.95351e-09
9.02219e-10
0
0
3.53068e-05
7.82442e-06
1.32569e-06
1.69559e-07
1.70403e-08
1.32422e-09
0
0.000554731
0.000117332
2.01654e-05
2.58924e-06
2.5834e-07
2.12021e-08
1.36788e-09
0.0073932
0.00151376
0.0002714
3.48329e-05
3.44482e-06
2.80794e-07
1.88593e-08
0.0312938
0.0150599
0.00321598
0.000397172
3.87796e-05
3.12441e-06
2.07918e-07
0.203989
0.244078
0.0239481
0.00383185
0.000348484
2.77147e-05
1.83329e-06
82.6616
14.6555
0.377079
0.0193169
0.00212096
0.000181037
1.2274e-05
573.332
0.0225758
0.00906997
0.000875
6.1221e-05
6.95582e-09
1.39698e-09
1.45519e-10
0
0
0
0
1.28755e-07
2.87109e-08
4.67116e-09
4.80213e-10
0
0
0
2.06829e-06
4.66258e-07
7.81438e-08
9.77889e-09
9.45874e-10
0
0
3.02184e-05
6.77707e-06
1.15288e-06
1.4712e-07
1.46974e-08
1.10595e-09
0
0.000389214
8.54789e-05
1.48848e-05
1.92152e-06
1.92827e-07
1.59343e-08
1.00408e-09
0.00387541
0.000857306
0.000159539
2.11374e-05
2.12659e-06
1.76617e-07
1.2049e-08
0.0249077
0.0060966
0.00125837
0.000182285
1.86945e-05
1.56266e-06
1.07597e-07
0.0384467
0.0391159
0.00666018
0.00104668
0.000119171
1.04197e-05
7.3199e-07
0.0864594
0.0043466
0.000547888
5.06781e-05
3.63309e-06
2.61934e-10
0
0
0
0
0
0
6.72298e-09
1.38243e-09
1.16415e-10
0
0
0
0
1.06069e-07
2.38651e-08
3.88536e-09
3.7835e-10
0
0
0
1.46986e-06
3.36397e-07
5.7029e-08
7.17409e-09
6.25732e-10
0
0
1.77168e-05
4.10547e-06
7.14514e-07
9.27685e-08
9.38599e-09
6.8394e-10
0
0.000172646
4.09635e-05
7.47039e-06
9.93532e-07
1.023e-07
8.68749e-09
5.23869e-10
0.00112269
0.000305452
6.00061e-05
8.42464e-06
8.88889e-07
7.69069e-08
5.42786e-09
0.00500825
0.001987
0.000335909
5.10467e-05
5.76684e-06
5.16346e-07
3.7413e-08
0.00163482
0.000223294
2.68355e-05
2.50457e-06
1.8868e-07
522466
741943
630180
584262
512364
725470
617870
531490
752807
617744
620894
521595
743065
605865
470187
648681
579227
505389
460176
635854
566836
759576
715120
708300
709785
703123
665114
669317
508176
721648
614076
548714
486322
649999
574714
729059
617281
517494
602253
577263
494060
597755
735560
703378
698111
689197
684144
651208
655488
745678
700200
693913
703129
696838
659552
656136
728523
688515
691715
673994
677831
645807
641963
457105
632265
581186
481536
441861
568319
534969
422466
313729
321785
423850
421869
310645
310894
305882
304586
372462
257195
235969
300334
280812
644205
625130
620936
599416
595747
575610
579272
416735
410329
421642
297382
309229
307814
303649
433348
596002
505034
489247
424634
584712
495448
672875
629691
668512
628578
597100
593934
632145
665719
626516
661441
619288
591450
588163
622999
638958
612463
615780
588082
591037
570893
567757
740131
697248
690876
688974
682832
652841
646172
423950
577776
476569
492430
415677
570551
467092
661024
614262
656898
623431
587924
584778
626965
710775
684989
670422
676667
662974
638222
631710
410912
556602
491488
445475
402367
548612
481738
641013
593081
636786
607946
571497
568113
611593
624514
659088
662951
623679
585723
589301
619854
609518
647985
651746
618751
577018
580448
615005
588151
627092
631075
603089
559773
563483
599103
621594
652594
656170
614340
580192
583873
610628
601919
575447
597948
555670
539438
535879
559319
363095
478869
439906
380989
355427
469527
430492
554925
511996
551795
534434
500135
496980
537759
571625
547870
477153
529344
479617
405511
490954
570531
589472
592877
550953
528113
531515
547747
624984
609313
584829
603520
579180
564630
559825
421439
580895
491484
465021
403891
548462
470190
701650
635241
630579
667772
662303
630658
603826
412674
557736
463647
467660
396041
534548
446638
470740
542072
545724
447043
403195
468903
492879
685069
625642
656569
615136
644350
617548
592432
656129
611258
649427
581669
616388
610313
576177
644869
596568
638536
572926
611471
605633
567606
379173
422206
383807
420757
377197
423955
377517
357222
348118
348010
334856
334918
327202
315467
399502
536327
477922
427454
384625
516765
458601
623532
575326
617634
555742
595166
589672
550520
579962
546716
555701
519411
543505
552490
583327
591195
563222
559124
528546
560245
556108
594363
507839
544692
547353
529971
490156
492814
527140
648982
608233
642151
576306
606873
600940
570608
592796
561496
563953
558437
560940
529937
532836
574689
551762
548704
541273
538297
515513
518403
431496
519087
485843
399602
379425
443581
434215
575457
515600
535782
545071
539384
548581
571782
586839
524903
552506
548717
556186
552280
583092
588433
550931
553305
554280
556914
526022
522805
553135
534528
531243
519937
516527
497296
500464
558635
586213
563256
524487
544466
539992
520085
414166
406886
402500
360925
365210
361114
367663
566810
541508
544963
530941
534298
511786
508696
471383
467591
464794
510387
524019
528867
517197
590548
583378
608617
548256
568085
551061
534147
544889
523476
527021
508925
512344
493281
490076
460667
454146
452065
498194
493101
511718
508567
517084
485169
503329
466907
481900
499923
520524
599408
606255
633536
598576
549243
566668
576625
565790
623597
585968
594056
542160
558649
572711
550948
592668
620135
596445
553811
570146
533048
353480
466928
427672
367415
342433
450140
413952
541547
498054
536714
487285
524089
519728
483113
326915
341818
321460
309821
321883
303728
292232
256753
260779
295204
288571
281697
229629
217159
531628
540999
567777
562132
502948
526375
535490
581371
566326
604640
579496
528578
542782
560117
596422
600519
626966
589762
544670
561513
568956
548501
544752
579195
573647
512134
543006
539283
332909
346677
355313
319612
344577
341218
312913
575159
546659
549191
541369
543669
518565
513131
563861
580524
609180
588842
548511
561085
526461
509765
540538
569474
522515
556105
585938
545747
378684
424183
425176
425291
425800
379228
380538
421597
413384
408062
379450
311325
304529
309530
512785
463030
475051
492610
477904
495715
509703
563017
537447
526846
532209
522012
504550
499503
353833
470575
411795
388237
346725
461369
403454
529017
495806
526011
500587
476121
473119
503562
358777
478149
406891
404935
351426
469092
398906
526442
498929
523500
493030
474113
471154
496011
410614
378084
415141
310419
304499
306148
311484
280320
289532
280617
213833
213264
243899
226516
241178
222014
278017
197612
184473
220241
204810
422389
377272
375734
424520
425336
378612
380131
325787
297676
314767
289547
307628
297460
281164
323873
290732
312526
285451
306199
296044
276718
533618
502187
530758
502795
479976
477073
505695
552075
571176
550616
532769
502729
513923
518927
330587
304682
330776
298606
325581
329419
299420
512825
488468
509687
478385
462633
459587
481467
475964
465941
462883
446046
443188
431844
434797
541089
519410
505086
514558
500545
486318
481509
341184
447853
374100
393309
334535
438914
366636
521394
506985
462724
464402
509146
493730
453730
332455
401779
396868
303190
368362
308495
299099
417245
418877
420261
375558
370443
373547
377549
492356
519160
522225
497045
466845
469798
494017
498627
523557
526909
499209
470648
473696
495955
507535
473609
504655
484569
458867
455954
487495
495525
516676
519895
489695
465172
467949
486661
470149
497750
500937
481113
449790
452622
478144
471894
456457
458975
437151
439336
428124
425846
327099
426884
387669
346822
320621
417668
379564
486140
451991
482871
466062
440365
437270
469233
401066
375033
359111
301531
295845
301409
309179
410783
410762
412015
368898
365187
371360
372795
472028
489258
506422
502279
452791
467959
484835
484873
502358
505819
474627
453337
456156
471537
509529
540538
553086
522843
494513
510998
484796
395690
523492
456176
391361
353525
463529
393087
456207
453884
388274
435764
391831
348960
381496
553655
496184
507711
515119
519282
527861
537981
564431
505005
521440
518184
534980
531499
547184
448351
475813
478975
462363
430981
433727
459298
572306
514783
534739
524234
547289
514264
494971
565345
538308
507190
518285
544012
511644
490179
565815
519962
522038
533439
535581
506008
495161
567593
513173
531361
520393
540981
509599
492141
459015
500873
516238
462325
505656
489303
451089
992018
800065
932328
776646
684878
637319
402906
846403
1.29638e+06
1.0784e+06
956758
824034
1.21455e+06
1.03932e+06
1.26655e+06
1.22403e+06
1.19602e+06
1.18587e+06
1.15934e+06
1.09778e+06
1.12152e+06
818220
1.15455e+06
1.01146e+06
763084
710225
834306
813721
1.2516e+06
1.16144e+06
1.18248e+06
1.1254e+06
1.1441e+06
1.08362e+06
1.07416e+06
655143
698961
722533
452823
475347
487631
472645
671520
1.00704e+06
815059
781000
658187
975989
796311
1.15025e+06
1.05591e+06
1.12571e+06
1.03629e+06
994092
975858
1.0577e+06
1.0847e+06
972686
1.06116e+06
1.00821e+06
942738
926478
1.02785e+06
960214
1.03864e+06
1.04702e+06
995020
912708
915538
990883
1.04294e+06
1.10222e+06
1.11199e+06
1.02278e+06
962862
964293
1.01938e+06
1.0727e+06
1.11087e+06
1.07628e+06
1.04271e+06
1.01181e+06
1.0358e+06
980995
963922
839394
949494
819434
923217
904948
813194
955228
894494
917529
835784
880740
902963
972214
988495
932397
939798
917304
924105
861324
873069
592990
716689
702896
605733
594848
712846
609877
654760
958111
775786
685711
605184
762493
697788
1.06281e+06
963676
1.00601e+06
945091
991858
944974
905357
1.00175e+06
890412
950761
896994
964230
919638
860555
943243
826456
868569
890965
870872
892773
941481
976557
905899
913333
906892
913655
852119
850729
420052
461296
425526
343777
307494
396180
346485
527714
477765
527625
464246
515461
524073
463595
863525
791332
852095
803103
755298
748599
812193
834046
793631
879477
858964
749734
811832
782996
896900
830611
926670
880630
781593
850578
800287
875102
805912
862871
807665
764270
757014
817283
858443
880427
923772
885496
794996
828827
848747
918054
895812
903252
863649
870770
845297
820435
571381
619614
590615
475639
454666
478941
480201
725590
627133
618566
703092
712559
620403
622600
783546
840872
842921
795055
738712
741423
792666
798096
853113
853980
799993
747527
750184
798005
698964
601966
600469
679188
699584
611476
605768
445089
439970
431499
421455
408457
423345
395661
833242
757315
731904
746631
785696
803564
767296
520707
453444
515227
527379
462578
530837
459746
539614
472944
532377
534194
472161
542286
466706
755793
712443
716531
667261
706936
711186
762638
790525
823077
861936
757207
816618
780099
729080
835126
760055
810795
735190
788943
771666
723655
823246
847704
792798
744540
794356
776961
732759
748678
661889
697683
701504
700904
704578
746238
669168
680438
692321
614919
595171
602733
610938
627625
692706
710152
688625
616799
669779
605829
392420
433187
405464
418632
419132
385940
379882
418707
378935
399983
368331
388250
373931
354039
412077
368108
383954
407940
411243
377557
367617
731191
741886
782456
742747
667009
705219
698514
547107
475395
545716
477553
545277
542084
480089
537004
534970
470690
474621
535714
541229
467569
694369
698434
742912
731137
648124
686014
690049
727570
721831
771374
737701
659578
696438
694309
606737
646588
671144
622464
647265
591247
573487
664090
584164
601804
616809
644014
589044
569448
414202
417821
413525
374094
373199
369595
373787
362746
323348
343080
353026
316206
338340
332884
361992
382834
367687
361531
329126
351399
340815
703400
632218
632615
635984
664700
668627
665491
477905
533463
542608
534144
473106
522912
478553
529245
478391
539596
532671
471676
520355
477846
594445
597071
621341
572791
534051
552566
554339
345479
336146
310660
315844
336071
340919
323439
522523
494660
464230
464909
508549
509684
472997
454134
494145
447645
441389
476454
485686
502671
349212
465369
396149
385365
335958
445838
380078
472673
418672
378074
446409
371225
342932
388550
495862
524042
551948
506943
533726
503869
481241
491875
514321
528790
513168
469133
477598
501061
519378
486107
513864
466765
491960
486576
461547
549722
512449
524804
504104
515316
493007
483499
344683
457840
400623
370993
332142
439363
384145
514902
480202
509716
463302
489984
484716
458209
512638
483346
507249
461526
482853
477683
456464
309313
341854
340105
340499
308567
341406
309562
452943
436730
449821
420489
412111
409081
423499
313229
299359
283413
301362
290856
281619
272276
339098
306568
338028
339620
307469
340767
308493
295713
290654
285041
287523
266669
273394
278242
270880
289445
300987
285737
258611
275386
267764
498463
472767
493290
449740
467791
463044
445024
529294
497788
507979
485677
494669
475644
467881
462726
453871
434860
449906
430916
423581
419774
475242
455588
452695
452906
450005
429658
432595
332622
435738
364446
375142
321176
420347
352017
433148
443472
446056
416975
403259
405720
414578
493844
458983
489120
446426
474269
469406
441761
512204
498280
526719
484713
498279
473931
462301
467530
450294
447278
444128
441165
423041
426008
318874
414848
377086
333987
309073
401141
363444
472404
438019
467772
427911
455874
451273
423653
422836
420691
418444
380336
379081
413497
377686
304231
336088
332810
334030
304807
338586
301603
476355
454274
456062
430362
451242
453138
479270
464776
448200
441297
420951
445264
438328
467704
424118
379566
420288
380426
379368
414968
378147
471902
446600
449469
444144
446863
426599
424024
496598
448005
455880
471594
462892
479641
486759
425329
415887
422120
380638
379078
380935
380952
273260
271108
289333
280311
250030
265435
263172
472938
427249
445326
446998
448031
449890
469834
449388
425545
435855
407948
422573
432900
452454
439757
481852
475438
430486
463510
456241
425634
464212
441440
444108
435302
437935
419981
417573
284389
277570
273516
267382
275788
260528
256922
269954
265552
257227
258031
250410
246781
240302
444921
432194
429328
421359
418519
404634
407476
285944
364308
341425
296042
280831
356727
334363
416199
386356
413408
403539
380409
377714
406373
415019
410308
406450
375449
372922
374179
377076
330539
295588
326532
332145
302213
335654
299207
461516
417974
439571
432676
442158
435199
458639
500618
497864
522418
493506
455226
475011
472799
443393
454751
494899
479150
431277
463755
442979
451729
474005
439220
477295
428737
460130
441672
489192
495477
514837
487736
450292
465957
471045
453535
478700
442952
476218
430366
461907
441334
494500
499409
501142
475506
478089
474154
456120
338199
437910
406133
331692
313861
382605
362795
493625
445161
469635
454969
482609
460268
436356
370342
410944
405806
372826
369359
402694
369102
445853
404758
416591
426894
419193
429536
442945
383023
407685
409775
400101
372482
374509
397908
473624
492053
502636
478028
444133
451858
469018
479393
495785
506646
479845
446985
455080
470623
483818
433498
465624
471854
424326
453574
438199
441607
423565
426135
412921
415352
401590
399359
484985
492964
486064
468855
468091
463017
447776
476691
489995
500369
471274
442481
450078
462825
466553
478258
487075
457202
432457
439162
450071
440747
423686
436760
400813
412105
408454
397095
457554
438642
445018
420398
426101
415223
409912
423770
413761
410678
400713
397733
386208
389160
460193
443147
440846
438204
435978
420801
416199
496902
480731
470245
458931
454959
449954
436860
453426
474719
483190
463363
429586
436043
455652
452804
438186
432049
433379
427382
414609
410182
291648
284602
264550
281532
284744
264608
259210
240584
282908
281711
281274
216501
134378
215017
441878
443453
466148
460978
416788
436957
438477
436288
429411
455173
450224
408242
431527
424777
433085
455718
462554
445920
413062
418577
439602
427208
457502
467263
447566
411953
437784
419407
420291
404898
407400
392051
394468
383130
380858
302684
393696
343860
333444
296718
385629
336821
433955
410469
431034
410111
394304
391418
412991
404450
369387
397440
370290
365511
394530
364172
340505
309216
308243
342487
341522
342654
310104
282602
282101
283031
213938
103625
221851
216328
218965
216061
202667
173769
33561.1
199270
179321
271154
250553
242884
246856
257718
262233
255008
393674
371780
386605
360404
369071
383745
396538
413657
423719
439694
435078
395517
409436
419261
278032
267043
250905
249548
265363
255985
240876
281403
280157
261195
283549
270078
263473
257551
430658
408794
427615
405479
391384
388483
408444
278749
258058
262134
276760
275707
254432
253579
431370
420530
410077
416196
406000
396602
392620
298111
385959
330225
335375
292486
378313
323826
279503
355204
332624
287265
260612
344417
322662
405729
376063
402157
370693
395901
392463
367601
231963
196237
209555
153300
200070
177644
19780.1
341423
309606
343546
309420
342911
342955
308419
443626
457831
470667
450103
416514
426840
439152
429117
403953
426193
407932
390302
387411
410847
339724
308813
342480
308163
341798
343028
310519
290853
374764
336652
311769
285549
367075
329970
419510
393479
416544
400427
381981
379150
403340
416661
398344
413774
390915
379932
377162
393677
329535
434185
372820
340669
302741
379385
337415
368443
336585
369404
300104
275062
310835
300135
215127
191041
277208
280454
277704
214062
45358.8
252919
242246
250257
235885
243267
233566
226624
390361
357504
363969
378353
366038
380573
388178
415739
374321
378788
399104
407666
373926
368132
407839
374305
378721
398716
406763
373620
368034
299517
303705
336608
302052
334350
336542
305426
478664
437375
456413
435229
456675
437832
419322
431322
419049
447982
418607
447022
431916
406330
325740
428768
376818
332455
300162
376909
340067
475500
432797
433954
455279
454081
436726
417266
315179
411800
346793
334568
281820
365996
319669
368491
332643
360333
299639
262472
308550
295533
193127
229490
213214
96482.3
6424.65
189873
166413
462599
431043
418616
417388
447486
445718
430493
458673
427379
414151
417076
440713
444673
428124
419103
426497
432128
403990
388015
392737
399119
404712
371658
376897
397179
406615
373109
366544
405819
422116
424550
402542
383434
385651
400243
407468
425235
427909
407129
386177
388533
404625
401087
420782
423190
405008
382494
384622
402648
258472
237787
252106
231747
245538
240965
226907
425804
415169
442644
411609
437960
425040
401027
473634
435494
452355
431224
449730
432023
415789
460600
420007
443655
420137
441496
426920
406197
453768
424463
422426
431979
429762
410240
403299
410868
402202
389584
398267
385956
378439
374961
337218
340473
306460
307372
339122
340710
303407
454559
410880
423552
424815
430833
432251
446585
423025
415758
443611
435968
393677
415587
410195
390481
410953
413433
397488
374235
376343
395169
253236
234794
246320
225779
236261
230156
220153
395462
408412
410738
388014
372369
374422
385816
400696
384856
397724
374766
366035
363335
377623
463816
429457
444547
422772
438948
423115
408756
446619
420235
427310
414920
421535
404465
397896
275934
353069
298410
317479
262563
346148
293091
295191
382932
334724
319820
272503
367458
322534
422026
397594
417379
383434
401655
397372
379485
352176
327695
366327
292451
232702
308662
299217
272492
272518
282082
110561
9726
209994
208390
271298
273358
272561
247648
251607
250864
249198
444145
402563
418510
412614
425447
419043
437020
401027
369589
375761
394371
404528
372071
365023
396884
371451
394069
381790
363142
360504
384498
407325
369470
372486
391589
397794
366450
362348
361760
356667
354144
341717
339346
332594
334928
421456
428050
411421
413137
402173
398429
390486
290909
375844
322019
321259
255065
361017
311009
446562
409573
434863
403476
427275
416241
394207
266361
333950
300293
355359
314571
292964
127092
429586
390385
398669
407620
404328
413718
423548
368696
388882
391108
378936
355948
357862
376807
386435
357693
364809
381609
392702
362520
354514
381843
392205
394581
371836
358450
360542
369660
396369
366143
369006
385139
390386
361626
358005
417841
391962
413306
379984
399790
395558
376110
419051
396393
414526
380881
397447
393361
377054
426096
404862
410800
395722
401051
387629
382027
244304
333607
309588
275585
214450
326835
303666
376497
351617
373710
363616
345271
342696
366367
405467
386564
401245
369938
383174
379379
366315
303796
394507
357535
306939
236037
354834
327671
147600
204014
190859
10617.5
543.967
132203
31788.4
362035
376125
385988
382641
350458
359051
372804
371975
392758
397677
388155
359292
363677
383442
237960
215369
232198
212908
229218
223694
208190
444084
405460
429617
405431
427499
415058
393597
358706
349291
351223
334637
336533
329979
328114
283673
364694
328113
300629
220071
351438
316742
408034
381818
403782
371847
392513
388518
368251
333984
305446
337086
304322
334434
334983
306520
279708
255727
278816
255221
281169
254040
255521
258574
280580
279622
256493
255583
281035
255884
247690
232925
241485
247699
225964
241095
232919
280864
280501
281241
258839
256398
256199
256697
244273
238999
253845
246513
224121
239292
231796
348848
368536
370661
360761
338139
340093
358622
406192
388291
393482
376709
381559
370528
365594
390807
374922
376361
372113
373515
356444
359188
249851
344149
291607
305441
112980
332909
280374
302274
361688
345034
184790
32074.1
296190
287407
235362
234183
228310
226328
220686
219600
212640
427367
398686
386922
395886
407416
418109
403500
390256
376119
374272
356002
373293
371452
393104
386941
349811
358446
370717
383316
356185
346766
386361
361163
382713
353842
374412
370856
350668
389553
373509
385852
356272
367298
364015
353073
417457
394242
404023
382155
392323
381809
372617
387946
367256
368574
369415
370771
353866
351819
383100
370976
368151
366216
363496
350050
352739
418328
414994
413011
401043
399391
394984
383144
368277
389884
389775
361498
361548
380143
354030
364839
387009
384329
359222
357163
376052
350846
274902
249333
273300
250562
276840
248703
251475
389505
388676
398502
367548
353380
361168
360492
310643
342331
343292
341907
310531
338761
310937
309213
340015
341676
341135
309439
337435
310325
384596
367786
372070
351100
364997
369233
387514
342365
310792
343481
341990
310880
338883
311447
277039
277863
274912
251297
254412
251579
252758
241095
231906
246194
237194
219009
234500
222568
414090
415324
434922
419045
383806
400358
401388
413467
405358
430383
415625
379064
399054
392960
415962
406356
432059
416387
380202
400585
393515
349068
338945
346539
325880
321384
319145
328182
380373
363543
365527
358951
360907
347587
345728
371984
361962
359249
354541
351899
340534
343098
411086
413874
406346
397958
393944
390040
379037
381815
348602
360375
364515
362360
366554
379695
387426
353447
368400
366665
370577
368761
385122
386754
388807
397132
367017
352686
359405
360955
228350
231820
239128
223878
208755
214432
217507
219834
210201
226146
217890
198106
211912
203243
369516
359941
352155
338704
357287
349619
372218
306904
338456
338729
336348
307253
334214
307149
409362
404076
426480
411774
377268
396329
391853
414407
403823
428758
411628
377755
397666
389667
401661
396854
419820
407422
371164
389658
386295
391997
404337
411417
391702
367835
374173
385096
390800
401830
408689
387859
365686
371895
381475
352362
347692
344964
333241
330782
326675
324338
239328
224027
228547
222125
217614
214588
208852
185723
325079
302075
230748
31660.6
315366
293317
366300
341989
363101
336241
356520
353405
333524
362052
383379
378669
356855
353224
371159
347508
378429
346705
350912
364162
355207
368694
373857
339534
310057
342113
341111
309907
336888
311137
303650
330002
333675
333512
303206
328343
305372
386465
400517
407387
389939
364684
370886
383356
391827
399911
414944
401977
368544
381286
388403
409837
399496
422680
404526
373424
392093
384174
376761
392108
398299
383197
357695
363365
377030
336304
341830
343775
323372
315029
316766
321597
402600
376747
395521
365514
382588
375835
359758
369160
354629
356614
347335
349264
338087
336252
397300
399061
388952
385935
375569
378590
366178
366785
336309
352799
345236
354698
347096
364789
353482
336211
345912
324666
333716
343291
356128
381267
389845
395880
374380
355847
361485
368768
223861
218586
215549
213903
210486
205837
201510
378971
364839
366095
362458
361301
349552
346255
228626
340273
318731
141527
12055.1
315325
297864
386163
354744
377638
354617
376083
368549
347564
375531
380529
387191
358916
344797
354135
350148
389189
387509
408221
397610
362325
378946
378353
368816
375742
381095
359665
343918
348835
354655
350520
343296
340812
333499
331122
322485
324805
372035
361284
356749
357771
353348
343686
340520
229088
221419
235396
233002
212562
229183
218180
350779
322352
329391
338879
331259
340747
348736
337154
308044
338069
333989
306707
331806
307324
365915
364309
382467
378553
345889
362266
360746
358150
362257
377220
373477
341575
354782
358821
356903
372922
378076
366258
341579
346472
360957
276463
247766
276211
250857
279272
250728
254083
382272
383765
371387
372691
360366
362822
352505
20738.8
284322
270247
135668
7655.99
279157
264581
320980
299920
318793
312896
296694
294782
315010
349195
369300
361892
345214
355954
339384
334872
211229
205343
220257