/*--------------------------------*- C++ -*----------------------------------*\
  =========                 |
  \\      /  F ield         | OpenFOAM: The Open Source CFD Toolbox
   \\    /   O peration     | Website:  https://openfoam.org
    \\  /    A nd           | Version:  9
     \\/     M anipulation  |
\*---------------------------------------------------------------------------*/
FoamFile
{
    format      ascii;
    class       volScalarField;
    location    "0.00315";
    object      rho;
}
// * * * * * * * * * * * * * * * * * * * * * * * * * * * * * * * * * * * * * //

dimensions      [1 -3 0 0 0 0 0];

internalField   nonuniform List<scalar> 
27604
(
0.398912
0.524939
0.870797
0.435826
0.34764
0.373559
0.458791
0.506949
0.397845
0.433667
0.57564
0.456339
0.495394
0.784578
0.869627
0.639548
0.723027
0.35165
0.35498
0.359313
0.363962
0.368534
0.376438
0.371352
0.362941
0.408725
0.371986
0.416937
0.380672
0.390044
0.428076
0.363552
0.379058
0.368338
0.38605
0.391106
0.397847
0.380248
1.01434
0.689588
0.797483
1.1158
1.17863
0.845766
1.04418
0.380963
0.404958
0.386203
0.39472
0.407705
0.414712
0.388715
0.394253
0.420572
0.382324
0.401024
0.454874
0.414024
0.440604
0.521885
0.469106
0.478481
0.538368
0.550425
0.49097
0.566487
0.419396
0.436874
0.399284
0.409399
0.472387
0.430881
0.448945
0.482124
0.570995
0.554931
0.518335
0.50405
0.582399
0.598572
0.405429
0.419574
0.411225
0.444874
0.42766
0.419143
0.398521
0.583216
0.667169
0.60443
0.686136
0.620012
0.641131
0.713069
0.50088
0.609102
0.579234
0.539537
0.513849
0.595098
0.62594
0.421634
0.463248
0.488201
0.478949
0.445173
0.436493
0.462898
0.738756
0.7261
0.748162
0.784642
0.810174
0.783265
0.85516
0.647714
0.694824
0.626195
0.662379
0.768721
0.683437
0.740702
0.556251
0.544828
0.528273
0.611487
0.665558
0.64446
0.62957
0.697481
0.734171
0.657992
0.678967
0.812068
0.718798
0.761138
0.789114
0.908777
0.843939
0.943622
0.873616
0.929271
1.00976
0.761682
0.875082
0.8301
0.854029
0.818199
0.899009
0.943102
0.808367
0.960759
0.884574
0.905073
0.842538
0.927447
1.0024
0.700064
0.76529
0.84027
0.817101
0.741053
0.721941
0.788898
1.22501
1.225
1.225
1.225
1.225
1.225
1.225
1.47012
1.22501
1.225
1.225
1.225
1.225
1.225
2.65144
1.27451
1.22522
1.225
1.225
1.225
1.225
2.09502
2.66462
2.43097
1.23269
1.22501
1.225
1.225
0.978844
1.48819
2.17029
2.77241
1.27761
1.22501
1.225
0.514364
0.731899
1.1954
1.89745
2.76991
1.28464
1.22501
0.458064
0.642846
1.09553
1.88452
2.77949
1.23614
0.440753
0.641355
1.17486
2.11681
2.55516
1.225
1.225
1.225
1.225
1.225
1.225
1.225
1.22503
1.225
1.225
1.225
1.225
1.225
1.225
1.71492
1.23462
1.22504
1.225
1.225
1.225
1.225
2.3548
2.72174
1.90225
1.22635
1.225
1.225
1.225
1.17549
1.66397
2.39981
2.70714
1.23447
1.22501
1.225
0.673928
0.886817
1.34903
2.073
2.78139
1.23587
1.225
0.598676
0.775198
1.24078
2.05611
2.73766
1.22702
0.732017
0.770355
1.32329
2.33037
2.12304
1.225
1.225
1.225
1.225
1.225
1.225
1.225
1.225
1.225
1.225
1.225
1.225
1.225
1.225
1.22728
1.22512
1.225
1.225
1.225
1.225
1.225
2.72395
2.32981
1.23986
1.22502
1.225
1.225
1.225
1.74626
2.21283
2.7683
1.53558
1.2251
1.225
1.225
1.17385
1.51414
1.83257
2.6438
1.9654
1.22512
1.225
1.05944
1.23479
1.71221
2.61998
1.63423
1.22502
1.07818
1.04343
1.79815
2.75901
1.25333
1.225
1.225
1.225
1.225
1.225
1.225
1.225
1.225
1.225
1.225
1.225
1.225
1.225
1.225
1.22501
1.225
1.225
1.225
1.225
1.225
1.225
1.26199
1.22924
1.22502
1.225
1.225
1.225
1.225
2.71239
2.78496
1.51183
1.22533
1.225
1.225
1.225
1.41726
1.69048
2.71951
2.37394
1.22608
1.225
1.225
1.22822
1.35542
1.56518
2.54861
2.4381
1.22547
1.225
1.07715
1.61355
1.6172
2.68113
1.67782
1.22503
1.30854
1.84548
1.23009
1.22501
1.225
1.225
1.225
1.225
1.225
1.225
1.225
1.225
1.225
1.225
1.225
1.225
1.225
1.225
1.225
1.225
1.225
1.225
1.225
1.225
1.225
1.22504
1.225
1.225
1.225
1.225
1.225
1.225
1.25905
1.2324
1.22504
1.225
1.225
1.225
1.225
2.79233
2.73548
1.43237
1.22534
1.225
1.225
1.225
1.90655
1.80062
2.8011
1.81488
1.22542
1.225
1.225
1.2252
1.55774
1.73941
2.79561
1.5253
1.22506
1.225
1.91324
1.22819
1.22501
1.225
1.225
1.225
1.225
1.225
1.225
1.225
1.225
1.225
1.225
1.225
1.225
1.225
1.225
1.225
1.225
1.225
1.225
1.225
1.225
1.225
1.225
1.225
1.225
1.225
1.225
1.225
1.225
1.225
1.225
1.225
1.225
1.225
1.225
1.225
1.225
1.25391
1.22777
1.22502
1.225
1.225
1.225
1.225
2.36578
2.37667
1.25737
1.22505
1.225
1.225
1.225
1.40518
1.60042
2.1994
1.26726
1.22502
1.225
1.225
2.02184
2.38245
1.22502
1.225
1.225
1.225
1.225
1.225
1.225
1.225
1.225
1.225
1.225
1.225
1.225
1.225
1.225
1.225
1.225
1.225
1.225
1.225
1.225
1.225
1.225
1.225
1.225
1.225
1.225
1.225
1.225
1.225
1.225
1.225
1.225
1.225
1.225
1.225
1.225
1.225
1.225
1.225
1.225
1.225
1.225
1.225
1.225
1.24059
1.22662
1.22501
1.225
1.225
1.225
1.225
2.36116
1.97327
1.23166
1.22501
1.225
1.225
1.225
2.36679
1.33626
1.225
1.225
1.225
1.225
1.225
1.225
1.225
1.225
1.225
1.225
1.225
1.225
1.225
1.225
1.225
1.225
1.225
1.225
1.225
1.225
1.225
1.225
1.225
1.225
1.225
1.225
1.225
1.225
1.225
1.225
1.225
1.225
1.225
1.225
1.225
1.225
1.225
1.225
1.225
1.225
1.225
1.225
1.225
1.225
1.225
1.225
1.225
1.225
1.225
1.225
1.225
1.225
1.22571
1.22513
1.225
1.225
1.225
1.225
1.225
1.22984
1.225
1.225
1.225
1.225
1.225
1.225
1.225
1.225
1.225
1.225
1.225
1.225
1.225
1.225
1.225
1.225
1.225
1.225
1.225
1.225
1.225
1.225
1.225
1.225
1.225
1.225
1.225
1.225
1.225
1.225
1.225
1.225
1.225
1.225
1.225
1.225
1.225
1.225
1.225
1.225
1.225
1.225
1.225
1.225
1.225
1.225
1.225
1.225
1.225
1.225
1.225
1.225
1.225
1.225
1.225
1.225
1.225
1.225
1.225
1.225
1.225
1.225
1.225
1.225
1.225
1.225
1.225
1.225
1.225
1.225
1.225
1.225
1.225
1.225
1.225
1.225
1.225
1.225
1.225
1.225
1.225
1.225
1.225
1.225
1.225
1.225
1.225
1.225
1.225
1.225
1.225
1.225
1.225
1.225
1.225
1.225
1.225
1.225
1.225
1.225
1.225
1.225
1.225
1.225
1.225
1.225
1.225
1.225
1.225
1.225
1.225
1.225
1.225
1.225
1.225
1.225
1.225
1.225
1.225
1.225
1.225
1.225
1.225
1.225
1.225
1.225
0.578163
0.385427
0.441941
0.530036
0.646816
0.448519
0.51
0.569978
0.385256
0.448738
0.50825
0.635674
0.441916
0.518394
0.656682
0.418614
0.468003
0.59545
0.738241
0.483362
0.541784
0.379147
0.395613
0.397441
0.402929
0.404896
0.425169
0.41682
0.712299
0.510059
0.574054
0.901751
1.03444
0.751685
0.852652
0.575337
0.571794
0.698705
0.583954
0.847816
1.01148
0.818978
0.391884
0.399902
0.407389
0.404677
0.412386
0.43074
0.422129
0.401805
0.460706
0.463378
0.420012
0.42219
0.442915
0.4841
0.408141
0.465728
0.424521
0.471395
0.429609
0.448582
0.490735
0.814873
0.552369
0.682853
1.03697
1.17892
0.866788
0.928365
0.900714
1.33053
1.2097
1.11317
1.28756
1.35896
1.89078
1.23371
1.27511
0.911563
1.49625
1.77988
1.13578
1.29815
0.42573
0.429728
0.437998
0.441808
0.450324
0.467013
0.45754
1.30296
0.984491
1.14262
1.78481
2.07277
1.24784
1.44643
0.948223
0.47314
0.634862
0.71018
1.01828
0.540612
0.699807
0.415558
0.449392
0.423831
0.449958
0.472935
0.481505
0.441365
0.418181
0.450796
0.426575
0.454236
0.475493
0.484485
0.445093
0.441768
0.499072
0.455618
0.511678
0.467977
0.486175
0.531303
0.501176
0.521023
0.524607
0.597672
0.602426
0.546684
0.627163
0.997671
0.486768
0.695178
0.706845
1.06887
0.514895
0.765692
0.419934
0.457827
0.428385
0.452786
0.479559
0.488377
0.444031
0.587577
0.527687
0.535151
0.606843
0.616856
0.555327
0.638932
1.05457
0.498457
0.655977
0.811027
1.13038
0.528129
0.725171
0.427997
0.467652
0.436842
0.459828
0.488033
0.497489
0.450445
0.467457
0.482366
0.441437
0.468296
0.540178
0.500041
0.509039
0.47636
0.488247
0.4464
0.471105
0.54809
0.507067
0.512343
0.486511
0.497791
0.454895
0.478251
0.559497
0.516719
0.520848
0.468814
0.485784
0.444251
0.472386
0.543916
0.502886
0.514194
0.445638
0.477736
0.454897
0.490176
0.51174
0.52174
0.480389
1.345
0.576966
0.771886
1.07914
1.43816
0.663905
0.856243
0.472001
0.524802
0.481565
0.5055
0.549361
0.559934
0.495491
0.894304
0.951824
1.13908
1.02177
1.183
1.58647
1.13383
0.497227
0.518074
0.47363
0.510535
0.588012
0.542702
0.556172
0.642108
0.569388
0.58432
0.661342
0.680275
0.604732
0.702563
1.08732
0.604605
0.762706
1.09891
1.41659
0.896747
1.07907
0.653094
0.766338
0.773524
0.680428
0.686441
0.715532
0.808658
1.13944
0.713003
0.834201
1.0894
1.47417
0.926727
1.17274
1.1655
0.988373
0.957579
1.30454
1.62181
1.113
1.12885
0.669261
0.781551
0.692642
0.797347
0.705628
0.731124
0.828193
0.544462
0.655419
0.62435
0.603895
0.572642
0.656331
0.69019
0.551947
0.670328
0.633943
0.613038
0.576669
0.661273
0.700958
0.979719
0.826536
0.895769
0.909897
0.98997
0.991445
1.08314
0.973697
1.00087
0.991601
1.05905
1.07084
1.08992
1.16416
1.20579
0.736887
0.791974
1.24768
1.55431
0.964525
1.12238
0.564293
0.690043
0.650771
0.627274
0.587526
0.675902
0.71927
0.489636
0.527299
0.519571
0.586881
0.536547
0.528512
0.480394
0.483634
0.515054
0.519156
0.57809
0.523403
0.527593
0.475024
0.547426
0.547161
0.501388
0.526933
0.632409
0.583569
0.573701
0.548915
0.658447
0.630391
0.60871
0.579321
0.665316
0.696477
0.481796
0.515211
0.513781
0.523788
0.522142
0.57491
0.566704
0.495928
0.526452
0.535157
0.53736
0.546456
0.597195
0.588672
1.326
1.03991
1.17018
1.63951
1.82714
1.27429
1.38915
0.508342
0.605853
0.597572
0.588099
0.555788
0.547272
0.550158
0.502266
0.596358
0.581492
0.586238
0.541911
0.546238
0.542615
0.500175
0.582418
0.580257
0.542331
0.540641
0.593229
0.632629
0.508148
0.538563
0.548121
0.553461
0.563322
0.616706
0.607368
0.707453
0.589091
0.612619
0.660346
0.629437
0.728076
0.758661
1.10207
1.02578
0.913443
0.996804
1.07674
1.12622
1.21307
0.556864
0.5948
0.554008
0.607567
0.565703
0.615967
0.656781
0.975541
1.07644
1.14224
1.03806
0.956464
0.900156
0.984057
0.762713
0.838434
0.73981
0.89701
0.787089
0.812583
0.927126
0.572077
0.611095
0.568087
0.628846
0.584288
0.637222
0.680923
1.0514
1.16278
1.22246
1.05647
1.10664
0.964001
1.01723
0.538648
0.596308
0.572369
0.666593
0.606626
0.582471
0.528322
0.74875
0.804519
0.712062
0.749749
0.894941
0.789105
0.848921
0.869508
0.724071
0.766933
0.755767
0.909641
0.801749
0.856099
0.956094
0.862544
0.811242
0.854255
0.946924
0.905507
1.00814
1.52616
0.745505
0.936685
1.58648
1.90374
1.12842
1.31111
0.622958
0.780671
0.72498
0.710652
0.649531
0.752136
0.816838
1.12907
1.0457
1.13663
1.24357
1.15127
1.24861
1.34379
1.63477
1.49202
1.32522
1.48817
2.02859
1.90152
2.40922
0.664125
0.653102
0.616235
0.705821
0.802889
0.755726
0.742729
0.846786
0.792943
0.74638
0.774995
0.938706
0.825329
0.87997
0.752673
0.814534
0.720036
0.761464
0.90458
0.797074
0.863429
0.644791
0.650132
0.606669
0.69339
0.786478
0.732321
0.738418
1.10503
1.07996
0.98506
1.22235
1.09136
1.19706
1.33776
0.691254
0.646312
0.643558
0.734531
0.73106
0.695712
0.783472
0.920638
0.890651
0.834314
0.872352
0.967715
0.928727
1.03503
1.08944
0.976896
0.9135
1.04531
0.940503
0.877609
0.970326
1.18745
0.986134
1.08185
1.17874
1.08196
1.18771
1.30084
1.27807
1.39546
1.46581
1.77033
2.02101
2.50902
2.06966
0.560837
0.689844
0.679372
0.651265
0.630469
0.604745
0.607768
0.623164
0.659802
0.674146
0.749511
0.765864
0.722075
0.812591
1.70374
0.737474
1.10247
1.27312
1.79087
0.805906
1.17672
0.570382
0.651208
0.578806
0.643512
0.724128
0.732339
0.635375
1.66557
0.722234
1.13706
1.16914
1.75072
0.787694
1.21148
0.577115
0.649353
0.585387
0.661322
0.73353
0.7416
0.653137
1.45028
1.80943
1.39064
2.18099
2.58644
1.67569
2.036
2.23413
1.38023
1.57579
2.21645
2.52457
1.63606
1.94708
1.60378
1.91348
1.24035
2.27182
2.37843
1.74998
2.13048
1.00623
1.22362
1.09989
1.1999
1.09268
1.19993
1.32546
1.10747
1.32063
1.18596
1.33481
1.20416
1.28502
1.42112
1.0586
1.21299
1.13138
1.24609
1.16394
1.24184
1.32643
0.566632
0.64276
0.574718
0.640873
0.717161
0.725087
0.632902
0.896431
0.787416
0.814935
0.840687
0.995847
0.873087
0.959542
1.10465
1.34233
1.19365
1.41193
1.25343
1.35071
1.51313
0.590444
0.6646
0.59947
0.683953
0.758329
0.766999
0.675057
0.5877
0.627307
0.637936
0.668948
0.679824
0.748712
0.738131
0.641953
0.679648
0.699873
0.773757
0.797027
0.75072
0.84637
1.84219
0.813001
1.36168
1.25006
1.93384
0.884558
1.44196
0.982539
1.05644
1.16655
1.15587
1.04661
1.11883
1.24073
1.62332
1.5374
1.56495
2.38925
1.92212
2.11881
2.73473
1.06149
1.18084
1.25973
1.25832
1.16448
1.3041
1.39645
0.669642
0.637415
0.597368
0.661614
0.791017
0.750355
0.701327
0.660644
0.632071
0.592942
0.658796
0.782472
0.742772
0.69802
0.605114
0.703874
0.613951
0.679367
0.77841
0.786931
0.670931
0.667305
0.643735
0.603832
0.679478
0.799734
0.759385
0.719737
0.723028
0.675318
0.633264
0.697895
0.847535
0.80533
0.739174
0.612898
0.715063
0.663445
0.761398
0.706868
0.775308
0.830224
1.97183
0.868041
1.2506
1.57942
2.07724
0.949655
1.33033
0.629167
0.741363
0.638792
0.709349
0.822933
0.832104
0.700178
1.54863
1.83705
2.046
2.65842
2.81906
1.97442
2.26784
1.15236
1.28519
1.35532
1.43076
1.27401
1.36149
1.5118
0.756909
0.72529
0.682908
0.785007
0.91821
0.861823
0.826065
0.683542
0.661232
0.61908
0.70364
0.828745
0.78592
0.746684
1.08165
0.971856
0.936881
1.0081
1.12415
1.04431
1.16684
1.55816
1.00872
1.21237
1.70922
2.06512
1.25819
1.68162
1.30249
1.22384
1.61675
1.31461
1.69527
2.13843
1.80305
0.808696
0.912466
0.98227
0.963952
0.864185
0.848697
0.918623
0.792772
0.892946
0.948482
0.956477
0.835829
0.842831
0.899126
0.763476
0.706285
0.660522
0.730086
0.899693
0.852994
0.775044
0.900677
1.06272
1.0027
1.00659
0.953041
1.06406
1.12565
0.917498
0.97714
1.09177
1.02355
0.961423
1.07379
1.14527
0.790554
0.952241
0.947131
0.838812
0.834526
0.889862
1.00824
0.912713
1.06953
1.01682
1.0179
0.970359
1.08436
1.13888
1.20763
1.09271
1.01259
1.18177
1.06968
1.14902
1.27422
0.331855
0.368589
0.433988
0.488319
0.633511
0.780693
0.818323
0.357521
0.286844
0.313927
0.378922
0.414492
0.323279
0.360949
0.290032
0.294726
0.297979
0.301416
0.304653
0.312417
0.309185
0.474434
0.367126
0.412477
0.594046
0.67939
0.470018
0.558431
0.297417
0.33477
0.306452
0.341441
0.313052
0.322052
0.352835
0.743609
0.493023
0.594488
0.761328
0.948178
0.581233
0.711887
0.416072
0.324871
0.363481
0.428331
0.482957
0.375335
0.423026
0.30383
0.317083
0.307021
0.321286
0.327856
0.33124
0.318043
0.316444
0.335402
0.319756
0.327412
0.339295
0.343013
0.324062
0.34582
0.360044
0.3292
0.338134
0.389971
0.354741
0.371333
0.327955
0.347397
0.316695
0.332162
0.378538
0.343333
0.365271
0.410412
0.381508
0.389098
0.428968
0.437757
0.403104
0.455528
0.443939
0.498175
0.467753
0.508468
0.47748
0.500745
0.537631
0.336212
0.347822
0.34235
0.361976
0.351828
0.346163
0.33269
0.32816
0.338625
0.336666
0.342281
0.340248
0.354508
0.350477
0.51959
0.523887
0.534481
0.552255
0.563113
0.568302
0.600176
0.545242
0.429225
0.551624
0.708508
0.806518
0.62285
0.693372
0.396513
0.467526
0.447795
0.433241
0.417814
0.473847
0.493015
0.411459
0.493521
0.465449
0.447208
0.425119
0.482684
0.510364
0.348176
0.376224
0.401808
0.39637
0.364836
0.359367
0.383467
0.340243
0.392481
0.39041
0.355614
0.353654
0.36909
0.407102
1.0297
0.620753
0.762875
0.991867
1.39506
0.817912
1.0154
0.548391
0.618813
0.583229
0.630868
0.594503
0.634486
0.674302
0.353162
0.373756
0.357355
0.370187
0.381431
0.387637
0.365258
0.547364
0.550078
0.512124
0.534447
0.622672
0.568913
0.579364
0.516078
0.527739
0.491751
0.523825
0.597279
0.547344
0.567237
0.34947
0.368317
0.353485
0.36837
0.378329
0.384314
0.363556
0.460816
0.453927
0.439361
0.500622
0.5448
0.527749
0.518864
0.48804
0.448879
0.446148
0.512306
0.508823
0.464467
0.531454
0.903196
0.72612
0.83556
1.01887
1.23828
0.835144
0.909708
0.557795
0.630678
0.5892
0.641738
0.604179
0.641039
0.685466
0.38915
0.409972
0.371807
0.385712
0.443968
0.403967
0.424651
0.384017
0.406141
0.368146
0.383984
0.44049
0.400736
0.422818
0.581476
0.672825
0.614106
0.670519
0.617471
0.655333
0.717281
0.661284
0.668121
0.67449
0.712156
0.727154
0.721683
0.778816
0.556804
0.613306
0.65085
0.637543
0.590931
0.57979
0.608372
0.713946
0.690262
0.649244
0.694873
0.818175
0.764907
0.740206
0.668647
0.662056
0.623038
0.679614
0.779857
0.730145
0.72367
0.385108
0.396845
0.395435
0.424271
0.404165
0.402678
0.379073
0.590103
0.567236
0.541121
0.627928
0.571595
0.596474
0.659598
0.468391
0.561456
0.536703
0.503906
0.483286
0.554577
0.579175
0.529829
0.463192
0.481094
0.499187
0.480747
0.551113
0.572664
0.401482
0.441867
0.46199
0.460269
0.421212
0.419703
0.441226
0.707179
0.691744
0.654356
0.699347
0.809279
0.763029
0.745539
0.676401
0.674687
0.633542
0.680591
0.732912
0.720835
0.782966
0.824295
0.708267
0.763672
0.838212
0.775839
0.838859
0.908813
0.729799
0.873712
0.778762
0.896248
0.796687
0.854064
0.960552
0.739475
0.88836
0.799469
0.881429
0.794283
0.860087
0.958802
0.656992
0.622779
0.594368
0.622198
0.728095
0.649749
0.692807
0.778343
0.769258
0.720351
0.843449
0.785895
0.846395
0.914422
0.745189
0.876341
0.880722
0.858905
0.819404
0.799898
0.796295
0.522707
0.520415
0.50017
0.574021
0.625467
0.60005
0.596907
0.635505
0.66734
0.603095
0.626663
0.738596
0.658339
0.698083
0.779394
0.763183
0.717802
0.806819
0.76273
0.835209
0.889638
0.729671
0.855904
0.79323
0.8192
0.768767
0.842303
0.903601
0.951963
0.927169
0.856578
0.929798
1.12701
1.03834
1.00958
0.879071
1.10809
0.980541
0.946299
1.19247
1.0587
1.06581
0.938944
0.836348
0.904459
0.921135
1.12182
0.999721
1.03513
0.651588
0.713597
0.770624
0.765399
0.683733
0.679549
0.730445
0.991645
0.910864
0.842242
0.910639
1.07278
0.977537
0.991588
0.934496
0.927579
0.858115
0.918859
1.09108
0.993429
1.00099
0.859563
0.85332
0.809777
0.89302
1.00578
0.953268
0.946057
1.02411
1.2477
1.28797
1.24816
1.14765
1.11381
1.15073
0.981404
1.11643
1.16396
1.15503
1.05371
1.04574
1.07729
1.24096
1.12202
1.28184
1.34272
1.2098
1.15747
1.06935
1.82491
0.851827
1.28402
1.57259
2.1627
1.17232
1.61789
1.21838
1.39613
1.69831
1.26074
1.90447
2.25538
1.74072
1.1352
1.01524
0.950376
1.05786
0.989831
1.1065
1.1845
0.904773
0.962112
0.840962
0.870309
1.07643
0.941599
0.995408
0.694806
0.850001
0.782202
0.846329
0.760967
0.84829
0.934044
0.816193
0.971374
0.855699
0.993307
0.874628
0.922398
1.0449
1.8669
0.872986
1.24914
1.69173
2.21982
1.20321
1.58333
0.701451
0.864873
0.790323
0.856448
0.765014
0.853161
0.945972
0.707645
0.858392
0.796489
0.864774
0.784427
0.873866
0.953934
1.46667
1.1904
1.31586
1.31623
1.60629
1.44565
1.4671
0.691866
0.781673
0.702124
0.833368
0.924596
0.934459
0.823213
1.22531
1.34877
1.4364
1.33547
1.46676
1.44952
1.56486
1.21608
1.51266
1.35757
1.33011
1.63714
1.47416
1.48223
1.37585
1.41757
1.52451
1.37557
1.6191
1.51596
1.47583
1.39112
1.30518
1.21353
1.32856
1.50963
1.4241
1.41418
0.728609
0.883725
0.821441
0.897882
0.81576
0.910146
0.991738
0.846841
1.00712
0.885358
1.03848
0.912392
0.961731
1.09023
0.856058
0.796579
0.84728
0.906128
0.961907
0.916318
1.02998
0.730172
0.82306
0.831269
0.832858
0.84112
0.962766
0.953939
2.013
0.955243
1.51785
1.65855
2.4093
1.29969
1.86028
0.805423
0.778583
0.727069
0.858835
1.01198
0.95855
0.913356
0.74248
0.928089
0.8352
0.915806
0.805504
0.896902
1.00886
1.04614
1.12507
1.00813
1.12418
1.08252
1.21167
1.25945
0.745909
0.837538
0.846042
0.859177
0.867882
0.988637
0.979524
2.17067
1.02931
1.4076
2.04006
2.60247
1.39815
1.75342
0.77914
0.988679
0.87828
0.974914
0.847056
0.944775
1.0757
1.22536
1.3079
1.33761
1.45294
1.48794
1.4157
1.57878
1.55871
1.39862
1.29229
1.45344
1.72922
1.55828
1.61993
0.725702
0.825012
0.820515
0.957067
0.833347
0.828741
0.717671
0.760316
0.851039
0.878584
1.00679
0.859464
0.887219
0.75204
1.1846
1.3073
1.28984
1.41786
1.43105
1.37792
1.53476
0.747855
0.889908
0.849043
0.900089
0.858939
0.981057
1.02369
0.904415
1.04166
1.12284
1.07674
0.986303
0.945724
1.03285
1.18403
1.37555
1.27733
1.30704
1.53259
1.42916
1.41726
1.41295
1.36654
1.28249
1.36444
1.58114
1.49772
1.44914
0.743491
0.975449
0.892753
0.887517
0.851325
0.846569
0.783479
0.795665
0.930381
0.890165
1.06421
0.939586
0.899106
0.786747
1.33075
1.1506
1.19948
1.38839
1.24888
1.29816
1.44443
0.764288
0.906491
0.864268
0.9297
0.886477
1.00746
1.05171
1.47391
1.54443
1.48011
1.56971
1.64135
1.63645
1.72816
1.31939
1.3528
1.37113
1.43347
1.4514
1.48542
1.56895
0.82178
0.915845
0.924752
0.963204
0.972393
1.09576
1.08601
2.56477
1.20319
1.59731
2.23646
2.63288
1.3053
1.69472
0.800407
0.989589
0.811145
0.900889
1.08795
1.09887
0.890407
1.37636
1.42437
1.49447
1.44854
1.67107
1.59123
1.53397
1.60539
1.59503
1.42419
1.52249
1.87872
1.69548
1.69551
0.778312
1.02529
0.919132
0.947906
0.877399
0.905382
0.819455
1.0682
1.0772
1.01134
1.13115
1.2756
1.1959
1.20598
1.31589
1.23439
1.11287
1.18451
1.39885
1.25511
1.31745
1.25687
1.21546
1.35111
1.19557
1.42346
1.2776
1.32956
1.10737
1.08616
1.03438
1.15786
1.30501
1.24025
1.21633
1.25188
1.19103
1.3249
1.2077
1.41629
1.27061
1.34329
1.12818
1.07264
1.06676
1.19435
1.13564
1.20099
1.27199
2.06472
1.27715
1.46326
2.42371
2.73563
1.78016
1.98842
1.0861
1.31694
1.21563
1.21752
1.12476
1.26027
1.36533
1.45277
1.38484
1.43563
1.54159
1.60176
1.50746
1.68365
0.815395
1.08399
1.00584
0.962724
0.959615
0.918258
0.859825
1.01767
0.897365
0.839046
0.9279
1.18656
1.12606
0.986168
0.974532
1.01765
0.897923
0.961233
1.18093
1.05542
1.08387
0.957245
1.00619
0.888201
0.955514
1.16551
1.04172
1.07726
1.17613
1.40587
1.264
1.2322
1.4723
1.32138
1.37037
0.840855
0.98694
0.943355
1.03687
0.991733
1.11501
1.16026
1.16788
1.09424
1.11925
1.22518
1.17663
1.25304
1.31669
0.966515
1.02436
0.904268
0.983593
1.18894
1.06325
1.10837
0.995602
1.05856
0.933618
1.0248
1.23541
1.10554
1.15451
0.859673
1.04349
0.967885
1.09682
0.999136
1.1115
1.20748
0.986551
1.17849
1.03587
1.24626
1.09725
1.16353
1.31108
0.877515
0.980332
0.989866
1.04175
1.05174
1.18386
1.17329
0.939898
0.955784
0.966537
1.04515
1.05661
1.09243
1.18451
1.08784
1.13596
1.17185
1.27238
1.22812
1.31263
1.37411
1.04263
1.07317
0.947597
1.0088
1.25221
1.12224
1.13604
0.964415
0.974744
0.999755
1.0669
1.09405
1.12338
1.21896
1.45937
1.59513
1.6883
1.73297
1.59584
1.68913
1.82292
1.90927
2.18046
2.71779
2.23309
2.52724
2.14423
2.53701
0.959579
0.95351
0.847783
0.936019
1.17979
1.05009
1.04301
0.986666
1.01691
0.885883
0.976733
1.23376
1.07809
1.11013
1.11066
1.13001
0.997389
1.0628
1.33196
1.19608
1.19591
1.45008
1.30314
1.25027
1.35003
1.56544
1.4049
1.50343
0.899898
1.0599
1.01116
1.12654
1.0746
1.20592
1.25639
2.65514
1.26911
1.8679
1.99218
2.71576
1.34726
1.95972
0.946849
1.10526
0.955651
1.10834
1.26685
1.27778
1.0986
1.48206
1.58625
1.55007
1.66001
1.74083
1.61329
1.81183
1.45278
1.74889
1.76395
1.57978
1.59452
1.71294
1.89134
2.37083
2.76473
2.19856
2.55817
1.94769
2.09116
2.53292
2.00569
2.05819
2.45945
2.34662
1.48161
2.26857
2.36662
1.45454
1.69233
1.67474
1.63784
1.5905
1.55305
1.53919
1.00677
1.21074
1.11743
1.35705
1.22209
1.12802
0.99641
1.08094
1.03497
0.931593
1.02852
1.30572
1.18114
1.1319
1.40609
1.51592
1.60151
1.61364
1.52833
1.64144
1.72821
1.64037
1.76319
1.73063
1.61068
1.58511
1.70304
1.852
0.958629
1.11226
0.967578
1.13075
1.2832
1.29427
1.12082
1.68511
1.77236
1.66689
1.85311
1.74436
1.82851
1.94006
1.05106
1.05782
1.11021
1.1533
1.20844
1.23371
1.33135
2.70555
1.33146
2.03079
1.97723
2.74697
1.41009
2.13429
2.68344
1.40313
1.78387
2.68742
2.70088
1.81024
2.19364
0.988757
1.29835
1.10814
1.28138
1.07751
1.19552
1.40126
1.75143
2.31357
2.18674
2.25266
2.46287
2.36098
1.37975
1.45283
1.74888
1.71118
1.76392
1.59315
1.57934
1.61405
1.26739
1.21535
1.16711
1.30818
1.48075
1.41914
1.3613
0.970417
1.14703
0.979351
1.12176
1.29685
1.30796
1.11196
1.50942
1.79405
1.62086
1.83914
1.66204
1.76462
1.9502
2.74162
1.40591
1.93773
2.29502
2.76346
1.48749
2.03547
1.0116
1.2059
1.02095
1.16201
1.35204
1.36367
1.15185
1.0362
1.1851
1.04559
1.23571
1.37942
1.39118
1.22506
2.32219
1.31042
1.75739
2.24741
2.79261
1.79722
2.31501
1.90373
2.3202
1.87297
2.71867
2.75916
2.17054
2.67372
2.23438
2.46673
2.58597
2.28912
2.80919
2.54424
1.55718
1.49834
1.61827
1.5214
1.63787
1.53949
1.66286
1.77126
1.03256
1.3823
1.30674
1.20801
1.24825
1.1526
1.0898
1.37116
1.63714
1.52746
1.5611
1.46734
1.63857
1.74604
1.47575
1.64826
1.54988
1.58059
1.4962
1.67151
1.76823
1.79525
1.89976
1.72262
1.97518
1.79272
1.88361
2.07664
1.13319
1.35614
1.26925
1.30302
1.21045
1.35414
1.45253
1.40243
1.48646
1.33262
1.49535
1.34042
1.41946
1.58238
2.39187
1.34425
1.72308
2.44386
2.79793
1.83605
2.26339
1.1464
1.32008
1.38068
1.21795
1.28389
1.36236
1.47084
2.58554
1.44565
2.00807
2.38159
2.76412
1.95188
2.69045
1.88792
2.4207
2.01
2.69223
2.72108
2.24398
2.79705
2.45594
1.75077
2.11322
1.91817
1.27726
2.35601
2.31544
1.26158
1.42327
1.48841
1.50116
1.33444
1.34593
1.406
1.29186
1.4555
1.5436
1.51445
1.38427
1.35768
1.4397
1.16994
1.23859
1.09621
1.24268
1.4775
1.33578
1.38776
1.50383
1.6787
1.55431
1.58765
1.48032
1.65255
1.77496
1.13161
1.02958
0.986144
1.15029
1.36204
1.31484
1.19602
1.12448
1.01649
0.973944
1.12751
1.34464
1.29812
1.17209
1.16633
1.04072
0.997709
1.14098
1.37506
1.32834
1.18575
1.55352
1.72547
1.64096
1.79183
1.70491
1.79781
1.89242
1.4504
1.52418
1.36719
1.55717
1.3977
1.46763
1.63426
1.15357
1.36852
1.29146
1.32847
1.24481
1.39111
1.47955
1.20803
1.39587
1.27502
1.46546
1.35091
1.4234
1.54984
1.04799
1.2789
1.292
1.15372
1.16597
1.29471
1.4209
1.13476
1.13871
1.20981
1.24284
1.31824
1.33764
1.44327
1.62043
1.87266
1.97357
1.8989
1.78382
1.71638
1.79706
1.04417
1.29025
1.28576
1.27682
1.1597
1.15165
1.16839
1.46975
1.50933
1.35436
1.40528
1.69755
1.52323
1.56637
1.22606
1.08531
1.04014
1.18181
1.4325
1.38462
1.22818
1.47334
1.69205
1.55633
1.75501
1.61093
1.70136
1.85878
1.20455
1.10862
1.06435
1.25543
1.45853
1.41173
1.30137
1.10821
1.26157
1.11826
1.32871
1.47133
1.48395
1.31718
1.19273
1.40872
1.3351
1.37871
1.29581
1.44644
1.5325
1.07576
1.30572
1.17816
1.33686
1.20739
1.33238
1.46107
2.7546
1.5968
2.52423
2.23129
2.72148
1.68137
2.61073
2.75775
1.4215
2.03771
2.47656
2.76041
1.75259
2.42255
1.08503
1.33555
1.17688
1.41845
1.24356
1.33809
1.5145
2.13713
2.57125
1.93905
2.82245
2.60038
2.38697
2.75695
2.79776
2.10943
2.47243
1.99341
1.30131
2.43693
2.54558
1.72078
2.0054
1.81791
1.9907
1.80349
1.9003
2.10035
1.08784
1.3461
1.31629
1.35191
1.18884
1.22271
1.21548
1.56714
1.75373
1.61911
1.64324
1.52668
1.70661
1.84017
1.14749
1.37339
1.15766
1.29842
1.51203
1.52475
1.28729
1.46035
1.71684
1.62867
1.65733
1.58105
1.76723
1.85408
1.21471
1.32489
1.33701
1.46258
1.47541
1.60417
1.5905
1.43226
1.32952
1.40382
1.48722
1.46812
1.56712
1.63129
2.77561
1.48436
2.22462
2.44808
2.70205
1.81442
2.63786
1.35901
1.58256
1.41983
1.63135
1.46433
1.53081
1.703
2.74943
2.45834
2.63635
2.08111
2.76213
2.81677
2.05067
1.14534
1.42298
1.43397
1.37943
1.29998
1.24778
1.27803
1.39444
1.22433
1.1777
1.31865
1.59358
1.54622
1.36522
1.70082
1.90813
1.75128
1.77076
1.63527
1.83063
1.98742
1.28235
1.18712
1.139
1.35049
1.55478
1.50597
1.39984
1.61797
1.81336
1.73516
1.74866
1.67954
1.88618
1.96403
1.11023
1.37974
1.20325
1.44916
1.25761
1.3526
1.54538
1.09976
1.34488
1.19358
1.43707
1.26959
1.36664
1.53453
1.16714
1.3992
1.26808
1.45865
1.32565
1.44665
1.57663
2.65751
1.74689
2.30116
2.69943
2.53226
1.84617
2.43158
1.25144
1.5011
1.26269
1.40804
1.63896
1.65278
1.39585
1.18048
1.4197
1.27634
1.53273
1.37528
1.47234
1.62881
2.71046
1.54887
1.89621
2.78022
2.60502
2.08508
2.55053
2.22027
2.05961
2.33589
1.30965
1.22959
2.13266
1.46814
1.3986
1.2959
1.17999
1.29575
1.63792
1.51449
1.40843
1.4369
1.39864
1.2467
1.33098
1.68
1.53522
1.47901
1.53341
1.85803
1.62038
1.90938
1.65888
1.75539
2.03244
1.27222
1.4804
1.34065
1.55274
1.42246
1.49426
1.63746
1.24276
1.42498
1.36438
1.5663
1.50392
1.63299
1.69442
2.77623
1.56396
2.1192
2.72957
2.55794
1.90343
2.5369
1.15868
1.44857
1.25626
1.50864
1.30295
1.40125
1.60707
1.78299
2.06454
1.86466
2.17486
1.95988
2.04012
2.27153
1.92227
1.88815
1.96851
2.01806
2.09392
2.06688
2.21454
1.8287
1.87595
1.88994
1.96987
1.98352
2.02751
2.13899
1.76418
1.85751
1.7216
1.76498
2.01304
1.90337
1.85815
1.87656
1.89184
1.74078
1.83054
2.14115
1.98659
1.97084
1.80523
1.74739
1.66045
1.77842
2.04737
1.93336
1.87246
1.52584
1.33953
1.28632
1.43115
1.73068
1.67787
1.48235
1.2591
1.50093
1.36482
1.5808
1.44314
1.56438
1.69781
1.28007
1.46427
1.45568
1.47662
1.46797
1.6724
1.65871
2.68183
1.7579
2.67068
2.70047
1.97762
2.11586
2.75226
2.79989
1.99971
2.24869
2.37106
1.45453
2.81315
2.81363
1.7145
1.72723
1.75082
1.85374
1.88505
1.90035
2.0576
1.45943
1.64531
1.75938
1.69009
1.58109
1.51795
1.62641
1.28671
1.45906
1.47464
1.67923
1.47136
1.48701
1.27574
1.68907
2.07834
1.90217
1.9007
1.75232
1.97347
2.15385
1.29981
1.61665
1.39943
1.66832
1.44
1.53782
1.76544
1.26515
1.50849
1.36782
1.63204
1.47893
1.58147
1.73204
1.39081
1.62269
1.54993
1.62986
1.54302
1.70518
1.79081
1.30048
1.54638
1.53734
1.49825
1.48949
1.6954
1.74418
1.34282
1.50378
1.51632
1.54689
1.55976
1.73895
1.72507
1.46042
1.41933
1.43326
1.57263
1.58702
1.56245
1.7162
1.75081
1.66035
1.6702
1.85849
1.86968
1.7661
1.97723
1.80819
1.70105
1.7372
1.90345
1.9447
1.82226
2.04166
2.02537
1.99856
2.10569
2.12496
2.22845
2.21429
2.36156
1.6623
1.67605
1.56873
1.75417
1.98158
1.8604
1.87545
1.8836
1.82935
1.70509
1.83054
2.16276
1.9523
2.02151
1.91406
1.87502
1.73476
1.84573
2.19878
1.98435
2.03755
1.32205
1.52239
1.48617
1.71765
1.53522
1.49868
1.31075
1.84212
1.91289
1.7311
1.86887
2.19562
1.97855
2.06696
2.11333
2.03151
1.92087
2.00959
2.37346
2.22774
2.13551
1.84636
1.82727
1.73776
1.90356
2.15567
2.02699
2.01228
1.42686
1.41722
1.30629
1.4561
1.71192
1.58045
1.57046
1.53752
1.59677
1.43245
1.51824
1.80844
1.63257
1.68873
1.51164
1.5789
1.41646
1.50958
1.78886
1.6137
1.67946
1.45669
1.61101
1.46954
1.74297
1.87783
1.89307
1.72848
1.36326
1.58568
1.53789
1.62906
1.58141
1.7623
1.81149
1.41802
1.5722
1.58538
1.63423
1.64794
1.82145
1.80682
1.44809
1.4964
1.48074
1.6023
1.63563
1.60392
1.75768
1.3428
1.74117
1.60577
1.56892
1.55719
1.52048
1.3904
1.30705
1.70216
1.54057
1.55629
1.49285
1.50851
1.3536
1.72352
1.69131
1.60665
1.79799
2.02805
1.93072
1.89372
1.79351
1.7531
1.6485
1.80657
2.13055
1.98312
1.93238
1.8381
1.98755
1.7202
1.86969
2.28701
2.00823
2.16646
1.45195
1.60299
1.67156
1.85687
1.61628
1.68534
1.43972
2.00594
1.91863
1.81989
1.97728
2.30938
2.07694
2.18666
1.45883
1.49584
1.35695
1.50944
1.77043