/*--------------------------------*- C++ -*----------------------------------*\
  =========                 |
  \\      /  F ield         | OpenFOAM: The Open Source CFD Toolbox
   \\    /   O peration     | Website:  https://openfoam.org
    \\  /    A nd           | Version:  9
     \\/     M anipulation  |
\*---------------------------------------------------------------------------*/
FoamFile
{
    format      ascii;
    class       volScalarField;
    location    "0.0029";
    object      impulse;
}
// * * * * * * * * * * * * * * * * * * * * * * * * * * * * * * * * * * * * * //

dimensions      [1 -1 -1 0 0 0 0];

internalField   nonuniform List<scalar> 
24205
(
137.5
159.228
150.013
79.657
89.2855
145.629
99.2724
114.04
129.097
112.498
101.494
42.7201
272.941
253.856
245.107
232.254
246.053
211.456
216.841
195.103
197.268
142.678
159.853
142.233
124.571
144.817
291.586
289.108
292.982
267.423
297.362
283.084
288.587
284.691
260.963
268.528
276.356
276.03
282.83
277.466
261.683
260.499
269.321
236.738
270.005
250.819
261.282
251.287
225.059
222.274
239.848
237.885
251.437
238.552
211.551
205.726
227.601
184.579
224.703
188.618
216.937
194.671
169.27
118.958
185.79
161.74
207.467
158.765
177.108
156.983
153.203
142.995
115.707
160.505
119.389
150.111
121.686
141.58
454.924
57.2483
409.858
61.2453
350.874
63.7608
308.891
66.3451
169.353
143.623
137.135
242.202
436.268
134.769
216.069
198.225
60.2779
195.756
134.184
225.096
378.662
126.127
206.761
185.866
63.2523
173.413
121.738
191.459
323.818
110.091
155.823
152.455
66.0362
134.349
374.535
298.769
107.184
132.304
233.034
95.4361
106.002
110.448
65.3664
80.8878
129.687
141.996
53.6021
58.6536
143.082
55.1434
128.39
126.363
140.582
60.8045
62.1474
127.44
138.642
62.5423
118.236
130.889
67.6643
64.4321
121.179
127.627
69.285
94.3214
115.211
69.7403
65.9831
102.818
109.224
67.1209
240.476
100.044
202.219
161.276
142.985
145.134
78.1622
136.124
122.477
307.298
475.418
183.258
138.067
473.825
184.163
306.428
303.242
135.529
450.587
181.369
462.678
182.011
298.962
128.722
58.8165
141.764
58.6222
141.843
55.997
128.483
285.624
438.165
179.933
132.583
293.242
423.709
177.401
277.403
129.661
391.188
170.333
408.051
174.107
269.034
125.066
62.6989
133.748
65.9476
136.258
64.2258
123.388
251.147
372.862
165.84
117.245
260.266
353.939
161.063
241.813
113.323
318.304
151.656
335.622
156.399
231.961
114.45
65.2683
120.113
70.7915
124.098
70.4901
109.452
448.937
445.262
395.432
354.317
477.448
420.118
372.959
604.444
525.787
651.315
490.073
406.056
328.793
345.649
299.963
386.318
339.691
353.757
538.044
376.702
439.543
455.516
209.549
301.18
146.149
104.14
221.073
283.819
139.893
195.231
99.0913
232.583
124.892
259.34
131.814
180.809
84.0356
64.8844
94.6903
59.6927
101.636
63.6279
73.2087
236.452
108.27
130.88
271.21
142.747
209.793
187.89
104.571
46.8905
95.8556
134.352
69.4573
93.102
21.8105
165.363
119.014
194.843
123.575
126.326
167.635
114.766
0.00613181
166.528
45.5219
378.615
371.262
366.024
342.56
334.796
306.082
373.322
299.296
291.829
245.547
230.371
161.585
298.996
267.574
207.217
181.205
305.387
331.204
319.902
381.533
331.266
321.366
307.897
300.858
376.537
325.15
316.296
328.755
318.77
296.665
285.859
321.13
313.028
359.68
291.719
314.335
309.103
278.682
350.96
294.942
298.602
304.62
304.016
271.385
255.541
285.921
292.624
326.925
263.91
276.673
285.766
245.596
317.724
253.534
266.421
266.314
277.246
233.514
206.458
238.333
253.798
276.774
219.903
222.02
241.634
194.718
262.297
190.27
217.514
206.012
231.941
175.036
418.981
404.202
432.341
351.088
447.579
377.647
405.94
386.221
326.665
315.841
340.262
348.359
375.107
348.367
173.13
208.804
198.166
201.665
182.634
201.165
171.965
267.937
300.86
230.612
301.403
231.106
259.893
259.058
199.379
116.073
117.737
165.783
192.669
186.687
171.916
60.832
10.2938
61.3093
5.32389
58.5033
0.452492
30.0693
0.0424107
85.4319
4.1263
6.81333e-05
0.000293012
82.7549
120.764
83.9903
118.722
16.5032
26.0879
17.5081
24.265
84.106
114.613
84.4542
105.849
18.0042
20.1007
83.4342
113.08
68.5372
94.8357
57.4129
64.9138
21.6206
30.6361
65.4289
18.4938
90.2797
33.427
102.042
37.1137
71.5412
61.3258
100.449
35.1539
69.158
97.2346
30.6301
63.8782
60.3945
88.0579
37.429
54.3231
73.9963
27.6365
18.1744
40.1297
48.0137
13.8828
4.13007
17.4247
2.80147
0.259897
5.84487
1.98884
0.27735
0.00401721
52.8423
17.4331
9.90562
42.6535
4.46193
121.835
75.0927
104.367
83.2938
76.0348
104.726
121.073
120.653
83.3129
78.0374
103.065
76.5336
103.673
119.842
22.4345
14.4649
34.5781
16.5377
14.2605
34.372
22.7951
21.8341
16.8976
13.8562
33.5211
14.1048
34.0108
20.9304
117.683
78.8938
102.18
84.4392
118.568
79.8232
101.64
116.687
84.6667
81.642
99.3011
80.8661
100.854
114.951
17.8305
13.375
32.6332
18.3992
19.603
12.625
31.3184
108.27
81.8405
96.6549
80.9799
112.25
81.1935
92.3814
102.784
76.3129
75.9321
76.1546
79.3975
85.8082
95.4444
73.6388
70.3221
63.1847
44.3172
85.8775
62.1836
48.4007
59.5772
31.6028
42.7227
22.0715
52.3637
33.9867
46.2029
77.2278
64.9574
55.8861
95.7324
55.728
102.76
70.9462
49.7598
38.8612
21.3123
19.1037
41.8447
43.3574
23.6179
83.5527
54.4613
61.1192
83.6183
54.3046
69.7896
69.9903
81.7588
52.6562
61.3609
81.0958
51.4979
66.1379
67.5177
74.9993
42.873
54.784
69.5871
37.1106
48.6042
55.7513
37.2842
12.4243
19.8056
24.555
5.71242
7.99285
17.2566
90.9305
65.3038
93.137
64.3319
65.2877
56.2215
84.0854
0.190715
0.067975
0.000949228
0.526565
0.0195549
0.0058892
0.00058893
43.5167
5.41611
6.25656
0.00972782
61.0154
82.4498
53.4764
82.8554
53.8675
69.1054
68.5243
61.1653
78.2115
46.9888
80.053
49.728
64.0305
60.7446
48.6461
49.9868
21.0184
61.1927
29.6673
39.2495
28.3549
11.1875
6.1268
0.855987
13.4744
2.12491
2.71245
0.878672
39.8698
14.6701
14.6165
36.7182
37.0783
29.4996
9.69749
34.7154
0.346727
0.555708
8.64312
31.6397
0.255165
0.39467
24.5679
0.117497
0.165375
2.067
3.17442
0.0342202
0.0410562
0.552966
0.00627137
0.00598962
0.0567692
0.0496474
0.000740932
0.00053813
0.00326986
0.000313211
0.000286279
0.00371219
0.000763086
0.00010524
7.65826e-05
0.000772502
0.000296319
2.48401e-05
1.09961e-05
0.644617
86.0824
55.822
102.196
15.7796
84.3825
121.356
56.2709
30.7817
74.8805
22.0129
110.796
162.503
185.876
160.356
102.152
90.1515
56.2032
9.32446
0.000211995
3.39078
30.9128
1.75429
83.6996
71.2875
21.4878
99.9966
79.7125
68.3047
15.5808
70.7276
61.7461
11.3945
84.908
55.0678
50.3189
3.55162
32.4723
13.106
0.417245
38.6168
2.42888
1.93708
0.00587936
0.0821411
0.0964812
0.0016813
0.580753
0.00427865
0.00169006
0.000582244
0.00575453
31.1124
10.3614
0.219739
0.149245
0.678995
0.0350565
0.0794287
0.00314032
0.000344153
4.0715e-05
2.00405e-06
4.08311e-05
1.9377e-06
1.42292e-05
6.82224e-07
3.04843e-06
1.50554e-07
5.73695e-07
2.05202e-08
9.81241e-08
4.02143e-09
1.18136e-05
5.39748e-07
2.20372e-08
8.30784e-10
1.58909
0.542613
0.0672382
0.000392611
0.108762
4.30839e-05
1.32144e-06
6.17766e-08
2.69765e-09
1.04972e-10
496.228
445.256
446.053
479.824
478.977
445.436
506.929
477.336
470.917
2.06372e-05
1.29641e-05
6.00661e-07
4.25869e-06
2.28171e-07
1.19232e-06
5.98358e-08
2.40288e-07
1.0469e-08
5.91053e-08
2.44254e-09
0.00162047
4.24467e-05
1.14155e-05
4.57794e-06
1.30514e-06
287.637
26.0086
26.1986
87.7141
138.625
44.6434
118.409
63.9924
4.27184
0.644797
0.000327068
267.291
268.47
254.271
239.22
219.478
204.294
151.815
97.7076
38.9031
2.1001
161.738
158.329
102.542
101.886
147.56
119.418
156.059
138.744
115.303
742.236
664.47
948.212
811.598
610.992
770.426
1128.88
1016.42
1093.44
905.955
1173.79
971.997
1048.8
1645.36
1600.25
1710.23
1534.1
1076.98
858.26
869.308
948.436
920.608
998.384
1024.74
1578.95
1397.02
1467.56
1507.56
914.163
822.346
898.649
731.107
970.434
777.163
848.397
1329.77
1317.85
1425
1229.13
951.851
855.993
698.15
575.146
306.404
553.029
889.918
524.509
508.288
733.391
449.385
433.369
605.89
391.762
435.91
935.283
825.025
1084.63
953.328
828.183
1080.4
937.468
818.267
749.361
984.55
817.229
855.034
716.576
942.571
663.488
615.796
804.912
665.433
699.243
589.792
761.531
531.686
516.903
642.411
540.24
566.773
486.675
600.932
258.238
171.34
765.346
685.468
608.056
555.085
687.597
608.119
765.945
1448.33
1674.14
1656.92
1461.46
1182.98
917.691
913.259
1192.2
910.235
922.636
776.892
1019.2
803.099
1050.58
884.101
746.165
540.333
646.812
581.672
667.616
595.707
725.516
1396.44
1528.4
1595.94
1339.63
1141.89
854.998
885.965
1097.26
672.743
625.263
564.978
489.509
702.473
599.458
542.715
1228.59
1462.26
1284.13
1399.3
1011.02
825.286
1054.95
793.956
777.083
774.561
644.857
849.599
679.918
895.613
737.101
639.887
468.777
543.405
495.244
570.651
518.404
608.509
1171.35
1267.71
1335.37
1110.49
964.963
723.684
760.421
915.407
552.249
521.232
473.614
419.512
579.473
501.932
453.22
972.294
1193.08
1043.59
1111.92
804.018
683.19
861.079
640.771
630.017
634.909
542.711
681.144
565.871
720.164
598.465
526.872
406.108
466.22
415.229
484.143
434.022
502.53
902.96
955.849
1031.1
839.235
748.736
561.44
599.607
698.007
723.021
886.695
780.873
819.028
479.634
493.877
395.727
465.26
445.931
541.061
414.67
641.845
606.654
725.075
539.278
174.012
351.795
138.866
123.579
315.219
158.722
235.935
856.853
802.379
737.289
658.331
608.404
846.557
775.759
691.887
623.227
577.299
512.72
487.211
395.207
768.545
661.569
537.62
740.829
511.598
497.799
447.99
434.702
393.294
690.635
643.423
659.837
677.628
692.337
689.686
678.137
681.171
626.582
682.388
657.113
660.673
598.82
636.743
562.61
670.625
564.637
652.606
541.6
573.543
657.872
659.712
660.255
528.25
556.594
618.189
568.489
639.071
642.592
595.127
541.171
600.026
482.738
622.282
523.38
576.156
566.34
464.269
487.071
525.093
503.411
548.652
543.523
508.237
473.58
506.286
422.432
525.141
460.088
489.837
492.066
409.324
427.407
455.117
445.798
473.583
472.197
18.3245
0.000903634
0.00510491
4.05025e-05
0.000118479
57.1491
4.47445
38.7479
1.78629
0.522883
0.112304
0.000885977
3.39837e-05
0.000130917
6.56399e-06
0.000684483
1.77587e-05
0.000104134
497.985
1125.09
148.706
92.5163
13.5842
3.12786
0.133084
0.000903626
0.000114476
472.45
1020.35
157.311
93.0658
12.0466
1.24956
0.00186572
0.000420738
5.20844e-05
394.932
825.137
154.756
87.827
6.90104
0.0873808
7.27863e-05
2.71649e-05
1.83136e-05
313.389
639.759
153.144
65.3449
0.968404
0.00537856
0.000404263
5.87508e-06
2.66874e-06
124.761
338.216
113.152
88.1991
0.0894069
7.3204
5.77381e-05
0.000439265
32.5622
147.476
0.0804581
54.3333
0.000126719
0.0021569
983.849
929.362
952.608
834.508
1004.44
272.815
490.652
952.296
267.397
1059.08
1054.71
986.774
136.343
151.74
138.038
18.6015
69.3575
25.9459
92.806
18.6435
68.5343
22.9797
1.74236
11.877
1.00175
12.7126
1.24748
9.64329
0.359058
882.496
788.809
925.062
261.875
446.706
802.042
254.187
879.133
139.137
158.08
138.822
18.517
65.4088
20.9424
91.8851
16.8592
53.2069
11.8183
0.988509
8.22033
0.197973
8.51193
0.321953
3.17938
0.038764
702.55
633.37
561.49
753.328
383.984
356.831
623.24
351.719
681.907
658.513
136.147
149.602
128.875
15.6116
38.0202
8.20897
77.0545
8.407
17.2864
0.856906
0.186522
1.83259
0.00784664
2.03068
0.0181326
0.130856
0.00165455
529.95
532.893
434.235
413.918
585.257
314.951
258.915
435.206
170.349
623.014
478.184
470.028
120.981
133.369
54.5868
5.29804
2.08471
0.254382
6.12667
0.783558
0.061063
0.00508019
0.00759412
0.0383189
0.000950917
0.694715
0.894696
0.00433851
0.00660693
83.7738
44.8454
24.8981
57.3648
109.58
0.99515
12.2095
81.479
27.8396
29.1958
120.426
118.94
16.2585
48.0131
249.132
81.7856
239.619
76.7275
204.84
44.5014
152.469
0.0487561
34.8858
0.0241003
286.687
287.248
241.122
207.362
154.5
248.297
242.651
204.658
155.002
287.202
273.548
241.79
172.681
153.529
223.646
233.24
184.048
150.406
258.283
238.156
213.621
148.351
144.988
182.354
195.791
148.109
134.609
210.015
171.802
170.156
92.0861
125.255
106.53
130.546
12.3175
51.4671
1310.28
1165.4
1267.47
1112.45
1155.57
1254.26
1323.4
150.052
176.185
176.535
55.6733
79.0973
79.5496
54.4293
7.3569
6.67234
17.8591
13.3955
6.47929
17.56
7.59385
1162.5
1044.78
1168.34
980.662
1204.94
1000.7
1132.58
182.156
158.346
182.712
71.44
87.9245
67.7111
90.6724
4.61051
5.07441
15.2808
11.1174
5.55513
4.32777
13.8598
943.31
844.494
978.327
774.225
1002.86
795.449
918.034
152.419
177.05
173.688
80.3336
93.5648
78.2845
93.6188
0.955636
1.85894
7.75082
5.18542
1.65357
1.16437
5.37783
713.824
661.414
743.195
597.288
769.532
618.314
687.973
134.36
160.266
141.238
85.9988
93.5389
85.8534
92.4634
0.030137
0.128597
0.65708
0.387659
0.0823196
0.0547547
0.229353
85.6665
233.98
145.5
302.477
153.684
195.865
143.2
324.967
170.158
279.425
211.016
211.901
156.079
182.29
101.676
89.4684
66.5879
136.899
67.4282
139.715
99.4693
0.000273656
0.00193417
2.40193
5.931
0.00692157
1.54296
0.000703792
10.5041
0.00930237
0.167614
2.44124
3.47463
0.00181902
0.00373857
925.457
851.966
1114.02
994.367
845.161
1103.86
933.239
271.021
452.415
450.328
731.289
242.436
239.816
740.558
1375.45
1724.25
1697.76
1394.58
909.898
974.306
812.835
1062.96
831.32
1083.93
890.439
444.683
264.488
438.194
712.222
229.235
234.288
690.334
1335.52
1591.65
1645.3
1290.01
1282.36
1135.36
1206.56
1057.88
1129.66
1199.49
1292.8
1982.32
1956.06
1922.84
2015.8
1932.69
1838.44
1816.44
1960.77
1277.24
1085.18
1085.88
1198.34
1122.87
1227
1242.28
1248.11
1023.46
1057.54
1131.62
1095.34
1166.2
1212.63
1908.48
1789.09
1857.04
1829.3
1860.87
1672.41
1748.43
1781.13
137.708
147.067
148.843
77.8774
93.7823
95.2144
75.7177
177.352
154.871
179.821
58.2723
84.2654
80.9343
62.9532
149.946
138.953
151.921
80.7602
99.9079
97.011
85.3864
44.4109
20.5837
31.878
18.5444
20.8106
31.6795
44.3472
44.5582
18.6274
22.3847
30.9022
21.4805
31.4065
44.6956
2.08014
2.31058
1.57671
1.64745
2.19708
1.48651
2.19682
6.95067
13.1457
5.69486
16.3497
6.16443
17.0916
6.34822
1.86885
1.47616
1.71675
1.09787
1.99398
1.31961
1.58365
840.869
788.771
1040.11
891.132
867.649
760.13
1010.33
430.739
258.555
421.743
648.652
225.035
669.522
221.002
1209.22
1547.57
1249.41
1501.19
809.929
850.05
691.008
925.658
728.186
972.076
774.172
410.913
398.158
248.697
626.394
211.276
216.671
601.771
1166.78
1390.87
1450.15
1119.15
1699.68
1733.37
1762.42
1678.19
1112.18
932.585
896.227
1034.82
949.882
1087.01
1059.3
1635.41
1552.29
1619.51
1564.81
152.996
139.147
153.373
92.3139
102.109
89.3387
103.948
181.638
156.74
179.666
74.1165
93.2348
92.3657
76.286
137.926
153.123
152.135
94.4167
106.137
105.317
95.9406
44.2471
23.2992
30.0625
18.2145
44.6238
24.2407
28.7935
43.4289
17.6881
25.8675
24.6005
25.1387
27.0039
42.0147
0.935563
1.3923
0.852284
0.732469
1.25902
1.0598
0.615016
3.58254
9.93206
2.66176
10.0409
3.50437
12.1024
2.5623
0.649765
0.505204
0.505324
0.250922
0.756308
0.410564
0.421903
691.437
651.464
874.45
706.264
734.064
613.058
820.063
368.504
242.274
234.932
543.045
204.412
574.002
196.17
994.741
1317.34
1061.86
1229.07
648.754
662.692
543.775
714.129
577.321
765.801
606.879
333.89
226.742
218.027
510.382
178.021
187.211
477.074
922.766
1040.08
1134.04
850.654
1384.23
1470.62
1481.51
1372.48
883.409
726.201
703.91
799.032
747.887
857.091
825.439
858.453
693.691
693.027
753.155
733.655
799.506
805.325
1280.2
1162.73
1266.81
1177.71
1230.34
1054.04
1139.28
1134.5
133.26
150.379
147.818
98.0901
106.38
97.1269
105.913
169.878
165.565
146.078
82.4326
93.6975
93.6429
84.4292
122.436
144.097
138.818
98.6718
101.61
104.501
98.5186
36.4155
26.2438
21.4819
13.8072
39.7884
26.0583
17.5862
31.5199
11.364
22.4575
8.44832
24.9612
13.0922
24.9868
0.137356
0.31416
0.138503
0.0970367
0.253505
0.178959
0.0679977
0.489912
3.49619
0.309563
1.58848
0.641871
3.21473
0.218194
0.0655744
0.0445489
0.0397471
0.0111758
0.0903349
0.0293197
0.027007
523.375
510.38
664.828
545.38
565.68
474.326
615.376
294.134
198.007
208.684
409.464
169.09
443.576
160.072
713.787
951.635
781.141
867.818
470.284
495.741
379.132
475.097
430.412
552.565
405.926
240.342
268.799
184.841
367.57
137.145
148.761
318.42
632.155
640.006
764.854
532.467
701.048
653.684
707.488
584.078
753.426
612.341
660.009
989.939
1064.33
1081.4
971.039
960.936
975.169
1045.67
898.746
642.009
544.513
496.041
530.2
564.403
617.873
551.084
631.514
533.706
492.668
510.272
559.714
594.381
542.135
873.029
717.004
855.271
732.236
848.947
665.09
794.534
711.796
98.7269
112.979
131.404
92.5848
95.9623
96.8421
85.4836
144.122
112.633
125.015
84.8752
89.5512
90.4282
83.6411
87.3991
106.573
78.2502
84.9459
49.1383
68.7731
74.4905
9.64075
18.3831
4.41748
2.68966
17.3033
13.0731
1.77764
3.87496
1.14351
3.3452
0.289411
7.56144
0.570109
1.15235
0.00651959
0.0159853
0.00438673
0.0100666
0.00999738
0.0121207
0.00542104
0.0386443
0.183419
0.795173
0.248992
0.0834796
0.0873396
0.294923
0.0396607
0.0901109
0.87361
0.361376
0.0844276
0.0437511
0.337771
89.7386
81.9439
66.1598
128.252
67.2442
120.267
94.7315
55.9404
50.5402
22.9408
28.4441
49.249
62.0864
23.3001
100.593
86.6556
64.0833
130.468
66.633
137.081
96.7121
69.5255
52.5702
29.9225
32.6816
54.0675
66.853
35.1862
69.2565
51.9796
30.2759
33.977
53.8963
66.6085
35.3908
4.09104
2.24803
0.000432033
2.67139
0.00252626
0.000181585
0.609498
0.000241878
2.25225e-05
0.0301789
0.000547766
7.18394e-06
75.5744
9.67502
0.000492163
52.2091
0.00228536
5.88237
3.19421
4.99294
3.23588
1.00985
18.3885
3.6131
11.5133
17.5954
0.0300824
15.5659
0.0727792
10.4528
0.00435683
6.33285
7.0331
0.00154709
1.05859
0.855695
1.17571
0.00711352
0.117098
27.1277
110.9
39.2906
11.0061
9.05437
4.32559
3.91346
8.80956
4.12009
11.3351
7.21353
7.17584
2.60689
2.09249
8.55443
6.2393
1.94642
1.51132
2.86295
0.484435
0.334577
2.66462
1.82475
0.252066
0.0534683
0.215829
0.0181057
0.019454
0.130202
0.0989245
0.0107043
83.9346
69.6625
60.7352
121.712
56.8976
112.074
91.0557
4.6152
0.166597
0.0822073
2.62881
1.87381
0.00359275
0.0130571
10.453
3.61513
7.91832
3.23363
8.45018
3.75231
9.64342
5.69275
1.51921
4.0101
0.843149
5.16069
1.34009
4.12093
15.6003
18.5823
10.2104
26.8291
11.577
29.4347
12.9458
6.88639
8.534
23.3437
16.0075
9.96407
6.58512
18.9766
0.755978
0.165278
0.494574
0.0472716
1.01101
0.11608
0.332312
4.10386
13.5857
2.69095
8.80687
4.52351
13.9369
2.05531
0.339495
1.38496
4.55628
3.95882
0.876014
0.625505
1.93269
0.0549963
0.0931112
0.757348
0.357367
0.107414
0.0466533
0.319563
0.153649
1.93704
0.701055
0.44326
0.320046
0.767717
0.294525
55.9117
48.908
24.1623
31.3769
44.8085
62.0877
27.6833
367.542
136.918
183.186
316.93
166.246
233.579
263.224
410.53
173.518
200.18
422.41
205.431
299.9
290.209
189.108
385.282
154.197
166.772
411.207
200.697
294.887
92.8252
111.424
112.245
69.5559
76.2994
77.1158
69.3042
2.43257
33.0133
31.3494
15.7527
0.157907
12.7262
0.0902621
0.00313491
0.00235124
0.101729
5.59743
0.0379033
3.96951
0.0219011
92.7027
112.787
112.618
70.5274
80.5364
70.5338
81.5269
21.3164
0.419038
31.0596
10.7838
0.0609174
3.93977
0.0103901
0.0512963
0.000859342
0.00920517
3.05919
0.0144196
0.768844
0.00309498
83.6886
109.577
106.672
64.1758
82.2515
67.4019
81.0198
3.37376
0.00296945
3.53181
2.14421
0.00468846
0.118206
0.000507362
0.000744168
0.000306344
0.00236662
0.382936
0.00137018
0.0195781
0.000404814
35.9332
52.8362
82.5919
25.6417
64.7278
39.0566
51.4542
0.000132127
0.000790937
0.194529
0.032509
0.00028315
0.000816778
7.56351e-05
2.62945e-05
1.80632e-05
0.000182032
0.00475922
8.03561e-05
0.000422882
2.88321e-05
126.939
80.3543
98.6784
88.5281
112
90.2637
120.812
8.44592
0.914006
8.97298
1.13192
10.3892
1.34076
1.07072
3.69498
91.4943
44.4936
133.616
104.727
70.6904
9.14308
108.236
45.9835
94.6824
143.448
116.079
80.3425
13.9062
0.000401658
6.86001
0.0145745
74.2654
3.04047
0.105135
0.00364676
6.99602
26.8746
0.0182058
84.2746
4.8627
0.685263
0.00645736
112.272
93.1646
112.821
69.8247
79.4536
78.0212
70.3198
90.373
112.189
111.289
70.1542
82.5751
82.2656
69.2109
66.9194
101.993
94.5301
58.7551
73.4557
78.4013
50.436
24.7415
44.818
18.8569
12.7211
19.4802
35.2587
4.06594
15.868
32.6671
65.7264
52.0273
30.6436
62.4758
20.0218
80.6642
111.797
111.518
157.505
90.6253
155.383
87.1375
62.3139
110.429
107.5
149.815
79.0319
140.594
64.5808
18.044
101.149
87.0288
126.32
42.759
103.194
16.32
5.2857
1.41353
68.3841
61.945
1.12115
2.19236
0.00212772
0.253319
71.6216
33.4403
42.0344
1.11426
0.41421
0.00209475
0.000219954
0.000486287
1.20554
0.203178
0.000377455
0.000515859
8.03497e-05
161.622
208.531
156.376
250.238
157.939
205.89
179.268
1.16337
9.51669
8.35965
0.992303
3.48932
0.329906
0.221498
5.364
0.689234
6.83346
0.638171
4.68918
0.470754
0.74073
1.51478
1.29872
8.69272
8.85426
1.25957
10.7988
1.48331
0.00553234
0.00355102
1.77398
5.60381
0.161616
4.5222
0.118843
0.95874
0.00116903
0.34321
2.51841
0.0546585
0.881379
0.0160368
0.00177004
0.000801838
0.00626439
0.189585
0.00319676
0.0247168
0.000589032
4.09068e-05
6.33632e-05
0.000593723
0.0185592
0.000216439
0.00186297
9.73627e-05
1.43562
1.24391
8.08976
7.02328
1.07262
8.27197
1.21707
7.50762
7.09212
1.16334
5.78682
0.654595
4.55251
0.848623
6.50486
0.91409
0.6012
0.00111857
1036.38
893.957
637.936
500.151
308.277
165.619
1287.98
373.794
954.396
1162.04
381.554
898.708
925.387
1029.84
277.383
872.385
874.707
280.134
747.818
704.668
670.479
273.045
700.678
599.841
258.476
583.911
574.331
538.204
518.532
228.284
549.535
184.567
410.688
508.792
392.734
93.2128
320.49
329.418
306.324
309.954
281.566
286.456
308.734
298.093
283.082
269.241
278.561
249.947
237.605
193.963
213.006
177.073
1314.64
1074.68
1068.28
1216.3
1052.49
1044.19
1236.79
377.537
240.387
247.799
358.14
513.606
514.767
353.251
1228.43
1028.4
980.443
1172.9
978.306
1013.56
1126.43
257.345
269.315
385.035
363.102
512.556
514.112
370.776
1101.93
871.101
930.752
1027.01
941.368
1080.91
893.701
280.647
384.995
381.206
370.833
506.005
373.693
494.152
950.73
752.518
807.742
961.558
779.583
837.007
893.063
277.358
374.278
365.453
362.545
460.799
478.908
350.68
762.314
811.852
708.148
774.751
729.372
828.194
687.15
267.027
355.235
343.236
322.323
440.915
336.896
420.28
635.149
674.467
717.62
728.758
612.393
649.362
683.811
245.739
329.56
313.499
307.131
378.626
399.856
289.488
561.838
575.585
627.942
584.006
573.91
636.36
530.563
207.253
294.263
272.531
242.278
354.882
267.947
327.77
163.256
250.062
228.347
213.705
267.846
297.558
188.075
324.821
251.279
257.336
264.917
275.016
334.634
285.324
337.795
337.999
285.681
335.321
330.376
278.059
323.387
313.928
255.759
301.492
285.895
216.177
266.928
246.041
169.11
226.458
207.029
247.829
310.998
224.831
891.979
984.545
812.338
945.281
975.641
806.905
900.805
872.227
923.325
922.887
779.728
950.966
794.249
852.532
795.105
893.519
759.559
838.65
827.981
855.1
732.169
751.863
795.879
755.129
656.748
807.551
697.65
701.371
611.644
705.374
615.879
657.148
653.203
661.875
579.214
576.578
619.062
587.827
516.952
623.479
547.118
542.766
466.04
551.741
485.688
511.602
506.496
511.272
450.181
420.098
465.649
405.945
361.628
463.385
408.785
82.5782
147.465
0.000294442
2.3497e-05
4.32091e-06
0.000503412
2.71339e-05
0.000127273
8.71544e-06
2.8414e-05
0.0015909
4.83077e-05
0.000805169
3.79235e-05
0.00022257
1.70714e-05
1.55616e-05
0.000168671
0.00156907
0.000476975
0.275642
0.00025243
3.93414e-05
0.000853894
0.827683
0.000365792
0.000125898
0.470727
0.000517482
8.18043e-05
3.47888e-05
0.00171623
5.96287e-05
0.000939817
6.31765e-05
0.00034045
2.64452e-05
0.00136464
0.114903
0.000603374
0.000168339
0.049266
0.000881011
0.000135893
9.04939e-07
1.50651e-06
2.36081e-06
1.92769e-05
2.60278e-05
3.67401e-06
7.14275e-06
5.20515e-06
1.80284e-05
1.70968e-06
2.33427e-06
2.58299e-05
1.50324e-05
1.68497e-06
8.31202e-07
1.14196e-05
6.19095e-06
6.67021e-07
3.4421e-07
2.74004e-06
1.75178e-06
1.18367e-07
7.14737e-08
4.8826e-07
1.28922e-07
1.82186e-08
5.23276e-09
3.34771e-08
4.48531e-08
1.156e-09
1.25806e-09
2.35549e-05
1.2341e-06
9.13978e-06
5.0742e-07
2.36903e-06
1.13488e-07
3.06661e-07
1.1801e-08
7.95112e-08
2.53187e-09
1.01964e-06
3.61689e-08
1.06113e-09
2.06415e-06
9.87724e-08
3.91629e-09
1.31254e-10
2.20217e-07
4.91489e-07
6.72466e-09
1.87108e-08
1.87188e-10
5.66273e-10
4.76324e-07
1.23381e-06
1.93126e-08
5.78729e-08
6.98163e-10
2.29552e-09
2.27012e-11
7.69378e-11
1.31985e-07
80.8684
171.131
115.915
412.643
409.638
285.81
179.796
349.928
191.625
238.113
148.078
211.249
97.7412
113.384
168.736
123.936
191.607
189.837
134.152
469.019
454.062
517.882
524.503
418.555
479.96
455.787
278.81
314.92
318.351
229.513
164.823
53.8016
113.221
187.875
139.131
168.074
93.2758
368.261
335.887
298.34
250.538
246.05
337.466
301.39
281.403
183.169
217.288
194.954
207.955
251.235
205.698
223.964
251.222
337.781
310.862
293.331
298.79
283.772
261.395
167.565
127.46
157.533
159.241
188.847
163.594
132.325
48.3032
271.585
222.429
569.692
689.42
697.059
655.643
606.717
583.09
552.799
524.521
509.965
691.628
619.545
623.698
641.358
686.132
652.271
639.679
617.82
623.264
580.401
599.232
599.099
617.121
578.375
548.104
567.762
563.773
543.692
599.014
560.577
581.549
507.554
534.248
530.425
526.795
537.83
504.876
764.073
731.758
733.112
752.628
764.194
720.476
708.594
702.193
669.173
636.867
640.916
674.199
707.43
675.101
764.218
731.215
710.62
756.802
737.551
701.86
717.125
871.909
812.336
802.601
805.141
818.486
871.524
884.959
630.158
607.59
633.453
608.887
609.502
587.014
587.858
79.2245
70.9207
64.6745
110.552
83.3134
113.525
77.9955
108.672
92.2481
101.954
0.000961473
0.000451635
2.1906e-05
3.39608e-06
294.291
308.149
311.407
290.672
297.724
315.962
313.624
302.008
305.729
317.187
304.569
316.844
305.089
309.453
314.324
302.808
292.091
302.209
298.745
292.411
281.503
262.545
279.377
265.219
217.255
241.975
243.144
219.551
188.356
175.133
198.289
152.124
6.12725e-07
1.97841e-05
1.27319e-06
8.88838e-06
5.07883e-07
2.0217e-06
8.02004e-08
3.15791e-07
1.2209e-08
2.79e-08
1.05503e-09
8.03884e-08
3.28547e-09
1.15224e-10
6.34663e-09
2.66565e-10
9.65059e-12
152.155
139.863
130.391
0.109541
0.000962603
0.00235406
0.000263804
0.000199024
2.52977e-05
0.000134492
1.49709e-06
6.36674e-06
3.03715e-07
2.20642e-06
9.70909e-08
4.37383e-07
2.04002e-08
6.83963e-08
2.91022e-09
777.378
851.667
820.277
804.704
860.728
782.374
830.518
693.39
777.196
709.585
728.953
750.701
795.748
751.12
586.625
567.349
565.748
586.107
568.071
550.331
552.617
631.672
639.668
669.532
659.999
689.928
707.048
673.18
780.645
792.918
853.934
752.336
760.204
729.174
716.548
943.068
959.626
1040.97
955.647
965.581
1034.03
1032.68
997.626
946.234
884.055
931.508
893.312
995.501
953.06
586.113
590.974
614.786
606.481
632.703
644.039
616.106
825.767
753.42
796.682
738.186
714.71
698.504
716.628
844.369
856.947
935.363
912.355
921.813
995.062
996.892
837.123
785.3
836.131
856.023
808.822
913.353
863.302
644.838
727.14
769.201
734.286
692.218
662.35
675.82
741.257
737.111
781.967
761.04
719.646
808.651
757.625
654.089
611.46
584.898
695.436
660.261
628.442
598.801
902.455
892.479
808.637
870.18
860.776
927.766
962.219
986.665
1042.16
1027.98
1020.83
1032.06
1040.79
1036.97
512.331
512.079
524.547
547.729
546.725
533.412
534.735
780.807
839.566
830.124
787.698
851.54
894.369
800.354
699.94
741.455
701.704
758.634
804.153
756.714
715.691
670.616
663.442
698.621
683.132
649.097
714.236
676.275
599.302
564.108
545.062
606.582
631.85
575.005
554.219
915.914
967.763
988.56
1003.49
952.756
970.622
1003.67
544.021
563.563
568.563
552.641
580.869
590.21
562.823
278.603
279.805
240.955
146.038
286.431
285.013
281.276
282.321
264.482
258.346
254.632
201.614
213.151
173.722
314.15
306.146
300.301
286.946
305.853
301.934
312.923
314.267
286.115
302.815
302.189
304.556
302.161
314.205
310.529
299.509
300.754
278.031
312.87
295.071
298.078
306.86
272.109
282.314
288.12
289.408
293.95
301.731
285.049
272.966
280.302
241.52
294.853
259.867
269.634
270.519
224.118
215.043
235.591
241.129
254.897
249.683
189.061
180.67
211.762
142.258
221.844
141.193
185.263
87.0154
99.2925
152.456
111.888
69.5178
131.606
102.556
158.954
111.306
213.83
107.761
61.9313
0.0326247
5.32878e-06
4.32172e-07
2.41438e-08
197.808
181.998
123.839
65.8174
19.311
141.483
194.088
137.843
125.664
166.89
100.427
90.407
100.497
46.7686
29.5042
31.2849
5.15812
0.583482
2.34075
16.6772
120.351
112.677
117.764
108.73
107.091
87.0934
102.342
73.8583
78.6099
52.0581
86.0166
10.2924
50.3173
0.50632
16.4073
0.0236562
0.00776203
0.0669325
2.98595
0.534299
0.163357
4.60226e-05
4.27708e-06
2.39954e-07
1.1803e-08
4.89495e-10
0.594781
5.45997e-05
2.10322e-06
0.00335135
3.62963e-06
1.94534e-07
3.43653e-05
6.60327e-07
2.87288e-08
0.000762192
1.01702e-05
4.4362e-07
15.4823
3.73864e-05
1.83623e-06
9.63349e-05
2.16869e-06
1.31193e-07
6.43681e-09
2.76503e-10
1.0298e-11
1.29243e-06
1.07508e-07
6.70047e-09
3.51788e-10
1.63567e-11
6.11908e-13
5.34544e-08
4.54687e-09
2.99808e-10
1.67862e-11
7.82408e-13
1.27329e-14
5.78208e-06
1.28833e-05
4.94798e-07
1.26771e-06
2.63068e-08
7.65566e-08
1.20584e-09
3.74932e-09
5.01364e-11
1.60694e-10
1.78843e-12
5.92336e-12
2.8694e-07
7.0302e-07
2.19766e-08
6.17273e-08
1.30521e-09
3.87082e-09
6.6434e-11
2.0303e-10
2.97223e-12
9.37228e-12
9.03431e-14
3.39545e-13
1.12419e-08
2.99375e-08
9.19115e-10
2.60747e-09
5.87542e-11
1.72439e-10
3.15558e-12
9.60414e-12
1.21387e-13
4.30737e-13
0
3.39545e-15
1.57527e-06
1.27636e-07
7.64863e-09
7.6575e-08
6.15346e-09
3.82009e-10
3.2035e-09
2.58904e-10
1.66039e-11
2.72681
0.000142968
0.000551543
1.64707e-05
2.07589e-06
5.92349e-06
1.18891e-06
9.19413e-08
2.37335e-07
0.17892
2.92741e-05
6.21621e-07
48.5709
0.000124507
4.49257e-06
59.1495
0.0028995
7.32956e-06
3.84201e-10
1.69611e-11
6.11423e-13
2.00373e-11
8.92396e-13
1.75836e-14
8.67294e-13
1.92813e-14
0
0.000269413
9.03061e-06
4.24454e-07
13.8219
3.91629e-05
1.94213e-06
5.34861e-05
1.68007e-06
9.32549e-08
4.67783e-09
2.18023e-10
8.83677e-12
1.1393e-06
8.47347e-08
5.18461e-09
2.82566e-10
1.38492e-11
5.38178e-13
4.69011e-08
3.75767e-09
2.48626e-10
1.42969e-11
6.80302e-13
1.05501e-14
4.09468e-05
9.08103e-06
6.71926e-07
3.28753e-08
1.53761e-09
6.31992e-11
1.10718e-05
9.52703e-07
5.12739e-08
2.66249e-09
1.28671e-10
5.37839e-12
6.96251e-07
4.85646e-08
2.99796e-09
1.66247e-10
8.28574e-12
3.18808e-13
2.83779e-08
2.22684e-09
1.47323e-10
8.45745e-12
3.91568e-13
2.54659e-15
454.376
430.115
432.56
331.308
332.69
338.684
340.776
636.648