/*--------------------------------*- C++ -*----------------------------------*\
  =========                 |
  \\      /  F ield         | OpenFOAM: The Open Source CFD Toolbox
   \\    /   O peration     | Website:  https://openfoam.org
    \\  /    A nd           | Version:  9
     \\/     M anipulation  |
\*---------------------------------------------------------------------------*/
FoamFile
{
    format      ascii;
    class       volScalarField;
    location    "0.0029";
    object      p;
}
// * * * * * * * * * * * * * * * * * * * * * * * * * * * * * * * * * * * * * //

dimensions      [1 -1 -2 0 0 0 0];

internalField   nonuniform List<scalar> 
24205
(
121674
119753
140349
119690
143749
183175
162916
217570
135466
252667
250206
289983
181104
218431
185129
208425
236954
319253
239783
281585
362526
467233
286703
365993
323976
153339
180505
183641
170832
190651
171482
193799
179978
192058
203032
224281
204668
207638
191122
206279
246331
244487
220916
259055
223981
269662
240083
273976
286000
348224
288748
303167
262344
310074
421052
406604
322811
422423
358739
488409
369609
502260
483578
496418
471554
555851
429247
537140
143423
176755
146937
259508
308865
406693
191481
400637
167081
291932
117254
59220.9
117202
54894.6
130767
51175
168355
71337.1
365349
225098
44656.1
125666
117894
41757.6
146914
135498
56866.4
137002
39242.8
160062
119570
35234.8
170852
138744
50371.2
139086
36337.7
179292
152795
48482.5
177276
147925
63315.4
167154
193129
289242
57100.1
221378
316637
111726
293129
208627
124133
274570
90098.8
87375.4
74321.6
59473.5
87691.3
75012.7
89323.4
89428
82990.1
71649.3
52801.3
88877.1
80976.7
70646.9
104117
82520.9
73112.5
53557.3
98029.8
87040.2
76776.4
161521
114743
103119
82771.8
140524
132609
119922
304747
128029
343367
323368
310170
311306
292924
189194
271065
103232
89085.6
80174.1
44775.6
89524
80322.8
102845
103066
43657.3
88019.7
77058.1
88987.6
79158.6
102744
89649.8
58462.7
85128.3
73017.1
86688.2
74285.2
89142.4
100949
86803.3
73943.6
36955
101939
85897.1
70579.7
100355
35484
87171.1
67094
85683.9
67842
101480
90950.4
51048.3
80132.5
71131.5
79739.4
70376
93777.9
110441
90617.3
68726.5
38793
104744
96228.2
72758.8
118508
42707
115166
88677.9
104263
79285.9
129581
112791
57580.1
102637
91242.1
93676.3
82718.2
124694
180270
178647
161476
215456
158656
201008
182308
167173
147595
147563
167240
204547
246712
268425
247532
229610
209130
238021
187998
229376
191096
221378
165475
128859
101602
68489.3
144299
147615
119978
194858
85487.5
210270
183058
172113
146155
235996
187409
98920.9
185836
172807
155670
143606
214964
227470
112852
217545
211429
199644
255749
271656
283507
290384
281645
249885
281716
273150
249816
287626
180725
253065
237926
252289
298603
270260
101389
185816
292784
147612
156667
163165
188046
198959
246637
249282
357603
271252
396669
408106
220064
370693
393025
259385
216327
150031
145083
149578
148945
146663
151201
148239
153000
151782
154999
159072
149400
154170
158474
174251
162520
165537
170611
165305
171881
173756
184981
178674
193743
195612
182190
183610
198293
233481
207301
210089
211804
214286
223983
227119
257261
227446
272475
269548
245027
246648
288590
381039
307610
298528
305736
329577
352804
337027
445913
350182
451055
428358
405019
383729
497001
293017
302332
216938
276174
263104
337224
242213
329905
312415
421616
319302
376848
276278
372773
345906
408659
420719
393341
419217
376341
369985
418301
366652
398814
395195
389568
389960
390214
159849
236749
252165
177260
145355
187895
164008
92442.8
153743
98258.6
139402
127521
106208
191177
101829
178224
138723
101299
101300
87654.6
122242
90814.1
121991
92906.3
153197
95946.9
154551
92716.2
123465
106597
138967
98156.7
157210
115078
147845
176926
183530
202674
243397
202392
248104
132418
187941
283101
250794
123243
151896
149384
96002
124010
154738
154887
129472
161696
168976
115109
154671
156737
189768
192400
172219
199434
181967
235901
172134
148242
219709
130236
104957
149171
126113
104357
101346
282037
193157
193220
259175
151889
90553.9
80741.9
92319.4
89142.1
81866.1
93838.1
89419.3
90588.1
89661
81360.6
95346.3
81672.2
94348.4
90852.8
131930
114411
117034
93548.7
114846
117959
131370
133048
94427.5
116985
122170
115697
119570
134787
94189
81500.4
97136.1
96025.5
91794.5
82871.4
100580
98063.7
100582
89923.2
112039
85689.9
105402
103614
139219
118711
125632
101298
136902
120792
130270
120442
95555.3
121457
128485
110878
103227
135331
133167
149091
128261
185210
113926
156279
150362
201692
148258
212114
215062
173579
174901
223942
221424
214531
213307
210520
199498
223527
230566
214289
114970
170353
207221
154045
194507
221065
228180
203198
191006
198611
196425
226834
206093
98441.2
107677
93777.9
99902.8
108750
110169
108878
104376
117082
102075
108503
122953
126054
119307
137744
154994
145029
158897
167802
181886
165035
209882
174042
188739
208092
149236
168957
195680
222313
207795
233350
231805
235198
247581
250397
103907
102063
101303
108285
101588
101380
101302
275808
164845
174999
101445
94483.6
102077
113213
100629
110375
111889
114960
107313
123574
142353
114518
131258
135747
148932
165104
201758
183155
183293
178535
195858
202184
171924
156800
110072
189940
122692
131043
111163
221156
193847
192181
228643
228087
229218
179186
187224
104639
107197
150061
189154
103812
105571
191500
102521
103220
120723
134180
101683
101817
108246
101372
101378
101997
102000
101302
101301
101340
101300
101300
101344
101304
101299
101299
101303
101300
101298
101298
110970
282178
271366
211663
232443
255702
197822
276454
258451
286015
251085
241899
175406
141274
147531
152996
168815
247866
194329
101300
147773
256903
126789
193206
165043
214596
153748
200050
170812
205002
219150
185566
193349
179910
245379
206682
146378
252875
195308
107765
253056
138037
127976
101389
102648
102768
101316
109308
101353
101314
101302
101382
260199
201874
104553
103571
111598
101845
102392
101340
101300
101298
101298
101298
101298
101298
101298
101298
101298
101298
101298
101298
101298
101298
101298
101298
101298
123041
109199
102393
101302
103017
101298
101298
101298
101298
101298
269985
394270
337812
359794
306376
328328
365380
296974
403457
101298
101298
101298
101298
101298
101298
101298
101298
101298
101298
101298
101318
101298
101298
101298
101298
157562
271965
278523
306747
221104
309837
234573
307092
164572
112294
101300
137741
140138
177005
180412
182497
213644
285097
407710
373404
135351
171130
183629
152268
147518
166894
255420
231636
195870
225632
119644
128824
101821
108356
149132
113989
102821
104050
98058.8
102961
101168
105445
99681.3
100290
95958
99411.2
97415.3
104323
104805
110425
104520
107173
101485
106579
101036
101392
98758.6
102840
117212
115716
109372
122512
110518
123923
116892
111284
105329
105713
112023
100350
101137
113061
173686
334014
130056
100753
132364
132605
107225
138117
143566
151910
175845
255428
93617.6
106459
92532.2
100936
107147
93269.7
92996
95234
105329
95028.1
101931
94247.5
106186
96533.5
113880
117143
107404
121825
105808
125571
115417
184153
174247
165028
197896
162245
197973
187371
234778
335921
97725.3
117149
107281
130935
117871
107939
97161.9
86115.6
89101.9
89742
85450.3
84065.5
89653
90306.3
83449.2
93590.6
101003
105787
94050.2
106848
93598.9
93476.8
97262.7
131758
116427
106415
117630
107478
96404.8
86536.9
91067.3
90262.4
87236.6
83962
88994
89882.4
83878.5
95885.7
115341
105243
133394
95842.6
115399
104475
89261.7
92085.1
87916.9
93694.4
84954.5
88480
84042.5
88872.6
97015.7
103618
111498
102058
108022
98573.8
100419
97021.1
134870
119621
107501
116580
104900
100103
91302.7
98992.9
95661.4
94818.4
86699.3
93082.9
90141.8
90077.3
113213
125014
112464
151401
105412
133159
119884
107517
103590
99960.6
110987
102975
98023.2
95303.1
105527
125651
134527
153929
144050
137659
127349
141920
124240
161997
159980
144076
144677
130243
139344
118811
138568
122401
134526
114096
130401
116221
129103
174416
158889
154214
179397
206799
223148
260078
234923
224674
208580
236867
193128
218999
196101
221066
174932
200406
98958.6
105528
206918
187149
245735
115952
125695
134087
147553
171546
109953
122750
127882
136630
156790
177334
198426
316575
132890
151334
147359
138994
154565
158889
176280
184789
228146
158167
188647
191231
156078
160332
200529
194497
164587
178376
208142
170435
218884
187644
230669
303896
148297
158350
135919
148719
160224
137118
146489
150566
151064
168901
139783
163231
138191
154919
166248
177376
141587
163977
160419
186331
143834
172447
169521
205466
151415
195477
146771
180313
203222
217522
158307
195765
190301
232460
167905
219470
210192
273582
197270
250865
180875
239078
244538
101309
101377
101298
101299
316463
146016
312487
122620
111663
102931
101312
101298
101299
101298
101303
101298
101299
93215.8
107299
73702.8
100775
127375
133879
102544
101304
101299
100978
112827
76018
108247
130629
116115
101309
101301
101298
123151
124141
79407.1
139635
130232
102516
101299
101298
101298
168197
177095
97044.7
265717
109982
101392
101302
101298
101298
337818
323659
284756
87489.7
102938
163941
101299
101303
296814
233267
102706
319742
101299
101331
108474
105058
111769
113875
109199
52305.1
95587.4
113799
53260.7
99547.2
110917
101014
84172.9
75225.7
86436
110892
148574
167960
103493
113714
152409
170632
112078
153691
108606
129516
109428
151063
104325
118369
127894
116369
53319.9
108359
126532
51030.3
119946
88965
77001.6
95309.2
115375
167538
171660
118372
124415
200883
166194
107969
148423
103094
131898
103832
128686
101702
144566
172116
183527
131344
84727.9
139828
160235
92802
157254
152762
108044
87749.7
130943
129188
224274
157594
186870
137940
217790
112051
102873
119304
101383
116315
101493
103010
101310
241602
206410
317497
310788
177661
113380
220305
250007
132096
174943
250363
254380
177377
155962
311701
133232
132421
104788
182004
110428
102350
101370
101387
101838
101304
108431
108917
101349
101373
92844.6
331195
233152
364477
336184
119401
230269
92137
231190
217579
330705
318625
250572
302490
170724
156232
172589
176343
171729
261601
231724
102186
342663
101755
109079
110867
104271
155735
91442.1
172572
106624
154932
93911.7
115228
121728
107982
150635
96799.3
171415
107233
157214
103901
128592
146289
112045
181147
117893
187476
133217
201591
143633
187368
277097
180875
321323
196465
345671
273734
263827
322016
101312
103777
103050
108087
104472
103660
100979
74950.9
63236.7
64414.7
56996.3
42813.4
43666.6
55812.6
131532
126240
140086
127842
126003
140534
131839
105406
107628
106637
114789
103976
109124
108121
65969.1
76469
65366.5
57682.2
44156.8
57780.1
43317.6
126946
123850
143354
131665
129075
122279
144096
116723
118224
113380
130824
111136
125876
118017
82409.8
61686
62020.5
57132.7
38233.6
56355.2
36988.9
109470
113899
140225
127095
114429
110240
134651
182791
175466
158596
199005
161460
198639
178413
129801
81174.1
109889
85011
45036.3
71997.9
53877.9
101684
102627
108032
105271
102238
101938
103995
376010
361014
268914
331625
83299.2
321573
321144
328326
83921.1
228340
326404
341135
316719
335225
208292
87068.2
133369
162769
128616
162659
213069
101300
101328
140120
158871
101391
126025
101306
184076
101417
103297
138321
144881
101324
101348
104625
109738
103283
110152
111374
103775
103694
52946.8
76405.3
77030.2
77735.5
34057.9
34340.8
77230.7
97011.4
98312.5
98344.8
96789.7
105763
111747
116592
105243
113616
104440
106903
78495.6
53515.5
80005.7
78185.8
34422.1
34456.7
78893
97766.3
98187
98342.2
98111
98527.9
101123
94792.5
100202
101742
95376.1
98145.8
99896
99404.4
99458.6
99654.7
97686
93265.5
93763.3
97322.5
101878
109373
106293
105280
105306
104415
102627
99084.7
100581
103001
96727.6
102365
95936
99812.6
100070
99532.6
99451.3
100324
97928.4
94919.1
94189.3
98626.3
85896
80937
82454.8
75805.2
81734.1
83373.1
74518.3
65131.5
75625.5
65857.6
57235.6
44314.1
44078.7
57588.3
82822.6
87550.3
83496.7
75948.6
84383.3
83624.9
76322.8
110944
88029.8
132006
111613
88525.5
133042
109876
112312
112485
89025.3
136961
88641.3
134650
114568
115795
115890
111606
111578
115352
111094
116426
131106
128580
124926
142323
125626
141324
130371
114644
110671
112975
108867
114379
110152
112959
109979
120141
106503
119303
108319
123991
108094
81377.6
52429.6
82272.6
79946.6
34089.7
79620.1
33218
98789
98131.7
98479.5
98054.5
111695
122497
133738
111329
128284
109501
114018
82717.8
83361.2
49803.2
79954.2
30945.7
31986
80377.7
98683.6
98614.5
97878.6
99172.1
101443
99933.7
100761
100477
106623
116836
113553
110931
110727
109246
108330
101609
101666
100666
102603
84505.5
91502.4
86329.7
77675
85281.5
76816
87003.1
64112.9
77819.7
62647
57203.4
40018.6
41830.3
56570.6
100751
89013.7
92795.6
78857.8
92568.3
89332.6
80446.7
121964
89763.6
140063
117607
117666
91455.8
143958
127612
120555
98594.6
153600
94291.1
148527
134989
108725
111194
107389
106453
110923
109147
105896
123798
132211
117265
143109
120064
144222
119515
106607
105040
105318
103413
107119
104543
104842
121298
140506
114084
137697
116932
148113
119034
87533
49530
50855.1
84151.1
30581.9
81568.9
31271.6
104623
100416
100898
104267
128363
146931
168836
139919
157060
127399
139186
101379
54435.3
60830.8
89072.9
36985
33334.5
97078.2
111288
122036
111152
121833
109482
103717
104961
107780
126669
141556
154375
140219
137667
126405
141762
128091
135158
153588
145050
136288
128461
144137
118127
127783
115542
132196
121341
139057
122990
136772
117680
97919.6
104789
85396.7
97107.6
82452.9
103728
64661.1
70679
96630.2
59583.6
39602.2
37120.4
64274.2
150483
114383
128188
90897.2
130466
113553
100135
157295
104874
158745
134341
144726
113447
161853
170847
137853
138435
152677
124668
160427
180603
102600
103892
102552
102182
103535
102874
101964
105840
122434
104168
115784
106711
125915
103528
101972
101739
101714
101426
102161
101609
101602
170052
184136
155979
197776
153673
202063
173354
127966
83428.8
70476.1
120378
42410.4
108071
49474.2
151487
137027
136155
153088
185875
219479
255829
211300
223439
189658
208577
172144
144527
101640
132181
76042.6
59078.6
151630
163568
181321
164751
181146
187251
175435
166223
199453
164944
199591
188779
170729
144412
151089
162093
177551
159548
156908
180287
201701
221117
251365
217510
221849
196038
224042
206914
223923
253037
232935
223461
209033
229837
185236
191348
174987
202764
192814
216113
195982
211547
233013
181838
148096
140420
160820
115369
212071
121772
210608
163475
110219
93471.7
69245
151479
284554
223960
287339
182413
297396
266368
245069
169473
149807
137275
122513
182493
155781
119702
141602
112990
136498
105084
151045
108367
116821
101380
101484
101351
101412
101421
101443
101362
101772
103452
108849
104220
102226
102444
104563
101751
102181
109160
104910
102172
101772
104842
251841
106682
146865
169876
169262
189624
227137
298326
226345
242420
260608
249695
281146
258305
207514
88677.5
131584
169815
128810
165354
208720
263440
210911
229998
261433
202478
268769
261442
258545
197263
226032
243814
199426
252146
255260
118048
117932
101301
114589
101314
101299
105660
101300
101298
101604
101303
101298
97511
174441
101303
301978
101331
130964
116007
128467
122323
108013
110947
122864
144825
117572
101624
158004
101966
133457
101343
143192
132639
101307
112627
108243
112275
101376
102616
206721
309440
265464
129872
122224
120965
117661
122275
120475
129946
128905
122523
116160
112715
129663
121943
113389
112246
116000
104994
103847
118284
112457
103387
101871
103228
101495
101505
102601
102278
101418
211140
105276
136040
175725
142204
184806
210104
138883
103184
102174
132209
123927
101342
101475
129892
117010
122589
118215
122441
119607
129891
126971
110468
118763
107398
120701
110301
123386
141133
105466
124976
142539
123059
136102
141794
135733
125988
148800
124265
140277
125818
153121
107426
102675
105199
101773
108516
102358
104316
127420
129879
117356
148383
123089
154224
117288
104666
111253
134443
126549
109245
106675
118571
101874
102172
107524
104703
102338
101784
104336
102907
117404
107429
105854
104362
108909
104194
233651
194829
196440
229557
192562
243339
215852
170354
92059.1
156284
175639
172633
219125
209414
177173
87382.7
154274
184906
157765
216708
211419
167948
196310
94792.6
91161.2
191730
162488
222834
102538
92585.2
94338.4
100938
87480.1
88930.5
99581.9
127851
203787
204662
169712
103131
166914
102376
101314
101309
102276
141076
101739
133590
101555
112369
97833.5
100292
109250
90614.6
105815
92543.6
203394
106587
215895
163762
102040
137794
101432
101825
101303
101395
128349
101473
109864
101329
158897
117364
129201
149916
105619
132552
114996
141373
101341
146096
124566
101358
102933
101301
101305
101301
101318
105835
101312
101576
101302
261907
249776
225149
229338
197998
222941
233212
101299
101309
104412
101773
101300
101307
101299
101298
101298
101300
101376
101299
101302
101298
212916
327236
270527
293148
153008
224127
235601
168141
111691
187119
113691
193387
118224
115265
156756
296630
320274
254666
356099
317612
211055
298837
296963
291697
247038
352990
315548
242240
101301
197461
101567
361944
150705
103152
101360
184635
279888
101590
364495
172707
112504
101412
94985.5
105710
96356.1
101777
89881.2
89122.6
103626
127007
103923
109418
114307
99649.9
95478.7
121559
220451
148008
179518
174458
158753
131038
201238
271210
282232
244901
206977
239602
250546
154040
257599
301663
321153
322142
284142
298034
263081
160167
108316
111603
148044
208377
149186
216191
214786
117585
129904
156184
236665
171904
264988
244973
154898
208543
201127
286739
258304
254700
179053
126106
289849
350441
122973
144966
101340
106074
386392
331547
378932
124395
108728
101329
101299
101305
123096
105612
101303
101303
101299
193594
223200
129885
188051
216763
249051
291611
120795
214258
195407
116284
150654
106388
105075
161886
109626
174562
109941
159116
107893
111204
118326
114115
162598
167365
114466
191273
119089
101340
101321
115116
137282
102877
132983
102481
109571
101303
104607
122528
101869
110044
101476
101309
101306
101366
103392
101333
101597
101301
101298
101299
101302
101529
101300
101321
101299
116493
112942
156054
149257
111137
164221
113806
186308
179951
118032
143581
107668
142561
109184
154078
110709
107662
101311
117707
128258
183168
276917
272478
203230
127438
111223
111427
132017
116589
119959
118006
145752
125604
125154
172264
143811
144674
149047
202358
176866
153947
256119
236221
192913
229975
230491
310460
321262
211507
442667
298913
254935
321125
279899
117578
122676
124736
128885
133513
152708
145744
167276
188989
257706
201673
242346
360692
507485
291247
384445
125321
119329
120823
129246
117230
119318
126322
114018
107444
110789
106474
108689
111366
103020
128613
122167
125153
131293
124615
120973
135736
113638
119188
121186
109095
118485
113919
114502
137546
136969
129932
150034
129777
141813
136736
133598
127207
134472
129725
124810
121416
132054
156873
160645
146792
160916
158997
146153
175622
157671
143700
156014
139751
151828
140665
152943
219609
193208
179276
219555
175781
195260
196216
202987
172059
191211
194211
166125
170711
182754
228385
280272
249168
248097
245473
219525
280556
275064
212458
236788
223031
219941
200333
255056
284211
340313
311908
349926
274287
315791
305166
375713
264032
296975
330426
242094
290626
268079
485412
342016
394872
375048
351946
302035
423170
120276
117068
119828
122212
127598
127392
141795
133228
140835
167743
150846
164636
218659
183127
206431
305319
233582
263816
427433
298137
335747
551374
387686
445160
173044
363322
252509
115804
112591
111880
113291
114934
114370
112935
118128
115856
121816
121684
117337
117088
123201
138032
127619
127607
130793
129980
134672
134057
147711
136857
154822
150826
143439
141480
160391
199339
169135
163072
164610
177442
185699
177474
224384
177298
224071
210411
203862
193152
250172
302172
246376
229435
233053
275590
272704
250482
332428
260112
344711
316933
306745
277393
396571
345900
101301
101298
101298
101306
101298
101299
101298
101298
101319
101298
101309
101298
101300
101298
101298
101299
101325
101305
106184
101300
101298
101310
113497
101301
101299
109410
101304
101299
101298
101320
101298
101308
101299
101301
101298
101315
102992
101301
101300
102025
101307
101299
101298
101298
101298
101298
101298
101298
101298
101298
101298
101298
101298
101298
101298
101298
101298
101298
101298
101298
101298
101298
101298
101298
101298
101298
101298
101298
101298
101298
101298
101298
101298
101298
101298
101298
101298
101298
101298
101298
101298
101298
101298
101298
101298
101298
101298
101298
101298
101298
101298
101298
101298
101298
101298
101298
101298
101298
101298
101298
101298
101298
101298
101298
101298
315063
170364
286956
300753
304100
206428
426163
345900
178884
162525
249923
218860
145770
235138
253772
137018
168979
254340
217422
317162
309246
339079
375756
354678
334339
394127
185401
245865
353200
233883
210325
317177
265853
195954
261287
207594
311090
369038
255763
225356
190028
274499
327465
315975
289249
376010
409858
413155
359132
379482
385530
390700
347882
360021
360018
364591
370656
346126
373900
466655
212067
432898
351705
452243
413462
275248
294720
157947
170980
204853
157892
162750
173558
171545
243404
279282
245109
329051
160277
187598
190378
193689
167343
199163
206904
217718
182400
204992
229586
192681
244129
198722
236477
259905
219483
228940
260575
212361
280363
279413
302328
256398
248237
332000
270727
131101
148159
150067
126765
128300
144857
143226
144290
142320
169378
161536
161585
137217
155056
134807
152126
156313
130016
133184
150370
146766
117425
123833
122227
117232
118634
111095
112564
160172
157280
148711
179085
169474
179247
190855
348289
271816
323689
222860
261041
424815
262589
351226
215596
291354
101306
101301
101298
101298
131131
128873
131376
128554
133411
137858
133562
138110
151944
143322
143632
150961
163575
177102
161686
180443
238842
198622
204709
226426
284483
296570
260018
341620
491278
337502
408145
385141
577320
501348
448668
598009
101298
101298
101298
101298
101298
101298
101298
101298
101298
101298
101298
101298
101298
101298
101298
101298
101298
467964
442554
358978
103259
101313
101340
101302
101299
101298
101300
101298
101298
101298
101298
101298
101298
101298
101298
101298
129356
118887
121860
120342
114207
123161
116988
139996
125984
130737
131252
126565
120544
124960
185685
202905
182961
168564
191512
206842
221779
157962
144233
136240
149173
138640
130963
139406
120343
121513
110922
121936
122964
135571
134069
115279
116673
119144
111228
112715
114763
116535
120608
123658
120719
114480
117524
118522
122040
188343
169029
155040
180582
163098
150629
165015
111582
124413
111980
123560
123977
139736
137158
111407
112524
106048
107209
108454
104316
105342
124659
129904
134639
121555
126657
126891
133082
145436
125995
112003
112664
123953
124608
142560
137675
156150
143521
133745
143438
141470
152823
131038
149329
155549
114697
118855
126581
130730
107048
110071
115712
107994
112489
108108
106581
109837
109304
111405
113171
110844
106199
107388
263252
245474
220361
222616
200228
224798
241103
117517
108624
115145
118200
111226
109527
109737
123036
122409
128766
118444
113857
112058
116476
164242
194185
173149
155929
171335
167488
185147
145052
164413
176525
135178
125487
137377
147004
114794
111271
115519
113076
119356
116316
109044
206093
207865
186014
225129
201351
182556
203334
138808
163046
238920
395867
155655
167915
143706
175619
222948
196703
253049
385577
297077
445685
145014
156326
142233
158572
159496
144914
142067
147809
161633
169384
152194
162712
147394
152955
168792
177338
158343
186323
159326
188906
166988
181972
201246
229104
196269
205105
179000
201083
268996
264377
220748
291323
228929
313575
254265
323824
335057
461552
337551
379312
294684
392650
569741
562630
385643
504428
471321
622500
445592
468560
433364
629290
528486
440836
522942
597248
511503
561051
213640
260955
340743
102016
101298
101298
101298
163905
168366
190535
278214
231576
228903
165620
229570
227481
169813
214306
224194
220636
266601
257875
276495
162128
107905
126069
227898
160725
198166
159733
196303
158450
195290
163375
223200
216922
257207
213770
207110
268904
109385
225416
101631
101386
102075
140640
108945
103473
101298
101298
101298
101298
101298
109857
101298
101298
101353
101298
101298
101298
101298
101298
101307
101298
101298
228107
101298
101298
101299
101298
101298
101298
101298
101298
101298
101298
101298
101298
101298
101298
101298
101298
101298
101298
101298
101298
101298
101298
101298
101298
101298
101298
101298
101298
101298
101298
101298
101298
101298
101298
101298
101298
101298
101298
101298
101298
101298
101298
101298
101298
101298
101298
101298
101298
101298
101298
101298
101298
101298
101298
101298
101298
101298
101298
101298
101298
101298
101298
101298
101298
101298
138267
101299
101305
101298
101298
101298
101298
101298
101298
104003
101298
101298
289071
101299
101298
299137
101332
101298
101298
101298
101298
101298
101298
101298
101298
101298
101298
101300
101298
101298
220491
101298
101298
101299
101298
101298
101298
101298
101298
101298
101298
101298
101298
101298
101298
101298
101298
101298
101298
101298
101298
101298
101298
101298
101298
101298
101298
101298
101298
101298
101298
101298
101298
101298
101298
101298
101298
101298
101298
101298
101298
101298
101298
101298
101298
116552
140060
141059
124238
125187
144899
146325
137367
137661
149621
133234
135238
125365
123337
205320
245133
218402
189661
211144
205420
228468
288995
297609
269121
243233
270423
297247
319125
122514
116129
113675
124133
129826
120148
124174
135151
123910
119188
137109
146340
128765
134631
117790
142792
145239
126433
148824
128013
152713
211087
190737
172068
192147
166622
148751
160179
156658
140247
130692
157651
170866
141817
151162
279574
229571
257524
271719
249667
257168
227940
164506
165171
165546
147116
149053
184565
167510
117578
148060
150848
129801
157579
162904
131499
254563
296818
271942
266279
285652
236772
255231
117453
153992
158731
168831
176105
133337
136458
310047
245956
101298
101298
101298
101298
101302
101298
101298
101298
101298
101298
101298
101298
101298
101298
101298
101298
101298
101298
101298
101298
101298
101298
101298
101298
101298
101298
101298
101298
101298
101298
101298
101298
163164
174017
154869
158064
156280
165662
153076
165365
168021
155068
154279
159539
168657
176700
163759
171435
158361
164792
170949
202499
272851
331086
177516
259355
189780
283268
244915
174531
234259
177000
244453
174353
236649
197693
302332
240235
377742
265712
188261
241828
231678
323458
203476
230110
263845
388037
363377
333916
342752
215070
232220
323510
329020
231369
270842
419153
286756
271026
311499
198119
180896
193147
179989
183473
196218
194865
226843
274927
217010
262864
279261
220373
223100
203294
183745
193724
208381
187329
200963
211636
233597
270352
304840
235310
288757
226085
244629
239194
201948
218224
207965
223085
213081
231980
282279
329513
248262
327699
260399
362486
266727
261420
221667
249044
274221
227996
250452
290396
315356
355349
421346
327630
396922
293404
360768
374192
275952
303798
290978
326804
308930
338358
442909
430963
361830
383810
408948
424068
389008
429458
322193
407546
413572
349905
374877
479219
457520
366196
360992
404987
402630
404796
450099
490658
488575
446959
477356
507731
548272
450909
259872
263792
204161
218197
369110
362347
224419
219428
133353
383494
480940
368409
263610
517226
382454
232996
197806
230247
222198
167747
130268
194848
169605
152785
144634
135403
145994
289623
162929
287852
216639
140756
143404
360297
291889
390005
236389
424795
215775
352327
249520
194699
136170
198752
171350
278453
164713
169921
127522
121612
153362
136659
131581
122995
142430
263606
253183
152289
168148
103722
101298
101298
101298
196167
158495
103741
101307
152821
160343
158252
137668
139174
148604
150476
153545
191246
186523
205170
163750
180243
171328
123953
165307
173866
185016
195885
141436
148615
233597
212923
239466
260535
224279
214206
188634
94202.1
108548
110314
107368
109066
97397.4
96678.5
233693
235349
214265
188233
207832
190160
215932
304524
325000
291870
307279
293059
320433
290622
169072
158986
153746
141466
163211
144832
163672
173463
191042
155367
167669
155876
220376
162412
112392
97754.6
115651
111355
114796
98749.2
100539
150611
144433
145707
152199
126590
115696
116391
140307
184891
198968
209181
225567
158491
171365
294990
311008
311035
325132
298038
342923
317302
176320
165707
169456
148896
176489
173684
153234
158326
158465
159066
157765
156794
159599
160384
253956
214088
227068
224114
200462
193331
218481
126875
117333
115588
100918
102251
113958
116001
283734
296852
273835
338830
295275
256263
244625
173376
174612
172154
193601
190458
193333
190848
154287
127616
156973
128985
148326
115566
116299
120252
104602
125747
119198
124017
105647
102897
195686
192603
184195
182784
193170
157830
163147
119389
133018
122714
103839
118180
106287
121968
281680
268384
311304
281589
269716
243965
244817
314148
330909
342399
259819
301177
321198
334922
184664
182924
178247
197743
204105
197631
204146
223084
211316
201573
205095
218810
169785
178328
302135
101693
101298
269741
134832
179252
171701
101301
101298
118234
125900
117215
110534
113215
122409
131203
122987
124444
216883
246825
277734
187818
212224
241816
189844
132247
112652
140634
129425
136226
108373
111637
291009
230248
282321
312683
333206
337070
306632
149505
155987
160414
155940
159098
155566
159912
130087
149469
163744
150155
130803
114180
112534
283862
276221
330129
288936
288957
251716
246773
107623
99254.2
100700
87237.6
87844.1
73700
74606.8
138626
127030
132378
109921
127122
114241
133422
158509
155524
153380
157099
157916
159729
156134
136493
128783
128146
103037
103757
109015
109773
141214
137041
134860
157906
155061
157153
154494
171190
172576
176545
193618
195061
196705
194511
162270
117491
150962
144674
154039
119768
115334
113079
102261
104047
89137.8
90846.6
75624.6
76580.4
192497
190279
198957
223140
213178
212461
225535
258763
235187
222085
234395
252895
188797
201961
367023
356974
331855
377285
344388
373781
382459
163521
155169
158594
157911
166637
159595
162905
125826
130883
124932
124977
125532
130950
135231
139833
161362
148607
144634
167536
160179
166254
179478
197545
183538
176767