/*--------------------------------*- C++ -*----------------------------------*\
  =========                 |
  \\      /  F ield         | OpenFOAM: The Open Source CFD Toolbox
   \\    /   O peration     | Website:  https://openfoam.org
    \\  /    A nd           | Version:  9
     \\/     M anipulation  |
\*---------------------------------------------------------------------------*/
FoamFile
{
    format      ascii;
    class       volScalarField;
    location    "0.0029";
    object      rho;
}
// * * * * * * * * * * * * * * * * * * * * * * * * * * * * * * * * * * * * * //

dimensions      [1 -3 0 0 0 0 0];

internalField   nonuniform List<scalar> 
24205
(
0.70946
0.683276
0.752653
0.727863
0.770359
1.04632
1.0835
1.15116
0.918624
2.05334
1.958
2.36322
0.531616
0.752716
0.592157
0.755863
0.847356
1.20916
0.951574
1.18623
1.39817
2.34758
1.47017
2.18526
2.05806
1.06893
0.55336
0.533346
0.505221
0.590994
0.500308
0.593155
0.560584
0.618134
0.666379
0.756669
0.700131
0.669921
0.627294
0.688895
0.848846
0.852077
0.777267
0.950914
0.764958
0.958987
0.859831
0.943517
1.0683
1.2514
1.05004
1.0866
0.949317
1.05845
1.40765
1.475
1.17496
1.69142
1.20673
1.82701
1.35024
1.70181
2.09469
2.35748
1.89084
2.24362
1.60535
1.96244
0.892749
1.25531
1.07355
1.47392
1.85755
1.93357
1.48501
1.79153
1.2176
1.75417
0.409356
0.209978
0.492036
0.222582
0.714214
0.308798
0.948877
0.522554
1.89935
1.64815
0.178235
0.405364
0.430321
0.176761
0.441905
0.403145
0.214852
0.414742
0.178237
0.519246
0.596649
0.218791
0.712187
0.465537
0.279398
0.58757
0.242444
0.864066
0.858591
0.351164
1.03537
0.852482
0.446805
1.09595
1.01829
1.40105
0.413912
1.4089
1.38227
0.798313
2.08584
1.49717
0.994094
2.12788
0.316762
0.279533
0.286609
0.211552
0.281513
0.289851
0.313053
0.401347
0.302752
0.318514
0.236201
0.360816
0.32573
0.345699
0.671162
0.446417
0.475643
0.344594
0.589249
0.502263
0.536369
1.2419
0.757546
0.82858
0.626365
1.04651
0.903619
0.992725
1.61915
0.919537
1.83378
1.89021
1.99548
1.99203
2.41065
1.46477
2.01197
0.363854
0.335689
0.273758
0.179211
0.337864
0.274991
0.361628
0.367682
0.177721
0.346079
0.276626
0.339958
0.274866
0.377009
0.321791
0.211958
0.289561
0.301202
0.283348
0.292873
0.335021
0.423604
0.35985
0.282709
0.185602
0.394526
0.385535
0.296806
0.463015
0.19949
0.466373
0.348376
0.42216
0.318893
0.509366
0.454523
0.255246
0.39876
0.425013
0.358196
0.381611
0.517837
0.611777
0.514016
0.384063
0.270678
0.558776
0.565236
0.426603
0.670733
0.305533
0.694549
0.545187
0.623727
0.478488
0.742411
0.77093
0.389544
0.65204
0.707294
0.569424
0.612341
0.893942
1.08056
0.990962
0.949411
1.12481
0.956516
1.10285
1.06703
1.04237
0.899654
0.922614
1.01752
1.21144
1.25218
1.37428
1.37359
1.22975
1.2059
1.36296
1.16344
1.33443
1.15337
1.32163
0.954509
0.779545
0.633549
0.495822
0.832832
0.88947
0.754987
1.1203
0.617167
1.22617
1.18831
1.02725
0.929902
1.35722
1.48677
0.774776
1.37109
1.48363
1.10108
1.21904
1.7553
1.32773
0.821801
1.43052
1.26108
1.29646
1.48911
1.58038
2.15049
2.38292
2.17696
1.76207
2.28855
2.14817
2.233
1.69108
1.21538
1.46043
1.5998
1.7032
1.77065
1.94898
1.22578
1.36839
2.38099
0.430239
0.471502
0.512747
0.704534
0.767665
0.970441
1.07256
1.39382
1.05639
1.45189
1.54303
1.23911
1.43038
1.51063
1.29937
1.16576
0.416416
0.409057
0.423493
0.434491
0.413835
0.428321
0.411073
0.428229
0.446479
0.451027
0.463886
0.425343
0.440133
0.453223
0.545565
0.491751
0.50253
0.570635
0.491721
0.548548
0.557053
0.607892
0.637616
0.675277
0.68974
0.612918
0.621669
0.673331
0.807038
0.734098
0.758937
0.829897
0.738666
0.795332
0.830868
0.884213
0.89648
0.944601
0.989677
0.864771
0.906822
0.975975
1.23586
1.03643
1.08828
1.16435
1.08887
1.15036
1.21731
1.43444
1.29876
1.42975
1.57536
1.29146
1.38486
1.61978
1.09082
1.0357
1.03103
1.16253
1.01269
1.11944
1.12606
1.17889
1.26744
1.32945
1.35446
1.21546
1.2351
1.2817
1.50616
1.36595
1.67836
1.61354
1.52854
1.40703
1.72938
1.35874
1.4818
1.57762
1.35359
1.38302
1.39472
1.571
1.01522
1.85609
1.94099
1.2939
0.92848
1.16635
1.07872
0.735863
1.64132
0.832021
1.53545
1.18921
1.26647
1.80728
1.22954
1.37964
1.53002
1.225
1.22502
0.532357
0.581923
0.575396
0.596494
0.916911
1.58764
0.955133
1.60131
0.62214
0.708369
0.858185
1.04549
0.991168
1.63444
0.968009
1.11863
1.56156
1.4931
1.80099
2.02617
1.96061
2.20488
1.07085
1.85806
2.14893
2.18636
0.788043
1.54391
1.34615
0.783815
0.805796
1.56928
1.39125
0.93171
1.63996
1.53592
1.06463
1.28954
1.55385
1.73878
1.65548
1.70654
1.92368
1.69201
2.05621
1.74992
1.58811
2.06573
1.45987
1.2554
1.6092
1.4256
1.25085
1.22541
2.38962
1.90933
1.90915
2.2302
1.61334
0.391451
0.38258
0.515827
0.539618
0.387687
0.523416
0.38602
0.399745
0.549507
0.409435
0.563946
0.393619
0.53491
0.421065
1.38718
1.23025
1.15455
0.921541
1.23397
1.16136
1.38239
1.39863
0.932397
1.25975
1.20793
1.24344
1.17764
1.41812
0.520796
0.440717
0.615697
0.687872
0.461051
0.488361
0.688823
0.59656
0.76673
0.626123
0.877461
0.550503
0.776083
0.686716
1.47068
1.28283
1.25146
1.03744
1.44316
1.31003
1.30599
0.911338
0.715234
0.998434
1.11256
0.790581
0.821735
1.14993
1.05474
1.30964
1.10677
1.6047
0.951795
1.34967
1.22899
1.69302
1.29509
1.84967
1.9489
1.44239
1.53172
1.99544
1.90437
2.0049
1.92878
2.01723
1.77118
2.05742
2.03976
1.69645
0.936005
1.47344
1.5393
1.31451
1.40564
1.8049
1.97274
1.86017
1.85913
1.93133
1.77113
2.01079
1.95933
0.69748
0.98497
0.743614
0.705617
0.992009
0.93789
0.929863
0.808015
1.09951
0.897164
0.883893
1.17141
1.14512
1.06092
1.22946
1.49229
1.35077
1.42611
1.6173
1.69276
1.53332
1.93798
1.76546
1.84683
1.98246
1.60164
1.75211
1.91291
1.71193
1.75575
1.78421
1.95455
1.96893
2.11599
1.99667
1.24694
1.23154
1.22504
1.28237
1.22748
1.2257
1.22504
2.33674
1.70629
1.77769
1.22626
0.755052
0.752163
1.04547
0.719004
1.00942
0.957107
0.998063
0.972538
1.08365
1.36992
0.973627
1.26039
1.24983
1.37985
1.53175
1.82775
1.79487
1.6477
1.72712
1.83037
1.91572
1.76564
1.67019
1.29829
1.90072
1.39985
1.46768
1.30734
2.00588
1.92264
1.90535
2.07469
2.06151
2.10366
1.82178
1.82565
1.2534
1.27426
1.61531
1.84395
1.24643
1.26086
1.87533
1.23547
1.24128
1.38656
1.48859
1.22831
1.22943
1.2824
1.22564
1.22568
1.23098
1.23096
1.22503
1.22502
1.22536
1.22502
1.22502
1.2254
1.22506
1.22501
1.22501
1.22504
1.22502
1.225
1.225
1.30272
2.22442
2.33741
1.82205
2.1409
2.10775
1.62039
2.31193
2.27605
2.26111
2.23336
1.90496
1.2619
0.89945
1.06341
1.08557
1.3648
2.07427
1.90905
1.22501
1.58025
2.29527
1.42582
1.59979
1.48265
2.02239
1.10506
1.65068
1.5295
1.97509
1.8279
1.67465
1.906
1.49734
2.06039
1.87105
1.57744
2.17003
1.90484
1.27837
2.17689
1.50784
1.43552
1.22578
1.23637
1.23738
1.22516
1.29098
1.22548
1.22514
1.22503
1.22572
2.28626
1.9571
1.25212
1.24398
1.30797
1.22963
1.23429
1.22536
1.22502
1.225
1.225
1.225
1.225
1.225
1.225
1.225
1.225
1.225
1.225
1.225
1.225
1.225
1.225
1.225
1.225
1.40071
1.29021
1.23428
1.22503
1.2394
1.225
1.225
1.225
1.225
1.225
0.903798
1.07568
0.981607
0.993354
0.907306
1.0303
1.05328
0.960304
1.13822
1.225
1.225
1.225
1.225
1.225
1.225
1.225
1.225
1.225
1.225
1.225
1.22517
1.225
1.225
1.225
1.225
0.756781
2.38377
2.354
2.36552
1.70025
2.4752
1.84555
2.41889
1.69119
1.31266
1.22502
0.428198
0.441069
0.584815
0.693
0.842852
1.10882
1.7705
2.69315
2.9056
1.49011
1.03257
1.30834
0.922618
1.00499
1.11136
1.38859
1.3653
1.37977
1.4753
0.460408
0.579175
0.413702
0.568634
0.711746
0.633662
0.466773
0.420831
0.41506
0.454364
0.425408
0.462763
0.455589
0.463766
0.413331
0.425079
0.453101
0.520048
0.507328
0.577543
0.570084
0.516139
0.508879
0.579604
0.514464
0.564675
0.504978
0.572019
0.708502
0.642642
0.633992
0.704529
0.641427
0.71397
0.702929
0.69092
0.624647
0.629036
0.689749
0.363284
0.410983
0.627368
1.00498
1.65977
0.43054
0.385462
0.458985
0.488213
0.56289
0.653598
0.715653
0.88278
0.926759
1.39314
0.362547
0.378449
0.359041
0.366397
0.381777
0.36257
0.359498
0.438825
0.421766
0.405076
0.450458
0.401382
0.462696
0.44467
0.681388
0.639746
0.623671
0.69743
0.613042
0.707112
0.693269
1.1128
0.99295
1.00748
1.13306
0.985505
1.1152
1.1391
1.40996
2.07211
0.372539
0.40397
0.393394
0.434087
0.407206
0.396368
0.369732
0.346956
0.355498
0.358581
0.343849
0.339817
0.351048
0.353896
0.336964
0.367101
0.372565
0.397946
0.380772
0.38699
0.368294
0.377778
0.375939
0.442297
0.423813
0.409374
0.412616
0.400111
0.384806
0.352366
0.377125
0.364433
0.364468
0.343316
0.363101
0.356422
0.35234
0.438423
0.447482
0.428813
0.534376
0.404396
0.488142
0.462061
0.423544
0.400666
0.386307
0.440119
0.405401
0.380069
0.371382
0.412252
0.489829
0.502392
0.576595
0.558975
0.516215
0.497586
0.549578
0.486305
0.591692
0.600663
0.565349
0.541209
0.509072
0.543545
0.474459
0.553808
0.492782
0.53401
0.452781
0.511359
0.457572
0.50904
0.670721
0.662298
0.625236
0.77856
0.60507
0.727252
0.688425
0.662558
0.615618
0.596056
0.682597
0.633857
0.568831
0.568916
0.631244
0.762192
0.780075
0.880574
0.88108
0.78532
0.776177
0.863737
0.746741
0.847275
0.889656
0.846431
0.801224
0.760044
0.841302
0.742326
0.867968
0.763845
0.843621
0.711122
0.794162
0.70459
0.807644
1.08919
0.993924
0.965601
1.12099
1.23925
1.25751
1.38133
1.39224
1.24071
1.26317
1.37969
1.20183
1.34177
1.22917
1.33469
1.15614
1.2349
0.7417
0.773985
1.24857
1.21456
1.44323
0.356536
0.381963
0.432803
0.528252
0.646046
0.36511
0.38646
0.481978
0.600507
0.728826
0.906779
1.00485
1.25845
0.38617
0.4979
0.441001
0.417995
0.480486
0.520671
0.716045
0.780105
0.99058
0.431475
0.480063
0.486702
0.425495
0.441996
0.524899
0.49948
0.464423
0.554827
0.564806
0.50134
0.622159
0.615357
0.684092
0.917983
0.426914
0.436043
0.423242
0.445326
0.441246
0.427455
0.42155
0.437909
0.456765
0.479789
0.456269
0.453379
0.436393
0.462378
0.559537
0.524356
0.491201
0.579378
0.50305
0.583915
0.543005
0.623745
0.647913
0.712166
0.668933
0.650175
0.604857
0.686746
0.806401
0.769914
0.731578
0.843813
0.745923
0.82895
0.795364
0.871886
0.913451
0.960881
0.945268
0.892616
0.865859
0.941132
2.19703
1.22509
1.22568
1.225
1.22501
2.37223
1.57548
2.42088
1.39644
1.30683
1.2387
1.22512
1.225
1.22501
1.225
1.22504
1.225
1.22501
0.334706
0.381401
0.262271
0.676148
1.37767
1.48729
1.23571
1.22505
1.225
0.399324
0.445095
0.299273
0.747887
1.41129
1.34642
1.22509
1.22502
1.225
0.699663
0.677621
0.421163
1.06254
1.43341
1.23529
1.22501
1.225
1.225
1.04255
1.0485
0.67151
2.00439
1.29425
1.2258
1.22504
1.225
1.225
2.27491
1.72306
1.96915
0.765011
1.23854
1.6733
1.22501
1.22504
2.4465
1.70885
1.23678
2.53171
1.22501
1.22529
0.348289
0.353491
0.363455
0.367446
0.382967
0.21911
0.348732
0.41779
0.224773
0.361601
0.414055
0.38694
0.402189
0.272637
0.415223
1.10998
1.25905
1.66666
0.692341
1.13352
1.28726
1.69331
1.31785
1.62709
1.28738
1.39847
1.29496
1.61206
1.25091
0.417094
0.530838
0.450402
0.242192
0.504664
0.631196
0.275898
0.612653
0.451471
0.350045
0.533724
1.15202
1.41607
1.70762
0.862825
1.25477
1.71228
1.70103
1.28236
1.59499
1.2404
1.43959
1.24674
1.4482
1.22848
0.669598
0.82047
0.874049
0.700316
0.501213
0.843953
0.935558
0.596616
0.928039
0.894432
0.673246
0.530014
0.902238
1.30842
1.93336
1.65001
1.45003
1.44161
1.98531
1.31328
1.23851
1.37326
1.22574
1.34277
1.22668
1.23947
1.22511
1.10904
0.963553
1.35948
1.28169
1.04525
0.749469
1.34153
1.43615
0.925661
1.02101
1.44201
1.41407
1.26479
1.08461
2.33215
1.43079
1.46317
1.25427
1.79614
1.29309
1.23377
1.22562
1.22577
1.2296
1.22505
1.27721
1.28225
1.22543
1.22565
0.800072
2.50745
2.03368
2.64957
2.37271
1.36348
2.05874
0.776948
2.01582
1.96586
2.33476
2.2402
2.17499
2.40022
0.52811
1.25421
0.58737
1.42104
0.833612
2.11944
1.50158
1.23239
2.64495
1.22885
0.370484
0.381683
0.359938
0.550757
0.394755
0.542457
0.371937
0.557504
0.409771
0.430343
0.580401
0.40485
0.683141
0.453709
0.685843
0.467431
0.731823
0.548593
0.693199
0.845281
0.610928
1.08859
0.704034
1.07287
0.804792
1.27688
0.957074
1.12618
1.70645
1.17698
2.19138
1.3815
2.31704
1.84791
2.2195
2.38714
0.386828
0.372596
0.389541
0.385428
0.376541
0.393346
0.384182
0.26723
0.232331
0.236362
0.217721
0.170331
0.173397
0.213041
1.46982
1.42537
1.48088
1.38155
1.42371
1.48465
1.47196
0.476899
0.431644
0.444047
0.490567
0.435179
0.474657
0.48699
0.26354
0.321925
0.281257
0.258783
0.192264
0.242777
0.203675
1.43777
1.4092
1.51414
1.42482
1.45358
1.39805
1.5246
0.711769
0.654512
0.659332
0.746062
0.64783
0.725222
0.720535
0.468219
0.347358
0.375218
0.350699
0.239591
0.320942
0.25212
1.29353
1.33179
1.51686
1.41603
1.33597
1.30098
1.48286
1.15446
1.0394
1.01561
1.17727
1.01983
1.17194
1.14593
0.894738
0.554378
0.732258
0.645985
0.357018
0.528984
0.433017
1.22827
1.23607
1.27933
1.2566
1.2329
1.23037
1.24711
2.63731
1.90391
1.78766
1.78216
0.697449
1.95234
2.22523
1.67906
0.693007
1.40196
1.94123
1.86635
2.18714
2.08809
1.56568
0.758825
1.11937
1.21411
1.0851
1.20637
1.59804
1.22501
1.22526
1.51477
1.64196
1.22579
1.40719
1.22507
1.84019
1.22602
1.24183
1.4932
1.55324
1.22522
1.22543
0.388786
0.37791
0.38818
0.387483
0.384427
0.391815
0.383612
0.221641
0.296161
0.299444
0.307487
0.159654
0.16098
0.304526
0.373576
0.38335
0.385022
0.371272
0.398197
0.398276
0.418599
0.414652
0.396838
0.399647
0.414261
0.308893
0.231465
0.323934
0.313095
0.167083
0.162926
0.325082
0.381461
0.401445
0.390111
0.394192
0.378623
0.365612
0.366127
0.365079
0.369211
0.369221
0.376022
0.390183
0.387826
0.38949
0.388074
0.383272
0.368382
0.371081
0.380894
0.393972
0.395543
0.402488
0.416388
0.385442
0.401277
0.408312
0.385426
0.372143
0.392987
0.389449
0.377252
0.375778
0.399246
0.395474
0.406166
0.394445
0.407319
0.388596
0.389376
0.376754
0.401425
0.409112
0.3227
0.328627
0.32022
0.423221
0.429576
0.315204
0.241507
0.282967
0.250375
0.222068
0.183215
0.176961
0.230449
0.334429
0.428731
0.346261
0.324418
0.443406
0.433348
0.333754
0.959515
0.755167
1.28464
1.11437
0.757018
1.29123
0.954407
0.969037
1.1214
0.765153
1.32446
0.758517
1.30369
0.988781
1.35
1.35081
1.31341
1.31353
1.34631
1.30902
1.35533
1.46712
1.38854
1.41656
1.50244
1.42126
1.49205
1.46252
1.3402
1.30569
1.32629
1.28987
1.33814
1.30092
1.32562
0.485992
0.453758
0.442062
0.49924
0.442223
0.505495
0.485298
0.347041
0.257341
0.379099
0.375396
0.174217
0.345659
0.184089
0.453024
0.423797
0.417174
0.459728
0.542159
0.561563
0.646288
0.600129
0.571592
0.540339
0.60373
0.417921
0.45956
0.296228
0.412264
0.209348
0.196062
0.452538
0.497888
0.558072
0.506012
0.547316
0.469279
0.429778
0.430432
0.468565
0.530396
0.547888
0.590047
0.601017
0.528755
0.54132
0.589106
0.518836
0.573597
0.518299
0.574217
0.366196
0.486454
0.396184
0.373699
0.461754
0.349858
0.490777
0.302045
0.382817
0.324013
0.277208
0.228427
0.216233
0.297392
0.595115
0.435953
0.485935
0.404564
0.576861
0.528596
0.442255
1.06305
0.779733
1.35432
1.17774
1.01965
0.805111
1.39274
1.11855
1.21139
0.890884
1.48957
0.841307
1.43822
1.18887
1.28892
1.311
1.27716
1.26929
1.30799
1.29311
1.26436
1.41325
1.43533
1.35927
1.52973
1.38135
1.53121
1.37865
1.27051
1.25712
1.25954
1.24312
1.2753
1.25279
1.25523
0.723632
0.723646
0.659593
0.769002
0.663643
0.798886
0.722327
0.544834
0.318629
0.345943
0.534367
0.224232
0.49263
0.242808
0.651432
0.610195
0.597665
0.665811
0.791445
0.844459
0.960009
0.889559
0.874635
0.796338
0.875479
0.663573
0.383044
0.43528
0.58403
0.303087
0.268079
0.648276
0.715466
0.818708
0.73242
0.798017
0.688996
0.628383
0.630348
0.685538
0.790884
0.826878
0.914129
0.892966
0.809341
0.794285
0.893537
0.789928
0.788808
0.90499
0.891624
0.798996
0.785741
0.895031
0.762132
0.848584
0.756038
0.861385
0.768947
0.875265
0.770299
0.872715
0.772693
0.54747
0.623614
0.541059
0.638838
0.486823
0.719896
0.413687
0.470571
0.615251
0.391269
0.304215
0.271186
0.448406
1.07831
0.721214
0.850881
0.614647
0.984372
0.827398
0.717248
1.39475
0.958492
1.54425
1.3679
1.2792
1.04627
1.5882
1.52336
1.41655
1.28608
1.57714
1.15573
1.60436
1.63506
1.23606
1.24716
1.23575
1.23258
1.24402
1.23841
1.23071
1.26291
1.38646
1.24887
1.3411
1.27054
1.42048
1.24362
1.23073
1.22878
1.22853
1.2261
1.23233
1.22768
1.22759
1.09147
1.06037
1.00243
1.16622
0.978152
1.17121
1.12306
0.85135
0.601261
0.507408
0.820932
0.350975
0.729694
0.412078
1.01344
0.92843
0.901795
1.04584
1.20162
1.28942
1.44632
1.35977
1.2924
1.23633
1.33195
1.13243
0.965743
0.728949
0.912001
0.615803
0.491998
1.03675
1.10913
1.23657
1.13928
1.21571
1.16139
1.03207
1.02078
1.15392
1.02448
1.16641
1.15625
1.11703
0.965489
0.986679
1.08924
1.1343
1.00365
1.00157
1.13441
1.27669
1.30145
1.4379
1.38415
1.29862
1.2639
1.39894
1.28546
1.27964
1.42889
1.40358
1.29313
1.28023
1.40797
1.2222
1.28037
1.18758
1.3189
1.24224
1.34647
1.24214
1.34303
1.70468
1.33222
1.02571
1.07754
1.23104
0.864124
1.61042
0.843857
1.48454
1.14165
0.843163
0.734694
0.553051
1.15804
2.0391
1.6073
2.10094
1.3957
2.2881
2.01494
1.84401
1.67
1.40031
1.48479
1.36906
1.70253
1.48827
1.36386
1.51154
1.31065
1.45885
1.25576
1.51485
1.28106
1.34288
1.2257
1.22659
1.22546
1.22597
1.22605
1.22623
1.22555
1.229
1.24249
1.27977
1.24887
1.23258
1.23457
1.25161
1.22883
1.23227
1.28281
1.2548
1.23214
1.22902
1.25403
1.84299
0.880947
1.21021
1.25985
1.3562
1.37508
1.68738
2.27355
1.85189
2.09618
2.18712
2.00182
2.15397
2.19932
1.55659
0.762856
1.09895
1.22339
1.08249
1.20987
1.56293
2.04636
1.74778
2.01231
2.18483
1.69414
2.07556
2.19094
2.02532
1.67366
1.99974
2.12536
1.67837
2.00352
2.1703
1.36658
1.36481
1.22502
1.3391
1.22514
1.22501
1.26242
1.22502
1.225
1.22762
1.22505
1.225
0.805746
1.78395
1.22504
2.44711
1.22528
1.46811
1.35053
1.44857
1.39948
1.28305
1.15444
1.40252
1.5507
1.22674
1.2278
1.63194
1.23067
1.41844
1.22538
1.54785
1.4372
1.22508
1.3192
1.27839
1.31343
1.22567
1.23625
1.91765
2.19828
2.2428
1.44191
1.37642
1.392
1.36351
1.37724
1.38803
1.44214
1.44423
1.38613
1.35253
1.32357
1.44643
1.38447
1.3287
1.31566
1.34505
1.25634
1.24666
1.36594
1.31779
1.24269
1.2299
1.2411
1.22669
1.22677
1.23603
1.2333
1.22603
1.62348
0.858747
1.13419
1.25339
1.19585
1.31578
1.58397
1.53062
1.24094
1.23249
1.46783
1.40547
1.22538
1.22652
1.44323
1.35842
1.38356
1.36969
1.37993
1.38103
1.4453
1.43241
1.30451
1.36477
1.27697
1.37734
1.30188
1.40607
1.4949
1.09119
1.36483
1.43674
1.33888
1.3693
1.50991
1.48518
1.38399
1.5043
1.29927
1.50906
1.39523
1.55928
1.27582
1.23665
1.25715
1.22905
1.28523
1.23401
1.25026
1.42814
1.36533
1.34629
1.57154
1.38491
1.59215
1.35256
1.25323
1.3024
1.48111
1.41233
1.29005
1.26875
1.36356
1.22992
1.23225
1.27404
1.25329
1.23373
1.22913
1.25044
1.23865
1.35163
1.27441
1.26318
1.2505
1.28788
1.24939
1.95934
1.67996
1.87229
2.06217
1.70053
1.97828
1.99915
1.17067
0.748712
1.12806
1.18953
1.21622
1.4305
1.38481
1.19523
0.704431
1.10683
1.21504
1.11144
1.38862
1.38208
1.13266
1.23444
0.726978
0.716244
1.2306
1.12016
1.39757
0.683985
0.520898
0.52832
0.7592
0.572526
0.578732
0.753083
1.44007
1.90185
1.91166
1.73694
1.24067
1.72458
1.23424
1.22514
1.22509
1.23341
1.54836
1.22879
1.4903
1.22721
0.79779
0.577594
0.616559
0.853479
0.610567
0.811702
0.642083
1.93372
1.26898
1.95346
1.70624
1.23136
1.52038
1.22615
1.22954
1.22505
1.22584
1.44867
1.22651
1.29709
1.22527
1.22488
0.819792
0.936967
1.2308
0.807357
1.08278
0.903995
1.53762
1.22537
1.56604
1.41668
1.22552
1.23885
1.22503
1.22506
1.22502
1.22517
1.26333
1.22512
1.22739
1.22504
2.11848
1.96363
1.69255
1.96636
1.56409
1.85211
1.84136
1.22501
1.22509
1.25056
1.22906
1.22501
1.22507
1.22501
1.225
1.225
1.22502
1.22567
1.22501
1.22504
1.225
1.47427
2.33648
1.91683
2.10532
1.13182
1.65891
1.64882
1.70387
1.30811
1.83153
1.3242
1.87806
1.35897
1.33532
1.63644
2.26919
2.55684
1.92787
2.55164
2.4644
1.98936
2.23834
2.42158
2.2457
1.86534
2.52305
2.43661
2.17855
1.22503
1.91469
1.22728
2.6259
1.57152
1.24032
1.22553
1.83897
2.36176
1.22749
2.63221
1.71534
1.31336
1.22597
0.535071
0.713993
0.551165
0.765723
0.592011
0.581715
0.783458
0.947758
0.667202
0.733246
0.908809
0.737596
0.683947
0.981605
1.71867
1.10329
1.3522
1.43263
1.26691
1.04702
1.6559
2.24859
2.19061
2.12176
1.91205
2.0661
2.02436
1.6045
2.23619
2.38787
2.34944
2.43398
2.30578
2.24339
2.25358
1.28299
0.666351
0.68556
0.725735
1.59692
0.738372
1.64868
1.75866
0.753655
0.891162
0.832468
1.81969
1.02537
2.06375
2.13006
1.1226
1.55397
1.32432
2.26492
1.79521
2.18641
1.76848
1.4111
2.13022
2.44088
1.38846
1.53431
1.22536
1.26342
2.6847
2.54354
2.72889
1.39392
1.28517
1.22527
1.22501
1.22506
1.39009
1.25915
1.22504
1.22504
1.22501
1.29765
1.41418
0.952278
1.24358
1.46291
1.58093
1.81983
1.37554
1.99423
1.8806
1.34219
1.5903
1.26629
1.25576
1.66494
1.29205
1.74904
1.29453
1.64824
1.27813
1.30386
1.36324
1.32973
1.68394
1.70644
1.33135
1.87508
1.3674
1.22536
1.2252
1.34151
1.52148
1.23854
1.48796
1.23516
1.29518
1.22504
1.25323
1.40331
1.22991
1.29929
1.22653
1.2251
1.22507
1.22559
1.2429
1.2253
1.22757
1.22503
1.225
1.225
1.22504
1.22698
1.22501
1.2252
1.22501
1.35003
1.32124
1.64622
1.60227
1.30698
1.7169
1.32877
1.85474
1.81048
1.35878
1.56392
1.27859
1.55806
1.29106
1.64513
1.30346
1.27827
1.22511
0.359891
0.412895
0.718022
1.00436
1.01268
1.50902
0.379969
0.348726
0.365175
0.402179
0.36859
0.407609
0.367538
0.484959
0.413086
0.446434
0.648029
0.539488
0.650747
0.573132
0.797137
0.724456
0.731187
0.986781
0.970617
0.983017
0.874107
0.833858
1.16146
1.28092
1.08354
1.70397
1.46702
0.892605
1.0656
2.18567
0.355876
0.374729
0.373803
0.391317
0.426857
0.553779
0.502743
0.662677
0.748005
1.03138
0.883436
1.14375
1.41711
1.97137
1.45869
2.02385
0.37405
0.361267
0.365676
0.383511
0.357469
0.363393
0.375836
0.357007
0.331999
0.341215
0.33556
0.348467
0.356466
0.326145
0.386081
0.371949
0.386666
0.391398
0.388048
0.370806
0.410172
0.352634
0.37653
0.391401
0.346088
0.390972
0.367983
0.369073
0.432878
0.462997
0.414946
0.495993
0.419018
0.442844
0.469262
0.467508
0.428036
0.48161
0.460657
0.429116
0.405967
0.484112
0.558552
0.61401
0.53128
0.570063
0.620665
0.53864
0.659206
0.625736
0.552555
0.637361
0.532481
0.639945
0.555695
0.617865
0.851665
0.746747
0.703611
0.860248
0.708221
0.757095
0.798134
0.838329
0.731917
0.832035
0.819479
0.732039
0.713331
0.826907
0.893042
1.06321
0.95877
0.968048
0.986002
0.89068
1.08094
1.11723
0.936106
1.04922
0.937452
1.02063
0.92131
1.0619
1.07716
1.25531
1.16465
1.30609
1.08342
1.1955
1.18525
1.47003
1.17276
1.31659
1.33471
1.12764
1.19263
1.24748
1.89047
1.50423
1.73109
1.49636
1.59003
1.39284
1.67469
0.363754
0.349331
0.357161
0.36769
0.391326
0.397438
0.481432
0.433091
0.486422
0.64213
0.557353
0.644051
0.876343
0.745036
0.859922
1.21234
0.986931
1.12584
1.66475
1.28204
1.45737
2.20803
1.69222
1.97145
0.911157
1.45636
1.32987
0.358042
0.353448
0.360501
0.371719
0.360481
0.368334
0.350047
0.367625
0.384061
0.392118
0.404303
0.370814
0.380587
0.389334
0.480213
0.427882
0.443221
0.502466
0.425618
0.482497
0.499015
0.552307
0.571912
0.63617
0.65239
0.554082
0.570303
0.637426
0.83279
0.7228
0.741791
0.81042
0.731648
0.809568
0.833123
0.938177
0.892298
0.986641
1.02027
0.896166
0.924678
1.04277
1.25118
1.0821
1.12132
1.19159
1.14545
1.18669
1.2275
1.37018
1.31297
1.45225
1.50735
1.31289
1.34951
2.78489
2.16131
1.22503
1.225
1.225
1.22507
1.225
1.22501
1.225
1.225
1.22518
1.225
1.22509
1.225
1.22501
1.225
1.225
1.22501
1.22523
1.22506
1.26366
1.22502
1.225
1.22511
1.3209
1.22502
1.22501
1.2879
1.22505
1.22501
1.225
1.22519
1.225
1.22509
1.225
1.22503
1.225
1.22515
1.23918
1.22503
1.22501
1.23117
1.22508
1.22501
1.225
1.225
1.225
1.225
1.225
1.225
1.225
1.225
1.225
1.225
1.225
1.225
1.225
1.225
1.225
1.225
1.225
1.225
1.225
1.225
1.225
1.225
1.225
1.225
1.225
1.225
1.225
1.225
1.225
1.225
1.225
1.225
1.225
1.225
1.225
1.225
1.225
1.225
1.225
1.225
1.225
1.225
1.225
1.225
1.225
1.225
1.225
1.225
1.225
1.225
1.225
1.225
1.225
1.225
1.225
1.225
1.225
1.225
1.225
1.225
1.225
1.225
1.225
2.44359
0.940362
2.19085
1.16514
1.09215
0.965065
1.79845
1.64404
1.14834
0.962513
1.72265
1.34417
0.801638
1.16465
1.30358
0.710051
0.877767
1.22471
1.02709
1.19243
1.20264
1.26521
1.39836
1.36979
1.28786
1.47471
0.91215
1.01138
1.51136
1.33988
1.5405
2.4956
2.04012
1.37792
1.98162
1.55113
2.38562
1.51114
1.06413
0.9798
0.929852
1.26118
1.32785
1.29536
1.28543
1.80431
1.86753
2.02735
1.65371
1.73574
1.61529
1.87146
1.581
1.53338
1.67976
1.75061
1.56268
1.55704
1.78883
2.11179
1.65644
2.39385
1.91643
2.13962
2.21233
1.85599
2.41123
0.821556
1.05008
0.698468
0.419347
0.437329
0.494766
0.614161
0.707295
0.809413
0.848471
0.923689
0.42596
0.469755
0.476959
0.490266
0.460211
0.515838
0.554568
0.60564
0.542394
0.644856
0.657987
0.594736
0.741618
0.672959
0.743633
0.75679
0.69331
0.784688
0.79734
0.727776
0.856162
0.847053
0.864722
0.794819
0.843268
0.981868
0.90097
0.380587
0.41001
0.415759
0.377842
0.382893
0.414098
0.40887
0.450983
0.495263
0.530595
0.535557
0.481821
0.446081
0.481618
0.396145
0.426272
0.448478
0.392574
0.412813
0.445855
0.424275
0.361462
0.372095
0.366776
0.359794
0.364738
0.347915
0.352927
0.554841
0.6178
0.55553
0.588544
0.599516
0.661985
0.645198
2.69903
2.25315
2.63396
1.77398
2.12183
2.75874
2.20544
2.39096
1.82454
2.23212
1.22507
1.22503
1.225
1.225
0.379707
0.376091
0.38326
0.372472
0.389736
0.414341
0.393087
0.411615
0.499824
0.448712
0.445818
0.501528
0.574119
0.667494
0.574151
0.670347
0.94619
0.78357
0.792304
0.922872
1.13666
1.26146
1.08454
1.36682
1.97032
1.45913
1.63171
1.69616
2.37176
2.38146
2.02371
2.66152
1.225
1.225
1.225
1.225
1.225
1.225
1.225
1.225
1.225
1.225
1.225
1.225
1.225
1.225
1.225
1.225
1.225
2.50318
2.38753
2.29119
1.24127
1.22513
1.22536
1.22503
1.22501
1.225
1.22501
1.225
1.225
1.225
1.225
1.225
1.225
1.225
1.225
1.225
0.402208
0.369759
0.3869
0.374357
0.361778
0.393189
0.379274
0.475292
0.414044
0.467902
0.453678
0.42335
0.408167
0.452049
0.672165
0.73241
0.740351
0.678072
0.720826
0.781334
0.753462
0.586731
0.586173
0.524541
0.568214
0.506928
0.509792
0.573657
0.372958
0.377394
0.369318
0.393343
0.397525
0.40669
0.40165
0.356122
0.360573
0.364175
0.348545
0.353373
0.354679
0.359954
0.370769
0.385564
0.382388
0.36187
0.379117
0.368454
0.38615
0.708366
0.711358
0.647431
0.698676
0.631414
0.637867
0.704941
0.377546
0.404842
0.393893
0.405675
0.422666
0.437599
0.416545
0.353636
0.358125
0.357871
0.344684
0.349453
0.351821
0.356426
0.407983
0.448431
0.458142
0.408842
0.455221
0.417708
0.467584
0.523785
0.43592
0.421637
0.46407
0.451659
0.49643
0.473191
0.505576
0.597646
0.521819
0.517451
0.58682
0.534829
0.611209
0.539006
0.584187
0.646984
0.518395
0.579232
0.552871
0.61468
0.366937
0.359094
0.385632
0.384363
0.378051
0.385073
0.366203
0.35326
0.36382
0.354061
0.359934
0.369764
0.356862
0.361977
0.858948
0.902993
0.869508
0.791902
0.805695
0.843501
0.807248
0.415691
0.41307
0.409403
0.455995
0.460461
0.415758
0.45597
0.51685
0.514964
0.579927
0.580433
0.51677
0.51065
0.572636
0.643688
0.762028
0.678179
0.656629
0.728025
0.6899
0.769502
0.662861
0.708397
0.772393
0.71094
0.642807
0.677656
0.743937
0.383577
0.393545
0.370799
0.381916
0.392109
0.404511
0.37293
0.84894
0.771923
0.779696
0.840422
0.770185
0.777869
0.854138
0.404929
0.541311
0.985528
2.22362
0.457102
0.504527
0.422883
0.548423
0.848813
0.704277
1.0266
1.85958
1.38512
2.27613
0.414423
0.459877
0.408449
0.464592
0.467781
0.415711
0.406656
0.425572
0.47711
0.508446
0.448942
0.480419
0.426251
0.448831
0.545161
0.553038
0.485707
0.616742
0.486059
0.623897
0.542916
0.62863
0.714422
0.867406
0.730934
0.725677
0.623545
0.740452
1.07701
1.06224
0.868798
1.25292
0.886249
1.32627
1.04277
1.32483
1.52635
2.14024
1.48119
1.68013
1.25023
1.63494
2.51934
2.73612
1.75362
2.75553
2.01239
3.27052
2.11147
3.1698
2.82613
2.99575
3.16525
3.07693
2.90089
3.53924
2.56948
3.06679
0.698959
1.72388
2.40889
1.23093
1.225
1.225
1.225
0.4825
0.567012
1.31184
2.24836
2.1614
0.915091
0.49772
0.942607
1.13451
0.73078
1.60337
1.77522
1.70481
2.26488
2.27493
2.4192
1.69652
1.27988
1.42764
2.15891
0.866493
1.21551
0.883885
1.23454
1.12637
1.55765
1.25015
1.83874
1.79579
2.13421
1.74828
1.97029
2.2344
1.29074
2.10234
1.22785
1.22576
1.23165
1.53001
1.28738
1.24328
1.225
1.225
1.225
1.225
1.225
1.29321
1.225
1.225
1.22547
1.225
1.225
1.225
1.225
1.225
1.22507
1.225
1.225
2.08983
1.225
1.225
1.22501
1.225
1.225
1.225
1.225
1.225
1.225
1.225
1.225
1.225
1.225
1.225
1.225
1.225
1.225
1.225
1.225
1.225
1.225
1.225
1.225
1.225
1.225
1.225
1.225
1.225
1.225
1.225
1.225
1.225
1.225
1.225
1.225
1.225
1.225
1.225
1.225
1.225
1.225
1.225
1.225
1.225
1.225
1.225
1.225
1.225
1.225
1.225
1.225
1.225
1.225
1.225
1.225
1.225
1.225
1.225
1.225
1.225
1.225
1.225
1.225
1.225
1.225
1.50174
1.22501
1.22506
1.225
1.225
1.225
1.225
1.225
1.225
1.24725
1.225
1.225
2.40473
1.22501
1.225
2.42519
1.2253
1.225
1.225
1.225
1.225
1.225
1.225
1.225
1.225
1.225
1.225
1.22502
1.225
1.225
2.04451
1.225
1.225
1.225
1.225
1.225
1.225
1.225
1.225
1.225
1.225
1.225
1.225
1.225
1.225
1.225
1.225
1.225
1.225
1.225
1.225
1.225
1.225
1.225
1.225
1.225
1.225
1.225
1.225
1.225
1.225
1.225
1.225
1.225
1.225
1.225
1.225
1.225
1.225
1.225
1.225
1.225
1.225
1.225
1.225
0.406376
0.440461
0.444067
0.4096
0.413204
0.434441
0.438979
0.643478
0.646609
0.716886
0.709292
0.719996
0.647647
0.638317
0.797072
0.936805
0.849918
0.804746
0.885726
0.852547
0.939037
0.91414
0.967109
0.959077
0.928438
0.991874
1.02171
0.982424
0.467156
0.474464
0.426897
0.427801
0.48174
0.441204
0.493803
0.600097
0.599372
0.533543
0.551361
0.627603
0.559233
0.631116
0.416455
0.454116
0.475074
0.421998
0.45027
0.439877
0.473117
0.918963
0.882494
0.802355
0.843087
0.883968
0.789812
0.818946
0.741163
0.739834
0.667547
0.704547
0.780867
0.702979
0.776226
0.95109
0.916022
0.986953
0.959162
0.904187
1.01218
0.930949
0.788424
0.795789
0.890932
0.791735
0.803664
0.885359
0.904739
0.454574
0.51091
0.562399
0.47057
0.511013
0.56449
0.515089
0.942957
1.09326
1.01765
1.05743
1.12397
0.969375
1.02833
0.540966
0.624198
0.689302
0.628405
0.695399
0.569703
0.628812
2.44056
1.92478
1.225
1.225
1.225
1.225
1.22504
1.225
1.225
1.225
1.225
1.225
1.225
1.225
1.225
1.225
1.225
1.225
1.225
1.225
1.225
1.225
1.225
1.225
1.225
1.225
1.225
1.225
1.225
1.225
1.225
1.225
1.225
1.225
0.446692
0.490907
0.451605
0.464761
0.426814
0.44923
0.423697
0.452975
0.455873
0.429396
0.421036
0.438902
0.465831
0.493149
0.466087