/*--------------------------------*- C++ -*----------------------------------*\
  =========                 |
  \\      /  F ield         | OpenFOAM: The Open Source CFD Toolbox
   \\    /   O peration     | Website:  https://openfoam.org
    \\  /    A nd           | Version:  9
     \\/     M anipulation  |
\*---------------------------------------------------------------------------*/
FoamFile
{
    format      ascii;
    class       volVectorField;
    location    "0.0029";
    object      U;
}
// * * * * * * * * * * * * * * * * * * * * * * * * * * * * * * * * * * * * * //

dimensions      [0 1 -1 0 0 0 0];

internalField   nonuniform List<vector> 
24205
(
(88.9775 16.129 -17.1818)
(74.7113 72.6646 14.8243)
(131.74 12.5876 14.4741)
(99.0379 -35.1198 -3.67619)
(155.726 -47.5345 35.9517)
(168.842 -35.9702 81.9151)
(152.481 -79.3964 55.6555)
(219.915 -153.293 150.151)
(100.996 8.49216 6.78538)
(163.057 96.4645 74.5821)
(42.2678 215.434 170.638)
(23.2212 165.623 264.925)
(329.399 165.763 43.7851)
(302.973 155.37 122.881)
(371.075 259.505 79.5385)
(349.073 240.828 129.045)
(298.828 149.719 154.308)
(314.324 118.808 250.407)
(346.451 209.566 184.396)
(360.439 161.827 234.544)
(322.843 101.203 269.117)
(322.649 -9.27677 252.948)
(373.058 133.635 214.676)
(314.151 82.432 196.419)
(250.715 -17.1064 187.44)
(98.2631 68.393 47.5849)
(333.298 45.9562 53.1982)
(317.185 52.864 33.2915)
(354.03 145.718 42.2097)
(323.096 162.408 66.5285)
(336.563 47.1976 31.186)
(312.993 51.7629 54.8993)
(346.363 142.654 64.1521)
(324.574 45.5192 80.6409)
(312.689 159.395 93.4894)
(292.447 49.5718 111.514)
(324.667 141.507 121.314)
(302.717 50.7851 82.0066)
(335.23 141.677 91.0439)
(313.606 45.4503 110.368)
(302.596 42.5623 178.599)
(286.503 47.7209 142.66)
(318.586 139.714 154.811)
(299.955 142.063 187.744)
(305.52 44.6213 142.755)
(285.939 44.6784 176.122)
(317.797 135.095 190.668)
(305.37 39.1331 217.161)
(305.949 132.184 221.287)
(298.769 33.9334 244.314)
(329.613 116.189 261.554)
(290.743 40.4052 211.439)
(322.287 127.557 227.316)
(311.821 33.3644 255.365)
(302.858 7.58184 319.177)
(310.227 21.8516 266.916)
(334.56 102.59 290.935)
(334.82 79.451 280.917)
(314.051 23.9378 291.108)
(328.717 5.30931 296.487)
(326.841 85.7551 310.263)
(303.824 -6.3316 364.901)
(343.267 38.391 284.967)
(338.883 -18.8853 297.209)
(320.818 23.4148 339.67)
(346.128 -12.3401 313.317)
(315.87 65.196 333.685)
(315.851 -22.2564 377.771)
(38.4386 162.693 107.983)
(32.4393 164.837 172.253)
(50.8109 138.685 57.3102)
(219.911 -31.3081 184.781)
(256.698 -59.0203 207.878)
(293.858 -17.556 308.863)
(137.818 34.2196 58.0385)
(289.176 -84.0843 336.862)
(129.667 11.0969 50.2587)
(225.322 13.824 194.228)
(451.131 200.842 31.1608)
(180.412 -47.9889 4.22378)
(445.534 114.667 78.5167)
(190.253 -25.687 48.68)
(417.361 58.7606 111.72)
(206.317 89.5868 64.7056)
(427.509 14.6102 183.563)
(206.669 172.744 133.64)
(258.477 60.5225 286.131)
(16.3336 191.499 202.178)
(418.026 214.94 7.62885)
(436.78 408.166 9.30308)
(455.54 165.919 72.2054)
(419.943 207.561 63.5779)
(346.977 436.194 44.6975)
(227.576 404.076 7.05465)
(186.157 -40.5913 41.6114)
(223.627 392.141 36.5874)
(421.667 204.869 69.0046)
(398.061 404.132 70.576)
(425.594 83.5541 80.1701)
(411.758 203.239 61.6861)
(373.002 336.225 103.969)
(209.108 354.032 55.3375)
(204.948 62.3023 56.62)
(194.623 303.651 63.0624)
(404.382 205.001 70.1458)
(368.06 278.492 137.55)
(424.396 27.835 157.181)
(394.789 209.17 125.663)
(288.115 223.262 150.796)
(187.096 246.094 92.0653)
(208.445 151.792 112.704)
(188.245 226.104 120.322)
(337.604 -53.9463 214.504)
(327.229 -37.7787 368.627)
(391.616 212.633 153.198)
(278.684 204.002 176.1)
(386.579 60.2132 316.23)
(312.698 229.842 251.373)
(256.769 197.853 165.781)
(196.979 221.712 149.382)
(166.555 213.9 144.851)
(206.103 227.164 145.161)
(-86.3872 18.8428 2.18133)
(80.446 70.4931 4.58289)
(-9.61394 -107.747 1.71128)
(180.216 -46.9536 13.2286)
(80.3187 69.3424 14.6301)
(-8.15117 -107.383 1.51834)
(-88.4653 19.5692 1.98478)
(-45.519 33.2086 27.3967)
(88.6466 66.9592 47.4547)
(10.3636 -87.1765 25.8357)
(196.14 -0.565337 50.5927)
(-61.7733 25.3627 21.4799)
(96.9085 77.0862 47.6771)
(23.0148 -70.7054 32.9955)
(18.8453 85.0333 64.2164)
(119.628 132.523 63.6534)
(60.8259 -1.93435 56.6817)
(206.946 112.441 77.4378)
(4.32575 70.833 53.9154)
(124.476 149.326 77.4793)
(70.0568 21.2801 64.8786)
(51.3273 164.298 119.326)
(139.424 196.751 135.893)
(83.6129 86.8478 101.854)
(206.639 190.761 155.192)
(42.8776 140.32 105.465)
(144.597 210.735 156.908)
(85.5962 112.93 112.448)
(230.353 104.621 446.642)
(235.372 256.782 351.975)
(88.1792 102.383 377.198)
(125.69 168.72 317.989)
(114.857 215.36 290.376)
(230.267 195.401 250.358)
(177.523 187.149 87.1103)
(79.5044 127.893 90.5644)
(152.588 173.628 174.907)
(497.08 336.883 28.7757)
(533.869 195.502 9.07543)
(333.784 277.62 8.04387)
(415.564 216.597 24.6782)
(529.997 198.533 27.9952)
(331.992 278.972 26.1715)
(498.818 333.623 9.19859)
(499.483 330.357 50.8941)
(417.391 212.367 47.7154)
(531.02 175.289 66.2201)
(333.388 262.402 64.9613)
(531.457 190.974 50.443)
(333.111 273.147 49.1118)
(500.248 314.126 66.2822)
(-82.3819 18.435 9.30219)
(182.592 -47.364 29.4737)
(83.8975 63.7051 41.855)
(1.33767 -98.3432 16.4372)
(81.6536 65.5572 30.3946)
(-5.19402 -105.837 9.70425)
(-73.5642 20.9157 13.8815)
(487.778 275.937 69.092)
(523.5 157.758 71.0819)
(332.602 251.947 70.7267)
(422.466 203.316 64.717)
(495.629 294.853 72.3549)
(511.287 141.12 65.9459)
(333.2 243.72 66.2635)
(477.501 258.985 65.6702)
(418.575 202.505 59.2917)
(482.662 118.381 63.8536)
(331.718 234.847 62.6729)
(496.389 128.132 61.7492)
(333.181 238.334 60.398)
(466.846 244.499 69.3894)
(-28.1884 44.0299 35.7911)
(201.532 31.1206 51.3586)
(114.03 113.635 54.4338)
(49.1302 -26.2437 49.2754)
(106.315 94.0277 49.1668)
(36.3301 -49.8137 41.5919)
(-11.5454 56.9836 44.7468)
(454.855 218.945 100.863)
(473.092 110.693 74.0516)
(329.189 232.114 71.361)
(398.722 206.938 85.0049)
(459.323 231.203 81.9947)
(467.88 103.266 89.3988)
(327.485 229.77 86.9901)
(452.349 207.148 122.159)
(395.119 208.262 103.4)
(463.206 88.765 128.825)
(328.548 226.281 130.856)
(464.674 96.1207 107.518)
(326.935 227.816 106.7)
(451.336 196.599 145.372)
(28.6042 101.315 76.1905)
(207.425 132.369 93.5978)
(134.665 180.594 114.208)
(81.4401 64.0278 88.3635)
(128.972 164.9 94.4331)
(76.2412 43.0922 75.5768)
(35.6105 119.949 89.8579)
(296.292 -67.2226 224.68)
(290.49 -98.5712 206.701)
(374.088 -44.0965 175.22)
(342.734 -71.4548 252.309)
(297.938 -58.3397 182.978)
(291.386 -111.935 249.391)
(372.419 -54.1145 214.959)
(313.415 -33.8694 193.034)
(417.513 -24.7157 154.215)
(315.236 -34.3077 149.071)
(415.072 -28.6027 195.197)
(293.235 -63.8356 284.018)
(342.508 -67.5968 305.049)
(282.395 -83.3873 376.195)
(346.965 -26.2484 352.225)
(291.866 -108.698 307.78)
(365.771 -48.9635 271.418)
(281.012 -48.7691 368.402)
(302.337 -29.4074 258.713)
(363.727 2.56043 366.504)
(399.446 -22.5896 253.677)
(280.236 -15.5705 388.374)
(440.334 187.793 208.609)
(459.853 86.1101 155.01)
(326.424 227.137 160.051)
(388.744 214.987 192.266)
(446.156 190.538 171.576)
(458.975 88.655 195.915)
(322.228 227.657 198.905)
(417.616 187.408 251.152)
(364.755 218.901 232.77)
(402.619 116.042 334.815)
(248.681 231.607 238.029)
(443.411 93.9319 253.122)
(295.259 228.938 233.415)
(371.548 197.753 287.603)
(60.0523 190.122 125.767)
(195.514 203.537 166.184)
(126.21 230.155 153.68)
(74.1077 180.814 92.0341)
(140.313 220.84 167.037)
(81.1117 141.287 114.914)
(65.6685 220.279 116.856)
(323.595 138.586 415.117)
(219.112 270.074 402.293)
(205.399 276.847 286.643)
(270.351 127.521 452.927)
(199.34 291.041 328.462)
(224.331 221.246 433.359)
(245.297 223.869 391.524)
(16.3669 230.654 226.424)
(-7.09047 225.331 215.472)
(-15.4747 225.613 233.556)
(64.3604 186.381 210.677)
(42.3856 238.916 189.732)
(20.6053 228.487 205.717)
(21.4319 190.399 160.577)
(298.335 213.342 298.578)
(222.737 249.61 270.959)
(330.212 191.585 364.783)
(208.198 248.25 222.52)
(176.83 264.484 248.385)
(246.594 223.218 332.914)
(173.79 236.477 190.764)
(0.0152539 0.147522 0.166636)
(-12.0644 157.545 187.795)
(-10.3066 159.13 270.299)
(319.628 135.237 9.63754)
(321.469 123.382 44.4009)
(320.099 109.461 57.8375)
(295.42 88.6056 103.865)
(294.143 86.3562 129.052)
(314.918 59.2484 235.224)
(287.896 -19.2338 260.238)
(296.832 -44.5512 410.498)
(327.066 42.8178 273.567)
(314.996 2.48126 419.469)
(298.436 -22.422 427.505)
(171.13 45.6143 156.396)
(133.198 -93.1926 470.186)
(282.562 -31.458 453.414)
(106 100.823 294.535)
(120.753 111.468 206.946)
(320.584 48.2607 9.33996)
(286.116 66.8337 9.50642)
(345.692 136.716 8.97486)
(319.5 139.804 21.1411)
(287.332 69.5956 9.28582)
(347.074 140.253 15.8912)
(319.293 46.7412 8.89995)
(323.471 47.5408 11.1359)
(320.506 135.559 34.0611)
(289.874 62.2533 18.9224)
(351.475 130.071 31.6842)
(288.695 68.3866 12.7507)
(349.183 137.683 24.36)
(327.948 44.6361 15.1779)
(326.204 39.3084 49.4422)
(290.032 55.3636 34.7637)
(349.393 122.923 45.0107)
(311.164 98.129 70.4494)
(329.76 41.8841 28.6736)
(285.145 47.6814 55.0429)
(340.401 118.148 61.808)
(318.622 38.3927 75.7558)
(301.137 91.4447 84.8425)
(276.073 41.5454 104.135)
(322.432 117.231 110.007)
(279.5 42.8458 78.5325)
(330.004 116.687 83.3261)
(310.446 38.6847 105.318)
(304.604 37.369 175.703)
(276.245 40.3929 133.072)
(319.78 116.488 142.121)
(296.837 81.4176 160.47)
(305.387 38.8295 138.62)
(278.774 36.4034 166.842)
(322.071 112.557 178.589)
(308.08 33.8017 215.729)
(304.07 72.4754 196.739)
(291.256 19.8196 246.478)
(339.05 94.4188 256.105)
(284.096 29.7247 205.264)
(329.075 105.36 217.518)
(314.641 27.2579 256.634)
(311.089 -3.07915 337.512)
(295.388 4.8839 290.026)
(346.696 82.0749 292.97)
(336.439 21.9016 313.917)
(318.489 14.8578 297.256)
(294.969 -14.117 337.932)
(345.66 67.1127 326.318)
(290.158 -14.4094 386.524)
(332.717 8.66266 364.842)
(273.631 -33.2012 457.072)
(309.412 26.8286 394.38)
(285.674 -23.5405 396.501)
(329.052 52.7766 362.119)
(285.59 -30.5429 428.194)
(222.974 -90.3185 320.332)
(248.745 20.4564 290.811)
(264.15 -98.2742 242.584)
(297.423 -43.6787 299.707)
(208.974 -66.5061 275.123)
(255.409 -0.121671 339.011)
(272.81 -119.991 285.503)
(230.696 -102.796 376.612)
(301.495 -53.7959 350.984)
(244.231 -19.8166 462.708)
(271.709 -104.611 399.814)
(252.451 -13.0212 395.433)
(278.109 -124.956 340.487)
(226.834 -102.473 443.656)
(268.116 -59.6931 321.929)
(284.522 -83.6677 469.512)
(297.878 -16.6403 382.424)
(272.197 0.624957 402.69)
(283.95 -94.5793 417.091)
(274.499 -59.6892 418.969)
(267.825 5.52216 322.867)
(255.109 -56.4452 488.964)
(257.786 -73.4799 455.593)
(253.881 -2.63603 444.961)
(226.62 -92.4111 482.963)
(244.617 -41.4827 468.833)
(217.02 -58.6585 475.014)
(231.942 -27.3497 464.011)
(23.8929 152.928 158.629)
(12.8906 202.468 193.713)
(-16.4391 205.554 222.502)
(-0.78357 156.084 176.811)
(15.122 151.796 125.781)
(59.4773 163.397 186.042)
(52.5143 156.336 124.928)
(-63.5997 93.4671 6.55352)
(-45.3738 108.04 1.74012)
(-62.9822 104.338 16.8012)
(-31.1545 79.0735 14.8706)
(-62.8616 143.565 42.4737)
(-4.00622 11.1344 3.9472)
(-52.3341 185.709 80.0998)
(-0.31813 1.19946 0.53431)
(106.859 253.254 144.077)
(9.27196 75.9563 12.3016)
(0.000412852 0.00118773 0.000462187)
(0.00124893 0.0043503 0.0023944)
(-32.5072 50.0015 5.35434)
(-51.977 238.486 8.09627)
(-26.371 61.112 9.18997)
(-44.9609 233.815 15.5757)
(-77.9286 61.732 3.9213)
(-97.8568 107.273 2.62534)
(-84.9988 68.6825 13.6186)
(-97.936 108.095 13.035)
(-21.9931 66.891 17.3187)
(-14.3424 207.223 29.3896)
(-7.3837 99.3487 36.5032)
(37.5596 186.692 55.3156)
(-87.8639 71.3848 18.7099)
(-95.9959 105.242 22.7823)
(-1.52153 111.746 42.4327)
(72.07 196.189 72.6321)
(10.717 173.4 81.3337)
(94.3723 206.939 101.675)
(9.01453 189.642 94.6723)
(121.222 235.472 131.889)
(8.66265 168.658 53.9573)
(121.884 204.542 107.419)
(117.044 269.603 210.7)
(23.7213 162.441 10.6546)
(87.6312 289.696 204.088)
(58.1267 246.106 123.218)
(-22.6212 202.832 9.52466)
(-78.8451 145.952 3.58621)
(12.0315 188.632 6.48607)
(-64.1191 101.844 10.1053)
(-18.1617 199.89 17.4812)
(-79.1971 150.312 15.789)
(16.5789 195.638 22.0961)
(2.24397 185.971 31.3061)
(-78.6433 152.507 28.0971)
(26.2037 202.424 39.2598)
(-60.7227 127.716 34.1224)
(40.4171 190.225 58.7691)
(-84.1713 156.572 39.7571)
(40.6102 216.361 59.5401)
(64.2034 213.876 86.5215)
(-81.2432 161.542 54.5361)
(43.8973 180.614 67.6346)
(-58.6124 188.744 78.8321)
(82.8258 227.77 117.08)
(-61.5476 137.262 57.579)
(26.6616 85.8908 41.9568)
(74.792 177.59 98.9381)
(-21.1209 57.394 27.9766)
(2.88049 7.66881 3.87101)
(-12.0362 94.1499 25.1213)
(24.6098 43.1787 23.0679)
(-1.45544 6.9066 2.91319)
(0.0471549 0.0998891 0.0453523)
(165.535 204.379 85.8518)
(22.5848 165.064 27.8555)
(93.4528 131.925 51.9474)
(96.6453 237.683 129.448)
(35.6599 88.2248 44.0581)
(-102.14 51.4084 0.605868)
(-48.8881 -36.2446 3.59975)
(-75.9443 90.6069 4.82037)
(-31.8214 52.1495 2.70897)
(-47.9769 -35.5386 1.95978)
(-74.1893 91.888 1.89582)
(-103.693 51.8167 2.79757)
(-97.4379 51.7685 5.30341)
(-30.1183 54.9656 6.83719)
(-39.3504 -26.2154 10.0197)
(-59.2188 96.1592 8.01594)
(-45.2455 -33.2156 7.04791)
(-69.3794 93.5855 6.05552)
(-86.6023 53.6899 7.48967)
(-87.1399 23.9237 5.53064)
(-62.8519 31.0816 2.25972)
(-83.5679 47.3476 3.68613)
(-80.1095 64.3288 6.24028)
(-64.2937 32.1832 5.40524)
(-85.7494 50.4011 6.97763)
(-86.3085 22.5647 2.11357)
(-87.9589 25.5275 8.91941)
(-81.9205 65.8897 10.1108)
(-69.5516 34.0286 11.8453)
(-92.9406 56.6039 15.473)
(-66.3971 32.9076 8.48345)
(-88.5272 52.6355 11.3684)
(-89.1716 28.157 12.5118)
(-55.8742 61.1843 21.8942)
(-31.4752 -18.485 18.5313)
(-48.3235 98.3872 15.8116)
(-16.3657 76.8243 23.7807)
(-73.0459 55.7122 15.0867)
(-20.5386 -6.80028 25.5448)
(-35.1806 104.079 22.198)
(-39.5426 69.7285 31.3152)
(-11.9212 88.0574 30.6578)
(0.215615 21.3575 42.0264)
(-13.2067 121.012 37.7615)
(-9.6464 6.8638 34.1272)
(-23.4682 111.754 30.215)
(-25.0932 79.5808 40.7205)
(-90.4676 34.6597 19.988)
(-72.7177 35.2668 15.6497)
(-97.653 61.432 20.834)
(-91.5222 75.5242 23.2125)
(-90.0432 31.3325 16.3843)
(-75.4557 36.5758 19.1578)
(-103.086 67.8999 25.7756)
(-2.99004 102.48 58.6666)
(9.13202 35.3431 49.0677)
(-3.65973 132.427 45.6759)
(3.79237 128.113 51.0339)
(-13.0066 90.3075 49.5181)
(17.0537 49.9795 56.7224)
(5.06139 147.334 56.1521)
(7.50187 116.499 69.9518)
(8.48923 149.464 64.2018)
(31.8529 87.9368 78.2582)
(16.7615 193.31 89.9042)
(24.2587 66.9998 66.5321)
(12.5496 167.513 70.8291)
(17.7315 135.568 83.8393)
(32.7159 197.812 112.754)
(39.4683 118.938 91.6365)
(17.947 211.965 105.174)
(8.22276 192.134 95.5112)
(25.9309 164.101 99.211)
(41.0116 158.123 102.706)
(19.121 214.006 107.076)
(33.0011 217.558 111.344)
(8.01774 180.03 85.0156)
(26.3575 193.926 72.3905)
(23.6111 184.127 71.6898)
(31.4974 186.222 100.534)
(20.8586 203.051 98.113)
(37.6802 217.436 94.1806)
(79.71 284.43 106.06)
(134.358 298.526 262.007)
(50.168 224.933 103.705)
(125.326 289.14 168.377)
(66.2635 232.594 129.231)
(130.873 311.997 201.565)
(77.8869 268.272 89.6189)
(58.6414 253.157 48.1115)
(36.2049 206.883 36.8814)
(29.4993 170.162 8.81725)
(41.2885 180.213 21.8971)
(44.4272 215.802 43.0206)
(61.2578 235.07 43.4174)
(38.4715 198.759 21.8143)
(-70.7828 127.05 7.16686)
(-78.4294 95.733 5.24579)
(-64.2298 96.3182 4.24069)
(-69.1079 129.932 4.37642)
(-78.9507 100.134 7.38397)
(-53.3319 142.594 8.07669)
(-54.0215 137.58 6.48378)
(-50.8373 135.687 17.7123)
(-81.3014 111.989 22.766)
(-61.4738 110.086 22.1941)
(-41.714 141.623 23.4262)
(-81.856 120.974 28.308)
(-44.2548 161.764 32.2975)
(-47.6797 152.848 25.6068)
(-18.7482 176.823 51.3064)
(-85.2948 162.4 52.3505)
(-63.9469 162.725 54.8024)
(-13.1497 195.576 67.3394)
(-83.6687 171.469 61.8672)
(-26.4039 212.681 77.2302)
(-31.8369 202.929 63.9303)
(0.83543 213.661 99.174)
(-52.9869 136.979 63.6873)
(-45.2594 167.935 72.5529)
(5.09159 194.368 91.2299)
(-31.0686 92.9473 44.1882)
(0.941281 119.854 60.3882)
(-4.6317 172.197 82.8259)
(123.316 255.407 141.854)
(56.8807 229.926 82.7313)
(112.254 273.55 149.091)
(84.3679 241.307 99.0346)
(83.8647 253.859 92.5994)
(110.806 244.014 99.4316)
(130.974 257.917 132.858)
(3.07944 5.09293 2.07785)
(0.231225 1.81488 0.325193)
(0.00452121 0.0110873 0.00453672)
(5.69541 14.455 6.80488)
(0.29211 0.589539 0.231028)
(0.0627153 0.175613 0.0755379)
(0.00415813 0.00883364 0.00417544)
(43.0681 229.468 176.774)
(20.9037 99.3665 72.519)
(13.832 106.971 87.6229)
(0.0696532 0.290289 0.202477)
(-64.1969 98.1851 7.60557)
(-58.0517 133.782 10.4371)
(-80.5514 106.723 16.4593)
(-65.57 131.537 8.46366)
(-79.5041 102.221 12.4988)
(-52.0746 144.266 14.083)
(-50.0587 148.169 18.5048)
(-60.2649 117.379 28.0981)
(-25.6822 161.768 39.87)
(-84.3214 147.691 42.9491)
(-33.4365 150.2 31.1456)
(-82.7833 132.717 34.9004)
(-40.4612 173.63 40.7274)
(-36.3196 188.139 51.2539)
(-62.1553 180.916 68.7325)
(-4.29197 219.647 97.6529)
(-68.4018 160.883 70.7306)
(-9.06529 213.601 85.4822)
(-78.4972 170.365 69.8996)
(-19.384 211.339 88.0989)
(-12.5002 199.886 90.461)
(-30.8163 132.377 54.7006)
(9.47137 100.796 39.6093)
(-2.35694 19.9543 5.36628)
(8.68074 153.68 71.7268)
(-11.154 44.6404 19.72)
(2.19371 57.057 27.9877)
(1.66905 21.3119 8.42915)
(36.4589 208.984 47.4829)
(39.6627 161.016 45.821)
(45.3265 162.451 33.1384)
(59.4659 217.365 68.8844)
(64.644 224.16 55.8361)
(85.2521 213.14 67.7517)
(53.1087 133.329 39.6945)
(26.7083 198.656 4.35734)
(-2.75935 7.98118 0.102561)
(2.17631 14.4005 0.19335)
(-41.4874 101.187 10.548)
(29.0028 198.151 22.7979)
(-2.05516 6.03971 0.696372)
(1.67925 10.5047 1.25726)
(31.837 186.972 38.1461)
(-0.950887 2.90919 0.589189)
(0.849144 4.64995 0.976001)
(-16.0072 41.6041 11.3887)
(13.7061 68.0617 20.0587)
(-0.280232 0.907021 0.242113)
(0.265519 1.22951 0.339008)
(3.98896 15.6277 5.88927)
(-0.05019 0.173551 0.0514939)
(0.0500405 0.184177 0.0576261)
(-0.489301 1.59439 0.651061)
(0.46773 1.55665 0.675881)
(-0.00112004 0.00916453 0.00381753)
(0.00177146 0.0065112 0.00253717)
(0.0347494 0.0921726 0.0395041)
(-0.000226144 0.00466887 0.00153512)
(0.0011214 0.00492538 0.00192864)
(-0.014772 0.106513 0.0393903)
(0.00569592 0.0136069 0.00598019)
(3.0092e-05 0.00179068 0.000674623)
(0.000358242 0.00143063 0.000559386)
(-0.00148373 0.0125848 0.000392306)
(-0.000398501 0.00523046 0.000856684)
(-5.05098e-06 0.000275628 0.000111249)
(4.19141e-06 0.000130939 4.69386e-05)
(2.43025 15.0705 16.8805)
(38.424 233.759 190.117)
(114.456 225.052 79.7886)
(86.4142 179.166 57.4282)
(36.7263 175.196 133.405)
(70.2339 235.057 112.544)
(43.0322 179.005 105.12)
(66.8203 232.264 157.275)
(70.952 223.967 107.138)
(47.7566 241.583 175.345)
(44.7752 204.779 133.246)
(29.1878 203.241 179.747)
(15.5549 156.813 171.393)
(23.571 149.979 107.913)
(43.8734 140.328 69.4476)
(75.7906 204.168 14.0951)
(95.6661 177.979 50.2253)
(147.808 212.788 107.414)
(81.5694 128.618 79.2375)
(0.00187913 0.00308307 0.00110349)
(17.8854 74.3987 55.5846)
(108.387 210.237 76.0527)
(25.1401 44.9377 18.4456)
(154.773 166.271 6.68742)
(47.446 192.144 6.45136)
(124.748 171.544 13.3953)
(77.3326 199.793 24.5469)
(162.435 171.025 27.8042)
(52.6699 198.666 23.8435)
(113.469 153.659 30.15)
(173.95 174.156 49.9664)
(62.3918 204.951 42.3796)
(102.068 135.342 34.1214)
(105.738 180.067 60.1608)
(185.756 183.676 75.0784)
(76.9258 215.094 63.5528)
(55.8625 69.8179 26.1271)
(176.225 175.103 92.0994)
(64.5381 159.252 62.9113)
(8.60739 11.5648 5.42473)
(122.119 216.141 120.497)
(50.2001 48.3536 34.3143)
(23.9401 47.9882 25.1023)
(0.12102 0.165524 0.0863524)
(2.14565 2.02757 1.47995)
(1.49884 2.93677 1.47466)
(0.0250057 0.0332523 0.0172974)
(10.1845 13.9764 7.6512)
(0.0875921 0.0873087 0.0492088)
(0.0159646 0.0320462 0.0148355)
(0.00504157 0.00672399 0.00295873)
(0.0456525 0.168677 0.108204)
(64.8422 214.259 141.739)
(52.3204 155.269 74.6519)
(2.31376 6.53776 3.75424)
(1.59187 4.77215 2.11421)
(4.97445 20.2058 11.6503)
(0.321963 1.15957 0.526057)
(1.41752 2.26784 0.31693)
(0.0498193 0.0870304 0.0185594)
(0.00231166 0.00413685 0.00114923)
(0.000317441 0.000629749 0.000222847)
(3.19251e-06 3.23014e-05 1.04348e-05)
(1.52608e-05 0.000532526 4.46151e-05)
(1.41385e-06 3.73533e-05 2.15732e-06)
(1.10718e-05 0.00023324 5.54123e-05)
(5.55235e-07 1.08514e-05 2.96058e-06)
(2.09557e-06 4.38564e-05 1.27876e-05)
(1.00096e-07 2.30879e-06 6.93431e-07)
(3.85628e-07 1.25746e-05 3.50667e-06)
(6.89788e-09 4.50695e-07 1.32368e-07)
(5.82238e-08 1.68393e-06 4.70779e-07)
(5.2616e-10 7.56342e-08 1.9115e-08)
(6.78832e-05 0.000242338 9.61715e-05)
(1.95848e-06 1.07024e-05 3.16934e-06)
(5.74733e-08 4.49198e-07 1.1429e-07)
(1.32443e-09 1.7311e-08 4.12685e-09)
(33.2182 34.3586 5.88093)
(12.6619 13.3706 4.04389)
(1.60513 1.94766 0.926437)
(0.00522283 0.00613779 0.00312371)
(0.718733 3.49231 2.13615)
(0.000217622 0.000910167 0.000537166)
(3.75383e-06 2.12543e-05 1.12711e-05)
(1.67982e-07 1.182e-06 4.87051e-07)
(5.70661e-09 5.43673e-08 1.9176e-08)
(1.53713e-10 2.20231e-09 7.28045e-10)
(118.779 -212.393 303.663)
(102.913 -213.846 398.093)
(84.3612 -211.586 387.847)
(99.7249 -202.631 338.548)
(82.0557 -198.326 330.81)
(133.762 -125.591 352.498)
(160.327 -70.2771 310.091)
(125.009 -106.724 301.003)
(166.516 -83.5211 368.39)
(7.18029e-05 0.00019934 5.44801e-05)
(8.42803e-05 0.000240137 1.79491e-05)
(3.87917e-06 1.03941e-05 6.38458e-07)
(2.55537e-05 7.13411e-05 1.6012e-05)
(1.41973e-06 3.61331e-06 9.76141e-07)
(6.01929e-06 1.5542e-05 4.66051e-06)
(3.44827e-07 9.47835e-07 2.74756e-07)
(1.28107e-06 3.98262e-06 1.14905e-06)
(5.27278e-08 1.93298e-07 5.4353e-08)
(2.14581e-07 1.0704e-06 2.64737e-07)
(8.85001e-09 4.62957e-08 1.08202e-08)
(0.0237743 0.0418796 0.000624212)
(0.00035573 0.000790183 0.000124859)
(4.73885e-05 0.000112016 2.55054e-05)
(2.60162e-05 6.92636e-05 2.36568e-05)
(5.29484e-06 2.31294e-05 6.13548e-06)
(-44.9868 49.235 228.047)
(-169.706 179.073 88.994)
(-121.771 160.713 201.538)
(-139.324 188.895 242.546)
(-132.995 165.139 161.66)
(-142.827 196.239 210.635)
(-149.084 178.845 123.259)
(-159.281 217.664 163.401)
(-59.2395 80.112 72.2031)
(-12.4578 16.6538 14.5893)
(-0.00206858 0.00254004 0.00404005)
(-392.989 493.595 24.075)
(-394.394 483.673 43.1945)
(-346.753 414.382 70.8911)
(-350.04 355.695 96.1319)
(-349.403 290.909 116.064)
(-376.136 228.904 160.93)
(-373.597 113.042 207.501)
(-384.441 87.7182 233.528)
(-279.515 107.807 151.675)
(-46.2435 41.1254 30.4639)
(-147.468 102.313 27.0002)
(-151.206 155.745 85.0154)
(-135.844 53.7398 59.9288)
(-125.233 49.9489 28.4308)
(-137.48 94.319 6.79336)
(-169.464 -109.027 159.098)
(-162.02 28.0693 88.0258)
(-141.254 68.3182 33.64)
(-165.996 -45.4079 85.0514)
(145.73 -97.4716 81.6439)
(129.338 -129.115 102.697)
(134.508 -52.856 88.5625)
(108.692 -86.2949 91.5894)
(120.92 -146.861 143.197)
(103.464 -91.0391 100.839)
(41.7401 -33.7483 87.3541)
(58.0194 -43.1755 85.5405)
(133.6 -33.9945 87.7476)
(125.618 -71.3678 90.696)
(48.9385 -24.4329 85.4934)
(49.3706 -61.1125 89.0951)
(123.824 -43.4667 87.9798)
(32.7904 -20.6222 71.8044)
(126.348 -19.3949 77.3008)
(37.6537 -16.8573 76.8923)
(118.154 -22.7095 70.618)
(34.716 -38.8088 84.2211)
(116.371 -81.0617 88.5042)
(34.7882 -75.5764 91.2202)
(104.916 -51.2012 83.2922)
(41.1893 -70.3256 88.2342)
(113.755 -48.4364 83.6134)
(28.0507 -41.866 83.2557)
(27.7353 -23.378 64.1939)
(102.888 -26.3476 59.5469)
(109.695 -24.6592 62.3266)
(23.9863 -25.7232 60.8515)
(21.3031 -51.504 99.5612)
(31.0078 -80.6007 100.021)
(99.1532 -53.6781 89.8067)
(99.5862 -98.4366 115.723)
(24.0179 -45.1292 89.224)
(28.4604 -88.7422 114.163)
(95.0547 -59.1171 101.315)
(18.2966 -27.6416 73.9703)
(98.3925 -27.3827 65.002)
(21.1111 -26.0653 64.2352)
(95.8371 -29.0122 76.2637)
(222.992 27.3531 11.949)
(207.881 -42.8576 81.6014)
(173.558 -87.2524 95.9217)
(166.553 -131.593 189.87)
(143.583 -11.5779 473.151)
(335.855 161.955 10.8396)
(213.677 -14.6649 71.0135)
(336.573 126.357 74.7237)
(336.974 93.8314 84.4638)
(179.429 -81.6234 84.9838)
(323.053 30.937 94.2987)
(321.623 18.304 109.094)
(165.774 -118.4 158.363)
(330.434 -32.5065 183.822)
(165.415 -125.094 374.256)
(306.728 12.1716 31.1425)
(281.025 43.3191 11.0379)
(231.277 8.81911 11.9813)
(216.178 25.4575 32.14)
(274.821 43.0635 31.4705)
(225.543 8.3891 32.567)
(312.355 12.5917 11.2184)
(284.987 -43.6129 72.7468)
(274.283 -33.7731 79.6982)
(215.171 -30.5911 79.1786)
(198.205 -64.0301 82.2217)
(296.844 -31.6131 75.2103)
(265.703 -56.7193 79.6752)
(204.78 -40.9283 77.9191)
(244.602 -61.7119 100.223)
(240.252 -83.6384 97.1958)
(176.006 -51.4666 84.5848)
(169.178 -95.2431 112.12)
(250.955 -56.8823 84.5561)
(235.862 -92.1376 115.454)
(170.554 -57.503 97.3588)
(233.488 -92.0173 217.149)
(233.728 -128.758 198.083)
(164.532 -84.9554 162.915)
(166.794 -142.51 234.16)
(235.792 -85.5264 172.478)
(233.38 -140.455 242.229)
(163.55 -91.6124 207.565)
(138.789 210.152 470.237)
(87.8961 213.168 362.35)
(367.831 57.6581 31.0302)
(314.753 97.4395 10.6943)
(419.544 116.729 10.1285)
(331.89 165.1 32.417)
(309.204 98.9645 31.8341)
(415.236 118.94 31.1281)
(373.595 56.0656 10.8678)
(321.5 -7.76103 29.0874)
(238.337 -2.86438 11.8672)
(232.062 -3.0362 31.6361)
(327.375 -8.6264 10.8486)
(395.605 5.78239 27.7091)
(498.646 43.5889 8.89981)
(494.874 44.7297 27.2546)
(401.077 3.84263 9.7539)
(306.393 2.9126 52.8234)
(215.873 12.2573 55.0647)
(277.812 -1.16283 70.6375)
(221.594 -15.8474 70.5532)
(276.569 28.8647 54.7526)
(224.399 -0.0452067 54.8815)
(303.983 -14.8388 67.8233)
(368.98 48.9168 54.194)
(333.804 153.811 57.4144)
(316.03 54.8962 72.6431)
(424.909 82.0741 72.0105)
(311.811 85.374 55.8304)
(419.141 107.482 55.316)
(368.949 29.9541 70.3584)
(320.053 -11.8319 48.715)
(223.785 -14.4237 63.0175)
(229.019 -8.2793 51.5588)
(315.776 -17.3262 60.5909)
(395.503 1.94025 48.4604)
(495.222 30.4945 63.5816)
(496.502 41.1386 48.8847)
(393.29 -6.54744 62.5305)
(350.779 -3.83204 74.4079)
(316.741 20.2617 81.1068)
(423.757 54.7563 78.4492)
(332.593 66.1563 85.8136)
(362.623 11.0086 77.1614)
(310.703 -6.82031 82.5417)
(415.794 32.6315 75.0386)
(293.318 -22.9166 53.9636)
(214.217 -19.8047 63.2751)
(305.75 -20.9568 61.48)
(203.479 -23.8543 56.0183)
(371.597 -21.1624 60.1092)
(487.139 18.9077 67.806)
(383.868 -14.5342 66.3137)
(475.439 8.89785 62.261)
(271.595 -49.8218 69.3002)
(187.828 -75.2298 80.3741)
(246.547 -76.6541 84.5272)
(183.105 -48.241 76.0527)
(255.324 -68.6675 78.6247)
(193.125 -45.4864 73.9296)
(259.74 -53.7202 73.4681)
(336.598 -13.1202 72.1557)
(326.582 46.0548 86.7423)
(294.639 -35.1877 89.6898)
(393.821 7.52673 74.7459)
(301.926 -23.9353 82.8277)
(404.677 17.5929 71.3542)
(323.915 -19.229 77.4604)
(279.634 -24.8567 49.9083)
(183.322 -26.5536 51.5232)
(192.311 -26.3511 51.0006)
(267.905 -25.5814 52.916)
(356.772 -24.9803 56.718)
(445.954 -2.17082 62.0554)
(460.376 2.317 58.5033)
(343.233 -27.4385 60.5897)
(307.836 -30.6492 107.606)
(290.123 -43.9314 103.164)
(385.423 -0.42652 86.271)
(321.867 4.4958 129.835)
(314.448 -24.3828 90.1194)
(287.521 -54.0304 122.068)
(380.04 -9.36489 103.101)
(251.566 -28.5393 78.4812)
(177.299 -26.9662 58.3986)
(258.442 -26.7498 63.0546)
(172.293 -28.3905 71.565)
(325.174 -32.4102 86.6072)
(434.653 -6.16339 73.1631)
(332.53 -29.9763 71.6273)
(427.455 -10.0971 88.8033)
(240.478 -68.5673 119.487)
(166.495 -105.735 133.108)
(233.136 -115.614 165.34)
(165.598 -75.2555 134.728)
(233.457 -102.639 138.409)
(166.968 -65.6059 114.097)
(238.469 -77.2196 142.464)
(303.438 -38.3292 128.377)
(324.713 -12.1849 155.345)
(288.263 -82.431 173.809)
(376.652 -31.9706 146.647)
(286.731 -66.6116 145.867)
(377.129 -19.8455 123.237)
(301.084 -47.8681 152.686)
(247.125 -30.7283 97.7545)
(168.256 -32.9983 110.1)
(169.485 -30.294 89.1674)
(244.573 -33.6174 120.391)
(320.627 -34.198 103.754)
(422.032 -18.3882 128.16)
(423.483 -13.6738 107.085)
(318.931 -35.2112 123.207)
(238.908 -37.3872 198.103)
(166.283 -35.3186 139.041)
(240.526 -35.8585 150.335)
(165.683 -36.8147 187.606)
(231.929 -87.9411 281.148)
(168.571 -142.087 296.307)
(229.083 -118.15 378.521)
(159.484 -76.2623 368.925)
(234.815 -139.028 303.519)
(164.542 -88.0255 272.763)
(223.038 -73.6152 374.396)
(233.075 -34.6323 269.981)
(159.115 -30.4276 399.235)
(164.586 -34.335 261.349)
(221.194 -29.0619 405.18)
(142.149 291.635 382.503)
(159.8 110.578 477.835)
(145.091 279.867 446.849)
(193.265 275.489 436.201)
(220.992 113.909 477.709)
(183.259 292.175 364.662)
(190.007 212.751 462.226)
(128.043 -38.9137 9.73196)
(151.732 -56.403 34.4566)
(146.664 -112.266 66.7318)
(133.426 -166.417 96.9727)
(120.198 -186.741 143.056)
(210.31 39.9424 11.8005)
(183.961 12.5689 43.8745)
(179.715 -79.3177 81.2182)
(167.529 -111.565 101.142)
(162.858 -130.612 142.305)
(221.546 -131.381 190.241)
(227.162 -150.367 225.377)
(167.671 -199.435 418.644)
(162.702 -72.3967 11.6416)
(145.525 -144.537 69.0561)
(280.299 148.041 9.65718)
(156.634 -97.2415 36.165)
(278.816 130.664 55.0778)
(276.741 103.844 68.8991)
(259.221 46.8166 104.351)
(259.013 39.8521 125.474)
(275.35 1.93317 223.556)
(89.8001 -27.2285 8.25472)
(123.851 -11.8563 8.75728)
(123.186 -10.204 5.61804)
(92.6099 -28.4692 9.56225)
(89.7477 -29.1984 15.5238)
(129.068 -18.0475 15.8532)
(124.553 -11.1226 10.2618)
(91.8922 -39.4709 22.5061)
(99.8469 -62.0224 55.0018)
(136.808 -25.5279 30.0418)
(97.5627 -51.645 36.9127)
(139.513 -33.7282 49.6403)
(98.5497 -66.1174 77.0156)
(138.391 -37.0933 74.1206)
(145.943 -50.1425 212.093)
(171.564 71.7444 13.7923)
(225.598 106.524 9.54418)
(244.515 109.342 9.92719)
(276.675 152.936 23.1563)
(224.049 110.533 9.83336)
(238.747 112.795 25.6659)
(177.609 68.4313 9.65178)
(170.773 66.8074 24.7034)
(277.409 147.312 40.6145)
(222.227 97.84 23.4006)
(244.946 78.841 61.337)
(223.59 108.31 15.8677)
(241.389 104.196 45.6625)
(169.718 50.8001 35.5764)
(168.204 13.1513 69.8253)
(221.05 84.7231 40.2583)
(246.554 44.4582 75.2647)
(270.797 75.7136 78.3523)
(169.336 30.8989 53.577)
(219.736 74.9255 60.7373)
(242.888 11.6376 81.7932)
(165.816 2.53111 85.8392)
(262.934 56.8547 88.5452)
(212.27 68.5243 105.551)
(234.764 -22.7933 98.8541)
(214.673 69.3852 82.1596)
(237.428 -10.1657 87.0301)