# vtk DataFile Version 2.0
sampleSurface
ASCII
DATASET POLYDATA
POINTS 1979 float
0 0 0 -1.35525e-18 -0.1 0 -1.35525e-18 0.1 0 -3.83988e-18 0
0.125 0 0.1 0.125 0 -0.1 0.125 0 0.12782 0.125
-9.62965e-35 -0.12782 0.125 0 0.2 0 0 -0.2 0 0
0.2 0.125 0 -0.2 0.125 0 0 0.25 -3.16226e-19 -0.1
0.25 0 0.1 0.25 -9.62965e-35 0.106796 0.25 0 -0.106796 0.25
9.03502e-19 0.3 0 1.58113e-18 -0.3 0 0 0.2 0.25 0
-0.2 0.25 0 0.3 0.125 0 -0.3 0.125 -3.83988e-18 0
0.375 -9.62965e-35 0.1 0.375 0 -0.1 0.375 -1.02819e-18 0.3 0.25
-3.51282e-18 -0.3 0.25 -9.62965e-35 0.12782 0.375 -9.62965e-35 -0.12782 0.375 0
0.4 0 -3.85186e-34 -0.4 0 -2.29309e-18 0.4 0.125 -4.10009e-18 -0.4
0.125 0 0.2 0.375 0 -0.2 0.375 0 0.4 0.25
0 -0.4 0.25 0 0.3 0.375 0 -0.3 0.375 0
0 0.5 9.03502e-19 0.5 0 1.58113e-18 -0.5 0 0 -0.1
0.5 -1.35525e-18 0.1 0.5 0 0.5 0.125 0 -0.5 0.125
0 0.2 0.5 0 -0.2 0.5 -3.19659e-18 0.4 0.375 6.32451e-18
-0.4 0.375 -1.92593e-34 -0.541552 0.125 0 0.5 0.25 0 -0.5
0.25 0 0.3 0.5 0 -0.3 0.5 0 -0.530435 0.25
0 0.6 0 0 -0.6 0 0 0.6 0.125 -3.85186e-34
-0.6 0.125 -4.29163e-18 0 0.625 0 0.5 0.375 0 -0.5
0.375 0 -0.1 0.625 0 0.1 0.625 9.62965e-35 -0.132867 0.625
-1.92593e-34 0.132867 0.625 0 0.4 0.5 0 -0.4 0.5 7.70372e-34
-0.6 0.25 0 0.6 0.25 1.92593e-34 -0.537255 0.375 0 0.2
0.625 0 -0.2 0.625 -1.54074e-33 -0.3 0.625 0 0.3 0.625
0 0.7 0 3.38813e-18 -0.7 0 -2.40741e-34 -0.692086 0.125 0
0.5 0.5 9.03502e-19 -0.5 0.5 0 0.6 0.375 -3.85186e-34 -0.6
0.375 0 0.7 0.125 0 -0.7 0.125 -2.40741e-34 -0.7 0.134892
-4.10009e-18 0.4 0.625 6.43293e-19 -0.4 0.625 -2.89121e-18 -0.7 0.25 0
0.7 0.25 0 0 0.75 0 -0.1 0.75 -7.67977e-19 0.1
0.75 -9.62965e-35 -0.115044 0.75 -9.62965e-35 0.115044 0.75 0 -0.2 0.75
0 0.2 0.75 0 0.6 0.5 0 -0.6 0.5 0
-0.7 0.375 0 0.7 0.375 0 -0.8 0 0 0.8
0 0 0.5 0.625 0 -0.5 0.625 -1.93169e-18 0.3 0.75
1.9082e-18 -0.3 0.75 3.38813e-18 -0.8 0.125 0 0.8 0.125 0
-0.8 0.25 0 0.8 0.25 -3.85186e-34 -0.560494 0.625 -3.08149e-33 0.4
0.75 0 -0.4 0.75 -1.58113e-18 -0.7 0.5 0 0.7 0.5
-3.85186e-34 -0.6 0.625 0 0.6 0.625 -4.74338e-18 0 0.875 0
-0.1 0.875 0 0.1 0.875 -1.58113e-18 -0.8 0.375 0 0.8
0.375 -1.92593e-34 -0.137255 0.875 1.92593e-34 0.137255 0.875 0 0.2 0.875
0 -0.2 0.875 3.38813e-18 -0.9 0 0 0.9 0 -4.10009e-18
0.5 0.75 -3.15141e-18 -0.5 0.75 0 -0.9 0.125 0 0.9
0.125 0 0.3 0.875 -1.54074e-33 -0.3 0.875 2.1684e-18 -0.9 0.25
0 0.9 0.25 -3.85186e-34 -0.557895 0.75 0 0.7 0.625 0
-0.7 0.625 -3.85186e-34 -0.8 0.5 0 0.8 0.5 7.70372e-34 -0.6
0.75 0 0.6 0.75 -1.44445e-34 -0.884337 0.375 -4.10009e-18 0.4 0.875
6.43293e-19 -0.4 0.875 0 0.9 0.375 0 -0.9 0.375 -1.44445e-34
-0.9 0.394578 0 0 1 0 1 0 0 -1
0 -1.807e-18 0.1 1 -1.807e-18 -0.1 1 0 0.5 0.875
0 1 0.125 0 -0.5 0.875 2.1684e-18 -1 0.125 0
0.8 0.625 0 -0.8 0.625 0 0.2 1 0 -0.2
1 0 0.7 0.75 -4.69821e-18 -0.7 0.75 0 0.9 0.5
1.92593e-34 -0.9 0.5 0 1 0.25 0 -1 0.25 -3.85186e-34
-0.560494 0.875 0 0.3 1 9.03502e-19 -0.3 1 0 0.6
0.875 -3.85186e-34 -0.6 0.875 -3.85186e-34 -0.1 1.06289 0 1 0.375
2.1684e-18 -1 0.375 0 0.4 1 0 -0.4 1 0
-0.9 0.625 0 0.9 0.625 0 0.8 0.75 0 -0.8
0.75 0 1.1 0 4.06576e-18 -1.1 0 0 -3.80422e-19 1.10526
3.85186e-34 -1.1 0.125 0 1.1 0.125 4.81482e-35 0.1 1.10526 0
-0.921951 0.625 0 0.5 1 0 1 0.5 9.03502e-19 -0.5
1 0 -1 0.5 0 0.7 0.875 3.85186e-34 -0.7 0.875
6.77626e-19 -4.51751e-19 1.125 2.1684e-18 -1.1 0.25 0 1.1 0.25 0
0.1 1.125 0 -0.1 1.125 -9.62965e-35 -0.9 0.703488 0 0.2
1.125 2.89121e-18 -0.2 1.125 0 -1.1 0.375 0 1.1 0.375
0 -0.3 1.125 0 0.3 1.125 1.44445e-34 -0.890909 0.75 0
0.6 1 0 -0.6 1 0 0.9 0.75 0 -0.9
0.75 0 1 0.625 0 -1 0.625 -3.38813e-18 -0.8 0.875
0 0.8 0.875 6.32451e-18 -0.4 1.125 -4.10009e-18 0.4 1.125 0
-1.2 0 0 1.2 0 0 -0.9 0.796512 4.06576e-18 -1.2
0.125 0 1.2 0.125 0 1.1 0.5 3.61401e-18 -1.1 0.5
0 -0.7 1 0 0.7 1 0 -1.2 0.25 0
1.2 0.25 0 0.5 1.125 -1.92593e-34 -0.5 1.125 1.92593e-34 -0.7
1.03007 0 -0.537255 1.125 0 1 0.75 0 -1 0.75
0 -9.03502e-19 1.25 0 0.1 1.25 5.37584e-18 -0.1 1.25 0
0.9 0.875 0 -0.9 0.875 3.61401e-18 -1.2 0.375 0 1.2
0.375 0 -1.1 0.625 0 1.1 0.625 -7.70372e-34 -0.2 1.25
0 0.2 1.25 -9.62965e-35 -0.921951 0.875 0 0.6 1.125 -3.85186e-34
-0.6 1.125 -3.85186e-34 -0.8 1 0 0.8 1 -4.10009e-18 0.3
1.25 -2.79001e-18 -0.3 1.25 0 -0.636676 1.125 -3.85186e-34 -0.8 1.02465
-1.54074e-33 -1.2 0.5 0 -1.3 0 0 1.2 0.5 0
1.3 0 -2.40741e-35 -1.29677 0.125 -2.40741e-35 -1.3 0.120968 0 -1.3
0.125 0 1.3 0.125 0 -0.4 1.25 -3.08149e-33 0.4 1.25
-4.33681e-18 -1.3 0.25 0 1.3 0.25 0 -0.7 1.125 0
0.7 1.125 0 1 0.875 0 -1 0.875 2.1684e-18 -1.1
0.75 0 1.1 0.75 0 -1.29091 0.375 -1.58113e-18 -0.9 1
0 0.9 1 2.52981e-18 -0.5 1.25 -4.10009e-18 0.5 1.25 0
-1.3 0.375 3.61401e-18 -1.2 0.625 0 1.2 0.625 0 1.3
0.375 0 -1.3 0.386364 -3.85186e-34 -0.530435 1.25 0 -0.9 1.03182
2.71051e-18 -4.51751e-19 1.375 0 0.1 1.375 0 -0.1 1.375 1.77267e-18
-0.8 1.125 0 0.8 1.125 7.70372e-34 -0.6 1.25 0 0.6
1.25 0 0.2 1.375 2.89121e-18 -0.2 1.375 0 -1.3 0.5
0 1.3 0.5 0 1.4 0 0 -1.4 0 -7.70372e-34
-0.633333 1.25 -4.33681e-18 -1.4 0.125 0 -1.1 0.875 0 1.4
0.125 0 1.1 0.875 0 0.3 1.375 0 -0.3 1.375
0 1 1 0 -1 1 0 -1.2 0.75 0
1.2 0.75 1.54074e-33 -1.4 0.25 0 1.4 0.25 -4.10009e-18 0.4
1.375 6.32451e-18 -0.4 1.375 4.62593e-19 -0.7 1.25 0 0.7 1.25
4.81482e-35 -1.29091 0.625 4.81482e-35 -1.3 0.613636 0 -0.9 1.125 0
0.9 1.125 0 -1.3 0.625 0 1.3 0.625 -4.33681e-18 -1.4
0.375 0 1.4 0.375 0 0.5 1.375 -1.92593e-34 -0.5 1.375
1.92593e-34 -0.537255 1.375 3.85186e-34 -0.956164 1.125 -6.16298e-33 -0.8 1.25 0
0.8 1.25 3.61401e-18 -1.2 0.875 0 1.2 0.875 0 1.1
1 0 1.4 0.5 3.61401e-18 -1.1 1 0 -1.4 0.5
0 1.5 0 0 0 1.5 0 -1.5 0 0
0.6 1.375 -3.85186e-34 -0.6 1.375 0 -1.3 0.75 0 1.3
0.75 2.25875e-19 0.1 1.5 2.25875e-19 -0.1 1.5 0 -1.5 0.117925
0 -1.5 0.125 0 1 1.125 0 1.5 0.125 0
-1 1.125 0 -1.50323 0.125 -3.85186e-34 -0.627586 1.375 0 0.2
1.5 0 -0.2 1.5 0 -1.5 0.25 0 1.5 0.25
2.40741e-35 -0.1 1.51786 0 0.3 1.5 9.03502e-19 -0.3 1.5 0
-1.4 0.625 0 1.4 0.625 -2.60209e-19 -0.9 1.25 0 0.9
1.25 0 -0.7 1.375 0 0.7 1.375 1.92593e-34 -1.05714 1.125
0 1.5 0.375 0 -1.5 0.375 0 0.4 1.5 0
-0.4 1.5 -4.81482e-35 -1.29091 0.875 3.85186e-34 -1.54118 0.25 -1.54074e-33 -1.2
1 0 1.2 1 0 -1.3 0.875 0 1.3 0.875
0 1.1 1.125 0 -1.1 1.125 -4.81482e-35 -1.3 0.886364 7.70372e-34
-0.96 1.25 0 0.5 1.5 0 1.5 0.5 9.03502e-19 -0.5
1.5 0 -1.5 0.5 -1.92593e-34 -1.54118 0.375 1.54074e-33 -1.4 0.75
0 1.4 0.75 -3.08149e-33 -0.8 1.375 0 0.8 1.375 0
-1.6 0 0 -1 1.25 0 1 1.25 0 -1.6
0.125 0 0.6 1.5 0 -0.6 1.5 0 -1.6 0.25
0 -1.5 0.625 0 1.5 0.625 9.03502e-19 0 1.625 9.62965e-35
-0.04 1.625 0 0.1 1.625 0 -0.1 1.625 1.4456e-18 0.2
1.625 0 -0.2 1.625 0 -1.3 1 0 1.3 1
0 -0.9 1.375 0 -1.6 0.375 0 0.9 1.375 -3.85186e-34
-0.247059 1.625 0 1.2 1.125 -2.06721e-18 -1.2 1.125 -4.33681e-18 -1.4
0.875 0 1.4 0.875 -3.85186e-34 -1.08 1.25 0 0.3 1.625
0 -0.3 1.625 3.61401e-18 -0.7 1.5 0 0.7 1.5 0
1.1 1.25 1.807e-18 -1.1 1.25 4.74338e-18 0.4 1.625 6.43293e-19 -0.4
1.625 0 -1.6 0.5 -4.33681e-18 -1.5 0.75 0 1.5 0.75
-3.85186e-34 -0.966667 1.375 9.62965e-35 -1.67692 0.25 0 -0.8 1.5 2.25875e-18
-1.7 0 0 0.8 1.5 0 1 1.375 0 -1
1.375 -7.70372e-34 -0.5 1.625 0 0.5 1.625 0 -1.7 0.125
-4.81482e-35 -1.7 0.168919 0 -1.6 0.625 0 -1.7 0.25 -4.81482e-35
-1.67692 0.375 0 -1.3 1.125 0 1.3 1.125 0 1.4
1 0 -1.4 1 1.92593e-34 -1.71688 0.125 0 0.6 1.625
7.22801e-19 -0.6 1.625 0 1.2 1.25 0 -1.2 1.25 -1.92593e-34
-1.05714 1.375 0 -1.5 0.875 0 1.5 0.875 0 -1.7
0.375 3.61401e-18 -0.9 1.5 0 0.9 1.5 0 0 1.75
1.92593e-34 -0.0315789 1.75 -2.93638e-18 -0.1 1.75 0 0.1 1.75 0
1.1 1.375 0 -1.1 1.375 0 0.2 1.75 0 -0.2
1.75 0 -1.6 0.75 -7.70372e-34 -0.25 1.75 0 0.7 1.625
-1.54074e-33 -0.7 1.625 0 -1.7 0.5 6.18899e-18 0.3 1.75 -3.87422e-18
-0.3 1.75 0 -0.4 1.75 0 0.4 1.75 0 1.4
1.125 7.22801e-19 -1.4 1.125 0 -1.8 0 0 1.5 1
0 1 1.5 0 -1 1.5 0 -1.5 1 0
1.3 1.25 6.14381e-18 -1.3 1.25 0 -1.8 0.125 5.1608e-18 -0.8
1.625 0 -1.7 0.625 3.76392e-18 0.8 1.625 7.70372e-34 -1.8 0.25
4.62593e-19 -0.5 1.75 4.74338e-18 0.5 1.75 0 -1.6 0.875 0
1.2 1.375 -2.06721e-18 -1.2 1.375 3.85186e-34 -1.8 0.375 0 -0.6
1.75 0 0.6 1.75 -7.70372e-34 -0.9 1.625 0 0.9 1.625
2.1684e-18 -1.7 0.75 0 1.1 1.5 3.61401e-18 -1.1 1.5 0
-1.8 0.5 0 -1.86598 0.125 0 1.5 1.125 9.03502e-19 0
1.875 0 -1.5 1.125 -1.92593e-34 -0.04 1.875 0 1.4 1.25
0 -1.4 1.25 0 -0.1 1.875 0 0.1 1.875 2.2696e-18
-0.7 1.75 3.76392e-18 0.7 1.75 1.4456e-18 0.2 1.875 -3.61401e-18 -0.2
1.875 0 -1.6 1 3.85186e-34 -0.25 1.875 0 1.3 1.375
0 -1.3 1.375 -3.85186e-34 -0.969811 1.625 -1.92593e-34 -1.85714 0.375 0
0.3 1.875 0 -0.3 1.875 2.25875e-18 -1.9 0 0 -1.9
0.125 2.88889e-34 -1.88889 0.25 2.1684e-18 -1.8 0.625 0 1 1.625
0 -1 1.625 0 -1.7 0.875 7.22801e-19 -1.9 0.25 4.74338e-18
0.4 1.875 -2.60209e-19 -0.4 1.875 -1.54074e-33 -1.2 1.5 0 1.2
1.5 3.08149e-33 -0.8 1.75 0 0.8 1.75 0 -1.9 0.375
-7.70372e-34 -0.5 1.875 0 0.5 1.875 1.92593e-34 -1.06957 1.625 0
-1.8 0.75 0 1.5 1.25 2.52981e-18 -1.5 1.25 1.807e-18 -1.6
1.125 0 -1.1 1.625 0 1.4 1.375 -9.62965e-35 -1.4 1.375
0 1.1 1.625 3.61401e-18 -1.9 0.5 -1.34441e-18 -0.9 1.75 3.76392e-18
0.9 1.75 0 0.6 1.875 7.22801e-19 -0.6 1.875 0 -1.7
1 0 -0.1 1.98214 0 -1.3 1.5 0 1.3 1.5
7.70372e-34 -0.962791 1.75 0 -2 0 0 2 0 0
0 2 -2.40741e-35 -1.9 0.625 0 -0.7 1.875 0 -1.8
0.875 0 0.7 1.875 4.81482e-35 -1.9 0.631579 0 -0.1 2
2.25875e-19 0.1 2 0 -1.85714 0.75 5.87276e-18 -2 0.125 0
2 0.125 -8.1852e-34 1.76293e-19 2.0061 3.37038e-34 -0.1 2.00405 -1.44445e-34 0.1
2.00465 1.68519e-34 -1.90909 0.625 0 0.2 2 0 -0.2 2
7.70372e-34 -1 1.75 0 2 0.25 0 1 1.75 0
-2 0.25 9.62965e-35 -1.1 1.69231 0 1.2 1.625 0 -1.2
1.625 0 0.3 2 0 -0.3 2 0 -1.6 1.25
0 -1.5 1.375 0 2 0.375 0 1.5 1.375 -3.87422e-18
-2 0.375 0 -0.8 1.875 3.76392e-18 0.8 1.875 0 -1.7
1.125 0 0.4 2 0 -0.4 2 -3.85186e-34 -1.9 0.75
0 1.4 1.5 0 -1.4 1.5 0 -1.8 1 0
0.5 2 0 2 0.5 0 -0.5 2 0 -2
0.5 0 1.1 1.75 0 -1.1 1.75 0 -1.12308 1.75
0 0.9 1.875 -7.70372e-34 -0.9 1.875 0 -1.3 1.625 0
1.3 1.625 0 0.6 2 0 -0.6 2 1.92593e-34 -2
0.6 1.20371e-34 -1.9 0.868421 0 -1.9 0.875 0 2 0.625
0 -2 0.625 2.25875e-18 -2.1 0 0 2.1 0 1.20371e-34
-1.90909 0.875 0 2.1 0.125 0 -2.1 0.125 -9.62965e-35 -2.09091
[...]
POINT_DATA 1979
FIELD attributes 1
p 1 1979 float
39181.8 39443 39220.7 37407.8 37452.1 37647.4 37518.4 37778.2 39459.6 39940.6 37690.4
38117.6 34713.6 34914.9 34769.4 34785.4 34943.2 39873.4 40709.1 35004.3 35331.6
38088.9 38840.2 30885.1 30932.4 31011 35363.5 35955.8 30992.7 31099.4 40531.9
41815.2 38710.2 39868.6 31149 31328.7 35982 36858.6 31587.3 31894.9 21765.4
41412.6 43175.7 21792.6 21792.8 39559.8 41160.8 21958.7 21945.2 32570.6 32913.9
41827.7 37186.3 38273.5 22527.9 22417.6 39077.1 42536.9 44723.5 40789.9 42765.8
10051.2 35058.7 35135.7 10033.4 10073.1 10047.2 10115.5 24420.8 23711.1 40913.9
39712 37237.2 10202.2 10075.6 10423.6 11000.7 44115.4 46653.7 45013.3 30679.7
28036.3 41415.1 40776.4 42956.6 45206.5 45284.6 14821.8 12308.7 46194 44780.1
2932.45 2919.17 2952.29 2923.99 2972.65 2951.25 3087.63 46327.3 41266.8 53885.8
54566.6 49642.1 46676 27342.3 20418.3 4162.67 3279.29 49632.3 46984.5 56054.1
53811.2 33522.3 9702.73 5754.68 68088.2 72322.3 42080 52578 1121.22 1120.11
1140.83 76276.3 74950.3 1137.16 1196.94 1291.43 1165.88 54611.9 51986.6 25714.6
16062 57109.3 54822 2470.6 1550.68 71070.5 69516.6 29757.9 84486.7 77036.1
102116 102989 39718.6 53095.5 98330.3 8363.06 4265.59 103720 102426 106810
954.992 69167.4 62150.2 999.821 969.626 24250.9 77513.5 14576.5 67616.7 115473
110858 1266.59 1099.21 82444.3 72599.2 140190 130419 108073 88654.3 28229.4
2882.01 1864.82 50477.4 37145.6 1425.6 160799 124586 9505.39 5702.5 132650
154177 110118 101262 135385 72347.2 1576.38 80292 154697 1809.83 136090
25963.9 207057 17535.9 149179 78067.6 67132.6 1692.9 105946 204509 1961.71
1875.88 125075 3056.56 2733.18 141950 262777 5509.53 6697.16 118830 52050.9
40506.2 148507 120587 223287 148325 93150.2 103915 12963.9 16166.2 85148.3
276887 117667 94801 301917 300271 164467 68300 78453.3 123051 345030
34371.3 28191.9 69623.2 36550.8 215733 138393 7716.14 8964.7 8787.24 139882
112741 158504 370778 166259 310096 12344.4 12756.9 117050 58942.1 50628.9
91609.2 101529 20312.8 19306.4 59127.4 91918.7 181341 100476 377530 406138
111252 111435 111800 425248 31265.9 33307 141916 443157 73800.5 81607.2
202559 132374 160222 301587 175189 110875 132986 47676.3 51049.5 176857
187792 377370 432214 179019 53046.3 111045 28230.7 30796.1 30818 93179
100431 65320.4 69850.2 37493.9 37522.4 200638 414828 460888 118733 70806.9
132423 155796 470449 287059 47141.6 46734.8 189136 131308 185647 375197
164495 471708 59136.4 58097.3 81779.7 86287.4 209507 210675 111544 125888
211679 408853 198189 448831 71829 70030.5 74239.2 123083 97646.6 101352
182613 368653 270820 424916 155067 222163 464579 62291.4 141657 83764.5
81327.6 213719 416375 64832.2 65241.4 157297 158235 171563 470069 132088
159285 84608.4 70843.7 71410.8 192041 465852 69782.4 77894.2 77819.1 237333
418924 114928 121950 93220.5 95445.3 145370 444982 223161 84859.7 84037.3
209682 205488 182058 357980 212389 424136 245525 155331 212366 126641
92101.2 425132 90620.9 246238 234865 244672 435018 107001 108170 171741
134449 157009 190783 100637 98735.1 224698 265089 423666 94966 95791.1
96590.6 97028.8 100084 100562 212128 426222 122970 251586 125244 101975
335346 181417 245730 456965 151873 103813 103565 109264 110794 218164
156229 107845 106898 273256 279100 442289 134989 253613 122224 210496
122644 152438 140999 112034 113412 230766 241841 295614 262288 276233
210498 417168 473721 245501 238698 121532 119855 302998 180494 152521
283451 466321 283628 137309 137529 120968 121436 122450 122194 200387
161163 124845 124982 317371 126233 131715 130200 304057 127899 127484
131182 132059 481000 242674 257917 485636 159789 154417 282744 391711
207465 277750 142833 329806 143471 304746 137052 138275 326395 275943
183625 320387 145359 146849 157589 157298 360023 197997 173618 340339
312607 496908 147394 278356 147857 471266 237356 148552 148456 155860
157336 151147 151058 325074 152740 364265 208705 169333 344912 154837
154423 312460 330580 347040 369816 176670 174412 375748 352326 160020
159376 195195 264641 168434 169297 363306 166306 167250 187655 409285
497290 270577 318382 193449 456372 236891 208945 383974 183178 182786
176460 175262 374182 175040 219684 351302 193894 371514 384403 178469
419317 186168 434267 187386 422020 179454 179423 444363 387881 372756
180244 180637 180778 425043 182210 182094 200244 380172 200300 405821
207742 268900 215190 186582 186334 307762 268729 385811 500609 414227
199060 199793 364084 192697 192402 470671 456620 247680 434012 200710
397343 200239 436945 228522 219993 225299 213704 214299 240302 355594
210489 209854 473237 507382 509422 426264 482310 432617 339128 519285
343678 447622 458831 456127 305045 350661 226871 353084 464132 235507
456777 221413 221982 466998 524216 279878 282964 242985 420618 230562
232307 214850 215853 215997 364124 472731 218926 219048 486844 554073
222940 477412 269470 223645 223987 223866 516479 235205 235263 488668
247124 382706 500011 277612 230680 230908 255931 253606 237668 370768
269953 544172 239365 239604 569044 617922 349041 422990 564045 407222
251789 317978 250560 622191 246643 489171 495695 492248 508476 249888
250163 504732 304073 572351 252267 524326 498303 304772 279006 258932
671446 502830 503341 536480 634163 268621 271836 639265 263050 262454
302248 513202 259359 260730 260447 312035 513879 574366 263859 264266
496126 546653 484548 413346 368677 268732 269154 269402 269935 278945
277583 494213 759936 606699 348640 310095 392121 293540 296403 277151
277981 495676 672779 557071 578101 572432 760837 656985 618645 828331
563894 285352 827058 573298 695224 644962 287344 288473 343841 299015
296192 822878 588467 606214 297484 806126 657681 680277 762840 300409
301989 814104 609317 338364 327870 305633 317344 555327 350990 446647
502259 825018 312556 319972 325270 415925 808078 672131 365120 317286
319753 651162 581350 335931 860806 770478 405733 329548 330824 330986
686302 684194 796230 829639 334765 335087 854807 338333 371011 421235
343220 339354 339025 340682 360585 352855 341555 342188 465800 647153
1.59103e+06 411044 731861 1.58727e+06 654720 562509 351610 352871 1.57819e+06 673074
627230 804938 778554 875527 886417 525414 368101 373869 502072 367379
365326 648180 553088 1.56642e+06 709617 367931 490430 403797 407942 567284
431820 379855 578404 639062 398094 382978 386093 789961 1.54694e+06 389920
827810 882141 412450 404269 491374 398818 726026 604530 537328 409537
404986 429255 1.47692e+06 869883 524140 516566 466596 480084 423472 425395
425830 428289 504440 1.73752e+06 651712 675008 524859 750768 541530 429047
429002 1.79888e+06 757224 447118 457613 431631 437836 782620 622838 431604
431753 431726 431696 576007 489407 548657 1.79565e+06 776545 1.28825e+06 831452
436749 437461 436469 1.79471e+06 811697 434115 584929 552471 444870 446534
514908 785945 469669 462091 781704 569795 524334 1.77716e+06 455775 458554
845994 503406 493767 964696 627879 385042 579926 554819 611314 490804
539089 805672 468637 472623 540261 799778 1.64651e+06 628502 491952 499943
467018 504232 402084 508511 505883 446724 316043 481740 486756 533601
535812 529357 360482 597461 693024 817179 586965 552206 692268 816780
1.30115e+06 606471 689184 814144 512633 519617 373904 232048 497593 492122
531457 608807 481460 480750 481000 676645 797639 473904 479401 480032
479678 532865 479302 478018 477912 627912 722198 343453 805527 544995
532105 317831 182427 476371 403239 478457 297258 590261 495560 500508
357408 542007 471747 519798 513008 513711 517543 325473 225342 396281
473700 476281 473516 511051 543701 239465 159364 496038 381835 471769
528320 409100 381722 486070 489015 165200 467822 470984 467816 431269
731793 727621 718443 424370 491949 468987 173424 335530 312716 120595
479513 482353 401955 672344 457739 456577 459498 392754 413335 577013
357688 189090 454957 454178 365657 191732 276319 507054 218972 153544
168407 393678 224466 108963 178910 154788 437234 435566 160196 121877
286637 424748 409636 415944 413916 414735 408060 396001 408811 410112
378392 242384 324014 370734 348036 406114 121007 106256 400179 401865
253500 199823 393695 389770 394799 399287 399853 387249 389104 276737
239206 111050 106229 331124 378118 375129 371195 110350 368933 370565
102371 219718 453522 443684 132132 139833 212727 433845 282466 347848
300241 344755 114059 191092 373086 142205 348654 343888 344844 165709
124861 105947 118158 310925 302494 235986 214917 330760 157819 277421
163749 312763 257680 234713 133821 102498 105751 199989 309378 102030
101661 314885 311543 311394 105438 104711 125911 178715 278772 283960
163861 136227 101552 102918 103393 139373 192448 178048 270966 272478
220715 211015 108104 119702 255778 253639 254467 101633 101509 143758
130326 248008 249149 101377 101354 244462 209604 215778 104063 102008
239483 238310 108299 102864 238006 228228 225405 234559 102157 101538
102569 103181 113411 111904 103930 190963 187766 112007 224430 225353
180734 211308 206534 153176 108456 101638 148187 141239 101359 206927
206534 206950 104584 111485 125356 119267 203482 104729 122821 101325
101314 179085 182597 155567 150486 116434 115180 101440 101431 188176
185174 184911 101312 101313 178296 102455 106191 107832 104248 162486
101390 151717 168844 103730 161859 160931 142788 139744 125291 141306
102007 101570 101612 101381 109278 111787 101424 101337 101902 101310
101845 101455 101307 118193 115693 101301 101301 137356 104374 103211
101362 101310 137876 139176 101908 101497 101367 101343 132809 101740
106399 114907 116607 131878 132198 101301 101302 105566 101781 129434
129838 103694 101501 101616 101805 119477 120642 125435 125783 101299
101299 105176 102616 102239 104522 102127 101443 103862 120285 120478
113769 101303 101303 101299 113491 101342 114695 114708 101471 101595
101454 105229 104654 109079 108397 101301 101311 101303 101322 101307
101307 101300 101329 101312 109665 109550 106063 105939 101323 101308
101298 101299 101298 101298 101415 103108 101298 101298 101310 101663
101782 101311 101328 103583 103864 105953 105801 101441 101390 113406
102124 101983 101298 101301 101299 101315 101483 101310 101457 101452
101309 103605 103480 101321 101309 101384 101305 101298 101939 102036
101429 101394 101298 101327 101301 101325 101299 101299 101298 101298
101299 103160 103094 103115 105902 101476 101358 101341 102948 101300
102924 101324 102300 102223 101442 101413 101298 101298 102654 102673
103866 101304 101311 101306 101299 102595 101300 101299 101299 102327
102334 101298 101448 101475 101299 101298 101298 101669 101633 101298
101299 101298 102001 101997 101299 101299 101877 101298 101298 101315
101321 101728 101718 101304 101302 101361 101299 101664 101298 101298
101417 101403 101335 101328 101567 101304 101299 101299 101298 101299
101301 101303 101532 101522 101299 101298 101298 101298 101298 101301
101298 101298 101298 101298 101299 101298 101493 101303 101411 101403
101328 101333 101301 101300 101298 101298 101298 101306 101298 101298
101298 101299 101304 101303 101393 101298 101298 101390 101390 101345
101341 101380 101382 101340 101298 101298 101298 101367 101366 101298
101298 101298 101363 101327 101307 101306 101337 101349 101349 101298
101298 101298 101315 101313 101299 101298 101298 101298 101298 101298
101312 101332 101333 101298 101298 101299 101299 101310 101326 101298
101298 101298 101298 101298 101298 101298 101298 101298 101319 101318
101298 101300 101300 101298 101298 101314 101303 101303 101298 101298
101298 101298 101309 101309 101298 101298 101298 101298 101298 101298
101298 101304 101303 101299 101300 101298 101298 101298 101298 101298
101298 101298 101298 101298 101298 101301 101300 101303 101302 101303
101300 101302 101302 101308 101298 101301 101301 101298 101298 101298
101300 101300 101298 101298 101298 101298 101298 101298 101299 101299
101298 101299 101298 101298 101299 101300 101298 101300 101298 101298
101298 101298 101298 101300 101298 101298 101299 101299 101298 101298
101299 101298 101298 101298 101298 101298 101298 101298 101298 101298
101299 101298 101299 101299 101298 101298 101298 101298 101298 101298
101298 101298 101299 101298 101298 101298 101298 101298 101298 101298
101298 101298 101298 101298 101298 101298 101298 101298 101298 101298
101298 101298 101298 101298 101298 101298 101298 101298 101298 101298
101298 101298 101298 101298 101298 101298 101298 101298 101298 101298
101298 101298 101298 101298 101298 101298 101298 101298 101298 101298
101298 101298 101298 101298 101298 101298 101298 101298 101298 101298
101298 101298 101298 101298 101298 101298 101298 101298 101298 101298
101298 101298 101298 101298 101298 101298 101298 101298 101298 101298
101298 101298 101298 101298 101298 101298 101298 101298 101298 101298
101298 101298 101298 101298 101298 101298 101298 101298 101298 101298
101298 101298 101298 101298 101298 101298 101298 101298 101298 101298
101298 101298 101298 101298 101298 101298 101298 101298 101298 101298
101298 101298 101298 101298 101298 101298 101298 101298 101298 101298
101298 101298 101298 101298 101298 101298 101298 101298 101298 101298
101298 101298 101298 101298 101298 101298 101298 101298 101298 101298
101298 101298 101298 101298 101298 101298 101298 101298 101298 101298
101298 101298 101298 101298 101298 101298 101298 101298 101298 101298
101298 101298 101298 101298 101298 101298 101298 101298 101298 101298
101298 101298 101298 101298 101298 101298 101298 101298 101298 101298
101298 101298 101298 101298 101298 101298 101298 101298 101298 101298
101298 101298 101298 101298 101298 101298 101298 101298 101298 101298
101298 101298 101298 101298 101298 101298 101298 101298 101298 101298
101298 101298 101298 101298 101298 101298 101298 101298 101298 101298
101298 101298 101298 101298 101298 101298 101298 101298 101298 101298
101298 101298 101298 101298 101298 101298 101298 101298 101298 101298
101298 101298 101298 101298 101298 101298 101298 101298 101298 101298
101298 101298 101298 101298 101298 101298 101298 101298 101298 101298
101298 101298 101298 101298 101298 101298 101298 101298 101298 101298
101298 101298 101298 101298 101298 101298 101298 101298 101298 101298
101298 101298 101298 101298 101298 101298 101298 101298 101298 101298
101298 101298 101298 101298 101298 101298 101298 101298 
