# vtk DataFile Version 2.0
sampleSurface
ASCII
DATASET POLYDATA
POINTS 1978 float
-2.71051e-18 0 0 0.1 0 0 -0.1 0 0 -3.83988e-18 0
0.125 0.1 0 0.125 -0.1 0 0.125 -0.2 0 0
0.2 0 0 -0.2 0 0.125 0.2 0 0.125 -4.96926e-18
0 0.25 0.1 0 0.25 -0.1 0 0.25 -0.3 0
0 0.3 0 0 -0.2 0 0.25 0.2 0 0.25
-0.3 0 0.125 0.3 0 0.125 -3.83988e-18 0 0.375 0.1
0 0.375 -0.1 0 0.375 -0.3 0 0.25 0.3 0
0.25 -0.4 0 0 0.4 0 0 -0.4 0 0.125
0.4 0 0.125 -0.2 0 0.375 0.2 0 0.375 -0.4
0 0.25 0.4 0 0.25 0.3 0 0.375 -0.3 0
0.375 -2.71051e-18 0 0.5 -0.5 0 0 0.5 0 0
0.1 0 0.5 -0.1 0 0.5 -0.5 0 0.125 0.5
0 0.125 -0.2 0 0.5 0.2 0 0.5 -0.4 0
0.375 0.4 0 0.375 -0.5 0 0.25 0.5 0 0.25
-0.3 0 0.5 0.3 0 0.5 0.6 0 0 -0.6
0 0 0.6 0 0.125 -0.6 0 0.125 -4.29163e-18 0
0.625 -0.5 0 0.375 0.5 0 0.375 0.1 0 0.625
-0.1 0 0.625 -0.4 0 0.5 0.4 0 0.5 0.6
0 0.25 -0.6 0 0.25 -0.2 0 0.625 0.2 0
0.625 -0.3 0 0.625 0.3 0 0.625 0.7 0 0
-0.7 0 0 -0.5 0 0.5 0.5 0 0.5 0.6
0 0.375 -0.6 0 0.375 -0.7 0 0.125 0.7 0
0.125 -0.4 -3.79471e-18 0.625 0.4 0 0.625 0.6 0 0.4375
0.7 0 0.25 -0.7 0 0.25 -5.87276e-18 0 0.75 0.65
0 0.375 -0.1 0 0.75 0.1 0 0.75 0.7 0
0.3125 -0.2 0 0.75 0.2 0 0.75 0.6 0 0.5
-0.6 0 0.5 0.65 0 0.4375 0.75 0 0.25 -0.7
0 0.375 0.7 0 0.375 -0.8 0 0 0.8 0
0 -0.5 0 0.625 0.5 0 0.625 -0.3 -3.79471e-18 0.75
0.3 0 0.75 -0.8 0 0.125 0.8 0 0.125 0.75
0 0.3125 0.65 0 0.5 0.8 0 0.1875 0.6 0
0.5625 0.7 0 0.4375 -0.8 0 0.25 0.8 0 0.25
0.75 0 0.375 -0.4 1.54074e-33 0.75 0.4 0 0.75 0.8
0 0.3125 0.85 0 0.125 0.65 0 0.5625 0.7 0
0.5 -0.7 0 0.5 -0.6 0 0.625 0.6 0 0.625
0.75 0 0.4375 0.85 0 0.1875 -4.74338e-18 0 0.875 -0.1
0 0.875 0.1 0 0.875 -0.8 0 0.375 0.8 0
0.375 0.85 0 0.25 -0.2 0 0.875 0.2 0 0.875
0.7 0 0.5625 -0.9 0 0 0.9 0 0 -0.5
-3.79471e-18 0.75 0.75 0 0.5 0.5 0 0.75 0.65 0
0.625 0.9 0 0.0625 0.85 0 0.3125 0.9 0 0.125
-0.9 0 0.125 0.8 0 0.4375 0.9 0 0.1875 0.3
0 0.875 -0.3 0 0.875 0.85 0 0.375 -0.9 0
0.25 0.9 0 0.25 0.75 0 0.5625 0.7 0 0.625
-0.7 0 0.625 -0.8 0 0.5 0.8 0 0.5 0.95
0 0 0.95 0 0.0625 0.9 0 0.3125 0.85 0
0.4375 0.95 0 0.125 -0.6 0 0.75 0.6 0 0.75
-0.4 0 0.875 0.4 0 0.875 0.95 0 0.1875 0.9
0 0.375 -0.9 0 0.375 0.75 0 0.625 0.8 0
0.5625 0.7 0 0.6875 0.95 0 0.25 0.85 0 0.5
-3.61401e-18 0 1 -1 0 0 1 0 0 0.95
0 0.3125 0.9 0 0.4375 1 0 0.0625 0.1 0
1 -0.1 0 1 -0.5 0 0.875 -1 0 0.125
1 0 0.125 0.5 0 0.875 -0.8 0 0.625 0.8
0 0.625 1 0 0.1875 0.75 0 0.6875 0.85 0
0.5625 -0.2 0 1 0.2 0 1 0.95 0 0.375
0.7 0 0.75 -0.7 1.65709e-18 0.75 -0.9 0 0.5 0.9
0 0.5 -1 0 0.25 1 0 0.25 -0.3 0
1 0.3 0 1 0.95 0 0.4375 1 0 0.3125
1.05 0 0 1.05 0 0.0625 0.8 0 0.6875 0.85
0 0.625 1.05 0 0.125 0.75 0 0.75 0.6 0
0.875 -0.6 0 0.875 0.9 0 0.5625 1.05 0 0.1875
-1 0 0.375 1 0 0.375 0.95 0 0.5 -0.4
0 1 0.4 0 1 1.05 0 0.25 1 0
0.4375 0.85 0 0.6875 1.05 0 0.3125 -0.9 9.62965e-35 0.625
0.9 0 0.625 0.8 0 0.75 -0.8 3.85186e-34 0.75 -1.1
0 0 1.1 0 0 1.1 0 0.0625 0.95 0
0.5625 -1.1 0 0.125 1.1 0 0.125 1.05 0 0.375
1.1 0 0.1875 -1 0 0.5 1 0 0.5 -0.5
0 1 0.5 0 1 -0.7 0 0.875 0.7 0
0.875 6.77626e-19 -4.51751e-19 1.125 -1.1 -3.78534e-18 0.25 1.1 0 0.25
-0.1 0 1.125 0.1 0 1.125 0.9 0 0.6875 0.85
0 0.75 0.95 0 0.625 1.05 0 0.4375 0.8 0
0.8125 -0.2 0 1.125 0.2 0 1.125 1.1 0 0.3125
1 0 0.5625 1.15 0 0.125 -1.1 0 0.375 1.1
0 0.375 1.05 0 0.5 0.3 0 1.125 -0.3 0
1.125 1.15 0 0.1875 0.6 0 1 -0.6 0 1
0.9 0 0.75 -0.9 0 0.75 0.95 0 0.6875 0.85
0 0.8125 1.15 0 0.25 -1 0 0.625 1 0
0.625 1.1 0 0.4375 -0.8 1.65709e-18 0.875 0.8 0 0.875
1.05 0 0.5625 1.15 0 0.3125 -0.4 3.73447e-18 1.125 0.4
2.25875e-19 1.125 -1.2 0 0 1.2 0 0 -1.2 -3.78534e-18
0.125 1.2 0 0.125 -1.1 -3.61401e-18 0.5 1.1 0 0.5
1.15 0 0.375 0.95 0 0.75 0.9 0 0.8125 1
0 0.6875 1.2 0 0.1875 0.85 0 0.875 0.7 0
1 -0.7 0 1 1.05 0 0.625 -1.2 0 0.25
1.2 0 0.25 1.15 0 0.4375 -0.5 0 1.125 0.5
0 1.125 1.1 0 0.5625 1.2 0 0.3125 -1 0
0.75 1 0 0.75 4.96926e-18 0 1.25 0.95 0 0.8125
1.15 0 0.5 0.1 -4.51751e-19 1.25 -0.1 -4.51751e-19 1.25 1.05
0 0.6875 0.9 0 0.875 -0.9 0 0.875 -1.2 0
0.375 1.2 0 0.375 -1.1 0 0.625 1.1 0 0.625
-0.2 0 1.25 0.2 0 1.25 1.25 0 0.25 -0.6
0 1.125 0.6 0 1.125 1.2 0 0.4375 1.15 0
0.5625 -0.8 0 1 0.8 0 1 -0.3 0 1.25
0.3 0 1.25 1.25 0 0.3125 1 0 0.8125 1.05
0 0.75 0.95 0 0.875 1.1 0 0.6875 0.9 0
0.9375 -1.2 1.54074e-33 0.5 -1.3 0 0 1.2 0 0.5
1.3 0 0 1.25 0 0.375 -1.3 0 0.125 1.3
0 0.125 1.15 0 0.625 -0.4 0 1.25 0.4 0
1.25 -1.3 -3.78534e-18 0.25 1.3 0 0.25 1.25 0 0.4375
-0.7 0 1.125 0.7 0 1.125 1.2 0 0.5625 1.05
0 0.8125 -1 0 0.875 1 0 0.875 -1.1 -1.03903e-18
0.75 1.1 0 0.75 0.95 0 0.9375 1.3 0 0.3125
1.15 0 0.6875 -0.9 0 1 0.9 0 1 1.25
0 0.5 -0.5 0 1.25 0.5 0 1.25 -1.3 0
0.375 -1.2 0 0.625 1.2 0 0.625 1.3 0 0.375
1.05 0 0.875 1.1 0 0.8125 1.25 0 0.5625 1
0 0.9375 1.3 0 0.4375 1.15 0 0.75 2.71051e-18 -4.51751e-19
1.375 0.1 0 1.375 -0.1 0 1.375 0.95 0 1
-0.8 5.48124e-18 1.125 0.8 0 1.125 1.2 0 0.6875 -0.6
0 1.25 0.6 0 1.25 -0.2 0 1.375 0.2 0
1.375 -1.3 -3.61401e-18 0.5 1.3 0 0.5 1.25 0 0.625
-1.4 0 0 1.4 0 0 1.35 0 0.375 -1.1
0 0.875 -1.4 0 0.125 1.4 0 0.125 1.1 0
0.875 0.3 0 1.375 -0.3 0 1.375 1.05 0 0.9375
1.15 0 0.8125 -1 0 1 1 0 1 -1.2
0 0.75 1.2 0 0.75 1.3 0 0.5625 1.35 0
0.4375 -1.4 0 0.25 1.4 0 0.25 1.25 0 0.6875
-0.4 3.73447e-18 1.375 0.4 2.25875e-19 1.375 -0.7 5.48124e-18 1.25 0.7
0 1.25 1.35 0 0.5 -0.9 0 1.125 0.9 0
1.125 -1.3 0 0.625 1.3 0 0.625 1.15 0 0.875
1.1 0 0.9375 1.2 0 0.8125 -1.4 0 0.375 1.4
0 0.375 1.05 0 1 1.25 0 0.75 1.35 0
0.5625 -0.5 0 1.375 0.5 0 1.375 1.4 0 0.4375
1.3 0 0.6875 -0.8 0 1.25 0.8 0 1.25 -1.2
0 0.875 1.2 0 0.875 -1.1 -3.61401e-18 1 -1.4 0
0.5 1.4 0 0.5 1.1 0 1 1.35 0 0.625
-1.5 0 0 1.5 0 0 4.51751e-19 0 1.5 -0.6
0 1.375 0.6 0 1.375 -1.3 -1.03903e-18 0.75 1.3 0
0.75 0.1 0 1.5 -0.1 0 1.5 -1.5 0 0.125
-1 0 1.125 1.5 0 0.125 1 0 1.125 1.4
0 0.5625 -0.2 0 1.5 0.2 0 1.5 -1.5 0
0.25 1.5 0 0.25 -0.3 0 1.5 0.3 0 1.5
-1.4 0 0.625 1.4 0 0.625 -0.9 0 1.25 0.9
0 1.25 0.7 0 1.375 -0.7 0 1.375 -1.5 0
0.375 1.5 0 0.375 0.4 0 1.5 -0.4 0 1.5
-1.2 1.54074e-33 1 1.2 0 1 -1.3 0 0.875 1.3
0 0.875 -1.1 0 1.125 1.1 0 1.125 -1.5 0
0.5 1.5 0 0.5 -0.5 0 1.5 0.5 0 1.5
-1.4 0 0.75 1.4 0 0.75 -0.8 5.48124e-18 1.375 0.8
0 1.375 -1.6 0 0 1.6 0 0 -1 0
1.25 1 0 1.25 -1.6 0 0.125 1.6 0 0.125
-0.6 0 1.5 0.6 0 1.5 -1.6 0 0.25 1.6
0 0.25 -1.5 0 0.625 1.5 0 0.625 9.03502e-19 0
1.625 0.1 0 1.625 -0.1 0 1.625 -0.2 0 1.625
0.2 0 1.625 -1.3 -3.61401e-18 1 1.3 0 1 -0.9
0 1.375 0.9 0 1.375 -1.6 0 0.375 1.6 0
0.375 -1.2 0 1.125 1.2 0 1.125 -1.4 0 0.875
1.4 0 0.875 -0.3 0 1.625 0.3 0 1.625 0.7
0 1.5 -0.7 0 1.5 -1.1 -9.78794e-19 1.25 1.1 0
1.25 -0.4 0 1.625 0.4 3.87422e-18 1.625 -1.6 0 0.5
1.6 0 0.5 -1.5 -3.67424e-18 0.75 1.5 0 0.75 -0.8
0 1.5 -1.7 0 0 0.8 0 1.5 1.7 0
0 -0.5 0 1.625 0.5 0 1.625 -1 0 1.375
1 0 1.375 -1.7 0 0.125 1.7 0 0.125 -1.6
-3.67424e-18 0.625 1.6 0 0.625 -1.7 0 0.25 1.7 0
0.25 -1.3 0 1.125 1.3 0 1.125 -1.4 0 1
1.4 0 1 -0.6 0 1.625 0.6 0 1.625 -1.2
0 1.25 1.2 0 1.25 -1.5 0 0.875 1.5 0
0.875 -1.7 0 0.375 1.7 0 0.375 -0.9 0 1.5
0.9 0 1.5 1.35525e-18 0 1.75 0.1 0 1.75 -0.1
0 1.75 1.1 0 1.375 -1.1 0 1.375 -0.2 0
1.75 0.2 0 1.75 -1.6 0 0.75 1.6 0 0.75
0.7 0 1.625 -0.7 9.62965e-35 1.625 -1.7 0 0.5 1.7
0 0.5 -0.3 -3.97541e-18 1.75 0.3 3.87422e-18 1.75 -0.4 0
1.75 0.4 3.08149e-33 1.75 -1.4 0 1.125 1.4 0 1.125
-1.8 0 0 1.8 0 0 -1 0 1.5 -1.5
0 1 1.5 0 1 1 0 1.5 -1.3 -9.78794e-19
1.25 1.3 0 1.25 -1.8 0 0.125 1.8 0 0.125
-1.7 0 0.625 0.8 0 1.625 -0.8 1.56607e-18 1.625 1.7
0 0.625 -1.8 0 0.25 1.8 0 0.25 -0.5 -3.97541e-18
1.75 0.5 3.87422e-18 1.75 -1.6 0 0.875 1.6 0 0.875
-1.2 0 1.375 1.2 0 1.375 -1.8 0 0.375 1.8
0 0.375 -0.6 0 1.75 0.6 0 1.75 0.9 0
1.625 -0.9 9.62965e-35 1.625 -1.7 -3.67424e-18 0.75 1.7 0 0.75
-1.1 -3.61401e-18 1.5 1.1 0 1.5 -1.8 0 0.5 1.8
0 0.5 -1.5 0 1.125 1.5 0 1.125 9.03502e-19 0
1.875 -1.4 0 1.25 1.4 0 1.25 -0.1 0 1.875
0.1 0 1.875 0.7 0 1.75 -0.7 1.56607e-18 1.75 -0.2
0 1.875 0.2 0 1.875 1.6 0 1 -1.6 0
1 -1.3 0 1.375 1.3 0 1.375 0.3 0 1.875
-0.3 0 1.875 -1.9 0 0 1.9 0 0 1.9
0 0.125 -1.9 0 0.125 -1.8 0 0.625 1.8 0
0.625 -1 0 1.625 1 0 1.625 -1.7 0 0.875
1.7 0 0.875 -1.9 0 0.25 1.9 -1.71331e-19 0.25 -0.4
0 1.875 0.4 0 1.875 -1.2 1.54074e-33 1.5 1.2 0
1.5 0.8 0 1.75 -0.8 0 1.75 -1.9 0 0.375
1.9 0 0.375 0.5 0 1.875 -0.5 0 1.875 -1.8
0 0.75 1.8 0 0.75 -1.5 3.67424e-18 1.25 1.5 -3.61401e-18
1.25 1.6 -3.61401e-18 1.125 -1.6 3.67424e-18 1.125 -1.1 0 1.625
-1.4 0 1.375 1.1 0 1.625 1.4 0 1.375 -1.9
0 0.5 1.9 0 0.5 0.9 0 1.75 -0.9 1.56607e-18
1.75 -0.6 0 1.875 0.6 0 1.875 -1.7 0 1
1.7 0 1 -1.3 -3.61401e-18 1.5 1.3 0 1.5 -2
0 0 2 0 0 4.51751e-19 0 2 -1.9 0
0.625 1.9 0 0.625 0.7 0 1.875 -1.8 0 0.875
1.8 0 0.875 -0.7 0 1.875 0.1 0 2 -0.1
0 2 -2 0 0.125 2 0 0.125 -0.2 0
2 0.2 0 2 -1 0 1.75 1 0 1.75
-2 0 0.25 2 0 0.25 -1.2 -3.85186e-34 1.625 1.2
0 1.625 -0.3 0 2 0.3 0 2 1.6 1.54074e-33
1.25 -1.6 0 1.25 -1.1 0 1.70864 -1.5 0 1.375
-2 0 0.375 2 -1.71331e-19 0.375 1.5 0 1.375 0.8
0 1.875 1.7 0 1.125 -0.8 1.56607e-18 1.875 -1.7 0
1.125 -0.4 0 2 0.4 0 2 1.9 2.99829e-19 0.75
-1.9 1.9877e-18 0.75 -1.4 0 1.5 1.4 0 1.5 -1.8
0 1 1.8 0 1 -0.5 0 2 0.5 0
2 -2 0 0.5 2 0 0.5 -1.1 9.62965e-35 1.75
1.1 0 1.75 0.9 0 1.875 -0.9 0 1.875 -1.3
-1.92593e-34 1.625 1.3 0 1.625 -1.2 -1.92593e-34 1.70864 -0.6 0
2 0.6 0 2 1.9 0 0.875 -1.9 0 0.875
-2 1.9877e-18 0.625 2 2.99829e-19 0.625 -2.1 0 0 2.1
0 0 -2.1 0 0.125 2.1 0 0.125 -1.6 3.67424e-18
1.375 1.6 -3.61401e-18 1.375 -1.7 3.67424e-18 1.25 1.7 0 1.25
-2.1 0 0.25 2.1 -1.71331e-19 0.25 -0.7 0 2 0.7
0 2 -1.5 0 1.5 1.5 0 1.5 -1.2 1.92593e-34
1.75 1.2 0 1.75 -1.8 0 1.125 1.8 0 1.125
-1 0 1.875 1 0 1.875 -8.80914e-18 3.61401e-18 2.125 -0.1
0 2.125 0.1 0 2.125 -2.1 0 0.375 2.1 0
0.375 0.2 0 2.125 -0.2 0 2.125 2 0 0.75
-2 0 0.75 -1.4 0 1.625 1.4 0 1.625 0.3
0 2.125 -0.3 0 2.125 -1.3 0 1.70864 -1.9 0
1 1.9 0 1 -0.8 0 2 0.8 0 2
-2.1 0 0.5 2.1 0 0.5 0.4 0 2.125 -0.4
-1.20467e-19 2.125 1.1 0 1.875 -1.1 0 1.875 -1.3 0
1.75 1.3 0 1.75 0.5 0 2.125 -2 1.9877e-18 0.875
2 0 0.875 -0.5 0 2.125 1.7 0 1.375 -1.7
0 1.375 -2.1 0 0.625 2.1 0 0.625 -1.8 0
1.25 1.8 0 1.25 -0.9 0 2 0.9 0 2
-1.6 0 1.5 1.6 0 1.5 -2.2 0 0 2.2
0 0 -2.2 0 0.125 2.2 0 0.125 -1.9 0
1.125 1.9 0 1.125 -0.6 0 2.125 0.6 0 2.125
-1.5 0 1.625 1.5 0 1.625 -2.2 0 0.25 2.2
[...]
POINT_DATA 1978
FIELD attributes 1
p 1 1978 float
39181.8 37770.2 40869.2 37407.8 36097.9 38989.1 42745.1 36670 40754.8 35069.6 34713.6
33605.6 36040.9 44638.6 35836.8 37788.3 32695.5 42799.8 34301.7 30885.1 29988.1
32171.9 41010.9 31999.5 47200.1 35220.1 46330.9 33751.5 34668.8 29306.1 48511.8
31425.6 28912.1 41274.5 21765.4 52648.7 34995.1 21171.7 23056.6 53999.3 33570.5
27275.7 20868 61341.6 28670.6 65707.1 30975.4 45078.2 20978.7 35380.1 63579.1
33979.9 69339 10051.2 103104 28279.2 9782.92 11075.3 93917.5 21523.9 30986.7
96508.3 18743.8 9764.94 57990.4 10042.8 36332.9 83269.4 165326 22221 27622.4
154811 95147.1 34931.5 139814 10791.1 25775.7 31451.4 136074 2932.45 26933.3
3720.89 2863.14 29266.9 15366.9 2917.87 23074.2 220826 25344.7 31336 196531
27027 113806 37592 217245 12067.9 71638.4 3055.71 131257 36032.2 29305
23161.2 34377 19282.4 25012.3 177264 32016.7 26878 168117 3389.82 29435.1
36095.1 19582.7 22914.4 248217 257262 13627.2 24664.5 34549.5 1121.22 1959.16
1126.7 227639 26801.5 32331 16268.2 1165.28 19793.7 154277 38988.1 234726
22632 4029.24 15281.2 38641 29604.6 36743.1 175126 24401.5 34671.5 1194.79
78265.1 26807.9 218430 32437.5 19895.5 15190.6 278653 267248 22317.5 39350.9
38862.2 29775.5 24253.3 37110.4 263072 4745.23 174048 1245.78 34679 26936
257068 15795.8 19838.6 9570.77 32321.1 22096.5 954.992 203019 39372.5 29806.7
24221.9 38988.1 905.643 2751.01 234890 224751 37268.6 1332.47 299239 16173.7
34692.4 10309.4 19798.9 21537.9 949.807 27013.8 5081.87 288586 289927 21958.3
261448 32278.5 82831.1 973.168 24203.4 29805.3 39485.2 39010.7 11208.3 16559.5
37258.9 6011.97 1402.22 261544 19757.4 34806.8 289191 27023.7 21869.4 166467
992.091 32429.9 24168.8 12055.8 29887.3 323812 16754.3 6103.56 315451 259144
39280.7 38924.2 19718.2 279889 37004.6 27058.6 34898.4 317617 21796.8 222276
1018.62 287955 1467.28 1692.9 309076 32644 8987.55 922.297 12558.3 6696.56
16837.5 24201.8 2316.97 37527.1 911.463 29936 19651.1 36476.9 327296 27028.1
21832.5 946.134 92024.1 34931.8 1038.63 252701 7416.06 346101 12819.8 2665.81
32696 353253 16802.3 24228.2 316144 1356.92 19658.7 29883.2 149997 961.357
321307 38272.1 340425 36647.3 352266 21896.7 26976.8 7862.17 3132.08 12838.5
34935.7 1337.2 1049.67 280334 16748.1 363171 32538.4 24309.7 193104 975.681
19648.7 29822.2 382865 7937.64 7716.14 3467.4 22053.9 1726.72 28273.5 12715
1377.43 348806 374308 27053 390385 16591.9 65545.6 954.059 31966.8 226517
992.534 24524.9 19674.3 308648 1050.68 106317 920.79 29812.3 3533.18 7760.62
1426.01 12366.5 1065.18 397832 387968 22315.9 37658.1 27238.8 405331 36132.2
16345.2 139803 950.812 423484 32318.4 24874.8 257932 1003.04 19716.3 3404.37
389822 1444.57 429902 7238.82 1074 29927.7 11776.5 340752 1028.79 22670.2
169719 969.177 430778 441219 15913.7 27541.3 1412.53 3033.58 19751.6 1084.41
25344.7 6433.69 28230.7 8913.41 60121.8 1027.95 289768 1010.38 10822.3 200759
979.633 93206.2 2187.94 455922 22999 15460.4 458627 37427.7 27543.1 445301
473024 35794.8 1357.96 1065.59 118946 1075.16 2531.57 381140 1038.88 495462
5756.18 19587.8 25785 487491 32331.3 9786.03 141383 956.106 233333 987.313
23298.7 323856 1014.45 512912 14741.8 1308.22 1066.37 2163.21 494724 28380.3
1030.63 5512.74 19305.3 166170 941.116 26250.3 8923.48 267418 992.884 526983
1309.56 437360 527179 23163.1 1031.58 14735.3 531569 37607.3 62291.4 194313
941.268 596916 4590.53 33166.8 90964.7 542075 364089 35891.2 1016.19 18906.5
112872 13087.4 554538 32722.3 131862 4104.53 614955 12955.6 303471 998.212
946.496 225380 567793 29197.6 1652.81 152722 527779 1052.04 656354 1390.05
419714 1017.92 621564 22039.2 176499 1153.52 735388 4249.97 259082 950.276
615209 38255.1 345116 1001.37 623327 36438.1 203583 1052.28 638459 33460.9
742246 11263.5 94966 70487.4 114315 131386 43771.2 657970 1049.86 296310
954.256 666266 29668.4 512677 1015.81 792229 1325.43 150104 22303.8 1033.74
234035 406221 1000.4 171284 10309.1 741441 21156.9 845119 3527.2 267981
717783 1031.66 39242.6 195107 5118.7 342004 956.416 724719 37292.9 836137
9886.94 742070 34268.6 616153 1010.29 743193 1038.91 222042 3297.18 498069
996.925 820393 1263.67 774163 30019.1 307515 1036.34 120968 104485 136898
955.176 414855 154227 84770.2 833174 2933.36 2722.82 252782 818651 20528.3
173670 61650.6 195511 40771.3 629583 1001.36 791215 40489.7 362663 674732
1020.22 1040.84 562980 993.385 793259 38424.9 804008 2544.23 288744 9077.57
795736 35240 220151 26730.9 678784 1193.55 500534 952.736 789048 30559.5
248303 18976.6 2535.25 335521 652125 2625.04 446736 1040.84 738564 20400.9
486555 986.373 147394 515072 987.536 163576 133300 15466.3 281557 181809
120153 995.957 446607 522031 950.85 104676 202120 731203 42032 39856
721836 588657 8750.67 409602 2581.35 409110 1152.36 687113 36462.7 225106
87322.6 512518 1041.14 13994.6 324431 607531 31422 70920.4 251689 363658
2485.01 340109 977.458 973.269 260496 493971 424524 2617.43 947.189 467901
20732.3 13577.3 390968 283507 57456.5 210976 977.972 481176 1048.67 479798
43831.4 178469 293668 8736.28 48773.8 183407 1124.38 324759 164043 195296
461425 41520.8 214382 151630 480271 13707.3 403305 37853.9 512180 2694.88
236046 140152 958.837 167793 516953 246690 308482 32505.2 949.398 43942.2
958.023 387807 125430 261423 128662 2420.01 158979 336008 1078.75 112534
954.448 292596 116127 202438 21374.3 528319 14042.5 41799.6 475125 412293
2947.88 481875 334538 103672 1086.51 107670 129370 8963.75 210299 45820.8
199211 43383.1 126623 969.141 106560 930.622 167624 39428.9 397837 94013.6
176229 1214.32 466886 14817.7 102596 923.729 536034 41606.5 214850 232871
199371 130260 33942.7 186318 253703 2451.87 104530 240982 3673.45 175109
278633 340335 101811 911.15 480857 87651.2 108402 22648.1 164728 310940
42752.9 500540 304746 16596.3 154722 101564 1059.26 356483 1087.08 102813
102469 9822.93 101579 962.459 540504 84122.1 108552 1801.42 108092 47889.8
107031 45329.3 101360 926.085 421342 145621 127280 5760.58 104595 41368.4
355033 45600.2 2989.62 101424 102490 36562.8 101320 515556 930.481 83269.4
496135 138328 157621 20425.9 259359 241839 280852 101568 26615.3 227616
308400 101378 2170.86 101690 4369.61 215857 345254 542943 133055 101312
1590.84 1560.49 101309 11238.3 102882 190740 50902.8 384113 84785.1 205664
394831 101342 16129.1 101301 1467.71 101563 49788.8 47351.4 101521 106207
28339.8 196847 455927 513704 129646 44676.8 101424 101303 11927.6 101299
2025.09 514021 189249 43196 101342 216450 88724 113069 59560.9 101321
13041.7 101302 8172.03 389355 128536 101382 23050.7 101308 42980 537447
183175 101299 6414.95 101299 12234.3 42016.9 101565 329548 360854 304805
101298 6791.41 101300 50459.1 285715 399157 121832 95346.2 491990 178786
227775 129855 270952 443849 101308 52154.9 72279.8 101962 50720 101306
259428 489666 52027.1 101303 101298 16096.7 101298 60827.7 101299 31434.6
369046 175940 101304 43376.9 101298 25118.5 250700 520863 62450.8 101300
101312 61829.2 128141 133299 102579 104801 23687 101298 512936 244206
101298 89383.5 66821.9 220683 175137 87248 101333 101298 30282.3 445126
239750 101298 128546 138738 103196 101298 58276 428289 101369 101298
57375.4 116295 68101.9 402576 457047 101298 58183.1 128571 176453 323933
236928 71282.9 381088 484133 54593.1 101299 83480.8 101298 68512.4 101298
154709 501431 363566 102753 101298 58041.9 101298 103232 101300 350190
497932 196911 235410 101409 146024 101298 160044 458933 340920 103454
179532 163504 81693.4 101302 127516 374013 335211 112398 122578 91169.5
209029 235416 86159.4 102023 87246.4 261940 332992 101436 184298 101298
117980 159192 101298 101298 67899 101304 154588 101298 73032.6 227932
101298 98426.5 103156 236795 98816.5 102167 164015 333468 101298 138231
481460 475394 480937 101298 154189 466370 468368 457010 434704 101298
217649 232050 101307 190534 143997 449413 110344 371459 113630 335038
101298 117960 101299 164035 101431 239321 101298 108237 101354 131059
444733 285814 254137 113592 101298 149707 102519 222661 336733 197604
443143 86773.9 98121 101299 197878 101298 134264 101298 262529 101307
243079 138110 444900 132981 174354 198078 101399 338142 133996 127835
192259 145495 263327 106540 449083 127674 248953 415944 438554 379820
101299 248258 452003 328411 162639 206719 101298 136963 460096 265948
279226 101307 339160 101919 453408 465626 199893 185963 101298 255560
143443 470513 166390 101298 117046 291029 134326 456190 255150 101359
101298 180824 101298 151967 112260 475598 162070 147402 101299 340677
217323 232438 101298 177819 149557 101298 227376 103118 481090 292420
101298 271912 456837 101303 199692 163141 264591 101552 486403 101298
344328 303206 255778 291884 214692 284895 101298 229732 322031 172062
101298 199072 455353 101299 172241 135228 345854 180842 101328 490331
169551 319862 195313 158593 179890 112530 363801 224856 174567 350968
103929 377007 215992 277196 264885 259951 101301 491974 453165 321530
101829 386548 192716 297653 244808 101385 393211 491084 101299 331079
201889 101298 361253 194990 101298 215001 313768 452586 232917 293224
194336 101310 397382 234820 352228 101298 209893 132809 487755 101298
152335 116821 101298 202873 233000 172403 107279 263443 101298 271967
101299 399277 190946 103273 292359 375564 454474 300146 206518 101846
354171 224936 101298 328202 218550 101425 313824 482686 399070 101298
225794 237427 220566 256516 101326 226930 363669 222223 267751 345415
458916 286537 396925 101298 393468 101304 231978 101298 476886 234335
390700 269498 292274 101299 234272 340231 323624 326130 392938 259379
341204 263924 394673 253469 103160 104914 102113 465659 282779 107529
101600 101298 234616 470697 249668 111012 101394 365516 415258 316254
114976 101323 253856 386892 303910 101298 101298 384401 233656 403923
118775 101304 373102 269058 464059 101300 121724 473364 439774 231621
378268 335120 440897 296769 123470 355928 365175 317428 286658 297004
380312 284044 355712 449468 390585 124117 101298 228567 456301 290767
412278 413467 479993 366415 101393 345117 101491 101338 124022 101639
101312 438607 457964 101836 101302 309235 468070 224045 102065 101299
101298 341486 366252 123523 445644 508161 329974 102290 101299 407482
350815 419077 405102 342890 482880 328524 422871 101298 102469 456731
441635 101298 217216 122745 531672 448676 338769 102577 101298 491535
474311 330751 428939 405328 101298 102617 121690 527284 101298 365008
207448 433660 534693 408217 478362 468625 396024 102610 101303 101308
499578 101300 101299 101315 615219 120186 397326 101326 101298 415329
509384 305471 503654 101338 101298 101298 476781 194567 101298 102578
402591 490781 505543 101350 414175 662073 514097 117991 460800 101360
102529 495116 507258 101298 550716 523087 491671 449193 274798 101366
652433 178819 524264 484135 646037 363036 102464 493638 115097 101368
487045 757377 499956 606477 421278 101367 101298 161015 101298 550391
498483 102374 101299 101298 560789 239028 101299 101298 574448 790586
111798 101300 101298 538634 547586 591659 101366 508214 310176 101301
546177 101298 556780 514468 101302 655037 447097 541078 102243 101298
726196 101363 142622 101298 101302 775839 354112 108591 532213 199340
101303 520755 102073 853202 612038 101359 248728 514734 101298 101303
483638 509406 432429 638656 647517 125443 101298 513448 105931 101298
357562 799707 664870 101303 101355 696337 159867 507134 101882 499442
482116 268882 773361 101298 643431 101303 466251 185891 101348 847501
103973 112537 423204 101701 101303 355672 308360 465128 378899 808756
411923 246691 127745 376378 101339 184832 101302 740288 747251 632732
764566 349592 102653 101550 101298 335558 333954 135278 792789 101298
105615 819518 101302 101329 301312 407447 109521 186111 210071 101298
771879 154892 101298 101298 218655 245858 101438 101882 126931 239289
101298 101301 101298 101298 245069 209727 592956 101319 102741 109529
186433 101298 101298 101298 790241 789789 355824 175548 101301 785278
103249 165318 101366 764250 101515 155472 101311 118761 110916 124538
186925 101298 687983 101298 105280 124864 101695 101300 518219 126402
102678 119710 126535 120799 101327 101305 304293 101692 101367 101298
112046 101300 157133 684800 108431 672169 101298 102253 101391 102792
106265 627159 101773 103084 105892 534454 101301 101308 101490 102923
101298 108191 393188 101298 101299 101298 101316 101363 101298 102428
102794 101298 237999 102823 102329 101298 101319 101900 135554 101299
101301 101378 101299 101405 101345 101682 101412 101320 104601 404072
101298 101564 386596 101302 101547 101298 101298 101298 331997 101393
101307 247843 101298 101298 101610 101299 101298 101298 163469 101360
101302 101299 101376 101379 101298 101298 115148 101330 101348 101305
101302 101299 101305 101301 102861 101298 101306 101298 101298 101299
101298 101298 101320 101311 101435 101303 101311 167381 101298 159133
101299 136992 114973 101302 101298 101313 101298 104556 101304 101298
101298 101302 101299 101299 101298 101298 101299 101837 101300 101301
101298 101298 101299 101298 101358 101298 101298 101299 101299 101299
101298 101299 101303 101298 104432 103943 101298 102805 101833 101298
101298 101298 101299 101298 101422 101298 101298 101298 101298 101298
101298 101298 101298 101318 101298 101301 101298 101298 101298 101298
101298 101417 101398 101354 101298 101318 101298 101298 101303 101299
101298 101298 101298 101298 101298 101298 101298 101298 101298 101298
101298 101298 101303 101302 101300 101299 101298 101298 101298 101298
101298 101298 101298 101298 101298 101298 101298 101298 101298 101298
101298 101298 101298 101298 101298 101298 101298 101298 101298 101298
101298 101298 101298 101298 101298 101298 101298 101298 101298 101298
101298 101298 101298 101298 101298 101298 101298 101298 101298 101298
101298 101298 101298 101298 101298 101298 101298 101298 101298 101298
101298 101298 101298 101298 101298 101298 101298 101298 101298 101298
101298 101298 101298 101298 101298 101298 101298 101298 101298 101298
101298 101298 101298 101298 101298 101298 101298 101298 101298 101298
101298 101298 101298 101298 101298 101298 101298 101298 101298 101298
101298 101298 101298 101298 101298 101298 101298 101298 101298 101298
101298 101298 101298 101298 101298 101298 101298 101298 101298 101298
101298 101298 101298 101298 101298 101298 101298 101298 101298 101298
101298 101298 101298 101298 101298 101298 101298 101298 101298 101298
101298 101298 101298 101298 101298 101298 101298 
