/*--------------------------------*- C++ -*----------------------------------*\
  =========                 |
  \\      /  F ield         | OpenFOAM: The Open Source CFD Toolbox
   \\    /   O peration     | Website:  https://openfoam.org
    \\  /    A nd           | Version:  9
     \\/     M anipulation  |
\*---------------------------------------------------------------------------*/
FoamFile
{
    format      ascii;
    class       surfaceScalarField;
    location    "0.00285";
    object      phi;
}
// * * * * * * * * * * * * * * * * * * * * * * * * * * * * * * * * * * * * * //

dimensions      [0 3 -1 0 0 0 0];

internalField   nonuniform List<scalar> 
71763
(
-2.70227
-0.857561
3.00502
-0.532487
0.986914
0.523836
-2.00629e-05
3.76564e-05
2.8099e-05
-6.71875e-05
-0.000305357
-0.000119943
-3.80089e-05
4.21679e-05
-4.58444e-05
-0.000220082
-8.84244e-05
-3.11717e-05
-2.40289e-05
-2.36848e-05
-4.04701e-05
-6.44185e-06
9.08131e-06
8.17177e-06
-1.63029e-05
-5.58512e-05
-2.50059e-05
-1.1225e-05
7.69489e-06
-9.82377e-06
-1.45706e-05
-9.87365e-06
-7.56919e-06
-7.44229e-06
-6.54758e-06
-8.97891e-06
4.55316e-07
4.52951e-07
-4.36321e-07
-6.94683e-07
-1.67085e-06
4.90542e-07
-2.89949e-07
6.0841e-08
6.39324e-08
-2.24491e-07
-5.50684e-07
-6.09016e-07
-4.45162e-07
-2.77515e-05
1.7655e-05
2.44829e-05
-4.77142e-05
-0.000200277
1.777e-05
9.91662e-07
-1.21582e-06
-1.72354e-06
-7.84691e-06
8.05049e-07
7.99782e-07
2.60608e-07
-6.3644e-07
-6.0666e-07
-2.20946e-06
-9.31254e-07
-6.2331e-07
0.000592907
-0.000663209
-0.00374253
0.000324947
0.000374553
0.844508
-0.0403632
1.39518
-1.32965
-0.703706
0.029615
-0.0181704
-1.51844
-0.367419
0.146616
0.269985
0.330919
-3.01429
-1.6781
-1.55734
3.00109
1.62121
1.77586
1.18211
-3.04849
-0.617815
-1.09805
0.987341
2.88978
-0.0028392
0.00120869
0.0010383
-0.00709602
-0.0115523
0.00117248
-0.00476472
-0.00723685
-0.0294517
0.00500756
0.00446563
0.00650869
0.695699
-0.93127
-0.441299
-0.915942
0.461192
0.870514
-0.0625534
-0.114526
-0.0333942
0.0218386
0.0421963
0.0249137
0.000568409
-0.00471673
-0.00262642
-0.00381839
0.0012324
0.00108588
-0.0097871
-0.00702462
-0.00303957
0.00132012
0.00180433
0.00202774
-0.894042
-0.361808
-0.799132
0.512385
0.82498
0.359093
-0.156292
-0.0888934
0.024509
0.0331724
-0.0332787
0.0203469
-0.290019
-0.112782
-0.0697273
0.0314451
0.0426445
0.0523004
-0.992273
1.13419
-0.14462
1.55525
-1.5096
0.126721
-2.13624
2.56067
0.413028
-0.933058
1.07402
-0.018046
0.117163
-0.70109
-2.04641
0.228693
0.830278
2.09453
2.29332
0.0196686
-0.966367
0.339563
-2.21452
1.09971
0.0614427
-0.941037
2.68927
0.281629
1.08582
2.88933
-2.22336
-1.08255
-2.54386
1.31567
2.18491
-1.03013
-1.34053
2.08849
1.11234
-3.09037
1.32644
-0.0923852
1.47378
-1.42105
0.077463
0.847755
0.802677
-0.637847
-0.721299
0.881416
0.978607
-0.746454
0.0689444
-0.751629
0.87404
-0.0700828
1.8127
0.678055
-0.110232
-0.58091
1.214
0.777466
1.35229
-0.634362
1.69977
0.0533026
0.0522653
0.0510614
-0.25636
-0.0610762
-0.00889071
-0.037348
0.00640606
0.00586236
-0.00673183
-0.0430154
0.00695641
-0.00971627
0.00969456
-0.0400515
-0.0444779
-0.158619
0.0335152
0.0456951
0.00880839
-0.0115794
-0.185746
0.040947
-0.214978
-0.0552306
0.217526
0.297504
-0.806176
-0.218035
-0.278642
-0.20112
0.177194
0.254413
0.778831
-0.457133
-0.851275
0.488607
0.795557
-0.888387
-0.960068
-0.413103
0.202372
-0.212145
0.297674
-0.874495
-0.411614
-0.19602
1.6453
1.26807
-1.60237
0.178164
1.1002
0.967542
-0.847646
1.06088
1.2102
-0.945797
0.0251819
0.991876
1.95017
-0.871098
0.0200057
1.71443
0.964439
1.51737
1.10794
0.0342801
-0.0810235
-0.00994582
0.00818173
0.0113486
-0.0129632
0.00676887
-2.01244
-0.426782
0.310579
0.976801
0.417512
-0.121149
0.284983
-2.51294
-0.610997
-0.137239
1.22952
0.585001
-1.82137
-0.473786
0.354445
0.065713
0.423119
0.153354
-0.982903
-2.77706
0.263516
2.62895
1.05889
-2.50851
-0.811457
0.599056
2.33794
0.874114
0.20059
-2.73633
0.210049
-0.876471
2.69452
-1.1407
1.53184
2.47497
-2.93417
-1.57041
1.16484
2.79258
-1.2294
-0.706342
1.15758
-2.71908
1.38607
-1.21567
-0.64967
3.0568
1.1349
1.39079
-1.37603
2.27275
-2.76023
-2.09267
1.56491
2.94541
2.70311
-0.642535
-1.07735
1.06981
-2.67018
-1.75509
-1.58066
1.8128
2.14471
-2.8439
0.57532
-0.943405
1.03831
-0.0960012
2.56397
-1.98843
-0.707429
0.768735
1.96857
-0.750601
0.858185
0.438893
2.44744
-0.798657
-1.90037
-0.608695
-0.632131
1.93368
-0.644806
-0.832059
-0.14381
-1.76497
-1.18789
2.93958
1.41992
1.91482
-1.3478
2.73878
-2.31913
-2.12984
1.55354
2.47792
-1.05675
-2.68297
-1.49955
1.24773
2.63214
1.77093
2.18978
2.73158
-2.36326
-2.61689
-2.01902
2.60003
-0.861132
-2.35658
-2.03628
1.0664
2.623
2.06735
-1.18158
-1.77932
2.01847
-2.22704
1.39384
2.59726
-1.86348
-2.30474
-1.41928
2.47193
1.64522
2.17034
-0.0617505
-3.23656
0.150883
0.870842
3.31151
-4.20751
-3.21283
0.145119
3.96537
3.3627
3.41099e-05
-0.00061767
4.42988e-06
-3.64706e-05
0.000174602
3.31289e-07
-2.03656e-05
4.90788e-07
-3.5787e-07
2.27257e-07
1.9065e-07
3.29748e-07
1.81705e-07
-5.09601e-06
2.14085e-05
1.46413e-05
2.64892e-06
-1.35615e-05
-5.03573e-06
-1.31014e-05
-5.43064e-05
-6.65379e-05
-6.52265e-05
-5.36952e-05
-0.00652958
0.00121338
-0.00589251
0.00134271
5.63875e-05
-0.360834
0.00726776
0.0143321
0.0500839
0.00201029
-0.0116917
-0.0470476
0.00016593
0.00373852
0.00256132
-0.000989052
1.57093e-05
-2.23651e-05
-5.83454e-06
4.81543e-05
0.000188784
-1.83929e-07
1.37225e-06
5.42277e-07
-2.92877e-07
-3.84638e-07
-1.86365e-07
-3.49194e-07
-2.01332e-05
-7.74692e-06
-1.5206e-05
-6.10988e-06
-1.07718e-05
4.10209e-06
8.86501e-07
-6.04313e-06
-3.67613e-05
-5.10353e-06
-3.01863e-05
-2.68885e-06
-1.04332e-05
-2.59112e-06
-8.74876e-05
-1.70231e-05
2.51155e-05
1.81449e-06
-6.60094e-05
-8.72546e-05
-6.70472e-05
-7.85396e-05
1.30633e-05
2.09873e-05
1.1666e-06
-7.49084e-05
-6.16616e-05
-5.89347e-05
7.90403e-07
-7.38671e-06
-4.58199e-06
1.30478e-06
3.39369e-06
2.08373e-07
-7.32114e-06
-6.54509e-06
-6.44556e-06
-5.22063e-05
-3.88418e-05
2.36539e-06
1.04388e-05
1.60135e-05
-5.72593e-05
-2.50702e-05
-2.37981e-05
3.06494e-07
4.39147e-07
1.8488e-07
-2.78934e-06
-1.79658e-06
-2.4427e-06
-1.68931e-06
-3.9017e-07
2.35219e-07
4.99572e-08
-1.62381e-07
1.44211e-06
2.65808e-07
-5.04111e-06
-6.23215e-06
-4.77518e-06
-5.86349e-06
2.76008e-07
5.46028e-07
9.95279e-08
-2.89165e-06
-1.69909e-06
-2.89815e-06
-1.52116e-06
1.20801e-07
2.21585e-08
-6.64227e-07
-7.93716e-07
-6.31603e-07
-8.54926e-07
1.88122e-06
1.40352e-06
6.07075e-07
-3.43135e-06
-3.20221e-06
-9.86415e-06
-7.35454e-06
-3.12943e-06
-2.6108e-06
-1.73205e-06
-1.68297e-06
1.01586e-07
7.42914e-08
2.99612e-08
-3.24308e-09
1.20677e-08
2.99944e-09
1.98298e-09
6.23474e-08
1.0428e-08
9.64921e-09
2.56119e-08
4.58415e-09
4.06687e-09
6.7984e-10
1.51288e-07
1.40779e-07
4.50321e-08
-1.76059e-06
9.04527e-09
7.68672e-09
2.46866e-09
6.87919e-10
6.87784e-10
1.77135e-10
1.62146e-10
2.07488e-09
3.18732e-10
2.94555e-10
9.35422e-10
1.49587e-10
1.36808e-10
2.14051e-11
8.8087e-09
9.65618e-09
2.65776e-09
-9.81915e-08
5.78943e-10
5.60405e-10
1.57517e-10
6.48583e-11
3.85185e-11
9.85878e-12
1.09566e-11
5.94866e-11
8.7006e-12
7.71649e-12
2.81517e-11
4.1176e-12
4.27747e-12
6.2883e-13
4.47884e-10
1.38154e-10
-4.80704e-09
3.20384e-11
8.81073e-12
2.02505e-12
5.32907e-13
5.32907e-13
2.20268e-13
1.56319e-13
9.9476e-14
1.77636e-14
-0.0337039
-3.54932
-0.481872
0.873828
0.596498
3.50279
-0.285495
-0.0362406
-0.382151
0.019832
0.0362031
1.14394e-05
8.6478e-05
2.32729e-06
1.129e-05
7.3601e-06
3.45472e-05
1.16254e-05
-0.000211369
-0.000311979
-0.000423622
-0.000273336
-1.44689e-05
-1.55933e-05
-1.26337e-05
-1.24972e-05
1.12047e-06
-2.92552e-06
1.68609e-06
-4.55031e-07
1.50889e-07
-7.44455e-06
1.71672e-07
-1.33673e-07
1.85463e-07
1.02748e-07
1.23954e-07
6.40588e-08
-4.75229e-06
-2.62552e-06
1.06412e-05
6.99838e-06
3.01807e-06
-6.91295e-06
-2.47203e-06
-5.34709e-06
-5.65924e-05
-4.1866e-05
-5.73062e-05
-4.38807e-05
-0.000253694
-0.00367603
0.000557094
-0.00321875
0.000722586
0.000243045
-0.20121
0.000184635
-0.00905031
0.00430724
0.024647
0.00802518
-0.00325253
-0.0138392
-0.000596639
0.000390167
0.00103682
0.000669383
-0.000435519
3.48719e-05
2.5998e-05
6.55231e-05
-0.000286189
-0.000255674
-0.000170544
-1.59586e-05
-1.36866e-05
-8.44522e-06
-8.20392e-06
-5.88582e-06
-6.40383e-06
-5.34604e-06
-9.63761e-06
-1.66054e-07
5.51979e-07
-2.45333e-07
-1.28976e-07
-1.32178e-07
-3.16426e-08
-7.14666e-08
-6.04591e-06
-2.78416e-06
-2.88029e-06
-1.88598e-06
-3.61117e-06
1.57569e-06
4.26267e-07
-2.44512e-06
-1.72893e-05
-1.47642e-06
-8.54263e-06
-1.33123e-06
-2.38193e-06
-1.20961e-06
-0.000102931
-3.13724e-06
-5.91451e-06
1.55768e-05
2.90604e-06
-3.77306e-05
-4.21348e-06
6.50802e-06
1.03383e-05
4.06287e-06
-2.94266e-05
-2.80927e-05
-2.14376e-05
3.33602e-08
-3.45834e-06
-1.55186e-06
-2.63962e-07
4.62739e-07
1.23571e-06
1.69338e-07
-4.28951e-06
-4.84444e-06
-4.95441e-06
-1.65152e-05
-1.10059e-05
-3.46055e-06
1.88662e-06
3.52576e-06
6.15687e-06
-1.25631e-05
-1.03076e-05
-8.95278e-06
1.66632e-07
2.01241e-07
4.27502e-08
-1.32165e-06
-1.01902e-06
-1.09184e-06
-1.18885e-06
-1.94651e-07
9.59192e-08
2.23465e-08
-7.2853e-08
7.99517e-07
1.97755e-07
-3.33662e-06
-3.93198e-06
-2.99534e-06
-3.37083e-06
1.20684e-07
2.74014e-07
1.0263e-07
-1.57702e-06
-9.05032e-07
-1.32304e-06
-7.0782e-07
4.58087e-08
1.32348e-08
-3.45425e-07
-5.25892e-07
-5.15953e-07
-5.22142e-07
8.27603e-07
5.98317e-07
2.53376e-07
-1.8883e-06
-3.46828e-06
-2.3708e-06
-2.11134e-06
-1.19146e-06
-9.40218e-07
-9.62655e-07
-8.11615e-07
4.18216e-08
3.07542e-08
1.20278e-08
-1.55282e-09
4.70894e-09
1.33128e-09
4.74806e-10
2.8634e-08
6.38681e-09
3.91721e-09
1.16739e-08
2.88361e-09
1.68024e-09
4.31623e-10
5.98127e-08
5.58609e-08
2.09637e-08
-7.37947e-07
3.49739e-09
3.02411e-09
1.10602e-09
2.81467e-10
2.63334e-10
8.12541e-11
5.89893e-11
8.27214e-10
1.69919e-10
1.10276e-10
3.83181e-10
8.2423e-11
5.82219e-11
1.33298e-11
3.38484e-09
3.70009e-09
1.34671e-09
-3.91218e-08
2.27004e-10
2.21071e-10
8.13003e-11
2.68159e-11
1.50777e-11
5.13722e-12
4.31299e-12
2.19345e-11
4.39471e-12
2.66454e-12
1.05516e-11
2.07834e-12
1.76215e-12
3.69482e-13
1.75888e-10
7.46496e-11
-1.89802e-09
1.28964e-11
4.9738e-12
8.45546e-13
2.91323e-13
1.98952e-13
1.10134e-13
5.68434e-14
4.61853e-14
7.10543e-15
-4.27031
-0.994228
1.0622
-1.03317
3.69723
1.9243
-0.00374926
-0.000983028
-0.00754251
0.000253509
0.000449115
3.98236e-07
3.84052e-09
-3.43703e-06
7.50698e-07
3.84043e-07
-9.49475e-06
2.30616e-08
-2.54766e-08
-1.16065e-08
-2.08396e-06
-3.49227e-07
1.76212e-06
-2.53697e-05
1.07123e-06
7.23974e-07
-1.03098e-06
-3.17917e-07
-5.59536e-07
-8.74835e-05
-0.000750609
0.000127371
-0.000607948
0.000150111
6.72286e-05
-0.0340787
-0.000675707
-0.00267441
0.0015129
0.00323522
0.00147079
-9.57953e-05
-0.000365847
-2.74194e-05
9.24795e-06
3.1037e-05
2.04986e-05
-1.34817e-05
-8.67209e-06
5.86551e-06
-3.43273e-06
8.72808e-06
-2.50541e-05
-1.70199e-05
-1.74798e-05
-1.23917e-05
9.90616e-07
5.714e-07
-1.42407e-06
-4.0135e-07
-2.96421e-07
-2.26375e-06
-8.22455e-07
-1.85774e-06
-1.49921e-06
-1.90692e-06
-1.40597e-06
-6.828e-07
-6.78886e-07
-6.61715e-07
-8.73631e-07
2.50887e-07
-2.42525e-07
-4.31867e-07
-2.91188e-06
-2.35502e-07
-1.0699e-06
9.7162e-07
4.9421e-06
1.12528e-06
-3.07846e-05
-7.9781e-05
-1.89322e-05
-2.40495e-05
-1.70642e-06
-2.42851e-06
-1.17327e-06
-1.2131e-06
-7.67583e-08
-1.42596e-07
-9.72785e-08
-8.46276e-06
-1.98861e-06
7.93216e-07
2.95389e-06
6.62624e-07
-6.8342e-06
-7.39393e-06
-6.98521e-06
2.44338e-07
7.53778e-08
-2.59317e-06
-6.58584e-07
-9.06018e-07
-4.82303e-07
-2.818e-07
-2.26147e-07
-2.10885e-07
-2.17874e-07
-1.29747e-07
-9.21194e-08
-1.0431e-07
-1.03459e-07
1.5094e-06
1.07921e-06
3.29333e-07
-1.17161e-05
-4.11407e-06
-3.36465e-06
-2.10803e-06
-2.06648e-06
-1.65631e-06
-1.47663e-06
-1.15594e-06
-6.42637e-07
-5.43579e-07
-4.51264e-07
-4.04738e-07
7.94955e-08
7.83679e-08
-9.76384e-08
-2.54845e-08
1.5262e-08
9.74829e-11
-1.85328e-08
1.4987e-07
3.2146e-08
2.47948e-08
8.24323e-08
1.66085e-08
-5.71412e-07
-4.84809e-07
-5.192e-07
-6.62966e-07
1.02952e-08
2.57944e-09
1.73999e-07
1.39252e-07
4.02097e-09
-2.46374e-06
1.05357e-08
8.69225e-09
-1.55827e-09
5.52895e-10
8.79609e-10
2.26564e-10
2.85283e-11
4.14736e-09
8.56694e-10
6.10932e-10
2.13813e-09
4.32216e-10
3.51378e-10
7.75131e-11
1.22665e-08
1.2148e-08
2.1898e-09
-1.47726e-07
8.18318e-10
7.54362e-10
2.49212e-10
9.14397e-11
5.3106e-11
2.25171e-11
1.4289e-11
1.06326e-10
2.13483e-11
1.29674e-11
5.22107e-11
1.09246e-11
1.02887e-11
2.1565e-12
7.20888e-10
8.14396e-10
1.87292e-10
-8.18609e-09
5.14007e-11
5.23315e-11
5.09459e-12
3.26139e-12
3.26139e-12
2.16716e-13
8.3844e-13
2.6219e-12
5.18696e-13
2.4869e-13
1.21503e-12
2.55795e-13
2.70006e-13
5.32907e-14
3.74101e-11
1.14859e-11
-4.05329e-10
2.79954e-12
5.86198e-13
1.77636e-13
3.19744e-14
2.84217e-14
1.06581e-14
0
3.55271e-15
0
-2.47268
-0.782878
0.328689
-0.690715
0.420988
0.570533
-1.56602e-05
-1.01695e-05
6.59396e-06
1.08059e-05
-0.000180517
-3.31852e-05
-2.41482e-05
-1.25523e-05
-8.63234e-05
-7.95772e-06
-1.7732e-05
-3.18612e-05
-6.4422e-06
-1.05822e-05
4.71746e-05
-0.000153216
-0.000110793
6.35921e-05
7.61678e-05
-0.000274782
3.57708e-06
-2.57882e-06
-3.31271e-05
5.52568e-06
4.92393e-06
-1.88196e-06
-1.08227e-05
-5.23648e-06
-7.51801e-06
-1.86854e-05
-9.18356e-06
-7.66216e-06
-1.93748e-05
-5.55291e-05
1.84559e-05
3.44131e-05
1.08864e-05
-0.000372773
-3.35502e-05
-0.00013653
-1.14225e-05
-2.61207e-05
-8.45383e-06
-1.54253e-05
-2.75808e-05
-1.63155e-05
-2.12722e-05
-0.000755574
-2.85615e-05
-8.36638e-05
3.43615e-05
6.48178e-05
2.33706e-05
8.39974e-07
3.67293e-07
-5.571e-06
-8.43908e-07
-1.11873e-06
-3.43649e-07
-1.806e-05
-1.74487e-06
-2.79071e-06
-7.59601e-07
-2.43383e-06
-6.33112e-07
-6.13696e-07
-3.15863e-07
-9.96572e-05
3.92134e-05
3.12803e-05
1.67025e-05
-5.27438e-05
-0.000108183
-4.42382e-05
-6.91153e-05
-3.52042e-05
-2.525e-05
-2.28806e-05
-2.02514e-05
-2.57007e-05
-8.2361e-06
3.72395e-06
6.8164e-06
-5.68715e-06
4.69493e-07
6.49012e-07
1.07238e-07
-1.21982e-06
-6.1749e-07
-9.08073e-06
-1.41787e-06
-1.24894e-06
-1.33777e-06
-2.39616e-06
-1.43471e-06
3.79896e-08
3.33922e-07
9.8993e-08
-2.51842e-06
-7.38575e-06
-5.50895e-07
-1.13612e-06
6.14367e-08
1.47551e-07
4.90837e-08
-3.4294e-06
-8.13821e-07
-5.61031e-07
-2.15532e-07
-1.903e-07
-1.40059e-07
-1.55306e-07
-1.54081e-07
2.75354e-08
9.71694e-09
1.85861e-06
2.51303e-06
5.92995e-07
-1.01606e-05
-6.94917e-06
-2.36693e-05
-3.64282e-06
-8.52535e-06
2.87792e-07
5.51912e-07
3.44423e-08
-1.76565e-06
-2.16611e-06
-2.62725e-06
-1.71854e-06
2.81821e-08
3.1863e-08
-3.26882e-09
3.64653e-09
9.2226e-09
3.18734e-09
1.22191e-09
3.90624e-09
1.40328e-09
8.87631e-10
2.99217e-10
9.97161e-08
1.60822e-07
6.51207e-09
-7.41605e-07
1.35677e-08
2.55505e-08
9.25564e-10
1.18592e-09
1.47823e-09
-1.5147e-10
1.42386e-10
2.68045e-10
9.25517e-11
2.60272e-11
1.01863e-10
3.68416e-11
2.70362e-11
8.62954e-12
5.42397e-09
9.37194e-09
8.30195e-10
-4.12744e-08
6.3978e-10
1.11761e-09
-1.58806e-12
5.32552e-11
6.78497e-11
-5.32552e-12
4.98801e-12
8.05755e-12
2.06768e-12
6.11067e-13
2.6148e-12
9.13047e-13
7.60281e-13
2.30926e-13
2.68678e-10
4.78614e-10
7.11822e-11
-2.16288e-09
2.88551e-11
4.79332e-11
5.40012e-13
2.27374e-12
2.98428e-12
-9.59233e-14
1.56319e-13
2.4869e-13
4.9738e-14
1.42109e-14
5.68434e-14
2.13163e-14
2.13163e-14
3.55271e-15
1.18945e-11
3.59179e-12
-9.94618e-11
1.19371e-12
1.35003e-13
8.52651e-14
3.55271e-15
7.10543e-15
0
0
0
0
-2.39315
2.03139
-0.467122
2.76705
-1.83336
0.484033
-3.0507
1.6752
-0.299542
2.18111
-1.96249
0.595256
-0.410604
0.0489972
-0.0384
0.0497495
-0.157565
0.0362008
-2.34715e-05
-3.51983e-05
-2.90999e-05
1.41302e-05
9.15217e-06
6.24787e-06
-9.78891e-07
-9.1406e-07
-1.91933e-06
4.94967e-07
6.51369e-07
-2.91482
-1.20112
2.11775
-0.353444
1.15073
0.572978
0.0425796
-0.468114
-0.182764
0.0693973
0.0718565
-0.0167472
0.000210198
-0.00598414
-0.00187169
0.000501901
0.000596612
6.24068e-05
-8.82151e-07
-5.92876e-05
-1.0254e-05
3.67951e-06
6.11053e-06
1.80988e-06
-2.02374e-05
-3.80304e-05
-1.37646e-05
-1.0418e-05
-9.89351e-06
-1.0466e-05
-1.1972e-05
-7.28565e-07
-2.53525e-06
3.29937e-07
5.59917e-07
2.70551e-07
4.53515e-08
2.34728e-08
-8.32428e-08
-1.66389e-08
-1.82268e-08
-1.20846e-08
-2.91274e-07
-3.1015e-07
-3.15017e-07
-3.17888e-07
-0.00686704
-0.00146813
0.000335615
-0.000246136
0.000520934
0.000671339
-0.000129926
-2.67701e-05
2.49028e-05
3.01591e-05
4.45328e-08
-5.37987e-05
-0.000167698
-6.02375e-05
8.21351e-06
-3.12778e-05
-1.89869e-05
-1.92085e-05
1.05957e-06
1.73966e-06
4.27358e-07
-2.29643e-05
-6.01487e-06
-1.21737e-05
-2.89249e-06
-5.09419e-06
-1.76959e-06
-3.80296e-06
-1.46219e-06
5.21605e-08
4.64082e-08
2.2772e-08
-3.96293e-07
-8.38488e-08
-2.61096e-07
-6.82964e-08
3.0013e-09
3.01355e-09
2.5751e-09
-3.78575e-08
-1.04975e-08
-6.31077e-09
-3.67448e-09
1.27969e-09
6.45617e-10
2.4106e-06
4.6904e-06
1.08584e-06
-3.16635e-05
-3.96319e-05
-1.51428e-05
-1.27718e-05
-4.02802e-06
-4.20058e-06
-2.0846e-06
-1.94866e-06
3.96837e-07
6.59341e-07
1.93614e-07
-3.64219e-06
-1.63315e-06
-2.88311e-06
-1.32118e-06
4.58849e-08
7.07896e-08
1.36446e-08
2.86368e-09
2.70184e-09
9.86848e-10
1.40759e-10
1.53513e-10
1.0581e-10
4.06857e-11
1.97993e-11
1.18219e-07
2.30248e-07
5.18327e-08
-6.22509e-07
1.94413e-08
3.72824e-08
7.8864e-09
2.08193e-09
3.05994e-09
5.09907e-10
1.329e-10
1.37987e-10
3.81633e-11
6.52989e-12
7.25464e-12
3.74811e-12
1.32161e-12
5.86198e-13
5.48042e-09
1.13733e-08
2.48317e-09
-2.70046e-08
8.52943e-10
1.74602e-09
3.06919e-10
8.66294e-11
1.2902e-10
1.90212e-11
5.55644e-12
6.33804e-12
1.25056e-12
2.77112e-13
3.19744e-13
1.20792e-13
3.55271e-14
1.77636e-14
2.37584e-10
5.25283e-10
1.12333e-10
-1.19537e-09
3.4845e-11
7.18288e-11
1.16209e-11
3.34666e-12
5.11591e-12
7.17648e-13
2.13163e-13
2.62901e-13
4.26326e-14
7.10543e-15
1.42109e-14
0
0
0
9.44311e-12
4.69313e-12
-4.8189e-11
1.3145e-12
4.29878e-13
1.13687e-13
2.4869e-14
7.10543e-15
0
0
0
0
-2.79539
-1.07766
-1.6386
1.53069
2.86988
1.80487
-0.763561
-0.7335
-0.837541
0.159488
0.159912
0.117449
-0.000641982
-0.000825521
-0.00115588
0.000127681
0.000117315
0.000126848
3.6007e-06
-5.34776e-06
-6.24216e-06
3.24521e-06
3.30918e-06
-4.36548e-06
-1.4133e-05
-5.03097e-06
-5.89001e-06
-8.41812e-06
-4.99233e-06
-5.03884e-06
-7.82013e-06
-5.64395e-06
-5.6758e-06
1.59312e-07
-1.34242e-06
-7.05779e-07
3.927e-07
-6.24464e-07
4.30535e-07
2.38527e-08
2.94298e-08
-1.21489e-07
-2.3488e-07
-2.06444e-07
-2.32624e-07
-2.35694e-07
-2.00655e-07
-2.00517e-07
-1.98667e-07
4.41373e-05
-5.28809e-05
1.97402e-05
-7.23e-05
-0.000233851
2.30003e-05
-0.0308603
-0.135837
-0.055872
0.0117319
0.0148893
0.00759512
-4.02809e-05
-0.000222443
-8.86595e-05
1.89063e-05
2.32025e-05
1.1383e-05
-5.03842e-05
-4.51959e-05
-2.43564e-05
-2.68266e-05
-2.82961e-05
-1.41927e-05
-1.66383e-05
-1.46411e-05
-7.83501e-06
3.85408e-07
4.10412e-07
1.95322e-07
-9.03413e-07
-2.05584e-07
-1.08051e-07
-8.62198e-08
-6.07378e-06
-9.52904e-07
-7.10972e-07
-2.82901e-07
-2.98034e-06
-7.29292e-07
-8.32615e-07
-6.61338e-07
2.13476e-08
2.40939e-08
1.0615e-08
-3.38626e-08
-1.1517e-08
-6.33511e-09
-5.62754e-09
-1.61941e-07
-2.12651e-07
-2.105e-07
-2.09256e-07
1.29989e-09
9.37678e-10
-1.65168e-05
2.34392e-05
1.97196e-05
-0.000176246
-2.76283e-05
-5.96479e-05
-2.82339e-05
-1.41591e-05
-1.21281e-05
-7.98066e-06
-2.56389e-05
-1.16091e-05
-1.32086e-05
8.83247e-06
-2.01343e-05
-1.71376e-05
-6.44399e-06
3.42583e-06
5.13237e-06
2.08658e-06
-9.44225e-06
-9.2547e-06
-6.58874e-06
2.7186e-07
3.67907e-07
1.4413e-07
-2.60101e-06
-8.27306e-07
-8.43509e-07
-6.46454e-07
-8.69347e-07
-4.65685e-07
-4.77859e-07
-4.56848e-07
2.01061e-08
2.11711e-08
7.8315e-09
9.76897e-10
9.10362e-10
3.2361e-10
5.81011e-11
3.21982e-11
6.70348e-07
1.09617e-06
4.21391e-07
-1.06969e-05
-3.24797e-06
-3.39562e-06
-1.62437e-06
-1.11356e-06
-9.53152e-07
-7.96403e-07
-7.71135e-07
1.1984e-07
2.06474e-07
7.61927e-08
-8.96952e-07
-5.73305e-07
-5.75904e-07
-6.59086e-07
1.4085e-08
2.09553e-08
7.11129e-09
9.81942e-10
1.07575e-09
3.38282e-10
4.74216e-11
4.39471e-11
1.40297e-11
2.60769e-12
1.17595e-12
3.55643e-08
6.42687e-08
2.34353e-08
-1.6727e-07
5.90089e-09
1.12238e-08
3.79962e-09
6.42181e-10
9.81522e-10
3.09292e-10
4.44587e-11
5.13154e-11
1.54259e-11
2.20268e-12
2.14584e-12
6.46594e-13
1.13687e-13
4.26326e-14
1.69498e-09
3.4199e-09
1.17419e-09
-7.81493e-09
2.65509e-10
5.20771e-10
1.66466e-10
2.74127e-11
4.24194e-11
1.27649e-11
1.89004e-12
2.30216e-12
6.85674e-13
9.23706e-14
9.9476e-14
2.84217e-14
7.10543e-15
0
7.49978e-11
1.63247e-10
5.27187e-11
-3.68495e-10
1.11768e-11
2.21334e-11
6.70752e-12
1.09424e-12
1.73372e-12
4.9738e-13
7.10543e-14
9.23706e-14
2.84217e-14
0
0
0
0
0
2.99849e-12
2.14229e-12
-1.47509e-11
4.26326e-13
2.45137e-13
4.26326e-14
1.77636e-14
0
0
0
0
0
2.21802e-05
-4.35153e-05
2.11056e-05
-0.000126297
-8.10475e-05
1.37304e-05
-3.34091e-05
-2.74175e-05
-7.69087e-05
1.64691e-05
1.84664e-05
1.16464e-05
1.16963e-06
-6.79715e-06
-3.39123e-06
-1.17069e-05
1.54292e-06
1.26272e-06
2.79014e-07
2.22727e-07
2.09292e-07
-5.67379e-07
-4.50021e-07
-1.66538e-07
-5.05668e-07
-1.99917e-06
-5.97737e-07
-4.49846e-07
-2.54188e-07
-9.14288e-07
-3.20543e-07
-1.712e-07
1.82238e-08
1.41794e-08
1.62346e-08
-8.21547e-08
-1.83757e-07
-1.33884e-07
-1.82658e-07
-1.8174e-07
6.41535e-10
7.60028e-10
-4.15737e-09
-1.36612e-05
-2.03767e-05
1.04281e-05
1.60818e-05
4.99747e-06
-4.04838e-05
-5.57629e-05
-2.50468e-05
9.78213e-06
1.17078e-05
7.93278e-06
-1.34933e-05
-1.14422e-05
-7.93366e-06
-1.88959e-05
-1.72482e-05
-1.16777e-05
-1.28736e-05
-1.29343e-05
-9.33203e-06
4.15863e-07
4.21898e-07
3.01405e-07
-1.8538e-06
-5.51292e-07
-4.89749e-07
-4.02264e-07
-2.10111e-06
-7.11272e-07
-6.75374e-07
-4.58445e-07
-1.91325e-06
-7.14806e-07
-7.1365e-07
-7.01757e-07
2.88195e-08
2.29806e-08
1.64111e-08
1.49757e-09
1.14758e-09
8.03709e-10
5.53513e-11
4.2597e-11
4.80837e-07
-4.24923e-06
-1.46623e-06
-1.6971e-06
2.37757e-06
1.17256e-06
2.64359e-07
3.7483e-07
2.00976e-07
-1.85061e-06
-8.29659e-07
-7.50868e-07
-8.24547e-07
-5.80854e-07
-3.22061e-07
-3.03899e-07
-2.88125e-07
-5.77156e-07
-6.84873e-07
-6.88056e-07
-6.75577e-07
2.59591e-08
3.18246e-08
1.73594e-08
1.80351e-09
1.69782e-09
9.23418e-10
9.26121e-11
7.79963e-11
4.07745e-11
3.72324e-12
2.12808e-12
8.8345e-08
1.65351e-07
6.86265e-08
-4.73192e-07
-8.65852e-07
-1.22659e-06
-1.22119e-06
-1.2067e-06
1.26652e-08
2.1344e-08
9.70131e-09
1.30174e-09
1.77025e-09
8.23405e-10
9.2605e-11
9.75575e-11
4.48139e-11
4.96669e-12
4.59011e-12
2.0286e-12
2.13163e-13
9.9476e-14
4.0863e-09
7.86904e-09
3.19438e-09
-2.01236e-08
6.04679e-10
1.07091e-09
4.49983e-10
6.16396e-11
8.77449e-11
3.67919e-11
4.43379e-12
5.05196e-12
2.07478e-12
2.41585e-13
2.41585e-13
9.59233e-14
7.10543e-15
3.55271e-15
1.90845e-10
3.95524e-10
1.52795e-10
-9.48617e-10
2.77467e-11
5.07185e-11
1.98632e-11
2.75691e-12
4.08562e-12
1.5703e-12
1.91847e-13
2.41585e-13
8.88178e-14
7.10543e-15
7.10543e-15
3.55271e-15
0
0
8.41283e-12
1.84173e-11
6.78568e-12
-4.2462e-11
1.19371e-12
2.23821e-12
8.17124e-13
1.13687e-13
1.77636e-13
6.03961e-14
7.10543e-15
7.10543e-15
3.55271e-15
0
0
0
0
0
3.33955e-13
2.70006e-13
-1.77636e-12
4.26326e-14
2.84217e-14
0
0
0
0
0
0
0
1.32722e-06
1.21604e-06
-2.45798e-06
-1.01117e-05
-3.15287e-06
8.53928e-07
4.86097e-07
-1.13157e-06
-7.97792e-07
-2.86555e-06
8.19301e-07
6.72247e-07
1.74523e-07
1.40101e-07
1.58528e-07
-3.79008e-07
-4.04916e-07
-2.89628e-07
-4.64869e-07
-5.55829e-07
-3.75914e-07
-4.50078e-07
-2.46949e-07
-2.79367e-07
-2.46169e-07
-2.29614e-07
1.32658e-08
9.2617e-09
1.04803e-08
-5.46512e-08
8.01656e-10
5.43466e-10
5.89498e-10
-3.61951e-09
2.91394e-11
3.03579e-11
-2.06668e-10
4.29527e-07
-9.00026e-07
-2.01708e-06
1.13511e-06
7.97647e-07
1.99999e-07
2.25449e-07
2.13926e-07
-1.21157e-06
-5.5079e-07
-5.13198e-07
-5.7447e-07
-5.62934e-07
-3.64179e-07
-4.30019e-07
-4.09772e-07
-4.10033e-07
-4.79714e-07
-4.82399e-07
-4.77385e-07
1.97927e-08
1.8624e-08
1.83271e-08
1.41151e-09
1.08144e-09
9.98458e-10
7.85292e-11
5.69216e-11
4.9134e-11
2.8777e-12
2.38387e-12
9.78491e-08
1.47037e-07
1.11535e-07
-5.36261e-07
-6.47791e-07
-6.52793e-07
-6.37205e-07
-4.86417e-07
-6.35071e-07
-5.62496e-07
-6.26191e-07
1.33697e-08
1.85025e-08
1.3916e-08
1.35323e-09
1.54659e-09
1.15435e-09
9.84457e-11
8.99334e-11
6.48015e-11
5.59197e-12
4.64695e-12
3.17968e-12
2.27374e-13
1.49214e-13
5.38694e-09
9.03949e-09
5.58206e-09
-2.76992e-08
7.67201e-10
1.17696e-09
7.39306e-10
7.77334e-11
9.78133e-11
6.09113e-11
5.73408e-12
5.90461e-12
3.58114e-12
3.33955e-13
3.05533e-13
1.77636e-13
1.42109e-14
7.10543e-15
2.85901e-10
5.29859e-10
2.89841e-10
-1.48338e-09
4.04583e-11
6.60592e-11
3.65716e-11
4.04299e-12
5.43565e-12
2.97007e-12
2.98428e-13
3.33955e-13
1.77636e-13
1.42109e-14
1.42109e-14
7.10543e-15
0
0
1.40261e-11
2.81233e-11
1.40119e-11
-7.35554e-11
1.95399e-12
3.37508e-12
1.68399e-12
1.91847e-13
2.77112e-13
1.35003e-13
1.42109e-14
1.42109e-14
7.10543e-15
0
0
0
0
0
6.32383e-13
1.34293e-12
6.21725e-13
-3.4035e-12
8.52651e-14
1.56319e-13
6.75016e-14
7.10543e-15
7.10543e-15
3.55271e-15
0
0
0
0
0
0
0
0
2.84217e-14
2.4869e-14
-1.35003e-13
0
3.55271e-15
0
0
0
0
0
0
0
3.56114e-07
3.25781e-07
3.62491e-07
-4.66864e-06
-1.36353e-06
-6.00785e-07
-3.45494e-07
-5.1986e-07
-3.71167e-07
-2.87993e-07
-3.74611e-07
-3.76188e-07
-4.52044e-07
-5.63802e-07
5.79774e-08
5.42353e-08
8.13749e-08
-2.71047e-07
-4.12667e-07
-3.92633e-07
-5.35956e-07
6.57057e-09
5.25207e-09
7.25035e-09
-2.76482e-08
5.57421e-10
3.93435e-10
4.87113e-10
-2.41317e-09
3.67208e-11
2.5203e-11
2.78462e-11
-1.70623e-10
1.44951e-12
1.49569e-12
-1.03881e-11
4.92939e-08
5.53581e-08
6.74549e-08
-2.57707e-07
-6.20205e-07
-6.21707e-07
-6.11767e-07
7.24825e-09
7.7864e-09
9.25913e-09
7.7933e-10
7.13051e-10
8.1036e-10
6.08082e-11
4.74287e-11
4.88534e-11
3.74456e-12
2.77822e-12
2.6219e-12
1.42109e-13
1.3145e-13
4.09452e-09
5.62064e-09
5.1498e-09
-2.09944e-08
5.8818e-10
7.5115e-10
6.80025e-10
6.09788e-11
6.57181e-11
5.75682e-11
4.68958e-12
4.25615e-12
3.5385e-12
2.84217e-13
2.34479e-13
1.88294e-13
7.10543e-15
7.10543e-15
2.72316e-10
4.37105e-10
3.28669e-10
-1.43105e-09
3.83977e-11
5.47615e-11
4.10409e-11
3.89377e-12
4.66116e-12
3.41771e-12
2.91323e-13
2.98428e-13
2.13163e-13
1.42109e-14
1.42109e-14
1.06581e-14
0
0
1.5639e-11
2.79385e-11
1.83e-11
-8.32543e-11
2.17426e-12
3.36087e-12
2.19558e-12
2.13163e-13
2.77112e-13
1.77636e-13
1.42109e-14
1.42109e-14
1.06581e-14
0
0
0
0
0
8.02913e-13
1.55609e-12
9.166e-13
-4.35563e-12
1.06581e-13
1.77636e-13
1.06581e-13
7.10543e-15
1.42109e-14
7.10543e-15
0
0
0
0
0
0
0
0
3.55271e-14
7.81597e-14
3.90799e-14
-2.06057e-13
0
7.10543e-15
3.55271e-15
0
0
0
0
0
0
0
0
0
0
0
0
0
-7.10543e-15
0
0
0
0
0
0
0
0
0
1.21316e-08
1.20054e-08
-5.66938e-08
1.98645e-09
1.837e-09
-9.6156e-09
2.4319e-10
1.98057e-10
-1.08377e-09
2.22613e-11
1.6307e-11
-1.01437e-10
1.59162e-12
1.12266e-12
-7.5957e-12
6.39488e-14
-4.76064e-13
1.77405e-09
1.96089e-09
-8.75591e-09
2.69608e-10
2.77005e-10
2.98428e-11
2.70077e-11
2.47269e-12
1.98952e-12
1.63425e-13
1.20792e-13
7.10543e-15
1.67269e-10
2.24354e-10
-8.68909e-10
2.41229e-11
2.92246e-11
2.53664e-12
2.64322e-12
1.91847e-13
1.84741e-13
7.10543e-15
7.10543e-15
0
1.20295e-11
1.87228e-11
-6.39702e-11
1.69109e-12
2.30926e-12
1.63425e-13
1.91847e-13
7.10543e-15
1.42109e-14
0
0
0
7.24754e-13
1.25766e-12
-3.96483e-12
9.23706e-14
1.42109e-13
7.10543e-15
7.10543e-15
0
0
0
0
0
3.55271e-14
7.10543e-14
-2.06057e-13
0
7.10543e-15
0
0
0
0
0
0
0
0
0
-7.10543e-15
0
0
0
0
0
0
0
0
0
0
0
0
0
0
0
1.5087e-05
6.97052e-05
2.94662e-06
-0.000414154
1.03493e-06
-2.05692e-06
6.53419e-07
-4.46139e-06
4.49689e-08
1.14697e-05
-1.15806e-05
1.02196e-05
4.51743e-05
-0.000253541
-2.33542e-05
1.15464e-06
-2.06524e-06
3.14049e-07
-1.6756e-07
8.16739e-07
-3.87395e-06
1.60722e-07
3.21752e-07
1.01226e-08
-2.6532e-06
1.33471e-07
-1.93447e-08
3.05585e-07
1.63695e-08
-2.81719e-07
7.66211e-08
-3.96458e-08
1.63031e-07
2.79241e-07
-1.81458e-06
8.89479e-08
5.00493e-08
-4.23499e-08
6.63906e-09
2.26876e-07
-6.70362e-07
-1.92047e-05
1.44154e-07
-0.00619659
0.000865457
-0.00162626
0.000955523
3.67354e-05
4.06782e-06
4.92112e-07
-4.22979e-07
-2.5268e-07
-1.2981e-05
-0.00447091
0.000586361
0.000166856
-0.000156192
-0.00117831
0.000672054
-1.6446
0.116285
0.138896
1.87423
-0.017823
-0.033845
0.000237744
-0.0910094
0.269164
-1.47936
0.18528
0.0108938
-1.73376
-0.192304
0.15269
0.263
1.91924
0.00464951
0.0011737
-0.00104155
-0.0133987
-0.025043
-0.0498167
0.194568
0.050344
-0.0440969
-1.21051
0.130327
-1.62057
-4.27837
0.169973
2.44286
4.23865
-1.86488
0.0916389
0.0146067
0.155052
0.161051
-1.13263
-0.301718
0.00835542
-0.0806454
-3.3373
-0.264912
0.911138
0.372703
3.37351
-1.67186
-4.34335
-0.319563
2.51746
0.466131
4.267
0.0698209
0.254959
-0.0610809
-1.53434
0.0930451
0.0309826
0.0851463
0.0813423
-0.0337075
-0.701004
-0.196506
6.38366e-07
3.56931e-06
3.65607e-06
2.00834e-06
3.62652e-06
-5.45576e-05
-5.23312e-05
-5.25e-05
-5.49159e-05
1.81418e-05
-0.00107076
-6.68033e-06
8.92987e-06
0.000225636
2.17193e-05
2.72048e-06
2.22207e-05
7.01886e-06
-5.60067e-05
-5.67297e-05
-5.57729e-05
-5.686e-05
2.41404e-05
-0.000470269
-1.10032e-05
-2.44236e-05
1.46557e-05
0.000149942
-2.21359e-06
1.55714e-05
4.91888e-06
2.08998e-06
2.4124e-06
2.53992e-06
-5.51421e-05
-6.96385e-05
-6.41234e-05
-6.27298e-05
-0.000857531
7.38742e-06
2.21187e-05
0.000189416
1.47998e-05
1.75707e-05
5.94552e-06
5.11386e-06
-5.02619e-05
-4.84423e-05
-4.94231e-05
-4.9599e-05
7.4699e-07
1.2938e-07
9.62823e-08
-1.27898e-07
9.28287e-08
3.00923e-06
2.222e-07
4.62475e-08
-2.51642e-06
2.03441e-07
-2.42495e-07
2.8442e-07
1.4308e-07
1.71622e-07
5.72137e-07
-1.7789e-05
3.07301e-07
-1.03441e-07
5.87521e-08
6.94394e-08
2.25655e-06
4.30711e-07
-1.91505e-06
8.072e-08
0.000269865
0.000237718
8.78851e-06
-2.57624e-05
3.15291e-07
3.52858e-06
-4.95967e-05
-5.29539e-05
-6.63038e-05
-6.4956e-05
-5.25971e-05
-4.28832e-05
-4.94697e-05
-4.2848e-05
1.22337e-05
-4.22515e-06
-9.68019e-06
-1.11669e-05
-5.29242e-05
-5.40342e-05
-5.70257e-05
-5.42376e-05
-0.000821761
3.01698e-05
-3.36549e-05
0.000215227
0.000183868
-2.04082e-05
5.10434e-07
-4.483e-05
5.91622e-06
-4.97211e-05
-5.24526e-05
-5.52608e-05
-4.9886e-05
-4.50079e-05
-3.71846e-05
-3.6441e-05