/*--------------------------------*- C++ -*----------------------------------*\
  =========                 |
  \\      /  F ield         | OpenFOAM: The Open Source CFD Toolbox
   \\    /   O peration     | Website:  https://openfoam.org
    \\  /    A nd           | Version:  9
     \\/     M anipulation  |
\*---------------------------------------------------------------------------*/
FoamFile
{
    format      ascii;
    class       volScalarField;
    location    "0.00285";
    object      rho.c4;
}
// * * * * * * * * * * * * * * * * * * * * * * * * * * * * * * * * * * * * * //

dimensions      [1 -3 0 0 0 0 0];

internalField   nonuniform List<scalar> 
24411
(
5.4077
8.06705e-05
7.05511e-08
4.72673e-11
2.22045e-16
0.00181557
1.14514e-09
1.05019e-15
3.63077
2.69938
40.7396
24.9492
20.5351
32.6448
33.3228
14.8019
27.9667
20.7307
35.6415
20.3128
31.1362
39.3482
3.63054
7.71226
3.79846
5.2635
6.9405
4.6378
45.9395
3.11978
2.27007
2.59371
3.88506
2.9786
3.43859
3.33632
19.1979
31.2992
28.4366
26.4115
26.4626
23.1777
22.056
12.6365
19.8112
9.79057
11.8578
15.5115
16.283
7.85752
4.24511
2.98535
3.45343
4.56434
4.74003
4.01213
5.41045
39.6219
28.9349
34.3002
44.3192
17.6153
16.8628
13.7223
37.6354
7.92111
10.4912
15.4838
6.59861
16.2253
12.581
12.9401
7.36614
6.21183
10.2213
5.94553
9.86515
5.09615
9.5688
5.29621
20.3205
4.22407
6.51349
7.09179
6.35184
23.8519
7.52325
4.35496e-06
0.000927942
32.5685
40.1266
85.9708
9.39019
1.71049e-07
9.9271e-09
0.00034039
5.88142e-06
4.63673e-11
0.000251444
6.49048e-12
8.22692e-16
9.0292e-12
5.70951e-16
2.22045e-16
2.70663e-10
2.22045e-16
2.22045e-16
2.22045e-16
2.22045e-16
2.22045e-16
2.49867e-16
2.22045e-16
2.22045e-16
2.22045e-16
2.22045e-16
2.22045e-16
2.22045e-16
2.22045e-16
2.22045e-16
2.22045e-16
2.22045e-16
2.22045e-16
2.22045e-16
2.22045e-16
2.22045e-16
2.22045e-16
2.22045e-16
2.22045e-16
7.56163
88.6021
0.895427
1.35466e-08
0.000202363
34.9218
41.7749
46.2971
0.374522
7.58085e-11
1.77922e-10
5.9413e-06
1.92647e-07
1.00907e-12
1.13299e-06
5.53129e-14
2.22045e-16
2.05442e-12
2.22045e-16
2.22045e-16
4.64756e-12
2.22045e-16
2.22045e-16
2.22045e-16
2.22045e-16
2.22045e-16
2.22045e-16
2.22045e-16
2.22045e-16
2.22045e-16
2.22045e-16
2.22045e-16
2.22045e-16
2.22045e-16
2.22045e-16
2.22045e-16
2.22045e-16
2.22045e-16
2.22045e-16
2.22045e-16
2.22045e-16
2.22045e-16
2.22045e-16
2.22045e-16
21.0546
16.2412
1.60969e-12
1.25452e-09
1.73822
67.7157
0.00247927
5.75431e-06
2.18852e-13
2.35939e-16
6.37533e-09
4.20918e-10
2.22045e-16
2.48324e-11
2.22045e-16
2.22045e-16
2.22045e-16
2.22045e-16
2.22045e-16
2.22045e-16
2.22045e-16
2.22045e-16
2.22045e-16
2.22045e-16
2.22045e-16
2.22045e-16
2.22045e-16
2.22045e-16
2.22045e-16
2.22045e-16
2.22045e-16
2.22045e-16
2.22045e-16
2.22045e-16
2.22045e-16
2.22045e-16
2.22045e-16
2.22045e-16
2.22045e-16
2.22045e-16
2.22045e-16
2.22045e-16
2.22045e-16
108.729
2.07825e-06
0.00627714
3.46666e-09
0.000891219
0.0251502
9.33758e-14
1.48084e-06
1.72108e-09
1.30732e-15
3.24597e-15
2.22045e-16
2.22045e-16
5.0402e-13
8.11431e-16
2.22045e-16
2.22045e-16
2.22045e-16
2.22045e-16
2.22045e-16
2.22045e-16
2.22045e-16
2.22045e-16
2.22045e-16
2.22045e-16
2.22045e-16
2.22045e-16
2.22045e-16
2.22045e-16
2.22045e-16
2.22045e-16
2.22045e-16
2.22045e-16
2.22045e-16
2.22045e-16
2.22045e-16
2.22045e-16
2.22045e-16
2.22045e-16
2.22045e-16
2.22045e-16
2.22045e-16
2.22045e-16
10.9044
46.9046
173.611
5.5954e-07
1.96407e-14
37.663
65.6756
7.0866
8.78564e-09
5.69779e-14
2.22045e-16
4.87779
3.26538e-07
3.54131e-15
2.22045e-16
2.22045e-16
2.22045e-16
1.69177e-13
2.22045e-16
2.22045e-16
2.22045e-16
2.22045e-16
2.22045e-16
2.22045e-16
2.22045e-16
2.22045e-16
2.22045e-16
2.22045e-16
2.22045e-16
2.22045e-16
2.22045e-16
2.22045e-16
2.22045e-16
2.22045e-16
2.22045e-16
2.22045e-16
2.22045e-16
2.22045e-16
2.22045e-16
2.22045e-16
2.22045e-16
2.22045e-16
2.22045e-16
2.22045e-16
2.22045e-16
2.22045e-16
2.22045e-16
9.64474
123.433
0.0209669
1.51951e-11
1.64674e-15
2.22045e-16
5.96086e-05
106.512
2.5765e-07
2.22045e-16
2.22045e-16
2.22045e-16
2.47802e-07
9.83367e-13
2.22045e-16
2.22045e-16
2.22045e-16
2.22045e-16
2.22045e-16
2.22045e-16
2.22045e-16
2.22045e-16
2.22045e-16
2.22045e-16
2.22045e-16
2.22045e-16
2.22045e-16
2.22045e-16
2.22045e-16
2.22045e-16
2.22045e-16
2.22045e-16
2.22045e-16
2.22045e-16
2.22045e-16
2.22045e-16
2.22045e-16
2.22045e-16
2.22045e-16
2.22045e-16
2.22045e-16
2.22045e-16
2.22045e-16
2.22045e-16
2.22045e-16
2.22045e-16
2.22045e-16
2.22045e-16
9.03586e-06
8.6538e-06
4.05409e-14
2.22045e-16
2.22045e-16
2.22045e-16
5.67296e-07
3.52364e-10
2.22045e-16
2.22045e-16
2.22045e-16
2.22045e-16
9.21427e-14
2.22045e-16
2.22045e-16
2.22045e-16
2.22045e-16
2.22045e-16
2.22045e-16
2.22045e-16
2.22045e-16
2.22045e-16
2.22045e-16
2.22045e-16
2.22045e-16
2.22045e-16
2.22045e-16
2.22045e-16
2.22045e-16
2.22045e-16
2.22045e-16
2.22045e-16
2.22045e-16
2.22045e-16
2.22045e-16
2.22045e-16
2.22045e-16
2.22045e-16
2.22045e-16
2.22045e-16
2.22045e-16
2.22045e-16
2.22045e-16
2.22045e-16
2.22045e-16
2.22045e-16
2.22045e-16
2.22045e-16
1.2892e-11
5.53836e-13
2.22045e-16
2.22045e-16
2.22045e-16
2.22045e-16
4.00033e-14
2.22045e-16
2.22045e-16
2.22045e-16
2.22045e-16
2.22045e-16
2.22045e-16
2.22045e-16
2.22045e-16
2.22045e-16
2.22045e-16
2.22045e-16
2.22045e-16
2.22045e-16
2.22045e-16
2.22045e-16
2.22045e-16
2.22045e-16
2.22045e-16
2.22045e-16
2.22045e-16
2.22045e-16
2.22045e-16
2.22045e-16
2.22045e-16
2.22045e-16
2.22045e-16
2.22045e-16
2.22045e-16
2.22045e-16
2.22045e-16
2.22045e-16
2.22045e-16
2.22045e-16
2.22045e-16
2.22045e-16
2.22045e-16
2.22045e-16
2.22045e-16
2.22045e-16
2.22045e-16
2.22045e-16
2.22045e-16
2.22045e-16
2.22045e-16
2.22045e-16
2.22045e-16
2.22045e-16
2.22045e-16
2.22045e-16
2.22045e-16
2.22045e-16
2.22045e-16
2.22045e-16
2.22045e-16
2.22045e-16
2.22045e-16
2.22045e-16
2.22045e-16
2.22045e-16
2.22045e-16
2.22045e-16
2.22045e-16
2.22045e-16
2.22045e-16
2.22045e-16
2.22045e-16
2.22045e-16
2.22045e-16
2.22045e-16
2.22045e-16
2.22045e-16
2.22045e-16
2.22045e-16
2.22045e-16
2.22045e-16
2.22045e-16
2.22045e-16
2.22045e-16
2.22045e-16
2.22045e-16
2.22045e-16
2.22045e-16
2.22045e-16
2.22045e-16
2.22045e-16
2.22045e-16
2.22045e-16
2.22045e-16
2.22045e-16
2.22045e-16
2.22045e-16
2.22045e-16
2.22045e-16
2.22045e-16
2.22045e-16
2.22045e-16
2.22045e-16
2.22045e-16
2.22045e-16
2.22045e-16
2.22045e-16
2.22045e-16
2.22045e-16
2.22045e-16
2.22045e-16
2.22045e-16
2.22045e-16
2.22045e-16
2.22045e-16
2.22045e-16
2.22045e-16
2.22045e-16
2.22045e-16
2.22045e-16
2.22045e-16
2.22045e-16
2.22045e-16
2.22045e-16
2.22045e-16
2.22045e-16
2.22045e-16
2.22045e-16
2.22045e-16
2.22045e-16
2.22045e-16
2.22045e-16
2.22045e-16
2.22045e-16
2.22045e-16
2.22045e-16
2.22045e-16
2.22045e-16
2.22045e-16
2.22045e-16
2.22045e-16
2.22045e-16
2.22045e-16
2.62873
4.89254e-06
0.911199
9.51612e-06
1.19777e-10
1.28181e-12
5.7647e-11
2.8366e-13
4.17352e-07
32.4805
1.3161e-07
32.7651
4.30992
26.2419
25.4654
4.48841
26.6283
26.0618
10.6071
29.8494
61.9342
6.55954
10.9199
30.6962
62.0199
0.0412515
8.30337
0.0439666
4.69643
0.0221581
8.58357
0.0266631
1.27184e-08
6.51762e-06
1.70571e-11
7.90269e-07
8.63627e-09
1.94681e-06
2.65531e-12
8.88658
3.81892e-08
0.00127909
0.000689263
5.47033
1.95355e-08
0.000835344
33.8014
0.564258
0.199342
32.959
33.8573
0.51918
0.122249
0.248361
1.5263e-07
3.40022e-11
4.29454e-13
8.71032e-15
2.22045e-16
2.22045e-16
1.27888e-08
34.7117
1.24686e-11
5.55113
5.28495
28.0074
27.4493
7.25896
42.0151
39.8061
18.7634
32.4106
64.7801
12.7006
36.6787
47.0513
87.517
0.000908117
1.63715
0.00150777
1.22042e-06
0.0302123
1.41409e-06
4.49082e-10
9.04325e-09
1.88792e-15
2.9021e-12
2.55379e-12
2.11503e-12
2.22045e-16
1.93886
1.0918e-09
0.000195908
1.65675e-06
0.0431703
3.32967e-12
1.80447e-06
35.2604
0.116234
0.0887161
8.94065
49.7031
0.00745496
0.018999
7.8268e-13
0.00456189
2.22045e-16
2.22045e-16
5.26873e-05
8.26463e-14
2.62909e-15
1.28738
2.22045e-16
2.71983e-05
13.6942
53.2487
48.27
25.0566
0.225037
96.4882
52.1751
57.3699
101.602
44.6152
141.198
110.515
0.00491478
2.7565e-07
0.00151787
5.80474e-08
0.000139526
1.34666e-05
7.63093e-09
2.22045e-16
5.66114e-14
2.22045e-16
8.1263e-07
1.41319e-10
5.22551e-12
2.22045e-16
0.000303942
4.91036e-16
1.54886e-09
3.25725e-11
2.0903e-05
2.22045e-16
6.10182e-11
59.052
5.1165e-05
0.00383636
0.0830378
5.74575
2.06421e-05
2.06007e-06
5.70544
39.3878
0.43419
1.29717e-07
49.9154
92.4047
3.65665e-11
7.43231e-08
54.3019
0.000496434
54.0205
0.00416009
52.222
175.602
1.53425e-06
9.5925e-05
172.748
25.4853
1.52201e-05
199.192
0.00034964
9.46588e-06
4.45894e-06
3.52623
0.00595726
0.00254783
45.1063
28.2156
45.912
0.000104684
1.27313e-06
2.19938e-10
63.9036
10.161
0.00189229
3.02358e-05
1.76209e-09
6.55918e-15
2.22045e-16
0.215477
9.89095e-07
3.7164e-09
1.88578e-13
0.149958
1.75436e-09
3.46389e-08
2.40349e-09
2.50459e-06
2.22045e-16
7.07273e-13
20.6783
49.5176
92.3801
19.2631
43.3994
81.5565
122.547
100.824
109.79
0.178624
108.026
168.939
9.09555
1.62319e-05
23.0799
0.00409288
5.7421e-09
43.788
5.11761e-07
3.40982e-06
7.89996e-10
8.89201
39.5778
103.982
32.0393
19.8742
12.108
36.3454
0.000329243
1.73776e-10
6.1886
110.523
7.7189
3.0491e-06
4.21862e-11
2.22045e-16
28.8234
110.759
3.10832e-07
1.84513e-13
2.22045e-16
2.22045e-16
91.6084
0.00394259
7.60681e-15
2.22045e-16
2.22045e-16
2.22045e-16
9.5678e-12
2.22045e-16
2.22045e-16
2.22045e-16
2.22045e-16
2.22045e-16
2.22045e-16
2.22045e-16
2.22045e-16
2.22045e-16
2.22045e-16
2.22045e-16
2.63523
2.71658
6.06622
4.11398
6.858
6.27733
5.4763
7.06712
3.13725
4.18462
8.20951
5.44698
8.0237
13.9258
7.52421
12.2485
8.68306
16.9455
15.1144
17.6424
11.5648
20.0334
14.937
46.1713
14.938
27.9854
21.6424
31.3992
58.3626
135.54
75.0722
68.9893
160.781
78.0526
265.931
180.741
2.10629
5.47319
6.07275
7.87297
12.8208
7.81628
15.7105
8.90525
27.667
26.9009
26.0524
61.1349
20.9315
40.2377
69.3197
154.625
99.728
130.831
279.419
86.4575
319.602
220.867
0.0182
11.1031
7.00551
29.1106
24.8719
14.66
8.74806
11.9512
25.511
16.3411
23.061
18.1226
71.3635
38.4917
57.1853
104.648
68.3051
90.7135
79.1297
217.65
148.283
195.615
34.46
183.667
106.436
199.893
0.000911101
1.05133
0.121991
2.36136
0.94338
0.115031
0.00114165
3.44307e-08
3.27101e-11
0.000105829
3.73581e-06
2.22331e-11
9.52925e-05
4.84619e-08
0.000420903
1.67352
0.287468
0.0444762
0.655676
0.0523013
8.5236e-05
1.07708e-08
9.51606e-06
4.7436e-11
1.3894e-05
4.91092e-11
1.7646e-05
1.20706e-09
2.22045e-16
2.22045e-16
8.73648e-12
1.08426e-10
2.22045e-16
6.78869e-12
2.22045e-16
2.22045e-16
2.84687e-11
2.25871e-14
1.1434e-12
2.39383e-11
1.82344e-14
2.22045e-16
2.22045e-16
5.61328e-11
2.22045e-16
4.289e-13
2.22045e-16
2.22452e-12
2.22045e-16
2.22045e-16
3.51145e-13
4.35678e-12
4.68328e-15
1.37592e-11
1.46507e-14
2.22045e-16
0.0622871
7.8631e-06
0.00585489
3.77896e-07
6.90424e-06
0.00526708
0.0684132
14.1222
29.94
4.48192
32.3498
29.8178
4.23983
14.707
0.0470753
1.58845e-07
2.00395e-06
0.00190192
4.61301e-06
0.00381997
0.0273619
12.5123
32.2985
30.0949
2.54
29.7285
3.6115
9.85258
4.34887
5.48446
5.53091
8.58476
9.522
9.59021
8.52496
17.9685
23.1871
22.5114
26.1646
23.1365
22.4582
17.9714
5.67948
4.77902
5.99737
8.81834
10.3803
9.83983
9.30871
18.1505
26.1756
23.7139
23.0391
23.2096
22.5367
18.7218
3.73493e-07
0.0362528
0.00427408
4.82297e-06
0.001604
3.12462e-12
3.76649e-13
4.70892e-07
1.46484e-08
4.06601e-11
1.44665e-14
2.88357e-07
1.22807e-14
3.40223e-11
2.22045e-16
6.58019e-11
2.22045e-16
2.74315e-10
2.22045e-16
2.22045e-16
2.22045e-16
4.35001e-14
6.32389e-14
2.22045e-16
2.22045e-16
4.62801e-15
2.22045e-16
6.08692e-13
2.22045e-16
2.5839e-15
2.22045e-16
3.35049e-14
2.22045e-16
2.22045e-16
2.22045e-16
2.22045e-16
2.22045e-16
2.22045e-16
2.22045e-16
2.22045e-16
2.22045e-16
2.22045e-16
2.22045e-16
2.22045e-16
5.4613e-16
2.22045e-16
2.22045e-16
0.00286913
4.90194e-07
0.000542313
5.844e-09
0.0112284
5.85125e-08
6.24934e-05
3.52085
31.4688
1.37045
27.3608
6.57244
34.2409
0.345217
0.000360677
2.46285e-11
4.72008e-11
2.04244e-07
2.62952e-09
4.04037e-06
1.62509e-05
1.28001
14.4181
24.8834
0.00616697
39.1661
0.0468484
0.154957
6.56274
6.08661
7.46942
11.5964
11.354
10.184
12.9119
22.1139
25.0602
24.3529
30.7034
19.9447
27.6474
26.8389
8.81576
10.7762
8.93589
13.6723
18.5932
15.2206
16.6205
25.4923
35.3191
37.7877
36.5543
31.7749
30.816
30.3565
1.83247e-09
2.22045e-16
1.55699e-11
5.24795e-12
5.13335e-16
4.97291e-12
5.97731e-11
0.000295672
1.07954e-07
0.0514773
0.0982113
3.07227e-06
9.74432e-06
1.31917
2.22045e-16
2.22045e-16
2.22045e-16
2.22045e-16
2.22045e-16
7.69516e-15
2.22045e-16
2.22045e-16
2.22045e-16
2.22045e-16
2.22045e-16
2.22045e-16
2.22045e-16
2.22045e-16
3.49915e-11
2.32943e-10
0.00224982
2.91151e-07
2.55999e-08
1.4981e-11
1.71255e-05
2.70979e-14
2.22045e-16
5.50745e-11
2.61657e-10
2.22045e-16
2.22045e-16
8.48698e-08
1.27766e-08
6.31181e-13
2.72446e-09
1.82862e-15
6.77676e-07
2.85146e-15
1.53213e-11
0.00137621
10.8004
0.000341234
0.0703558
0.0178216
3.38482
5.60852e-06
4.6439e-11
2.22045e-16
1.89733e-14
2.22045e-16
2.22045e-16
2.90182e-14
1.20211e-13
2.14785e-05
0.00298713
0.0125596
4.59869e-10
0.255737
5.2437e-08
2.56196e-07
18.1554
11.3911
15.0838
27.0762
23.5815
20.8687
30.9476
47.212
46.1831
44.481
22.539
37.3133
57.6871
55.6323
36.0327
20.8024
29.8495
36.1877
57.5972
41.6255
49.8417
61.2418
4.96976
12.7177
42.3323
42.2866
71.6796
80.3684
42.6645
19.7016
24.1968
54.8639
51.5964
52.1003
46.0706
31.0199
46.1682
28.1213
30.7503
39.8558
37.3552
21.0389
41.7928
4.49774
0.0103493
47.8152
0.217632
62.1528
10.1852
8.79636
3.25151e-05
7.60991e-05
0.00697252
0.00597098
0.478838
0.65978
64.1103
56.7179
37.9068
62.513
50.988
68.8506
50.7987
78.1267
9.95141
83.1164
76.5617
67.5138
67.6795
66.2088
3.3388e-05
8.09697e-08
1.66536e-14
1.68931e-05
4.07632e-11
0.007251
1.27582e-08
7.60167e-08
0.000205025
4.14409e-14
3.55494e-11
5.79153e-10
4.82225e-07
3.58308e-12
0.59555
0.21403
101.82
3.72088
11.9442
0.0013504
92.4403
0.00842801
6.65455e-09
0.822831
0.0758294
6.04558e-05
3.18963e-06
15.7382
82.5894
67.1946
44.2962
101.032
81.6362
70.5176
115.075
23.2513
1.65372
5.92547
1.39524e-05
106.398
0.0239139
0.16685
123.484
153.481
102.786
140.939
165.3
155.478
184.342
0.886643
4.85589e-09
0.0196585
2.80909e-07
9.24957e-05
0.000565287
0.0051635
30.5172
17.1396
25.5107
37.2463
48.7996
33.4644
55.4305
134.05
80.6824
109.872
132.732
148.81
117.211
163.459
7.0172
4.14413
5.10384
7.37979
5.71084
19.2732
15.4965
10.3914
14.7929
13.6343
19.4308
14.4442
84.8961
49.604
35.7125
50.9845
53.6015
74.873
54.8162
2.65214
3.72562
3.75413
2.17766
3.1132
3.13951
2.16658
3.83777
2.86909
4.03493
2.22077
3.37029
3.20699
2.32916
4.38556
3.5602
4.94393
2.80452
3.65177
2.51553
4.09293
5.77172
6.95828
5.07627
3.23143
5.64053
4.73914
3.83787
11.2446
6.37372
8.31733
5.91486
6.88143
4.69
8.61599
7.65385
13.4215
16.1904
13.3683
12.9392
10.355
9.88936
21.183
11.3179
16.1522
7.70586
14.7904
11.0956
10.4256
49.9273
38.2122
24.2762
22.0085
20.5732
14.7512
30.4484
83.2998
105.368
63.0015
35.2445
89.3029
49.5955
62.2051
6.5186
4.02048
4.75978
4.43237
3.78243
3.13292
5.32828
8.74273
8.0729
11.4993
6.37348
9.13653
11.1106
9.77905
5.76388
7.21764
7.85289
4.57012
5.56889
6.44382
17.8447
9.51977
13.3828
9.77236
8.95179
6.93811
12.6328
26.4052
20.2281
24.9432
35.9936
18.2033
26.0446
37.1072
39.6775
19.6416
29.6178
24.0273
12.0291
16.765
17.0393
91.4242
44.7345
66.6176
35.2501
35.6124
24.0821
53.0962
181.229
98.0588
142.388
128.538
54.7286
86.7904
82.1838
17.8256
20.2874
17.6914
28.317
13.0651
25.5309
24.3877
25.814
39.2366
45.8341
61.2476
33.2248
36.5815
41.3853
8.5449
5.55659
6.79628
11.9284
8.99799
13.3256
10.152
0.00351203
31.5563
5.97846
0.000100584
0.0186908
1.06665e-05
8.29934
0.314026
38.9144
18.6895
30.6114
3.93556
4.98426
4.98469
16.3603
21.8192
0.0229611
0.00424284
7.56865e-09
0.00176982
1.05871e-05
3.77561e-06
0.000375874
1.06133e-05
1.13801e-10
2.51149e-07
3.22193e-07
1.20437e-06
8.63065e-06
1.12977e-11
1.08772e-05
1.02982e-06
0.00802466
0.0153741
19.9788
2.0212
0.0961791
0.000811647
6.68545
34.7002
37.1441
46.1181
31.8232
43.489
28.2613
38.3812
24.3045
24.3238
12.4078
23.8911
19.2826
30.1043
16.0159
4.62833
3.43025
2.94367
3.71821
2.22706
2.62304
3.14853
6.5048
5.70224
4.01182
5.88168
4.68721
7.04363
8.00171
4.33853e-12
1.42734e-07
0.799981
7.68347e-07
5.14044e-12
1.91451e-13
2.22045e-16
43.8726
70.9528
54.233
47.6976
64.2153
67.1474
0.049468
52.1984
0.00977486
4.62797e-05
93.6568
1.47978
0.000229309
1.42097e-05
5.23326e-05
2.96245e-08
3.50909e-10
0.0036353
4.2953e-07
2.53794e-10
5.50971e-14
5.80979e-13
3.36159e-16
2.22045e-16
1.83957e-11
2.22045e-16
2.22045e-16
2.22045e-16
29.3716
83.025
37.3725
106.827
15.4355
37.7855
39.8772
31.2504
8.41131
76.1605
102.76
9.51744
0.691537
9.69383e-07
141.072
7.46942e-08
149.682
0.0321839
1.53414e-07
1.46469e-06
9.10024e-13
0.0596365
2.70493e-09
2.22045e-16
2.04789e-11
2.22045e-16
2.22045e-16
2.22045e-16
15.095
16.6333
22.6899
25.3851
16.687
22.6171
15.0637
15.342
25.4915
17.7541
23.1501
17.0027
22.6831
15.9531
19.0724
19.1506
24.379
29.9539
17.1228
21.3797
26.7226
21.9895
33.9233
29.2864
35.8951
24.6236
30.4717
26.1111
40.481
36.0187
43.5816
60.1217
31.9827
45.6656
54.3085
52.8988
76.4072
79.7095
88.2291
59.6199
69.1801
70.867
127.943
106.868
49.8172
6.88759
95.9879
137.434
8.89283
62.6379
0.0633345
1.36824
0.000873181
44.3065
0.151951
5.1746
45.3826
29.7471
62.6467
53.6359
41.5565
31.7652
69.1061
63.5267
74.4284
76.9566
99.6466
56.9126
83.1754
84.2184
125.946
93.8029
51.2424
116.539
115.838
103.708
37.8152
151.543
68.6479
7.48093
0.0371869
141.862
34.2965
3.23613
237.915
189.424
224.657
1.01092
8.34306
38.6601
0.0100187
0.0267787
11.6311
1.44773e-05
0.000264995
0.328399
2.72512
3.87398e-07
5.74251e-05
0.00158259
4.90415e-07
7.06378e-13
0.0327977
8.46169e-08
7.52429e-11
3.46778e-06
1.07547e-05
159.181
249.732
303.299
237.599
2.60754e-08
8.31628
27.6008
80.8864
10.8791
9.21617
17.0507
19.345
17.7235
141.713
47.9685
14.7037
47.32
67.8634
131.529
118.751
2.79689e-06
178.995
106.878
183.431
160.614
24.1031
38.7356
1.17413e-05
1.72528e-10
267.457
0.0132594
0.00300567
2.07432e-07
149.207
67.8869
122.997
187.839
81.8701
115.913
228.171
214.783
248.16
185.915
209.912
174.645
130.012
264.439
16.7302
28.5739
15.8575
37.9255
21.5037
39.6685
22.7029
21.6396
12.6248
21.638
11.9922
16.6207
9.77246
9.30258
73.0151
0.0959906
0.00205077
40.1736
70.9565
0.0453973
0.00174038
72.649
0.0097567
0.000628678
57.8257
12.8309
0.0072783
0.000267386
1.46742
3.76789e-05
2.68127e-07
2.47305
4.62019e-05
1.94718e-07
4.95445e-10
3.09133e-08
2.96084e-10
2.0769e-15
4.86772e-09
4.37951e-12
2.52204e-16
2.22045e-16
2.22045e-16
2.22045e-16
2.22045e-16
2.22045e-16
2.22045e-16
2.22045e-16
2.22045e-16
0.107308
2.83716e-10
4.92236e-07
4.71341e-12
5.16465e-10
2.22045e-16
9.72781e-14
2.22045e-16
2.22045e-16
2.22045e-16
0.568428
0.00561863
7.15263e-05
7.72271e-08
9.50086e-11
2.31661
5.63536e-11
2.22045e-16
2.22045e-16
1.91189e-10
2.22045e-16
2.22045e-16
2.22045e-16
1.71451e-11
2.22045e-16
2.22045e-16
2.22045e-16
2.22045e-16
2.22045e-16
2.22045e-16
2.22045e-16
2.22045e-16
2.22045e-16
2.22045e-16
2.22045e-16
2.22045e-16
2.22045e-16
2.22045e-16
2.06065
2.2584
3.27628
5.40383
3.12559
4.30735
8.10319
3.33339
3.8063
6.22005
2.92295
13.5874
18.1695
3.95646
5.0803
37.5582
4.26764
5.12896
3.97345
5.61764
5.19502
22.1079
107.205
7.51756
11.1105
104.835
9.00012
11.7478
8.49122
7.91012
4.33348
8.6666
65.8421
0.278845
7.60584
13.8011
49.1895
47.5009
9.68111
18.8822
37.4693
60.3242
66.0653
2.49314e-09
5.83863
10.8377
47.5121
337.607
3.38783e-09
5.23682
59.1488
0.0658404
2.5094e-08
2.59501e-15
11.2788
43.7498
8.17228e-08
3.32328e-10
2.22045e-16
0.0583161
7.10724e-11
1.0435e-14
2.22045e-16
103.914
101.501
1.62858e-13
2.22045e-16
2.22045e-16
0.0335698
1.39395e-13
2.22045e-16
2.22045e-16
2.22045e-16
3.00857
3.48035
4.03907
3.38095
3.90546
3.25185
4.42643
3.85657
4.31096
2.99865
3.46295
3.5098
3.79331
3.88741
5.02832
3.96109
6.90084
3.93943
6.89707
4.25313
7.3318
6.8971
7.13666
6.80185
8.40651
7.62068
8.74171
8.74857
14.0166
9.94754
9.06174
11.7703
12.0177
24.7371
15.8821
18.4218
8.45813
9.02441
14.3536
8.53157
16.0203
6.61856
7.81511
4.65123
6.3418
5.31088
9.38255
10.7711
9.36441
15.9029
8.91587
19.9748
11.5448
23.077
34.3383
18.5304
28.4355
29.988
127.25
29.4881
49.8416
7.98972
5.51836
9.81139
16.4254
12.0571
23.9049
30.0959
4.32695
6.97809
9.64169
3.67274
3.40067
3.74319
4.80672
4.34471
4.68893
6.2955
7.71671
7.41437
7.57157
4.58285
4.99896
5.29737
9.42517
11.0268
11.6397
11.6966
10.2838
12.6273
21.3061
21.8779
25.4992
8.53417
5.59538
10.0769
8.6643
10.893
7.80313
15.4623
30.0407
12.5445
20.8077
29.5826
121.131
20.7007
40.7315
213.411
38.0664
73.76
173.027
121.082
89.9476
336.924
6.36725
6.02552
2.94556
3.07647
3.01118
3.20373
3.42135
3.14049
3.77327
3.33299
3.6748
3.45021
3.39802
3.74651
3.70453
3.89918
3.57684
3.80803
4.13852
3.52711
3.86959
4.17329
3.06625
3.19254
3.52377
4.12511
3.8627
2.16568
3.67285
3.6817
3.10672
3.46839
2.93338
2.29303
3.899
4.68509
4.60609
5.65996
6.71683
5.53807
4.66124
5.64123
2.84069
4.05218
3.39792
4.83331
2.50684
4.63905
3.85233
6.00969
7.66187
6.30526
8.67022
8.13933
7.6649
10.1755
7.34436
9.75372
9.18416
8.64838
8.01598
8.11076
10.3383
7.4991
9.30835
9.47968
9.95082
12.0938
13.0327
12.1276
11.4243
10.7056
11.1014
11.6646
8.84088
9.5151
11.0776
9.40974
10.7673
11.7715
14.3559
13.3878
15.1607
17.5766
12.909
14.4665
17.4569
7.78126
10.2943
9.38262
8.22161
10.7179
9.61191
12.3059
12.5239
11.0029
6.05987
8.27878
6.61665
10.676
4.88119
10.3322
8.20894
13.3902
17.5397
14.3333
6.4889
7.3315
6.52606
8.21409
6.21656
7.70233
6.8195
5.72756
5.17631
6.38246
5.98728
6.17407
6.82389
8.68501
8.9332
7.70465
8.15887
7.18825
7.4071
10.9583
8.63444
11.2364
9.94004
10.2142
9.15573
12.0709
13.2857
14.6188
13.4302
17.862
12.1618
16.3967
14.6903
11.9179
10.5666
10.864
14.3863
9.80487
12.9841
13.4545
14.7796
20.1064
22.396
18.1406
18.7789
16.1117
17.1453
25.2233
17.5883
21.0474
21.4395
21.0289
20.4266
24.9799
30.829
24.7421
29.8314
38.4412
24.0988
29.9357
40.8625
6.61296
8.40238
6.90191
6.6587
6.05355
8.91424
8.06044
7.31444
13.9551
18.5899
15.3804
10.9465
15.0016
13.5411
20.6417
18.8617
16.7633
24.8718
38.6965
30.1904
3.88729
3.59325
3.39379
4.96235
2.79534
4.12081
4.69192
7.79235
2.11196
3.30383
2.82404
3.57469
3.36871
2.86018
2.08652
3.3248
5.69188
6.68751
5.41095
5.496
4.50873
3.99492
2.97614
2.71989
3.81864
2.60516
3.12147
2.84293
4.16337
5.53713
4.63125
5.29521
4.69838
6.20414
4.80845
5.49447
6.96267
5.43371
7.63593
8.37856
15.767
7.20583
13.7194
4.46777
4.91983
3.65104
4.4265
4.98416
5.74633
11.2169
6.25006
9.60816
7.63335
15.7357
10.8456
25.2783
24.4232
12.7725
17.7732
32.6749
113.639
16.5611
46.8429
6.77038
5.70195
9.59502
7.76038
11.1527
8.00038
19.1015
22.4988
12.5313
36.5739
12.9626
43.6239
29.3658
134.278
195.214
34.895
74.428
211.94
409.602
81.8553
290.294
4.28547
4.6047
5.08545
4.63233
4.99828
5.32563
5.32299
6.09979
7.2338
7.71835
5.96585
6.34368
7.62965
6.29642
3.63781
3.95014
4.50916
4.44306
6.28628
4.53261
7.33692
37.3442
268.602
326.015
1.77215
7.476e-07
356.336
6.23885e-08
9.7037
16.0885
56.7742
6.13233e-08
3.58501e-13
1.19467
0.880669
1.44889
1.75063
1.94436
1.52438
3.39544
1.33708
2.17541
1.36704
2.51525
2.73099
2.46789
2.3336
3.14851
3.0026
6.11251
6.18305
4.8012
2.95427
4.4076
8.91319
10.4082
5.83717
66.0445
25.5058
0.0013836
6.75696e-10
2.60803e-15
2.22045e-16
2.22045e-16
86.9926
1.02335e-09
1.22213e-15
2.22045e-16
2.22045e-16
2.22045e-16
2.56382e-09
2.42831e-14
2.22045e-16
2.22045e-16
2.22045e-16
2.22045e-16
4.02311e-16
2.22045e-16
2.22045e-16
2.22045e-16
2.22045e-16
5.52263e-16
2.22045e-16
2.22045e-16
2.22045e-16
2.22045e-16
2.22045e-16
1.33972
1.64161
1.22003
1.41648
1.99166
2.75281
1.9283
2.13606
2.88465
2.32103
1.6533
2.00962
2.34217
2.18467
2.33759
2.06711
3.90374
4.42515
3.61026
2.70691
5.21193
5.82411
5.03351
2.35929
4.47418
5.09066
5.44395
5.33072
3.84793
5.90861
7.38673
6.09025
5.40534
7.5547
2.27854
1.99764
2.34052
1.72821
2.1339
3.14156
3.31574
3.77865
3.98236
4.55678
7.0084
7.26179
8.35089
5.50857
5.72804
6.52967
1.41187
1.60923
1.39758
1.68539
1.6518
1.43615
1.37406
1.27871
1.45488
1.29966
1.42769
1.49295
1.78265
1.94833
1.70333
1.74528
1.52084
1.66892
2.25741
1.88336
2.25862
1.97915
1.93264
2.31779
2.20009
2.61917
2.62446
2.68971
2.55542
2.37427
2.08778
2.26755
2.6899
2.03838
2.43603
2.62721
2.74349
3.08149
2.81383
3.01332
1.40611
1.69899
1.44575
1.46669
1.30828
1.79771
1.71786
1.53219
2.64018
2.70805
2.1073
2.71314
2.45951
3.0974
2.83264
2.05666
1.71161
1.67417
2.10952
2.41271
2.28647
2.00591
2.8651
1.96174
2.80194
2.4715
2.57404
3.28378
2.64209
3.19695
3.01531
3.56988
4.3003
3.83944
3.48525
3.09188
3.73497
3.67046
2.64764
3.11486
3.28899
3.04679
3.22025
3.74827
4.13628
3.53929
3.46697
4.22063
4.48899
4.07132
4.88425
5.66451
3.97584
4.59966
5.48758
5.00992
6.28478
5.13146
6.0946
2.02474
2.89155
2.49718
3.32209
2.67263
3.60447
3.88213
3.1242
3.5575
4.24258
4.10876
5.73832
4.64459
6.35004
5.16798
4.35617
3.93441
3.82301
4.4979
5.09174
5.13915
4.60897
6.16582
4.462
5.88935
5.28928
4.75617
5.23824
4.92921
5.04303
5.57681
6.85283
6.9528
6.21919
6.48901
5.82228
5.93589
7.67452
5.8477
6.88518
7.11987
6.58993
6.74583
8.13778
4.66759
6.27324
5.36887
5.2954
4.99462
6.99421
6.32017
5.92186
5.46728
5.46644
5.25849
5.69065
1.28696
1.0865
1.2591
0.978766
1.66046
1.18954
1.3777
2.04256
1.67741
2.41085
1.85294
2.41078
2.07194
2.54333
1.97167
1.35313
2.14302
1.91005
2.75628
2.00793
3.65006
2.73158
2.45058
3.68103
2.98961
3.98996
4.04055
4.21234
2.89624
2.7
4.37348
2.65098
3.36396
3.13125
4.61223
4.42206
3.91312
3.88976
5.10878
4.00887
5.10335
4.39285
5.77316
2.44375
8.09319
28.4177
42.5135
45.3606
2.6234e-05
1.05224e-07
4.23006e-09
1.64176e-12
3.32941
2.1711
2.89065
2.92331
3.97537
2.49702
1.69779
1.92865
2.00323
1.26619
1.44352
1.7472
3.36417
2.20702
2.54139
2.31317
1.91266
1.65664
2.68872
5.00981
4.82355
5.04055
2.91669
4.87287
2.73797
2.53203
1.93916
3.24839
3.00468
2.31819
3.45257
1.14986
1.02647
1.46749
3.35931
4.61877
1.02188
1.24197
1.25141
1.45357
2.77025
2.80373
3.31957
4.41319
4.45129
3.75625
3.86357
4.18785
4.42265
4.59441
3.87977
4.57219
1.19895
1.05869
1.23416
1.80459
3.84102
4.79036
4.2762
4.30302
6.19975
1.20962
1.00883
1.19259
1.05356
1.04018
1.22733
1.17538
1.11382
1.2207
1.09775
1.12034
1.42318
1.78314
1.73838
2.22826
2.69881
2.17001
2.25563
3.23423
3.7942
3.69053
4.15727
4.27274
4.03236
4.20623
3.28751
3.75751
3.24197
4.00911
3.16638
3.89771
3.36123
3.43064
4.19232
4.35571
3.68595
4.06803
3.50412
3.67454
4.44705
4.77433
4.61534
3.2546
4.01432
3.36315
4.20015
3.79442
3.50409
0.830646
0.880159
0.905895
1.06131
0.883695
1.06879
1.16173
1.23201
1.73231
2.31234
1.24321
2.34059
2.55024
2.77584
3.32795
3.71415
2.80813
3.74312
0.779073
0.869388
0.762153
0.909202
0.898261
0.788511
0.752656
0.816848
0.958124
1.04478
0.909036
0.945245
0.827544
0.896155
0.765367
0.913306
0.792062
0.963208
0.914863
0.831679
1.22905
1.20832
1.04483
1.49817
1.02679
1.46235
1.25673
1.51191
1.86206
2.25428
1.91853
1.81422
1.54987
1.87181
1.05357
1.51581
1.27041
1.88505
1.94149
1.56821
2.59714
2.70985
2.30787
3.18187
2.25578
3.10456
2.65635
2.85884
3.4963
3.61044
3.11549
3.40361
2.92913
3.03845
2.33403
3.21888
2.68565
3.53523
3.13843
2.95928
3.66527
1.99006
1.63581
2.48013
1.39038
2.12029
2.32587
1.21921
1.87516
1.47391
1.32884
1.818
2.4551
1.87648
1.88044
1.98615
1.65437
2.13526
2.41746
2.56708
2.99526
1.32876
1.27621
1.43932
1.32239
1.42501
1.4036
1.55166
1.40102
1.63875
1.54748
1.56645
1.49437
1.64307
1.72369
0.907179
0.860244
0.884431
1.04768
0.991835
1.01826
1.02067
1.45847
1.48184
1.81921
2.20233
1.86927
1.3729
1.75675
0.858847
0.880915
0.852277
0.763643
0.717096
0.743762
0.737032
1.59205
1.51531
1.78428
1.31082
1.53036
1.47016
1.68023
1.99574
2.14453
1.99137
1.82028
1.69405
1.82094
1.92816
1.55835
1.73406
1.84039
1.65063
1.81288
1.74904
1.91643
0.960854
1.1097
1.12083
1.13253
1.28248
1.108
1.30134
1.11656
0.935957
0.964657
0.907032
0.934878
1.08124
1.05259
0.926904
1.00461
1.02433
0.8011
0.862519
0.78247
0.879581
2.2746
2.26729
2.39778
1.93363
2.05588
2.03008
2.14628
1.3413
1.62677
1.64181
1.90339
1.54366
1.56148
1.85795
4.60402
2.73565
3.4349
2.04106
3.46397
2.69936
3.5147
1.97034
2.153
2.28333
2.2497
2.35655
2.13709
2.55152
1.20455
1.13445
1.34411
1.32211
1.1649
1.3772
1.17543
1.0254
1.00084
1.1518
1.13496
1.34236
1.16008
1.32098
1.75903
2.06684
1.95151
1.99769
1.85997
2.02648
2.14825
1.11956
1.15119
1.18301
0.963955
0.99364
1.01944
0.988726
1.23035
1.24481
1.28055
1.27745
1.3179
1.38053
1.34036
1.42165
1.65922
1.53177
1.62671
1.51933
1.65882
1.772
1.63755
2.10555
2.11907
2.49034
3.63472
2.65472
2.03908
2.52337
2.49304
2.71305
2.94135
2.51426
2.76789
2.66058
1.18223
1.40193
1.42605
1.1778
1.19938
0.987737
1.00583
1.77122
1.69649
1.61488
1.74782
1.97392
1.87784
1.8283
1.29107
1.45534
1.49061
1.24704
1.40037
1.43344
1.21711
1.30334
1.43828
1.46805
1.71302
1.26819
1.48976
1.50002
1.76586
2.13923
2.19218
1.78171
1.44327
1.82174
1.47191
2.55729
2.68125
2.53782
2.30706
2.18201
2.2693
2.39657
1.25045
1.05078
1.0755
1.17175
1.19522
1.36684
1.39576
1.34578
1.64808
1.65354
1.58809
1.94892
1.93013
1.57484
1.70071
2.13737
1.96635
1.75709
1.62013
1.81839
1.95006
1.5166
1.41281
1.55891
1.30425
1.34269
1.46387
1.42271
3.76234
2.84298
2.27191
4.07295
2.78401
3.25907
4.00879
2.03669
2.38525
2.46871
2.86018
2.38956
2.32972
2.71932
3.00891
2.6328
2.8942
2.44916
2.13934
2.5266
2.19669
2.31929
2.29194
2.15488
1.94454
2.18162
2.07839
2.04249
1.78724
2.0762
1.91771
2.11468
1.89442
2.02404
2.19585
4.07091
4.82466
4.17093
2.70641
4.51762
3.47216
7.63553
1.31648
1.5405
1.37833
1.55707
1.40461
1.47576
1.63995
1.76736
1.61957
1.52709
1.48811
1.66224
1.56466
1.72512
1.8035
1.59149
1.55957
1.33991
1.75958
1.54051
1.52985
2.17172
1.75854
2.04378
2.3033
1.79862
2.08564
2.43672
2.86033
2.93944
3.16557
3.26209
3.56625
3.24648
3.02139
2.88512
2.80438
3.04981
3.10917
2.97457
2.81518
3.28124
2.691
2.40415
2.52881
2.2821
2.13875
2.25242
2.4
2.20249
2.26828
2.38427
2.19145
2.30955
2.4679
2.5405
1.30036
1.33471
1.37614
1.50968
1.56263
1.54778
1.60337
2.52159
2.56148
2.55183
3.06633
2.35224
2.78415
2.80863
1.53582