/*--------------------------------*- C++ -*----------------------------------*\
  =========                 |
  \\      /  F ield         | OpenFOAM: The Open Source CFD Toolbox
   \\    /   O peration     | Website:  https://openfoam.org
    \\  /    A nd           | Version:  9
     \\/     M anipulation  |
\*---------------------------------------------------------------------------*/
FoamFile
{
    format      ascii;
    class       volScalarField;
    location    "0.00115";
    object      overpressure;
}
// * * * * * * * * * * * * * * * * * * * * * * * * * * * * * * * * * * * * * //

dimensions      [1 -1 -2 0 0 0 0];

internalField   nonuniform List<scalar> 
9768
(
0.00124911
0.000420847
8.06055e-05
2.85936e-05
1.05298e-05
2.25873e-06
1.84824e-07
0.000128393
2.34751e-06
3.43064e-05
4.05718e-06
2.77387e-05
4.00949e-07
2.97168e-05
2.56699e-05
1.13401e-05
5.58241e-06
7.01839e-07
2.81735e-06
8.62638e-08
2.61905e-07
2.43308e-08
0.00211166
0.000665752
9.02219e-10
1.41154e-09
0
0
5.08007e-08
1.07684e-09
0
1.02213e-05
2.26224e-07
6.91522e-07
1.51922e-08
8.12288e-08
1.52795e-09
1.00408e-09
0
1.17555e-05
0
5.36966e-09
5.82077e-10
4.61441e-08
1.88398e-06
1.74623e-08
4.11921e-07
5.51518e-09
2.5818e-07
1.51074e-06
4.39177e-08
3.3829e-06
9.02801e-08
5.02361e-07
1.71131e-08
1.29046e-07
1.06229e-09
2.87546e-08
3.0559e-10
1.72877e-08
9.629e-08
2.76486e-09
2.35988e-07
5.87897e-09
3.30474e-08
1.09139e-09
1.38971e-08
7.27596e-11
1.46974e-09
0
1.76078e-09
1.08557e-08
2.47383e-10
1.30822e-08
2.47383e-10
2.05182e-09
5.82077e-11
1.89175e-10
0
1.01863e-10
0
0
1.16415e-10
0
5.82077e-11
0
0
0
6.74729e-07
2.41562e-09
3.31784e-09
1.88644e-05
1.25507e-06
4.46453e-07
3.07627e-08
7.72216e-05
1.83516e-06
3.44323e-06
4.58679e-05
5.34591e-06
3.85786e-07
1.50382e-06
2.34824e-07
1.20884e-06
3.24799e-08
2.3008e-07
6.25325e-07
1.66018e-06
1.79978e-07
5.12577e-07
4.0367e-08
2.72121e-09
9.16771e-10
4.41796e-08
1.69821e-08
8.58563e-10
3.84753e-08
3.24508e-09
1.48138e-08
6.9059e-07
3.35713e-08
1.03275e-07
7.34726e-08
2.47077e-07
6.0827e-09
1.1205e-09
6.0536e-09
2.18279e-10
9.25502e-09
2.91038e-10
1.65746e-08
5.09317e-10
9.74978e-10
1.01281e-08
4.56057e-08
7.32543e-08
2.34286e-09
5.18048e-09
1.75351e-08
4.36557e-11
2.91038e-11
2.91038e-09
9.31323e-10
1.30967e-10
0
1.58616e-09
7.85803e-10
4.36994e-08
2.03727e-09
7.04313e-09
3.23053e-09
1.5687e-08
3.49246e-10
4.36557e-11
3.34694e-10
0
5.52973e-10
0
9.31323e-10
0
8.73115e-11
9.31323e-10
4.9331e-09
8.51287e-09
1.89175e-10
4.94765e-10
1.9354e-09
0
0
2.47383e-10
4.36557e-11
0
0
1.01863e-10
0
2.16824e-09
4.36557e-11
2.47383e-10
1.16415e-10
7.13044e-10
0
0
0
0
0
0
0
0
0
0
2.91038e-11
4.36557e-11
0
0
0
0
0
0
0
0
0
0
0
0
9.8953e-10
0
0
0
1.45519e-10
0
0
0
0
0
0
1.45519e-11
2.75468e-07
8.62594e-07
3.15849e-07
8.1418e-08
1.5847e-08
4.47326e-08
5.4657e-08
0
0
2.32831e-10
0
7.567e-10
0
3.92902e-10
1.06811e-08
1.21654e-08
1.71232e-07
6.66478e-09
2.30386e-07
1.47811e-06
1.11657e-07
4.93746e-08
3.34112e-08
5.04224e-08
6.8394e-10
2.16678e-08
1.03319e-08
7.63539e-08
7.14499e-09
1.28057e-09
2.91038e-11
6.98492e-10
5.25324e-09
1.16415e-10
2.15368e-09
1.46974e-09
3.97378e-06
3.81231e-06
3.60302e-05
2.13584e-06
0.000896644
5.11411e-05
2.78023e-05
0
0
6.21367e-09
0
0
0
0
0
2.53203e-09
0
0
0
0
0
5.82077e-11
0
0
0
0
0
0
0
0
0
0
0
0
0
0
0
0
0
0
0
0
0
0
0
0
0
0
0
0
0
0
0
3.34694e-10
0
0
0
0
0
1.30967e-10
0
0
0
0
0
0
0
0
0
0
0
0
0
0
0
0
0
0
0
0
0
0
0
0
0
0
0
0
0
0
0
0
0
0
0
0
0
0
0
0
0
0
0
0
0
0
0
0
0
0
0
0
0
0
0
0
0
0
0
0
0
0
0
0
0
0
0
0
0
0
0
0
0
0
0
0
0
0
0
0
0
0
0
0
0
0
0
0
0
0
0
0
0
0
0
0
0
0
0
0
0
0
0
0
0
0
0
0
0
0
0
0
0
0
0
0
0
0
0
0
0
3.49246e-10
0
0
0
0
1.45519e-11
0
0
0
0
0
0
0
0
0
0
0
0
0
0
0
0
0
0
0
0
0
0
0
0
0
0
0
0
0
0
0
0
0
0
0
0
0
0
0
0
0
2.14786e-08
8.58563e-10
0
0
0
0
0
0
0
0
0
0
0
0
0
0
0
0
0
0
0
0
0
0
0
0
0
0
0
0
0
0
0
0
0
0
0
0
0
0
0
0
0
0
0
0
0
0
2.73576e-09
8.73115e-11
0
0
0
0
0
0
0
0
0
0
0
0
0
0
0
0
0
0
0
0
0
0
0
0
0
0
0
0
0
0
0
0
0
0
0
0
0
0
0
0
0
0
0
0
0
0
4.36557e-11
0
0
0
0
0
0
0
0
0
0
0
0
0
0
0
0
0
0
0
0
0
0
0
0
0
0
0
0
0
0
0
0
0
0
0
0
0
0
0
0
0
0
0
0
0
0
0
0
0
0
0
0
0
0
0
0
0
0
0
0
0
0
0
0
0
0
0
0
0
0
0
0
0
0
0
0
0
0
0
0
0
0
0
0
0
0
0
0
0
0
0
0
0
0
0
0
0
0
0
0
0
0
0
0
0
0
0
0
0
0
0
0
0
0
0
0
0
0
0
0
0
0
0
0
0
0
0
0
0
0
0
0
0
0
0
0
0
0
0
0
0
0
0
1.03319e-09
0
3.34694e-10
0
0
0
0
0
0
0
0
0
0
0
0
0
0
0
0
0
0
0
0
0
0
1.01863e-10
1.19326e-09
4.36557e-11
2.13913e-09
1.45519e-11
4.80213e-10
1.45519e-11
0
0
0
0
0
0
0
0
0
0
0
0
0
0
0
0
0
0
0
0
0
2.91038e-11
0
0
0
0
0
0
0
0
0
0
0
0
0
0
0
0
0
0
0
0
0
0
0
0
2.91038e-11
0
0
0
0
0
0
0
0
0
0
0
0
0
0
0
0
0
0
0
0
0
0
0
0
0
0
0
0
0
0
0
0
0
0
0
0
0
0
0
0
0
0
0
0
0
0
0
0
0
0
0
0
0
0
0
0
0
0
0
0
0
0
0
0
0
0
0
0
0
0
0
0
0
0
0
0
0
0
0
0
0
0
0
0
0
0
0
0
0
0
0
0
0
0
0
0
0
0
0
0
0
0
0
0
0
0
0
0
0
0
0
0
0
0
0
0
0
0
0
0
0
0
0
0
0
0
0
0
7.567e-10
1.16415e-10
0
0
0
0
0
0
0
0
0
0
0
0
0
0
0
0
1.16415e-10
8.73115e-11
0
0
0
1.11235e-07
2.96859e-09
0
0
1.20943e-05
2.2017e-08
6.1118e-10
0
0
0
1.36133e-07
6.00994e-09
1.30967e-10
0
0
0
3.11411e-09
1.01863e-10
0
0
0
0
0
0
0
0
0
0
0
0
0
0
0
0
0
0
1.22236e-09
1.45519e-10
0
5.52973e-10
4.36557e-11
0
0
0
6.98492e-10
0
0
3.34694e-10
0
0
0
1.35333e-09
0
1.45519e-10
0
0
1.74623e-10
5.82077e-11
0
0
2.61934e-10
0
1.16415e-10
0
0
0
0
0
0
0
0
6.85832e-08
1.97702e-07
5.76256e-09
5.52973e-10
5.8311e-07
1.42609e-07
2.13768e-08
4.97676e-09
2.10712e-08
1.45519e-11
0
1.4843e-08
2.44472e-09
4.80213e-10
5.82077e-11
4.07454e-10
0
0
1.74623e-10
0
0
0
6.51926e-09
4.1764e-09
0
1.30967e-10
1.30967e-10
1.74623e-10
2.91038e-11
0
0
0
1.45519e-11
0
0
0
0
0
0
0
0
0
0
0
0
0
0
0
5.82077e-11
2.61934e-10
1.03319e-09
2.91038e-11
2.18279e-10
0
0
0
0
0
0
0
0
0
3.34694e-10
0
4.36557e-11
0
1.16415e-10
0
0
0
0
0
0
0
0
0
0
0
0
0
0
0
0
0
0
0
0
0
0
0
0
0
0
0
0
0
0
0
0
0
0
0
0
0
0
0
0
0
0
0
0
0
0
0
0
0
0
0
0
0
0
0
0
0
0
0
0
0
0
0
0
0
0
0
0
0
0
0
0
0
0
0
0
0
0
0
0
0
0
0
0
0
0
0
0
0
0
0
0
0
0
0
0
0
0
0
0
0
0
0
0
0
0
0
0
0
0
0
0
0
0
0
0
0
0
0
0
0
0
0
0
0
0
0
0
0
0
0
0
0
0
0
0
0
0
0
0
0
0
0
0
0
0
0
0
0
0
0
0
0
0
0
0
0
0
0
0
0
0
0
0
0
0
0
0
0
0
0
0
0
0
0
0
0
0
0
0
0
0
0
0
0
0
0
0
0
0
0
0
0
0
0
0
0
0
0
0
0
0
0
0
0
0
0
0
0
0
0
0
0
0
0
0
0
0
0
0
0
0
0
0
0
0
0
0
0
0
0
0
0
0
0
0
0
0
0
0
0
0
0
0
0
0
0
0
0
0
0
0
0
0
0
0
0
0
0
0
0
0
0
0
0
0
0
0
0
0
0
0
0
0
0
0
0
0
0
0
0
0
0
0
0
0
0
0
0
0
0
0
0
0
0
0
0
0
0
0
0
0
0
0
0
0
0
0
0
0
0
0
0
0
0
0
0
0
0
0
0
0
0
0
0
0
0
0
0
0
0
0
0
0
0
0
0
0
0
0
0
0
0
0
0
0
0
0
0
0
0
0
0
0
0
0
0
0
0
0
0
0
0
0
0
0
0
0
0
0
0
0
0
0
0
0
0
0
0
0
0
0
0
0
0
0
0
0
0
0
0
0
0
0
0
0
0
0
0
0
0
0
0
0
0
6.08183e-07
1.29524e-06
5.68398e-07
1.12728e-05
1.41168e-06
6.54836e-09
9.66975e-08
8.81846e-09
1.08106e-07
6.40284e-09
9.80217e-08
8.07631e-09
1.01863e-10
1.86265e-09
2.18279e-10
2.96859e-09
1.01863e-10
1.8772e-09
2.18279e-10
0
0
0
7.71252e-10
7.85803e-10
7.27596e-10
8.44011e-10
0
0
0
2.91038e-10
2.18279e-10
2.91038e-10
2.18279e-10
0
0
0
1.45519e-11
1.45519e-11
2.91038e-11
0
0
0
0
0
0
0
0
0
0
0
0
0
0
0
0
6.8394e-10
1.29512e-09
2.91038e-11
7.13044e-10
0
2.91038e-11
0
0
0
0
0
0
0
0
0
0
0
0
0
0
0
0
0
0
0
0
0
3.19124e-08
6.98928e-08
2.53058e-08
1.01417e-06
5.23534e-07
1.25429e-06
5.00833e-07
7.63393e-08
2.97296e-08
3.73577e-07
6.25441e-08
1.19078e-06
2.90456e-08
2.05182e-09
4.26371e-09
1.25146e-09
3.10974e-08
7.45495e-08
2.72121e-08
7.70669e-08
1.74623e-10
1.45519e-10
7.27596e-11
4.71482e-09
2.03727e-09
3.55067e-09
1.94996e-09
2.05182e-09
2.65136e-08
1.35333e-09
2.1435e-08
1.96451e-09
2.56987e-08
1.36788e-09
0
0
0
3.7835e-10
6.1118e-10
3.7835e-10
5.67525e-10
0
0
0
8.73115e-11
2.91038e-11
1.01863e-10
2.91038e-11
0
0
0
0
0
0
0
0
2.76486e-10
0
1.74623e-10
0
1.74623e-10
0
0
8.73115e-11
1.16415e-10
0
4.36557e-11
0
0
1.89175e-09
3.73984e-09
1.19326e-09
2.91038e-11
1.60071e-10
1.74623e-10
5.67525e-10
0
0
7.45786e-08
0
1.16415e-10
0
0
0
0
0
0
8.25676e-07
2.78934e-06
4.38595e-08
1.16415e-10
1.99361e-09
4.36557e-11
0
0
0
0
0
0
0
0
0
0
0
0
0
0
0
0
0
0
0
0
0
0
0
0
0
0
0
0
0
0
0
0
0
0
0
0
3.45535e-07
4.23664e-07
1.16201e-06
5.59045e-06
2.13549e-05
8.71376e-06
1.48597e-05
6.4465e-09
2.98314e-09
5.8164e-08
1.91649e-08
2.02272e-08
9.60426e-10
2.00816e-09
0
0
0
0
0
0
0
0
0
0
0
0
0
0
0
0
0
0
0
0
0
0
0
0
0
0
0
0
0
0
0
0
0
0
0
8.00355e-10
7.13044e-10
1.92085e-08
8.30914e-09
9.44419e-09
2.18279e-10
2.76486e-10
8.73115e-10
2.61934e-10
2.61934e-10
0
0
0
0
0
0
0
0
0
0
0
0
0
0
0
0
0
0
0
0
0
0
0
0
0
0
0
0
0
0
0
0
0
0
0
0
0
0
0
0
0
0
0
0
0
0
0
0
0
0
0
0
0
0
0
0
0
0
0
0
0
0
0
0
0
0
0
0
0
0
0
0
0
0
0
0
0
0
0
0
0
0
0
0
0
0
0
0
0
0
0
0
0
0
0
0
0
0
0
0
0
0
0
0
0
0
0
0
0
0
0
0
0
0
0
0
0
0
0
0
0
0
0
0
0
0
0
0
0
0
5.02972e-07
4.7042e-07
2.06303e-07
2.89481e-07
8.98108e-06
9.70215e-06
4.18336e-06
2.40398e-08
1.00117e-08
9.8662e-09
5.19809e-07
2.98183e-07
4.43848e-07
3.03698e-07
5.96629e-10
1.74623e-10
2.18279e-10
1.48866e-08
7.90169e-09
1.51485e-08
8.01811e-09
0
0
0
3.34694e-10
1.16415e-10
3.34694e-10
1.16415e-10
0
4.65661e-10
0
3.92902e-10
0
4.65661e-10
0
0
0
0
0
0
0
0
0
0
0
0
0
0
0
0
1.30967e-10
0
1.45519e-11
0
4.22006e-10
1.16415e-10
0
0
0
0
0
0
0
0
0
0
0
0
0
0
0
0
0
0
0
0
0
0
0
0
0
0
0
0
0
0
0
0
0
0
0
1.45519e-11
0
0
0
0
0
0
0
0
0
0
0
0
0
0
0
0
0
0
0
3.68163e-09
2.47383e-10
0
0
0
0
0
0
0
0
0
0
0
0
0
0
0
0
0
0
0
0
0
0
0
0
0
0
0
0
0
0
0
0
0
0
0
0
0.0313705
1.23682
3.43023e-05
4.32046e-07
0.00414715
6.13897e-06
1.22382e-08
3.49381e-06
1.05792e-08
0.000732565
0.00445628
4.56015e-06
1.41794e-07
0.000413897
6.01081e-07
6.56291e-09
1.86192e-07
1.20781e-09
0.0316303
0.00142461
0.000524579
1.97293e-06
4.74975e-08
1.50151e-05
1.56986e-07
2.02272e-09
1.04046e-08
2.61934e-10
0.000699578
0.000115614
0.00999967
2.75682e-05
2.75395e-07
7.43603e-09
0.000395425
5.67685e-07
2.45636e-08
2.32831e-10
4.95696e-07
4.22006e-10
6.21503e-05
1.71203e-06
3.80678e-08
6.8394e-10
0.000978698
9.48555e-06
2.19108e-07
4.904e-09
0
1.93068e-05
2.46195e-06
6.3068e-08
1.33878e-09
0
4.51617e-06
1.32495e-07
3.01225e-09
1.45519e-11
0
5.88188e-08
1.46974e-09
0
0
1.14524e-07
3.52156e-09
2.91038e-11
0
0
2.44472e-09
4.36557e-11
0
0
0
0.000517717
0.000175291
0.000234468
5.28722e-05
5.84252e-06
0.00351479
8.72538e-05
1.76745e-05
2.38251e-06
3.93791e-05
6.2474e-06
5.37781e-07
6.79065e-07
1.93599e-07
4.39468e-09
3.44426e-05
1.77251e-06
1.54618e-06
1.21319e-07
1.70403e-08
2.10712e-08
3.49246e-09
8.00355e-10
0.000534384
1.18208e-06
0.00466763
0.00012256
2.64213e-05
1.75365e-07
5.87737e-07
1.41386e-07
2.12021e-08
3.91851e-06
2.35726e-07
2.66155e-08
1.01136e-08
7.5961e-08
1.80553e-06
1.06666e-08
2.76486e-09
1.71713e-09
0.00785082
5.37272e-05
0.0154568
0.000745989
0.000147835
1.33802e-06
1.67153e-05
6.75228e-06
6.28788e-08
4.19413e-05
1.90202e-06
2.72717e-07
1.28057e-08
4.81814e-08
6.43195e-09
1.86265e-09
1.26878e-07
2.29775e-08
2.09548e-09
9.74978e-10
3.61209e-06
9.52487e-06
1.00918e-07
3.57977e-09
2.23808e-08
1.70257e-09
3.34694e-10
0.000220425
6.21522e-06
3.93295e-07
5.08371e-07
3.15548e-06
5.1815e-07
9.34702e-06
3.63438e-06
3.58865e-07
6.00173e-05
1.77079e-06
3.15762e-07
6.96455e-08
4.13129e-08
8.00792e-08
1.66328e-08
2.00816e-09
6.41739e-09
1.39698e-09
9.44565e-08
1.91954e-07
3.85771e-08
8.73115e-11
1.30967e-10
1.45519e-11
0.000120812
0.000106203
8.21167e-06
0.000100682
7.47895e-05
1.04575e-05
3.71698e-06
3.96928e-06
6.73346e-07
1.48444e-07
9.01183e-06
1.50934e-06
3.7362e-07
5.96337e-08
9.12405e-08
1.42609e-08
3.11411e-09
1.36555e-07
3.13157e-08
5.51518e-09
1.1205e-09
1.08791e-05
1.88856e-05
0.00559649
0.000411549
0.0046163
0.000233857
0.00441489
0.0049159
0.000178066
0.000585696
8.93907e-06
5.17235e-05
0.000655288
9.84102e-06
0.000136643
0.000104661
2.2946e-05
0.000486855
2.9676e-06
0.000447973
5.24257e-06
7.30371e-05
2.90633e-05
1.12067e-05
1.15995e-06
1.27562e-07
2.61542e-07
8.19273e-09
1.95651e-07
1.87109e-07
7.26141e-09
2.00394e-07
8.06176e-09
7.15954e-09
0.000696545
1.45251e-05
0.000410242
2.79579e-06
2.64439e-05
3.96907e-05
5.90953e-07
1.81506e-07
1.25146e-09
3.20579e-08
9.45874e-10
2.7183e-08
1.4843e-09
2.9715e-08
1.00408e-09
2.71975e-08
4.48199e-09
5.93718e-09
4.49582e-05
1.9746e-05
3.94466e-06
7.19563e-07
5.54807e-05
1.21481e-05
3.06277e-06
0.000177111
3.98221e-05
0.000429651
6.23422e-06
0.000571495
1.19646e-05
0.000107675
1.8949e-05
3.06536e-07
3.01252e-06
7.94404e-07
5.76898e-06
1.47184e-06
1.23281e-05
3.41199e-07
1.9435e-06
2.72994e-08
9.14006e-08
4.33691e-07
1.29345e-06
2.08092e-08
2.45258e-07
4.05998e-08
4.02855e-07
6.8685e-09
5.59303e-07
1.48866e-08
1.10245e-07
2.93876e-07
4.67262e-08
2.17377e-07
3.01281e-06
3.90515e-07
7.89893e-07
1.94123e-08
5.22559e-08
1.07597e-07
8.73115e-11
2.76486e-09
1.30967e-10
1.17871e-09
1.16415e-10
2.45927e-09
2.91038e-11
2.88128e-09
4.65661e-10
9.8953e-10
0.00164631
0.00072544
0.000172965
2.45572e-05
0.00173
0.000353264
0.000125306
0.00203625
0.00206706
3.74143e-05
0.000133559
0.000580829
0.000230382
3.10747e-06
1.87063e-05
4.60047e-06
3.85266e-05
1.98685e-05
5.64961e-05
1.04963e-05
7.50586e-05
1.41548e-06
2.90576e-06
1.91073e-05
3.75106e-05
6.46993e-07
1.85022e-06
1.08818e-06
1.87385e-07
2.74886e-08
2.50062e-06
4.77899e-07
1.14262e-07
3.06408e-06
4.40617e-07
3.86059e-06
9.78616e-08
5.7155e-06
1.7503e-07
1.07099e-06
3.04091e-07
6.8394e-09
6.42322e-08
2.26137e-08
8.36153e-08
2.74158e-08
1.59562e-07
1.35915e-08
8.32952e-08
1.30967e-09
2.86673e-09
1.91503e-08
4.16476e-08
7.71252e-10
1.49448e-08
1.4843e-09
1.18889e-08
1.1496e-09
1.90485e-08
9.31323e-10
5.34055e-09
1.3829e-05
1.51093e-06
7.6046e-06
2.40869e-06
7.9685e-06
2.14699e-07
3.40267e-07
1.2543e-06
1.30822e-08
1.52795e-09
6.88306e-09
3.16068e-08
9.79344e-09
1.0521e-08
4.80213e-10
3.04135e-09
2.05182e-09
7.27596e-11
1.16415e-10
1.45519e-11
1.76398e-05
0.000346143
1.09038e-05
0.000195671
2.19579e-05
0.000301858
1.00074e-05
1.1011e-06
2.10275e-08
5.25208e-07
2.21044e-08
4.73854e-07
5.2106e-07
2.06637e-08
2.16969e-08
2.18279e-10
3.20142e-09
5.20959e-09
1.74623e-10
5.25324e-09
2.18279e-10
1.89175e-10
0.00390858
0.0553453
0.00105601
0.079053
0.00196268
0.0106108
0.000308496
1.29294e-06
2.1547e-07
3.67581e-08
2.89691e-06
5.10568e-07
9.81818e-08
1.67493e-08
4.1601e-07
2.85945e-08
1.85537e-08
4.42975e-07
1.80065e-07
2.05473e-08
8.80391e-09
0.0132815
0.00257946
0.158749
0.00472246
0.0129558
0.00045157
9.1355e-05
7.45443e-05
5.29953e-06
0.000152807
7.69885e-05
1.8518e-05
3.40611e-06
1.4242e-07
7.05768e-09
5.80621e-09
1.40208e-07
7.51752e-08
5.80621e-09
2.70666e-09
0.000462523
0.00270606
8.56195e-05
0.00109601
0.000143865
0.00022279
1.66394e-05
1.0586e-05
3.5236e-06
6.61079e-07
1.7925e-05
9.08352e-06
1.45075e-06
4.83298e-07
2.29629e-08
1.10595e-09
8.14907e-10
2.14495e-08
9.03674e-09
7.71252e-10
3.0559e-10
6.1296e-05
8.77844e-07
1.58444e-06
2.12674e-05
3.40358e-05
3.2672e-07
7.63804e-06
4.11252e-07
5.18779e-06
6.90779e-08
6.29893e-06
1.01107e-07
1.25651e-06
2.09502e-06
0.000214791
0.00150658
3.7646e-05
0.00114839
0.00011645
0.000269381
1.23269e-05
1.97906e-09
2.61934e-10
1.45519e-11
2.663e-09
5.52973e-10
8.73115e-11
0
0.000463728
3.80971e-05
7.7179e-07
1.31986e-08
1.30967e-10
1.02287e+06
746563
648954
8421.71
1.56557
641458
0.169881
1.12281e+06
5241.5
793075
8.31691
0.00101581
137.077
415609
7.74027
3274.36
0.00809485
1.15997e-05
0.0744899
6141.29
0.0677601
0.000654051
7.32399e-05
0.000161964
1.83559e-06
3.17194e-06
3.53321e-08
1.10595e-09
0
0
0
6.19038e-08
5.52973e-10
0
0
0
0
1.13505e-09
0
0
0
0
0
0
0
0
0
0
0
0
0
0
0
0
499859
384.098
1.01289e+06
499252
5.00497
0.102677
10.3788
126.927
0.0576064
0.133773
76.9546
0.757351
0.0160887
295.825
0.329405
32242.8
0.468996
0.00155818
0.00638363
0.00936223
0.0249802
0.000972902
0.000245819
0.04344
0.000140559
1.99936e-05
0.0477714
0.00110167
45.4945
0.0735216
0.000162031
0.000136803
9.02287e-05
1.16591e-05
0.0333368
0.816921
0.0173938
97.4851
3.57436
4.34232e-05
8.24708e-05
1.66113e-05
0.00891617
0.00305272
1.9335e-06
7.82157e-06
1.45486e-06
6.69494e-05
3.58662e-05
9.62505e-05
89828.9
4592.77
13552.6
206.736
2491.17
7460.62
148261
373188
6530.65
59576.8
82340.6
21207.9
46.5597
62.0252
183.314
566.158
1712.69
2325.4
1.68031
120.571
0.270838
5.49827
64.9968
0.143491
3.12189
0.0454836
0.00728087
0.0040264
0.0821524
0.388864
1.23245
1.63522
0.00451924
14.9552
0.0328159
0.0509761
0.01306
0.000346472
0.00111355
0.0051428
3949.69
40.2554
2083.52
1986.43
22475.5
8.33006
37.7451
422.605
0.000766329
0.000415608
0.169478
0.000440851
0.00369121
2.39612e-05
0.000101992
227.383
394.632
4910.81
19.1692
7.05647
3.98119
11.5998
0.0189031
141.329
0.217998
0.594471
15.1005
0.285415
1.25445
3.45773
0.52096
0.00261457
0.0139866
0.0125119
0.0260057
0.0444476
0.138862
0.00467863
0.111212
0.000566062
0.000912384
0.00686014
0.0100395
0.000317652
0.000857665
6.31671e-05
0.000909104
4.89703e-05
0.0024786
0.0003192
0.00285802
5.7387e-05
0.00361708
0.000135825
0.000856262
0.000189314
7.07264e-06
1.43351e-05
7.71076e-05
2.00045
0.00213236
0.0829035
0.0235105
0.150069
0.000244947
0.00109887
0.00453455
4.0048e-06
2.39133e-06
2.66492e-05
4.0103e-06
7.47887e-06
5.53628e-07
9.37667e-07
0.453002
0.114187
1.37698
0.0382872
0.0264053
0.0109514
0.00579996
0.000818881
0.0605885
0.00918573
0.00284512
0.115402
0.00330513
0.0104368
0.030138
0.0112038
0.000312208
0.0032428
0.000608488
0.00615402
0.00108142
0.00615238
0.000319048
0.00129731
2.54771e-05
0.000102569
0.000319563
0.00119618
2.11392e-05
0.000513453
6.02823e-05
0.000267151
0.000300644
0.000872948
2.09703e-05
5.60471e-05
0.000100781
0.00583801
0.000818623
0.00782359
0.000536796
1.07398e+06
1.10576e+06
1.03622e+06
858257
578308
1.11358e+06
801064
47.6059
50957.9
2.88749
76887.1
1.70205
828.883
0.735624
143475
992565
1914.33
707985
487.872
400849
3.47793
0.148237
55.004
0.043562
18.5014
0.033428
0.134402
0.00945178
210.176
119376
0.493578
177996
3.04786
12709
0.131555
0.110931
0.0697045
3.60377
0.039666
0.157983
0.0279823
0.074485
0.00676162
267.298
0.000584169
5.34625e-05
1.234e-05
1.11404e-06
1.8756e-07
2.15659e-08
3.07045e-09
3.0559e-10
0.0419609
0.000255499
1.17356e-05
0.000762745
4.78378e-05
5.69689e-05
0.00146799
0.000138438
0.000686462
0.046854
0.00389578
0.00552676
5.54307e-06
1.76264e-05
6.55348e-06
0.000171964
0.000123018
0.000381198
8.93829e-05
0.000218218
0.00251024
1.74599e-05
0.0049614
0.000105517
0.000298374
0.00527968
0.000350076
0.000127757
0.0036079
0.000177593
0.0032543
1.02109e+06
1.38846e+06
5010.46
0.215632
0.00032588
1.04068e+06
178891
102344
12785.4
7.3195
0.62016
2.83894
0.0345741
0.00255326
1.17191
0.0926015
0.0354014
0.000761455
0.00416711
0.00652313
5.34703e-05
174784
1.1309e+06
103195
161.323
0.0667734
7.62343e-05
0.0209536
0.0025446
0.00095276
626294
1.09815e+06
293658
906123
1.05199e+06
197685
731970
600154
610184
937289
583922
137781
587.883
6943.91
35.5122
89.6631
427.866
5.48202
34.9416
0.906308
11.4177
0.210801
0.438808
2.67701
0.0153968
2.4609
1.22786
2.26348
0.00891617
30.7179
0.107335
0.181806
0.16198
0.00135449
0.00787405
0.00173245
0.0137226
0.0127409
0.0164347
0.0506306
0.000881671
0.00871309
0.15389
0.000711756
0.0125418
0.000113597
0.000157435
0.000954143
836172
1.69081e+06
952246
908681
2.77595e+06
1.15117e+06
1.121e+06
263869
356420
184.319
209207
16.9477
74587.2
70.5046
1169.76
0.84825
5.40476
0.0594995
1.23847e+06
1.16284e+06
2.12495e+06
1.59605e+06
1.15157e+06
2.06173e+06
1.26691e+06
1.21566e+06
1.40181e+06
1.07249e+06
1.73551e+06
1.16767e+06
1.97932e+06
1.25626e+06
3.62504e+06
2.55275e+06
3.46891e+06
2.11065e+06
2.73536e+06
3.26254e+06
686951
685588
1.04655e+06
16705.6
1.10841e+06
158545
283528
208458
959.342
2283.32
4459.03
11460
23758
54835.7
1.42744e+06
7429.47
244933
208.899
462.738
7865.55
7034.82
866.285
1681.24
23.0031
20536.5
289.84
560.572
1706.38
5.36194
11.1912
21.1432
68.5514
132.406
281.316
131.182
1.68557
41.3538
0.385381
1.45913
9.48589
0.00162322
0.00249105
0.0019996
0.0174771
0.00914813
0.0274992
0.00150399
948009
18944.1
659484
1.08099e+06
771661
1741.52
292498
375393
8471.61
552508
503249
304717
739.517
10.6392
934222
983214
958143
1.09267e+06
961657
1.1002e+06
940262
794421
652616
797577
532442
707737
667671
490944
792549
684732
733000
967122
856829
894636
938790
533292
2351.9
55.2565
5.24007
149.687
814558
188722
869646
995296
968497
861239
696194
734382
833781
1.00375e+06
1.08622e+06
823193
1.03009e+06
986067
1.1022e+06
898558
593067
325093
501038
634637
795169
602954
424980
594080
581524
530491
438919
393560
347375
295104
792882
997066
1.07154e+06
1.04452e+06
1.12548e+06
974378
1.12892e+06
1.10455e+06
928670
960596
828203
868114
1.04363e+06
1.02604e+06
1.07774e+06
1.1551e+06
1.1689e+06
913160
976445
777952
1.11699e+06
421806
221653
122540
554389
490252
323649
216215
1.13401e+06
986401
918409
518768
1.0381e+06
941818
703414
0.0617082
17.1105
2.43146
167915
1.07776
21589.5
0.172314
593216
516931
391999
171624
190358
349436
70862.1
1.09607e+06
1.05583e+06
980253
1.01377e+06
1.06303e+06
899582
1.10927e+06
1.04533e+06
945790
1.15655e+06
1.13289e+06
958492
1.1051e+06
1.0813e+06
497250
319515
459281
76459.5
218500
161974
45017.1
1.12647e+06
1.0905e+06
944568
1.03115e+06
1.05365e+06
1.11621e+06
1.11785e+06
965332
992801
924339
579784
486779
395480
487654
1.00714e+06
217056
695047
559864
971757
625296
149624
135540
4.63823
797.603
0.45935
0.176248
66.7841
16262.1
281025
315380
169926
10413.7
108857
30860.9
45489
975801
795295
497854
1.07734e+06
953399
1.17361e+06
1.18431e+06
49194.3
228792
380227
305944
10670.4
27867.7
169982
962345
536607
428180
1.0722e+06
805021
707343
1.11619e+06
1.07997e+06
890383
1.0144e+06
356133
1.09726e+06
721480
899062
100363
150852
22980.3
514252
766943
272405
543020
134046
7005.36
40053
235202
397744
97123.5
19800.9
768383
1.12389e+06
1.11466e+06
1.1049e+06
939306
729881
378930
1.09702e+06
786911
562079
527619
89668.3
283661
777328
815202
31813.7
372794
441122
911793
519507
80300.6
220632
725307
159516
927178
847051
278687
359943
0.170491
5.30438
357.1
0.0576445
28.7209
0.441881
0.0119008
166973
210839
57951.2
2385.32
8207.58
47307.8
14311.2
3107.12
8912.07
27380.4
271757
387298
71756.9
155823
4632.07
42964.3
105961
207409
4933.33
12428
102120
142701
4866.19
98510.4
3070.3
68791.3
40396.2
1670.23
0.0482651
0.00873796
0.0788316
4.85005
0.0163627
0.0816714
0.00211681
834146
443371
768914
65283.1
280431
205973
38267.6
17461.7
99733.9
425943
553771
63254.4
334391
28909.1
30871.9
204804
429856
988550
145233
476049
709269
74593.5
668820
45678.3
9997.79
462609
206913
2641.39
23854.9
51130
8144.17
967.246
329.055
2082.9
6009.32
65544.5
50546.3
11618.6
2690.16
2017.69
11115.8
463.425
254.376
18130.2
6360.71
2158.61
51513.9
17700.2
723.529
115051
23359.1
12781.1
10371.7
5767.29
1003.07
543.875
837515
737627
386377
226603
41080.1
153526
22549
8699.08
1340.45
12139.5
115.458
35723.7
323.866
3002.49
518140
6850.82
53138.5
322174
665660
123294
17665.3
476997
269578
60950.2
2098.31
232157
45986
15211.3
125.285
744.901
6768.59
29318.2
3168.62
132433
18378.1
1977.81
868.585
79.1441
60129.3
5676.2
2534.65
233.683
0.0105398
0.0044346
0.00807196
67.5082
1.55819
0.17389
4.00833
3429.46
749.406
18056.6
10003.2
73.3765
412.645
1859.39
4751.52
327782
2188.2
20527.9
16939.1
149546
560.116
69.3738
16.1302
419.849
5305.63
48.4726
1241
1820.89
76981.4
1406.44
47300.6
27383.8
1327.04
803.141
44778.9
170030
4749.94
42560.7
150779
594.272
5470.19
22233.9
1382.04
29347.5
788.801
4241.55
199903
137602
7086.24
11306.7
86570.6
6454.25
5096.8
2902.55
393.517
218.022
0.0191067
0.000938481
0.0152907
0.00167555
0.00411713
0.000437224
7.83408e-05
0.000335124
0.000828213
0.0226097
0.00160485
0.0111512
0.0162173
0.00140035
0.00116913
0.000353335
0.00473822
0.00226476
0.000315143
0.00743156
0.000465114
0.000110829
1.11056e-05
0.000571218
8.15984e-05
0.000222516
2.70175e-05
0.000196813
6.75997e-05
5.45215e-06
9.9388e-05
6.18716e-05
2.34881e-05
0.000103779
2.56274e-05
3.6105e-06
8.19418e-07
9.47238e-06
1.59364e-06
8.71523e-06
1.80982e-07
1.49454e-06
1.72808e-06
8.70787e-08
5.87897e-09
1.47673e-07
1.02445e-08
1.16037e-07
2.60559e-05
4.32105e-06
0.000429863
4.70774e-05
0.000119095
1.54218e-05
1.89713e-06
3.27302e-07
2.69229e-05
3.03959e-06
9.065e-06
1.04455e-06
2.2263e-07
2.06637e-08
3.40558e-06
3.73737e-07
6.1623e-07
7.02712e-08
3.98755e-05
3.72584e-06
9.91155e-05
2.16513e-05
2.76341e-06
8.92615e-05
5.65461e-05
1.61013e-05
9.38322e-06
4.31566e-07
2.42176e-05
1.13589e-06
3.17467e-05
5.41404e-06
6.07237e-07
1.37428e-07
5.88919e-06
8.03921e-07
1.28419e-06
6.13509e-08
4.8746e-06
2.88346e-07
6.44344e-07
2.4098e-08
1.74165e-06
4.21278e-08
1.88571e-06
2.06448e-07
5.05825e-08
1.29803e-08
6.54516e-07
1.0604e-07
8.49541e-08
6.31553e-09
5.99364e-07
1.09721e-08
3.62197e-08
1.10595e-09
9.14879e-08
1.92085e-09
1.1106e-07
6.12636e-09
2.79397e-09
1.74623e-10
3.12866e-09
4.11281e-07
1.01863e-09
5.00877e-08
5.55883e-09
1.21174e-07
3.07045e-09
2.61934e-10
5.35997e-06
1.77388e-08
8.15393e-05
7.05077e-06
4.07454e-10
1.30967e-10
9.63337e-09
1.04774e-09
7.42148e-10
2.91038e-11
6.78119e-09
2.04018e-08
3.81988e-08
4.81757e-06
6.86559e-08
1.3315e-07
1.11177e-08
7.82471e-07
2.53203e-09
1.74623e-10
1.04919e-08
8.92032e-09
1.74623e-10
8.44011e-10
1.03668e-07
3.49246e-09
3.40224e-08
1.0035e-07
5.92263e-09
1.62401e-06
1.48255e-07
1.20709e-05
0.000182168
8.96427e-07
4.15866e-06
2.90545e-05
4.64718e-05
1.2659e-06
1.61165e-06
4.45245e-07
1.16212e-07
9.94187e-08
3.78258e-06
5.0712e-07
3.12779e-07
9.73523e-09
4.70754e-08
3.47209e-08
4.56799e-07
0.000737085
0.000332992
0.000104065
0.00438899
0.000481316
3.64775e-05
1.47095e-05
0.000131421
7.69662e-06
2.08223e-07
0.000145883
5.0534e-06
8.70365e-07
1.88305e-05
5.19662e-06
5.63261e-07
0.0347234
0.00419802
0.00556427
0.213173
0.0335261
0.000282702
0.00635843
0.00100829
0.00128731
4128.8
7976.98
924.911
147.388
319.243
1199.14
35.9542
63420.9
104.378
3274.42
16924.3
10093
228917
568.652
356.286
2290.48
2067.77
13.7024
79.8531
508.736
88.771
60.8697
279.84
1591.34
4564.78
31.2829
179.845
800.619
548.661
126.434
1425.88
4.99694
242.98
55.6399
21.6603
247.743
8697.63
5443.48
13179.8
622.373
381.136
21264
1973.58
445.16
1084.06
31.6546
73.8198
40.1398
17.2603
493.735
1085.41
35.2042
42757.7
2962.94
1314.75
96.8812
122.399
367.634
1100.54
4.73796
129.475
14.458
42.8757
7249.44
22.4031
195.26
1033.47
4593.43
38916.4
123.997
10.7308
92.1339
303.492
1793.02
22.1771
64.7826
576.327
11.2882
134.49
14.0637
278.61
3390.75
353.505
28.6538
1948.62
400.153
13665.5
8052.82
30.8011
229.722
1093.36
80.1956
12.9048
21.8929
481.946
2955.06
1768.64
802.4
16.5185
0.76606
4.01816
103.049
76.9675
442.241
17.7836
4.51122
54.2248
100.075
1715.44
930.708
73.7691
39.5374
15.9589
227.264
1090.41
4821.22
126.289
602.764
28.9387
2.64503
154.147
1362.34
333.373
39.2785
10.5999
83.9762
66.0503
10089.5
37.9265
15.9721
1333.51
506.975
2.03643
3.09201
1.43908
37.9678
12.5937
80.8492
9.27161
242.921
0.000533917
0.0137645
0.00322855
0.00916134
0.00117537
0.000161275
0.000427858
39.6623
191.392
1472.46
3886.55
14.0477
105.697
501.849
2.58725
170.374
6.11247
196.091
479.295
17.3783
7.44065
196.978
121.646
65.583
14.0191
7.57974
4.7792
2.58823
0.06064
0.012125
0.000904044
0.00592647
0.000613795
0.00107643
0.0152697
0.00100241
0.00588783
0.0104452
0.00662055
0.164321
0.0527624
0.00212799
9.18501
37.1814
1.30054
85.6212
11.0518
2.93092
0.429845
434.104
9.10074
234.689
1.68282
41.1585
21.9309
0.920107
4.85374
29.2089
269.782
0.235872
1.85225
1.13459
10.1715
23.7627
41.4667
271.947
1.60929
0.179811
0.959713
10.4769
0.422071
7.96585
23.2745
138.248
5.71121
403.751
16.7388
3.70413
1116.34
3.45014
15.9131
29.2691
143.411
0.457938
12.5255
3.34171
0.471716
125.827
59.0097
468.157
15.1268
1.32953
33.7257
3.08853
3.813
99.5102
9.23688
0.41299
1.18251
9.57431
0.458132
84.1806
28.1072
3.26597
1.15902
9.06957e-06
2.43221e-07
1431.72
0.000312252
2.42505e-05
5.81145e-07
1.08412e-08
0.67367
8.16244e-05
2.03731e-06
4.45871e-08
8.00355e-10
0.00025063
5.67659e-06
1.30472e-07
5.45697e-09
2.61934e-09
4.36557e-11
0
0
0.000277057
4.21694e-06
6.5821e-05
1.89377e-06
5.485e-05
7.73987e-07
3.63195e-06
8.37608e-08
0.000288204
8.32431e-06
2.25162e-07
4.97676e-09
2.94633e-07
7.93079e-09
1.16415e-10
7.93079e-09
1.30967e-10
0
0.0193538
1.16415e-10
0
0
0
0
0
0
0
0
3754.03
88.7809
0.115861
0.796893
0.0496915
0.0491151
0.0213256
0.00512808
0.218036
0.0290668
0.0561066
0.00119514
0.00174807
0.396191
0.010339
2544.08
91.4908
137.375
419.791
646.155
23.0325
14.8149
676.401
23.7712
51.058
102.042
3.50127
228.326
7.92317
0.00612484
0.000655047
0.0151363
0.00556611
0.000402924
0.00210905
0.0802378
0.190719
0.00147063
0.0148666
0.00810061
0.000937329
0.0085137
0.103787
9.78921
3.10138
0.422434
55.3659
5.91613
1.95363
0.289615
0.00103098
0.00105557
0.00173726
0.0128851
0.0531061
0.0170706
0.00679779
5.12127
1.48192
12.1875
0.0840886
42.6881
0.20564
1.38164
5.0288
0.625467
1.08309
37.1575
21.1104
111.851
192.47
1.65256
3.26003
0.13888
0.589928
299.654
8.53324
18.1336
0.7499
0.236391
0.480369
48.054
4.3493
1.71461
11.5337
0.0426836
0.523879
0.158125
0.739138
3.00393
19.5405
3.3386
156.067
2.56844
86.5999
0.472048
12.9577
7.07148
0.283527
40.2537
37.9742
22.7642
1.92289
1.15226
0.657722
1.08654
0.00203699
0.00215062
0.0420262
0.000878836
0.0102455
0.000543213
0.000862118
2.22608
37.8489
0.548662
8.76581
0.418891
1.5449
0.0818267
29.4888
2.85621
15.9208
0.32318
1.19925
0.693946
0.220041
22.067
0.572868
2.7048
0.199691
0.772807
0.140838
0.064139
0.000928948
0.000454065
0.00498808
0.0015086
0.00610164
0.000519985
0.000354899
1.21366
0.471263
12.0024
28.4016
2.90987
1.01027
0.176273
4.79842
0.19315
0.0592113
3.17542
0.138467
0.518248
0.0491778
0.00153284
0.000998326
0.018347
0.00514478
0.000673037
0.000420193
0.000548505
0.371348
0.041245
0.115989
0.217356
9.15944
2.10939
0.852266
0.0770921
0.107826
0.748424
0.957255
17.6925
0.129004
1.82779
0.0885412
14.4434
1.1359
1.16072
38.8913
3.11773
0.151602
6.78365
0.222156
0.147283
17.5515
10.5093
0.320166
0.512813
0.357881
0.15003
2.57708
0.181283
0.105083
0.671434
1.83654
0.45084
5.12859
0.550187
0.0468441
0.0249804
0.215411
0.0434075
0.16929
0.0288491
0.0368166
0.420958
5.90186
3.23286
0.758671
0.100168
0.214457
0.211886
4.88265
0.0614154
0.568796
1.61095
0.183652
0.142815
0.0652808
0.62925
5.10621
27.43
3.31066
2.26678
0.154636
0.084642
1.20524
6.65405
0.305979
0.119692
11.1538
0.87752
6.26445
0.0948937
0.339849
0.207451
0.0695596
0.0273991
0.255257
1.06344
0.493029
0.0557756
0.0430108
0.0842411
0.0397998
0.0293625