/*--------------------------------*- C++ -*----------------------------------*\
  =========                 |
  \\      /  F ield         | OpenFOAM: The Open Source CFD Toolbox
   \\    /   O peration     | Website:  https://openfoam.org
    \\  /    A nd           | Version:  9
     \\/     M anipulation  |
\*---------------------------------------------------------------------------*/
FoamFile
{
    format      ascii;
    class       volScalarField;
    location    "0.00065";
    object      rho.c4;
}
// * * * * * * * * * * * * * * * * * * * * * * * * * * * * * * * * * * * * * //

dimensions      [1 -3 0 0 0 0 0];

internalField   nonuniform List<scalar> 
6364
(
4.46489
0.643223
4.49101
0.629157
4.1803
4.1043
0.722961
0.717097
1.55466
1.56167
4.42858
4.27001
1.51946
1.56878
4.25998
0.732786
0.747446
0.631795
0.616535
0.724222
0.619528
0.730412
1.05602
4.46451
1.05138
5.21553
0.819545
1.63416
4.50375
0.700441
0.639627
0.699489
0.628433
0.60325
0.629189
0.738591
1.5636
4.25828
1.04677
1.04876
5.1322
0.821593
4.38007
1.47083
4.0943
1.48638
1.5231
4.13415
1.48393
4.12888
0.68939
0.619082
0.614806
0.696571
0.626331
0.602639
0.624133
0.706866
0.620892
0.609129
0.734442
0.61156
0.714343
0.614023
0.615612
0.63593
0.615113
0.62589
0.612876
0.629683
0.624235
0.60832
0.730453
0.614403
0.733645
0.616278
0.71956
0.618521
0.651892
0.749536
0.624009
0.74291
0.736517
0.634909
0.63944
0.635862
0.623625
0.6282
0.639634
0.626277
0.638814
0.614371
0.634902
0.610747
0.618858
0.607547
0.621282
0.617521
0.60853
0.638696
0.60993
0.627366
0.615211
0.629871
0.623127
0.614098
1.97012
0.972065
1.08846
1.95812
2.07896
1.01694
1.87133
1.96687
1.94969
0.969864
1.08612
1.86602
1.01511
2.07439
3.48495
5.29462
3.57984
5.29428
3.44349
3.4474
5.46994
1.70019
0.850378
0.84982
1.85322
1.71154
0.884504
1.71442
0.59748
0.656592
0.596208
0.717455
0.604793
0.685074
0.596121
0.614619
0.630494
0.630356
0.648603
0.62708
0.624326
0.627048
0.597451
0.596054
0.656576
0.717238
0.595999
0.684898
0.605028
0.624038
0.633393
0.616812
0.633414
0.621261
0.621355
0.635486
0.601304
0.613849
0.614013
0.600172
0.601645
0.63411
0.601674
0.615592
0.61513
0.635924
0.625971
0.624179
0.613004
0.62968
0.618203
0.743779
0.632956
0.744568
0.630424
0.723191
0.629644
1.91876
1.06757
1.89934
0.971197
1.99569
1.83306
1.00794
1.93464
1.07114
0.968811
1.93637
1.85548
2.0229
1.00623
3.38547
5.08964
3.54629
5.19431
3.35983
3.4156
5.26624
1.68052
0.848757
0.850651
1.85102
1.70539
1.71217
0.879756
0.58632
0.704241
0.584627
0.65137
0.592738
0.584014
0.677422
0.604235
0.626858
0.611825
0.614395
0.610776
0.612587
0.609171
0.602426
0.601607
0.617542
0.613663
0.606488
0.601159
0.614659
0.589427
0.708695
0.653714
0.593671
0.592021
0.679202
0.597674
0.612914
0.624337
0.614491
0.629402
0.612401
0.617124
0.624861
0.590421
0.611102
0.612726
0.597368
0.591934
0.597005
0.630739
0.606876
0.623265
0.611273
0.621245
0.609032
0.6127
0.618963
0.617822
0.617667
0.598608
0.611988
0.59162
0.621722
0.608764
0.638625
0.732974
0.750973
0.621906
0.63629
0.727339
0.624946
0.621147
0.598695
0.612297
0.601747
0.612107
0.596146
0.609716
0.625894
0.615361
0.605707
0.609588
0.608669
0.611568
0.617862
7.57036
6.5064
3.05431
2.09891
24.2869
19.8334
52.0466
33.4408
2.2409
2.99005
3.1842
4.54719
4.77001
6.28921
6.02749
2.53646
4.27452
3.59763
6.01028
5.23975
6.90687
7.97222
0.886985
4.99118
0.560605
3.48262
1.40136
0.921545
0.427344
0.424809
0.428776
0.503169
0.491673
0.415498
0.401546
0.448365
0.444095
0.4415
0.419653
0.466417
0.399364
0.386634
0.467065
0.524671
0.973573
0.549029
0.54047
0.676635
1.35639
1.47366
0.645764
0.531271
0.416249
0.421284
0.562989
0.875971
0.981552
0.538967
1.10758
0.577941
0.653012
0.765025
2.19095
1.73716
0.989101
0.647812
0.50602
0.441166
0.63768
1.67847
1.22767
0.844415
1.09393
3.7065
1.81509
2.17857
1.98626
2.35471
0.992723
1.33331
2.97374
4.19048
3.3544
2.35741
2.74101
1.77319
4.36692
6.80716
4.60349
8.81145
12.8604
13.3243
8.48031
9.451
20.3968
9.7993
12.8019
25.2866
25.8907
12.398
5.13105
8.93576
6.01721
9.69893
17.4817
14.7298
11.3362
12.0001
21.8393
10.6204
13.9072
30.9513
27.6921
15.9234
2.21873
1.55791
1.4298
12.2591
1.19483
14.2791
20.032
16.3484
1.15565
1.08805
1.11478
2.38718
2.47413
2.7102
2.59644
1.2954
1.27739
1.17691
2.9778
2.65789
2.93356
3.30947
1.64991
1.3451
1.28796
3.10755
3.57183
3.75514
2.96322
1.84891
1.69735
1.46475
3.38815
4.73494
4.12397
3.86036
5.4001
12.618
5.57999
6.01344
12.8323
5.78425
13.2919
6.53477
13.1984
5.92787
6.44292
15.4367
14.097
7.15344
6.76018
7.62945
14.1455
16.8893
7.93999
6.4911
14.656
7.28512
9.66186
17.2673
18.0875
8.594
15.6578
8.14442
0.450026
0.753498
0.440374
0.961533
0.566531
0.539865
0.66851
0.725543
0.570727
0.515616
0.507166
0.49053
0.560725
0.556214
0.498387
0.550934
0.560209
0.46664
0.479202
0.493658
0.47828
0.549235
0.456203
0.534391
0.528884
0.473137
0.548426
0.543743
0.479687
0.659855
0.648671
0.652447
0.513485
0.510501
0.509042
0.508942
0.431112
0.500826
0.51861
0.526627
0.452565
0.462738
0.536344
0.693959
0.688048
0.664859
0.516801
0.51346
0.508891
0.511029
0.777253
0.70222
0.688851
0.517814
0.516077
0.511719
0.510816
0.834139
0.791603
0.7312
0.525193
0.548362
0.523568
0.515004
4.10993
0.698683
4.05196
0.604495
4.02144
4.0809
0.70287
0.707238
0.704572
0.604021
0.7059
0.603113
0.703547
0.703072
0.610165
1.46967
3.97615
1.48763
1.44383
3.94829
1.43894
3.99323
0.724722
0.607716
0.603387
0.707811
0.593678
0.698548
0.610611
0.714065
0.712692
0.616001
0.621066
0.617494
0.710253
0.616729
0.629115
0.728438
0.61224
0.737631
0.623615
0.721325
0.620011
0.610229
0.614562
0.606812
0.593749
0.586313
0.600661
0.616056
0.614597
0.593888
0.607212
0.59667
0.595424
0.607544
0.602652
0.607572
0.586418
0.593635
0.584417
0.594984
0.58106
0.59776
0.699154
0.593301
0.600193
0.696485
0.60452
0.702875
0.610524
1.45434
4.082
1.45964
4.04095
1.45789
1.44803
4.0355
4.03596
1.45185
1.45112
1.44295
3.98023
1.43997
4.0128
4.07928
1.46637
1.45649
4.09177
1.45598
1.44792
4.05031
4.16122
0.555266
0.698397
4.10015
0.708623
2.02984
0.607955
1.76186
0.538003
0.568408
0.55082
0.512593
0.523247
0.479112
0.602986
0.472171
0.714379
0.604026
0.606267
0.702617
0.610321
0.711689
0.604302
0.573372
0.557648
0.563347
0.544329
0.567284
0.559561
0.553301
0.701821
0.59779
0.601143
0.668206
0.569409
0.688252
0.59356
0.562338
0.542028
0.550027
0.525692
0.510324
0.532081
0.547585
4.09374
1.46849
1.4701
1.49364
4.20462
1.49496
4.21294
0.555919
0.547015
0.541023
0.533775
0.514545
0.541739
0.502002
0.535787
0.728235
0.720277
0.67221
0.5721
0.678043
0.55236
0.47816
0.48062
0.481164
0.491866
0.529798
0.510355
0.509372
4.12103
1.48139
1.47188
4.3171
1.51648
1.49854
4.24662
0.533974
0.543372
0.530193
0.491551
0.424353
0.520384
0.474733
0.550377
0.868334
0.761892
0.690828
0.509107
0.67195
0.525114
4.92052
4.89635
1.7386
1.56371
4.45258
1.55905
4.46751
0.487392
0.523731
0.489529
0.458707
0.452702
0.469062
0.48254
0.465897
0.477424
0.475887
0.471019
0.428487
0.486981
0.417422
1.83669
5.1834
5.00388
4.63725
1.651
1.58595
4.5188
0.503033
0.539989
0.490359
0.446725
0.438249
0.449854
0.412511
0.560319
0.578207
0.556975
0.539924
0.611068
0.584037
0.590157
0.566008
0.577832
0.574255
0.570498
0.581965
0.564313
0.584068
0.582451
0.606742
0.601469
0.605185
0.59183
0.595119
0.593889
0.590853
0.59523
0.600835
0.573542
0.587885
0.597057
0.585074
0.591075
0.592063
0.582658
0.58505
0.580686
0.576999
0.582905
0.574021
0.605821
0.610426
0.613515
0.594607
0.60487
0.57173
0.618158
0.625376
0.61002
0.607906
0.599946
0.610005
0.609337
0.613561
0.602181
0.605922
0.603392
0.586676
0.603063
0.56485
0.610387
0.606816
0.588919
0.583485
0.580885
0.598537
0.598262
0.565666
0.568426
0.547299
0.556039
0.570247
0.55656
0.569046
0.57957
0.57797
0.586449
0.561229
0.571187
0.578661
0.57558
0.569132
0.561733
0.557789
0.553507
0.567832
0.567077
0.572518
0.563193
0.54406
0.550922
0.547294
0.552439
0.550294
0.561292
0.55758
17.4991
26.5469
44.0105
18.0304
44.5962
27.3241
34.073
19.6922
35.1303
40.6832
47.1013
29.9405
36.3285
22.9241
18.6709
3.1458
65.0261
105.664
71.1805
0.787725
107.41
43.4329
72.3587
26.2347
38.0507
34.1061
48.3195
51.6325
59.0923
71.8885
31.4697
90.5648
115.342
0.000359713
1.67114
1.36358
24.6878
40.3713
87.0553
88.787
69.0513
69.8588
85.5984
99.0957
59.6355
81.6793
70.7329
81.5683
72.2144
83.004
92.047
57.7141
83.4591
72.0623
81.9176
72.771
83.7665
92.5723
105.266
101.499
103.099
114.061
113.037
111.116
120.911
97.3805
93.6663
83.8333
95.2199
91.771
107.214
103.17
99.569
95.5345
86.2377
95.9334
114.49
103.895
107.919
2.63978
39.5473
39.8304
11.1972
41.9959
25.0563
5.50485
29.533
25.2995
41.9828
1.42124
177.747
89.7728
40.5743
10.3643
3.45844
21.0758
69.7233
3.82237
17.9532
4.74867
1.04886
5.18283
1.9399
0.485349
8.72321
8.27369
5.35886
38.2432
43.2867
22.2301
18.4852
6.21944
2.40289
4.57368
38.2318
44.9259
16.3493
20.6294
0.383353
0.426743
0.448189
0.621984
0.588395
0.679255
1.11652
37.798
26.8804
26.6151
59.8641
57.7709
58.5938
57.9774
27.3984
59.1564
62.5099
33.9962
29.8995
58.4952
57.7985
5.82548
33.3713
7.27671
98.3965
46.2246
12.3188
56.6123
8.22501
40.475
106.365
31.3244
6.9705
2.01765
7.41677
36.0694
8.92081
5.25668
34.8351
27.9768
94.9229
59.3664
0.678644
2.23399
1.15948
2.38664
1.30902
2.05337
3.35886
0.570543
1.91623
1.06379
1.93791
1.04666
1.90705
3.00319
0.849906
2.72861
1.33704
2.90912
1.46523
2.20543
3.87012
4.37038
3.03913
3.9391
5.55588
7.2772
8.62677
6.86249
3.18594
2.34816
3.07249
4.64001
4.46945
5.55347
5.81816
23.0655
50.7901
60.6093
93.4152
9.88395
30.099
21.6641
61.9761
51.9234
31.9654
28.5813
58.3602
35.9463
69.3929
4.73224
49.1597
7.27121
91.7181
56.0704
28.1733
66.5672
65.412
9.25041
48.0934
36.9569
58.7374
39.3934
69.8794
101.917
31.2515
51.9783
12.426
11.7212
52.8743
61.6089
48.3653
9.1444
10.7533
97.5237
56.1532
53.6365
59.2945
2.6756
3.4329
4.29462
6.01073
4.91636
6.02401
7.28831
6.48409
7.91634
5.71174
10.2951
8.55183
9.6179
11.0434
3.88435
3.70355
4.36416
5.10432
5.79535
6.07531
8.08433
6.21714
4.22451
2.46197
3.39901
8.12992
4.98148
5.4378
3.32594
3.17194
2.00523
3.08485
6.39177
4.58841
4.36408
3.23097
3.77528
2.13806
3.20853
7.04566
4.47766
5.13608
7.23452
6.76653
5.28965
10.7156
12.326
14.0172
8.91527
4.41341
4.19454
5.87654
7.29666
10.8221
10.2639
7.68259
3.11531
3.18185
3.36312
4.38413
4.65667
4.7835
6.4573
3.85526
4.95312
7.18512
6.65548
8.98948
9.64979
12.347
6.3868
8.23331
10.5858
9.62408
12.2149
16.2968
19.0758
9.28227
9.0423
7.6338
11.3557
14.7337
14.0123
12.4483
9.81785
21.0092
11.9622
14.2133
23.0143
25.3583
12.1365
5.5494
7.46821
6.26752
7.79915
13.0637
10.8407
9.38629
8.51579
15.7994
8.17284
10.1659
20.4567
19.7745
10.6314
5.72538
6.83128
7.97446
8.2398
9.69888
11.9425
14.7446
25.5549
25.5669
26.2028
37.4425
37.782
37.9751
37.4562
25.7276
25.5293
25.6184
38.0291
38.6406
38.198
38.0096
14.5721
21.0177
13.0851
14.7863
24.9132
24.2759
15.9569
37.505
25.2742
25.3148
25.5047
25.3079
38.3134
37.7882
38.3575
37.6358
25.7239
26.4433
25.5099
37.6059
38.0588
25.7288
26.3667
25.5965
37.7449
38.1616
37.8012
38.0268
115.752
59.8782
11.6641
4.20864
102.533
110.132
88.9842
103.79
10.3601
114.539
62.6483
13.6166
51.998
107.334
10.6921
16.9396
8.80335
10.8605
25.4442
21.0621
13.1641
26.161
28.8308
27.2151
38.7268
38.0016
38.6781
39.8595
5.09758
10.4495
6.93428
12.4684
8.06144
11.7362
19.0192
4.6563
9.91331
6.2561
11.4617
6.99902
9.97149
17.2663
4.64146
10.7618
6.35893
11.8237
6.87262
10.0909
18.3038
7.37213
15.0357
9.50873
22.1922
14.0147
18.5058
30.461
14.5392
106.231
42.9985
114.198
0.830043
102.642
69.4594
4.57976
11.4565
9.928
10.6524
6.71534
6.31385
7.26593
9.86787
13.3654
7.68947
17.0501
9.53465
13.0949
24.4149
7.07636
17.5369
9.55954
18.8385
10.1794
14.2383
27.3447
5.17667
12.0841
7.08884
12.6949
7.37043
10.6409
19.4708
6.48717
12.8085
8.80756
17.2556
11.954
16.9936
25.6891
7.74005
15.8091
11.9324
19.3463
14.8818
23.8322
32.1322
10.4065
16.3988
16.9168
18.6387
19.6169
30.0805
30.9412
8.63802
14.8037
13.9899
16.6836
15.8206
26.8103
28.1471
17.9767
22.9336
45.5032
30.625
24.3502
32.7643
16.0493
13.5494
20.398
36.834
27.2479
19.5151
26.3607
14.1768
27.1915
30.4968
27.8517
39.0781
40.7206
41.2011
38.5303
28.9438
39.9791
28.4264
31.4563
39.5603
42.1856
42.61
28.3051
31.6223
31.3576
39.6051
39.4577
42.095
42.2282
9.79827
14.7787
10.5981
18.0317
12.6839
19.6705
28.4709
11.6875
15.6517
15.5747
18.3416
18.2485
25.6023
24.2576
9.05982
17.3296
14.5309
20.0586
16.5789
28.018
33.9229
31.2027
32.6798
34.601
40.3625
41.8152
43.1244
44.9176
11.172
25.9826
13.6255
39.5573
20.8217
25.9439
47.6607
73.9651
77.9812
100.833
3.16223
100.065
83.2981
1.52273
17.7064
22.604
40.007
29.8368
22.5417
30.0819
18.4684
14.3721
25.1367
38.5322
33.2969
20.6197
27.874
17.4567
30.9647
31.8575
29.0943
40.0946
44.3881
42.4073
41.6533
14.1489
33.7125
17.677
35.9886
19.2124
24.7435
43.7026
2.68803
5.01123
2.83336
1.51476
16.0827
44.6811
22.8576
29.6695
1.94534
1.72862
3.49255
2.29022
3.91943
4.3061
4.86709
2.14291
3.75682
2.87349
5.65165
4.61684
5.72508
7.00671
3.83359
4.48638
3.18143
7.39648
5.52667
6.251
8.43316
7.49846
17.5072
8.2651
18.8685
8.98177
9.95718
20.6267
3.95346
6.81479
5.44445
7.38067
12.7262
9.11857
10.0856
11.2529
19.6498
9.4576
11.4286
27.2224
13.7392
23.2075
15.0533
23.143
11.2824
12.5728
32.6757
16.9938
25.3945
14.6102
25.5623
34.1792
37.3929
17.9744
20.1892
28.8092
13.2169
28.0129
15.7186
44.887
27.0196
32.1568
51.7975
24.8284
38.9536
42.9569
49.8615
33.019
37.9649
54.4059
14.6232
34.3166
18.1362
41.2016
22.8239
28.5219
48.1598
17.6203
20.5812
21.4383
33.8482
32.5181
40.1033
63.0348
20.6096
20.7801
11.3457
17.8572
65.0571
34.2511
34.4749
19.9947
17.4606
10.9871
19.8572
63.5062
33.5067
38.2396
23.5014
27.3574
14.1961
21.9482
67.5432
43.2733
37.1696
21.746
20.6813
11.7762
17.8283
63.652
32.7022
34.4334
16.5013
17.471
9.65617
16.6225
58.9295
30.1971
31.5997
22.0973
20.4701
13.2641
26.6147
67.5749
45.2295
42.0449
33.5671
41.2994
37.3038
47.2383
43.9868
47.5611
51.6074
26.131
46.2088
24.8047
47.8846
76.3054
72.4476
50.1138
27.3759
20.717
22.8968
36.8468
42.5554
46.6992
68.3616
22.6875
24.0203
28.094
38.2159
44.8113
47.326
69.2102
36.2286
41.5582
35.76
46.1368
52.2521
51.8802
46.5244
32.42
33.0838
17.0044
24.5998
71.0685
47.7668
46.7854
23.8713
42.6825
54.964
34.3231
67.6304
54.5652
49.8682
36.5999
27.7637
20.0588
40.7662
73.5144
53.9171
61.5668
38.7523
49.0238
57.3944
45.6637
70.7375
56.6403
61.2106
41.7721
41.5444
35.7028
46.0819
51.9832
46.2057
51.8498
34.5887
25.8402
17.9737
34.9892
73.1421
49.9599
59.2157
35.1221
43.5714
24.2957
38.2315
68.9588
52.818
57.6454
35.5051
21.1
22.4668
39.356
56.1062
65.6967
34.9645
46.025
28.4178
26.8411
49.9293
88.2889
86.6328
54.547
29.4406
57.1793
30.9219
46.1445
79.5475
87.2243
41.5924
35.6664
67.1597
35.8282
56.7837
79.2776
97.2666
58.4456
32.0725
51.529
30.7718
50.1108
67.9881
65.7843
52.4032
43.2563
47.2528
28.3079
37.2069
69.4608
54.9213
56.2291
37.138
43.2013
46.1581
53.3556
47.2901
49.5781
56.3972
47.8357
30.7177
25.6623
49.7427
79.6147
73.4349
57.9835
39.1814
53.0677
32.4316
51.9051
73.3217
67.278
59.4486
48.8213
60.7532
49.5708
48.8718
59.3634
48.5678
59.8125
48.0298
47.9192
58.3116
57.9015
47.9914
47.9035
58.486
59.3175
48.4251
47.9354
60.3236
49.1886
48.4121
59.2969
58.0377
48.0974
47.7576
47.8711
57.9243
47.9242
58.304
47.8971
58.4755
48.068
47.87
57.5848
47.4728
57.8318
0.722913
0.57816
3.69626
0.467555
1.13428
0.513511
2.63525
1.82511
0.494981
0.462628
0.484819
0.503616
0.500759
0.533596
0.535772
0.420219
0.454305
0.444283
0.463267
0.500569
0.547913
0.611871
0.581455
0.490916
0.487558
0.642469
0.995232
0.982363
0.646287
1.62541
1.13152
1.59667
0.642386
0.641054
0.785658
0.789171
0.605713
0.491109
0.515919
0.691041
1.5249
1.12073
0.887933
0.84403
1.31263
1.83055
2.41814
0.681728
0.880073
1.20205
2.45178
2.35689
3.49798
1.19513
2.05405
1.97749
1.21201
3.32985
4.59331
3.80296
1.37847
2.79411
2.21114
1.8579
5.10876
0.438282
4.69064
0.599556
0.776724
4.54177
0.647824
4.1526
4.51433
0.716493
0.731177
0.61561
0.568584
0.583794
0.595053
0.57679
0.575281
0.551077
0.742795
0.647302
0.752478
0.631357
0.733948
0.634559
0.761059
0.622632
0.727643
0.62099
0.618858
0.717776
0.721695
0.624026
0.594341
0.610835
0.604708
0.605189
0.603319
0.601757
0.596403
0.586155
0.586309
0.596571
0.587117
0.594414
0.575517
0.594739
1.57253
4.62582
1.59585
1.54974
4.34419
1.52813
4.4453
1.47589
1.51085
4.19963
4.21812
1.49063
1.49145
4.29379
0.577444
0.585604
0.591686
0.584793
0.583041
0.590377
0.577542
0.569927
0.577712
0.577335
0.563293
0.568227
0.58407
0.571431
4.79611
0.694138
0.730668
7.17642
1.19724
6.64396
1.18341
0.527643
0.489729
0.563788
0.945136
1.48694
0.918937
1.45939
0.770532
0.751555
0.6473
0.656762
0.653045
0.75537
0.640104
0.713799
0.621822
0.634161
0.736523
0.621634
0.723097
0.628723
0.58944
0.562199
0.576303
0.582827
0.583415
0.592471
0.572185
0.585743
0.585851
0.594185
0.603568
0.609109
0.591479
0.601937
1.62314
4.82261
1.65429
4.66637
1.60812
1.57704
4.52948
1.56495
4.42187
1.53991
1.53534
4.28352
1.51044
4.3772
0.528947
0.571975
0.537894
0.569299
0.584228
0.583507
0.570472
0.564118
0.515236
0.531679
0.575865
0.553708
0.565949
0.564075
0.68535
0.565427
0.59328
0.747324
0.559287
0.560437
0.756895
0.712217
0.608162
0.602686
0.759285
0.585911
0.570143
0.791344
0.54327
0.531478
0.554495
0.508418
0.523265
0.513701
0.516166
0.553136
0.511884
0.53451
0.499438
0.49754
0.502629
0.495483
1.73645
4.9478
1.68263
1.88007
5.61087
1.95481
5.42416
0.51714
0.447233
0.505106
0.501638
0.496214
0.488032
0.507266
1.64279
4.71449
1.62673
1.84423
5.20733
5.27335
1.85505
0.510192
0.428357
0.442526
0.494681
0.48586
0.483479
0.491696
0.991989
0.725986
1.97345
1.07042
0.686573
1.06254
1.77822
0.985541
0.700482
1.06164
1.99145
0.676372
1.04266
1.78684
0.590935
0.619271
0.953895
0.858784
0.591037
0.616791
0.866278
0.581087
0.593237
0.848515
0.920492
0.580514
0.592952
0.854033
2.33317
5.87322
6.72581
3.48142
5.93851
2.40682
3.35167
0.604528
0.723334
1.08009
1.3077
0.672118
0.633873
0.959339
0.596442
0.708994
1.29816
1.04744
0.666431
0.614488
0.94778
2.36181
6.33199
3.59677
6.91441
2.49436
6.10644
3.38541
1.74603
0.705513
0.468153
0.537422
4.23221
0.685855
4.12687
4.40513
0.699483
0.574466
0.547675
0.467528
0.525893
0.573513
0.535224
0.555456
0.502787
0.709666
0.608018
0.618626
0.70367
0.611231
0.708391
0.600245
0.586996
0.55942
0.574484
0.553349
0.578
0.566289
0.564535
1.464
4.13195
1.46663
1.48119
4.18456
1.48127
4.16883
0.566591
0.552852
0.562285
0.550379
0.554516
0.559641
0.545004
0.702358
0.592955
0.59605
0.699214
0.593005
0.704288
0.59942
0.556389
0.533156
0.544665
0.560472
0.547446
0.547757
0.559299
2.27892
5.71627
7.97565
0.520209
3.14633
4.71079
6.8232
0.6055
0.703662
0.69432
0.614661
0.675464
0.711054
0.606795
0.561076
0.521784
0.545979
0.551176
0.574038
0.563702
0.561634
4.14498
1.49291
1.47897
4.12908
1.47015
1.48545
4.17283
1.50187
4.42552
4.25044
1.53581
1.5477
1.50136
4.24828
0.481051
0.524635
0.540254
0.546108
0.543224
0.544107
0.5286
0.431812
0.484901
0.534747
0.544533
0.53968
0.556088
0.519133
0.470884
0.47604
0.467958
0.487211
0.476664
0.533594
0.547155
0.747168
0.517308
0.6619
0.526369
0.681687
0.679634
0.590788
0.533266
0.690291
0.711379
0.569852
0.795223
0.916028
0.629507
4.73275
4.40588
1.55007
1.50708
4.51983
1.59459
4.2876
0.466323
0.448923
0.411976
0.400035
0.455014
0.522918
0.471508
4.76595
1.64189
1.7023
5.21938
1.92641
2.1206
5.31368
1.06441
0.563413
0.796214
1.25744
1.31243
2.03634
0.800484
2.42475
1.5054
2.11931
0.783591
1.21474
1.65611
1.01167
5.26047
4.93883
1.87109
2.53983
5.90001
3.23947
5.53813
4.42301
6.66711
3.81037
5.88686
2.60632
2.9976
5.98173
4.46079
4.25258
3.06838
2.45621
2.58952
3.60339
1.60336
6.50147
7.22677
5.30934
3.67002
6.68609
4.63129
6.23042
11.6325
20.7462
4.1664
6.3578
2.92706
2.73661
0.674025
25.7758
4.47539
1.17323
5.59718
0.457271
0.674329
0.520606
0.883033
0.912347
1.29901
1.74571
67.8051
37.1101
9.79923
4.78442
20.6842
67.852
36.9615
9.96739
13.0278
63.7325
18.7021
4.12166
25.0165
63.9391
0.691667
2.08724
1.34542
2.26697
1.44868
2.45487
3.42979
1.42856
3.52201
1.85782
4.48165
2.50464
3.11553
5.28865
1.40109
3.44405
1.91574
4.15658
2.45576
3.0923
5.00573
6.08747
7.11559
3.85639
5.73893
6.69568
10.0553
10.6044
5.92361
3.77259
2.69905
4.00395
8.35386
5.23424
6.29376
3.47199
4.38744
2.54274
3.96086
8.47882
5.12413
6.53895
3.84339
6.04551
5.72954
7.03772
6.67545
10.0408
10.5234
7.52054
5.03883
4.79375
9.45143
7.20967
14.5001
14.9774
4.99863
7.48069
9.72501
9.43559
7.20467
14.4933
14.9043
7.05392
6.59176
4.0893
4.87318
14.0097
8.35526
7.89415
6.08796
18.2056
13.6838
14.044
7.99271
10.4648
10.0297
37.6689
76.0896
72.8883
36.5417
75.5464
81.2108
6.4094
18.7721
18.0052
9.49448
17.5932
35.5251
18.4351
34.2638
25.3228
24.1713
12.3345
19.2616
37.6203
20.2282
36.5057
18.0105
9.92116
9.4914
17.5853
35.4108
18.3314
34.2716
12.8604
24.0993
12.2954
19.2306
37.4783
36.5026
20.0559
11.9955
20.0085
11.5574
23.8552
41.394
40.4607
24.6121
20.2307
36.5361
19.666
29.8872
47.7336
47.3245
30.6529
20.0193
11.9551
11.5609
23.8606
41.355
24.5304
40.4978
20.0717
36.5242
19.6298
29.8783
47.7165
30.5295
47.3814
2.28797
1.22548
12.2226
1.06178
12.32
13.8724
13.6549
1.24874
1.07211
7.81491
2.92495
5.89809
6.8821
1.40653
18.1664
15.2807
1.43193
28.3582
28.1087
1.07949
1.05819
1.06984
2.31662
2.29193
2.35639
2.26746
10.4269
2.39019
4.03263
2.29512
0.58884
2.31976
0.445586
1.0949
1.05685
1.07199
2.32415
2.32446
2.26737
2.3982
1.19772
1.12733
1.1103
2.4483
2.78847
2.50749
2.70545
1.20468
1.14712
1.11505
2.46214
2.84512
2.72309
2.55867
3.75345
19.0902
3.784
22.0383
8.40565
21.1133
16.0321
2.27495
1.94987
15.1698
7.49499
1.97667
14.1276
18.1623
0.439501
0.600819
0.43788
0.580045
0.563838
0.964122
1.0616
0.440819
0.606985
0.582751
0.596444
0.567101
0.966024
1.06867
1.3602
1.76246
1.68182
3.24801
3.13581
3.82894
3.97811
1.36874
1.78846
1.69098
3.30531
3.15512
3.848
4.03477
5.3405
5.26717
12.3909
12.4379
5.38952
12.4356
5.27155
5.32654
12.2837
12.4328
5.32744
12.3169
5.24402
5.44748
0.734879
0.481976
0.506781
1.62307
0.410585
1.61059
0.549342
0.520298
0.560348
0.547121
0.56146
0.549965
0.486571
0.467091
0.462895
0.476054
0.556895
0.53623
0.545385
0.483864
0.464026
0.455973
0.527956
0.718908
0.525808
0.537775
0.830601
0.541348
0.803453
0.41771
0.429077
0.516065
0.449507
0.478994
0.474605
0.447733
0.425528
0.497169
0.511711
0.4463
0.472966
0.471724
0.441147
0.723053
0.714612
0.522796
0.534324
0.818457
0.798721
0.533388
0.575798
1.06523
0.737242
1.50582
0.704261
0.586514
1.00809
0.572301
1.50223
0.730183
1.05353
0.701265
1.00358
0.578804
12.8883
6.29814
5.74591
5.57289
13.5007
6.07636
12.6366
5.55937
6.18562
12.7885
13.4368
5.65795
6.04362
12.6566
2.51669
2.25555
3.46835
6.08847
4.76038
6.45959
4.3782
1.92998
1.73165
1.73502
3.50255
3.91403
3.57006
3.80793
2.53107
6.56073
4.81234
2.26698
3.48345
6.10743
4.39526
1.98569
3.98966
3.90648
1.74182
1.75348
3.53349
3.59415
1.10505
2.5555
1.1996
1.98581
4.00721
2.14411
3.8009
2.57358
2.15821
1.20683
2.39487
1.10695
1.98921
3.80587
1.11423
2.09182
0.998509
1.90058
3.63313
2.07217
3.39879
3.65878
2.08719
1.12609
2.09991
1.00233
1.90464
3.40547
3.26853
2.41271
3.44487
4.91565
6.81418
5.10068
6.58845
5.27059
7.8754
5.08263
7.76094
10.0264
7.98223
10.022
2.67451
2.21746
2.01351
3.9428
5.26412
4.24522
4.9459
5.16073
3.47804
2.44049
2.29723
3.27816
4.93464
6.60735
15.555
8.55213
7.18333
15.1066
6.92137
8.24847
17.6657
7.05893
15.0105
6.87976
8.20352
17.8778
8.41952
17.5672
5.44122
8.2502
10.6903
8.08115
5.12018
7.81848
10.2428
2.97653
4.34621
5.35407
2.69147
2.03275
3.97483
4.97319
10.9035
8.64211
16.3022
10.2395
15.1887
17.9707
7.9984
10.2329
8.51459
15.1694
18.7318
17.9757
10.7205
7.9795
7.25328
14.4874
14.0619
6.6802
13.4316
13.0575
6.88307
6.62887
7.32073
13.3534
13.6875
12.9633
6.83953
7.06831
0.578791
0.654037
0.496968
0.689779
0.573178
0.559339
0.522894
0.513923
0.528056
0.52801
0.578039
0.577051
0.578756
0.532724
0.522259
0.576011
0.526378
0.51911
0.526325
0.575641
0.576861
0.530968
0.569298
0.517799
0.575363
0.56994
0.576179
0.50239
0.51181
0.567769
0.491521
0.507179
0.515747
0.566024
0.573383
0.499858
0.524754
0.524727
0.656845
0.654207
0.529554
0.65403
0.521715
0.649959
0.518547
0.650505
0.524525
0.654277
0.529338
0.653082
0.520575
0.519363
0.665692
0.679359
0.520012
0.659455
0.518038
0.51267
0.656939
0.679256
0.517919
0.675919
0.517659
0.657171
0.593895
3.94354
1.27388
1.859
0.397629
0.802951
0.43712
0.528434
0.540167
0.454146
0.465077
0.523548
0.503464
0.446476
0.438047
0.453805
0.38378
0.509945
0.437778
0.455003
0.441803
0.47835
0.488822
0.410358
0.470342
0.424364
0.443469
0.454298
0.544973
0.748123
0.527675
0.521527
0.871211
0.539434
0.561101
0.993673
0.456427
0.428604
0.388825
0.49467
1.13218
0.697534
0.627707
0.934951
0.620601
0.546661
0.62899
1.88188
1.2972
0.821157
0.818403
1.18316
0.606368
0.679281
2.30052
1.04302
1.47242
0.873993
2.24171
2.75918
3.0039
1.51173
1.9925
1.35295
10.4616
6.36075
3.63085
3.40552
10.0229
6.04558
5.58058
10.3023
14.028
21.9079
27.7023
10.5555
13.7131
21.5542
3.40119
10.0262
6.32794
5.86524
3.60968
6.04172
5.57553
22.1923
14.1854
10.6992
10.3476
27.7663
13.7572
21.6415
20.0619
12.616
14.7569
12.0096
21.0614
19.1134
14.121
11.9383
14.015
20.8714
19.4977
19.0513
12.2293
13.9131
18.5205
7.87454
9.57529
7.31456
17.5092
14.196
8.995
7.26146
9.39686
17.4179
14.7935
14.0979
7.68636
8.9474
44.6091
57.9733
58.2837
67.6721
58.0066
57.7125
45.2619
44.6615
67.7418
58.0733
58.314
45.2543
58.0784
57.8142
34.2597
54.4215
52.3907
63.6435
35.5653
51.9576
53.9116
34.2534
63.8002
54.5564
52.5329
52.0936
35.4121
54.0351
36.5201
57.4545
56.2078
57.1426
55.757
67.0326
67.0696
37.5929
57.5925
56.3451
57.257
55.8749
67.1581
67.2406
0.619053
0.628782
0.593095
0.590116
0.621496
0.601479
0.599213
0.58535
0.612861
0.631322
0.612747
0.614318
0.619178
0.606316
0.617362
0.623067
0.63993
0.623107
0.628812
0.628753
0.615661
0.577448
0.611812
0.611902
0.594334
0.598107
0.600024
0.593035
0.605928
0.600416
0.59909
0.593386
0.588474
0.595848
0.592011
0.602824
0.617302
0.567069
0.617097
0.620942
0.626334
0.624977
0.613287
0.612892
0.597465
0.604658
0.610635
0.610458
0.615518
0.600147
0.606881
0.588518
0.589626
0.610002
0.595521
0.598011
0.590854
0.592593
0.578018
0.584466
0.596542
0.583908
0.590782
0.588773
0.622327
0.634461
0.624868
0.62531
0.620212
0.629019
0.629541
0.613267
0.614717
0.638439
0.617085
0.622122
0.61135
0.623735
0.615565
0.614451
0.597408
0.613454
0.622286
0.576728
0.61385
0.624769
0.618298
0.628817
0.630911
0.593008
0.625376
0.632966
0.625754
0.605082
0.605822
0.598847
0.618077
0.612351
0.58631
0.641686
0.618162
0.626427
0.614507
0.628288
0.627422
0.621075
0.611121
0.613712
0.614836
0.637959
0.619604
0.621581
0.609684
0.622107
0.631548
0.631532
0.653276
0.634332
0.624625
0.634354
0.611129
0.613763
0.614895
0.637947
0.609729
0.621581
0.619602
0.62794
0.632533
0.632511
0.624948
0.62745
0.633123
0.627428
0.622301
0.624821
0.634433
0.625316
0.629467
0.629006
0.620187
0.610363
0.618345
0.618374
0.611833
0.611943
0.619339
0.611946
0.613095
0.60652
0.614628
0.606483
0.618108
0.615247
0.618071
0.59965
0.610798
0.591875
0.614194
0.615923
0.570409
0.605958
0.59961
0.592007
0.61086
0.61416
0.606076
0.6159
0.570428
0.606835
0.583823
0.593322
0.583767
0.564064
0.601322
0.601229
0.622893
0.604925
0.604922
0.601181
0.613543
0.608848
0.613449
0.6122
0.619072
0.615312
0.615375
0.617171
0.616081
0.612248
0.606472
0.602638
0.59766
0.59905
0.608626
0.610027
0.609592
0.60456
0.607093
0.629659
0.610838
0.611063
0.604611
0.61603
0.606338
0.632201
0.611772
0.613935
0.608466
0.61385
0.617734
0.621485
0.625315
0.629473
0.622447
0.625264
0.621576
0.625116
0.615262
0.62374
0.622042
0.621678
0.619417
0.617984
0.621317
0.607337
0.615537
0.617169
0.60964
0.608702
0.610864
0.616996
0.611276
0.598818
0.615385
0.614984
0.575397
0.612144
0.621
0.609061
0.60739
0.612325
0.593679
0.611148
0.615229
0.570616
0.615889
0.595192
0.603046
0.593502
0.609109
0.609128
0.576059
0.632428
0.616612
0.615807
0.611254
0.618353
0.618808
0.619317
0.596715
0.607378
0.587395
0.607554
0.565368
0.603638
0.611169
0.597834
0.60957
0.61017
0.589706
0.604943
0.612678
0.567183
0.604871
0.582563
0.590533
0.581974
0.599404
0.599432
0.562929
0.620554
0.603106
0.604444
0.598994
0.611622
0.612043
0.607363
29.4802
47.5168
19.3296
25.1698
27.2169
9.20846
7.60812
5.65173
1.15911
8.29655
3.0118
5.47546
6.39078
29.0453
5.53493
4.89399
1.33081
0.870774
1.79595
2.13755
2.98558
2.28824
3.20106
4.72139
3.71504
0.881838
1.68111
1.63153
1.80707
1.74809
2.91658
3.09526
5.72585
6.31743
4.07808
6.4211
4.2564
5.4966
7.17312
0.982982
2.32916
1.81685
2.48107
1.95038
3.14411
3.76379
50.8146
8.80726
10.2754
114.233
171.913
33.3884
53.7264
54.9223
8.9194
7.86898
93.5422
95.93
49.8978
57.1415
6.3614
3.97602
5.08286
6.9628
9.37388
5.89377
10.3916
3.65237
6.59096
4.58017
6.62752
8.73062
9.44584
5.67566
5.15237
3.30183
3.1224
4.77064
8.29348
5.08381
7.81825
4.5863
3.03489
2.85932
4.59414
7.80256
7.33998
4.90527
8.08035
7.43067
5.84723
7.39627
11.0797
10.326
8.59358
7.02606
7.09649
5.36903
7.0609
10.1109
9.32056
8.31293
5.4455
4.05906
3.37784
5.00126
9.57341
5.80744
8.15434
4.78671
3.6701
3.079
4.79665
8.77904
7.57389
5.55048
7.44439
13.9572
23.8443
13.6428
12.8229
7.90444
13.1556
9.70051
25.1997
15.3043
14.8615
14.6202
8.88103
15.3652
9.58322
14.7973
14.5081
15.1102
15.0248
24.7858
26.9987
7.41884
13.6151
12.8045
13.8788
13.1023
23.7857
25.0845
9.59358
20.7196
14.0163
13.22
13.1682
13.9673
10.3638
9.47272
13.1402
13.0628
13.7519
13.6359
20.3351
19.0306
7.71193
24.4947
15.9123
15.2735
13.1212
8.97862
13.5433
7.67856
15.2217
13.094
15.7583
13.4645
24.396
28.8437
3.67624
0.879851
0.770565
0.667025
7.17181
2.44956
2.14904
4.38485
0.658251
3.74352
3.07566
0.633418
0.657088
0.550271
0.48536
0.467335
0.680387
0.52529
0.587173
0.667611
0.513993
0.735033
0.532349
0.542044
0.474588
0.527737
0.47064
0.461101
0.464632
0.467126
4.23878
1.5424
1.49418
4.45232
1.56951
1.72365
4.6957
0.398701
0.453313
0.517662
0.442462
0.408123
0.463596
0.464874
0.983391
0.728013
0.53174
0.972304
1.10639
1.70461
0.664268
0.553122
0.462765
0.46095
0.549561
0.842448
0.835025
0.551834
1.17773
0.772758
0.550556
1.02648
1.26249
1.94107
0.690568