/*--------------------------------*- C++ -*----------------------------------*\
  =========                 |
  \\      /  F ield         | OpenFOAM: The Open Source CFD Toolbox
   \\    /   O peration     | Website:  https://openfoam.org
    \\  /    A nd           | Version:  9
     \\/     M anipulation  |
\*---------------------------------------------------------------------------*/
FoamFile
{
    format      ascii;
    class       volScalarField;
    location    "0.00065";
    object      T;
}
// * * * * * * * * * * * * * * * * * * * * * * * * * * * * * * * * * * * * * //

dimensions      [0 0 0 1 0 0 0];

internalField   nonuniform List<scalar> 
6364
(
844.352
158.114
821.678
162.502
862.597
885.167
196.537
190.748
443.24
452.072
837.125
848.434
456.709
449.772
836.522
182.924
182.754
159.499
157.705
184.082
160.995
181.91
272.368
831.532
271.988
838.167
204.681
441.166
823.107
175.429
160.827
175.437
163.931
162.911
162.506
186.79
460.236
845.796
282.398
273.953
844.71
206.152
834.643
477.017
873.412
471.781
451.333
863.659
465.702
850.267
179.796
162.683
163.646
175.991
164.166
163.452
162.577
189.831
161.52
161.773
184.127
158.244
187.137
161.147
161.198
162.355
161.027
163.016
161.728
162.699
161.002
162.881
192.917
168.167
191.419
166.902
185.846
165.43
165.244
188.68
161.331
184.144
187.025
162.986
163.756
160.956
158.58
160.533
160.268
159.387
160.802
158.469
159.559
156.417
158.924
157.496
158.121
158.449
157.24
160.399
159.76
161.07
159.482
160.023
160.08
158.888
507.978
250.141
283.112
534.749
543.424
261.566
498.544
507.535
533.648
249.879
283.036
497.572
261.412
542.901
714.704
845.757
662.817
846.367
693.894
694.928
857.067
410.509
211.594
211.516
394.01
396.612
220.427
397.259
159.705
168.48
159.265
177.799
159.522
171.575
160.237
160.188
161.204
161.195
161.204
160.466
161.483
160.44
159.701
159.256
168.523
177.787
160.241
171.551
159.53
162.645
164.016
162.961
164.02
162.934
162.942
163.749
160.841
163.405
163.448
161.809
161.393
165.151
161.385
161.204
161.033
162.358
163.026
161.01
161.744
162.702
160.842
184.991
161.989
184.837
162.311
181.264
162.288
525.034
295.562
553.087
257.661
564.722
513.841
269.817
518.982
290.371
251.98
540.039
503.338
556.22
266.64
731.291
864.044
668.675
854.865
710.333
702.015
875.536
421.167
216.071
213.235
397.266
407.134
401.053
224.702
161.444
183.016
162.036
171.42
162.739
161.728
174.841
162.007
163.899
162.711
162.354
162.844
162.378
162.384
162.436
162.757
163.608
163.549
162.944
162.662
163.341
160.659
180.215
169.015
159.641
160.442
173.502
160.925
163.015
164.385
163.191
164.015
163.4
162.989
164.018
161.348
165.174
163.963
162.005
161.939
161.48
166.795
161.91
162.834
161.225
163.01
161.801
161.761
163.008
163.036
163.238
161.414
161.875
161.821
163.027
160.914
168.251
187.993
190.132
161.823
164.505
191.738
165.067
161.372
158.412
159.791
157.768
159.05
159.661
159.248
161.495
161.775
159.967
159.7
159.176
160.991
160.883
1294.49
1248.83
846.496
664.134
1138.14
1183.87
461.224
925.232
692.393
880.671
902.512
1035.43
1048.39
1171.37
1161.1
755.117
1011.98
947.601
1123.11
1076.35
1197.55
1247.16
330.51
1113.52
211.2
985.863
474.011
316.479
151.744
148.633
147.875
143.916
143.301
143.115
143.434
164.523
161.305
160.399
142.904
142.622
153.301
145.675
173.793
197.001
334.349
189.16
184.799
245.793
487.189
515.996
234.094
199.281
155.304
158.333
212.273
338.698
370.267
202.057
380.758
201.316
231.099
280.136
688.926
581.53
360.823
244.059
192.56
167.731
241.153
567.685
443.236
317.44
409.325
1004.93
648.35
734.882
681.831
764.071
379.611
478.122
862.324
1044.72
917.211
755.023
828.331
594.004
1066.58
1261.72
1080.23
1310.16
1409.83
1415.87
1301.02
1249.16
1179.56
1256.03
1322.41
1110.17
1103
1317.7
1111.92
1355.04
1172.18
1333.24
1440.1
1426.85
1374.53
1297.4
1165.39
1271.7
1331.99
1022.92
1076.91
1346.01
665.162
491.865
429.572
1153.51
350.265
1180.55
1180.78
1204.84
338.011
312.943
322.226
643.246
662.588
716.123
693.354
382.6
377.691
342.058
770.018
701.328
762.332
836.776
514.247
408.722
392.512
808.593
909.681
928.903
785.459
568.303
518.144
445.209
856.873
1021.47
967.444
926.983
1013.02
1158.2
1025.14
1059.23
1172.84
1045.54
1176.84
1087.42
1168.05
1048.67
1084.8
1191.58
1184.4
1124.56
1112.48
1170.31
1193.78
1203.28
1180.54
1099.75
1195.93
1137.43
1235.16
1194.82
1196.52
1202.05
1198.32
1175.05
144.317
239.554
144.814
321.35
148.9
142.53
197.276
218.728
150.34
143.877
143.017
142.32
148.034
146.74
142.894
143.824
146.471
141.492
141.095
141.702
141.523
144.505
144.354
144.989
144.329
142.683
146.042
145.046
143.012
194.159
187.872
189.912
152.502
152.504
154.045
153.578
147.335
143.075
143.369
142.473
143.048
142.319
143.448
205.309
204.333
194.749
158.705
155.28
153.03
155.378
247.582
213.111
208.588
167.681
165.729
158.125
157.165
269.473
248.257
223.915
172.917
185.514
166.769
160.529
968.218
194.493
931.837
161.558
879.758
919.827
192.12
191.986
195.327
160.333
195.832
163.668
195.086
195.956
162.6
476.212
868.034
463.998
485.611
887.082
482.538
896.832
189.563
162.065
162.743
195.227
162.209
194.37
163.915
191.879
192.924
159.987
161.239
163.195
194.016
162.277
171.588
192.299
164.858
197.749
168.852
197.896
167.462
164.707
163.906
162.624
162.363
162.898
162.434
164.252
163.975
162.153
162.907
162.074
162.302
162.752
162.843
164.256
161.198
164.206
161.779
162.695
162.789
162
194.254
155.12
158.018
192.365
157.565
193.836
160.666
494.444
902.917
485.714
891.72
481.638
489.289
907.74
923.431
502.032
498.566
493.031
904.876
490.49
912.987
946.209
520.472
509.011
939.83
505.168
497.679
924.34
1014.48
149.948
198.669
959.719
196.095
739.02
186.037
651.719
161.722
154.041
150.001
145.846
172.584
153.487
217.692
168.054
196.366
158.286
159.42
198.989
157.489
198.356
156.529
155.506
152.037
153.216
148.885
152.042
150.794
149.996
196.382
155.411
156.503
205.634
153.811
200.858
154.758
151.85
148.506
150.105
146.72
145.604
146.905
148.571
948.903
516.381
510.784
542.422
991.725
533.605
1006.51
150.863
148.449
147.819
147.25
145.429
148.147
144.671
159.275
232.267
225.674
206.335
153.78
203.695
153.197
151.728
152.982
151.254
145.573
147.654
146.747
146.249
980.328
546.23
527.468
1081.81
588.555
559.674
1035.57
147.597
148.577
146.801
145.463
144.53
145.977
143.88
167.804
282.753
247.904
226.145
156.861
212.361
153.13
1153.99
1133.73
635.455
586.411
1055.09
573.875
1073.87
158.328
171.291
157.687
148.496
148.459
145.6
146.193
163.643
157.114
154.799
145.69
145.552
145.953
146.216
684.728
1248.89
1193.51
1164.99
651.258
610.842
1110.4
181.556
183.547
163.818
151.193
159.904
146.428
149.415
151.645
158.569
152.044
146.583
162.466
156.875
158.89
151.6
157.636
156.888
156.182
160.888
154.729
159.61
159.152
162.954
161.783
162.455
160.145
162.413
161.714
161.467
158.948
161.504
154.633
156.892
159.723
157.734
159.837
160.598
155.011
156.655
157.025
154.447
158.634
152.967
163.295
162.918
163.351
162.502
162.665
160.686
163.734
164.555
163.085
163.058
162.328
162.995
163.118
163.485
163.19
162.929
162.791
162.266
162.831
160.115
163.344
163.183
161.401
161.702
161.692
161.975
162.179
160.23
154.404
149.816
152.359
154.148
151.954
155.102
157.292
153.741
156.585
147.927
149.791
152.592
154.593
150.592
153.185
149.993
149.115
154.576
152.008
155.981
150.807
148.098
150.059
147.639
149.384
146.669
152.213
148.76
1346.37
1248.12
621.223
1347.24
601.812
1239.22
911.68
1342.74
1126.95
780.527
547.667
1203.53
865.907
1324.45
1500.71
287.926
1025.79
287.95
294.456
287.926
288.04
287.926
350.709
1477.65
1227.65
1342.2
1162.96
1026.77
752.402
509.866
287.926
569.918
287.927
287.926
287.926
287.926
287.926
1343.67
393.152
468.458
852.353
719.65
329.939
291.859
559.074
289.45
384.672
288.245
309.194
292.814
287.996
858.604
300.608
590.613
289.195
333.971
297.832
288.168
308.132
295.668
301.395
288.464
288.263
288.154
287.936
289.625
288.167
304.797
288.585
287.927
287.986
287.936
293.611
289.389
352.276
289.14
287.928
287.955
288.026
785.983
1403.56
1370.47
1436.24
1324.36
899.902
1123.07
770.69
888.54
428.912
490.255
951.064
288.304
1353.29
1644.68
916.66
1457.48
296.454
981.682
1583.89
1090.34
386.757
1120.47
614.441
180.964
1388.85
1496.05
1074.27
2265.22
1183.79
2132.11
1477.67
1221.24
720.957
1051.69
1044.36
859.839
1380
1322.76
147.334
164.134
172.204
236.049
227.185
257.893
405.16
382.286
836.973
849.458
287.994
287.965
287.983
287.962
835.106
287.942
287.932
657.002
766.334
287.991
287.958
1197.14
1488.38
1311.74
292.876
1178.34
1449.06
865.525
1337.98
1387.83
312.121
1530.42
1291.86
642.271
1318.21
1430.26
1361.53
1096.54
1198.88
1088.37
288.408
366.849
259.277
699.044
422.62
734.27
460.354
655.252
912.237
218.501
616.458
388.608
629.307
388.166
617.656
846.966
307.325
783.964
464.618
828.037
503.206
688.445
969.415
929.559
787.424
947.971
1143.86
1262.52
1361.81
1242.5
883.182
713.467
864.333
1090.77
1065.83
1154.7
1186.58
1429.63
1130.69
375.508
287.98
1389.39
1237
1310.25
287.978
288.408
694.594
792.598
287.949
585.647
287.927
1068.37
1168.26
1255.19
288.073
625.427
1222.2
296.666
287.929
287.926
373.437
579.897
287.945
510.296
287.927
288.919
2320.73
1467.84
1785.13
1587.52
2227.84
888.087
1243.7
1392.32
1413.71
288.01
1084.77
743.326
533.627
782.761
912.732
1013.44
1174.58
1097.23
1178.35
1249.7
1279.81
1454.81
1188.26
1604.67
1433.31
1512.17
1660.1
989.473
957.534
1042.58
1127.81
1179.94
1212.85
1359.56
1220.64
1021.93
750.373
916.338
1362.43
1118.78
1151.59
906.737
881.503
647.668
864.688
1266.17
1077.72
1052.06
882.261
951.014
669.485
882.42
1302.89
1063.44
1119.99
1277.18
1224.54
1110.91
1499.23
1508.47
1660.38
1373.39
1054.29
1022.63
1184.1
1274.52
1431.91
1390.16
1310.74
861.223
878.864
898.522
1050.43
1072.25
1086
1263.11
950.631
1061.01
1194.56
1215.66
1291.39
1320.63
1402.27
1181.52
1301.63
1335.25
1356.82
1371.71
1411.05
1420.73
1515.57
1553.9
1385.1
1630.02
1889.92
1788.96
1752.15
1405.04
1723.44
1547.45
1633.94
1445.67
1736.02
1475.35
1127.16
1271.92
1201.86
1289.77
1431.55
1394.13
1348.87
1339.01
1353.1
1306.31
1360.25
1335.89
1312.66
1399.57
1142.99
1247
1300.77
1322.18
1364.94
1437.2
1465.12
887.889
889.714
874.85
391.484
381.052
367.199
376.977
878.532
880.353
873.825
391.371
388.246
381.561
382.705
1846.35
1967.15
1704.86
1791.61
2182.27
2014.81
1922.62
378.42
872.438
874.709
877.866
874.828
387.283
382.337
351.655
369.314
865.412
847.528
871.188
374.582
357.176
874.974
851.213
872.687
375.453
356.262
374.101
358.819
288.668
1197.69
1489.55
287.926
290.557
288.183
342.915
287.934
287.926
288.441
1107.98
1495.96
887.554
287.963
1371.87
1344.38
1323.13
1367.75
1250.8
1295.08
1400.85
872.129
799.15
848.106
347.875
367.819
352.479
333.745
1122.06
1485.63
1300.19
1497.75
1347.8
1501.22
1567.59
1079
1471.13
1253.79
1482.68
1290.34
1470.25
1581.13
1075.58
1493
1264.5
1499.46
1289.35
1479.44
1579.4
1268.17
1507.56
1389.32
1437.62
1425.41
1460.44
1375
1488.8
287.943
1320.59
288.43
287.926
287.943
364.097
1077.07
1503.47
1481.3
1494.52
1291.42
1265.29
1317.88
1427.47
1518.37
1345.58
1517.96
1422.19
1518.64
1508.26
1273.67
1478.34
1402.33
1488.48
1433.97
1511.32
1433.03
1112.9
1493.82
1293.83
1491.99
1306.3
1481.7
1562.87
1199.6
1493.71
1361
1457.87
1392.26
1460.66
1445
1273.34
1498.61
1431.61
1450.02
1417.79
1414.5
1349.41
1461.78
1609.51
1784.8
1592.11
1803.45
1878.8
1563.01
1352.77
1511.07
1465.68
1486.38
1442.23
1381.46
1414.04
1732.76
1532.9
1623.86
1359.76
1801.25
1715.3
1532.01
1400.58
1419.36
1014.12
1235.08
1387.56
1210.47
1439.68
845.727
751.046
829.334
343.542
323.496
319.762
350.362
779.453
329.912
792.363
707.785
334.137
313.27
310.861
796.815
706.642
712.035
333.129
335.416
313.951
312.491
1388.76
1501.68
1420.45
1470.46
1434.38
1477.54
1426.51
1690.57
1968.16
1900.38
2058.36
1964.37
2114.48
2214.85
1361.51
1486.26
1462.89
1447.54
1438.49
1363.35
1321.6
727.987
680.821
633.133
326.075
315.988
308.202
302.488
1433.56
1427.82
1472.57
1163.64
1455.42
1420.71
1036.52
557.563
288.068
287.928
287.926
287.93
287.931
287.926
1910.9
2161.5
2053.42
2236.7
2032.47
2055.13
2034.72
1400.78
1352.95
971.12
1108.13
1377.42
1181.53
1411.63
739.911
715.119
795.201
331.799
304.694
312.733
318.046
1330.02
988.865
1355.1
928.052
1354.24
1325.15
770.473
777.116
1062.93
796.945
456.293
1187.89
745.317
1153.39
1024.53
587.88
524.823
869.022
678.722
931.52
978.321
1027.36
641.166
931.447
802.242
1088.86
1005.4
1091.3
1178.92
962.037
1020.8
859.482
1207.65
1086.01
1130.09
1253.68
1140.72
1188.15
1176.11
1176.05
1204.64
1235.47
1165.13
956.448
1218.79
1102.05
1198.63
1400.01
1292.35
1322.36
1276.19
1178.44
1222.98
1275.57
1098.84
1321.5
1144.32
1320.01
1132.84
1269.56
1293.72
975.801
1332.22
1110
1324.93
1310.47
976.252
890.051
1350.74
1338.96
1066.85
1437.26
1395.32
1463.33
998.225
1341.32
1289.31
880.355
1290.11
795.719
720.789
485.565
1140.9
1066.84
416.1
1425.5
1107.35
1425.44
929.968
1402.69
1338.89
768.772
1582
1548.53
1539.02
1487.77
1519.1
1387.69
1138.57
1552.97
1551.05
1493.02
1582.06
1068.37
1479.63
1479.45
1559.96
1586.84
1498.24
1561.31
1083.14
1486.63
1386.25
1502.33
1421.21
1496.09
1526.26
849.79
1232.6
1401.21
1537.03
1547.98
1487.37
1580.22
1137.28
1518.62
1485.66
1593.65
1589.08
1473.58
1592.62
1231.35
1554.8
1527.86
1528.91
1546.26
1499.5
1433.63
848.381
1192.48
1260.49
665.647
484.586
568.044
297.81
305.975
297.103
292.609
1488.69
1199.74
1448.2
1103.96
692.44
646.393
1142.34
1422.71
1543.04
1519.01
1420.9
1252.89
1168.84
832.725
1520.06
1499.35
1419.94
1397.15
1227.77
1180.02
843.74
575.093
441.823
589.083
299.053
290.898
291.314
297.929
1370.34
1341.07
1518.83
1501.46
585.998
1133.15
1193.48
1334.26
802.136
536.95
1208.46
347.954
547.453
944.637
1309.65
1458.64
1483.21
1182.97
476.619
986.837
701.17
1116.26
602.946
452.237
936.675
306.227
738.53
347.108
436.376
444.673
592.903
299.318
291.096
298.591
291.395
1344.91
1489.04
1504.75
1324.03
560.455
1116.68
833.206
1245.75
906.476
1386.98
1196.57
356.379
940.533
549.716
2223.24
2164.09
2097.32
2192.45
2317.54
2110.74
2320.17
1912
1639.17
1914.55
1826.23
929.831
1559.08
1351.95
2263.97
1958.28
2117.66
2120.96
2055.66
1695.13
2303.81
1427.23
1411.02
1798.87
1672.72
507.067
1037.82
1163.2
1281.1
708.304
1255.54
945.413
404.799
384.6
980.49
988.844
647.745
1270.81
1146.65
310.744
778.354
477.783
557.177
411.408
374.961
290.358
296.53
293.856
289.479
1166
1414.77
1434.58
1065.35
484.526
594.598
966.752
1153.02
654.063
1227.75
898.41
318.238
357.034
780.063
290.747
287.992
290.674
290.439
287.987
290.451
287.987
290.204
289.599
287.978
287.967
290.143
289.685
287.98
287.987
290.458
290.319
287.991
290.63
290.459
287.987
287.975
289.478
290.008
290.176
287.966
289.64
287.98
290.685
287.983
290.349
289.894
287.978
290.179
287.971
265.609
193.067
959.755
144.856
361.362
175.855
763.581
568.391
141.625
144.697
141.129
153.223
153.417
168.307
167.86
145.202
147.236
155.995
141.979
158.418
178.194
210.945
193.135
157.104
157.236
209.886
343.438
340.145
209.62
512.987
362.549
507.22
198.08
199.255
250.653
250.03
208.093
163.391
183.323
231.347
502.991
385.521
308.716
283.547
420.941
568.08
708.826
217.675
288.026
396.437
729.176
713.277
927.733
394.061
647.672
633.011
397.828
877.613
1039.36
958.55
447.237
791.051
680.231
575.9
1016.66
138.691
895.722
144.298
178.098
853.407
154.828
897.494
963.641
189.461
186.689
153.278
140.954
145.966
156.824
145.274
152.08
142.453
181.893
150.743
181.132
156.994
183.903
154.204
178.123
159.251
185.283
158.573
155.505
187.3
187.12
155.888
150.758
149.088
151.859
155.852
152.453
154.686
147.723
154.999
152.017
157.216
152.965
153.877
151.129
155.863
455.065
868.534
461.011
467.561
860.709
461.448
876.607
481.818
478.001
877.241
914.729
489.35
471.238
893.819
143.288
145.613
149.24
148.339
148.521
152.029
145.68
148.569
149.454
149.419
146.121
148.719
153.023
146.698
1029.87
192.24
186.48
1275.77
306.157
1316.09
328.3
141.173
140.684
139.664
270.697
470.231
282.337
475.308
179.861
182.935
148.084
144.418
147.386
181.423
150.927
190.379
150.156
150.131
185.074
152.618
187.865
152.789
145.906
143.732
144.378
148.279
149.217
150.012
147.57
142.966
139.802
143.944
140.801
145.1
146.951
148.513
473.775
944.874
499.888
947.841
502.684
479.098
902.273
513.192
991.636
530.228
489.895
943.151
503.442
919.387
137.047
141.658
139.328
138.9
142.541
145.163
143.202
142.951
140.097
140.461
146.377
143.952
145.867
144.306
198.435
146.948
146.349
215.533
156.699
152.798
226.975
188.103
144.186
140.935
210.148
149.63
150.237
211.815
139.023
136.368
136.617
144.234
142.842
143.38
143.878
141.303
140.379
140.454
145.661
147.538
145
147.939
545.989
1015.91
545.206
609.58
1101.75
612.683
1100.46
139.189
139.644
137.078
147.73
159.752
157.529
147.963
555.464
1061.35
576.372
619.641
1143.37
1112.22
644.676
140.488
141.617
140.722
148.982
162.792
158.645
151.499
269.714
184.589
451.159
282.241
180.102
277.653
429.652
277.799
194.705
289.007
494.379
183.568
301.321
444.457
169.707
171.133
279.63
252.417
167.44
174.081
258.289
171.335
177.179
255.828
287.172
169.465
178.802
260.664
714.023
1228
1295.59
894.469
1201.5
744.398
858.318
181.992
232.349
333.058
433.942
219.965
188.631
303.624
183.307
235.852
435.644
338.219
221.222
192.408
305.286
702.768
1188.46
849.31
1284.57
707.583
1190.97
844.493
700.153
217.272
153.687
165.88
1060.78
201.998
936.922
1030.71
190.551
149.923
148.29
171.706
146.209
153.167
143.334
148.489
142.221
189.759
156.324
158.279
191.74
154.437
189.254
153.186
155.406
151.03
153.305
147.891
151.449
149.665
149.561
502.734
916.439
491.638
517.001
937.486
501.794
964.775
150.466
145.892
147.161
146.351
145.208
147.413
144.988
197.092
154.849
154.686
192.984
154.057
195.951
153.761
149.785
147.101
148.361
150.893
149.016
147.462
148.859
803.798
1128.93
1490.09
153.813
730.653
1106.7
1391.87
149.769
195.272
195.061
152.303
202.319
190.853
152.589
144.028
142.327
142.592
145.81
147.984
147.175
146.393
1003.93
571.705
539.452
963.592
517.265
538.509
1003.39
543.39
1082.14
973.409
554.372
587.738
520.669
1012.78
144.374
146.553
147.396
147.296
145.825
146.562
145.399
141.386
139.986
141.892
145.073
143.47
145.084
143.302
153.795
144.094
143.689
145.44
144.886
145.384
146.545
247.791
151.959
213.178
153.409
201.442
216.32
153.21
148.413
207.948
225.285
164.63
247.44
288.712
185.342
1227.65
1138.39
624.113
575.42
1148.44
633.31
1066.12
157.859
144.92
148.547
146.926
145.419
144.983
142.992
1166.18
607.687
653.131
1190.94
685.668
746.108
1250.84
339.721
170.888
260.676
377.433
398.64
546.975
239.067
587.238
419.821
578.052
222.012
350.778
450.497
294.437
1306.9
1238.13
717.136
829.082
1355.51
933.257
1310.1
1054.59
1350.21
958.603
1269.88
796.391
873.731
1319.8
1020.54
927.65
795.179
615.558
708.718
833.791
461.18
1297.55
1435.51
1170.6
976.186
1403.71
1101.19
1364.91
1436.19
1434.56
1018.42
287.926
842.345
788.723
239.82
1492.78
1025.14
416.756
1153.6
165.184
243.009
189.91
318.428
323.244
443.379
562.511
290.112
825.121
1309.39
1081.32
1440.71
290.223
835.324
1403.19
1413.9
302.262
1465.05
1021.86
1275.94
303.372
255.365
651.163
458.225
686.316
478.559
725.634
904.604
489.081
924.497
600.478
1051.43
759.776
862.657
1118.68
465.843
900.027
597.15
1010.59
739.856
850.935
1088.24
1202.21
1260.24
998.674
1188.56
1248.35
1405.97
1412.27
1166.51
944.361
767.833
978.461
1350.2
1118.71
1201
915.333
1025.67
752.79
979.117
1362.25
1116.22
1224.11
1000.03
1206.29
1190.23
1263.83
1249.85
1407.7
1416.92
1265.68
1087.93
1079.43
1305.31
1259.39
1395.38
1396.37
1093.18
1272.47
1315.25
1307.44
1261.96
1397.54
1402.53
1262.56
1236.07
1008.25
1081.85
1471.84
1329.76
1310.55
1193.39
1502.62
1508.79
1509.87
1341.15
1421.43
1412.51
1184.29
288.03
288.297
1210.88
288.168
287.935
287.926
1458.64
1462.43
1395.95
1463.51
1219.19
1459.02
1245
1264.41
1287.06
1413.66
1426.67
1005.25
1417.66
1045.32
1464.46
1408.74
1398.23
1465.44
1227.87
1465.38
1246.7
1419.37
1289.3
1415.17
1428.47
1019.63
1048.36
1424.97
1414.42
1439.57
1411.6
1364.97
1054.6
1079.74
1356.79
1309.37
842.167
1312.48
1182.36
523.238
543.871
1169.23
1441.51
1420.92
1414.11
1366.73
1061.97
1362.86
1081.32
1315.97
845.559
1314.6
1184.38
530.373
1176.24
546.28
696.688
358.872
1139.55
304.068
1134.63
1163.42
1170.22
359.253
305.57
1426.55
843.622
1191.33
1178.68
422.856
1170.12
1183
422.999
1037.03
1047.29
310.85
302.754
307.167
633.106
625.307
640.098
622.96
1414.28
757.123
1007.84
710.012
208.27
705.099
152.631
310.631
301.83
305.53
630.725
630.772
622.092
641.468
349.947
325.972
320.011
659.2
732.05
670.71
716.668
349.582
325.75
318.829
657.948
733.606
716.788
671.841
820.432
1674.52
768.267
2068.63
1389.21
2099.83
1483.31
674.331
604.695
1350.17
1279.94
581.849
1389.43
1351.1
155.642
214.153
152.623
204.242
197.928
348.081
375.97
151.513
210.291
202.805
204.761
196.591
345.759
370.017
410.012
537.762
517.926
828.678
811.447
931.063
945.722
410.002
536.994
517.768
829.339
811.91
930.919
944.299
1004.44
1000.4
1134.32
1143.57
1008.95
1137.22
1000.02
1000.93
1131.15
1137.86
1000.95
1134.68
996.088
1006.32
215.077
139.324
137.176
533.702
140.212
539.462
143.148
158.095
140.743
139.14
142.946
141.123
140.826
141.76
140.463
141.53
143.807
141.692
142.059
141.624
142.668
142.833
156.09
211.935
156.384
165.528
253.734
166.148
246.87
137.381
138.549
139.157
145.39
161.198
159.727
144.87
139.577
139.871
140.156
146.294
164.198
160.825
147.422
216.505
212.538
157.165
166.376
255.488
247.531
168.372
186.295
349.423
250.187
511.602
240.503
189.17
334.049
187.27
513.815
254.155
352.651
241.939
335.182
191.848
1148.68
1062.12
1025.15
1018.1
1161.79
1054.44
1145.8
1020.5
1065.3
1154.82
1163.85
1028.71
1055.67
1147.83
668.838
607.232
761.11
1149.33
1074.41
1192.52
1032.32
604.146
549.548
554.496
968.603
1020.92
980.323
1003.21
632.481
1149.44
1045.35
595.712
744.285
1132.97
1021.51
589.358
1002.08
990.704
542.43
549.904
964.444
973.857
397.993
783.463
425.187
662.472
1013.66
691.629
997.353
776.715
684.323
418.549
754.648
395.478
659.631
995.059
387.149
674.409
354.325
633.233
961.218
665.712
939.168
956.741
659.48
382.161
672.535
352.354
630.763
937.386
903.457
721.341
922.311
1050.01
1183.36
1060.68
1174.24
1119.88
1410.91
1078.32
1349.96
1574.34
1381.71
1559.81
807.59
682.938
637.35
1023.07
1133.31
1048
1116.69
1057.49
918.025
718.448
695.793
902.027
1049.15
1172.73
1175.57
1181.93
1116.29
1176.08
1108.98
1176.16
1173.7
1118.96
1178.28
1109.57
1176.95
1178.8
1185.28
1176.43
1066.5
1336.19
1544.83
1401.39
1060.92
1333.91
1551.94
838.796
1040.69
1129.35
805.979
634.586
1020.59
1115.13
1456.95
1333.15
1461.77
1449.86
1472.79
1681.12
1323.51
1464.35
1356.81
1478.85
1705.58
1691.99
1492.7
1332.6
1257.45
1373.62
1350.69
1245.76
1383.05
1357.85
1268.61
1249.04
1294.86
1387.2
1362.63
1360.77
1273.9
1267.05
151.412
186.146
139.404
197.629
150.715
145.446
153.039
153.859
144.679
144.682
149.414
153.157
151.407
146.284
143.009
152.228
145.344
144.247
145.103
153.356
151.771
146.446
143.3
142.578
146.481
145.617
148.702
141.027
140.873
148.258
141.431
142.592
143.21
146.367
149.292
141.765
152.45
152.458
186.402
186.154
153.542
186.131
151.369
186.237
152.611
187.371
153.066
186.555
153.9
186.875
152.009
151.719
189.298
195.916
152.713
188.464
150.748
152.396
190.611
198.975
152.448
196.592
153.469
189.252
225.828
971.458
428.691
600.381
142.974
250.459
155.529
141.881
142.104
142.72
141.614
141.304
141.623
143.706
146.757
142.794
145.572
142.536
146.067
142.157
155.424
176.773
173.586
151.244
139.863
140.878
150.987
159.911
197.073
226.844
166.992
160.639
277.99
173.793
186.595
329.227
170.771
163.9
146.119
180.867
404.475
258.284
236.207
307.622
215.534
181.743
216.645
593.908
434.506
293.768
289.407
397.977
204.394
234.774
703.571
369.414
488.971
311.575
690.135
786.781
835.326
508.433
622.965
466.599
1407.95
1220.34
957.496
941.559
1402.75
1210.19
1178.74
1248.41
1311.16
1142.31
1050.75
1255.04
1306
1141.81
943.868
1405.35
1226.63
1196.35
963.239
1212.69
1180.79
1132.85
1305.35
1250.35
1246.95
1047.41
1304.05
1138.74
1896.05
1613.58
1772.42
1613.02
2076.41
1901.31
1775.87
1627.73
1804.54
2086.11
1932.91
1914.78
1653.49
1786.39
1341.56
1284.28
1346.44
1274.57
1354.14
1358.68
1340.66
1276.57
1351.06
1356.1
1359.83
1360.86
1290.44
1342.15
846.032
411.2
319.546
290.622
325.327
432.323
820.909
848.08
290.66
416.257
321
828.606
325.846
433.774
1210.91
639.63
545.049
306.775
1179.2
588.025
683.619
1212.98
307.171
651.579
557.505
591.499
1189.83
686.513
1209.26
546.88
636.81
580.197
677.246
305
301.376
1192.22
554.961
646.861
582.173
679.693
305.261
302.173
157.212
162.677
157.171
149.169
163.09
160.116
160.435
155.414
160.9
160.042
155.821
158.173
161.254
158.165
158.923
161.944
161.277
161.946
164.132
162.675
162.761
157.233
160.98
160.988
155.203
157.891
161.382
157.164
158.869
158.607
152.923
152.353
151.78
155.668
154.822
156.086
163.805
159.327
163.207
162.206
164.256
162.836
162.753
162.231
158.529
161.051
161.181
158.857
161.558
159.149
162.272
156.692
158.169
161.259
157.839
161.371
157.628
158.13
151.486
154.298
159.274
152.571
156.515
155.479
162.298
162.499
162.451
163.13
162.706
162.812
162.266
162.794
162.98
165.005
162.707
163.723
162.603
163.405
160.6
161.224
160.13
160.947
161.371
157.54
160.56
160.413
159.076
160.904
160.727
157.219
159.846
161.459
159.866
156.883
157.752
157.914
158.361
158.909
155.997
161.827
161.439
161.322
159.806
160.34
161.44
160.667
161.301
161.505
161.767
163.028
161.566
161.967
161.722
161.444
161.558
161.558
162.744
161.857
161.7
161.857
161.299
161.507
161.771
163.025
161.724
161.965
161.562
163.42
164.107
164.105
163.854
163.745
163.802
163.745
162.298
162.449
162.498
163.131
162.263
162.813
162.706
161.927
162.582
162.583
162.738
162.448
162.338
162.45
160.765
160.396
160.351
160.392
160.7
160.998
160.693
160.054
161.284
159.881
161.194
161.465
157.396
160.479
160.053
159.891
161.289
161.193
160.487
161.462
157.4
159.835
157.268
158.694
157.259
155.681
159.303
159.29
161.576
161.241
161.238
160.422
161.01
161.128
161.003
163.142
163.719
163.627
163.664
163.641
163.468
163.37
161.963
162.479
162.051
161.551
162.36
162.031
162.085
162.201
162.703
164.458
162.678
162.903
162.459
162.994
161.805
163.732
161.732
162.022
161.873
162.236
162.588
163.752
164.468
164.155
163.932
164.11
164.087
163.811
162.775
163.079
162.643
163.196
163.144
162.829
162.918
162.359
163.053
162.725
162.766
162.773
162.528
162.921
162.255
161.87
163.068
162.373
160.016
161.57
163.151
161.798
161.819
161.541
160.396
160.933
162.269
158.69
161.34
159.079
158.334
158.521
159.565
159.771
157.846
163.008
162.147
161.732
160.251
161.153
161.421
162.406
161.168
162.629
161.213
162.272
158.921
161.331
162.531
160.918
161.957
161.589
160.147
160.713
162.17
158.3
160.396
157.68
158.615
157.308
159.697
159.412
156.243
162.185
161.738
161.458
160.414
161.482
161.198
161.833
2317.79
1292.73
2133.94
1527.55
1679.68
1578.27
1316.73
1172.59
369.845
1507.18
911.822
1162.52
1209.14
1456.48
1164.26
1124.8
466.763
314.322
509.452
643.097
750.717
663.533
779.396
1029.65
946.627
317.711
586.831
571.879
605.457
591.178
864.119
896.249
1353.38
1382.1
1039.58
1388.92
1061.02
1201.36
1433.13
356.697
727.454
617.236
747.578
638.127
890.806
965.013
1525.54
1412.98
1657.84
292.56
1457.6
2316.94
1381.46
1135.3
1385.82
1353.55
300.653
289.127
1152.3
963.529
1216.11
968.413
1065.43
1273.97
1429.75
1186.13
1536.06
943.97
1243.8
1012.98
1250.63
1414.08
1496.78
1175.31
1124.46
912.155
881.919
1096.52
1364.83
1134.32
1325.72
1087.18
893.767
860.816
1086.39
1352.84
1313.79
1125.1
1439.16
1453.31
1237.86
1389.37
1717.04
1623.84
1537.62
1350.99
1423.55
1183.59
1359.78
1655.29
1563.12
1514.43
1140.05
988.08
910.168
1109.5
1395.41
1176.37
1335.2
1098.86
959.649
887.13
1097.57
1377.22
1317.94
1162.45
1315.65
1522.45
1481.7
1528.96
1483.63
1354.13
1478.85
1508.75
1932.77
1619.69
1626.98
1763.2
1417.21
1771.06
1496.22
1626.54
1758.87
1618.82
1759.28
1931.79
1683.61
1317.32
1529.23
1484.38
1523.49
1481.52
1483.12
1529.92
1583.44
2087.64
1906.66
1872.4
1825.8
1853.71
1675.59
1564.96
1863.4
1817.25
1881.53
1829.75
2078.73
2121.92
1322.52
1466.7
1504.52
1506.23
1474.65
1382.99
1474.27
1325.04
1506.97
1475.38
1507.45
1477.32
1467.32
1456.52
939.702
318.367
235.607
210.083
1422.83
815.699
791.243
1137.85
213.56
969.05
895.657
213.698
246.969
187.847
146.248
144.536
203.235
154.226
155.027
217.214
154.467
246.657
167.007
148.332
145.657
147.107
146.487
146.065
155.148
155.161
1066.01
623.845
575.932
1147.15
632.441
697.924
1226.21
147.586
146.192
146.611
147.303
150.894
159.185
173.064
322.399
243.552
165.597
320.015
357.481
494.927
209.455
188.072
153.783
153.669
188.043
306.898
304.3
188.032
363.074
258.173
172.002
331.86
388.475
525.085
215.604
211.457
159.476
160.013
194.854
343.266
344.061
193.978
1304.83
1223.4
694.009
788.982
1351.76
902.947
1303.85
200.656
168.904
157.198
201.068
454.479
347.022
247.793
237.381
166.684
187.008
210.776
514.761
393.25
270.124
1304.59
1235.37
712.468
796.421
1346.13
915.012
1303.83
498.492
652.975
639.271
1014.6
757.115
743.102
364.596
315.403
865.977
604.571
586.169
595.069
572.669
316.809
903.181
1184.87
1377.95
1378.48
1040.52
1033
1348.83
359.397
756.798
893.962
730.463
645.181
619.153
471.498
2236.14
2118.8
2081.4
2235.9
2369.11
2212.96
2314.43
1241.65
1540.08
1490.56
1242.15
811.73
1294.78
751.64
1951.59
1694.21
1939
1955.65
1094.41
1721.09
1530.7
2140.36
2201.15
2081.92
2224.54
2337.18
2143.53
2316.83
1648.76
1856.08
1914.57
1925.85
960.424
1603.46
1484.05
1494.03
1106.66
1451.19
1201.76
700.998
648.739
1250.17
1208.64
1466.48
1474.21
1208.3
585.202
698.776
1134.58
1414.77
1063.34
1435.76
1165.47
483.957
593.975
1083.12
485.907
561.497
1129.33
1006.45
391.615
439.146
291.39
289.348
287.973
289.926
289.467
287.949
287.961
288.964
289.382
767.87
310.761
659.528
288.611
300.166
331.9
560.673
473.545
1113.8
968.296
291.168
370.879
432.315
448.605
337.42
308.322
291.341
288.243
289.4
288.739
1542.08
693.38
618.446
1181.65
1245.83
664.762
313.08
1453.31
603.776
443.086
1102.05
885.406
438.35
297.341
940.425
394.598
940.313
576.181
1168.15
577.202
300.179
825.154
453.332
1008.77
323.16
690.399
382.747
291.372
1960.51
552.848
1918.43
1639.68
1520.13
1203.73
2234