/*--------------------------------*- C++ -*----------------------------------*\
  =========                 |
  \\      /  F ield         | OpenFOAM: The Open Source CFD Toolbox
   \\    /   O peration     | Website:  https://openfoam.org
    \\  /    A nd           | Version:  9
     \\/     M anipulation  |
\*---------------------------------------------------------------------------*/
FoamFile
{
    format      ascii;
    class       volScalarField;
    location    "0.00215";
    object      rho;
}
// * * * * * * * * * * * * * * * * * * * * * * * * * * * * * * * * * * * * * //

dimensions      [1 -3 0 0 0 0 0];

internalField   nonuniform List<scalar> 
16549
(
2.30183
2.22769
2.37537
2.37111
1.29112
1.36667
2.2139
1.62812
2.14405
2.23256
2.16239
2.43838
2.45682
2.44246
2.45948
2.29904
2.26149
2.19075
2.45823
2.4688
2.44985
2.46446
2.29133
2.38908
2.30955
2.46856
2.46983
2.4698
2.46268
2.42999
2.20344
2.36261
1.38502
2.43747
1.6612
2.36006
1.39109
1.81755
2.12759
1.61774
2.36557
1.30097
2.43732
1.37584
1.7917
2.13145
2.24807
2.51662
1.23548
2.06466
1.53085
1.27776
2.46927
2.13473
2.4569
2.20469
2.13167
2.20224
2.43951
2.4596
2.12928
2.19914
2.20043
2.43591
2.43952
2.46006
2.45655
2.14428
2.20383
2.21795
2.4344
2.43705
2.4549
2.45673
2.16863
2.27942
2.24361
2.45327
2.44401
2.46191
2.46783
2.47343
2.47137
2.28256
2.36139
2.28081
2.47488
2.47842
2.36087
2.27865
2.27968
2.47575
2.47554
2.4722
2.47975
2.30197
2.32378
2.37669
2.46271
2.46941
2.47123
2.4675
2.2838
2.38061
2.2984
2.47102
2.46987
2.46976
2.46625
2.35944
2.40584
2.32397
2.47098
2.44538
2.47006
2.45946
2.44728
2.41594
2.33769
2.43338
2.46599
2.46976
2.45301
2.36397
2.48108
2.4333
2.44968
2.46833
2.44876
2.39739
2.40292
2.49694
2.44795
2.41465
2.46204
2.43931
2.35673
2.33277
1.77015
2.39408
1.58031
1.72063
2.37384
2.30491
2.35135
1.80414
2.40784
1.82354
2.41684
2.36272
1.67983
1.82924
2.4128
2.41917
2.36567
1.67335
2.35789
1.68507
1.74997
2.4015
2.38474
1.64764
2.34305
2.31994
1.6065
2.51232
2.51531
2.48654
2.38699
2.09677
2.25989
2.29185
2.32519
1.69166
2.36085
2.2862
1.48345
2.23481
1.55026
2.34468
1.57671
1.65555
1.51914
1.4522
2.20185
2.26435
2.06986
1.48236
2.23464
1.34257
1.44399
2.19275
2.01206
2.10759
1.51069
2.26112
2.27626
1.39557
1.52675
2.12854
2.27996
1.39839
2.11946
1.52049
2.26988
1.53118
2.13355
2.08937
1.49749
2.24923
2.21483
1.35357
1.46294
2.04037
2.27229
2.18987
1.442
1.41526
2.15526
2.04009
1.35351
1.31616
1.39938
1.35438
1.8268
2.04158
2.13042
1.93128
2.16203
1.37366
1.87306
1.3273
2.08444
1.41987
1.96896
1.3645
1.30616
1.89443
1.88758
1.27046
1.30443
1.70749
1.32999
1.75451
1.97736
1.84062
1.25902
1.29376
1.61907
1.1535
0.795643
0.80745
1.37353
0.889075
1.31356
1.59633
0.886029
1.93431
0.775824
1.58749
1.68782
0.887866
1.94656
2.07653
0.932974
0.776096
1.59429
0.835379
0.86867
2.05602
1.75105
2.43114
2.15258
0.965701
0.779373
0.77691
0.805182
0.948175
0.944993
0.98104
0.984271
0.775621
0.803854
0.803867
0.943988
0.943573
0.979618
0.980063
0.778056
0.804022
0.806506
0.944714
0.948375
0.981253
0.986554
0.97406
0.784272
0.828654
0.814514
0.957851
0.999137
1.01947
1.14822
2.18921
2.50807
2.51955
2.52907
1.71964
1.41185
1.09556
0.84244
0.886795
0.840244
1.02826
1.03166
1.09172
0.885679
0.839045
0.838986
1.02689
1.09177
1.02761
1.09044
0.839674
0.895278
0.844081
1.09625
1.03002
1.03834
1.10842
0.812262
0.997584
0.848941
0.877955
1.03089
1.04874
1.09051
0.910353
0.873247
0.855301
1.05521
1.16282
1.08094
1.13025
0.91628
0.977452
0.919771
1.14454
1.07839
1.14908
1.22829
1.18966
1.58924
1.18528
1.2372
1.6863
1.24199
1.67874
1.58643
1.1841
1.18349
1.23544
1.67789
1.23643
1.67608
0.898949
1.01195
0.935948
1.20976
1.11801
1.1704
1.27485
1.18648
1.61131
1.19415
1.68693
1.2402
1.25106
1.70815
1.23581
1.64199
1.21015
1.2722
1.79852
1.30502
1.74493
1.05594
1.07403
0.987603
1.24195
1.4745
1.36175
1.3364
1.41233
1.94056
1.80176
1.30808
1.93336
1.7939
1.40544
1.30635
1.93147
1.40669
1.79401
1.30809
1.7915
1.40368
1.27324
1.8346
1.32674
1.87063
1.35268
1.42155
1.95893
1.05297
0.981085
1.06522
1.23331
1.33226
1.34955
1.46646
1.41672
1.80542
1.31422
1.32972
1.97325
1.83084
1.43885
1.35771
1.93183
2.01662
1.53217
1.40099
1.87332
1.47637
1.50972
1.93776
1.40342
1.51644
2.18225
2.06292
1.64259
1.24984
1.25219
1.14262
1.62057
1.4583
1.61661
1.80302
1.26596
1.171
1.302
1.69733
1.50053
1.64144
1.86142
2.00575
1.61047
1.46334
1.54941
2.24203
2.09572
1.71488
1.66383
2.00035
2.31287
2.33783
2.20051
1.84676
1.80896
1.65074
2.30844
1.8027
2.32576
1.82858
1.9899
2.42525
1.52473
1.54753
1.3818
1.81548
2.25075
2.05128
2.02063
2.16281
2.41979
1.9797
2.1586
2.55381
2.32583
2.50649
2.44677
2.23535
2.03112
2.18286
2.5584
2.36776
2.51436
0.809962
0.903174
0.918849
0.824064
1.32606
1.55896
1.3243
1.61024
0.781909
0.8147
0.78593
0.952209
0.959217
0.988824
0.997638
0.794481
0.843922
0.816449
0.98884
0.971006
1.01227
1.03262
0.893292
1.11889
1.1032
0.845449
0.852249
1.03736
1.04919
0.940922
0.883763
0.864079
1.17653
1.09351
1.14342
1.06818
1.19663
1.63456
1.2091
1.70219
1.25038
1.26616
1.73039
1.25604
1.83178
1.72215
1.67187
1.22904
1.29147
1.77357
1.42707
1.95816
1.81951
1.45458
1.99
1.3448
1.85132
1.42465
1.49787
1.96122
2.10266
2.03836
1.37782
1.89942
0.528515
0.937976
0.533336
0.672203
0.587853
0.599364
0.587268
0.677652
0.474787
0.468559
0.519842
0.479897
0.487765
0.534605
0.545267
0.521438
0.561028
0.500544
0.541343
0.484776
0.501051
0.562072
0.518175
0.49589
0.506833
0.583157
0.554998
0.569355
0.602478
0.587166
0.697539
0.680719
0.707912
0.607195
0.622224
0.728855
0.556291
0.668839
0.622905
0.550277
0.524577
0.591507
0.630708
0.447826
0.741434
0.493257
0.511994
0.583166
0.492398
0.738711
0.444214
0.652175
0.458029
0.492755
0.508543
0.739333
0.654659
0.57762
0.652778
0.451813
0.461046
0.497244
0.464036
0.500205
0.512544
0.514739
0.457583
0.494095
0.442354
0.437733
0.455534
0.493189
0.51138
0.43934
0.459401
0.456619
0.495185
0.493371
0.511031
0.511695
0.463668
0.474616
0.469565
0.512729
0.506002
0.520177
0.5268
0.553098
0.530979
0.474423
0.492879
0.473609
0.530392
0.552623
0.492603
0.474894
0.473962
0.529651
0.55119
0.52956
0.551708
0.475433
0.495398
0.47785
0.551413
0.529786
0.531661
0.553881
0.563281
0.678407
0.655205
0.653213
0.561762
0.581948
0.676753
0.652009
0.561509
0.56096
0.580969
0.675266
0.580929
0.675527
0.501371
0.489068
0.483373
0.537558
0.570261
0.545323
0.560711
0.562699
0.654417
0.564847
0.675428
0.581345
0.582882
0.676877
0.668241
0.65942
0.570059
0.588057
0.69305
0.596267
0.682563
0.63301
0.605339
0.705806
0.604268
0.740041
0.704312
0.632117
0.603173
0.738928
0.63054
0.702718
0.60277
0.703102
0.631058
0.63078
0.702843
0.602902
0.604632
0.743786
0.70525
0.633726
0.621125
0.726467
0.771426
0.610962
0.75472
0.713156
0.642042
0.643011
0.616883
0.721685
0.756947
0.803051
0.644794
0.759575
0.634709
0.745144
0.795276
0.65438
0.829591
0.772132
0.697851
0.78218
0.723708
0.863045
0.683474
0.876785
0.810835
0.734138
0.84286
0.628573
0.621881
0.722097
1.00829
0.818652
0.792388
0.646783
0.549703
0.589299
0.523373
0.554376
0.586757
0.627471
0.666982
0.717662
0.664328
0.584483
0.679501
0.628129
0.716906
0.778465
0.594935
0.693018
0.633922
0.739993
0.677039
0.72406
0.795253
0.679943
0.805851
0.86079
0.870059
0.729222
0.779337
0.934057
0.742135
0.682592
0.749828
0.782255
0.943935
0.862685
0.85307
0.77603
1.01422
0.929829
0.84168
1.10734
0.917579
1.01256
0.871497
0.951085
1.05126
0.850929
1.13516
0.939103
1.02455
1.1179
1.35737
1.22019
1.23614
1.11347
1.02059
0.922364
0.530156
0.520638
0.447008
0.47602
0.678013
0.636702
0.584695
0.567221
0.468793
0.4375
0.474879
0.496863
0.460081
0.465375
0.490005
0.427205
0.466585
0.419859
0.373239
0.412684
0.430265
0.502073
0.432512
0.383321
0.361899
0.389302
0.421682
0.443175
0.415586
0.462852
0.357847
0.379395
0.367613
0.375369
0.366161
0.376194
0.381941
0.396052
0.377273
0.398062
0.331415
0.35624
0.338941
0.358443
0.341336
0.353109
0.360229
0.523178
0.455512
0.398205
0.619654
0.502898
0.541269
0.486149
0.471128
0.499798
0.499094
0.422396
0.370336
0.387445
0.455025
0.372921
0.406577
0.391934
0.394415
0.383205
0.40729
0.421658
0.390961
0.399527
0.397831
0.412374
0.412789
0.416034
0.420519
0.393596
0.440961
0.417832
0.410598
0.392047
0.417861
0.44045
0.342546
0.382407
0.371771
0.357127
0.349491
0.367836
0.374709
0.381417
0.432728
0.393231
0.400964
0.374851
0.383193
0.409595
0.374473
0.407171
0.412441
0.4195
0.381836
0.386654
0.423105
0.425002
0.410359
0.41736
0.446692
0.439962
0.430441
0.46126
0.461335
0.438114
0.435778
0.438052
0.473303
0.445327
0.463092
0.416898
0.410234
0.397972
0.426231
0.46219
0.440464
0.448236
0.425234
0.413624
0.408885
0.426574
0.452803
0.442867
0.434093
0.366105
0.383936
0.392804
0.406402
0.37824
0.384392
0.397675
0.439237
0.411007
0.40397
0.390442
0.424442
0.3973
0.417264
0.382556
0.417831
0.421443
0.390858
0.431099
0.394739
0.427654
0.348046
0.127681
0.192171
0.0547316
0.129296
0.774169
0.347151
0.590612
0.059642
0.0768333
0.105058
0.0664881
0.164106
0.116484
0.0625533
0.601204
0.197783
0.491608
0.284361
0.461468
0.301287
0.499706
0.0675889
0.0577844
0.08969
0.141802
0.0939435
0.190165
0.0713947
0.130243
0.315376
0.257026
0.0859549
0.247493
0.184814
0.0835405
0.248291
0.200859
0.353322
0.271251
0.366465
0.28881
0.381671
0.714247
0.470946
0.36851
0.462071
0.539886
0.341405
0.456037
0.158449
0.258948
0.267604
0.208537
0.139914
0.237692
0.103982
0.420131
0.398831
0.344179
0.312611
0.379764
0.316746
0.398966
0.107636
0.360929
0.0511629
0.0604516
0.196454
0.176493
0.330815
0.0501188
0.0783491
0.0925561
0.338092
0.241889
0.422557
0.933015
0.216211
0.925467
0.0513666
0.0587914
0.0962757
0.0637634
0.0605347
0.106289
0.0514986
0.109307
0.178534
0.242981
0.124028
0.261867
0.19375
0.215498
0.286843
0.296166
0.271791
0.336847
0.29789
0.267778
0.334827
0.175225
0.190351
0.260435
0.326371
0.109207
0.199488
0.265754
0.1407
0.0570897
0.067709
0.0769023
0.129952
0.162388
0.0617948
0.327264
0.386175
0.326022
0.445031
0.481337
0.588347
0.397853
0.0520055
0.0505471
0.05042
0.0528815
0.0501087
0.0513109
0.0501599
0.339438
0.530309
0.446807
0.519944
0.842796
0.733291
0.547963
0.13897
0.288671
0.260102
0.251339
0.215477
0.235805
0.156823
0.0683336
0.0658158
0.150064
0.0538659
0.121648
0.0516652
0.076276
0.458907
0.342128
0.566412
0.412799
0.315312
0.419266
0.654195
0.47359
0.148988
0.34544
0.509137
0.249092
0.396568
0.646882
0.0543353
0.0500574
0.053014
0.0498962
0.0519294
0.0500922
0.0565213
0.663233
0.685583
0.749952
1.12989
0.880955
0.544923
0.889111
0.777098
0.983898
1.16027
0.725998
1.0136
0.74014
0.886973
0.0885037
0.153207
0.206836
0.0804012
0.183948
0.069359
0.102581
0.0520086
0.0482433
0.0637426
0.0487166
0.0499135
0.0525764
0.0502758
0.0493199
0.0512177
0.0503308
0.050072
0.0510541
0.049686
0.0492776
0.0503399
0.0496402
0.0502468
0.0497703
0.0499049
0.049879
0.0493856
0.0493855
0.0482146
0.0494392
0.0492475
0.0486649
0.0586833
0.0492955
0.053233
0.0510533
0.0647647
0.0683427
0.0551421
0.0488552
0.0487576
0.0556973
0.0481804
0.0488632
0.0489815
0.0487271
0.0480521
0.0480215
0.0487537
0.0491399
0.0497393
0.0492284
0.0498394
0.0495512
0.0491584
0.0493706
0.107362
0.0562485
0.0815171
0.0504666
0.0740366
0.0538206
0.0615126
0.0513669
0.0488066
0.0492555
0.0485714
0.0482047
0.0484771
0.0487117
0.487625
0.954556
0.664652
0.615469
0.913336
0.467664
0.4491
0.367528
0.377748
0.834363
0.90438
0.66822
0.69535
0.558476
0.917237
0.560285
0.451953
0.42943
0.810641
0.734736
0.4147
0.447251
0.401421
0.4132
0.380344
0.430018
0.382164
0.409216
0.425722
0.401358
0.865471
0.407877
0.606869
0.518241
0.792284
0.49152
0.39785
0.753235
0.493377
0.489607
0.610208
0.724353
0.502239
0.516256
0.424414
0.401036
0.423706
0.447327
0.452992
0.426735
0.477854
0.389297
0.366976
0.407874
0.424858
0.406904
0.415045
0.39975
0.904101
0.794626
0.804249
0.646077
0.844883
0.564113
0.790019
0.561801
0.443102
0.361405
0.460484
0.671662
0.400852
0.356992
0.453105
0.565212
0.609868
0.482417
0.480274
0.434914
0.513243
0.455437
0.472559
0.470463
0.43675
0.442891
0.436024
0.487839
0.95777
0.718389
0.816351
0.485229
0.656847
0.442055
0.734744
0.565151
0.401025
0.419685
0.404111
0.43186
0.411785
0.514924
0.467786
0.393596
0.547138
0.385412
0.394474
0.369987
0.396255
0.364908
0.395496
0.376687
0.380339
0.416253
0.377224
0.411104
1.13289
0.535714
0.752281
0.786696
0.949235
1.01979
1.06271
0.40325
0.723237
0.812112
0.569802
0.630482
0.919185
0.955395
1.05177
0.457711
0.450569
0.514243
0.564904
0.717879
0.767116
0.627306
0.685101
0.79052
0.824377
0.938707
0.794573
0.996091
0.897194
0.63762
0.688871
0.521298
0.682841
0.580988
0.799402
0.857075
1.10869
1.2544
1.17212
1.19509
0.897068
1.09935
1.2419
1.10872
0.858085
0.805206
1.27403
1.03595
1.06701
1.29937
1.11083
0.962182
0.899806
1.06756
1.08126
1.027
1.26726
1.14481
0.809238
0.640331
0.747887
0.958436
0.938697
1.12428
0.404393
0.455874
0.43974
0.445458
0.427008
0.415313
0.476333
0.39196
0.445955
0.41287
0.431152
0.39371
0.428051
0.410293
0.127307
0.290147
0.0847405
0.273521
0.2239
0.0499295
0.0792749
0.1309
0.0572389
0.0483127
0.0475602
0.219112
0.387558
0.397161
0.36423
0.206433
0.353123
0.181334
0.0483606
0.0688349
0.0516387
0.0703569
0.0523994
0.0593651
0.0949912
0.089416
0.127239
0.222952
0.130892
0.227381
0.247774
0.172771
0.0475191
0.0471731
0.047437
0.0476015
0.0478689
0.0494029
0.0475346
0.281632
0.353977
0.299344
0.360185
0.303974
0.316358
0.36202
0.245418
0.169272
0.0526869
0.312082
0.289772
0.14009
0.254363
0.412966
0.373976
0.229932
0.456991
0.344331
0.300189
0.431613
0.140872
0.0990008
0.0608665
0.0755133
0.174738
0.133551
0.106872
0.0940583
0.0741572
0.0588695
0.0739743
0.167253
0.101712
0.130447
0.279396
0.17925
0.253848
0.269522
0.236572
0.21018
0.293373
0.264937
0.171048
0.245785
0.265115
0.228702
0.284042
0.206363
0.0563097
0.048069
0.0501669
0.0547955
0.054113
0.0662933
0.0490366
0.0539404
0.0471651
0.049028
0.0540699
0.0526999
0.0639776
0.0485617
0.344069
0.37341
0.325301
0.330847
0.383364
0.3708
0.346533
0.325302
0.358975
0.31376
0.325179
0.370125
0.335532
0.363755
0.286428
0.25485
0.31686
0.250835
0.301559
0.230806
0.30612
0.102745
0.175013
0.202507
0.198623
0.136906
0.169027
0.140348
0.103394
0.198317
0.136897
0.201615
0.140337
0.17413
0.22268
0.286143
0.250296
0.301432
0.253541
0.306019
0.316886
0.272692
0.0644825
0.120987
0.063617
0.0624437
0.0846189
0.0867647
0.0530659
0.0644522
0.0623048
0.0847027
0.0631817
0.0870952
0.120693
0.0844681
0.338193
0.356391
0.386531
0.380805
0.344966
0.372983
0.349989
0.338686
0.38128
0.345187
0.38815
0.350875
0.35701
0.398088
0.162181
0.0834808
0.119157
0.161573
0.185738
0.205983
0.126785
0.327301
0.271341
0.314898
0.327409
0.305706
0.289836
0.340407
0.208733
0.221676
0.172723
0.207978
0.267704
0.238437
0.244727
0.0883708
0.172693
0.125934
0.164903
0.194045
0.212104
0.130721
0.227152
0.217753
0.179448
0.210849
0.273364
0.243854
0.24754
0.278104
0.33986
0.323516
0.331389
0.312283
0.348782
0.292987
0.366305
0.394853
0.354492
0.366633
0.432692
0.382092
0.413285
0.407902
0.381695
0.364813
0.371511
0.443808
0.392006
0.419287
0.44806
0.397167
0.432479
0.401669
0.451319
0.435418
0.420533
0.445829
0.47482
0.481115
0.469256
0.462849
0.485295
0.49951
0.401246
0.444427
0.413966
0.423539
0.394203
0.414468
0.435086
0.44879
0.473039
0.448788
0.480629
0.458345
0.480159
0.503813
0.450344
0.462432
0.432723
0.434601
0.407462
0.421172
0.448645
0.448238
0.485323
0.487226
0.476228
0.463909
0.45854
0.472461
0.455489
0.440968
0.469767
0.50056
0.471654
0.486578
0.51645
0.424791
0.430465
0.39586
0.435341
0.401076
0.410962
0.442749
0.206903
0.242322
0.283924
0.245792
0.250046
0.247437
0.187216
0.406684
0.432722
0.456886
0.444569
0.411584
0.44022
0.426527
0.239303
0.289243
0.292265
0.292088
0.268387
0.265846
0.268767
0.486916
0.462003
0.43548
0.384669
0.436337
0.410325
0.405599
0.342596
0.322532
0.386047
0.326091
0.363543
0.307254
0.359231
0.50632
0.4972
0.482763
0.505434
0.549251
0.530045
0.522036
0.5363
0.508873
0.476155
0.506641
0.569231
0.539048
0.532932
0.509373
0.525082
0.495319
0.511481
0.561023
0.542059
0.527928
0.441625
0.45046
0.419078
0.430552
0.484596
0.460484
0.455221
0.47846
0.470023
0.44939
0.43855
0.491113
0.460666
0.467102
0.424969
0.440132
0.40822
0.425123
0.473996
0.444414
0.455229
0.487676
0.49448
0.524407
0.523418
0.555298
0.520154
0.556365
0.499478
0.469153
0.446582
0.503886
0.473728
0.49993
0.532309
0.529341
0.542408
0.50648
0.537232
0.498359
0.525512
0.567577
0.586818
0.551657
0.580839
0.532573
0.596054
0.565315
0.55929
0.532957
0.500464
0.469418
0.447047
0.50501
0.476642
0.4746
0.59233
0.598364
0.557857
0.55889
0.649906
0.604873
0.599032
0.568709
0.532903
0.497746
0.532693
0.613094
0.572601
0.568455
0.539655
0.54822
0.507243
0.537579
0.624636
0.583275
0.573537
0.733153
0.667299
0.620473
0.575085
0.673731
0.626235
0.615769
2.33511
2.56335
2.56033
2.56555
2.48496
2.46884
2.55503
1.68184
1.36663
1.24825
1.24496
1.26687
1.47926
1.51503
0.513801
0.723179
0.650414
0.743573
0.537673
0.903743
0.90204
0.660058
0.473983
0.498307
0.465746
0.560578
0.548624
0.523142
0.531329
0.89263
0.825241
0.815797
0.764416
0.747261
0.631479
0.618397
0.53295
0.484
0.497366
0.552936
0.531422
0.559677
0.542591
0.890838
0.716932
0.676081
0.602198
0.755211
0.791714
0.606136
0.571124
0.565036
0.657107
0.584081
0.679915
0.682564
0.588155
0.739072
0.672397
0.605804
0.692864
0.731133
0.723598
0.613413
0.633762
0.605918
0.707341
0.636891
0.749187
0.710849
0.608922
0.759816
0.70663
0.784192
0.720544
0.749622
0.708668
0.62671
0.449344
0.878031
0.547901
0.717916
0.518312
0.724933
0.424666
0.803501
0.437454
0.441295
0.52495
0.548646
0.474451
0.45458
0.490408
0.832522
0.700471
0.731504
0.756956
0.590926
0.616274
0.784296
0.458291
0.567433
0.564137
0.483905
0.469389
0.50481
0.515292
0.821774
0.806973
0.858016
0.766696
0.754475
0.632716
0.637626
0.610342
0.507144
0.601561
0.605999
0.518209
0.529947
0.61509
0.53221
0.622359
0.637891
0.542913
0.641589
0.626829
0.556368
0.698126
0.683018
0.701742
0.620642
0.562038
0.577555
0.630749
0.746111
0.655936
0.598972
0.741019
0.710142
0.590079
0.642346
0.0548457
0.438407
0.0519398
0.0467352
0.0471574
0.0497967
0.174242
0.0477264
0.175223
0.539364
0.187531
0.186652
0.274861
0.308113
0.521363
0.603719
0.0522156
0.0465376
0.0465677
0.0645257
0.0493724
0.0494996
0.0635087
0.203099
0.0762646
0.0805019
0.147161
0.311467
0.294931
0.137485
0.0524085
0.0469992
0.0464729
0.0498622
0.070677
0.05146
0.0647093
0.0473226
0.0473907
0.0472158
0.0464692
0.0471972
0.0464537
0.0470806
0.55078
0.373056
0.397013
0.583893
0.450351
0.43578
0.574628
0.173328
0.0858609
0.0766732
0.278173
0.142422
0.131475
0.265471
0.501844
0.322226
0.345015
0.412224
0.471352
0.374445
0.536458
0.0469813
0.046956
0.0471595
0.0464387
0.046748
0.0466498
0.0468929
0.234501
0.394001
0.384534
0.36672
0.298835
0.382456
0.224654
0.104006
0.0567863
0.171493
0.0805328
0.0802389
0.0568451
0.100461
0.0582076
0.111476
0.0911458
0.168315
0.0822147
0.0624453
0.100337
0.0478828
0.046854
0.0479383
0.0530581
0.0532287
0.0477933
0.0467751
0.345273
0.214127
0.288331
0.349719
0.370429
0.214817
0.314472
0.595984
0.500964
0.473973
0.46864
0.59445
0.494476
0.587473
0.0484115
0.0468542
0.057952
0.048538
0.0544819
0.0497896
0.0466822
0.453804
0.500365
0.444942
0.568057
0.478303
0.416827
0.556211
0.13495
0.400793
0.0616239
0.0483689
0.0465877
0.0965611
0.236214
0.0524718
0.187793
0.372543
0.210759
0.216447
0.288775
0.266548
0.425741
0.4749
0.0492113
0.0753069
0.0531043
0.0854772
0.0556654
0.0640536
0.11161
0.109641
0.144662
0.24101
0.167682
0.263931
0.268854
0.196233
0.316196
0.383227
0.319544
0.427304
0.353719
0.346969
0.403061
0.0467731
0.0467049
0.0470154
0.0466661
0.0477476
0.0503905
0.0470544
0.101122
0.076166
0.0607604
0.0807647
0.175381
0.108258
0.143589
0.269411
0.181462
0.253951
0.280393
0.235733
0.220529
0.293526
0.13271
0.109232
0.0715648
0.0900038
0.205385
0.133837
0.159276
0.223666
0.335432
0.299438
0.30046
0.268729
0.332165
0.236924
0.0544636
0.0469911
0.0493678
0.0558055
0.0533027
0.0663108
0.0488282
0.0477972
0.0647884
0.052413
0.0585583
0.0584888
0.0786671
0.0501003
0.375743
0.331628
0.326584
0.345742
0.385752
0.348142
0.39007
0.453039
0.413905
0.386316
0.372505
0.444635
0.395615
0.423282
0.117503
0.20887
0.189398
0.220553
0.160826
0.147831
0.186621
0.308231
0.26197
0.277688
0.335732
0.33368
0.248285
0.316091
0.0703268
0.0656161
0.135834
0.0708807
0.103179
0.0926897
0.0549591
0.365143
0.403254
0.379301
0.427676
0.383048
0.363178
0.406571
0.395352
0.413906
0.417117
0.377837
0.351572
0.367841
0.293697
0.311344
0.284565
0.327303
0.343487
0.333607
0.350885
0.352218
0.352011
0.372014
0.382278
0.363836
0.409736
0.378383
0.373988
0.397839
0.344003
0.358234
0.346327
0.357993
0.352164
0.357655
0.368464
0.310641
0.318879
0.334632
0.329485
0.348548
0.358266
0.349739
0.395941
0.363805
0.382055
0.384383
0.401679
0.409196
0.37631
0.378453
0.367038
0.364436
0.37589
0.396568
0.394405
0.381623
0.370123
0.344919
0.351734
0.369636
0.382467
0.382595
0.367219
0.388597
0.407235
0.412921
0.397827
0.407871
0.396337
0.38657
0.072999
0.226406
0.157537
0.0610436
0.180954
0.0577076
0.0518274
0.0556284
0.0580844
0.219674
0.288518
0.25225
0.0622874
0.0840879
0.179752
0.247999
0.0710977
0.197614
0.110717
0.104877
0.0650485
0.126074
0.135151
0.0551028
0.0558873
0.0635011
0.0554302
0.0539187
0.0561856
0.0687841
0.235332
0.230644
0.234313
0.17923
0.197028
0.223292
0.244395
0.101705
0.199458
0.102672
0.0683204
0.12466
0.123933
0.180246
0.0698605
0.0644353
0.0808529
0.0572932
0.0576184
0.0574029
0.0559547
0.0568409
0.0546416
0.0579309
0.0554995
0.0548081
0.0566981
0.0555074
0.269216
0.252814
0.241151
0.250945
0.244646
0.240463
0.259664
0.219323
0.239574
0.238058
0.231674
0.200086
0.226115
0.24849
0.177604
0.0945065
0.16376
0.227524
0.212579
0.0811827
0.146241
0.051628
0.057477
0.086657
0.0567015
0.0563587
0.0524834
0.0771896
0.160419
0.16093
0.231904
0.215939
0.076317
0.144167
0.143423
0.261998
0.27264
0.256673
0.254828
0.242074
0.247589
0.212346
0.0981041
0.0882321
0.118809
0.0548831
0.0619264
0.0587393
0.0547971
0.0520995
0.0517343
0.0513904
0.0530186
0.0534567
0.0529332
0.0534174
0.31323
0.286226
0.305885
0.293814
0.269937
0.264128
0.279134
0.27658
0.319918
0.305816
0.25267
0.253181
0.217994
0.266966
0.0485682
0.0831623
0.0493587
0.0502431
0.0505652
0.0553164
0.0512719
0.0546028
0.0511453
0.0520953
0.311558
0.0826595
0.0537128
0.0520965
0.0628124
0.111642
0.0554991
0.0542401
0.0545963
0.0531489
0.0532872
0.0538547
0.0530934
0.0544076
0.0550718
0.062559
0.0565502
0.0553869
0.05331
0.0683456
0.054927
0.0567413
0.0561863
0.0532781
0.0547088
0.0543386
0.0534971
0.098618
0.0903719
0.170004
0.0682168
0.189567
0.119695
0.111841
0.0514769
0.05125
0.0518761
0.0530696
0.0531381
0.0519176
0.0523476
0.0526979
0.0562777
0.0538306
0.0534861
0.0543671
0.0540787
0.0530325
0.0517344
0.0518137
0.0511385
0.052321
0.0508008
0.0523288
0.0521358
0.0579487
0.0632991
0.0842905
0.0581567
0.0568768
0.0529607
0.07561
0.0515297
0.0502909
0.0514276
0.0535162
0.0532553
0.0518284
0.0519197
0.0516954
0.0504173
0.0528288
0.0511721
0.0505051
0.0525899
0.0517486
0.142514
0.0718864
0.0608444
0.0574263
0.0673756
0.0627927
0.0917269
0.328472
0.339025
0.175942
0.0791384
0.221396
0.140315
0.166103
0.0566274
0.0526771
0.0656842
0.0522076
0.0632494
0.0572136
0.0521742
0.0489899
0.0504463
0.0497239
0.0502975
0.050854
0.050026
0.0515674
0.0483749
0.0490792
0.0492522
0.0505149
0.0493952
0.0495526
0.0504401
0.180087
0.120239
0.282328
0.24252
0.108112
0.0770802
0.168568
0.323087
0.26483
0.298888
0.518249
0.411792
0.680955
0.220534
0.218882
0.260508
0.277355
0.251935
0.265589
0.247999
0.265246
0.2857
0.210594
0.238356
0.233741
0.250524
0.22981
0.249878
0.232596
0.279351
0.294766
0.252581
0.282341
0.360567
0.307671
0.348197
0.327442
0.326117
0.28468
0.29132
0.350621
0.354879
0.313167
0.347847
0.268462
0.272811
0.282885
0.488543
0.394829
0.297189
0.308201
0.288546
0.235735
0.269853
0.406242
0.361241
0.267253
0.330129
0.421007
0.403879
0.545692
0.421939
0.347259
0.433309
0.336014
0.595536
0.57475
0.534602
0.467807
0.464497
0.373118
0.355007
0.350269
0.264232
0.697175
0.533221
0.44622
0.26346
0.142469
0.192023
0.182605
0.193386
0.212387
0.193167
0.234248
0.296406
0.172969
0.273526
0.104497
0.227907
0.214883
0.376822
0.320964
0.667341
0.613414
0.292627
0.371613
0.370808
0.53334
0.700744
0.367872
0.272844
0.219471
0.501038
0.311973
0.435242
0.522236
0.423175
0.330845
0.354462
0.456238
0.365332
0.461593
0.350799
0.320918
0.278597
0.332023
0.416262
0.29261
0.339668
0.320395
0.729646
0.63364
0.483322
0.621818
0.494265
0.68949
0.54666
0.451454
0.366419
0.321755
0.341731
0.427114
0.33619
0.345982
0.0958542
0.375289
0.0522036
0.0514088
0.046998
0.0469089
0.0477439
0.0486518
0.0493004
0.36335
0.173691
0.14756
0.339305
0.122522
0.0518412
0.152909
0.0500047
0.0498293
0.0506613
0.048797
0.0491892
0.0481486
0.0484662
0.0514553
0.0632269
0.0563405
0.0518958
0.0646846
0.0838604
0.056082
0.0496661
0.0488322
0.0497273
0.0481329
0.048312
0.0477294
0.0475168
0.24551
0.109073
0.0738203
0.119292
0.265138
0.183636
0.315831
0.0478721
0.0485716
0.0490151
0.0474721
0.05668
0.047941
0.0511303
0.0660296
0.0560432
0.0818073
0.123285
0.0881731
0.178995
0.0659213
0.0467958
0.0476325
0.0482727
0.0470708
0.0582361
0.0482634
0.0512602
0.0724231
0.0570469
0.0906773
0.130707
0.0961361
0.19441
0.0675699
0.0476293
0.0478541
0.0480915
0.0473749
0.047122
0.0471772
0.0472587
0.243568
0.308651
0.1772
0.244508
0.351001
0.279852
0.34058
0.273102
0.202362
0.335573
0.252741
0.368092
0.292186
0.350378
0.0469367
0.0471943
0.0473611
0.0471166
0.0467121
0.0466364
0.0470421
0.0479879
0.0707206
0.0688929
0.059257
0.0519267
0.0514697
0.0569158
0.182985
0.247616
0.132959
0.127794
0.228647
0.223317
0.0900257
0.0468884
0.0489819
0.0467367
0.0468921
0.0469833
0.0471456
0.0468571
0.282577
0.362518
0.316825
0.354586
0.305033
0.299506
0.354998
0.604996
0.631454
0.61641
0.430749
0.415248
0.465959
0.665963
0.457844
0.658602
0.583419
0.453481
0.438489
0.54333
0.471021
0.618797
0.67401
0.419709
0.430187
0.433931
0.461589
0.464575
0.478716
0.476323
0.424587
0.443157
0.437828
0.475259
0.469562
0.482305
0.487113
0.446414
0.44984
0.482102
0.455897
0.490357
0.493619
0.501108
0.443852
0.459748
0.446885
0.493001
0.50646
0.507557
0.491256
0.45452
0.461843
0.449839
0.495523
0.513282
0.509447
0.499658
0.460518
0.466437
0.461061
0.508833
0.49916
0.508865
0.517152
0.607975
0.522028
0.524903
0.538251
0.618841
0.536098
0.621111
0.460377
0.474833
0.464963
0.519312
0.506023
0.51269
0.52545
0.611788
0.534147
0.529148
0.541324
0.62819
0.623963
0.545641
0.622416
0.54028
0.548612
0.635024
0.552018
0.560853
0.645404
0.486923
0.527872
0.474639
0.479143
0.468862
0.519344
0.532462
0.55415
0.637224
0.660046
0.570469
0.571563
0.552608
0.638981
0.556353
0.645065
0.576917
0.661871
0.573292
0.641121
0.56012
0.572082
0.675397
0.660487
0.644233
0.559295
0.571365
0.658845
0.652512
0.58367
0.566746
0.575451
0.685594
0.592307
0.66344
0.598005
0.695239
0.723674
0.585345
0.701092
0.603014
0.677079
0.0608987
0.158545
0.0635585
0.0696576
0.0629443
0.0598527
0.0603958
0.0575088
0.0608891
0.0647578
0.0618928
0.0598162
0.0589139
0.062738
0.0620912
0.0600078
0.0882541
0.163208
0.0779366
0.0617151
0.0586066
0.0734024
0.0623139
0.0628706
0.0620465
0.0653687
0.0642707
0.0624268
0.0640783
0.0612061
0.13965
0.0610417
0.0594436
0.0635892
0.0580824
0.0663174
0.0619694
0.0635493
0.0617215
0.0624526
0.0652094
0.0641052
0.0641189
0.0588325
0.0616978
0.0605523
0.0613672
0.0602945
0.0590409
0.0623887
0.0608451
0.0574972
0.0580486
0.0614796
0.0595284
0.0634276
0.0583074
0.059438
0.0556802
0.0570227
0.0604215
0.0597475
0.0579323
0.0571701
0.0598651
0.0857345
0.0613741
0.0598846
0.0596491
0.0626707
0.0652194
0.0607956
0.0606724
0.0593547
0.060939
0.0598446
0.0615074
0.0601314
0.0607263
0.059153
0.0597299
0.0614179
0.0613028
0.0608677
0.0589926
0.0888623
0.173677
0.109419
0.125069
0.129484
0.0764284
0.140895
0.0756205
0.119415
0.0636493
0.0677477
0.104242
0.0600738
0.0860843
0.0638752
0.0585606
0.0679979
0.0606162
0.079163
0.0612167
0.0582587
0.063081
0.0633874
0.0618673
0.0629862
0.0627274
0.0626953
0.063632
0.062928
0.06248
0.0630203
0.0619893
0.0631728
0.0625705
0.0626124
0.064705
0.0651886
0.0652272
0.0653151
0.0648185
0.0649354
0.0653614
0.0640429
0.0640682
0.0639863
0.0644554
0.0642278
0.0636443
0.0643221
0.0608326
0.0622287
0.0605874
0.0608117
0.0602306
0.0616094
0.0613735
0.0615079
0.112566
0.0827633
0.0910347
0.0649555
0.068642
0.0739576
0.0607911
0.0609167
0.0618513
0.0620225
0.0608793
0.0616433
0.062035
0.0601212
0.0588377
0.0609339
0.0591739
0.0605091
0.0607724
0.0587427
0.0615613
0.0632181
0.0631041
0.0623391
0.0619194
0.0626591
0.0620729
0.0595966
0.0593742
0.0621334
0.0585999
0.059566
0.0601499
0.0595545
0.0615317
0.0624341
0.0710513
0.0647579
0.0626626
0.0618704
0.0660914
0.063091
0.0616333
0.0622948
0.0628967
0.0624261
0.0631316
0.0626599
0.0633919
0.0620962
0.0634338
0.0631172
0.0637003
0.0629822
0.0629377
0.0644007
0.0648379
0.065077
0.0651593
0.0645701
0.0648331
0.0650598
0.0638936
0.0636809
0.063951
0.0643044
0.0639667
0.0642153
0.063505
0.0610137
0.0608714
0.0601629
0.0618993
0.0601199
0.0610266
0.0618319
0.0595746
0.0582821
0.0577712
0.0581172
0.0587373
0.0590569
0.05849
0.0598939
0.0591706
0.0580108
0.0588069
0.0590912
0.0599309
0.0587505
0.0612839
0.0613824
0.0623364
0.0608551
0.0614933
0.0620945
0.0606589
0.06054
0.0593181
0.060826
0.0594903
0.0605608
0.0607842
0.0593157
0.0616868
0.0628884
0.0631233
0.0622008
0.0617875
0.0620084
0.0627052
0.0602
0.0585334
0.0598041
0.05911
0.060412
0.0596765
0.0590645
0.0576756
0.0580007
0.0563141
0.0574903
0.0575156
0.0585352
0.0565959
0.0588927
0.060554
0.0595468
0.0600463
0.0589313
0.0598286
0.0598645
0.0563902
0.0563375
0.0575366
0.0575515
0.0569182
0.0558582
0.0553183
0.0576331
0.0575473
0.0586826
0.0564954
0.0574516
0.0587925
0.0563598
0.353948
0.341843
0.290009
0.290212
0.395666
0.382772
0.427113
0.40817
0.28834
0.300349
0.300166
0.325162
0.323763
0.333148
0.334009
0.2869
0.309165
0.301783
0.324611
0.322854
0.332892
0.335478
0.432409
0.389929
0.549261
0.367436
0.272752
0.247334
0.233203
0.196864
0.184786
0.117809
0.113401
0.290063
0.285674
0.354262
0.345408
0.278072