/*--------------------------------*- C++ -*----------------------------------*\
  =========                 |
  \\      /  F ield         | OpenFOAM: The Open Source CFD Toolbox
   \\    /   O peration     | Website:  https://openfoam.org
    \\  /    A nd           | Version:  9
     \\/     M anipulation  |
\*---------------------------------------------------------------------------*/
FoamFile
{
    format      ascii;
    class       volScalarField;
    location    "0.00035";
    object      lambda.c4;
}
// * * * * * * * * * * * * * * * * * * * * * * * * * * * * * * * * * * * * * //

dimensions      [0 0 0 0 0 0 0];

internalField   nonuniform List<scalar> 
4953
(
1.04495e-38
7.89647e-95
2.46151e-62
1
1
1
1
1
1
1
1
1
1
1
1
1
1
1
1
1
1.89193e-34
1
1
1
1
1
1
1
1
1
1
1
1
1
1
1
1
1
1
1
1
1
1
1
1
1
1
1
1
1
1
1
1
1
1
1
1
1
1
1
1
1
1
1
1
1
1
1
1
1
1
1
1
1
1
1
1
3.98128e-32
1.57494e-61
0
1
1
1
0
1
1
0.5
1
1
1
1
1
0.5
1
2.34814e-83
6.05974e-39
9.35398e-97
1
1
1
1
1
0.5
1
0.5
1
1
1
1
1
0.5
1
0.5
1
1
1
0.5
1
4.88247e-40
2.056e-41
1.39787e-41
1
1
1.49013e-40
5.00452e-41
1
1.16436e-82
1.02957e-42
6.01085e-84
6.0375e-126
2.42238e-87
1.13656e-40
1
8.89399e-41
1
1
2.18625e-40
1.04951e-40
7.53453e-40
1
4.11687e-40
1
2.70079e-40
1
7.79021e-40
7.26165e-42
0.5
1.14396e-41
0.5
8.86863e-42
0.5
1.16414e-41
1.32087e-128
2.34084e-84
4.96969e-127
2.6863e-121
1.01126e-128
4.17368e-123
5.00332e-166
5.33619e-37
9.036e-116
8.9788e-71
1.41154e-70
3.14808e-108
1.92685e-180
0
5.79313e-71
1.31155e-108
1
1
1
1
1
1
1
1
1
1
1
1
1
1
8.10321e-40
1
1
4.71927e-40
1
8.57772e-40
2.94872e-40
1
1
1
1
1
1
1
1
1
1
1
1
1
1
2.42023e-40
1
1
1.23419e-40
1
2.6474e-40
8.20713e-41
1
1
1
1
1
1
1
1
1
1
0.5
1
1
1
4.1204e-84
1.08357e-40
1.19587e-41
1.88994e-123
6.9208e-41
1.99611e-83
6.98908e-86
1
1
1
1
1
1
1
0.5
1
1
0.5
1
1
1
1.15556e-38
1
1
8.78925e-37
3.667e-38
1.21823e-78
5.88715e-40
4.74546e-75
0.5
1
5.84975e-41
1.15381e-40
1
0.5
2.93623e-41
3.39227e-40
3.39148e-82
3.17486e-40
5.35759e-84
4.06469e-40
1.37062e-82
6.29342e-41
1.03972e-132
1.1614e-125
8.84895e-128
6.74748e-211
6.41044e-126
8.05169e-210
1.03877e-132
7.7119e-76
6.8297e-116
1.33847e-116
2.34858e-76
1.54383e-116
2.17312e-76
2.10616e-76
5.2803e-133
4.6504e-133
6.85449e-97
0
7.4622e-154
4.48523e-130
2.36122e-133
0
0
7.81974e-84
0
6.85321e-181
6.47242e-117
6.85015e-181
2.08322e-96
5.26203e-61
6.4202e-62
1
1
1
1
1
1
1
1
1
1
1
2.08935e-34
1
1
2.66801e-34
2.43478e-34
1
1
1
1
1
1
1
1
1
1
1
1
1
1
1
1
1
1
1
1
1
1
1
1
1
1
1
1
1
1
1
1
1
1
1
1
1
1
1
1
1
1
1
1
1
1
1
1
1
1
1
1
1
1
1
1
1
1
1
1
1
1
1
1
1
1
1
1
1
1
1
1
1
0.5
1
1
0.5
1
1
0.5
1
1
1
0.5
6.00526e-32
2.05879e-94
9.8538e-62
8.09264e-61
5.80896e-32
1.19167e-61
0
8.90935e-213
2.05564e-268
6.05668e-209
1.44164e-264
5.41783e-217
3.60939e-276
7.34986e-279
0
0
0
0
1.21493e-213
4.08447e-127
1.13015e-41
3.84011e-125
6.95313e-41
1.14643e-262
4.51223e-268
2.79719e-257
3.49926e-264
2.42674e-125
6.44627e-41
4.7022e-127
2.0313e-41
5.61022e-258
1.39647e-264
7.68233e-170
7.87436e-82
3.30983e-216
1.73106e-85
2.57771e-227
1.38478e-129
8.83829e-273
3.19548e-133
5.31117e-193
0
1.47785e-180
1.31007e-223
5.56663e-124
7.15047e-218
3.89311e-170
1.29239e-208
5.66216e-122
3.40327e-214
1.45928e-167
8.83083e-122
1.57496e-214
1.99635e-167
3.34394e-212
2.68278e-123
1.7825e-217
1.70015e-169
7.8865e-127
1.69179e-223
5.08275e-174
2.17712e-268
2.51408e-131
2.32861e-270
1.879e-219
4.67382e-178
3.52162e-282
8.52257e-229
0
1.00603e-222
0
0
0
0
0
2.60971e-181
2.19098e-224
1.79474e-83
2.52855e-83
1.0534e-123
4.39123e-126
1.30061e-82
2.74024e-123
1.39086e-83
3.34795e-82
2.52684e-124
7.66567e-82
5.14864e-121
1.95378e-81
1.23131e-121
1.68979e-82
0
4.94066e-313
4.31021e-268
5.43172e-260
1.41155e-310
6.24423e-267
0
0
7.76192e-256
5.51122e-307
3.57037e-263
8.34259e-306
9.84771e-264
0
2.81529e-82
5.70685e-82
1.35689e-121
1.75977e-124
6.8476e-83
1.56535e-81
2.81772e-121
5.80871e-83
6.47724e-126
2.32399e-83
9.04877e-123
1.78611e-82
8.82298e-123
5.63779e-84
0
1.93454e-307
2.73032e-263
4.44355e-257
0
8.15315e-307
2.58111e-263
3.50352e-124
1.24049e-123
2.60376e-126
2.61804e-170
2.64691e-124
5.57607e-124
2.53589e-126
1.33036e-128
1.53132e-212
9.15993e-169
8.08889e-131
1.2771e-127
8.2965e-131
3.8432e-130
6.24145e-176
1.56353e-211
1.54048e-177
7.66377e-228
6.66984e-177
1.0688e-212
1.50421e-177
7.77352e-221
2.48382e-273
1.91559e-259
3.35779e-222
1.80461e-258
3.09242e-222
7.28728e-221
5.16613e-223
2.28e-192
8.48786e-238
1.43929e-193
4.31545e-237
4.61695e-193
1.42047e-223
1.02223e-267
1.44593e-283
0
2.78247e-268
3.68792e-282
3.48939e-268
9.21775e-269
7.08225e-169
4.85601e-218
4.93328e-211
4.19766e-168
2.81615e-217
1.27867e-169
5.22532e-170
6.39758e-166
4.05293e-214
2.41464e-208
1.03289e-165
5.43849e-214
1.22939e-166
6.07845e-167
1.73698e-172
6.85899e-223
5.85306e-218
5.2076e-173
1.0913e-223
8.15216e-174
8.38486e-174
2.96852e-227
2.15628e-281
5.16935e-280
1.65232e-227
3.10632e-282
2.69779e-228
2.83518e-228
0
0
9.49084e-223
0
1.47482e-224
4.07859e-224
1.08214e-222
0
0
0
8.99199e-270
1.89215e-269
4.77543e-271
1.59023e-271
1.13838e-207
9.35826e-215
1.36914e-172
2.13724e-173
1.78751e-207
2.55365e-165
9.53316e-214
2.66924e-166
3.37869e-214
3.12138e-167
1.29471e-166
7.23173e-210
5.48817e-168
1.00308e-217
7.23111e-168
9.90044e-217
5.59172e-169
1.79243e-169
8.30512e-263
5.64967e-218
1.33806e-270
1.41371e-217
1.28035e-269
6.20214e-219
2.0086e-219
0
0
0
1.44903e-272
0
2.80726e-273
0
0
0
1.75586e-269
0
2.04029e-269
1.9204e-269
4.03719e-270
8.86666e-219
0
2.25579e-270
3.51966e-264
2.43071e-215
0
2.27852e-266
2.88988e-215
0
4.68016e-266
6.54322e-268
3.08594e-218
0
2.22026e-269
2.14916e-224
0
1.45456e-277
0
4.0459e-271
0
1.30796e-301
4.72421e-283
0
0
0
0
0
0
0
0
0
0
2.05508e-96
1.96795e-131
1.99387e-108
9.63041e-71
8.82772e-133
3.26118e-109
1.37912e-106
4.11498e-154
1.1518e-154
1.02455e-130
8.82815e-133
1.39703e-95
2.6058e-62
3.3962e-32
2.27045e-71
1.6918e-129
1.39002e-127
7.15146e-133
1.05801e-186
7.49425e-275
6.63789e-172
1.65454e-181
1.25883e-224
4.85343e-136
7.05513e-177
3.94828e-143
3.76705e-127
4.1472e-134
3.00327e-174
1.22988e-143
2.94403e-134
9.67263e-175
2.87921e-143
1.89399e-129
6.66012e-136
6.64905e-177
1.02371e-143
9.99882e-140
3.03696e-182
2.63947e-194
5.5125e-137
4.55965e-188
8.73033e-229
2.68349e-194
1.03418e-235
0
0
0
0
0
0
7.83203e-173
1.02348e-209
5.233e-209
2.53846e-213
2.52148e-213
6.61327e-172
7.83234e-173
1.9998e-224
5.62187e-225
1.45128e-233
0
0
0
0
0
0
0
0
0
0
0
0
6.19518e-272
0
0
0
5.41771e-94
4.73134e-94
3.7558e-141
0
2.22752e-133
1.97366e-173
1.00327e-214
1.95637e-273
0
0
4.65503e-133
2.46152e-172
5.1664e-213
1.90634e-96
5.81695e-133
6.79329e-173
1.31578e-172
2.00513e-213
2.43173e-271
0
0
0
5.97078e-213
1.1068e-270
0
0
0
0
8.39992e-271
0
0
0
0
0
1
2.05524e-15
2.1014e-62
9.00568e-97
9.78024e-134
1
1
1
1
1
1
1
1
1
1
1
1
1
1
1
1
1
1
1
1
1
1
1
1
1
1
1
1
1
0.5
6.03696e-30
7.69687e-30
1
4.86323e-15
1
1
1
1
1
1
6.69215e-15
1.22143e-29
1
1
1
1
1
1
1
1
1
1
1
1
1
1
1
1
1
1
1
1
1
1
1
1
1
1
1
1
1
1
1
1
1
1
1
1
1
1
1
1
1
1
1
1
1
1
1.61231e-30
0.5
1
1.56116e-15
1
1
1
1
1
1
1
1
1
1
1
1
1
1
1
0
0.5
1.49867e-29
0.5
1
6.70589e-15
1
1
1
1
1
1
1
1
1
3.78858e-41
2.12488e-40
2.93915e-42
8.92475e-89
1.94929e-185
1.3939e-43
2.2943e-40
6.8452e-43
6.22014e-43
6.73864e-41
1.91739e-43
1.09953e-44
9.94716e-44
3.85712e-46
5.32521e-94
4.67912e-131
0
1
1
1
1
1.90565e-146
1.6099e-97
3.97156e-120
5.61047e-63
1
1
1
1
1
1
1
1
1
1
1
1
1
1
1
1
1
1
1
1
1
1
1
1
1
1
1
1
1
1
1
1
0.5
1
1
1.99286e-43
8.37977e-46
0.5
7.4232e-44
0
1
2.38179e-35
1
1
1
1
1
1
1
1
1
1
1
1
1
1
1
1
1
1
1
1
1
1
1
1
1
1
1
1
1
1
1
1
1
1
1
1
1
1
1
1
1
1
1
1
1
1
1
1
1
1
1
1
1
1
1
1
1
1
1
1
1
1
1
1
1
1
1
1
1
1
1
1
1
1
1
1
1
1
1
1
1
1
1
1
1
1
1
1
1
1
1
1
1
1
1
1
1
1
6.81063e-188
1.1074e-158
0
0
4.13824e-108
2.74644e-106
3.10787e-97
0
3.17965e-62
4.47365e-62
1.48115e-82
1.40481e-82
0.5
1
0.5
1.20308e-39
1
1
0
1.70152e-187
0
5.36522e-229
5.46051e-84
2.05983e-88
1.50113e-82
4.24244e-87
1.25212e-82
1.71073e-87
1.21192e-83
2.99745e-88
4.30535e-86
2.26575e-91
1.21945e-89
9.30136e-137
4.25475e-136
1.47822e-142
0
4.25703e-228
2.09336e-231
1.44068e-271
0
4.12171e-230
1.40079e-159
2.77872e-232
1.15436e-277
0
0
0
0
0
0
0
0
0
0
0
0
0
0
2.69556e-278
5.34142e-278
2.73312e-302
0
0
1
1
1
0
4.80884e-41
0
1
1
1
1
1
1
1
1
1
1
1
1
1
1
0
0.5
1
0.5
6.20246e-77
1
1.16729e-37
0
1.20126e-98
8.7365e-99
5.37934e-136
6.35195e-190
1.81692e-136
1.74073e-190
3.80469e-234
4.18059e-281
0
0
9.82863e-136
2.7239e-189
7.17297e-232
7.56704e-278
0
0
0
2.19935e-189
1.37874e-231
5.17642e-277
0
0
0
0
9.87403e-232
3.18144e-277
0
0
0
0
0
2.89996e-48
5.33994e-63
6.39472e-99
1.89394e-136
1
1
1
0.5
1
1
1
1
1
1
1
1
1
1
1
1
1
1
1
2.12557e-33
1
1
1
1
1
1
1
1
1
1
1
1
1
1
3.49107e-30
1.12838e-30
4.95489e-46
1.37421e-63
1.49393e-79
2.81659e-98
1
1
2.14755e-13
8.90736e-15
1.73758e-15
1
1
2.68515e-15
2.47744e-15
2.82024e-30
6.1189e-62
2.77055e-64
1.32765e-97
4.53999e-100
5.38072e-135
0.5
1
3.39176e-15
2.85419e-15
4.09691e-30
3.14909e-30
3.19384e-62
3.01185e-64
3.16308e-96
1.05818e-100
1
2.67488e-15
1.3395e-29
3.82318e-15
2.57641e-29
2.67956e-29
1
1
8.64755e-15
8.65205e-15
1
5.00212e-33
1
1
1
1
1
1
1
1
1
1
1
1
1
1
1
1
1
1
1
1
1
1
1
1
1
1
1
1
1
1
1
1
1
1
1
1
1
1
1
1
1
1
1
1
1
1
1
1
1
1
1
1
1
1
1
1
1
1
1
1
1
1
1
1
1
1
1
1
1
1
1
1
1
1
1
1
1
1
1
1
1
1
1
1
1
1
1
1
1
1
1
1
1
1
1
1
1
1
1
1
1
1
1
1
1
1
1
1
1
1
1
1
1
1
1
1
1
1
1
1
1
1
1
1
1
1
1
1
1
1
1
1
1
1
1
1
1
1
1
6.71135e-46
1
6.4753e-46
7.99649e-48
0
1
1
1
1
1
1
1
1
1
1
0.5
5.56997e-46
9.72105e-48
1
1
1
1
1
1
1
1
1
1
1
1
1
1
1
1
1
1
1
1
1
1
1
1
1
1
1
1
4.0471e-144
1.07091e-239
3.68882e-296
0
3.14916e-144
1.24488e-239
1.88208e-296
0
8.39827e-195
6.25565e-250
2.24944e-307
0
0
0
0
0
1
0.5
1
1
1
1
1
1
1
1
1
1
1
1
1
1
1
1
1
1
1
1
1
1
1
1
1
5.07981e-254
0
0
0
0
8.50636e-272
1.23314e-210
7.00629e-255
4.24895e-301
0
0
0
6.1573e-173
1.63916e-214
6.09591e-260
3.31833e-307
0
0
1.48957e-213
9.10173e-258
4.81996e-305
0
0
0
9.78339e-258
1.37504e-304
0
0
0
0
8.8536e-305
0
0
0
0
0
1
1
1
7.81315e-46
1
0.5
1
1
1
0.5
1
8.95908e-46
1
1
1
4.81631e-47
1
3.22118e-49
1
1
1
1
1
1
1
1
1
1
1
1
1
1
1
1
1
1
1
1
1
1
1
1
1
1
1
1
1
1
1
1
1
1
1
1
1
1
1
1
1
1
5.22855e-133
8.06837e-254
2.73569e-172
5.58643e-214
2.18821e-258
1.2714e-156
3.75206e-133
5.34837e-157
5.49766e-173
2.29542e-198
1.54179e-214
2.41988e-242
4.51041e-96
1.23047e-118
1.48158e-133
4.89002e-158
3.73703e-174
1.70893e-199
1
4.36712e-94
1
3.81069e-94
0.5
6.04166e-141
0
0
9.69937e-38
1.14678e-253
1.20854e-283
9.51388e-132
4.78441e-156
2.73375e-159
3.95809e-196
1.0882e-95
6.23106e-118
1
1
1
1
3.48036e-49
8.47356e-49
3.16998e-99
1
1.52674e-48
1.62871e-47
2.89355e-97
1
1
1
1
1.35702e-48
1.44546e-47
2.28062e-97
1
3.59287e-49
8.76129e-49
3.25422e-99
1
0.5
1
0
1.90647e-50
4.66697e-50
5.24316e-148
2.78761e-49
0
7.85255e-100
1.04201e-151
1
0.5
0
0.5
0
0
6.58272e-301
0
0
5.28887e-46
0
7.71056e-299
0
0
0
0
1.25155e-300
0
0
0.5
6.0849e-42
8.72704e-122
0
2.48215e-71
2.31248e-104
0
2.76074e-199
1.83694e-211
2.37801e-104
9.73606e-106
4.13101e-143
2.44592e-157
5.57028e-47
1.43231e-81
3.20039e-109
0.5
3.36187e-39
2.9838e-143
1.84838e-40
9.07832e-117
2.3851e-112
1
1
1
1
1
1
1
1
1
1
1
1
1
1
1
1
1
1
1
1
1
1
1
1
1
1
1
1
1
1
1
1
1
1
1
1
1
1
1
1
1
1
1
1
1
1
1
1
1
1
1
1
1
1
1
1
1
1
1
1
1
1
1
1
1
1
0.5
1
1
1
1
1
1
0.5
1
1
1
1
0
0.5
5.44354e-53
1
0.5
1
1
1
1
0.5
1
1
1
1
1
1
6.03597e-44
1
1
1
1
2.31642e-47
0
3.74999e-44
1
0.5
0.5
0.5
1
0
7.43958e-49
1
1
4.17529e-51
0
0
0
0
0.5
0
3.93811e-151
2.47451e-48
1.57775e-47
0
1.60279e-270
0.5
0
0
3.06756e-142
0
1.17757e-298
1.11855e-299
0
0
1.77086e-274
1.82637e-36
1
1
0
1.6146e-39
0.5
2.01857e-74
3.55416e-156
1.7574e-77
4.74078e-112
6.46942e-157
6.86336e-187
3.12616e-118
2.01206e-157
4.99012e-271
7.23663e-185
2.1406e-185
0
0
2.45345e-109
9.57239e-144
8.05947e-270
1.83287e-226
2.51738e-238
1.2921e-212
6.16352e-255
1.79476e-225
1.89721e-181
1.35958e-130
0
1.5602e-94
5.12248e-95
6.42552e-95
0
4.96293e-132
1.58258e-155
1.00242e-117
1.5062e-156
2.29619e-117
3.7053e-117
5.01e-118
1.69527e-155
0
0.5
3.11495e-42
9.72521e-109
0.5
2.87429e-38
2.98775e-109
9.40694e-113
2.63913e-80
1.79846e-121
1.04212e-143
1.00626e-40
1.88209e-112
3.66807e-143
2.17535e-180
1.00714e-119
3.22214e-202
1.50324e-180
7.48683e-159
8.98742e-180
4.64966e-181
3.77088e-212
2.02341e-255
3.38512e-254
1.678e-210
1.40182e-254
5.39737e-196
1.02764e-211
2.2436e-81
3.47548e-81
3.51514e-81
2.23289e-81
9.66632e-36
5.52368e-47
5.57068e-47
4.88048e-274
2.15293e-233
0
8.7319e-262
0
0
0
1.30523e-278
2.68454e-144
5.14714e-203
7.90475e-259
0
0
0
2.37481e-202
3.66046e-257
0
0
0
0
5.58566e-257
0
0
0
0
0
0
0
0
0
0
0
0
0
0
0
0
0
0
0
0
0
0
0
2.59295e-274
6.50114e-233
0
5.14994e-208
0
0
0
1.33551e-278
4.15454e-144
7.6618e-260
0
0
0
0
4.65047e-239
7.73654e-296
0
0
0
0
2.36959e-295
0
0
0
0
0
0
0
0
0
0
0
0
0
0
0
0
0
0
0
0
0
0
0
2.89109e-297
3.27876e-255
9.45869e-263
0
0
0
1.01294e-301
2.59212e-194
1.4008e-248
1.93584e-305
0
0
0
5.79318e-248
1.9697e-304
0
0
0
0
3.19651e-304
0
0
0
0
0
0
0
0
0
0
0
0
0
0
0
0
0
0
0
0
0
0
0
0
2.12832e-294
0
0
0
0
0
0
0
0
0
0
0
0
0
0
0
0
0
0
0
0
0
0
0
0
0
0
0
0
0
0
0
0
0
0
0
0
0
0
0
0
0
1.24971e-248
7.22095e-294
0
0
4.95522e-304
6.64476e-250
0
0
0
0
0
0
0
0
0
0
0
0
0
0
0
0
0
0
0
0
0
0
0
0
0
0
0
0
0
0
0
0
0
0
0
0
0
0
0
0
0
4.50049e-154
7.16483e-196
9.91524e-241
4.62456e-285
8.13938e-288
0
2.45031e-238
1.23679e-283
0
0
0
0
8.79406e-284
0
0
0
0
0
0
0
0
0
0
0
0
0
0
0
0
0
0
0
0
0
0
0
0
0
0
0
0
0
0
0
0
0
0
0
1.87087e-155
1.87485e-197
1.29992e-240
2.33635e-286
0
0
1.68038e-197
9.61608e-241
1.28079e-286
0
0
0
3.29135e-241
3.99757e-287
0
0
0
0
1.89844e-287
0
0
0
0
0
0
0
0
0
0
0
0
0
0
0
0
0
0
0
0
0
0
0
0
0
0
0
0
0
1.48118e-197
8.60295e-241
2.57539e-286
0
0
0
1.93845e-240
3.12809e-286
0
0
0
0
2.44691e-286
0
0
0
0
0
0
0
0
0
0
0
0
0
0
0
0
0
0
0
0
0
0
0
0
0
0
0
0
0
0
0
0
0
0
0
3.27917e-241
7.99394e-287
0
0
0
0
2.89162e-286
0
0
0
0
0
0
0
0
0
0
0
0
0
0
0
0
0
0
0
0
0
0
0
0
0
0
0
0
0
0
0
0
0
0
0
0
0
0
0
0
0
3.12805e-287
0
0
0
0
0
0
0
0
0
0
0
0
0
0
0
0
0
0
0
0
0
0
0
0
0
0
0
0
0
0
0
0
0
0
0
0
0
0
0
0
0
0
0
0
0
0
0
0.5
1.24825e-261
0.5
0
0
0
3.34763e-264
0
0
0
0
0
0
0
0
0
0
0
5.80276e-275
0
6.50881e-278
2.12132e-274
1.81699e-276
0
2.06083e-278
6.40301e-154
1.33567e-150
4.10295e-202
0
6.2457e-152
4.55353e-149
4.05055e-202
0
6.1644e-257
6.58932e-258
4.12683e-208
1.17379e-265
1.11448e-256
6.35163e-258
0
0
0
0
0
0
0
0
0
0
0
0
0
0
0.5
0
7.81367e-261
2.42599e-264
0
0
0
0
0
0
0
0
0
0
0
0
0
1.12887e-274
0
8.75041e-278
4.18986e-274
9.57317e-277
0
1.63115e-278
8.77277e-152
2.07635e-149
4.19787e-204
1.10373e-153
6.06909e-151
1.3765e-251
2.72293e-265
5.79423e-259
0
1.58175e-261
0
1.18253e-307
0
0
0
0
0
0
0
0
0
0
0
0
0
0
0
3.10011e-262
0
0
0
0
0
0
0
0
0
0
0
0
0
0
0
1.8127e-297
0
3.356e-301
6.8288e-299
3.90316e-300
0
1.03767e-301
2.33089e-257
2.94927e-202
4.54539e-248
0
1.7066e-247
1.36476e-247
0
3.59693e-304
6.39206e-305
0
0
4.49999e-303
1.92345e-304
0
0
0
0
0
0
0
0
0
0
0
0
0
0
0
0
0
0
0
0
0
0
0
0
0
0
0
0
0
0
0
0
0
0
0
0
0
0
0
0
0
0
0
0
0
0
0
0
0
0
0
0
0
0
0
0
0
0
0
0
0
0
0
0
6.79161e-252
0
0
2.3019e-207
9.64943e-210
3.77331e-250
4.72289e-253
2.7908e-301
0
0
4.88203e-250
2.10908e-256
3.99566e-295
3.55864e-302
0
0
0
2.93948e-299
7.21493e-303
0
0
1.95155e-190
2.307e-190
1.37025e-211
5.7755e-234
5.73798e-236
1.3586e-152
3.45516e-208
7.19243e-301
4.60369e-257
3.8106e-80
5.48407e-154
4.30799e-198
1.80776e-240
8.91509e-242
4.15393e-288
8.5255e-117
6.72021e-155
2.47737e-197
9.37225e-241
1.10968e-286
0
1.48006e-155
1.36885e-197
6.97572e-241
1.22966e-286
0
0
7.15536e-198
3.46652e-241
8.73616e-287
0
0
0
3.48214e-242
1.81552e-287
0
0
0
0
0
0
2.78316e-189
2.03209e-230
3.32816e-231
1.60237e-190
1.8523e-230
1.81323e-232
0
0
3.30007e-189
6.30096e-230
1.91532e-230
9.00505e-191
1.10145e-229
3.62464e-232
1.42487e-296
3.41853e-212
4.98166e-298
9.53896e-210
1.88244e-252
2.14308e-252
1.43307e-210
4.12492e-212
2.86705e-253
7.60017e-255
1.018e-233
0
5.92202e-234
0
6.45836e-235
6.40993e-291
4.84523e-292
3.24757e-234
2.81971e-236
1.9353e-291
5.61847e-294
1.13861e-154
9.74403e-118
6.11647e-207
2.55734e-209
6.99245e-116
2.0646e-117
1.90471e-153
1.16774e-155
2.06147e-155
6.45916e-250
4.07019e-256
4.16371e-154
6.70828e-158
1.46332e-207
1.97055e-212
1.31183e-210
1.15762e-298
7.82702e-303
8.41957e-211
1.84706e-213
7.00165e-254
4.99447e-257
1.44741e-155
1.64098e-208
4.2888e-253
2.29421e-210
1.77616e-249
8.3737e-287
3.01317e-288
3.09144e-250
1.87828e-293
5.72819e-295
2.99365e-249
2.20058e-294
0
0
3.17336e-295
0
0
3.183e-294
0
0
0
0
0
0
0
0.5
1
3.02641e-55
0.5
1
0
0.5
8.65535e-58
6.06926e-176
2.09415e-163
7.68116e-262
1.02055e-173
0
2.99302e-58
0.5
0.5
1
0
1
9.67402e-55
1
2.94966e-57
2.03669e-207
5.39766e-116
0
3.12867e-172
2.04724e-161
4.05972e-57
0
7.51687e-292
0
0
3.25041e-289
0
0
0
0
0
0
0
0
0
3.05645e-292
6.07171e-264
1.66927e-174
1.66574e-265
6.75535e-232
1.3253e-265
2.97353e-292
0
0
0
0
0
0
0
0
0
0
0
0
0
0
0
0
0
0
0
0
0
0
0
0
0
0
0
0
0
0
0
0
0
0
0
0
0
0
0
0
0
0
0
0
0
0
0
0
0
0
0
0
0
0
0
0
0
0
0
0
0
0
0
0.5
1
0
1
1.08365e-54
2.49194e-57
6.5416e-116
0
1.19686e-207
3.7721e-57
6.13412e-172
3.14734e-161
7.67138e-58
7.81325e-261
2.96791e-176
1.49568e-163
7.12754e-174
0
2.66493e-58
2.32861e-293
6.32316e-175
4.34535e-265
1.73874e-264
8.13873e-293
3.25696e-232
2.97281e-265
0
0
0
0
0
0
0
0
0
1.10756e-291
0
2.24623e-289
0
0
0
0
0
0
0
0
0
0
0
0
0
0
0
0
0
0
0
0
0
0
0
0
0
0
0
0
0
0
0
0
0
0
0
0
0
0
0
0
0
0
0
0
0
0
0
0
0
0
0
0
0
0
0
0
0
0
0
0
0
0
0
0
0
2.55425e-173
7.43264e-178
0
5.50256e-262
1.23747e-117
5.77829e-291
1.58245e-261
1.87017e-171
0
0
0
0
0
0
0
2.2573e-295
0
0
0
0
0
0
0
0
0
0
0
0
0
0
0
0
0
0
0
0
0
0
0
0
0
0
0
0
0
0
0
0
0
0
0
0
0
0
0
0
0
0
0
0
0
0
0
0
0
0
0
0
0
0
0
0
0
0
0
0
0
0
0
0
0
0
0
0
0
0
0
0
0
0
0
0
0
0
0
0
0
0
0
0
0
0
0
0
0
0
0
0
0
0
0
0
0
0
0
0
0
0
0
0
0
0
0
0
0
0
0
0
0
0
0
0
0
0
0
0
0
0
0
0
0
0
0
0
0
0
0
0
0
0
0
0
0
0
0
0
0
0
0
0
0
0
0
0
0
0
0
0
0
0
0
0
0
0
0
0
0
0
0
0
0
0
0
0
0
0
0
0
0
0
0
0
0
0
0
0
1.07327e-252
1.43869e-294
1.47044e-294
1.88131e-252
5.15683e-299
8.66742e-298
1.83459e-253
1.64891e-301
0
0
4.71339e-302
0
0
3.9055e-302
1.38794e-151
2.51386e-151
1.34895e-151
7.92637e-103
4.30584e-151
8.75064e-206
4.47378e-153
5.50839e-205
4.59628e-153
1.65194e-205
4.47407e-153
9.63412e-206
1.58541e-250
2.07995e-208
6.93607e-250
3.46394e-208
1.59139e-250
2.08012e-208
7.80137e-250
0
1.29387e-273
1.28012e-273
2.34361e-284
2.81979e-271
2.79079e-271
2.39108e-284
4.22597e-274
0
3.97154e-274
3.36458e-289
2.95077e-272
1.93999e-272
3.27958e-289
3.5356e-274
0
3.3642e-274
4.4113e-284
3.65005e-272
4.42534e-284
7.21093e-272
1.06208e-273
6.47485e-274
0
9.54658e-289
7.12019e-272
7.3339e-272
1.75239e-288
4.26139e-297
0
0
2.89572e-293
2.33507e-293
1.67141e-293
4.16843e-293
2.63881e-254
3.4133e-212
1.67236e-212
2.79896e-252
3.41469e-212
2.79093e-252
1.13497e-254
2.18989e-298
0
0
2.15349e-298
2.33358e-296
2.50297e-296
3.62553e-299
0
0
0
0
0
0
0
0
0
0
0
0
0
0
3.79217e-155
2.36271e-205
3.97644e-205
6.29836e-153
2.39924e-152
2.60597e-152
1.49969e-152
3.48863e-154
2.06749e-154
1.03453e-116
1.13019e-154
1.01135e-116
1.56736e-154
1.89828e-207
2.69572e-244
4.00701e-245
1.22268e-203
1.66465e-203
8.30479e-204
7.36196e-203
7.55277e-210
3.97809e-250
1.88032e-250
5.03324e-207
3.84329e-208
5.51343e-208
1.0627e-207
7.5603e-209
2.05829e-155
7.20905e-209
2.06166e-155
7.59676e-209
2.05849e-155
1.43655e-208
5.91058e-250
6.11609e-290
1.87504e-290
5.45081e-247
3.35189e-246
7.73144e-247
7.29889e-247
1.23918e-256
4.99533e-295
6.73529e-295
4.10485e-251
2.90302e-251
1.76581e-251
6.31983e-251
3.25023e-299
0
0
2.85269e-294
1.34021e-292
4.89805e-294
7.52724e-293
6.60472e-290
5.55669e-234
1.01789e-289
1.02061e-233
9.71374e-291
1.02078e-233
6.02716e-290
3.01348e-290
5.90809e-234
2.20368e-234
6.29942e-290
5.90871e-234
3.91605e-290
9.21652e-291
1.14605e-208
2.54558e-246
9.67657e-247
1.33396e-253
9.10992e-253
1.79205e-210
6.07179e-210
8.39602e-154
0
1.09559e-153
0.5
0
2.32854e-54
0
8.18546e-153
0
0
0
4.32225e-153
1.22749e-104
3.77267e-206
2.63521e-249
2.12819e-207
0.5
1
0.5
0.5
1
2.73033e-55
1
0
0.5
1.67324e-58
1
0
1.90528e-54
4.36205e-58
0.5
0
1.58091e-113
0
3.73887e-55
0
5.70062e-56
0
0
0
0
0
0
0
0
0
0
0
0
0
0
0
0
4.52018e-154
3.04163e-175
3.65898e-110
1.12653e-104
4.17195e-72
3.94685e-105
1.49869e-104
8.43288e-207
1.58978e-248
4.80159e-184
1.0562e-206
1.88554e-216
1.48143e-249
2.61563e-207
0
0
0
0
0
0
0
5.48306e-294
5.15973e-283
0
1.87223e-298
0
1.20314e-253
1.23027e-283
0
0
0
3.93135e-295
3.52134e-299
0
0
0
0
0
0
0
0
0
0
0
0
0
0
0
0
1.12986e-195
1.69203e-195
2.87203e-154
1.40412e-154
1.40512e-154
2.37081e-197
8.02665e-197
6.78453e-196
1.59023e-199
2.21664e-197
2.61641e-238
2.73706e-240
2.86462e-238
2.66993e-240
6.44021e-239
2.15044e-241
8.60723e-241
3.66262e-284
2.78638e-286
2.15478e-285
5.28568e-286
6.48227e-286
4.52195e-287
4.63435e-287
0
0
0
0
0
0
0
0
0
0
0
0
0
0
0
0
0
0
0
0
0
0
0
0
0
0
0
0
0
0
0
0
0
0
0
0
0
0
0
0
0
0
0
0
0
0
0
0
0
0
0
0
0
0
0
0
0
0
0
0
4.50762e-294
0
0
3.11458e-294
0
4.97715e-293
9.63626e-295
2.42807e-297
0
0
8.15123e-299
0
3.41909e-298
2.80886e-298
0
0
0
0
0
0
0
0
0
0
0
0
0
0
0
0
0
0
0
0
0
0
0
0
0
0
0
0
0
0
0
0
0
0
0
1.14781e-287
3.2122e-287
4.21057e-298
2.37821e-253
3.21516e-255
1.63887e-255
6.82369e-257
1.84492e-116
2.08697e-116
1.08346e-116
1.08845e-116
3.61291e-80
4.03121e-80
3.61316e-80
7.52784e-154
6.07044e-156
2.50168e-154
2.92356e-116
1.86023e-116
2.29559e-116
1.65921e-117
1.52883e-196
2.75149e-198
5.51237e-198
5.53966e-154
5.7135e-155
6.29028e-155
5.7136e-155
1.10874e-240
3.36858e-241
3.35998e-241
5.35979e-198
2.65839e-198
8.10136e-198
2.65847e-198
2.35363e-253
1.30998e-210
4.49273e-253
1.31196e-210
4.73105e-253
1.31011e-210
4.47207e-253
0
2.20159e-302
0
2.85469e-297
4.31729e-297
4.95815e-297
4.8601e-297
1.54425e-252
2.77076e-298
1.06061e-296
2.72857e-298
6.76026e-298
4.29018e-253
5.87937e-253
8.13054e-250
4.43464e-249
1.1326e-294
6.2048e-293
2.50972e-293
2.22828e-248
7.13983e-292
0
0
0
0
0
0
0
0
0
0
0
0
0
0
0
0
0
0
0
0
0
0
0
0
0
0
0
0
0
0
0
0
0
0
0
2.19614e-202
2.13573e-257
0
0
5.2756e-239
3.38681e-295
0
0
1.21886e-248
2.30313e-305
0
0
0
0
0
0
0
0
0
0
9.40314e-144
1.04397e-143
2.96571e-194
0
0
3.18112e-239
3.67172e-285
0
0
0
0
9.65619e-198
3.90411e-242
1.4976e-288
0
0
0
2.18024e-197
6.24994e-241
3.80454e-287
0
0
0
0
7.8387e-241
1.01954e-286
0
0
0
0
0
3.69752e-287
0
0
0
0
0
0
8.20433e-16
2.42476e-29
7.74313e-63
1.53172e-98
5.05292e-96
1.30032e-97
5.71815e-136
1.66957e-213
1.73264e-188
8.49912e-16
2.29883e-29
8.23548e-63
1.56476e-98
6.39237e-96
1.32757e-97
5.20504e-136
1.33753e-208
4.15985e-188
0.5
1.08393e-15
9.02204e-61
3.38541e-95
1.08871e-131
9.32363e-104
8.8756e-131
3.05056e-170
1.54137e-243
3.13101e-210
6.1122e-15
2.23214e-30
3.26968e-15
1.65936e-63
4.9855e-99
2.27858e-153
2.11307e-69
1.43283e-149
1.90161e-152
1.35e-193
5.45038e-209
3.40571e-285
4.9042e-47
1.41962e-81
4.44068e-119
5.5136e-158
2.67184e-32
3.61106e-80
1.79977e-117
6.62955e-157
2.93599e-213
1.38823e-102
9.07511e-82
5.44306e-119
6.21457e-158
2.79844e-213
2.55304e-80
5.51816e-117
3.51685e-155
2.68054e-199
2.73912e-243
5.81232e-119
1.10857e-157
1.33831e-212
1.69391e-256
1.98746e-117
1.84515e-155
4.39886e-199
1.47938e-242
5.63253e-289
7.52296e-156
4.69971e-199
1.03778e-242
1.25806e-288
0
4.41939e-134
5.83549e-134
2.4266e-97
8.61575e-174
3.38017e-149
5.53915e-96
9.68394e-100
2.59833e-171
1.98726e-152
3.84488e-176
3.19633e-174
6.83416e-202
2.18145e-210
6.61224e-206
1.65989e-188
9.11774e-134
5.62724e-134
3.52005e-173
5.39326e-176
1.55513e-201
3.05107e-214
5.05862e-205
1.95405e-188
5.38841e-68
1.11399e-140
3.76614e-34
1.27269e-69
2.07321e-105
5.67339e-169
1.87625e-130
1.97408e-178
2.74102e-169
2.50687e-105
1.8796e-132
3.86275e-207
6.58727e-172
5.27171e-179
2.79059e-175
6.16708e-209
8.65046e-209
1.77155e-248
4.08743e-33
2.6407e-105
0.5
8.25247e-35
6.11691e-102
9.9741e-116
5.99114e-105
9.19385e-170
1.57659e-190
2.60646e-95
8.138e-114
1.54019e-152
4.97294e-155
3.00229e-152
3.26891e-229
7.02864e-193
4.48421e-150
4.9316e-152
6.40043e-208
1.94784e-192
2.20977e-176
3.4569e-139
9.74596e-153
3.16727e-231
1.13449e-204
2.03449e-208
1.16259e-249
6.58071e-68
2.47856e-80
8.63746e-117
1.4035e-213
7.99233e-214
6.94347e-214
2.41971e-97
5.76093e-170
5.96367e-149
2.34079e-96
1.78544e-99
7.77564e-174
6.14663e-152
5.59376e-209
2.2653e-209
1.04592e-210
3.88829e-244
4.21085e-243
4.94675e-244
5.63441e-209
6.18646e-208
4.78888e-209
1.06759e-284
6.60563e-284
1.06568e-284
4.2965e-46
1.64299e-68
6.2559e-80
4.02176e-46
1.38514e-46
1.56038e-79
1.03489e-80
5.05619e-81
5.59555e-116
1.46063e-117
2.19599e-80
4.97004e-82
2.14886e-116
4.4695e-119
1.16962e-118
4.40357e-155
4.3169e-157
3.39434e-118
3.32855e-119
3.1151e-156
3.66249e-158
7.92607e-103
9.84833e-103
1.45677e-97
1.02772e-133
1.6226e-97
3.23705e-134
3.94451e-97
4.32127e-97
1.17428e-131
1.17881e-131
7.52057e-174
8.42881e-174
1.17576e-131
7.49264e-174
1.17415e-131
2.22853e-131
1.04357e-170
5.94217e-132
3.12717e-171
2.22792e-131
9.41774e-171
7.42161e-132
8.9054e-176
3.42912e-174
1.10383e-209
5.74406e-210
1.74917e-209
3.20844e-246
1.38911e-205
1.38939e-205
1.79397e-229
1.38904e-205
1.77271e-229
3.18205e-246
2.84816e-97
2.12908e-133
3.17427e-97
3.02585e-134
1.16367e-97
1.2476e-97
4.10919e-173
2.88492e-176
1.01942e-241
1.55492e-201
5.83821e-229
1.55508e-201
1.02049e-241
1.55497e-201
5.83742e-229
6.27901e-214
2.91463e-214
8.42374e-216
9.45355e-103
2.0878e-103
7.22422e-140
1.9136e-140
9.02023e-103
2.6689e-103
3.71417e-140
2.68512e-69
2.45775e-104
3.67565e-69
2.31127e-105
1.40778e-68
2.3954e-105
2.68841e-69
2.59439e-104
3.62739e-167
1.49605e-105
1.28995e-167
2.18441e-104
4.03345e-167
9.28328e-105
1.2995e-140
9.57314e-141
5.84624e-179
8.7183e-178
4.32102e-141
3.13102e-140
8.39847e-179
1.3768e-167
1.2748e-205
3.35067e-167
1.06181e-206
4.86977e-167
1.6488e-206
4.13928e-167
6.18077e-178
6.26925e-179
2.93257e-178
1.97949e-173
3.13261e-174
3.6328e-174
1.67228e-206
7.19582e-207
1.15571e-206
5.06895e-250
8.64945e-209
5.37818e-250
8.65991e-209
5.24973e-250
8.659e-209
5.20092e-250
2.93873e-246
1.12211e-247
9.75308e-248
1.05426e-68
1.01007e-69
2.792e-76
6.78136e-105
2.05974e-35
1.82866e-69
4.97239e-104
5.04157e-34
3.71175e-34
9.02288e-102
2.62356e-101
5.05015e-34
5.78867e-95
1.46953e-131
3.94249e-96
9.9232e-116
5.79977e-95
1.56519e-131
1.92707e-95
2.24183e-104
1.40094e-104
6.02492e-169
2.42524e-169
1.09498e-104
3.52211e-104
2.59575e-169
7.44008e-150
5.00965e-151
3.64736e-189
9.03836e-189
2.46706e-150
7.4588e-150
4.88278e-189
2.58321e-131
7.68304e-170
4.41374e-132
1.07543e-152
5.4018e-131
2.9348e-170
8.59936e-132
3.78974e-150
1.51005e-189
2.52543e-151
4.94458e-155
3.79739e-150
1.61161e-189
1.2616e-150
1.36157e-188
3.92545e-189
8.26618e-229
3.17759e-228
4.5189e-189
1.77972e-188
1.11939e-228
3.53112e-189
9.32248e-229
7.32434e-190
4.99867e-208
4.94657e-189
3.3686e-229
1.17543e-189
1.35948e-113
0
6.5471e-144
5.8802e-139
2.70442e-139
1.37722e-170
1.18912e-152
3.3295e-170
4.17273e-229
2.72657e-229
1.75386e-229
1.77741e-208
2.5797e-205
3.05122e-209
1.22205e-229
3.01977e-208
1.47789e-229
4.722e-284
1.00157e-249
5.59251e-285
2.47737e-103
7.82881e-68
6.25891e-103
2.19171e-68
1.46208e-102
1.5061e-68
2.0656e-103
8.35749e-117
4.49469e-242
6.83357e-202
1.87664e-229
6.83514e-202
6.83455e-202
1.87844e-229
4.51715e-242
3.80676e-246
5.05474e-205
5.05928e-205
1.05707e-228
5.05601e-205
1.05543e-228
7.45694e-246
1.10109e-29
1.22603e-61
2.49665e-62
1.66256e-29
7.89711e-31
7.83257e-62
3.95396e-64
1.30072e-97
4.12027e-135
2.02485e-135
4.33118e-98
9.04174e-99
1.35254e-135
7.02946e-137
1.32804e-97
1.87712e-135
3.68031e-135
4.4222e-98
9.17912e-99
1.22781e-135
3.11873e-137
2.10445e-14
2.41272e-33
0.5
2.29461e-14
1.42693e-15
1.60315e-59
8.94283e-61
1.61009e-81
1.18854e-94
1.60568e-59
7.58944e-62
1.94906e-93
5.01484e-96
8.88797e-131
1.1697e-169
1.07999e-169
2.96068e-131
6.54121e-132
3.52436e-170
3.79843e-171
7.15612e-46
3.81377e-33
3.40414e-78
1.02082e-28
7.17414e-46
6.1322e-61
2.98033e-78
1.7032e-63
2.46454e-98
1.92167e-98
1.66689e-63
1.7047e-63
2.21259e-98
9.07454e-99
6.3457e-153
2.01334e-192
2.96495e-193
1.90664e-152
1.37949e-153
8.60527e-193
2.93384e-194
4.42743e-131
5.22352e-170
1.96046e-170
4.43238e-131
1.49045e-131
1.26729e-171
3.73614e-132
1.54293e-173
1.77627e-131
4.42512e-174
1.7733e-131
3.3549e-175
5.91845e-132
1.51043e-132
1.18546e-29
1.28225e-61
2.6379e-62
1.89957e-29
8.16074e-31
8.69292e-62
3.93884e-64
2.37841e-157
1.02656e-210
9.10325e-213
1.05222e-157
2.14518e-158
7.44382e-212
1.37727e-213
0
9.85547e-61
3.7261e-60
2.52686e-60
1.26874e-60
5.18923e-15
5.22315e-15
5.19019e-15
5.22355e-15
3.88881e-15
8.80205e-48
6.46428e-83
4.4875e-121
3.08825e-160
1
1
1
1
3.63036e-32
4.15386e-105
1
1
1
1
1
0.5
2.31803e-75
1
1
1
1
4.17438e-33
5.07168e-111
1
1
1
5.35648e-15
4.75137e-47
2.41643e-46
8.61274e-82
3.02371e-81
2.77896e-119
9.2e-158
1.14236e-212
1.65281e-256
1.46139e-302
2.28428e-118
2.02667e-158
3.13313e-213
4.81387e-257
8.15403e-303
0
2.82712e-157
9.33964e-200
5.36788e-243
8.37919e-289
0
0
6.10924e-214
1.23127e-257
1.8502e-303
0
0
1.08353e-200
9.24484e-244
3.01798e-289
0
0
0
1
0.5
1
1
0.5
1.65648e-62
1.54139e-35
0.5
5.75086e-34
2.68777e-36
8.21682e-36
2.91405e-36
9.60526e-76
1
0.5
1
1
0.5
8.88409e-34
3.12024e-36
3.46324e-32
1.79384e-62
2.46316e-36
3.44341e-36
2.65942e-36
1.10627e-106
1
2.23533e-35
1
1
3.0531e-70
5.70156e-74
1.74625e-38
7.33148e-107
2.32568e-137
9.5896e-105
4.62543e-137
1
1
0
2.24033e-104
7.44829e-137
1
1
8.58158e-142
4.13423e-141
5.1026e-142
0
4.88707e-106
2.6421e-46
1
1
1
0.5
1
1
1
1
1
1
1
1
0.5
1
1
1
1
1
1.21997e-65
6.18748e-34
6.17665e-100
1.74333e-35
6.28476e-34
6.1609e-100
1.21986e-65
5.27466e-97
2.11272e-133
3.09434e-133
4.46964e-97
1.25797e-33
1.34881e-35
1.59026e-33
1.43974e-100
1.78981e-33
4.36156e-100
1.25834e-33
1.65823e-97
4.50028e-134
4.38273e-133
1.34923e-97
0.5
8.62507e-36
1
1
1
6.9598e-36
1
1
8.2037e-175
1.03362e-174
4.80397e-105
0
2.46623e-137
6.26553e-174
6.26303e-173
1
1
1
1
1
1
1
0.5
1
1
1
1
1
1
1
1
0.5
1
1
1
1
1
1.91493e-33
2.10254e-33
1.02881e-99
2.40649e-35
1.91549e-33
2.81702e-33
1.55733e-99
1.03116e-96
2.90271e-133
8.72171e-97
6.41321e-133
3.01098e-65
1.32242e-35
3.15228e-34
1.27069e-100
5.54483e-34
3.91411e-100
1.00347e-65
4.59342e-97
8.5753e-134
2.31503e-133
1.19695e-97
1
1.18e-35
1
1
1
6.95145e-36
0.5
1
2.88323e-172
6.22868e-172
3.59772e-105
6.33105e-138