/*--------------------------------*- C++ -*----------------------------------*\
  =========                 |
  \\      /  F ield         | OpenFOAM: The Open Source CFD Toolbox
   \\    /   O peration     | Website:  https://openfoam.org
    \\  /    A nd           | Version:  9
     \\/     M anipulation  |
\*---------------------------------------------------------------------------*/
FoamFile
{
    format      ascii;
    class       volVectorField;
    location    "0.00235";
    object      rhoU;
}
// * * * * * * * * * * * * * * * * * * * * * * * * * * * * * * * * * * * * * //

dimensions      [1 -2 -1 0 0 0 0];

internalField   nonuniform List<vector> 
19968
(
(-1.57646e-13 5.87382e-15 3.96414e-14)
(-5.02023e-12 4.83359e-13 1.6964e-12)
(-1.3582e-10 1.40991e-11 4.88716e-11)
(-3.42201e-09 3.71467e-10 1.33871e-09)
(-7.83669e-08 9.49208e-09 3.43627e-08)
(-1.61892e-06 2.24448e-07 8.0659e-07)
(-3.27978e-05 4.92891e-06 2.0204e-05)
(-3.22113e-15 0 1.23835e-15)
(-3.21401e-13 2.23584e-14 1.31608e-13)
(-9.2587e-12 1.03019e-12 4.41422e-12)
(-2.28086e-10 2.78878e-11 1.18477e-10)
(-5.13134e-09 7.00067e-10 2.9575e-09)
(-1.03099e-07 1.58769e-08 6.74131e-08)
(-1.85191e-06 3.11457e-07 1.40484e-06)
(0 0 0)
(-9.44403e-15 0 3.89493e-15)
(-4.66863e-13 4.7559e-14 2.69272e-13)
(-1.19731e-11 1.59919e-12 7.72942e-12)
(-2.62498e-10 3.89516e-11 1.88115e-10)
(-5.11092e-09 8.51805e-10 4.17513e-09)
(-8.5001e-08 1.58457e-08 8.18695e-08)
(0 0 0)
(0 0 0)
(-1.20767e-14 0 7.78909e-15)
(-4.99615e-13 6.21488e-14 3.79728e-13)
(-1.13879e-11 1.77711e-12 9.63741e-12)
(-2.15984e-10 3.76633e-11 2.08113e-10)
(-3.47886e-09 6.8409e-10 3.95253e-09)
(0 0 0)
(0 0 0)
(0 0 0)
(-9.72779e-15 0 9.4739e-15)
(-4.03746e-13 5.32433e-14 3.88241e-13)
(-8.03658e-12 1.4334e-12 8.33921e-12)
(-1.26675e-10 2.55653e-11 1.54878e-10)
(-3.11258e-05 4.95683e-06 2.74311e-05)
(-1.15337e-06 2.30499e-07 1.37019e-06)
(-4.4423e-08 9.8036e-09 6.23178e-08)
(-1.5919e-09 3.66212e-10 2.40317e-09)
(-0.000613772 0.000123674 0.000471555)
(-553.294 63.0044 467.034)
(-0.000351304 9.09837e-05 0.000410187)
(-1.2466e-05 2.43001e-06 1.76417e-05)
(-4.14131e-07 9.89193e-08 7.30966e-07)
(-1.47816e-08 3.82535e-09 2.82667e-08)
(-629.349 78.3314 623.47)
(-0.179098 0.0624919 0.316067)
(-0.00070278 0.000192079 0.00122717)
(-2.96721e-06 5.76233e-07 5.20618e-06)
(-1.05061e-07 2.52885e-08 2.26619e-07)
(-8.16638e-05 1.75818e-06 3.39395e-06)
(-1.13014 0.0416405 0.0139094)
(-1440.79 72.1332 44.6826)
(-1099.24 58.2526 114.192)
(-1.03423e-05 2.33338e-07 2.02006e-06)
(-0.0850258 0.00298928 0.0189345)
(-1.52825 0.0570877 0.373688)
(-1288.13 66.51 403.747)
(-531.351 29.7591 160.934)
(-1.8712e-06 3.57576e-08 5.01744e-07)
(-0.000203481 1.67765e-05 8.66356e-05)
(-16.9584 0.731775 7.75594)
(-533.87 27.5618 382.253)
(-1151.04 63.6084 698.382)
(0 0 0)
(-2.65674e-22 0 0)
(-7.81252e-20 0 0)
(-1.23259e-17 0 0)
(-1.31614e-15 -1.89478e-16 0)
(-9.50377e-14 -1.28277e-13 2.74743e-15)
(-2.03806e-12 -3.01327e-12 1.15203e-13)
(-3.16879e-11 -5.65361e-11 2.31315e-12)
(-3.75306e-10 -8.31648e-10 3.56091e-11)
(-3.46027e-09 -9.09199e-09 4.1895e-10)
(0 0 0)
(-3.89679e-20 0 0)
(-9.77596e-18 0 0)
(-1.38165e-15 -1.89478e-16 0)
(-1.31204e-13 -1.36873e-13 3.60008e-15)
(-3.25615e-12 -3.87268e-12 1.71383e-13)
(-6.32741e-11 -8.8388e-11 3.79183e-12)
(-9.80128e-10 -1.69195e-09 7.53551e-11)
(-1.16119e-08 -2.47356e-08 1.19437e-09)
(-1.06938e-07 -2.57536e-07 1.40608e-08)
(0 0 0)
(-5.2526e-18 0 0)
(-1.29e-15 0 0)
(-1.38768e-13 -1.12545e-13 3.22113e-15)
(-3.8928e-12 -3.60739e-12 1.69488e-13)
(-9.05309e-11 -9.55314e-11 4.60138e-12)
(-1.80037e-09 -2.25704e-09 1.12431e-10)
(-2.90663e-08 -4.71473e-08 2.44571e-09)
(-3.72941e-07 -7.51978e-07 4.39105e-08)
(-3.23196e-06 -6.77755e-06 5.03857e-07)
(0 0 0)
(-6.33508e-16 0 0)
(-1.10344e-13 -6.96785e-14 1.98952e-15)
(-3.52964e-12 -2.55107e-12 1.41824e-13)
(-9.4423e-11 -7.55124e-11 4.23015e-12)
(-2.27791e-09 -2.0684e-09 1.18938e-10)
(-5.07118e-08 -5.5454e-08 3.29696e-09)
(-1.01244e-06 -1.46589e-06 9.6415e-08)
(-1.19674e-05 -1.84654e-05 1.52192e-06)
(-7.22892e-05 -0.000147079 2.94833e-05)
(0 0 0)
(-6.73549e-14 -2.85774e-14 1.04213e-15)
(-2.4171e-12 -1.33422e-12 9.19916e-14)
(-7.19783e-11 -4.34367e-11 2.85765e-12)
(-1.97943e-09 -1.30225e-09 8.9831e-11)
(-5.37547e-08 -3.90406e-08 2.85045e-09)
(-1.56949e-06 -1.38352e-06 1.11579e-07)
(-1.72858e-05 -1.89024e-05 1.67023e-06)
(-8.41763e-05 -0.000122299 4.03253e-06)
(-0.119384 -0.24224 0.049927)
(-2.76638e-14 -6.17725e-15 0)
(-1.2202e-12 -5.12171e-13 3.96957e-14)
(-3.97695e-11 -1.81157e-11 1.43691e-12)
(-1.18238e-09 -5.74902e-10 4.8638e-11)
(-3.42231e-08 -1.75191e-08 1.60853e-09)
(-1.15315e-06 -6.22386e-07 6.53186e-08)
(-2.11104e-05 -1.59756e-05 1.70655e-06)
(-0.00015221 -0.000138746 5.8306e-06)
(-0.00762563 -0.00849958 0.000144406)
(-842.378 -1144.99 322.47)
(-4.52095e-13 -1.38756e-13 1.06108e-14)
(-1.58895e-11 -5.53003e-12 5.46455e-13)
(-4.96079e-10 -1.83518e-10 1.90835e-11)
(-1.427e-08 -5.70366e-09 6.39067e-10)
(-3.91837e-07 -1.71414e-07 2.13582e-08)
(-1.15649e-05 -6.25513e-06 8.64115e-07)
(-8.22278e-05 -4.23827e-05 2.54368e-06)
(-0.00607574 -0.00441087 0.000111269)
(-634.963 -591.291 34.8149)
(-511.554 -617.709 186.999)
(-4.41275e-12 -1.21531e-12 1.52625e-13)
(-1.50661e-10 -4.32347e-11 5.37653e-12)
(-4.54127e-09 -1.45221e-09 1.88817e-10)
(-1.23166e-07 -4.75135e-08 6.35066e-09)
(-3.0292e-06 -1.41716e-06 2.12634e-07)
(-0.00755977 -0.00291229 0.000102135)
(-498.815 -325.412 12.8452)
(-887.252 -614.842 40.8326)
(-321.679 -253.243 20.2584)
(0 0 0)
(-3.44939e-23 0 0)
(-1.19883e-20 0 0)
(-2.55217e-18 0 0)
(-2.961e-16 0 0)
(-2.63363e-14 -3.42955e-14 4.358e-15)
(-6.28355e-13 -9.43601e-13 2.12879e-13)
(-9.85871e-12 -1.75258e-11 4.37997e-12)
(-1.16557e-10 -2.56163e-10 6.37453e-11)
(-1.0314e-09 -2.86278e-09 6.97529e-10)
(0 0 0)
(-5.48728e-21 0 0)
(-1.77774e-18 0 0)
(-3.36466e-16 0 0)
(-3.44398e-14 -3.80281e-14 5.49486e-15)
(-1.00043e-12 -1.20621e-12 2.9407e-13)
(-1.95916e-11 -2.73992e-11 7.1203e-12)
(-2.99303e-10 -5.10608e-10 1.31243e-10)
(-3.54827e-09 -7.33202e-09 1.87166e-09)
(-3.25339e-08 -8.05434e-08 1.96293e-08)
(0 0 0)
(-8.49219e-19 0 0)
(-2.46342e-16 0 0)
(-3.88787e-14 -2.99384e-14 4.92643e-15)
(-1.21966e-12 -1.12992e-12 3.17376e-13)
(-2.80807e-11 -2.98726e-11 8.6456e-12)
(-5.40305e-10 -6.78907e-10 1.92475e-10)
(-8.24651e-09 -1.27391e-08 3.53693e-09)
(-9.70912e-08 -1.76183e-07 4.74362e-08)
(-8.92042e-07 -1.76387e-06 4.28537e-07)
(0 0 0)
(-1.23769e-16 0 0)
(-2.95188e-14 -1.58319e-14 3.12639e-15)
(-1.10345e-12 -7.9515e-13 2.55511e-13)
(-2.95589e-11 -2.38874e-11 7.94662e-12)
(-6.86174e-10 -6.33462e-10 2.05151e-10)
(-1.34629e-08 -1.47782e-08 4.62631e-09)
(-2.1189e-07 -2.9191e-07 8.46677e-08)
(-2.62902e-06 -3.99252e-06 9.72845e-07)
(-2.621e-05 -6.28509e-05 1.05566e-05)
(0 0 0)
(-1.61012e-14 -4.90625e-15 1.04213e-15)
(-7.5174e-13 -4.1616e-13 1.48267e-13)
(-2.28303e-11 -1.38979e-11 5.50434e-12)
(-6.1094e-10 -4.11483e-10 1.59152e-10)
(-1.45216e-08 -1.11428e-08 4.15986e-09)
(-3.05612e-07 -2.77755e-07 9.56663e-08)
(-5.97343e-06 -6.63478e-06 1.84986e-06)
(-1.5276e-05 -2.22464e-05 4.50574e-06)
(-0.0382996 -0.0792324 0.0170684)
(-3.97904e-15 -5.68005e-16 0)
(-3.85002e-13 -1.54377e-13 6.4991e-14)
(-1.27826e-11 -5.82075e-12 2.83052e-12)
(-3.77857e-10 -1.84542e-10 8.90133e-11)
(-1.01685e-08 -5.45306e-09 2.55219e-09)
(-2.47012e-07 -1.49391e-07 6.58368e-08)
(-5.71467e-06 -4.37022e-06 1.47961e-06)
(-2.53126e-05 -2.19439e-05 5.28537e-06)
(-0.00137782 -0.00151494 0.000329621)
(-725.174 -987.004 351.584)
(-1.42677e-13 -3.68929e-14 1.69583e-14)
(-5.09384e-12 -1.78192e-12 1.0769e-12)
(-1.60614e-10 -5.88506e-11 3.57139e-11)
(-4.64713e-09 -1.83359e-09 1.08356e-09)
(-1.18551e-07 -5.23023e-08 2.90126e-08)
(-2.67891e-06 -1.38408e-06 6.20209e-07)
(-1.73426e-05 -1.04928e-05 3.11369e-06)
(-0.00102365 -0.000793186 0.000207042)
(-775.976 -719.414 307.326)
(-555.22 -672.818 258.296)
(-1.43378e-12 -3.80661e-13 2.77809e-13)
(-4.85417e-11 -1.37823e-11 1.04056e-11)
(-1.47839e-09 -4.37508e-10 3.31246e-10)
(-4.04769e-08 -1.30661e-08 9.42003e-09)
(-8.81799e-07 -3.35665e-07 2.07904e-07)
(-0.000271928 -0.000126784 6.55238e-05)
(-63.1317 -36.8896 20.7529)
(-1120.72 -767.912 396.964)
(-438.711 -343.43 204.422)
(-178.255 -162.51 58.7044)
(0 0 0)
(-8.18944e-25 0 0)
(-4.32769e-22 0 0)
(-1.00473e-19 0 0)
(-1.41186e-17 0 0)
(-1.20322e-15 -5.68434e-16 0)
(-7.36866e-14 -1.20319e-13 2.41585e-14)
(-1.30216e-12 -2.34005e-12 6.0434e-13)
(-1.56992e-11 -3.48183e-11 9.1337e-12)
(-1.37578e-10 -3.86639e-10 1.02465e-10)
(0 0 0)
(-1.38841e-22 0 0)
(-6.15593e-20 0 0)
(-1.30042e-17 0 0)
(-1.55509e-15 -5.68218e-16 0)
(-1.22292e-13 -1.51348e-13 3.40113e-14)
(-2.58949e-12 -3.63688e-12 9.97128e-13)
(-4.03929e-11 -6.91139e-11 1.8823e-11)
(-4.79545e-10 -1.0393e-09 2.79316e-10)
(-4.2036e-09 -1.12591e-08 3.13583e-09)
(0 0 0)
(-2.22709e-20 0 0)
(-8.03667e-18 0 0)
(-1.96837e-15 -1.89478e-16 0)
(-1.53325e-13 -1.42897e-13 3.80851e-14)
(-3.7333e-12 -4.01741e-12 1.2282e-12)
(-7.28409e-11 -9.20895e-11 2.78141e-11)
(-1.15694e-09 -1.82224e-09 5.32846e-10)
(-1.40235e-08 -2.88791e-08 8.16826e-09)
(-1.22668e-07 -2.94575e-07 9.17483e-08)
(0 0 0)
(-3.26682e-18 0 0)
(-1.13024e-15 0 0)
(-1.40012e-13 -1.0119e-13 2.89901e-14)
(-3.9887e-12 -3.27743e-12 1.13696e-12)
(-9.31845e-11 -8.73558e-11 3.00042e-11)
(-1.91334e-09 -2.12383e-09 7.05933e-10)
(-3.33861e-08 -4.74579e-08 1.48067e-08)
(-4.46755e-07 -8.44799e-07 2.62434e-07)
(-4.22444e-06 -8.39209e-06 3.23328e-06)
(0 0 0)
(-4.25311e-16 0 0)
(-9.75004e-14 -5.28826e-14 1.62004e-14)
(-3.15194e-12 -1.97332e-12 7.93155e-13)
(-8.48273e-11 -5.86982e-11 2.3582e-11)
(-2.09981e-09 -1.6359e-09 6.45305e-10)
(-4.91941e-08 -4.49778e-08 1.69504e-08)
(-1.02173e-06 -1.17253e-06 4.4401e-07)
(-6.60163e-06 -9.05164e-06 3.65716e-06)
(-0.000447308 -0.000835043 0.000494934)
(0 0 0)
(-4.85403e-14 -1.5642e-14 5.5896e-15)
(-1.82573e-12 -8.48107e-13 4.08325e-13)
(-5.46323e-11 -2.76101e-11 1.33904e-11)
(-1.5216e-09 -8.27611e-10 4.04004e-10)
(-4.15883e-08 -2.4522e-08 1.19506e-08)
(-1.1306e-06 -8.1966e-07 3.89234e-07)
(-8.97295e-06 -8.23464e-06 3.97409e-06)
(-0.000129356 -0.000144717 7.54845e-05)
(-13.8523 -19.0972 16.1657)
(-1.40214e-14 -2.07782e-15 1.23161e-15)
(-7.47869e-13 -2.53119e-13 1.46277e-13)
(-2.44511e-11 -9.13698e-12 5.39757e-12)
(-7.23745e-10 -2.88058e-10 1.72588e-10)
(-2.0417e-08 -8.68122e-09 5.28351e-09)
(-6.46539e-07 -2.84393e-07 1.82011e-07)
(-1.12284e-05 -6.75388e-06 4.32107e-06)
(-0.000136085 -9.84132e-05 5.63939e-05)
(-0.0202676 -0.0179077 0.00971264)
(-914.161 -1000.6 940.506)
(-2.18279e-13 -4.69906e-14 3.18311e-14)
(-7.65272e-12 -2.13125e-12 1.58179e-12)
(-2.37721e-10 -6.97255e-11 5.20688e-11)
(-6.86809e-09 -2.18863e-09 1.63532e-09)
(-1.78959e-07 -6.52925e-08 4.88142e-08)
(-4.28544e-06 -1.87151e-06 1.50941e-06)
(-3.05795e-05 -1.24726e-05 1.32619e-05)
(-0.00202064 -0.000836777 0.0012425)
(-1065.5 -809.735 936.077)
(-757.113 -655.044 677.571)
(0 0 0)
(-1.36818e-26 0 0)
(-1.02013e-23 0 0)
(-3.14181e-21 0 0)
(-5.1587e-19 0 0)
(-5.32784e-17 0 0)
(-2.86591e-15 -7.01069e-15 7.57912e-16)
(-1.35056e-13 -2.51437e-13 6.32857e-14)
(-1.83872e-12 -3.87824e-12 1.15477e-12)
(-1.7154e-11 -4.52881e-11 1.32917e-11)
(0 0 0)
(-2.28323e-24 0 0)
(-1.49951e-21 0 0)
(-4.43039e-19 0 0)
(-7.11919e-17 0 0)
(-7.25954e-15 -9.24454e-15 1.7053e-15)
(-2.61683e-13 -3.68569e-13 1.11982e-13)
(-4.43298e-12 -7.22312e-12 2.35246e-12)
(-5.46779e-11 -1.10584e-10 3.54854e-11)
(-5.04246e-10 -1.28959e-09 4.03361e-10)
(0 0 0)
(-3.61388e-22 0 0)
(-2.25799e-19 0 0)
(-6.35515e-17 0 0)
(-1.01004e-14 -8.11344e-15 2.08426e-15)
(-3.78471e-13 -4.02985e-13 1.40403e-13)
(-7.55847e-12 -9.31749e-12 3.44822e-12)
(-1.20021e-10 -1.78089e-10 6.57891e-11)
(-1.49578e-09 -2.80877e-09 1.01735e-09)
(-1.39295e-08 -3.30753e-08 1.16909e-08)
(0 0 0)
(-5.51297e-20 0 0)
(-3.55116e-17 0 0)
(-8.83312e-15 -4.72192e-15 1.51582e-15)
(-4.00313e-13 -3.30271e-13 1.32445e-13)
(-9.40533e-12 -8.82963e-12 3.7439e-12)
(-1.84482e-10 -2.0057e-10 8.60848e-11)
(-3.06395e-09 -4.07363e-09 1.75048e-09)
(-4.06026e-08 -7.08473e-08 3.0033e-08)
(-4.0259e-07 -9.01536e-07 3.77669e-07)
(0 0 0)
(-9.23452e-18 0 0)
(-5.4614e-15 -1.32377e-15 4.73695e-16)
(-3.20823e-13 -2.01235e-13 9.02863e-14)
(-8.60654e-12 -6.1266e-12 3.00721e-12)
(-1.98617e-10 -1.58372e-10 7.99049e-11)
(-4.15719e-09 -3.82725e-09 1.98261e-09)
(-7.84824e-08 -8.91381e-08 4.75175e-08)
(-1.22023e-06 -1.75859e-06 9.96671e-07)
(-7.90734e-06 -1.35908e-05 8.81193e-06)
(0 0 0)
(-1.92595e-15 0 0)
(-1.91256e-13 -8.87433e-14 4.58537e-14)
(-5.748e-12 -3.07849e-12 1.7774e-12)
(-1.49761e-10 -8.71095e-11 5.23268e-11)
(-3.64501e-09 -2.31948e-09 1.46845e-09)
(-8.65237e-08 -6.14891e-08 4.20039e-08)
(-1.85937e-06 -1.62846e-06 1.20937e-06)
(-1.11404e-05 -1.25297e-05 8.65173e-06)
(-0.00062403 -0.000846272 0.000771673)
(0 0 0)
(-8.05462e-14 -2.26021e-14 1.38319e-14)
(-2.76222e-12 -1.10544e-12 7.45691e-13)
(-7.8384e-11 -3.35928e-11 2.38617e-11)
(-2.06497e-09 -9.4768e-10 7.10283e-10)
(-5.24563e-08 -2.55618e-08 2.09373e-08)
(-1.31446e-06 -7.18727e-07 6.92233e-07)
(-1.03779e-05 -7.61482e-06 6.48049e-06)
(-0.000207811 -0.000187024 0.000195651)
(-2.82666 -3.20268 3.24035)
(-1.95162e-14 -2.27374e-15 2.20129e-15)
(-9.34785e-13 -2.66406e-13 2.15295e-13)
(-2.85823e-11 -9.15103e-12 7.62654e-12)
(-7.94858e-10 -2.71948e-10 2.36726e-10)
(-2.02882e-08 -7.67398e-09 6.98062e-09)
(-4.74307e-07 -2.02028e-07 1.98035e-07)
(-1.06934e-05 -5.53787e-06 6.26348e-06)
(-5.38214e-05 -2.82577e-05 3.29321e-05)
(-1.73376 -1.18602 1.53458)
(-728.078 -664.229 565.833)
(0 0 0)
(-1.11687e-28 0 0)
(-1.41067e-25 0 0)
(-6.43675e-23 0 0)
(-1.45469e-20 0 0)
(-1.78062e-18 0 0)
(-1.41388e-16 0 0)
(-6.46965e-15 -1.78109e-14 3.12639e-15)
(-1.81126e-13 -3.93735e-13 1.11982e-13)
(-1.94651e-12 -4.94164e-12 1.55224e-12)
(0 0 0)
(-2.00831e-26 0 0)
(-2.21759e-23 0 0)
(-9.27262e-21 0 0)
(-1.99417e-18 0 0)
(-2.3315e-16 0 0)
(-1.78993e-14 -2.73083e-14 6.25278e-15)
(-4.27213e-13 -6.83152e-13 2.31732e-13)
(-5.83992e-12 -1.11714e-11 3.85086e-12)
(-5.70232e-11 -1.39875e-10 4.59828e-11)
(0 0 0)
(-3.45104e-24 0 0)
(-3.51654e-21 0 0)
(-1.33246e-18 0 0)
(-2.64558e-16 0 0)
(-2.88536e-14 -3.06951e-14 9.18969e-15)
(-7.1265e-13 -8.62492e-13 3.3945e-13)
(-1.19576e-11 -1.69627e-11 6.70515e-12)
(-1.56787e-10 -2.73586e-10 1.04313e-10)
(-1.54809e-09 -3.48217e-09 1.25562e-09)
(0 0 0)
(-5.85698e-22 0 0)
(-5.56563e-19 0 0)
(-1.86219e-16 0 0)
(-3.13491e-14 -2.4119e-14 8.71599e-15)
(-8.70057e-13 -8.14579e-13 3.66545e-13)
(-1.74339e-11 -1.85616e-11 8.49061e-12)
(-2.90374e-10 -3.65447e-10 1.64241e-10)
(-3.91646e-09 -6.1187e-09 2.664e-09)
(-3.96567e-08 -8.00672e-08 3.30683e-08)
(0 0 0)
(-1.0511e-19 0 0)
(-8.46495e-17 0 0)
(-2.39495e-14 -1.20735e-14 4.92643e-15)
(-7.92584e-13 -5.69798e-13 2.97007e-13)
(-1.83725e-11 -1.47745e-11 7.88608e-12)
(-3.69193e-10 -3.37454e-10 1.80283e-10)
(-6.42734e-09 -6.95253e-09 3.72688e-09)
(-9.19592e-08 -1.25284e-07 6.71751e-08)
(-1.0137e-06 -1.82099e-06 9.29134e-07)
(0 0 0)
(-2.01063e-17 0 0)
(-1.18618e-14 -2.4542e-15 1.7053e-15)
(-5.33589e-13 -2.88431e-13 1.75836e-13)
(-1.40797e-11 -8.5062e-12 5.35067e-12)
(-3.24887e-10 -2.15826e-10 1.38298e-10)
(-6.80871e-09 -5.0783e-09 3.35502e-09)
(-1.28451e-07 -1.12263e-07 7.84295e-08)
(-2.15384e-06 -2.3777e-06 1.61018e-06)
(-1.78148e-05 -2.39817e-05 1.52188e-05)
(0 0 0)
(-3.4145e-15 0 9.4739e-17)
(-2.63701e-13 -1.03542e-13 7.38017e-14)
(-7.75777e-12 -3.5201e-12 2.61603e-12)
(-1.9749e-10 -9.60374e-11 7.35965e-11)
(-4.63749e-09 -2.44976e-09 1.94349e-09)
(-1.01295e-07 -5.85403e-08 4.98173e-08)
(-2.15368e-06 -1.3948e-06 1.26006e-06)
(-1.93301e-05 -1.67924e-05 1.2555e-05)
(-0.00122955 -0.00137553 0.00100771)
(0 0 1.20349e-17)
(-9.13494e-14 -2.02742e-14 1.89988e-14)
(-3.0355e-12 -1.03474e-12 9.04045e-13)
(-8.30673e-11 -3.02373e-11 2.73252e-11)
(-2.09698e-09 -8.24256e-10 7.61369e-10)
(-4.80812e-08 -2.11478e-08 1.97284e-08)
(-9.78902e-07 -4.97458e-07 4.73897e-07)
(-1.88225e-05 -1.19402e-05 1.14633e-05)
(-0.180073 -0.122352 0.131018)
(-504.842 -463.038 379.844)
(0 0 0)
(-1.96584e-31 0 0)
(-7.42652e-28 0 0)
(-5.98089e-25 0 0)
(-1.86359e-22 0 0)
(-3.18743e-20 0 0)
(-3.30534e-18 0 0)
(-2.05514e-16 0 0)
(-6.18293e-15 -2.40637e-14 5.5896e-15)
(-1.45519e-13 -3.96879e-13 1.43692e-13)
(0 0 0)
(-4.17939e-29 0 0)
(-1.27713e-25 0 0)
(-9.24561e-23 0 0)
(-2.63255e-20 0 0)
(-4.20489e-18 0 0)
(-4.10576e-16 0 0)
(-2.4637e-14 -4.29086e-14 1.44951e-14)
(-4.442e-13 -8.43028e-13 3.5385e-13)
(-4.72009e-12 -1.10957e-11 4.68149e-12)
(0 0 0)
(-8.38106e-27 0 0)
(-2.17956e-23 0 0)
(-1.40679e-20 0 0)
(-3.57966e-18 0 0)
(-5.14272e-16 0 0)
(-4.52971e-14 -5.54983e-14 2.34953e-14)
(-9.00161e-13 -1.25624e-12 6.02824e-13)
(-1.22928e-11 -2.07595e-11 9.91065e-12)
(-1.25034e-10 -2.71089e-10 1.25482e-10)
(0 0 0)
(-1.58518e-24 0 0)
(-3.71015e-21 0 0)
(-2.05901e-18 0 0)
(-4.47159e-16 0 0)
(-5.54619e-14 -4.93008e-14 2.52953e-14)
(-1.28977e-12 -1.36084e-12 7.52228e-13)
(-2.18615e-11 -2.69934e-11 1.48079e-11)
(-2.98463e-10 -4.49671e-10 2.41298e-10)
(-3.09922e-09 -6.02205e-09 3.13183e-09)
(0 0 0)
(-2.94433e-22 0 0)
(-6.18794e-19 0 0)
(-2.77093e-16 0 0)
(-4.90121e-14 -3.25716e-14 2.10321e-14)
(-1.34463e-12 -1.08089e-12 6.88942e-13)
(-2.72058e-11 -2.49408e-11 1.58859e-11)
(-4.66512e-10 -4.98325e-10 3.15155e-10)
(-6.58486e-09 -8.58405e-09 5.35891e-09)
(-7.02625e-08 -1.18406e-07 7.21076e-08)
(0 0 0)
(-5.92529e-20 0 0)
(-9.84255e-17 0 0)
(-3.18444e-14 -1.45234e-14 1.0895e-14)
(-1.03468e-12 -6.37383e-13 4.73316e-13)
(-2.41104e-11 -1.64278e-11 1.23542e-11)
(-4.89819e-10 -3.74095e-10 2.83104e-10)
(-8.68547e-09 -7.69124e-09 5.86724e-09)
(-1.28269e-07 -1.38612e-07 1.06663e-07)
(-1.46977e-06 -2.06953e-06 1.57151e-06)
(0 0 0)
(-1.3305e-17 0 0)
(-1.43715e-14 -2.45421e-15 2.55795e-15)
(-5.87756e-13 -2.6452e-13 2.33437e-13)
(-1.52039e-11 -7.68881e-12 6.91832e-12)
(-3.48184e-10 -1.91213e-10 1.74997e-10)
(-7.21508e-09 -4.40412e-09 4.10073e-09)
(-1.32389e-07 -9.24893e-08 8.88816e-08)
(-2.15166e-06 -1.82032e-06 1.80531e-06)
(-2.93326e-05 -3.24882e-05 2.78658e-05)
(0 0 0)
(-2.69306e-15 0 4.09276e-16)
(-2.32984e-13 -7.3707e-14 7.90237e-14)
(-6.72858e-12 -2.54147e-12 2.74639e-12)
(-1.677e-10 -6.76721e-11 7.4645e-11)
(-3.84247e-09 -1.69133e-09 1.88756e-09)
(-7.89645e-08 -3.93241e-08 4.37269e-08)
(-1.43655e-06 -8.34855e-07 9.19194e-07)
(-2.49626e-05 -1.81831e-05 1.91219e-05)
(-0.189477 -0.166488 0.188923)
(0 0 0)
(-1.81775e-35 0 0)
(-8.81482e-31 0 0)
(-1.91251e-27 0 0)
(-1.13029e-24 0 0)
(-3.10177e-22 0 0)
(-3.95635e-20 0 0)
(-3.17894e-18 0 0)
(-1.46873e-16 0 0)
(-2.46321e-15 -1.73517e-14 5.84491e-15)
(0 0 0)
(-4.95106e-33 0 0)
(-1.77047e-28 0 0)
(-3.24489e-25 0 0)
(-1.715e-22 0 0)
(-4.33552e-20 0 0)
(-5.15469e-18 0 0)
(-3.99995e-16 0 0)
(-1.86912e-14 -4.10238e-14 1.94215e-14)
(-2.68869e-13 -6.45347e-13 3.41412e-13)
(0 0 0)
(-1.44708e-30 0 0)
(-3.41994e-26 0 0)
(-5.50028e-23 0 0)
(-2.5501e-20 0 0)
(-5.68433e-18 0 0)
(-6.14907e-16 0 0)
(-4.43217e-14 -6.24444e-14 3.49587e-14)
(-7.1751e-13 -1.19305e-12 7.12059e-13)
(-7.54729e-12 -1.58136e-11 9.43121e-12)
(0 0 0)
(-4.08611e-28 0 0)
(-6.49685e-24 0 0)
(-9.30114e-21 0 0)
(-3.59193e-18 0 0)
(-6.67128e-16 0 0)
(-6.4031e-14 -6.82584e-14 4.70853e-14)
(-1.25268e-12 -1.53439e-12 1.04961e-12)
(-1.72618e-11 -2.55698e-11 1.73807e-11)
(-1.78986e-10 -3.39254e-10 2.28331e-10)
(0 0 0)
(-1.07077e-25 0 0)
(-1.24405e-21 0 0)
(-1.51738e-18 0 0)
(-4.55931e-16 0 0)
(-6.79916e-14 -5.15486e-14 3.97904e-14)
(-1.54604e-12 -1.42322e-12 1.11726e-12)
(-2.644e-11 -2.82167e-11 2.21892e-11)
(-3.66277e-10 -4.72249e-10 3.71379e-10)
(-3.86747e-09 -6.39543e-09 5.01052e-09)
(0 0 0)
(-2.53056e-23 0 0)
(-2.37493e-19 0 0)
(-2.23092e-16 0 0)
(-4.98855e-14 -2.74938e-14 2.81375e-14)
(-1.37594e-12 -9.48403e-13 8.69515e-13)
(-2.7801e-11 -2.1556e-11 2.0046e-11)
(-4.77355e-10 -4.26659e-10 4.00956e-10)
(-6.77665e-09 -7.2957e-09 6.91819e-09)
(-7.26664e-08 -1.00397e-07 9.56687e-08)
(0 0 0)
(-5.28231e-21 0 0)
(-4.28404e-17 0 0)
(-2.70748e-14 -6.79294e-15 1.10845e-14)
(-8.81791e-13 -4.49302e-13 4.9918e-13)
(-2.02309e-11 -1.14397e-11 1.28201e-11)
(-4.05105e-10 -2.53534e-10 2.90754e-10)
(-7.07422e-09 -5.06753e-09 5.93783e-09)
(-1.0226e-07 -8.76717e-08 1.05161e-07)
(-1.11703e-06 -1.23602e-06 1.4972e-06)
(0 0 0)
(-9.62224e-19 0 0)
(-6.98846e-15 -1.89478e-16 2.31074e-15)
(-3.96304e-13 -1.42677e-13 1.96113e-13)
(-1.01447e-11 -4.23218e-12 5.75078e-12)
(-2.25487e-10 -1.01174e-10 1.42095e-10)
(-4.51364e-09 -2.24261e-09 3.22985e-09)
(-7.81506e-08 -4.47898e-08 6.54909e-08)
(-1.12057e-06 -7.66047e-07 1.1448e-06)
(-1.3311e-05 -1.10836e-05 1.62919e-05)
(0 0 0)
(-2.00889e-43 0 0)
(-5.48318e-35 0 0)
(-1.47923e-30 0 0)
(-2.72548e-27 0 0)
(-1.35598e-24 0 0)
(-2.68187e-22 0 0)
(-2.75305e-20 0 0)
(-1.61179e-18 0 0)
(-3.14514e-28 -2.29663e-17 1.22541e-17)
(0 0 0)
(-1.73346e-40 0 0)
(-1.64545e-32 0 0)
(-2.96205e-28 0 0)
(-4.62961e-25 0 0)
(-2.09273e-22 0 0)
(-3.80052e-20 0 0)
(-3.67811e-18 0 0)
(-2.09548e-16 0 0)
(-4.92643e-15 -2.37947e-14 1.43676e-14)
(0 0 0)
(-1.32498e-37 0 0)
(-4.68326e-30 0 0)
(-5.73227e-26 0 0)
(-7.8258e-23 0 0)
(-3.13288e-20 0 0)
(-5.0918e-18 0 0)
(-4.56287e-16 0 0)
(-2.5514e-14 -4.72226e-14 3.35376e-14)
(-3.46745e-13 -7.32182e-13 5.30704e-13)
(0 0 0)
(-8.91354e-35 0 0)
(-1.24271e-27 0 0)
(-1.09797e-23 0 0)
(-1.30032e-20 0 0)
(-4.36061e-18 0 0)
(-6.11723e-16 0 0)
(-4.91269e-14 -6.26263e-14 5.11591e-14)
(-8.01249e-13 -1.17774e-12 9.6738e-13)
(-8.44617e-12 -1.56265e-11 1.28507e-11)
(0 0 0)
(-5.23926e-32 0 0)
(-3.01829e-25 0 0)
(-2.13019e-21 0 0)
(-2.03864e-18 0 0)
(-5.35938e-16 0 0)
(-6.30683e-14 -5.77389e-14 5.67487e-14)
(-1.21566e-12 -1.29836e-12 1.22564e-12)
(-1.67577e-11 -2.14705e-11 2.04102e-11)
(-1.73208e-10 -2.82261e-10 2.71037e-10)
(0 0 0)
(-2.66749e-29 0 0)
(-6.58746e-23 0 0)
(-4.13213e-19 0 0)
(-2.83905e-16 0 0)
(-5.6009e-14 -3.50097e-14 4.22536e-14)
(-1.27984e-12 -1.00548e-12 1.11451e-12)
(-2.17074e-11 -1.95893e-11 2.20161e-11)
(-2.97203e-10 -3.20862e-10 3.67697e-10)
(-3.08493e-09 -4.23637e-09 4.95628e-09)
(0 0 0)
(-1.16422e-26 0 0)
(-1.28649e-20 0 0)
(-7.54253e-17 0 0)
(-3.27555e-14 -1.22596e-14 2.26426e-14)
(-9.46412e-13 -5.33493e-13 7.19543e-13)
(-1.87344e-11 -1.19845e-11 1.63252e-11)
(-3.1329e-10 -2.28186e-10 3.20813e-10)
(-4.30735e-09 -3.73196e-09 5.41828e-09)
(-4.4076e-08 -4.84776e-08 7.28076e-08)
(0 0 0)
(-4.30331e-24 0 0)
(-2.63911e-18 0 1.60981e-18)
(-1.20072e-14 -1.32635e-15 6.55155e-15)
(-4.74903e-13 -1.90615e-13 3.25763e-13)
(-1.07586e-11 -4.95277e-12 8.29027e-12)
(-2.06578e-10 -1.04441e-10 1.81913e-10)
(-3.42371e-09 -1.96266e-09 3.56247e-09)
(-4.58554e-08 -3.11792e-08 5.89633e-08)
(-4.50961e-07 -3.77674e-07 7.49797e-07)
(0 0 0)
(0 0 0)
(-3.9352e-43 0 0)
(-5.61446e-35 0 0)
(-1.41194e-30 0 0)
(-2.15358e-27 0 0)
(-8.36406e-25 0 0)
(-1.29016e-22 0 0)
(-1.01568e-20 0 0)
(-2.14377e-31 0 0)
(0 0 0)
(0 0 0)
(-3.18134e-40 0 0)
(-1.64876e-32 0 0)
(-2.84857e-28 0 0)
(-3.67629e-25 0 0)
(-1.2959e-22 0 0)
(-1.85167e-20 0 0)
(-1.35639e-18 0 0)
(-5.42451e-29 -1.91575e-17 2.52877e-17)
(0 0 0)
(0 0 0)
(-2.30775e-37 0 0)
(-4.67114e-30 0 0)
(-5.52209e-26 0 0)
(-6.29351e-23 0 0)
(-1.97803e-20 0 0)
(-2.61428e-18 0 0)
(-1.83981e-16 0 0)
(-5.49486e-15 -2.22574e-14 1.87997e-14)
(0 0 0)
(0 0 0)
(-1.49243e-34 0 0)
(-1.25373e-27 0 0)
(-1.06165e-23 0 0)
(-1.07008e-20 0 0)
(-2.86206e-18 0 0)
(-3.42203e-16 0 0)
(-2.34258e-14 -3.76438e-14 3.8464e-14)
(-3.21544e-13 -6.03471e-13 5.84909e-13)
(0 0 0)
(0 0 0)
(-8.54046e-32 0 0)
(-3.10913e-25 0 0)
(-2.0972e-21 0 0)
(-1.73124e-18 0 0)
(-3.70823e-16 0 0)
(-3.8412e-14 -4.02704e-14 4.96433e-14)
(-6.48279e-13 -8.26691e-13 9.18305e-13)
(-6.79999e-12 -1.08873e-11 1.22067e-11)
(0 0 0)
(0 0 0)
(-4.28419e-29 0 0)
(-6.92984e-23 0 0)
(-4.19349e-19 0 0)
(-2.49808e-16 0 0)
(-4.07906e-14 -3.05004e-14 4.58537e-14)
(-8.33292e-13 -7.52741e-13 9.86328e-13)
(-1.14208e-11 -1.23479e-11 1.63939e-11)
(-1.15332e-10 -1.57302e-10 2.14346e-10)
(0 0 0)
(0 0 0)
(-1.88007e-26 0 0)
(-1.36936e-20 0 0)
(-7.76563e-17 0 0)
(-2.97966e-14 -1.24469e-14 2.59585e-14)
(-7.21815e-13 -4.66326e-13 7.48059e-13)
(-1.21006e-11 -8.9807e-12 1.44919e-11)
(-1.59979e-10 -1.40134e-10 2.35127e-10)
(-1.58379e-09 -1.74331e-09 3.05478e-09)
(0 0 0)
(0 0 0)
(-7.69613e-24 0 0)
(-2.7759e-18 0 5.89473e-18)
(-1.19535e-14 -1.7053e-15 9.99e-15)
(-4.18744e-13 -1.85499e-13 3.76854e-13)
(-8.21355e-12 -4.25378e-12 8.47934e-12)
(-1.303e-10 -7.60442e-11 1.59229e-10)
(-1.67278e-09 -1.14547e-09 2.53764e-09)
(-1.58259e-08 -1.33683e-08 3.14352e-08)
(0 0 0)
(0 0 0)
(0 0 0)
(-9.45617e-44 0 0)
(-2.68371e-35 0 0)
(-6.5309e-31 0 0)
(-9.21391e-28 0 0)
(-2.99951e-25 0 0)
(-3.74254e-23 0 0)
(-1.21403e-35 0 0)
(0 0 0)
(0 0 0)
(0 0 0)
(-9.27131e-41 0 0)
(-8.18333e-33 0 0)
(-1.36442e-28 0 0)
(-1.57792e-25 0 0)
(-4.56657e-23 0 0)
(-5.26014e-21 0 0)
(-4.14385e-33 0 0)
(0 0 0)
(0 0 0)
(0 0 0)
(-8.04275e-38 0 0)
(-2.43348e-30 0 0)
(-2.70085e-26 0 0)
(-2.67652e-23 0 0)
(-6.97201e-21 0 0)
(-7.33222e-19 0 0)
(-1.34988e-30 -7.76671e-18 2.66236e-17)
(0 0 0)
(0 0 0)
(0 0 0)
(-6.12481e-35 0 0)
(-6.93609e-28 0 0)
(-5.17269e-24 0 0)
(-4.5558e-21 0 0)
(-1.06597e-18 0 0)
(-1.0059e-16 0 0)
(-3.78956e-15 -1.26747e-14 1.79776e-14)
(0 0 0)
(0 0 0)
(0 0 0)
(-4.06049e-32 0 0)
(-1.84197e-25 0 0)
(-1.01108e-21 0 0)
(-7.64421e-19 0 0)
(-1.56739e-16 0 0)
(-1.36775e-14 -1.87583e-14 2.93691e-14)
(-2.13542e-13 -3.51976e-13 4.53119e-13)
(0 0 0)
(0 0 0)
(0 0 0)
(-2.3205e-29 0 0)
(-4.41032e-23 0 0)
(-2.09844e-19 0 0)
(-1.19758e-16 0 0)
(-2.00003e-14 -1.57267e-14 2.95586e-14)
(-3.68074e-13 -3.99988e-13 5.99035e-13)
(-3.90078e-12 -5.26607e-12 7.70866e-12)
(0 0 0)
(0 0 0)
(0 0 0)
(-1.129e-26 0 0)
(-9.21971e-21 0 0)
(-4.31788e-17 0 0)
(-1.62278e-14 -6.82121e-15 2.42532e-14)
(-3.90842e-13 -2.89144e-13 5.34612e-13)
(-5.35337e-12 -4.74984e-12 8.47223e-12)
(-5.18893e-11 -5.7118e-11 1.06922e-10)
(0 0 0)
(0 0 0)
(0 0 0)
(-4.60086e-24 0 0)
(-1.63417e-18 0 0)
(-7.50066e-15 -3.78956e-16 8.90547e-15)
(-2.67696e-13 -1.33203e-13 3.19271e-13)
(-4.44859e-12 -2.65421e-12 5.885e-12)
(-5.52473e-11 -3.85614e-11 9.03902e-11)
(-5.08644e-10 -4.35935e-10 1.09656e-09)
(-1.618e-06 1.37287e-08 8.8019e-08)
(-3.56135e-07 7.11376e-09 8.16043e-08)
(-7.7529e-08 8.26145e-10 1.71438e-08)
(-1.28499e-08 8.02987e-11 3.02941e-09)
(-3.40262e-07 1.98901e-09 9.06031e-08)
(-7.42889e-06 1.24286e-08 2.49415e-06)
(-0.000196074 9.22965e-06 8.41704e-05)
(-0.968013 0.0431763 0.509387)
(-136.563 7.6646 78.5801)
(-3.21997e-11 -6.99085e-12 1.09812e-12)
(-1.12519e-09 -2.48127e-10 4.13975e-11)
(-3.83236e-08 -8.77985e-09 1.64905e-09)
(-1.28452e-06 -3.23113e-07 7.47748e-08)
(-3.22413e-05 -1.10261e-05 1.57167e-06)
(-0.0525732 -0.0198387 0.00059571)
(-967.386 -587.937 27.319)
(-739.08 -491.538 35.9994)
(-288.178 -209.929 18.2417)
(-1.62465e-10 -3.10713e-11 5.87761e-12)
(-5.32124e-09 -1.04792e-09 2.15761e-10)
(-1.45729e-07 -3.12918e-08 7.2647e-09)
(-3.47143e-06 -8.28084e-07 2.2749e-07)
(-3.62732e-05 -1.14875e-05 1.4045e-06)
(-0.00396402 -0.0014084 6.32233e-05)
(-288.374 -136.391 6.95746)
(-350.424 -132.732 18.252)
(-5.24885e-10 -8.98265e-11 1.96615e-11)
(-1.60009e-08 -2.73503e-09 6.46614e-10)
(-4.47447e-07 -7.7248e-08 2.15449e-08)
(-1.31816e-05 -2.30259e-06 8.7874e-07)
(-0.000245423 -5.50065e-05 8.20469e-06)
(-0.291512 -0.0696495 0.00334704)
(-1312.5 -428.754 39.5227)
(-339.241 -112.638 16.8574)
(-1.13611e-09 -7.43728e-11 4.19267e-11)
(-3.68072e-08 -2.33949e-09 1.47184e-09)
(-1.2945e-06 -8.96243e-08 6.27387e-08)
(-4.09857e-05 -2.8387e-06 3.11338e-06)
(-0.212536 -0.0132062 0.0423748)
(-1275.75 -106.411 324.72)
(-610.142 -74.6477 110.219)
(-1.37953e-09 5.93256e-12 5.23008e-11)
(-4.71779e-08 3.03356e-10 1.94527e-09)
(-1.0196e-11 -2.23027e-12 2.19273e-12)
(-3.29989e-10 -7.65743e-11 7.43026e-11)
(-9.63084e-09 -2.4625e-09 2.32445e-09)
(-2.72909e-07 -7.57774e-08 6.64991e-08)
(-7.97599e-06 -2.43613e-06 1.73602e-06)
(-0.00372093 -0.00133319 0.000715251)
(-297.972 -184.07 105.935)
(-930.587 -604.113 326.67)
(-334.412 -249.606 129.418)
(-5.04235e-11 -9.96838e-12 1.1e-11)
(-1.71185e-09 -3.43934e-10 3.73828e-10)
(-5.03426e-08 -1.06915e-08 1.13365e-08)
(-1.16755e-06 -2.78868e-07 2.68756e-07)
(-1.26491e-05 -3.24716e-06 2.34271e-06)
(-0.000834951 -0.000233514 0.000159297)
(-25.9209 -10.3463 7.60469)
(-398.488 -164.731 130.751)
(-1.83833e-10 -3.21441e-11 3.92712e-11)
(-5.63738e-09 -1.00695e-09 1.23196e-09)
(-1.42805e-07 -2.66672e-08 3.31304e-08)
(-3.20057e-06 -5.71861e-07 6.811e-07)
(-5.72696e-05 -1.4894e-05 9.26387e-06)
(-0.0207476 -0.00582345 0.00379956)
(-781.554 -258.472 265.381)
(-373.707 -140.639 117.648)
(-3.90135e-10 -2.65036e-11 8.42311e-11)
(-1.16228e-08 -6.72115e-10 2.5807e-09)
(-3.09137e-07 -1.78996e-08 7.07583e-08)
(-8.30413e-06 -5.86278e-07 1.62728e-06)
(-0.00162785 -0.000117235 0.000485962)
(-86.7319 -7.75363 41.2815)
(-1202.85 -111.541 621.03)
(-465.806 -70.2047 180.174)
(-4.51869e-10 1.76158e-12 1.01565e-10)
(-1.30225e-08 1.24566e-10 2.98984e-09)
(-1.58479e-12 -3.16042e-13 3.13018e-13)
(-5.29502e-11 -1.16139e-11 1.11485e-11)
(-1.63371e-09 -3.76687e-10 3.55705e-10)
(-4.78472e-08 -1.18526e-08 1.11381e-08)
(-1.18288e-06 -3.41248e-07 3.31638e-07)
(-1.44862e-05 -5.48993e-06 6.19264e-06)
(-0.000166121 -6.146e-05 8.13047e-05)
(-718.485 -381.28 577.336)
(-280.707 -187.594 229.865)
(-7.27084e-12 -1.47722e-12 1.5684e-12)
(-2.32213e-10 -4.81725e-11 5.33643e-11)
(-6.61934e-09 -1.43523e-09 1.72032e-09)
(-1.74918e-07 -4.05237e-08 5.18491e-08)
(-4.54696e-06 -1.14412e-06 1.60914e-06)
(-8.47828e-05 -2.46113e-05 2.48242e-05)
(-0.0417157 -0.0139294 0.0154876)
(-1183.54 -512.332 918.016)
(-2.68163e-11 -4.91116e-12 6.01811e-12)
(-8.35055e-10 -1.54763e-10 1.96967e-10)
(-2.47352e-08 -4.73387e-09 6.0864e-09)
(-8.18899e-07 -1.53734e-07 2.12434e-07)
(-1.29432e-05 -2.74411e-06 4.3533e-06)
(-0.000642503 -0.000154762 0.000252021)
(-3.80351 -0.98451 1.6227)
(-833.777 -254.257 504.943)
(-6.7127e-11 -6.68532e-12 1.3963e-11)
(-2.13466e-09 -1.97197e-10 4.48431e-10)
(-6.43213e-08 -5.6123e-09 1.43128e-08)
(-1.76028e-06 -1.50594e-07 4.71901e-07)
(-3.5491e-05 -2.54137e-06 1.44781e-05)
(-0.0168962 -0.000957094 0.00946027)
(-470.93 -48.2471 339.319)
(-730.638 -168.472 422)
(-9.17584e-11 -1.4154e-13 1.79252e-11)
(-2.79339e-09 7.39533e-12 5.55876e-10)
(-2.14679e-13 -3.42475e-14 3.45797e-14)
(-7.22473e-12 -1.67482e-12 1.6783e-12)