/*--------------------------------*- C++ -*----------------------------------*\
  =========                 |
  \\      /  F ield         | OpenFOAM: The Open Source CFD Toolbox
   \\    /   O peration     | Website:  https://openfoam.org
    \\  /    A nd           | Version:  9
     \\/     M anipulation  |
\*---------------------------------------------------------------------------*/
FoamFile
{
    format      ascii;
    class       volScalarField;
    location    "0.00155";
    object      overpressureMax;
}
// * * * * * * * * * * * * * * * * * * * * * * * * * * * * * * * * * * * * * //

dimensions      [1 -1 -2 0 0 0 0];

internalField   nonuniform List<scalar> 
12618
(
170495
140522
190170
118598
137876
43032.5
28832.9
39216.4
33588.3
1.23231
0.065725
0.00400225
138367
56983.7
159590
55669.9
33041.6
6968.49
12467.2
3259.68
3403.38
138.097
60.6098
2.53414
211.27
1251.27
113041
92603.7
195361
123024
112173
80617.4
193829
108087
92219.7
37269.6
156960
58963
183339
94654.2
56966.9
23398.4
118812
20254.1
73654.6
15928.3
89249.9
45799.2
12585.1
7604.77
50801.1
11298.9
68786.4
36371.5
17279.7
4262.12
32118.4
1362.64
27196.7
1948.63
14895.2
8085.49
437.056
349.688
1436.31
750.956
5213.44
2815.69
178.778
0.579062
16.1619
3420.32
2630.66
499.705
165.642
4476.97
2458.76
246.549
628377
303688
530573
302011
298034
7280.82
129174
73.2974
55.6495
0.162458
496245
418345
596541
495525
295325
240459
304498
168829
491697
222612
425748
268927
5589.76
26644.7
36575.1
500.511
107547
571.661
192267
4195.68
9.09455
6.27436
256.402
1.55468
305406
113126
1257.84
1.06439
15357.8
8.74695
0.517352
0.565652
0.468238
0.0810519
292396
406533
229136
302745
404856
228502
304666
27025.2
353467
128593
249842
106171
227657
48349.9
37.9323
1951.79
404.115
2135.19
121.381
565.948
122.466
0.301007
19.5723
4.15927
17.5649
1.26208
4.55369
0.976846
136.157
2.69088
4.1442
0.659076
0.170619
0.343958
0.218336
1.05051
0.0652662
579427
898792
504837
492471
894013
502463
580158
579648
492611
888245
499594
885714
500403
582578
259323
303139
397443
191001
401163
219596
198837
572700
888439
496221
479831
582789
872584
458979
482408
419842
636680
124102
816124
315097
305358
4380.43
134218
10961.5
2009.86
74070
10795.8
621.184
61560.9
393426
27953.6
36787.1
141101
221273
7779.14
26217
12507.2
64447.6
910.522
128566
2697.37
9229.85
13.9233
746.472
67.966
14.8977
202.973
44.3017
4.5976
237157
374951
236626
291608
298323
359394
164110
52758.6
92746.1
167279
25683
110042
235323
170945
10076.7
310164
63585.8
18049.5
8701.47
651.731
4710.57
1084.86
693.493
22476.7
263.259
306.375
2781.37
5483.9
63.7751
140.88
59.5921
165.895
1.78383
1099.6
12.234
21.5533
0.0543191
3.27199
0.124395
0.0252753
0.843017
0.176309
0.0120879
65.8342
3.88048
0.353824
100.615
0.487227
7.75374
5.40908
0.00822865
0.000389806
0.0068246
0.217452
0.0106366
0.00904609
0.00048438
2.53661
1.05505
18.207
0.199036
0.115179
1.69294
0.0466588
0.000319325
0.764198
0.00474831
539095
513931
482442
301164
257255
211049
364551
293194
204393
121824
37665.2
1821.13
166427
151032
1299.44
1102.96
145549
359766
279911
533447
358187
284083
141391
155280
529453
351844
299131
360565
292482
164045
148500
324473
294426
430318
163331
274988
276244
126025
363165
180824
212147
221640
246557
104228
78473.5
157825
181190
232404
87751
147601
159281
74834
219492
141274
138551
143734
146774
73659.4
70491.8
139042
124467
198333
73472.7
136359
94548.4
53653.7
181848
129513
17138.9
133291
51370.2
27933.9
508284
450838
445455
350079
529714
433509
427750
483453
334071
388839
364259
413683
408035
452769
7703.6
131729
3465.29
4404.64
20107.1
45322.1
682.543
319506
209373
20454.5
387440
152473
213548
34503.3
319.255
0.13178
0.0891541
1.04441
394.873
64.4192
61.8045
720.513
0.0113916
34.2446
0.00068535
0.0533308
3.60773e-06
0.000596221
1.22018e-07
0.0585396
1.44614e-06
4.40923e-09
2.80052e-07
11702.5
206.811
2368.89
98.1479
43.1493
0.167919
6.85057
0.0450214
687.987
6.36074
4.89376
0.217785
1.81803
0.00363039
1.11059
0.330089
0.0454703
0.138462
0.0120087
0.0269274
8.32974e-05
0.0031433
0.115144
1.09941e-05
0.0065279
0.000176523
11.3356
0.167761
0.149893
124.547
5.27284
0.269287
0.0577236
0.447072
0.0283544
0.0191503
0.217641
0.0524602
0.00114826
0.00222078
0.0122781
0.000102828
0.000485287
0.0022977
0.00518166
2.09645e-05
0.000165775
0.00086747
3.18447e-06
2.96644e-05
5.17082e-06
0.000110163
3.58195e-07
3.68978e-06
0.0104395
1.37767e-05
0.00040316
0.00272993
0.000103238
84089.2
100548
7979.48
9362.07
90294.6
6331.43
97702.3
56907.9
5598.17
37315.5
1368.71
67671.4
3635.52
25134
0.420568
2.46935
8.02162
33.5365
1.97092
6.1268
0.54641
0.201807
18.6003
0.359028
1.0304
1.04247
2.91251
0.0660996
1429.46
12201.9
363.752
160.435
6940.45
2990.01
72.7725
226.986
29.4633
100.906
1.75864
592.403
11.2852
33.4423
0.00313832
0.0916566
0.248831
0.389123
0.0164387
0.0187854
0.050627
2.39196
21.1787
0.406877
0.383781
7.36183
6.85541
0.151877
0.922205
0.14099
0.827385
0.0247811
2.5151
0.0614402
0.296381
0.0197942
0.224768
0.00631303
0.0027958
0.0814069
0.0520504
0.00203451
0.00357965
0.000492067
0.00138345
0.000136835
0.00910802
0.000433359
0.000955615
0.00158473
0.157553
0.00494784
0.0202864
0.00640835
0.0264136
0.00133034
9.80169e-05
0.000218756
1.23662e-05
1.44621e-05
0.000265868
8.72263e-05
1.49307e-05
476.956
40.8569
571.116
370.174
31.6518
19.5764
25.816
17.9248
1.63609
7.62393
3.50064
0.382666
0.187726
0.817313
0.0244685
0.00271127
0.0194355
0.00980765
0.00104505
0.00098195
0.00221212
0.00043727
3.25993e-05
0.000141799
0.00016923
9.11114e-06
3.4197e-05
8.97219e-05
0.0154952
0.00336769
0.00803238
0.00203491
0.00074171
0.00118907
0.00505046
1.37755e-05
6.29225e-08
4.58924e-07
3.5409e-06
1.99019e-06
1.17652e-07
8.34698e-08
0.000453028
1.76372e-05
2.40197e-05
1.17856e-06
325.316
70.1937
6.33404
199.422
17.4852
10.0176
3.40719
1.29669
0.0924853
0.0101099
0.541334
0.0581259
0.0278047
0.00738381
0.00712279
0.0017069
0.000126211
0.0039851
0.000383317
0.000557011
0.000265625
2.55928e-05
1.58467e-05
5.28817e-07
3.58465e-05
1.89093e-06
1.03407e-05
3.7782e-06
0.000199488
4.19794e-05
1.06996e-05
0.000177495
6.07494e-05
0.000108511
3.17466e-05
0.00500136
0.000434137
0.000171454
0.00967342
0.0023671
0.000185504
8.31681e-05
0.00059252
1.51863e-05
1.70306e-05
3.20701e-05
8.18015e-05
9.37041e-07
3.25455e-06
1.84392e-05
1.3235e-07
6.5926e-07
7.46135e-07
5.25951e-06
3.2247e-08
2.00511e-07
9.99149e-07
4.9622e-09
3.26982e-08
1.40863e-08
1.25234e-07
7.13044e-10
5.70435e-09
4.86481e-06
1.97542e-07
7.52334e-09
2.32831e-10
0.000288458
0.00682802
0.0320252
0.184179
0.000357783
0.0629415
0.117496
0.00624716
0.00333141
0.00406956
0.000312024
0.104197
0.854083
267.858
20.0559
0.280609
0.0366589
0.00194833
0.000142813
1.17006e-06
1.75128e-05
0.00151745
5.75055e-05
0.026661
0.0183438
0.00108189
0.15747
0.00898648
0.00647654
0.000456038
0.00232727
0.00193775
0.000116228
0.00657077
0.00051749
0.000393813
2.94752e-05
0.000145091
9.75602e-05
7.63836e-06
0.000703832
4.80171e-05
3.11363e-05
2.54047e-06
9.39351e-06
5.92625e-06
4.467e-07
1.80262e-05
1.34709e-06
8.46761e-07
9.45438e-08
1.10733e-06
0.000318531
0.000145454
1.40746e-05
1.13541e-05
1.92371e-05
7.04455e-06
0.000194852
1.91463e-05
1.17198e-06
5.67379e-08
1.45519e-11
6.1933e-08
7.13044e-10
3.21597e-09
0
1.01863e-10
0
0
0
0
0
5.04951e-09
2.91038e-11
0
0
0.000524142
0.000122579
1.21963e-05
7.95873e-07
6.59064e-06
1.31287e-07
2.37196e-09
0
0
0
681926
650653
677853
682164
711539
602174
610463
628543
585631
1.87138e-08
4.92582e-08
7.13044e-10
5.60249e-09
5.82077e-11
2.76486e-10
0
0
0
0
0
3.10599e-06
3.32642e-07
2.14495e-08
9.74978e-10
2.32831e-10
382809
0.000187264
6.62872e-05
0.0028566
0.0655189
0.000158892
0.00352224
0.000296423
1.46189e-05
3.50582e-05
1.66638e-06
195602
148591
165.676
3.12394
0.12877
0.087301
0.0164911
0.00104044
7.49081e-05
8.24493e-06
377.519
0.358462
1265.32
214.758
59.0789
94.149
24.4948
3.11449
11.2937
1.09468e+06
735052
1.11111e+06
762571
595222
635576
1.42902e+06
1.10625e+06
1.25694e+06
1.02048e+06
1.47052e+06
1.03524e+06
1.22241e+06
3.10017e+06
2.75979e+06
3.07522e+06
2.74875e+06
1.29133e+06
900818
794827
946302
928119
1.12312e+06
1.05485e+06
2.85451e+06
2.14628e+06
2.59733e+06
2.25832e+06
550186
661516
719291
544225
765498
556091
541211
694080
1.50474e+06
1.42376e+06
844780
1.28864e+06
1.10278e+06
614862
435174
1201.26
924840
1.17487e+06
834674
772841
738977
490764
412947
456410
319379
137739
1.03498e+06
1.25314e+06
1.1132e+06
1.2553e+06
1.22474e+06
1.08091e+06
1.06523e+06
884510
1.06406e+06
1.04142e+06
1.00649e+06
947591
965608
1.02906e+06
473193
579615
670873
531215
594082
505713
520651
261682
419226
336411
406121
335174
399781
242372
4.043
0.167759
914848
1.1413e+06
779293
902440
1.11344e+06
758380
942815
2.38575e+06
2.73972e+06
2.66973e+06
2.44091e+06
2.02324e+06
1.65233e+06
1.62946e+06
2.06054e+06
1.00786e+06
1.22561e+06
1.1395e+06
1.05087e+06
1.19509e+06
1.05954e+06
983369
887256
878595
1.02801e+06
713799
1.08371e+06
738450
854966
2.30689e+06
2.54024e+06
2.58472e+06
2.27063e+06
1.95946e+06
1.57601e+06
1.59021e+06
1.92712e+06
748184
953757
673368
692025
810948
857607
621053
2.21711e+06
2.53976e+06
2.26885e+06
2.49695e+06
1.875e+06
1.56953e+06
1.9208e+06
1.53262e+06
828853
880513
695489
846305
835564
973296
733446
691129
591517
606869
505805
733515
579470
610039
2.09404e+06
2.03337e+06
2.37509e+06
1.8269e+06
1.76878e+06
1.24079e+06
1.45051e+06
1.52923e+06
400067
508083
409691
364465
493115
447110
338700
877315
1.51192e+06
1.38816e+06
910807
720794
875605
1.1346e+06
530498
412591
484520
439180
390417
464444
443496
375037
353596
337025
392071
273905
413245
300635
326572
575122
345904
566972
370782
484593
199937
335416
315628
57814.9
166333
195926
41873.8
113471
315447
169884
11097.6
331642
88720.6
16608.6
8502.4
648.349
5909.29
979.981
0.257368
55.2314
2.06372
3.28707
86.6961
0.409357
6.51488
1.70658e+06
1.64437e+06
1.28225e+06
852903
724453
1.41534e+06
1.48308e+06
1.09372e+06
730851
602935
497853
479435
475099
1.81506e+06
1.05785e+06
1.08159e+06
1.54973e+06
966250
879776
521846
451559
378608
1.69353e+06
1.6189e+06
1.61235e+06
1.70627e+06
1.63442e+06
1.45722e+06
1.56417e+06
1.51302e+06
1.07454e+06
1.27025e+06
1.31771e+06
1.03304e+06
864939
832049
642971
1.48785e+06
1.27575e+06
1.31668e+06
1.06239e+06
1.26602e+06
1.29562e+06
1.50206e+06
1.44657e+06
1.03142e+06
1.14445e+06
1.18664e+06
1.22649e+06
1.26311e+06
1.35236e+06
1.02837e+06
1.01894e+06
1.08772e+06
765767
1.21525e+06
857408
954576
833055
633835
577505
645062
693218
789465
688377
580806
522002
552998
414792
616266
493736
505972
563222
393765
465559
462306
479010
480113
547474
0.0018333
1.82747e-05
0.000131589
4.19139e-07
2.94825e-06
0.00124806
0.000243452
0.000120772
1.20729e-05
6.64081e-06
1.70563e-07
1.67798e-07
2.37196e-09
2.54659e-09
1.45519e-11
4.68193e-07
6.0827e-09
4.54311e-08
695628
1.2944e+06
358420
4.61359
0.0154819
6.20732e-05
4.92579e-06
4.03277e-07
7.87259e-09
667188
1.30346e+06
53941.3
0.106756
0.00040412
1.34659e-06
3.43425e-09
1.1205e-08
1.74623e-10
63019.7
924875
6.6944
6.14508e-05
5.63596e-08
1.0361e-08
0
1.30967e-10
0
66.8225
345216
0.0115023
1.251e-06
0
7.27596e-11
0
0
0
0.03665
85.6458
8.79714e-05
0.003066
3.19706e-08
8.3659e-08
0
2.83762e-09
7.19653e-05
0.0672935
2.69458e-07
0.00020906
2.91038e-10
4.26226e-08
1.37968e+06
1.3965e+06
1.32178e+06
1.44509e+06
1.32233e+06
755791
679104
1.31856e+06
748508
1.2854e+06
1.30212e+06
1.17773e+06
2856.91
268200
1080.07
0.4039
0.172903
0.0187792
1.61775
0.0511979
0.0467585
0.00497197
0.000254715
0.000275849
7.26472e-05
0.00179443
2.93634e-05
7.23434e-05
2.01055e-05
1.21368e+06
929833
1.31435e+06
720662
622274
1.08605e+06
290439
1.06638e+06
82.5608
1064.86
1.49214
0.0119788
0.00302057
0.000321965
0.00220746
2.01985e-05
7.60905e-05
7.35882e-06
6.96276e-06
4.54851e-06
1.53662e-06
6.32033e-07
4.44998e-08
1.17128e-07
6.62112e-08
653284
533559
554907
959913
47150.1
2088.59
444585
612.411
461516
461356
0.0117798
0.0991233
0.000335443
1.77347e-06
2.01732e-06
1.18453e-07
5.40621e-06
5.03496e-09
1.49303e-07
4.52565e-09
1.54105e-08
2.6339e-09
5.23869e-09
1.60071e-10
5.09317e-10
1.16415e-10
7.71252e-10
486855
537974
372637
461122
290724
23.7355
0.700392
1627.22
0.00659224
439196
4582.93
87020.1
5.77022e-05
0.000675952
1.73351e-06
9.8953e-10
1.50758e-08
3.34694e-10
5.13683e-08
1.25146e-09
1.5425e-09
0
1.30967e-10
0
8.73115e-11
2.59024e-09
1.02882e-08
1.45519e-11
1.45519e-10
0.00123712
5.31407e-07
4.98199e-07
4.28227e-05
0.000242544
1.17111e-06
7.6069e-06
0.0400971
1.22403e-06
5.40703e-06
0.000981275
0.00221473
3.23168e-05
8.15688e-05
779.738
0.0229617
14.0408
0.00192974
0.0418165
1.88554e-05
0.000560436
2.31958e-08
5.19175e-06
5.63159e-09
492664
461567
230443
2.48639
604.453
256.853
120757
1.09528
198.998
259637
1559.74
7825.24
0.16904
9.88858
0.282509
93.8119
0.0166142
0.180503
16.9337
0.730532
0.409077
0.00170932
0.0311633
0.00445729
0.0703911
0.000176584
0.0023053
0.186588
0.0199458
0.011108
2.02266e-05
0.000297211
4.31646e-05
0.000657235
1.79779e-06
2.62488e-05
1.65656e+06
1.2141e+06
1.64688e+06
1.27184e+06
1.18287e+06
1.63801e+06
1.66007e+06
331455
599065
592688
288609
446380
443854
301696
9.70688e-05
0.000556932
0.00297253
0.0124403
0.000443615
0.00230572
0.000124505
1.58584e+06
1.15492e+06
1.6124e+06
1.26755e+06
1.62669e+06
1.10753e+06
1.58204e+06
399722
9192.39
176172
23140.5
405994
87018
268989
4.19634e-07
1.29996e-05
6.83079e-05
6.24502e-05
2.60383e-06
1.92138e-06
1.00839e-05
546378
764862
883702
761543
807389
633864
583260
0.643295
153.912
13.9084
2.73994
775.413
29.0384
70.3983
1.01863e-10
1.76078e-09
9.34233e-09
5.63159e-09
4.65661e-10
1.45519e-10
1.1205e-09
56839.5
386750
93512.7
186504
184797
279537
18174
0.00091783
0.0748669
0.00378461
0.002224
0.389181
0.0151591
0.0568071
0
0
0
0
0
0
0
0.00151778
0.608394
0.00151531
8.84792
0.0187855
0.163204
0.00788986
578.847
0.0529577
1.9586
0.301887
2.0237
0.027949
0.0596777
0.000258756
0.00699049
0.00021831
0.00153613
0.00040128
0.00253514
0.000174503
8.29459e-10
1.16415e-10
1.22236e-08
3.25526e-08
4.22006e-10
2.27912e-07
6.53381e-09
7.3899e-07
2.44472e-09
7.11589e-09
1.05433e-06
2.82159e-06
3.33821e-08
9.18226e-08
1.13374e+06
1.20439e+06
1.39755e+06
1.30015e+06
1.17942e+06
1.39401e+06
1.13687e+06
750198
858216
853289
1.40696e+06
756397
749173
1.42333e+06
2.74151e+06
3.41679e+06
3.35469e+06
2.78743e+06
1.13226e+06
1.29899e+06
1.1769e+06
1.39521e+06
1.17156e+06
1.39286e+06
1.12432e+06
851734
752452
856579
1.38525e+06
748255
744874
1.37223e+06
2.68055e+06
3.26421e+06
3.28961e+06
2.64227e+06
1.51346e+06
1.24769e+06
1.29208e+06
1.24737e+06
1.20657e+06
1.30148e+06
1.50894e+06
3.56867e+06
3.77644e+06
3.70378e+06
3.63406e+06
3.18643e+06
2.94757e+06
2.88584e+06
3.23766e+06
1.64155e+06
1.27637e+06
1.17293e+06
1.62421e+06
1.17278e+06
1.62658e+06
1.63692e+06
1.50092e+06
1.22038e+06
1.15588e+06
1.27721e+06
1.18329e+06
1.29292e+06
1.48742e+06
3.47396e+06
3.57348e+06
3.61038e+06
3.42705e+06
3.10216e+06
2.75417e+06
2.80301e+06
3.0546e+06
2144.8
61670.7
48195.6
63435.7
4519.44
3523.95
76335
579492
161859
531139
254299
450659
446194
184515
25343
357.819
8787.79
39097.1
700.537
1912.73
15172.7
0.843352
9.33871
0.0635061
0.327913
7.06381
0.0492109
1.12744
0.416593
0.163804
1.22041
0.00722423
3.6495
0.0238873
0.135789
1.24586e-05
4.47508e-05
8.14289e-05
0.000198137
3.48753e-05
6.31206e-05
1.51731e-05
4.3908e-05
0.00607182
5.96802e-05
0.000325438
0.000211525
0.00108141
1.31928e-05
5.0072e-06
9.71659e-05
4.59381e-06
1.00025e-05
1.62689e-05
2.92854e-05
1.73919e-06
1.08798e+06
1.15381e+06
1.38783e+06
1.272e+06
1.10542e+06
1.10034e+06
1.38808e+06
863687
581031
801991
1.31187e+06
754464
1.37629e+06
708253
2.60553e+06
3.28522e+06
2.64104e+06
3.30513e+06
1.04886e+06
1.19193e+06
929331
1.13995e+06
1.02519e+06
1.35046e+06
911625
603183
279899
47379.1
1.06695e+06
201152
523630
684616
2.20034e+06
1.98547e+06
2.87105e+06
1.48057e+06
3.47938e+06
3.59804e+06
3.44922e+06
3.61922e+06
1.43759e+06
1.18563e+06
893759
1.19835e+06
1.01579e+06
1.47588e+06
1.14308e+06
3.06142e+06
2.21806e+06
3.11892e+06
2.25738e+06
2147.9
13.4103
358.1
976.038
190.997
4525.1
38.0584
27559.8
88.7031
2169.51
3856.19
10316.3
91336.8
372.607
0.13355
40.494
3.4491
140.73
0.450126
4.92958
13.1093
0.00503131
0.292932
0.00160829
0.00195542
0.0305505
0.0509713
0.000245557
0.000568356
0.000221097
0.000565521
2.54058e-06
0.00603422
2.75621e-05
5.32828e-05
7.53498e-08
1.00635e-06
2.10077e-06
1.26541e-06
3.0527e-07
1.61337e-07
4.55984e-07
4.2317e-08
6.91485e-06
1.92231e-08
1.02518e-07
2.09067e-07
1.10239e-06
5.50062e-09
8.23638e-09
2.05415e-07
3.12866e-09
1.74041e-08
2.13622e-08
6.41012e-08
2.09548e-09
503941
819588
870451
800668
732193
700487
580825
4226.93
3209.83
272.784
43292.6
20366.2
266180
1756.06
162469
891895
654564
241978
259448
600273
397063
148724
545009
327398
97318.4
123.529
39.8356
7.92659
6061.96
50.2111
252.221
1212.35
27439.6
10998.8
50182.5
5564.92
502231
1.06468e+06
1.22438e+06
342949
404463
582298
456424
228729
523003
380085
308749
433091
492110
459061
383195
494108
449571
355913
228160
28437.9
105898
86342.5
367392
277471
492198
180899
0.00234267
0.276759
0.0288519
0.103442
0.0372371
1.04893
0.00391561
2.07817
0.413959
0.0212817
0.42067
2.08649
10.4638
0.0842845
0.000166833
0.00459798
0.0010853
0.0163458
0.000132999
0.000635821
0.00328238
5.75179e-07
4.95852e-05
2.30983e-07
1.85217e-07
4.7698e-06
5.7618e-06
2.7052e-08
1.02547e-07
3.18832e-08
1.2682e-07
1.23691e-09
9.88468e-07
4.77303e-09
2.38506e-08
1.30967e-10
7.13044e-10
5.3551e-09
6.00994e-09
4.22006e-10
2.18279e-10
2.2701e-09
0
9.45874e-10
0
2.91038e-11
1.45519e-11
1.60071e-10
0
2.91038e-11
2.00816e-09
0
2.03727e-10
4.36557e-11
6.69388e-10
0
3704.43
229828
42320.1
111784
21721
71036.9
6892.86
3.63004
0.217531
1.46826
38.1052
9.73314
241.589
1.46755
177.271
2287.82
1084.1
365.03
472.429
16518.8
958.884
85.1051
10070.4
864.755
43.3915
0.0570809
0.420771
0.0268113
4.42636
0.0175389
0.164252
0.379955
21.788
4.49344
45.2025
1.99624
123608
423019
317220
389843
267953
347788
193749
3340.68
6143.1
19837.9
1028.73
9290.54
111698
54864.4
22426.9
7653.18
43085.8
14201.1
253.67
110824
2432.24
801.746
21776.8
271230
40153.7
5611.13
196872
51458.3
2288.98
432.065
14.0342
134.419
44.8575
1226.81
319.332
3029.14
127.804
1.73187e-05
2.59178e-05
0.00019023
9.1075e-05
2.31187e-05
0.000575338
4.71545e-06
0.00172116
8.17424e-05
0.000142766
0.000280274
0.00104311
0.00646203
7.17622e-05
6.32105e-06
1.06057e-05
2.36461e-06
1.38019e-05
3.6697e-07
8.49119e-07
4.84011e-06
1.96451e-09
2.38651e-08
2.03727e-10
3.34694e-10
4.49654e-09
7.567e-09
7.27596e-11
3.92902e-10
8.73115e-11
1.00408e-09
2.18279e-10
1.5425e-09
0
2.47383e-10
0
0
1.45519e-11
1.45519e-11
0
0
0
0
1.01863e-10
4.11819e-09
5.09317e-10
1.60071e-10
0
8.58563e-10
2.91038e-11
4.51109e-10
6.31553e-09
2.28465e-09
2.61934e-10
1.01863e-10
1.41154e-09
4.10277e-05
0.000676921
9.2795e-05
0.000743193
4.8891e-05
0.000453789
7.00993e-05
2.73463e-06
6.84067e-06
2.07539e-07
7.30099e-07
3.22578e-06
5.30871e-06
2.82074e-07
0.000452506
0.017071
0.00176394
0.00838696
0.000831421
0.00454206
0.000671919
2.17979e-05
1.63333e-05
1.94875e-06
1.81593e-06
2.65929e-05
1.43965e-05
3.35513e-06
3.80314e-05
8.84002e-05
3.21932e-06
8.4788e-06
4.76248e-05
5.36338e-05
5.66586e-06
0.00584226
0.000127099
6.18413e-07
0.000173066
9.27539e-08
1.29803e-08
3.41563e-07
5.82077e-11
1.30967e-10
3.17232e-09
0
0
0.0827784
1.03579e-06
4.80213e-09
0.000381972
5.40022e-08
0.00320298
0.000718217
0.000873466
6.877e-05
1.04686e-06
0.0110851
2.84445e-06
0.000139588
0.00291215
2.0914e-07
8.91802e-06
1.30822e-08
0.00013142
3.05881e-08
1.27908e-06
3.39989e-05
3.50701e-09
1.38403e-07
1.39407e-08
1.97339e-07
6.1118e-10
1.24564e-08
8.39647e-06
0.00471215
0.000150541
0.024436
0.123041
0.00163224
0.00457654
0.0972775
0.00126526
0.0317752
0.000168222
0.0040574
4.42171e-05
3.25499e-05
0.000910997
0.000794774
8.98147e-06
6.82252e-07
7.28107e-06
9.86765e-08
1.3395e-07
1.79547e-06
2.83602e-06
4.05271e-08
3.55067e-09
7.35163e-08
9.60426e-10
5.96629e-10
1.75496e-08
1.30822e-08
2.47383e-10
0.00138753
0.132302
0.00343918
0.0148407
0.00539659
0.0224572
0.00106683
6.51358e-07
1.20199e-08
1.43627e-08
4.91765e-06
5.43261e-06
1.55298e-07
1.64611e-07
0.0116616
0.00229188
0.0163697
0.000194701
0.0500231
0.000598471
0.00382085
2.67567e-05
5.19589e-06
2.40973e-05
3.23475e-07
0.000126547
1.32917e-06
5.36752e-06
0.000506258
0.0638449
0.000548245
0.00145347
0.00303842
0.00802191
9.45867e-05
1.12829e-05
0.000153669
0.000421932
0.00110129
2.98906e-05
5.88874e-05
0.000159836
2.49347e-07
4.66098e-08
2.98562e-07
4.36557e-09
1.0072e-06
1.35769e-08
7.12753e-08
4.18194e-06
0.000401669
6.56188e-06
1.89824e-05
2.12205e-05
5.93475e-05
1.22168e-06
6.04487e-08
1.65506e-06
4.8607e-06
6.83364e-06
3.13536e-07
2.95666e-07
9.58287e-07
8.44011e-10
6.98492e-10
1.59489e-08
2.98314e-09
2.95404e-09
2.18279e-10
3.30328e-09
1.16852e-08
1.09152e-06
2.49711e-08
4.86471e-08
5.00731e-08
1.7861e-07
6.1118e-09
9.10898e-05
0.000155399
1.11706e-05
1.15448e-05
0.000229216
7.76369e-05
1.36849e-05
0.387281
0.009426
0.00746758
0.169265
0.00508511
0.0412976
0.0643375
1.21319
0.147694
0.0147011
3.7698
0.0282153
0.336433
0.135136
0.130913
26.5174
0.984611
0.399754
10.6139
0.059779
0.831544
3.39089
119.107
88.7686
6.53419
203.821
156.28
8.63356
2.14432e-05
0.0031958
0.000868483
0.00037246
7.82651e-06
9.79388e-05
2.30916e-06
1.72076e-07
4.63624e-08
1.39358e-06
8.45794e-06
2.24551e-07
2.21853e-06
6.34464e-08
0.0204143
3.10562
0.48139
0.0496767
7.14334
0.25974
1.32022
5.51668e-05
3.70565e-07
1.9171e-06
6.1602e-06
1.46538e-07
1.66838e-07
1.24419e-08
1.05967e-07
1.89175e-10
5.02041e-09
1.39262e-07
4.04543e-09
4.16185e-09
3.20142e-10
3.99533e-05
0.000499547
0.000129169
6.51697e-06
0.00123552
4.34589e-05
0.000140365
5.94446e-08
5.02041e-09
8.64384e-09
3.84171e-09
3.20142e-10
2.47383e-10
1.01863e-10
2.91038e-11
0
4.51109e-10
1.30967e-10
0
0
0
4.61136e-07
5.76387e-07
1.88862e-06
3.24508e-08
9.426e-07
6.66769e-08
2.54251e-07
2.91038e-11
1.16415e-10
5.09317e-10
0
0
0
0
0
0
0
0
0
0
0
0.000241155
7.66135e-06
1.94181e-05
1.2127e-05
0.000305558
2.2608e-05
0.000168111
1.33587e-07
6.49015e-09
1.71349e-07
1.14378e-08
2.84359e-07
7.75472e-08
3.36731e-08
4.44213e-06
0.00170569
7.33925e-05
0.00879546
0.000403167
0.000396081
2.55564e-05
0.00390274
0.000217512
0.003562
0.0332336
0.0016304
0.0015229
9.46746e-05
3.8126e-08
2.82256e-06
1.24783e-07
1.8642e-05
8.39747e-07
1.6898e-06
1.21348e-07
1.28861e-05
1.01909e-05
7.82878e-07
8.11864e-05
3.72066e-06
6.32729e-06
4.70449e-07
43.7218
0.503479
13.6788
3.3218
28.5031
81.858
1.12069
0.000545827
0.0539352
0.00532829
0.00535358
0.0146063
0.160245
0.000496985
4.33023e-06
2.03842e-05
1.21522e-05
1.12687e-06
5.27124e-06
2.36654e-05
3.91898e-07
1.29061e-07
1.89117e-07
6.31699e-08
5.73345e-09
2.32831e-08
5.0597e-08
3.28873e-09
1.48633e-07
1.99056e-07
1.3333e-06
7.62418e-07
1.00161e-07
1.48769e-06
9.74687e-08
0.0107702
0.934525
0.320461
0.0796356
0.00283372
0.033899
0.00132681
0.000231335
0.0973971
0.00709621
0.00698135
0.000207399
0.000624565
2.74144e-05
1.88271e-06
0.000799832
6.81494e-05
5.40899e-05
2.11992e-06
6.00344e-06
3.41388e-07
8.25152e-07
1.97469e-07
7.37332e-06
6.88146e-07
3.02098e-08
6.63567e-08
5.77711e-09
1.7081e-07
4.66439e-05
1.59987e-06
3.12157e-06
1.24055e-07
3.33923e-07
2.0882e-08
2.47383e-10
1.77533e-09
6.58911e-08
5.76256e-09
2.47383e-10
8.14907e-10
1.89175e-10
0.00287875
0.025077
0.00377366
0.0422802
0.00230738
0.0229098
0.0221467
5.48607e-09
1.5978e-08
6.1118e-09
5.82077e-10
7.17409e-09
1.94996e-09
2.2992e-09
1.24564e-08
2.50293e-09
5.62577e-08
8.73115e-10
2.65136e-08
5.54428e-09
1.51922e-08
2.04353e-07
2.95113e-08
3.46859e-07
2.1857e-07
1.835e-08
5.35845e-07
1.1822e-07
5.28408e-06
1.28125e-06
3.61902e-05
0.00426642
0.000101199
0.00126783
2.94458e-05
2.79151e-06
4.23461e-09
1.23284e-07
9.92748e-05
2.29097e-06
3.92662e-06
1.06724e-07
1.74623e-09
4.36557e-10
1.08557e-08
3.0997e-07
1.05938e-08
4.87926e-08
2.00816e-09
0
0
2.18279e-10
6.24277e-09
2.18279e-10
6.8394e-10
0
2.44196e-07
3.88245e-08
4.94678e-07
5.88916e-07
4.37576e-08
1.14906e-06
2.99144e-07
2.05972e-05
1.82679e-05
1.14703e-06
6.18427e-07
1.60857e-07
1.22175e-06
4.7381e-08
1.21947e-06
3.07729e-07
3.05343e-07
6.98661e-06
1.57477e+06
1.31025e+06
639339
563929
451458
0.347617
2.83338e+06
506102
1.44798e+06
2.72871e+06
503069
1.4595e+06
1.51322e+06
2.30466e+06
311702
1.44924e+06
1.63827e+06
278564
1.15102e+06
715462
800048
218761
990057
737096
141350
614770
609975
678169
703583
64125.8
526424
7411.31
29557.7
654341
549448
0.00259613
323550
328743
300723
303926
198419
196315
273110
48861.9
122394
28063.4
1615.43
100.253
5598.41
373.336
4.01598
0.109023
2.90367e+06
1.82817e+06
1.82178e+06
2.57874e+06
1.77872e+06
1.76493e+06
2.64167e+06
500281
299494
298582
637962
856756
840251
647172
2.82648e+06
1.85141e+06
1.83883e+06
2.56172e+06
1.81866e+06
1.801e+06
2.53257e+06
305151
311949
510167
640409
834648
834885
648183
2.54466e+06
1.54666e+06
1.73631e+06
2.22334e+06
1.76596e+06
2.40726e+06
1.6318e+06
300069
510199
495208
605394
819934
638694
784019
1.99159e+06
1.06171e+06
1.29963e+06
1.98221e+06
1.19657e+06
1.42738e+06
1.68631e+06
251153
465569
426377
550531
653935
729334
479882
1.1984e+06
1.35582e+06
886941
1.18196e+06
989545
1.39102e+06
849869
184081
378423
288367
333435
563571
401865
474988
757754
1.04415e+06
1.10262e+06
1.05645e+06
737546
776715
977438
102580
184087
102715
286484
332469
403567
258816
722636
941842
996370
871486
714756
921239
693238
28371.3
44008.3
11730.6
195335
242727
237073
129200
1012.45
2025.21
192.06
114728
3690.55
35367
26388
323107
170035
171345
178963
190058
338730
200781
347375
347157
181424
336298
289888
59710.7
172396
66976.7
13270
23639.1
8687.97
1779.08
2834.45
668.064
40.8939
104.223
9.33215
44116
107773
391.139
1.87039e+06
1.61828e+06
1.44168e+06
1.42699e+06
1.59694e+06
1.41364e+06
1.90778e+06
1.87226e+06
1.43951e+06
1.64038e+06
1.41818e+06
1.61894e+06
1.40871e+06
1.88135e+06
1.70041e+06
1.61616e+06
1.38495e+06
1.39254e+06
1.81781e+06
1.52948e+06
1.30938e+06
1.53477e+06
1.28857e+06
1.1985e+06
1.05603e+06
1.38485e+06
1.20124e+06
1.31979e+06
914464
1.00594e+06
895528
836801
1.093e+06
845714
752636
802467
714441
681694
578296
740008
646483
734114
642678
646803
506666
402239
688424
598517
367806
502041
191520
243250
20431.9
476442
152938
0.000116856
0.00141103
0
0
0
0
0
1.60071e-10
0
5.82077e-11
2.32831e-10
0
5.82077e-11
0
1.04774e-09
0
5.67525e-10
2.16824e-09
4.81668e-09
7.49424e-09
3.39351e-08
1.25146e-09
7.85803e-10
2.88856e-08
4.248e-07
1.58907e-08
4.61296e-09
1.58398e-07
6.33008e-09
3.79805e-09
8.73115e-11
4.07454e-10
0
5.67525e-10
1.45519e-10
4.81668e-09
1.60071e-10
6.2355e-08
7.32151e-07
2.63535e-08
6.69388e-09
7.13335e-07
3.04863e-08
9.58971e-09
0
0
0
5.09317e-10
1.36264e-07
0
2.03727e-10
1.01136e-08
6.74918e-08
2.91038e-11
1.03319e-09
4.26371e-09
1.16415e-10
1.45519e-11
0
1.30967e-10
0
0
0
0
0
0
0
0
0
0
0
0
0
0
0
7.13044e-09
4.36557e-11
1.74623e-10
0
0
0
0
0
0
0
0
0
0
2.51748e-09
0
0
0
0
0
0
0
0
0
1.45519e-10
1.57161e-09
0
0
0
0
0
0
0
0.000826069
3106.29
0.0187704
629970
502591
213787
126.285
2311.09
13.372
1171.39
0.251734
7.39915
12242.1
1327.55
251.312
136511
34183.7
3290.05
27995.7
677571
786276
878766
795371
507940
652350
595483
129085
357973
20803.6
66.8138
0.167898
0.00129861
0.0334123
0.883891
0.0657453
0.144239
0.00578697
235022
459506
464657
134919
16890.5
249182
218957
34600
14.6557
11.4203
0.899623
177.967
177.935
2417.72
10.4775
1196.7
38114.1
1309.65
151.143
25000.2
2438.23
68.986
7.6053
0.0518543
0.0235742
1.34122
0.68363
0.0773429
0.150988
0.00774336
159496
2437.41
769450
1.91344e+06
1.77825e+06
1.32718e+06
791341
756372
724865
708016
705440
1.87818e+06
1.79046e+06
1.76089e+06
1.67189e+06
1.59592e+06
1.50685e+06
1.24272e+06
983504
1.05779e+06
804861
827626
887455
724117
750121
760169
730907
771642
673034
674024
696257
653298
736817
719323
752543
662248
629319
648348
1.85675e+06
1.90532e+06
1.86883e+06
1.68869e+06
1.66434e+06
1.68899e+06
1.7068e+06
1.31372e+06
1.08176e+06
1.06531e+06
1.07766e+06
1.33102e+06
1.31001e+06
1.31489e+06
1.71403e+06
1.76673e+06
1.58838e+06
1.60051e+06
1.4845e+06
1.50403e+06
1.62608e+06
1.66697e+06
1.74163e+06
1.78234e+06
1.63753e+06
1.60902e+06
1.56795e+06
1.53548e+06
876414
747191
869156
889486
865734
748504
805636
0.000334014
0.00500639
0.00096209
0.0171331
0.00564715
0.00341895
0.000301487
0.0627241
0.00192868
0.00105799
3.28817e-06
1.8737e-07
3.04135e-09
0
130422
220582
223094
127394
137674
238814
229826
147664
145914
244503
156006
223225
104980
74142.2
163524
52778.8
5825.31
18114.1
17920.4
4804.51
2411.88
561.236
1605.44
1016.06
97.015
163.327
365.414
35.3369
16.8909
0.423168
4.88807
1.62091
0
4.0076e-08
4.36557e-10
2.64845e-09
0
1.45519e-11
0
0
0
0
0
0
0
0
0
0
0
0.0454534
0.631958
0.00962951
2.38255e-05
4.35917e-07
2.89589e-06
5.97647e-08
1.16197e-07
2.02272e-09
2.85218e-09
0
7.39237e-09
8.73115e-11
1.01863e-09
0
0
0
0
0
1.49294e+06
1.5759e+06
1.43753e+06
1.54801e+06
1.48022e+06
1.44198e+06
1.38289e+06
1.03978e+06
1.25244e+06
1.07749e+06
1.02272e+06
1.2891e+06
1.24999e+06
1.06035e+06
752229
735932
659280
687435
691697
666945
754908
765335
737786
869178
738830
831950
860866
720160
1.54656e+06
1.5235e+06
1.38791e+06
1.39507e+06
1.37344e+06
1.52908e+06
1.54495e+06
1.63467e+06
1.59547e+06
1.54922e+06
1.49162e+06
1.45733e+06
1.44243e+06
1.42581e+06
1.5005e+06
1.42805e+06
1.39013e+06
1.41121e+06
1.33266e+06
1.42044e+06
1.4196e+06
705477
642487
674049
672373
694325
652023
617246
1.35678e+06
1.39767e+06
1.29106e+06
1.34195e+06
1.27078e+06
1.39742e+06
1.48749e+06
1.51153e+06
1.48199e+06
1.36199e+06
1.45224e+06
1.41671e+06
1.34742e+06
1.30757e+06
1.23102e+06
1.01693e+06
1.11969e+06
1.22647e+06
1.0622e+06
1.37387e+06
1.24189e+06
1.0757e+06
1.27135e+06
1.19927e+06
1.07134e+06
1.17382e+06
1.03971e+06
1.26209e+06
819143
744395
917780
869980
707892
1.06323e+06
890741
894499
875193
718736
902619
740221
868192
709950
1.33438e+06
1.38242e+06
1.36764e+06
1.27728e+06
1.31333e+06
1.23598e+06
1.28242e+06
1.34303e+06
1.35405e+06
1.37798e+06
1.36133e+06
1.33459e+06
1.29001e+06
1.25461e+06
727800
641811
631999
724983
646243
655688
744645
1.25625e+06
1.19459e+06
1.21838e+06
1.07924e+06