/*--------------------------------*- C++ -*----------------------------------*\
  =========                 |
  \\      /  F ield         | OpenFOAM: The Open Source CFD Toolbox
   \\    /   O peration     | Website:  https://openfoam.org
    \\  /    A nd           | Version:  9
     \\/     M anipulation  |
\*---------------------------------------------------------------------------*/
FoamFile
{
    format      ascii;
    class       volScalarField;
    location    "0.0013";
    object      rho.air;
}
// * * * * * * * * * * * * * * * * * * * * * * * * * * * * * * * * * * * * * //

dimensions      [1 -3 0 0 0 0 0];

internalField   nonuniform List<scalar> 
10503
(
1.876
2.02466
1.91557
0.562365
0.53967
0.765098
2.24951
0.734501
2.20596
1.79029
0.664505
0.580924
1.55352
0.805911
2.18871
2.31
0.544559
0.583586
0.586817
0.833684
0.83865
0.887932
0.883896
0.55135
0.603807
0.592232
0.862245
0.846945
0.896362
0.914568
0.612574
0.627289
0.889149
0.669273
0.932741
0.948494
1.00329
0.646514
0.737209
0.648652
0.963785
1.06938
1.07416
0.95972
0.669289
0.744705
0.654176
0.973965
1.11773
1.08734
0.997204
0.74289
0.828678
0.735667
1.09474
0.998821
1.08492
1.20139
1.88004
1.25998
1.26721
1.34247
1.95318
1.33596
1.95529
0.701125
0.871261
0.755352
1.17313
1.04021
1.10853
1.25904
1.89066
1.30781
1.28134
1.35755
1.9938
1.9658
1.38877
1.95981
1.35233
1.42021
2.04382
1.44223
1.52349
2.1174
1.08098
1.34984
0.940579
0.96268
0.83527
1.20973
1.38285
1.45734
2.06369
2.20579
1.61222
1.61831
1.45093
2.06454
1.47413
2.10498
1.67999
2.21664
1.63732
2.07483
1.51079
1.65211
2.34301
2.22861
2.11286
1.5178
1.63836
2.21735
2.16051
1.75281
1.57421
1.66986
2.39828
1.85929
2.24312
1.96516
2.47959
2.59539
1.80035
2.50229
2.00266
2.35178
0.0101966
0.00298362
0.0103634
0.00277454
0.0101343
0.00996831
0.00739296
0.00674591
0.00885042
0.00872427
0.0100748
0.0100238
0.00872596
0.00874369
0.0100063
0.0074397
0.00667502
0.00227297
0.0019736
0.00679495
0.00244722
0.00677394
0.00858502
0.0102184
0.00861161
0.0108041
0.00889505
0.00895118
0.010338
0.00750365
0.00232632
0.00752936
0.00349694
0.00773354
0.00276182
0.00735359
0.00893731
0.0103172
0.00863728
0.00859234
0.0107965
0.00890026
0.010339
0.00863165
0.00991918
0.00868161
0.00884774
0.0099688
0.00870083
0.00997515
0.00760844
0.00250077
0.00292105
0.00751461
0.00351196
0.007745
0.00277533
0.00683562
0.00314334
0.00245639
0.00745558
0.00200128
0.00681496
0.00246486
0.00488359
0.00268889
0.0047851
0.00307872
0.00494797
0.00297904
0.00472615
0.00633629
0.00747845
0.00621347
0.00745625
0.00628487
0.00754067
0.00625297
0.0061567
0.00742452
0.00620989
0.00744102
0.00741087
0.00619515
0.00620661
0.00450484
0.00213072
0.00234681
0.00452831
0.00220186
0.00457009
0.00444882
0.00439739
0.00197519
0.00435981
0.0020658
0.00210337
0.00439657
0.00432131
0.0044579
0.00459756
0.00240009
0.00219689
0.00217138
0.00457344
0.00449633
0.00948149
0.00871853
0.00853475
0.00937132
0.00938655
0.00865399
0.00946578
0.00949892
0.00939775
0.00874034
0.00855679
0.00948779
0.00866852
0.00941103
0.0103997
0.0107853
0.0106143
0.0107717
0.0104782
0.0104626
0.0107655
0.00967886
0.00883175
0.00884386
0.00988234
0.00973859
0.00878231
0.00972359
0.00629425
0.00761227
0.00626434
0.0074592
0.00622684
0.0075298
0.00634568
0.00474575
0.00251561
0.00251102
0.00452456
0.00462062
0.00274254
0.00462783
0.00630442
0.00628731
0.00763265
0.00747967
0.00636296
0.00754246
0.00624428
0.00505547
0.00337167
0.00521314
0.00336638
0.00514017
0.00513339
0.00324761
0.00640254
0.00770434
0.00771396
0.00649269
0.00646077
0.007651
0.00645274
0.00487532
0.00476613
0.0026795
0.00306786
0.00471177
0.00493335
0.00297309
0.00624649
0.00741012
0.00611856
0.00742071
0.00617348
0.00747329
0.00618272
0.009533
0.00857775
0.00938122
0.00879357
0.00940068
0.0095173
0.00872019
0.00951708
0.00855271
0.00873153
0.00937845
0.00947898
0.00940641
0.00868733
0.0104228
0.0107831
0.0106116
0.010782
0.0104873
0.0104607
0.0108025
0.00972532
0.00888314
0.00884325
0.00988234
0.00977127
0.00972979
0.00882993
0.0063979
0.00755122
0.00639873
0.00770658
0.00635263
0.00645662
0.00761649
0.00484695
0.00468884
0.00266145
0.00261491
0.0047741
0.00473061
0.00282675
0.00498314
0.00493319
0.00282907
0.00316824
0.00487313
0.00504923
0.00306082
0.00634354
0.00749143
0.00762219
0.00628051
0.00635982
0.007568
0.00627309
0.00510634
0.00341806
0.00522801
0.00337898
0.0051921
0.00514882
0.00328872
0.00645327
0.00775724
0.00771577
0.00650645
0.00651078
0.00646643
0.00769636
0.00492956
0.00273098
0.00478378
0.00307992
0.004949
0.00477113
0.00301525
0.00463415
0.00469926
0.00231191
0.0024751
0.00462431
0.00469411
0.00233588
0.00619713
0.00746438
0.00743515
0.00622931
0.00622257
0.00743337
0.0062338
0.0044687
0.00205141
0.00439428
0.00209504
0.00443119
0.00440038
0.00217852
0.00453404
0.00246339
0.0046206
0.00221844
0.00452116
0.00463771
0.00225137
0.0804566
0.0629405
0.008839
0.00369998
0.338638
0.310979
0.503148
0.411052
0.00415135
0.00973239
0.0113896
0.0343004
0.0369648
0.0652729
0.0609594
0.00539832
0.0237264
0.0160381
0.0575201
0.0434667
0.0745846
0.0914166
0.000150674
0.0363266
8.41303e-05
0.0140909
0.000667444
0.000388724
6.87933e-05
6.80848e-05
6.78031e-05
5.39678e-05
5.40697e-05
5.48027e-05
5.49197e-05
7.19356e-05
7.12685e-05
7.02618e-05
5.46024e-05
5.43177e-05
5.64094e-05
5.53598e-05
7.38654e-05
7.67906e-05
0.000414409
0.000118696
0.000117336
0.000137786
0.000759566
0.000867981
0.000134415
8.0735e-05
5.90858e-05
5.99125e-05
9.06706e-05
0.000192974
0.000230571
8.64047e-05
0.000480212
0.000122021
0.0001287
0.000155186
0.00230848
0.00121006
0.000220544
9.45433e-05
6.74945e-05
6.22155e-05
0.00010132
0.000782816
0.000343594
0.000136772
0.000348702
0.0164657
0.00146017
0.00307844
0.00186089
0.00366085
0.000306939
0.000479276
0.00748371
0.02251
0.0109358
0.00317827
0.00538366
0.000978612
0.0273088
0.0686379
0.0309517
0.110766
0.164153
0.168349
0.103524
0.133638
0.317037
0.140492
0.186852
0.355403
0.358944
0.181604
0.0399992
0.0976373
0.0529744
0.121852
0.185419
0.174842
0.136777
0.172304
0.326462
0.154014
0.196652
0.373749
0.364724
0.210236
0.00381028
0.00208499
0.00179504
0.21834
0.00140723
0.254595
0.310925
0.27306
0.00134405
0.00128616
0.00132888
0.0108632
0.0113481
0.0124469
0.0116593
0.0015857
0.00152621
0.00140604
0.0148493
0.0123005
0.0141436
0.0181846
0.00226963
0.00163846
0.00153988
0.0159543
0.0219258
0.0239866
0.0146238
0.00269962
0.00233666
0.00184513
0.0189961
0.0355946
0.0281242
0.0248925
0.0619902
0.225874
0.0643326
0.0686415
0.226539
0.0652845
0.236076
0.0775191
0.238189
0.0686023
0.075069
0.266942
0.249406
0.0877331
0.0803649
0.0982448
0.2452
0.281271
0.104846
0.0753771
0.254773
0.0900742
0.137417
0.28593
0.294316
0.117646
0.26762
0.107837
6.64564e-05
0.000297963
6.71628e-05
0.000390824
5.30391e-05
5.36722e-05
0.000258711
0.000283886
5.27227e-05
6.3214e-05
6.37113e-05
6.4307e-05
5.29875e-05
5.30738e-05
6.39234e-05
5.36192e-05
5.32956e-05
6.60226e-05
6.55371e-05
6.44918e-05
6.49943e-05
5.33106e-05
6.60341e-05
5.32239e-05
5.33851e-05
6.50729e-05
5.29993e-05
5.31296e-05
6.46546e-05
0.000253543
0.000249656
0.000253315
0.000101992
0.000103071
0.000104766
0.00010346
6.81795e-05
5.41516e-05
5.37118e-05
5.37938e-05
6.69444e-05
6.58343e-05
5.34134e-05
0.000273205
0.000267655
0.000259977
0.000110855
0.000108533
0.000105103
0.000107047
0.000309077
0.00027215
0.000265199
0.000114283
0.000112812
0.000108008
0.000106422
0.000333441
0.000313045
0.000285014
0.000116367
0.000119027
0.000115383
0.000110823
0.0102367
0.00623487
0.0099489
0.00282051
0.00984698
0.00995251
0.006863
0.00637893
0.00657215
0.00270505
0.00649497
0.00313334
0.00640528
0.00669864
0.00293827
0.00864599
0.00983125
0.00878428
0.00851313
0.00965382
0.00852337
0.0097702
0.00751781
0.00250527
0.00266177
0.00678529
0.00228248
0.00686118
0.00330013
0.00657098
0.00677163
0.00269016
0.00292856
0.00332094
0.0065975
0.00299506
0.00629415
0.00751236
0.00634996
0.0074608
0.00633856
0.00744887
0.00633003
0.00476566
0.00474773
0.00257651
0.00239946
0.00470778
0.00247274
0.00479555
0.00471359
0.00480962
0.00261146
0.00246353
0.00475009
0.0024377
0.00478185
0.00469745
0.00237037
0.00466495
0.00228846
0.00468997
0.00463256
0.00240381
0.00630039
0.00247855
0.00257376
0.00624689
0.00251181
0.00639996
0.0027147
0.00859077
0.00990439
0.00856759
0.00978418
0.00850776
0.00851087
0.00979297
0.00978184
0.00864324
0.00858199
0.00853883
0.0096286
0.0084873
0.0097837
0.0100738
0.00877588
0.00869216
0.0100609
0.00866579
0.00857578
0.00987833
0.0104984
0.000399914
0.00630643
0.0102428
0.00639
0.0101329
0.00314914
0.00989054
0.00300423
0.000429162
4.94398e-05
5.05929e-05
0.000107561
8.91412e-05
7.58177e-05
6.21736e-05
0.0064463
0.00264391
0.00271103
0.00648467
0.00270917
0.00651818
0.00266277
0.000446905
7.36445e-05
7.45781e-05
7.57492e-05
0.00045153
0.000436842
7.68719e-05
0.00632678
0.00252525
0.00256715
0.00652039
0.00264086
0.00647288
0.00262628
0.000407277
7.26336e-05
7.2629e-05
0.000427563
7.5633e-05
7.51019e-05
0.000425482
0.0100997
0.00881338
0.00877058
0.00906497
0.0104832
0.00903051
0.0105928
4.93744e-05
4.98731e-05
5.00003e-05
5.02235e-05
5.06692e-05
5.02498e-05
5.06314e-05
0.00299165
0.00714896
0.00712175
0.00674717
0.0027906
0.0067504
0.00277384
8.82156e-05
0.000514084
0.000511608
7.8476e-05
0.000460386
0.000453128
7.89883e-05
0.0103505
0.00892326
0.0088561
0.0108115
0.00920909
0.00911147
0.0106799
5.00032e-05
4.96522e-05
5.03068e-05
5.09451e-05
5.09966e-05
5.04519e-05
5.07512e-05
0.00305633
0.00737643
0.00723108
0.00689774
0.00285572
0.00678543
0.00278672
0.0115153
0.0114459
0.00984906
0.00944259
0.0109058
0.00940917
0.0109906
9.29332e-05
0.000565104
0.000528025
0.000471497
8.17215e-05
7.89776e-05
0.000454426
6.10286e-05
6.01032e-05
5.91459e-05
5.22442e-05
5.26562e-05
5.21168e-05
5.28077e-05
0.00997658
0.0117787
0.0116169
0.0112232
0.00961985
0.00949978
0.0110782
6.40515e-05
7.07579e-05
6.24707e-05
5.45101e-05
5.54994e-05
5.28733e-05
5.33807e-05
0.000378969
0.00046193
4.91163e-05
5.01185e-05
0.00073935
0.000442398
4.88699e-05
4.9601e-05
7.42149e-05
0.000437796
7.31528e-05
0.000484578
7.2935e-05
0.000488269
6.97041e-05
0.000894156
5.53039e-05
4.84001e-05
7.2467e-05
0.000591844
0.000531866
5.27288e-05
0.000487618
0.000546126
7.33731e-05
7.48166e-05
7.40567e-05
7.62539e-05
0.000509793
4.84779e-05
4.99189e-05
4.96878e-05
4.9187e-05
4.96407e-05
4.84185e-05
4.97581e-05
0.000143515
0.000788392
0.000149563
0.000708998
0.000719626
0.00018197
0.000145236
0.000129376
0.000851955
0.000192962
0.000728007
0.000710138
0.000134728
0.000175697
5.31348e-05
5.85813e-05
4.81844e-05
4.70974e-05
5.35132e-05
4.63212e-05
5.75638e-05
0.000127064
0.000632945
0.000615209
0.00011751
0.000650939
0.000102767
0.000150658
0.000405796
7.03169e-05
7.17573e-05
0.000389161
7.07588e-05
7.33422e-05
0.000444397
4.96444e-05
4.96014e-05
5.01067e-05
5.01207e-05
5.00351e-05
4.95042e-05
4.98829e-05
4.90167e-05
4.95341e-05
4.9629e-05
4.91451e-05
4.95295e-05
4.8811e-05
4.96263e-05
4.94579e-05
4.92845e-05
4.98541e-05
4.95011e-05
5.00778e-05
4.93463e-05
4.98195e-05
0.235244
0.299211
0.484298
0.238783
0.485627
0.300713
0.412183
0.244466
0.313115
0.424724
0.489394
0.303712
0.415132
0.253986
0.118682
0.490661
0.523567
0.496262
0.625219
0.836702
0.511942
0.510977
1.90189
1.87285
1.91466
1.88117
0.511761
1.8333
1.86761
0.537188
0.509539
1.8626
1.85464
0.245467
0.0956391
0.0401614
0.293659
0.353941
0.781761
0.535848
1.42627
1.28889
0.54485
0.521204
1.87143
0.572759
2.02392
1.90401
2.14159
0.619667
0.554085
1.86117
0.58062
2.02552
0.0178259
0.0347033
0.0779498
0.0613893
0.106066
0.115315
0.140807
0.496953
0.486165
0.49446
0.813547
0.81875
0.807485
0.801071
0.501338
0.500543
0.503534
0.824438
0.830851
0.83457
0.828858
0.836374
0.50519
0.504615
0.50333
0.504541
0.834971
0.836564
0.830964
0.832597
0.505598
0.510134
0.505022
0.834138
0.831371
0.504506
0.5102
0.505144
0.832703
0.826174
0.828285
0.829618
0.502396
0.514755
0.504594
0.82128
0.81971
0.812462
0.81781
0.0738074
0.147183
0.101931
0.204946
0.156215
0.182196
0.23918
0.0584087
0.131168
0.0945975
0.174705
0.137037
0.172786
0.217081
0.49244
0.516398
0.500892
0.804738
0.807043
0.81301
0.798086
0.523647
0.834991
0.520809
0.541049
0.833864
0.847994
0.851028
0.520008
0.540671
0.539488
0.828909
0.831452
0.845064
0.843833
0.528285
0.543493
0.548887
0.827033
0.827893
0.84466
0.849245
0.522183
0.525486
0.510876
0.811596
0.832677
0.820669
0.820004
0.193098
0.377001
0.217213
0.390008
0.227874
0.251904
0.420976
0.00636383
0.0352628
0.00684043
0.00200611
0.277028
0.431285
0.329881
0.38549
0.00306763
0.00243734
0.0206924
0.00414936
0.025742
0.0307061
0.0374845
0.00353746
0.0164212
0.00712743
0.0501237
0.033965
0.0513958
0.0745637
0.018248
0.025752
0.00991858
0.0820706
0.0482637
0.0615717
0.0982043
0.0956834
0.290512
0.110746
0.307705
0.125684
0.143024
0.31906
0.0186886
0.0630363
0.0420183
0.0809508
0.144545
0.107781
0.120783
0.161881
0.309316
0.133552
0.164878
0.351042
0.189184
0.334122
0.210352
0.343281
0.165339
0.180684
0.391771
0.221861
0.351303
0.198593
0.258483
0.381814
0.404551
0.220244
0.237167
0.362896
0.186802
0.178327
0.134695
0.221468
0.372141
0.293632
0.281423
0.538186
0.579186
0.560234
0.853931
0.83524
0.86258
0.888576
0.577805
0.622343
0.574393
0.880633
0.940911
0.936866
0.884659
0.247717
0.415958
0.479778
0.290302
0.555424
0.474466
0.352124
0.620383
0.620495
0.572518
0.877642
0.933765
0.876955
0.9342
0.337123
0.448162
0.271935
0.303895
0.5931
0.383018
0.492159
0.574551
0.621883
0.629397
0.936953
0.879223
0.887634
0.948904
1.24771
1.92506
1.25972
1.26394
1.90562
1.25358
1.92388
1.25952
1.24634
1.89068
1.88483
1.25098
1.25374
1.90493
1.92419
1.26688
1.26605
1.93083
1.26557
1.26675
1.92403
1.89498
1.25636
1.26036
1.26197
1.88613
1.25666
1.90364
1.22824
1.86986
1.2355
1.21876
1.82906
1.21083
1.83745
0.00468947
0.00151023
0.218847
0.00128458
0.223822
0.247599
0.247278
0.00150524
0.00131406
0.0731132
0.00184303
0.301577
0.269034
0.00184576
0.385834
0.382963
0.00131337
0.0013118
0.00132422
0.0111994
0.0108155
0.0111352
0.0110509
0.00131799
0.00131328
0.00131361
0.011069
0.0110727
0.0110401
0.0111623
0.00148619
0.0013715
0.00136617
0.0116828
0.0136225
0.0118003
0.0132218
0.00147305
0.00136621
0.00135137
0.0115317
0.0136013
0.0130848
0.0117635
0.00178873
0.00267438
0.00254863
0.0182654
0.0174028
0.0260502
0.027374
0.00177977
0.00268469
0.00254377
0.0183297
0.0173167
0.0260502
0.0274884
0.0638185
0.0619987
0.222532
0.223745
0.0634922
0.224528
0.0632154
0.0634242
0.223202
0.224861
0.0634415
0.223776
0.0633029
0.0638872
0.232971
0.0730657
0.0665484
0.0653431
0.243185
0.071015
0.229379
0.0657922
0.0730442
0.232049
0.243835
0.0663152
0.0714102
0.230521
0.012331
0.00509822
0.014112
0.039582
0.073222
0.0419419
0.0694321
0.0419801
0.0138287
0.00508237
0.00468222
0.0122701
0.0396182
0.0694053
0.270042
0.116466
0.0883882
0.265394
0.085065
0.111785
0.296497
0.0880921
0.265205
0.0850922
0.111622
0.299662
0.115965
0.296011
5.22666e-05
0.000254216
6.55279e-05
0.000268131
5.26112e-05
5.36579e-05
0.000101486
0.000107546
6.28672e-05
6.28767e-05
5.28001e-05
5.11081e-05
5.22636e-05
6.22074e-05
6.33115e-05
5.20073e-05
6.24644e-05
6.30944e-05
6.28728e-05
5.10157e-05
5.22061e-05
6.21046e-05
5.39534e-05
6.40266e-05
5.35301e-05
5.38554e-05
5.32494e-05
6.5314e-05
6.43057e-05
5.33181e-05
6.53299e-05
6.41665e-05
6.40428e-05
5.37732e-05
5.31852e-05
6.53104e-05
0.000102616
0.000102639
0.00025353
0.00025492
0.000102398
0.000254151
0.000102833
0.000250195
0.000102392
0.000252498
0.000102723
0.000254499
0.000102214
0.000254827
0.000107551
0.000104112
0.000257314
0.000266846
0.000107112
0.000257201
0.000104367
0.000104283
0.000257703
0.00026901
0.000104319
0.000268129
0.00010733
0.000258335
0.148976
0.203225
0.338364
0.381472
0.154666
0.199373
0.335196
0.340941
0.204363
0.155436
0.149298
0.382666
0.199889
0.336107
0.000434597
0.00101662
4.95078e-05
5.05179e-05
0.00076611
0.000483761
4.90096e-05
4.94978e-05
4.87847e-05
0.000625093
6.70628e-05
0.000452109
0.000791916
5.16967e-05
5.40036e-05
5.0369e-05
0.000686382
5.03805e-05
0.00159511
0.00101158
5.29981e-05
4.73457e-05
4.86352e-05
4.86414e-05
5.006e-05
4.94637e-05
4.84733e-05
4.95075e-05
4.93688e-05
4.90579e-05
4.96945e-05
5.04583e-05
5.04194e-05
4.92085e-05
5.01947e-05
4.94317e-05
0.00109332
4.68872e-05
5.0185e-05
5.02971e-05
0.00160589
0.00101631
5.29141e-05
0.000714177
6.97575e-05
5.47678e-05
4.86978e-05
0.000462501
0.000797921
5.18533e-05
4.8124e-05
4.98287e-05
4.92294e-05
4.85147e-05
4.93297e-05
4.83261e-05
4.94046e-05
4.91113e-05
5.02097e-05
5.01775e-05
4.89087e-05
5.03049e-05
4.90658e-05
5.00906e-05
0.000307451
0.0009548
0.000246898
0.00125292
0.000339771
0.00117261
0.000223133
0.000251708
0.000895875
0.000146067
0.000871334
0.000191449
0.00103784
0.000185124
5.21621e-05
5.67813e-05
4.77135e-05
4.86059e-05
5.61323e-05
4.66257e-05
5.25693e-05
0.000117996
0.000572035
0.000680982
0.000135311
0.000153868
0.000590914
0.000123764
0.00010369
0.000468833
0.000498008
9.55935e-05
0.000512786
8.50497e-05
0.000120462
0.000108117
0.000165765
0.000753061
0.000612078
0.000593518
0.000151185
0.000112399
7.2875e-05
6.51643e-05
5.1152e-05
5.08645e-05
6.26902e-05
5.1304e-05
7.77714e-05
0.000239302
0.00082551
0.000823835
0.000129925
0.000172309
0.000999498
0.000172571
7.29635e-05
6.5226e-05
5.1169e-05
5.08813e-05
7.79461e-05
5.13154e-05
6.27369e-05
0.000392686
0.00148544
0.00148258
0.0004778
0.000433733
0.00138316
0.000432873
0.000306668
0.000245955
0.000951286
0.00124761
0.000222507
0.00116984
0.000338231
8.72847e-05
5.26362e-05
5.26447e-05
0.000104449
9.52205e-05
5.25378e-05
9.51088e-05
6.41725e-05
4.8693e-05
5.39845e-05
4.87957e-05
5.77068e-05
4.98787e-05
5.78361e-05
4.8854e-05
4.88453e-05
4.85303e-05
4.87467e-05
4.93266e-05
4.75261e-05
4.91765e-05
4.88541e-05
4.85321e-05
4.88481e-05
4.87458e-05
4.91764e-05
4.93279e-05
4.75246e-05
4.95038e-05
4.84534e-05
4.89028e-05
4.8453e-05
4.7628e-05
4.90839e-05
4.90873e-05
5.0474e-05
4.88474e-05
4.88483e-05
4.91432e-05
4.97695e-05
4.94772e-05
4.97706e-05
0.000321237
0.00102468
0.000272566
0.00130209
0.000245676
0.00121295
0.000356441
6.53104e-05
5.47727e-05
4.83381e-05
4.85038e-05
5.89661e-05
5.84868e-05
4.97235e-05
7.47533e-05
6.78518e-05
5.06007e-05
5.10573e-05
6.47189e-05
8.0353e-05
5.11687e-05
7.35944e-05
5.06978e-05
6.51244e-05
5.10957e-05
7.7686e-05
6.32059e-05
5.11971e-05
0.000399746
0.00151374
0.00148875
0.000481983
0.00140421
0.000443864
0.000434232
0.000312764
0.000973762
0.000246806
0.00125233
0.00118828
0.000339081
0.000229568
8.842e-05
5.254e-05
5.25103e-05
0.000105216
9.70372e-05
9.49951e-05
5.2393e-05
0.000130212
0.000667576
0.000144917
0.00074184
0.000171186
0.000655687
0.000135515
5.23414e-05
4.84194e-05
5.67304e-05
4.75664e-05
5.25503e-05
5.64269e-05
4.64697e-05
0.000109346
0.000508053
0.000510074
9.69685e-05
8.629e-05
0.000549879
0.00012748
0.000113698
0.000781116
0.000166737
0.000620208
0.000113445
0.000627412
0.000157816
4.85321e-05
4.82973e-05
4.80568e-05
4.84771e-05
4.71237e-05
4.88161e-05
4.89854e-05
4.8671e-05
4.85274e-05
4.87454e-05
4.83852e-05
4.90473e-05
4.91127e-05
4.73514e-05
4.92787e-05
4.83138e-05
4.87275e-05
4.83762e-05
4.8816e-05
4.8919e-05
4.75406e-05
5.01858e-05
4.86263e-05
4.8726e-05
4.8963e-05
4.94844e-05
4.9598e-05
4.92379e-05
1.2371
1.86258
1.23646
1.22411
1.84355
1.83918
1.23228
0.594151
0.647997
0.68372
0.907156
1.02241
0.942218
0.975961
1.21415
1.83949
1.2198
1.81873
1.22744
1.20624
1.82668
1.90608
1.26365
1.88437
1.88628
1.26187
1.28493
1.90602
1.25145
1.88236
1.25769
1.2798
1.89204
1.2757
1.90113
1.2237
1.84869
1.25962
1.84648
1.23905
1.83427
1.2374
0.358001
0.550131
0.657567
0.676224
0.454611
0.561994
0.438694
1.2474
1.85951
1.24976
1.88779
1.27658
1.28547
1.89485
1.34133
1.95627
2.03502
1.33563
2.03431
1.42033
1.95513
1.33045
2.03001
1.9428
1.41384
1.32797
1.41562
1.94991
1.29553
1.8719
1.26333
1.30891
1.96
1.35173
1.91777
1.94252
1.42004
1.33201
1.34695
2.04261
1.4408
1.95526
1.37954
2.03783
1.55147
2.08076
1.43435
1.48299
1.98644
2.43287
2.45141
1.24608
1.86742
1.8722
2.44924
2.42969
1.24727
2.33772
2.44583
2.33451
2.35242
2.35379
2.43639
2.42971
2.32728
2.4526
2.33578
2.34414
2.3513
2.43848
2.43444
2.38777
2.43545
2.38915
2.41257
2.35308
2.40321
2.36578
2.43506
2.38149
2.38743
2.41582
2.36309
2.4105
2.37026
1.85122
1.2856
1.28284
1.79115
1.27055
1.77435
1.27291
1.87486
1.28653
1.28695
1.79839
1.27327
1.79337
1.27397
1.69202
1.55563
1.2578
1.24745
1.67508
1.57234
1.25966
1.69889
1.24792
1.25966
1.57026
1.69196
1.57834
1.26041
1.60096
1.23415
2.36919
2.48359
1.82001
2.43065
2.42682
1.24535
1.27014
2.52422
1.28614
2.46865
1.76162
2.30558
2.41784
1.31465
2.34032
1.88461
2.443
2.3802
1.92111
1.30706
1.31458
2.3793
1.92819
2.46587
1.66562
2.34298
2.39148
1.23015
2.51167
1.23328
2.51683
2.49418
1.22551
1.23065
2.31745
1.50644
1.22858
2.51803
2.34441
2.30619
2.31137
2.48447
2.46453
2.46463
2.48464
2.39443
2.40515
2.39426
2.50622
2.51458
2.50612
2.49595
2.40202
2.38006
2.39703
2.50235
2.51322
2.50814
2.50063
2.34338
2.46122
2.33563
2.35504
2.36789
2.48893
2.47971
2.30593
2.45559
2.31649
2.33101
2.30768
2.45617
2.4732
2.33357
2.47014
2.34386
2.35847
2.37148
2.49123
2.4859
2.30901
2.29365
2.29846
2.44899
2.44219
2.43807
2.45002
2.32978
2.43238
2.30987
2.3147
2.30129
2.44235
2.4298
2.31825
2.44033
2.31866
2.33947
2.34691
2.42388
2.41274
2.3955
2.40009
2.358
2.41939
2.33128
2.36599
2.39671
2.34375
2.39859
2.39659
2.43136
2.42338
2.39067
2.40241
2.3785
2.43647
2.388
2.34469
2.39678
2.38011
2.31763
2.3661
2.34928
2.41421
2.39933
2.4096
2.3705
2.342
2.20361
2.3106
2.43901
2.45661
2.40892
2.3549
2.27498
2.43312
2.36495
2.39544
2.44149
2.47578
2.29708
2.22312
2.46068
2.51145
2.45701
2.31976
2.19518
2.17262
2.33576
2.51062
2.08065
2.23284
2.47445
2.50819
2.09295
1.89872
2.46786
2.50809
2.45701
2.28971
2.05412
2.12718
2.24412
2.48892
2.51398
2.51227
1.94604
2.16944
2.05038
1.80048
2.00108
1.96021
1.31022
1.30979
1.97898
1.30529
1.98374
1.97936
1.31047
1.99477
1.97929
1.30419
1.96484
1.30705
1.31298
2.00561
2.00323
1.98704
1.31023
1.9895
1.30899
1.91674
1.28253
1.8692
1.30045
1.84869
1.9366
1.29594
1.91475
1.28938
1.29509
1.93048
1.30373
1.29861
1.95699
1.90611
1.29578
1.29297
1.9565
1.29991
1.94234
1.3026
1.92829
1.29747
1.29727
1.96404
1.30513
1.96591
1.30428
2.36456
2.47699
2.52298
1.88051
1.44676
1.67399
1.62738
1.85436
1.27783
1.28362
1.27045
1.77274
1.73479
1.26523
1.8345
1.26889
1.28026
1.88421
1.27676
1.81389
1.2893
1.69076
1.76601
1.25967
1.25014
1.26952
1.67793
1.25819
1.26755
1.77382
1.75396
1.63425
1.25499
1.65229
1.25323
1.25722
1.54703
1.66952
1.62943
1.24217
1.5079
1.25298
1.25677
1.26303
1.71881
1.59991
1.24538
1.24998
1.54805
1.38841
1.4963
1.24124
1.5712
1.23819
1.45327
1.24741
1.59391
1.24946
1.242
1.24007
1.48113
1.40282
1.23498
1.46621
1.23609
1.32074
1.23163
1.3468
1.23901
1.42092
1.49633
1.24223
1.23273
1.37565
1.36585
1.51152
1.24113
1.3293
1.4101
1.23543
1.33368
1.22804
1.28336
1.23089
1.23293
1.29285
1.3688
1.31943
1.22719
1.26839
1.23008
1.28024
1.23646
1.22637
1.22615
1.2538
1.24954
1.22786
0.0103742
0.00102192
0.00278919
0.00966141
0.00684082
0.00981692
0.00688473
0.0103211
0.00761955
0.000525268
4.91469e-05
4.94077e-05
0.00058851
4.83456e-05
0.00110864
4.80624e-05
0.00864177
0.00862315
0.0101625
0.0108083
0.00890602
0.00895914
0.0103374
5.02076e-05
0.000767957
5.0302e-05
0.0016082
0.00109778
5.29257e-05
4.72125e-05
0.00760837
0.00754313
0.00250576
0.00351493
0.00774857
0.00292542
0.00740841
0.00851743
0.00978127
0.00851186
0.00878537
0.00986105
0.00865224
0.00984199
0.00676956
0.00327745
0.00225719
0.00751114
0.00250351
0.00266235
0.00686003
0.00863655
0.00974666
0.00849254
0.00964934
0.00851236
0.00878456
0.00983126
0.00678211
0.00684001
0.00226848
0.0026319
0.00333573
0.00751992
0.00268276
0.00864708
0.0101089
0.0089532
0.00864858
0.0108029
0.00890529
0.0103318
0.0074368
0.00294456
0.00265512
0.00761712
0.00353218
0.00775765
0.00294629
0.000582897
7.19912e-05
5.2916e-05
4.84096e-05
0.000739094
0.000896309
5.53704e-05
4.84216e-05
4.97392e-05
4.9629e-05
4.84725e-05
4.99193e-05
4.9689e-05
4.88739e-05
4.81267e-05
4.85151e-05
4.98284e-05
4.93337e-05
4.83294e-05
4.92309e-05
4.90245e-05
5.30498e-05
0.000806503
0.000548014
7.34546e-05
5.64788e-05
4.83969e-05
0.000908164
4.95517e-05
4.90353e-05
4.95296e-05
4.86799e-05
4.96742e-05
4.83764e-05
4.959e-05
0.000846677
5.02122e-05
4.68804e-05
5.02324e-05
0.00162287
0.00111174
5.31506e-05
4.87238e-05
4.95607e-05
4.91155e-05
4.80633e-05
4.92961e-05
4.83411e-05
4.91181e-05
0.000314744
0.000979043
0.000247805
0.00125913
0.000230405
0.00119569
0.000340982
0.00494587
0.00480438
0.00274413
0.00309308
0.00302917
0.00496589
0.00479053
0.00644553
0.00758216
0.00641092
0.00771753
0.00639127
0.00765963
0.00646982
0.00013007
0.000127942
0.000622184
0.00063612
0.000161006
0.000666617
0.000104202
0.000337715
0.00106553
0.000278446
0.00131922
0.000259332
0.00125762
0.000363781
4.83685e-05
4.81047e-05
4.79898e-05
4.84379e-05
4.69552e-05
4.88304e-05
4.87887e-05
0.00954877
0.00880045
0.00858493
0.00939148
0.0087323
0.0094123
0.00952978
0.00954626
0.00941115
0.00875857
0.00858395
0.00944007
0.00871363
0.00950707
0.0104517
0.0108066
0.0106237
0.0108063
0.0105036
0.0104864
0.0108296
0.00974707
0.00888948
0.00886043
0.00989142
0.00884629
0.0097819
0.00975141
7.49894e-05
6.80492e-05
5.10821e-05
5.06196e-05
6.48707e-05
5.11859e-05
8.0622e-05
0.000253461
0.000875289
0.000901173
0.000147105
0.000185747
0.00104502
0.000192579
7.37839e-05
6.51793e-05
5.11102e-05
5.07025e-05
6.32499e-05
5.12104e-05
7.78854e-05
0.000401711
0.00149379
0.00151773
0.000482805
0.00141051
0.000445289
0.000435801
0.000323335
0.000274244
0.00103036
0.00130723
0.00121989
0.00024728
0.000358325
8.86755e-05
5.25566e-05
5.2526e-05
0.00010535
5.24123e-05
9.72634e-05
9.52052e-05
6.54538e-05
4.84822e-05
5.48728e-05
4.86412e-05
5.86232e-05
5.90712e-05
4.9749e-05
0.00640463
0.0077096
0.00639691
0.00755487
0.0076254
0.00635521
0.00645722
0.00636191
0.00630554
0.00764639
0.00751964
0.00759068
0.00637981
0.00629712
0.00486151
0.00262513
0.00267151
0.00469737
0.0028405
0.00478308
0.00474633
0.00511553
0.00338726
0.00523059
0.0034225
0.00329819
0.00519446
0.00515842
0.00646278
0.00776077
0.00772915
0.00650892
0.00770893
0.00651242
0.00647716
0.00499105
0.00493312
0.0028371
0.00317381
0.00307099
0.00487767
0.00505111
0.00635086
0.00748834
0.00747959
0.00622492
0.00755748
0.00629314
0.0062726
0.0046752
0.0046338
0.00226343
0.00235367
0.0046032
0.00466598
0.00238774
0.00628196
0.00744905
0.00634174
0.00750774
0.00632475
0.00743912
0.00632309
0.00475591
0.00239046
0.0025779
0.00474897
0.00479487
0.00246538
0.00469917
0.00470359
0.00245753
0.00480399
0.00261452
0.00477972
0.00473617
0.00243288
0.00469878
0.00464026
0.00229227
0.00237024
0.00462383
0.00467873
0.00242773
0.00481693
0.00485199
0.00249317
0.00267302
0.00478147
0.0048676
0.00254527
0.00629553
0.00751989
0.00745272
0.00634989
0.00632749
0.00744563
0.00634525
0.00474369
0.00247722
0.00267336
0.00481904
0.00474966
0.0048252
0.00248982
0.00954654
0.00938974
0.00859929
0.00880191
0.00941187
0.00875217
0.00952119
0.00955188
0.00859928
0.00880432
0.00939574
0.00952752
0.00941655
0.00875371
0.0104387
0.0108062
0.0106155
0.0108166
0.0104926
0.0104858
0.0108308
0.00975824
0.00889034
0.00889161
0.00988382
0.00977432
0.00887526
0.00977058
0.00642016
0.00752622
0.00628896
0.00752315
0.00635136
0.00634755
0.00761045
0.00504312
0.00495107
0.00289826
0.00319118
0.00493087
0.00506684
0.00312964
0.00495467
0.0048209
0.00277948
0.00277865
0.004875
0.00487224
0.00294602
0.00644424
0.00757894
0.00771764
0.00640684
0.00646817
0.00638664
0.00765938
0.00516645
0.00343926
0.0052441
0.00344061
0.00520879
0.00520923
0.00335282
0.00650872
0.00776971
0.00776979
0.00652198
0.0065248
0.0077505
0.00652568
0.0050426
0.00289841
0.00494852
0.00319396
0.00506623
0.0049275
0.00313104
0.00012539
0.000604392
0.000127076
0.000627915
0.000157848
0.000644659
0.00010291
5.29907e-05
4.70801e-05
5.86466e-05
4.81671e-05
5.76111e-05
4.60444e-05
5.35175e-05
0.000142898
0.000705298
0.000789695
0.000158318
0.000145455
0.000716531
0.00018638
0.000128993
0.000727097
0.000193683
0.000854676
0.000176262
0.000708706
0.000134586
4.85342e-05
4.84792e-05
4.80562e-05
4.82993e-05
4.89892e-05
4.7124e-05
4.88172e-05
4.86738e-05
4.83863e-05
4.8746e-05
4.85325e-05
4.91153e-05
4.90496e-05
4.73562e-05
4.9284e-05
4.83778e-05
4.87298e-05
4.83185e-05
4.88127e-05
4.89208e-05
4.75463e-05
5.01897e-05
4.86279e-05
4.87293e-05
4.89652e-05
4.92434e-05
4.9484e-05
4.96008e-05
0.000153182
0.000763512
0.000176237
0.00084269
0.00020251
0.000761376
0.000157724
5.34875e-05
4.70517e-05
4.8126e-05
5.89419e-05
5.35911e-05
4.62121e-05
5.82773e-05
0.000134758
0.000737489
0.000887408
0.000197419
0.000736766
0.000136893
0.000185304
0.000275185
0.000960372
0.000166226
0.000960564
0.000210416
0.00110695
0.000210498
7.72169e-05
6.86099e-05
5.05672e-05
5.11572e-05
6.61256e-05
5.12063e-05
8.17195e-05
6.79019e-05
5.6124e-05
4.8489e-05
4.82227e-05
6.05932e-05
6.0491e-05
4.96666e-05
7.73369e-05
5.05567e-05
6.87946e-05
5.11794e-05
8.19605e-05
6.62038e-05
5.12103e-05
0.000417187
0.00153091
0.00153268
0.000490098
0.000452165
0.00144879
0.000451449
0.000338476
0.00106717
0.000279827
0.00132257
0.00036523
0.00125939
0.000260084
9.18181e-05
5.26735e-05
5.26834e-05
0.000107573
9.90401e-05
5.25202e-05
9.89007e-05
4.83691e-05
4.81069e-05
4.84387e-05
4.79914e-05
4.87902e-05
4.69576e-05
4.88315e-05
4.9125e-05
4.8186e-05
4.87473e-05
4.8184e-05
4.8788e-05
4.87899e-05
4.73361e-05
5.0069e-05
4.85869e-05
4.85853e-05
4.89768e-05
4.94715e-05
4.91022e-05
4.94732e-05
0.00633607
0.0101018
0.00971125
0.00681117
0.00977708
0.0028283
0.0098239
0.00752856
0.0066235
0.00345098
0.00306462
0.00663685
0.00279179
0.00307854
0.00644025
0.00658745
0.00272339
0.00649885
0.0031489
0.00641881
0.00670159
0.00297234
0.00878682
0.0098165
0.00864053
0.00850291
0.00964414
0.00852163
0.00974872
0.00689497
0.00268584
0.00263772
0.00680448
0.00229729
0.00686379
0.00336282
0.0063141
0.00752869
0.00636059
0.0074658
0.00745879
0.0063451
0.00635694
0.00476327
0.00482816
0.00267919
0.00248676
0.00476742
0.00250354
0.0048364
0.00483556
0.0048591
0.00268039
0.00250623
0.00479626