/*--------------------------------*- C++ -*----------------------------------*\
  =========                 |
  \\      /  F ield         | OpenFOAM: The Open Source CFD Toolbox
   \\    /   O peration     | Website:  https://openfoam.org
    \\  /    A nd           | Version:  9
     \\/     M anipulation  |
\*---------------------------------------------------------------------------*/
FoamFile
{
    format      ascii;
    class       volVectorField;
    location    "0.0013";
    object      U;
}
// * * * * * * * * * * * * * * * * * * * * * * * * * * * * * * * * * * * * * //

dimensions      [0 1 -1 0 0 0 0];

internalField   nonuniform List<vector> 
10503
(
(13.1921 -136.358 551.945)
(130.421 -146.886 564.505)
(79.9742 -141.336 561.459)
(67.1074 -140.818 289.824)
(10.6125 -135.271 250.02)
(78.1048 -208.54 345.032)
(85.5895 -230.074 550.688)
(12.8674 -199.524 314.657)
(11.9579 -224.486 552.43)
(191.234 -185.689 530.318)
(140.423 -145.83 341.123)
(90.0461 -141.675 308.161)
(188.251 -230.932 455.597)
(100.47 -208.914 352.864)
(203.596 -249.366 523.386)
(112.163 -231.879 543.832)
(31.0262 -139.541 257.212)
(11.6369 -155.098 274.185)
(31.4425 -159.284 282.923)
(12.7292 -144.815 333.245)
(35.6638 -147.447 340.579)
(36.4598 -166.628 364.573)
(13.4569 -163.441 356.843)
(48.6886 -141.043 271.951)
(71.8037 -163.221 312.501)
(50.5931 -161.472 296.686)
(79.3883 -148.799 367.616)
(56.7536 -148.422 353.956)
(58.6791 -169.227 375.616)
(81.3934 -170.493 387.511)
(115.039 -143.727 327.881)
(95.0526 -164.886 329.358)
(103.25 -149.448 381.662)
(118.956 -166.838 342.027)
(126.7 -150.159 397.579)
(104.732 -171.394 400.146)
(128.118 -172.693 412.035)
(12.4929 -177.689 295.187)
(34.6414 -204.118 323.554)
(33.1215 -182.276 305.543)
(36.7793 -188.518 385.556)
(13.5194 -207.63 396.002)
(37.2398 -211.525 403.85)
(13.6339 -185.24 376.977)
(76.154 -186.691 331.56)
(55.7064 -207.383 335.336)
(53.8415 -185.349 318.929)
(59.8151 -191.135 395.539)
(83.9521 -216.279 420.362)
(60.4966 -214.497 412.722)
(82.8568 -192.609 405.263)
(164.042 -145.38 348.437)
(164.561 -166.252 352.409)
(142.034 -167.11 348.99)
(174.44 -150.906 421.129)
(150.481 -150.906 411.034)
(151.808 -173.621 421.148)
(176.499 -174.711 428.477)
(34.6717 -137.675 555.476)
(13.2603 -143.331 437.554)
(36.497 -145.31 444.255)
(37.3979 -168.695 466.365)
(13.0027 -164.063 557.402)
(13.6867 -165.957 459.484)
(35.2219 -165.766 560.775)
(98.414 -187.695 343.212)
(123.253 -208.997 357.653)
(120.845 -188.218 349.98)
(107.598 -218.121 427.784)
(105.746 -194.003 415.005)
(129.355 -195.721 423.056)
(132.501 -220.76 434.703)
(56.6812 -139.594 559.287)
(82.5607 -148.354 465.02)
(58.9639 -147.021 454.579)
(60.5562 -171.329 475.372)
(81.8786 -169.662 564.295)
(58.0621 -167.8 563.419)
(84.0448 -172.935 485.456)
(104.446 -143.76 563.457)
(106.807 -149.816 477.691)
(131.519 -151.536 493.462)
(107.083 -172.281 563.891)
(108.492 -174.864 497.23)
(134.158 -177.754 510.321)
(133.885 -175.722 561.211)
(171.371 -211.356 367.296)
(180.761 -200.682 438.936)
(166.455 -187.772 357.64)
(146.633 -209.41 361.691)
(143.164 -187.807 353.646)
(154.173 -197.594 429.562)
(159.091 -224.636 443.369)
(37.676 -194.636 489.25)
(12.5687 -193.623 558.305)
(35.3769 -226.582 554.712)
(13.2478 -221.006 504.317)
(37.9334 -224.228 510.746)
(13.6117 -191.8 482.14)
(35.4099 -195.563 561.24)
(61.5656 -197.367 497.268)
(83.7908 -199.432 561.242)
(87.7162 -229.815 523.092)
(60.0299 -228.408 554.539)
(62.6034 -227.181 517.208)
(59.1749 -197.539 562.544)
(85.6273 -199.59 505.669)
(186.013 -156.807 522.537)
(189.669 -182.325 539.919)
(186.308 -154.018 552.738)
(157.915 -150.445 561.766)
(157.742 -153.834 509.344)
(161.752 -181.398 521.88)
(161.938 -179.458 553.684)
(109.753 -202.082 557.701)
(114.217 -233.46 528.863)
(110.76 -202.475 514.967)
(137.713 -206.396 524.16)
(139.392 -233.43 532.799)
(142.579 -238.137 532.487)
(137.188 -205.42 550.663)
(197.212 -216.479 531.487)
(191.016 -208.668 520.463)
(187.963 -229.629 492.881)
(166.778 -211.207 530.723)
(165.735 -233.531 516.24)
(172.527 -243.47 531.28)
(164.925 -207.936 538.598)
(190.061 60.6871 89.2351)
(309.8 140.236 458.223)
(10.4333 49.6256 96.4751)
(33.9234 210.97 596.475)
(68.2514 -84.086 93.5247)
(192.812 -90.1254 90.7008)
(133.574 -137.999 431.313)
(285.475 -128.506 460.14)
(126.523 15.4265 309.422)
(215.18 79.7824 304.482)
(122.002 58.6887 92.9941)
(176.975 8.25903 93.4224)
(198.864 18.2214 310.963)
(140.76 75.1607 307.034)
(110.23 8.94183 93.9284)
(163.18 18.3371 445.422)
(285.025 127.595 456.916)
(229.239 180.521 496.589)
(328.639 28.3234 457.13)
(275.708 40.8329 466.081)
(255.678 33.7251 561.536)
(203.094 122.524 465.805)
(87.4404 4.3551 364.509)
(60.6778 61.8221 93.0033)
(3.97989 88.1685 364.547)
(-0.863463 -0.143985 48.4354)
(8.91217 9.23165 411.594)
(69.5082 70.2709 309.563)
(48.5028 10.844 96.4563)
(121.286 10.0631 453.879)
(190.488 190.717 525.931)
(9.72739 121.738 453.968)
(34.5737 34.7338 665.017)
(16.097 16.3735 502.218)
(210.292 34.2641 596.059)
(130.519 131.085 429.9)
(74.9105 -86.9067 309.789)
(18.8411 -70.2884 97.0377)
(8.96035 -100.078 366.021)
(89.0206 -20.4454 364.113)
(2.94446 -26.1304 48.2955)
(10.0223 -23.0327 411.708)
(51.5192 -37.0036 96.7192)
(217.286 -100.141 305.396)
(127.652 -84.4398 93.825)
(144.911 -92.4959 307.45)
(128.21 -35.9056 309.33)
(177.107 -39.6108 93.5262)
(198.962 -40.383 310.497)
(111.532 -37.5267 94.1569)
(12.4205 -127.991 455.627)
(187.945 -180.077 534.75)
(32.36 -199.718 600.02)
(121.545 -17.7248 453.7)
(34.2304 -27.081 665.454)
(16.571 -22.8277 502.538)
(208.818 -24.2225 594.9)
(203.985 -123.941 468.524)
(310.526 -133.517 470.163)
(228.318 -171.266 509.293)
(163.713 -25.7208 445.923)
(327.717 -19.2166 458.97)
(275.673 -43.29 466.864)
(253.945 -23.6279 560.841)
(86.7613 132.623 592.701)
(95.0829 206.848 584.264)
(29.1135 188.154 588.944)
(35.8054 154.896 621.268)
(31.1967 135.535 604.041)
(98.6471 152.27 607.469)
(82.0451 183.044 579.495)
(113.323 -111.889 517.955)
(84.1839 -137.308 439.795)
(156.079 -154.282 509.414)
(132.69 -88.899 438.842)
(106.811 -156.068 515.998)
(93.5538 -97.9644 447.421)
(157.711 -105.219 514.503)
(236.45 68.1606 508.86)
(201.911 18.4266 440.447)
(196.944 24.5291 517.908)
(153.49 57.4011 443.087)
(200.451 64.6139 436.289)
(191.192 68.1116 516.273)
(240.196 23.5205 510.091)
(283.963 127.04 519.824)
(254.821 161.533 477.321)
(249.371 147.833 521.156)
(221.821 190.807 519.862)
(272.915 129.747 493.863)
(235.874 139.615 531.746)
(280.295 188.688 510.123)
(300.509 88.2148 514.972)
(320.77 57.136 454.232)
(351.451 34.2978 500.102)
(315.368 28.8974 482.974)
(306.199 66.3222 479.982)
(308.716 33.2458 511.561)
(348.235 90.5764 500.257)
(268.436 74.9412 538.431)
(233.582 30.9448 562.489)
(250.845 96.0025 553.799)
(292.981 29.4355 526.272)
(281.994 82.6166 519.641)
(229.873 86.5635 559.093)
(277.095 26.9155 541.247)
(46.0111 35.1525 260.798)
(64.7201 4.69962 372.638)
(85.3566 25.2064 360.578)
(83.3625 7.49195 255.143)
(88.1208 45.0938 250.519)
(56.8612 24.0609 367.715)
(52.1863 5.5749 266.249)
(34.6092 46.8394 260.845)
(7.21166 84.5155 255.115)
(4.34145 65.3504 372.759)
(24.7539 85.9762 360.601)
(5.33795 53.1106 266.276)
(23.4454 57.4131 367.691)
(44.6737 89.0895 250.577)
(6.8829 7.68268 151.101)
(0.105751 26.8452 47.2249)
(-5.67281 -5.03557 158.463)
(25.9287 0.899967 47.2711)
(-4.92808 8.23495 156.204)
(7.42079 -4.27061 156.31)
(31.5304 32.5746 47.2968)
(17.6179 18.3948 271.371)
(38.2604 5.3284 393.79)
(4.99259 38.7674 393.863)
(0.672979 1.1162 293.611)
(-1.95171 25.5619 281.615)
(28.7263 29.261 382.3)
(24.9048 -1.51751 281.654)
(104.398 68.7278 534.252)
(84.7549 14.3703 463.95)
(153.051 20.0201 534.323)
(115.215 41.3157 447.638)
(146.776 60.9347 527.165)
(79.758 48.8875 454.893)
(108.345 23.7671 543.715)
(136.548 136.896 566.895)
(148.763 209.132 555.16)
(208.893 149.048 555.025)
(177.054 177.308 537.888)
(189.463 132.617 557.556)
(153.796 154.149 575.731)
(132.308 189.691 557.651)
(68.2503 104.69 534.332)
(19.6064 153.509 534.52)
(13.9347 85.2403 464.247)
(40.9651 115.565 447.639)
(23.3052 108.849 544.191)
(48.3315 80.0909 454.889)
(60.5719 146.983 527.194)
(83.1499 83.508 615.99)
(34.4368 98.2404 651.968)
(30.14 30.3753 641.748)
(97.9616 34.6609 651.708)
(29.853 85.8925 629.224)
(85.5844 30.1528 629.004)
(96.2275 96.5619 637.252)
(64.6083 64.9822 553.249)
(52.0507 14.0993 485.333)
(13.7571 52.4551 485.494)
(23.2282 23.5271 579.991)
(22.2179 68.586 566.075)
(46.6796 47.0806 472.499)
(68.2279 22.5898 565.854)
(132.223 87.1674 592.483)
(187.577 29.4864 588.598)
(206.44 95.428 584.055)
(154.259 36.0936 620.599)
(182.777 82.4135 579.358)
(134.953 31.5818 603.407)
(151.772 98.9528 607.192)
(112.632 113.016 517.027)
(130.752 81.884 437.488)
(154.912 155.175 505.533)
(81.4467 131.323 437.507)
(157.14 106.319 513.217)
(90.7487 91.2286 445.54)
(105.983 157.413 513.307)
(39.9512 -64.526 261.828)
(30.0774 -98.0899 361.767)
(13.536 -99.7378 256.805)
(8.59031 -78.4128 374.045)
(51.132 -104.647 252.596)
(11.0572 -70.9572 267.16)
(28.7329 -70.8271 368.99)
(48.6769 -56.7392 261.951)
(87.2983 -40.7261 360.982)
(66.0927 -20.7765 372.292)
(86.3664 -29.3354 254.817)
(54.8512 -27.7105 266.179)
(90.9299 -66.6278 252.117)
(59.2148 -39.6271 368.392)
(11.5397 -32.6504 151.46)
(2.98669 -51.002 47.3041)
(-3.96303 -17.3335 157.383)
(30.2213 -25.4156 47.3138)
(-0.387551 -29.674 155.981)
(9.48013 -19.9315 156.29)
(35.8632 -55.9705 47.0848)
(21.273 -39.1637 271.989)
(7.32216 -52.5291 394.943)
(39.6162 -20.0672 393.804)
(2.19908 -20.629 293.242)
(1.59496 -44.9038 281.898)
(26.9799 -20.1306 281.449)
(31.1522 -43.4913 383.464)
(68.4144 -103.857 535.034)
(43.8559 -121.892 449.261)
(20.0407 -152.219 535.6)
(15.9665 -91.9068 465.325)
(61.3415 -145.947 528.567)
(23.3046 -107.842 544.457)
(51.2985 -86.6681 456.645)
(134.981 -128.77 567.088)
(176.068 -169.683 544.103)
(145.59 -196.634 561.643)
(204.945 -136.892 558.386)
(130.841 -181.494 561.662)
(187.789 -124.095 559.179)
(150.921 -142.328 576.591)
(85.1893 -124.954 592.145)
(28.056 -180.163 590.536)
(92.239 -194.896 588.23)
(34.4697 -144.577 621.198)
(80.4428 -174.89 581.403)
(30.181 -128.424 603.575)
(96.2707 -140.841 607.1)
(104.875 -67.0131 535.006)
(116.45 -48.8416 448.38)
(85.0936 -20.9947 463.789)
(152.562 -18.8396 533.751)
(108.076 -21.8997 543.462)
(81.4402 -56.1252 456.392)
(147.269 -59.9756 527.386)
(82.0652 -76.5832 615.513)
(33.5129 -89.8036 652.102)
(29.967 -25.479 642.128)
(97.2115 -25.5812 651.013)
(29.191 -80.3705 629.478)
(85.0389 -23.7025 628.712)
(94.6008 -86.5158 636.525)
(64.6372 -63.9153 553.516)
(14.7046 -58.6935 486.553)
(52.497 -20.2315 485.429)
(23.2829 -23.5752 580.398)
(22.3136 -68.2817 566.784)
(68.1535 -21.5181 565.817)
(47.8369 -53.3173 473.535)
(131.061 -79.3273 592.075)
(203.664 -84.0029 584.767)
(186.523 -22.0824 587.523)
(153.383 -25.9454 619.819)
(134.292 -23.9392 602.874)
(181.439 -74.4488 579.359)
(149.463 -88.0979 606.623)
(282.542 -119.427 525.765)
(221.332 -182.608 528.239)
(256.205 -154.001 493.013)
(246.224 -136.2 527.955)
(280.232 -181.899 520.196)
(234.656 -131.297 535.814)
(271.973 -119.788 503.23)
(237.114 -66.9246 510.884)
(154.587 -64.4605 444.964)
(202.498 -27.2478 440.748)
(196.494 -22.7205 517.657)
(239.595 -21.9245 510.15)
(202.313 -73.4161 437.218)
(191.672 -66.6771 517.768)
(300.14 -80.5609 519.137)
(321.46 -47.557 461.691)
(350.89 -27.2673 501.306)
(313.707 -18.7462 484.051)
(307.59 -25.6073 512.372)
(348.042 -83.9677 505.099)
(305.185 -55.9522 486.392)
(268.009 -66.3376 541.563)
(247.987 -84.2919 556.162)
(232.298 -23.0651 561.756)
(290.083 -18.5608 525.934)
(275.208 -18.3153 540.704)
(228.839 -78.259 560.434)
(280.395 -71.5269 523.957)
(-55.9096 -79.7248 133.082)
(1.82079 -130.428 158.558)
(195.89 -389.469 667.534)
(34.7816 -465.261 771.678)
(40.6093 -114.152 219.12)
(8.35045 -120.478 190.977)
(60.8834 -193.467 280.686)
(8.83651 -147.943 221.855)
(103.48 -459.678 757.577)
(30.0237 -443.436 651.804)
(80.2252 -418.185 628.41)
(20.5734 -278.062 513.238)
(57.2582 -268.47 482.794)
(27.3483 -168.046 268.018)
(13.2611 -188.586 289.343)
(164.697 -441.059 731.512)
(78.9579 -265.687 467.649)
(104.347 -356.884 571.166)
(49.6462 -162.237 320.223)
(71.5608 -232.847 423.318)
(20.3926 -129.683 229.952)
(-10.0133 -79.3067 188.272)
(281.312 -760.775 442.02)
(-56.7395 -156.353 214.516)
(114.749 -744.679 433.783)
(17.1448 -417.369 453.403)
(268.241 -512.905 746.664)
(39.4008 -511.078 750.888)
(197.946 -505.231 526.684)
(117.499 -505.112 525.64)
(38.2438 -504.675 523.825)
(35.6707 -513.261 428.484)
(110.347 -516.089 429.149)
(41.4384 -593.366 430.249)
(126.223 -594.774 434.114)
(118.137 -577.481 538.733)
(39.6059 -577.37 537.389)
(276.377 -502.934 527.979)
(269.963 -519.788 428.033)
(187.705 -517.72 429.606)
(298.845 -599.433 443.434)
(212.55 -595.659 437.295)
(192.948 -578.103 540.814)
(267.618 -575.734 542.274)
(117.356 -507.966 755.035)
(112.68 -491.27 626.561)
(36.3519 -489.476 625.631)
(118.063 -573.463 632.64)
(37.4989 -585.689 740.622)
(111.82 -579.329 738.506)
(38.3372 -571.583 629.618)
(36.3609 -746.911 432.457)
(44.5907 -675.835 453.468)
(128.844 -676.34 452.946)
(113.307 -649.216 544.693)
(39.8552 -741.517 551.447)
(113.636 -753.426 546.866)
(36.2327 -647.747 543.71)
(195.758 -507.739 756.092)
(189.601 -491.408 627.052)
(269.098 -494.776 622.78)
(200.764 -575.584 634.988)
(234.542 -522.802 687.984)
(181.903 -566.003 725.079)
(281.044 -588.588 653.579)
(196.989 -744.627 433.816)
(278.569 -672.223 442.293)
(206.217 -676.012 451.148)
(193.4 -648.874 542.091)
(242.502 -709.131 518.155)
(183.544 -740.054 541.611)
(284.08 -659.567 546.301)
(112.152 -667.305 647.227)
(24.9998 -372.963 408.873)
(32.64 -688.206 603.008)
(33.5545 -588.269 667.846)
(91.7632 -670.391 583.643)
(92.4372 -573.026 648.112)
(37.6623 -662.263 658.144)
(185.816 -663.08 637.386)
(105.482 -498.512 443.646)
(0.447994 -292.391 329.125)
(99.3738 -387.163 497.127)
(138.512 -629.008 541.511)
(132.072 -518.809 600.573)
(242.747 -629.067 615.971)
(15.4399 -306.531 416.028)
(-23.1531 -105.23 144.32)
(20.9256 -269.177 374.364)
(-8.36328 -85.0258 139.046)
(1.02571 -102.549 123.327)
(-8.87562 -101.84 133.632)
(3.22526 -93.6878 144.603)
(8.12126 -132.108 174.361)
(23.9222 -122.908 192.972)
(22.2297 -119.841 170.796)
(10.5396 -99.0155 158.543)
(8.03504 -129.419 199.562)
(19.5841 -133.254 208.874)
(5.99119 -97.2445 149.544)
(5.88738 -189.939 301.902)
(-70.038 -78.8878 136.524)
(-34.5479 -99.6357 219.298)
(-21.2326 -77.7749 145.788)
(-27.6735 -110.386 170.215)
(-22.9868 -101.802 149.741)
(-26.6606 -79.0908 166.339)
(15.9292 -83.9734 173.588)
(34.2462 -120.224 200.627)
(23.248 -100.33 162.65)
(10.9754 -100.101 176.626)
(43.5222 -132.947 246.214)
(30.0602 -132.941 225.111)
(12.9468 -95.5882 193.705)
(244.973 -390.247 775.313)
(37.2762 -416.426 826.232)
(269.005 -267.773 842.248)
(-0.931261 -117.587 157.874)
(117.13 -271.199 850.134)
(91.1892 -85.737 171.271)
(51.8371 -104.842 203.886)
(7.88923 -117.512 174.61)
(38.6836 -271.081 848.735)
(39.2849 -194.176 850.929)
(118.014 -194.465 853.646)
(29.6143 -189.863 775.391)
(107.193 -188.021 773.63)
(103.282 -252.956 760.845)
(28.247 -255.696 763.158)
(271.803 -192.691 847.439)
(194.348 -270.239 848.189)
(195.852 -193.966 851.816)
(240.004 -176.455 747.698)
(178.843 -184.115 765.872)
(170.935 -246.568 751.015)
(222.388 -230.401 720.401)
(113.047 -414.148 821.746)
(115.714 -345.591 843.727)
(37.988 -346.121 843.945)
(94.5241 -304.242 729.943)
(24.0158 -309.205 658.301)
(78.0932 -293.791 634.447)
(26.7301 -310.122 737.193)
(185.354 -407.998 810.233)
(263.838 -337.749 823.011)
(192.03 -342.97 838.605)
(153.615 -285.465 708.457)
(129.603 -231.041 510.473)
(123.284 -267.716 596.037)
(178.577 -240.493 634.506)
(11.1837 -176.497 462.885)
(47.7577 -114.476 158.448)
(84.4493 -171.871 458.462)
(75.2494 -214.773 430.265)
(0.110061 -133.832 156.108)
(9.7444 -220.306 439.259)
(39.7464 -127.088 157.307)
(182.196 -147.397 402.044)
(79.3858 -104.773 160.622)
(142.734 -161.218 442.476)
(127.639 -202.457 408.811)
(76.4661 -96.2449 176.857)
(63.7064 -112.868 170.669)
(149.567 -173.661 351.058)
(63.4148 -225.997 367.77)
(11.3776 -197.956 280.043)
(4.02493 -123.656 161.835)
(28.1606 -117.029 179.975)
(45.1992 -184.554 261.676)
(10.9801 -235.094 382.828)
(32.8852 -120.054 164.582)
(101.529 -200.225 332.591)
(49.4984 -116.707 179.125)
(61.5439 -98.8635 188.864)
(43.0682 -113.487 192.384)
(62.4907 -154.63 222.588)
(50.6963 -112.226 176.528)
(97.8025 -152.562 261.622)
(115.326 -429.251 533.119)
(41.1247 -437.589 717.633)
(191.511 -429.244 533.171)
(282.953 -437.971 741.397)
(118.903 -196.085 437.59)
(277.183 -275.102 435.49)
(118.497 -272.571 726.138)
(276.53 -273.361 726.78)
(39.4778 -194.545 435.125)
(41.1233 -194.12 532.761)
(120.451 -195.646 535.3)
(120.28 -274.034 533.968)
(39.0381 -273.005 434.334)
(118.098 -274.861 436.347)
(40.8588 -272.446 531.587)
(277.516 -195.839 436.331)
(198.355 -196.274 436.881)
(278.192 -274.719 533.676)
(277.646 -195.978 534.326)
(199.358 -195.77 534.944)
(199.545 -274.269 534.654)
(197.557 -275.18 436.588)
(38.7064 -428.263 532.179)
(39.9086 -431.616 435.296)
(119.486 -433.546 436.458)
(120.193 -352.076 534.071)
(39.4125 -351.908 433.801)
(119.599 -353.777 436.177)
(40.6708 -350.682 531.5)
(40.4599 -271.548 724.083)
(40.7888 -193.158 724.928)
(118.783 -194.132 727.942)
(36.0185 -187.542 631.004)
(111.434 -188.323 633.981)
(110.717 -262.474 632.516)
(35.4181 -261.738 630.206)
(268.344 -428.179 533.234)
(273.926 -436.757 437.966)
(197.545 -434.2 436.36)
(280.855 -354.981 436.428)
(275.736 -352.522 535.594)
(198.943 -352.236 534.371)
(200.307 -354.197 436.111)
(276.002 -194.319 726.132)
(196.856 -272.966 726.358)
(197.086 -194.415 727.155)
(260.333 -261.27 633.367)
(261.021 -187.316 633.13)
(186.528 -187.948 633.605)
(185.856 -262.113 633.274)
(122.068 -439.517 719.692)
(117.913 -352.795 725.715)
(39.9878 -351.422 724.016)
(108.209 -410.009 632.297)
(34.2182 -408.943 631.023)
(109.584 -335.893 633.17)
(34.9813 -335.171 630.742)
(204.429 -441.268 722.614)
(280.217 -356.861 723.631)
(197.143 -353.702 725.884)
(183.892 -411.013 632.629)
(263.109 -414.323 631.942)
(257.881 -335.164 637.009)
(183.688 -335.874 634.19)
(228.188 -381.236 89.2213)
(258.463 -407.479 443.41)
(84.3513 -366.372 90.278)
(41.2351 -418.774 426.908)
(66.5651 -141.505 93.7233)
(211.84 -225.829 87.8146)
(123.144 -203.987 469.079)
(275.116 -275.108 447.461)
(122.804 -352.541 456.155)
(121.776 -421.251 410.542)
(39.4039 -411.546 463.926)
(45.5801 -365.222 462.212)
(116.762 -413.886 454.625)
(41.4064 -348.068 466.917)
(129.262 -360.164 432.772)
(80.6788 -154.854 306.752)
(20.0777 -124.846 94.518)
(23.278 -138.908 309.465)
(87.045 -226.999 306.016)
(22.3716 -189.661 94.6313)
(27.7663 -208.148 311.416)
(71.973 -205.933 91.315)
(21.0148 -168.77 447.467)
(179.251 -221.051 511.737)
(31.9533 -244.994 569.505)
(127.963 -285.229 462.624)
(26.2243 -327.94 481.911)
(42.6729 -275.211 470.765)
(140.226 -307.472 479.361)
(284.685 -207.283 452.511)
(210.084 -210.139 462.137)
(285.242 -281.742 410.01)
(296.357 -211.783 434.807)
(234.106 -228.496 482.651)
(207.589 -284.797 454.097)
(216.523 -293.299 438.752)
(69.3472 -235.237 513.816)
(59.5734 -158.959 444.916)
(24.6016 -195.852 520.136)
(21.6234 -205.795 442.56)
(24.0023 -238.724 514.978)
(67.7229 -204.87 437.895)
(68.4715 -189.776 518.762)
(125.581 -276.777 531.13)
(188.531 -215.449 529.582)
(144.258 -238.387 532.834)
(162.44 -250.552 498.47)
(187.487 -274.778 523.097)
(127.99 -265.927 511.428)
(137.581 -228.205 538.961)
(73.7073 -260.98 547.586)
(29.5482 -226.008 567.321)
(92.686 -239.104 562.423)
(27.512 -282.832 539.689)
(25.6401 -269.782 550.24)
(80.2697 -271.928 533.451)
(84.7626 -221.588 564.382)
(86.3983 -295.421 527.166)
(27.1893 -309.847 503.427)
(32.766 -348.982 515.032)
(57.988 -319.426 480.52)
(31.8589 -304.008 523.748)
(89.9134 -345.637 515.739)
(66.7847 -300.322 501.36)
(188.949 -411.007 449.496)
(265.002 -414.631 382.908)
(195.581 -418.353 398.249)
(264.324 -338.676 442.713)
(272.397 -344.996 390.179)
(197.176 -347.937 449.28)
(204.831 -355.172 410.211)
(229.284 -239.784 302.843)
(200.539 -154.741 88.9837)
(223.712 -168.787 302.703)
(129.653 -144.626 92.3722)
(150.954 -161.724 307.02)
(157.074 -233.603 303.392)
(139.04 -213.534 89.5421)
(27.73 -352.142 93.8794)
(95.1661 -380.579 309.193)
(31.7741 -369.525 315.426)
(91.4819 -302.926 306.203)
(24.9778 -267.895 94.3942)
(30.0855 -287.24 313.933)
(77.7291 -284.045 90.2926)
(154.547 -373.324 89.2527)
(236.749 -387.845 309.402)
(164.674 -384.461 308.4)
(220.88 -302.803 88.0393)
(233.271 -312.97 305.032)
(161.228 -308.656 305.118)
(146.896 -292.323 89.1186)
(234.188 -459.728 89.627)
(262.84 -496.079 209.057)
(256.344 -476.643 457.618)
(89.9836 -449.008 90.6442)
(113.36 -481.402 459.02)
(239.559 -671.521 336.38)
(252.889 -694.109 452.6)
(104.934 -677.344 328.139)
(111.335 -702.09 436.07)
(116.566 -497.897 219.914)
(117.339 -505.604 225.654)
(262.056 -507.71 327.667)
(273.149 -733.184 167.701)
(115.273 -735.397 167.686)
(279.821 -737.621 332.805)
(116.919 -741.126 334.764)
(38.1596 -478.228 466.002)
(116.954 -489.424 408.89)
(39.1934 -485.933 418.568)
(113.033 -552.439 465.75)
(39.9444 -560.408 422.232)
(39.1289 -550.568 470.945)
(116.741 -562.904 415.066)
(38.9938 -492.793 228.659)
(116.408 -505.744 156.82)
(38.8624 -502.693 158.176)
(112.266 -584.332 160.134)
(38.3948 -570.769 233.028)
(114.808 -574.639 226.507)
(36.7675 -580.868 159.814)
(184.816 -480.243 454.012)
(260.464 -483.968 401.32)
(189.176 -488.468 398.855)
(256.024 -546.145 467.387)
(263.127 -555.688 412.695)
(185.348 -549.976 465.711)
(190.061 -560.107 413.007)
(190.146 -498.55 208.343)
(265.911 -504.243 152.903)
(191.879 -504.73 154.826)
(268.882 -571.625 222.722)
(270.507 -581.135 162.571)
(189.685 -583.292 160.921)
(190.421 -573.961 223.914)
(29.8756 -438 93.4244)
(97.9612 -457.687 313.281)
(32.6479 -450.682 317.827)
(102.207 -532.99 318.358)
(33.5557 -522.644 93.8073)
(35.3908 -528.998 321.517)
(97.0048 -529.846 91.9193)
(38.9556 -503.678 226.352)
(38.3042 -502.996 329.217)
(115.126 -504.773 328.95)
(112.552 -584.611 225.978)
(33.0781 -583.483 326.889)
(36.9117 -582.395 223.556)
(106.282 -585.587 330.775)
(37.4631 -702.715 435.864)
(109.015 -691.268 482.88)
(37.0779 -692.346 483.294)
(110.4 -623.792 467.122)
(38.8281 -635.752 415.213)
(37.1343 -623.385 470.494)
(115.024 -636.982 410.871)
(38.5207 -731.896 167.407)
(113.644 -719.949 246.683)
(38.2321 -717.247 245.733)
(125.871 -660.652 163.507)
(41.0495 -648.077 220.861)
(122.062 -652.559 217.306)
(41.8116 -656.635 163.715)
(160.62 -454.096 89.946)
(240.19 -462.822 314.126)
(168.17 -459.992 312.609)
(240.417 -535.701 92.8879)
(242.083 -534.242 322.079)
(171.93 -533.77 319.434)
(167.909 -532.636 92.0434)
(269.277 -504.112 222.569)
(194.167 -505.175 225.419)
(189.377 -505.395 329.387)
(268.542 -581.317 230.785)
(266.384 -585.477 335.124)
(189.197 -583.912 228.02)
(184.005 -584.939 333.002)
(181.905 -697.585 442.365)
(246.379 -681.937 496.656)
(178.514 -686.807 487.294)
(252.11 -616.381 471.496)
(259.784 -629.385 416.523)
(182.105 -620.947 466.52)
(188.609 -634.452 409.933)
(103 -677.404 95.4443)
(35.882 -675.867 96.0228)
(36.4971 -677.521 328.919)
(101.392 -606.429 323.54)
(33.2097 -602.473 95.8707)
(34.2603 -604.736 325.978)
(98.1047 -606.493 94.4632)
(189.457 -737.332 169.938)
(265.812 -716.639 260.26)
(187.13 -718.701 254.078)
(274.355 -649.489 222.491)
(284.319 -659.651 163.59)
(207.86 -661.075 162.02)
(200.112 -653.364 215.89)
(39.5118 -738.563 335.588)
(115.392 -736.214 232.521)
(38.2765 -733.805 232.887)
(123.046 -661.26 238.826)
(42.6476 -660.806 346.579)
(40.1602 -658.698 238.536)
(128.765 -663.507 346.55)
(173.479 -674.909 330.004)
(241.851 -674.085 98.3688)
(173.175 -676.374 95.9264)
(241.603 -607.258 94.3673)
(242.466 -604.275 324.861)
(171.465 -605.652 323.069)
(169.067 -607.076 94.0024)
(194.948 -743.533 332.127)
(273.212 -733.98 229.867)
(189.19 -738.458 231.496)
(282.75 -659.817 236.904)
(295.048 -667.792 344.071)
(205.379 -661.209 237.522)
(213.815 -664.58 345.646)
(270.238 -421.905 192.402)
(39.9264 -416.923 241.48)
(116.972 -427.996 230.816)
(277.661 -426.214 336.703)
(177.594 -216.781 412.645)
(278.993 -276.052 231.492)
(117.635 -194.722 239.844)
(273.351 -271.731 230.113)
(116.677 -351.35 163.993)
(119.099 -422.955 225.677)
(39.041 -425.461 160.861)
(40.1398 -348.017 266.524)
(117.561 -428.534 159.209)
(119.583 -351.427 257.052)
(38.8192 -348.496 162.251)
(31.8925 -252.797 509.781)
(117.1 -196.014 149.667)
(19.5356 -173.644 163.243)
(115.287 -273.013 168.176)
(21.1166 -321.431 342.595)
(118.43 -283.487 296.348)
(37.9761 -272.904 144.333)
(282.365 -197.965 259.629)
(208.418 -203.839 304.793)
(273.762 -272.066 160.261)
(273.951 -193.596 163.377)
(194.98 -193.931 169.34)
(194.924 -272.465 164.948)
(202.44 -279.953 268.662)
(39.0418 -192.767 238.541)
(116.943 -193.894 340.447)
(38.6494 -191.729 337.618)
(117.18 -272.574 234.684)
(38.4468 -269.268 337.601)
(38.9521 -270.483 237.812)
(116.513 -271.564 336.823)
(102.829 -221.331 192.102)
(146.869 -240.48 451.528)
(139.571 -185.23 201.226)
(158.82 -244.031 377.968)
(123.892 -262.984 405.62)
(130.285 -212.611 192.788)
(118.434 -202.744 229.562)
(66.9267 -228.458 204.678)
(94.7587 -245.566 496.133)
(27.6325 -226.467 306.802)
(27.9473 -285.844 450.243)
(81.0223 -271.965 436.751)
(23.438 -247.887 221.76)
(82.3035 -213.911 283.009)
(63.5112 -219.451 122.018)
(20.9831 -186.088 145.646)
(60.5332 -169.641 163.011)
(12.1938 -220.752 167.659)
(17.6068 -223.301 124.389)
(66.5444 -219.856 169.507)
(61.4522 -181.378 140.735)
(46.5692 -255.717 171.578)
(24.9797 -304.39 384.43)
(57.8979 -311.098 339.021)
(19.0778 -292.701 145.976)
(65.6208 -292.334 379.924)
(19.9634 -265.201 156.085)
(46.2718 -286.534 163.003)
(196.293 -423.368 211.074)
(273.077 -425.838 154.837)
(195.956 -427.336 157.494)
(273.331 -347.452 204.243)
(273.369 -349.488 156.31)
(195.077 -350.583 159.723)
(198.739 -351.559 230.395)
(274.023 -194.07 231.579)
(195.882 -194.529 234.546)
(272.162 -270.946 334.52)
(273.316 -193.376 335.648)
(195.415 -194.076 336.887)
(195.503 -272.484 231.681)
(194.581 -271.932 335.683)
(38.5377 -426.239 230.858)
(39.0649 -425.034 334.975)
(119.175 -426.716 335.747)
(116.751 -350.552 232.088)
(38.0211 -347.322 334.68)
(38.7453 -348.534 232.362)
(115.982 -349.238 335.85)
(273.879 -425.959 231.402)
(195.363 -427.534 230.18)
(199.027 -427.079 335.267)
(271.824 -349.038 229.798)
(273.033 -348.236 335.198)
(194.345 -350.176 230.22)
(194.233 -349.493 335.015)
(4.70896 -111.081 164.14)
(4.35201 -140.489 173.937)
(9.99658 -178.573 241.956)
(7.1237 -113.012 168.342)
(25.7831 -184.182 251.202)
(7.45049 -143.075 183.194)
(21.6834 -154.651 232.406)
(4.49358 -118.156 183.814)
(19.7994 -160.213 223.218)
(50.8741 -164.186 267.531)
(40.7817 -190.353 266.852)
(9.14386 -150.555 202.712)
(33.3027 -160.705 249.882)
(8.86084 -122.949 207.312)
(-65.2056 -79.5737 149.724)
(3.87805 -87.119 179.957)
(98.3572 -65.727 231.966)
(4.73501 -59.9199 162.356)
(160.352 36.5185 283.564)
(11.6672 41.5631 246.315)
(93.2932 44.7387 208.767)
(90.5031 -51.975 201.255)
(11.7488 -23.1633 501.743)
(67.3285 -24.903 531.278)
(28.8881 28.8766 513.5)
(68.1124 30.7556 535.087)
(84.744 -75.0023 214.052)
(13.206 -110.401 544.761)
(77.7537 -114.622 556.309)
(67.2546 -120.664 266.207)
(9.47805 -121.243 230.012)
(12.0382 -41.116 512.225)
(70.6919 -44.1001 537.696)
(36.9921 -111.001 178.194)
(4.12768 15.5567 180.686)
(6.37837 -121.498 306.17)
(94.3487 -83.2725 243.79)
(55.9454 -110.482 243.454)
(153.003 -193.617 298.913)
(83.0749 -194.317 289.715)
(171.718 37.9577 475.035)
(124.761 36.8178 433.537)
(119.631 37.8755 240.92)
(102.468 -44.8224 219.807)
(90.7645 -25.3697 542.355)
(136.241 -36.7746 259.601)
(169.523 -28.0194 559.371)
(101.727 -116.842 559.439)
(182.027 -125.913 559.302)
(137.112 -122.948 327.344)
(87.5178 -120.109 285.81)
(93.9479 -45.4803 546.858)
(134.773 -77.9275 289.751)
(172.15 -50.6374 561.532)
(160.742 -271.862 551.55)
(62.3743 -115.128 355.184)
(17.0577 -80.5118 224.993)
(-44.6024 -28.1257 208.78)
(-6.25211 -32.7039 186.474)
(-25.8846 -51.0615 177.849)
(-13.8461 -47.5887 193.858)
(38.9647 -83.7009 183.637)
(5.54173 -103.897 195.224)
(35.3101 -100.919 199.432)
(7.44112 -73.6965 253.793)
(36.8256 -71.6816 260.017)
(35.7654 -90.8912 281.715)
(8.71316 -92.6953 276.658)
(7.37853 -22.9941 151.108)
(41.2489 -57.5882 168.155)
(45.6653 -21.4912 162.497)
(7.42855 -48.1774 234.886)
(8.31449 -18.2181 225.647)
(39.1583 -17.4946 235.04)
(37.0543 -47.6234 241.89)
(41.7381 41.7526 258.907)
(47.8688 47.87 188.981)
(14.4686 49.0694 178.875)
(15.4296 15.4899 162.059)
(49.0949 14.5812 179.042)
(12.1823 12.2928 232.547)
(41.5545 11.7813 246.444)
(89.606 40.9145 288.634)
(67.4271 42.0037 274.671)
(73.7855 46.4859 197.339)
(95.3182 14.9531 202.657)
(76.3613 15.4217 191.937)
(67.7619 12.8189 264.032)
(89.7149 13.1466 280.554)
(69.5639 -56.0277 185.183)
(94.1414 -20.1523 196.137)
(74.3056 -20.8594 180.59)
(66.1604 -17.1629 254.94)
(85.781 -44.4632 282.073)
(63.4916 -47.3446 260.918)
(87.7337 -16.2266 276.003)
(64.6251 -80.0584 198.697)
(76.9475 -91.5047 227.721)
(59.4275 -99.087 212.483)
(84.2902 -66.9307 295.223)
(61.4157 -69.7922 278.29)
(59.973 -91.3015 293.593)
(80.6717 -87.3889 310.045)
(-70.9409 -46.0916 174.713)
(-45.9892 -89.6817 164.896)
(-55.5837 -44.4207 169.454)
(-16.401 -119.827 189.158)
(-26.9739 -73.5364 182.962)
(-9.44301 -82.8026 197.506)
(9.00116 -131.073 201.078)
(-10.584 -2.48063 220.962)
(8.48912 -17.1321 184.363)
(-31.2175 -13.6697 183.006)
(42.1264 -28.0398 204.381)
(9.24834 -25.1009 198.003)
(12.408 -52.7513 205.891)
(53.5501 -64.5282 210.842)
(7.61167 -115.389 209.873)
(30.7831 -122.439 236.472)
(32.2785 -113.523 215.236)
(34.4582 -110.219 299.087)
(11.7292 -125.79 313.621)
(34.9433 -127.406 319.759)
(10.2196 -110.914 293.489)
(106.621 40.2577 222.709)
(107.294 38.9554 306.454)
(107.141 13.8682 215.247)
(117.791 13.9986 232.311)
(106.786 13.0246 298.51)
(125.345 13.6191 316.734)
(127.247 38.2976 324.862)
(105.433 -17.8151 212.747)
(115.452 -39.5904 240.651)
(116.078 -15.4333 231.64)