/*--------------------------------*- C++ -*----------------------------------*\
  =========                 |
  \\      /  F ield         | OpenFOAM: The Open Source CFD Toolbox
   \\    /   O peration     | Website:  https://openfoam.org
    \\  /    A nd           | Version:  9
     \\/     M anipulation  |
\*---------------------------------------------------------------------------*/
FoamFile
{
    format      ascii;
    class       volScalarField::Internal;
    location    "0.0001";
    object      tIgn.c4;
}
// * * * * * * * * * * * * * * * * * * * * * * * * * * * * * * * * * * * * * //

dimensions      [0 0 1 0 0 0 0];

value           nonuniform List<scalar> 
3921
(
0.000443239
0.000434255
0.000433241
0.000450614
0.000440784
0.00042159
0.000431105
0.000402485
0.000361714
0.000329799
0.000261767
0.00031777
0.00032384
0.000290001
0.000241115
0.000300985
0.000313658
0.000487792
0.000487792
0.000496039
0.000538906
0.000536076
0.000543124
0.000515198
0.000536549
0.000512731
0.000512237
0.000527032
0.000515198
0.000519609
0.00054916
0.00050701
0.000518404
0.000505006
0.000516444
0.000521914
0.000522303
0.000494041
0.000534674
0.000510769
0.000516444
0.000491984
0.000532297
0.000508281
0.000491984
0.000531821
0.000507782
0.000518404
0.000494041
0.000522703
0.000510769
0.00049813
0.000538925
0.000515218
0.000528096
0.000545007
0.000537493
0.000527032
0.000525586
0.000524137
0.000536549
0.000524621
0.000531344
0.000528953
0.000540785
0.000541272
0.00051372
0.000524621
0.000536076
0.000524137
0.000512237
0.000512731
0.000538906
0.000537493
0.000525586
0.00051372
0.000517163
0.000537512
0.000545918
0.000534199
0.000533249
0.000522703
0.000521246
0.000517183
0.000530714
0.000529278
0.000518651
0.000509278
0.000505119
0.000506622
0.000520272
0.000531821
0.000519784
0.000516201
0.000527839
0.000528319
0.00051571
0.000507782
0.000504114
0.00050361
0.000519784
0.000532297
0.000520272
0.000516201
0.000527839
0.00051571
0.000528319
0.000508281
0.000504114
0.00050361
0.000534674
0.000533249
0.000521246
0.000517183
0.000530714
0.000529278
0.000518651
0.000509278
0.000505119
0.000506622
0.000527051
0.00052464
0.000536567
0.000523033
0.000532621
0.000520603
0.000534996
0.000512751
0.000511107
0.00050862
0.000533268
0.000541741
0.00052993
0.000525934
0.000541123
0.000537832
0.000529298
0.000537059
0.000533116
0.000482071
0.000512105
0.000487428
0.000505006
0.000479963
0.000510121
0.000485342
0.000479963
0.000510121
0.000485342
0.00050701
0.000482071
0.000512105
0.000487428
0.000516915
0.000510995
0.000486261
0.000516051
0.000491572
0.000492479
0.000497723
0.000525914
0.000534048
0.000543927
0.000521693
0.000504202
0.000521576
0.000512185
0.000529776
0.000521992
0.000539734
0.000499107
0.00051732
0.000503409
0.000501896
0.000500884
0.000500378
0.000500378
0.000500884
0.000503409
0.000501896
0.000507922
0.00050542
0.000514371
0.000522528
0.000510908
0.000522684
0.000529757
0.000518299
0.000532774
0.000538775
0.000527512
0.00051069
0.000516319
0.000505199
0.000498875
0.000497348
0.000494629
0.000493088
0.000496328
0.000495817
0.000491543
0.000492059
0.000495817
0.000496328
0.000491543
0.000492059
0.000498875
0.000497348
0.000494629
0.000493088
0.000503429
0.000500904
0.000496675
0.000499221
0.000509935
0.000518162
0.000506442
0.000514075
0.000505781
0.000502259
0.000517516
0.000518319
0.000525451
0.000513897
0.000525779
0.000509776
0.000521421
0.000514233
0.000528492
0.000534541
0.000523188
0.00053058
0.000524485
0.00051914
0.000535811
0.000506222
0.0005119
0.000500682
0.00049645
0.000513226
0.000507762
0.000502037
0.000142358
0.000142358
0.00016719
0.000210191
0.000237042
0.000188195
0.000237042
0.000188195
0.00025358
0.000208641
0.000283779
0.000244457
0.000286624
0.000286624
0.000300445
0.000326336
0.000437269
0.000386861
0.000336617
0.000437269
0.000386861
0.000336617
0.000446451
0.000397209
0.000348461
0.00046427
0.000417137
0.000371016
0.000412048
0.000372326
0.000153232
0.000203847
0.000146538
0.000198809
0.000165636
0.000213566
0.000204045
0.000187249
0.000232686
0.000207006
0.000198809
0.000181752
0.000227172
0.000202047
0.000181752
0.000227172
0.000202047
0.000203847
0.000187249
0.000232686
0.000207006
0.000197786
0.000242295
0.000216584
0.000227367
0.000212614
0.000255537
0.000230204
0.000331103
0.000282436
0.000234742
0.000211466
0.000374458
0.000328273
0.000283726
0.000241724
0.000399935
0.000356151
0.000314534
0.000276066
0.000334152
0.000286004
0.000239023
0.000216209
0.000371739
0.000325168
0.000280128
0.000237491
0.000396113
0.000351853
0.000309659
0.000270499
0.000348999
0.000303217
0.000259373
0.000238514
0.000379836
0.000334395
0.000290787
0.000249975
0.000402463
0.000358987
0.000317742
0.000279716
0.000374241
0.00033196
0.000311793
0.000274126
0.000398089
0.000354992
0.000314256
0.000276924
0.000418523
0.000376904
0.000337854
0.000302368
0.000335651
0.000303134
0.000425192
0.00038514
0.000347951
0.000334516
0.000404173
0.000368027
0.000335746
0.0003512
0.000394214
0.000360678
0.000371739
0.0003483
0.000390984
0.000356435
0.000305749
0.000349714
0.000317614
0.000325168
0.000302414
0.000345336
0.000312788
0.000262328
0.000307226
0.000277239
0.000280128
0.000258433
0.000302233
0.000271696
0.000222132
0.00026771
0.000240909
0.000237491
0.000217518
0.000261966
0.000235588
0.000366923
0.000396753
0.000362753
0.000324689
0.000351853
0.000319969
0.000285316
0.000309659
0.000279933
0.000270499
0.0003483
0.000390335
0.000356435
0.000374458
0.0003512
0.000392279
0.000360678
0.000302414
0.000345336
0.000312788
0.000328273
0.000305749
0.000349714
0.000317614
0.000258433
0.000302233
0.000271696
0.000283726
0.000262328
0.000307226
0.000277239
0.000217518
0.000261966
0.000235588
0.000241724
0.000222132
0.00026771
0.000240909
0.000362753
0.000398029
0.000366923
0.000319969
0.000356151
0.000324689
0.000279933
0.000314534
0.000285316
0.000276066
0.00035693
0.000396778
0.00036348
0.000387764
0.000365355
0.000408119
0.000375827
0.000312313
0.000352602
0.000320792
0.000343374
0.000321908
0.000365317
0.000334717
0.00026995
0.00031051
0.000280874
0.000301069
0.000280996
0.000324876
0.000296679
0.000231084
0.000271472
0.000250203
0.000261864
0.000243896
0.000287794
0.000263047
0.000369677
0.000413648
0.000381824
0.000327797
0.000371484
0.000341437
0.000288849
0.000331795
0.00030424
0.000295583
0.000376295
0.000413059
0.000381186
0.00041063
0.000389539
0.000431082
0.000400645
0.000334274
0.000370828
0.000340723
0.000369001
0.000349115
0.000390803
0.000362362
0.00029508
0.000331061
0.000303439
0.000329998
0.000311793
0.000353292
0.00032755
0.000259998
0.000294758
0.000278953
0.000294668
0.000278822
0.000319525
0.00029743
0.0003871
0.00043632
0.000406276
0.000347327
0.000396574
0.000368578
0.000310836
0.000359665
0.000334414
0.000326557
0.000413697
0.000376743
0.000343392
0.000242253
0.000239092
0.000234769
0.000231506
0.000236962
0.000235889
0.000228196
0.000229305
0.000251497
0.000246404
0.00023905
0.000244296
0.000229393
0.000223436
0.000220005
0.000211736
0.000224883
0.000221475
0.000215298
0.000217687
0.000226053
0.00021652
0.000209327
0.000218013
0.000219173
0.000208112
0.000236962
0.000235889
0.000228196
0.000229305
0.000226053
0.00021652
0.000217687
0.000209327
0.000218013
0.000208112
0.000219173
0.000229393
0.000220005
0.000223436
0.000211736
0.000224883
0.000221475
0.000215298
0.000242253
0.000239092
0.000234769
0.000231506
0.000237005
0.000233426
0.00022793
0.000225649
0.000229349
0.000219959
0.000234812
0.000248494
0.000247144
0.000239855
0.000232293
0.000248454
0.000241204
0.000239812
0.000264278
0.000257475
0.000257435
0.000250446
0.000398029
0.000388825
0.000386864
0.000345512
0.000354009
0.000343303
0.000304573
0.000312106
0.000302065
0.000267103
0.000273297
0.00026424
0.000396753
0.000384893
0.000385551
0.00034108
0.000352573
0.000341823
0.000299537
0.000310477
0.000300382
0.000261345
0.000271435
0.000262314
0.000391425
0.000405601
0.000394651
0.000348435
0.000362502
0.000352055
0.000307885
0.000321707
0.000311976
0.000270874
0.000284212
0.000275515
0.00040792
0.000423941
0.000413477
0.000366868
0.000382911
0.000373037
0.000328601
0.000344542
0.000335474
0.000294207
0.000309823
0.000301864
0.00040486
0.000414368
0.000441574
0.000422032
0.000366131
0.000395123
0.000376618
0.000403153
0.000385034
0.000330735
0.00035897
0.000342309
0.00036779
0.000351547
0.000322663
0.000312573
0.000299854
0.000314643
0.000326786
0.000336451
0.000347834
0.000328416
0.000345424
0.000338304
0.000392279
0.000375367
0.000388825
0.000382938
0.000386864
0.000380946
0.000377389
0.000363954
0.000354781
0.000371756
0.000358563
0.000352631
0.000369705
0.000366038
0.000390335
0.000374014
0.000384893
0.000378944
0.000385551
0.000379613
0.000373335
0.000362558
0.000357146
0.000350467
0.000367641
0.00035119
0.00036833
0.000361858
0.000330294
0.000343628
0.000338873
0.000347532
0.000341407
0.000336621
0.000332589
0.000319302
0.000310901
0.000328168
0.00031521
0.000308445
0.000325842
0.000321676
0.000328755
0.000346069
0.000339172
0.000334353
0.000339919
0.000335111
0.000327983
0.00031771
0.000313597
0.000305969
0.000323499
0.000306796
0.000324282
0.000316911
0.000287194
0.000300281
0.00029702
0.00030474
0.000297737
0.000294448
0.000289831
0.000276837
0.000269523
0.000287018
0.000274482
0.000266685
0.000284355
0.000279571
0.000285423
0.000303071
0.000295171
0.000291853
0.000296028
0.000292721
0.000284533
0.000274999
0.000272628
0.000263818
0.000281667
0.000264777
0.000282566
0.000274075
0.000247103
0.00025971
0.000258458
0.000264853
0.000256765
0.000255498
0.000250162
0.000237731
0.000231987
0.000228685
0.000237731
0.000249513
0.000246445
0.000240909
0.000245042
0.000262932
0.000253785
0.000252503
0.000254782
0.000253505
0.000244005
0.000226456
0.000234509
0.000225334
0.000235588
0.000243339
0.000244379
0.000234509
0.000377818
0.000364844
0.0003758
0.000396113
0.000384893
0.000385551
0.000363452
0.00037377
0.000374448
0.00033502
0.000322337
0.000332742
0.000352573
0.00034108
0.000341823
0.00032076
0.000330448
0.000331214
0.000294827
0.000282638
0.000292235
0.000310477
0.000299537
0.000300382
0.000280838
0.000289621
0.000290495
0.000250162
0.000247103
0.000258458
0.000255498
0.000271435
0.000261345
0.000262314
0.000245042
0.000244005
0.000252503
0.000253505
0.000390984
0.000374014
0.000384893
0.000378944
0.000373335
0.000385551
0.000379613
0.000362558
0.000350467
0.000367641
0.000357146
0.000361858
0.00035119
0.00036833
0.000394214
0.000375367
0.000388825
0.000382938
0.000386864
0.000380946
0.000377389
0.000363954
0.000358563
0.000354781
0.000371756
0.000352631
0.000369705
0.000366038
0.000328755
0.000339172
0.000334353
0.000346069
0.000327983
0.000339919
0.000335111
0.00031771
0.000305969
0.000323499
0.000313597
0.000316911
0.000306796
0.000324282
0.000330294
0.000347532
0.000343628
0.000338873
0.000341407
0.000336621
0.000332589
0.000319302
0.00031521
0.000310901
0.000328168
0.000308445
0.000325842
0.000321676
0.000285423
0.000295171
0.000291853
0.000303071
0.000284533
0.000296028
0.000292721
0.000274999
0.000263818
0.000281667
0.000272628
0.000274075
0.000264777
0.000282566
0.000287194
0.00030474
0.000300281
0.00029702
0.000297737
0.000294448
0.000289831
0.000276837
0.000274482
0.000269523
0.000287018
0.000266685
0.000284355
0.000279571
0.000245042
0.000253785
0.000252503
0.000262932
0.000244005
0.000254782
0.000253505
0.000234509
0.000225334
0.000226456
0.000235588
0.000243339
0.000234509
0.000244379
0.000247103
0.000264853
0.00025971
0.000258458
0.000256765
0.000255498
0.000250162
0.000237731
0.000228685
0.000231987
0.000237731
0.000249513
0.000246445
0.000240909
0.00037377
0.000363452
0.000374448
0.000399935
0.000388825
0.000386864
0.000364844
0.000377818
0.0003758
0.000330448
0.00032076
0.000331214
0.000354009
0.000345512
0.000343303
0.000322337
0.00033502
0.000332742
0.000289621
0.000280838
0.000290495
0.000312106
0.000304573
0.000302065
0.000282638
0.000294827
0.000292235
0.000245042
0.000244005
0.000252503
0.000253505
0.000273297
0.000267103
0.00026424
0.000250162
0.000247103
0.000258458
0.000255498
0.000383388
0.000391425
0.000385577
0.000399961
0.000380067
0.000394651
0.000388851
0.00037222
0.000357629
0.000374475
0.000366951
0.000368798
0.000361156
0.000377845
0.000387336
0.000403746
0.000402917
0.000397238
0.000398487
0.000392744
0.000391891
0.000376285
0.000371074
0.000370171
0.000386471
0.000365344
0.00038185
0.000380973
0.000339381
0.000346567
0.000341853
0.000356179
0.000335625
0.000350206
0.000345541
0.000328693
0.000314147
0.000331245
0.00032472
0.000324813
0.000318157
0.00033505
0.000343835
0.000360425
0.000359495
0.000354953
0.000354524
0.000349917
0.000348959
0.00033329
0.000329372
0.000328354
0.000344748
0.000322903
0.00033956
0.000338573
0.0002976
0.000303639
0.000300416
0.000314566
0.000293309
0.000307787
0.000304607
0.000287618
0.00027326
0.00029053
0.000285352
0.000283175
0.000277861
0.000294861
0.000302669
0.000319366
0.000318316
0.000315242
0.00031269
0.000309561
0.000308478
0.000292859
0.000290635
0.000289481
0.000305836
0.000283283
0.000299977
0.000298859
0.000259124
0.000263587
0.000262353
0.000276103
0.000254184
0.000268353
0.000267141
0.000245083
0.000241624
0.000236319
0.000250203
0.000253545
0.000245083
0.000258497
0.00026493
0.000281559
0.000280368
0.000279208
0.000273964
0.000272777
0.000271547
0.000256211
0.000254901
0.00024784
0.000256211
0.000270949
0.000264317
0.000263047
0.000380493
0.000373091
0.000383811
0.000409335
0.000402917
0.000398487
0.000377147
0.000392305
0.000387754
0.000338034
0.000331642
0.000341764
0.000366674
0.000361297
0.00035635
0.000336199
0.000351276
0.000346187
0.000298247
0.000293206
0.000302468
0.000326402
0.000322369
0.000316815
0.000298349
0.000313177
0.000307457
0.000259124
0.000254184
0.000262353
0.000267141
0.000289516
0.00028723
0.000280982
0.000271547
0.00026493
0.000279208
0.000272777
0.00040274
0.00040792
0.000402312
0.000418548
0.000397034
0.000413477
0.000407945
0.000392124
0.000375611
0.000391684
0.000387126
0.000386261
0.000381638
0.000397468
0.000408988
0.000424562
0.00042616
0.000420795
0.000419564
0.000414114
0.000415751
0.000398538
0.000393621
0.000395344
0.000410646
0.000388225
0.000403797
0.000405476
0.0003611
0.000365094
0.000360622
0.000376931
0.000354724
0.000371292
0.000366896
0.000351074
0.000334475
0.000350583
0.000347356
0.000344513
0.000341229
0.000357033
0.000368055
0.000383599
0.000385367
0.000381132
0.00037806
0.000373743
0.000375557
0.000358224
0.000354581
0.000356492
0.000371647
0.000348581
0.000364065
0.000365927
0.000322148
0.000324626
0.000321613
0.000337884
0.000314985
0.000331581
0.000328632
0.00031295
0.000296405
0.000312398
0.000310869
0.000305571
0.000304007
0.00031962
0.000329925
0.000345307
0.000347269
0.000344454
0.000339142
0.000336259
0.000338274
0.00032095
0.000318921
0.000321045
0.000335866
0.000312236
0.000327457
0.000329526
0.000286982
0.000287512
0.000286381
0.000302401
0.000278917
0.000295342
0.000294241
0.000270649
0.000271285
0.000262739
0.000278953
0.000278335
0.000270649
0.000286416
0.000295686
0.000310673
0.000312853
0.000311813
0.000303806
0.000302736
0.000304973
0.00029025
0.0002879
0.000280476
0.0002879
0.00030444
0.000295136
0.00029743
0.000397442
0.000392951
0.000403143
0.00042988
0.00042616
0.000419564
0.000399352
0.000416142
0.000409384
0.000357004
0.000353837
0.00036334
0.000389477
0.000387048
0.000379773
0.000360931
0.000377711
0.000370253
0.000319588
0.000318093
0.000326651
0.000351824
0.000350987
0.000342949
0.000325967
0.000342564
0.000334323
0.000286982
0.000278917
0.000286381
0.000294241
0.000317902
0.000319016
0.00031015
0.000304973
0.000295686
0.000311813
0.000302736
0.000394831
0.000412248
0.000403093
0.000359552
0.000376878
0.000368606
0.00042339
0.000385682
0.000385393
0.000394136
0.000351334
0.000352861
0.000360594
0.000325094
0.000314792
0.000321423
0.00033152
0.000146538
0.000163237
0.00016903
0.000167167
0.000172828
0.000187249
0.000181752
0.000153232
0.00016903
0.000163237
0.000167167
0.000172828
0.000181752
0.000187249
0.000183086
0.000196758
0.000180632
0.000184191
0.000200029
0.000197786
0.000212614
0.000216397
0.000219376
0.000230908
0.000334152
0.000358517
0.000365688
0.000341834
0.000355677
0.000362904
0.000338854
0.000286004
0.000306676
0.000309966
0.000318232
0.000294943
0.000315029
0.000291484
0.000258433
0.000239023
0.000262328
0.000272046
0.00024965
0.000268292
0.000245554
0.000216209
0.00018876
0.000194059
0.000207006
0.000202047
0.000227902
0.000223407
0.000331103
0.000355677
0.000362904
0.000338854
0.000358517
0.000365688
0.000341834
0.000282436
0.000309966
0.000306676
0.000315029
0.000291484
0.000318232
0.000294943
0.000262328
0.000234742
0.000258433
0.000268292
0.000245554
0.000272046
0.00024965
0.000211466
0.00018876
0.000194059
0.000202047
0.000207006
0.000223407
0.000227902
0.000340169
0.000364131
0.000371193
0.000347718
0.000372394
0.000379302
0.000356361
0.000293011
0.000325916
0.000316443
0.000324544
0.000301742
0.000333788
0.000311663
0.000280996
0.000247364
0.00026995
0.000279403
0.000257647
0.000290089
0.000269198
0.000225396
0.000204244
0.000218635
0.000216584
0.000230204
0.000236635
0.000249162
0.000381116
0.000360436
0.000396148
0.000402649
0.000383133
0.000389851
0.000367569
0.000316314
0.000339691
0.000352814
0.000360098
0.000338135
0.000345728
0.000324419
0.000292457
0.00027457
0.00029508
0.000320012
0.000303752
0.000283869
0.000301204
0.000254956
0.000236464
0.000257016
0.000266928
0.0002472
0.000264944
0.000283439
0.000422431
0.000408044
0.000407422
0.000417018
0.000402438
0.000401807
0.00041114
0.000409285
0.000420626
0.000419419
0.000407422
0.000418814
0.000418814
0.000408044
0.000419419
0.000405576
0.000403696
0.00041519
0.000410077
0.000400341
0.000398436
0.000411928
0.000413967
0.000401807
0.000413354
0.000408839
0.000396522
0.000397161
0.000408218
0.000413354
0.000402438
0.000413967
0.000408839
0.000396522
0.000408218
0.000397161
0.000491667
0.000445248
0.000488563
0.000441818
0.000496287
0.000450344
0.000511385
0.00046693
0.00046834
0.000489082
0.000465625
0.000442392
0.00046508
0.000491667
0.000466713
0.000443536
0.000420626
0.000473187
0.000502885
0.000480103
0.000427799
0.000457605
0.000435436
0.000488999
0.000499769
0.000445225
0.000478198
0.000457029
0.000457192
0.000407656
0.000469796
0.000421743
0.000454968
0.00040516
0.000467633
0.000419331
0.000461608
0.000412602
0.000474095
0.000426526
0.000469624
0.000424619
0.000488841
0.000442858
0.000445689
0.000487024
0.000463463
0.000467633
0.000443408
0.000484414
0.00046072
0.000397987
0.000440116
0.000419331
0.000395431
0.000437226
0.000443408
0.00048389
0.000460169
0.000469796
0.000445689
0.000487024
0.000461819
0.000395431
0.000436646
0.000421743
0.000397987
0.000438384
0.00041519
0.000450218
0.000491688
0.000468361
0.00048047
0.000456926
0.000498347
0.000475347
0.000403052
0.000445271
0.000422455
0.000433601
0.000410532
0.000452613
0.000430187
0.00046572
0.000506922
0.00048433
0.000476485
0.000495202
0.000420298
0.000462039
0.000440093
0.000454165
0.000432195
0.000473423
0.00045203
0.000490117
0.000479976
0.000478389
0.000443536
0.000433803
0.000432045
0.000476796
0.000489082
0.000477327
0.000430281
0.000442392
0.00043087
0.000484707
0.000493726
0.000482085
0.000439032
0.00044752
0.000436134
0.000500155
0.000506902
0.000495571
0.000456029
0.000462017
0.000450997
0.000466713
0.000456762
0.000455094
0.000477327
0.000488563
0.000476796
0.000453978
0.00046508
0.000453419
0.00043087
0.000441818
0.000430281
0.000453419
0.000465625
0.000453978
0.000490117
0.000478389
0.000479976
0.000455094
0.00046834
0.000456762
0.000432045
0.000445248
0.000433803
0.000422431
0.000409285
0.00041114
0.000461731
0.0004705
0.000458977
0.000491461
0.000499343
0.000487836
0.000468816
0.000476392
0.000465015
0.000424825
0.000413599
0.000416653
0.000446476
0.00045371
0.000442483
0.000424491
0.000431341
0.000420289
0.000477922
0.000484309
0.000473123
0.000488936
0.000494157
0.000483198
0.000434527
0.00044007
0.000429243
0.000467559
0.000472329
0.000461556
0.000446613
0.000450884
0.000440323
0.00048546
0.000475219
0.000473616
0.00046914
0.000482673
0.000481095
0.000470759
0.000461819
0.000451761
0.000450074
0.000457228
0.000447067
0.000445362
0.000458889
0.000472544
0.00048389
0.000472007
0.000468058
0.000479511
0.000480039
0.000467516
0.000448946
0.000460169
0.000448381
0.000456118
0.000443651
0.000444222
0.000455562
0.000438384
0.000428533
0.000426755
0.000421782
0.000435296
0.000433545
0.000423582
0.000425565
0.000436646
0.000424968
0.000420578
0.000431787
0.000432374
0.000419975
0.000472007
0.000484414
0.000472544
0.000468058
0.000479511
0.000467516
0.000480039
0.000448381
0.00046072
0.000448946
0.000456118
0.000443651
0.000455562
0.000444222
0.00048546
0.000473616
0.000475219
0.00046914
0.000482673
0.000481095
0.000470759
0.000450074
0.000463463
0.000451761
0.000457228
0.000447067
0.000445362
0.000458889
0.000424968
0.000437226
0.000425565
0.000420578
0.000431787
0.000419975
0.000432374
0.000426755
0.000440116
0.000428533
0.000421782
0.000435296
0.000433545
0.000423582
0.000417018
0.000403696
0.000405576
0.000410077
0.000400341
0.000398436
0.000411928
0.000479997
0.000489102
0.000477349
0.000475582
0.00048477
0.000472908
0.000487378
0.000456784
0.000465647
0.000454
0.000463835
0.00044933
0.000461094
0.000452142
0.000486816
0.000494772
0.000483156
0.00047877
0.000494095
0.00049049
0.000482463
0.000463945
0.000471598
0.000460103
0.000467104
0.000459375
0.000455495
0.000470888
0.000433826
0.000442414
0.000430894
0.000428935
0.00043762
0.00042597
0.000440508
0.000419443
0.000408069
0.000411164
0.000417431
0.000402866
0.000414383
0.000406001
0.000441359
0.000448675
0.000437319
0.000432468
0.000447928
0.000443948
0.000436553
0.000419105
0.000426041
0.000414848
0.00042106
0.00041404
0.000409731
0.000425255
0.000495591
0.000502401
0.000490965
0.000491316
0.000498184
0.000486649
0.000502744
0.000473144
0.000479596
0.000468296
0.000479955
0.00046377
0.000475176
0.000468664
0.000484268
0.000489538
0.000478473
0.000485209
0.000479892
0.000474044
0.000490924
0.000451019
0.000457073
0.000445931
0.000446317
0.000452434
0.000441175
0.00045745
0.000429266
0.000434877
0.000423917
0.000435273
0.000418911
0.000429998
0.000424323
0.000462675
0.000467494
0.000456607
0.000451963
0.000468946
0.00046296
0.000458093
0.000441497
0.000445817
0.000435133
0.00044106
0.000436692
0.000430258
0.000447339
0.000432383
0.000462836
0.000438347
0.000454968
0.000430031
0.00046064
0.000436027
0.000383027
0.000413976
0.000389747
0.00040516
0.00038037
0.000411519
0.000387136
0.000430031
0.00046064
0.000436027
0.000457192
0.000432383
0.000462836
0.000438347
0.00038037
0.000411519
0.000387136
0.000407656
0.000383027
0.000413976
0.000389747
0.000437049
0.000467199
0.00044295
0.000468153
0.000443956
0.000473667
0.000449767
0.000388287
0.000418847
0.000394917
0.000419911
0.000396046
0.00042605
0.000402548
0.000464062
0.000492561
0.000487261
0.00047674
0.000453002
0.000482156
0.000458698
0.000446962
0.000441114
0.00041846
0.000429464
0.00040616
0.000435468
0.000412503
0.000216209
0.000211466
0.000225396
0.000221246
0.000214259
0.000211466
0.000214259
0.000221246
0.000216209
0.000225784
0.000245166
0.000238514
0.000227752
0.000217781
0.000224387
0.000215439
0.000220971
0.000222115
0.000220971
0.000215439
0.000222115
0.000217781
0.000227752
0.000224387
0.000232162
0.000231331
0.00023756
0.000237816
0.000251053
0.000254901
0.00024388
0.000260568
9.83143e-05
0.00010814
0.000132539
0.000183833
0.000167167
0.000172828
0.000200029
0.00013297
0.00013297
0.000159236
0.000203921
0.000172828
0.000194059
0.00018876
0.000167167
0.00018876
0.000194059
0.000184191
0.000204244
0.000218635
0.000227545
0.000238684
0.000241388
0.000251915
0.000254956
0.000276245
0.000264485
0.000251915
0.000290809
0.000266928
0.000253305
0.000310358
0.000286571
0.000275012
0.000299719
0.000283462
0.000281054
0.000273445
0.000266837
0.000284605
0.00027463
0.000277093
0.000298519
0.000289025
0.000292478
0.000282781
0.000262739
0.000262159
0.000271285
0.000241388
0.000219376
0.000236464
0.000257016
0.00024456
0.000230908
0.000271883
0.0002472
0.000280115
0.000271846
0.000265198
0.000273668
0.000263356
0.00026401
0.00025522
0.000257159
0.000256488
0.000248127
0.000265236
0.000276617
0.000259006
0.00026824
0.000267672
0.000110735
0.00010814
0.000119543
0.000101961
9.14739e-05
7.59673e-05
8.83148e-05
0.000119543
9.83143e-05
0.000110735
9.14739e-05
0.000101961
8.83148e-05
7.59673e-05
0.000322663
0.000326588
0.000348926
0.000281739
0.000274126
0.00029234
0.000336451
0.000326662
0.000299854
0.000288827
0.000312443
0.000316334
0.000319048
0.000308544
0.000321076
0.000302703
0.00031064
0.000313403
0.000285636
0.000271659
0.000286876
0.00029025
0.000276983
0.000280476
0.000295239
0.000295493
0.000318615
0.000315982
0.000297293
0.000300551
0.000303406
0.000305372
0.000308182
0.000311325
0.000334444
0.000324439
0.000329064
0.000318889
0.000324094
0.000313759
0.000319556
0.000233181
0.000257962
0.000333712
0.0002472
0.000266928
0.00025676
0.000210312
0.00022808
0.000249325
0.000288827
0.000312443
0.000284154
0.000297545
0.000272642
0.000265403
0.000290927
0.000279693
0.000304019
0.000207006
0.000202047
0.000202047
0.000207006
0.000216584
0.000230204
0.000155124
0.000161483
0.00018375
0.000178145
0.000161483
0.000155124
0.000178145
0.00018375
0.000190045
0.000173296
0.000194476
0.000209539
7.59673e-05
7.59673e-05
7.59673e-05
7.59673e-05
7.59673e-05
7.59673e-05
7.59673e-05
7.59673e-05
7.59673e-05
7.59673e-05
7.59673e-05
7.59673e-05
7.59673e-05
7.59673e-05
0.000132539
0.000132539
0.000132539
0.000132539
0.000132539
0.000132539
0.000132539
8.83148e-05
8.83148e-05
8.83148e-05
8.83148e-05
8.83148e-05
8.83148e-05
8.83148e-05
8.83148e-05
8.83148e-05
8.83148e-05
8.83148e-05
8.83148e-05
8.83148e-05
8.83148e-05
0.000142358
0.000142358
0.000142358
0.000142358
0.000142358
0.000142358
0.000142358
0.000142358
0.000142358
0.000142358
0.000142358
0.000142358
0.000142358
0.000142358
9.83143e-05
9.83143e-05
9.83143e-05
9.83143e-05
9.83143e-05
9.83143e-05
9.83143e-05
0.00013297
0.00013297
0.00013297
0.00013297
0.00013297
0.00013297
0.00013297
0.00013297
0.00013297
0.00013297
0.00013297
0.00013297
0.00013297
0.00013297
9.14739e-05
9.14739e-05
9.14739e-05
9.14739e-05
9.14739e-05
9.14739e-05
9.14739e-05
9.83143e-05
9.83143e-05
9.83143e-05
9.83143e-05
9.83143e-05
9.83143e-05
9.83143e-05
9.14739e-05
9.14739e-05
9.14739e-05
9.14739e-05
9.14739e-05
9.14739e-05
9.14739e-05
0.00010814
0.00010814
0.00010814
0.00010814
0.00010814
0.00010814
0.00010814
0.00010814
0.00010814
0.00010814
0.00010814
0.00010814
0.00010814
0.00010814
0.000101961
0.000101961
0.000101961
0.000101961
0.000101961
0.000101961
0.000101961
0.000101961
0.000101961
0.000101961
0.000101961
0.000101961
0.000101961
0.000101961
0.000132539
0.000132539
0.000132539
0.000132539
0.000132539
0.000132539
0.000132539
0.000110735
0.000110735
0.000110735
0.000110735
0.000110735
0.000110735
0.000110735
0.000110735
0.000110735
0.000110735
0.000110735
0.000110735
0.000110735
0.000110735
0.00013297
0.00013297
0.00013297
0.00013297
0.00013297
0.00013297
0.00013297
0.00013297
0.00013297
0.00013297
0.00013297
0.00013297
0.00013297
0.00013297
8.83148e-05
7.59673e-05
0.000133947
9.14739e-05
0.000101961
0.000132539
7.59673e-05
4.5737e-05
7.21322e-05
7.08017e-05
8.06305e-05
2.91123e-05
5.13766e-05
7.08017e-05
8.06305e-05
8.83148e-05
3.65289e-05
6.35548e-05
5.44437e-05
7.21322e-05
0.000108887
9.62289e-05
0.000123877
0.000102753
0.00012901
8.92288e-05
0.000118521
0.000101961
8.83148e-05
7.59673e-05
9.83143e-05
0.00010814
0.000119543
0.000110735
9.14739e-05
7.59673e-05
8.83148e-05
0.00010814
9.83143e-05
0.000110735
0.000119543
5.53673e-05
5.97717e-05
5.09803e-05
5.97717e-05
6.35548e-05
5.53673e-05
6.74265e-05
6.49752e-05
7.30578e-05
7.42967e-05
5.82245e-05
7.64497e-05
6.0948e-05
6.24277e-05
3.65289e-05
4.01024e-05
4.41574e-05
5.40698e-05
4.8042e-05
4.91572e-05
5.09803e-05
5.44437e-05
6.69737e-05
6.45052e-05
6.27518e-05
7.16561e-05
6.01101e-05
7.3886e-05
6.49752e-05
7.30578e-05
7.42967e-05
5.82245e-05
7.64497e-05
6.0948e-05
6.24277e-05
2.91123e-05
4.41574e-05
4.01024e-05
5.40698e-05
4.8042e-05
4.91572e-05
5.09803e-05
5.53673e-05
4.5737e-05
6.74265e-05
5.97717e-05
5.09803e-05
5.97717e-05
5.53673e-05
5.13766e-05
6.69737e-05
6.45052e-05
6.27518e-05
7.16561e-05
6.01101e-05
7.3886e-05
3.82249e-05
3.0474e-05
3.12138e-05
3.54009e-05
3.65289e-05
3.71484e-05
3.24876e-05
4.02917e-05
3.30294e-05
3.82249e-05
4.1714e-05
3.86864e-05
4.32069e-05
3.48959e-05
4.02917e-05
3.30294e-05
3.82249e-05
4.1714e-05
3.86864e-05
4.32069e-05
3.48959e-05
4.14089e-05
3.50409e-05
4.11016e-05
4.48765e-05
4.57716e-05
4.04173e-05
3.61802e-05
4.41359e-05
4.1714e-05
4.88791e-05
4.93438e-05
4.26755e-05
5.01592e-05
4.32069e-05
3.82249e-05
3.0474e-05
3.12138e-05
3.54009e-05
3.65289e-05
3.71484e-05
3.24876e-05
4.14089e-05
3.50409e-05
4.11016e-05
4.48765e-05
4.04173e-05
4.57716e-05
3.61802e-05
4.41359e-05
4.1714e-05
4.88791e-05
4.93438e-05
4.26755e-05
4.32069e-05
5.01592e-05
0.000586852
0.000535979
0.000485123
0.00043429
0.00038349
0.000586852
0.000535979
0.000485123
0.00043429
0.00038349
0.000593725
0.000543495
0.000493415
0.000443534
0.000393927
5.82245e-05
0.000122353
6.0948e-05
8.06305e-05
8.06305e-05
9.14739e-05
0.000101961
0.000101961
9.14739e-05
6.24277e-05
6.0948e-05
6.49752e-05
7.42967e-05
7.30578e-05
7.08017e-05
7.64497e-05
5.82245e-05
6.49752e-05
6.24277e-05
7.42967e-05
7.30578e-05
7.08017e-05
7.64497e-05
0.000332738
0.000282058
0.000332738
0.000282058
0.000344715
0.000296093
0.000131309
0.000131309
0.000159236
0.0002315
0.000181165
0.0002315
0.000181165
0.000248408
0.000202323
7.59673e-05
7.59673e-05
7.59673e-05
7.59673e-05
7.59673e-05
7.59673e-05
7.59673e-05
7.59673e-05
7.59673e-05
7.59673e-05
7.59673e-05
7.59673e-05
7.59673e-05
7.59673e-05
7.21322e-05
7.21322e-05
7.21322e-05
7.21322e-05
7.21322e-05
7.21322e-05
7.21322e-05
7.21322e-05
7.21322e-05
7.21322e-05
7.21322e-05
7.21322e-05
7.21322e-05
7.21322e-05
7.59673e-05
7.59673e-05
7.59673e-05
7.59673e-05
7.59673e-05
7.59673e-05
7.59673e-05
7.59673e-05
7.59673e-05
7.59673e-05
7.59673e-05
7.59673e-05
7.59673e-05