/*--------------------------------*- C++ -*----------------------------------*\
  =========                 |
  \\      /  F ield         | OpenFOAM: The Open Source CFD Toolbox
   \\    /   O peration     | Website:  https://openfoam.org
    \\  /    A nd           | Version:  9
     \\/     M anipulation  |
\*---------------------------------------------------------------------------*/
FoamFile
{
    format      ascii;
    class       volScalarField;
    location    "0.00085";
    object      impulse;
}
// * * * * * * * * * * * * * * * * * * * * * * * * * * * * * * * * * * * * * //

dimensions      [1 -1 -1 0 0 0 0];

internalField   nonuniform List<scalar> 
44319
(
0
0
0
0
0
0
0
0
0
0
0
0
0
0
0
0
0
0
0
0
0
0
0
0
0
0
0
0
0
0
0
0
0
0
0
0
0
0
0
0
0
0
0
0
0
0
0
0
0
0
0
0
0
0
0
0
0
0
0
0
0
0
0
0
0
0
0
0
0
0
0
0
0
0
0
0
0
0
0
0
0
0
0
0
0
0
0
0
0
0
0
0
0
0
0
0
0
0
0
0
0
0
0
0
0
0
0
0
0
0
0
0
0
0
0
0
0
0
0
0
0
0
0
0
0
0
0
0
0
0
0
0
0
0
0
0
0
0
0
0
0
0
0
2.09184e-15
2.04636e-14
3.65617e-14
1.40062e-14
2.72848e-16
0
0
0
0
0
0
0
0
0
0
0
0
0
0
0
0
0
0
2.45564e-15
1.015e-13
5.62704e-13
1.87129e-12
2.877e-12
1.35205e-12
3.02953e-13
2.5284e-14
0
0
0
0
0
0
0
0
0
0
0
0
0
0
0
0
1.67347e-14
5.34692e-13
8.65903e-12
3.86362e-11
1.2701e-10
1.86217e-10
8.68879e-11
2.04609e-11
2.66491e-12
1.2169e-13
0
0
0
0
0
0
0
0
0
0
0
0
0
0
4.19277e-14
2.01899e-12
5.18051e-11
5.74675e-10
2.78079e-09
9.36483e-09
1.3185e-08
5.80092e-09
1.24959e-09
2.12168e-10
9.94978e-12
0
0
0
0
0
0
0
0
0
0
0
0
0
5.25688e-14
3.59896e-12
1.75442e-10
3.74409e-09
1.50376e-08
1.36245e-07
6.06106e-07
1.28502e-06
6.15816e-07
1.05945e-07
9.47254e-09
6.25654e-10
0
0
0
0
0
0
0
0
0
0
0
0
5.00222e-14
3.83052e-12
2.4619e-10
6.52619e-09
5.79489e-08
3.273e-06
0.00161462
0.0588797
0.188654
0.0975773
0.00374103
8.0857e-06
4.86965e-08
0
0
0
0
0
0
0
0
0
0
0
2.53749e-14
2.48738e-12
1.8365e-10
5.3284e-09
2.02819e-07
0.000235937
12.2624
163.983
273.887
305.984
284.644
185.463
25.651
0.00184172
0
0
0
0
0
0
0
0
0
0
5.09317e-15
8.56198e-13
7.57039e-11
3.50638e-09
8.92152e-08
0.000467114
91.6667
414.071
579.914
646.981
662.671
643.981
577.545
428.419
141.571
0
0
0
0
0
0
0
0
0
0
1.16233e-13
9.16552e-12
6.93361e-10
1.64407e-08
1.21263e-05
38.5455
446.56
712.955
882.338
978.945
996.392
956.444
860.167
710.839
476.208
0
0
0
0
0
0
0
0
0
6.73026e-15
9.90076e-13
9.49789e-11
6.96991e-09
4.8703e-07
0.0341592
264.068
640.83
935.601
1253.43
1536.5
1596.84
1504.92
1249.03
940.272
670.232
0
0
0
0
0
0
0
0
0
4.75666e-14
4.75911e-12
4.18948e-10
2.18649e-08
2.45844e-06
2.17505
380.374
737.01
1102.87
1641.51
2499.34
3195.91
2700.63
1742.36
1160.34
782.584
0
0
0
0
0
0
0
0
0
7.11225e-14
6.64095e-12
5.60924e-10
2.93439e-08
5.61541e-06
5.83405
407.53
767.523
1163.11
1751.95
3354.63
11109.7
4647.63
1990.29
1267.82
963.905
0
0
0
0
0
0
0
0
0
4.1382e-14
3.98013e-12
3.03024e-10
1.26529e-08
2.45606e-06
2.99877
385.743
750.289
1160.85
1818.18
3560.09
9672.4
6178.64
4174.03
3268.81
1667.87
0
0
0
0
0
0
0
0
0
0
6.6666e-14
3.51165e-12
4.65683e-10
7.78414e-07
0.236122
322.397
704.067
1164.27
1907.57
2788.37
535.247
0
0
0
0
0
0
2.54659e-15
1.69633e-11
6.15335e-08
0.00156305
170.45
591.791
881.25
1130.49
1042.44
152.522
0
0
0
0
0
0
0
678.3
530.241
138.138
0.381853
1.9713e-06
0.000567648
0.116971
0
0
0
0
0
0
0
0
0
0
0
0
394.66
272.811
39.8409
0.000416258
1.6682e-08
2.31744e-07
3.67491e-07
0
0
0
0
0
0
0
0
0
0
0
0
0
0
8.6402e-15
1.2642e-10
9.20533e-07
0.859818
7.14493
1.43287
0.000432354
1.5863e-08
4.77699e-10
3.80208e-09
1.31285e-09
0
0
0
0
0
0
0
0
0
0
0
0
0
0
8.83119e-14
1.5538e-11
2.11208e-09
1.84531e-07
1.48695e-06
3.46187e-07
4.46642e-09
2.85152e-10
1.06434e-11
4.95304e-11
2.10821e-11
0
0
0
0
0
0
0
0
0
0
0
0
0
0
5.45697e-16
1.71985e-13
2.25394e-11
2.97884e-10
1.29e-09
6.15823e-10
7.92484e-11
5.35691e-12
2.06728e-13
5.64978e-13
2.60115e-13
0
0
0
0
0
0
0
0
0
0
0
0
0
0
0
0
0
0
0
0
0
0
0
0
0
0
0
0
0
0
0
0
0
0
0
0
0
0
0
0
0
0
0
0
0
0
0
0
0
0
0
0
0
0
0
0
0
0
0
0
0
0
0
0
0
0
0
0
0
0
0
0
0
0
0
0
0
0
0
0
0
0
0
0
0
0
0
0
0
0
0
0
0
0
0
0
0
0
0
0
0
0
0
0
0
0
0
0
0
0
0
0
0
0
0
0
0
0
0
0
0
0
0
0
0
0
0
0
0
0
0
0
0
0
0
0
0
0
0
0
0
0
0
0
3.54703e-15
5.82077e-15
7.27596e-16
0
0
0
0
0
0
0
0
0
0
0
0
0
0
0
0
0
0
0
0
1.00044e-14
1.21327e-13
5.55428e-13
7.587e-13
3.07955e-13
5.02041e-14
1.00044e-15
0
0
0
0
0
0
0
0
0
0
0
0
0
0
0
0
7.27596e-16
7.71252e-14
1.16306e-12
8.56443e-12
3.51248e-11
4.3984e-11
1.89362e-11
4.20578e-12
3.49337e-13
1.58252e-14
0
0
0
0
0
0
0
0
0
0
0
0
0
0
2.72848e-15
2.22826e-13
5.75264e-12
9.15792e-11
4.93362e-10
1.94237e-09
2.20713e-09
9.9769e-10
3.0582e-10
2.29004e-11
1.46711e-12
0
0
0
0
0
0
0
0
0
0
0
0
0
3.09228e-15
3.6207e-13
1.46499e-11
3.61395e-10
4.84255e-09
1.50094e-08
6.18511e-08
7.37684e-08
3.59055e-08
1.35664e-08
1.38449e-09
1.09623e-10
0
0
0
0
0
0
0
0
0
0
0
0
3.63798e-15
3.85717e-13
2.04363e-11
9.43915e-10
7.58773e-09
2.32143e-07
3.26977e-06
5.45968e-05
0.000145903
7.11399e-05
5.56815e-06
1.52425e-07
5.68179e-09
0
0
0
0
0
0
0
0
0
0
0
1.27329e-15
2.62844e-13
1.6887e-11
1.09625e-09
1.01086e-08
1.45398e-06
0.00929881
8.17838
45.0824
61.6023
47.8355
11.517
0.0375013
2.10786e-06
0
0
0
0
0
0
0
0
0
0
0
1.05501e-13
7.73416e-12
4.72819e-10
7.98389e-09
2.2965e-06
0.463075
163.621
340.492
402.651
416.024
400.881
344.734
197.226
4.40066
0
0
0
0
0
0
0
0
0
0
1.6189e-14
1.99134e-12
1.58969e-10
6.30711e-09
7.3498e-07
0.0471597
194.24
456.927
523.035
432.335
370.985
394.714
493.078
476.568
266.848
0
0
0
0
0
0
0
0
0
0
2.15732e-13
1.41842e-11
7.6386e-10
2.35045e-08
2.51293e-05
35.8974
383.462
532.105
454.353
380.698
327.962
346.939
419.204
515.111
438.84
0
0
0
0
0
0
0
0
0
6.36646e-15
9.14133e-13
5.39576e-11
2.78208e-09
1.19418e-07
0.00128496
112.526
438.412
431.119
395.196
496.886
694.88
573.14
401.836
391.091
470.529
0
0
0
0
0
0
0
0
0
1.39153e-14
1.28866e-12
7.38448e-11
3.72635e-09
1.71812e-07
0.00373954
135.573
445.606
362.039
333.828
673.665
3468.59
1176.14
381.432
319.089
507.938
0
0
0
0
0
0
0
0
0
4.63842e-15
6.74754e-13
3.92812e-11
1.84393e-09
9.56525e-08
0.00170974
115.094
434.895
372.659
337.954
608.3
1797.44
990.991
639.282
910.671
972.194
0
0
0
0
0
0
0
0
0
0
1.40972e-14
1.77461e-12
8.31575e-11
1.45257e-08
0.000131579
61.592
405.664
475.209
418.165
539.489
447.032
0
0
0
0
0
0
0
3.67254e-13
9.7332e-10
1.7814e-06
5.60905
316.421
530.699
490.644
355.977
101.284
0
0
0
0
0
0
0
449.719
300.363
59.786
0.00335571
2.01859e-07
4.98608e-05
0.00508326
0
0
0
0
0
0
0
0
0
0
0
0
144.219
76.318
0.116902
6.49423e-07
3.28906e-09
2.96536e-08
2.77087e-08
0
0
0
0
0
0
0
0
0
0
0
0
0
0
0
6.02722e-13
5.47645e-09
0.0001964
0.0067304
0.00105336
3.02284e-07
3.61559e-09
1.05706e-10
4.16277e-10
2.19248e-10
0
0
0
0
0
0
0
0
0
0
0
0
0
0
5.45697e-16
2.23645e-13
3.2966e-11
2.43067e-09
2.04719e-08
5.44895e-09
1.43741e-09
7.10608e-11
2.29911e-12
5.32318e-12
2.6801e-12
0
0
0
0
0
0
0
0
0
0
0
0
0
0
0
3.72893e-15
5.08135e-13
2.57915e-11
1.96629e-10
1.05015e-10
2.64131e-11
1.34196e-12
4.03816e-14
5.9481e-14
2.81034e-14
0
0
0
0
0
0
0
0
0
0
0
0
0
0
0
0
0
0
0
0
0
0
0
0
0
0
0
0
0
0
0
0
0
0
0
0
0
0
0
0
0
0
0
0
0
0
0
0
0
0
0
0
0
0
0
0
0
0
0
0
0
0
0
0
0
0
0
0
0
0
0
0
0
0
0
0
0
0
0
0
0
0
0
0
0
0
0
0
0
0
0
0
0
0
0
0
0
0
0
0
0
0
0
0
0
0
0
0
0
0
0
0
0
0
0
0
0
0
0
0
0
0
0
0
0
0
0
0
0
0
0
0
0
0
0
0
0
0
0
0
0
0
0
0
0
0
0
0
0
0
0
0
0
0
0
0
0
0
0
0
0
0
0
0
0
0
0
0
6.45741e-15
5.22959e-14
9.63155e-14
3.33785e-14
2.63753e-15
0
0
0
0
0
0
0
0
0
0
0
0
0
0
0
0
0
0
2.36469e-15
1.15688e-13
9.02219e-13
3.92611e-12
6.53064e-12
2.51302e-12
4.93037e-13
3.09228e-14
0
0
0
0
0
0
0
0
0
0
0
0
0
0
0
0
1.24601e-14
4.66389e-13
8.0393e-12
5.58745e-11
2.49136e-10
3.9904e-10
1.51761e-10
3.09277e-11
2.8499e-12
1.11777e-13
0
0
0
0
0
0
0
0
0
0
0
0
0
0
2.00089e-14
1.08075e-12
3.02482e-11
4.55953e-10
3.50235e-09
1.62405e-08
2.54265e-08
9.76628e-09
1.76494e-09
2.06655e-10
8.34198e-12
0
0
0
0
0
0
0
0
0
0
0
0
0
2.21917e-14
1.44501e-12
6.56235e-11
1.90266e-09
9.97589e-09
1.30874e-07
1.12725e-06
2.76303e-06
1.22818e-06
1.71487e-07
8.73523e-09
4.80834e-10
0
0
0
0
0
0
0
0
0
0
0
0
1.66438e-14
1.25892e-12
7.18421e-11
4.37116e-09
2.30017e-08
2.23029e-06
0.000849954
0.0846907
0.338111
0.162334
0.00475343
3.72817e-06
1.84939e-08
0
0
0
0
0
0
0
0
0
0
0
6.18456e-15
6.55018e-13
4.15014e-11
2.55579e-09
2.86374e-08
5.57875e-06
0.435475
92.8962
200.74
233.101
215.498
132.288
7.54291
5.93284e-05
0
0
0
0
0
0
0
0
0
0
0
1.87811e-13
1.26216e-11
7.12187e-10
1.32657e-08
2.65846e-06
0.895722
214.273
375.244
417.958
405.426
408.591
399.818
283.392
25.9929
0
0
0
0
0
0
0
0
0
0
1.82808e-14
1.63336e-12
1.11679e-10
7.90355e-09
2.88311e-07
0.00480872
129.556
388.065
460.621
410.84
375.536
385.976
427.905
438.874
243.537
0
0
0
0
0
0
0
0
0
0
9.98625e-14
7.93197e-12
5.60689e-10
2.23933e-08
2.45281e-06
0.853197
246.859
429.46
420.02
397.352
356.284
375.999
406.7
416.137
340.7
0
0
0
0
0
0
0
0
0
0
1.61162e-13
1.17992e-11
8.09015e-10
3.27835e-08
5.02187e-06
3.26552
273.397
409.585
377.53
351.051
303.355
319.082
364.671
381.688
388.057
0
0
0
0
0
0
0
0
0
0
6.09361e-14
4.73347e-12
3.30742e-10
1.49999e-08
2.8786e-06
1.16691
249.671
405.255
375.566
362.469
372.218
417.17
550.153
846.836
635.23
0
0
0
0
0
0
0
0
0
0
0
1.82354e-13
1.22151e-11
4.70303e-10
2.96592e-07
0.0226224
162.771
403.25
440.339
478.604
307.294
0
0
0
0
0
0
0
7.27596e-15
5.07853e-12
1.08438e-08
1.4803e-05
20.6789
307.87
436.313
354.573
7.38241
0
0
0
0
0
0
0
0
0
4.74029e-13
6.83276e-10
0.00043793
46.0137
234.715
193.304
11.335
5.45779e-05
1.72545e-08
2.84242e-06
3.54806e-06
0
0
0
0
0
0
0
0
0
0
0
0
0
0
0
2.72848e-16
1.15067e-10
0.000101247
0.457353
0.288497
0.000120064
1.29496e-08
2.61567e-10
1.38633e-09
7.40055e-10
0
0
0
0
0
0
0
0
0
0
0
0
0
0
0
9.09495e-17
2.34149e-12
4.14496e-09
3.05861e-07
2.22855e-07
7.03996e-09
2.73833e-10
7.3981e-12
1.70885e-11
1.38755e-11
0
0
0
0
0
0
0
0
0
0
0
0
0
0
0
3.54703e-15
6.81575e-13
6.1559e-11
1.39917e-09
8.65163e-10
1.56183e-10
6.30107e-12
1.73168e-13
1.99816e-13
2.19097e-13
0
0
0
0
0
0
0
0
0
0
0
0
0
0
0
0
1.21872e-14
1.04947e-12
2.04057e-11
1.57502e-11
3.14394e-12
1.25146e-13
9.09495e-17
9.09495e-17
0
0
0
0
0
0
0
0
0
0
0
0
0
0
0
0
0
0
0
0
0
0
0
0
0
0
0
0
0
0
0
0
0
0
0
0
0
0
0
0
0
0
0
0
0
0
0
0
0
0
0
0
0
0
0
0
0
0
0
0
0
0
0
0
0
0
0
0
0
0
0
0
0
0
0
0
0
0
0
0
0
0
0
0
0
0
0
0
0
0
0
0
0
0
0
0
0
0
0
0
0
0
0
0
0
0
0
0
0
0
0
0
0
0
0
0
0
0
0
0
0
0
0
0
0
0
0
0
0
0
0
0
0
0
0
0
0
0
0
0
0
0
0
0
0
0
0
0
0
0
0
0
0
0
0
0
0
0
0
0
0
0
0
0
0
0
0
0
0
0
9.09495e-17
1.90994e-15
0
0
0
0
0
0
0
0
0
0
0
0
0
0
0
0
0
0
0
0
0
2.63753e-15
4.40195e-14
2.32649e-13
4.23279e-13
1.55796e-13
2.21007e-14
0
0
0
0
0
0
0
0
0
0
0
0
0
0
0
0
0
0
1.57343e-14
4.15821e-13
3.48127e-12
1.60001e-11
2.85157e-11
1.1236e-11
1.82117e-12
1.5134e-13
2.27374e-15
0
0
0
0
0
0
0
0
0
0
0
0
0
0
0
3.87445e-14
1.50822e-12
2.74357e-11
2.54337e-10
1.0016e-09
1.78712e-09
7.48538e-10
1.18023e-10
1.08569e-11
4.10819e-13
0
0
0
0
0
0
0
0
0
0
0
0
0
0
5.41149e-14
2.73458e-12
9.8632e-11
1.57477e-09
1.09516e-08
3.25535e-08
6.17025e-08
2.94557e-08
8.05409e-09
6.69006e-10
2.63692e-11
0
0
0
0
0
0
0
0
0
0
0
0
0
4.55657e-14
2.87482e-12
1.54079e-10
6.66689e-09
2.85549e-08
8.85844e-07
6.38954e-06
2.4808e-05
1.2788e-05
1.62359e-06
3.00467e-08
1.38827e-09
0
0
0
0
0
0
0
0
0
0
0
0
2.37378e-14
1.8149e-12
1.14792e-10
7.54499e-09
5.82458e-08
7.6681e-06
0.0334013
5.49301
18.1794
11.8856
0.404779
0.000112482
9.16292e-08
0
0
0
0
0
0
0
0
0
0
0
4.72937e-15
5.77984e-13
3.57498e-11
2.05574e-09
3.0193e-08
7.42916e-06
1.94036
136.089
252.342
289.652
276.28
198.252
32.9777
0.000503885
0
0
0
0
0
0
0
0
0
0
0
8.14907e-14
6.57428e-12
4.54019e-10
1.49038e-08
2.27197e-06
0.120335
152.567
328.568
389.527
396.599
396.213
371.529
251.937
14.3696
0
0
0
0
0
0
0
0
0
0
2.63753e-15
4.56657e-13
3.17645e-11
1.87848e-09
5.56819e-08
2.67936e-05
17.1583
268.441
388.443
370.402
332.974
346.319
393.059
345.535
111.522
0
0
0
0
0
0
0
0
0
0
4.45652e-15
7.08769e-13
4.80441e-11
2.83936e-09
1.02968e-07
0.000138313
37.9878
298.071
388.708
324.758
275.716
292.302
366.348
385.038
160.315
0
0
0
0
0
0
0
0
0
0
2.72848e-16
2.63117e-13
1.79538e-11
1.07331e-09
3.6858e-08
4.23259e-05
22.6861
278.717
400.58
427.985
512.387
626.106
761.038
679.582
341.214
0
0
0
0
0
0
0
0
0
0
0
4.6839e-14
3.8749e-12
3.05056e-10
1.11247e-08
2.58234e-06
0.788368
204.694
400.351
406.435
117.811
122.082
120.74
112.256
141.321
0
0
0
0
0
0
0
5.42059e-14
3.93184e-12
3.7487e-10
3.0634e-08
0.000233288
41.4788
261.682
273.883
25.1176
2.27206
0.706715
0.0490298
0.00660385
0
0
0
0
0
0
0
0
9.09495e-17
2.15186e-13
7.34629e-11
1.23484e-07
0.00105405
11.1619
21.2294
0.0168243
1.92739e-05
3.116e-06
3.9579e-07
1.30967e-08
0
0
0
0
0
0
0
0
0
0
0
0
0
0
0
6.33008e-14
8.1828e-11
5.37736e-08
8.68919e-06
3.31812e-05
1.12325e-07
6.73336e-09
9.98853e-10
7.28476e-11
7.3363e-11
0
0
0
0
0
0
0
0
0
0
0
0
0
0
0
1.22782e-14
1.54687e-12
1.37846e-10
3.49331e-09
2.75322e-09
7.73974e-10
9.54411e-11
1.20886e-11
7.84621e-13
7.60519e-13
0
0
0
0
0
0
0
0
0
0
0
0
0
0
0
0
4.19277e-14
3.05999e-12
6.25908e-11
5.53129e-11
1.15524e-11
1.30085e-12
1.28239e-13
5.09317e-15
4.18368e-15
0
0
0
0
0
0
0
0
0
0
0
0
0
0
0
0
0
4.72028e-14
9.24683e-13
9.41782e-13
1.74259e-13
1.24601e-14
0
0
0
0
0
0
0
0
0
0
0
0
0
0
0
0
0
0
0
0
0
0
0
0
0
0
0
0
0
0
0
0
0
0
0
0
0
0
0
0
0
0
0
0
0
0
0
0
0
0
0
0
0
0
0
0
0
0
0
0
0
0
0
0
0
0
0
0
0
0
0
0
0
0
0
0
0
0
0
0
0
0
0
0
0
0
0
0
0
0
0
0
0
0
0
0
0
0
0
0
0
0
0
0
0
0
0
0
0
0
0
0
0
0
0
0
0
0
0
0
0
0
0
0
0
0
0
0
0
0
0
0
0
0
0
0
0
0
0
0
0
0
0
0
0
0
0
0
0
0
0
0
0
0
0
0
0
0
0
0
0
0
0
0
0
0
0
0
0
0
0
0
0
0
0
0
0
0
0
0
0
0
0
0
0
0
0
0
0
0
0
0
0
0
0
0
0
2.36469e-15
5.54792e-15
1.27329e-15
0
0
0
0
0
0
0
0
0
0
0
0
0
0
0
0
0
0
0
0
5.45697e-15
8.74024e-14
4.48563e-13
7.88077e-13
3.11138e-13
4.6748e-14
5.45697e-16
0
0
0
0
0
0
0
0
0
0
0
0
0
0
0
0
0
3.30147e-14
6.8685e-13
6.05178e-12
2.72448e-11
4.66542e-11
1.93847e-11
3.07318e-12
2.45382e-13
6.73026e-15
0
0
0
0
0
0
0
0
0
0
0
0
0
0
0
5.55701e-14
2.02263e-12
3.70914e-11
3.75156e-10
1.41931e-09
2.4029e-09
1.08787e-09
1.83253e-10
1.48883e-11
5.72982e-13
0
0
0
0
0
0
0
0
0
0
0
0
0
0
6.17547e-14
2.92221e-12
1.03237e-10
1.81593e-09
1.0622e-08
3.52546e-08
6.13017e-08
3.22294e-08
7.58162e-09
7.25298e-10
2.88728e-11
0
0
0
0
0
0
0
0
0
0
0
0
0
4.01087e-14
2.29957e-12
1.13664e-10
4.18404e-09
2.09244e-08
8.74023e-07
8.14237e-06
2.35301e-05
1.21558e-05
1.2175e-06
2.50352e-08
1.03226e-09
0
0
0
0
0
0
0
0
0
0
0
0
9.73159e-15
8.81482e-13
4.77552e-11
2.38368e-09
2.47421e-08
2.19144e-06
0.00376021
0.408233
2.05874
1.13384
0.0448373
2.60093e-05
3.27531e-08
0
0
0
0
0
0
0
0
0
0
0
0
1.53705e-13
1.00486e-11
5.4461e-10
1.09453e-08
1.41148e-06
0.00695569
11.7147
67.1555
97.1242
84.5988
36.8244
0.330424
7.47312e-06
0
0
0
0
0
0
0
0
0
0
0
7.63976e-15
8.44284e-13
4.93544e-11
2.32181e-09
5.61434e-08
2.01555e-05
0.958299
70.5627
148.17
183.749
169.1
111.664
17.2276
0.00191753
0
0
0
0
0
0
0
0
0
0
0
1.50067e-14
1.31604e-12
7.51155e-11
3.51376e-09
1.04654e-07
9.045e-05
3.78692
95.189
181.404
224.856
215.622
148.723
34.2272
0.00855201
0
0
0
0
0
0
0
0
0
0
0
3.54703e-15
4.64297e-13
2.68966e-11
1.23024e-09
3.53627e-08
2.95896e-05
1.63729
92.8787
254.305
345.709
367.239
306.84
162.32
2.426
0
0
0
0
0
0
0
0
0
0
0
0
1.12414e-13
7.06932e-12
2.71708e-10
1.11002e-08
1.43319e-06
0.0626731
61.4663
193.919
219.312
225.72
170.581
41.7767
0.017778
0
0
0
0
0
0
0
0
0
0
0
0
2.72848e-16
1.88084e-13
1.00178e-11
5.82642e-10
3.74046e-08
4.45966e-05
0.683833
10.204
0.867026
0.73367
0.0514623
0.000180291
6.74752e-08
0
0
0
0
0
0
0
0
0
0
0
0
0
5.45697e-16
2.05273e-13
1.23585e-11
8.17925e-10
4.60623e-08
7.03162e-06
7.52059e-05
1.16721e-06
6.16362e-07
8.77155e-08
1.61214e-09
2.36181e-10
0
0
0
0
0
0
0
0
0
0
0
0
0
0
1.27329e-15
1.95359e-13
1.12852e-11
4.05741e-10
4.55887e-09
6.07641e-09
3.17699e-09
1.33914e-09
3.24382e-10
1.71336e-11
2.53958e-12
0
0
0
0
0
0
0
0
0
0
0
0
0
0
0
1.27329e-15
1.71622e-13
7.18774e-12
9.1373e-11
1.24832e-10
6.05199e-11
2.27708e-11
4.0849e-12
1.73441e-13
2.37378e-14
0
0
0
0
0
0
0
0
0
0
0
0
0
0
0
0
2.72848e-16
1.07138e-13
1.65364e-12
2.28883e-12
9.36416e-13
3.05317e-13
3.87445e-14
9.09495e-17
0
0
0
0
0
0
0
0
0
0
0
0
0
0
0
0
0
0
0
1.85537e-14
3.16504e-14
7.54881e-15
7.27596e-16
0
0
0
0
0
0
0
0
0
0
0
0
0
0
0
0
0
0
0
0
0
0
0
0
0
0
0
0
0
0
0
0
0
0
0
0
0
0
0
0
0
0
0
0
0
0
0
0
0
0
0
0
0
0
0
0
0
0
0
0
0
0
0
0
0
0
0
0
0
0
0
0
0
0
0
0
0
0
0
0
0
0
0
0
0
0
0
0
0
0
0
0
0
0
0
0
0
0
0
0
0
0
0
0
0
0
0
0
0
0
0
0
0
0
0
0
0
0
0
0
0
0
0
0
0
0
0
0
0
0
0
0
0
0
0
0
0
0
0
0
0
0
0
0
0
0
0
0
0
0
0
0
0
0
0
0
0
0
0
0
0
0
0
0
0
0
0
0
0
0
0
0
0
0
0
0
0
0
0
0
0
0
0
0
0
0
0
0
0
0
0
0
0
0
0
0
0
0
0
0
0
0
0
0
0
0
0
0
0
0
0
0
0
0
0
0
0
0
0
0
0
0
4.72937e-15
9.004e-15
2.63753e-15
0
0
0
0
0
0
0
0
0
0
0
0
0
0
0
0
0
0
0
0
7.63976e-15
1.05138e-13
5.15138e-13
8.66385e-13
3.48336e-13
5.52973e-14
1.00044e-15
0
0
0
0
0
0
0
0
0
0
0
0
0
0
0
0
0
3.19233e-14
6.5329e-13
5.90962e-12
2.59926e-11
4.28753e-11
1.82878e-11
2.95677e-12
2.39288e-13
6.63931e-15
0
0
0
0
0
0
0
0
0
0
0
0
0
0
0
4.40195e-14
1.59389e-12
2.82277e-11
2.69453e-10
1.01819e-09
1.64707e-09
7.72409e-10
1.342e-10
1.14224e-11
4.59568e-13
0
0
0
0
0
0
0
0
0
0
0
0
0
0
3.31966e-14
1.70421e-12
5.41201e-11
7.81326e-10
6.76512e-09
2.05594e-08
3.18498e-08
1.6435e-08
3.41651e-09
3.61161e-10
1.60249e-11
0
0
0
0
0
0
0
0
0
0
0
0
0
1.21872e-14
8.13816e-13
3.50385e-11
9.65325e-10
1.04276e-08
1.34542e-07
8.62314e-07
2.36823e-06
1.21357e-06
1.40487e-07
7.43974e-09
2.93027e-10
0
0
0
0
0
0
0
0
0
0
0
0
3.63798e-16
1.68711e-13
8.88622e-12
3.49696e-10
8.45065e-09
1.55392e-07
6.60042e-06
0.0001969
0.000723745
0.000399382
3.11254e-05
2.40548e-07
2.25817e-09
0
0
0
0
0
0
0
0
0
0
0
0
1.20963e-14
9.39417e-13
4.44548e-11
1.55438e-09
3.20357e-08
1.56363e-06
0.000266812
0.00617948
0.0181271
0.010534
0.00125555
5.79645e-06
1.15754e-08
0
0
0
0
0
0
0
0
0
0
0
0
1.85537e-14
1.45692e-12
6.75384e-11
2.25729e-09
4.1847e-08
3.47454e-06
0.000860799
0.0166775
0.0560221
0.0347991
0.0036841
2.03369e-05
2.91645e-08
0
0
0
0
0
0
0
0
0
0
0
0
4.45652e-15
5.07316e-13
2.33883e-11
8.31565e-10
1.91323e-08
1.54662e-06
0.000527304
0.0658895
1.28288
1.57676
0.192482
0.00156869
1.96254e-07
0
0
0
0
0
0
0
0
0
0
0
0
0
9.73159e-14
3.94957e-12
1.76281e-10
3.87213e-09
1.94788e-07
8.97779e-05
0.0163456
0.188334
0.193733
0.011327
2.98403e-05
1.51543e-08
0
0
0
0
0
0
0
0
0
0
0
0
0
5.45697e-16
1.88902e-13
9.81836e-12
4.35089e-10
8.35018e-09
3.02927e-07
2.40384e-06
2.76426e-06
1.63547e-06
1.73374e-07
2.10599e-09
1.89309e-10
0
0
0
0
0
0
0
0
0
0
0
0
0
0
3.09228e-15
3.17414e-13
1.26563e-11
3.69617e-10
2.41358e-09
4.90122e-09
5.26606e-09
2.37296e-09
5.89569e-10
3.0347e-11
2.90156e-12
0
0
0
0
0
0
0
0
0
0
0
0
0
0
0
5.09317e-15
3.00315e-13
7.7498e-12
7.74583e-11
1.3876e-10
1.14462e-10
4.88501e-11
8.88895e-12
4.03361e-13
3.19233e-14
0
0
0
0
0
0
0
0
0
0
0
0
0
0
0
0
1.54614e-15
1.33423e-13
1.76187e-12
3.04908e-12
1.99134e-12
7.76527e-13
1.05774e-13
2.81943e-15
0
0
0
0
0
0
0
0
0
0
0
0
0
0
0
0
0
0
9.09495e-17
2.83762e-14
5.26597e-14
2.58296e-14
7.63976e-15
0
0
0
0
0
0
0
0
0
0
0
0
0
0
0
0
0
0
0
0
0
0
0
0
0
0
0
0
0
0
0
0
0
0
0
0
0
0
0
0
0
0
0
0
0
0
0
0
0
0
0
0
0
0
0
0
0
0
0
0
0
0
0
0
0
0
0
0
0
0
0
0
0
0
0
0
0
0
0
0
0
0
0
0
0
0
0
0
0
0
0
0
0
0
0
0
0
0
0
0
0
0
0
0
0
0
0
0
0
0
0
0
0
0
0
0
0
0
0
0
0
0
0
0
0
0
0
0
0
0
0
0
0
0
0
0
0
0
0
0
0
0
0
0
0
0
0
0
0
0
0
0
0
0
0
0
0
0
0
0
0
0
0
0
0
0
0
0
0
0
0
0
0
0
0
0
0
0
0
0
0
0
0
0
0
0
0
0
0
0
0
0
0
0
0
0
0
0
0
0
0
0
0
0
0
0
0
0
0
0
0
0
0
0
0
0
0
0
0
0
0
0
0
0
0
0
0
0
0
0
0
0
0
0
0
0
0
0
0
0
0
0
0
0
0
0
0
0
0
0
0
0
0
0
0
0
0
0
0
0
0
0
0
0
0
0
0
0
0
0
0
0
3.09228e-15
7.18501e-15
1.63709e-15
0
0
0
0
0
0
0
0
0
0
0
0
0
0
0
0
0
0
0
0
6.18456e-15
8.34007e-14
4.00996e-13
6.51016e-13
2.6439e-13
3.93811e-14
7.27596e-16
0
0
0
0
0
0
0
0
0
0
0
0
0
0
0
0
0
1.90994e-14
4.04361e-13
3.62279e-12
1.52948e-11
2.40895e-11
1.049e-11
1.78825e-12
1.5134e-13
2.27374e-15
0
0
0
0
0
0
0
0
0
0
0
0
0
0
0
1.92813e-14
7.41784e-13
1.21328e-11
1.01784e-10
3.99535e-10
6.04688e-10
2.75791e-10
4.51103e-11
4.90345e-12
2.02726e-13
0
0
0
0
0
0
0
0
0
0
0
0
0
0
7.82165e-15
4.92037e-13
1.43928e-11
2.61343e-10
1.25099e-09
3.54705e-09
5.33679e-09
2.48539e-09
5.94656e-10
1.02366e-10
4.18568e-12
0
0
0
0
0
0
0
0
0
0
0
0
0
9.09495e-17
1.18689e-13
4.85088e-12
1.37751e-10
1.26189e-09
9.62143e-09
3.67728e-08
5.41877e-08
2.19765e-08
4.60719e-09
6.30993e-10
3.53459e-11
0
0
0
0
0
0
0
0
0
0
0
0
0
9.82254e-15
6.8394e-13
2.45946e-11
6.37421e-10
4.60552e-09
3.90968e-08
1.72317e-07
3.07431e-07
1.2629e-07
1.95378e-08
1.68707e-09
1.39594e-10
0
0
0
0
0
0
0
0
0
0
0
0
0
1.84627e-14
1.07448e-12
3.71987e-11
8.4407e-10
6.71446e-09
5.73778e-08
3.15119e-07
4.86022e-07
2.46105e-07
3.37032e-08
2.17999e-09
1.83379e-10
0
0
0
0
0
0
0
0
0
0
0
0
0
3.27418e-15
3.59614e-13
1.30059e-11
3.45566e-10
2.89387e-09
3.39492e-08
2.98949e-07
9.9217e-07
6.26694e-07
1.34167e-07
3.61698e-09
2.39354e-10
0
0
0
0
0
0
0
0
0
0
0
0
0
0
5.24778e-14
2.10912e-12
4.87347e-11
7.27534e-10
8.24474e-09
7.95231e-08
1.87429e-07
1.17326e-07
1.84419e-08
4.94958e-10
5.98081e-11
0
0
0
0
0
0
0
0
0
0
0
0
0
0
2.72848e-16
1.33241e-13
5.55883e-12
1.19621e-10
7.82638e-10
1.92971e-09
3.46393e-09
1.52658e-09
3.98105e-10
2.21477e-11
1.88702e-12
0
0
0
0
0
0
0
0
0
0
0
0
0
0
0
1.63709e-15
1.65346e-13
4.8859e-12
3.8956e-11
8.97621e-11
1.05209e-10
4.64038e-11
8.48595e-12
4.30009e-13
2.874e-14
0
0
0
0
0
0
0
0
0
0
0
0
0
0
0
0
1.90994e-15
1.06502e-13
1.24001e-12
2.55031e-12
2.27874e-12
9.57607e-13
1.33423e-13
3.63798e-15
0
0
0
0
0
0
0
0
0
0
0
0
0
0
0
0
0
0
9.09495e-17
2.40107e-14
5.26597e-14
3.34694e-14
9.54969e-15
9.09495e-17
0
0
0
0
0
0
0
0
0
0
0
0
0
0
0
0
0
0
0
0
0
0
0
0
0
0
0
0
0
0
0
0
0
0
0
0
0
0
0
0
0
0
0
0
0
0
0
0
0
0
0
0
0
0
0
0
0
0
0
0
0
0
0
0
0
0
0
0
0
0
0
0
0
0
0
0
0
0
0
0
0
0
0
0
0
0
0
0
0
0
0
0
0
0
0
0
0
0
0
0
0
0
0
0
0
0
0
0
0
0
0
0
0
0
0
0
0
0
0
0
0
0
0
0
0
0
0
0
0
0
0
0
0
0
0
0
0
0
0
0
0
0
0
0
0
0
0
0
0
0
0
0
0
0
0
0
0
0
0
0
0
0
0
0
0
0
0
0
0
0
0
0
0
0
0
0
0
0
0
0
0
0
0
0
0
0
0
0
0
0
0
0
0
0
0
0
0
0
0
0
0
0
0
0
0
0
0
0
0
0
0
0
0
0
0
0
0
0
0
0
0
0
0
0
0
0
0
0
0
0
0
0
0
0
0
0
0
0
0
0
0
0
0
0
0
0
0
0
0
0
0
0
0
0
0
0
0
0
0
0
0
0
0
0
0
0
0
0
0
0
0
0
0
0
0
0
0
0
0
0
0
0
0
0
0
0
0
0
0
0
0
0
0
0
0
0
0
0
0
0
0
0
0
0
0
0
0
0
0
0
0
0
0
0
0
0
0
0
0
0
0
1.90994e-15
4.63842e-15
2.72848e-16
0
0
0
0
0
0
0
0
0
0
0
0
0
0
0
0
0
0
0
0
1.90994e-15
4.36557e-14
2.04182e-13
3.15868e-13
1.28784e-13
1.73713e-14
0
0
0
0
0
0
0
0
0
0
0
0
0
0
0
0
0
0
6.09361e-15
1.59434e-13
1.30021e-12
5.14856e-12
7.59524e-12
3.285e-12
6.18365e-13
5.34783e-14
9.09495e-17
0
0
0
0
0
0
0
0
0
0
0
0
0
0
0
2.63753e-15
1.81899e-13
3.30074e-12
2.07197e-11
5.89006e-11
8.95981e-11
4.08803e-11
9.98346e-12
1.06911e-12
4.72937e-14
0
0
0
0
0
0
0
0
0
0
0
0
0
0
0
5.99357e-14
1.58716e-12
2.06976e-11
1.30369e-10
5.03096e-10
7.73638e-10
3.0204e-10
6.39057e-11
9.77503e-12
4.99313e-13
0
0
0
0
0
0
0
0
0
0
0
0
0
0
4.45652e-15
3.31602e-13
7.9227e-12
7.17545e-11
5.32623e-10
2.3563e-09
3.71568e-09
1.44157e-09
2.67925e-10
2.88807e-11
1.92013e-12
0
0
0
0
0
0
0
0
0
0
0
0
0
0
9.73159e-15
5.2205e-13
1.19526e-11
1.14424e-10
9.08751e-10
3.6278e-09
4.46718e-09
1.91294e-09
3.51989e-10
3.44558e-11
2.44754e-12
0
0
0
0
0
0
0
0
0
0
0
0
0
0
1.00044e-15
1.74623e-13
4.30773e-12
4.59281e-11
4.84671e-10
1.90246e-09
3.84819e-09
1.55014e-09
4.77732e-10
3.83613e-11
2.96795e-12
0
0
0
0
0
0
0
0
0
0
0
0
0
0
0
2.21007e-14
6.66842e-13
1.17183e-11
9.87658e-11
5.86917e-10
8.97758e-10
3.96432e-10
9.64846e-11
6.90234e-12
5.89534e-13
0
0
0
0
0
0
0
0
0
0
0
0
0
0
0
0
5.62977e-14
1.29221e-12
1.19482e-11
3.23257e-11
5.52153e-11
2.43797e-11
4.55984e-12
2.6721e-13
1.52795e-14
0
0
0
0
0
0
0
0
0
0
0
0
0
0
0
0
9.09495e-17
5.33873e-14
5.56156e-13
1.38652e-12
1.63363e-12
6.96764e-13
9.87711e-14
2.27374e-15
0
0
0
0
0
0
0
0
0
0
0
0
0
0
0
0
0
0
0
1.18234e-14
3.26509e-14
3.15595e-14
9.27685e-15
0
0
0
0
0
0
0
0
0
0
0
0
0
0
0
0
0
0
0
0
0
0
0
0
0
0
0
0
0
0
0
0
0
0
0
0
0
0
0
0
0
0
0
0
0
0
0
0
0
0
0
0
0
0
0
0
0
0
0
0
0
0
0
0
0
0
0
0
0
0
0
0
0
0
0
0
0
0
0
0
0
0
0
0
0
0
0
0
0
0
0
0
0
0
0
0
0
0
0
0
0
0
0
0
0
0
0
0
0
0
0
0
0
0
0
0
0
0
0
0
0
0
0
0
0
0
0
0
0
0
0
0
0
0
0
0
0
0
0
0
0
0
0
0
0
0
0
0
0
0
0
0
0
0
0
0
0
0
0
0
0
0
0
0
0
0
0
0
0
0
0
0
0
0
0
0
0
0
0
0
0
0
0
0
0
0
0
0
0
0
0
0
0
0
0
0
0
0
0
0
0
0
0
0
0
0
0
0
0
0
0
0
0
0
0
0
0
0
0
0
0
0
0
0
0
0
0
0
0
0
0
0
0
0
0
0
0
0
0
0
0
0
0
0
0
0
0
0
0
0
0
0
0
0
0
0
0
0
0
0
0
0
0
0
0
0
0
0
0
0
0
0
0
0
0
0
0
0
0
0
0
0
0
0
0
0
0
0
0
0
0
0
0
0
0
0
0
0
0
0
0
0
0
0
0
0
0
0
0
0
0
0
0
0
0
0
0
0
0
0
0
0
0
0
0
0
0
0
0
0
0
0
0
0
0
0
0
0
0
0
0
0
0
0
0
0
0
0
0
0
0
0
0
0
0
0
0
0
0
0
0
0
0
0
0
0
0
0
0
0
0
0
0
2.72848e-16
0
0
0
0
0
0
0
0
0
0
0
0
0
0
0
0
0
0
0
0
0
0
1.15506e-14
6.23004e-14
8.9949e-14
3.51974e-14
3.54703e-15
0
0
0
0
0
0
0
0
0
0
0
0
0
0
0
0
0
0
0
3.17414e-14
2.89037e-13
9.25775e-13
1.43264e-12
6.32281e-13
1.35424e-13
6.36646e-15
0
0
0
0
0
0
0
0
0
0
0
0
0
0
0
0
0
1.437e-14
2.92857e-13
1.85137e-12
7.04641e-12
1.14667e-11
4.48994e-12
9.4924e-13
1.21508e-13
1.63709e-15
0
0
0
0
0
0
0
0
0
0
0
0
0
0
0
7.27596e-16
9.02219e-14
1.11131e-12
7.46402e-12
3.12113e-11
4.97255e-11
1.88406e-11
3.8215e-12
4.30646e-13
2.00998e-14
0
0
0
0
0
0
0
0
0
0
0
0
0
0
0
2.63753e-15
1.52704e-13
1.89157e-12
1.35279e-11
5.65349e-11
6.97749e-11
2.73801e-11
4.36765e-12
4.95584e-13
2.47383e-14
0
0
0
0
0
0
0
0
0
0
0
0
0
0
0
0
4.82032e-14
7.18592e-13
6.02296e-12
2.99842e-11
5.97209e-11
2.39057e-11
5.67816e-12
4.22096e-13
2.72848e-14
0
0
0
0
0
0
0
0
0
0
0
0
0
0
0
0
2.91038e-15
1.57161e-13
1.26965e-12
6.73284e-12
1.24955e-11
5.4796e-12
1.00363e-12
8.34007e-14
2.72848e-15
0
0
0
0
0
0
0
0
0
0
0
0
0
0
0
0
0
7.27596e-15
1.46156e-13
4.38376e-13
7.15499e-13
3.07136e-13
4.16549e-14
2.72848e-16
0
0
0
0
0
0
0
0
0
0
0
0
0
0
0
0
0
0
0
2.63753e-15
1.40972e-14
1.48248e-14
4.45652e-15
0
0
0
0
0
0
0
0
0
0
0
0
0
0
0
0
0
0
0
0
0
0
0
0
0
0
0
0
0
0
0
0
0
0
0
0
0
0
0
0
0
0
0
0
0
0
0
0
0
0
0
0
0
0
0
0
0
0
0
0
0
0
0
0
0
0
0
0
0
0
0
0
0
0
0
0
0
0
0
0
0
0
0
0
0
0
0
0
0
0
0
0
0
0
0
0
0
0
0
0
0
0
0
0
0
0
0
0
0
0
0
0
0
0
0
0
0
0
0
0
0
0
0
0
0
0
0
0
0
0
0
0
0
0
0
0
0
0
0
0
0
0
0
0
0
0
0
0
0
0
0
0
0
0
0
0
0
0
0
0
0
0
0
0
0
0
0
0
0
0
0
0
0
0
0
0
0
0
0
0
0
0
0
0
0
0
0
0
0
0
0
0
0
0
0
0
0
0
0
0
0
0
0
0
0
0
0
0
0
0
0
0
0
0
0
0
0
0
0
0
0
0
0
0
0
0
0
0
0
0
0
0
0
0
0
0
0
0
0
0
0
0
0
0
0
0
0
0
0
0
0
0
0
0
0
0
0
0
0
0
0
0
0
0
0
0
0
0
0
0
0
0
0
0
0
0
0
0
0
0
0
0
0
0
0
0
0
0
0
0
0
0
0
0
0
0
0
0
0
0
0
0
0
0
0
0
0
0
0
0
0
0
0
0
0
0
0
0
0
0
0
0
0
0
0
0
0
0
0
0
0
0
0
0
0
0
0
0
0
0
0
0
0
0
0
0
0
0
0
0
0
0
0
0
0
0
0
0
0
0
0
0
0
0
0
0
0
0
0
0
0
0
0
0
0
0
0
0
0
0
0
0
0
0
0
0
0
0
0
0
0
0
0
0
0
0
0
0
0
0
0
0
0
0
0
0
0
0
0
0
0
0
0
0
0
0
0
0
0
0
0
0
0
0
0
0
0
0
0
0
0
0
0
0
0
0
0
0
0
0
0
0
0
0
0
0
0
5.72982e-15
1.22782e-14
2.63753e-15
0
0
0
0
0
0
0
0
0
0
0
0
0
0
0
0
0
0
0
0
0
1.52795e-14
8.6402e-14
1.58161e-13
5.60249e-14
5.72982e-15
0
0
0
0
0
0
0
0
0
0
0
0
0
0
0
0
0
0
0
7.63976e-15
9.54969e-14
4.13729e-13
6.763e-13
2.44563e-13
4.30191e-14
3.63798e-16
0
0
0
0
0
0
0
0
0
0
0
0
0
0
0
0
0
0
1.83718e-14
1.95178e-13
8.11178e-13
9.79253e-13
3.51429e-13
4.30191e-14
1.27329e-15
0
0
0
0
0
0
0
0
0
0
0
0
0
0
0
0
0
0
3.54703e-15
7.17591e-14
3.9563e-13
7.62066e-13
2.87491e-13
4.76575e-14
5.45697e-16
0
0
0
0
0
0
0
0
0
0
0
0
0
0
0
0
0
0
0
9.45874e-15
6.78483e-14
1.37697e-13
5.28416e-14
4.18368e-15
0
0
0
0
0
0
0
0
0
0
0
0
0
0
0
0
0
0
0
0
0
1.27329e-15
3.27418e-15
3.63798e-16
0
0
0
0
0
0
0
0
0
0
0
0
0
0
0
0
0
0
0
0
0
0
0
0
0
0
0
0
0
0
0
0
0
0
0
0
0
0
0
0
0
0
0
0
0
0
0
0
0
0
0
0
0
0
0
0
0
0
0
0
0
0
0
0
0
0
0
0
0
0
0
0
0
0
0
0
0
0
0
0
0
0
0
0
0
0
0
0
0
0
0
0
0
0
0
0
0
0
0
0
0
0
0
0
0
0
0
0
0
0
0
0
0
0
0
0
0
0
0
0
0
0
0
0
0
0
0
0
6946.87
2469.95
1665.28
4511.34
1354.26
830.768
3503.23
790.749
936.992
0
0
0
0
0
0
0
0
0
0
0
0
0
0
0
0
0
1255.83
603.672
409.578
466.122
172.313
409.571
161.722
0
0
0
0
0
0
0
0
0
0
0
0
0
0
2.39652e-13
0
0
7.27596e-16
6.44832e-14
0
0
1.11537e-09
4.09273e-15
2.41371e-12
3.72247e-12
2.43533e-10
9.09495e-17
3.81624e-13
2.52587e-05
3.24844e-11
2.19543e-07
1.47964e-08
8.08397e-07
4.0639e-12
2.25968e-09
55.268
1.79146e-05
7.62203
1.89608e-05
2.95116
7.98287e-08
0.0347528
505.968
80.3019
845.695
37.9813
316.589
2.6361
380.721
810.535
1160
1768.42
391.968
556.573
604.951
1036.67
124.261
6.00128
86.2559
0.685697
0.512258
9.06593e-05
0.0363002
5.25592e-06
4.68024e-06
0.000715673
3.44036e-07
0.000137917
0
0
0
0
0
0
0
0
0
0
0
0
0
0
0
0
0
0
0
0
0
0
0
0
0
0
0
0
0
0
0
0
0
0
0
0
0
0
0
0
0
0
0
0
685.148
521.929
517.32
339.675
0
0
0
0
0
0
0
0
0
0
0
0
0
0
0
0
0
0
0
0
0
0
0
0
0
0
0
0
0
0
0
0
0
0
0
0
0
0
0
0
0
0
0
0
0
0
0
0
0
0
0
0
0
0
0
0
6.38465e-14
0
9.64064e-15
2.46409e-12
5.33922e-08
3.40606e-13
3.74554e-10
3.37768e-06
0.578555
2.41704e-08
0.00620612
430.549
16.2064
55.9734
241.274
0.40553
3.46345
0
0
0
0
0
0
0
0
0
0
0
0
0
0
0
0
0
0
0
0
0
1.02082e-12
3.63798e-16
4.45652e-14
6.36646e-16
1.62163e-13
9.09495e-17
9.1859e-15
1.47166e-08
3.63534e-12
3.52696e-10
1.54014e-11
1.537e-09
6.80575e-13
5.08091e-11
0.0173109
2.40808e-08
9.49117e-07
1.64704e-07
0.000126824
2.70953e-09
1.70789e-07
1222.11
440.357
461.673
672.7
467.773
492.482
763.307
515.013
715.671
0
0
0
0
0
0
0
0
0
0
0
0
0
0
0
0
0
373.689
491.717
369.533
380.889
145.309
299.7
66.2956
0
0
0
0
0
0
0
0
0
0
0
0
0
0
6.73026e-15
0
0
0
2.72848e-16
0
0
1.58155e-11
0
5.99357e-14
4.94765e-14
1.2883e-12
0
1.00044e-15
4.57709e-08
9.50786e-13
2.34438e-10
5.25654e-11
2.70094e-09
1.6189e-14
5.25806e-12
0.130889
5.04918e-09
0.0010151
1.00436e-07
6.26284e-06
4.61201e-11
1.50537e-08
225.598
0.0767573
178.705
0.00023525
11.7014
4.67947e-07
0.0393708
494.811
357.402
808.276
62.7405
300.383
1.3003
194.465
67.9213
0.208809
37.9799
0.0292788
0.0113701
1.6487e-06
0.00149804
2.57506e-07
1.10041e-07
5.68019e-05
1.76896e-08
6.09122e-06
0
0
0
0
0
0
0
0
0
0
0
0
0
0
0
0
0
0
0
0
0
0
0
0
0
0
0
0
0
0
0
0
0
0
0
0
0
0
0
0
0
0
0
0
457.371
244.768
264.115
24.5331
0
0
0
0
0
0
0
0
0
0
0
0
0
0
0
0
0
0
0
0
0
0
0
0
0
0
0
0
0
0
0
0
0
0
0
0
0
0
0
0
0
0
0
0
0
0
0
0
0
0
0
0
0
0
0
0
9.09495e-17
0
0
1.437e-14
1.42647e-11
9.09495e-17
6.35737e-14
8.8083e-10
0.000212772
1.78889e-12
2.69096e-09
140.865
0.0119695
0.183109
1.50921
1.021e-07
2.10792e-05
0
0
0
0
0
0
0
0
0
0
0
0
0
0
0
0
0
0
0
0
0
5.09317e-15
0
0
0
0
0
0
5.29158e-11
2.1646e-14
1.6852e-12
2.75577e-14
1.16625e-12
1.09139e-15
4.06544e-14
3.3957e-06
9.3124e-11
6.5271e-09
1.07318e-10
4.58319e-09
2.21453e-12
1.0579e-10
397.048
439.476
503.057
502.676
540.688
711.479
779.089
769.898
810.895
0
0
0
0
0
0
0
0
0
0
0
0
0
0
0
0
0