/*--------------------------------*- C++ -*----------------------------------*\
  =========                 |
  \\      /  F ield         | OpenFOAM: The Open Source CFD Toolbox
   \\    /   O peration     | Website:  https://openfoam.org
    \\  /    A nd           | Version:  9
     \\/     M anipulation  |
\*---------------------------------------------------------------------------*/
FoamFile
{
    format      ascii;
    class       volVectorField;
    location    "5e-05";
    object      rhoU;
}
// * * * * * * * * * * * * * * * * * * * * * * * * * * * * * * * * * * * * * //

dimensions      [1 -2 -1 0 0 0 0];

internalField   nonuniform List<vector> 
3463
(
(0 -2.92069e-17 4.67279e-17)
(0 -2.91989e-17 1.3553e-16)
(0 -2.91989e-17 1.3434e-16)
(0 -2.9196e-17 1.68028e-17)
(0 0 0)
(0 0 0)
(0 0 1.75838e-16)
(0 -8.25777e-17 2.27374e-15)
(0 0 2.86405e-21)
(0 0 -1.9756e-22)
(0 -2.92027e-17 -4.54325e-17)
(0 0 0)
(0 0 1.78781e-16)
(0 0 9.15713e-17)
(0 0 -9.02386e-17)
(0 -2.91989e-17 -1.34078e-16)
(0 0 0)
(0 0 1.78784e-16)
(0 0 9.0008e-17)
(0 0 -9.21839e-17)
(0 -2.91989e-17 -1.36017e-16)
(0 0 0)
(0 0 -4.58429e-17)
(0 0 1.11385e-21)
(0 0 0)
(0 0 0)
(0 0 0)
(0 0 0)
(0 0 0)
(0 0 0)
(0 0 0)
(0 0 -4.3646e-15)
(0 0 0)
(0 0 0)
(0 0 0)
(0 0 0)
(0 0 4.3646e-15)
(0 0 0)
(0 0 4.36457e-15)
(0 0 -1.75721e-16)
(0 0 0)
(0 0 4.36963e-15)
(0 0 0)
(0 0 -4.36457e-15)
(0 0 -4.3646e-15)
(0 0 -4.3646e-15)
(0 0 0)
(0 0 -4.36953e-15)
(0 0 0)
(0 0 3.84483e-15)
(0 0 0)
(0 0 4.3646e-15)
(0 0 4.36457e-15)
(0 0 -1.75719e-16)
(0 0 0)
(0 0 4.36962e-15)
(0 0 0)
(0 0 -4.36457e-15)
(0 0 -4.3646e-15)
(0 0 -4.3646e-15)
(0 0 0)
(0 0 -4.36953e-15)
(0 0 0)
(0 0 3.84483e-15)
(0 0 0)
(0 0 4.3646e-15)
(0 0 4.36457e-15)
(0 0 -1.75719e-16)
(0 0 0)
(0 0 4.36962e-15)
(0 0 0)
(0 0 -4.36457e-15)
(0 0 -4.3646e-15)
(0 0 -4.3646e-15)
(0 0 0)
(0 0 -4.36958e-15)
(0 0 -1.24318e-18)
(0 0 3.84482e-15)
(0 0 -2.1602e-20)
(0 0 0)
(0 -6.61269e-18 0)
(0 0 6.88367e-17)
(-4.25256e-33 -4.70365e-21 2.33908e-17)
(8.02902e-23 -7.71197e-30 3.24311e-17)
(-1.10951e-28 -4.43249e-15 7.00528e-21)
(0 -1.87558e-17 1.10578e-20)
(3.16897e-21 -2.77446e-27 0)
(0 0 -5.82231e-19)
(0 0 0)
(0 -2.35205e-22 0)
(0 0 0)
(0 0 0)
(0 0 0)
(0 0 0)
(0 -2.17838e-15 7.97689e-21)
(0 -2.17945e-15 0)
(0 0 0)
(0 0 0)
(0 0 4.41344e-24)
(0 0 3.24652e-24)
(0 -2.17839e-15 4.56818e-17)
(0 -2.24453e-15 -5.64164e-25)
(0 0 2.8246e-19)
(0 0 0)
(0 0 0)
(0 0 -1.52357e-24)
(0 -7.97554e-21 4.47568e-15)
(0 0 1.13808e-19)
(0 -2.24543e-15 -4.4058e-15)
(0 0 0)
(0 0 -1.72863e-24)
(0 -4.42871e-17 4.38895e-15)
(0 -2.20856e-15 -4.54744e-15)
(0 0 0)
(0 -6.38034e-21 -4.67166e-17)
(0 0 0)
(0 0 0)
(0 0 0)
(0 0 0)
(0 0 0)
(0 0 0)
(0 0 0)
(0 0 0)
(0 0 0)
(0 0 0)
(0 0 0)
(0 0 0)
(0 0 0)
(0 0 0)
(0 0 0)
(0 0 -4.09938e-24)
(0 0 0)
(0 0 0)
(0 0 0)
(0 0 0)
(0 0 0)
(0 0 0)
(0 0 0)
(0 0 0)
(0 0 0)
(0 0 0)
(0 0 0)
(0 0 0)
(0 0 0)
(0 0 0)
(0 0 0)
(0 0 0)
(0 0 0)
(0 0 0)
(0 0 0)
(0 0 0)
(0 0 -4.22285e-24)
(0 0 0)
(0 0 0)
(0 0 0)
(0 0 0)
(0 0 0)
(0 0 0)
(0 0 0)
(0 0 0)
(0 0 0)
(0 0 0)
(0 0 0)
(0 0 0)
(0 0 0)
(0 0 -4.22285e-24)
(0 0 0)
(0 0 0)
(0 0 0)
(0 0 0)
(0 0 0)
(0 0 4.3107e-15)
(0 0 -5.39981e-18)
(0 0 0)
(0 0 0)
(0 0 0)
(0 0 -5.38716e-17)
(0 0 -4.3646e-15)
(0 0 1.13469e-23)
(0 0 -2.16287e-23)
(0 0 -2.67715e-23)
(-2.18297e-44 0 -6.45711e-19)
(-2.01384e-39 0 8.59196e-22)
(-5.73798e-20 0 -8.37625e-15)
(0 0 -3.58021e-16)
(-3.18857e-20 0 8.72835e-15)
(-3.17223e-23 0 0)
(-5.84074e-17 2.07903e-15 -2.01136e-17)
(0 -4.49054e-15 -4.34797e-21)
(1.2586e-19 0 -1.12426e-15)
(-4.84849e-25 -1.43602e-17 1.13687e-15)
(-6.781e-29 -2.24616e-15 -2.02391e-17)
(2.19514e-24 1.01564e-34 -2.2499e-15)
(0 -2.36997e-17 1.17526e-17)
(-1.33982e-19 -2.24453e-15 -1.69457e-15)
(-2.27373e-15 6.45592e-38 1.03691e-17)
(0 2.27374e-15 -2.22673e-15)
(0 2.27374e-15 -2.27374e-15)
(0 0 -2.26183e-15)
(0 -1.78518e-17 1.62327e-24)
(0 2.27374e-15 -2.24204e-15)
(0 2.27374e-15 -2.24246e-15)
(0 0 0)
(0 -2.37006e-17 -4.97541e-20)
(0 2.27323e-15 -2.19717e-15)
(0 2.27374e-15 -2.24127e-15)
(0 0 4.86063e-22)
(0 -2.37006e-17 -1.21799e-23)
(0 2.22791e-15 -2.24117e-15)
(0 2.27374e-15 -2.24127e-15)
(0 0 2.18244e-15)
(0 -2.37005e-17 2.29721e-17)
(0 2.22727e-15 -4.7841e-17)
(0 2.27374e-15 -2.23656e-15)
(-2.54086e-39 0 1.32927e-19)
(0 0 3.37207e-16)
(0 0 0)
(0 0 -8.60734e-18)
(0 0 -8.00889e-15)
(0 0 0)
(0 0 -7.99752e-15)
(0 2.27374e-15 0)
(0 -1.17904e-44 0)
(0 -7.88853e-47 0)
(0 2.27374e-15 2.13697e-15)
(0 2.27374e-15 4.24714e-17)
(0 -7.8994e-42 -1.67707e-19)
(0 -2.28646e-44 0)
(0 -5.63443e-50 0)
(0 0 0)
(0 2.27374e-15 2.13595e-15)
(0 -1.7483e-47 0)
(0 0 4.71709e-17)
(0 0 3.65815e-16)
(0 0 9.09495e-15)
(0 0 -9.97016e-18)
(0 0 -8.00889e-15)
(0 0 0)
(0 0 -7.99752e-15)
(0 0 0)
(0 2.27374e-15 -5.06012e-17)
(0 -3.22923e-39 0)
(0 -9.91068e-42 0)
(0 2.27374e-15 2.13719e-15)
(0 2.27374e-15 4.24714e-17)
(0 -6.36832e-37 0)
(0 -8.1425e-40 0)
(0 -1.44025e-44 0)
(0 0 -4.70077e-17)
(0 2.27374e-15 2.1352e-15)
(0 2.17945e-15 2.22606e-15)
(0 -5.09514e-43 0)
(0 -1.77081e-45 0)
(0 0 0)
(0 0 9.09495e-15)
(0 0 -8.78922e-18)
(0 0 -8.00889e-15)
(0 0 0)
(0 0 0)
(0 0 -7.99752e-15)
(0 0 0)
(0 2.27374e-15 -5.06165e-17)
(0 -5.86639e-35 0)
(0 -1.39928e-37 0)
(0 2.22727e-15 2.1373e-15)
(0 2.27374e-15 4.24714e-17)
(0 0 2.8039e-19)
(0 0 0)
(0 2.17839e-15 -2.19118e-15)
(0 -3.16356e-40 0)
(0 -6.3689e-43 0)
(0 2.27374e-15 2.13515e-15)
(0 2.17839e-15 2.19118e-15)
(0 0 0)
(0 0 0)
(0 0 3.76094e-16)
(0 0 9.09495e-15)
(0 0 -8.80025e-18)
(0 0 -8.00889e-15)
(0 0 0)
(0 0 0)
(0 0 -7.99752e-15)
(0 0 0)
(0 0 0)
(0 2.27374e-15 -5.06165e-17)
(0 0 -2.81114e-19)
(0 0 0)
(0 2.22727e-15 2.13675e-15)
(0 2.27374e-15 0)
(0 0 2.80762e-19)
(0 0 0)
(0 2.17906e-15 -2.19183e-15)
(0 0 0)
(0 0 0)
(0 2.27374e-15 2.13558e-15)
(0 2.27374e-15 2.27374e-15)
(0 0 0)
(0 0 0)
(0 -2.27305e-15 -1.01209e-41)
(0 0 3.76094e-16)
(0 0 9.09495e-15)
(0 5.92853e-24 -2.27374e-15)
(-4.2195e-15 4.47099e-15 1.67244e-15)
(0 0 0)
(0 0 0)
(4.21642e-15 0 -7.97554e-21)
(-4.21642e-15 0 7.97238e-21)
(0 0 0)
(0 0 0)
(4.21642e-15 0 -2.21414e-15)
(-4.54744e-15 4.45214e-15 -2.27111e-15)
(0 0 0)
(0 0 -3.65756e-16)
(0 0 9.09495e-15)
(0 0 -3.65815e-16)
(0 0 0)
(0 0 -9.09495e-15)
(0 0 -9.09495e-15)
(0 0 0)
(0 0 0)
(0 0 9.09495e-15)
(0 0 -8.73694e-15)
(0 0 9.09495e-15)
(0 0 0)
(0 0 -9.09495e-15)
(0 0 0)
(0 0 1.53844e-17)
(0 0 -3.65815e-16)
(0 0 0)
(0 0 3.65815e-16)
(0 0 -3.73069e-16)
(0 0 0)
(0 0 0)
(0 0 7.98743e-15)
(0 0 0)
(0 0 7.98487e-15)
(0 0 -3.7074e-16)
(0 0 -9.09495e-15)
(0 0 0)
(0 0 -1.88129e-16)
(0 0 0)
(0 0 0)
(0 0 0)
(0 0 9.09495e-15)
(0 0 0)
(0 0 0)
(0 0 0)
(0 0 7.99752e-15)
(0 0 9.09495e-15)
(0 0 0)
(0 0 -9.09495e-15)
(0 0 0)
(0 0 0)
(0 0 0)
(0 0 0)
(0 0 8.34276e-15)
(0 0 -3.65815e-16)
(0 0 6.63289e-16)
(0 0 3.65815e-16)
(0 0 -9.09495e-15)
(0 0 -9.09495e-15)
(0 0 -9.09495e-15)
(0 0 -9.00244e-15)
(0 0 -8.73126e-15)
(0 0 7.63171e-15)
(0 0 9.09495e-15)
(0 0 7.2321e-15)
(0 0 0)
(0 0 1.36741e-18)
(0 0 -3.65815e-16)
(0 0 0)
(0 0 0)
(0 0 -3.73218e-16)
(0 0 0)
(0 0 0)
(0 0 7.98743e-15)
(0 0 0)
(0 0 7.98487e-15)
(0 0 -3.7074e-16)
(0 0 -9.09495e-15)
(0 0 0)
(0 0 -4.09999e-18)
(0 0 -9.09495e-15)
(0 0 3.69242e-16)
(0 0 0)
(0 0 -2.27846e-19)
(0 0 9.09495e-15)
(0 0 -3.65856e-16)
(0 0 -3.76094e-16)
(0 0 7.99752e-15)
(0 0 9.09495e-15)
(0 0 0)
(0 0 -9.09495e-15)
(0 0 0)
(0 0 0)
(0 0 -9.00244e-15)
(0 0 0)
(0 0 0)
(0 0 0)
(0 0 0)
(0 0 0)
(0 0 0)
(0 0 0)
(0 0 0)
(0 0 8.34276e-15)
(0 0 1.82605e-16)
(0 0 6.63289e-16)
(0 0 0)
(0 0 -9.09495e-15)
(0 0 -9.09495e-15)
(0 0 -9.09495e-15)
(0 0 -9.00244e-15)
(0 0 -8.73698e-15)
(0 0 7.63171e-15)
(0 0 9.09495e-15)
(0 0 7.2321e-15)
(0 0 0)
(0 0 -4.81871e-18)
(0 0 -3.76094e-16)
(0 0 0)
(0 0 4.66288e-18)
(0 0 -3.73283e-16)
(0 0 0)
(0 0 0)
(0 0 7.98743e-15)
(0 0 0)
(0 0 7.98487e-15)
(0 0 -3.7074e-16)
(0 0 -9.09495e-15)
(0 0 0)
(0 0 0)
(0 0 -9.09495e-15)
(0 0 3.69792e-16)
(0 0 0)
(0 0 8.22639e-20)
(0 0 9.09495e-15)
(0 0 0)
(0 0 -9.09495e-15)
(0 0 0)
(0 0 9.09495e-15)
(0 0 0)
(0 0 8.72914e-15)
(0 0 0)
(0 0 -9.09495e-15)
(0 0 0)
(0 0 7.99752e-15)
(0 0 9.09495e-15)
(0 0 0)
(0 0 -9.09495e-15)
(0 0 0)
(0 0 0)
(0 0 0)
(0 0 0)
(0 0 0)
(0 0 0)
(0 0 0)
(0 0 0)
(0 0 0)
(0 0 0)
(0 0 0)
(0 0 8.34276e-15)
(0 0 -3.76094e-16)
(0 0 6.63289e-16)
(0 0 0)
(0 0 -9.09495e-15)
(0 0 -9.09495e-15)
(0 0 -9.09495e-15)
(0 0 -9.00244e-15)
(0 0 -8.73698e-15)
(0 0 7.63171e-15)
(0 0 9.09495e-15)
(0 0 7.2321e-15)
(0 0 0)
(0 0 1.58179e-17)
(0 0 -3.76094e-16)
(0 0 0)
(0 0 3.76094e-16)
(0 0 -3.73065e-16)
(0 0 0)
(0 0 0)
(0 0 7.98743e-15)
(0 0 0)
(0 0 7.98487e-15)
(0 0 -3.7074e-16)
(0 0 -9.09495e-15)
(0 0 0)
(0 0 0)
(0 0 -9.09495e-15)
(0 0 3.69792e-16)
(0 0 0)
(0 0 8.22639e-20)
(0 0 9.09495e-15)
(0 0 0)
(0 0 -9.09495e-15)
(0 0 0)
(0 0 9.09495e-15)
(0 0 -2.01734e-24)
(0 0 8.72914e-15)
(0 0 -9.69528e-27)
(0 0 -9.09495e-15)
(0 0 0)
(0 0 7.99752e-15)
(0 0 9.09495e-15)
(0 0 0)
(0 0 -9.09495e-15)
(0 0 0)
(0 0 0)
(0 0 0)
(0 0 0)
(0 0 0)
(0 0 0)
(0 0 0)
(0 0 0)
(0 0 0)
(0 0 0)
(0 0 0)
(0 0 0)
(0 0 0)
(0 0 0)
(0 0 0)
(0 0 0)
(0 2.27374e-15 -4.89692e-17)
(0 0 0)
(0 0 0)
(0 1.29564e-18 -2.13699e-15)
(0 0 -4.4463e-17)
(0 0 -4.48481e-17)
(0 0 -1.26549e-18)
(0 2.27374e-15 -2.19033e-15)
(0 0 0)
(0 0 -6.71703e-20)
(0 0 -3.10068e-19)
(0 0 -6.27608e-19)
(0 0 -2.60308e-21)
(0 0 1.32593e-19)
(0 -3.63381e-17 2.22672e-15)
(1.29143e-39 0 -4.57591e-17)
(0 -3.05829e-19 -6.50157e-19)
(0 0 -3.57187e-16)
(0 0 0)
(0 0 8.34276e-15)
(0 0 -6.52518e-16)
(0 0 8.36078e-15)
(0 0 3.0495e-16)
(0 0 -8.38198e-15)
(0 0 -6.70028e-16)
(0 0 -1.81526e-16)
(0 0 -9.09495e-15)
(0 0 -3.00308e-16)
(0 0 8.17661e-15)
(0 0 -8.05768e-15)
(0 0 -8.70377e-18)
(0 0 -3.42276e-16)
(0 0 -8.71886e-15)
(0 0 3.69809e-16)
(0 0 -7.05479e-18)
(0 0 1.0151e-17)
(0 0 -4.96997e-20)
(0 0 -6.19492e-21)
(0 0 -8.37295e-15)
(0 0 0)
(0 0 9.09495e-15)
(0 0 -8.84627e-17)
(0 0 8.739e-15)
(0 0 -9.98557e-19)
(0 0 -1.15876e-18)
(0 0 -6.5799e-23)
(0 0 0)
(0 0 0)
(0 0 -1.10192e-18)
(0 0 0)
(0 0 -2.18843e-20)
(0 0 -1.16776e-20)
(0 0 2.49931e-20)
(0 0 0)
(0 0 0)
(0 0 8.90125e-17)
(0 0 0)
(0 0 1.16148e-18)
(0 0 1.31753e-18)
(0 0 0)
(0 0 0)
(0 0 -5.6334e-16)
(0 2.92069e-17 2.181e-15)
(0 0 9.09495e-15)
(0 0 -5.63921e-16)
(0 7.50351e-17 -2.19362e-15)
(0 2.92069e-17 2.18101e-15)
(-5.84138e-17 4.48986e-15 2.32007e-15)
(0 0 9.09495e-15)
(9.53328e-17 5.84138e-17 1.12508e-15)
(4.48906e-15 -9.40077e-17 -1.06659e-15)
(0 0 4.73325e-20)
(0 0 0)
(0 0 0)
(0 0 9.12379e-26)
(0 0 -9.01322e-18)
(0 0 1.41891e-24)
(0 0 7.60591e-25)
(0 0 8.62141e-15)
(0 0 1.27565e-19)
(0 0 -9.09495e-15)
(0 0 -8.72919e-15)
(0 0 1.16828e-16)
(0 0 8.7292e-15)
(0 0 0)
(0 0 8.72919e-15)
(0 0 0)
(0 0 8.7292e-15)
(0 0 -9.09495e-15)
(0 0 -7.69007e-15)
(0 0 0)
(0 0 -8.72919e-15)
(0 0 0)
(0 0 5.94559e-16)
(0 0 -9.09495e-15)
(0 0 -8.72919e-15)
(0 0 9.09495e-15)
(0 0 8.7292e-15)
(0 0 0)
(0 0 8.05346e-15)
(0 0 0)
(0 0 -8.38315e-15)
(0 0 -1.10157e-26)
(0 2.92069e-17 -2.14504e-15)
(0 9.11598e-17 4.75568e-22)
(0 0 3.47058e-28)
(0 9.44457e-25 4.45214e-15)
(7.64811e-17 -7.461e-17 0)
(0 -1.0419e-18 0)
(0 0 -8.9115e-17)
(0 0 -4.18318e-15)
(0 -8.28314e-29 -1.97535e-18)
(0 -7.89767e-27 -8.91437e-17)
(0 0 3.3448e-16)
(0 0 0)
(0 0 8.7292e-15)
(0 0 -7.79483e-15)
(0 0 -7.3807e-15)
(0 0 8.03476e-15)
(0 0 -3.39012e-16)
(0 -2.82338e-22 0)
(0 0 0)
(0 0 0)
(0 -1.83567e-17 0)
(0 0 0)
(0 0 0)
(0 0 0)
(0 0 0)
(0 0 0)
(0 -2.27374e-15 0)
(0 -2.22606e-15 -4.63515e-17)
(0 0 0)
(0 0 0)
(0 2.27374e-15 0)
(0 2.27374e-15 2.23785e-15)
(0 0 0)
(0 0 0)
(0 2.27374e-15 -2.22641e-15)
(0 -2.27374e-15 0)
(0 0 0)
(0 0 0)
(0 -2.27374e-15 0)
(0 0 0)
(0 0 -9.09495e-15)
(0 0 0)
(0 0 -9.00244e-15)
(0 0 0)
(0 0 0)
(0 0 0)
(0 0 9.09495e-15)
(0 0 0)
(0 0 0)
(0 0 0)
(0 0 0)
(0 0 0)
(0 0 0)
(0 0 0)
(0 0 -3.56044e-16)
(0 0 0)
(0 0 8.81743e-15)
(0 0 -4.34101e-16)
(0 0 8.7285e-15)
(0 0 -1.23602e-17)
(0 0 -8.73121e-15)
(0 0 0)
(0 0 0)
(0 0 0)
(0 0 0)
(0 0 0)
(0 0 0)
(0 0 0)
(0 0 0)
(0 0 0)
(0 0 0)
(0 0 0)
(0 0 0)
(0 0 0)
(0 0 0)
(0 0 0)
(0 0 0)
(0 0 0)
(0 0 0)
(0 0 0)
(0 0 0)
(0 0 0)
(0 0 -4.31246e-22)
(0 0 0)
(0 0 0)
(0 0 -3.56924e-22)
(0 0 0)
(0 0 -2.01734e-24)
(0 0 -2.12448e-20)
(-4.58824e-37 0 2.35059e-17)
(-4.60091e-37 0 2.35059e-17)
(0 0 0)
(0 -2.20729e-15 -5.99411e-40)
(0 0 0)
(0 0 0)
(0 0 0)
(0 0 0)
(0 0 0)
(0 0 0)
(0 0 0)
(0 0 0)
(0 0 -2.22638e-15)
(0 0 -4.27119e-20)
(0 0 0)
(0 0 0)
(0 0 -8.92311e-17)
(0 0 0)
(0 0 -1.02325e-18)
(0 0 -2.52353e-18)
(0 0 0)
(0 0 -2.22606e-15)
(0 4.54747e-15 -6.97511e-17)
(0 2.35716e-17 2.27374e-15)
(0 -9.40094e-17 -4.45115e-15)
(0 0 3.28548e-16)
(0 0 0)
(0 0 0)
(0 0 9.03384e-17)
(0 0 0)
(0 0 1.11523e-18)
(0 0 1.18365e-18)
(0 0 8.35969e-15)
(0 0 -9.09495e-15)
(0 0 -2.93774e-17)
(0 0 -9.09495e-15)
(0 0 0)
(0 0 8.02645e-15)
(1.37636e-16 0 -8.71879e-15)
(-1.39491e-16 0 -8.71885e-15)
(1.25699e-18 7.97122e-21 1.11303e-15)
(-1.16417e-18 0 1.11303e-15)
(1.37369e-16 0 -9.08664e-15)
(0 0 0)
(0 0 0)
(-1.40106e-16 0 0)
(0 0 0)
(0 0 0)
(8.88893e-17 -4.54747e-15 -2.22606e-15)
(-9.01333e-17 0 -4.45212e-15)
(2.16197e-15 -2.27374e-15 -1.10111e-15)
(5.98542e-27 0 -2.24998e-15)
(0 0 1.10736e-15)
(3.06337e-27 0 0)
(0 0 0)
(0 0 1.11588e-15)
(0 -2.2213e-15 -2.62783e-16)
(0 2.2498e-15 -1.13687e-15)
(0 0 8.87193e-23)
(0 0 -1.96019e-17)
(0 0 9.29256e-17)
(0 0 -4.18175e-15)
(0 0 -4.27044e-15)
(0 0 -3.65589e-16)
(0 6.6547e-22 -2.28207e-15)
(-1.49644e-20 5.61597e-17 7.97554e-21)
(0 0 -9.55616e-18)
(1.47662e-20 0 -2.27373e-15)
(-1.52859e-20 0 2.16311e-15)
(1.14785e-19 -4.82043e-27 5.68434e-16)
(0 2.21883e-15 2.81216e-16)
(0 0 3.64877e-27)
(0 0 0)
(0 0 -4.27069e-15)
(0 0 1.09995e-24)
(0 0 0)
(0 -8.74145e-17 -2.22606e-15)
(0 -4.21804e-15 -2.27374e-15)
(0 0 -1.01643e-17)
(0 0 0)
(0 0 0)
(0 1.41114e-19 -3.63617e-16)
(0 5.53996e-23 0)
(0 4.4019e-21 6.37611e-20)
(0 7.74044e-22 2.42803e-21)
(0 0 0)
(0 0 -1.37725e-22)
(0 0 0)
(0 1.31739e-23 -3.61516e-16)
(0 9.00282e-23 -6.37827e-20)
(0 8.3535e-25 2.46647e-27)
(0 1.59035e-21 -2.13612e-21)
(0 0 -3.38133e-21)
(0 0 0)
(0 0 0)
(0 3.32176e-18 -8.7188e-15)
(0 5.5776e-21 -1.0798e-23)
(0 1.12087e-19 9.09495e-15)
(0 1.40755e-19 -6.37413e-20)
(0 0 0)
(-9.27131e-22 0 -3.5948e-16)
(-3.036e-23 0 0)
(0 0 -8.71885e-15)
(0 0 0)
(0 0 9.09495e-15)
(0 0 -2.60919e-28)
(0 0 1.05052e-30)
(0 0 0)
(0 0 0)
(0 -2.59748e-18 2.7155e-29)
(0 -1.34957e-20 0)
(0 -4.09065e-20 0)
(0 -1.96489e-18 9.51298e-27)
(0 0 0)
(0 0 0)
(0 0 0)
(0 -1.3618e-16 0)
(0 -5.22943e-20 0)
(0 -1.24346e-18 0)
(0 -3.84788e-18 0)
(0 0 9.03591e-17)
(0 0 4.35908e-15)
(0 1.07913e-28 1.50515e-20)
(0 3.02519e-22 0)
(-1.27538e-20 1.25544e-20 0)
(0 2.86727e-24 -2.47902e-21)
(-2.61714e-29 -1.78617e-24 -3.76312e-21)
(0 0 8.88818e-17)
(6.98613e-24 0 9.46942e-17)
(5.04776e-22 0 4.35943e-15)
(1.25656e-20 0 0)
(-1.27535e-20 0 0)
(-8.5111e-34 0 3.95508e-21)
(-5.15867e-34 0 2.37924e-21)
(0 -7.17011e-17 4.45212e-15)
(-1.87057e-23 0 1.23396e-23)
(-1.33374e-21 0 0)
(1.26675e-20 0 0)
(-1.27574e-20 0 4.14775e-20)
(-5.31564e-33 0 -4.11266e-22)
(-5.31564e-33 0 -1.32437e-19)
(0 0 3.4203e-19)
(0 0 2.61498e-24)
(0 0 -1.83061e-18)
(0 1.15214e-25 9.56566e-17)
(0 -1.45845e-23 4.0731e-24)
(0 -1.22104e-22 -9.25975e-17)
(0 -4.06631e-21 3.61011e-22)
(0 0 9.42071e-17)
(0 0 9.40447e-17)
(0 -4.99221e-44 0)
(0 -1.86522e-28 4.54747e-15)
(0 -5.11648e-26 0)
(7.35421e-17 0 0)
(0 0 0)
(0 -2.88606e-40 4.45212e-15)
(-3.82441e-21 0 0)
(-4.51574e-19 -3.01109e-42 0)
(-7.31753e-17 0 0)
(0 0 0)
(0 0 0)
(0 0 0)
(0 1.01503e-18 0)
(0 0 0)
(0 0 0)
(4.35967e-15 4.50899e-15 3.4106e-15)
(-4.34201e-15 0 0)
(0 -4.16472e-15 4.70226e-17)
(0 -8.1039e-21 0)
(0 0 0)
(0 1.54584e-20 -3.33759e-15)
(0 0 -3.32512e-16)
(0 0 0)
(0 0 0)
(0 0 3.74845e-24)
(0 0 0)
(0 0 1.08931e-26)
(0 0 5.70265e-26)
(0 0 4.21406e-26)
(0 0 0)
(0 0 0)
(0 0 9.8462e-23)
(0 0 0)
(0 0 4.14836e-24)
(0 0 1.12222e-24)
(0 0 2.6417e-21)
(0 0 0)
(0 0 0)
(0 0 2.41785e-21)
(0 0 -6.36964e-20)
(0 0 5.15273e-23)
(0 0 6.11678e-20)
(0 0 -8.36333e-15)
(0 0 0)
(0 0 9.09495e-15)
(0 0 -3.51737e-48)
(0 0 0)
(0 0 0)
(0 0 0)
(0 0 0)
(0 -4.88287e-18 -8.53875e-16)
(-7.21604e-17 0 1.9518e-22)
(0 0 -9.29944e-17)
(0 0 -1.95849e-17)
(0 -6.86382e-17 0)
(0 -9.63611e-19 1.59524e-20)
(0 -3.35818e-19 -9.39986e-17)
(0 -1.16058e-20 -4.45345e-15)
(0 -6.7188e-20 2.292e-17)
(0 0 0)
(1.53562e-27 -9.67543e-35 0)
(0 0 0)
(0 0 0)
(0 0 0)
(0 -6.76266e-20 0)
(0 0 0)
(0 0 0)
(1.10879e-24 0 0)
(0 0 0)
(0 0 0)
(0 0 0)
(0 0 0)
(0 0 0)
(0 0 0)
(0 0 0)
(0 0 0)
(0 0 0)
(0 0 0)
(0 0 0)
(0 0 0)
(6.64279e-22 0 0)
(0 0 0)
(0 0 0)
(0 0 0)
(0 0 0)
(0 0 0)
(0 0 0)
(0 0 0)
(0 0 0)
(-1.35023e-19 -5.3866e-20 0)
(0 0 0)
(0 0 0)
(-5.4612e-22 -2.17791e-20 0)
(-1.08487e-24 0 0)
(-1.47438e-27 0 0)
(-1.90947e-17 1.23443e-29 0)
(0 6.51376e-33 0)
(0 1.54772e-34 0)
(0 2.50955e-37 0)
(0 1.30961e-39 0)
(0 -1.75161e-42 0)
(0 0 0)
(0 0 0)
(0 0 0)
(-8.6019e-20 0 0)
(-1.25246e-22 0 0)
(-1.45209e-25 0 0)
(0 0 2.99055e-18)
(0 0 -2.06899e-17)
(-1.87662e-17 0 8.97195e-18)
(0 -6.54712e-32 -1.81826e-25)
(0 0 0)
(0 0 0)
(0 -2.32401e-17 -1.72459e-23)
(0 -2.18914e-15 2.27374e-15)
(0 -1.35903e-17 0)
(0 0 -3.30709e-25)
(0 0 0)
(0 -5.62555e-20 -2.78418e-17)
(0 -2.95333e-22 0)
(0 -4.95741e-25 0)
(0 0 0)
(0 0 0)
(0 0 0)
(0 0 0)
(0 0 0)
(0 0 0)
(0 0 0)
(0 0 0)
(0 0 0)
(0 0 0)
(0 0 0)
(0 0 0)
(0 0 -2.24973e-15)
(-6.7058e-20 0 8.86246e-26)
(0 0 0)
(0 0 0)
(0 0 0)
(0 1.43627e-17 0)
(-1.40714e-24 0 2.24973e-15)
(0 0 0)
(-4.8876e-22 0 0)
(0 0 0)
(0 0 0)
(0 0 0)
(0 0 0)
(0 0 0)
(0 0 0)
(-6.45816e-17 0 9.01266e-18)
(0 0 4.47206e-21)
(0 0 6.93543e-29)
(0 0 0)
(0 0 0)
(0 0 0)
(1.85995e-17 0 -2.22921e-15)
(-3.87771e-23 0 -2.06624e-17)
(0 0 0)
(0 0 0)
(0 0 0)
(0 0 0)
(0 0 0)
(0 0 0)
(0 0 0)
(0 0 0)
(0 0 0)
(0 0 0)
(0 -1.35224e-20 2.08347e-20)
(0 0 0)
(0 0 0)
(0 0 0)
(-1.82954e-14 3.01098e-15 4.37226e-14)
(0 2.39827e-19 1.1004e-17)
(0 9.59636e-18 2.22629e-15)
(0 0 4.4747e-26)
(0 0 2.11609e-23)
(0 0 0)
(0 0 0)
(0 0 0)
(0 0 0)
(0 0 0)
(0 0 0)
(0 0 0)
(0 0 0)
(4.69393e-17 0 0)
(4.6958e-17 0 1.05571e-19)
(0 0 0)
(0 0 0)
(4.69742e-17 0 -5.9463e-19)
(4.6958e-17 0 5.43928e-19)
(-2.22743e-51 0 0)
(-4.32141e-46 0 0)
(4.67995e-17 0 -4.45719e-19)
(4.63554e-17 0 -4.62389e-17)
(-1.82103e-41 0 0)
(8.37026e-17 0 0)
(0 0 0)
(-2.46563e-72 0 0)
(-7.38882e-70 0 1.82905e-16)
(0 0 0)
(0 0 0)
(0 0 4.35943e-15)
(0 0 0)
(0 0 -6.81859e-18)
(-1.41343e-67 0 -1.78079e-16)
(-1.97253e-65 0 1.82905e-16)
(0 0 0)
(0 0 0)
(0 0 0)
(0 0 0)
(0 0 -9.87558e-18)
(-6.29901e-62 0 0)
(-8.15191e-64 0 -1.82286e-16)
(0 0 0)
(0 0 -4.35943e-15)
(0 0 -1.77764e-16)
(0 0 4.35943e-15)
(0 0 0)
(-8.35672e-56 0 0)
(-3.83414e-58 0 0)
(0 0 0)
(0 0 0)
(0 0 0)
(0 0 0)
(0 0 0)
(0 0 -9.87296e-18)
(-2.63994e-55 0 -1.78466e-16)
(0 0 0)
(0 0 -4.35943e-15)
(0 0 -1.77764e-16)
(0 0 4.35943e-15)
(-1.42435e-49 0 -1.24829e-18)
(0 0 0)
(0 0 0)
(0 0 0)
(0 0 0)
(0 0 0)
(0 0 0)
(-6.8537e-46 0 -1.77119e-16)
(0 0 0)
(0 0 -5.05123e-18)
(0 8.30614e-35 0)
(0 0 -4.35943e-15)
(0 0 -1.77764e-16)
(0 5.26638e-33 4.54747e-15)
(2.92069e-17 5.62532e-27 2.96003e-18)
(0 1.79695e-26 2.47979e-19)
(0 4.62577e-44 8.94179e-17)
(0 1.76371e-39 -9.08058e-17)
(0 8.26823e-29 8.83375e-17)
(0 2.86391e-24 -9.19083e-17)
(0 0 -9.14399e-17)
(0 0 8.94082e-17)
(0 0 -8.98428e-17)
(0 0 8.91773e-17)
(0 6.06691e-49 -8.93385e-17)
(0 -3.02127e-19 1.12495e-15)
(0 -3.02127e-19 3.57928e-24)
(0 -2.99634e-19 -1.26346e-33)
(0 0 8.73433e-15)
(0 0 9.09491e-15)
(0 0 0)
(0 0 0)
(0 0 3.65672e-16)
(0 0 3.55527e-16)
(0 0 3.65471e-16)
(0 0 -9.09495e-15)
(0 0 -3.55526e-16)
(0 0 0)
(0 0 -8.98188e-15)
(0 0 0)
(0 -4.58282e-17 -2.22673e-15)
(0 0 0)
(0 -4.58282e-17 -2.13837e-15)
(0 0 1.35e-24)
(0 -4.58282e-17 -2.1848e-15)
(0 0 0)
(0 0 8.73433e-15)
(0 0 0)
(0 -4.58282e-17 2.09087e-15)
(0 0 4.44985e-17)
(0 0 3.41271e-16)
(0 0 0)
(0 0 -4.51253e-17)
(0 0 8.71888e-15)
(0 0 -4.73014e-18)
(0 -4.58282e-17 2.09089e-15)
(0 0 4.44949e-17)
(0 0 0)
(0 0 0)
(0 0 -4.62117e-17)
(0 0 8.36343e-15)
(0 0 4.54747e-15)
(0 -2.21718e-15 7.43921e-17)
(0 0 -3.65756e-16)
(0 0 -9.0827e-15)
(0 0 0)
(0 0 -8.71885e-15)
(0 0 0)
(0 0 -3.65705e-16)
(0 0 -8.71885e-15)
(0 0 -8.71885e-15)
(0 0 8.36028e-15)
(0 0 8.06329e-15)
(0 0 -8.6115e-15)
(0 0 -6.918e-16)
(0 0 8.71885e-15)
(0 0 -3.55996e-16)
(0 0 -9.02944e-18)
(0 0 -3.41721e-16)
(0 0 -5.23434e-16)
(0 0 -8.73899e-15)
(0 0 6.68921e-16)
(0 0 8.06396e-15)
(0 0 6.64147e-16)
(0 0 3.41825e-16)
(0 0 8.53861e-15)
(0 0 3.36628e-16)
(0 0 2.06156e-18)
(0 0 -8.37901e-15)
(0 0 0)
(0 0 0)
(0 -2.70807e-52 0)
(0 -1.50457e-56 0)
(0 -4.50671e-54 0)
(0 -7.27841e-55 0)
(0 0 -1.42441e-17)
(0 -3.03041e-51 0)
(0 -4.34874e-54 0)
(0 0 0)
(0 0 -3.52018e-16)
(0 0 0)
(0 -1.69284e-49 0)
(0 -1.11522e-48 0)
(0 -2.26822e-51 0)
(0 -8.46246e-47 0)
(0 0 -9.45696e-18)
(0 -1.96212e-48 0)
(0 -1.183e-45 0)
(0 0 0)
(0 0 -3.60617e-16)
(0 0 0)
(0 -1.74296e-41 0)
(0 -4.29835e-46 0)
(0 -4.15875e-44 0)
(0 -5.3166e-44 0)
(0 0 -4.35943e-15)
(0 -3.35738e-40 0)
(0 -6.5564e-43 0)
(0 0 -3.65756e-16)
(0 0 3.37214e-16)
(0 0 4.29969e-18)
(0 -7.42367e-39 0)
(0 1.71327e-38 0)
(0 1.46261e-41 0)
(0 -2.56231e-36 0)
(0 0 -9.89192e-21)
(0 -1.56439e-37 0)
(0 -6.6067e-35 0)
(0 0 0)
(0 0 -3.22864e-16)
(0 0 -7.7304e-15)
(0 -1.0099e-31 0)
(0 -4.1862e-34 0)
(0 -8.60046e-34 0)
(0 -4.67133e-32 0)
(0 0 9.09477e-18)
(0 -8.58925e-30 0)
(0 -2.52835e-32 0)
(0 0 0)
(0 0 3.39276e-16)
(0 0 -1.72523e-16)
(0 -2.13919e-29 0)
(0 -7.50489e-28 0)
(0 -9.904e-30 0)
(0 -1.29136e-27 0)
(0 0 -9.4474e-18)
(0 -3.33963e-33 -2.2552e-18)
(0 0 0)
(0 0 2.27374e-15)
(0 0 0)
(0 0 -3.1015e-17)
(0 0 0)
(0 0 -2.2732e-15)
(0 0 0)
(0 0 0)
(0 0 2.2732e-15)
(0 0 0)
(0 0 0)
(0 0 0)
(0 0 -2.2732e-15)
(0 0 0)
(0 0 0)
(0 0 -3.97102e-21)
(0 0 0)
(0 0 -6.48366e-19)
(0 0 0)
(0 0 0)
(0 0 1.34983e-24)
(0 0 0)
(2.95661e-45 0 -3.76025e-16)
(2.95661e-45 0 4.38243e-18)
(4.23971e-25 0 -8.97812e-15)
(0 -2.22606e-15 4.50634e-17)
(0 0 0)
(0 -2.91989e-17 -4.55006e-17)
(1.21862e-40 0 0)
(4.64255e-32 -2.71157e-17 -6.54462e-19)
(5.92366e-28 -7.31542e-17 4.41525e-15)
(5.0478e-22 -7.64943e-17 0)
(3.63798e-18 7.02996e-17 0)
(0 0 0)
(0 0 -8.69998e-15)
(0 0 8.36333e-15)
(0 0 -8.36331e-15)
(0 0 8.71314e-15)
(0 0 -8.36333e-15)
(0 0 -8.36324e-15)
(0 0 8.37267e-15)
(0 0 -7.09708e-18)
(0 0 1.83373e-17)
(0 0 -8.53983e-15)
(0 0 1.6576e-16)
(0 0 8.02948e-15)
(0 0 -3.6581e-16)
(0 0 3.15961e-20)
(0 0 1.81039e-17)
(3.73222e-22 0 -8.97812e-15)
(1.12721e-40 0 3.41828e-16)
(0 0 8.37102e-15)
(0 0 1.16828e-16)
(3.18906e-23 0 9.09495e-15)
(0 0 -1.73689e-16)
(0 0 0)
(0 0 3.41054e-16)
(0 -4.95811e-54 0)
(0 -3.4786e-51 0)
(0 0 0)
(0 0 4.73656e-18)
(0 -1.36859e-45 0)
(0 -2.26545e-48 0)
(0 0 -3.50555e-16)
(0 0 0)
(0 -7.6187e-43 0)
(0 -3.90247e-40 0)
(0 0 0)
(0 0 -4.44266e-18)
(0 -7.75234e-35 0)
(0 -1.82354e-37 0)
(0 0 -2.54556e-16)
(0 0 3.27662e-16)
(0 -2.96395e-32 0)
(0 -1.01412e-29 0)
(0 0 0)
(0 0 -4.01585e-15)
(0 0 -1.63716e-16)
(0 -2.59131e-27 0)
(0 -3.2083e-25 0)
(0 -3.05433e-27 0)
(0 -2.71429e-25 0)
(0 0 0)
(0 0 3.69335e-18)
(0 0 3.23954e-16)
(1.20791e-36 -4.50773e-21 0)
(0 -7.2133e-23 0)
(0 -6.0821e-23 0)
(0 -5.36573e-21 0)
(2.17741e-20 -6.60882e-17 0)
(1.71926e-36 0 4.73606e-18)
(0 0 -3.55849e-16)
(3.25228e-32 -6.66879e-19 0)
(2.60519e-20 -7.31016e-17 0)
(0 -7.1832e-19 0)
(5.92398e-28 -7.37008e-17 0)
(2.7005e-18 4.71163e-17 0)
(1.54228e-21 0 -9.09495e-15)
(0 0 8.70919e-15)
(0 7.00988e-19 0)
(3.74675e-18 6.9009e-17 0)
(5.58275e-20 7.05174e-19 0)
(3.75767e-18 6.98078e-17 0)
(-7.8479e-08 1.78465e-08 -1.41887e-09)
(-7.09611e-08 1.60579e-08 1.41003e-09)
(-1.36612e-11 2.38336e-12 8.84657e-12)
(-5.30732e-14 6.71754e-15 5.69183e-14)
(-3.53838e-14 3.56152e-15 -2.31466e-17)
(-7.92591e-12 6.99254e-13 -2.93191e-14)
(-3.08678e-14 3.33026e-15 9.25404e-17)
(-8.03906e-12 7.27868e-13 8.48541e-14)
(2.22599e-15 2.26644e-15 1.61654e-19)
(-7.65598e-14 6.51375e-15 3.71913e-14)
(2.22727e-15 2.26644e-15 2.18537e-15)
(-1.59973e-19 1.46035e-17 4.30494e-17)
(0 1.46035e-17 1.12495e-15)
(-2.22733e-15 1.46035e-17 -4.90988e-19)
(-2.22623e-15 1.46035e-17 -4.89721e-19)
(-2.22623e-15 1.46035e-17 2.36082e-17)
(2.22623e-15 0 1.12495e-15)
(0 0 -1.12495e-15)
(-2.20753e-15 -1.46035e-17 -1.12495e-15)
(2.22623e-15 0 0)
(0 0 -1.95292e-20)
(0 -1.46035e-17 -2.43335e-20)
(2.22649e-15 0 0)
(0 0 1.24911e-27)
(0 -1.46035e-17 -2.42858e-20)
(2.27373e-15 -5.84604e-23 2.2884e-17)
(0 0 1.10185e-15)
(0 -1.46035e-17 1.12681e-15)
(0 -2.62058e-36 -1.96551e-15)
(0 1.12965e-15 8.52651e-16)
(-2.81579e-11 1.94194e-11 -1.69059e-13)
(-4.70651e-15 2.03514e-15 2.27374e-15)
(-2.83113e-11 1.99161e-11 1.63061e-13)
(-4.0872e-15 1.38759e-15 2.16338e-15)
(-6.57924e-13 4.88942e-13 4.71062e-13)
(-4.95025e-18 0 2.14408e-15)
(-1.10897e-15 2.865e-16 1.66511e-15)
(-8.0999e-13 8.47586e-13 -3.61353e-15)
(0 0 0)
(-2.77519e-15 3.35447e-15 0)
(-4.6933e-15 2.12764e-15 -2.15075e-15)
(-7.66085e-13 8.10312e-13 -2.24297e-15)
(0 0 0)
(-2.77519e-15 3.26502e-15 4.28949e-15)
(-6.21462e-13 6.73154e-13 3.12451e-15)
(0 0 0)
(-1.57261e-15 2.31165e-15 -4.28844e-15)
(-4.47289e-15 1.85012e-15 -2.11023e-15)
(-7.27002e-13 7.68049e-13 1.16475e-14)
(0 0 0)
(-2.49767e-15 2.83986e-15 4.29858e-15)
(-5.64288e-15 5.81907e-15 5.79528e-15)
(0 0 0)
(0 -2.2153e-15 -4.26294e-15)
(-1.27938e-19 -3.82474e-17 -2.27374e-15)
(-3.6958e-16 5.34778e-16 2.77519e-16)
(0 0 -4.54747e-15)
(3.79773e-17 -2.18883e-15 6.82121e-15)
(0 0 0)
(0 0 -4.54747e-15)
(0 6.46924e-20 0)
(-5.85639e-14 6.37029e-14 -4.62531e-17)
(0 0 -4.54747e-15)
(0 0 -4.54747e-15)
(0 0 0)
(0 0 0)
(0 0 0)
(0 0 0)
(0 0 -4.54747e-15)
(0 0 -4.54747e-15)
(0 0 0)
(0 0 -4.54747e-15)
(0 0 0)
(-1.9128e-14 2.0656e-14 0)
(0 0 -4.3142e-15)
(0 0 -4.35943e-15)
(0 0 0)
(0 0 0)
(0 0 0)
(0 0 0)
(0 0 -4.54747e-15)
(0 0 -4.54747e-15)
(0 0 0)
(0 0 -4.54747e-15)
(0 0 0)
(0 0 0)
(0 0 -4.3142e-15)
(0 0 -4.35943e-15)
(0 0 0)
(0 0 0)
(0 0 0)
(0 0 0)
(0 0 -4.54747e-15)
(0 0 -4.54747e-15)
(0 -4.76101e-40 1.88047e-16)
(0 0 -4.2654e-15)
(0 0 -5.66908e-19)
(0 0 0)
(0 0 -4.26933e-15)
(0 0 -4.35943e-15)
(0 0 1.31796e-18)
(6.26247e-43 0 0)
(0 0 1.64326e-21)
(0 0 0)
(0 0 -4.54747e-15)
(0 0 -4.54747e-15)
(0 1.69447e-15 -2.84217e-16)
(0 -1.13076e-15 2.87724e-16)
(0 -2.77083e-19 0)
(0 0 0)
(0 0 0)
(8.99011e-35 5.17752e-17 0)
(0 0 0)
(0 0 -4.54747e-15)
(0 0 -4.54747e-15)
(0 0 0)
(0 0 0)
(0 0 0)
(0 0 4.27054e-15)
(0 0 2.17971e-15)
(0 0 0)
(0 0 0)
(0 0 0)
(0 0 0)
(0 0 0)
(0 0 4.2261e-15)
(0 0 0)
(0 0 0)
(0 0 0)
(0 0 0)
(0 0 0)
(0 0 0)
(0 0 -1.30844e-18)
(0 0 -9.46938e-17)
(0 0 0)
(0 0 0)
(-2.87213e-18 4.54747e-15 0)
(0 0 0)
(0 0 0)
(0 0 -5.35406e-19)
(-2.86953e-18 4.54747e-15 0)
(0 0 0)
(0 0 0)
(0 0 0)
(0 0 0)
(0 0 0)
(0 0 0)
(0 0 0)
(0 0 0)
(0 0 0)
(0 0 4.35943e-15)
(0 0 4.35943e-15)
(0 0 4.35943e-15)
(0 0 -2.17971e-15)
(0 0 0)
(0 0 0)
(0 0 4.27022e-15)
(0 0 2.17971e-15)
(0 0 0)
(0 0 0)
(0 0 0)
(0 0 0)
(0 0 0)
(0 0 4.2261e-15)
(0 0 0)
(0 0 0)
(0 0 0)
(0 0 9.3395e-17)
(0 0 0)
(0 0 0)
(0 0 -1.30855e-18)
(0 0 -9.47114e-17)
(0 0 0)
(0 0 0)
(-1.27879e-18 4.54747e-15 0)
(0 0 0)
(0 0 0)
(0 0 -5.29201e-19)
(-1.91376e-18 4.54747e-15 0)
(0 0 0)
(0 0 0)
(0 0 0)
(0 0 0)
(0 0 0)
(0 0 0)
(0 0 0)
(0 0 0)
(0 0 -4.54747e-15)
(0 0 4.35943e-15)
(0 0 4.35943e-15)
(0 0 4.35943e-15)
(0 0 -2.17971e-15)
(0 0 0)
(0 0 0)
(0 0 4.27022e-15)
(0 0 2.17971e-15)
(0 0 0)
(0 0 0)
(0 0 0)
(0 0 0)
(0 0 0)
(0 0 4.2261e-15)
(0 0 0)
(0 0 0)
(0 0 0)
(0 0 9.3395e-17)
(0 0 0)
(0 0 0)
(0 0 -1.31145e-18)
(0 0 -9.47114e-17)
(0 0 0)
(0 0 0)
(-8.75765e-22 4.54747e-15 0)
(0 0 0)
(0 0 0)
(0 0 -5.292e-19)
(0 4.54747e-15 0)
(0 0 0)
(0 0 0)
(0 0 0)
(0 0 0)
(0 0 0)
(0 0 0)
(0 0 0)
(0 0 0)
(0 0 -4.54747e-15)
(0 0 4.35943e-15)
(0 0 4.35943e-15)
(0 0 4.35943e-15)
(0 0 -2.17971e-15)
(0 0 3.24346e-20)
(0 0 0)
(0 -4.71376e-17 4.2261e-15)
(0 0 2.17973e-15)
(0 0 -1.58391e-40)
(0 0 -2.5793e-34)
(0 0 2.47113e-21)
(0 0 0)
(0 0 0)
(0 0 4.2261e-15)
(0 0 1.59981e-21)
(0 0 3.9103e-31)
(0 0 3.93409e-24)
(0 0 9.33948e-17)
(0 0 0)
(0 0 0)
(0 0 -2.60308e-18)
(0 0 -9.34336e-17)
(0 0 5.04224e-18)
(0 0 0)
(0 4.40445e-15 -6.57935e-21)
(0 0 0)
(0 0 0)
(5.80018e-40 0 0)
(0 4.40445e-15 0)
(0 0 0)
(0 3.6777e-19 0)
(0 0 0)
(0 0 0)
(0 0 0)
(0 0 0)
(0 0 0)
(0 0 0)
(0 0 -4.54747e-15)
(0 0 4.54747e-15)
(0 0 4.35943e-15)
(0 0 4.35943e-15)
(0 0 -4.55661e-17)
(0 0 0)
(0 0 -1.14954e-15)
(4.28712e-15 0 -1.16071e-15)
(0 0 0)
(-4.28712e-15 0 -2.15455e-15)
(4.28712e-15 0 -1.19646e-15)
(0 0 4.73938e-18)
(-4.21642e-15 0 0)
(4.37776e-15 0 2.22606e-15)
(0 0 0)
(0 0 0)
(0 0 0)
(0 0 0)
(0 0 0)
(0 0 0)
(0 0 0)
(0 0 0)
(0 0 0)
(0 0 0)
(0 0 0)
(0 0 0)
(0 0 0)
(0 2.13767e-60 0)
(0 4.34159e-57 0)
(0 0 0)
(0 0 0)
(0 0 0)
(0 0 0)
(0 1.46533e-54 0)
(0 0 4.35943e-15)
(0 4.26453e-52 0)
(0 0 0)
(0 0 0)
(0 0 0)
(0 0 0)
(0 0 0)
(0 0 0)
(0 0 0)
(0 0 0)
(0 0 0)
(0 2.28501e-49 0)
(0 8.65396e-47 0)
(0 0 0)
(0 0 0)
(0 0 0)
(0 0 0)
(0 0 0)
(0 3.12605e-44 0)
(0 4.89438e-42 0)
(0 0 0)
(0 0 0)
(0 0 0)
(0 0 0)
(0 0 0)
(0 0 0)
(0 0 0)
(0 0 0)
(0 0 0)
(0 3.60835e-37 0)
(0 1.84257e-39 0)
(0 0 0)
(0 0 0)
(0 0 0)
(0 0 0)
(0 0 0)
(0 -5.88923e-33 0)
(0 1.68984e-35 0)
(0 0 0)
(0 0 0)
(0 0 0)
(0 0 0)
(0 0 0)
(0 0 0)
(0 0 0)
(0 0 0)
(0 0 -2.26891e-21)
(0 0 0)
(0 0 0)
(0 0 0)
(0 0 0)
(0 0 0)
(0 0 4.54747e-15)
(0 0 0)
(0 0 0)
(0 0 4.54747e-15)
(0 0 0)
(0 0 -4.54747e-15)
(0 0 0)
(0 0 0)
(0 0 0)
(0 0 0)
(0 0 0)
(0 0 0)
(0 0 4.27113e-15)
(0 0 0)
(0 0 0)
(0 0 4.18166e-15)
(0 0 0)
(0 0 -4.54747e-15)
(0 0 0)
(0 0 0)
(0 0 0)
(0 0 0)
(0 0 0)
(0 0 0)
(0 0 4.27113e-15)
(0 0 0)
(0 0 0)
(0 0 4.18166e-15)
(0 0 0)
(0 0 -4.54747e-15)
(0 0 0)
(0 0 0)
(0 0 0)
(0 0 0)
(0 0 0)
(0 0 0)
(0 0 4.27113e-15)
(0 0 0)
(0 0 0)
(0 0 4.18166e-15)
(0 0 0)
(0 0 -4.54747e-15)
(0 0 -2.27374e-15)
(0 1.13687e-15 -1.13097e-15)
(0 -1.2722e-21 -4.36198e-15)
(0 0 -1.80911e-16)
(0 -4.45212e-15 -3.28728e-18)
(0 0 0)
(0 -2.27374e-15 1.11909e-15)
(0 -2.27374e-15 2.23877e-15)
(0 0 -4.36328e-15)
(0 0 -4.36324e-15)
(0 -2.36117e-26 -9.27315e-17)
(0 -6.80191e-24 -9.15089e-17)
(0 -3.15574e-21 4.45212e-15)
(0 2.27374e-15 1.11791e-15)
(0 0 -2.25366e-15)
(0 0 -1.78394e-16)
(0 -2.68651e-19 -4.18413e-15)
(0 -1.66783e-21 8.67982e-17)
(0 -1.6104e-19 4.18424e-15)
(1.46535e-34 -1.91357e-17 0)
(0 4.40445e-15 2.17936e-15)
(0 -9.08379e-22 4.54353e-17)
(1.95231e-37 -8.65882e-20 0)
(2.56569e-37 2.24518e-15 1.13687e-15)
(1.46232e-34 -1.91237e-17 0)
(8.84122e-35 -1.15942e-17 0)
(0 0 -4.08883e-15)
(0 0 4.35943e-15)
(0 0 0)
(0 0 3.59909e-15)
(0 0 4.54747e-15)
(0 0 -4.02897e-15)
(0 0 2.3317e-16)
(0 0 -3.74062e-20)
(0 0 0)
(0 4.75717e-67 0)
(0 0 0)
(0 4.19494e-64 0)
(0 0 0)
(0 0 0)
(0 0 0)
(0 1.78208e-54 0)
(0 0 0)
(0 0 0)
(0 1.13776e-51 0)
(0 0 0)
(0 0 0)