/*--------------------------------*- C++ -*----------------------------------*\
  =========                 |
  \\      /  F ield         | OpenFOAM: The Open Source CFD Toolbox
   \\    /   O peration     | Website:  https://openfoam.org
    \\  /    A nd           | Version:  9
     \\/     M anipulation  |
\*---------------------------------------------------------------------------*/
FoamFile
{
    format      ascii;
    class       volScalarField;
    location    "0.0016";
    object      impulseMax;
}
// * * * * * * * * * * * * * * * * * * * * * * * * * * * * * * * * * * * * * //

dimensions      [1 -1 -1 0 0 0 0];

internalField   nonuniform List<scalar> 
13156
(
0
0
0
6.18456e-15
5.09438e-13
1.71274e-11
5.16125e-10
0
0
0
0
7.76102e-15
6.35191e-13
1.90008e-11
0
0
0
0
0
1.15203e-14
5.89595e-13
0
0
0
0
0
0
7.63976e-15
0
0
0
0
0
0
0
4.94563e-10
1.51496e-11
4.03331e-13
1.69772e-15
1.54757e-08
7.94529e-07
1.2495e-08
3.34453e-10
8.95125e-12
1.99361e-13
0.00080047
2.19814e-07
5.60813e-09
1.4588e-10
3.49307e-12
3.64985e-10
1.46259e-08
1.98115e-06
0.000510873
7.62613e-11
2.88884e-09
9.89597e-08
6.80626e-06
0.181559
1.95261e-11
7.39321e-10
2.67527e-08
9.1248e-07
8.56155e-05
0
0
0
0
0
0
0
0
0
1.21266e-16
0
0
0
0
0
0
0
0
3.15291e-15
2.0021e-13
0
0
0
0
0
0
0
1.01863e-14
4.44925e-13
9.57916e-12
0
0
0
0
0
0
1.29755e-14
6.63931e-13
1.9192e-11
3.94032e-10
0
0
0
0
0
9.33748e-15
7.27353e-13
2.55324e-11
7.2577e-10
1.41691e-08
0
0
0
0
5.94203e-15
5.60127e-13
2.34047e-11
8.17608e-10
2.43219e-08
2.73861e-07
0
0
0
1.69772e-15
3.0462e-13
1.43361e-11
5.88219e-10
2.12802e-08
9.90176e-05
9.94563e-05
0
0
0
1.00651e-13
5.25142e-12
2.33797e-10
9.03906e-09
8.44785e-06
6.16017
0
0
0
0
0
0
0
0
0
0
0
0
0
0
0
0
0
0
0
3.46821e-14
0
0
0
0
0
0
0
0
8.68264e-14
1.89066e-12
0
0
0
0
0
0
1.21266e-16
1.25995e-13
3.71607e-12
7.85448e-11
0
0
0
0
0
1.21266e-16
1.34605e-13
4.92522e-12
1.41914e-10
3.25764e-09
0
0
0
0
0
1.05865e-13
4.50746e-12
1.59687e-10
5.06543e-09
9.2266e-08
0
0
0
0
6.08755e-14
2.8158e-12
1.1436e-10
4.39031e-09
9.30938e-07
2.08006e-05
0
0
0
1.5522e-14
1.10025e-12
4.73529e-11
2.06162e-09
3.28202e-07
0.00878222
114.077
0
0
0
0
0
0
0
0
0
0
0
0
0
0
0
0
0
0
0
9.70128e-16
0
0
0
0
0
0
0
0
6.18456e-15
2.83035e-13
0
0
0
0
0
0
0
1.00651e-14
5.0095e-13
1.13369e-11
0
0
0
0
0
0
1.26117e-14
6.43922e-13
1.81464e-11
4.16204e-10
0
0
0
0
0
7.63976e-15
5.85351e-13
1.97639e-11
5.84832e-10
1.42691e-08
0
0
0
0
3.51671e-15
3.88294e-13
1.47584e-11
5.17163e-10
1.651e-08
4.58109e-07
0
0
0
0
1.71228e-13
7.28154e-12
2.79596e-10
1.04409e-08
3.38829e-07
4.27134e-05
0
0
0
0
0
0
0
0
0
0
0
0
0
0
0
0
0
0
0
0
0
0
0
0
0
0
0
0
0
2.48595e-14
0
0
0
0
0
0
0
0
5.23869e-14
1.4718e-12
0
0
0
0
0
0
0
7.4336e-14
2.30648e-12
5.39111e-11
0
0
0
0
0
0
6.39072e-14
2.54125e-12
7.37917e-11
1.85199e-09
0
0
0
0
0
4.48684e-14
1.96778e-12
6.73769e-11
2.0966e-09
5.50749e-08
0
0
0
0
1.85537e-14
1.07478e-12
4.03701e-11
1.42498e-09
4.46676e-08
2.31238e-06
0
0
0
0
0
0
0
0
0
0
0
0
0
0
0
0
0
0
0
0
0
0
0
0
0
0
0
0
0
0
0
0
0
0
0
0
0
0
1.21266e-16
1.04289e-13
0
0
0
0
0
0
0
9.70128e-16
1.66134e-13
4.02457e-12
0
0
0
0
0
0
3.63798e-16
1.79474e-13
5.4041e-12
1.3173e-10
0
0
0
0
0
0
1.42973e-13
5.02053e-12
1.48824e-10
3.83437e-09
0
0
0
0
0
7.65188e-14
3.17426e-12
1.08498e-10
3.34019e-09
8.8773e-08
0
0
0
0
0
0
0
0
0
0
0
0
0
0
0
0
0
0
0
0
0
0
0
0
0
0
0
0
0
0
0
0
0
0
0
0
0
0
0
4.85064e-16
0
0
0
0
0
0
0
0
2.54659e-15
1.74138e-13
0
0
0
0
0
0
0
1.94026e-15
2.37196e-13
5.71757e-12
0
0
0
0
0
0
1.69772e-15
2.23493e-13
6.4482e-12
1.55432e-10
0
0
0
0
0
0
1.40911e-13
4.8299e-12
1.39344e-10
3.44872e-09
0
0
0
0
0
0
0
0
0
0
0
0
0
0
0
0
0
0
0
0
0
0
0
0
0
0
0
0
0
0
0
0
0
0
0
0
0
0
0
0
0
0
0
0
0
0
0
0
0
9.70128e-16
0
0
0
0
0
0
0
0
2.54659e-15
1.86386e-13
0
0
0
0
0
0
0
2.54659e-15
2.12579e-13
5.04175e-12
0
0
0
0
0
0
1.21266e-16
1.59465e-13
4.57476e-12
1.06475e-10
0
0
0
0
0
0
0
0
0
0
0
0
0
0
0
0
0
0
0
0
0
0
0
0
0
0
0
0
0
0
0
0
0
0
0
0
0
0
0
0
0
0
0
0
0
0
0
0
0
0
0
0
0
0
0
0
0
0
0
4.85064e-16
0
0
0
0
0
0
0
0
9.70128e-16
1.3218e-13
0
0
0
0
0
0
0
1.21266e-16
1.21266e-13
2.84429e-12
0
0
0
0
0
0
0
0
0
0
0
0
0
0
0
0
0
0
0
0
0
0
0
0
0
0
0
0
0
0
0
0
0
0
0
0
0
0
0
0
0
0
0
0
0
0
0
0
0
0
0
0
0
0
0
0
0
0
0
0
0
0
0
0
0
0
0
0
0
0
0
0
0
0
0
0
0
0
0
6.07542e-14
0
0
0
0
0
0
0
0
0
0
0
0
0
0
0
0
0
0
0
0
0
0
0
0
0
0
0
0
0
0
0
0
0
0
0
0
0
0
0
0
0
0
0
0
0
0
0
0
0
0
0
0
0
0
0
0
0
0
0
0
0
0
0
0
0
0
0
0
0
0
0
0
0
0
0
0
0
0
0
0
8.19467e-12
2.03751e-12
4.94644e-13
7.6155e-14
3.48494e-12
1.25736e-10
4.13316e-09
1.28019e-07
1.10943e-06
0
0
1.5522e-14
1.21824e-12
6.32952e-11
3.35654e-09
1.40051e-07
0.000209623
27.0025
0
0
2.08941e-13
9.60523e-12
3.87612e-10
1.54636e-08
2.29144e-07
33.8009
0
1.41881e-14
1.14208e-12
5.49564e-11
2.93537e-09
1.12124e-07
3.73943e-06
54.4034
0
8.02781e-14
4.41857e-12
1.98381e-10
7.97453e-09
7.51857e-07
0.0715694
0
1.6759e-13
0
0
3.63798e-16
2.67634e-13
1.15874e-11
4.60611e-10
1.88331e-08
5.17958e-06
0.992378
0
0
4.48684e-14
2.43745e-12
9.66787e-11
3.36495e-09
5.99499e-08
1.63918
0
4.85064e-16
2.94312e-13
1.18e-11
4.23838e-10
1.48595e-08
3.5467e-07
5.72515
0
1.43094e-14
1.07357e-12
4.10242e-11
1.53583e-09
6.11231e-08
1.42491e-05
1.04482
0
3.7835e-14
0
0
0
4.45046e-14
2.29799e-12
9.01557e-11
3.4912e-09
1.19001e-07
4.72768e-07
0
0
2.78912e-15
5.11379e-13
2.1413e-11
8.07461e-10
2.71781e-08
3.12702e-06
0
0
6.66963e-14
3.15473e-12
1.16041e-10
4.11205e-09
1.46396e-07
0.000436023
0
0
2.57933e-13
1.04562e-11
4.02912e-10
1.52107e-08
5.59695e-07
0.00325882
0
2.54659e-15
0
0
0
1.69772e-15
3.71195e-13
1.4816e-11
5.4607e-10
1.82126e-08
3.01559e-07
0
0
0
7.19107e-14
3.43074e-12
1.29472e-10
4.58504e-09
1.67803e-07
2.30336e-05
0
0
4.72937e-15
5.19018e-13
2.16307e-11
7.86734e-10
2.44349e-08
2.2725e-06
0
0
3.73499e-14
1.91309e-12
7.0464e-11
2.32526e-09
7.08048e-08
0.000240314
0
0
0
0
0
0
2.26767e-14
1.29852e-12
4.84969e-11
1.67496e-09
5.08494e-08
0
0
0
9.70128e-16
3.05226e-13
1.27755e-11
4.89178e-10
1.85249e-08
3.88291e-07
0
0
0
3.67436e-14
2.11306e-12
8.18692e-11
2.80821e-09
8.60316e-08
0
0
0
1.78867e-13
7.24613e-12
2.57558e-10
8.57319e-09
2.92783e-07
0
0
9.70128e-16
3.21597e-13
1.28035e-11
4.50807e-10
1.57057e-08
4.53263e-07
0
0
0
0
0
5.26294e-14
2.27701e-12
7.47559e-11
2.19095e-09
5.27939e-08
0
0
0
0
6.54836e-15
6.34221e-13
2.26898e-11
7.60757e-10
2.38335e-08
3.22607e-07
0
0
0
0
1.00893e-13
4.29366e-12
1.46128e-10
4.40244e-09
0
0
0
2.54659e-15
3.81381e-13
1.42218e-11
4.67239e-10
1.5421e-08
0
0
0
9.33748e-15
7.02372e-13
2.51137e-11
8.26523e-10
2.77057e-08
0
0
0
0
0
0
7.16682e-14
2.52367e-12
6.91725e-11
1.57621e-09
0
0
0
0
0
1.54008e-14
7.99992e-13
2.45108e-11
6.66107e-10
1.48226e-08
0
0
0
0
0
1.48187e-13
5.35996e-12
1.54176e-10
0
0
0
0
7.63976e-15
5.48971e-13
1.73267e-11
4.83926e-10
0
0
0
0
1.47944e-14
9.8189e-13
3.05804e-11
8.55564e-10
0
0
0
0
0
0
0
6.16031e-14
1.90521e-12
4.09341e-11
0
0
0
0
0
0
1.54008e-14
6.98371e-13
1.75816e-11
3.52653e-10
0
0
0
0
0
0
1.48066e-13
4.58385e-12
0
0
0
0
0
9.33748e-15
5.26901e-13
1.44436e-11
0
0
0
0
0
2.06152e-14
9.50846e-13
2.53453e-11
0
0
0
0
0
0
0
0
3.7835e-14
9.72068e-13
0
0
0
0
0
0
0
1.00651e-14
4.34375e-13
8.30951e-12
0
0
0
0
0
0
0
1.07805e-13
0
0
0
0
0
0
6.18456e-15
3.76531e-13
0
0
0
0
0
0
1.6856e-14
6.69388e-13
0
0
0
0
0
0
0
0
0
1.26117e-14
0
0
0
0
0
0
0
0
2.54659e-15
1.73168e-13
0
0
0
0
0
0
0
0
0
0
0
0
0
0
0
1.69772e-15
0
0
0
0
0
0
0
4.9719e-15
0.00015606
0.00573671
1.73758e-06
1.90604e-06
6.89011e-05
1.22095e-07
1.81471e-05
5.47208e-07
0.000144778
1.41461e-06
0.00105342
3.69272e-09
6.20344e-08
1.26368e-08
2.12726e-07
2.24776e-08
4.69783e-07
1.06185e-10
1.77773e-09
3.2221e-10
5.20875e-09
5.65361e-10
9.36632e-09
2.72921e-12
4.69235e-11
8.40773e-12
1.33984e-10
1.45591e-11
2.30355e-10
5.09317e-14
1.08412e-12
1.85537e-13
3.20967e-12
3.31541e-13
5.41028e-12
0.15481
18.6071
117.153
66.5105
0.0291829
0.775713
0.00198994
0.0587315
7.08646
0.000497112
0.00785458
0.00771847
19.9962
5.84323e-05
0.150491
17.1769
2.63969e-05
0.000850976
4.10943e-05
0.111278
4.92765
0.0160671
0.00222344
49.393
2.40385
2.06921
0.000197105
0.178216
47.1
5.32191
0.00541034
0.000349409
3.65895
141.556
0.269426
90.3483
0.000144885
0.136591
36.8884
21.2451
3.83675
0.0247735
3.46421e-05
7.77971
5.8911e-05
1.01128
0.00743588
9.54554e-06
0.069797
0.000496759
0.0507468
8.55158e-06
2.54257e-05
2.37228e-05
0.000125012
2.12132
0.00191591
13.3304
0.00436377
1.78746
0.00034464
0.0105118
1.50451e-05
1.71522e-05
8.02566
0.620669
24.8792
1.93007
0.00102153
0.000465952
9.6288e-06
108.971
97.4874
89.6207
54.7057
48.3565
34.0478
39.5263
0.215443
0.00679814
1.60133e-05
0.184747
0.00758712
1.41927e-05
3.83219e-05
6.11302e-05
0.000565073
8.92183e-06
0.0445539
58.7116
0.000719169
0.407292
0.139863
0.0049992
1.05115e-05
3.01477e-05
0.00022102
2.36089e-05
6.35899e-06
133.173
101.052
93.1905
80.1138
72.7545
39.389
45.2129
6.04483e-05
0.47475
0.142114
0.140826
1.24185e-05
4.3091e-05
0.47352
91.4267
49.8549
72.946
19.0633
35.2696
23.1076
10.6431
20.2012
2.51453
21.5039
7.77505
2.82206
0.552868
0.489991
21.432
6.96433
7.72543
2.46957
2.80377
0.547998
0.479442
88.4981
47.5681
86.1059
31.6105
33.1728
11.0181
10.2268
85.8868
49.2158
88.4559
31.4271
33.1381
10.942
10.0231
47.9814
76.1721
68.8789
20.6584
12.753
9.94044
24.9688
1.15164e-05
3.17731e-05
0.369007
1.70034e-05
0.0702101
7.99228e-06
0.0202651
13.2618
5.54558
3.78125
1.87144
1.19986
0.359307
0.228051
115.783
53.9041
76.8302
36.8765
57.5123
27.7562
13.7124
72.9097
42.9293
80.7149
27.9699
23.0045
8.29608
6.05259
0.000999156
0.547651
0.218831
1.02772e-05
0.0525441
6.02642e-06
0.0135168
65.3636
32.3745
73.3411
60.9816
29.048
23.4695
6.10676
0.000253436
7.10712e-06
0.00133438
8.42139e-05
1.35807e-06
1.97003e-05
5.62422e-06
34.9361
33.333
53.6633
12.5596
1.45386
5.18432
4.64436
8.89621
0.988011
2.13381
0.301275
0.650724
0.121815
0.054785
29.4199
62.7929
50.8978
11.1735
17.1166
3.7963
1.98246
0.147393
0.000462136
4.20036e-05
9.72563e-06
0.00212425
5.8425e-06
0.00054568
22.4612
61.0239
54.3951
14.1158
3.33295
2.33045
17.6361
2.219e-05
2.56824e-06
1.0426e-06
1.80829e-05
0.150314
5.41345e-06
0.0412232
28.6244
16.4658
13.0636
4.75539
3.41964
0.800225
1.17101
0.00107036
1.17809e-05
0.0303899
1.37442e-06
7.88935e-05
4.32846e-06
0.008688
12.7812
0.540885
10.0106
4.86079
0.302047
0.210185
6.5515
29.1392
2.5887
24.4393
7.06176
0.493161
0.338171
9.30943
37.9909
25.1139
6.82909
6.09421
2.61116
0.860888
0.322287
1.45619e-05
1.52646e-06
2.24203e-05
1.24916e-05
0.000305198
7.61712e-06
1.00312e-06
2.90505e-06
0.0150067
2.02383e-05
2.76432e-06
2.58015e-05
0.0013868
3.20495e-05
0.000754497
7.11122e-06
1.37282e-05
1.36307e-05
2.30246e-05
9.89544e-07
1.50919e-06
2.51991e-05
2.46082e-06
3.16646e-05
0.00115818
2.40397e-05
2.9421e-05
2.30806e-06
27.0198
28.437
16.0493
8.3592
3.31036
3.63304
0.435252
10.075
1.58487
13.1796
0.0729738
0.932882
0.612442
0.0473721
1.45488e-05
5.19327e-05
5.05619e-05
3.13085e-06
8.61714e-06
1.01805e-06
2.86968e-06
0.000354651
1.96682e-06
1.2411e-05
2.22585e-06
2.91277e-05
5.26999e-07
4.96125e-06
1.30952e-06
8.56521e-06
1.63872e-05
0.000889091
0.000155403
1.51239e-05
2.19964e-05
1.27855
0.174928
1.44448
0.0832201
0.00879068
0.0736113
0.00993154
1.52264
0.230113
5.24645
2.22236
0.0219107
0.0872137
0.57578
0.172909
1.24607
1.42944
0.0823727
0.00855462
0.0717989
0.00982206
16.9535
2.17606
15.9282
1.4267
0.101947
1.28234
0.11324
15.517
2.35455
16.7783
1.40216
0.0967038
0.110879
1.22718
13.9397
23.4821
40.9183
7.90285
0.24017
0.972434
2.50317
1.08886
6.07397
15.4249
3.4391
0.0337505
0.139317
0.897695
18.6231
2.14721
7.13105
0.365253
1.47082
0.329943
0.0812695
0.716092
0.385855
0.117497
0.128169
0.0385988
0.0209442
0.00677876
0.00710121
1.11206e-06
1.63748e-05
1.8292e-05
0.00785703
1.06196e-06
5.33518e-06
4.18254
0.202139
4.59527
0.648642
0.0235599
0.582125
0.0262033
13.7889
0.770645
2.64702
0.249493
0.872457
0.105377
0.0294054
0.00342435
7.19391e-07
4.38256e-06
2.52214e-06
0.000915189
4.07616e-07
8.30534e-06
1.78096
0.761753
0.101094
0.0200661
0.525722
0.0694233
2.55262
0.928369
0.06917
0.585076
0.00630663
0.0531963
0.0331834
0.00390482
4.12615
0.201044
4.58082
0.641621
0.0227992
0.0258996
0.564855
3.26057
0.0896551
2.21202
0.0173305
0.431546
0.284741
0.0112956
0.00119156
6.56438e-06
0.00175731
5.15815e-06
1.82581e-05
3.48393e-06
8.28032e-07
1.07679e-05
0.000361884
4.50716e-06
0.00040106
4.44966e-06
1.05532e-05
1.08503e-06
0.145526
0.00886661
0.164242
0.0311166
0.00154677
0.0275576
0.0017424
0.00880916
0.142901
0.163094
0.03085
0.00151415
0.00172863
0.0269809
0.296004
0.595228
6.75399
0.349673
0.0129144
0.174078
0.026571
5.34688
0.69091
3.86989
0.158948
0.0389276
0.0265125
0.232317
33.236
0.591412
6.79713
0.457843
6.59313
0.548325
0.0314756
2.22633e-06
9.98613e-05
0.0100579
1.21515e-06
2.83965e-05
2.47797e-07
2.35052e-06
1.0171e-05
5.05744e-05
1.35694e-06
1.00018e-06
2.65439e-05
1.89051e-07
2.07644e-06
3.06401e-06
3.67999e-06
3.92598e-05
6.47059e-06
7.22884e-07
1.5937e-06
5.53348e-07
0.106842
0.00359463
0.067478
0.0011372
0.0200517
0.012522
0.000712985
0.748935
0.0545279
0.00818734
0.00712242
0.221026
0.0285471
0.192734
0.0505968
0.635093
1.27825
0.162414
0.00306261
0.0795174
0.00634315
6.73027
0.426226
3.67257
0.208776
3.67499
0.426521
0.0223068
19.5156
0.215414
4.5131
0.13606
2.9775
0.338605
0.0146961
0.817857
8.77306
11.5029
1.00703
0.67218
0.0317813
0.0477811
4.48003
0.544316
0.367046
0.300813
0.203974
0.0152231
0.0226847
8.1332
0.111087
1.19847
0.0390615
0.41663
0.0470378
0.00434888
2.90324e-06
1.22146e-05
1.43332e-06
9.73001e-06
0.000188361
1.66395e-06
2.34993e-05
0.0362634
0.141984
0.313568
0.0174247
0.000928261
0.00771824
0.00205274
0.966355
0.140513
0.00364685
0.0555525
0.0950912
0.0376709
1.41489
0.206567
0.00869081
0.0357135
0.00265393
0.0108181
0.00189425
0.000481124
0.127858
0.0473633
0.678399
0.0054227
0.0743601
0.0274596
0.00198914
0.332675
0.528247
0.369977
0.0148786
0.0192529
0.0214442
0.0133569
0.3313
0.529192
0.370262
0.0148688
0.0191428
0.0132603
0.0214505
5.10907e-06
9.23262e-07
0.000251987
1.32282e-07
1.59394e-06
4.3126e-07
1.91125e-05
2.29705e-07
6.51763e-07
7.35732e-08
1.70502e-06
0.000193674
2.29683e-07
5.1532e-06
0.193365
0.360282
0.0622389
0.0422343
0.0136306
0.00727483
0.00159807
1.2913e-05
9.79079e-07
0.000362324
1.11499e-07
1.11845e-06
1.66142e-07
2.38211e-06
3.48845e-05
1.08798e-06
3.03288e-06
4.69577e-07
1.56396e-06
4.94327e-06
6.22745e-07
0.00188298
0.0162551
0.0360168
0.00656506
0.000183295
0.000389092
0.00290708
0.20047
0.00506082
0.137515
0.0305981
0.00167581
0.00113971
0.0448964
0.414269
0.284525
1.68356
0.0641059
0.00257035
0.0106735
0.0155492
0.27513
0.00385487
0.103323
0.00129488
0.0336092
0.0124005
0.000473715
0.194217
0.0282686
0.0315155
0.00922751
0.0102434
0.00166634
0.00150058
0.210967
0.0274515
0.0311401
0.00879968
0.0100462
0.00164966
0.00146292
1.17599
0.00512277
0.135198
0.00556427
0.148647
0.0167913
0.000635107
5.77362
0.0531834
0.871958
0.017522
0.278337
0.0351125
0.0022406
0.257505
0.247065
0.171852
0.0147606
0.0101983
0.00670264
0.00970712
4.35008
1.16622
0.0520414
0.0637471
0.267506
0.0123569
0.00290209
3.79529e-09
3.21495e-08
5.04399e-09
3.84376e-09
4.88934e-09
1.31707e-07
2.6131e-08
1.0293e-07
2.84269e-07
0.00114717
1.07722e-06
1.31165e-07
3.98622e-06
7.23797e-07
6.41788e-08
3.03661e-07
8.87379e-06
4.88699e-06
1.8964e-06
1.08677e-06
1.68416e-06
2.88548e-08
5.59279e-13
2.15323e-09
2.97382e-10
4.98949e-12
1.6959e-12
2.86915e-13
6.19305e-13
8.97174e-12
3.45244e-12
5.80051e-12
4.15542e-11
4.82757e-11
5.72071e-11
4.09053e-11
1.75281e-08
7.73483e-10
1.0024e-08
1.11553e-08
9.25159e-10
3.56426e-09
4.70813e-10
3.78868e-10
2.60261e-12
8.19176e-12
2.27665e-12
8.07789e-12
4.1933e-11
2.21745e-11
1.30325e-12
3.30935e-13
1.07454e-12
2.58296e-13
1.13432e-12
7.57791e-13
1.16415e-14
0
6.00267e-14
0
0
5.35415e-10
4.22156e-09
6.92242e-09
4.43129e-10
2.90132e-10
4.44688e-10
3.03101e-10
2.08369e-09
1.04602e-08
2.16683e-09
1.0605e-08
5.55811e-11
2.74819e-10
2.94134e-10
1.75186e-09
7.10697e-11
5.25296e-11
5.44193e-11
5.27338e-10
2.26642e-10
5.2236e-10
2.05537e-10
8.51224e-10
5.24595e-11
9.07955e-10
2.0791e-12
2.12329e-08
3.46954e-06
3.07045e-09
2.86236e-08
4.44161e-12
2.33462e-11
3.10865e-11
2.03238e-10
6.349e-12
3.53515e-12
2.06467e-12
3.932e-11
2.32144e-11
3.87747e-11
2.47509e-11
7.21677e-11
5.89533e-11
1.31559e-11
1.62336e-10
7.89007e-10
1.64853e-10
7.79204e-10
3.54661e-09
1.82825e-09
1.88692e-09
2.152e-10
1.89474e-10
8.99837e-11
8.8077e-11
2.79072e-08
2.14662e-09
6.29921e-09
1.43482e-09
1.63567e-09
8.19325e-08
3.15451e-08
5.24259e-11
6.32645e-13
1.16655e-11
6.55647e-11
4.2477e-12
2.75334e-12
6.34003e-12
1.96572e-13
1.16258e-12
1.9844e-12
5.93597e-13
6.8257e-12
7.81147e-12
4.78431e-12
6.22761e-12
5.35438e-12
2.83392e-11
6.30214e-11
2.13814e-11
6.72873e-11
6.55347e-10
1.25868e-10
1.26163e-10
4.83721e-11
2.43065e-12
8.17721e-12
2.23323e-12
8.90783e-12
2.55439e-11
6.67075e-10
1.88862e-11
4.81426e-13
3.51671e-15
1.50104e-08
3.75174e-10
1.48454e-12
2.63617e-11
9.25975e-12
2.86188e-14
7.09163e-13
2.07729e-13
0
7.88229e-15
6.98221e-08
5.85675e-08
8.28989e-07
1.60174e-07
7.32098e-08
1.66136e-07
7.2712e-08
6.42844e-08
5.53381e-09
1.69018e-08
3.85234e-09
9.57294e-09
4.86665e-09
4.74545e-09
0
6.66963e-14
0
0
0
0
1.69772e-15
0
4.85064e-16
3.10877e-12
1.11275e-10
9.93168e-14
4.2819e-13
5.83289e-14
3.14443e-13
5.65427e-12
2.98278e-12
1.83732e-11
1.49905e-11
2.56802e-10
1.40721e-10
0
0
0
0
0
0
0
0
0
0
0
0
0
0
0
0
0
0
0
0
0
0
0
0
0
0
0
0
0
0
0
0
0
0
0
0
0
0
0
0
0
0
0
0
0
0
0
0
0
0
0
0
0
0
0
0
0
0
0
0
0
0
0
0
0
0
0
0
0
0
0
0
0
0
0
0
0
0
0
0
0
0
0
0
0
0
0
0
0
0
0
0
0
0
0
0
0
0
0
0
0
0
0
4.42621e-14
7.27596e-16
5.60249e-14
3.63798e-14
2.99527e-14
2.80124e-14
3.25599e-13
3.51671e-15
0
2.78912e-15
0
0
1.64437e-13
0
0
0
0
9.70128e-15
0
0
0
0
0
0
0
2.07923e-12
2.21432e-13
2.18521e-12
2.02284e-12
2.09438e-12
1.52747e-12
1.20808e-11
3.29722e-13
1.03197e-13
2.61449e-13
8.31133e-12
1.0327e-12
0
3.11605e-12
1.01184e-12
1.80173e-11
9.20894e-12
8.23469e-12
6.45038e-12
3.97631e-13
1.94935e-12
1.21411e-12
8.1612e-14
2.63511e-13
1.43543e-12
2.79288e-12
2.24221e-13
1.40584e-12
8.40373e-14
4.08666e-14
1.6149e-12
7.2032e-14
6.17608e-13
1.34484e-13
6.83334e-13
3.24993e-14
3.27418e-15
2.6921e-14
1.54008e-13
2.19613e-13
6.79089e-15
1.20053e-14
1.29148e-13
5.68616e-13
3.95755e-11
6.2937e-14
6.67278e-12
0
2.75152e-13
0
3.03165e-15
0
3.63798e-16
0
4.62023e-14
2.20704e-14
1.12777e-14
9.08282e-14
4.12304e-15
9.07069e-14
1.9673e-12
2.78063e-13
1.87271e-12
0
0
3.63798e-15
0
1.78261e-14
0
1.04289e-14
0
8.24609e-15
3.0559e-13
8.48862e-15
2.29314e-13
2.55265e-13
4.76333e-13
0
0
0
2.18279e-15
0
0
0
0
0
2.2798e-14
7.39722e-15
3.27418e-14
0
4.12304e-15
1.17628e-14
0
0
0
0
0
0
0
0
0
0
0
0
0
2.78912e-15
6.17244e-14
0
0
0
0
0
0
0
0
0
3.63798e-16
0
0
0
0
0
0
0
0
0
0
4.48684e-15
4.85064e-16
1.07563e-13
4.63236e-14
4.85064e-16
1.07199e-13
4.85064e-15
1.69772e-15
2.41319e-14
0
5.21444e-14
0
5.14168e-14
1.69772e-15
0
0
0
0
0
0
0
0
0
0
0
0
0
0
0
0
9.21621e-15
2.54659e-15
0
0
6.66963e-15
0
0
0
0
0
1.21266e-16
0
0
4.23218e-14
0
2.18279e-15
1.69772e-15
1.60071e-14
0
0
0
0
0
0
0
0
0
0
0
0
0
0
0
0
0
0
0
0
0
0
0
0
1.21266e-16
3.63798e-16
0
0
0
0
0
0
0
0
0
0
0
0
0
0
0
0
0
0
0
0
0
0
0
0
0
0
0
0
0
0
0
0
0
0
0
0
0
0
2.42532e-14
9.99232e-14
0
7.63976e-15
1.85537e-14
1.07078e-13
1.94026e-15
0
0
0
0
0
0
0
0
0
0
0
0
0
0
0
0
0
0
0
0
0
0
0
0
0
0
0
0
7.48817e-13
0
1.10716e-13
0
7.27596e-16
0
0
0
0
0
0
2.80124e-14
0
2.83762e-14
0
0
0
0
0
0
9.70128e-16
0
9.70128e-16
0
0
0
0
0
0
0
0
0
0
0
0
0
0
0
0
0
0
0
0
0
0
0
0
0
0
0
0
0
0
0
0
0
0
0
0
0
0
0
0
0
0
0
0
0
0
0
0
0
0
0
0
0
0
0
0
0
0
0
0
0
0
0
0
0
0
0
0
0
0
0
0
0
0
0
0
0
0
0
0
0
0
0
0
0
0
0
0
0
0
0
0
0
0
0
0
0
0
0
0
0
0
0
0
0
0
0
0
0
2.83762e-14
1.12462e-12
0
0
0
0
0
0
2.24342e-14
0
0
0
0
0
0
0
0
0
0
0
0
0
0
0
0
0
0
0
0
0
0
0
0
0
0
0
0
0
0
0
0
0
0
0
0
0
0
0
0
0
0
0
0
0
0
0
0
0
0
0
0
0
0
0
0
0
0
0
0
1.26769e-10
3.51623e-12
7.88229e-14
0
0
2.19839e-11
6.12272e-13
1.04289e-14
0
0
8.61231e-13
1.62496e-14
0
0
0
1.98876e-14
0
0
0
0
0
0
0
0
0
0
0
0
0
0
0
0
0
0
0
0
0
0
0
0
0
0
0
0
0
0
0
0
0
0
0
0
0
0
0
0
0
0
0
0
0
0
0
0
0
4.28069e-14
2.64348e-12
0
0
0
0
0
0
0
7.88229e-14
0
0
0
0
0
0
0
0
0
0
0
0
0
0
0
0
0
0
0
0
0
0
0
0
0
0
0
0
0
0
0
0
4.72937e-15
4.47471e-13
0
0
0
0
0
0
0
1.04289e-14
0
0
0
0
0
0
0
0
0
0
0
0
0
0
0
0
0
0
0
0
0
0
0
0
0
0
0
0
0
0
0
0
0
0
0
0
0
0
9.70128e-15
0
0
0
0
0
0
0
0
0
0
0
0
0
0
0
0
0
0
0
0
0
0
0
0
0
0
0
0
0
0
0
0
0
0
0
0
0
0
0
0
0
0
0
0
0
0
0
0
0
0
0
0
0
0
0
0
0
0
0
0
0
0
0
0
0
0
0
0
0
0
0
0
0
0
0
0
0
0
0
0
0
0
0
0
0
0
0
0
0
0
0
0
0
0
0
0
0
0
0
0
0
0
0
0
0
0
0
0
0
0
0
0
0
0
0
0
0
0
0
0
0
0
0
0
0
0
0
0
0
0
0
0
0
0
0
0
0
0
0
0
0
0
0
0
0
0
0
0
0
0
0
0
0
0
0
0
0
0
0
0
0
0
0
0
0
0
0
0
0
0
0
0
0
0
0
0
0
0
0
0
0
0
0
0
0
0
0
0
0
0
0
0
0
0
0
0
0
0
0
0
0
0
0
0
0
0
0
0
0
0
0
0
0
0
0
0
0
0
0
0
0
0
0
0
0
0
0
0
0
0
0
0
0
0
0
0
0
0
0
0
0
0
0
0
0
0
0
0
0
0
0
0
0
0
0
0
0
0
0
0
0
0
0
0
0
0
0
0
0
0
0
0
0
0
0
0
0
0
0
0
0
0
0
0
0
0
0
0
0
0
0
0
0
0
0
0
0
0
0
0
0
0
0
0
0
0
0
0
0
0
0
0
0
0
0
0
0
0
0
0
0
0
0
0
0
0
0
0
0
0
0
0
0
0
0
0
0
0
0
0
0
0
0
0
0
0
0
0
0
0
0
0
0
0
0
0
0
0
0
0
0
0
0
0
0
0
0
0
0
0
0
0
0
0
0
0
0
0
0
0
0
0
0
0
0
0
0
0
0
0
0
0
0
0
0
0
0
0
0
0
0
0
0
0
0
0
0
0
0
0
0
0
0
0
0
0
0
0
0
0
0
0
0
0
0
0
0
0
0
0
0
0
0
0
0
0
0
0
0
0
0
0
0
0
0
0
0
0
0
0
0
0
0
0
0
0
0
0
0
0
0
0
0
0
0
0
0
0
0
0
0
0
0
0
0
0
0
0
0
0
0
0
0
0
0
0
0
0
0
0
0
0
0
0
0
0
0
0
0
0
0
0
0
0
0
0
0
0
0
0
0
0
0
0
0
0
0
0
0
0
0
0
0
0
0
0
0
0
0
0
0
0
0
0
0
0
0
0
0
0
0
0
0
0
0
0
0
0
0
0
0
0
0
0
0
0
0
0
0
0
0
0
0
0
0
0
0
0
0
0
0
0
0
0
0
0
0
0
0
0
0
0
0
0
0
0
0
0
0
0
0
0
0
0
0
0
0
0
0
0
0
0
0
0
0
0
0
0
0
0
0
0
0
0
0
0
0
0
0
0
0
0
0
0
0
0
0
0
0
0
0
0
0
0
0
0
0
0
0
0
0
0
0
0
0
0
0
0
0
0
0
0
0
0
0
0
0
0
0
0
0
0
0
0
0
0
0
0
0
0
0
0
0
0
0
0
0
0
0
0
0
0
0
0
0
0
0
0
0
0
0
0
0
0
0
0
0
0
0
0
0
0
0
0
0
0
0
0
0
0
0
0
0
0
0
0
0
0
0
0
0
0
0
0
0
0
0
0
0
0
0
0
0
0
0
0
0
0
0
0
0
0
0
0
0
0
0
0
0
0
0
0
0
0
0
0
0
0
0
0
0
0
0
0
0
0
0
0
0
0
0
0
0
0
0
0
0
0
0
0
0
0
0
0
0
0
0
0
0
0
0
0
0
0
0
0
0
0
0
0
0
0
0
0
0
0
0
0
0
0
0
0
0
0
0
0
0
0
0
0
0
0
0
0
0
0
0
0
0
0
0
0
0
0
0
0
0
0
0
0
0
5.09317e-15
0
0
0
0
0
0
0
0
0
0
0
0
0
0
0
0
0
2.06152e-14
0
0
0
0
0
0
0
0
0
0
0
0
0
0
0
0
0
0
0
0
0
0
0
0
0
0
0
0
0
0
0
0
0
0
0
0
0
0
0
0
0
0
0
0
0
0
0
0
0
0
0
0
0
0
0
0
0
0
0
0
0
0
0
0
0
0
0
0
0
0
0
0
0
0
0
0
0
0
0
0
0
0
0
0
0
0
0
0
0
0
0
0
0
0
0
0
0
0
0
0
0
0
0
0
0
0
0
0
0
0
0
0
0
0
2.54659e-15
0
0
0
0
0
0
0
0
0
0
0
0
4.85064e-16
0
0
0
0
0
0
0
0
0
0
0
0
0
0
0
0
0
0
0
0
0
0
0
0
0
0
0
0
0
0
0
0
0
0
0
0
0
0
0
0
0
0
0
0
0
0
0
0
0
0
0
0
0
0
0
0
0
0
0
0
0
0
0
0
0
0
0
0
0
0
0
0
0
0
0
0
0
0
0
0
0
0
0
0
0
0
0
0
0
0
0
0
0
0
0
0
0
0
0
0
0
0
0
0
0
0
0
0
0
0
0
0
0
0
0
0
0
0
0
0
0
0
0
0
0
0
0
0
0
0
0
0
0
0
0
0
0
0
0
0
0
0
0
0
0
0
0
0
0
0
0
0
0
0
0
0
0
0
0
0
0
0
0
0
0
0
0
0
0
0
0
0
0
0
0
0
0
0
0
0
0
0
0
0
0
0
0
0
0
0
0
0
0
0
0
0
0
0
0
0
0
0
0
0
0
0
0
0
0
0
0
0
0
0
0
0
0
0
0
0
0
0
0
0
0
0
0
0
0
0
0
0
0
0
0
0
0
0
0
0
0
0
0
0
0
0
0
0
0
0
0
0
0
0
0
0
0
0
0
0
0
0
0
0
0
0
0
0
0
0
0
0
0
0
0
0
0
0
0
0
0
0
0
0
0
0
0
0
0
0
0
0
0
0
0
0
0
0
0
0
0
0
0
0
0
0
0
0
0
0
0
0
0
0
0
0
0
0
0
0
0
0
0
0
0
0
8.24609e-15
5.42059e-13
0
0
0
0
0
0
0
0
0
0
0
0
0
0
0
0
0
0
0
0
0
0
0
0
0
0
0
0
0
0
0
0
0
0
0
0
0
0
0
0
0
0
0
0
0
0
0
0
0
0
0
0
0
0
0
0
0
0
0
0
0
0
0
0
0
0
0
0
0
0
0
0
0
0
0
0
0
0
0
0
0
0
0
0
0
0
0
0
0
2.72848e-14
2.54659e-15
3.51671e-15
0
0
0
0
0
0
0
0
0
0
0
0
0
0
0
0
0
0
0
0
0
0
0
0
0
0
0
0
0
0
0
0
0
0
0
0
0
0
0
0
0
0
0
0
0
0
0
0
0
0
0
0
0
0
0
0
0
0
0
0
0
0
0
0
0
0
0
0
0
0
0
0
0
0
0
0
0
0
0
0
0
0
0
0
0
0
0
0
0
0
0
0
0
0
0
0
0
0
0
0
0
0
0
0
0
0
2.67998e-14
0
6.00267e-14
0
3.30147e-12
4.54747e-14
0
4.45895e-13
9.45874e-15
2.02272e-13
1.5522e-13
1.81778e-13
1.7244e-13
1.00651e-14
6.18456e-15
0
0
7.88229e-15
7.76102e-15
0
1.41881e-14
2.55871e-14
4.36557e-15
3.39545e-14
1.91748e-11
0
0
3.05493e-12
4.39953e-13
4.56324e-13
1.54008e-14
1.88084e-13
1.44306e-14
1.66983e-13
3.51671e-15
0
2.54659e-15
0
1.69772e-14
3.27418e-15
0
4.87489e-14
5.98162e-10
9.70128e-15
4.0612e-13
0
3.75967e-11
9.76518e-12
2.83352e-10
0
0
1.52795e-14
1.54735e-13
0
1.33393e-15
2.74061e-14
0
7.27596e-16
6.88791e-14
4.73059e-13
1.02951e-11
2.62965e-12
1.24272e-10
3.16474e-11
2.23202e-12
1.12117e-10
1.17449e-11
5.99539e-12
2.14745e-11
6.70722e-13
4.23165e-11
1.41905e-12
6.38156e-11
3.53575e-12
0
0
3.63798e-16
0
0
0
0
0
0
0
0
0
0
0
1.33393e-15
0
0
0
1.46732e-14
0
0
1.62496e-14
0
0
3.63798e-16
0
6.79089e-15
2.54659e-15
6.33008e-14
2.59509e-14
0
4.09879e-14
3.88051e-15
1.59707e-13
9.21621e-15
0
9.8953e-14
0
7.27596e-16
0
0
0
0
0
2.76486e-14
3.51671e-15
1.21266e-16
3.63798e-16
0
1.69772e-15
0
7.51849e-15
0
0
0
0
0
0
0
0
0
0
0
0
0
0
0
0
0
0
0
0
0
0
0
0
0
4.36315e-13
0
1.26117e-14
9.43449e-14
4.66389e-13
4.85064e-16
1.6856e-14
0
0
0
0
0
0
0
0
0
0
1.36703e-12
4.52686e-13
9.93859e-12
2.28586e-12
1.66716e-12
1.07949e-11
6.71692e-13
3.10441e-13
1.74623e-13
2.04454e-13
1.26117e-14
2.95889e-14
9.13133e-14
6.09568e-12
4.33647e-12
1.04313e-12
6.68054e-13
3.83564e-13
9.81042e-14
1.6554e-12
1.02051e-11
4.01742e-12
4.0196e-12
1.61041e-13
4.92946e-13
1.90994e-13
4.71482e-13
2.58296e-14
6.75694e-13
5.32358e-14
2.33194e-13
7.79376e-13
4.00905e-13
5.40846e-14
4.87489e-14
6.17365e-13
4.61781e-13
1.40547e-13
5.57823e-15
1.09139e-14
1.69772e-15
1.18477e-13
0
5.56611e-14
2.2798e-14
4.43833e-14
0
0
1.95986e-06
8.98136e-08
2.53147e-08
4.40559e-13
7.71252e-14
9.70128e-16
5.63923e-12
2.5381e-13
3.35349e-12
8.53227e-13
3.24993e-14
7.2517e-14
2.91038e-14
0
3.86518e-08
1.24653e-09
8.22566e-09
1.29157e-10
9.91842e-11
1.11148e-11
3.89069e-08
6.88354e-12
7.70485e-11
5.6437e-10
1.67909e-08
3.80739e-12
4.78957e-11
3.41104e-09
1.09358e-12
1.35743e-11
3.2856e-11
4.28111e-10
4.58264e-13
9.59335e-13
7.04456e-11
5.63887e-14
3.70225e-13
6.05323e-12
3.0074e-14
4.21884e-13
9.03553e-13
8.84514e-13
1.49885e-13
4.72937e-14
9.32535e-14
1.23691e-14
1.26117e-14
3.51671e-15
0
5.50353e-12
5.67282e-13
2.08214e-13
3.81867e-13
1.97494e-12
4.13396e-13
1.04289e-14
1.27329e-14
4.86277e-14
1.78746e-13
2.76486e-14
3.39545e-15
0
7.03343e-15
6.71425e-12
1.17366e-11
1.17039e-11
1.57268e-10
1.12585e-10
1.11941e-10
1.54782e-10
7.78669e-11
1.15031e-09
1.09905e-09
7.10679e-12
3.27976e-12
5.19443e-12
8.67738e-11
5.35753e-11
5.65418e-11
7.10935e-11
2.94012e-11
7.22902e-10
4.53627e-10
1.98003e-12
8.11997e-13
1.28554e-12
1.69143e-11
1.47001e-11
2.38677e-11
1.29739e-11
6.24774e-12
9.78537e-11
2.25448e-10
2.29556e-13
2.54537e-13
6.50713e-13
7.1884e-12
3.67897e-12
3.56667e-12
5.51154e-12
2.50511e-12
3.5882e-11
1.30293e-11
1.95481e-13
2.03363e-13
9.43449e-14
2.13743e-12
1.27839e-12
2.25361e-12
7.53789e-13
3.79562e-13
3.55127e-12
4.52868e-12
9.91956e-14
3.50459e-14
1.3315e-13
1.40317e-12
4.25886e-13
4.30252e-13
1.18343e-12
3.06803e-14
3.98359e-13
4.00109e-07
5.77041e-09
1.33689e-07
3.14245e-08
2.15327e-07
3.33016e-09
6.03979e-08
4.41182e-08
7.98868e-10
1.28124e-08
6.54455e-09
1.22278e-08
3.97762e-10
1.87223e-09
1.79399e-09
2.04141e-09
4.69437e-09
1.29944e-10
5.07076e-10
2.78235e-09
2.25632e-10
8.36735e-15
2.54659e-15
4.9719e-15
2.13064e-13
2.95979e-11
1.52553e-13
7.50285e-12
8.7069e-14
5.42059e-12
7.39722e-14
5.05982e-11
1.22782e-12
3.60846e-11
3.20798e-11
1.64964e-11
1.11399e-11
4.48296e-12
2.25009e-12
2.68604e-13
5.92869e-13
7.39722e-14
1.0441e-13
3.91689e-14
2.14641e-14
6.01479e-14
5.94203e-15
1.69772e-15
1.44306e-14
4.15942e-14
1.69772e-15
6.18456e-15
2.68362e-13
3.77137e-14
1.07442e-13
4.34223e-10
3.99545e-10
5.41315e-09
5.20021e-09
1.99263e-10
1.46227e-10
1.96375e-09
5.74945e-11
3.09793e-11
6.84215e-10
4.21815e-10
3.4579e-12
7.45555e-12
4.54272e-11
7.91867e-13
1.17422e-12
1.23084e-11
7.10776e-12
4.52201e-13
2.99284e-13
6.16152e-13
3.17923e-12
4.11771e-12
5.87958e-12
1.59246e-12
1.37152e-13
7.37297e-14
1.88205e-13
1.18901e-12
1.76199e-12
9.82012e-13
1.48878e-12
2.35377e-13
7.26383e-14
1.11565e-13
9.62245e-13
1.22163e-12
1.1684e-12
4.47714e-13
1.48684e-12
3.78714e-13
1.17713e-12
1.24448e-11
4.71809e-12
3.5041e-12
1.23232e-11
3.80775e-14
2.00089e-13
1.05977e-10
2.00938e-12
4.81547e-13
1.22357e-13
7.567e-14
2.28586e-13
2.38773e-13
2.26282e-12
1.88934e-11
2.05059e-11
1.52383e-12
8.21456e-13
2.4058e-12
1.76163e-11
8.31763e-12
2.31542e-11
5.2433e-12
0
1.47338e-13
7.83111e-12
3.74081e-10
1.63616e-08
0
4.85064e-16
0
3.18929e-14
1.95323e-12
7.46694e-11
2.64792e-09
0
0
0
2.54659e-15
4.79971e-13
1.81781e-11
6.6781e-10
0
0
0
0
7.42148e-14
3.66708e-12
1.29597e-10
0
0
0
0
0
0
0
0
8.50074e-14
0
0
0
0
1.69772e-15
0
0
0
0
0
0
0
0
0
0
0
0
0
0
0
0
0
0
0
0
0
0
0
0
0
0
0
0
0
0
0
0
0
0
0
0
0
0
0
0
0
0
0
0
0
0
0
0
0
0
0
0
0
0
0
0
0
0
0
0
0
0
0
0
0
0
0
0
0
0
0
0
0
0
0
3.4391e-13
0
0
0
0
0
0
0
0
0
0
0
0
0
0
0
0
0
0
0
0
0
0
0
0
0
0
0
0
0
0
0
0
0
0
0
0
0
1.69772e-15
7.63976e-15
0
2.44957e-14
9.54363e-14
4.24795e-13
2.54901e-13
7.51606e-13
4.72937e-15
4.38983e-14
0
0
0
0
0
0
0
0
0
0
0
0
0
0
0
0
0
0
0
0
0
0
0
0
0
0
0
0
0
0
0
0
0
0
0
0
0
0
0
0
0
0
0
0
0
0
0
1.86871e-13
9.9848e-12
5.36179e-10
0
0
1.61284e-14
2.85678e-12
8.79651e-12
8.81662e-11
4.9719e-15
9.26472e-13
5.37365e-11
0
2.06516e-13
0
0
0
0
0
0
0
1.73895e-13
0
0
1.06714e-14
1.25025e-13
0
0
6.18456e-15
1.81717e-12
2.54659e-15
6.01479e-14
0
0
1.21266e-16
2.4617e-14
0
0
4.85064e-16
3.81381e-13
1.21266e-16
9.33748e-15
0
0
0
9.76191e-14
0
0
0
0
0
0
0
0
0
0
0
0
0
0
0
0
0
0
0
0
0
0
0
0
0
0
0
0
0
0
0
0
0
0
0
0
0
0
0
0
0
0
0
0
0
0
0
0
0
0
0
0
0
0
0
0
0
0
0
0
0
0
0
0
0
0
0
0
0
0
0
0
0
0
0
0
1.21266e-16
0
0
1.21266e-16
0
0
0
9.70128e-15
1.26117e-14
2.2798e-14
2.54659e-15
0
0
0
0
0
0
0
0
0
0
9.70128e-15
7.88229e-15
1.74623e-14
1.69772e-15
4.72937e-15
2.93464e-14
3.29843e-14
4.29888e-13
1.3412e-13
1.15203e-13
4.59598e-13
2.6436e-14
1.21266e-15
1.70985e-14
3.37483e-13
8.05206e-14
8.56138e-14
2.97708e-13
0
0
0
0
0
0
0
0
0
0
3.63798e-16
1.69772e-15
0
5.21444e-15
0
0
0
0
0
0
0
0
0
0
1.21266e-16
0
9.70128e-16
0
7.88229e-15
0
5.94203e-15
1.50491e-13
5.49335e-14
1.56191e-13
4.02603e-14
0
0
2.54659e-15
7.36084e-14
1.27329e-14
1.43094e-14
5.22656e-14
0
0
0
0
0
0
0
0
0
0
0
0
0
0
0
0
0
2.99527e-14
8.60988e-15
2.92251e-14
4.9719e-15
0
0
0
1.70985e-14
1.69772e-15
3.63798e-16
1.09139e-14
0
0
0
0
0
3.83358e-12
1.59938e-12
3.33481e-14
0
2.54659e-15
0
0
0
0
0
1.43094e-14
0
0
0
0
0
0
0
0
0
0
0
0
0
0
0
0
0
0
0
0
0
0
0
0
0
0
0
0
0
0
0
0
0
0
0
0
0
0
0
0
1.69772e-15
0
1.69772e-15
0
0
0
0
0
0
0
0
8.05934e-13
1.69772e-15
3.38332e-14
1.52068e-13
7.37176e-13