/*--------------------------------*- C++ -*----------------------------------*\
  =========                 |
  \\      /  F ield         | OpenFOAM: The Open Source CFD Toolbox
   \\    /   O peration     | Website:  https://openfoam.org
    \\  /    A nd           | Version:  9
     \\/     M anipulation  |
\*---------------------------------------------------------------------------*/
FoamFile
{
    format      ascii;
    class       volVectorField;
    location    "0.0016";
    object      rhoU;
}
// * * * * * * * * * * * * * * * * * * * * * * * * * * * * * * * * * * * * * //

dimensions      [1 -2 -1 0 0 0 0];

internalField   nonuniform List<vector> 
13156
(
(0 0 1.05317e-16)
(8.64303e-17 0 4.2364e-15)
(-1.05152e-14 0 5.20498e-15)
(-5.56022e-13 3.96009e-14 2.47075e-13)
(-1.90956e-11 1.80637e-12 9.63055e-12)
(-5.76488e-10 6.80438e-11 3.15753e-10)
(-1.73357e-08 2.39002e-09 9.88422e-09)
(0 0 -4.45656e-20)
(-8.26758e-19 0 -6.18465e-19)
(0 0 -1.84682e-18)
(-1.44726e-14 0 7.65139e-15)
(-7.21213e-13 6.897e-14 4.60942e-13)
(-2.20383e-11 2.84084e-12 1.57088e-11)
(-5.89341e-10 8.99882e-11 4.68997e-10)
(0 0 0)
(0 0 0)
(0 0 0)
(0 0 0)
(-1.72756e-14 1.89478e-16 1.12738e-14)
(-6.86708e-13 8.75389e-14 5.82345e-13)
(-1.81333e-11 2.86832e-12 1.74381e-11)
(0 0 0)
(0 0 0)
(0 0 0)
(0 0 0)
(0 0 0)
(-1.30563e-14 1.89478e-16 1.30325e-14)
(-4.80972e-13 7.29491e-14 5.38248e-13)
(0 0 0)
(0 0 0)
(0 0 0)
(0 0 0)
(0 0 0)
(0 0 0)
(-5.52308e-15 0 9.37916e-15)
(-1.51082e-08 2.57304e-09 1.39862e-08)
(-4.05187e-10 7.4076e-11 4.55664e-10)
(-1.07368e-11 1.9916e-12 1.389e-11)
(-2.42915e-13 3.58114e-14 3.60949e-13)
(-5.90616e-07 9.01824e-08 3.79276e-07)
(-5.13087e-05 6.36983e-06 4.1862e-05)
(-3.52351e-07 7.06723e-08 4.40015e-07)
(-7.27147e-09 1.59669e-09 1.09426e-08)
(-1.79357e-10 4.03664e-11 2.97787e-10)
(-4.30396e-12 9.78654e-13 7.64171e-12)
(-0.0431417 0.00478648 0.0472811)
(-4.32754e-06 9.65626e-07 6.58319e-06)
(-9.64722e-08 2.527e-08 2.00246e-07)
(-2.13383e-09 5.85831e-10 4.73189e-09)
(-5.10053e-11 1.42292e-11 1.19448e-10)
(-1.38371e-08 -2.56935e-10 6.16232e-10)
(-4.44941e-07 -1.26137e-08 2.79682e-08)
(-0.000105717 1.57742e-07 4.50572e-06)
(-0.046673 0.00154408 0.00458104)
(-2.95985e-09 -5.04323e-11 6.11039e-10)
(-1.30382e-07 -1.70693e-09 2.43369e-08)
(-3.2474e-06 -1.89035e-08 6.93349e-07)
(-0.000477812 7.39007e-06 0.000105015)
(-16.5125 0.72542 5.51428)
(-7.07137e-10 -1.08948e-11 1.04273e-10)
(-2.59094e-08 -3.51529e-10 3.98606e-09)
(-7.89401e-07 -1.29559e-08 1.49676e-07)
(-3.68366e-05 6.25319e-07 7.26001e-06)
(-0.00553587 0.000220197 0.00159473)
(0 0 0)
(1.51935e-31 0 0)
(-3.17269e-29 0 0)
(-3.79253e-25 0 0)
(-1.37599e-22 0 0)
(-6.88571e-21 0 0)
(-5.54191e-19 0 0)
(-3.7292e-17 0 0)
(-1.84241e-15 -5.49486e-15 0)
(-7.05878e-14 -2.10397e-13 4.04613e-15)
(0 0 0)
(9.45014e-30 0 0)
(-6.67935e-27 0 0)
(-7.19373e-23 0 0)
(-2.13987e-20 0 0)
(-1.38045e-18 0 0)
(-9.35243e-17 0 0)
(-6.79542e-15 -1.38796e-14 0)
(-2.24979e-13 -4.75413e-13 1.25056e-14)
(-3.87859e-12 -1.00212e-11 3.67812e-13)
(0 0 0)
(2.43799e-28 0 0)
(-1.35236e-24 0 0)
(-1.27743e-20 0 0)
(-3.44198e-18 0 0)
(-2.34274e-16 0 0)
(-1.56225e-14 -1.81812e-14 7.57912e-16)
(-5.00826e-13 -7.39943e-13 2.99105e-14)
(-1.09951e-11 -2.067e-11 8.32242e-13)
(-1.8393e-10 -4.20699e-10 1.82881e-11)
(0 0 0)
(-3.51129e-26 0 0)
(-2.73527e-22 0 0)
(-2.18159e-18 0 0)
(-2.31469e-16 0 1.60674e-14)
(-1.86101e-14 -1.53826e-14 -2.31052e-14)
(-7.55982e-13 -8.23747e-13 6.46502e-14)
(-2.17849e-11 -2.87272e-11 1.34709e-12)
(-4.67013e-10 -7.86669e-10 3.83806e-11)
(-7.96693e-09 -1.53488e-08 8.40034e-10)
(0 0 0)
(-1.28335e-23 0 0)
(-5.98606e-20 0 0)
(-1.50353e-16 0 -1.65411e-14)
(-1.60506e-14 -9.39119e-15 0)
(-8.15344e-13 -6.37153e-13 -5.36321e-15)
(-2.91079e-11 -2.68174e-11 1.45074e-12)
(-8.30383e-10 -9.35523e-10 5.36065e-11)
(-1.76794e-08 -2.59344e-08 1.59522e-09)
(-3.07258e-07 -4.9925e-07 3.52924e-08)
(0 0 0)
(-3.23378e-21 0 0)
(-1.45438e-17 0 0)
(-1.02447e-14 -2.63558e-15 2.01682e-14)
(-6.15445e-13 -3.40705e-13 5.19342e-14)
(-2.59538e-11 -1.62624e-11 1.09158e-12)
(-9.23054e-10 -6.79286e-10 4.87286e-11)
(-2.71174e-08 -2.45563e-08 1.87387e-09)
(-6.82553e-07 -8.16998e-07 6.58251e-08)
(-6.79459e-06 -1.22427e-05 2.35866e-06)
(0 0 0)
(-7.04239e-19 0 0)
(-3.47213e-15 0 -1.13687e-15)
(-3.18027e-13 -1.15736e-13 -2.22071e-14)
(-1.49784e-11 -6.05772e-12 5.40676e-13)
(-6.20218e-10 -2.81417e-10 2.75614e-11)
(-2.22297e-08 -1.18427e-08 1.25889e-09)
(-7.49308e-07 -4.94473e-07 5.51068e-08)
(-0.00943494 -0.00813485 0.000164123)
(-0.00588436 -0.00864094 0.00213234)
(0 0 0)
(-1.30787e-16 0 0)
(-1.04529e-13 -2.31163e-14 -2.99105e-15)
(-5.24897e-12 -1.46542e-12 1.36472e-13)
(-2.37729e-10 -7.4995e-11 9.1689e-12)
(-9.53991e-09 -3.80715e-09 4.66755e-10)
(-3.10544e-07 -1.63821e-07 2.08791e-08)
(-0.000960909 -0.000474599 2.39091e-05)
(-452.419 -365.918 18.7524)
(0 0 0)
(1.11166e-31 0 0)
(-1.17767e-30 0 0)
(-2.89615e-27 0 0)
(-1.45102e-24 0 0)
(-3.66892e-22 0 0)
(-5.94552e-20 0 0)
(-5.93727e-18 0 0)
(-3.21013e-16 0 0)
(-9.86764e-15 -4.32002e-14 4.29587e-15)
(0 0 0)
(6.11903e-30 0 0)
(-2.77685e-28 0 0)
(-5.78567e-25 0 0)
(-2.67089e-22 0 0)
(-6.08081e-20 0 0)
(-8.98776e-18 0 0)
(-8.39884e-16 -1.89478e-16 0)
(-4.45565e-14 -1.01351e-13 1.3074e-14)
(-7.97215e-13 -2.10336e-12 4.31287e-13)
(0 0 0)
(3.18358e-28 0 0)
(-6.61894e-26 0 0)
(-1.13442e-22 0 0)
(-4.60876e-20 0 0)
(-9.37013e-18 0 0)
(-1.24241e-15 -7.57479e-16 0)
(-1.0678e-13 -1.53898e-13 2.86112e-14)
(-2.31649e-12 -4.31912e-12 9.64349e-13)
(-3.46883e-11 -8.76059e-11 1.9319e-11)
(0 0 0)
(1.61903e-26 0 0)
(-1.55679e-23 0 0)
(-2.10374e-20 0 0)
(-7.73309e-18 0 0)
(-1.51067e-15 -5.68001e-16 0)
(-1.5704e-13 -1.70679e-13 3.79904e-14)
(-4.53758e-12 -5.9421e-12 1.48096e-12)
(-9.76654e-11 -1.66981e-10 3.99497e-11)
(-1.54724e-09 -3.64483e-09 7.92003e-10)
(0 0 0)
(1.26808e-25 0 0)
(-3.49695e-21 0 0)
(-3.55561e-18 0 0)
(-1.5828e-15 0 0)
(-1.69187e-13 -1.34687e-13 3.02218e-14)
(-6.00468e-12 -5.52664e-12 1.62155e-12)
(-1.75474e-10 -1.96663e-10 5.50673e-11)
(-4.13983e-09 -6.04751e-09 1.51585e-09)
(-7.4284e-08 -1.39376e-07 3.01462e-08)
(0 0 0)
(-1.05981e-22 0 0)
(-7.2202e-19 0 0)
(-5.3307e-16 0 0)
(-1.29413e-13 -7.40452e-14 2.10321e-14)
(-5.36394e-12 -3.42376e-12 1.24364e-12)
(-1.93893e-10 -1.41878e-10 5.02241e-11)
(-6.22605e-09 -5.53843e-09 1.76359e-09)
(-1.523e-07 -1.69794e-07 4.81781e-08)
(-1.7713e-06 -2.93802e-06 6.87159e-07)
(0 0 0)
(-3.64397e-20 0 0)
(-1.31472e-16 0 0)
(-6.97982e-14 -2.2249e-14 7.57912e-15)
(-3.17631e-12 -1.3526e-12 6.60615e-13)
(-1.30558e-10 -5.98979e-11 2.93696e-11)
(-5.10513e-09 -2.70813e-09 1.21028e-09)
(-1.62594e-07 -1.146e-07 4.26793e-08)
(-4.89719e-05 -4.69652e-05 1.88706e-05)
(-0.000992773 -0.00146186 0.000375841)
(0 0 0)
(-1.0843e-17 0 0)
(-2.02526e-14 -2.46321e-15 1.61335e-15)
(-1.17387e-12 -3.41061e-13 2.10184e-13)
(-5.10073e-11 -1.55582e-11 1.04377e-11)
(-2.21619e-09 -6.8933e-10 4.59233e-10)
(-9.4214e-08 -3.29649e-08 1.91717e-08)
(-2.41568e-05 -1.32062e-05 5.84387e-06)
(-0.84559 -0.521204 0.336418)
(-1588.09 -1456.16 890.647)
(0 0 0)
(7.84774e-32 0 0)
(-4.21983e-32 0 0)
(-1.11448e-28 0 0)
(-7.87054e-26 0 0)
(-2.3707e-23 0 0)
(-3.99281e-21 0 0)
(-4.17434e-19 0 0)
(-2.54452e-17 0 0)
(-2.14044e-18 -3.16779e-15 6.08333e-17)
(0 0 0)
(4.47483e-30 0 0)
(-8.5854e-30 0 0)
(-2.17619e-26 0 0)
(-1.38031e-23 0 0)
(-4.08634e-21 0 0)
(-6.31245e-19 0 0)
(-6.81223e-17 0 0)
(-3.22642e-15 -1.00063e-14 4.73695e-16)
(-1.18369e-13 -3.11867e-13 4.32666e-14)
(0 0 0)
(2.32014e-28 0 0)
(-1.90598e-27 0 0)
(-4.11791e-24 0 0)
(-2.42972e-21 0 0)
(-7.22453e-19 0 0)
(-1.03264e-16 0 0)
(-1.12494e-14 -1.56587e-14 1.42109e-15)
(-3.35063e-13 -5.78398e-13 1.02129e-13)
(-5.48582e-12 -1.2514e-11 2.24886e-12)
(0 0 0)
(1.07111e-26 0 0)
(-4.24365e-25 0 0)
(-7.79968e-22 0 0)
(-4.35886e-19 0 0)
(-1.24604e-16 0 0)
(-1.634e-14 -1.84819e-14 1.98952e-15)
(-5.99728e-13 -7.57998e-13 1.5594e-13)
(-1.35075e-11 -2.10806e-11 4.45397e-12)
(-2.18827e-10 -4.64251e-10 9.4128e-11)
(0 0 0)
(4.6826e-25 0 0)
(-8.98062e-23 0 0)
(-1.54868e-19 0 0)
(-7.81366e-17 0 0)
(-1.89455e-14 -1.28306e-14 1.80004e-15)
(-7.64552e-13 -7.03964e-13 1.70436e-13)
(-2.17635e-11 -2.36461e-11 5.96979e-12)
(-5.05271e-10 -6.92456e-10 1.73752e-10)
(-8.70137e-09 -1.61809e-08 4.10379e-09)
(0 0 0)
(1.77721e-23 0 0)
(-1.84593e-20 0 0)
(-3.21833e-17 0 0)
(-1.29818e-14 -6.23299e-15 8.52651e-16)
(-6.82256e-13 -4.59085e-13 1.30645e-13)
(-2.33415e-11 -1.76973e-11 5.42893e-12)
(-7.03012e-10 -6.28209e-10 1.97238e-10)
(-1.76237e-08 -1.99027e-08 6.54926e-09)
(-3.1027e-07 -4.46454e-07 1.65032e-07)
(0 0 0)
(-6.28484e-23 0 0)
(-4.44508e-18 0 0)
(-6.57006e-15 -9.46098e-16 9.4739e-17)
(-4.33683e-13 -2.03492e-13 7.14332e-14)
(-1.6711e-11 -8.72186e-12 3.2972e-12)
(-5.93998e-10 -3.42717e-10 1.36811e-10)
(-1.92689e-08 -1.32137e-08 5.66712e-09)
(-4.64366e-07 -4.15516e-07 1.96543e-07)
(-1.31255e-05 -1.51826e-05 6.84834e-06)
(0 0 0)
(-1.46472e-19 0 0)
(-1.35388e-15 0 1.63318e-17)
(-1.85574e-13 -5.64645e-14 2.04527e-14)
(-7.81803e-12 -2.83004e-12 1.29077e-12)
(-3.0128e-10 -1.14671e-10 5.59518e-11)
(-1.13437e-08 -4.71027e-09 2.59218e-09)
(-3.71918e-07 -1.9989e-07 1.24084e-07)
(-1.17298e-05 -7.38277e-06 5.03805e-06)
(-0.00130667 -0.000946596 0.00050043)
(0 0 0)
(4.68489e-32 0 0)
(-7.3614e-34 0 0)
(-2.46167e-30 0 0)
(-3.04786e-27 0 0)
(-1.15992e-24 0 0)
(-2.5638e-22 0 0)
(-2.79761e-20 0 0)
(-1.99706e-18 0 0)
(-1.35038e-19 -4.90179e-17 1.60778e-18)
(0 0 0)
(2.45523e-30 0 0)
(-1.46002e-31 0 0)
(-5.46094e-28 0 0)
(-5.8314e-25 0 0)
(-1.96931e-22 0 0)
(-4.02803e-20 0 0)
(-4.06901e-18 0 0)
(-2.82205e-16 0 0)
(-9.87246e-15 -3.44191e-14 3.70091e-15)
(0 0 0)
(1.22596e-28 0 0)
(-2.82018e-29 0 0)
(-1.19679e-25 0 0)
(-1.08635e-22 0 0)
(-3.19167e-20 0 0)
(-5.8989e-18 0 0)
(-5.57504e-16 0 0)
(-3.75304e-14 -6.74175e-14 9.56864e-15)
(-7.41173e-13 -1.64097e-12 3.22746e-13)
(0 0 0)
(5.83051e-27 0 0)
(-5.72926e-27 0 0)
(-2.57714e-23 0 0)
(-1.92005e-20 0 0)
(-4.82339e-18 0 0)
(-7.85616e-16 0 0)
(-6.95493e-14 -9.29918e-14 1.61056e-14)
(-1.75678e-12 -2.69e-12 6.01688e-13)
(-3.01542e-11 -6.09978e-11 1.32917e-11)
(0 0 0)
(2.51806e-25 0 0)
(-1.31545e-24 0 0)
(-5.32151e-21 0 0)
(-3.10915e-18 0 0)
(-6.64145e-16 0 0)
(-9.4069e-14 -8.3787e-14 1.90425e-14)
(-2.77095e-12 -3.03336e-12 7.87566e-13)
(-6.51639e-11 -8.76103e-11 2.21441e-11)
(-1.18248e-09 -2.12489e-09 5.14527e-10)
(0 0 0)
(9.50124e-24 0 0)
(-3.32645e-22 0 0)
(-1.01214e-18 0 0)
(-4.46905e-16 0 0)
(-8.19806e-14 -5.78167e-14 1.34529e-14)
(-3.00433e-12 -2.3625e-12 7.13385e-13)
(-8.88146e-11 -8.14123e-11 2.44393e-11)
(-2.25865e-09 -2.53194e-09 7.497e-10)
(-4.30441e-08 -6.36834e-08 1.88358e-08)
(0 0 0)
(3.18257e-22 0 0)
(-8.65131e-20 0 0)
(-1.68643e-16 0 0)
(-5.59708e-14 -2.4501e-14 6.91595e-15)
(-2.2654e-12 -1.27553e-12 4.63937e-13)
(-7.83869e-11 -4.86862e-11 1.79158e-11)
(-2.47461e-09 -1.7578e-09 6.56267e-10)
(-6.52893e-08 -5.63145e-08 2.17964e-08)
(-1.22731e-06 -1.37058e-06 5.34797e-07)
(0 0 0)
(1.01837e-20 0 0)
(-2.06648e-17 0 0)
(-2.32437e-14 -3.97904e-15 1.82365e-15)
(-1.16785e-12 -4.46979e-13 2.01804e-13)
(-4.44375e-11 -1.83076e-11 8.62099e-12)
(-1.57924e-09 -7.03346e-10 3.42617e-10)
(-4.9656e-08 -2.54514e-08 1.32371e-08)
(-1.18949e-06 -7.70149e-07 4.13177e-07)
(-9.4947e-05 -8.48282e-05 4.13486e-05)
(0 0 0)
(1.37435e-33 0 0)
(-3.42272e-37 0 0)
(-6.96999e-33 0 0)
(-2.31057e-29 0 0)
(-1.70276e-26 0 0)
(-4.9677e-24 0 0)
(-7.1327e-22 0 0)
(-6.30908e-20 0 0)
(-3.10959e-21 0 0)
(0 0 0)
(7.34556e-32 0 0)
(-9.79502e-35 0 0)
(-1.83364e-30 0 0)
(-4.98507e-27 0 0)
(-3.12915e-24 0 0)
(-8.10412e-22 0 0)
(-1.06746e-19 0 0)
(-8.86146e-18 0 0)
(-5.35768e-19 -3.22379e-16 5.18401e-17)
(0 0 0)
(3.64767e-30 0 0)
(-2.58293e-32 0 0)
(-4.73116e-28 0 0)
(-1.02768e-24 0 0)
(-5.41288e-22 0 0)
(-1.23147e-19 0 0)
(-1.46674e-17 0 0)
(-1.13751e-15 -9.46101e-16 0)
(-5.33387e-14 -1.2624e-13 3.17396e-14)
(0 0 0)
(1.68279e-28 0 0)
(-6.26205e-30 0 0)
(-1.18623e-25 0 0)
(-1.98279e-22 0 0)
(-8.92047e-20 0 0)
(-1.81614e-17 0 0)
(-1.82803e-15 -2.45935e-15 2.84217e-16)
(-1.32066e-13 -2.0282e-13 6.14856e-14)
(-2.46881e-12 -4.75544e-12 1.55586e-12)
(0 0 0)
(7.27997e-27 0 0)
(-1.46835e-27 0 0)
(-2.82913e-23 0 0)
(-3.51454e-20 0 0)
(-1.51936e-17 0 0)
(-3.15998e-15 -1.89177e-15 3.78956e-16)
(-2.07281e-13 -2.26884e-13 8.33703e-14)
(-5.03383e-12 -6.65787e-12 2.51343e-12)
(-9.26148e-11 -1.58743e-10 5.82804e-11)
(0 0 0)
(2.94247e-25 0 0)
(-3.93242e-25 0 0)
(-6.23302e-21 0 0)
(-6.0368e-18 0 0)
(-2.84245e-15 -7.57053e-16 9.4739e-17)
(-2.2499e-13 -1.79127e-13 7.61702e-14)
(-6.73795e-12 -6.271e-12 2.78163e-12)
(-1.66479e-10 -1.86792e-10 8.21241e-11)
(-3.27363e-09 -4.72183e-09 2.07554e-09)
(0 0 0)
(1.04829e-23 0 0)
(-1.2988e-22 0 0)
(-1.22742e-18 0 0)
(-1.32665e-15 0 0)
(-1.73739e-13 -9.78861e-14 4.94538e-14)
(-6.09415e-12 -3.96509e-12 2.13106e-12)
(-1.84331e-10 -1.37475e-10 7.43363e-11)
(-4.82638e-09 -4.30509e-09 2.37831e-09)
(-9.8339e-08 -1.11484e-07 6.34295e-08)
(0 0 0)
(3.20787e-22 0 0)
(-4.47135e-20 0 0)
(-2.08664e-16 0 2.05957e-17)
(-9.16484e-14 -3.18323e-14 2.17152e-14)
(-3.67882e-12 -1.6261e-12 1.11193e-12)
(-1.27554e-10 -6.20207e-11 4.29317e-11)
(-3.99511e-09 -2.227e-09 1.57395e-09)
(-1.05204e-07 -7.14472e-08 5.19952e-08)
(-2.3319e-06 -2.07992e-06 1.55976e-06)
(0 0 0)
(-8.6678e-37 0 0)
(-1.67458e-45 0 0)
(-1.01107e-36 0 0)
(-3.08715e-32 0 0)
(-6.74325e-29 0 0)
(-3.46335e-26 0 0)
(-7.48462e-24 0 0)
(-8.16121e-22 0 0)
(-3.08423e-23 0 0)
(0 0 0)
(-4.25349e-35 0 0)
(-1.91662e-42 0 0)
(-3.57578e-34 0 0)
(-8.12579e-30 0 0)
(-1.42046e-26 0 0)
(-6.2429e-24 0 0)
(-1.19889e-21 0 0)
(-1.21072e-19 0 0)
(-5.86038e-21 0 0)
(0 0 0)
(-2.02626e-33 0 0)
(-2.07736e-39 0 0)
(-1.23589e-31 0 0)
(-2.06374e-27 0 0)
(-2.83729e-24 0 0)
(-1.06077e-21 0 0)
(-1.81702e-19 0 0)
(-1.65579e-17 0 0)
(-1.10064e-18 -2.16423e-15 9.66541e-16)
(0 0 0)
(-9.14475e-32 0 0)
(-2.07525e-36 0 0)
(-4.20604e-29 0 0)
(-4.95115e-25 0 0)
(-5.40615e-22 0 0)
(-1.746e-19 0 0)
(-2.87231e-17 0 0)
(-2.05853e-15 -5.10518e-15 1.89478e-15)
(-1.14829e-13 -2.21869e-13 1.08649e-13)
(0 0 0)
(-3.88313e-30 0 0)
(-1.85179e-33 0 0)
(-1.39165e-26 0 0)
(-1.09279e-22 0 0)
(-1.02541e-19 0 0)
(-2.99676e-17 0 0)
(-5.84265e-15 -5.48071e-15 2.55795e-15)
(-2.32536e-13 -3.08503e-13 1.72236e-13)
(-4.33422e-12 -7.2375e-12 4.09163e-12)
(0 0 0)
(-1.53779e-28 0 0)
(-1.43552e-30 0 0)
(-4.33233e-24 0 0)
(-2.17602e-20 0 0)
(-2.04786e-17 0 0)
(-5.74978e-15 -3.78141e-15 2.27374e-15)
(-3.11608e-13 -2.89512e-13 1.8692e-13)
(-7.54211e-12 -8.45171e-12 5.63385e-12)
(-1.41396e-10 -2.0227e-10 1.35889e-10)
(0 0 0)
(-5.62231e-27 0 0)
(-9.4418e-28 0 0)
(-1.22271e-21 0 0)
(-4.243e-18 0 0)
(-4.16632e-15 -9.46102e-16 1.13687e-15)
(-2.82417e-13 -1.85895e-13 1.4893e-13)
(-8.37312e-12 -6.38843e-12 5.19776e-12)
(-2.0642e-10 -1.87401e-10 1.55482e-10)
(-4.05503e-09 -4.64628e-09 3.96116e-09)
(0 0 0)
(-1.87714e-25 0 0)
(-5.15286e-25 0 0)
(-3.05582e-19 0 0)
(-1.11044e-15 0 2.76157e-16)
(-1.74364e-13 -7.44649e-14 7.72878e-14)
(-6.00302e-12 -3.04434e-12 3.18084e-12)
(-1.77698e-10 -1.02452e-10 1.10059e-10)
(-4.50128e-09 -3.10847e-09 3.42343e-09)
(-8.66909e-08 -7.66818e-08 8.68619e-08)
(0 0 0)
(-3.19651e-39 0 0)
(0 0 0)
(-6.10891e-44 0 0)
(-3.18734e-36 0 0)
(-5.974e-32 0 0)
(-8.94108e-29 0 0)
(-3.2155e-26 0 0)
(-5.83776e-24 0 0)
(-1.43865e-25 0 0)
(0 0 0)
(-2.10501e-37 0 0)
(0 0 0)
(-5.856e-41 0 0)
(-1.14111e-33 0 0)
(-1.54455e-29 0 0)
(-1.8606e-26 0 0)
(-5.78236e-24 0 0)
(-9.41047e-22 0 0)
(-2.90165e-23 0 0)
(0 0 0)
(-1.3168e-35 0 0)
(0 0 0)
(-4.95216e-38 0 0)
(-3.99072e-31 0 0)
(-3.81556e-27 0 0)
(-3.63871e-24 0 0)
(-9.89628e-22 0 0)
(-1.40977e-19 0 0)
(-5.76121e-21 0 2.68443e-19)
(0 0 0)
(-7.76619e-34 0 0)
(0 0 0)
(-3.67157e-35 0 0)
(-1.35308e-28 0 0)
(-8.80172e-25 0 0)
(-6.70569e-22 0 0)
(-1.69284e-19 0 0)
(-2.03596e-17 0 0)
(-1.90594e-16 -3.52526e-15 2.27941e-15)
(0 0 0)
(-4.27622e-32 0 0)
(0 0 0)
(-2.37301e-32 0 0)
(-4.36093e-26 0 0)
(-1.85455e-22 0 0)
(-1.23779e-19 0 0)
(-3.25047e-17 0 0)
(-3.60062e-15 -6.61543e-15 4.64221e-15)
(-1.44962e-13 -2.44816e-13 1.8219e-13)
(0 0 0)
(-2.17223e-30 0 0)
(0 0 0)
(-1.32997e-29 0 0)
(-1.29916e-23 0 0)
(-3.59052e-20 0 0)
(-2.60005e-17 0 0)
(-7.03483e-15 -5.86095e-15 4.92643e-15)
(-2.52864e-13 -2.83327e-13 2.4689e-13)
(-4.68396e-12 -6.62845e-12 5.87479e-12)
(0 0 0)
(-1.00386e-28 0 0)
(0 0 0)
(-6.43679e-27 0 0)
(-3.46446e-21 0 0)
(-7.17373e-18 0 0)
(-6.16117e-15 -1.51325e-15 3.97904e-15)
(-2.81663e-13 -2.15225e-13 2.31637e-13)
(-6.75099e-12 -6.18126e-12 6.70042e-12)
(-1.24355e-10 -1.43223e-10 1.60139e-10)
(0 0 0)
(-4.15097e-27 0 0)
(0 0 0)
(-2.68657e-24 0 0)
(-7.98276e-19 0 0)
(-1.90813e-15 0 1.47204e-15)
(-2.04568e-13 -1.02508e-13 1.42595e-13)
(-5.91907e-12 -3.49132e-12 4.89741e-12)
(-1.40257e-10 -9.74239e-11 1.42211e-10)
(-2.5977e-09 -2.25855e-09 3.45842e-09)
(0 0 0)
(0 0 0)
(0 0 0)
(0 0 0)
(-6.6465e-44 0 0)
(-2.87381e-36 0 0)
(-5.0187e-32 0 0)
(-5.87755e-29 0 0)
(-1.82975e-26 0 0)
(-3.14514e-28 0 0)
(0 0 0)
(0 0 0)
(0 0 0)
(0 0 0)
(-6.47906e-41 0 0)
(-1.02747e-33 0 0)
(-1.31341e-29 0 0)
(-1.25275e-26 0 0)
(-3.36894e-24 0 0)
(-6.89649e-26 0 0)
(0 0 0)
(0 0 0)
(0 0 0)
(0 0 0)
(-5.61171e-38 0 0)
(-3.61836e-31 0 0)
(-3.28208e-27 0 0)
(-2.50435e-24 0 0)
(-5.79813e-22 0 0)
(-1.4694e-23 0 0)
(0 0 0)
(0 0 0)
(0 0 0)
(0 0 0)
(-4.29427e-35 0 0)
(-1.25223e-28 0 0)
(-7.65138e-25 0 0)
(-4.62259e-22 0 0)
(-9.23756e-20 0 0)
(-3.11705e-21 0 1.60723e-18)
(0 0 0)
(0 0 0)
(0 0 0)
(0 0 0)
(-2.88677e-32 0 0)
(-4.16608e-26 0 0)
(-1.62204e-22 0 0)
(-8.01015e-20 0 0)
(-1.43913e-17 0 0)
(-6.56834e-19 -2.42676e-15 3.59591e-15)
(0 0 0)
(0 0 0)
(0 0 0)
(0 0 0)
(-1.69369e-29 0 0)
(-1.28408e-23 0 0)
(-3.0888e-20 0 0)
(-1.46652e-17 0 0)
(-2.54598e-15 -2.83831e-15 4.92643e-15)
(-1.22912e-13 -1.78329e-13 1.94666e-13)
(0 0 0)
(0 0 0)
(0 0 0)
(0 0 0)
(-8.60393e-27 0 0)
(-3.51689e-21 0 0)
(-6.0569e-18 0 0)
(-3.47588e-15 -1.13601e-15 4.64221e-15)
(-1.80055e-13 -1.65019e-13 2.19984e-13)
(-3.28486e-12 -3.77769e-12 5.11049e-12)
(0 0 0)
(0 0 0)
(0 0 0)
(0 0 0)
(-3.74613e-24 0 0)
(-8.21848e-19 0 0)
(-1.8333e-15 0 2.51874e-15)
(-1.5903e-13 -9.15179e-14 1.62668e-13)
(-3.71959e-12 -2.63185e-12 4.60283e-12)
(-6.46214e-11 -5.63112e-11 1.04898e-10)
(0 0 0)
(0 0 0)
(0 0 0)
(0 0 0)
(0 0 0)
(-1.10513e-44 0 0)
(-1.32616e-36 0 0)
(-1.79032e-32 0 0)
(-1.94586e-29 0 0)
(-2.14377e-31 0 0)
(0 0 0)
(0 0 0)
(0 0 0)
(0 0 0)
(0 0 0)
(-1.24419e-41 0 0)
(-4.65052e-34 0 0)
(-4.73388e-30 0 0)
(-4.22428e-27 0 0)
(-5.42451e-29 0 0)
(0 0 0)
(0 0 0)
(0 0 0)
(0 0 0)
(0 0 0)
(-1.2799e-38 0 0)
(-1.58185e-31 0 0)
(-1.22151e-27 0 0)
(-8.84059e-25 0 0)
(-1.30768e-26 0 0)
(0 0 0)
(0 0 0)
(0 0 0)
(0 0 0)
(0 0 0)
(-1.17475e-35 0 0)
(-5.33801e-29 0 0)
(-3.02512e-25 0 0)
(-1.74234e-22 0 0)
(-3.07128e-24 0 0)
(0 0 0)
(0 0 0)
(0 0 0)
(0 0 0)
(0 0 0)
(-9.4389e-33 0 0)
(-1.79805e-26 0 0)
(-6.99296e-23 0 0)
(-3.13813e-20 0 0)
(-7.23444e-22 0 1.07287e-18)
(0 0 0)
(0 0 0)
(0 0 0)
(0 0 0)
(0 0 0)
(-6.53915e-30 0 0)
(-5.88667e-24 0 0)
(-1.45823e-20 0 0)
(-5.01182e-18 0 0)
(-1.71849e-19 -6.44823e-16 2.77763e-15)
(0 0 0)
(0 0 0)
(0 0 0)
(0 0 0)
(0 0 0)
(-3.8544e-27 0 0)
(-1.77649e-21 0 0)
(-2.64888e-18 0 0)
(-8.83495e-16 0 3.12639e-15)
(-6.78731e-14 -8.40937e-14 1.37216e-13)
(0 0 0)
(0 0 0)
(0 0 0)
(0 0 0)
(0 0 0)
(-1.90685e-24 0 0)
(-4.65123e-19 0 0)
(-4.07203e-16 0 2.24936e-15)
(-8.2765e-14 -5.5896e-14 1.22829e-13)
(-1.48003e-12 -1.30316e-12 2.7531e-12)
(0 0 0)
(0 0 0)
(0 0 0)
(0 0 0)
(0 0 0)
(0 0 0)
(-1.28551e-46 0 0)
(-1.86082e-37 0 0)
(-3.08568e-33 0 0)
(-1.21403e-35 0 0)
(0 0 0)
(0 0 0)
(0 0 0)
(0 0 0)
(0 0 0)
(0 0 0)
(-2.15034e-43 0 0)
(-7.22712e-35 0 0)
(-8.33501e-31 0 0)
(-4.14385e-33 0 0)
(0 0 0)
(0 0 0)
(0 0 0)
(0 0 0)
(0 0 0)
(0 0 0)
(-3.32653e-40 0 0)
(-2.60727e-32 0 0)
(-2.21312e-28 0 0)
(-1.34988e-30 0 0)
(0 0 0)
(0 0 0)
(0 0 0)
(0 0 0)
(0 0 0)
(0 0 0)
(-4.53371e-37 0 0)
(-8.94446e-30 0 0)
(-5.7513e-26 0 0)
(-4.12254e-28 0 0)
(0 0 0)
(0 0 0)
(0 0 0)
(0 0 0)
(0 0 0)
(0 0 0)
(-5.27014e-34 0 0)
(-3.02034e-27 0 0)
(-1.43791e-23 0 0)
(-1.15884e-25 0 0)
(0 0 0)
(0 0 0)
(0 0 0)
(0 0 0)
(0 0 0)
(0 0 0)
(-5.1308e-31 0 0)
(-1.02489e-24 0 0)
(-3.37024e-21 0 0)
(-2.95106e-23 0 0)
(0 0 0)
(0 0 0)
(0 0 0)
(0 0 0)
(0 0 0)
(0 0 0)
(-4.13848e-28 0 0)
(-3.40757e-22 0 0)
(-7.18805e-19 0 0)
(-6.90952e-21 -1.42581e-16 1.07022e-15)
(0 0 0)
(0 0 0)
(0 0 0)
(0 0 0)
(0 0 0)
(0 0 0)
(-2.74044e-25 0 0)
(-1.04317e-19 0 0)
(-1.34267e-16 0 4.73695e-16)
(-2.39839e-14 -2.17426e-14 5.99479e-14)
(-3.41175e-10 -4.32086e-12 1.14659e-11)
(-7.67734e-11 -1.26685e-12 1.50688e-11)
(-1.86687e-11 -3.08849e-13 2.74509e-12)
(-3.44026e-12 -6.74542e-14 5.56398e-13)
(-1.24788e-10 -2.8092e-12 2.19352e-11)
(-4.12972e-09 -7.88819e-11 8.2249e-10)
(-1.30915e-07 -1.69503e-09 2.95597e-08)
(-4.26419e-06 -2.86083e-08 1.02667e-06)
(-2.76239e-05 5.79132e-07 1.07201e-05)
(0 0 0)
(-1.98339e-14 -1.6946e-15 0)
(-1.19091e-12 -2.58547e-13 2.94232e-14)
(-6.10334e-11 -1.2663e-11 1.89579e-12)
(-3.21953e-09 -6.25181e-10 1.20367e-10)
(-1.50072e-07 -3.38997e-08 7.77814e-09)
(-6.06881e-06 -2.18617e-06 2.31964e-07)
(-0.0199477 -0.0091324 0.000280168)
(-1323.85 -1020.47 60.4255)
(-1.32635e-15 0 0)
(-2.04982e-13 -2.33977e-14 3.22113e-15)
(-9.29024e-12 -1.63234e-12 3.02502e-13)
(-3.76233e-10 -7.50937e-11 1.38626e-11)
(-1.5357e-08 -3.6713e-09 6.74649e-10)
(-6.74849e-07 -1.70932e-07 4.11192e-08)
(-1.26247e-05 -3.07851e-06 3.7367e-07)
(-1581.04 -713.057 69.5422)
(-1.53477e-14 -1.89478e-16 0)
(-1.06525e-12 -1.44261e-13 2.75691e-14)
(-5.12101e-11 -7.74119e-12 1.52435e-12)
(-2.7251e-09 -3.69988e-10 9.40055e-11)
(-1.55472e-07 -2.0329e-08 6.97797e-09)
(-3.41798e-06 -6.30386e-07 1.92538e-07)
(-0.000244583 -5.37645e-05 1.00375e-05)
(-1891.89 -772.622 85.4494)
(-8.03387e-14 -4.12089e-15 8.52651e-16)
(-4.15297e-12 -4.77802e-13 1.20603e-13)
(-1.87753e-10 -2.13994e-11 6.27201e-12)
(-7.61619e-09 -9.1007e-10 3.36378e-10)
(-2.44482e-07 -3.05321e-08 1.5224e-08)
(-3.36427e-05 -2.14502e-06 4.77902e-06)
(-6.5224 -0.759068 1.35926)
(-1.5613e-13 -1.73112e-35 1.80004e-15)
(-7.60744e-12 -9.43601e-14 2.15438e-13)
(0 0 0)
(-2.48421e-15 0 0)
(-2.82166e-13 -6.08396e-14 4.08325e-14)
(-1.23693e-11 -3.19867e-12 2.45781e-12)
(-5.03585e-10 -1.33405e-10 1.13216e-10)
(-2.05054e-08 -5.50938e-09 4.88251e-09)
(-9.29541e-07 -2.92311e-07 2.10348e-07)
(-0.000322031 -0.000143389 8.06185e-05)
(-85.4538 -61.1395 39.312)
(0 0 0)
(-5.1452e-14 -3.39502e-15 3.8843e-15)
(-2.4918e-12 -4.41021e-13 4.46979e-13)
(-9.94686e-11 -1.90716e-11 1.90609e-11)
(-3.50268e-09 -7.43238e-10 7.09038e-10)
(-1.00185e-07 -2.39563e-08 1.981e-08)
(-1.34263e-06 -3.30523e-07 2.24421e-07)
(-142.222 -63.6453 64.8221)
(-2.46321e-15 0 0)
(-2.90687e-13 -3.18607e-14 3.80851e-14)
(-1.19336e-11 -2.08222e-12 2.21481e-12)
(-4.41392e-10 -7.79114e-11 9.34548e-11)
(-1.63721e-08 -2.80611e-09 4.10701e-09)
(-6.50468e-07 -1.07272e-07 1.48687e-07)
(-1.93126e-05 -4.39578e-06 3.52063e-06)
(-434.096 -186.407 212.54)
(-1.81899e-14 0 1.23161e-15)
(-1.07067e-12 -1.32721e-13 1.71857e-13)
(-4.19453e-11 -5.51306e-12 8.24495e-12)
(-1.59548e-09 -2.02614e-10 3.34975e-10)
(-7.14765e-08 -7.79799e-09 1.32077e-08)
(-2.73769e-06 -2.65121e-07 5.86813e-07)
(-0.000764232 -4.63889e-05 0.000311025)
(-87.6231 -14.4247 53.0883)
(-3.94114e-14 -9.12486e-33 3.30714e-15)
(-1.9885e-12 -3.10744e-14 3.51621e-13)
(0 0 0)
(-3.33233e-17 0 0)
(-5.06121e-14 -6.78889e-15 2.65269e-15)
(-2.38966e-12 -6.48733e-13 3.3206e-13)
(-9.41811e-11 -2.75133e-11 1.45002e-11)
(-3.61138e-09 -1.10407e-09 6.32089e-10)
(-1.57035e-07 -4.91116e-08 3.52766e-08)
(-4.43799e-06 -1.75631e-06 1.56646e-06)
(-8.31376e-06 -4.53402e-06 2.83223e-06)
(0 0 0)
(-6.06256e-15 0 0)
(-5.13743e-13 -9.20169e-14 5.8075e-14)
(-2.16479e-11 -4.42411e-12 3.08243e-12)
(-8.16285e-10 -1.75101e-10 1.28032e-10)
(-2.72964e-08 -6.62546e-09 5.02454e-09)
(-8.07545e-07 -2.36759e-07 1.98316e-07)
(-0.00012812 -4.16e-05 3.31888e-05)
(0 0 0)
(-6.62746e-14 -4.71232e-15 3.8843e-15)
(-3.0298e-12 -5.15179e-13 4.14483e-13)
(-1.11982e-10 -2.01889e-11 1.66767e-11)
(-3.96267e-09 -7.49976e-10 6.12619e-10)
(-1.61719e-07 -2.96142e-08 2.66981e-08)
(-5.17433e-06 -1.13518e-06 1.2378e-06)
(-0.0332292 -0.00836092 0.0121347)
(-2.08426e-15 0 0)
(-2.47532e-13 -1.90042e-14 2.23584e-14)
(-1.01673e-11 -1.31703e-12 1.48333e-12)
(-3.91143e-10 -4.95536e-11 5.67799e-11)
(-1.48851e-08 -1.89694e-09 2.19026e-09)
(-4.83415e-07 -6.66139e-08 8.47136e-08)
(-2.39828e-05 -2.02585e-06 4.80541e-06)
(-0.245638 -0.0494056 0.085502)
(-5.49486e-15 -5.0498e-30 0)
(-4.58542e-13 -6.44225e-15 5.16999e-14)
(0 0 0)
(5.46705e-20 0 0)
(-4.07083e-15 0 0)
(-3.85416e-13 -9.29632e-14 5.14433e-14)
(-1.56385e-11 -4.47012e-12 2.70442e-12)
(-5.7812e-10 -1.75374e-10 1.0864e-10)
(-1.94935e-08 -6.63289e-09 4.29003e-09)
(-5.32542e-07 -2.32845e-07 1.60952e-07)
(-5.52357e-06 -3.31682e-06 2.10649e-06)
(0 0 0)
(-3.42607e-17 0 0)
(-7.77922e-14 -9.05203e-15 6.25278e-15)
(-3.52628e-12 -7.28226e-13 5.84161e-13)
(-1.34157e-10 -3.01968e-11 2.4468e-11)
(-4.75861e-09 -1.15441e-09 9.5913e-10)
(-1.67569e-07 -4.37821e-08 3.72109e-08)
(-6.80773e-06 -2.0239e-06 1.83366e-06)
(-0.000649294 -0.000308162 0.00032762)
(0 0 0)
(-6.60431e-15 0 9.4739e-17)
(-5.1511e-13 -7.24743e-14 7.38017e-14)
(-2.15276e-11 -3.74363e-12 3.54239e-12)
(-7.85111e-10 -1.44277e-10 1.38407e-10)
(-2.4476e-08 -4.95167e-09 5.11971e-09)
(-6.176e-07 -1.44373e-07 1.71317e-07)
(-8.56571e-05 -2.45164e-05 2.62133e-05)
(0 0 0)
(-3.74296e-14 -1.70101e-15 2.74743e-15)
(-1.89466e-12 -2.40716e-13 2.92933e-13)
(-7.03884e-11 -9.19328e-12 1.20131e-11)
(-2.34734e-09 -3.17246e-10 4.59857e-10)
(-7.22474e-08 -9.88098e-09 1.67383e-08)
(-2.29183e-06 -2.87954e-07 5.77098e-07)
(-0.0200873 -0.00181522 0.0050945)
(0 -9.93207e-28 -4.41587e-18)
(-6.62702e-14 -7.76723e-26 6.42466e-15)
(0 0 0)
(8.42322e-21 0 0)
(-1.31737e-17 0 0)
(-2.9582e-14 -3.20912e-15 3.50534e-15)
(-1.42072e-12 -4.07359e-13 3.7024e-13)
(-5.37168e-11 -1.70741e-11 1.53659e-11)
(-1.87985e-09 -6.701e-10 5.94971e-10)
(-5.80863e-08 -2.5566e-08 2.18531e-08)
(-1.41975e-06 -8.24634e-07 7.09443e-07)
(0 0 0)
(1.92066e-19 0 0)
(-2.94051e-15 0 9.4739e-17)
(-3.28557e-13 -5.68763e-14 7.38964e-14)
(-1.35793e-11 -3.00958e-12 3.48346e-12)
(-5.18427e-10 -1.20905e-10 1.38884e-10)
(-1.94486e-08 -4.79614e-09 5.56208e-09)
(-6.50362e-07 -1.95665e-07 2.28848e-07)
(-6.46924e-06 -3.25374e-06 3.91026e-06)
(0 0 0)
(1.72759e-18 0 0)
(-4.1136e-14 -2.45421e-15 5.96856e-15)
(-2.16216e-12 -3.60408e-13 5.09033e-13)
(-8.44059e-11 -1.53805e-11 2.17011e-11)
(-2.91006e-09 -5.70694e-10 8.32322e-10)
(-8.83594e-08 -1.90685e-08 2.92069e-08)
(-2.5322e-06 -5.92915e-07 1.09413e-06)
(0 0 0)
(-9.2501e-16 0 0)
(-1.81729e-13 -1.24375e-14 3.59061e-14)
(-7.49472e-12 -9.57069e-13 1.88966e-12)
(-2.67276e-10 -3.47847e-11 7.18849e-11)
(-8.87776e-09 -1.17418e-09 2.57431e-09)
(-2.9467e-07 -3.88489e-08 9.55051e-08)
(-1.09853e-05 -1.35807e-06 4.64518e-06)
(0 -1.07666e-25 2.22511e-19)
(-2.4204e-15 -1.53422e-23 1.01089e-16)
(-3.2515e-13 -1.32635e-15 7.21045e-14)
(-1.30853e-11 -1.62004e-13 3.3832e-12)
(-4.6079e-10 -5.12226e-12 1.26206e-10)
(-1.58898e-08 -1.20081e-10 4.56811e-09)
(-5.96135e-07 -2.05108e-09 1.90375e-07)
(-1.17469e-05 1.63243e-07 5.62395e-06)
(0 0 0)
(-5.65256e-24 0 0)
(-2.27881e-22 0 0)
(-6.69897e-17 0 0)
(-6.73529e-14 -1.37681e-14 2.52953e-14)
(-2.6813e-12 -8.83238e-13 1.23758e-12)
(-8.97705e-11 -3.26306e-11 4.70232e-11)
(-2.69782e-09 -1.13747e-09 1.66061e-09)
(-6.66629e-08 -3.5821e-08 5.13623e-08)
(-1.17317e-06 -8.1784e-07 1.19547e-06)
(0 0 0)
(-1.50682e-22 0 0)
(-7.96145e-20 0 0)
(-1.24143e-14 -1.89478e-16 2.65269e-15)
(-7.12292e-13 -1.52223e-13 2.86207e-13)
(-2.60541e-11 -6.50208e-12 1.19834e-11)
(-8.86601e-10 -2.35763e-10 4.62616e-10)
(-2.82111e-08 -8.31924e-09 1.76804e-08)
(-6.96497e-07 -2.65821e-07 5.81603e-07)
(-4.55347e-06 -2.48676e-06 4.05077e-06)
(0 0 0)
(-3.39989e-21 0 0)
(-2.15082e-17 0 0)
(-1.11376e-13 -1.07521e-14 3.77061e-14)
(-4.69029e-12 -8.66991e-13 1.92197e-12)
(-1.62571e-10 -3.26352e-11 7.51314e-11)
(-4.96515e-09 -1.10286e-09 2.64381e-09)
(-1.35885e-07 -3.42311e-08 8.60805e-08)
(0 0 0)
(-6.63036e-20 0 0)
(-4.62805e-15 0 1.23161e-15)
(-4.17225e-13 -4.3692e-14 1.5793e-13)
(-1.5666e-11 -2.09339e-12 6.65049e-12)
(-5.189e-10 -7.1534e-11 2.41426e-10)
(-1.69492e-08 -2.31815e-09 8.55049e-09)
(-6.02467e-07 -8.19231e-08 3.48033e-07)
(0 -3.5718e-21 0)
(-3.63458e-19 -3.80773e-19 0)
(-1.16881e-14 -5.74618e-17 2.74743e-15)
(-7.5075e-13 -7.59196e-15 2.9208e-13)
(-2.7246e-11 -2.3688e-13 1.16169e-11)
(-8.98919e-10 -5.56096e-12 4.16008e-10)
(-2.98893e-08 -9.15154e-11 1.5189e-08)
(-1.07828e-06 -1.3245e-09 6.49997e-07)
(0 0 0)
(-1.50358e-25 0 0)
(0 0 0)
(-1.16122e-21 0 0)
(-1.52647e-16 0 0)
(-9.21353e-14 -2.5446e-14 5.40012e-14)
(-3.1126e-12 -1.17171e-12 2.21708e-12)
(-8.69643e-11 -3.69238e-11 7.33509e-11)
(-2.0306e-09 -1.03773e-09 2.14519e-09)
(-3.42761e-08 -2.31515e-08 4.88666e-08)
(0 0 0)
(-4.62531e-24 0 0)
(0 0 0)
(-8.41739e-19 0 0)
(-2.28918e-14 -1.51239e-15 1.02318e-14)
(-9.49524e-13 -2.37209e-13 5.96382e-13)
(-2.96731e-11 -8.5201e-12 2.15656e-11)
(-8.22883e-10 -2.62191e-10 7.23046e-10)
(-1.90451e-08 -7.23735e-09 2.18649e-08)
(-3.13721e-07 -1.54327e-07 4.62882e-07)
(0 0 0)
(-1.14589e-22 0 0)
(0 0 0)
(-6.48915e-16 0 4.73695e-16)
(-1.70089e-13 -2.33748e-14 9.64443e-14)
(-6.18054e-12 -1.28373e-12 3.9222e-12)
(-1.81836e-10 -4.1947e-11 1.34685e-10)
(-4.45779e-09 -1.19465e-09 4.03979e-09)
(0 0 0)
(-2.05636e-21 0 0)
(0 0 0)
(-1.22025e-14 0 4.64221e-15)
(-6.21186e-13 -7.3606e-14 3.52903e-13)
(-2.0153e-11 -2.98692e-12 1.31235e-11)
(-5.73622e-10 -8.99323e-11 4.32782e-10)
(-1.51998e-08 -2.50238e-09 1.40564e-08)
(0 -4.5788e-23 0)
(-2.05117e-20 -2.27891e-21 0)
(0 -2.91196e-19 0)
(-2.09153e-14 -3.51425e-17 1.20319e-14)
(-1.0912e-12 -3.9495e-15 6.31151e-13)
(-3.49893e-11 -1.9494e-13 2.27893e-11)
(-9.94873e-10 -3.71203e-12 7.49369e-10)
(-2.65879e-08 -5.01863e-11 2.46463e-08)
(0 0 0)
(0 0 0)
(0 0 0)
(0 0 0)
(-1.5697e-21 0 0)
(-1.5729e-16 0 9.4739e-17)
(-8.40656e-14 -2.69533e-14 7.45596e-14)
(-2.38139e-12 -1.03724e-12 2.46426e-12)
(-5.17915e-11 -2.65529e-11 6.69962e-11)
(-8.31913e-10 -5.40127e-10 1.46657e-09)
(0 0 0)
(0 0 0)
(0 0 0)
(0 0 0)
(-9.57634e-19 0 0)
(-2.34978e-14 -2.64711e-15 1.89478e-14)
(-8.49696e-13 -2.42838e-13 7.63597e-13)
(-2.16831e-11 -7.39569e-12 2.33726e-11)
(-4.42028e-10 -1.79033e-10 6.2039e-10)