/*--------------------------------*- C++ -*----------------------------------*\
  =========                 |
  \\      /  F ield         | OpenFOAM: The Open Source CFD Toolbox
   \\    /   O peration     | Website:  https://openfoam.org
    \\  /    A nd           | Version:  9
     \\/     M anipulation  |
\*---------------------------------------------------------------------------*/
FoamFile
{
    format      ascii;
    class       volScalarField;
    location    "0.0001";
    object      impulseMax;
}
// * * * * * * * * * * * * * * * * * * * * * * * * * * * * * * * * * * * * * //

dimensions      [1 -1 -1 0 0 0 0];

internalField   nonuniform List<scalar> 
2259
(
1.82219e-05
2.139e-12
6.3178e-15
0
2.08382e-06
1.02798e-11
2.73726e-14
0
2.03491e-10
2.1932e-13
1.34421e-16
0
6.6626e-13
2.5092e-15
0
0
2.86765e-15
0
0
0
0
0
0
0
0
0
0
0
0
0
0
0
0
0
1.64522e-11
5.33546e-14
0
0
1.11712e-10
3.95292e-13
4.92878e-16
0
2.68633e-12
1.10088e-14
0
0
1.9681e-14
0
0
0
0
0
0
0
0
0
0
0
0
0
0
0
0
0
0
0
0
0
6.4615e-14
0
0
0
3.806e-13
6.72106e-16
0
0
1.36793e-14
0
0
0
0
0
0
0
0
0
0
0
0
0
0
0
0
0
0
0
0
0
0
0
0
0
0
0
0
0
3.58457e-16
0
0
0
0
0
0
0
0
0
0
0
0
0
0
0
0
0
0
0
0
0
0
0
0
0
0
0
0
0
0
0
0
0
0
0
0
0
0
0
0
0
0
0
0
0
0
0
0
0
0
0
0
0
0
0
0
0
0
0
0
0
0
0
0
0
0
0
0
0
0
0
0
0
0
0
0
0
0
0
0
0
0
0
0
0
0
0
0
0
0
0
0
0
0
0
0
0
0
0
0
0
0
0
0
0
0
0
0
0
0
0
0
0
0
0
0
0
0
0
0
0
0
0
0
0
0
0
0
0
0
0
0
0
0
0
0
0
0
0
0
0.537293
0
0
0
0
0
0
0
0
0
0
0
0
0
0
0
0
0
0
0
0
0
0
0
0
0
0
0
0
0
0
0
0
0
0
0
0
0
0
0
0
0
0
0
0
0
0
0
0
0
0
0
0
0
0
0
0
0
0
0
0
0
0
0
0
0
0
0
0
0
0
0
0
0
0
0
0
0
0
0
0
0
0
0
0
0
0
0
0
0
0
0
0
0
7.26427e-06
123.705
0.00272238
2.42584e-06
4.07314e-08
0.0568762
4.15529e-06
0.543892
63.8116
23.7139
53.4909
19.5979
5.08555
5.50275
0.00551482
4.95362
0.00444309
0.000668084
0.591258
0.0796675
4.52157e-05
0
0
0
0
0
0
0
0
0
0
0
0
0
0
0
0
0
0
0
0
0
0
0
0
0
0
0
0
0
0
0
0
0
0
0
150.468
6.42575e-08
1.2783e-09
2.3295e-09
1.49084e-11
1.05091e-12
1.70578e-13
3.40534e-15
0
0
5.79567e-08
2.61993e-05
3.81817e-08
7.72987e-11
5.0754e-11
2.74831e-12
9.36483e-13
1.11432e-14
3.75931e-15
0
0
0
4.31882e-09
1.08526e-11
4.91168e-06
5.01349e-11
4.11841e-11
1.86293e-12
1.00664e-12
1.86782e-14
1.37351e-14
5.27379e-15
0
0
0
0
0
1.4566e-12
3.01279e-14
4.94359e-12
1.57145e-13
4.9197e-13
7.18395e-15
4.68682e-15
0
0
0
0
0
0
0
0
2.77804e-15
0
1.12914e-14
1.79228e-16
9.40949e-16
0
0
0
0
0
0
0
0
0
0
0
0
0
0
0
0
0
0
0
0
0
0
0
0
0
0
0
0
0
0
0
0
0
0
0
0
0
0
0
0
0
0
0
0
0
0
0
0
0
0
0
0
0
0
0
0
0
0
0
0
0
0
0
0
0
0
0
0
0
0
0
0
0
0
0
0
0
0
0
0
0
0
0
0.0144111
70.3973
0.000314215
0.256975
4.70562e-05
0.0251295
1.00713e-06
2.71296e-11
5.91253e-13
2.46439e-15
4.47223e-12
1.72343e-14
0
0
0
0
0
0
0
0
0
0
0
0
0
0
6.18942e-10
5.9443
0.000324296
2.37616e-05
2.65437e-06
1.31347e-08
1.77965e-08
16.4131
38.8512
159.009
76.4066
11.8746
93.5691
44.678
4.68154e-06
1.30973e-09
2.68886e-08
16.5056
1.78535e-07
0.000523717
3.03815e-08
7.315e-09
1.13109e-07
3.24003e-06
0.980977
2.33018e-07
2.44609e-05
1.18248e-08
1.09359e-07
0.000132228
4.06615e-08
5.40562e-08
7.64982e-10
2.15406e-08
1.79525e-10
8.73599
129.41
6.70445
32.6132
73.6464
1.31396
27.0924
1.32125e-08
5.49088e-07
4.6241e-09
2.6383e-09
8.82268e-11
1.20119e-09
3.95248e-11
0.805152
12.5869
0.00318054
0.692823
0.34525
21.5007
0.00821933
7.33458e-10
4.37747e-07
1.30378e-08
5.35179e-10
1.66862e-11
7.9732e-09
8.93529e-11
0.661256
0.193059
0.0649059
0.0136718
0.00309263
0.00134045
7.13701e-05
0.30547
2.81682
0.274178
0.00020086
13.6864
0.0240638
0.00273226
0.000114571
2.23813e-08
2.05718e-07
5.07515e-09
2.36697e-09
4.47801e-10
1.20932e-10
2.11843e-10
1.77525e-06
3.0919e-09
5.18385e-11
2.32853e-11
1.06733e-09
4.75967e-11
0.00189415
0.00930214
0.00105399
1.6961
0.199697
0.350957
2.46224
0.308879
0.686977
4.31608
0.0284404
0.0613825
0.000531326
0.00331273
0.016544
0.00364287
14.5681
0.0353412
1.99914
0.243664
0.000239306
4.42028e-05
0.0050011
0.000702362
0.08562
0.0529177
0.00639804
0.779282
0.0677121
0.120448
0.00709981
0.00474105
0.000613334
5.28521e-05
0.000374083
5.19673e-10
8.54546e-09
1.02885e-08
7.51078e-11
1.24068e-09
3.10957e-11
7.13757e-11
0.000270641
0.517837
0.051293
0.000272082
2.05553e-05
0.00339134
0.0492724
0.00170644
0.00454926
1.55868e-05
7.06472e-05
4.52116e-05
6.23933e-07
2.74165e-07
6.45785e-11
9.24965e-10
7.00221e-11
1.49977e-09
7.29675e-11
3.78509e-06
6.58637e-10
2.00949e-05
0.00228323
7.35695e-07
3.7556e-07
2.91542e-05
0.00512137
7.41004e-05
0.0202794
5.64621e-06
2.2752e-06
0.000329763
0.000111159
2.31421e-06
1.16445e-07
0.089658
4.77598e-06
8.16768e-06
0.000477021
0.000887291
7.34989e-06
1.66462e-07
1.69212e-07
1.38758e-06
0.000144262
0.000158492
0.000313665
0.0182315
2.44882e-06
1.31656e-09
4.22042e-11
4.90453e-11
1.3307e-07
2.51447e-10
2.60586e-10
4.43875e-11
1.31709e-05
5.72599e-08
2.11338e-07
0.00213674
1.53718e-06
0.000127839
1.97537e-05
0.00205775
1.61415e-06
0.000140114
2.69624e-07
1.65427e-05
1.13758e-06
8.39554e-08
0.00219455
1.578e-06
0.000155972
2.23288e-07
1.34902e-05
9.99196e-07
5.14833e-08
0.00191952
1.54354e-06
1.08337e-06
1.88676e-05
1.24553e-05
2.23218e-07
8.05191e-08
0
0
0
0
0
0
0
0
0
0
0
0
0
0
0
0
0
0
0
0
0
0
0
0
0
0
0
0
0
0
0
0
0
0
0
0
0
0
0
0
0
0
0
0
0
0
0
0
0
0
0
0
0
0
0
0
0
0
0
0
0
0
0
0
0
0
0
0
0
0
0
0
0
0
0
0
0
0
0
0
0
0
0
0
0
0
0
0
0
0
0
0
0
0
0
0
0
0
0
0
0
0
0
0
0
0
0
0
0
0
0
0
0
0
0
0
0
0
0
0
0
0
0
0
0
0
0
0
0
0
0
0
0
0
0
0
0
0
0
0
0
0
0
0
0
0
0
0
0
0
0
0
0
0
0
0
0
0
0
0
0
0
0
0
0
0
0
0
0
0
0
0
0
0
0
0
0
0
0
0
0
0
0
0
0
0
0
0
0
0
0
0
0
0
0
0
0
0
0
0
0
0
0
0
0
0
0
0
0
0
0
0
0
0
0
0
0
0
0
0
0
0
0
0
0
0
0
0
0
0
0
0
0
0
0
0
0
0
0
0
0
0
0
0
0
0
0
0
0
0
0
0
0
0
0
0
0
0
0
0
0
0
0
0
0
0
0
0
0
0
0
0
0
0
0
0
0
0
0
0
0
0
0
0
0
0
0
0
0
0
0
0
0
0
0
0
0
0
0
0
0
0
0
0
0
0
0
0
0
0
0
0
0
0
0
0
0
0
0
0
0
0
0
0
0
0
0
0
0
0
0
0
0
0
0
0
0
0
0
0
0
0
0
0
0
0
0
0
0
0
0
0
0
0
0
0
0
0
0
0
0
0
0
0
0
0
0
0
0
0
0
0
0
0
0
0
0
0
0
0
0
0
0
0
0
0
0
0
0
0
0
0
0
0
0
0
0
0
0
0
0
0
0
0
0
0
0
0
0
0
0
0
0
0
0
0
0
0
0
0
0
0
0
0
0
0
0
0
0
0
0
0
0
0
0
0
0
0
0
0
0
0
0
0
0
0
0
0
0
0
0
0
0
0
0
0
0
0
0
0
0
0
0
0
0
0
0
0
0
0
0
0
0
0
0
0
0
0
0
0
0
0
0
0
0
0
0
0
0
0
0
0
0
0
0
0
0
0
0
0
0
0
0
0
0
0
0
0
0
0
0
0
0
0
0
0
0
0
0
0
0
0
0
0
0
0
0
0
0
0
0
0
0
0
0
0
0
0
0
0
0
0
0
0
0
0
0
0
0
0
0
0
0
0
0
0
0
0
0
0
0
0
0
0
0
0
0
0
0
0
0
0
0
0
0
0
0
0
0
0
0
0
0
0
0
0
0
0
0
0
0
0
0
0
0
0
0
0
0
0
0
0
0
0
0
0
0
0
0
0
0
0
0
0
0
0
0
0
0
0
0
0
0
0
0
0
0
0
0
0
0
0
0
0
0
0
0
0
0
0
0
0
0
0
0
0
0
0
0
0
0
0
0
0
0
0
0
0
0
0
0
0
0
0
0
0
0
0
0
0
0
0
0
0
0
0
0
0
0
0
0
0
0
0
0
0
0
0
0
0
0
0
0
0
0
0
0
0
0
0
0
0
0
0
0
0
0
0
0
0
0
0
0
0
0
0
0
0
0
0
0
0
0
0
0
0
0
0
0
0
0
0
0
0
0
0
0
0
0
0
0
0
0
0
0
0
0
0
0
0
0
0
0
0
0
0
0
0
0
0
0
0
0
0
0
0
0
0
0
0
0
0
0
0
0
0
0
0
0
0
0
0
0
0
0
0
0
0
0
0
0
0
0
0
0
0
0
0
0
0
0
0
0
0
0
0
0
0
0
0
0
0
0
0
0
0
0
0
0
0
0
0
0
0
0
0
0
0
0
0
0
0
0
0
0
0
0
0
0
0
0
0
0
0
0
0
0
0
0
0
0
0
0
0
0
0
0
0
0
0
0
0
0
0
0
0
0
0
0
0
0
0
0
0
0
0
0
0
0
0
0
0
0
0
0
0
0
0
0
0
0
0
0
0
0
0
0
0
0
0
0
0
0
0
0
0
0
0
0
0
0
0
0
0
0
0
0
0
0
0
0
0
0
0
0
0
0
0
0
0
0
0
0
0
0
0
0
0
0
0
0
0
0
0
0
0
0
0
0
0
0
0
0
0
0
0
0
0
0
0
0
0
0
0
0
0
0
0
0
0
0
0
0
0
0
0
0
0
0
0
0
0
0
0
0
0
0
0
0
0
0
0
0
0
0
0
0
0
0
0
0
0
0
0
0
0
0
0
0
0
0
0
0
0
0
0
0
0
0
0
0
0
0
0
0
0
0
0
0
0
0
0
0
0
0
0
0
0
0
0
0
0
0
0
0
0
0
0
0
0
0
0
0
0
0
0
0
0
0
0
0
0
0
0
0
0
0
0
0
0
0
0
0
0
0
0
0
0
0
0
0
0
0
0
0
0
0
0
0
0
0
0
0
0
0
0
0
0
0
0
0
0
0
0
0
0
0
0
0
0
0
0
0
0
0
0
0
0
0
0
0
0
0
0
0
0
0
0
0
0
0
0
0
0
0
0
0
0
0
0
0
0
0
0
0
0
0
0
0
0
0
0
0
0
0
0
0
0
0
0
0
0
0
0
0
0
0
0
0
0
0
0
0
0
0
0
0
0
0
0
0
0
0
0
0
0
0
0
0
0
0
0
0
0
0
0
0
0
0
0
0
0
0
0
0
0
0
0
0
0
0
0
0
2.08845e-11
1.44019e-08
6.48587e-10
6.54251e-11
1.27648e-11
1.60849e-11
1.18596e-11
5.77409e-07
1.40301e-07
2.57153e-08
8.33613e-05
1.91103e-05
0.00111826
1.43178e-06
0.000615499
4.38069e-07
5.19466e-08
9.7677e-08
5.43661e-06
3.41308e-07
4.00259e-05
6.52895e-09
2.13319e-10
1.5677e-10
7.29165e-11
3.88678e-11
3.89633e-11
3.77548e-11
2.55663e-11
2.93398e-10
3.79259e-11
3.64888e-11
2.1995e-10
1.80338e-09
4.71264e-08
0.000353114
2.52623e-07
2.18789e-05
1.53368e-07
8.1041e-06
5.99162e-07
9.75778e-08
4.177e-05
0.00461256
0.000713318
4.57141e-06
3.7604e-07
9.19178e-08
4.02016e-05
4.52352e-08
9.16134e-06
1.26139e-06
0.00173524
0.000224541
3.04261e-06
2.54694e-05
2.84187e-05
0.0020317
0.000247082
1.34446e-06
1.95242e-07
4.71438e-08
1.05946e-05
3.26811e-05
4.89867e-06
0.000436019
3.16102e-06
3.18719e-07
1.15128e-07
7.64259e-08
1.70154e-10
1.09212e-10
9.42e-11
4.81951e-09
1.23651e-10
5.20197e-10
9.57645e-11
1.52352e-11
2.00327e-11
6.36714e-11
8.47683e-10
2.05906e-11
9.0146e-11
1.64043e-11
4.88324e-07
1.31194e-05
1.06241e-06
1.82732e-07
2.41004e-07
1.52873e-07
1.4816e-07
3.46638e-05
5.84564e-08
4.25833e-06
3.26835e-07
4.36407e-08
3.05253e-08
2.37135e-06
1.45022e-05
6.49002e-05
7.6064e-06
2.87964e-07
5.48901e-07
2.35538e-07
8.60843e-07
1.87165e-06
1.47748e-06
1.8613e-07
1.73725e-07
7.62998e-08
6.33808e-08
7.21639e-08
4.01129e-07
2.73415e-05
4.10544e-06
1.4815e-07
1.34427e-07
1.22049e-07
2.93934e-07
4.6538e-06
1.05663e-07
3.74792e-07
8.25631e-08
1.10926e-07
8.20821e-08
7.80522e-08
1.37813e-07
1.49908e-07
8.71721e-06
1.37434e-07
6.36652e-08
6.42924e-08
6.43214e-08
9.93343e-08
7.48514e-08
3.8614e-06
6.43308e-08
3.74752e-08
3.80471e-08
3.79896e-08
2.61333e-08
1.72189e-08
6.8699e-07
2.65193e-08
1.26141e-08
1.31087e-08
1.33152e-08
5.23924e-08
3e-08
3.04069e-08
6.64621e-08
3.4049e-06
8.19781e-08
3.07263e-08
3.10347e-07
1.89825e-07
9.71407e-08
9.85729e-08
8.89857e-08
8.84543e-08
8.66343e-08
7.40288e-08
9.90084e-08
6.37628e-08
3.81184e-08
3.82668e-08
3.80386e-08
3.75626e-08
4.91525e-08
4.04338e-08
4.02416e-08
4.61662e-08
4.03905e-08
9.34841e-07
5.58778e-08
4.2982e-08
5.06742e-08
8.41835e-07
4.30149e-08
4.8244e-08
4.26035e-08
4.27336e-08
1.59704e-07
1.45552e-07
3.19884e-06
1.32285e-07
1.13729e-07
1.13453e-07
1.13604e-07
2.6052e-10
1.10431e-10
5.22859e-10
1.1146e-10
1.10549e-10
1.1024e-10
1.1022e-10
5.12058e-11
5.03045e-11
5.01227e-11
1.9033e-10
7.60121e-11
5.04716e-11
5.01724e-11
1.8254e-08
1.80283e-08
7.23084e-08
2.08274e-08
1.72973e-08
1.73413e-08
1.73577e-08
2.68062e-08
2.76121e-08
2.68885e-08
4.58772e-08
2.80437e-08
2.69407e-08
1.7725e-07
1.17375e-08
7.29571e-09
7.85538e-09
7.46626e-09
7.3422e-09
7.37268e-09
4.26612e-08
1.19628e-08
1.23491e-08
5.78699e-08
1.48128e-08
1.15524e-08
1.15842e-08
1.15914e-08
1.07887e-07
2.18095e-07
1.07078e-07
1.0737e-07
3.87863e-07
1.09239e-07
1.07715e-07
9.97606e-08
5.45279e-08
1.78583e-07
5.53942e-08
5.38038e-08
5.43637e-08
5.38566e-08
1.25933e-07
6.18705e-08
6.05518e-08
6.07004e-08
5.97812e-08
6.02409e-08
5.99197e-08
3.28863e-08
2.68142e-08
2.59952e-08
2.672e-08
2.59831e-08
2.61287e-08
2.5963e-08
1.85615e-07
2.84622e-08
2.88571e-08
2.77412e-08
2.76874e-08
2.76061e-08
2.76902e-08
)
;

boundaryField
{
    ground
    {
        type            calculated;
        value           nonuniform List<scalar> 
230
(
0
0
1.02885e-08
6.49002e-05
1.44019e-08
6.6626e-13
2.86765e-15
0
0
0
2.139e-12
1.02798e-11
2.1932e-13
2.5092e-15
0
0
0
0
6.3178e-15
2.73726e-14
1.34421e-16
0
0
0
0
0
0
0
0
0
0
0
0
0
0.537293
123.705
0.00272238
1.40301e-07
23.7139
5.50275
63.8116
0
0
0
2.3295e-09
1.05091e-12
3.40534e-15
0.980977
8.47683e-10
1.70578e-13
0
0
150.468
16.5056
70.3973
0.000314215
0.00930214
1.85615e-07
5.91253e-13
2.46439e-15
159.009
44.678
38.8512
2.33018e-07
7.315e-09
2.84187e-05
4.177e-05
2.68886e-08
9.16134e-06
6.70445
27.0924
129.41
2.08382e-06
2.36697e-09
5.07515e-09
0.686977
0.00331273
0.308879
1.6961
2.46224
0.0144111
14.5681
0.243664
0.00364287
0.00474105
0.000374083
0.0677121
0.0050011
0.779282
0.0529177
1.82219e-05
1.24068e-09
7.51078e-11
0.000272082
0.0492724
0.517837
0
0
0
0
0
0
0
0
0
0
0
0
0
0
0
0
0
0
0
0
0
0
0
0
0
0
0
0
0
0
0
0
0
0
0
0
0
0
0
0
0
0
0
0
0
0
0
0
0
0
0
0
0
0
0
0
0
0
0
0
0
0
0
0
0
0
0
0
0
0
0
0
0
0
0
0
0
0
0
0
0
0
0
0
0
0
0
0
0
2.03491e-10
1.27648e-11
6.54251e-11
1.91103e-05
0.00111826
7.26427e-06
2.1995e-10
2.71296e-11
2.93398e-10
0.0020317
1.05946e-05
1.95242e-07
3.7604e-07
4.02016e-05
0.00461256
0.00173524
2.54694e-05
1.78535e-07
0.000114571
8.60843e-07
5.48901e-07
1.09212e-10
1.23651e-10
4.81951e-09
2.05906e-11
1.52352e-11
6.36714e-11
4.36407e-08
2.37135e-06
3.46638e-05
1.34427e-07
2.93934e-07
2.73415e-05
1.73725e-07
7.21639e-08
1.47748e-06
2.84622e-08
2.76902e-08
2.88571e-08
7.85538e-09
4.26612e-08
7.46626e-09
2.76121e-08
1.7725e-07
2.80437e-08
)
;
    }
    outlet
    {
        type            calculated;
        value           nonuniform List<scalar> 
560
(
1.02885e-08
1.64522e-11
6.4615e-14
0
2.139e-12
5.33546e-14
0
0
6.3178e-15
0
0
0
0
0
0
0
0
0
0
0
0
0
0
0
0
0
0
0
0
0
0
0
0
0
0
0
0
0
0
0
0
0
0
0
0
0
0
0
0
0
0
0
0
0
0
0
0
0
0
0
0
0
0
0
0
0
0
0
0
0
0
0
0
0
0
0
0
0
0
0
0
0
0
0
0
0
0
0.537293
0
0
0
0
0
0
0
0
0
0
0
0
0
0
0
0
0
0
0
0
0
0
0
0
0
0
0
0
0
0
0
0
0
0
0
0
0
0
0
0
0
0
0
0
0
0
0
0
0
0
0
0
0
0
0
0
0
0
0
0
0
0
0
0
0
0
0
1.40301e-07
4.04338e-08
2.42584e-06
0
0
0
0
4.31882e-09
1.4566e-12
2.77804e-15
0
0
0
0
0
5.79567e-08
1.08526e-11
3.01279e-14
0
0
0
0
0
0
0
0
0
0
0
0
0
0
0
0
0
0
0
0
0
0
7.33458e-10
1.66862e-11
5.35179e-10
2.11843e-10
2.32853e-11
5.18385e-11
0.00364287
0.000239306
0.0353412
7.51078e-11
3.10957e-11
5.19673e-10
0.000313665
2.44882e-06
1.69212e-07
0
0
0
0
0
0
0
0
0
0
0
0
0
0
0
0
0
0
0
0
0
0
0
0
0
0
0
0
0
0
0
0
0
0
0
0
0
0
0
0
0
0
0
0
0
0
0
0
0
0
0
0
0
0
0
0
0
0
0
0
0
0
0
0
0
0
0
0
0
0
0
0
0
0
0
0
0
0
0
0
0
0
0
0
0
0
0
0
0
0
0
0
0
0
0
0
0
0
0
0
0
0
0
0
0
0
0
0
0
0
0
0
0
0
0
0
0
0
0
0
0
0
0
0
0
0
0
0
0
0
0
0
0
0
0
0
0
0
0
0
0
0
0
0
0
0
0
0
0
0
0
0
0
0
0
0
0
0
0
0
0
0
0
0
0
0
0
0
0
0
0
0
0
0
0
0
0
0
0
0
0
0
0
0
0
0
0
0
0
0
0
0
0
0
0
0
0
0
0
0
0
0
0
0
0
0
0
0
0
0
0
0
0
0
0
0
0
0
0
0
0
0
0
0
0
0
0
0
0
0
0
0
0
0
0
0
0
0
0
0
0
0
0
0
0
0
0
0
0
0
0
0
0
0
0
0
0
0
0
0
0
0
0
0
0
0
0
0
0
0
0
0
0
0
0
0
0
0
0
0
0
0
0
0
0
0
0
0
0
0
0
0
0
0
0
0
0
0
0
0
0
0
0
0
0
0
0
0
0
0
0
0
0
0
0
0
0
0
0
0
0
0
0
0
0
0
0
0
0
0
0
0
0
0
0
0
0
0
0
0
0
2.57153e-08
1.43178e-06
1.91103e-05
4.07314e-08
5.58778e-08
4.03905e-08
4.2982e-08
4.27336e-08
4.30149e-08
)
;
    }
    wall
    {
        type            calculated;
        value           nonuniform List<scalar> 0();
    }
    wall2
    {
        type            calculated;
        value           nonuniform List<scalar> 0();
    }
    wall3
    {
        type            calculated;
        value           nonuniform List<scalar> 0();
    }
    internalPatch
    {
        type            internal;
    }
    procBoundary1to0
    {
        type            processor;
        value           uniform 0;
    }
    procBoundary1to2
    {
        type            processor;
        value           uniform 0;
    }
    procBoundary1to3
    {
        type            processor;
        value           nonuniform List<scalar> 
321
(
0
0
0
0
0
0
0
0
0
0
0
0
0
0
0
0
0
0
0
0
0
0
0
0
0
0
0
0
0
0
0
0
0
0
0
0
0
0
0
0
0
0
5.3864e-14
9.86029e-12
8.07998e-11
1.50028e-07
3.29731e-07
6.0352e-07
9.64461e-07
9.64461e-07
0.000120915
0.0231031
2.96518
30.6298
7.89782
0.364357
0.00468413
0.00468413
0.728991
22.929
103.965
205.871
277.033
298.729
283.778
271.783
195.934
97.252
19.321
3.10253
0.0326958
0.000229537
1.64539e-06
1.45488e-07
4.91754e-08
4.91754e-08
6.72441e-08
1.0218e-07
6.11129e-08
2.63563e-10
6.20888e-12
1.75957e-14
0
0
0
0
0
0
0
0
0
0
0
0
0
1.26302e-14
1.26302e-14
0
0
0
0
0
0
0
8.51334e-16
4.18072e-13
9.69715e-12
1.30912e-11
1.80256e-08
1.22856e-07
1.43508e-07
2.33588e-07
2.81697e-07
2.81697e-07
1.4926e-05
0.00245249
0.33526
9.28929
1.4542
0.0419083
0.000565164
0.000565164
0.0852414
6.41588
53.723
135.261
198.184
205.002
174.56
152.263
95.9881
34.5122
1.62794
0.0121497
8.33508e-05
6.84791e-07
1.65443e-05
2.04402e-07
8.39113e-08
8.39113e-08
1.28543e-07
1.68915e-06
1.30685e-07
1.54037e-06
3.56719e-05
2.29062e-06
1.38396e-07
2.76429e-09
5.87153e-09
2.09418e-11
5.67523e-14
0
0
0
0
0
0
0
0
2.46439e-15
9.087e-13
5.70922e-11
2.55453e-12
2.55453e-12
1.70267e-15
0
0
6.12182e-11
2.74206e-10
1.07484e-09
6.46991e-08
6.52168e-08
6.53644e-08
6.53644e-08
2.19207e-07
4.57781e-05
0.00560274
0.315552
0.0253615
0.00050096
7.52169e-06
7.52169e-06
0.000909457
0.146587
6.67838
39.6759
79.3109
93.618
65.5223
42.642
15.3555
0.289652
0.00230864
0.0275595
0.000218279
1.54226e-06
9.5433e-08
9.5433e-08
5.70395e-07
1.67977e-05
0.000259382
1.46889e-05
2.29873e-07
3.71914e-07
6.37393e-07
3.0867e-07
2.95403e-09
2.14556e-10
4.12037e-08
8.16252e-10
1.26329e-07
1.25496e-09
6.76299e-11
6.76299e-11
1.07484e-09
6.45549e-08
6.45549e-08
6.68059e-08
8.48863e-07
8.07574e-05
0.00326803
0.000215772
4.92326e-06
1.63968e-07
1.63968e-07
8.24667e-06
0.000974827
0.0706908
1.92505
9.90141
16.089
7.92551
2.73426
0.118531
0.000953151
6.52439e-06
1.21328e-07
1.21328e-07
1.88531e-06
5.03673e-05
0.000593243
2.13542e-05
5.70515e-05
2.46039e-05
2.66949e-06
1.49331e-07
7.09979e-05
7.09979e-05
1.35554e-05
4.44451e-07
1.27608e-07
3.64851e-07
1.28799e-07
9.93057e-07
8.24979e-08
7.62005e-08
8.18264e-08
7.81905e-07
9.24261e-05
0.00326803
0.000215772
4.92326e-06
1.63968e-07
8.24667e-06
0.000974827
0.0706908
0.0127752
0.0127752
0.133086
0.354298
0.00274318
1.89442e-05
2.08208e-07
2.08208e-07
5.09036e-06
0.000137536
0.00145654
0.000733837
4.34312e-05
4.13119e-06
4.13119e-06
0.00067448
0.0115965
0.00209648
3.86325e-05
0.00602196
7.19446e-05
0.010056
0.334135
0.0261015
0.000536926
0.0715621
3.27263
0.600523
0.00357757
7.62716e-05
7.62716e-05
0.000917007
5.58098e-06
1.13685e-07
1.13685e-07
1.6351e-06
2.1374e-07
2.1374e-07
1.97871e-05
5.44812e-07
5.44812e-07
7.71624e-08
7.71624e-08
7.71624e-08
0.106031
1.54241
0.242339
15.4327
0.697881
11.8761
2.00057
25.3661
8.83689
34.4529
65.0273
)
;
    }
    procBoundary1to6
    {
        type            processor;
        value           uniform 0;
    }
    procBoundary1to7
    {
        type            processor;
        value           uniform 0;
    }
}


// ************************************************************************* //
