/*--------------------------------*- C++ -*----------------------------------*\
  =========                 |
  \\      /  F ield         | OpenFOAM: The Open Source CFD Toolbox
   \\    /   O peration     | Website:  https://openfoam.org
    \\  /    A nd           | Version:  9
     \\/     M anipulation  |
\*---------------------------------------------------------------------------*/
FoamFile
{
    format      ascii;
    class       volScalarField;
    location    "0.0001";
    object      lambda.c4;
}
// * * * * * * * * * * * * * * * * * * * * * * * * * * * * * * * * * * * * * //

dimensions      [0 0 0 0 0 0 0];

internalField   nonuniform List<scalar> 
2259
(
1
7.62622e-08
9.30913e-28
1.69962e-39
0
2.07963e-05
2.56738e-20
4.50164e-36
0.251158
1.00131e-11
2.27881e-33
8.65466e-45
1.06081e-08
4.592e-23
1.19358e-43
1.19833e-73
7.14884e-23
1.42837e-43
1.81771e-72
9.64038e-112
4.67609e-52
1.13958e-72
4.00147e-111
1.33376e-148
1.57357e-52
1.16167e-72
8.07469e-111
2.48308e-148
4.98739e-192
8.49819e-75
1.74246e-111
1.97807e-148
5.90358e-192
2.2408e-234
0.146932
8.09693e-12
6.5016e-27
9.65124e-71
3.82257e-07
3.71337e-11
8.55584e-29
1.33179e-39
4.95741e-05
9.16098e-27
2.03662e-36
3.62389e-67
4.74281e-22
3.28816e-32
9.6389e-66
2.25671e-99
6.37369e-32
1.56919e-65
7.59348e-99
1.81697e-138
6.31551e-66
9.01534e-99
2.35762e-138
1.44595e-175
6.97632e-71
7.99754e-99
1.43649e-138
1.81264e-175
6.52933e-222
6.36441e-100
4.39739e-139
6.58881e-176
3.69513e-222
6.63312e-265
1.15178e-11
8.41283e-26
5.4781e-69
2.16093e-93
1.1545e-10
5.45871e-27
5.93317e-39
1.17982e-69
2.84469e-25
8.36586e-36
4.67281e-66
9.99328e-103
3.96484e-32
9.7358e-65
1.01859e-98
4.13586e-138
5.37869e-65
5.77307e-98
3.96638e-137
2.09507e-174
5.65462e-98
4.00913e-137
2.5678e-174
5.10054e-220
1.01062e-98
8.78232e-138
1.79935e-174
3.32181e-220
1.62169e-262
1.09046e-143
2.66318e-175
1.95401e-220
1.4533e-262
2.96439e-313
1.5661e-26
7.6247e-69
4.2108e-93
1.15399e-136
4.11188e-27
9.77133e-39
2.59118e-69
1.04277e-107
5.65699e-36
4.93049e-66
2.93845e-102
1.07799e-139
3.43196e-65
1.19945e-98
1.08031e-137
1.94217e-175
5.07006e-98
4.64922e-137
4.44188e-174
9.774e-220
1.86872e-137
7.7806e-174
1.08414e-219
8.49339e-262
3.20631e-143
2.52283e-174
1.50289e-219
1.23191e-261
2.07508e-312
6.57928e-176
1.18043e-220
8.6763e-262
1.38338e-312
0
6.13792e-99
5.13559e-138
2.85487e-175
2.79159e-221
6.95683e-138
1.72015e-174
7.83546e-220
2.46279e-262
2.10762e-174
7.72799e-220
8.22548e-262
1.87745e-312
5.85761e-176
1.49482e-220
1.09484e-261
1.77864e-312
0
5.70251e-226
1.4076e-262
1.77864e-312
0
0
1.75114e-138
1.36391e-175
3.70725e-221
1.07027e-264
1.93468e-175
2.17821e-220
2.54757e-262
1.97626e-313
1.30177e-220
4.4948e-262
1.67982e-312
0
9.0032e-226
1.12868e-262
1.03754e-312
0
0
4.67915e-265
9.88131e-314
0
0
0
1.52797e-176
1.47321e-221
4.78569e-265
0
7.92713e-222
5.93518e-263
1.97626e-313
0
3.3497e-263
3.95253e-313
0
0
2.99616e-265
4.94066e-314
0
0
0
0
0
0
0
0
0
0
0
0
0
0
0
0
0
0
0
0
0
0
0
0
0
0
0
0
0
0
0
0
0
0
0
0
0
0
0
0
0
0
0
0
0
0
0
0
0
0
0
0
0
1
5.18641e-70
2.97184e-93
1.47991e-136
1.69217e-171
1.39509e-39
1.45984e-69
1.04609e-107
1.75896e-146
1.1393e-66
1.1538e-102
1.53881e-139
1.87828e-180
4.5538e-94
9.33133e-137
1.60072e-171
6.32147e-220
9.81921e-71
5.93873e-108
1.40927e-146
1.88474e-190
4.8065e-103
7.22566e-140
1.4479e-180
9.59871e-224
6.44405e-138
4.30674e-172
3.95725e-220
3.20721e-260
9.75586e-109
3.06102e-147
1.03341e-190
1.50884e-236
4.23127e-141
1.73665e-181
3.1139e-224
2.20301e-269
1.80215e-173
9.70322e-221
7.93478e-261
0
5.23021e-149
7.80601e-192
6.82759e-237
1.5111e-301
6.15153e-183
4.86615e-225
8.71762e-270
0
1.19639e-223
1.06448e-265
0
0
2.5107e-265
1.44347e-222
1.06484e-261
0
0
8.90404e-194
2.8979e-238
5.24197e-302
0
1.23419e-227
1.2198e-271
0
0
2.12904e-267
0
0
0
0
0
0
0
4.22006e-264
0
0
0
3.61014e-240
3.79998e-304
0
0
8.98477e-274
0
0
0
0
0
0
0
0
0
0
0
0
1
0
1
0
1
1
1
1
1
1
1
1
1
1
1
1
1
1
1
1
1.99076e-104
4.09873e-78
6.40711e-45
3.73516e-123
1.02995e-76
2.55938e-78
1.03629e-148
2.41532e-119
9.43618e-102
3.58743e-195
9.11686e-151
4.01966e-143
2.08673e-233
1.29664e-199
1.02031e-179
1.14695e-179
1.36554e-283
1.97999e-236
5.58384e-226
3.45191e-226
0
1.91686e-286
6.82115e-269
1.46573e-269
0
0
0
0
0
0
0
0
0
0
0
1
1
0
1
4.89203e-18
4.2158e-13
1.32716e-21
4.59481e-30
1.27926e-34
6.56556e-54
0
1
1
4.24162e-05
0.000297177
1.25408e-05
2.86702e-07
9.64199e-29
8.48284e-25
3.92459e-35
4.07044e-38
2.72832e-74
0
0.0243597
1
0
1.02874e-05
1.94387e-06
4.69091e-07
3.05532e-27
0
1.68281e-24
3.312e-32
4.55659e-37
3.3107e-77
3.67652e-73
5.98779e-107
1.69565e-05
0
2.7705e-05
1.91556e-14
1.59284e-10
1.07467e-26
3.84203e-28
1.73531e-32
4.94645e-32
5.62492e-37
5.7888e-71
4.3189e-73
1.98326e-101
2.64985e-106
3.26083e-146
0
5.51193e-28
1.22224e-18
1.08404e-28
9.36389e-31
5.92765e-37
1.02976e-37
5.76119e-75
1.06329e-70
2.32699e-73
2.32299e-101
3.81074e-106
9.65582e-143
9.28066e-146
3.72111e-185
4.11747e-34
9.87261e-93
1.03889e-33
5.62435e-48
6.73648e-42
4.77269e-78
2.80547e-76
4.66946e-100
5.49849e-102
1.69357e-106
3.51848e-143
5.40389e-146
2.9497e-185
2.57516e-230
4.11254e-100
1.8662e-96
1.90732e-67
2.62491e-99
3.56108e-80
5.8882e-105
5.72136e-108
1.72035e-147
8.22761e-144
5.22471e-147
4.17161e-180
1.28991e-185
1.98713e-230
3.16091e-275
8.32523e-104
2.37471e-140
4.7835e-103
2.64143e-127
9.14349e-113
1.19189e-151
1.07753e-150
8.55027e-179
3.82197e-181
1.08563e-186
5.15759e-228
9.97111e-227
1.34007e-231
6.54771e-276
0
8.22113e-176
1.08843e-177
1.39161e-142
7.90951e-178
6.40658e-157
2.85149e-186
5.86706e-189
8.05982e-232
4.35508e-228
4.80618e-233
4.51906e-268
1.72607e-270
5.75817e-277
0
0
6.35889e-186
8.63757e-226
9.85761e-185
8.20117e-214
1.75173e-195
2.63954e-237
6.91832e-237
3.01075e-271
4.04463e-272
6.71598e-279
0
0
0
0
0
0
1
0
1
1
1
1
3.96579e-09
3.30494e-10
4.38808e-24
8.05512e-05
2.2424e-22
2.24764e-32
4.70082e-32
1.5586e-70
8.02158e-71
1.81443e-98
9.38636e-99
3.04216e-143
4.64877e-144
6.69128e-176
5.93698e-177
2.79419e-226
3.12591e-266
0
0
0
0.951249
0
0
0
1
1
1
1
1
1
1
1
1
1
0
0
0.950596
0
0
1
0
1
1
0.971525
1
1
0
1
0
1
1
1
1
0
1
1
1
1
1
1
1
0
0
1
0
0.274807
1
0
1
1
1
1
1
1
1
1
1
0
1
0
0
0.792994
1
1
1
1
0
1
0
1
1
1
1
1
1
1
1
1
0
0
1
1
0
1
1
0
0.0109665
0
0
0.00376989
0
0.279786
0
0.895491
1
1
0.904709
1
1
0.998497
0
0.110377
1
0
1
1
1
1
1
1
1
0
1
1
0.127947
0.347384
0
1
0.56121
1
0
0
0
1
0
1
0
0
0.0572036
0
0
0.0611318
0
0.592215
1
1
1
1
1
0
0
1
1
1
0
0
0
0
1.45461e-05
0
2.03244e-05
1
0
1
0
0
0
1
0
1
0.751758
0
0
0
0
0
0
1
0
0
0
0
0
1
1
0
1
1
1
0.154575
0
0
6.94667e-17
0.000110447
1
0
0
5.05061e-06
0
0
1
1
0
0
0
0
0
0
0
0
0
0
1
0
1
1
1
0
1
1
0
0
0
0
0
1
0
0
0
0
0
0
0
0
0
0
0
0
0
0
0
0
0
0
0
0
0
0
0
0
0
0
0
0
1.06595e-143
2.79902e-150
8.78934e-196
9.02005e-234
7.84048e-284
0
0
0
0
0
0
0
0
0
0
2.66031e-182
9.26408e-228
8.66415e-204
1.59427e-237
1.2818e-234
8.64141e-286
1.52011e-284
0
0
0
0
0
0
0
0
4.24355e-269
3.74016e-289
0
0
0
0
0
0
0
0
0
0
0
0
0
0
0
0
0
0
0
0
0
5.36555e-87
1.87815e-121
9.78142e-150
2.10715e-192
1.27402e-234
7.10888e-284
7.1843e-109
2.92775e-145
1.77227e-176
5.8814e-223
3.75492e-265
0
4.1736e-147
8.11443e-177
3.15489e-221
3.20854e-263
1.4822e-313
0
6.52756e-186
3.03861e-226
6.81256e-263
6.42285e-313
0
0
3.61671e-230
1.98554e-265
4.94066e-314
0
0
0
5.23023e-275
0
0
0
0
0
0
0
0
0
0
0
0
0
0
0
0
0
0
0
0
0
0
0
0
0
0
0
0
0
0
0
0
0
0
0
0
0
0
0
0
0
0
0
0
0
0
0
0
0
0
0
0
0
0
0
0
0
0
0
1.16935e-115
7.08313e-188
4.70709e-153
2.48852e-229
2.26236e-181
4.67599e-239
8.03973e-227
1.09438e-287
1.07152e-269
0
0
0
0
0
0
1.33037e-125
1.87675e-152
2.29742e-194
3.2469e-235
2.85379e-284
0
8.60902e-149
5.65095e-179
1.51357e-223
7.15325e-266
0
0
8.49932e-187
3.46018e-227
2.11559e-264
0
0
0
2.18159e-231
2.79641e-266
0
0
0
0
2.60326e-275
0
0
0
0
0
0
0
0
0
0
0
0
0
0
0
0
0
3.27598e-158
3.63463e-184
1.75111e-229
4.0007e-270
0
0
0
0
0
0
1.20631e-181
8.30177e-204
1.79646e-237
3.64015e-285
0
0
2.03391e-190
4.36531e-230
3.58125e-267
0
0
0
1.84048e-232
1.97032e-267
0
0
0
0
1.85324e-276
0
0
0
0
0
0
0
0
0
0
0
0
0
0
0
0
0
0
0
0
0
0
0
0
0
0
0
0
0
0
0
0
0
0
0
0
0
0
0
0
0
2.55232e-242
6.01577e-243
4.25057e-290
0
0
0
0
0
0
0
6.40699e-198
1.69629e-239
1.71572e-272
0
0
0
0
0
0
0
1.97616e-229
1.88811e-241
1.92839e-288
0
0
0
8.14827e-236
4.80493e-271
0
0
0
0
3.25983e-278
0
0
0
0
0
0
0
0
0
0
0
0
0
0
0
0
0
0
0
0
0
0
0
0
0
0
0
0
0
0
0
0
0
0
0
0
0
0
0
0
0
0
0
0
0
0
0
9.97992e-274
2.9421e-248
3.28754e-271
4.51562e-294
4.73543e-277
2.28075e-283
0
0
0
0
0
0
0
0
0
0
0
0
0
0
0
0
0
0
0
0
0
0
0
0
1.60404e-301
0
0
0
0
0
0
0
0
0
0
0
0
0
0
0
0
0
0
0
0
0
0
0
0
0
0
0
0
0
0
0
0
0
0
0
0
0
0
0
0
0
0
0
0
0
0
0
0
0
0
0
0
0
0
0
0
0
0
0
0
0
0
0
0
0
0
0
0
0
0
0
0
0
0
2.13932e-293
0
0
0
0
0
0
0
0
0
0
0
0
0
0
0
0
0
0
0
0
0
0
0
0
0
0
0
0
0
0
0
0
0
0
0
0
0
0
0
0
0
0
0
0
0
0
0
0
0
0
0
0
0
0
0
0
0
0
0
0
0
0
0
0
0
0
0
0
0
0
0
0
0
0
0
0
0
0
0
0
0
0
0
0
0
0
0
0
0
0
0
0
0
0
0
0
0
0
0
0
0
0
0
0
0
0
0
0
0
0
0
0
0
0
0
0
0
0
0
0
0
0
0
0
0
0
0
0
0
0
0
0
0
0
0
0
0
0
0
0
0
0
0
0
0
0
0
0
0
0
0
0
0
0
0
0
0
0
0
0
0
0
0
0
0
0
0
0
0
0
0
0
0
0
0
0
0
0
0
0
0
0
0
0
0
0
0
0
0
0
0
0
0
0
0
0
0
0
0
0
0
0
0
0
0
0
0
0
0
0
0
0
0
0
0
0
0
0
0
0
0
0
0
0
0
0
0
0
0
0
0
0
0
0
0
0
0
0
0
0
0
0
0
0
0
0
0
0
0
0
0
0
0
0
0
0
0
0
0
0
0
0
0
0
0
0
0
0
0
0
0
0
0
0
0
0
0
0
0
0
0
0
0
0
0
0
0
0
0
0
0
0
0
0
0
0
0
0
0
0
0
0
0
0
0
0
0
0
0
0
0
0
0
0
0
0
0
0
0
0
0
0
0
0
0
0
0
0
0
0
0
0
0
0
0
0
0
0
0
0
0
0
0
0
0
0
0
0
0
0
0
0
0
0
0
0
0
0
0
0
0
0
0
0
0
0
0
0
0
0
0
0
0
0
0
0
0
0
0
0
0
0
0
0
0
0
0
0
0
0
0
0
0
0
0
0
0
0
0
0
0
0
0
0
0
0
0
0
0
0
0
0
0
0
0
0
0
0
0
0
0
0
0
0
0
0
0
0
0
0
0
0
0
0
0
0
0
0
0
0
0
0
0
0
0
0
0
0
0
0
0
0
0
0
0
0
0
0
0
0
0
0
0
0
0
0
0
0
0
0
0
0
0
0
0
0
0
0
0
0
0
0
0
0
0
0
0
0
0
0
0
0
0
0
0
0
0
0
0
0
0
0
0
0
0
0
0
0
0
0
0
0
0
0
0
0
0
0
0
0
0
0
0
0
0
0
0
0
5.12581e-108
9.49244e-81
1.47398e-146
1.55621e-104
8.42773e-152
5.32786e-145
5.3675e-200
5.90062e-180
7.40381e-237
3.17574e-226
2.34168e-286
4.73951e-269
0
0
0
0
0
0
0
0
0
0
0
0
0
4.83352e-153
1.53061e-153
1.24251e-201
1.20004e-237
3.42613e-287
0
0
0
0
0
0
0
0
0
0
0
0
0
0
0
0
0
0
0
0
0
0
0
0
0
0
0
0
0
0
0
0
0
0
0
0
0
0
0
0
0
0
0
0
0
0
0
0
0
0
0
0
0
0
0
0
0
0
0
0
0
0
0
0
0
0
0
0
0
0
0
0
0
0
0
0
0
0
0
0
0
0
0
0
0
0
0
0
0
0
0
0
0
0
0
0
0
0
0
0
0
0
0
0
0
0
0
0
0
0
0
0
0
0
0
0
0
0
0
0
0
0
0
0
0
0
0
0
0
0
0
0
0
0
0
0
0
0
0
0
0
0
0
0
0
0
0
0
0
0
0
0
0
0
0
0
0
0
0
0
0
0
0
0
0
0
0
0
0
0
0
1.19555e-05
1
0
0
1.07192e-08
4.45722e-07
6.45732e-17
0
1
0
0
0
0
0
1
1
0
1
1
0
1
1
0
0
0
3.67646e-08
2.90291e-07
1.88447e-19
4.06668e-15
1
0.000109547
0.000298193
0.384785
0
0
0
0
0
0
0
0
0
1
0
1
0
1
1
1
1
1
0
1
1
0
1
1
1
1
0
0
1
1
1
1
1
1
1
0
1
0
0
9.27118e-09
1
0
0
4.4932e-06
4.60805e-12
5.03096e-05
0.000286342
0
1.33146e-06
0.043497
7.97679e-10
1
1
1
0
0
1
1
1
1
1
1
0
0
1
1
1
1
1
0
1
0
1
1
1
1
1
1
1
0
0
0
0
0
0
0
0
0
0
0
0
0
0
1
1
1
1
1
1
1
1
1
1
1
1
1
1
1
1
1
1
0.699321
1
1
1
1
1
1
1
1
1
1
1
1
1
1
1
1
1
1
1
1
1
1
1
0
0
0
0
0
0
1
0
0
0
0
0
0
0
1
1
1
0
1
1
1
0
9.76153e-06
1
0
3.97884e-06
1.87009e-06
8.57935e-13
3.08404e-05
1.42587e-06
4.89359e-15
0
0
9.85832e-06
2.29088e-08
1
1
1
1
1
1
1
0
1
1
1
0
0
0
0
0.336708
1
0.952155
0.378953
0.16698
0
0
0
0
0
1
1
1
0
0
0
1
0
1
0
1
1
0
1
1
1
1
0
0
0
1
0
0
1
1
1
1
1
1
1
1
0
1
0
0
1
0
0
)
;

boundaryField
{
    ground
    {
        type            zeroGradient;
    }
    outlet
    {
        type            zeroGradient;
    }
    wall
    {
        type            zeroGradient;
    }
    wall2
    {
        type            zeroGradient;
    }
    wall3
    {
        type            zeroGradient;
    }
    internalPatch
    {
        type            internal;
    }
    procBoundary1to0
    {
        type            processor;
        value           uniform 0;
    }
    procBoundary1to2
    {
        type            processor;
        value           nonuniform List<scalar> 
80
(
0
0
0
0
0
0
0
0
0
0
0
0
0
0
0
0
0
0
0
1.4822e-313
5.80713e-262
9.36984e-224
1.78072e-169
8.18478e-143
4.88443e-147
5.21783e-195
1.08015e-232
9.70182e-283
0
0
0
0
0
0
0
0
0
0
0
0
0
0
0
0
0
0
0
2.29767e-286
2.83586e-235
7.37331e-199
1.22218e-233
2.92222e-283
0
0
0
0
0
0
0
0
0
0
0
0
0
0
0
1.52776e-284
0
0
0
0
0
0
0
0
0
0
0
0
)
;
    }
    procBoundary1to3
    {
        type            processor;
        value           nonuniform List<scalar> 
321
(
6.01612e-287
7.89951e-238
4.27368e-200
1.23311e-236
1.23311e-236
6.01612e-287
0
0
6.91008e-289
1.60399e-239
8.01591e-201
4.14441e-152
4.70365e-119
1.28354e-150
2.23351e-199
2.23351e-199
1.84222e-233
8.36641e-284
0
0
0
0
0
0
1.27205e-290
3.75707e-231
4.17581e-184
6.34494e-145
2.24338e-103
1.38869e-71
1.93472e-32
1.12474e-75
1.11184e-118
1.4143e-150
1.4143e-150
6.6654e-195
1.31693e-148
2.58125e-113
2.20563e-75
1.85861e-54
3.65832e-40
3.65832e-40
7.58356e-29
2.34327e-12
0
0
0
0
0
0
0
1
0.962884
1
1
1
1
1
1
1
1
1
1
1
1
1
1
1
1
1
1
1
1
0
0
0
0
0
1
0
1.96142e-05
4.0997e-19
1.43204e-34
5.71262e-68
4.38147e-104
5.44894e-143
7.07926e-185
7.71396e-182
3.05916e-193
3.75707e-231
4.17581e-184
6.34494e-145
2.24338e-103
1.38869e-71
1.93472e-32
9.84639e-23
9.84639e-23
1.38145e-49
2.55282e-75
1.06494e-118
1.06494e-118
2.59796e-75
0
0
3.67304e-28
0
1.04703e-19
2.37251e-06
1
0
0
1
1
1
0
1
0.740194
1
1
1
1
1
1
1
1
1
1
1
1
1
1
1
1
1
1
1
1
1
0
0
1
0
1
1
0
0
1
0
1
8.25002e-05
1.17718e-16
5.42866e-33
2.2025e-65
2.67045e-101
9.52747e-140
2.51839e-149
2.07828e-111
2.03686e-73
2.96419e-42
1.98783e-23
4.95061e-12
0.000230705
0.000185719
0.000185719
1.83943e-27
0
2.59796e-75
2.10088e-06
0
0
1
1
1
1
1
0
0
1
1
0
0
0
0
1
1
1
1
1
1
1
1
1
1
1
1
1
0
0
1
1
0
1
1
0
0
1
0
1
0
0
1
0
0.000478092
0.000478092
0
1
1
1
0
0
1
1
0
1
1
0
1
1
1
1
1
1
1
1
1
1
0
0
1
1
0
0
1
1
1
1
0
0
0
1
1
1
1
0
1
1
1
1
0
1
1
0
1
0
1
1
1
1
1
1
1
1
0
0
1
1
0
1
0
0
0
1
1
1
0
1
0
1
1
1
0
1
1
1
1
1
1
1
0
0
0
1
0
0
0
0
0
0
0
0
1
1
0.474867
0.98044
0.825214
1
1
1
1
1
1
)
;
    }
    procBoundary1to6
    {
        type            processor;
        value           uniform 0;
    }
    procBoundary1to7
    {
        type            processor;
        value           uniform 0;
    }
}


// ************************************************************************* //
