/*--------------------------------*- C++ -*----------------------------------*\
  =========                 |
  \\      /  F ield         | OpenFOAM: The Open Source CFD Toolbox
   \\    /   O peration     | Website:  https://openfoam.org
    \\  /    A nd           | Version:  9
     \\/     M anipulation  |
\*---------------------------------------------------------------------------*/
FoamFile
{
    format      ascii;
    class       volScalarField;
    location    "0.0001";
    object      overpressureMax;
}
// * * * * * * * * * * * * * * * * * * * * * * * * * * * * * * * * * * * * * //

dimensions      [1 -1 -2 0 0 0 0];

internalField   nonuniform List<scalar> 
2259
(
2.81135
1.69763e-07
6.69388e-10
0
0.326341
9.11226e-07
2.91038e-09
0
2.9588e-05
1.38534e-08
2.91038e-11
0
5.6345e-08
2.18279e-10
0
0
2.61934e-10
0
0
0
0
0
0
0
0
0
0
0
0
0
0
0
0
0
1.8494e-06
5.52973e-09
0
0
8.33363e-06
5.08735e-08
1.01863e-10
0
2.12327e-07
9.31323e-10
0
0
1.61526e-09
0
0
0
0
0
0
0
0
0
0
0
0
0
0
0
0
0
0
0
0
0
6.33008e-09
0
0
0
4.73374e-08
1.16415e-10
0
0
1.04774e-09
0
0
0
0
0
0
0
0
0
0
0
0
0
0
0
0
0
0
0
0
0
0
0
0
0
0
0
0
0
7.27596e-11
0
0
0
0
0
0
0
0
0
0
0
0
0
0
0
0
0
0
0
0
0
0
0
0
0
0
0
0
0
0
0
0
0
0
0
0
0
0
0
0
0
0
0
0
0
0
0
0
0
0
0
0
0
0
0
0
0
0
0
0
0
0
0
0
0
0
0
0
0
0
0
0
0
0
0
0
0
0
0
0
0
0
0
0
0
0
0
0
0
0
0
0
0
0
0
0
0
0
0
0
0
0
0
0
0
0
0
0
0
0
0
0
0
0
0
0
0
0
0
0
0
0
0
0
0
0
0
0
0
0
0
0
0
0
0
0
0
0
0
0
84104.3
0
0
0
0
0
0
0
0
0
0
0
0
0
0
0
0
0
0
0
0
0
0
0
0
0
0
0
0
0
0
0
0
0
0
0
0
0
0
0
0
0
0
0
0
0
0
0
0
0
0
0
0
0
0
0
0
0
0
0
0
0
0
0
0
0
0
0
0
0
0
0
0
0
0
0
0
0
0
0
0
0
0
0
0
0
0
0
0
0
0
0
0
0
1.22246
4.53898e+06
398.161
0.381202
0.00218694
7461.95
0.64296
79094.2
3.6392e+06
1.8706e+06
2.85319e+06
1.64231e+06
560099
638646
841.007
517783
641.178
95.5928
83084
11244.1
7.13098
0
0
0
0
0
0
0
0
0
0
0
0
0
0
0
0
0
0
0
0
0
0
0
0
0
0
0
0
0
0
0
0
0
0
0
4.73762e+06
0.00274034
0.000143157
0.000178062
4.16039e-07
5.8164e-08
9.48785e-09
3.0559e-10
0
0
0.00511115
3.8106
0.00161736
2.58384e-06
1.95995e-06
2.25933e-07
5.67234e-08
9.31323e-10
2.76486e-10
0
0
0
0.000421503
9.86751e-07
0.564381
3.37833e-06
1.20603e-06
1.21814e-07
5.75674e-08
1.39698e-09
1.07684e-09
3.7835e-10
0
0
0
0
0
1.15324e-07
2.95404e-09
3.81115e-07
1.88738e-08
2.25264e-08
5.52973e-10
3.0559e-10
0
0
0
0
0
0
0
0
3.34694e-10
0
1.13505e-09
4.36557e-11
1.01863e-10
0
0
0
0
0
0
0
0
0
0
0
0
0
0
0
0
0
0
0
0
0
0
0
0
0
0
0
0
0
0
0
0
0
0
0
0
0
0
0
0
0
0
0
0
0
0
0
0
0
0
0
0
0
0
0
0
0
0
0
0
0
0
0
0
0
0
0
0
0
0
0
0
0
0
0
0
0
0
0
0
0
0
0
2060.69
3.8711e+06
48.7625
30958.7
6.97336
3927.81
0.160372
7.6658e-07
4.31464e-08
2.03727e-10
4.02826e-07
1.45519e-09
0
0
0
0
0
0
0
0
0
0
0
0
0
0
5.49347e-05
559782
51.5337
3.55708
0.350517
0.000517763
0.00133562
1.29682e+06
2.53894e+06
4.41258e+06
3.15724e+06
1.04565e+06
3.38851e+06
2.58935e+06
0.816713
0.000120818
0.00225234
1.59943e+06
0.0271281
86.2877
0.0012709
0.000585505
0.00641346
0.567038
133841
0.0331641
3.9939
0.000943046
0.0087182
20.5868
0.00604377
0.00402769
0.000105167
0.00293477
2.40407e-05
865583
4.45759e+06
751645
2.44018e+06
3.51387e+06
185277
1.99258e+06
0.00144038
0.0664175
0.000428083
0.000146431
7.46148e-06
7.59787e-05
3.04735e-06
103502
1.00851e+06
427.687
83702.9
45774.7
1.50966e+06
1097.47
7.35562e-05
0.0590711
0.00172981
5.52459e-05
7.05622e-07
0.000868116
8.40961e-06
87687.1
24861.8
7982.24
2036.63
426.903
180.398
10.5822
43316.2
372698
36697.2
32.4759
1.20642e+06
3842.42
396.021
17.0745
0.00333579
0.0392819
0.000430955
0.000171723
5.77415e-05
1.44817e-05
2.25364e-05
0.231358
0.000229609
3.07255e-06
4.26226e-07
7.87055e-05
2.56431e-06
259.791
1446.63
151.855
229347
27534.5
46210.5
296946
46949.3
105578
558776
4602.98
10256.2
89.9585
537.199
2735.5
599.246
1.43482e+06
6021.04
287389
38746.5
40.8943
7.0025
725.501
103.618
12343
8362.91
998.48
108901
11008.7
17193.8
1127.17
699.149
90.7033
8.80602
58.5118
5.1802e-05
0.00118496
0.00166274
6.91797e-06
9.28431e-05
7.94083e-07
5.33478e-06
40.8323
74200
7466.36
43.3822
3.47415
525.43
7522
219.545
580.781
2.24719
9.91268
6.15705
0.0802126
0.0310828
1.18223e-06
7.9544e-05
1.78757e-06
0.000129122
2.16129e-06
0.647504
5.20873e-05
3.14944
323.937
0.0902612
0.0386403
4.3353
711.445
10.5623
3273.87
0.937472
0.357454
52.4335
16.74
0.364295
0.00803666
15073.5
0.793256
1.38674
79.2067
150.675
1.26026
0.0148086
0.00683156
0.20706
22.7786
26.1119
52.1138
2545.76
0.3952
0.000133868
8.51505e-07
1.72068e-06
0.0277302
3.01548e-05
2.99209e-05
1.02594e-06
2.03573
0.00288446
0.0268678
315.015
0.245173
20.5633
2.99563
287.985
0.247177
21.8443
0.0319149
2.41127
0.16732
0.00338122
326.111
0.250581
25.6684
0.0300661
2.10502
0.159702
0.00281547
274.543
0.239748
0.161908
2.81412
1.79589
0.0249546
0.00326206
0
0
0
0
0
0
0
0
0
0
0
0
0
0
0
0
0
0
0
0
0
0
0
0
0
0
0
0
0
0
0
0
0
0
0
0
0
0
0
0
0
0
0
0
0
0
0
0
0
0
0
0
0
0
0
0
0
0
0
0
0
0
0
0
0
0
0
0
0
0
0
0
0
0
0
0
0
0
0
0
0
0
0
0
0
0
0
0
0
0
0
0
0
0
0
0
0
0
0
0
0
0
0
0
0
0
0
0
0
0
0
0
0
0
0
0
0
0
0
0
0
0
0
0
0
0
0
0
0
0
0
0
0
0
0
0
0
0
0
0
0
0
0
0
0
0
0
0
0
0
0
0
0
0
0
0
0
0
0
0
0
0
0
0
0
0
0
0
0
0
0
0
0
0
0
0
0
0
0
0
0
0
0
0
0
0
0
0
0
0
0
0
0
0
0
0
0
0
0
0
0
0
0
0
0
0
0
0
0
0
0
0
0
0
0
0
0
0
0
0
0
0
0
0
0
0
0
0
0
0
0
0
0
0
0
0
0
0
0
0
0
0
0
0
0
0
0
0
0
0
0
0
0
0
0
0
0
0
0
0
0
0
0
0
0
0
0
0
0
0
0
0
0
0
0
0
0
0
0
0
0
0
0
0
0
0
0
0
0
0
0
0
0
0
0
0
0
0
0
0
0
0
0
0
0
0
0
0
0
0
0
0
0
0
0
0
0
0
0
0
0
0
0
0
0
0
0
0
0
0
0
0
0
0
0
0
0
0
0
0
0
0
0
0
0
0
0
0
0
0
0
0
0
0
0
0
0
0
0
0
0
0
0
0
0
0
0
0
0
0
0
0
0
0
0
0
0
0
0
0
0
0
0
0
0
0
0
0
0
0
0
0
0
0
0
0
0
0
0
0
0
0
0
0
0
0
0
0
0
0
0
0
0
0
0
0
0
0
0
0
0
0
0
0
0
0
0
0
0
0
0
0
0
0
0
0
0
0
0
0
0
0
0
0
0
0
0
0
0
0
0
0
0
0
0
0
0
0
0
0
0
0
0
0
0
0
0
0
0
0
0
0
0
0
0
0
0
0
0
0
0
0
0
0
0
0
0
0
0
0
0
0
0
0
0
0
0
0
0
0
0
0
0
0
0
0
0
0
0
0
0
0
0
0
0
0
0
0
0
0
0
0
0
0
0
0
0
0
0
0
0
0
0
0
0
0
0
0
0
0
0
0
0
0
0
0
0
0
0
0
0
0
0
0
0
0
0
0
0
0
0
0
0
0
0
0
0
0
0
0
0
0
0
0
0
0
0
0
0
0
0
0
0
0
0
0
0
0
0
0
0
0
0
0
0
0
0
0
0
0
0
0
0
0
0
0
0
0
0
0
0
0
0
0
0
0
0
0
0
0
0
0
0
0
0
0
0
0
0
0
0
0
0
0
0
0
0
0
0
0
0
0
0
0
0
0
0
0
0
0
0
0
0
0
0
0
0
0
0
0
0
0
0
0
0
0
0
0
0
0
0
0
0
0
0
0
0
0
0
0
0
0
0
0
0
0
0
0
0
0
0
0
0
0
0
0
0
0
0
0
0
0
0
0
0
0
0
0
0
0
0
0
0
0
0
0
0
0
0
0
0
0
0
0
0
0
0
0
0
0
0
0
0
0
0
0
0
0
0
0
0
0
0
0
0
0
0
0
0
0
0
0
0
0
0
0
0
0
0
0
0
0
0
0
0
0
0
0
0
0
0
0
0
0
0
0
0
0
0
0
0
0
0
0
0
0
0
0
0
0
0
0
0
0
0
0
0
0
0
0
0
0
0
0
0
0
0
0
0
0
0
0
0
0
0
0
0
0
0
0
0
0
0
0
0
0
0
0
0
0
0
0
0
0
0
0
0
0
0
0
0
0
0
0
0
0
0
0
0
0
0
0
0
0
0
0
0
0
0
0
0
0
0
0
0
0
0
0
0
0
0
0
0
0
0
0
0
0
0
0
0
0
0
0
0
0
0
0
0
0
0
0
0
0
0
0
0
0
0
0
0
0
0
0
0
0
0
0
0
0
0
0
0
0
0
0
0
0
0
0
0
0
0
0
0
0
0
0
0
0
0
0
0
0
0
0
0
0
0
0
0
0
0
0
0
0
0
0
0
0
0
0
0
0
0
0
0
0
0
0
0
0
0
0
0
0
0
0
0
0
0
0
0
0
0
0
0
0
0
0
0
0
0
0
0
0
0
0
0
0
0
0
0
0
0
0
0
0
0
0
0
0
0
0
0
0
0
0
0
0
0
0
0
0
0
0
0
0
0
0
0
0
0
0
0
0
0
0
0
0
0
0
0
0
0
0
0
0
0
0
0
0
0
0
0
0
0
0
0
0
0
0
0
0
0
0
0
0
0
0
0
0
0
0
0
0
0
0
0
0
0
0
0
0
0
0
0
0
0
0
0
0
0
0
0
0
0
0
0
0
0
0
0
0
0
0
0
0
0
0
0
0
0
0
0
0
0
0
0
0
0
0
0
0
0
0
0
0
0
0
0
0
0
0
0
0
0
0
0
0
0
0
0
0
0
0
0
0
0
0
0
0
0
0
0
0
0
0
0
0
0
0
0
0
0
0
0
0
0
0
0
0
0
0
0
0
0
0
0
0
0
0
0
0
0
0
0
0
0
0
0
0
0
0
0
0
0
0
0
0
0
0
0
0
0
0
0
0
0
0
0
0
0
0
0
0
0
0
0
0
0
0
0
1.29157e-06
0.00227751
5.19939e-05
7.70466e-06
3.82002e-07
6.8378e-07
2.6224e-07
0.0966614
0.0222017
0.00205218
13.8963
3.24244
178.979
0.247335
91.7147
0.0639023
0.00160662
0.0084229
0.818577
0.0491824
6.53577
0.000678066
1.49804e-05
1.50906e-05
4.0992e-06
9.20991e-07
8.97024e-07
8.46005e-07
5.68834e-07
4.21016e-05
2.12362e-06
2.0122e-06
3.04651e-05
0.000184605
0.00712985
45.6007
0.0253658
3.09915
0.0103212
1.13193
0.0777553
0.00254816
7.72276
752.871
123.529
0.791127
0.0581456
0.00832099
7.38316
0.00408686
1.50557
0.209716
277.698
37.4205
0.519702
4.58083
5.19056
330.653
42.1497
0.228534
0.0302694
0.00433745
1.76227
4.99515
0.71396
59.5875
0.437394
0.0391863
0.00764424
0.00205806
1.21519e-05
4.00605e-06
2.68157e-06
0.000448497
5.36258e-06
6.33189e-05
2.84742e-06
4.40094e-07
1.15056e-06
7.52172e-06
8.09796e-05
9.23508e-07
1.1048e-05
5.09055e-07
0.046503
1.55851
0.116128
0.00836303
0.0153655
0.0047675
0.00420389
5.6248
0.00523878
0.663039
0.0505655
0.00325916
0.00110069
0.385261
2.07957
10.3501
1.14432
0.0202491
0.0631974
0.0128026
0.107153
0.291703
0.235707
0.022801
0.0201404
0.00403402
0.00216329
0.00355151
0.050832
4.12715
0.626539
0.00816068
0.00608968
0.00419896
0.0315451
0.567898
0.00650171
0.0423024
0.00295625
0.00673787
0.00284125
0.00256871
0.0163574
0.0183396
1.55548
0.0162606
0.00266974
0.00274304
0.00273824
0.0126184
0.00817438
0.661341
0.00622581
0.00153762
0.0015872
0.00156945
0.00276359
0.00120694
0.110189
0.00281853
0.000483089
0.000531809
0.000531851
0.00528489
0.00123997
0.00126319
0.00771729
0.594421
0.010689
0.0013181
0.034716
0.0176973
0.00480755
0.00495257
0.00355525
0.00345886
0.0034196
0.00802255
0.0125474
0.00612991
0.00159587
0.00162679
0.00157609
0.00154794
0.00381972
0.00215708
0.00215708
0.00329788
0.00215708
0.170323
0.00515819
0.00224917
0.00374309
0.148035
0.00224911
0.00325866
0.00222329
0.00222329
0.0153774
0.0124821
0.596658
0.0100161
0.00641346
0.00641346
0.00641346
4.41849e-05
8.03014e-06
9.61434e-05
8.28032e-06
8.05894e-06
8.03014e-06
8.03014e-06
3.61029e-06
3.39678e-06
3.37833e-06
3.33024e-05
9.51388e-06
3.4371e-06
3.37833e-06
0.0014485
0.00139324
0.0143842
0.00207866
0.00124471
0.00124471
0.00124471
0.00225234
0.00242871
0.00225234
0.00692952
0.00253372
0.00225833
0.0390261
0.00167031
0.000585505
0.000716147
0.000620418
0.000588489
0.000596323
0.00921234
0.000979271
0.00107272
0.0120891
0.00168129
0.000896877
0.000896877
0.000896877
0.00836521
0.0346014
0.00826958
0.00826958
0.0747092
0.00869043
0.00832357
0.0148294
0.00414467
0.0333567
0.00434944
0.00402056
0.00410102
0.00402056
0.0203656
0.00500262
0.00468975
0.00472937
0.00456744
0.00461621
0.00456744
0.00367422
0.00219772
0.00201729
0.00217804
0.00201729
0.00202595
0.00201729
0.0410445
0.00251853
0.00261434
0.00233538
0.00232965
0.00232965
0.00232965
)
;

boundaryField
{
    ground
    {
        type            calculated;
        value           nonuniform List<scalar> 
230
(
0
0
0.00166274
10.3501
0.00227751
5.6345e-08
2.61934e-10
0
0
0
1.69763e-07
9.11226e-07
1.38534e-08
2.18279e-10
0
0
0
0
6.69388e-10
2.91038e-09
2.91038e-11
0
0
0
0
0
0
0
0
0
0
0
0
0
84104.3
4.53898e+06
398.161
0.0222017
1.8706e+06
638646
3.6392e+06
0
0
0
0.000178062
5.8164e-08
3.0559e-10
133841
8.09796e-05
9.48785e-09
0
0
4.73762e+06
1.59943e+06
3.8711e+06
48.7625
1446.63
0.0410445
4.31464e-08
2.03727e-10
4.41258e+06
2.58935e+06
2.53894e+06
0.0331641
0.000585505
5.19056
7.72276
0.00225234
1.50557
751645
1.99258e+06
4.45759e+06
0.326341
0.000171723
0.000430955
105578
537.199
46949.3
229347
296946
2060.69
1.43482e+06
38746.5
599.246
699.149
58.5118
11008.7
725.501
108901
8362.91
2.81135
9.28431e-05
6.91797e-06
43.3822
7522
74200
0
0
0
0
0
0
0
0
0
0
0
0
0
0
0
0
0
0
0
0
0
0
0
0
0
0
0
0
0
0
0
0
0
0
0
0
0
0
0
0
0
0
0
0
0
0
0
0
0
0
0
0
0
0
0
0
0
0
0
0
0
0
0
0
0
0
0
0
0
0
0
0
0
0
0
0
0
0
0
0
0
0
0
0
0
0
0
0
0
2.9588e-05
3.82002e-07
7.70466e-06
3.24244
178.979
1.22246
3.04651e-05
7.6658e-07
4.21016e-05
330.653
1.76227
0.0302694
0.0581456
7.38316
752.871
277.698
4.58083
0.0271281
17.0745
0.107153
0.0631974
4.00605e-06
5.36258e-06
0.000448497
9.23508e-07
4.40094e-07
7.52172e-06
0.00325916
0.385261
5.6248
0.00608968
0.0315451
4.12715
0.0201404
0.00355151
0.235707
0.00251853
0.00232965
0.00261434
0.000716147
0.00921234
0.000620418
0.00242871
0.0390261
0.00253372
)
;
    }
    outlet
    {
        type            calculated;
        value           nonuniform List<scalar> 
560
(
0.00166274
1.8494e-06
6.33008e-09
0
1.69763e-07
5.52973e-09
0
0
6.69388e-10
0
0
0
0
0
0
0
0
0
0
0
0
0
0
0
0
0
0
0
0
0
0
0
0
0
0
0
0
0
0
0
0
0
0
0
0
0
0
0
0
0
0
0
0
0
0
0
0
0
0
0
0
0
0
0
0
0
0
0
0
0
0
0
0
0
0
0
0
0
0
0
0
0
0
0
0
0
0
84104.3
0
0
0
0
0
0
0
0
0
0
0
0
0
0
0
0
0
0
0
0
0
0
0
0
0
0
0
0
0
0
0
0
0
0
0
0
0
0
0
0
0
0
0
0
0
0
0
0
0
0
0
0
0
0
0
0
0
0
0
0
0
0
0
0
0
0
0
0.0222017
0.00215708
0.381202
0
0
0
0
0.000421503
1.15324e-07
3.34694e-10
0
0
0
0
0
0.00511115
9.86751e-07
2.95404e-09
0
0
0
0
0
0
0
0
0
0
0
0
0
0
0
0
0
0
0
0
0
0
7.35562e-05
7.05622e-07
5.52459e-05
2.25364e-05
4.26226e-07
3.07255e-06
599.246
40.8943
6021.04
6.91797e-06
7.94083e-07
5.1802e-05
52.1138
0.3952
0.00683156
0
0
0
0
0
0
0
0
0
0
0
0
0
0
0
0
0
0
0
0
0
0
0
0
0
0
0
0
0
0
0
0
0
0
0
0
0
0
0
0
0
0
0
0
0
0
0
0
0
0
0
0
0
0
0
0
0
0
0
0
0
0
0
0
0
0
0
0
0
0
0
0
0
0
0
0
0
0
0
0
0
0
0
0
0
0
0
0
0
0
0
0
0
0
0
0
0
0
0
0
0
0
0
0
0
0
0
0
0
0
0
0
0
0
0
0
0
0
0
0
0
0
0
0
0
0
0
0
0
0
0
0
0
0
0
0
0
0
0
0
0
0
0
0
0
0
0
0
0
0
0
0
0
0
0
0
0
0
0
0
0
0
0
0
0
0
0
0
0
0
0
0
0
0
0
0
0
0
0
0
0
0
0
0
0
0
0
0
0
0
0
0
0
0
0
0
0
0
0
0
0
0
0
0
0
0
0
0
0
0
0
0
0
0
0
0
0
0
0
0
0
0
0
0
0
0
0
0
0
0
0
0
0
0
0
0
0
0
0
0
0
0
0
0
0
0
0
0
0
0
0
0
0
0
0
0
0
0
0
0
0
0
0
0
0
0
0
0
0
0
0
0
0
0
0
0
0
0
0
0
0
0
0
0
0
0
0
0
0
0
0
0
0
0
0
0
0
0
0
0
0
0
0
0
0
0
0
0
0
0
0
0
0
0
0
0
0
0
0
0
0
0
0
0
0
0
0
0
0
0
0
0
0
0
0
0
0
0
0
0
0
0.00205218
0.247335
3.24244
0.00218694
0.00515819
0.00215708
0.00224917
0.00222329
0.00224911
)
;
    }
    wall
    {
        type            calculated;
        value           nonuniform List<scalar> 0();
    }
    wall2
    {
        type            calculated;
        value           nonuniform List<scalar> 0();
    }
    wall3
    {
        type            calculated;
        value           nonuniform List<scalar> 0();
    }
    internalPatch
    {
        type            internal;
    }
    procBoundary1to0
    {
        type            processor;
        value           uniform 0;
    }
    procBoundary1to2
    {
        type            processor;
        value           uniform 0;
    }
    procBoundary1to3
    {
        type            processor;
        value           nonuniform List<scalar> 
321
(
0
0
0
0
0
0
0
0
0
0
0
0
0
0
0
0
0
0
0
0
0
0
0
0
0
0
0
0
0
0
0
0
0
0
0
0
0
0
0
0
0
0
5.23869e-09
5.22836e-07
9.61244e-06
0.00891814
0.0382568
0.0720476
0.126497
0.126497
17.9313
3335.51
361924
2.26038e+06
876722
56925.8
869.937
869.937
113206
2.09237e+06
4.88709e+06
5.70349e+06
6.35402e+06
6.66304e+06
7.57346e+06
6.54798e+06
5.56987e+06
4.63711e+06
1.74547e+06
407051
5115.42
35.9233
0.244966
0.00451458
0.00673952
0.00673952
0.00164421
0.00647878
0.00772833
3.03169e-05
4.54675e-07
1.57161e-09
0
0
0
0
0
0
0
0
0
0
0
0
0
8.29459e-10
8.29459e-10
0
0
0
0
0
0
0
1.16415e-10
3.40078e-08
4.91826e-07
9.94987e-07
0.00254805
0.00445165
0.0076106
0.0130131
0.0205343
0.0205343
2.19493
347.524
48009.1
931629
206893
7812.97
106.121
106.121
16021.4
785946
3.47909e+06
4.88458e+06
4.86539e+06
4.48866e+06
4.05667e+06
4.00698e+06
3.8635e+06
2.49081e+06
217870
1761.38
12.6175
0.0878749
2.46139
0.0199694
0.00208717
0.00208717
0.00839423
0.20873
0.0108376
0.199206
4.19118
0.26646
0.00488596
0.000166886
0.000380146
1.49485e-06
4.904e-09
0
0
0
0
0
0
0
0
1.89175e-10
4.44561e-08
1.4074e-06
2.09475e-07
2.09475e-07
1.89175e-10
0
0
1.18547e-06
2.73419e-05
0.00011287
0.00497316
0.00506471
0.00511034
0.00511034
0.0418239
6.58796
788.117
44975.2
4062.52
84.0672
1.30169
1.30169
155.566
24120.2
796751
2.6737e+06
3.41957e+06
3.07115e+06
2.52808e+06
2.19907e+06
1.2578e+06
37031.5
310.964
3405.23
28.4284
0.200799
0.0035676
0.0035676
0.0661206
2.07387
28.3948
1.7555
0.0156503
0.0237483
0.0515331
0.0238143
0.000171364
1.89519e-05
0.00504928
0.000104075
0.00959262
0.000148328
1.99518e-06
1.99518e-06
0.00011287
0.00497316
0.00497316
0.00545086
0.107072
11.3384
476.673
34.7971
0.823198
0.0148777
0.0148777
1.40509
163.49
11098.2
253719
878060
1.11194e+06
641442
285435
13441.3
115.976
0.844865
0.00795447
0.00795447
0.231724
5.84411
62.2581
2.35376
6.03739
2.79962
0.311735
0.00547958
8.76582
8.76582
1.67675
0.0433724
0.00978371
0.0657051
0.01007
0.12841
0.00510045
0.00402806
0.00499632
0.126936
12.6901
476.673
34.7971
0.823198
0.0148777
1.40509
163.49
11098.2
1899.17
1899.17
16955.3
40098.2
332.03
2.6089
0.019742
0.019742
0.630509
15.6163
144.494
79.3881
5.29184
0.558835
0.558835
87.178
1347.15
245.9
4.98821
752.302
9.60337
1341.52
45400.5
4089.52
88.6968
11237.7
408914
79604.9
494.514
11.6166
11.6166
123.681
0.776277
0.00716431
0.00716431
0.212801
0.0221898
0.0221898
2.80447
0.0737216
0.0737216
0.00203653
0.00203653
0.00203653
12890.3
156152
29190.2
1.03893e+06
87535.3
1.03655e+06
264423
1.84232e+06
762786
1.80467e+06
2.89904e+06
)
;
    }
    procBoundary1to6
    {
        type            processor;
        value           uniform 0;
    }
    procBoundary1to7
    {
        type            processor;
        value           uniform 0;
    }
}


// ************************************************************************* //
