/*--------------------------------*- C++ -*----------------------------------*\
  =========                 |
  \\      /  F ield         | OpenFOAM: The Open Source CFD Toolbox
   \\    /   O peration     | Website:  https://openfoam.org
    \\  /    A nd           | Version:  9
     \\/     M anipulation  |
\*---------------------------------------------------------------------------*/
FoamFile
{
    format      ascii;
    class       volVectorField;
    location    "0.0001";
    object      rhoU;
}
// * * * * * * * * * * * * * * * * * * * * * * * * * * * * * * * * * * * * * //

dimensions      [1 -2 -1 0 0 0 0];

internalField   nonuniform List<vector> 
2259
(
(0.00889692 -0.000595524 0.000145535)
(4.98931e-10 -2.14435e-11 8.64769e-12)
(2.17188e-12 -5.70136e-14 2.11826e-14)
(6.42001e-15 0 0)
(0.00100579 0.000119694 1.41831e-05)
(2.67918e-09 2.55327e-11 5.29285e-11)
(8.64304e-12 4.47851e-14 8.91973e-14)
(2.27466e-14 0 3.50055e-17)
(8.33762e-08 3.59439e-08 1.24375e-09)
(4.07542e-11 1.05894e-11 7.95442e-13)
(2.24717e-13 4.99706e-14 2.33487e-15)
(3.50055e-16 0 0)
(1.48146e-10 1.07017e-10 3.14953e-12)
(6.33505e-13 3.07537e-13 9.2006e-15)
(2.79035e-15 4.89198e-16 0)
(0 0 0)
(7.07043e-13 7.70751e-13 8.64591e-15)
(3.83514e-15 3.28203e-15 0)
(1.39837e-61 0 0)
(0 0 0)
(3.01048e-15 4.06145e-15 4.54172e-15)
(-1.65124e-67 0 0)
(2.50749e-58 0 0)
(0 0 0)
(4.10299e-16 2.5204e-15 -4.53581e-15)
(-3.20303e-53 0 -4.54747e-15)
(-6.07575e-65 0 0)
(4.40718e-55 0 0)
(0 0 0)
(1.39651e-45 0 -3.59024e-24)
(-4.62144e-50 0 -4.54747e-15)
(5.96065e-62 0 0)
(7.29029e-52 0 0)
(0 0 0)
(5.03222e-09 -4.75374e-10 2.94233e-09)
(1.63142e-11 -9.38009e-13 4.96404e-12)
(5.29432e-14 -1.33021e-15 1.2483e-14)
(0 0 0)
(2.28987e-08 4.65401e-11 1.27786e-08)
(1.4945e-10 7.12871e-13 4.22346e-11)
(3.37548e-13 7.69712e-16 6.78656e-14)
(2.80044e-16 0 0)
(5.93385e-10 2.14208e-10 3.1367e-10)
(2.74418e-12 7.48295e-13 7.70937e-13)
(1.14723e-14 1.3992e-15 1.43173e-15)
(0 0 0)
(4.45464e-12 3.31488e-12 1.94825e-12)
(2.44231e-14 1.32844e-14 6.86081e-15)
(-6.8961e-64 0 0)
(0 0 0)
(2.21726e-14 2.58596e-14 8.7771e-15)
(-1.30489e-68 0 0)
(1.07579e-59 0 0)
(0 0 0)
(0 3.36596e-17 8.71185e-18)
(-7.39944e-66 0 0)
(1.31447e-56 0 0)
(0 0 0)
(1.03637e-17 0 9.24556e-18)
(-7.14395e-51 0 0)
(1.76789e-63 0 0)
(1.68405e-53 0 0)
(0 0 0)
(1.58359e-43 0 0)
(-8.55845e-48 0 0)
(6.25616e-60 0 0)
(2.19466e-50 0 0)
(0 0 0)
(1.49161e-11 -1.13124e-12 1.48577e-11)
(6.8154e-14 -2.66042e-15 4.48763e-14)
(5.49478e-19 0 0)
(0 0 0)
(1.05164e-10 9.71016e-13 1.21321e-10)
(3.94245e-13 1.67927e-15 2.92555e-13)
(6.29374e-16 0 2.45039e-16)
(0 0 0)
(2.4912e-12 8.89941e-13 2.48845e-12)
(1.61347e-14 2.65825e-15 1.03687e-14)
(1.54586e-63 0 0)
(0 0 0)
(2.39532e-14 1.79983e-14 2.0954e-14)
(9.24634e-72 0 0)
(1.68423e-60 0 0)
(0 0 0)
(0 4.38816e-17 2.98305e-17)
(7.72689e-69 0 0)
(1.63806e-57 0 0)
(0 0 0)
(0 0 0)
(5.61463e-66 0 0)
(1.46394e-54 0 0)
(0 0 0)
(3.48029e-20 0 0)
(-5.57249e-55 0 0)
(3.33771e-63 0 0)
(1.19696e-51 0 0)
(0 0 0)
(0 0 0)
(-9.95577e-52 0 0)
(1.75878e-60 0 0)
(8.93023e-49 0 0)
(0 0 0)
(3.63359e-14 -1.47023e-15 5.31315e-14)
(1.83212e-19 0 0)
(4.2819e-68 0 0)
(0 0 0)
(1.77027e-13 1.41709e-15 2.89562e-13)
(3.49813e-16 0 6.301e-16)
(1.5709e-65 0 0)
(0 0 0)
(9.55166e-15 1.94962e-15 1.2816e-14)
(8.18559e-77 3.01693e-26 0)
(7.31448e-62 2.63614e-30 0)
(0 0 0)
(0 1.6049e-17 3.34787e-17)
(6.73355e-74 0 0)
(7.80717e-59 0 0)
(0 0 0)
(0 0 0)
(6.68867e-71 0 0)
(7.7284e-56 0 0)
(0 0 0)
(0 0 0)
(6.57903e-68 0 0)
(7.07917e-53 0 0)
(0 0 0)
(5.64935e-23 0 0)
(-6.17273e-53 0 0)
(4.77113e-65 0 0)
(6.00195e-50 0 0)
(0 0 0)
(0 0 0)
(-1.05268e-49 0 0)
(3.20246e-62 0 0)
(4.73618e-47 0 0)
(0 0 0)
(0 0 1.44186e-20)
(0 0 0)
(3.386e-96 0 0)
(0 0 0)
(0 0 0)
(0 0 0)
(0 0 0)
(0 0 0)
(0 0 0)
(0 0 0)
(0 0 0)
(0 0 0)
(9.44639e-26 0 0)
(0 0 0)
(0 0 0)
(0 0 0)
(0 0 0)
(0 0 -1.59888e-39)
(0 0 -1.06182e-36)
(0 0 -6.36932e-34)
(0 0 -5.51969e-32)
(0 0 -6.37992e-34)
(0 0 0)
(0 0 0)
(0 0 0)
(0 0 0)
(0 0 0)
(0 0 0)
(0 0 0)
(0 0 0)
(0 0 0)
(0 0 0)
(0 0 0)
(0 0 0)
(1.05398e-28 0 0)
(0 0 0)
(0 0 0)
(0 0 0)
(0 0 0)
(0 0 0)
(0 0 0)
(0 0 0)
(0 0 0)
(0 0 0)
(0 0 1.77892e-19)
(0 0 0)
(0 0 0)
(0 0 0)
(0 0 4.46145e-15)
(0 0 0)
(0 0 0)
(0 0 0)
(0 0 0)
(0 0 0)
(0 0 0)
(0 0 0)
(1.28285e-31 0 0)
(0 0 0)
(0 0 0)
(0 0 0)
(0 0 0)
(0 0 0)
(0 0 0)
(0 0 0)
(0 0 0)
(0 0 0)
(0 0 0)
(0 0 0)
(0 0 0)
(0 0 -8.43699e-17)
(0 0 0)
(0 0 0)
(0 0 0)
(2.01427e-34 0 -1.47761e-22)
(0 0 0)
(0 0 0)
(0 0 0)
(0 0 0)
(0 0 0)
(0 0 0)
(0 0 0)
(0 0 0)
(0 0 0)
(0 0 0)
(0 0 0)
(0 0 0)
(0 0 0)
(7.42213e-37 0 0)
(0 0 0)
(0 0 0)
(0 0 0)
(0 0 0)
(0 0 0)
(0 0 0)
(0 0 0)
(0 0 0)
(0 0 0)
(0 0 0)
(0 0 0)
(0 0 0)
(0 0 0)
(4.18296e-40 0 0)
(0 0 0)
(0 0 0)
(0 0 0)
(0 0 0)
(0 0 0)
(0 0 0)
(0 0 0)
(0 0 0)
(0 0 0)
(75.2446 -55.2752 6.74332)
(0 0 3.85662e-17)
(0 0 0)
(3.93868e-98 0 0)
(0 0 0)
(0 7.33434e-20 3.64251e-16)
(0 0 0)
(2.06953e-96 0 0)
(0 0 0)
(0 2.19801e-19 1.07925e-17)
(0 7.6741e-23 0)
(9.34281e-95 1.50821e-26 0)
(0 1.31807e-30 0)
(0 0 0)
(0 0 0)
(0 0 0)
(0 0 0)
(0 0 0)
(0 0 0)
(0 0 0)
(0 0 0)
(0 0 0)
(0 0 0)
(0 0 0)
(0 0 0)
(0 0 0)
(0 0 0)
(0 0 0)
(0 0 0)
(0 0 0)
(0 0 0)
(0 0 0)
(0 0 0)
(0 0 2.5601e-26)
(0 0 0)
(0 0 0)
(0 0 0)
(0 0 0)
(0 0 0)
(0 0 0)
(0 0 0)
(0 0 0)
(0 0 0)
(0 0 0)
(0 0 0)
(0 0 0)
(0 0 0)
(0 0 0)
(0 0 0)
(0 0 0)
(0 0 0)
(0 0 0)
(0 0 0)
(0 0 -4.24759e-15)
(0 0 0)
(0 0 0)
(0 0 0)
(0 0 0)
(0 0 0)
(0 0 0)
(0 0 0)
(0 0 0)
(0 0 0)
(0 0 0)
(0 0 0)
(0 0 0)
(0 0 0)
(0 0 0)
(0 0 0)
(0 0 0)
(0 0 0)
(0 0 0)
(0 0 0)
(0 0 0)
(0 0 0)
(0 0 0)
(0 0 0)
(0 0 0)
(0 0 0)
(0 0 0)
(0 0 0)
(0 0 0)
(0 0 0)
(0 0 0)
(0 0 0)
(0 0 0)
(0 0 0)
(0 0 0)
(0 0 0)
(0 0 0)
(0 0 0)
(0 0 0)
(0 0 0)
(0 0 0)
(0.00382272 -0.000877424 6.15819e-05)
(8074.02 -2966.6 841.379)
(1.27636 -0.135227 0.0339533)
(0.000869969 -0.000526456 0.00083381)
(6.12042e-06 -2.07119e-06 2.94382e-06)
(9.97919 -2.97709 10.4041)
(0.00190338 -0.000144853 0.000751788)
(84.4335 -40.1132 36.5751)
(4264.38 -2612.76 509.647)
(1892.36 -703.483 206.154)
(4060.29 -1620.5 1620.36)
(1589.83 -1018.17 732.598)
(519.337 -206.481 226.16)
(523.808 -298.254 58.1615)
(1.63611 -0.462931 1.07434)
(514.09 -227.388 312.116)
(0.975233 -0.358429 1.17525)
(0.184289 -0.0302075 0.177951)
(81.9457 -45.4503 58.8334)
(16.3595 -4.18872 11.1343)
(0.0152902 -0.0035698 0.013785)
(0 0 0)
(-1.02709e-17 0 -4.76037e-17)
(0 3.29052e-15 -4.54747e-15)
(0 0 0)
(0 0 5.93962e-20)
(0 0 6.18738e-18)
(0 0 0)
(0 0 0)
(0 0 0)
(0 0 0)
(0 0 0)
(0 0 0)
(0 0 1.95321e-38)
(0 0 -1.16037e-62)
(0 0 -1.37123e-44)
(0 0 0)
(0 0 0)
(0 0 0)
(0 0 0)
(0 0 0)
(0 0 0)
(0 0 0)
(0 0 0)
(0 0 -1.99643e-28)
(0 0 0)
(0 0 -9.0452e-33)
(0 0 0)
(0 0 0)
(0 0 0)
(0 0 0)
(0 0 0)
(0 0 0)
(0 0 0)
(0 0 0)
(0 0 0)
(9953.92 -894.93 1020.83)
(5.82033e-06 6.31372e-06 3.37811e-06)
(8.96591e-08 4.17901e-07 8.50972e-08)
(-2.35882e-08 5.23482e-07 1.02778e-08)
(7.38315e-11 1.18679e-09 3.7694e-11)
(-8.24699e-13 1.71e-10 2.83018e-12)
(2.15278e-12 2.80098e-11 4.85368e-13)
(-1.68027e-15 9.51651e-13 4.92804e-15)
(8.57638e-15 1.59864e-13 1.32428e-15)
(1.16137e-17 7.00111e-17 -4.55375e-21)
(1.03244e-05 -5.66442e-06 1.18266e-05)
(0.00738073 -0.000879792 0.00837723)
(2.07247e-06 3.56874e-06 3.41046e-06)
(6.52626e-09 4.18583e-09 4.71419e-09)
(1.2936e-09 5.45977e-09 3.15201e-09)
(-5.24766e-12 6.44615e-10 2.97894e-10)
(1.26499e-11 1.63672e-10 6.40402e-11)
(-1.89224e-14 2.86839e-12 9.6108e-13)
(5.32768e-14 9.12911e-13 2.24289e-13)
(0 1.43092e-14 4.60186e-15)
(1.98524e-23 4.4053e-15 4.20066e-16)
(2.40543e-20 0 0)
(1.49952e-07 -4.2588e-07 1.21724e-06)
(1.57789e-09 -2.26204e-10 2.63699e-09)
(0.000184511 -0.000115492 0.00174884)
(4.38331e-09 6.80147e-11 9.24593e-09)
(7.89039e-10 1.26064e-09 3.41265e-09)
(1.85152e-10 1.09589e-10 3.38002e-10)
(1.4893e-11 1.23177e-10 1.48077e-10)
(1.96195e-12 2.74725e-12 3.61598e-12)
(-2.45848e-14 2.91293e-12 2.45225e-12)
(8.92231e-14 1.14216e-12 8.59465e-13)
(0 1.66635e-14 1.04819e-14)
(0 6.76287e-15 3.76362e-15)
(0 0 0)
(2.65961e-26 0 0)
(1.58317e-23 0 0)
(2.15158e-11 -1.35385e-11 3.39054e-10)
(3.27233e-12 -4.25091e-13 8.92089e-12)
(7.24053e-11 1.35811e-11 1.12091e-09)
(1.52252e-11 3.8922e-13 5.54375e-11)
(5.0981e-12 1.14875e-11 6.61438e-11)
(6.78341e-13 3.87537e-13 1.67259e-12)
(6.96519e-14 5.63743e-13 9.30775e-13)
(7.16711e-15 9.69168e-15 1.80108e-14)
(0 1.39685e-14 1.38765e-14)
(7.00111e-17 5.79214e-15 5.97934e-15)
(0 0 0)
(0 0 0)
(0 0 0)
(1.18319e-29 0 0)
(8.49552e-27 0 0)
(5.46909e-14 -2.81065e-14 1.17116e-12)
(5.55183e-15 -4.20066e-16 2.42068e-14)
(1.67591e-13 1.84026e-14 3.47547e-12)
(2.0539e-14 2.09975e-16 1.07195e-13)
(1.7412e-14 4.06874e-14 3.76959e-13)
(1.60689e-15 4.1989e-16 6.66021e-15)
(0 1.40643e-15 4.76852e-15)
(4.4291e-23 0 0)
(0 0 2.17932e-17)
(0 0 0)
(0 0 0)
(0 0 0)
(0 0 -9.0859e-67)
(4.41515e-33 0 0)
(3.78053e-30 0 -5.17788e-42)
(0 0 2.60147e-15)
(-2.45508e-35 0 0)
(0 0 7.98983e-15)
(-1.36071e-32 0 3.50055e-17)
(0 0 9.50081e-16)
(3.37086e-29 0 0)
(0 0 0)
(3.6617e-26 0 0)
(0 0 0)
(0 0 0)
(0 0 0)
(0 0 0)
(2.78181e-36 0 0)
(1.41106e-33 0 0)
(0 0 0)
(3.89304e-38 0 0)
(0 0 0)
(4.31167e-35 0 0)
(0 0 0)
(5.60359e-32 0 2.26946e-28)
(0 0 0)
(6.7216e-29 0 8.58895e-18)
(0 0 0)
(0 0 3.77596e-18)
(0 0 0)
(0 0 0)
(1.11215e-39 0 0)
(4.44629e-37 0 0)
(0 0 0)
(4.30517e-41 0 0)
(0 0 0)
(6.23727e-38 0 0)
(0 0 0)
(8.61714e-35 0 0)
(0 0 0)
(1.11874e-31 0 0)
(0 0 0)
(0 0 0)
(5.36838e-29 0 -3.78289e-18)
(0 0 0)
(0 0 -1.50291e-22)
(6.5902e-43 0 -1.54167e-26)
(1.186e-40 0 0)
(0 0 0)
(1.41145e-49 0 0)
(0 0 0)
(2.27938e-46 0 0)
(0 0 0)
(3.5229e-43 0 0)
(0 0 0)
(5.22243e-40 0 0)
(0 0 0)
(0 0 0)
(7.41796e-37 0 0)
(0 0 0)
(0 0 0)
(3.26538e-46 0 0)
(2.66956e-44 0 0)
(0 0 0)
(6.68916e-53 0 0)
(0 0 0)
(1.13195e-49 0 0)
(0 0 0)
(1.82732e-46 0 0)
(0 0 0)
(2.82303e-43 0 0)
(0 0 0)
(0 0 0)
(4.18296e-40 0 0)
(0 0 0)
(0 0 0)
(5.33868e-50 0 0)
(5.03652e-48 0 0)
(5.83186 0.184994 0.197827)
(4580.34 2846.06 543.771)
(0.157829 0.0238213 0.00330885)
(37.577 -8.14546 33.0983)
(0.0188884 0.000320889 0.00584529)
(5.76698 2.14792 5.51212)
(0.000482748 9.05274e-05 0.000130242)
(1.46038e-09 2.00206e-09 2.81594e-11)
(5.74279e-11 1.23508e-10 1.96229e-12)
(2.17284e-13 6.45433e-13 7.59266e-15)
(7.42907e-10 9.64119e-10 7.42809e-10)
(1.88988e-12 4.40368e-12 1.75898e-12)
(6.26674e-15 2.01077e-14 5.861e-15)
(9.49369e-15 2.35274e-14 1.737e-14)
(2.46017e-17 0 0)
(1.30868e-17 0 0)
(4.64761e-20 0 0)
(1.48305e-20 0 0)
(8.93015e-23 0 0)
(1.41453e-23 0 0)
(1.11981e-25 0 0)
(2.92402e-26 0 2.07551e-16)
(1.51183e-28 0 0)
(2.55947e-31 0 -1.11012e-20)
(4.01797e-34 0 0)
(2.37806e-37 0 0)
(6.26992e-08 8.97239e-08 1.43235e-07)
(288.721 435.808 434.232)
(0.0811213 0.0549664 0.152866)
(0.00141763 0.00857375 0.00834754)
(0.00012282 0.000307377 0.00107243)
(6.16798e-07 5.66109e-07 1.38706e-06)
(6.54325e-07 2.3833e-06 3.42482e-06)
(1395.04 160.057 552.6)
(3000.21 -299.08 313.473)
(9587.84 1485.85 1039.36)
(5716.01 -686.14 2071.19)
(1103.99 -158.499 445.044)
(6354.49 947.549 2277.99)
(3254.22 418.006 354.356)
(0.00176656 0.00206361 0.000318507)
(3.21191e-07 2.0686e-07 1.10887e-07)
(5.86184e-06 3.80987e-06 1.25341e-07)
(1246.9 975.192 148.611)
(7.67153e-05 3.0671e-05 1.10362e-06)
(0.212976 0.101185 0.190711)
(3.56456e-06 1.36032e-06 1.16413e-06)
(4.86267e-07 1.66324e-06 2.73369e-08)
(6.49808e-06 1.74283e-05 6.755e-06)
(0.00074696 0.00169972 0.000205423)
(48.0008 134.655 10.8977)
(6.32311e-06 9.74662e-05 1.24952e-06)
(0.00123882 0.0104987 0.00529295)
(3.09494e-07 2.72866e-06 8.34302e-07)
(2.19449e-05 -4.82655e-08 1.70215e-05)
(0.0429788 0.0121451 0.0574399)
(1.53511e-05 1.6602e-06 1.22892e-05)
(6.37353e-06 -1.9305e-07 1.07823e-05)
(2.13238e-07 -1.69498e-09 2.61589e-07)
(4.60648e-06 7.27861e-07 7.85994e-06)
(4.89479e-08 5.29419e-09 5.98216e-08)
(804.878 336.334 330.509)
(8279.29 3437 950.051)
(618.681 361.09 67.5136)
(2403.14 1541.94 1023.9)
(5237.43 2207.31 1991.1)
(169.537 88.3032 65.411)
(2110.36 853.12 230.648)
(1.26444e-06 -3.70356e-08 4.13204e-06)
(2.10337e-05 2.50808e-05 0.000201935)
(4.28654e-07 1.06036e-07 1.22209e-06)
(3.3011e-08 -4.54216e-09 4.30097e-07)
(8.14385e-09 -1.97473e-10 2.17125e-08)
(1.796e-08 1.805e-08 2.23293e-07)
(3.85097e-09 6.19661e-10 8.83815e-09)
(113.349 8.59918 62.8953)
(1188.56 -228.16 666.466)
(0.820995 -0.107255 0.723875)
(85.9923 6.68577 68.78)
(57.7665 -9.82056 34.7473)
(1736.85 211.378 986.407)
(2.04081 0.0684019 1.63305)
(1.86565e-07 -5.33054e-08 1.43149e-07)
(0.000128051 -3.59381e-05 0.000136629)
(4.16646e-06 -4.9696e-07 3.51692e-06)
(9.85058e-08 -3.97649e-08 1.44434e-07)
(1.60424e-09 -4.12989e-10 1.63554e-09)
(1.47453e-06 -2.44067e-07 2.24081e-06)
(1.80646e-08 -2.53198e-09 1.94831e-08)
(52.8508 62.8572 79.8634)
(11.8389 25.4822 29.352)
(4.08073 7.09609 13.2335)
(1.20513 2.29812 3.80225)
(0.346038 0.475667 1.27152)
(0.0795024 0.219906 0.401545)
(0.00678265 0.0145613 0.0303662)
(51.5829 15.8343 27.4786)
(322.124 200.833 195.013)
(40.9776 14.246 35.0918)
(0.0760418 0.0166321 0.054782)
(1177.31 511.559 690.969)
(7.19623 2.08874 3.14254)
(0.794195 0.14702 0.636599)
(0.0468484 0.000702239 0.000886781)
(9.71339e-06 7.71071e-07 2.94819e-06)
(0.000115864 6.54568e-07 3.15253e-05)
(1.26702e-06 -1.27611e-08 2.44532e-08)
(5.05273e-07 3.4349e-08 9.81202e-09)
(1.69645e-07 -1.2851e-09 3.16972e-08)
(4.2609e-08 2.72514e-09 9.40062e-09)
(1.74368e-08 -1.51813e-08 6.54049e-08)
(8.15137e-05 -4.9627e-05 0.00071142)
(3.00867e-07 -5.14393e-08 6.48759e-07)
(7.38622e-10 -3.38701e-09 8.94543e-09)
(2.09572e-10 -1.40063e-10 1.26301e-09)
(1.70961e-08 -1.16696e-08 2.31165e-07)
(3.41008e-09 -3.56431e-10 7.39463e-09)
(0.819982 0.0192815 0.133739)
(3.93644 -0.202369 0.119127)
(0.479007 -0.0273775 0.0781117)
(213.574 -23.66 18.0558)
(40.4607 -4.25927 12.3821)
(60.6529 3.77189 19.2308)
(275.85 25.2102 25.1926)
(53.5321 30.2089 3.49248)
(90.4146 74.5364 7.66994)
(429.561 328.065 192.562)
(10.9758 4.92554 2.40489)
(18.3289 13.9428 5.29432)
(0.20848 0.113189 0.0338357)
(1.47154 0.802718 0.0481765)
(5.09789 -2.05624 1.49954)
(1.29005 -0.667527 0.0419759)
(1114.35 -858.408 144.452)
(8.6066 -5.92504 3.25032)
(230.209 -167.151 113.611)
(44.9441 -24.1639 3.05632)
(0.10028 -0.049617 0.0236976)
(0.0222381 0.00320234 0.0026326)
(1.78071 0.24552 0.0498119)
(0.27388 0.0320907 0.0367095)
(25.7818 5.79599 6.38913)
(17.4589 4.81176 0.779404)
(3.06316 0.645281 0.516556)
(114.764 38.0187 8.81561)
(6.12777 20.6889 0.980005)
(6.57159 27.5031 7.38246)
(0.715397 3.37069 0.604108)
(0.310429 2.18669 0.0627826)
(0.0347918 0.286199 0.0433453)
(0.00352134 0.0242448 0.00306012)
(0.0298637 0.190263 0.00409614)
(1.51598e-07 -3.05669e-08 3.92836e-08)
(3.40561e-06 -2.73317e-07 1.3386e-06)
(4.9695e-06 -1.3112e-06 8.75476e-08)
(2.02789e-08 -4.46478e-09 2.36233e-10)
(2.72871e-07 -1.49627e-08 5.1949e-09)
(2.34755e-09 -2.2781e-10 2.33815e-10)
(1.56642e-08 -9.48522e-10 4.06203e-09)
(0.126423 -0.0122523 0.0219777)
(90.1626 -24.2965 6.45596)
(13.8599 -2.47806 3.68316)
(0.111887 -0.0166088 0.00239859)
(0.00940148 -0.00139981 0.00161652)
(1.31805 -0.260792 0.283153)
(13.6835 -3.46706 0.577262)
(0.423097 -0.0711754 0.566648)
(1.15459 0.0435853 1.4242)
(0.00356798 -0.000535594 0.00542958)
(0.0195408 0.000484246 0.0208597)
(0.00995554 0.000277418 0.0144261)
(0.00016204 3.56058e-06 0.000193711)
(6.0441e-05 -6.85459e-06 7.54308e-05)
(2.8368e-09 1.69646e-09 2.36498e-09)
(2.04563e-07 8.39974e-08 1.45716e-07)
(4.3436e-09 1.96195e-09 3.93694e-09)
(2.53404e-07 2.51021e-07 2.70776e-07)
(4.32927e-09 3.41919e-09 5.05313e-09)
(0.00137525 0.000644058 0.00169688)
(8.58525e-08 5.06202e-08 1.37098e-07)
(0.00859598 -0.000550331 0.00306178)
(0.945226 -0.0812311 0.420717)
(0.000255049 4.41162e-06 0.000121913)
(0.000107545 -7.78664e-06 5.43904e-05)
(0.0109004 -0.000924398 0.00693728)
(2.06833 0.0564705 0.78424)
(0.0269181 0.000526175 0.0155114)
(2.91797 2.79244 6.26529)
(0.00148512 0.00146571 0.00262229)
(0.000476203 0.000317805 0.00102953)
(0.0554553 0.08117 0.154865)
(0.016592 0.015844 0.0516702)
(0.000333168 0.000476952 0.00104388)
(1.11209e-05 1.09991e-05 2.06676e-05)
(20.2616 11.909 11.1411)
(0.00220716 0.000822508 0.00148689)
(0.00347436 0.00239066 0.00289339)
(0.23972 0.089567 0.0909218)
(0.39666 0.273097 0.188974)
(0.00360524 0.00199572 0.00132093)
(3.73656e-05 2.14998e-05 2.33489e-05)
(1.78697e-05 -8.73148e-06 1.05381e-05)
(0.000510737 -0.000193163 0.000411419)
(0.0420626 -0.0195312 0.0456839)
(0.059945 -0.0226143 0.0371833)
(0.103956 -0.0649539 0.080106)
(4.76059 -2.5319 3.94349)
(0.00107086 -0.000545337 0.000621994)
(1.29487e-07 3.19878e-07 2.97549e-07)
(3.42438e-10 2.25166e-09 1.31563e-09)
(1.27515e-09 4.0008e-09 3.60698e-09)
(8.17206e-06 7.25084e-05 5.30232e-05)
(6.03992e-09 8.46514e-08 3.99265e-08)
(7.27e-09 6.60277e-08 6.94252e-08)
(3.00856e-10 2.8037e-09 1.70767e-09)
(0.00614042 0.000542522 0.00171071)
(8.15427e-06 1.56268e-06 3.44676e-06)
(7.63169e-05 6.38662e-06 3.61705e-05)
(0.789474 0.105183 0.261702)
(0.000722014 0.000154783 0.000396449)
(0.066983 0.011268 0.0206098)
(0.00897978 0.000955254 0.00506289)
(0.15175 0.583135 0.711456)
(0.00014576 0.000586049 0.00058283)
(0.0144187 0.0431802 0.0597138)
(1.02756e-05 6.82645e-05 7.47774e-05)
(0.000999371 0.00448183 0.0065199)
(0.000100226 0.000298117 0.000449382)
(1.95883e-06 7.53281e-06 7.49688e-06)
(0.11443 0.813012 0.272536)
(0.000133104 0.000733401 0.000388943)
(0.0117111 0.0698989 0.0221895)
(8.05537e-06 8.43206e-05 3.713e-05)
(0.000626952 0.00633341 0.00183939)
(7.13309e-05 0.000472637 0.000131533)
(1.02758e-06 8.06819e-06 3.29151e-06)
(0.4371 0.10124 0.574873)
(0.000575357 0.000154277 0.000571598)
(0.000291366 9.80525e-05 0.000440017)
(0.00648941 0.000936782 0.00702945)
(0.00329938 0.00057426 0.00485163)
(5.07355e-05 6.24768e-06 6.03097e-05)
(7.1618e-06 1.87583e-06 7.41359e-06)
(0 0 2.98497e-18)
(0 0 -2.14671e-31)
(0 0 1.55329e-27)
(0 0 0)
(0 0 2.13908e-26)
(0 0 3.57778e-24)
(0 0 0)
(0 0 0)
(0 0 0)
(0 0 0)
(0 0 -1.41235e-20)
(0 0 -1.02548e-28)
(0 0 2.74594e-25)
(0 0 0)
(0 0 0)
(0 0 8.35553e-22)
(0 0 0)
(0 0 0)
(0 0 0)
(0 0 0)
(0 0 0)
(0 0 0)
(0 0 0)
(0 0 0)
(0 0 0)
(0 0 0)
(0 0 0)
(0 0 0)
(0 0 0)
(0 0 0)
(0 0 0)
(0 0 0)
(0 0 1.37046e-35)
(0 0 0)
(0 0 5.15599e-35)
(0 0 0)
(0 0 0)
(0 0 0)
(0 0 0)
(0 0 0)
(0 0 0)
(0 0 0)
(0 0 0)
(0 0 -1.79146e-21)
(0 0 -5.968e-18)
(0 0 0)
(0 0 2.42519e-50)
(0 0 0)
(0 0 0)
(0 0 0)
(0 0 0)
(0 0 5.03107e-33)
(0 0 3.23536e-31)
(0 0 4.09938e-33)
(0 0 0)
(0 0 0)
(0 0 0)
(0 0 0)
(0 0 0)
(0 0 5.1982e-48)
(0 0 0)
(0 0 0)
(0 0 0)
(0 0 0)
(0 0 0)
(0 0 0)
(0 0 0)
(0 0 0)
(0 0 -1.14827e-19)
(-4.74356e-23 0 -1.63151e-17)
(0 0 -6.56634e-18)
(1.93946e-17 -1.05097e-21 3.36611e-15)
(-2.55521e-23 -1.59874e-18 2.06005e-15)
(4.16662e-38 -1.61912e-18 -1.03008e-15)
(5.33255e-25 -2.42896e-15 0)
(0 0 -1.25462e-15)
(0 0 0)
(0 0 0)
(0 0 0)
(0 0 0)
(0 0 0)
(0 0 -2.07895e-19)
(2.5613e-42 0 -1.82157e-26)
(-1.78157e-46 0 -4.54747e-15)
(1.023e-58 0 0)
(1.10732e-48 0 0)
(0 0 0)
(0 0 0)
(2.60873e-40 0 0)
(-9.09751e-45 0 0)
(7.49162e-57 0 0)
(2.77604e-47 0 0)
(0 0 0)
(0 0 0)
(0 0 0)
(-1.48594e-48 0 0)
(8.06901e-58 0 0)
(6.08803e-46 0 0)
(0 0 0)
(0 0 0)
(0 0 0)
(-1.60436e-46 0 0)
(1.99813e-59 0 0)
(3.52884e-44 0 0)
(0 0 0)
(0 0 -1.59633e-39)
(0 0 -1.05623e-36)
(0 0 -6.3324e-34)
(0 0 -3.4073e-31)
(0 0 -2.61935e-29)
(0 0 -3.41362e-31)
(0 0 0)
(0 0 0)
(0 0 0)
(0 0 0)
(0 0 0)
(0 0 0)
(0 0 0)
(0 0 0)
(0 0 0)
(0 0 0)
(0 0 0)
(0 0 0)
(0 0 0)
(0 0 0)
(0 0 0)
(0 0 0)
(0 0 0)
(0 0 0)
(0 0 0)
(0 0 0)
(0 0 0)
(0 0 0)
(0 0 0)
(0 0 0)
(0 0 0)
(0 0 0)
(0 0 0)
(0 0 0)
(0 0 0)
(0 0 0)
(0 0 0)
(0 0 0)
(0 0 0)
(0 0 0)
(0 0 0)
(0 0 0)
(0 0 0)
(0 0 0)
(0 0 0)
(0 0 0)
(0 0 0)
(0 0 0)
(0 0 0)
(0 0 0)
(0 0 0)
(0 0 0)
(0 0 0)
(0 0 0)
(0 0 0)
(0 0 0)
(0 0 0)
(0 0 0)
(0 0 0)
(0 0 0)
(0 0 0)
(0 0 0)
(0 0 0)
(0 0 0)
(0 0 0)
(0 0 0)
(0 0 -2.12453e-19)
(0 0 -4.54132e-15)
(0 0 0)
(0 0 2.10518e-48)
(0 0 0)
(0 0 0)
(0 0 0)
(0 0 0)
(0 0 -6.36859e-40)
(0 0 -2.09066e-61)
(0 0 0)
(0 0 0)
(0 0 0)
(0 0 0)
(0 0 0)
(0 0 0)
(3.67583e-39 0 0)
(-8.72924e-44 0 0)
(9.98742e-56 0 0)
(1.52146e-45 0 0)
(0 0 0)
(0 0 0)
(3.79308e-37 0 0)
(-8.51082e-42 0 0)
(6.72741e-54 0 0)
(3.27077e-44 0 0)
(0 0 0)
(0 0 0)
(0 0 0)
(-1.94382e-45 0 0)
(3.15828e-55 0 0)
(3.82329e-43 0 0)
(0 0 0)
(0 0 0)
(0 0 0)
(-2.17662e-43 0 0)
(1.1795e-56 0 0)
(2.54368e-41 0 0)
(0 0 0)
(0 0 -4.21918e-37)
(0 0 -2.52495e-34)
(0 0 -1.35812e-31)
(0 0 -6.47877e-29)
(0 0 -1.08423e-26)
(0 0 -6.49232e-29)
(0 -6.54893e-19 -2.83272e-15)
(-6.89547e-22 -2.29006e-21 0)
(0 0 1.28159e-18)
(-1.78405e-23 0 0)
(0 0 0)
(-5.96608e-25 0 0)
(0 0 0)
(0 0 0)
(0 -8.12569e-21 -3.58355e-19)
(-5.99664e-23 -2.29158e-18 3.29589e-15)
(0 -2.29162e-18 3.36239e-15)
(1.55164e-17 -7.52293e-18 -6.67799e-17)
(-1.1892e-40 0 0)
(-1.79491e-38 0 0)
(-1.46954e-37 0 0)
(0 0 0)
(0 0 0)
(0 0 0)
(0 0 0)
(0 0 0)
(0 0 0)
(0 0 0)
(0 0 0)
(4.58382e-36 0 0)
(-6.80308e-41 0 0)
(7.55397e-53 0 0)
(7.49531e-43 0 2.27374e-15)
(0 0 0)
(0 0 0)
(4.85251e-34 0 0)
(-6.94921e-39 0 0)
(4.99317e-51 0 0)
(3.48782e-41 0 0)
(0 0 0)
(0 0 0)
(0 0 0)
(-2.20186e-42 0 0)
(1.02651e-52 0 0)
(2.24339e-40 0 0)
(0 0 0)
(0 0 0)
(0 0 0)
(-2.61353e-40 0 0)
(6.61366e-54 0 0)
(1.81911e-38 0 0)
(0 0 0)
(0 0 0)
(0 0 0)
(0 0 0)
(0 0 0)
(0 0 -3.88973e-24)
(0 0 0)
(0 0 0)
(0 0 0)
(0 0 0)
(0 0 0)
(0 0 0)
(0 0 0)
(0 0 0)
(0 0 0)
(0 0 0)
(0 0 0)
(0 0 0)
(0 0 0)
(0 0 0)
(0 0 0)
(0 0 0)
(0 0 0)
(0 0 0)
(0 0 0)
(0 0 0)
(0 0 0)
(0 0 0)
(0 0 0)
(0 0 0)
(0 0 0)
(0 0 0)
(0 0 0)
(0 0 0)
(0 0 0)
(0 0 0)
(0 0 0)
(0 0 0)
(0 0 5.132e-46)
(0 0 0)
(0 0 0)
(0 0 0)
(0 0 0)
(0 0 0)
(0 0 0)
(0 0 0)
(0 0 0)
(-7.62038e-38 0 0)
(-9.31935e-36 0 0)
(-4.36306e-35 0 0)
(0 0 0)
(0 0 0)
(0 0 0)
(0 0 0)
(0 0 0)
(0 0 0)
(0 0 0)
(0 0 0)
(4.89116e-33 0 0)
(-4.44242e-38 0 0)
(4.64698e-50 0 0)
(3.04577e-40 0 0)
(0 0 0)
(0 0 0)
(5.40197e-31 0 0)
(-4.90456e-36 0 0)
(3.11553e-48 0 0)
(3.30289e-38 0 0)
(0 0 0)
(0 0 0)
(0 0 0)
(-2.12116e-39 0 0)
(2.65537e-50 0 0)
(1.23879e-37 0 0)
(0 0 0)
(0 0 0)
(0 0 0)
(-2.75828e-37 0 0)
(3.55433e-51 0 0)
(1.29636e-35 0 0)
(0 0 0)
(0 0 0)
(0 0 0)
(0 0 0)
(0 0 0)
(0 0 -1.14687e-21)
(0 0 0)
(0 0 0)
(0 0 0)
(0 0 0)
(0 0 0)
(0 0 0)
(0 0 0)
(0 0 0)
(0 0 0)
(0 0 0)
(0 0 0)
(0 0 0)
(0 0 0)
(0 0 0)
(0 0 0)
(0 0 0)
(0 0 0)
(0 0 0)
(0 0 0)
(0 0 0)
(0 0 0)
(0 0 0)
(0 0 0)
(0 0 0)
(0 0 0)
(0 0 0)
(0 0 0)
(0 0 0)
(0 0 0)
(0 0 0)
(0 0 0)
(0 0 2.27076e-15)
(-4.15834e-35 0 0)
(0 0 0)
(0 0 3.30838e-44)
(-3.80616e-33 0 0)
(0 0 0)
(0 0 0)
(-9.69125e-33 0 0)
(0 0 0)
(0 0 0)
(0 0 0)
(0 0 0)
(0 0 0)
(0 0 0)
(0 0 0)
(0 0 0)
(0 0 0)
(0 0 0)
(0 0 0)
(0 0 0)
(0 0 0)
(0 0 0)
(0 0 0)
(0 0 0)
(0 0 0)
(0 0 0)
(0 0 0)
(0 0 0)
(0 0 0)
(0 0 0)
(4.36425e-30 0 0)
(-2.3508e-35 0 0)
(2.31262e-47 0 0)
(2.70272e-37 0 0)
(0 0 0)
(0 0 -3.70394e-23)
(0 0 -4.52184e-15)
(5.15265e-28 0 0)
(-2.96086e-33 0 0)
(1.62508e-45 0 0)
(2.74633e-35 0 0)
(0 0 0)
(0 0 1.63211e-42)
(0 0 -1.10689e-19)
(0 0 0)
(-1.68703e-36 0 0)
(5.13205e-48 0 0)
(6.22908e-35 0 0)
(0 0 0)
(0 0 0)
(0 0 1.18109e-25)
(0 0 0)
(-2.53813e-34 0 0)
(1.79962e-48 0 0)
(8.91769e-33 0 0)
(0 0 0)
(0 0 0)
(0 0 0)
(0 0 0)
(0 0 0)
(0 0 0)
(0 0 -2.70128e-19)
(0 0 0)
(0 0 0)
(0 0 0)
(0 0 0)
(0 0 0)
(0 0 0)
(0 0 0)
(0 0 0)
(0 0 0)
(0 0 1.67126e-22)
(0 0 0)
(0 0 0)
(0 0 0)
(0 0 0)
(0 0 0)
(0 0 0)
(0 0 0)
(0 0 0)
(0 0 0)
(0 0 0)
(0 0 0)
(0 0 0)
(0 0 0)
(0 0 0)
(0 0 0)
(0 0 0)
(0 0 0)
(0 0 0)
(0 0 0)
(0 0 0)
(0 0 0)
(0 0 0)
(0 0 0)
(0 0 0)
(0 0 0)
(0 0 0)
(0 0 0)
(0 0 0)
(0 0 -7.25991e-19)
(0 0 0)
(0 0 0)
(0 0 0)
(0 0 0)
(-1.49497e-32 0 0)
(0 0 0)
(3.13806e-27 0 0)
(-9.49974e-33 0 0)
(8.97546e-45 0 0)
(2.04859e-34 0 0)
(0 0 0)
(-2.88555e-30 0 0)
(0 0 0)
(6.81941e-25 0 0)
(-1.21975e-30 0 0)
(2.52368e-42 0 0)
(4.65089e-32 0 -2.23767e-15)
(0 0 0)
(-1.01446e-30 0 0)
(0 0 0)
(4.11331e-25 0 0)
(-1.51488e-30 0 0)
(6.97045e-43 0 0)
(1.9869e-32 0 0)
(0 0 0)
(-3.36063e-29 0 -1.67154e-21)
(0 0 4.24381e-21)
(2.26285e-22 0 -1.20164e-22)
(-6.64671e-28 0 4.76559e-24)
(2.93539e-40 0 2.9491e-21)
(1.01608e-29 0 2.73635e-19)
(0 0 2.58259e-17)
(-1.44731e-30 0 0)
(0 0 0)
(0 0 0)
(-1.0448e-33 0 0)
(6.60715e-46 0 0)
(2.49999e-32 0 0)
(0 0 0)
(-1.08755e-28 0 0)
(0 0 0)
(0 0 6.23116e-22)
(-4.04004e-31 0 8.66445e-22)
(4.38402e-44 0 -4.31772e-22)
(4.48647e-30 0 0)
(0 0 -2.90494e-18)
(0 0 0)
(0 0 0)
(0 0 0)
(-2.01773e-31 0 0)
(8.1916e-46 0 0)
(5.58534e-30 0 0)
(0 0 0)
(0 0 0)
(0 0 0)
(0 0 0)
(-1.3717e-28 0 0)
(3.15921e-43 0 0)
(1.19416e-27 0 2.27374e-15)
(0 0 0)
(0 0 0)
(0 0 0)
(0 0 0)
(0 0 0)
(0 0 0)
(0 0 -4.76743e-17)
(0 0 0)
(0 0 0)
(0 0 0)
(0 0 0)
(0 0 0)
(0 1.06254e-25 1.88697e-21)
(0 5.72757e-28 -4.45212e-15)
(0 0 0)
(0 0 0)
(0 0 0)
(0 0 0)
(0 0 0)
(0 0 0)
(0 0 0)
(0 0 0)
(0 0 0)
(0 0 7.52096e-29)
(0 0 0)
(0 0 -1.70847e-25)
(0 0 0)
(0 0 0)
(0 0 0)
(0 0 0)
(0 0 0)
(0 0 0)
(0 0 0)
(0 0 0)
(0 0 0)
(0 0 0)
(0 0 0)
(0 0 0)
(0 0 0)
(0 0 0)
(0 0 0)
(0 0 0)
(0 0 0)
(0 0 0)
(0 0 0)
(0 0 0)
(0 0 0)
(0 0 0)
(0 0 0)
(0 0 0)
(0 0 0)
(0 0 0)
(0 0 0)
(0 0 0)
(0 0 0)
(0 0 0)
(0 0 0)
(0 0 0)
(0 0 0)
(0 0 0)
(0 0 0)
(0 0 0)
(0 0 0)
(0 0 0)
(0 0 0)
(0 0 0)
(0 0 0)
(0 0 -4.51039e-15)
(0 0 0)
(1.62614e-22 0 -4.54747e-15)
(0 0 -3.62917e-15)
(1.05698e-49 0 0)
(5.82764e-23 0 0)
(0 0 0)
(4.13484e-21 3.85122e-30 2.97825e-15)
(0 0 3.62917e-15)
(0 0 0)
(2.69089e-33 -5.55616e-17 0)
(0 0 0)
(1.72453e-25 0 -2.05284e-16)
(0 0 0)
(0 0 0)
(1.55868e-35 5.48712e-17 0)
(0 0 0)
(3.15136e-41 4.89321e-23 -5.29505e-24)
(0 0 0)
(0 0 0)
(0 0 0)
(0 0 0)
(5.38635e-45 0 -2.17442e-26)
(0 0 0)
(0 0 0)
(0 0 0)
(0 0 0)
(0 0 -6.65177e-29)
(0 0 0)
(0 0 0)
(0 0 0)
(0 0 0)
(0 1.8772e-23 -3.03054e-19)
(0 0 3.32948e-17)
(0 0 3.4092e-17)
(0 0 0)
(0 0 0)
(0 0 0)
(0 0 0)
(0 0 0)
(0 1.29084e-32 3.42696e-17)
(0 0 0)
(0 0 0)
(0 0 0)
(0 0 0)
(0 0 3.402e-17)
(0 0 0)
(0 0 0)
(0 0 0)
(0 0 0)
(0 -7.71512e-29 0)
(0 0 0)
(0 0 0)
(0 0 0)
(0 0 0)
(0 0 0)
(0 0 0)
(0 0 0)
(0 0 0)
(0 0 0)
(0 0 0)
(0 0 0)
(0 0 0)
(0 0 0)
(0 0 0)
(0 4.63765e-26 0)
(0 0 2.48745e-19)
(0 0 0)
(0 0 0)
(0 0 0)
(0 0 0)
(0 0 0)
(0 0 0)
(0 0 0)
(0 0 0)
(0 0 0)
(0 0 0)
(0 0 0)
(0 0 1.06644e-28)
(0 0 0)
(0 0 0)
(0 0 0)
(0 0 0)
(0 0 0)
(0 0 0)
(0 0 0)
(0 0 0)
(0 0 0)
(0 0 0)
(0 0 0)
(0 0 0)
(0 0 0)
(0 0 0)
(0 0 0)
(0 0 0)
(0 0 0)
(0 0 0)
(0 0 0)
(0 0 0)
(0 0 0)
(0 0 0)
(0 0 0)
(0 0 0)
(0 0 0)
(0 0 0)
(0 0 0)
(0 0 0)
(0 0 0)
(0 0 0)
(0 0 0)
(0 0 0)
(0 0 0)
(0 0 0)
(0 0 0)
(0 0 0)
(0 0 0)
(0 0 0)
(0 0 0)
(0 0 0)
(0 0 0)
(0 0 0)
(0 0 0)
(0 0 0)
(0 0 0)
(0 0 0)
(0 0 0)
(0 0 0)
(0 0 0)
(0 0 0)
(0 0 0)
(0 0 0)
(0 0 0)
(0 0 0)
(0 0 0)
(0 0 0)
(0 0 0)
(0 0 0)
(0 0 0)
(0 0 0)
(0 0 0)
(0 0 0)
(0 0 0)
(0 0 0)
(0 0 0)
(0 0 0)
(0 0 0)
(0 0 0)
(0 0 0)
(0 0 0)
(0 0 0)
(0 0 0)
(0 0 0)
(0 0 0)
(0 0 0)
(0 0 0)
(0 0 0)
(0 0 0)
(0 0 0)
(0 0 0)
(0 0 0)
(0 0 0)
(0 0 0)
(0 0 0)
(0 0 0)
(0 0 0)
(0 0 0)
(0 0 0)
(0 0 0)
(0 0 0)
(0 0 0)
(0 0 0)
(0 0 0)
(0 0 0)
(0 0 0)
(0 0 0)
(0 0 0)
(0 0 0)
(0 0 0)
(0 0 0)
(0 0 0)
(0 0 0)
(0 0 0)
(0 0 0)
(0 0 0)
(0 0 0)
(0 0 0)
(0 0 0)
(0 0 0)
(0 0 0)
(0 0 0)
(0 0 0)
(0 0 0)
(0 0 0)
(0 0 0)
(0 0 0)
(0 0 0)
(0 0 0)
(0 0 0)
(1.44652e-22 0 -3.41602e-15)
(-1.04292e-23 0 0)
(9.79129e-43 0 0)
(1.13559e-22 5.80918e-17 0)
(0 0 0)
(0 4.54982e-24 1.56923e-15)
(4.24703e-25 3.72906e-26 -3.62917e-15)
(0 2.56839e-28 0)
(8.22212e-48 6.09408e-31 0)
(6.98016e-21 3.16624e-33 0)
(0 1.46731e-35 0)
(0 0 0)
(0 0 0)
(0 0 0)
(0 0 0)
(0 0 0)
(0 0 0)
(0 0 0)
(0 0 0)
(0 0 0)
(0 0 0)
(0 0 0)
(0 0 0)
(0 0 0)
(0 0 0)
(0 0 0)
(0 0 0)
(0 0 0)
(0 0 0)
(0 0 0)
(0 0 0)
(0 0 0)
(0 0 0)
(0 0 0)
(0 0 0)
(0 0 0)
(0 0 0)
(0 0 0)
(0 0 0)
(0 0 0)
(0 0 0)
(0 0 0)
(0 0 0)
(0 0 0)
(0 0 0)
(0 0 0)
(0 0 0)
(0 0 0)
(0 0 0)
(0 0 0)
(0 0 0)
(0 0 0)
(0 0 0)
(0 0 0)
(0 0 0)
(0 0 0)
(0 0 0)
(0 0 0)
(0 0 0)
(0 0 0)
(0 0 0)
(0 0 0)
(0 0 0)
(0 0 0)
(0 0 0)
(0 0 0)
(0 0 0)
(0 0 0)
(0 0 0)
(0 0 0)
(0 0 0)
(0 0 0)
(0 0 0)
(0 0 0)
(0 0 0)
(0 0 0)
(-7.88703e-26 0 0)
(9.86885e-41 0 0)
(3.84652e-25 -4.54488e-18 0)
(0 0 0)
(-1.96419e-23 -8.5059e-20 -3.20392e-15)
(3.02157e-38 -1.11139e-17 -3.37476e-17)
(6.94963e-23 -1.49564e-15 -2.06213e-15)
(0 -2.98442e-17 -2.42163e-18)
(0 0 0)
(0 0 0)
(0 0 0)
(0 0 -2.27374e-15)
(0 0 0)
(0 0 0)
(0 0 0)
(0 0 0)
(0 0 0)
(0 0 0)
(0 0 0)
(0 0 0)
(0 0 -4.54747e-15)
(0 0 0)
(0 0 0)
(0 0 0)
(0 0 0)
(0 0 0)
(0 0 0)
(0 0 0)
(0 0 0)
(0 0 0)
(0 0 0)
(0 0 0)
(0 0 0)
(0 0 0)
(0 0 0)
(0 0 0)
(0 0 0)
(0 0 0)
(0 0 0)
(0 0 0)
(0 0 0)
(0 0 0)
(0 0 0)
(0 0 0)
(0 0 0)
(0 0 0)
(0 0 0)
(0 0 0)
(0 0 0)
(0 0 0)
(0 0 0)
(0 0 0)
(0 0 0)
(0 0 0)
(0 0 0)
(0 0 0)
(0 0 0)
(0 0 0)
(0 0 0)
(0 0 0)
(0 0 0)
(0 0 0)
(0 0 0)
(0 0 0)
(0 0 0)
(0 0 0)
(0 0 0)
(0 0 0)
(0 0 0)
(0 0 0)
(0 0 0)
(0 0 0)
(0 0 0)
(0 0 0)
(0 0 0)
(0 0 0)
(0 0 0)
(0 0 0)
(0 0 0)
(0 0 0)
(0 0 0)
(0 0 0)
(0 0 0)
(0 0 0)
(0 0 0)
(0 0 0)
(0 0 0)
(0 0 0)
(0 0 0)
(0 0 0)
(0 0 0)
(0 0 0)
(0 0 0)
(0 0 0)
(0 0 0)
(0 0 0)
(0 0 0)
(0 0 0)
(0 0 0)
(0 0 0)
(0 0 0)
(0 0 0)
(0 0 0)
(0 0 0)
(0 0 0)
(0 0 0)
(0 0 0)
(0 0 0)
(0 0 0)
(0 0 0)
(0 0 0)
(0 0 0)
(0 0 0)
(0 0 0)
(0 0 0)
(0 0 0)
(0 0 0)
(0 0 0)
(0 0 0)
(0 0 0)
(0 0 0)
(0 0 0)
(2.43091e-19 0 3.75773e-18)
(0 5.56646e-21 -4.1362e-17)
(0 0 -5.35983e-17)
(0 1.58835e-23 0)
(0 0 5.34244e-17)
(0 0 0)
(0 0 0)
(0 0 0)
(0 0 0)
(0 0 0)
(0 0 0)
(0 0 0)
(0 0 -4.54705e-15)
(0 0 0)
(0 0 0)
(0 0 0)
(0 0 0)
(0 0 0)
(0 0 0)
(0 0 -6.06874e-61)
(0 0 -1.57027e-51)
(0 0 0)
(0 0 0)
(0 0 0)
(0 0 0)
(0 0 0)
(0 0 0)
(0 0 0)
(0 0 0)
(0 0 0)
(0 0 0)
(0 0 0)
(0 0 0)
(0 0 0)
(0 0 0)
(0 0 0)
(0 0 -2.10647e-19)
(0 0 0)
(0 0 0)
(0 0 0)
(0 0 -1.53152e-59)
(0 0 -5.80958e-18)
(0 0 -3.57083e-26)
(0 0 4.52958e-23)
(0 0 0)
(0 0 0)
(0 0 6.50548e-20)
(0 0 0)
(0 0 0)
(0 0 0)
(0 0 0)
(0 0 -1.9547e-17)
(-3.87861e-29 -1.02997e-15 0)
(0 -1.02011e-15 0)
(0 0 -3.19266e-17)
(3.92472e-26 -1.02997e-15 -2.74941e-19)
(0 -1.02011e-15 5.28148e-19)
(1.87069e-24 -1.02991e-15 -2.17583e-15)
(7.94285e-18 -2.89438e-18 -3.50143e-17)
(-4.58167e-21 -1.58549e-15 -1.75997e-15)
(0 -1.58549e-15 -9.27876e-16)
(0 0 -4.29114e-15)
(0 0 1.04702e-20)
(1.74725e-25 0 0)
(0 0 -2.21932e-22)
(-3.44525e-22 0 3.79707e-18)
(0 0 2.35132e-20)
(4.05031e-21 0 -2.38829e-20)
(3.23668e-23 0 -1.53739e-22)
(0 0 1.86255e-29)
(0 0 0)
(0 0 0)
(0 0 0)
(0 0 1.75879e-16)
(0 0 -2.82435e-26)
(0 0 0)
(0 0 -2.05084e-18)
(0 0 0)
(0 0 4.88554e-18)
(0 0 1.73837e-16)
(0 0 4.25067e-15)
(0 0 -4.1631e-20)
(-1.68379e-21 -1.02991e-15 2.22674e-15)
(0 0 -2.58932e-22)
(0 0 5.36471e-21)
(0 0 9.82967e-20)
(0 0 0)
(0 0 0)
(0 0 0)
(0 0 0)
(0 0 0)
(0 0 1.98147e-23)
(0 0 0)
(0 0 4.0121e-18)
(0 0 1.78029e-16)