/*--------------------------------*- C++ -*----------------------------------*\
  =========                 |
  \\      /  F ield         | OpenFOAM: The Open Source CFD Toolbox
   \\    /   O peration     | Website:  https://openfoam.org
    \\  /    A nd           | Version:  9
     \\/     M anipulation  |
\*---------------------------------------------------------------------------*/
FoamFile
{
    format      ascii;
    class       volScalarField;
    location    "0.00335";
    object      rho.c4;
}
// * * * * * * * * * * * * * * * * * * * * * * * * * * * * * * * * * * * * * //

dimensions      [1 -3 0 0 0 0 0];

internalField   nonuniform List<scalar> 
28829
(
2.13814
2.4679
1.78777
1.67482
1.33723
1.73043
1.50985
1.29475
2.04224
2.86816
4.54148
8.75187
0.687179
0.841057
0.754113
0.854639
0.886095
1.08896
0.951163
1.10193
1.19452
1.57621
1.42668
1.82757
1.78741
2.37663
0.702134
0.680607
0.652773
0.742842
0.644297
0.736152
0.711853
0.75512
0.794565
0.834386
0.812738
0.787667
0.766094
0.802201
0.896999
0.880389
0.856841
0.937697
0.847253
0.933694
0.904797
0.959604
1.00334
1.08889
1.04098
1.00228
0.963985
1.04027
1.24931
1.19204
1.13632
1.31288
1.1378
1.3019
1.24876
1.35238
1.42553
1.5756
1.49766
1.40141
1.36136
1.50039
2.16326
2.94958
3.95879
1.77466
1.65851
1.66371
2.17625
1.5084
2.02543
1.94322
0.639093
0.537936
0.807979
0.580164
1.02452
0.670568
1.12281
0.612205
2.03592
5.0611
0.539599
0.655754
0.682958
0.555123
0.680865
0.649621
0.556619
0.66761
0.575419
0.755326
0.953798
0.65204
0.964579
0.745105
0.675934
0.919387
0.638704
1.07777
1.08188
0.541412
1.24401
1.16214
0.608327
1.26853
1.21961
1.46958
0.528039
1.4777
1.37408
0.789937
2.03197
1.50547
0.991481
2.18339
0.546787
0.593717
0.526992
0.540254
0.596857
0.52816
0.543464
0.697977
0.660832
0.590908
0.617536
0.626946
0.721675
0.645401
0.893628
0.871678
0.748505
0.649586
0.877437
0.869121
0.749415
1.11254
0.870632
0.800924
0.65114
0.993201
0.937582
0.889022
1.52834
0.924685
2.773
2.91669
3.00214
2.26199
3.69145
3.6622
3.15564
0.664882
0.662987
0.636654
0.540077
0.663024
0.638669
0.66285
0.674439
0.543995
0.689644
0.666002
0.669953
0.646656
0.697843
0.556202
0.544813
0.623766
0.553938
0.604809
0.534923
0.580522
0.798808
0.72645
0.700818
0.605443
0.738894
0.780635
0.753572
0.868123
0.639057
0.890243
0.862335
0.840918
0.816193
0.92416
0.778743
0.655638
0.849403
0.736738
0.794319
0.701055
0.843117
0.97464
0.914515
0.878072
0.607017
0.957909
0.918565
0.86878
0.987476
0.57106
0.906931
0.829559
0.91405
0.847487
1.00435
0.907806
0.623981
0.85238
0.761648
0.857462
0.750023
0.934333
0.969946
1.18933
1.07208
1.28259
0.974449
1.21406
1.08492
0.818061
0.87295
0.818428
0.873936
0.987566
1.35677
1.35722
1.22034
1.25662
1.12008
1.06671
0.831588
0.987477
0.896484
0.906992
1.08309
0.902066
0.829987
0.544942
1.03071
0.918455
0.869087
1.18221
0.613408
1.10554
1.22676
0.971089
0.985509
1.36867
1.34034
0.759149
1.39
1.41957
1.09167
1.07449
1.74348
1.12437
0.760087
1.51365
0.974488
1.25781
1.33123
1.55102
6.02291
10.5586
6.81374
4.15216
7.62695
6.45361
14.4689
1.71303
1.26459
1.3788
1.72009
1.96624
1.8823
2.4554
72.2247
3.52343
9.7065
0.518102
0.578604
0.637221
0.834787
0.880677
1.04039
1.20205
1.46978
1.11813
1.41954
1.53897
2.15261
1.86606
1.58826
2.73821
2.70624
0.507911
0.475446
0.520891
0.524969
0.483581
0.528801
0.498704
0.524074
0.541328
0.536148
0.581355
0.499912
0.545328
0.558772
0.676385
0.592345
0.63678
0.709679
0.613047
0.658445
0.702294
0.733355
0.77845
0.764766
0.812209
0.716981
0.762474
0.780759
0.86784
0.80664
0.854952
0.924974
0.822881
0.850903
0.899115
0.924712
0.976255
0.976041
1.02498
0.905663
0.953705
0.999314
1.19131
1.0602
1.11187
1.20927
1.08916
1.15612
1.21202
1.29638
1.30649
1.37313
1.43976
1.25738
1.31643
1.42452
1.29711
1.12777
1.27503
1.28236
1.22331
1.20677
1.34301
1.36871
1.3652
1.3798
1.51484
1.28497
1.41638
1.45585
1.65313
1.38735
1.57584
1.78655
1.41245
1.61427
1.8304
1.4664
1.63079
1.7945
1.56656
1.6699
1.75985
1.8192
3.4762
5.28643
5.68317
3.26916
3.33707
3.56196
3.63466
0.741355
3.1097
0.904112
4.38827
1.6055
12.673
2.27515
14.0423
1.52427
8.34965
0.0227271
58.2244
0.652015
0.705288
0.705486
0.725636
0.771962
1.53146
0.848145
1.59921
0.775887
0.861212
1.12485
1.39416
0.952866
2.11316
1.21271
1.38663
1.40329
1.5191
1.54616
1.86331
3.37537
3.04287
1.19316
4.9047
3.69392
6.11303
0.802399
1.36263
1.06729
0.810381
0.828351
1.41945
1.10794
1.00554
1.83825
1.35716
1.45003
1.67479
2.15453
2.14354
2.07922
3.21298
5.09713
1.98105
2.46266
4.30437
7.68065
3.41992
6.08173
11.5437
5.5648
6.67161
10.1818
20.2761
4.39113
5.014
7.57555
6.83028
13.4543
0.567783
0.565567
0.628787
0.655552
0.568017
0.633217
0.564249
0.578957
0.668883
0.607688
0.684191
0.578557
0.64739
0.608387
1.0241
0.874545
0.893759
0.779549
0.881597
0.904081
1.01478
1.05937
0.799047
0.986665
1.00078
0.909251
0.930674
1.1545
0.750751
0.662016
0.757311
0.879596
0.665106
0.73731
0.874573
0.849699
1.00567
0.880846
1.14226
0.817299
1.01254
0.935393
1.68985
1.1479
1.14759
1.1284
1.35296
1.41498
1.39635
1.03876
0.920505
1.24337
1.27252
0.996127
0.944894
1.31778
1.07827
1.32633
1.00513
1.46741
0.968014
1.38362
1.13355
1.4086
1.07998
1.6132
1.82513
1.23083
1.22511
1.89739
1.73741
2.37031
2.07321
3.47786
1.51433
2.45079
2.33656
2.08674
0.959387
1.76497
1.80878
1.45176
1.51333
2.44798
3.07089
2.79522
4.3789
5.72183
2.40363
3.57895
4.98133
0.720257
0.873234
0.748401
0.727
0.884037
0.855058
0.845189
0.891081
1.10268
1.05662
1.04747
1.32713
1.27405
1.06183
1.60638
2.23346
1.71901
1.72611
2.47004
2.37978
2.14661
2.26903
3.67655
2.82847
2.82452
4.63724
4.53859
3.56304
1.93876
2.08533
2.31813
2.42416
3.01758
3.68204
2.87887
17.8287
20.1478
27.4824
20.7206
47.2505
37.7224
48.2409
9.23599
16.438
20.9168
63.992
0.765074
0.793689
0.969328
0.744772
0.90735
0.876681
0.936342
1.25328
1.44512
1.9506
1.2453
1.62858
1.5614
1.87139
1.82525
1.98537
3.07442
1.83454
2.71578
2.621
2.9706
3.79691
5.53412
9.29695
3.80886
6.29701
6.17775
9.01701
3.06937
5.18242
6.76462
3.36331
4.32065
5.14472
7.85091
1.8013
7.21002
7.1144
3.25443
1.88943
7.42777
7.3439
2.52338
9.49028
9.50281
7.85799
7.28887
15.1606
15.9602
13.0808
19.1161
22.4155
15.7536
18.6882
18.3801
23.1071
20.7646
18.725
5.50774
16.4377
20.9617
0.0178642
1.49138
9.56401
1.8339
0.000528302
2.08684e-07
28.2195
6.09666
8.86009
5.93617
17.2245
5.66258
5.76971
9.55011
11.2799
5.60307
11.0307
4.87913
3.01352
2.78058
3.95979
0.936606
1.43816
2.87743
4.14853
0.698489
26.6436
11.7224
23.8097
1.18537
1.14788
2.12509
0.971248
1.23778
1.19066
2.49103
1.5232
1.45738
3.10527
1.7813
2.28885
2.34417
6.38413
3.70634
5.90125
13.9654
2.90262
7.59534
9.30418
28.3554
14.141
14.2968
28.983
8.66579
24.9012
22.0871
26.103
69.0461
12.2047
18.0178
35.2726
42.2267
28.9656
50.4169
10.0028
15.3178
28.2569
0.00440724
4.21417e-09
0.00013024
1.45978e-08
4.06337e-06
1.63657e-10
6.75297e-08
4.85685e-13
3.41854e-11
2.22045e-16
1.27887e-14
2.22045e-16
0.000135163
2.90323e-14
2.22045e-16
2.22045e-16
4.82709
7.09391
20.7183
29.9814
40.7826
10.781
6.96663e-12
2.22045e-16
2.22045e-16
2.22045e-16
1.25796
1.14602
1.12728
1.06992
1.05785
1.2037
1.1395
1.1315
1.21736
2.37165e-07
0.000757421
2.61968e-10
2.66045e-07
3.61122e-12
4.42995e-09
8.54413e-15
2.2472e-13
2.22045e-16
2.22045e-16
2.22045e-16
14.5672
0.00568434
2.83107e-05
1.85807e-08
8.10964e-11
1.92293
19.5014
21.3135
10.5756
6.78258
15.7399
9.58441
13.0334
35.9442
54.3611
124.112
0.83001
0.85211
1.13968
1.48668
2.09985
2.64363
3.9307
5.20826
8.0535
22.2146
4.05111
5.74887
3.07396
3.87979
4.92085
2.90999
3.90168
4.81614
3.60484
0.794057
1.01532
0.677245
0.920545
1.16897
0.990891
0.700176
0.654866
0.643875
0.74548
0.63758
0.729568
0.696145
0.673345
0.602068
0.615883
0.653022
0.79504
0.831225
0.936555
0.865636
0.828393
0.7761
0.905322
0.765747
0.825978
0.735648
0.871275
1.04282
1.02777
0.933106
1.03149
0.993542
1.0843
0.968748
0.995694
0.892688
0.952784
0.927444
0.603459
0.71319
1.01153
1.04442
1.58258
0.595111
0.657897
0.656614
0.722674
0.951546
0.988797
1.04782
1.04916
1.16786
1.14594
0.647109
0.617478
0.609691
0.608736
0.622544
0.612563
0.644164
0.773273
0.741549
0.671938
0.785417
0.72053
0.826792
0.71909
0.9569
1.06473
0.911018
1.04263
0.944278
1.09515
0.934358
0.921328
1.10456
0.92498
1.04796
0.924241
1.10649
0.925834
1.16841
2.70415
0.664312
0.610939
0.658116
0.600345
0.616204
0.660953
0.661043
0.65129
0.602903
0.602239
0.652173
0.705045
0.72583
0.72655
0.705428
0.656838
0.623757
0.677754
0.640669
0.639283
0.620852
0.680744
0.675564
0.617461
0.673818
0.703513
0.633712
0.673245
0.702281
0.65019
0.602656
0.600963
0.651723
0.706471
0.747079
0.731576
0.714508
0.813709
0.740598
0.75424
0.811756
0.74709
0.832305
0.825166
0.691227
0.614722
0.659093
0.654829
0.765643
0.776993
0.73315
0.824479
0.840189
0.869431
1.00591
0.861061
0.921089
0.788646
0.904373
0.894318
0.907338
1.02104
0.983194
0.932468
0.909426
0.964874
0.747305
0.794634
0.722684
0.800412
0.809872
0.928304
0.884432
0.845915
1.01723
1.08434
1.0299
1.08971
1.00558
1.12279
1.05428
0.843708
0.845519
0.831584
0.871663
0.862872
0.944169
0.863414
0.935611
0.952166
1.05133
1.10825
0.933932
1.10684
0.939636
0.938645
1.01093
1.12673
1.16991
1.06869
1.14868
1.06492
0.992772
0.843542
0.880571
0.882003
0.837023
0.849629
0.890268
0.91633
0.831303
0.824546
0.872035
0.82818
0.865408
0.937768
1.06936
1.21946
0.992374
1.13194
0.94183
1.00436
0.833873
0.934592
0.87076
0.904429
1.06714
0.901613
0.662303
0.6882
0.915851
1.12417
1.21421
0.521903
0.568447
0.685055
0.880116
1.04841
0.594659
0.60629
0.813157
1.03434
1.17468
1.23926
1.27354
1.51732
0.556551
0.775717
0.544099
0.621889
0.609643
0.675643
0.915526
0.970635
1.13059
0.552119
0.54606
0.55442
0.543786
0.570954
0.612847
0.572712
0.610578
0.745226
0.67599
0.67102
0.752408
0.814418
0.81928
1.00748
0.556337
0.520338
0.57161
0.550726
0.527736
0.577504
0.549732
0.575645
0.568513
0.586019
0.638488
0.545853
0.596158
0.617341
0.767727
0.647462
0.70904
0.76066
0.682556
0.722717
0.804971
0.855225
0.84529
0.848191
1.00024
0.792616
0.909279
0.929129
1.03902
0.893352
1.06905
1.01907
0.987497
0.938091
1.12111
1.09292
1.0702
1.05477
1.21729
0.990588
1.16783
1.15446
17.2403
104.37
73.1715
0.00122881
0.340188
2.94805
8.09702
3.51437
10.0179
15.2999
27.7994
90.7835
0.00696553
105.469
5.44301e-06
145.175
4.02924e-06
59.8669
0.548961
0.540372
0.644687
1.2378
1.68967
8.64136
7.51939
22.2895
0.00122041
0.689111
0.661928
0.729341
1.43293
1.99526
10.6376
12.5749
23.7718
1.75896e-05
1.40337
1.18578
1.31976
2.79926
4.6924
28.8307
0.00269298
1.48869e-05
3.55223e-08
1.87343
1.38504
1.47127
4.60499
11.659
54.2823
31.0516
2.72534e-10
1.32178e-09
6.12399
1.71252
3.77263
0.877264
41.0397
8.22436
12.5724
44.276
17.9822
5.1549
67.6045
7.89032
44.1097
69.0207
0.522996
0.579664
0.552224
0.594756
0.535127
0.560384
0.579039
0.603542
0.579142
0.579021
0.601053
0.628351
0.817308
0.658578
0.843489
1.31986
1.82372
2.47882
1.27312
1.40148
1.85098
2.6727
3.20988
3.46052
4.18408
1.8055
3.62635
3.77433
5.86953
0.654651
0.855278
0.671183
0.639987
0.926817
1.08128
0.797752
1.04442
0.964929
0.938663
1.28455
1.51968
2.10732
2.97666
1.89859
2.4818
3.61407
5.76774
4.30094
4.24415
7.45771
3.63718
8.64868
8.58231
13.8719
1.08739
1.26238
1.26903
1.23889
1.20698
1.66901
1.51625
1.43806
1.38841
1.05306
1.84924
1.62167
2.49412
3.06482
6.00332
7.76995
4.10223
5.52462
10.4088
19.2058
10.0603
11.6779
16.4869
9.55199
12.7777
27.1242
17.5969
1.42016
1.30712
1.54552
1.48429
1.54152
1.51428
2.14509
1.6199
1.57018
1.05194
1.43152
1.14449
2.5429
1.91638
4.94454
6.57441
18.5262
24.7818
12.2699
14.1464
35.9539
44.5242
14.7404
33.0617
24.7839
12.0072
8.3707
38.1733
26.5198
1.05031
6.59775
5.19391
8.38184
4.36383
23.6673
10.463
0.744348
4.18324
3.28435
3.72857
3.09982
8.8826
4.9505
1.00588
1.81775
1.17036
2.10623
2.24938
6.12836
3.84979
37.8912
10.5525
53.3323
0.724454
0.748328
0.823396
1.09102
0.8517
1.03593
0.843101
1.11452
0.878619
0.874986
1.34191
0.932303
1.40599
1.00941
1.54398
1.19564
1.73919
1.36963
1.75707
2.1161
1.89714
2.9872
2.00575
3.09053
2.20644
3.7708
2.7292
2.46362
3.16815
2.50534
5.7825
2.89465
4.69053
3.32828
10.0812
5.49353
0.569059
0.544834
0.567717
0.549234
0.551724
0.574015
0.5644
0.649758
0.629077
0.635263
0.564404
0.506234
0.511833
0.558594
2.9205
2.64209
1.8957
1.69449
2.64641
1.90372
2.9127
0.72244
0.64996
0.670721
0.758352
0.647425
0.734855
0.75886
0.700026
0.811039
0.765766
0.708051
0.564067
0.639023
0.614704
4.17768
3.16649
2.27155
2.3366
3.51085
3.7705
2.67291
1.13279
1.10399
1.16398
1.29317
1.06842
1.18619
1.24968
1.49843
1.19026
1.31901
1.23996
0.918194
1.11324
0.995845
11.5307
7.91917
5.4917
6.05739
8.83322
10.2871
7.15408
1.1227
1.23004
1.25432
1.37319
1.13611
1.22222
1.22999
1.90307
1.4269
1.77626
1.45847
1.01455
1.38013
1.03152
25.653
19.3628
14.3585
14.9179
22.12
22.6324
18.2589
7.14124
2.77629
3.20017
2.0938
0.873416
3.77286
3.85459
1.56631
0.766356
1.16689
3.38366
2.79823
3.33126
2.68279
1.78506
0.79063
1.27178
1.44786
1.12396
1.30285
2.0137
86.9653
65.1416
17.0527
10.6024
45.6665
17.3255
70.0664
6.76596
36.6903
20.2976
14.5739
11.7399
54.2783
40.9134
0.572706
0.535659
0.56355
0.545808
0.546633
0.571048
0.563865
0.567839
0.563877
0.573012
0.548081
0.42121
0.426928
0.539961
0.606369
0.589803
0.595885
0.599426
0.591664
0.564803
0.609519
0.622775
0.567212
0.588103
0.629629
0.591388
0.601863
0.626906
0.564538
0.4514
0.435232
0.596768
0.623048
0.641345
0.610912
0.656704
0.570239
0.556794
0.582154
0.584871
0.562891
0.585083
0.567403
0.578427
0.585016
0.588936
0.576057
0.571254
0.576111
0.576012
0.569981
0.579862
0.56655
0.596449
0.616778
0.566421
0.587924
0.603044
0.579083
0.598645
0.604925
0.611924
0.576108
0.593115
0.599594
0.586937
0.626286
0.60083
0.606814
0.576686
0.582176
0.576924
0.589009
0.82549
0.690379
0.696297
0.670982
0.829545
0.838311
0.664071
0.643225
0.68208
0.662796
0.573531
0.534127
0.518306
0.596783
0.709059
0.885934
0.741607
0.684967
0.897902
0.856346
0.717588
1.33818
1.15116
1.46772
1.32707
1.16177
1.4785
1.3248
1.36247
1.3463
1.22914
1.57801
1.18152
1.50469
1.42335
4.32126
3.98857
3.45246
3.22689
4.00103
3.47144
4.30583
2.97594
1.72061
2.83641
2.04571
2.69126
1.93948
3.14303
4.41423
3.32633
4.33388
3.90365
4.0843
3.58025
4.68552
0.796757
0.6809
0.684043
0.775843
0.695051
0.788725
0.78081
0.685535
0.701591
0.773959
0.734119
0.479251
0.651188
0.523105
0.80652
0.694305
0.715566
0.778797
0.937714
0.917573
1.09879
1.07642
0.932538
0.916248
1.10575
0.89743
1.04985
0.927009
0.850493
0.678102
0.589573
0.994181
0.935789
1.0503
0.901046
1.09587
0.704867
0.669539
0.641999
0.742565
0.832381
0.891876
0.98517
1.03196
0.851874
0.884358
0.960485
0.803978
0.986582
0.852827
0.92189
0.804226
1.09459
0.909527
0.876943
0.975268
0.778145
1.0989
0.873579
1.11663
1.02512
0.813996
0.804814
0.69498
0.957479
1.53974
1.06842
1.28435
1.0242
1.52073
1.27826
1.22055
1.75517
1.32592
1.72728
1.72581
1.54521
1.4883
1.98644
2.07224
2.03999
2.05545
2.95275
1.72905
2.38473
2.51412
6.3207
4.88235
4.62106
5.45734
5.27378
5.86529
5.84879
5.23136
2.86882
6.07437
4.22227
4.71864
3.30357
6.75273
7.93247
7.00591
9.44378
9.253
7.37573
7.49732
10.1582
1.40859
1.2632
1.22875
1.36776
1.27229
1.40635
1.34085
1.34153
1.06196
1.16272
1.25351
0.769569
1.13798
0.829814
1.36639
1.18826
1.25335
1.27259
1.49894
1.4596
1.60967
1.40886
1.52186
1.39972
1.53716
1.49259
1.21129
1.21687
1.32439
0.831532
0.845156
1.34581
1.41473
1.27663
1.29696
1.40949
1.06834
1.10133
1.01716
1.16496
1.15745
1.36065
1.23951
1.27961
1.22944
1.28414
1.15401
1.06146
1.04907
1.11758
0.979351
1.11105
0.981596
1.05861
1.08465
1.16791
1.18215
1.07787
1.01097
0.93912
0.941268
1.00668
2.1809
1.53865
1.78899
1.65385
1.81792
1.44482
2.13267
1.38795
1.41292
1.70084
1.31267
1.02086
1.02444
1.34647
2.77392
1.99752
2.16275
1.80824
2.64695
2.41468
1.91235
3.77182
2.46438
3.71919
3.7848
3.08588
2.93031
4.69323
4.52918
4.61494
3.88981
7.21499
3.40861
5.86178
5.34629
16.2506
12.0461
10.768
11.1361
12.9878
15.0266
11.9023
14.7516
7.70577
16.0831
11.5359
13.0737
9.18328
18.3148
19.6493
11.9656
21.2882
13.5554
18.1432
12.7488
23.0091
1.52645
1.67757
1.38631
1.55001
1.53741
1.73536
1.35755
1.5292
1.22413
1.2091
1.3176
0.808536
1.3337
0.804691
1.34014
1.23516
1.37477
1.20193
1.51863
1.55848
1.88089
1.38136
1.78466
1.34479
1.57094
1.76005
1.58078
1.31469
1.32888
1.01069
0.848759
1.43989
1.328
1.25228
1.18897
1.39092
1.03925
1.1144
0.971467
1.0568
1.04522
1.1166
0.971846
1.03918
1.13847
1.05726
1.11222
0.974815
0.926169
0.990093
0.915557
1.1271
1.37296
1.29209
1.25888
1.23001
1.2241
1.16298
1.04973
1.07608
1.1959
1.02693
1.13224
0.985224
1.08754
1.03087
1.15769
1.099
1.08991
0.970071
0.976815
0.917342
1.02897
3.40105
3.05163
2.32341
2.16438
2.86667
2.00972
3.15437
1.61078
2.6188
2.15772
1.65586
1.34376
1.11897
2.05261
3.57328
2.90999
3.94415
2.46054
4.62165
3.65253
3.04139
7.78487
4.45441
8.88653
8.25587
6.325
5.27263
11.2974
10.3733
11.8411
9.99166
20.9915
6.82525
15.8142
15.5631
23.9745
24.4364
15.4212
17.8428
26.2285
21.3305
19.3724
20.1215
18.3648
9.59402
18.3308
16.0728
22.8343
14.6195
17.115
13.0213
8.6261
12.5547
13.7248
16.0671
13.0649
3.01877
1.37128
1.56506
1.71966
2.06581
2.1615
2.41713
4.5118
2.73711
6.149
6.06301
3.40967
3.66424
7.47209
1.69124
0.750935
1.06624
1.21984
1.06853
1.23493
1.67538
2.69085
2.23425
3.58072
4.99037
1.948
3.06897
4.31046
2.51277
1.80769
3.30274
3.95238
1.81724
2.47866
3.99229
1.90985
4.0849
3.11028
2.64781
10.8455
0.256539
6.43445
0.282692
3.35078e-05
9.43657
29.5863
3.00833e-07
0.764195
6.97314
40.04
8.01197
63.3366
2.63284
2.188
2.77097
3.72715
5.54426
1.59384
4.23338
3.005
1.79798
12.6265
3.62526
8.44427
2.35951
12.909
4.87656
2.76961
15.99
6.65656
8.57115
7.29151
25.5438
10.6713
3.42812
3.15069
5.42691
1.38117
1.20284
2.10196
1.92069
1.20976
2.11576
1.37078
2.42388
1.65761
2.90641
3.43094
1.89013
2.12084
3.75883
5.34108
3.99456
7.10779
7.15358
4.68071
4.53903
7.91201
9.37499
6.62928
10.0892
12.3851
7.65048
8.32376
13.2679
1.84307
0.82445
1.11188
1.24697
1.23156
1.33267
1.71841
8.5218
20.4087
20.8134
13.043
14.3588
37.8141
34.1348
1.4326
1.98695
1.37982
2.41206
1.25329
2.19096
1.57718
3.15401
4.46713
3.4095
6.09539
2.74208
4.90185
3.95231
2.15237
1.35846
2.15373
2.09388
1.77204
1.73211
2.6655
3.58294
2.48183
2.42114
1.96095
3.14352
2.78806
2.70455
5.99434
7.78511
5.7511
9.19311
5.09687
8.56753
6.72217
4.04719
2.12387
3.58443
3.40647
3.13006
2.99991
4.62592
6.68433
4.25353
4.0437
3.47035
5.42509
5.30062
5.05602
13.457
12.8163
9.13033
12.6876
11.714
15.597
13.1084
9.43736
4.78222
9.6813
10.4164
7.67847
6.88178
13.1047
2.71398
1.87929
3.79199
4.07949
2.06899
2.53295
4.41911
1.20728
1.07304
1.42273
1.42311
1.76441
1.84293
1.55047
1.09353
0.710148
1.23341
1.01851
1.13117
1.27429
1.38173
1.05327
0.921344
0.658646
0.674149
0.961619
1.07351
1.20311
1.25108
1.01262
1.02317
1.29863
1.03801
1.04896
1.2849
8.82821
3.26175
3.32935
3.73688
15.0361
4.10715
16.0364
10.486
11.2088
7.70101
5.51455
17.7035
6.07744
18.2963
1.6189
1.18556
1.34132
1.69299
1.21098
1.49485
1.36513
4.76993
16.3061
5.04802
4.65502
17.728
9.65049
30.5896
9.52553
1.20014
16.4334
6.89367
19.7192
14.1868
31.0966
3.41756
2.27038
2.71622
3.56284
2.2909
2.92977
2.72692
15.1674
56.4713
17.3639
13.1848
36.905
31.8649
56.0761
19.8893
0.0840494
18.7286
19.1181
36.821
39.7928
5.27375
6.7026
5.61462
4.04945
6.83383
3.91408
5.71925
4.42684
1.96798
62.0375
32.0711
39.3872
13.1368
50.3237
0.00939991
0.000999029
0.000334973
4.17211
44.5765
0.171466
43.8125
0.000917724
2.61458
4.82569
3.42628
3.93845
1.94809
2.81432
2.93353
6.87817
15.7057
8.78207
13.0569
7.48198
13.3568
15.7352
34.5222
11.665
15.4164
7.2389
6.20687
10.5479
24.4287
6.03699
10.9722
7.08974
6.42524
5.34257
9.21647
20.5167
120.756
22.208
69.7062
7.03904
16.8295
57.0084
90.1852
20.0612
7.89354
59.8221
6.02858
14.3068
34.0478
79.4328
1.0439
1.32477
1.09228
1.32233
1.11781
1.0698
1.3786
2.28875
1.57056
1.88063
1.98942
1.90254
1.59261
2.39862
4.81967
3.17302
3.61064
4.24756
3.54029
3.15439
4.94739
7.43225
5.54105
8.63502
8.94803
7.43023
5.40628
12.9194
10.0073
6.78993
4.69921
5.62149
6.50057
4.15922
8.94976
1.84801
1.23753
1.27987
1.34146
2.16131
1.37855
2.22849
3.58217
1.46566
1.95903
1.62568
2.55387
2.25124
3.50663
10.9207
2.8866
4.25999
3.3528
5.65307
4.99477
10.3792
12.8898
20.9271
5.09338
7.24923
21.5129
15.2012
72.7381
31.4631
5.84396
7.59271
6.7563
15.7517
26.22
74.7325
40.9192
74.7725
18.3049
23.8945
88.8583
91.5438
36.2614
2.21808
2.209
1.54162
1.71366
2.41357
2.32391
3.02047
18.8137
11.0775
11.3579
20.1041
15.9907
28.5003
29.5395
12.0665
20.3317
10.9278
22.4442
13.7471
25.0163
19.7378
11.926
11.3969
6.13717
6.25158
11.7413
6.87046
12.1877
9.03706
9.58929
4.27878
3.70318
7.83564
3.87822
8.03344
5.69784
15.1405
9.69206
5.20735
10.0678
9.15236
15.4313
14.4594
5.86383
14.8683
13.9486
18.7343
15.9667
18.365
0.00103
0.146616
17.4422
14.1131
7.64036
16.1429
0.00676403
12.2104
11.6298
6.35592
6.8802
12.2674
7.46623
12.8414
19.7936
14.8405
25.7096
7.80657
14.2314
9.47314
13.4365
8.28288
13.973
15.7188
73.0435
0.50846
0.660829
1.16364
1.48802
1.93809
3.70589
0.509458
0.545172
0.512537
0.576453
0.576439
0.585941
0.544626
0.756924
0.690297
0.655689
1.02682
0.927175
1.04271
0.977459
1.25163
1.2165
1.191
1.47933
1.49444
1.52962
1.33064
1.24908
1.70168
1.85198
1.6103
2.31149
1.84302
1.31879
1.56945
9.63878
0.598744
0.626945
0.665324
0.697653
0.750997
0.998661
0.932663
1.24792
1.31682
1.64252
1.62804
2.06199
2.06278
2.62281
2.63453
3.41247
0.499632
0.502581
0.513007
0.525042
0.507492
0.518935
0.513784
0.555938
0.537507
0.546567
0.505136
0.520626
0.532871
0.492751
0.529867
0.533873
0.580292
0.546509
0.585333
0.539382
0.594932
0.569419
0.616292
0.620178
0.530318
0.597998
0.553549
0.580191
0.651074
0.755527
0.653411
0.781864
0.6581
0.672473
0.760339
0.796192
0.691055
0.794958
0.756352
0.668397
0.653558
0.771098
0.886644
1.01106
0.87924
0.915105
1.01905
0.88519
1.06007
1.07234
0.928068
1.07943
0.883358
1.05203
0.902982
1.02297
1.28413
1.16047
1.13647
1.32515
1.1466
1.19921
1.26138
1.35347
1.23176
1.37642
1.28599
1.20015
1.15943
1.33711
1.36461
1.53852
1.40756
1.44637
1.47893
1.3701
1.57201
1.65908
1.52161
1.68316
1.41131
1.60531
1.46847
1.55055
1.59045
1.81576
1.67618
1.83806
1.58579
1.7023
1.69342
2.06915
1.86798
2.07699
1.88243
1.75233
1.70809
1.91529
2.62333
2.28914
2.548
2.07843
2.27886
2.07869
2.31355
0.607971
0.60484
0.611888
0.633328
0.677972
0.668806
0.859926
0.740143
0.846847
1.15583
0.984644
1.14343
1.47596
1.30822
1.47181
1.83537
1.64204
1.83508
2.32788
2.06012
2.31913
3.03776
2.5932
2.94036
2.84681
1.88224
2.89233
0.507151
0.501879
0.513134
0.52486
0.5137
0.525665
0.495742
0.529197
0.543843
0.579699
0.591698
0.534289
0.546229
0.576402
0.75846
0.650395
0.665972
0.75852
0.651223
0.750442
0.772838
0.888339
0.891354
1.01293
1.05954
0.874973
0.90788
1.03042
1.29442
1.14734
1.20882
1.32168
1.16873
1.26784
1.34385
1.41258
1.43358
1.48068
1.5827
1.37757
1.4664
1.53188
1.78099
1.58042
1.69569
1.67972
1.65196
1.68505
1.80922
1.92812
1.74179
1.92684
2.07515
1.78863
1.92293
6.96588
3.91824
68.312
0.0100915
2.01852e-06
50.6874
0.000129595
2.11446
4.53898e-05
0.000720711
33.8262
0.00102837
42.34
0.00166692
19.9237
0.000481702
3.01852e-06
124.914
99.8602
98.768
27.7547
81.4031
0.000885904
90.8741
18.8615
56.8989
1.15937
23.5667
66.0448
0.176685
0.00148048
32.4868
0.00074159
31.6984
0.0847978
40.0933
0.000944618
64.3449
34.6115
50.9206
0.6689
41.6855
50.462
9.15692
4.91509e-12
1.33933e-10
1.03236e-07
1.51952e-05
3.33639e-05
6.4229e-12
1.7894e-05
1.50424e-11
0.000192463
1.10059e-12
1.25847e-14
1.29372e-06
2.61071e-07
1.31779e-11
1.2282e-12
1.04944e-08
5.17731e-09
1.47732e-13
3.09645e-14
3.28872e-11
3.31794e-12
2.22045e-16
2.22045e-16
4.08176e-13
5.84639e-15
2.22045e-16
2.22045e-16
2.22045e-16
2.22045e-16
2.22045e-16
2.22045e-16
5.39127e-05
5.62164e-09
2.57379e-06
8.66574e-11
2.15602e-08
2.52837e-14
6.82781e-12
2.22045e-16
1.42819e-15
2.22045e-16
7.25208e-11
2.22045e-16
2.22045e-16
8.40764e-12
2.22045e-16
2.22045e-16
2.22045e-16
1.671e-13
2.59274e-11
2.22045e-16
2.22045e-16
2.22045e-16
2.22045e-16
2.69281e-14
7.80429e-12
2.22045e-16
2.22045e-16
2.22045e-16
2.22045e-16
2.22045e-16
2.22045e-16
2.22045e-16
10.0079
3.34007
7.63982
1.96218
1.69028
2.45474
2.67955
2.00047
4.89854
3.6874
5.83028
3.84877
2.39944
2.34468
3.22342
2.05318
2.83476
2.77122
2.05137
1.80818
2.17274
1.96752
1.98132
1.94024
1.79649
2.16661
2.58518
2.13425
1.99386
3.22267
5.11315
13.6351
9.81014
4.28556
5.57174
5.82327
8.2713
2.12439
2.1316
2.2406
2.62198
2.59417
2.10072
2.23289
2.40671
3.21797
2.78745
3.27476
2.83409
2.46213
2.39525
2.85496
2.61921
2.09103
2.24899
2.30082
2.28312
2.38591
2.57658
3.1809
8.76738
4.00335
3.82084
3.2849
3.91354
4.70734
9.95613
2.79104
2.40001
0.930814
0.528564
0.554313
0.647645
0.946964
0.812004
0.890517
1.18916
1.00194
0.536603
0.528725
0.536485
0.552901
0.591539
0.588801
0.645295
0.712193
0.713568
0.813516
0.768839
0.770127
0.870591
0.869833
0.888992
0.849278
0.849867
0.956918
0.912714
0.914112
0.955833
0.994542
0.941433
0.9372
1.00632
1.06959
1.06532
0.546597
0.543289
0.552164
0.564648
0.574634
0.569533
0.560612
0.689818
0.797566
0.752745
0.780651
0.677224
0.70588
0.696701
0.577079
0.572327
0.614596
0.594612
0.638296
0.632211
0.589576
0.533496
0.54802
0.537143
0.553707
0.564484
0.532713
0.544419
0.866372
0.995624
0.901201
0.824927
0.869252
0.945511
0.884065
6.17185
15.2006
8.26552
6.14888
6.19606
4.7906
8.58567
4.7092
8.66652
6.12612
23.5464
24.7798
1.05941e-05
2.82897e-11
0.695793
0.680439
0.689745
0.687563
0.716414
0.753241
0.708901
0.762066
0.954728
0.830016
0.839388
0.944277
1.10189
1.26209
1.09093
1.27292
1.6465
1.44738
1.45679
1.63993
1.84521
2.07272
1.84261
2.07438
2.67193
2.34527
2.35006
2.65955
3.01666
3.43881
2.99511
3.54706
9.97751e-13
4.75555e-06
3.94375e-11
2.06836e-08
5.00775e-13
6.17993e-11
2.22045e-16
2.11878e-13
2.22045e-16
2.22045e-16
2.22045e-16
2.22045e-16
2.22045e-16
2.22045e-16
2.22045e-16
2.22045e-16
2.22045e-16
3.93872
3.82616
4.78043
15.9316
31.697
29.9647
32.8713
54.0407
15.1356
97.1613
6.7187e-13
4.70171e-05
6.6797e-14
4.50326e-06
1.48616e-15
7.96931e-13
2.22045e-16
2.22045e-16
2.22045e-16
0.613886
0.554214
0.599865
0.583942
0.563848
0.627132
0.606576
0.77915
0.67195
0.791122
0.769615
0.696348
0.675984
0.77089
1.00996
1.06583
1.13098
1.07003
1.00508
1.05713
0.975989
0.972654
0.999671
0.898555
0.977463
0.876578
0.879138
0.985033
0.579011
0.587434
0.601792
0.591789
0.598351
0.579917
0.572449
0.511428
0.523201
0.519907
0.518574
0.530846
0.513284
0.52512
0.541611
0.588389
0.590858
0.550853
0.594011
0.545467
0.58986
1.11428
1.15003
1.082
1.13802
1.06276
1.07552
1.15206
0.619531
0.646647
0.658249
0.617143
0.658914
0.640514
0.598853
0.567741
0.576761
0.586944
0.543449
0.553645
0.554174
0.561871
0.662663
0.75977
0.758867
0.662316
0.755393
0.65898
0.75427
0.804619
0.714159
0.72596
0.821989
0.730773
0.833366
0.709112
0.86956
0.990539
0.873228
0.864062
0.974933
0.869374
0.989606
0.929534
0.911769
1.00752
0.929635
1.02629
0.946851
1.0452
0.603145
0.571158
0.633257
0.637761
0.608606
0.610029
0.577137
0.534519
0.519441
0.511969
0.524223
0.530224
0.532685
0.540995
1.08855
1.17105
1.24678
1.12411
1.18771
1.11086
1.02789
0.698359
0.698451
0.671934
0.762739
0.753959
0.667748
0.78632
0.908091
0.873003
0.986314
0.977535
0.862917
0.890267
0.991853
1.07557
1.20386
1.102
1.07499
1.16382
1.10294
1.20631
1.11414
1.08149
1.1402
1.14797
1.09919
1.11695
1.16669
0.59105
0.591496
0.543063
0.548133
0.584544
0.586557
0.556926
1.27508
1.18
1.21229
1.28698
1.21209
1.22311
1.29166
0.777343
1.06804
1.88492
3.70269
0.886432
0.981832
0.81096
1.07341
1.62713
1.4027
1.87963
2.77057
2.45414
3.17304
0.7971
0.882613
0.784953
0.900518
0.895855
0.795633
0.787646
0.81998
0.927071
0.979691
0.865435
0.924003
0.816808
0.869445
1.08284
1.07236
0.949936
1.21486
0.954554
1.21486
1.07735
1.24841
1.40163
1.62954
1.43789
1.40274
1.24235
1.44429
1.88956
1.88194
1.65471
2.14795
1.66096
2.14839
1.8845
2.12504
2.43934
2.76538
2.38545
2.43509
2.12152
2.38849
3.10902
3.17216
2.71001
3.64292
2.71441
3.65005
3.09984
4.92248
5.15176
3.50405
4.15644
5.16654
4.05477
4.19649
3.49643
4.19845
1.19518
2.33597
4.78548
41.9183
3.55994e-11
2.67023e-14
2.22045e-16
0.688538
0.800067
1.49276
2.12503
14.3909
0.807137
0.709618
0.83192
0.966511
1.00371
1.54475
1.81214
1.73523
2.37846
2.65353
3.18864
4.3624
23.9335
12.1131
8.48264
0.82845
0.891015
0.85608
0.932683
1.22379
1.31329
1.51092
2.02304
2.33991
2.96432
1.82769
4.72452
2.20936
8.52934
3.73277
19.4259
35.2314
32.7052
10.3042
30.9871
27.0911
0.000215357
6.75104e-12
2.22045e-16
2.22045e-16
2.22045e-16
44.0898
0.0367591
1.63131e-09
109.399
2.58155e-11
2.22045e-16
1.34642
7.7536e-14
2.22045e-16
70.9912
2.19325e-05
9.18268e-14
15.6141
0.00454393
2.91895e-07
71.0046
2.73442e-09
2.22045e-16
2.22045e-16
2.22045e-16
2.22045e-16
4.5678e-11
2.22045e-16
2.22045e-16
2.22045e-16
2.22045e-16
2.22045e-16
2.22045e-16
2.22045e-16
2.22045e-16
2.22045e-16
2.22045e-16
2.22045e-16
4.87404e-07
5.43892e-05
5.80899e-14
1.54882e-09
2.22045e-16
2.22045e-16
2.22045e-16
2.22045e-16
2.22045e-16
2.22045e-16
2.22045e-16
2.22045e-16
3.18858e-15
1.19682e-11
2.22045e-16
2.22045e-16
2.22045e-16
2.22045e-16
2.22045e-16
2.22045e-16
2.22045e-16
2.22045e-16
2.22045e-16
2.22045e-16
2.22045e-16
2.22045e-16
2.22045e-16
2.22045e-16
2.22045e-16
2.22045e-16
2.22045e-16
2.22045e-16
2.22045e-16
2.22045e-16
2.22045e-16
2.22045e-16
1.11297e-11
2.22045e-16
2.22045e-16
2.22045e-16
2.22045e-16
2.22045e-16
2.22045e-16
2.22045e-16
2.22045e-16
27.6257
105.328
72.6675
0.000138019
1.80786e-08
0.00324535
4.87604e-09
2.22045e-16
5.85167e-15
56.1546
1.98287
3.15027e-12
9.21856
6.139
7.6207e-08
8.33143
44.2886
7.35245e-07
2.22045e-16
2.22045e-16
2.22045e-16
2.22045e-16
2.22045e-16
2.22045e-16
2.22045e-16
2.22045e-16
2.22045e-16
53.5439
6.94014e-08
1.20308e-13
14.0386
0.00629674
7.54823e-09
47.2318
8.99084e-10
2.22045e-16
2.22045e-16
2.22045e-16
2.22045e-16
1.9182e-10
2.22045e-16
2.22045e-16
2.22045e-16
2.22045e-16
2.22045e-16
2.22045e-16
2.22045e-16
2.22045e-16
2.22045e-16
2.22045e-16
2.22045e-16
0.000501603
4.90716e-11
5.95283e-15
2.22045e-16
2.22045e-16
2.22045e-16
9.03156e-10
2.4328e-12
2.22045e-16
2.22045e-16
2.22045e-16