/*--------------------------------*- C++ -*----------------------------------*\
  =========                 |
  \\      /  F ield         | OpenFOAM: The Open Source CFD Toolbox
   \\    /   O peration     | Website:  https://openfoam.org
    \\  /    A nd           | Version:  9
     \\/     M anipulation  |
\*---------------------------------------------------------------------------*/
FoamFile
{
    format      ascii;
    class       volVectorField;
    location    "0.00335";
    object      U;
}
// * * * * * * * * * * * * * * * * * * * * * * * * * * * * * * * * * * * * * //

dimensions      [0 1 -1 0 0 0 0];

internalField   nonuniform List<vector> 
28829
(
(295.523 -196.437 123.453)
(310.6 -139.838 162.321)
(269.847 -199.281 166.015)
(264.519 -205.227 144.716)
(221.899 -204.935 210.425)
(238.333 -195.163 245.251)
(234.237 -213.96 267.677)
(216.742 -220.774 309.868)
(270.705 -198.094 218.418)
(237.403 123.242 227.938)
(33.0297 134.736 93.8528)
(22.4382 143.031 226.4)
(227.091 108.452 -2.25253)
(221.482 109.542 46.1845)
(253.513 182.825 21.2705)
(244.153 184.415 54.9568)
(216.419 111.898 68.0393)
(210.209 113.004 124.045)
(237.395 186.833 96.4401)
(238.523 185.212 131.152)
(210.031 112.84 141.291)
(197.238 82.0113 280.49)
(247.936 236.004 156.348)
(221.256 195.894 197.977)
(212.506 15.56 317.438)
(254.949 -89.4628 320.862)
(227.273 35.0551 -2.68337)
(208.191 36.0574 -11.9895)
(257.151 102.663 1.15948)
(230.472 106.699 9.10917)
(221.107 37.9889 -13.9324)
(214.806 35.0749 -1.08725)
(258.943 99.0756 11.7271)
(227.405 33.9787 15.3224)
(227.495 107.322 25.8968)
(208.698 35.9177 36.5354)
(248.064 101.903 45.7261)
(214.534 35.0628 16.1993)
(254.792 99.3293 27.1569)
(222.712 34.3936 36.2791)
(214.006 36.2438 80.5549)
(202.842 36.9141 58.1595)
(242.129 104.539 66.72)
(212.945 113.453 89.1925)
(217.872 35.4362 58.7169)
(198.423 37.4463 78.8371)
(237.562 106.374 88.2021)
(211.222 36.4417 100.363)
(211.151 113.67 107.844)
(193.166 37.3468 111.936)
(233.15 107.063 127.606)
(194.743 37.5303 96.5974)
(234.716 107.141 108.604)
(209.915 36.1136 117.952)
(203.275 35.2358 169.362)
(192.919 37.5202 128.025)
(231.789 107.779 148.248)
(204.288 109.389 168.194)
(209.018 36.1178 136.944)
(189.036 36.4136 155.725)
(224.969 106.024 180.423)
(186.828 33.7454 217.035)
(193.731 100.844 209.491)
(192.069 16.3505 302.945)
(198.119 93.3544 300.115)
(185.966 32.1765 198.682)
(207.287 102.668 226.83)
(184.47 19.6537 322.527)
(42.4297 127.023 91.1012)
(23.6621 128.423 111.322)
(211.409 41.3977 248.664)
(221.319 -123.145 332.538)
(209.758 -109.416 340.41)
(202.596 34.1121 342.308)
(246.596 -18.2071 305.074)
(196.541 -104.699 367.71)
(247.664 -127.425 304.834)
(218.208 -8.00403 333.69)
(318.592 202.497 27.1704)
(87.9297 3.94962 6.64723)
(299.741 180.405 72.3375)
(70.1618 13.1778 75.0514)
(269.442 165.15 78.2132)
(85.8264 21.407 73.5707)
(269.551 134.675 130.97)
(120.862 43.6154 98.3606)
(201.169 103.036 322.75)
(43.293 108.973 337.062)
(244.905 179.005 8.86343)
(313.196 292.484 8.85831)
(314.508 195.872 61.7565)
(235.467 178.541 68.7279)
(254.578 366.345 31.347)
(186.249 382.913 6.69425)
(76.1615 9.97128 60.7182)
(177.726 383.05 32.6521)
(226.542 173.989 82.45)
(288.989 312.794 37.7161)
(279.284 175.648 67.4974)
(215.11 175.909 85.0318)
(253.192 301.6 61.0316)
(157.654 363.858 46.6116)
(76.5821 19.8164 80.271)
(131.86 338.743 55.2596)
(217.694 179.854 79.7812)
(238.69 299.926 92.7057)
(270.244 144.714 108.264)
(240.072 181.66 97.0319)
(197.284 298.853 120.024)
(119.383 305.545 88.3003)
(114.662 36.2966 87.3529)
(123.899 281.546 109.789)
(193.974 92.3971 145.406)
(184.15 89.3099 247.952)
(245.516 179.161 113.062)
(192.009 275.769 133.226)
(234.748 162.045 215.019)
(210.768 193.404 159.915)
(173.008 254.14 138.273)
(125.561 258.612 116.725)
(103.61 104.532 87.1649)
(126.691 249.76 109.781)
(-63.6893 89.8729 12.5493)
(83.1854 127.728 6.85833)
(-39.1071 -35.4371 4.1267)
(85.3071 6.53577 22.2025)
(79.0509 130.595 21.7081)
(-40.0627 -36.3824 14.6116)
(-59.7287 90.7211 3.84649)
(-89.5814 90.9795 49.6496)
(44.7576 125.013 66.3254)
(-47.3759 -21.0827 52.5379)
(67.2191 16.8005 84.627)
(-86.0702 91.9779 42.7575)
(29.652 121.45 73.9519)
(-43.1249 -16.5729 60.6227)
(-55.5737 61.1029 50.0487)
(16.8014 111.835 71.0888)
(-9.94582 -25.8863 51.6567)
(95.862 25.0305 72.9953)
(-69.6189 68.0871 48.8195)
(22.8599 109.685 72.6824)
(1.46666 -26.668 51.6918)
(-8.35301 67.8612 71.3362)
(44.5199 106.935 98.6922)
(28.3634 -15.1002 68.5298)
(125.926 50.7151 106.341)
(-18.6521 60.1602 67.5153)
(48.6012 110.084 106.516)
(36.6057 -3.39206 70.7211)
(160.975 129.414 325.461)
(145.115 212.469 261.172)
(70.7891 99.4505 339.779)
(121.34 151.746 312.961)
(114.818 204.06 290.721)
(183.628 230.014 236.675)
(187.076 215.108 163.896)
(206.948 90.1194 308.108)
(173.514 204.312 247.433)
(322.071 251.035 27.8203)
(354.144 180.81 9.88766)
(225.747 229.792 8.9323)
(243.048 183.263 28.3006)
(350.117 186.411 30.3968)
(221.242 234.307 27.0233)
(326.877 245.381 9.62934)
(318.2 252.325 47.5089)
(241.05 183.585 49.9606)
(345.177 181.887 70.7376)
(208.366 228.458 63.3973)
(348.234 186.911 52.7936)
(216.655 234.337 47.1547)
(313.768 246.616 62.718)
(-69.8745 90.9103 24.4387)
(81.7717 8.43715 42.6393)
(59.9367 128.189 54.4344)
(-46.5237 -28.2638 40.9681)
(72.4887 131.141 40.0971)
(-43.1645 -33.6425 28.2907)
(-78.518 91.0097 33.5097)
(293.291 241.026 75.0568)
(338.052 176.675 80.3376)
(195.936 223.209 75.7678)
(219.124 172.63 90.1553)
(305.55 241.687 72.2955)
(328.796 173.451 81.3989)
(181.231 220.709 82.1575)
(280.229 245.568 72.0783)
(214.936 173.964 90.5098)
(312.113 174.719 69.1881)
(160.277 223.396 79.1874)
(319.349 173.502 77.201)
(168.429 221.431 82.3529)
(269.829 252.335 68.2567)
(-88.6995 85.7359 52.3773)
(69.4444 19.1546 86.5232)
(14.7587 114.226 73.5558)
(-22.8219 -22.431 55.5347)
(19.2869 117.863 76.0272)
(-34.7707 -17.717 60.6559)
(-81.8689 77.1026 50.3499)
(263.214 257.761 75.8021)
(307.494 174.225 66.6656)
(156.762 225.961 77.6725)
(223.543 183.373 79.7961)
(264.178 256.883 69.6791)
(306.393 171.753 70.3195)
(157.586 227.125 80.8519)
(264.881 256.058 86.7463)
(231.021 183.668 86.183)
(311.655 157.525 92.9508)
(166.688 222.826 101.261)
(307.953 165.545 78.5754)
(161.226 226.109 89.2711)
(268.532 251.016 101.378)
(-41.8698 57.9275 54.1164)
(105.419 30.4292 78.3791)
(39.1402 105.505 88.7969)
(20.3997 -21.9148 62.1643)
(30.6336 107.133 79.1574)
(11.3561 -25.1743 55.7947)
(-29.351 57.1398 60.8502)
(208.707 15.1391 152.91)
(163.19 40.9378 138.466)
(245.281 70.9429 123.495)
(192.901 83.0142 176.193)
(205.867 24.537 116.929)
(167.503 28.4626 170.97)
(247.18 59.2033 154.738)
(236.992 -18.7895 141.248)
(293.068 22.1889 109.533)
(235.979 -15.7731 104.095)
(294.241 17.2092 141.026)
(204.991 18.3356 198.711)
(192.086 82.5296 209.777)
(163.277 32.599 250.173)
(225.301 60.5596 245.567)
(169.924 27.0683 208.833)
(241.562 59.8703 193.592)
(192.977 17.3514 260.671)
(224.271 -13.9086 190.832)
(262.285 36.1321 261.39)
(282.927 20.868 180.2)
(203.81 7.15687 286.085)
(264.915 237.596 143.19)
(312.921 149.805 114.271)
(168.344 219.141 116.315)
(247.923 175.855 131.207)
(267.786 245.262 120.384)
(312.24 142.452 142.174)
(167.446 213.953 132.114)
(249.702 236.205 168.227)
(236.551 176.997 146.38)
(274.867 153.16 226.795)
(139.663 223.934 155.767)
(299.897 142.837 174.945)
(155.551 213.335 146.913)
(233.216 234.988 199.625)
(-0.0105034 86.2674 69.7498)
(121.012 64.6443 105.133)
(44.873 156.364 96.4091)
(42.0346 68.5556 45.0318)
(46.9583 122.823 107.768)
(41.1297 20.1319 64.0146)
(8.55262 122.995 62.0577)
(217.205 149.353 307.088)
(150.178 206.515 303.914)
(134.654 235.955 200.291)
(187.304 120.105 336.634)
(143.685 227.965 229.019)
(166.005 200.951 310.639)
(178.639 214.445 279.678)
(40.7949 180.468 303.435)
(13.5305 178.064 216.301)
(10.1535 142.73 209.832)
(107.938 148.771 324.931)
(84.9188 215.171 249.979)
(32.868 142.53 153.462)
(34.7707 201.484 184.659)
(209.95 239.875 223.921)
(140.628 214.351 180.67)
(220.686 200.44 254.639)
(136.449 242.667 164.504)
(128.069 245.751 186.683)
(181.024 229.364 257.486)
(139.056 250.729 183.564)
(5.72331 84.4751 83.3301)
(17.9096 117.611 155.163)
(-7.77981 138.007 229.251)
(261.439 131.864 7.7363)
(256.487 125.57 12.7696)
(255.089 113.034 20.0542)
(233.794 98.1039 54.7003)
(228.542 100.499 69.694)
(220.896 97.9674 127.104)
(170.324 95.4801 157.868)
(155.03 81.1855 278.114)
(216.959 95.9413 152.315)
(191.533 91.1514 295.784)
(195.172 53.7559 344.67)
(231.361 -80.6878 351.203)
(77.4828 -38.4733 333.704)
(166.359 66.0323 329.15)
(103.437 9.71674 387.979)
(182.657 -3.97865 398.65)
(219.429 58.2563 -8.76794)
(229.191 101.744 0.639275)
(267.839 114.511 4.86805)
(259.638 134.981 7.18538)
(228.472 102.654 -7.52178)
(266.886 116.683 1.26544)
(220.521 57.3983 0.218067)
(220.687 57.3035 -15.8883)
(257.873 133.782 11.0883)
(227.584 96.2451 -18.1868)
(268.577 110.305 1.09926)
(227.228 101.214 -13.6725)
(266.678 115.952 2.18693)
(225.374 54.2516 -20.7452)
(233.424 41.9297 -5.18597)
(228.738 86.535 -12.9737)
(271.181 101.701 6.41959)
(250.288 101.78 29.9639)
(230.217 48.749 -17.1911)
(226.783 73.5099 -1.06963)
(269.779 94.6749 16.8412)
(231.612 38.3199 14.8192)
(242.011 97.4789 41.831)
(215.568 64.8032 39.5747)
(256.373 96.3072 47.5402)
(221.328 65.6885 17.9159)
(263.855 93.4 30.9628)
(227.544 38.7984 37.7482)
(220.719 40.7898 82.9104)
(212.309 66.7997 61.9055)
(250.239 99.8325 66.7437)
(225.175 101.537 86.672)
(223.865 40.1792 60.7741)
(210.665 67.6721 84.2747)
(245.189 102.083 87.0154)
(218.521 40.6699 103.868)
(222.984 100.533 105.725)
(210.609 63.9493 129.567)
(238.834 101.886 127.912)
(210.069 66.8438 106.859)
(241.401 102.651 107.484)
(217.23 39.7131 123.346)
(211.24 35.042 178.828)
(209.567 58.3934 155.026)
(235.998 101.31 150.907)
(209.739 93.3732 185.591)
(215.239 37.9973 144.776)
(206.214 49.323 191.472)
(229.952 99.44 185.235)
(197.442 31.5394 227.752)
(202.64 88.4958 230.337)
(185.203 31.3442 335.846)
(203.492 93.0255 306.312)
(193.802 36.3577 242.513)
(215.169 96.1303 232.803)
(189.046 20.5857 333.458)
(92.2234 28.6496 205.105)
(148.918 80.1445 164.488)
(126.826 58.3215 154.375)
(165.918 85.4642 190.281)
(92.4986 39.7583 168.518)
(147.735 69.0459 203.366)
(129.027 43.9531 187.847)
(94.9491 13.6016 246.72)
(163.558 76.2109 228.429)
(138.968 50.9634 328.469)
(128.87 37.3775 266.839)
(143.72 52.2842 252.012)
(131.529 34.3492 224.845)
(92.814 12.8178 301.507)
(227.313 -108.49 367.041)
(206.331 -57.5521 387.545)
(206.244 43.1083 351.733)
(203.998 30.2109 370.985)
(205.028 -95.7556 385.751)
(230.07 -70.4328 390.996)
(217.37 8.67052 360.223)
(171.322 -0.0364388 376.114)
(135.573 37.1844 311.557)
(175.305 49.7383 363.719)
(120.094 -3.84081 347.44)
(194.59 -26.7894 397.961)
(143.437 -15.6373 376.412)
(141.456 41.4943 345.511)
(50.0272 40.6873 326.484)
(29.429 132.383 149.379)
(9.54706 132.148 197.921)
(16.7634 116.486 134.634)
(96.735 48.7576 298.319)
(86.1506 29.2569 392.769)
(161.628 23.9704 390.04)
(-86.0355 72.1405 3.93735)
(-60.1767 115.865 2.48148)
(-68.3768 64.3556 16.886)
(-59.9696 121.124 19.922)
(-50.1204 76.1302 18.0109)
(-49.9329 110.333 34.2305)
(-62.1116 123.143 40.607)
(-30.5185 76.3075 34.482)
(46.7889 173.401 93.8884)
(0.61372 190.076 19.384)
(0.0298723 0.0657155 0.0255321)
(0.885924 2.82725 1.43043)
(-73.5221 54.6832 3.05336)
(-143.098 301.304 10.3948)
(-66.7726 51.2825 21.1099)
(-142.186 299.272 18.5235)
(-49.0778 24.5371 3.42717)
(-67.4265 48.3321 2.6012)
(-50.6114 27.3048 11.6965)
(-69.4964 52.9555 7.45129)
(-59.4397 47.5194 25.3468)
(-125.956 274.513 32.6276)
(-28.1829 43.115 21.9545)
(-55.0528 208.191 45.5344)
(-50.8234 28.6931 14.7314)
(-73.8145 61.1031 13.7524)
(-21.6188 49.361 21.0629)
(-14.3124 218.222 57.3684)
(-11.4895 78.7791 29.7418)
(20.6495 187.99 63.8136)
(-9.42521 93.1958 37.6849)
(48.0754 186.133 73.5096)
(8.2333 156.595 43.7269)
(74.1165 211.93 77.2777)
(53.4997 171.571 166.222)
(15.7009 182.169 18.1583)
(93.0724 273.8 197.377)
(76.445 292.196 117.245)
(-131.89 262.93 11.2758)
(-66.6382 74.4162 3.53261)
(-41.3968 160.535 6.03071)
(-76.1538 68.122 14.2614)
(-128.189 258.557 21.2491)
(-67.0052 78.6827 8.9135)
(-37.4428 159.031 14.9123)
(-98.978 226.12 35.2951)
(-67.485 85.1925 15.5155)
(-26.4907 143.777 23.4839)
(-51.0014 69.176 17.9898)
(-32.8106 167.831 38.1021)
(-69.6329 78.9064 19.6794)
(-12.0429 140.317 32.2169)
(-1.57392 154.383 43.9439)
(-72.8644 97.4107 28.412)
(10.6677 167.298 51.1557)
(-58.1414 107.939 29.9618)
(22.5505 158.685 60.8258)
(-77.5374 121.893 43.7677)
(23.9518 180.093 71.4885)
(43.7663 182.239 84.4707)
(-76.268 135.977 58.3848)
(32.7765 163.707 80.0171)
(-40.8705 169.016 31.3019)
(63.8695 196.524 90.255)
(-52.9573 119.187 50.588)
(11.0498 31.9299 17.549)
(147.579 233.165 125.611)
(14.5062 186.335 31.861)
(110.437 232.532 83.9375)
(104.914 273.231 146.486)
(82.7518 248.02 89.7756)
(-129.633 93.0216 8.27632)
(-76.8494 6.67661 2.81124)
(-149.469 111.156 3.17357)
(-72.3755 52.5825 6.84025)
(-76.7462 4.62897 9.1791)
(-147.972 108.25 6.50699)
(-128.744 94.7682 2.7689)
(-132.149 94.6678 16.5656)
(-71.4853 51.8417 15.2725)
(-75.9518 8.40243 27.7814)
(-140.864 103.408 19.0136)
(-77.6328 5.58872 19.3456)
(-146.804 107.295 14.5869)
(-133.947 94.5188 23.0579)
(-41.8398 0.418202 3.16276)
(-21.2476 9.21066 2.05944)
(-48.7825 17.0077 3.42485)
(-50.5356 25.6976 4.79671)
(-22.9205 10.1025 3.40755)
(-50.0535 18.1016 4.28811)
(-40.1199 -0.466704 1.98154)
(-43.5574 0.793545 5.53626)
(-50.5313 26.2464 8.73656)
(-26.0128 12.1115 8.16012)
(-49.936 18.2769 10.0397)
(-24.0638 10.813 5.96353)
(-49.9322 18.1605 7.48906)
(-46.5099 1.51372 7.54502)
(-125.997 90.2947 33.6838)
(-71.0904 9.43544 35.2757)
(-130.603 96.9081 25.1815)
(-47.4598 41.8536 24.368)
(-132.786 93.9553 29.8628)
(-61.5064 7.35367 37.8321)
(-113.762 90.6374 27.1982)
(-110.37 82.4843 34.5622)
(-36.6928 40.4291 22.8318)
(-39.8682 3.13529 32.0274)
(-68.8868 81.6772 25.0701)
(-50.4107 4.47582 35.7878)
(-90.4623 84.4979 26.6782)
(-91.3407 73.3302 32.2593)
(-55.3149 4.97038 12.9125)
(-28.626 13.7669 10.8062)
(-50.3159 18.6375 13.1558)
(-52.1767 32.2021 16.7064)
(-50.1776 2.70552 10.2752)
(-32.4235 16.377 13.247)
(-52.0564 20.8794 15.4388)
(-57.2009 64.4946 33.3184)
(-30.4209 3.64921 30.48)
(-51.7411 82.2876 24.7134)
(-16.6658 57.5124 21.312)
(-73.2484 66.9126 31.9484)
(-21.9109 5.27171 30.6932)
(-37.7799 84.7536 25.875)
(-43.4879 64.5265 37.3851)
(-13.368 67.0775 24.1598)
(-7.71629 11.4495 38.4598)
(-15.2625 96.0319 35.7933)
(-14.2857 7.58646 33.2747)
(-25.7347 89.024 29.687)
(-31.9415 66.4855 43.4518)
(-13.2845 82.4974 55.3109)
(-1.56714 18.3364 44.8487)
(-6.78003 107.05 43.7709)
(-5.34823 111.532 45.1487)
(-22.2993 71.8448 50.3231)
(5.59543 30.8063 48.4889)
(-0.392278 123.712 51.7841)
(-3.16207 101.535 56.8012)
(0.355961 133.183 49.7922)
(24.8219 92.8486 37.7503)
(11.5162 173.775 58.6989)
(14.2628 54.1518 48.2558)
(4.83155 147.101 57.3919)
(8.60466 134.469 54.8945)
(51.4788 162.851 68.2143)
(83.3989 176.676 213.017)
(7.23126 122.375 101.328)
(75.609 219.023 113.428)
(34.7598 106.78 132.182)
(89.0462 212.659 133.193)
(43.9106 181.455 56.857)
(39.1298 179.289 23.689)
(7.94554 133.292 50.9593)
(24.111 178.537 12.8451)
(41.0228 217.185 12.9971)
(19.8262 108.403 54.85)
(39.5676 197.736 26.4228)
(42.3064 218.426 6.80173)
(-141.294 121.098 4.13076)
(-73.1799 62.0449 4.18106)
(-85.6747 71.934 5.1259)
(-139.052 119.483 5.70554)
(-73.3753 62.7834 4.87258)
(-98.9062 117.484 5.63585)
(-100.326 117.969 4.90821)
(-110.012 105.575 19.9436)
(-67.089 56.475 14.9268)
(-60.3024 63.2932 16.9817)
(-91.6075 100.426 18.9619)
(-65.5015 57.7691 16.7293)
(-64.3916 98.2225 18.0081)
(-74.0842 102.181 17.2221)
(-51.2548 103.257 19.9845)
(-68.4158 77.6421 24.3673)
(-50.813 85.3114 18.9807)
(-42.0409 110.6 22.7557)
(-71.5757 88.0794 28.5717)
(-47.0597 122.145 31.7622)
(-49.4244 112.434 26.569)
(-24.0037 144.469 49.8196)
(-79.8287 131.473 53.3744)
(-63.5194 140.108 49.715)
(-20.0812 162.966 63.0427)
(-77.162 140.589 57.7571)
(-30.6969 173.763 72.8331)
(-37.1757 164.499 64.6363)
(59.2231 218.242 97.6135)
(9.87864 139.483 51.346)
(74.1545 241.218 108.774)
(29.3473 183.477 64.6896)
(48.9523 214.261 64.3316)
(66.8176 243.454 79.2975)
(92.5257 257.175 121.406)
(79.9387 182.029 62.3278)
(-2.16879 97.9158 12.8545)
(1.56345 3.52444 1.3896)
(65.2817 209.757 68.0622)
(63.8668 132.428 47.3655)
(13.1957 41.0052 14.4291)
(2.2535 4.87554 1.72728)
(80.4201 243.104 219.412)
(68.9601 255.474 172.578)
(35.772 214.173 183.294)
(21.2507 103.368 74.5204)
(-82.9224 70.6829 10.914)
(-124.92 112.183 15.9661)
(-69.3958 58.8745 12.0195)
(-135.221 117.133 12.8275)
(-72.1724 61.3741 9.09062)
(-94.4712 114.881 11.31)
(-84.6322 109.306 14.1702)
(-54.0996 64.792 17.9815)
(-62.3373 98.2473 19.078)
(-66.3974 68.7702 21.4266)
(-75.372 97.2735 18.9105)
(-65.4954 61.7977 19.1702)
(-56.9737 99.1263 20.4339)
(-52.2993 104.674 22.9262)
(-53.7005 95.6203 22.5925)
(-28.6599 129.696 37.2037)
(-77.9465 116.835 43.6333)
(-34.5974 119.048 28.1849)
(-75.014 101.414 34.8515)
(-44.7308 134.569 39.8087)
(-41.7438 149.601 51.2785)
(-57.4331 155.626 49.4333)
(-2.74572 188.503 60.8492)
(-46.8524 148.565 32.3294)
(-13.889 178.929 68.6528)
(-68.2112 142.407 53.3352)
(-21.1028 174.376 72.4891)
(-8.14801 172.268 60.8474)
(12.0431 153.207 36.306)
(28.5213 200.001 51.5245)
(43.6742 220.519 31.1517)
(27.6175 185.251 51.4785)
(47.0342 218.231 41.6285)
(61.8347 234.984 58.2356)
(56.211 223.288 49.69)
(-7.8092 143.495 4.3713)
(-36.4555 94.2114 1.39543)
(6.41205 131.922 2.1824)
(-60.4809 119.098 11.1574)
(-5.68733 148.778 14.9339)
(-34.1808 90.2178 8.45497)
(7.11394 128.186 12.5723)
(-0.837397 154.069 26.3968)
(-28.0355 76.6707 12.9336)
(7.63591 113.923 19.7946)
(-58.2847 119.804 28.4934)
(11.0875 163.153 39.5442)
(-17.9124 49.767 12.1897)
(6.94311 83.0559 20.5692)
(16.6214 154.08 49.57)
(-6.62715 18.3139 6.12162)
(4.03295 33.8008 11.4711)
(-30.7042 78.1819 29.9568)
(16.4216 117.191 47.5903)
(-0.436473 1.42312 0.612379)
(0.38824 2.03028 0.898224)
(6.92976 32.5471 16.6174)
(-0.145036 0.480178 0.208901)
(0.0393215 0.15897 0.0764085)
(-5.46206 15.9501 7.65489)
(1.6103 4.89437 2.56403)
(-0.00161527 0.0194988 0.00655092)
(0.0270338 0.0834774 0.0405807)
(-0.0752726 0.246952 0.0031489)
(-0.0279624 0.0966808 0.0127564)
(-0.000728808 0.00768815 0.00304947)
(-1.68184e-05 0.000656684 0.000243017)
(29.0276 186.706 195.668)
(30.7231 138.908 112.786)
(145.091 170.964 129.28)
(200.896 114.931 181.789)
(43.8388 201.423 152.33)
(64.4654 128.769 77.3952)
(129.438 114.316 200.088)
(100.309 193.136 186.921)
(73.6637 183.087 94.2484)
(35.6296 144.343 94.2822)
(47.1002 191.201 114.392)
(27.5763 129.306 111.281)
(15.2294 119.759 116.528)
(103.172 77.409 191.329)
(215.707 24.781 314.506)
(-11.686 305.586 17.6624)
(25.7903 228.319 52.1614)
(69.4427 158.187 59.613)
(78.4415 183.941 94.2506)
(0.0648584 0.0906069 0.0449436)
(46.6611 210.137 155.041)
(128.161 201.315 108.222)
(111.639 218.606 85.7242)
(118.548 245.665 6.50114)
(-13.105 172.528 5.63598)
(89.5862 156.609 11.1969)
(-8.10072 298.578 29.894)
(120.469 240.007 31.7768)
(-8.81004 170.945 17.0276)
(93.5302 157.578 26.4972)
(114.585 200.052 49.7005)
(1.9514 153.874 26.4826)
(97.5157 159.661 34.0253)
(39.1695 201.253 53.392)
(111.159 156.005 53.9286)
(17.4842 147.262 36.2027)
(109.402 166.512 49.9729)
(120.338 140.132 62.2451)
(40.0019 171.915 55.3885)
(114.305 162.177 65.4003)
(57.1061 161.915 69.6897)
(154.382 157.447 99.4661)
(53.398 178.94 76.0556)
(66.4632 86.8429 49.5627)
(140.291 141.397 101.671)
(55.6217 155.707 80.1581)
(27.1038 33.7476 21.3698)
(95.6742 187.997 96.2658)
(57.4482 56.8514 39.2424)
(7.95833 15.7391 8.96364)
(1.36863 1.808 1.12677)
(20.682 84.2007 57.6935)
(90.6329 218.072 167.834)
(82.14 211.461 102.123)
(64.3134 202.238 116.251)
(76.515 195.51 91.2367)
(56.5603 208.773 123.76)
(56.4693 167.575 86.2345)
(69.1691 126.303 14.3982)
(17.8596 30.043 6.81304)
(0.96947 1.65295 0.615275)
(0.00836361 0.0149886 0.0056304)
(0.000135323 0.000542868 0.000198369)
(-0.000205119 0.00276943 0.000394183)
(9.05953e-06 0.000265071 1.87054e-05)
(-2.03492e-05 0.00084557 0.000225788)
(4.5478e-06 0.000118967 3.18681e-05)
(3.15756e-07 0.000400701 0.000133293)
(1.09156e-06 5.12235e-05 1.46184e-05)
(4.00902e-06 0.000138769 5.04453e-05)
(2.03444e-07 8.05942e-06 2.83855e-06)
(6.3727e-06 4.59038e-05 1.23145e-05)
(2.68181e-07 2.32638e-06 6.07893e-07)
(0.00954689 0.0221143 0.00804217)
(3.32009e-05 0.000128906 4.87903e-05)
(1.73058e-06 8.28478e-06 2.75805e-06)
(7.92197e-08 4.54973e-07 1.39083e-07)
(138.374 157.234 21.2059)
(133.583 151.988 36.586)
(114.275 141.699 59.1969)
(6.65913 8.00851 5.00307)
(46.0448 192.145 125.409)
(0.167088 0.61071 0.313858)
(0.000139676 0.000554765 0.000265696)
(5.67645e-06 2.6443e-05 1.09215e-05)
(2.66431e-07 1.42057e-06 5.36733e-07)
(1.20502e-08 7.32645e-08 2.72656e-08)
(48.1874 -102.639 175.241)
(42.2718 -128.985 220.372)
(33.7765 -119.305 221.915)
(36.7839 -117.341 174.97)
(29.9033 -108.834 178.463)
(52.8929 -34.2747 209.59)
(75.7976 -0.76428 164.478)
(49.6976 -22.6501 168.665)
(80.1343 -13.221 207.492)
(0.00091082 0.00186733 0.000633759)
(0.00311771 0.00658494 0.000218298)
(4.73759e-05 0.000120284 8.58637e-06)
(0.00016123 0.000402848 6.80611e-05)
(2.28796e-05 5.466e-05 1.53762e-05)
(8.08543e-05 0.000202274 5.59979e-05)
(8.29358e-06 2.29703e-05 6.43079e-06)
(2.18231e-05 5.71648e-05 2.12769e-05)
(1.36579e-06 3.78506e-06 1.27615e-06)
(4.93007e-06 1.56325e-05 4.94158e-06)
(2.62444e-07 9.31338e-07 2.77709e-07)
(7.55111 13.5043 0.183302)
(0.00560977 0.0122598 0.00178531)
(0.00217293 0.00439891 0.00150726)
(0.000185922 0.000400667 0.000131752)
(8.11674e-05 0.000228333 8.12282e-05)
(-50.2223 22.2778 248.804)
(-240.044 110.009 173.772)
(-121.11 148.111 193.106)
(-107.875 128.614 155.93)
(-120.96 128.363 120.72)
(-115.966 150.964 160.012)
(-187.558 61.8123 183.545)
(-125.126 141.059 100.302)
(-139.909 184.132 169.115)
(-142.683 186.214 163.597)
(-2.64024 3.34546 4.41232)
(-210.435 329.075 5.31015)
(-217.455 326.387 16.462)
(-216.877 338.289 34.4319)
(-222.174 331.496 55.8191)
(-221.156 333.351 83.943)
(-235.56 303.928 112.329)
(-250.49 272.744 162.698)
(-248.214 213.284 164.707)
(-245.111 152.254 168.107)
(-246.838 168.288 185.862)
(-157.449 -160.806 138.238)
(-193.805 38.665 141.245)
(-121.941 -172.218 158.065)
(-163.736 -168.822 122.282)
(-198.931 -148.923 107.045)
(-126.714 -180.605 268.426)
(-142.983 -159.837 217.959)
(-176.882 -164.51 192.284)
(-152.489 -181.437 237.854)
(57.1986 5.3396 63.6699)
(60.7606 -13.6339 72.2887)
(87.3523 48.7208 83.5806)
(85.2258 -0.623144 78.431)
(64.6423 -19.8382 88.2278)
(80.7239 -6.9847 75.9058)
(52.3371 12.479 75.6278)
(53.8434 34.0295 74.7105)
(102.917 32.1059 83.9399)
(87.9528 26.1569 86.3651)
(54.2138 25.8488 75.9033)
(53.7279 15.7519 77.5677)
(102.504 15.9049 83.0202)
(52.8891 -5.13587 73.3821)
(110.498 1.49844 80.8175)
(56.422 3.59977 75.144)
(107.01 -7.76562 77.2453)
(48.9644 3.93636 72.3787)
(87.6986 9.48147 83.3283)
(46.3994 -3.67055 73.9308)
(92.5714 -2.30185 70.6435)
(50.6872 3.1156 76.3038)
(98.6556 4.59501 77.0613)
(44.0994 -0.172941 68.4064)
(47.1362 -10.7661 68.8581)
(94.4579 -16.8371 61.8009)
(101.446 -13.389 69.5843)
(40.2514 -13.9348 63.9105)
(31.2879 -4.8496 65.2928)
(41.3985 -7.38751 73.1147)
(85.8445 -6.50264 66.4087)
(76.5986 -14.1293 76.5844)
(37.9229 -2.27598 65.7491)
(35.9624 -12.2549 74.9822)
(79.6496 -10.6581 65.3793)
(25.6235 -17.1748 56.4965)
(86.9407 -18.8367 55.6662)
(32.8982 -15.54 59.2806)
(80.1968 -20.4983 52.815)
(107.41 130.702 10.3184)
(105.986 79.1862 83.442)
(108.741 13.1912 71.8444)
(112.439 -36.9642 118.72)
(96.9806 38.3015 328.298)
(242.603 186.209 8.9059)
(104.533 102.998 72.2325)
(230.094 180.771 48.027)
(224.565 164.751 58.2365)
(110.184 23.0438 74.804)
(198.399 134.81 71.4246)
(192.645 129.499 75.8666)
(109.769 -23.0072 92.8884)
(192.512 102.059 118.808)
(109.365 -36.7028 248.133)
(161.69 123.962 30.8011)
(144.854 149.569 9.50448)
(130.464 105.629 10.9343)
(101.412 129.984 30.1905)
(138.579 151.153 27.3829)
(126.156 104.213 32.8903)
(166.114 123.385 10.0708)
(169.556 68.5512 78.3361)
(132.057 109.598 77.2209)
(137.512 56.5282 82.4965)
(108.116 54.9808 85.8099)
(168.661 85.3445 80.5307)
(128.705 89.4409 80.7894)
(140.272 37.5466 80.089)
(168.56 19.3316 58.8135)
(123.617 50.6128 73.364)
(132.692 4.8697 59.602)
(107.741 3.28341 72.0223)
(169.156 30.0648 58.1778)
(126.168 38.8128 77.1324)
(128.436 -1.77376 58.3616)
(173.596 -20.9352 146.173)
(144.122 -8.75794 127.822)
(124.892 -26.1944 103.298)
(113.192 -46.8917 154.917)
(173.996 -14.2588 107.458)
(147.504 -21.3465 162.077)
(123.282 -30.8368 143.555)
(98.9643 194.65 342.603)
(65.0325 202.728 298.963)
(202.907 147.626 29.2402)
(190.589 169.409 9.11038)
(267.916 159.904 9.60559)
(235.583 190.951 20.3765)
(183.962 173.844 23.5908)
(262.408 165.617 27.2724)
(208.142 143.835 9.74096)
(176.384 45.2241 33.3864)
(151.688 37.2348 11.6678)
(147.347 36.0632 35.2438)
(180.494 45.5865 10.7375)
(210.904 72.1284 32.8904)
(308.692 88.1367 9.89655)
(304.617 90.3738 31.7742)
(215.47 70.9289 10.1998)
(163.856 117.939 53.8425)
(102.68 121.546 52.7399)
(135.712 129.885 66.0101)
(133.36 77.919 74.6289)
(137.836 145.331 48.2087)
(128.87 95.6329 56.6202)
(166.822 103.595 71.7621)
(203.508 144.8 51.6587)
(233.28 190.262 35.9878)
(177.807 158.034 55.6579)
(261.365 158.511 64.7472)
(181.403 171.274 41.0169)
(261.79 165.936 47.8986)
(203.801 134.823 69.9872)
(178.348 41.0392 57.6258)
(152.229 22.7534 74.5545)
(149.26 31.399 59.2888)
(181.759 32.7634 73.588)
(210.804 68.7347 59.1434)
(301.361 81.7536 76.6937)
(303.495 88.9321 57.4357)
(211.295 60.3512 78.1894)
(199.079 109.284 78.6462)
(172.722 138.846 67.1753)
(258.374 148.166 75.1736)
(216.893 149.054 65.9715)
(201.889 122.333 79.4635)
(166.247 121.63 74.0349)
(252.645 139.508 76.9274)
(190.752 9.8249 70.0275)
(155.571 10.3576 78.4156)
(185.844 21.8613 77.1436)
(156.743 -1.76716 72.4248)
(211.709 39.567 81.8568)
(296.035 74.8314 85.191)
(210.885 50.1265 86.0119)
(290.877 67.8406 83.4507)
(169.99 53.8274 70.0228)
(110.217 35.9942 81.8453)
(123.599 61.5488 73.5499)
(137.26 12.2433 63.5422)
(125.764 73.581 77.3539)
(140.228 22.6386 72.1089)
(169.959 41.2391 60.8718)
(196.405 96.5643 73.1182)
(207.253 139.527 69.6545)
(153.043 102.493 73.9795)
(238.526 127.833 68.4067)
(159.324 110.22 74.4426)
(245.304 133.818 72.6397)
(193.818 85.2564 65.4123)
(193.188 -0.802583 58.4059)
(147.032 -14.7982 53.8919)
(153.535 -9.93169 62.7234)
(192.141 -7.69879 47.0725)
(213.4 28.526 71.1684)
(284.647 56.6792 66.3346)
(287.173 62.0325 76.0523)
(217.116 19.0433 58.9933)
(193.072 63.0498 67.0526)
(149.005 94.3928 76.614)
(234.724 119.648 67.6076)
(190.112 122.524 84.7441)
(192.564 74.0837 64.7267)
(148.365 84.3515 83.7488)
(234.363 109.999 72.166)
(185.872 -14.1435 41.5169)
(140.135 -17.4375 48.2875)
(189.22 -11.1946 42.385)
(134.463 -19.6477 45.6292)
(223.667 2.71847 56.3542)
(283.069 50.2705 62.1019)
(220.516 10.361 55.2369)
(283.801 43.9952 64.8434)
(169.358 7.7933 65.3636)
(107.931 -8.66277 78.3623)
(137.413 7.43879 102.167)
(125.023 -18.225 76.6792)
(130.773 24.4125 86.2003)
(125.665 -9.43446 63.262)
(172.012 -4.20207 80.3734)
(195.697 50.8308 75.2004)
(190.389 112.951 98.754)
(156.553 55.652 112.742)
(241.754 84.3609 98.8084)
(150.839 71.2162 95.3307)
(236.925 98.1978 82.1027)
(201.071 37.0572 90.8469)
(184.337 -16.6588 46.83)
(129.241 -23.8624 59.9213)
(130.527 -21.9935 48.7766)
(184.788 -19.008 61.7785)
(227.711 -4.00427 63.1964)
(290.572 28.9051 86.5852)
(286.301 36.9619 72.3081)
(233.294 -10.8267 78.2146)
(183.475 -20.5928 133.893)
(128.139 -24.2396 86.0479)
(184.265 -20.3154 90.4869)
(126.879 -22.7162 129.044)
(170.237 -15.8796 195.014)
(113.847 -44.1354 198.238)
(143.216 -15.2618 249.092)
(116.536 -18.8343 263.167)
(149.672 -21.6029 202.59)
(122.017 -23.9369 193.039)
(161.116 -12.5411 265.111)
(176.284 -17.0253 195.739)
(116.054 -5.51019 297.99)
(123.337 -16.857 192.086)
(163.632 -5.21406 299.542)
(92.7573 232.916 272.136)
(111.443 103.415 351.663)
(94.4859 216.511 332.204)
(130.554 207.538 327.692)
(155.563 101.971 351.093)
(127.936 226.622 258.435)
(138.508 192.502 333.919)
(31.1913 -5.01813 6.69644)
(33.4014 -23.4815 11.133)
(37.9118 -56.0501 25.2685)
(39.282 -85.1328 44.3783)
(42.2236 -90.6468 70.2243)
(85.5018 119.227 9.19854)
(61.1149 79.5879 27.6283)
(61.6482 25.7611 58.7848)
(55.1898 6.18007 71.6035)
(58.5458 -0.990232 89.631)
(99.6771 22.747 119.281)
(106.482 6.43113 146.623)
(75.7237 -57.5734 265.839)
(33.4736 -32.4925 0.321806)
(40.403 -77.3523 26.3518)
(222.478 167.01 7.43401)
(34.39 -47.7923 7.3726)
(214.29 158.902 15.8198)
(210.598 143.829 24.299)
(179.803 118.946 58.8317)
(173.947 118.132 74.267)
(171.448 103.665 130.847)
(37.7151 43.4235 -2.6914)
(52.7558 60.2585 1.33726)
(51.721 60.7822 -4.78177)
(38.8928 43.0188 2.36485)
(35.6594 41.5248 -3.48455)
(51.5128 54.2397 -11.4717)
(50.0382 59.3279 -7.96272)
(36.2317 34.5844 -4.98349)
(44.0261 8.00141 10.0398)
(56.1925 45.4649 -6.36961)
(40.5272 22.8109 1.20808)
(60.9241 33.0009 3.10338)
(43.3477 -1.06836 26.1979)
(62.0522 25.2595 20.8196)
(67.6354 14.608 107.534)
(108.002 122.252 -0.391938)
(166.655 145.795 1.96737)
(162.298 157.692 7.80137)
(218.996 170.509 7.41325)
(165.702 147.265 -4.05354)
(156.835 161.117 11.4987)
(109.709 121.349 3.9647)
(105.975 119.483 -1.45254)
(216.544 168.806 12.1852)
(163.17 137.086 -12.8325)
(153.096 143.747 26.319)
(163.852 144.861 -8.25419)
(154.692 157.475 19.6001)
(106.436 108.83 -1.84709)
(108.241 74.6959 16.7733)
(164.983 123.471 -7.66242)
(150.015 125.144 37.255)
(202.778 129.992 35.3547)
(109.376 91.5274 5.55826)
(164.191 108.709 3.37097)
(142.911 108.933 47.915)
(101.408 65.6072 33.1718)
(190.887 121.986 46.387)
(152.247 97.5897 42.5002)
(123.014 98.1764 65.5458)
(158.344 100.399 21.4601)
(132.189 100.543 56.4929)
(94.3752 62.5222 51.6792)
(90.9238 59.5628 91.6454)
(149.258 97.1631 64.5318)
(118.816 96.5891 76.8847)
(171.499 115.622 90.9814)
(91.3678 61.9493 71.3053)
(148.105 95.6276 86.9367)
(117.773 91.7277 89.7448)
(91.2652 54.7992 113.801)
(171.19 110.932 109.375)
(148.514 87.3091 135.211)