# vtk DataFile Version 2.0
sampleSurface
ASCII
DATASET POLYDATA
POINTS 3436 float
0 0 0 -1.35525e-18 -0.1 0 -1.35525e-18 0.1 0 -3.83988e-18 0
0.125 0 0.1 0.125 0 -0.1 0.125 0 0.12782 0.125
-9.62965e-35 -0.12782 0.125 0 0.2 0 0 -0.2 0 0
0.2 0.125 2.1684e-18 -0.2 0.125 0 0 0.25 -3.16226e-19 -0.1
0.25 0 0.1 0.25 -9.62965e-35 0.106796 0.25 0 -0.106796 0.25
9.03502e-19 0.3 0 1.58113e-18 -0.3 0 0 0.2 0.25 0
-0.2 0.25 0 0.3 0.125 0 -0.3 0.125 -3.83988e-18 0
0.375 -9.62965e-35 0.1 0.375 0 -0.1 0.375 -1.02819e-18 0.3 0.25
-3.51282e-18 -0.3 0.25 -9.62965e-35 0.12782 0.375 -9.62965e-35 -0.12782 0.375 0
0.4 0 -3.85186e-34 -0.4 0 -2.29309e-18 0.4 0.125 -4.10009e-18 -0.4
0.125 0 0.2 0.375 0 -0.2 0.375 0 0.4 0.25
0 -0.4 0.25 0 0.3 0.375 0 -0.3 0.375 0
0 0.5 9.03502e-19 0.5 0 1.58113e-18 -0.5 0 0 -0.1
0.5 -1.35525e-18 0.1 0.5 0 0.5 0.125 0 -0.5 0.125
0 0.2 0.5 0 -0.2 0.5 -3.19659e-18 0.4 0.375 6.32451e-18
-0.4 0.375 -1.92593e-34 -0.541552 0.125 0 0.5 0.25 0 -0.5
0.25 0 0.3 0.5 0 -0.3 0.5 0 -0.530435 0.25
0 0.6 0 0 -0.6 0 0 0.6 0.125 -3.85186e-34
-0.6 0.125 -4.29163e-18 0 0.625 0 0.5 0.375 0 -0.5
0.375 0 -0.1 0.625 0 0.1 0.625 9.62965e-35 -0.132867 0.625
-1.92593e-34 0.132867 0.625 0 0.4 0.5 0 -0.4 0.5 7.70372e-34
-0.6 0.25 0 0.6 0.25 1.92593e-34 -0.537255 0.375 0 0.2
0.625 2.1684e-18 -0.2 0.625 -1.54074e-33 -0.3 0.625 0 0.3 0.625
0 0.7 0 3.38813e-18 -0.7 0 -2.40741e-34 -0.692086 0.125 0
0.5 0.5 9.03502e-19 -0.5 0.5 0 0.6 0.375 -3.85186e-34 -0.6
0.375 0 0.7 0.125 0 -0.7 0.125 -2.40741e-34 -0.7 0.134892
-4.10009e-18 0.4 0.625 6.43293e-19 -0.4 0.625 -2.89121e-18 -0.7 0.25 0
0.7 0.25 0 0 0.75 0 -0.1 0.75 -7.67977e-19 0.1
0.75 -9.62965e-35 -0.115044 0.75 -9.62965e-35 0.115044 0.75 0 -0.2 0.75
0 0.2 0.75 0 0.6 0.5 0 -0.6 0.5 0
-0.7 0.375 0 0.7 0.375 0 -0.8 0 0 0.8
0 0 0.5 0.625 0 -0.5 0.625 -1.93169e-18 0.3 0.75
1.9082e-18 -0.3 0.75 3.38813e-18 -0.8 0.125 0 0.8 0.125 0
-0.8 0.25 0 0.8 0.25 -3.85186e-34 -0.560494 0.625 -3.08149e-33 0.4
0.75 0 -0.4 0.75 -1.58113e-18 -0.7 0.5 0 0.7 0.5
-3.85186e-34 -0.6 0.625 0 0.6 0.625 -4.74338e-18 0 0.875 0
-0.1 0.875 0 0.1 0.875 -1.58113e-18 -0.8 0.375 0 0.8
0.375 -1.92593e-34 -0.137255 0.875 1.92593e-34 0.137255 0.875 0 0.2 0.875
0 -0.2 0.875 3.38813e-18 -0.9 0 0 0.9 0 -4.10009e-18
0.5 0.75 -3.15141e-18 -0.5 0.75 0 -0.9 0.125 0 0.9
0.125 0 0.3 0.875 -1.54074e-33 -0.3 0.875 2.1684e-18 -0.9 0.25
0 0.9 0.25 -3.85186e-34 -0.557895 0.75 0 0.7 0.625 0
-0.7 0.625 -3.85186e-34 -0.8 0.5 0 0.8 0.5 7.70372e-34 -0.6
0.75 0 0.6 0.75 -1.44445e-34 -0.884337 0.375 -4.10009e-18 0.4 0.875
6.43293e-19 -0.4 0.875 0 0.9 0.375 0 -0.9 0.375 -1.44445e-34
-0.9 0.394578 0 0 1 0 1 0 0 -1
0 -1.807e-18 0.1 1 -1.807e-18 -0.1 1 0 0.5 0.875
0 1 0.125 0 -0.5 0.875 2.1684e-18 -1 0.125 0
0.8 0.625 0 -0.8 0.625 0 0.2 1 0 -0.2
1 0 0.7 0.75 -4.69821e-18 -0.7 0.75 0 0.9 0.5
1.92593e-34 -0.9 0.5 0 1 0.25 0 -1 0.25 -3.85186e-34
-0.560494 0.875 0 0.3 1 9.03502e-19 -0.3 1 0 0.6
0.875 -3.85186e-34 -0.6 0.875 -3.85186e-34 -0.1 1.06289 0 1 0.375
2.1684e-18 -1 0.375 0 0.4 1 0 -0.4 1 0
-0.9 0.625 0 0.9 0.625 0 0.8 0.75 0 -0.8
0.75 0 1.1 0 4.06576e-18 -1.1 0 0 -3.80422e-19 1.10526
3.85186e-34 -1.1 0.125 0 1.1 0.125 4.81482e-35 0.1 1.10526 0
-0.921951 0.625 0 0.5 1 0 1 0.5 9.03502e-19 -0.5
1 0 -1 0.5 0 0.7 0.875 3.85186e-34 -0.7 0.875
6.77626e-19 -4.51751e-19 1.125 2.1684e-18 -1.1 0.25 0 1.1 0.25 0
0.1 1.125 0 -0.1 1.125 -9.62965e-35 -0.9 0.703488 0 0.2
1.125 2.89121e-18 -0.2 1.125 0 -1.1 0.375 0 1.1 0.375
0 -0.3 1.125 0 0.3 1.125 1.44445e-34 -0.890909 0.75 0
0.6 1 0 -0.6 1 0 0.9 0.75 0 -0.9
0.75 0 1 0.625 0 -1 0.625 -3.38813e-18 -0.8 0.875
0 0.8 0.875 6.32451e-18 -0.4 1.125 -4.10009e-18 0.4 1.125 0
-1.2 0 0 1.2 0 0 -0.9 0.796512 4.06576e-18 -1.2
0.125 0 1.2 0.125 0 1.1 0.5 3.61401e-18 -1.1 0.5
0 -0.7 1 0 0.7 1 0 -1.2 0.25 0
1.2 0.25 0 0.5 1.125 -1.92593e-34 -0.5 1.125 1.92593e-34 -0.7
1.03007 0 -0.537255 1.125 0 1 0.75 0 -1 0.75
0 -9.03502e-19 1.25 0 0.1 1.25 5.37584e-18 -0.1 1.25 0
0.9 0.875 0 -0.9 0.875 3.61401e-18 -1.2 0.375 0 1.2
0.375 0 -1.1 0.625 0 1.1 0.625 -7.70372e-34 -0.2 1.25
0 0.2 1.25 -9.62965e-35 -0.921951 0.875 0 0.6 1.125 -3.85186e-34
-0.6 1.125 -3.85186e-34 -0.8 1 0 0.8 1 -4.10009e-18 0.3
1.25 -2.79001e-18 -0.3 1.25 0 -0.636676 1.125 -3.85186e-34 -0.8 1.02465
-1.54074e-33 -1.2 0.5 0 -1.3 0 0 1.2 0.5 0
1.3 0 -2.40741e-35 -1.29677 0.125 -2.40741e-35 -1.3 0.120968 0 -1.3
0.125 0 1.3 0.125 0 -0.4 1.25 -3.08149e-33 0.4 1.25
-4.33681e-18 -1.3 0.25 0 1.3 0.25 0 -0.7 1.125 0
0.7 1.125 0 1 0.875 0 -1 0.875 2.1684e-18 -1.1
0.75 0 1.1 0.75 0 -1.29091 0.375 -1.58113e-18 -0.9 1
0 0.9 1 2.52981e-18 -0.5 1.25 -4.10009e-18 0.5 1.25 0
-1.3 0.375 3.61401e-18 -1.2 0.625 0 1.2 0.625 0 1.3
0.375 0 -1.3 0.386364 -3.85186e-34 -0.530435 1.25 0 -0.9 1.03182
2.71051e-18 -4.51751e-19 1.375 0 0.1 1.375 0 -0.1 1.375 1.77267e-18
-0.8 1.125 0 0.8 1.125 7.70372e-34 -0.6 1.25 0 0.6
1.25 0 0.2 1.375 2.89121e-18 -0.2 1.375 0 -1.3 0.5
0 1.3 0.5 0 1.4 0 0 -1.4 0 -7.70372e-34
-0.633333 1.25 -4.33681e-18 -1.4 0.125 0 -1.1 0.875 0 1.4
0.125 0 1.1 0.875 0 0.3 1.375 0 -0.3 1.375
0 1 1 0 -1 1 0 -1.2 0.75 0
1.2 0.75 1.54074e-33 -1.4 0.25 0 1.4 0.25 -4.10009e-18 0.4
1.375 6.32451e-18 -0.4 1.375 4.62593e-19 -0.7 1.25 0 0.7 1.25
4.81482e-35 -1.29091 0.625 4.81482e-35 -1.3 0.613636 0 -0.9 1.125 0
0.9 1.125 0 -1.3 0.625 0 1.3 0.625 0 -1.4
0.375 0 1.4 0.375 0 0.5 1.375 -1.92593e-34 -0.5 1.375
1.92593e-34 -0.537255 1.375 3.85186e-34 -0.956164 1.125 -6.16298e-33 -0.8 1.25 0
0.8 1.25 3.61401e-18 -1.2 0.875 0 1.2 0.875 0 1.1
1 0 1.4 0.5 3.61401e-18 -1.1 1 0 -1.4 0.5
0 1.5 0 0 0 1.5 0 -1.5 0 0
0.6 1.375 -3.85186e-34 -0.6 1.375 0 -1.3 0.75 0 1.3
0.75 2.25875e-19 0.1 1.5 2.25875e-19 -0.1 1.5 0 -1.5 0.117925
0 -1.5 0.125 0 1 1.125 0 1.5 0.125 0
-1 1.125 0 -1.50323 0.125 -3.85186e-34 -0.627586 1.375 0 0.2
1.5 0 -0.2 1.5 0 -1.5 0.25 0 1.5 0.25
2.40741e-35 -0.1 1.51786 0 0.3 1.5 9.03502e-19 -0.3 1.5 -4.33681e-18
-1.4 0.625 0 1.4 0.625 -2.60209e-19 -0.9 1.25 0 0.9
1.25 0 -0.7 1.375 0 0.7 1.375 1.92593e-34 -1.05714 1.125
0 1.5 0.375 0 -1.5 0.375 0 0.4 1.5 0
-0.4 1.5 -4.81482e-35 -1.29091 0.875 3.85186e-34 -1.54118 0.25 -1.54074e-33 -1.2
1 0 1.2 1 0 -1.3 0.875 0 1.3 0.875
0 1.1 1.125 0 -1.1 1.125 -4.81482e-35 -1.3 0.886364 7.70372e-34
-0.96 1.25 0 0.5 1.5 0 1.5 0.5 9.03502e-19 -0.5
1.5 0 -1.5 0.5 -1.92593e-34 -1.54118 0.375 1.54074e-33 -1.4 0.75
0 1.4 0.75 -3.08149e-33 -0.8 1.375 0 0.8 1.375 0
-1.6 0 0 -1 1.25 0 1 1.25 0 -1.6
0.125 0 0.6 1.5 0 -0.6 1.5 0 -1.6 0.25
0 -1.5 0.625 0 1.5 0.625 9.03502e-19 0 1.625 9.62965e-35
-0.04 1.625 0 0.1 1.625 0 -0.1 1.625 1.4456e-18 0.2
1.625 0 -0.2 1.625 0 -1.3 1 0 1.3 1
0 -0.9 1.375 0 -1.6 0.375 0 0.9 1.375 -3.85186e-34
-0.247059 1.625 0 1.2 1.125 -2.06721e-18 -1.2 1.125 0 -1.4
0.875 0 1.4 0.875 -3.85186e-34 -1.08 1.25 0 0.3 1.625
0 -0.3 1.625 3.61401e-18 -0.7 1.5 0 0.7 1.5 0
1.1 1.25 1.807e-18 -1.1 1.25 4.74338e-18 0.4 1.625 6.43293e-19 -0.4
1.625 0 -1.6 0.5 -4.33681e-18 -1.5 0.75 0 1.5 0.75
-3.85186e-34 -0.966667 1.375 9.62965e-35 -1.67692 0.25 0 -0.8 1.5 2.25875e-18
-1.7 0 0 0.8 1.5 0 1 1.375 0 -1
1.375 -7.70372e-34 -0.5 1.625 0 0.5 1.625 0 -1.7 0.125
-4.81482e-35 -1.7 0.168919 0 -1.6 0.625 0 -1.7 0.25 -4.81482e-35
-1.67692 0.375 0 -1.3 1.125 0 1.3 1.125 0 1.4
1 0 -1.4 1 1.92593e-34 -1.71688 0.125 0 0.6 1.625
7.22801e-19 -0.6 1.625 0 1.2 1.25 0 -1.2 1.25 -1.92593e-34
-1.05714 1.375 0 -1.5 0.875 0 1.5 0.875 0 -1.7
0.375 3.61401e-18 -0.9 1.5 0 0.9 1.5 0 0 1.75
1.92593e-34 -0.0315789 1.75 -2.93638e-18 -0.1 1.75 0 0.1 1.75 0
1.1 1.375 0 -1.1 1.375 0 0.2 1.75 0 -0.2
1.75 0 -1.6 0.75 -7.70372e-34 -0.25 1.75 0 0.7 1.625
-1.54074e-33 -0.7 1.625 0 -1.7 0.5 6.18899e-18 0.3 1.75 -3.87422e-18
-0.3 1.75 0 -0.4 1.75 0 0.4 1.75 0 1.4
1.125 7.22801e-19 -1.4 1.125 0 -1.8 0 0 1.5 1
0 1 1.5 0 -1 1.5 0 -1.5 1 0
1.3 1.25 6.14381e-18 -1.3 1.25 0 -1.8 0.125 5.1608e-18 -0.8
1.625 0 -1.7 0.625 3.76392e-18 0.8 1.625 7.70372e-34 -1.8 0.25
4.62593e-19 -0.5 1.75 4.74338e-18 0.5 1.75 0 -1.6 0.875 0
1.2 1.375 -2.06721e-18 -1.2 1.375 3.85186e-34 -1.8 0.375 0 -0.6
1.75 0 0.6 1.75 -7.70372e-34 -0.9 1.625 0 0.9 1.625
2.1684e-18 -1.7 0.75 0 1.1 1.5 3.61401e-18 -1.1 1.5 0
-1.8 0.5 0 -1.86598 0.125 0 1.5 1.125 9.03502e-19 0
1.875 0 -1.5 1.125 -1.92593e-34 -0.04 1.875 0 1.4 1.25
0 -1.4 1.25 0 -0.1 1.875 0 0.1 1.875 2.2696e-18
-0.7 1.75 3.76392e-18 0.7 1.75 1.4456e-18 0.2 1.875 0 -0.2
1.875 0 -1.6 1 3.85186e-34 -0.25 1.875 0 1.3 1.375
0 -1.3 1.375 -3.85186e-34 -0.969811 1.625 -1.92593e-34 -1.85714 0.375 0
0.3 1.875 0 -0.3 1.875 2.25875e-18 -1.9 0 0 -1.9
0.125 2.88889e-34 -1.88889 0.25 2.1684e-18 -1.8 0.625 0 1 1.625
0 -1 1.625 0 -1.7 0.875 7.22801e-19 -1.9 0.25 4.74338e-18
0.4 1.875 -2.60209e-19 -0.4 1.875 -1.54074e-33 -1.2 1.5 0 1.2
1.5 3.08149e-33 -0.8 1.75 0 0.8 1.75 0 -1.9 0.375
-7.70372e-34 -0.5 1.875 0 0.5 1.875 1.92593e-34 -1.06957 1.625 0
-1.8 0.75 0 1.5 1.25 2.52981e-18 -1.5 1.25 1.807e-18 -1.6
1.125 0 -1.1 1.625 0 1.4 1.375 7.22801e-19 -1.4 1.375
0 1.1 1.625 3.61401e-18 -1.9 0.5 -1.34441e-18 -0.9 1.75 3.76392e-18
0.9 1.75 0 0.6 1.875 7.22801e-19 -0.6 1.875 0 -1.7
1 0 -0.1 1.98214 3.61401e-18 -1.3 1.5 0 1.3 1.5
7.70372e-34 -0.962791 1.75 0 -2 0 0 2 0 0
0 2 -2.40741e-35 -1.9 0.625 0 -0.7 1.875 0 -1.8
0.875 0 0.7 1.875 4.81482e-35 -1.9 0.631579 0 -0.1 2
2.25875e-19 0.1 2 0 -1.85714 0.75 5.87276e-18 -2 0.125 0
2 0.125 -8.1852e-34 1.76293e-19 2.0061 3.37038e-34 -0.1 2.00405 -1.44445e-34 0.1
2.00465 1.68519e-34 -1.90909 0.625 0 0.2 2 0 -0.2 2
7.70372e-34 -1 1.75 0 2 0.25 0 1 1.75 0
-2 0.25 9.62965e-35 -1.1 1.69231 0 1.2 1.625 0 -1.2
1.625 0 0.3 2 0 -0.3 2 0 -1.6 1.25
0 -1.5 1.375 0 2 0.375 0 1.5 1.375 -3.87422e-18
-2 0.375 0 -0.8 1.875 3.76392e-18 0.8 1.875 0 -1.7
1.125 0 0.4 2 0 -0.4 2 -3.85186e-34 -1.9 0.75
0 1.4 1.5 0 -1.4 1.5 0 -1.8 1 0
0.5 2 0 2 0.5 0 -0.5 2 0 -2
0.5 0 1.1 1.75 0 -1.1 1.75 0 -1.12308 1.75
0 0.9 1.875 -7.70372e-34 -0.9 1.875 0 -1.3 1.625 0
1.3 1.625 0 0.6 2 0 -0.6 2 1.92593e-34 -2
0.6 1.20371e-34 -1.9 0.868421 0 -1.9 0.875 0 2 0.625
0 -2 0.625 2.25875e-18 -2.1 0 0 2.1 0 1.20371e-34
-1.90909 0.875 0 2.1 0.125 0 -2.1 0.125 -9.62965e-35 -2.09091
[...]
POINT_DATA 3436
FIELD attributes 1
p 1 3436 float
95875.2 107837 82208.1 92602.8 81318.6 102278 78127.6 104351 68930.3 117220 69848.2
109728 86783.1 91833.3 80209.4 79679.5 92102.9 58520 125286 72411.6 95800.4
59931.3 116277 82596.7 79760.2 83971.9 63821.4 100011 78482.1 84341.5 51708.3
133423 52763.4 123211 75166 85300.3 55955.5 104991 68385.1 87114.3 81082.9
47753.5 141349 81361.8 80027.1 48382.7 130019 77495.5 81956.2 60307.1 88740.7
132039 50466.6 109143 72552.7 81932 108810 45879 147863 46299.1 134879
82927.7 53700.7 87732.7 84324.2 81983 84977.5 81425.4 65144.9 79875.4 108049
47715.8 84106.7 80286.5 86311.9 86758.8 76659.5 46097.4 141472 126101 57983.1
72984.5 50016.1 77999.8 46512.9 125347 122582 70396.2 83791.8 90419.1 47677.3
87853.3 90972.4 85987.2 91583.2 85718.1 95032.5 84198.6 53371.5 57391.8 57125.4
49387.9 101482 49526.4 63245.4 73554.1 81122.3 97652.6 86991.3 50065.4 59117.3
51154.8 62328.2 75776 95954.2 40089.5 51902.1 54997.1 57828.4 95977 100713
92519.8 39048.8 52470.1 102891 91551 89919.2 106559 56313.8 58410.2 68970.8
84250.5 49876.1 59075.2 86704.1 112077 39969.4 60023.3 71662.5 55357.6 39081.8
32055.5 54393.1 62507.6 62963.9 34922.3 81719.5 113070 60826.6 34155.9 33783.5
106370 69450.9 41847.7 101367 112268 75243.7 70106.6 101401 40248.4 56980.9
33225.2 97672.6 119058 59509.7 44442.8 62148.9 31778.5 70710.2 38206 86216.5
93950.4 127006 68842.8 76300.2 118148 70814.5 36065.2 88998.4 131566 33109.5
64008.2 60054.7 37667.4 75600.1 43000.5 115657 42040.3 76112 109908 33542
82677.9 71422 122547 34109 64457.2 53891.1 117399 40998.6 76368.8 111510
123955 35596.2 107131 131069 39532.8 76054.6 140545 102945 37124.1 75923.5
96095.8 66213.2 37069.7 72741.4 35079.7 44612.5 63694.4 148936 97861 46372.3
75846.1 39350.7 45545.6 76186.4 76334.2 37699.3 68080.2 70565.1 44635.5 76300
91497.3 145404 73228.1 136699 74848 38555.1 128817 122480 135849 68622.3
43199.9 43460.6 76087.6 38211 77602.9 143273 117719 43405.6 84333.1 122037
54160.8 68275.1 113175 153700 110097 56881.1 41833.8 50388.9 76601 71761.3
49447.6 49603.8 49577.7 71969.4 165290 107888 48618.3 72149 89480.7 77991.5
77480.1 44137 40996.2 80201.5 47222.8 51288.4 71309.4 167580 101394 47599
41932.9 78239.2 72434.4 47467.4 162348 53873.3 141111 134227 148848 67956.6
74138.4 150388 93851.6 129006 157043 46151 73560.9 63537.3 54571.8 139177
53735.1 45824.8 63649.4 84123 124096 168520 79997.1 51762.7 44031.8 81346.9
52734.2 63902.4 118580 182366 116754 86634.2 45560.6 45944.1 61443.3 74756.2
45923.4 75783.9 51864.1 64587.9 111982 188709 184327 61187.3 86632.1 81368.5
48132.9 86130.2 88684 66116 52822.5 50562.8 62620.3 154596 58822.7 104181
176947 47476.3 79409 146751 163496 58027.9 57980.3 82089.7 61409.6 60987.4
58119 167989 140803 173213 57003.9 61595.9 165749 135405 186374 50083.8
68617.4 73723.1 79676.1 144475 96209.2 61282.2 62319.2 56277.2 129515 202012
50717 58826.3 54409.4 92410.8 50975.5 84740.3 92786.3 61503.4 51483.4 72268.3
122689 63806.5 210582 55096.2 58154.8 51210.1 72450.1 107556 89631.5 63039.6
71298.4 84361.1 62279.6 114664 201070 61429.7 54431 66076.3 169113 173174
159961 179267 152903 190789 56562.9 91847.3 87481.8 60837.1 85991.6 197876
99451 62496.7 54217.8 78010.6 71240.4 146830 205849 167937 106138 95649
71225.9 140338 222452 59779.9 55191.8 69510 84082.5 64935.7 125511 67260.8
98456.4 87539.7 82382.8 230571 133029 66657 66421.8 58993.2 65987.5 64436.6
64024.2 100389 85425.5 59195.6 67418.5 124714 218267 105980 71782.8 81911.4
57774.8 74709.5 65516.4 99991.6 93150.8 184334 188004 195954 173751 97255.9
81557.8 165153 209721 59430.9 218054 115885 180274 64609.3 158085 226386
241411 150729 94467.2 66063 71608.3 81965.5 91921.8 93027.4 62229.4 109579
72818.4 71167.3 134243 63762.5 107545 70665.6 243995 142604 61632.8 110592
81668.3 70309.1 222615 133911 107970 100991 63935.3 98292.8 91811.8 69570.8
74252.7 91134.9 201761 68559.5 207543 104693 74348.2 216216 188826 177333
125038 177777 232089 65625.7 239582 118244 82256.2 103333 73117.9 168797
247075 76162.1 75843.6 74933.3 68720.5 97593.3 101328 65802.3 75466.8 160302
254360 91666.2 112425 132818 116568 75224.4 243854 151284 100704 68709.7
101997 76344.5 71456.5 100431 115395 83323 99991.5 74663 111877 109347
142194 208801 69377.4 234895 91918.6 124806 109194 80953.4 65063.8 223269
73868.4 160099 70294.7 133507 73862.7 238008 207391 71595.9 80707 65854.2
223951 238184 208045 74354.5 192350 249240 107604 67088.2 104369 80404.7
104121 112046 100489 179589 253890 78757.9 84872.3 68872.8 114282 80265.5
125087 125383 74738 168862 246300 73760.6 125426 92579.4 73486.4 158963
71205.1 219019 79890 103348 107284 107363 118074 113330 100789 127979
149691 174521 79350.4 75044.5 75115.9 73874.1 79215.5 85985 63623 75584.4
64274.8 85778.9 85039.3 85636.6 86854 81579.3 112480 65419.3 85502.8 109784
86575.9 134098 141372 85480.5 127475 93719.8 110888 107625 78407.9 112146
237262 112112 225002 243439 66834.1 85435.8 209162 242159 77200 79088.9
233418 133642 101377 193609 231065 192880 77956.2 115097 133956 86766.4
112521 68785.7 85259.9 101609 178426 205918 108666 112701 168855 127051
108177 84923.1 166530 167579 81306.7 80269.5 89271.3 71243.9 84771.6 84816.4
111742 95319.2 127184 80775.5 142836 64627.8 91265.8 65236 91076.7 156837
130465 82473.5 102365 140509 127142 90783.6 66249.3 110826 113646 151116
84697.9 74430.3 67353.1 90758.2 86491.6 121082 112847 82799.7 110110 148887
109017 138302 227871 219999 227281 109301 69008.7 90793.1 219273 202498
87391.6 94330.1 88076.9 92136.1 97403 180892 206633 206041 175075 105355
142279 88484.5 85765.1 78390.6 103788 114812 123182 116111 114705 190799
142103 89754.7 90547.6 71377 93905.9 94892.7 86471.4 93186.8 86952.1 64716.2
96792.9 179409 65158.2 96600.8 91641.8 151314 176643 113379 110227 106604
136470 65983.6 96262.4 88836.4 103013 90599 74554.5 83369 88041 165390
97829.3 66968.5 96266.7 114125 116870 97121.3 108358 138622 116233 100001
95470.6 92061.5 159433 130930 109116 105710 68476.7 96521.3 116638 157113
94377.9 101882 92605.1 110011 91621.2 78486.4 111851 189872 205065 166507
89735.9 91876.8 96565.6 70673.8 210509 139306 92757.8 183374 119251 120215
95974 150936 208672 119086 112079 125553 207581 113642 107155 102531
64874.4 117956 159732 65192.2 102334 97073.2 198824 95075.1 65861.4 101961
94754.9 83337.4 93711.6 73484.6 96814.7 103147 145927 98831.1 108205 86736.2
186938 112985 99307.3 66731.2 102005 185211 113961 121460 115376 136208
121801 86053.7 97221.9 97963.2 100901 175236 85712.5 102480 67989.8 85991.1
97872.3 76772.9 102127 141220 120051 168543 89435.6 97298.1 100214 87419.3
165937 103496 69674.6 102855 115523 99444.3 118935 121869 135341 157995
112375 132545 124546 56696 126473 150351 106882 108448 111342 156177
110565 56088.2 108270 136268 105804 159208 89923.4 80717.8 99874.3 176324
94363.8 153735 109422 108258 103704 116660 56637.2 107914 71641.4 103373
188511 86000.7 126838 57284.1 108020 102407 97051.2 122628 191868 83601.6
122097 109471 92789.6 154257 110796 133403 122714 58060.5 188321 83918.1
108712 109846 131550 73740.2 104567 103306 85614.6 127594 167302 95058.2
124480 110731 180715 85359.1 125006 109443 58886 141584 150151 96039.2
115182 120365 111267 120053 97152.5 105979 108753 172026 87303.5 128694
114214 125827 106609 76106.7 50531.7 114526 153587 126724 50874.9 114416
59616.2 110305 51345.7 114144 146091 99727 91479.7 108270 89488.2 164469
131103 169292 95449.3 109045 88507.4 51632.3 114345 152093 86108.4 128014
85954.3 117915 85790.6 148061 149111 51963.6 115255 111764 60081.2 133104
118870 78919.6 110007 164346 133616 119800 86515.8 115097 158871 91940.1
124238 157166 175087 172941 131044 141856 103851 115469 116401 129776
173024 87797.4 173622 52174.2 116354 97743.9 114585 121687 115925 89108.1
165405 135237 60261.9 154896 94773.8 113993 175532 89336 89802.3 64782.7
120783 120784 120787 65090.1 152629 123801 82044.1 51995 117654 114946
108377 138040 65316.4 120659 172209 171827 91026.2 135787 184842 121008
65190.7 118104 151812 98034.7 136721 129330 146727 121541 124504 125303
60277.4 173591 134610 117500 51201.7 119513 92931 165571 103327 122426
65084.1 122169 112472 91498.9 93772.5 90887.8 137150 113271 99938 91169.5
162295 140149 123039 185051 129040 91570.6 84913.2 121355 111820 91996.8
123647 64798.9 119842 101731 148877 95154.4 159647 127817 93085.2 186892
141080 49724.9 122086 116273 135904 157551 96495.9 60074.3 144039 94297.2
122572 74848.9 127226 127309 64108.3 125459 74975.8 127392 118524 155239
145856 97758.6 135485 74765.8 127490 132166 95433.4 156442 95631.1 160067
140499 131840 107115 145865 105873 214648 134665 96280.9 74133.9 128045
145276 99218.2 128341 167862 146020 129514 86628.1 135743 153524 47792.5
125883 161762 162375 97174.5 62928 127841 73497.2 129525 100769 152391
183590 147070 129235 59471.2 129115 130792 172416 124160 99011.9 162291
143270 110482 72676.3 131426 98459.3 98402.4 98953 61280.1 130934 229996
140776 99359.9 99658.5 45636.7 131271 100062 104208 150509 108984 142903
100491 102246 140018 147669 102386 158915 101200 102462 86499.7 139598
71591.7 133786 81620.1 168660 153064 133833 133967 81629.5 108612 134261
101430 101982 157040 134712 81111.5 58266 143574 115591 137870 119240
119478 153941 102532 183824 211831 130238 119325 80058.1 135485 59354.6
135238 103769 154971 148994 108113 131404 136324 70373.2 136799 103667
133103 103865 43389.7 138376 104313 78974.5 137312 230531 147497 152086
138061 105842 141960 138716 145749 105491 152037 106749 111320 151945
139699 77816 111807 156402 121252 153822 84948.6 151821 160431 69222.4
147506 161526 140584 147323 112542 57394.3 141151 152557 246200 136842
56482.6 148811 107453 154042 178868 161905 142663 76689.3 108734 87707.5
140799 110179 150409 108410 109140 41386.6 147685 141441 87904.2 108260
109665 142291 154980 87426.3 220919 109782 157203 108743 110343 68339.8
145604 117011 181292 127520 145702 143389 86386.7 117570 110623 111246
111185 146422 75884.9 55607.2 148904 157096 85284.7 114855 112444 145566
263630 144072 149793 114115 157030 112506 148332 85484.6 167018 117091
171698 54909 162499 157914 171207 122571 113955 114035 156266 148442
84104.4 40251.1 159704 67904.1 152276 143570 116734 75664 151061 172570
123273 146536 163412 204056 115660 155762 133612 115797 220944 134458
115120 149721 118638 54540 159096 152076 82989.4 151566 148313 92929.2
148911 149022 93116.7 145207 117998 260573 152054 150235 93001 76168.9
156989 119287 154785 150318 128646 68145.5 160908 151810 92428.5 152045
183883 89008.6 156698 179788 82244.9 56595.7 120558 120593 120714 120608
123260 155875 129720 182111 121133 128251 120665 152633 154246 120590
149684 123837 41195.4 175129 120820 121839 120517 154397 257369 142137
91913.7 122079 180665 173020 157854 121444 122877 55181 172417 123461
154662 160386 174649 77482.7 164636 82143.1 159698 162354 123615 157813
91530.3 123161 124269 241799 160937 125015 172218 69724.1 129802 149955
126923 126011 179063 136969 126950 160796 126591 162188 91411.3 162311
127115 155572 128279 132491 156576 97710 150647 52340.8 276911 198216
139672 157297 133684 128115 98056.1 82853.6 169388 101053 194814 46506.2
194747 79856.6 174380 158798 98319.1 153527 189751 184016 59187.6 167761
91720.4 160861 98325.3 135444 135465 143133 130611 131134 163556 152362
136597 73798.4 218161 170878 187064 133224 163933 98573.7 145077 212757
157268 133842 172273 134140 84511.8 178217 134415 134260 153338 133529
134939 134750 154907 174563 92671.4 168006 99175.5 135593 135583 84029.6
274874 160092 187046 135877 135277 164731 135743 154322 136824 136344
49508.3 214524 209315 81224.2 162230 136922 165153 173240 160082 100355
144274 68746.4 211589 163582 138431 137454 196511 130878 140237 159453
138114 139287 182870 94477.1 103316 165874 154117 87595.8 246722 189267
166496 82009.6 206417 103720 166612 139588 140429 182043 194899 168336
104292 166603 141063 148050 169944 141452 168821 140871 179875 102255
104959 170853 171182 91490 203647 143655 142858 259787 170593 146335
106110 174474 147555 162299 193072 152906 176786 97442.7 150230 145778
145497 173527 223535 187962 105119 93085.8 169459 203456 147252 81380.2
225566 179295 107872 72725.1 232575 164207 268848 119777 210666 96467.4
230264 158917 149237 151311 151667 151491 177053 194666 150476 152459
152130 152123 185527 110589 150913 177430 104459 225229 153188 153604
233423 205598 102188 197682 166884 109240 155924 242306 182373 155022
154711 115734 176465 154446 173310 162651 202028 153308 168445 177285
116186 170633 179274 117241 159125 155100 156687 102739 156645 222051
173233 114512 193374 180519 156203 182261 118982 187908 181447 157236
275119 175562 158610 191529 224726 158695 159148 177549 158125 159979
158984 209360 115227 244226 104521 121679 186535 123972 227171 178636
105954 252870 161265 221531 109818 183803 165525 175133 161815 162161
120091 202891 178180 162799 169276 209392 125659 251488 192214 125511
173762 229212 163884 185759 195993 228656 186306 164664 166830 165828
171464 118787 246509 203553 199532 130796 223555 124111 196362 214117
127843 271970 188627 174152 170303 175795 184404 172599 175900 138495
188885 242817 122393 193355 170807 189640 176330 176123 189866 176687
188758 139035 183131 177363 176951 245433 173124 192199 140596 173489
208642 137582 192505 225386 179003 178369 142047 247715 137186 266999
195694 143275 183460 175780 196149 171352 227671 251287 186701 181258
180455 148977 277170 206296 193350 185721 198974 177807 227345 138136
197142 177416 241915 136892 221094 147083 184082 183251 200693 212639
213392 144558 276880 201052 179122 191938 145859 219556 181486 182495
194078 192889 187464 186815 184292 237746 207250 151950 266472 204398
200535 184077 205344 272118 142371 189993 207811 191607 191213 243687
150870 215597 189168 209903 157812 232274 155429 190681 205446 206310
266149 202412 192124 267840 153428 196526 197031 169494 274414 182264
295683 182660 251600 203775 163025 204963 163402 198582 170538 204903
307509 210802 197022 220348 234271 225859 164338 203048 207660 164617
204254 202852 217249 200477 211621 166761 230081 206417 220570 247491
201368 165826 309249 171806 165074 266112 224641 262776 213852 214045
214332 205435 214938 215489 211248 217289 169629 217362 216529 170994
213343 238110 210210 314599 226408 219950 218840 305279 172185 209951
276248 222429 224655 229295 211800 172799 223439 212835 223181 221859
221362 216279 214727 267443 175811 215723 233010 223909 218503 234265
210482 305814 205744 280696 226898 225531 252767 226411 328355 176882
175768 234072 243808 178179 299992 226713 218925 308766 229834 261085
226948 253286 228980 341756 212246 333008 230990 229817 241487 224242
240619 264813 249706 225500 227520 221741 173999 235271 222797 223114
173996 245833 177870 226163 174092 345781 191945 228889 238194 231031
234668 235505 255967 246538 231451 182661 297043 271512 285188 180689
246215 174337 230616 231204 241731 236840 237090 246682 236941 174416
239986 237115 240640 253622 343154 185788 260311 178321 275516 249272
243785 240485 306802 247761 332378 250431 250724 250449 173770 245677
244035 244990 285360 251253 251376 250868 353945 242679 298201 180517
246517 245578 260029 252427 251695 246323 259858 247083 253829 249286
275642 272403 338210 182587 334075 257385 246341 253795 252856 278778
176073 367338 211427 171714 257052 264996 249527 263424 256387 255330
254249 295316 266936 252084 252780 251076 312108 184775 373220 256828
255730 163155 244452 272019 167428 162731 245966 253655 256350 256014
257608 254862 266404 173703 335355 270856 249471 161490 293774 266720
304055 169595 258040 270074 258117 257202 260509 271293 258678 159337
254835 255933 356750 268153 264070 266641 373244 172109 274239 259963
265507 315967 274589 294891 339592 252446 276411 265272 291450 155973
263022 160205 258538 259068 289805 281430 311546 262108 358774 220126
269092 281664 375343 261276 272945 151097 263529 274628 259611 366050
336964 157707 303270 274390 259644 259556 176768 371753 370654 158489
270213 315773 149918 278782 268643 259835 267176 299680 259768 266370
279900 144560 290491 262794 262726 303701 271288 262588 270684 278218
262484 262229 259826 260038 261389 379375 152443 259975 266804 261667
261750 262111 261627 264487 276393 278467 266651 261062 261501 136521
310217 276703 368588 133700 141328 263510 278251 133147 278344 290801
277191 274571 268980 291651 253125 279610 343481 137283 260098 260555
131496 282628 259407 259657 292322 264215 312579 213323 382164 137727
128748 289761 259141 258758 266509 267778 261371 280398 300339 279682
267778 258717 331819 164716 258247 258404 258090 127530 331906 124973
300407 366032 275659 263213 257968 257918 257077 256904 264427 378589
266688 279298 264149 273096 257512 297845 254480 131951 346663 124015
368313 298451 381089 120405 314306 124075 254308 254106 305258 257596
265291 118532 352984 225807 254156 254823 282603 248503 356024 118700
115443 330766 273206 257513 267113 250620 249909 346070 270087 253536
215830 255338 268940 236339 227945 194543 262368 211176 377343 112712
249058 276981 246018 149257 264148 246792 245562 242254 272076 210471
347312 110689 248392 316476 109699 245601 110831 368456 245142 245189
317598 109442 244036 238072 245333 263513 110865 359305 248730 247267
257421 248564 243909 243990 244298 245674 108685 321055 264794 117781
242016 241874 266282 208693 253953 253854 107511 327398 184233 239123
238872 237806 106812 359897 235914 237695 244451 254063 234835 246553
106104 235182 237256 107435 234747 336402 279709 252943 241216 358378
247666 202885 235351 227993 174887 237902 235512 244350 221033 105611
105642 369701 355533 229321 230021 241622 231497 104705 346209 238355
199945 224984 226916 185695 104163 364602 288358 104202 148376 223425
222375 163946 194222 147187 223939 191473 131053 155456 334574 230792
209864 103519 149008 354206 268385 225174 338287 167135 217516 109672
220993 215133 213653 321695 206782 224620 221104 213229 207439 150245
219559 197204 209784 102936 343436 210747 212484 216704 205131 287990
102616 179321 102635 103352 357329 102626 355829 342450 204923 102514
202996 343203 200528 174607 343274 102473 343278 148132 191318 209064
102353 344037 198300 146467 193639 151923 196880 345910 102168 198332
193721 188492 102070 193207 194433 102034 190496 351890 192775 191627
190537 189736 189959 179464 187631 188038 170431 141731 101955 347966
121616 101841 276577 186864 168946 101847 321439 123647 116488 184220
184838 111400 130246 114612 111697 185105 172878 175198 154198 142779
112423 179501 180346 101754 114096 105089 347758 142069 101654 192047
176487 178919 172749 101664 174610 173740 173249 145276 173530 331649
113514 183265 172159 166632 118049 102172 151378 132058 210972 101588
341644 167706 166395 167028 111033 138158 113509 161418 163773 101496
253746 122043 101527 187274 101455 159740 158228 109083 163148 148399
134019 152087 141085 101460 287660 152043 152318 101467 324909 127204
111882 101456 338614 134716 121290 150875 101451 149223 337656 145723
140014 145889 124718 147966 101388 335007 101434 130942 105223 102626
101409 330200 108895 102777 102709 101388 292049 102681 141382 139684
101361 173918 117700 109023 110917 102990 101380 321178 102992 101362
101678 221523 131683 132648 126638 101339 124616 119774 131043 132603
124804 117419 109801 103081 111971 119727 130106 131712 101386 103474
101354 304358 104695 108776 123564 129567 119055 129026 129206 101341
241934 127637 127955 113580 110919 105995 125452 125913 101950 119537
107059 102933 101335 276089 101323 103937 122615 123195 116235 122591
121239 101324 119515 118638 154990 117259 115995 101316 121059 119996
119342 101317 183457 104686 102572 101322 236238 116542 115862 105900
109056 116167 101310 104142 101459 101685 102101 101476 112799 113822
114824 109789 107376 106634 101318 285277 106087 101435 103716 101466
282979 101317 282552 101505 102439 101459 104217 105237 113075 112429
101315 274284 108560 110286 110002 101497 101334 102459 101526 106967