# vtk DataFile Version 2.0
sampleSurface
ASCII
DATASET POLYDATA
POINTS 3220 float
-2.71051e-18 0 0 0.1 0 0 -0.1 0 0 -3.83988e-18 0
0.125 0.1 0 0.125 -0.1 0 0.125 -0.2 0 0
0.2 0 0 -0.2 0 0.125 0.2 0 0.125 -4.96926e-18
0 0.25 0.1 0 0.25 -0.1 0 0.25 -0.3 0
0 0.3 0 0 -0.2 0 0.25 0.2 0 0.25
-0.3 0 0.125 0.3 0 0.125 -3.83988e-18 0 0.375 0.1
0 0.375 -0.1 0 0.375 -0.3 0 0.25 0.3 0
0.25 -0.4 0 0 0.4 0 0 -0.4 0 0.125
0.4 0 0.125 -0.2 0 0.375 0.2 0 0.375 -0.4
0 0.25 0.4 0 0.25 0.3 0 0.375 -0.3 0
0.375 -2.71051e-18 0 0.5 -0.5 0 0 0.5 0 0
0.1 0 0.5 -0.1 0 0.5 -0.5 0 0.125 0.5
0 0.125 -0.2 0 0.5 0.2 0 0.5 -0.4 0
0.375 0.4 0 0.375 -0.5 0 0.25 0.5 0 0.25
-0.3 0 0.5 0.3 0 0.5 0.6 0 0 -0.6
0 0 0.6 0 0.125 -0.6 0 0.125 -4.29163e-18 0
0.625 -0.5 0 0.375 0.5 0 0.375 0.1 0 0.625
-0.1 0 0.625 -0.4 0 0.5 0.4 0 0.5 0.6
0 0.25 -0.6 0 0.25 -0.2 0 0.625 0.2 0
0.625 -0.3 0 0.625 0.3 0 0.625 0.7 0 0
-0.7 0 0 -0.5 0 0.5 0.5 0 0.5 0.6
0 0.375 -0.6 0 0.375 -0.7 0 0.125 0.7 0
0.125 -0.4 -3.79471e-18 0.625 0.4 0 0.625 0.6 0 0.4375
0.7 0 0.25 -0.7 0 0.25 -5.87276e-18 0 0.75 0.65
0 0.375 -0.1 0 0.75 0.1 0 0.75 0.7 0
0.3125 -0.2 0 0.75 0.2 0 0.75 0.6 0 0.5
-0.6 0 0.5 0.65 0 0.4375 0.75 0 0.25 -0.7
0 0.375 0.7 0 0.375 -0.8 0 0 0.8 0
0 -0.5 0 0.625 0.5 0 0.625 -0.3 -3.79471e-18 0.75
0.3 0 0.75 -0.8 0 0.125 0.8 0 0.125 0.75
0 0.3125 0.65 0 0.5 0.8 0 0.1875 0.6 0
0.5625 0.7 0 0.4375 -0.8 0 0.25 0.8 0 0.25
0.75 0 0.375 -0.4 1.54074e-33 0.75 0.4 0 0.75 0.8
0 0.3125 0.85 0 0.125 0.65 0 0.5625 0.7 0
0.5 -0.7 0 0.5 -0.6 0 0.625 0.6 0 0.625
0.75 0 0.4375 0.85 0 0.1875 -4.74338e-18 0 0.875 -0.1
0 0.875 0.1 0 0.875 -0.8 0 0.375 0.8 0
0.375 0.85 0 0.25 -0.2 0 0.875 0.2 0 0.875
0.7 0 0.5625 -0.9 0 0 0.9 0 0 -0.5
-3.79471e-18 0.75 0.75 0 0.5 0.5 0 0.75 0.65 0
0.625 0.9 0 0.0625 0.85 0 0.3125 0.9 0 0.125
-0.9 0 0.125 0.8 0 0.4375 0.9 0 0.1875 0.3
0 0.875 -0.3 0 0.875 0.85 0 0.375 -0.9 0
0.25 0.9 0 0.25 0.75 0 0.5625 0.7 0 0.625
-0.7 0 0.625 -0.8 0 0.5 0.8 0 0.5 0.95
0 0 0.95 0 0.0625 0.9 0 0.3125 0.85 0
0.4375 0.95 0 0.125 -0.6 0 0.75 0.6 0 0.75
-0.4 0 0.875 0.4 0 0.875 0.95 0 0.1875 0.9
0 0.375 -0.9 0 0.375 0.75 0 0.625 0.8 0
0.5625 0.7 0 0.6875 0.95 0 0.25 0.85 0 0.5
-3.61401e-18 0 1 1 0 0 -1 0 0 0.95
0 0.3125 0.9 0 0.4375 1 0 0.0625 0.1 0
1 -0.1 0 1 -0.5 0 0.875 1 0 0.125
0.5 0 0.875 -1 0 0.125 -0.8 0 0.625 0.8
0 0.625 1 0 0.1875 0.75 0 0.6875 0.85 0
0.5625 -0.2 0 1 0.2 0 1 0.95 0 0.375
0.7 0 0.75 -0.7 1.65709e-18 0.75 -0.9 0 0.5 0.9
0 0.5 1 0 0.25 -1 0 0.25 -0.3 0
1 0.3 0 1 0.95 0 0.4375 1 0 0.3125
1.05 0 0 1.05 0 0.0625 0.8 0 0.6875 0.85
0 0.625 1.05 0 0.125 0.75 0 0.75 0.6 0
0.875 -0.6 0 0.875 0.9 0 0.5625 1.05 0 0.1875
1 0 0.375 -1 0 0.375 0.95 0 0.5 -0.4
0 1 0.4 0 1 1.05 0 0.25 1 0
0.4375 0.85 0 0.6875 1.05 0 0.3125 -0.9 9.62965e-35 0.625
0.9 0 0.625 0.8 0 0.75 -0.8 3.85186e-34 0.75 1.1
0 0 -1.1 0 0 1.1 0 0.0625 0.95 0
0.5625 -1.1 0 0.125 1.1 0 0.125 1.05 0 0.375
1.1 0 0.1875 1 0 0.5 -0.5 0 1 0.5
0 1 -1 0 0.5 -0.7 0 0.875 0.7 0
0.875 6.77626e-19 -4.51751e-19 1.125 -1.1 -3.78534e-18 0.25 1.1 0 0.25
-0.1 0 1.125 0.1 0 1.125 0.9 0 0.6875 0.85
0 0.75 0.95 0 0.625 1.05 0 0.4375 0.8 0
0.8125 -0.2 0 1.125 0.2 0 1.125 1.1 0 0.3125
1 0 0.5625 1.15 0 0.125 -1.1 0 0.375 1.1
0 0.375 1.05 0 0.5 0.3 0 1.125 -0.3 0
1.125 1.15 0 0.1875 0.6 0 1 -0.6 0 1
0.9 0 0.75 -0.9 0 0.75 0.95 0 0.6875 0.85
0 0.8125 1.15 0 0.25 1 0 0.625 -1 0
0.625 1.1 0 0.4375 -0.8 1.65709e-18 0.875 0.8 0 0.875
1.05 0 0.5625 1.15 0 0.3125 -0.4 3.73447e-18 1.125 0.4
2.25875e-19 1.125 1.2 0 0 -1.2 0 0 -1.2 -3.78534e-18
0.125 1.2 0 0.125 1.1 0 0.5 -1.1 -3.61401e-18 0.5
1.15 0 0.375 0.95 0 0.75 0.9 0 0.8125 1
0 0.6875 1.2 0 0.1875 0.85 0 0.875 0.7 0
1 -0.7 0 1 1.05 0 0.625 -1.2 0 0.25
1.2 0 0.25 1.15 0 0.4375 -0.5 0 1.125 0.5
0 1.125 1.1 0 0.5625 1.2 0 0.3125 1 0
0.75 -1 0 0.75 4.96926e-18 0 1.25 0.95 0 0.8125
1.15 0 0.5 0.1 -4.51751e-19 1.25 -0.1 -4.51751e-19 1.25 1.05
0 0.6875 0.9 0 0.875 -0.9 0 0.875 -1.2 0
0.375 1.2 0 0.375 -1.1 0 0.625 1.1 0 0.625
-0.2 0 1.25 0.2 0 1.25 1.25 0 0.25 -0.6
0 1.125 0.6 0 1.125 1.2 0 0.4375 1.15 0
0.5625 -0.8 0 1 0.8 0 1 -0.3 0 1.25
0.3 0 1.25 1.25 0 0.3125 1 0 0.8125 1.05
0 0.75 0.95 0 0.875 1.1 0 0.6875 0.9 0
0.9375 -1.2 1.54074e-33 0.5 -1.3 0 0 1.2 0 0.5
1.3 0 0 1.25 0 0.375 -1.3 0 0.125 1.3
0 0.125 1.15 0 0.625 -0.4 0 1.25 0.4 0
1.25 -1.3 -3.78534e-18 0.25 1.3 0 0.25 1.25 0 0.4375
-0.7 0 1.125 0.7 0 1.125 1.2 0 0.5625 1.05
0 0.8125 1 0 0.875 -1 0 0.875 -1.1 -1.03903e-18
0.75 1.1 0 0.75 0.95 0 0.9375 1.3 0 0.3125
1.15 0 0.6875 -0.9 0 1 0.9 0 1 1.25
0 0.5 -0.5 0 1.25 0.5 0 1.25 -1.3 0
0.375 -1.2 0 0.625 1.2 0 0.625 1.3 0 0.375
1.05 0 0.875 1.1 0 0.8125 1.25 0 0.5625 1
0 0.9375 1.3 0 0.4375 1.15 0 0.75 2.71051e-18 -4.51751e-19
1.375 0.1 0 1.375 -0.1 0 1.375 0.95 0 1
-0.8 5.48124e-18 1.125 0.8 0 1.125 1.2 0 0.6875 -0.6
0 1.25 0.6 0 1.25 -0.2 0 1.375 0.2 0
1.375 -1.3 -3.61401e-18 0.5 1.3 0 0.5 1.25 0 0.625
1.4 0 0 -1.4 0 0 1.35 0 0.375 -1.4
0 0.125 -1.1 0 0.875 1.4 0 0.125 1.1 0
0.875 0.3 0 1.375 -0.3 0 1.375 1.05 0 0.9375
1.15 0 0.8125 1 0 1 -1 0 1 -1.2
0 0.75 1.2 0 0.75 1.3 0 0.5625 1.35 0
0.4375 -1.4 0 0.25 1.4 0 0.25 1.25 0 0.6875
-0.4 3.73447e-18 1.375 0.4 2.25875e-19 1.375 -0.7 5.48124e-18 1.25 0.7
0 1.25 1.35 0 0.5 -0.9 0 1.125 0.9 0
1.125 -1.3 0 0.625 1.3 0 0.625 1.15 0 0.875
1.1 0 0.9375 1.2 0 0.8125 -1.4 0 0.375 1.4
0 0.375 1.05 0 1 1.25 0 0.75 1.35 0
0.5625 -0.5 0 1.375 0.5 0 1.375 1.4 0 0.4375
1.3 0 0.6875 -0.8 0 1.25 0.8 0 1.25 -1.2
0 0.875 1.2 0 0.875 1.4 0 0.5 1.1 0
1 -1.4 0 0.5 -1.1 -3.61401e-18 1 1.35 0 0.625
1.5 0 0 -1.5 0 0 4.51751e-19 0 1.5 -0.6
0 1.375 0.6 0 1.375 -1.3 -1.03903e-18 0.75 1.3 0
0.75 0.1 0 1.5 -0.1 0 1.5 -1.5 0 0.125
1.5 0 0.125 1 0 1.125 -1 0 1.125 1.4
0 0.5625 -0.2 0 1.5 0.2 0 1.5 -1.5 0
0.25 1.5 0 0.25 -0.3 0 1.5 0.3 0 1.5
-1.4 0 0.625 1.4 0 0.625 -0.9 0 1.25 0.9
0 1.25 0.7 0 1.375 -0.7 0 1.375 1.5 0
0.375 -1.5 0 0.375 0.4 0 1.5 -0.4 0 1.5
-1.2 1.54074e-33 1 1.2 0 1 1.3 0 0.875 -1.3
0 0.875 -1.1 0 1.125 1.1 0 1.125 1.5 0
0.5 -1.5 0 0.5 -0.5 0 1.5 0.5 0 1.5
-1.4 0 0.75 1.4 0 0.75 -0.8 5.48124e-18 1.375 0.8
0 1.375 -1.6 0 0 1.6 0 0 1 0
1.25 -1 0 1.25 1.6 0 0.125 -1.6 0 0.125
-0.6 0 1.5 0.6 0 1.5 1.6 0 0.25 -1.6
0 0.25 -1.5 0 0.625 1.5 0 0.625 9.03502e-19 0
1.625 0.1 0 1.625 -0.1 0 1.625 -0.2 0 1.625
0.2 0 1.625 -1.3 -3.61401e-18 1 1.3 0 1 -0.9
0 1.375 0.9 0 1.375 1.6 0 0.375 -1.6 0
0.375 -1.2 0 1.125 1.2 0 1.125 -1.4 0 0.875
1.4 0 0.875 -0.3 0 1.625 0.3 0 1.625 0.7
0 1.5 -0.7 0 1.5 -1.1 -9.78794e-19 1.25 1.1 0
1.25 -0.4 0 1.625 0.4 3.87422e-18 1.625 1.6 0 0.5
-1.6 0 0.5 -1.5 -3.67424e-18 0.75 1.5 0 0.75 -0.8
0 1.5 -1.7 0 0 0.8 0 1.5 1.7 0
0 -0.5 0 1.625 0.5 0 1.625 1 0 1.375
-1 0 1.375 -1.7 0 0.125 1.7 0 0.125 -1.6
-3.67424e-18 0.625 1.6 0 0.625 -1.7 0 0.25 1.7 0
0.25 -1.3 0 1.125 1.3 0 1.125 1.4 0 1
-1.4 0 1 -0.6 0 1.625 0.6 0 1.625 -1.2
0 1.25 1.2 0 1.25 1.5 0 0.875 -1.5 0
0.875 1.7 0 0.375 -1.7 0 0.375 -0.9 0 1.5
0.9 0 1.5 1.35525e-18 0 1.75 0.1 0 1.75 -0.1
0 1.75 1.1 0 1.375 -1.1 0 1.375 -0.2 0
1.75 0.2 0 1.75 -1.6 0 0.75 1.6 0 0.75
0.7 0 1.625 -0.7 9.62965e-35 1.625 1.7 0 0.5 -1.7
0 0.5 -0.3 -3.97541e-18 1.75 0.3 3.87422e-18 1.75 -0.4 0
1.75 0.4 3.08149e-33 1.75 -1.4 0 1.125 1.4 0 1.125
1.8 0 0 -1.8 0 0 1.5 0 1 1
0 1.5 -1.5 0 1 -1 0 1.5 -1.3 -9.78794e-19
1.25 1.3 0 1.25 -1.8 0 0.125 1.8 0 0.125
-1.7 0 0.625 0.8 0 1.625 -0.8 1.56607e-18 1.625 1.7
0 0.625 -1.8 0 0.25 1.8 0 0.25 -0.5 -3.97541e-18
1.75 0.5 3.87422e-18 1.75 -1.6 0 0.875 1.6 0 0.875
-1.2 0 1.375 1.2 0 1.375 -1.8 0 0.375 1.8
0 0.375 -0.6 0 1.75 0.6 0 1.75 0.9 0
1.625 -0.9 9.62965e-35 1.625 -1.7 -3.67424e-18 0.75 1.7 0 0.75
1.1 0 1.5 -1.1 -3.61401e-18 1.5 1.8 0 0.5 -1.8
0 0.5 -1.5 0 1.125 1.5 0 1.125 9.03502e-19 0
1.875 -1.4 0 1.25 1.4 0 1.25 -0.1 0 1.875
0.1 0 1.875 0.7 0 1.75 -0.7 1.56607e-18 1.75 -0.2
0 1.875 0.2 0 1.875 1.6 0 1 -1.6 0
1 1.3 0 1.375 -1.3 0 1.375 0.3 0 1.875
-0.3 0 1.875 1.9 0 0 -1.9 0 0 1.9
0 0.125 -1.9 0 0.125 -1.8 0 0.625 1.8 0
0.625 1 0 1.625 -1 0 1.625 -1.7 0 0.875
1.7 0 0.875 1.9 -1.71331e-19 0.25 -1.9 0 0.25 -0.4
0 1.875 0.4 0 1.875 -1.2 1.54074e-33 1.5 1.2 0
1.5 0.8 0 1.75 -0.8 0 1.75 1.9 0 0.375
-1.9 0 0.375 0.5 0 1.875 -0.5 0 1.875 -1.8
0 0.75 1.8 0 0.75 -1.5 3.67424e-18 1.25 1.5 -3.61401e-18
1.25 1.6 -3.61401e-18 1.125 -1.6 3.67424e-18 1.125 -1.1 0 1.625
-1.4 0 1.375 1.1 0 1.625 1.4 0 1.375 1.9
0 0.5 -1.9 0 0.5 0.9 0 1.75 -0.9 1.56607e-18
1.75 -0.6 0 1.875 0.6 0 1.875 1.7 0 1
-1.7 0 1 -1.3 -3.61401e-18 1.5 1.3 0 1.5 2
0 0 -2 0 0 4.51751e-19 0 2 1.9 0
0.625 -1.9 0 0.625 0.7 0 1.875 -1.8 0 0.875
1.8 0 0.875 -0.7 0 1.875 0.1 0 2 -0.1
0 2 2 0 0.125 -2 0 0.125 -0.2 0
2 0.2 0 2 1 0 1.75 -1 0 1.75
2 0 0.25 -2 0 0.25 -1.2 -3.85186e-34 1.625 1.2
0 1.625 -0.3 0 2 0.3 0 2 1.6 1.54074e-33
1.25 -1.6 0 1.25 -1.1 0 1.70864 -1.5 0 1.375
2 -1.71331e-19 0.375 1.5 0 1.375 -2 0 0.375 0.8
0 1.875 1.7 0 1.125 -0.8 1.56607e-18 1.875 -1.7 0
1.125 -0.4 0 2 0.4 0 2 1.9 2.99829e-19 0.75
-1.9 1.9877e-18 0.75 1.4 0 1.5 -1.4 0 1.5 1.8
0 1 -1.8 0 1 -0.5 0 2 0.5 0
2 2 0 0.5 -2 0 0.5 -1.1 9.62965e-35 1.75
1.1 0 1.75 0.9 0 1.875 -0.9 0 1.875 -1.3
-1.92593e-34 1.625 1.3 0 1.625 -1.2 -1.92593e-34 1.70864 -0.6 0
2 0.6 0 2 1.9 0 0.875 -1.9 0 0.875
2 2.99829e-19 0.625 -2 1.9877e-18 0.625 2.1 0 0 -2.1
0 0 2.1 0 0.125 -2.1 0 0.125 1.6 -3.61401e-18
1.375 -1.6 3.67424e-18 1.375 1.7 0 1.25 -1.7 3.67424e-18 1.25
2.1 -1.71331e-19 0.25 -2.1 0 0.25 -0.7 0 2 0.7
0 2 1.5 0 1.5 -1.5 0 1.5 -1.2 1.92593e-34
1.75 1.2 0 1.75 1.8 0 1.125 -1.8 0 1.125
1 0 1.875 -8.80914e-18 3.61401e-18 2.125 -1 0 1.875 -0.1
0 2.125 0.1 0 2.125 2.1 0 0.375 -2.1 0
0.375 0.2 0 2.125 -0.2 0 2.125 2 0 0.75
-2 0 0.75 1.4 0 1.625 -1.4 0 1.625 0.3
0 2.125 -0.3 0 2.125 -1.3 0 1.70864 1.9 0
1 -1.9 0 1 -0.8 0 2 0.8 0 2
2.1 0 0.5 -2.1 0 0.5 0.4 0 2.125 -0.4
-1.20467e-19 2.125 1.1 0 1.875 -1.1 0 1.875 -1.3 0
1.75 1.3 0 1.75 0.5 0 2.125 2 0 0.875
-2 1.9877e-18 0.875 -0.5 0 2.125 1.7 0 1.375 -1.7
0 1.375 -2.1 0 0.625 2.1 0 0.625 1.8 0
1.25 -1.8 0 1.25 -0.9 0 2 0.9 0 2
1.6 0 1.5 -1.6 0 1.5 2.2 0 0 -2.2
0 0 2.2 0 0.125 -2.2 0 0.125 -1.9 0
1.125 1.9 0 1.125 -0.6 0 2.125 0.6 0 2.125
1.5 0 1.625 -1.5 0 1.625 2.2 0 0.25 -2.2
[...]
POINT_DATA 3220
FIELD attributes 1
p 1 3220 float
95875.2 84110.6 105294 92602.8 82450.2 101466 115221 69959.2 111100 70962.2 86783.1
80286.3 93856.3 124680 56574.5 102464 73609.4 120471 59928.4 82596.7 79448.4
86858.3 111572 66614.3 128015 46578.5 124351 51213.8 93296.9 75911.9 116760
60606.1 71573.4 101469 81082.9 122932 40065.2 79687.3 83253.6 120435 44818.7
87820.6 77629.3 108048 67774 115504 55595.3 94821.6 74880.5 33082 113682
36735.5 112541 82927.7 110050 64719.1 82170.9 84614 101630 72295.2 47062.3
110459 88797.3 80996.1 95174.2 79414.4 22915.3 106894 105279 70185.5 59020.8
108158 106645 24861.8 100824 77922.6 63907.6 31815.4 106350 87853.3 55394.7
89791.5 87312.5 35724.3 94170.8 86808.2 68240.7 105469 61185 22222 105870
45613.6 105382 14279.7 103360 76923.8 100022 86156.2 105420 14232.1 25413
67704.6 13642.9 72151.3 56767.3 105718 14532.1 33651.1 104066 86162.1 15866.4
11116.4 73590 68230.1 104747 103430 78137.6 49566.8 11108.8 95977 98183.7
95369.5 105969 21747 11240.8 102547 95296.4 78160.1 107830 10344.3 104608
68604 87138.1 79183.4 10247.4 11716.7 10280.3 107953 38895.5 10231.7 95296.6
107581 14693.4 108382 10315.9 84389.1 87823.7 103365 105772 64806.1 9744.17
9788.3 10555.8 28362.5 9872.62 103284 91601.4 109937 96635.5 9971.96 11941
108882 96358.4 87567.7 97978.8 10092.1 55663.2 106370 9728.9 112730 10281.8
20676.9 9772.08 105739 108509 108507 9875.51 99599.8 112921 105179 102655
10005.9 105129 84476.2 112417 106016 10902.5 102465 102768 109223 43837.2
10150.5 113338 116519 106606 15278.4 10324.9 9931.24 9970.86 112116 104540
10074.2 109449 105909 105398 74861.1 10208.1 10647.5 113871 31539.6 117551
108664 10356.9 12255 116094 10522.4 109332 100415 118124 104811 10227.5
118892 10215.9 59978.4 119142 10371.3 10732.1 10506.3 20881.5 114551 112762
114569 103862 114877 117399 119506 10649.7 119369 117016 115835 123705
89152.6 11251.9 124264 122809 117762 10805.3 42045.3 10703.2 120012 10972.3
14280 118989 126163 10812.1 120652 109804 125354 109471 110218 129892
10956.9 70477.7 115359 11224.3 105673 126403 25693.4 11110.9 126429 121471
10858.6 125378 125692 10969.2 12019.8 121035 11268.8 123467 132908 96116.4
11054.5 132413 129836 107181 47402.3 126078 11255.5 11449.5 122493 126059
15940.5 11416.1 114228 116248 128817 132640 11776.8 128709 130743 72915.8
137849 110515 126659 11565.8 122573 27181.5 134005 129964 11586 116543
134166 11739.7 12799.8 108550 135329 136890 131828 11714.7 125934 95046.8
139982 45840.9 142172 128059 131883 12000.5 11456 11864.9 132260 11563.5
16495.7 136640 134770 132737 11862.9 12069.9 112887 142408 12516.5 110936
135032 117792 124419 66792.2 144988 11989 25464.5 113306 142104 12376.9
132113 139655 133502 130342 13868 12224.7 122412 84635.8 12863.3 141306
12489.3 39437.8 141111 141025 143167 145509 113652 145410 17321.6 125267
146066 146612 142469 135324 12894.4 13899.3 12074.8 138520 12711.6 138929
126707 12201.5 98901.2 144577 149410 129808 54696.4 140861 120709 133212
25499.6 13486.3 13002.7 139507 12587.9 15891.1 148684 147721 120596 150305
13558.2 118077 144633 138293 14746.4 67324.6 112328 38470.3 140498 13297.6
131669 20246.9 14373.8 143511 152514 13624.9 16418.4 120681 149222 136422
51805.2 14684.7 113412 142720 129968 15631.6 12781.1 145430 154596 135807
156387 142228 21600.6 154209 157057 145848 12967.4 138263 125288 15595.7
161160 155306 146498 13596.2 164265 157091 146350 18119 124689 144951
154803 130065 15024.8 147701 160148 162951 140190 75475.2 35111.7 146502
134507 120175 18241.4 150293 156763 164192 151457 24969.4 129390 148038
152696 13709.6 137014 131570 14023.5 153112 147934 164928 15153 153808
154639 24107.8 169113 168160 172482 177730 168901 150838 50345.5 132942
140553 17897.8 155209 144790 90102.4 156899 34387.3 181254 170419 158844
140985 140523 120703 179045 172718 23360.8 158193 161054 32217.2 139419
160360 149297 15060.2 171383 174284 131558 139426 160767 15616.3 163365
31225.8 161520 17747 155530 66718.8 46809.2 161821 160957 171270 150525
98395.5 41582.3 167751 22496.5 163146 142444 141264 184334 182472 189456
118246 147952 196310 182838 171144 39785.9 163342 152723 29856.4 166574
199793 183733 196123 184309 166608 62075.1 17059.6 168425 52233.6 132911
173263 148535 160968 82614.8 168840 18145 172636 155087 150337 38031.7
169710 21873.8 186235 182860 179081 48295.2 157437 104708 171636 28427.4
173625 177902 148726 152828 181659 45634.7 122024 156543 36212.5 175544
178045 65184.1 201761 171686 78829.4 209371 198237 170992 164435 217887
197061 57538.9 185104 96417.3 167284 195733 220270 20199.5 176976 22141.8
177426 182416 43380 140565 158561 190612 53100.2 27458.3 178498 213674
193702 165383 112026 164813 161736 34575.1 180781 190326 200105 192379
49897 182431 80186.6 68701.6 189468 166018 177175 128646 94302.5 41448
185136 158529 164037 185378 185624 61540.2 196754 174363 106887 25330.4
186143 223269 47422.4 192601 180553 201794 56835.6 176303 217619 232127
27915 186642 239517 213837 147713 169564 33758 187968 174065 117847
238037 209628 81987 192068 172995 186230 40027.2 95172.5 190611 173985
71778 174046 199523 226296 204964 53443.9 202990 106787 182725 65030.4
206932 208944 200078 45582 195315 176445 132806 163281 176733 181705
113943 180272 194419 194459 60302.2 211869 50911.9 203059 33158.1 196014
35413.5 196564 96106.6 192152 83899.2 198012 40075.2 198165 187339 186769
108428 188680 183342 121556 74895 205856 147809 237262 182081 243728
231780 44702.7 201142 227272 246263 56886.2 213154 115856 187523 222509
239342 186424 68441.5 214125 186277 174570 49250.9 206037 217265 223389
132616 187913 188758 119087 210979 63726.8 220178 205861 97175.4 191924
213662 54433.6 86342.2 197773 189065 157974 109498 189273 43728.7 207068
44601.3 207612 206967 78112.9 194810 201980 118837 189007 46549.5 209329
192436 124308 60390.2 222595 49244.6 212404 71783.3 217700 192933 141255
190812 188519 122233 190614 227871 225062 229462 53122.4 217195 221831
226241 98887.5 185669 110373 183488 218044 215402 190835 170964 89119.3
192506 67159.8 226400 120790 184446 193747 123763 195689 129905 213425
199730 58181.2 224258 81255.1 204245 56246.5 218955 55414.3 219454 126281
187156 206563 186922 192279 152982 54058 221081 63983.8 231128 75126.9
218383 180934 195855 54580 223982 195565 125769 127258 190549 111685
175750 101086 178694 192786 138999 122099 176808 57682 228511 179468
182045 187114 91920.5 70655 230442 129426 180151 189872 185663 191026
200955 84346.7 234662 62290.6 189977 177363 191912 126652 179584 168262
191106 131238 187282 166104 230811 69389.5 131699 184239 67360.9 231296
183453 156471 63325.9 232872 78480.4 217484 67774.1 238384 113464 172955
179180 156571 123477 172984 176992 103469 178298 152165 61489 235711
131717 175717 187121 128699 130170 186306 94714.6 186062 152003 171422
63284.8 240025 74275.2 232208 177367 147649 135768 179838 87399.9 199960
153248 164433 67036 244402 129273 182503 115501 178076 132545 134824
81716.7 182715 243586 177203 125187 135312 127676 79376.7 244015 174525
141872 154322 159769 81824.6 216320 135966 121658 105955 182440 133702
178994 74178.6 245513 71964.3 243034 116887 134905 70348.1 248129 97469.4
190798 139159 182510 132990 115893 154716 157302 180282 132001 70317.3
251053 118512 131765 172098 138535 78122.4 231434 90388.3 202772 139710
185220 122508 132554 162667 188360 127120 72803.7 250925 154908 155712
117680 189458 189768 135728 108435 193508 126519 135439 171982 136994
142143 192968 85272.5 216530 92357.7 256662 183112 136347 90362 256823
76848.6 242880 85544 257435 155890 154142 100128 200578 163583 130253
139739 144331 194755 95449.3 95563 95216.9 80842.2 258048 95174.1 95668.4
94308 97534.4 79029 256665 229229 82397.8 175597 137460 93470.3 209960
203933 93419.9 129135 100919 134057 144615 205469 137821 141696 191513
158717 152077 119878 204748 166864 208622 144926 93849 105335 79940.8
250146 208282 110819 148554 209467 89062.2 138510 220260 149321 110247
97175 262609 101507 262380 100007 183138 140081 102877 214201 82780.1
238798 163940 149973 96284.3 261319 103466 115454 147460 204123 258588
91958.1 144106 153127 224721 139925 131215 222720 96924.9 227747 221581
147566 87434 229742 121045 111419 252964 122069 223001 89134.7 91498.9
89464.2 93733.3 171548 148886 87524.7 96356.7 152401 227647 144538 193790
113335 226001 85692.5 99536.6 244647 88534.6 151108 155610 127249 119888
84128 103308 153096 219856 93510.8 229430 107607 83229.9 106064 231167
257085 109629 90036.6 237855 257026 108506 128253 181196 149560 134261
105809 255778 142155 247732 112428 83678.3 250546 150102 133447 245205
159486 157006 206849 150322 252637 102590 249214 155991 124516 244921
101038 237553 117845 86015.1 237714 93612.5 248498 99825.2 136126 142194
158316 239066 247460 116368 192715 152194 123965 90229.5 169206 158012
245698 98251.1 98459.3 95872 101219 245318 98960.8 156760 222897 93383
104226 109959 252370 143160 151106 144683 276955 107555 91002.8 152732
279037 130907 96061.6 136066 273979 98600.4 247581 253799 275945 159459
116983 254446 116098 111296 88809.8 114139 255068 127555 180356 272926
159472 115546 86944.5 163207 263467 156667 206758 255229 112141 106069
259466 138767 103211 161034 149200 255828 101142 120424 85657 120158
275248 256589 110145 163211 244006 308956 126047 85179.8 111346 147580
108401 261240 155748 314774 193484 162030 147716 314230 270615 162981
309312 105692 172163 154426 281140 114754 162594 224999 311308 139316
132517 85677.6 167993 294468 108141 271533 123747 267412 108734 119956
157424 105887 111745 131372 309941 123044 268564 103160 114955 169427
121640 271176 272240 139928 87311.8 100531 118448 292307 112252 210109
165972 159263 185042 120596 275345 98035.4 122372 288146 109922 124850
312584 344272 119529 282576 95737.2 126866 169285 249848 128553 168514
90201.2 148383 159375 349734 166855 342575 151399 350984 172860 327094
132055 93762.6 118324 294028 143322 349250 320341 120630 309325 113748
200892 164184 175503 303808 158023 94534 171304 232574 138073 92270.4
181347 136893 136068 348311 118147 309883 130197 298526 299678 129645
145099 91409.4 176231 279203 302911 128676 119712 332701 304323 365711
100314 169119 349958 130575 128250 308813 360683 171363 119589 163761
328293 120558 368388 117540 123806 221809 169531 177992 114715 127331
347155 153323 91253.5 144825 197038 155820 371178 112035 131229 128005
318125 177766 259979 181694 326387 109486 135633 148171 370702 182245
107221 354245 127703 122913 162955 345478 91787.3 127697 330134 107107
140700 183278 302473 141748 368810 152327 217533 146647 105002 175544
247798 128121 342212 174361 93178.8 198513 114795 136676 329104 185018
282587 176658 354396 153679 329640 103269 136220 128393 357126 183606
168955 342089 362091 137427 365565 331517 135532 332400 161107 188179
324996 365074 129729 350641 135489 335208 162033 102008 188223 95605.6
159529 242429 190597 153991 304977 363268 135932 340111 182357 269927
122591 219488 134140 136000 358526 130918 137705 101250 172084 127983
141734 132918 352450 136570 344084 125288 146360 148536 355836 192776
287662 205654 99043.1 122783 151699 182757 311851 299870 189824 184344
100985 166655 263734 137872 344054 175008 318621 120472 157961 195088
284623 243304 130253 343477 138159 143382 336572 189871 145473 276534
340838 167388 318734 336189 142992 118426 165486 269848 198428 335298
142440 227134 103342 334911 199644 101326 140139 336051 333683 142658
160949 309955 174670 116701 201064 259452 143704 329655 137559 262360
173843 145512 315071 270323 185977 115390 218376 102344 143651 314953
156546 248936 290313 108284 196754 220739 145269 320219 189645 229304
254435 197857 202594 209150 181979 232370 199954 114527 151311 147636
206960 155553 199174 160506 144432 147647 300857 238751 104017 174803
227072 141605 166409 259360 154820 144431 148978 267553 275268 210086
194988 139070 173567 150438 304953 113553 264147 216549 114131 181005
252167 150125 302987 149629 296903 136794 169173 211707 182366 150894
267930 150052 285649 256673 106297 196679 206334 154708 193207 134787
234411 114281 218810 156295 204533 144570 151685 267100 139393 210986
197343 147753 165567 165918 187821 250251 150771 206195 133094 155086
223248 265992 118802 216434 134631 189971 147122 154179 239948 169418
188033 200709 251109 114938 133270 219914 266571 109128 220764 131823
141301 183444 157754 205736 159800 165577 160797 174347 215330 135900
235768 131006 123785 246732 175900 157906 216613 178764 131095 263307
116086 171112 181760 157704 156422 202738 213584 167143 188880 113551
157274 204553 120445 162134 168613 263245 112355 199748 163805 197392
220672 107949 213369 108903 123092 157889 249776 189647 130686 227193
106994 140505 194964 160947 206020 207316 109230 168311 132928 176739
119527 158482 160138 230534 169557 106728 218377 199085 108426 266524
117728 167237 135313 260571 130927 128302 200724 156375 230074 163566
146591 224481 107513 115742 239729 193371 106590 144376 161304 154645
241757 105872 177723 109986 119842 168356 256403 125623 104407 173650
113551 265199 131644 201486 109108 102967 189776 104536 153368 252286
232164 102060 223684 102116 239529 101986 165852 131412 165800 129763
132221 215973 145214 102091 119108 193280 241838 101970 174020 111470
165492 125103 122937 152581 259949 260873 132820 166330 118383 165320
110832 227111 181674 104469 122344 101961 209462 189059 102972 102066
213852 233232 207858 220501 202518 227756 169208 111490 197874 235466
180374 263037 104701 152352 193932 243356 204694 101765 206825 102277
243021 134455 106380 173540 122378 141792 190648 250780 135470 111790
191506 102015 125072 180241 259890 152736 246022 101379 253502 101375
187981 256682 187949 102302 236176 101380 103496 179554 101574 202387
253472 101376 168086 102542 227666 101372 260175 185921 207658 136498
101388 240895 247301 153659 174368 104146 174474 103962 102128 186773
174371 103456 221470 101356 125552 111300 103238 184471 260497 127933
134548 203293 101435 101551 196988 210194 101413 175502 102780 137959
102741 101454 102008 178979 102152 220930 155091 138909 256273 162457
183643 101337 217768 194972 101569 169219 101447 268696 101307 262608
101308 250431 246834 253780 101715 184126 101309 264707 243258 256581
101306 251870 101355 207757 244898 183482 239843 258616 130944 109396
128627 102759 101308 246598 217181 101320 182531 156995 236722 259625
101376 204498 242088 101306 101474 191427 101321 125067 141611 101479
139668 233989 259108 101314 210987 223015 184015 101385 101303 235895
231719 256172 183557 101533 101362 183797 101518 200711 220500 142849
159316 101309 183985 101474 168654 101316 101320 215432 229990 249521
134177 102564 185484 101417 190863 185231 131653 101492 101302 233543
144564 106782 283944 101300 185839 274055 101301 281478 101300 101305
211752 101319 189468 101366 228818 236936 101301 249078 271482 101300
101323 140835 101301 162065 115505 101330 187115 195339 154947 101305
228007 101301 208743 228207 216276 101309 260871 101300 235522 101300
224579 101304 137707 101477 147840 102233 101313 204121 262794 101302
166611 260757 264197 134812 101322 265102 257824 188452 228172 254538
101300 124931 189624 265558 253499 104442 165256 265648 246917 101305
216288 193524 101300 242478 101317 193873 101315 101303 278985 141924
101299 296594 101300 238700 265502 236677 194394 157695 228720 101312
246594 300428 101299 101299 253970 192067 196272 101308 265239 221511
151584 108283 101441 192740 101299 141641 101326 203117 294068 101299
231611 101301 200619 101303 168920 101889 129986 229881 264987 201120
101303 138350 163537 284848 101299 253902 230447 101299 207204 101301
259295 264819 176842 196511 102874 249141 101299 111773 231634 143470
101300 279263 217783 101300 155939 101319 264800 151385 101303 146132
276107 173183 101398 302132 237719 269826 314409 194346 233724 204389
101301 245601 266703 101299 252086 237249 204807 128468 101301 264952
142561 104125 101298 279830 233906 101622 200977 257210 226522 205636
101300 314744 261232 212991 160252 207852 101300 264382 196491 254294
112547 265234 161073 101303 236053 178286 266840 212444 309518 101299
177668 101316 229827 146036 237886 220094 236644 101994 101300 151394
282414 286086 157698 268732 101358 206131 219753 101299 104913 265705
304638 275741 262709 270157 101298 138096 222580 147737 295192 183987
101298 101299 232353 239798 315438 101298 101454 271169 121428 184524
101303 266256 158126 101298 167241 294490 101298 266338 102338 211902
101309 302326 252365 322944 292712 271859 216161 110214 157725 216616
150190 101298 267096 217735 220287 101330 243313 321145 101298 101570
267000 276807 104589 101298 272209 190537 202520 177365 154177 213095
163311 225086 301600 192078 101300 301313 222117 148796 204399 239985
218235 101301 174764 174942 229570 134547 273383 233089 267445 313717
102416 272099 267567 297184 158768 235610 121944 101364 101306 247085
297387 165489 101299 247724 240400 112385 156248 101640 271647 299937
308324 302660 101298 244031 106460 201043 225119 101298 305327 267925
270705 101313 162241 229226 101298 184086 246574 229719 103502 101301
250928 306645 101394 270883 231095 101298 189255 233911 170772 215411
294651 101298 248140 102171 290114 175059 163161 238865 101298 243214
298274 101302 267967 294556 101327 269662 232448 164418 101298 211290
101299 248695 101611 265315 247556 254600 101299 129567 138311 121441
306571 147055 114531 195565 155444 109212 172312 264031 101298 275990
163152 105675 248123 101401 279897 101298 267887 101308 101300 267580
276212 169960 103589 299014 186934 287344 175717 102420 240072 274537
101298 183125 173601 246529 101329 257747 243679 199420 222464 244253
171318 180297 101802 245845 265452 101301 219412 175109 266670 248797
304854 101298 259730 209081 275768 183603 101508 243914 101307 263002
253914 237622 184893 185592 101379 263548 262217 101300 247689 260114
101298 302535 249089 201640 240134 101302 234074 101298 265096 281324
250405 186176 247674 101330 101583 182845 187740 104712 106317 103526
183169 108392 102676 279352 101298 198008 252398 101416 223900 110923
102097 188935 257980 101299 301350 235104 185304 101312 113767 101734
213076 261563 258749 259456 200828 101344 254499 116657 101521 261348
262658 236834 307048 264629 119355 101404 183045 229931 101303 247768
250004 245444 218860 228722 270457 252486 121679 101345 244940 281783
179432 101301 289116 123448 101317 238878 197504 261883 199310 200943
259129 240020 232876 206859 101298 259517 220803 299324 102519 103096
102093 209656 124531 101306 254577 245375 101298 220278 101299 174520
258264 223867 255336 311152 124820 101302 236956 101639 275099 211227
101803 101517 275924 242276 234897 102013 101431 253999 260527 278334
168427 255954 102270 101374 124303 301521 236230 282731 252526 236135
102565 101339 262077 290551 102882 101319 101569 220778 261312 101699
101472 218164 228927 101298 221542 123031 103194 101310 101298 161295
272779 200068 303465 240964 262052 231142 101298 252751 234310 103475
101305 246372 253451 275250 315973 256604 121077 224412 101298 247078
103695 101301 246221 153285 261408 262557 313244 187531 103831 101300
268220 118601 250210 280412 296887 101298 297841 300976 244903 289343
264070 250874 101298 101300 103865 238750 243374 234850 209896 306682
144653 101298 258627 290524 247762 248789 115798 101331 101346 101319
315263 101298 173920 101366 101311 264968 258607 103797 101391 101306
260521 256040 324247 101419 101303 280212 250580 266113 307655 101298
276106 101449 101301 135760 101299 103634 112870 323550 101480 101300
192638 218400 247450 159615 259762 299247 101507 234763 304362 103390
263630 265564 278699 264483 316254 267762 110077 101528 127064 323521
269721 324170 267128 254549 243224 326370 323030 276090 101298 101541
101298 103093 329956 280799 173482 260550 145106 197125 332991 107668
101544 318567 259050 298510 212763 119245 329741 245709 340768 278686
102774 101303 101306 101303 101537 101307 101301 101312 101301 313890
266467 321021 268056 101313 261858 101300 220872 263286 219824 105738