/*--------------------------------*- C++ -*----------------------------------*\
  =========                 |
  \\      /  F ield         | OpenFOAM: The Open Source CFD Toolbox
   \\    /   O peration     | Website:  https://openfoam.org
    \\  /    A nd           | Version:  9
     \\/     M anipulation  |
\*---------------------------------------------------------------------------*/
FoamFile
{
    format      ascii;
    class       volScalarField;
    location    "0.00335";
    object      rho;
}
// * * * * * * * * * * * * * * * * * * * * * * * * * * * * * * * * * * * * * //

dimensions      [1 -3 0 0 0 0 0];

internalField   nonuniform List<scalar> 
26751
(
1.58814
1.75253
2.12774
2.08138
1.22581
1.24456
1.225
1.22501
1.3274
0.861194
1.59179
1.74469
1.2306
1.22702
1.22553
1.22518
0.804477
1.50628
0.914612
1.47558
0.902015
1.30743
0.797474
1.44113
1.37031
0.811746
1.65451
1.00725
1.53037
0.926883
0.970132
1.55368
0.95497
1.88276
1.92961
1.08904
1.10936
1.0736
1.61513
1.00645
1.96324
1.15432
2.09817
1.18861
0.800409
0.832228
0.827243
0.948736
0.942298
0.976431
0.983697
0.798575
0.823967
0.825019
0.937218
0.938994
0.972747
0.970988
0.822701
0.840799
0.854028
0.958919
0.973783
0.995196
1.01244
0.83864
0.900399
0.873493
1.02267
0.994667
1.03668
1.06844
0.903535
0.858452
0.859647
1.01485
1.06329
1.0656
1.01289
0.868707
0.907221
0.862559
1.01915
1.08025
1.07067
1.0275
0.878966
0.945896
0.894997
1.09545
1.04073
1.06061
1.11792
0.826059
0.916498
0.583464
0.813704
0.576772
1.01166
1.03113
0.734004
0.743502
0.838055
0.638142
0.600501
1.04883
1.02435
0.752328
0.749366
0.575439
0.62186
0.623298
0.623043
0.624377
0.671717
0.670025
0.579169
0.630303
0.625836
0.632771
0.627318
0.675159
0.681373
0.590132
0.637422
0.641389
0.648932
0.654564
0.691193
0.706282
0.61623
0.69012
0.666307
0.699538
0.673737
0.727854
0.756222
0.674729
0.735733
0.6763
0.727526
0.789453
0.791764
0.7255
0.815214
0.703189
0.704547
0.756032
0.86996
0.754233
0.871921
0.683554
0.738459
0.678888
0.731373
0.803689
0.796015
0.738295
0.713905
0.818881
0.707757
0.759897
0.884823
0.767078
0.876372
0.691388
0.766891
0.704256
0.816142
0.749376
0.76638
0.835209
0.723948
0.856656
0.739527
0.898818
0.778773
0.796714
0.92007
0.816679
0.723458
0.788282
0.7903
0.895234
0.861631
0.821203
0.882803
0.791473
0.761913
0.821866
0.985518
0.854236
0.949109
0.816803
0.935955
1.01428
0.88447
0.886939
0.81463
0.938272
0.821266
0.953174
1.02016
0.901192
0.891967
0.829456
0.943455
0.969072
0.916185
0.842783
0.862993
1.07469
0.938668
0.992748
0.972666
0.949251
0.91821
1.08806
1.1858
1.14817
1.12301
1.06308
0.925786
1.00649
0.968986
1.14877
1.10842
0.89076
1.12127
1.31482
1.11206
1.15284
1.37738
1.16287
1.3637
1.56398
2.24749
2.18428
1.82522
2.25026
2.20184
1.78146
1.10686
1.30363
1.10419
1.14726
1.35176
1.1445
1.35575
0.956913
1.01735
1.01969
1.12231
1.12501
1.19334
1.19029
1.03515
0.961417
1.02504
1.1418
1.1309
1.20008
1.21237
1.65003
2.2222
2.2419
1.99834
2.07634
2.17075
1.85786
1.34558
1.15413
1.13491
1.39719
1.17787
1.19926
1.42412
1.07606
0.984566
1.05164
1.159
1.18393
1.23153
1.25881
1.19579
1.48021
1.24971
1.40873
1.25304
1.19279
1.41301
1.40214
1.2125
1.17983
1.22787
1.50096
1.26386
1.4587
1.20195
1.43662
1.27244
1.48978
1.25998
1.21307
1.42168
1.03629
1.10842
1.14779
1.25672
1.21673
1.29394
1.3358
0.5658
0.610858
0.520545
0.57344
0.570807
0.518602
0.713391
0.716546
0.568838
0.576561
0.534363
0.518398
0.721799
0.771684
0.573762
0.614151
0.520021
0.531013
0.554596
0.52992
0.552862
0.573949
0.575243
0.519338
0.549973
0.529669
0.529226
0.551014
0.57278
0.572761
0.520016
0.550206
0.531677
0.53631
0.552926
0.574592
0.57943
0.524918
0.5708
0.557244
0.544647
0.559404
0.5884
0.602292
0.546702
0.5657
0.546023
0.598715
0.628058
0.627789
0.599423
0.571892
0.571519
0.572292
0.60434
0.61682
0.60414
0.615346
0.574935
0.57129
0.573767
0.605434
0.614408
0.606371
0.614805
0.566433
0.547322
0.545931
0.598325
0.630239
0.628156
0.599309
0.572163
0.582801
0.575661
0.620245
0.605845
0.610946
0.627381
0.550792
0.582472
0.557436
0.635306
0.602638
0.609534
0.644594
0.596636
0.593903
0.583497
0.620791
0.658288
0.636144
0.639803
0.583532
0.59589
0.568309
0.62107
0.678855
0.658985
0.637693
0.6413
0.682509
0.661687
0.713842
0.682086
0.641979
0.662077
0.640591
0.664182
0.7145
0.683204
0.68191
0.641038
0.662578
0.668314
0.687629
0.643915
0.650814
0.732077
0.69673
0.676786
0.286002
0.276304
0.378053
0.32912
0.293314
0.289232
0.3435
0.347093
0.27968
0.303662
0.308252
0.280543
0.281895
0.304492
0.303535
0.2835
0.314551
0.312168
0.285487
0.283726
0.306331
0.308487
0.370382
0.359132
0.33536
0.374613
0.340169
0.330446
0.360671
0.345533
0.377528
0.343711
0.332526
0.363524
0.334586
0.362341
0.291204
0.300379
0.30308
0.319715
0.310447
0.311509
0.321803
0.295362
0.308668
0.305964
0.313356
0.327381
0.324365
0.315792
0.334948
0.3715
0.363329
0.335466
0.37244
0.345013
0.363505
0.373879
0.364452
0.376158
0.350062
0.366051
0.339379
0.337013
0.401444
0.492476
0.506905
0.487524
0.436292
0.486997
0.411202
0.509707
0.402773
0.406456
0.485953
0.394664
0.514418
0.549816
0.408153
0.435803
0.405996
0.391755
0.40962
0.392992
0.438926
0.422863
0.422138
0.411814
0.43976
0.394507
0.394111
0.440434
0.423794
0.424351
0.408579
0.406151
0.437456
0.395693
0.435061
0.424781
0.426025
0.393913
0.401683
0.393526
0.422896
0.430956
0.430736
0.423672
0.460566
0.488074
0.46204
0.450363
0.484875
0.483984
0.450425
0.405525
0.435443
0.406477
0.399545
0.434192
0.430066
0.437616
0.48791
0.461982
0.462702
0.450888
0.48431
0.451559
0.483717
0.394034
0.404741
0.395132
0.423352
0.434225
0.43181
0.424878
0.460558
0.485455
0.458988
0.485995
0.452734
0.455215
0.489729
0.397224
0.413774
0.401201
0.438371
0.427642
0.432314
0.444861
0.461245
0.486945
0.458793
0.46053
0.507441
0.469502
0.496756
0.419487
0.423038
0.408699
0.440107
0.468012
0.454663
0.451323
0.453795
0.463441
0.494279
0.506615
0.463093
0.493308
0.454733
0.454135
0.507302
0.494713
0.466889
0.464109
0.456002
0.493232
0.49811
0.471627
0.45941
0.464965
0.522274
0.47902
0.504106
0.473529
0.526743
0.533981
0.504073
0.48977
0.485359
0.513575
0.662959
0.711515
0.748575
0.732421
0.711527
0.680879
0.690992
0.268453
0.242097
0.225614
0.261774
0.252422
0.296059
0.30993
0.29578
0.263359
0.25886
0.278786
0.25255
0.288055
0.298398
0.298387
0.321258
0.221403
0.23236
0.226519
0.248848
0.25719
0.261554
0.243914
0.25671
0.282339
0.279696
0.284305
0.29936
0.28369
0.294258
0.238238
0.237911
0.232928
0.252811
0.261567
0.263245
0.25453
0.233049
0.255264
0.236862
0.250502
0.26056
0.246717
0.262764
0.269974
0.258745
0.275151
0.275375
0.28033
0.287991
0.280851
0.275314
0.268244
0.266204
0.28944
0.283805
0.280218
0.285314
0.260742
0.271729
0.263598
0.276175
0.276481
0.271455
0.281014
0.245882
0.259232
0.242044
0.254148
0.267001
0.256652
0.265247
0.27203
0.286535
0.307486
0.292136
0.294364
0.287156
0.267969
0.306676
0.315355
0.317667
0.309878
0.302396
0.304085
0.311977
0.274281
0.280304
0.302604
0.291942
0.294292
0.284951
0.273853
0.282678
0.286799
0.272272
0.267619
0.290189
0.286595
0.275297
0.287926
0.307773
0.295834
0.297041
0.295522
0.30443
0.288651
0.305187
0.303919
0.295603
0.291044
0.300737
0.299195
0.293933
0.285577
0.282584
0.286377
0.295035
0.293291
0.279259
0.288724
0.271077
0.28004
0.290458
0.29338
0.2894
0.272912
0.278072
0.237486
0.244778
0.2409
0.263848
0.25757
0.258997
0.272178
0.280545
0.289255
0.244458
0.277355
0.262859
0.287975
0.289994
0.326555
0.274401
0.26504
0.254223
0.258271
0.269177
0.272689
0.263714
0.262308
0.241296
0.245519
0.244201
0.259376
0.255397
0.256964
0.257407
0.2572
0.256701
0.251598
0.270452
0.265372
0.258199
0.26265
0.248184
0.265095
0.251018
0.268753
0.258537
0.262019
0.272622
0.235502
0.247018
0.244098
0.249758
0.24334
0.241136
0.253009
0.245197
0.252667
0.247847
0.26078
0.256898
0.267036
0.256302
0.239827
0.248063
0.249499
0.254343
0.249187
0.245275
0.255254
0.275568
0.278942
0.272393
0.264945
0.272883
0.271484
0.267883
0.279744
0.286084
0.279642
0.270419
0.281468
0.276977
0.271931
0.262865
0.270244
0.256181
0.2686
0.290492
0.277556
0.280141
0.275321
0.289642
0.272594
0.27336
0.286223
0.290257
0.271865
0.291587
0.282525
0.298716
0.278103
0.304096
0.295374
0.287337
0.257129
0.251539
0.258393
0.265431
0.264483
0.249827
0.259372
0.261543
0.260582
0.262958
0.275486
0.269008
0.253948
0.265224
0.277582
0.272323
0.285458
0.303161
0.294904
0.284872
0.27076
0.285461
0.307899
0.314873
0.313518
0.303314
0.295829
0.295995
0.377523
0.298196
0.286884
0.37675
0.312042
0.31224
0.379706
0.407629
0.288288
0.315527
0.287242
0.316695
0.290772
0.310749
0.314224
0.292199
0.324239
0.31961
0.308271
0.297988
0.320931
0.330531
0.345725
0.375579
0.346015
0.364541
0.336669
0.339773
0.366549
0.298073
0.318199
0.303063
0.33141
0.318939
0.323991
0.337617
0.350835
0.375965
0.347825
0.345613
0.37847
0.353949
0.371223
0.324225
0.328218
0.34175
0.33296
0.361507
0.347866
0.344991
0.354162
0.368491
0.342534
0.347468
0.385388
0.360298
0.372788
0.356024
0.391502
0.383467
0.394887
0.370288
0.367409
0.380687
1.45834
1.29121
1.22981
1.25369
1.56302
1.31767
1.48785
1.09173
1.17266
1.16965
1.2709
1.35369
1.35754
1.2675
1.19242
1.09788
1.17962
1.27853
1.38152
1.36617
1.2923
1.28528
1.57167
1.39406
1.6045
1.35214
1.3244
1.52565
1.24073
1.12775
1.21246
1.40442
1.3134
1.34273
1.43544
1.92547
2.15663
1.88141
2.15611
1.74699
1.66436
2.17855
1.55879
1.31587
1.31958
1.39606
1.64524
1.39194
1.65097
1.34137
1.56959
1.32742
1.40493
1.68454
1.42052
1.66333
1.22934
1.3178
1.2763
1.37959
1.5183
1.47373
1.42265
2.18115
2.10627
1.95678
1.60944
2.19524
2.22933
1.40999
1.36229
1.65133
1.39137
1.71565
1.44363
1.47516
1.75662
1.55876
1.61952
1.6251
1.9152
1.92126
1.98546
1.98001
1.47272
1.69709
1.42849
1.5146
1.86557
1.56105
1.80689
1.57447
1.656
1.63663
1.95353
1.93386
1.99707
2.01508
1.48315
1.75501
1.88957
1.5769
1.58207
1.47856
1.76156
1.49315
1.80007
1.90482
1.61304
1.59345
1.51051
1.77596
1.6167
1.6842
1.72142
1.98028
2.01273
2.03914
2.06786
1.69298
1.8225
1.76767
2.08512
2.04815
2.09884
2.13008
1.83424
1.64135
1.53587
1.56987
2.00447
1.67872
1.87811
1.73429
1.80211
1.71277
2.0581
2.12687
2.11374
2.07386
1.78806
1.69346
1.69972
2.04824
2.1024
2.10572
2.04381
1.61206
1.98556
2.05081
1.78093
1.72501
1.66197
1.9295
1.76499
1.89924
1.80501
2.14431
2.09479
2.11914
2.16427
1.90976
1.94684
1.85386
2.14491
2.20627
2.18556
2.17039
1.88803
1.98445
1.99027
2.15302
2.15527
2.19781
2.19645
1.90237
2.02415
2.00334
2.17256
2.16164
2.20266
2.211
1.99503
2.05165
2.08391
2.18737
2.20373
2.22138
2.23167
2.03776
2.1511
2.11791
2.23245
2.21933
2.24104
2.24785
1.61874
1.23203
1.22654
1.22615
1.81315
1.67944
1.88409
2.175
2.24884
2.17662
2.19918
2.2425
2.19805
2.24057
2.18937
2.24823
2.18127
2.20309
2.23652
2.20987
2.23892
2.07972
2.15871
2.08405
2.22722
2.24362
2.24274
2.22697
0.783084
2.04454
2.22815
1.22521
1.225
0.891362
1.80511
1.2259
1.22501
0.699856
1.11349
0.95705
1.10787
0.851681
0.993927
1.35918
1.02809
1.67998
1.48757
1.94636
1.71366
1.14213
1.04891
0.666186
0.720173
0.731766
0.756021
0.769863
0.791006
0.831704
0.7388
0.844624
0.797448
0.86273
0.813493
0.878101
0.930295
0.7817
0.89291
0.820051
0.93538
0.858615
0.902045
0.981494
1.81643
1.28004
1.16677
2.1436
1.27538
1.53659
2.25023
0.8278
1.00373
0.870287
1.02846
0.893259
0.938338
1.07715
0.929452
0.935113
0.9774
1.05813
1.10091
1.10748
1.15333
0.91469
0.940284
0.86431
0.951271
1.09062
1.03328
1.00631
1.056
0.972561
0.918564
0.989147
1.18956
1.04555
1.13099
0.975243
1.08199
1.02663
1.20696
1.1506
1.20566
1.26428
0.967354
1.05025
1.19451
1.01481
1.24489
1.09951
1.15784
0.987897
1.09674
1.03345
1.23012
1.16491
1.21328
1.28059
0.701172
0.661032
0.662146
0.548096
0.801168
0.636819
0.729092
0.92663
0.565154
0.587097
0.573709
0.593377
0.607544
0.620923
0.6438
0.632112
0.609043
0.585311
0.643045
0.616336
0.670939
0.702745
0.638953
0.633763
0.615268
0.682806
0.656945
0.682886
0.713001
0.602713
0.663446
0.625503
0.703882
0.659178
0.685193
0.733622
0.240596
0.325289
0.411126
0.225741
0.230389
0.235946
0.254349
0.259087
0.256928
0.285204
0.265311
0.245908
0.286293
0.294567
0.322
0.321244
0.396137
0.344066
0.381527
0.306266
0.338717
0.423757
0.413602
0.481818
0.227983
0.2258
0.223442
0.235798
0.234214
0.230498
0.231061
0.23164
0.234162
0.226619
0.246072
0.238682
0.235418
0.24612
0.258832
0.24951
0.26665
0.259853
0.275331
0.285495
0.265652
0.270997
0.297604
0.281506
0.302876
0.288547
0.301219
0.316485
0.224898
0.22416
0.222581
0.230363
0.232142
0.233205
0.229936
0.245129
0.254724
0.244465
0.242249
0.252744
0.253806
0.241784
0.330858
0.317009
0.320885
0.34017
0.343042
0.334524
0.356312
0.228109
0.235706
0.225483
0.235413
0.254804
0.238498
0.249116
0.249198
0.259683
0.272173
0.247307
0.274417
0.258856
0.26034
0.289478
0.255987
0.276737
0.297284
0.283803
0.273779
0.310735
0.276647
0.314126
0.293526
0.305833
0.301402
0.283546
0.326612
0.308653
0.310756
0.294171
0.315439
0.347273
0.330881
0.331384
0.24281
0.244093
0.253608
0.258781
0.255161
0.245958
0.241585
0.308392
0.342025
0.328864
0.322374
0.358919
0.344357
0.337134
0.355914
0.38795
0.363562
0.389615
0.365747
0.378433
0.402031
0.330014
0.365815
0.352357
0.365273
0.349439
0.37089
0.386432
0.35784
0.378055
0.359687
0.375254
0.354178
0.375163
0.3957
0.248056
0.27008
0.278815
0.264418
0.260453
0.251571
0.264058
0.318526
0.302566
0.310763
0.354987
0.292316
0.340322
0.33255
0.337686
0.370602
0.377003
0.378774
0.361099
0.354057
0.353385
0.387619
0.398106
0.374532
0.392558
0.431519
0.407922
0.415984
0.405457
0.399817
0.381722
0.396848
0.441306
0.417357
0.420369
0.388173
0.393857
0.370691
0.391664
0.434591
0.414511
0.409159
0.41323
0.454931
0.460569
0.456782
0.436268
0.430825
0.436881
0.550482
0.439061
0.502429
0.409958
0.56938
0.45188
0.483935
0.648435
0.415849
0.439057
0.417309
0.445975
0.429813
0.448564
0.461357
0.425882
0.470881
0.457086
0.459845
0.443892
0.47588
0.492652
0.467091
0.515821
0.477088
0.52113
0.481349
0.495298
0.537437
0.433273
0.469746
0.44831
0.4844
0.465094
0.48054
0.502941
0.506007
0.490378
0.531762
0.511345
0.57801
0.53002
0.556195
0.511998
0.465151
0.489686
0.498037
0.547779
0.523962
0.517948
0.543159
0.52151
0.499881
0.516595
0.592218
0.541578
0.562393
0.535755
0.610067
0.618427
0.59078
0.564551
0.557784
0.584535
0.734574
0.695725
0.667531
0.713885
0.790168
0.750271
0.74871
0.682355
0.651867
0.694029
0.715682
0.807844
0.7681
0.751135
0.738231
0.759151
0.704395
0.733199
0.836739
0.791298
0.770816
0.767237
0.853847
0.878441
0.872411
0.828889
0.806936
0.809243
1.06776
1.27144
1.29969
1.2128
1.1538
1.12592
1.21243
1.20817
1.08509
1.14998
1.2678
1.39784
1.33663
1.32807
2.20239
2.05477
2.02234
2.1892
1.65892
2.05126
2.00986
1.25236
1.54224
1.29961
1.55121
1.30711
1.35754
1.61003
1.11741
1.19301
1.30305
1.24332
1.35488
1.38332
1.4361
1.41628
1.60608
1.3543
1.41494
1.75839
1.47912
1.67822
1.62597
1.44274
1.37065
1.42366
1.78275
1.49779
1.68917
1.22107
1.3579
1.29827
1.47436
1.41185
1.49456
1.55975
1.36433
1.41585
1.3262
1.56911
1.47127
1.52583
1.62711
1.48318
1.84813
1.86104
1.62937
1.55956
1.5496
1.76358
1.44268
1.47288
1.38177
1.58719
1.77164
1.69392
1.65716
1.88552
2.25103
2.1466
2.17156
1.30165
2.0189
1.24989
1.52344
1.88876
1.58093
1.93086
1.6146
1.67614
1.99937
1.874
1.88516
1.95218
2.12131
2.15552
2.16009
2.18875
1.96606
1.7214
1.64633
1.74735
2.13263
1.83097
2.06878
2.04488
1.84592
1.72002
1.78852
2.18463
1.91978
2.10299
1.94796
2.08538
2.02046
2.21553
2.18733
2.21447
2.23392
1.96922
2.10225
2.03047
2.2241
2.19545
2.21759
2.23781
1.86752
2.20138
2.22172
2.08075
1.99886
1.95524
2.15567
2.14149
2.14836
2.08901
2.23453
2.251
2.24744
2.2463
1.26342
1.22609
1.24757
1.22582
1.24397
1.22529
1.27039
1.22966
1.25363
2.26295
2.25041
2.26025
1.26189
1.2837
2.26851
1.24915
1.23614
2.26038
2.24499
2.19958
1.2411
2.23358
2.2409
2.25271
1.25422
1.23348
1.73048
1.23561
1.7912
1.2315
1.22816
2.23341
2.17633
2.0346
1.23067
2.12436
1.22871
1.94527
2.06196
1.54259
1.22538
1.22593
1.76383
2.24581
2.20041
2.21258
2.23239
2.21875
2.22799
2.22514
2.11076
2.16603
2.0943
2.23009
2.24544
2.24365
2.23541
2.2345
2.2435
2.19367
2.23453
2.22433
2.23663
2.21299
2.18269
2.24291
2.1237
2.16247
2.2121
2.24962
2.24874
2.13224
2.21325
2.15655
2.24684
2.24175
2.24715
2.24585
2.21807
2.19821
2.22767
2.23174
2.23166
2.21761
2.22509
1.8617
1.46205
1.22525
1.22519
1.28056
1.23102
1.22506
2.24722
2.16445
2.24288
2.17183
2.24764
2.24657
2.12131
2.22095
2.21743
2.23724
2.19288
2.2337
2.22602
2.2221
2.24931
2.24399
2.20685
2.23
2.18189
2.25009
2.24074
2.20967
2.24129
2.23273
2.23939
2.15011
2.24423
2.19701
2.19808
2.25195
2.23581
2.24306
2.25068
2.23803
2.21313
2.24115
2.24663
2.14812
2.24437
2.12007
2.2447
2.17739
2.2075
2.24289
2.26202
2.25505
2.22864
2.2453
2.22766
2.25998
2.26458
2.2621
2.12083
2.11998
2.10188
2.13703
2.26674
2.26617
2.26414
2.15525
2.13303
2.14039
2.14829
1.2256
1.64959
1.72699
1.3078
1.28593
1.22506
1.22509
2.15126
2.23937
2.23851
2.23425
2.07962
2.23618
2.07149
2.25626
2.25407
2.25904
2.09668
2.03493
2.07454
2.06063
2.26445
2.25712
2.26156
2.11068
2.08644
2.07725
2.11865
2.24032
2.14218
2.23914
2.23287
2.03097
2.23088
2.05611
2.25681
2.25555
2.25122
2.09426
2.07308
2.0314
2.05581
1.22503
1.32122
1.2252
1.22549
1.59885
1.27461
1.22505
2.24095
2.07359
2.23928
1.99386
2.2267
2.21839
1.94228
2.12574
2.2394
2.24742
2.23909
1.95557
2.22202
2.0559
2.25216
2.23607
2.2453
1.99841
2.04167
1.99644
1.94958
2.24576
2.22558
2.23228
1.98181
2.01054
1.94569
1.91469
2.2404
2.24939
2.23681
2.03949
2.02929
1.97729
1.96618
2.23161
2.2448
2.10607
2.2367
1.91907
2.21416
2.04168
2.24721
2.22635
2.24178
1.97563
1.93468
2.00279
1.90542
2.2216
2.21559
2.23386
1.93775
1.80848
1.88739
1.86383
1.80406
2.18802
2.19281
2.22122
2.21715
1.89992
1.88805
2.22145
2.21524
2.19954
1.94204
1.88976
1.87135
1.81391
1.7877
1.95573
2.22193
2.02409
2.23352
2.20384
1.875
2.11584
2.25058
2.26136
2.26204
2.25713
2.19815
2.1494
1.76683
2.16809
2.18032
2.2022
2.2113
1.86547
1.83087
2.20315
2.14372
2.17651
1.74002
1.82218
1.74288
1.6602
1.62238
1.68217
2.14986
2.18841
2.16801
1.7835
1.72359
2.21213
1.94281
2.1655
1.73296
2.16021
2.21548
1.93117
2.20774
1.87417
1.70566
2.13718
2.1514
2.20078
1.90894
1.69231
2.14582
2.15173
2.09447
2.08698
1.57148
1.55966
2.22011
1.82379
2.13785
1.80189
2.18497
2.19096
1.94741
1.65496
2.12015
2.13575
2.0503
2.07307
1.53766
1.50692
2.08817
1.55448
1.48577
2.09968
2.13918
1.65218
1.57182
1.82447
2.11535
2.18954
2.17172
1.54459
2.08148
1.75872
1.23269
1.22502
1.22502
1.28961
1.22513
1.22632
1.22502
1.68169
1.86765
2.20232
1.75496
2.17133
2.09405
1.56413
1.51898
1.57214
2.09689
2.01657
1.96992
1.46933
1.42725
0.856955
0.783242
1.29639
0.834742
1.43698
0.862683
1.3824
1.25594
0.76598
0.796791
0.981134
1.61378
1.16874
1.3206
1.46915
0.883756
0.765854
0.784398
0.78396
0.897228
0.904984
0.919186
0.927657
0.7719
0.803251
0.790513
0.928297
0.915843
0.939821
0.953786
0.812094
0.818688
0.836736
0.942847
0.96117
0.970425
0.991864
0.806659
0.836198
0.806682
0.981174
0.946577
0.956306
0.992445
0.829202
0.845969
0.814598
0.970004
1.02572
0.985825
1.00771
0.831205
0.890296
0.859809
1.01743
0.985429
1.02013
1.05639
0.847183
0.909574
0.868915
1.04829
1.00524
1.0304
1.07714
1.26511
1.06216
1.07126
1.29054
1.08975
1.09998
1.30069
0.931771
0.94168
0.896551
1.06277
1.1565
1.11316
1.10287
1.09658
1.27823
1.08246
1.11244
1.33523
1.12805
1.31517
1.16531
1.33234
1.12382
1.13521
1.39487
1.34362
1.17785
1.1149
1.13859
1.35124
1.36191
1.1485
1.17508
1.39542
1.14894
1.38183
1.21247
1.41253
1.16633
1.35963
1.19294
1.38874
1.43384
1.20638
1.20869
1.48463
1.43607
1.25004
1.41115
1.23846
1.18938
1.21923
1.50911
1.44768
1.27169
0.570265
0.681076
0.640284
0.663916
0.872681
0.748169
0.729051
0.750923
0.827807
0.68588
0.508178
0.490161
0.725975
0.674025
0.833316
0.745415
0.633439
0.818094
0.843924
0.834371
0.810743
0.725381
0.836401
0.755781
0.554751
0.768457
0.707527
0.790391
0.622092
0.650604
0.574197
0.570373
0.754378
0.87544
1.04379
0.893715
0.729191
0.650729
0.85805
0.863922
0.848795
0.883576
0.86051
0.783437
0.808345
0.578502
0.530391
0.598862
0.521798
0.524102
0.545102
0.538608
0.829208
0.730178
0.809755
0.677207
0.616761
0.594761
0.702134
0.495096
0.513619
0.504591
0.546103
0.529897
0.546688
0.566821
0.61711
0.558776
0.538296
0.585715
0.563086
0.558126
0.583866
0.701072
0.665254
0.623954
0.704121
0.728312
0.644422
0.681609
0.581701
0.659954
0.593551
0.609816
0.680044
0.596459
0.675658
0.538754
0.551295
0.524869
0.569978
0.629597
0.600591
0.594675
0.581134
0.6882
0.589645
0.691474
0.596092
0.60601
0.707787
0.537768
0.514565
0.543555
0.569505
0.594644
0.599394
0.628563
0.778428
0.724351
0.754146
0.666424
0.725875
0.701165
0.690209
0.628862
0.701162
0.721588
0.639152
0.615125
0.69551
0.651983
0.623131
0.704896
0.603961
0.623232
0.75366
0.727924
0.646554
0.602808
0.602624
0.56735
0.664984
0.626656
0.664003
0.705161
0.607877
0.57843
0.619098
0.680246
0.636174
0.668758
0.715732
0.714723
0.642195
0.615998
0.62843
0.768847
0.7342
0.658313
0.64965
0.716397
0.789498
0.798059
0.75878
0.684045
0.677672
0.648009
0.787133
0.676205
0.791816
0.680441
0.713169
0.829248
0.682003
0.687456
0.642513
0.707122
0.803167
0.756744
0.750904
0.754343
0.827699
0.711831
0.752706
0.924674
0.798482
0.873759
0.838469
0.770532
0.721323
0.757888
0.937938
0.810262
0.879711
0.817275
0.547164
0.80831
0.825362
0.716936
0.770812
0.688777
0.56367
0.802409
0.755474
0.81411
0.76422
0.80705
0.818584
0.817716
0.744847
0.703919
0.761119
0.784292
0.809848
0.799152
0.779684
0.782521
0.772971
0.807978
0.830772
0.823395
0.818528
0.822253
0.80004
0.641106
0.737573
0.752934
0.805611
0.776632
0.653548
0.786098
0.660624
0.674943
0.730854
0.790765
0.77704
0.774903
0.631901
0.673643
0.63998
0.733643
0.810882
0.826283
0.810625
0.795344
0.647918
0.633366
0.669021
0.652271
0.701105
0.669018
0.701504
0.710182
0.717558
0.680994
0.785775
0.744251
0.743847
0.787547
0.636009
0.664009
0.657617
0.674686
0.670463
0.703151
0.707913
0.695316
0.72517
0.687833
0.745253
0.798375
0.790869
0.750728
0.727619
0.815792
0.773743
0.800457
0.726931
0.771429
0.821735
0.788554
0.810223
0.804827
0.803761
0.799173
0.813632
0.817662
0.731277
0.804156
0.726839
0.769888
0.832938
0.826008
0.773761
0.817385
0.809747
0.825137
0.803507
0.83453
0.824465
0.808435
0.568307
0.694881
0.527994
0.48101
0.496537
0.693819
0.535657
0.812905
0.767055
0.7821
0.783691
0.671957
0.663741
0.793097
0.575267
0.56613
0.518954
0.693614
0.560895
0.546049
0.691408
0.563788
0.591996
0.560569
0.518483
0.620199
0.579026
0.543631
0.526449
0.635221
0.575086
0.664606
0.541395
0.529484
0.520337
0.529534
0.564855
0.557925
0.610801
0.542239
0.531836
0.545521
0.566476
0.515333
0.54034
0.52344
0.556434
0.530857
0.546336
0.574847
0.503892
0.489264
0.510841
0.516428
0.515504
0.534592
0.54101
0.553984
0.536673
0.55791
0.566853
0.624252
0.597463
0.591701
0.539105
0.570632
0.538115
0.558528
0.604649
0.586817
0.570604
0.577733
0.551097
0.590133
0.564497
0.617224
0.599869
0.577123
0.658317
0.685987
0.643143
0.649203
0.60792
0.626742
0.590117
0.65258
0.62626
0.64985
0.705641
0.486197
0.4241
0.49275
0.41508
0.6363
0.682071
0.606723
0.575716
0.666617
0.625545
0.589929
0.461653
0.542269
0.572403
0.483903
0.44458
0.486047
0.596038
0.623658
0.516487
0.397469
0.508673
0.513275
0.562039
0.576933
0.686229
0.523331
0.5871
0.556353
0.435404
0.431679
0.410287
0.47115
0.447284
0.442517
0.479356
0.490872
0.493229
0.518302
0.505808
0.528873
0.525981
0.541962
0.563206
0.610523
0.495164
0.396219
0.31797
0.390032
0.307445
0.721174
0.73534
0.634894
0.661681
0.548963
0.63487
0.764355
0.477832
0.554687
0.516553
0.506115
0.488391
0.526481
0.545276
0.471466
0.540643
0.504332
0.519564
0.482413
0.513306
0.549492
0.425451
0.475315
0.459876
0.476705
0.456626
0.491723
0.508023
0.502878
0.53887
0.519713
0.567641
0.544089
0.559542
0.58176
0.504033
0.528369
0.518631
0.544602
0.535614
0.553261
0.562972
0.570587
0.595539
0.610044
0.599226
0.561935
0.579888
0.616929
0.53595
0.478219
0.441996
0.489335
0.521708
0.411821
0.459045
0.506602
0.531133
0.494099
0.52482
0.572741
0.560429
0.538449
0.502098
0.493907
0.49733
0.53353
0.525084
0.533391
0.535959
0.588473
0.587273
0.551497
0.560054
0.615701
0.580513
0.594567
0.592782
0.580725
0.560119
0.59016
0.623347
0.603519
0.634301
0.543519
0.550432
0.533675
0.572671
0.604133
0.592591
0.582252
0.611325
0.627663
0.653453
0.600461
0.664411
0.623687
0.638896
0.337492
0.270512
0.321464
0.226692
0.278616
0.331812
0.354368
0.366017
0.216074
0.260682
0.246454
0.234997
0.266949
0.282468
0.248223
0.31258
0.293896
0.324136
0.278896
0.299446
0.313184
0.3425
0.241429
0.235379
0.26866
0.287602
0.261229
0.288058
0.257313
0.295784
0.308487
0.321327
0.255753
0.287725
0.302315
0.271299
0.301271
0.298631
0.329021
0.316602
0.357217
0.319883
0.348896
0.349645
0.337469
0.348125
0.376446
0.318598
0.330456
0.359982
0.305622
0.327382
0.335133
0.30644
0.286737
0.30955
0.279681
0.383942
0.391826
0.361543
0.335864
0.374487
0.340366
0.36739
0.214325
0.224658
0.370293
0.41282
0.197673
0.261788
0.122835
0.320562
0.190822
0.168966
0.17665
0.205793
0.183598
0.192782
0.215172
0.154959
0.145152
0.161427
0.162301
0.168633
0.190453
0.206561
0.205117
0.20437
0.185801
0.210205
0.236751
0.240213
0.225613
0.229783
0.248768
0.269544
0.224627
0.201948
0.218973
0.238435
0.278224
0.206169
0.184979
0.224988
0.335355
0.27731
0.267536
0.283768
0.265832
0.240525
0.212368
0.199448
0.231363
0.264927
0.325823
0.309142
0.290351
0.249625
0.271585
0.297309
0.253439
0.386826
0.376409
0.337687
0.278514
0.384977
0.335245
0.325834
0.482024
0.450653
0.392711
0.363883
0.522208
0.412761
0.376181
0.483672
0.346885
0.380947
0.35437
0.385756
0.372425
0.394858
0.403704
0.362112
0.41301
0.39585
0.393186
0.381603
0.414068
0.427931
0.415883
0.454702
0.41924
0.46081
0.42752
0.436329
0.470573
0.378708
0.402911
0.389258
0.42102
0.408815
0.418788
0.431223
0.423151
0.407206
0.398057
0.428724
0.45409
0.439777
0.44118
0.447522
0.465083
0.42965
0.447844
0.499138
0.462506
0.48261
0.47213
0.451023
0.440116
0.450625
0.494331
0.484288
0.461698
0.461178
0.506094
0.486491
0.510414
0.473691
0.496292
0.471785
0.468927
0.370822
0.473455
0.435662
0.477847
0.430357
0.421713
0.382492
0.227649
0.503176
0.283435
0.347414
0.410786
0.451364
0.475702
0.363868
0.355344
0.275298
0.236814
0.256485
0.293137
0.257728
0.289769
0.354003
0.298286
0.248019
0.265761
0.292249
0.269838
0.293246
0.309941
0.29113
0.353871
0.415368
0.348657
0.396761
0.337563
0.387092
0.430567
0.311842
0.382449
0.333092
0.370192
0.32892
0.350259
0.398693
0.424132
0.430338
0.507272
0.231765
0.23856
0.237601
0.233105
0.405307
0.459046
0.408954
0.295495
0.250411
0.238236
0.279041
0.372288
0.306885
0.359227
0.412522
0.415093
0.355268
0.448509
0.308448
0.441369
0.366852
0.41825
0.41743
0.469226
0.355833
0.351781
0.302037
0.318554
0.340888
0.382954
0.330499
0.384272
0.386188
0.299891
0.324973
0.350246
0.390052
0.401091
0.33263
0.414022
0.419068
0.3844
0.412518
0.440583
0.426203
0.437172
0.462063
0.461984
0.408351
0.427336
0.491243
0.464658
0.462032
0.377406
0.388323
0.350545
0.377593
0.44386
0.418354
0.411783
0.430518
0.430143
0.374708
0.396603
0.467675
0.433424
0.445635
0.386877
0.429689
0.414443
0.416257
0.411598
0.378259
0.423832
0.45556
0.495806
0.460896
0.452881
0.488513
0.411288
0.476164
0.475038
0.432842
0.474757
0.37053
0.4053
0.398898
0.348689
0.415224
0.402699
0.39665
0.353182
0.350902
0.319201
0.322716
0.439373
0.46757
0.458457
0.481505
0.467197
0.446621
0.460085
0.485171
0.488929
0.472263
0.464845
0.433559
0.426314
0.454451
0.421776
0.425794
0.470006
0.457852
0.429808
0.459822
0.443636
0.43454
0.438955
0.411049
0.398523
0.36444
0.335634
0.370012
0.461089
0.477167
0.465341
0.420816
0.440334
0.416773
0.446627
0.353604
0.385964
0.372577
0.295266
0.281541
0.298213
0.280755
0.469739
0.429127
0.473734
0.393299
0.318379
0.38662
0.331697
0.329296
0.231882
0.297049
0.300987
0.236214
0.227821
0.34104
0.268577
0.232693
0.277897
0.2691
0.228398
0.226141
0.251271
0.266546
0.247689
0.269355
0.25626
0.238022
0.252496
0.249163
0.373424
0.421567
0.389572
0.312941
0.322678
0.298545
0.342269
0.308306
0.260763
0.282449
0.270675
0.285229
0.26758
0.293089
0.609637
0.569054
0.60398
0.589157
0.631112
0.624219
0.597786
0.573115
0.597463
0.569942
0.531401
0.56037
0.502406
0.540951
0.627094
0.653793
0.697137
0.634283
0.668857
0.676563
0.688321
0.443927
0.354434
0.379601
0.487118
0.505753
0.423803
0.393159
0.583893
0.614649
0.601719
0.628719
0.616415
0.647305
0.66134
0.566174
0.602252
0.560809
0.604856
0.56941
0.600133
0.568252
0.323043
0.344311
0.303088
0.33217
0.387167
0.360061
0.333992
0.683312
0.728973
0.668617
0.695952
0.647369
0.681705
0.741462
0.303378
0.344077
0.22915
0.236882
0.226956
0.304218
0.3453
0.611664
0.645813
0.656562
0.675229
0.634283
0.648151
0.620545
0.263932
0.2383
0.225222
0.228113
0.223766
0.261872
0.241029
0.305917
0.294181
0.289559
0.269725
0.288862
0.276979
0.27707
0.253908
0.24325
0.271348
0.242481
0.260608
0.241824
0.259915
0.526443
0.582021
0.544979
0.465965
0.465172
0.431048
0.503008
0.325951
0.31528
0.314533
0.344633
0.349021
0.33989
0.343963
0.464703
0.36147
0.428612
0.39677
0.386648
0.360334
0.429171
0.673772
0.708523
0.660799
0.695688
0.758116
0.75148
0.708403
0.641826
0.643575
0.63958
0.680369
0.670869
0.678442
0.681854
0.73286
0.774103
0.716856
0.720699
0.748299
0.72041
0.768893
0.648622
0.620528
0.600272
0.535076
0.495449
0.547997
0.511943
0.678405
0.682777
0.704049
0.5875
0.619489
0.57794
0.553281
0.456755
0.418744
0.494023
0.444246
0.50414
0.471203
0.442658
0.389289
0.404147
0.395943
0.375162
0.372048
0.36428
0.369899
0.724204
0.70173
0.709545
0.720527
0.759175
0.762578
0.718971
0.423943
0.417274
0.431875
0.453984
0.454374
0.446276
0.45131
0.624636
0.634464
0.659012
0.54032
0.519098
0.513645
0.528994
0.500909
0.465691
0.497714
0.478334
0.49956
0.467942
0.496759
0.526766
0.510948
0.47755
0.473281
0.511058
0.474951
0.501126
0.800688
0.980815
0.988056
0.90724
0.855886
0.849337
0.927317
1.25646
1.36065
1.54427
1.55711
1.49176
1.3124
1.30144
0.32593
0.517113
0.256052
0.391922
0.205249
0.258218
0.244805
0.267675
0.21337
0.542677
0.405471
0.398191
0.232239
0.195988
0.276592
0.25301
0.179158
0.216804
0.147169
0.151519
0.194482
0.166494
0.191908
0.35152