/*--------------------------------*- C++ -*----------------------------------*\
  =========                 |
  \\      /  F ield         | OpenFOAM: The Open Source CFD Toolbox
   \\    /   O peration     | Website:  https://openfoam.org
    \\  /    A nd           | Version:  9
     \\/     M anipulation  |
\*---------------------------------------------------------------------------*/
FoamFile
{
    format      ascii;
    class       volScalarField;
    location    "0.00135";
    object      alpha.c4;
}
// * * * * * * * * * * * * * * * * * * * * * * * * * * * * * * * * * * * * * //

dimensions      [0 0 0 0 0 0 0];

internalField   nonuniform List<scalar> 
11304
(
1.17479e-30
1.06112e-28
9.08614e-27
7.27554e-25
5.45178e-23
3.86692e-21
2.58019e-19
3.1124e-32
2.72579e-30
2.25698e-28
1.73574e-26
1.23192e-24
8.09814e-23
4.97629e-21
6.6587e-34
5.67816e-32
4.57793e-30
3.42621e-28
2.35736e-26
1.48083e-24
8.47468e-23
1.20676e-35
1.00472e-33
7.91319e-32
5.78839e-30
3.89047e-28
2.37193e-26
1.29377e-24
1.94023e-37
1.58278e-35
1.2195e-33
8.72037e-32
5.72579e-30
3.40247e-28
1.79525e-26
2.80813e-19
4.38819e-21
6.20535e-23
8.20087e-25
1.44954e-17
6.59246e-16
1.36665e-17
1.97388e-19
2.52598e-21
3.12172e-23
1.53724e-11
4.78483e-15
1.37366e-16
1.62043e-18
1.86771e-20
3.66244e-13
4.60564e-16
6.69751e-18
7.94117e-20
9.22373e-22
7.44002e-08
3.12959e-12
2.07337e-13
1.01395e-08
2.3963e-12
3.3361e-12
1.024e-13
1.31016e-07
1.36272e-09
2.4274e-09
7.32244e-09
4.02451e-09
1.37924e-10
7.56996e-11
3.15934e-08
1.82068e-10
5.71351e-10
5.04201e-10
1.63969e-09
3.11953e-11
1.01354e-11
6.13991e-16
1.34371e-14
1.06898e-17
1.32048e-16
1.61703e-19
2.24902e-18
2.10182e-21
3.00391e-20
2.51041e-23
3.63161e-22
2.55755e-17
4.84019e-19
7.37831e-21
9.80721e-23
1.19857e-24
1.22169e-13
1.1783e-13
1.4942e-15
4.6439e-15
1.99428e-17
1.25378e-16
2.83341e-19
1.57158e-18
3.70692e-21
1.89248e-20
3.36596e-12
1.85795e-13
8.34991e-12
4.03232e-10
3.72387e-09
5.23614e-13
2.99362e-12
4.55347e-20
3.61185e-18
3.43816e-16
4.49536e-14
1.92143e-20
1.39422e-18
8.75151e-17
2.62005e-15
1.98883e-12
6.04003e-21
4.32001e-19
2.64221e-17
1.57219e-15
1.56031e-13
9.23173e-43
8.26848e-41
7.08164e-39
5.69284e-37
4.24884e-35
2.90644e-33
1.79608e-31
9.85594e-30
4.68584e-28
1.85596e-26
6.37432e-41
5.89769e-39
5.22691e-37
4.35497e-35
3.37594e-33
2.40883e-31
1.56433e-29
9.09834e-28
4.60297e-26
1.93135e-24
4.09058e-39
3.91198e-37
3.58936e-35
3.10423e-33
2.51101e-31
1.8876e-29
1.30712e-27
8.16352e-26
4.40559e-24
1.93833e-22
2.37286e-37
2.34633e-35
2.23194e-33
2.01312e-31
1.71725e-29
1.38219e-27
1.03595e-25
6.95673e-24
3.9279e-22
1.7505e-20
1.22146e-35
1.24896e-33
1.23546e-31
1.17222e-29
1.07013e-27
9.35495e-26
7.5938e-24
5.37111e-22
3.06958e-20
1.31698e-18
5.45462e-34
5.76676e-32
5.95631e-30
6.0009e-28
5.91952e-26
5.60858e-24
4.82897e-22
3.51789e-20
2.0963e-18
9.31593e-17
2.05538e-32
2.23995e-30
2.41351e-28
2.57711e-26
2.71531e-24
2.71223e-22
2.40435e-20
1.8557e-18
1.56492e-16
5.37661e-15
6.31336e-31
6.99302e-29
7.69774e-27
8.4267e-25
9.02985e-23
8.95913e-21
7.70197e-19
5.97705e-17
9.0336e-12
9.38102e-43
7.88871e-41
6.24454e-39
4.5688e-37
3.06083e-35
1.85557e-33
1.00243e-31
4.72816e-30
1.89399e-28
6.21138e-27
6.15677e-41
5.25923e-39
4.23594e-37
3.16052e-35
2.16505e-33
1.3463e-31
7.48601e-30
3.64519e-28
1.50896e-26
5.098e-25
3.71612e-39
3.22662e-37
2.64708e-35
2.01757e-33
1.41717e-31
9.07854e-30
5.22797e-28
2.6496e-26
1.14468e-24
4.03594e-23
2.008e-37
1.77318e-35
1.48351e-33
1.15778e-31
8.37272e-30
5.56097e-28
3.34783e-26
1.78859e-24
8.22799e-23
3.09746e-21
9.55429e-36
8.58035e-34
7.32699e-32
5.86912e-30
4.39072e-28
3.0482e-26
1.943e-24
1.11985e-22
5.69945e-21
2.39685e-19
3.92179e-34
3.57723e-32
3.1165e-30
2.56545e-28
1.99319e-26
1.45874e-24
1.00377e-22
6.48525e-21
3.91236e-19
1.82074e-17
1.35454e-32
1.24993e-30
1.10655e-28
9.32799e-27
7.51405e-25
5.82816e-23
4.41836e-21
3.36318e-19
2.34938e-17
7.15348e-16
3.82755e-31
3.54198e-29
3.14914e-27
2.67581e-25
2.19096e-23
1.76806e-21
1.46385e-19
1.21351e-17
9.377e-15
7.01688e-08
2.78675e-43
2.3121e-41
1.79411e-39
1.27746e-37
8.27585e-36
4.83414e-34
2.51767e-32
1.15032e-30
4.49383e-29
1.4474e-27
1.81582e-41
1.52145e-39
1.19292e-37
8.60292e-36
5.67072e-34
3.39213e-32
1.82149e-30
8.61442e-29
3.47814e-27
1.14999e-25
1.08508e-39
9.18118e-38
7.28364e-36
5.33823e-34
3.59997e-32
2.21998e-30
1.23633e-28
6.07128e-27
2.53897e-25
8.63698e-24
5.78793e-38
4.94874e-36
3.98228e-34
2.97963e-32
2.06747e-30
1.32151e-28
7.65403e-27
3.9117e-25
1.70313e-23
6.05402e-22
2.71238e-36
2.34599e-34
1.92034e-32
1.47263e-30
1.05539e-28
7.00417e-27
4.22391e-25
2.25907e-23
1.04707e-21
4.11238e-20
1.09533e-34
9.59111e-33
7.99937e-31
6.29557e-29
4.65947e-27
3.20574e-25
2.01805e-23
1.15308e-21
6.06432e-20
2.86987e-18
3.72227e-33
3.2968e-31
2.79758e-29
2.25217e-27
1.71164e-25
1.21617e-23
8.07616e-22
5.18411e-20
3.30935e-18
1.78845e-16
1.03514e-31
9.23685e-30
7.92621e-28
6.46566e-26
4.98667e-24
3.63311e-22
2.58297e-20
1.9208e-18
1.3524e-16
1.17578e-14
2.43687e-44
2.05966e-42
1.64039e-40
1.20843e-38
8.15742e-37
4.98857e-35
2.72324e-33
1.30062e-31
5.28194e-30
1.75096e-28
1.61812e-42
1.39044e-40
1.1271e-38
8.46625e-37
5.84134e-35
3.66131e-33
2.0542e-31
1.01022e-29
4.22328e-28
1.43409e-26
9.90251e-41
8.65362e-39
7.14495e-37
5.47978e-35
3.87191e-33
2.49356e-31
1.44188e-29
7.32555e-28
3.16446e-26
1.10519e-24
5.43413e-39
4.83113e-37
4.06668e-35
3.18937e-33
2.3125e-31
1.5339e-29
9.17093e-28
4.83453e-26
2.17104e-24
7.84748e-23
2.62772e-37
2.37647e-35
2.04033e-33
1.63777e-31
1.22021e-29
8.35502e-28
5.18569e-26
2.85598e-24
1.34542e-22
5.06799e-21
1.09511e-35
1.00652e-33
8.80845e-32
7.235e-30
5.54217e-28
3.92783e-26
2.54658e-24
1.48021e-22
7.3918e-21
2.91076e-19
3.82423e-34
3.56308e-32
3.17091e-30
2.66015e-28
2.09479e-26
1.54182e-24
1.05272e-22
6.52222e-21
3.46718e-19
1.42569e-17
1.081e-32
1.01605e-30
9.15022e-29
7.80647e-27
6.30488e-25
4.82524e-23
3.48067e-21
2.29125e-19
1.2796e-17
5.8873e-16
1.33752e-45
1.13652e-43
9.11023e-42
6.76488e-40
4.60828e-38
2.84537e-36
1.56815e-34
7.55915e-33
3.09927e-31
1.03907e-29
8.93905e-44
7.72699e-42
6.30931e-40
4.77912e-38
3.32648e-36
2.10255e-34
1.1884e-32
5.88254e-31
2.47601e-29
8.49085e-28
5.5098e-42
4.84797e-40
4.03422e-38
3.11966e-36
2.22135e-34
1.43961e-32
8.36192e-31
4.2616e-29
1.84801e-27
6.51219e-26
3.04839e-40
2.73083e-38
2.31721e-36
1.83113e-34
1.3357e-32
8.89217e-31
5.32177e-29
2.80349e-27
1.26e-25
4.59738e-24
1.48734e-38
1.35623e-36
1.17364e-34
9.48278e-33
7.09362e-31
4.86046e-29
3.00806e-27
1.64854e-25
7.75032e-24
2.95531e-22
6.25672e-37
5.8018e-35
5.11727e-33
4.22708e-31
3.24541e-29
2.29494e-27
1.47758e-25
8.50838e-24
4.23067e-22
1.69451e-20
2.20484e-35
2.07488e-33
1.86227e-31
1.57141e-29
1.2394e-27
9.08317e-26
6.13704e-24
3.75333e-22
1.98429e-20
8.30089e-19
6.27953e-34
5.97592e-32
5.44242e-30
4.6835e-28
3.79746e-26
2.89647e-24
2.0669e-22
1.34485e-20
7.47949e-19
3.26054e-17
5.20015e-47
4.4012e-45
3.51398e-43
2.59875e-41
1.76269e-39
1.08324e-37
5.93861e-36
2.84676e-34
1.16154e-32
3.88706e-31
3.46722e-45
2.98342e-43
2.4244e-41
1.82691e-39
1.26421e-37
7.93666e-36
4.4509e-34
2.18429e-32
9.11859e-31
3.11113e-29
2.1324e-43
1.86634e-41
1.54409e-39
1.18622e-37
8.38148e-36
5.382e-34
3.09223e-32
1.55659e-30
6.66516e-29
2.32573e-27
1.17746e-41
1.04834e-39
8.83381e-38
6.92382e-36
5.00079e-34
3.28922e-32
1.93979e-30
1.00417e-28
4.4269e-27
1.58795e-25
5.73602e-40
5.19375e-38
4.45761e-36
3.56598e-34
2.63484e-32
1.77741e-30
1.07822e-28
5.76156e-27
2.63076e-25
9.77401e-24
2.41088e-38
2.21803e-36
1.93787e-34
1.58199e-32
1.19623e-30
8.28736e-29
5.18787e-27
2.87906e-25
1.37332e-23
5.32293e-22
8.4975e-37
7.92837e-35
7.04155e-33
5.86088e-31
4.53555e-29
3.23312e-27
2.09892e-25
1.21938e-23
6.12008e-22
2.4708e-20
2.4227e-35
2.28585e-33
2.05895e-31
1.74458e-29
1.38144e-27
1.01527e-25
6.86528e-24
4.19105e-22
2.20238e-20
9.06735e-19
1.55362e-48
1.30344e-46
1.03112e-44
7.55133e-43
5.06915e-41
3.0812e-39
1.66985e-37
7.91152e-36
3.19269e-34
1.05976e-32
1.02873e-46
8.76504e-45
7.04802e-43
5.25119e-41
3.58963e-39
2.22398e-37
1.22965e-35
5.94601e-34
2.44707e-32
8.25542e-31
6.28288e-45
5.43836e-43
4.44576e-41
3.37098e-39
2.3479e-37
1.48409e-35
8.38185e-34
4.14318e-32
1.74203e-30
5.98414e-29
3.44529e-43
3.02966e-41
2.51847e-39
1.94449e-37
1.38116e-35
8.91721e-34
5.15174e-32
2.60747e-30
1.12242e-28
3.93626e-27
1.6674e-41
1.489e-39
1.25854e-37
9.89697e-36
7.17319e-34
4.73452e-32
2.80125e-30
1.45431e-28
6.42729e-27
2.31027e-25
6.96817e-40
6.31299e-38
5.42213e-36
4.34156e-34
3.21098e-32
2.16756e-30
1.3149e-28
7.01979e-27
3.19879e-25
1.18446e-23
2.44502e-38
2.24344e-36
1.95527e-34
1.59242e-32
1.201e-30
8.29211e-29
5.16486e-27
2.84519e-25
1.34311e-23
5.13253e-22
6.95265e-37
6.44303e-35
5.68516e-33
4.70073e-31
3.61071e-29
2.54883e-27
1.63157e-25
9.29046e-24
4.53825e-22
1.76749e-20
3.76514e-50
3.12407e-48
2.44266e-46
1.76686e-44
1.17077e-42
7.02063e-41
3.75217e-39
1.75277e-37
6.97901e-36
2.29153e-34
2.47038e-48
2.07909e-46
1.65005e-44
1.21232e-42
8.165e-41
4.97969e-39
2.70809e-37
1.2874e-35
5.21155e-34
1.73412e-32
1.4949e-46
1.27641e-44
1.02828e-42
7.67505e-41
5.25584e-39
3.26223e-37
1.80707e-35
8.75408e-34
3.60809e-32
1.21819e-30
8.12226e-45
7.03517e-43
5.7536e-41
4.36422e-39
3.04063e-37
1.92248e-35
1.08598e-33
5.36762e-32
2.25535e-30
7.73516e-29
3.89625e-43
3.42175e-41
2.84023e-39
2.18951e-37
1.55264e-35
1.00059e-33
5.76814e-32
2.91106e-30
1.24813e-28
4.35362e-27
1.61518e-41
1.43678e-39
1.20954e-37
9.47204e-36
6.83516e-34
4.4898e-32
2.6416e-30
1.36175e-28
5.96336e-27
2.11866e-25
5.63029e-40
5.06399e-38
4.31726e-36
3.43027e-34
2.5163e-32
1.68323e-30
1.01013e-28
5.31902e-27
2.38096e-25
8.6187e-24
1.59377e-38
1.44546e-36
1.245e-34
1.00153e-32
7.45404e-31
5.06869e-29
3.09755e-27
1.66366e-25
7.59511e-24
2.78102e-22
7.68546e-52
6.30113e-50
4.86494e-48
3.47236e-46
2.2691e-44
1.34132e-42
7.06408e-41
3.25185e-39
1.27679e-37
4.14303e-36
4.99211e-50
4.14623e-48
3.24478e-46
2.34879e-44
1.55734e-42
9.34351e-41
4.99545e-39
2.33388e-37
9.28975e-36
3.04663e-34
2.99041e-48
2.51634e-46
1.99602e-44
1.46538e-42
9.85987e-41
6.00685e-39
3.26276e-37
1.54879e-35
6.25714e-34
2.07595e-32
1.60838e-46
1.37096e-44
1.10224e-42
8.20835e-41
5.60701e-39
3.47086e-37
1.91695e-35
9.25437e-34
3.79821e-32
1.27545e-30
7.64007e-45
6.59313e-43
5.37074e-41
4.05646e-39
2.81343e-37
1.77022e-35
9.94576e-34
4.88512e-32
2.03722e-30
6.92285e-29
3.13892e-43
2.73944e-41
2.25904e-39
1.72939e-37
1.21736e-35
7.78352e-34
4.44731e-32
2.22135e-30
9.4058e-29
3.23136e-27
1.08599e-41
9.56802e-40
7.97474e-38
6.17931e-36
4.40915e-34
2.86105e-32
1.66006e-30
8.41741e-29
3.61182e-27
1.25143e-25
3.05768e-40
2.71231e-38
2.27921e-36
1.78341e-34
1.28697e-32
8.45456e-31
4.96721e-29
2.54779e-27
1.10281e-25
3.82684e-24
1.37879e-53
1.11672e-51
8.51122e-50
5.9925e-48
3.86055e-46
2.24883e-44
1.16693e-42
5.29349e-41
2.04971e-39
6.57233e-38
8.86307e-52
7.26306e-50
5.60335e-48
3.99522e-46
2.60736e-44
1.53881e-42
8.08937e-41
3.71559e-39
1.45484e-37
4.70326e-36
5.25345e-50
4.35611e-48
3.40159e-46
2.45597e-44
1.62363e-42
9.70993e-41
5.17323e-39
2.40763e-37
9.54055e-36
3.11165e-34
2.7958e-48
2.3453e-46
1.85349e-44
1.35515e-42
9.07678e-41
5.50247e-39
2.97278e-37
1.40281e-35
5.62943e-34
1.85281e-32
1.31453e-46
1.11492e-44
8.91342e-43
6.59714e-41
4.47652e-39
2.75108e-37
1.5075e-35
7.2142e-34
2.93152e-32
9.73028e-31
5.35011e-45
4.58298e-43
3.70284e-41
2.77211e-39
1.90444e-37
1.18596e-35
6.58802e-34
3.19484e-32
1.31295e-30
4.38597e-29
1.83632e-43
1.58591e-41
1.2928e-39
9.77477e-38
6.78915e-36
4.27794e-34
2.40507e-32
1.17924e-30
4.88616e-29
1.6362e-27
5.14058e-42
4.46406e-40
3.66215e-38
2.78957e-36
1.95402e-34
1.24251e-32
7.04664e-31
3.47842e-29
1.44478e-27
4.81228e-26
5.26468e-22
2.49743e-22
7.47744e-23
6.23727e-24
5.33959e-22
4.49597e-20
3.7999e-18
2.96167e-16
7.52806e-15
1.51888e-29
1.65752e-27
1.77189e-25
1.84671e-23
1.84454e-21
1.67922e-19
1.24545e-17
2.11772e-15
3.15841e-10
2.78345e-28
3.00214e-26
3.18699e-24
3.40244e-22
3.93775e-20
5.29792e-18
2.98132e-16
5.6595e-09
3.51985e-27
3.93938e-25
4.36844e-23
4.51944e-21
3.96261e-19
2.63077e-17
6.22762e-16
4.77167e-08
2.26469e-26
2.41066e-24
2.3885e-22
2.09877e-20
1.63709e-18
1.4555e-16
6.60328e-13
5.09108e-26
5.3893e-24
8.63074e-30
7.91054e-28
6.92464e-26
5.73363e-24
4.49739e-22
3.45482e-20
2.98507e-18
1.73986e-16
2.78966e-13
1.5291e-28
1.38758e-26
1.19887e-24
9.74829e-23
7.41565e-21
5.21038e-19
3.34904e-17
2.94367e-12
1.98894e-27
1.78267e-25
1.51741e-23
1.21892e-21
9.58617e-20
8.42552e-18
3.88267e-16
3.00328e-11
1.52264e-26
1.33728e-24
1.10822e-22
8.64442e-21
6.34398e-19
4.0037e-17
3.42391e-15
3.79894e-11
3.47751e-26
3.04165e-24
2.2899e-30
2.0457e-28
1.76034e-26
1.43944e-24
1.1102e-22
8.12242e-21
6.03369e-19
4.99045e-17
1.61246e-15
3.94071e-29
3.51739e-27
3.04807e-25
2.54512e-23
2.03879e-21
1.53895e-19
1.06365e-17
7.13935e-16
5.09261e-28
4.56196e-26
4.07863e-24
3.6841e-22
3.3742e-20
2.93331e-18
2.0288e-16
1.18747e-13
4.16239e-27
3.7731e-25
3.32024e-23
2.73227e-21
1.9947e-19
1.21849e-17
6.39811e-16
1.01568e-12
9.50225e-27
8.58855e-25
2.3802e-31
2.24014e-29
2.02479e-27
1.74082e-25
1.42842e-23
1.1254e-21
8.43552e-20
5.6531e-18
2.98426e-16
3.94369e-30
3.68847e-28
3.31521e-26
2.83668e-24
2.32763e-22
1.85744e-20
1.41764e-18
9.07764e-17
8.27527e-15
4.73644e-29
4.39737e-27
3.93098e-25
3.3485e-23
2.72933e-21
2.14676e-19
1.63721e-17
1.30782e-15
3.41432e-28
3.13326e-26
2.77908e-24
2.37728e-22
2.01927e-20
1.78656e-18
1.55637e-16
4.38739e-14
7.66418e-28
7.03042e-26
1.38661e-32
1.32822e-30
1.22238e-28
1.06893e-26
8.88054e-25
7.0207e-23
5.24273e-21
3.54959e-19
2.00902e-17
2.28118e-31
2.19063e-29
2.02739e-27
1.78654e-25
1.49716e-23
1.19523e-21
9.00893e-20
6.07515e-18
3.30148e-16
2.68474e-30
2.57771e-28
2.38656e-26
2.09448e-24
1.72737e-22
1.33742e-20
1.00207e-18
8.67059e-17
1.83238e-29
1.69994e-27
1.51554e-25
1.29789e-23
1.09589e-21
9.41889e-20
7.96198e-18
5.4418e-16
4.07361e-29
3.7575e-27
3.33497e-25
2.84911e-23
2.39635e-21
2.01961e-19
1.61636e-17
1.00808e-15
5.35479e-34
5.09107e-32
4.63804e-30
3.99226e-28
3.2288e-26
2.44035e-24
1.70912e-22
1.08082e-20
5.77017e-19
2.317e-17
8.78796e-33
8.40249e-31
7.73008e-29
6.73872e-27
5.52146e-25
4.21653e-23
2.96782e-21
1.86742e-19
9.73228e-18
3.67582e-16
1.02417e-31
9.84061e-30
9.11863e-28
7.99227e-26
6.52785e-24
4.89265e-22
3.34697e-20
2.17206e-18
6.88687e-31
6.36661e-29
5.61451e-27
4.67415e-25
3.70973e-23
2.87234e-21
2.1809e-19
1.48631e-17
1.52315e-30
1.39351e-28
1.2164e-26
1.00439e-24
7.93766e-23
6.1332e-21
4.61754e-19
3.09514e-17
1.53474e-35
1.43175e-33
1.27577e-31
1.06885e-29
8.34661e-28
6.00965e-26
3.93632e-24
2.29549e-22
1.13706e-20
4.33199e-19
2.51156e-34
2.35504e-32
2.11808e-30
1.79721e-28
1.42279e-26
1.03561e-24
6.8084e-23
3.93795e-21
1.8962e-19
6.74778e-18
2.90146e-33
2.73614e-31
2.48392e-29
2.12956e-27
1.69651e-25
1.22865e-23
7.89912e-22
4.42902e-20
1.94864e-32
1.77606e-30
1.53839e-28
1.24484e-26
9.37215e-25
6.59599e-23
4.38012e-21
2.67729e-19
4.29892e-32
3.86665e-30
3.30152e-28
2.63403e-26
1.9607e-24
1.37244e-22
9.12531e-21
5.60367e-19
3.50939e-37
3.19883e-35
2.77585e-33
2.25564e-31
1.69965e-29
1.17172e-27
7.26088e-26
3.9482e-24
1.81294e-22
6.53357e-21
5.72691e-36
5.23614e-34
4.5743e-32
3.75484e-30
2.86312e-28
1.99416e-26
1.24047e-24
6.69026e-23
2.98916e-21
1.01517e-19
6.56498e-35
6.0254e-33
5.30594e-31
4.40294e-29
3.39256e-27
2.37341e-25
1.46329e-23
7.67129e-22
4.41909e-34
3.94524e-32
3.34168e-30
2.63309e-28
1.90914e-26
1.26223e-24
7.57093e-23
4.07371e-21
9.74521e-34
8.57464e-32
7.14397e-30
5.52945e-28
3.93922e-26
2.56692e-24
1.52767e-22
8.22666e-21
6.7132e-39
5.97498e-37
5.04658e-35
3.9767e-33
2.89476e-31
1.91943e-29
1.13691e-27
5.85827e-26
2.5293e-24
8.62341e-23
1.09306e-37
9.73629e-36
8.25261e-34
6.54527e-32
4.80541e-30
3.21238e-28
1.90943e-26
9.77226e-25
4.11933e-23
1.33611e-21
1.24573e-36
1.11069e-34
9.45968e-33
7.56595e-31
5.61238e-29
3.78382e-27
2.25108e-25
1.13606e-23
8.40959e-36
7.33235e-34
6.05662e-32
4.6462e-30
3.26805e-28
2.07581e-26
1.17154e-24
5.76518e-23
1.85711e-35
1.59551e-33
1.29555e-31
9.74735e-30
6.71378e-28
4.17583e-26
2.31366e-24
1.12392e-22
1.12507e-40
9.78992e-39
8.05587e-37
6.16308e-35
4.34072e-33
2.7761e-31
1.58124e-29
7.80718e-28
3.21856e-26
1.05039e-24
1.82883e-39
1.58963e-37
1.30895e-35
1.00421e-33
7.10567e-32
4.56698e-30
2.60662e-28
1.27953e-26
5.17075e-25
1.61988e-23
2.07763e-38
1.80147e-36
1.4851e-34
1.14452e-32
8.15874e-31
5.28723e-29
3.03338e-27
1.48375e-25
1.40678e-37
1.19723e-35
9.63309e-34
7.18745e-32
4.91144e-30
3.02355e-28
1.64283e-26
7.68263e-25
3.11533e-37
2.61386e-35
2.06835e-33
1.51355e-31
1.01176e-29
6.08138e-28
3.22429e-26
1.47338e-24
7.95932e-14
1.35295e-12
5.97882e-15
9.31903e-15
3.52221e-14
1.572e-16
6.8131e-15
7.23277e-16
2.4381e-13
1.52316e-15
7.00932e-13
2.19353e-18
9.82255e-17
1.32773e-17
4.12074e-16
2.80696e-17
8.72425e-16
3.28295e-20
1.08463e-18
1.85608e-19
6.14383e-18
3.77105e-19
1.23462e-17
4.62079e-22
1.41077e-20
2.38301e-21
7.53855e-20
4.613e-21
1.44007e-19
5.88248e-24
1.76881e-22
2.98395e-23
9.01788e-22
5.6093e-23
1.66255e-21
2.25601e-11
6.30688e-15
2.12194e-16
2.79078e-18
3.38027e-20
2.02961e-11
1.98103e-07
4.10432e-12
3.35113e-13
2.55149e-13
2.06953e-11
1.00304e-08
4.05992e-12
5.39948e-10
7.26923e-06
1.1185e-07
1.89205e-13
1.70404e-11
6.20996e-14
3.6607e-13
7.64234e-09
2.60958e-13
1.70407e-12
1.71123e-12
1.09947e-07
2.64673e-13
2.05161e-11
7.48197e-08
1.00988e-13
6.22765e-13
1.82604e-13
1.39656e-11
3.03332e-09
2.45264e-12
3.20762e-13
2.9865e-08
1.36594e-10
1.18405e-10
3.13559e-13
1.84601e-12
2.51761e-08
3.97647e-12
4.18052e-14
3.80867e-14
1.20929e-11
3.74012e-06
1.80463e-13
5.58324e-08
1.4548e-13
1.21768e-12
8.71573e-09
9.92913e-10
3.9196e-11
2.29182e-13
5.8544e-14
8.88139e-13
8.73084e-13
1.87738e-11
4.56538e-15
2.12717e-14
5.05442e-14
2.54125e-13
6.19275e-11
1.13239e-14
2.85827e-12
9.34737e-14
6.70302e-15
2.6792e-13
3.8619e-14
1.59498e-12
3.18086e-15
2.8224e-14
1.48157e-14
1.87984e-13
6.07509e-10
7.44432e-13
2.40059e-10
1.21776e-13
8.65167e-12
2.39224e-14
1.00366e-13
2.86138e-15
1.45908e-14
1.6575e-12
2.78054e-14
3.70669e-11
4.80633e-13
2.28508e-14
1.71475e-14
1.27382e-15
4.43834e-06
1.75355e-06
1.03617e-06
1.13646e-07
6.51391e-08
1.38773e-08
2.42813e-08
2.39921e-11
7.45927e-13
2.12613e-14
2.18904e-11
7.59179e-13
2.07321e-14
1.58286e-13
4.85433e-15
1.64865e-14
5.16669e-16
4.24757e-14
2.90325e-09
5.22469e-15
2.0007e-13
1.77601e-07
3.68708e-09
3.30601e-09
1.01148e-08
1.13503e-08
2.13541e-10
1.90565e-10
1.76319e-07
1.88753e-10
3.27944e-09
1.97966e-07
3.68424e-09
1.1338e-08
2.13245e-10
7.09533e-09
1.27227e-07
6.91382e-08
1.33258e-10
2.35096e-09
1.25973e-09
6.96598e-11
1.00199e-11
3.82431e-13
1.18671e-14
8.48316e-14
1.76999e-13
1.77188e-14
8.15695e-15
2.28212e-06
2.27253e-07
1.28272e-07
6.93549e-08
3.83986e-08
1.79444e-09
3.26144e-09
1.38248e-14
1.82348e-11
1.86762e-12
1.83377e-12
1.34808e-14
4.43243e-14
1.80774e-11
1.11235e-06
2.31673e-08
2.43557e-07
1.45492e-09
1.49183e-08
3.12089e-09
3.02856e-10
1.07026e-07
2.09688e-09
1.24797e-07
8.90192e-09
2.45113e-09
1.79815e-10
1.54274e-10
1.25817e-07
7.80042e-09
8.95835e-09
2.15742e-09
2.47207e-09
1.81078e-10
1.57863e-10
6.64509e-07
2.66932e-08
5.95757e-07
8.8441e-09
9.92311e-09
4.56402e-10
4.07661e-10
5.71435e-07
2.93799e-08
6.58041e-07
8.44873e-09
9.81495e-09
4.49045e-10
3.83913e-10
1.41853e-09
8.13111e-09
2.74933e-08
1.45539e-10
4.93679e-10
2.68511e-11
8.28314e-12
2.66087e-08
3.30649e-07
1.88059e-07
2.37516e-09
5.99034e-10
3.32871e-10
4.23474e-09
5.91268e-15
3.68101e-14
1.13685e-11
1.07979e-14
1.05115e-12
2.04861e-15
1.30425e-13
3.65329e-08
5.24756e-09
2.51477e-09
1.45392e-09
6.96011e-10
1.06918e-10
5.15348e-11
5.71216e-07
2.65444e-09
2.85934e-08
7.80234e-10
8.44978e-09
3.94043e-10
3.71332e-11
2.08681e-07
1.70947e-08
3.97071e-07
5.75523e-09
2.95103e-09
2.58415e-10
1.30143e-10
1.11885e-14
3.34774e-13
1.60201e-13
6.82331e-16
2.28909e-14
4.16201e-16
8.59626e-15
1.72124e-09
5.84057e-11
2.27235e-09
1.33221e-09
4.56136e-11
3.33687e-11
1.27026e-12
1.84971e-14
5.16123e-16
1.97269e-14
5.26883e-15
2.08629e-16
1.22756e-15
5.39746e-16
5.84306e-09
3.92217e-09
4.14772e-08
5.25314e-10
7.16168e-12
7.31257e-11
5.09174e-11
1.24186e-08
2.06754e-10
8.43211e-10
5.81574e-11
2.31661e-10
1.86488e-11
5.51574e-12
3.33086e-09
8.22423e-08
2.52018e-08
3.45893e-10
1.14279e-09
4.9575e-11
1.49917e-11
2.62123e-13
2.25798e-15
1.16437e-15
1.49431e-15
2.50357e-14
6.20883e-15
1.63686e-15
1.75782e-13
9.19048e-15
3.46067e-15
7.77809e-16
2.29643e-14
5.08729e-16
7.64719e-15
1.73024e-10
9.26978e-09
5.11959e-09
7.12884e-11
4.58555e-12
2.54131e-12
1.30102e-10
8.86179e-16
1.43437e-16
1.19991e-16
7.10746e-16
5.75169e-14
2.90018e-16
1.13297e-14
3.10471e-09
5.37327e-10
2.93221e-10
6.98244e-11
3.82731e-11
3.97839e-12
7.11249e-12
9.47989e-15
1.37592e-15
1.00363e-13
4.94189e-16
3.86102e-15
7.46169e-16
1.58071e-14
1.40522e-09
9.76618e-12
8.03417e-10
1.70985e-10
3.93511e-12
2.27918e-12
3.00802e-10
9.3247e-10
6.5973e-12
5.11352e-10
2.39569e-11
6.05364e-13
3.43147e-13
4.37918e-11
9.22741e-11
3.75995e-10
1.9031e-09
3.48341e-11
8.13296e-12
2.5986e-12
1.1495e-12
6.19124e-09
1.28303e-09
5.01453e-11
8.39447e-11
1.7817e-11
3.82142e-12
9.75175e-13
1.59228e-14
7.54257e-15
1.83993e-14
1.2176e-14
1.81933e-13
1.04247e-14
6.19315e-15
1.37437e-14
5.85702e-13
2.73439e-14
1.40749e-14
2.77061e-14
5.90583e-13
3.56793e-14
3.35555e-13
1.01628e-14
1.45292e-14
1.25548e-14
1.80032e-14
5.74775e-15
7.00664e-15
2.9817e-14
1.39521e-14
3.62463e-14
5.9692e-13
2.714e-14
3.46993e-14
1.38573e-14
1.01443e-10
1.40534e-10
4.20582e-11
5.21899e-12
1.68489e-12
2.16327e-12
1.876e-13
3.87856e-10
7.90065e-11
7.90156e-10
2.49219e-12
1.33709e-11
6.99475e-12
1.671e-12
8.47205e-15
3.10941e-14
5.94718e-14
4.3807e-15
6.66475e-15
4.04011e-15
4.9972e-15
8.46145e-14
1.56975e-15
3.33355e-15
1.51893e-15
8.27855e-15
1.39215e-15
1.96749e-15
8.21608e-15
1.23492e-14
1.74034e-14
3.60117e-13
2.0806e-13
1.50709e-14
2.12605e-14
4.18624e-10
2.33007e-11
4.86735e-10
1.16044e-11
2.00861e-12
1.01944e-11
2.10373e-12
4.69469e-10
2.23918e-12
1.09981e-11
2.35107e-11
5.33366e-10
1.23968e-11
2.56043e-12
1.85281e-11
2.30435e-12
1.83662e-10
3.86089e-11
1.48218e-13
5.818e-13
3.96515e-12
2.33998e-11
4.25058e-10
4.89142e-10
1.16789e-11
2.04169e-12
1.03757e-11
2.12115e-12
1.40288e-09
1.1898e-10
1.24542e-09
2.42577e-11
4.21387e-12
2.17095e-11
4.59392e-12
1.18116e-09
1.36279e-10
1.38047e-09
2.38773e-11
4.15126e-12
4.56715e-12
2.06255e-11
3.79061e-11
1.05719e-10
1.12737e-09
1.56902e-11
1.95908e-13
6.78475e-13
1.73686e-12
1.4427e-12
1.05385e-11
1.11985e-10
5.24825e-12
3.11648e-14
9.26086e-14
5.64441e-13
6.63648e-10
6.19036e-12
6.30167e-11
1.0386e-12
8.19457e-12
1.05018e-12
2.5201e-13
9.51856e-11
4.25698e-11
1.23124e-11
7.66056e-12
3.0634e-12
2.09255e-12
1.15879e-12
2.46824e-12
3.35354e-10
8.66221e-12
9.07458e-12
1.79608e-10
5.57209e-12
2.04422e-12
1.65272e-10
1.46004e-11
3.24854e-10
1.95762e-12
2.0439e-12
8.08979e-12
5.13666e-12
3.65476e-14
2.17734e-15
7.24572e-15
7.07222e-15
3.47799e-14
2.05054e-15
2.52503e-15
1.22273e-10
2.15091e-12
1.37502e-10
6.97609e-12
4.67013e-13
6.28907e-12
4.19171e-13
2.15357e-10
1.35347e-12
8.52191e-12
6.07326e-13
3.0338e-12
3.09256e-13
1.77195e-13
1.63092e-14
1.04386e-15
1.23756e-15
1.03348e-15
9.62059e-15
8.81256e-16
1.97089e-15
3.9151e-12
4.71032e-10
1.29023e-11
2.50324e-11
5.31444e-10
1.40196e-11
3.94932e-12
1.06589e-14
6.14183e-14
4.95459e-15
4.89422e-15
9.55162e-15
6.12064e-14
6.28141e-15
1.74831e-12
7.36626e-13
5.85963e-11
1.86455e-12
6.53268e-11
4.50662e-12
7.44577e-13
5.80855e-11
7.21831e-13
1.73393e-12
1.86127e-12
6.52716e-11
4.49327e-12
7.32761e-13
2.90157e-11
7.38475e-12
7.19328e-13
1.45554e-13
4.13616e-12
4.48884e-13
5.17465e-11
2.82373e-10
7.52793e-12
1.33432e-10
1.77541e-12
7.2892e-12
4.34034e-12
1.62833e-12
1.1677e-10
2.11632e-12
1.35938e-10
6.85236e-12
3.73833e-13
4.06697e-13
5.88046e-12
7.893e-11
6.91682e-13
4.00412e-11
2.28893e-13
3.90714e-12
2.04176e-12
1.77835e-13
7.18875e-15
4.68459e-14
3.90155e-15
4.17923e-15
2.86471e-14
5.30525e-15
3.6599e-15
1.473e-12
7.43992e-13
4.23494e-11
2.3706e-11
1.17557e-12
2.08098e-12
7.20961e-13
3.13464e-15
3.38464e-15
6.31206e-15
4.35081e-14
4.20662e-15
2.11579e-14
3.54822e-15
4.09103e-11
6.98223e-13
1.39955e-12
1.07517e-12
2.18143e-11
1.91118e-12
6.58718e-13
4.88015e-14
2.69728e-15
4.43921e-15
2.61795e-15
3.90643e-15
2.34943e-15
2.32894e-15
1.2518e-14
6.29654e-14
8.78094e-15
6.42069e-14
8.77821e-15
1.25908e-14
7.44694e-15
3.89052e-11
1.79416e-12
4.56626e-11
4.44036e-12
1.02335e-12
3.96295e-12
9.9664e-13
1.82037e-12
4.02164e-11
4.60888e-11
4.48771e-12
9.98459e-13
1.0143e-12
4.04857e-12
3.79306e-12
1.29735e-11
1.3888e-10
2.87251e-12
7.36565e-13
1.32956e-12
9.47404e-13
3.15924e-12
7.81085e-12
5.75007e-11
7.12553e-13
1.6987e-12
6.21879e-13
5.2249e-13
4.19994e-11
1.61737e-12
2.28284e-11
4.25143e-13
1.5683e-13
1.42332e-13
6.58679e-13
5.81437e-11
1.28715e-13
1.53191e-12
1.23663e-13
1.32705e-12
1.14632e-13
7.55728e-14
2.12264e-11
4.14841e-12
6.805e-11
2.90832e-12
1.50726e-12
1.97886e-12
1.64125e-12
4.67049e-16
1.10866e-15
1.4558e-14
4.47041e-16
8.04494e-16
4.38337e-16
4.74072e-16
4.66496e-16
7.66423e-16
3.22114e-16
3.15413e-16
6.04842e-16
3.0426e-16
3.35837e-16
5.52539e-15
6.0001e-15
2.16291e-14
7.85826e-15
4.89628e-15
4.86697e-15
4.56187e-15
2.61964e-11
1.11989e-12
1.27011e-11
9.12715e-13
2.88366e-12
1.88857e-12
8.60896e-13
6.39544e-12
1.71066e-13
7.59228e-14
7.43925e-14
9.24098e-13
1.41783e-13
6.99155e-13
3.67403e-13
4.63001e-12
1.51201e-11
8.729e-13
1.60136e-13
3.92925e-13
1.72869e-13
1.46163e-12
1.59684e-13
8.80554e-13
1.50147e-13
8.85609e-13
1.59884e-13
1.25362e-13
2.31091e-11
1.04267e-13
9.31503e-13
1.00762e-13
6.93942e-13
1.12812e-13
8.41643e-14
4.9665e-13
1.18295e-11
2.17146e-11
5.79342e-13
3.78745e-13
1.31044e-13
1.36343e-13
9.0773e-12
7.16694e-13
8.33341e-13
1.12345e-12
6.15466e-13
8.02834e-13
6.51877e-13
1.72169e-11
4.74818e-12
5.54044e-11
2.69326e-12
2.74364e-12
3.74801e-12
3.0432e-12
2.61598e-12
6.23057e-13
7.73068e-12
8.96477e-13
4.67396e-13
6.2196e-13
5.00282e-13
5.00277e-12
4.29423e-13
3.24699e-13
3.17415e-13
2.61376e-13
1.85596e-13
1.91254e-13
5.53047e-12
9.03418e-14
2.92902e-13
8.55002e-14
1.66343e-13
8.65221e-14
7.86514e-14
1.76337e-15
2.40587e-15
1.61483e-15
1.89122e-15
1.88539e-14
1.67553e-15
3.60578e-15
3.72152e-12
1.14291e-11
4.03332e-11
2.71867e-12
1.90963e-12
2.1383e-12
1.97853e-12
9.47306e-13
1.02214e-13
4.08238e-14
6.36604e-14
7.66647e-14
5.42534e-14
1.70231e-12
1.07538e-11
5.97032e-13
1.29365e-12
5.28975e-13
7.35305e-13
5.47305e-13
4.87068e-13
8.80496e-13
3.92958e-13
1.93166e-12
3.09302e-13
4.17161e-13
2.96045e-13
2.63626e-13
1.10862e-11
2.0459e-11
1.23903e-11
1.46989e-12
1.58113e-12
1.58884e-12
1.46745e-12
1.09383e-11
2.04999e-11
1.23837e-11
1.45778e-12
1.5585e-12
1.44219e-12
1.57633e-12
3.85185e-16
3.1427e-16
1.87612e-15
2.93587e-16
3.39175e-16
3.01797e-16
5.58241e-16
1.33488e-16
1.38633e-16
1.32263e-16
1.43334e-16
9.60462e-16
1.35728e-16
1.78103e-16
2.84642e-13
4.52541e-13
2.07801e-13
1.84419e-13
1.74985e-13
1.74716e-13
1.68209e-13
5.72902e-16
4.1127e-16
2.1244e-15
3.84787e-16
4.17402e-16
4.04432e-16
5.18403e-16
2.8682e-14
4.84246e-15
5.16484e-15
4.76388e-15
4.86078e-15
5.40195e-15
4.86062e-15
6.58691e-13
1.32848e-12
3.49739e-12
8.42562e-13
5.65642e-13
5.94434e-13
6.64666e-13
7.51098e-13
9.0408e-14
4.56119e-13
1.26785e-13
8.49732e-14
8.37456e-14
1.5534e-13
6.31694e-13
4.9313e-13
4.21151e-12
2.81291e-13
2.32134e-13
2.36576e-13
2.41732e-13
9.74556e-13
8.98467e-14
2.75416e-13
9.05121e-14
1.33754e-13
1.00166e-13
8.46459e-14
2.12426e-11
8.95913e-12
9.57566e-12
5.41078e-12
5.46336e-12
5.25974e-12
5.22001e-12
2.42917e-11
9.23259e-12
9.75025e-12
5.53107e-12
5.57758e-12
5.37571e-12
5.33448e-12
5.22171e-13
3.63841e-14
5.75291e-14
3.49149e-14
6.10118e-14
3.81331e-14
3.41281e-14
2.49281e-12
1.34993e-13
2.53234e-13
1.33056e-13
1.68579e-13
1.32316e-13
1.28038e-13
7.16297e-12
6.59785e-12
4.4585e-12
1.70215e-12
1.63087e-12
1.57683e-12
1.63898e-12
2.29369e-12
3.44126e-13
1.28989e-13
1.3201e-13
1.69602e-13
1.24361e-13
1.20588e-13
4.3316e-19
4.18302e-18
5.15743e-19
4.37807e-19
5.19839e-19
5.24984e-18
2.79764e-18
2.48241e-16
1.59187e-16
2.25263e-14
6.13746e-17
5.32266e-18
6.39568e-16
4.81472e-17
1.46792e-16
2.70151e-16
9.29865e-16
1.055e-15
1.15924e-16
6.09336e-17
1.07171e-16
1.73641e-18
2.47519e-23
9.56752e-19
3.23576e-20
5.02581e-22
7.22614e-23
5.22541e-24
9.96893e-24
7.51717e-22
1.25108e-22
1.77793e-22
2.99259e-21
3.97711e-21
3.49948e-21
3.1878e-21
2.96463e-17
3.93251e-19
1.41938e-17
1.51432e-17
3.86916e-19
2.19252e-18
1.79232e-19
1.33071e-19
2.14436e-22
5.7697e-22
1.74472e-22
5.70684e-22
7.74315e-21
3.7617e-21
1.08078e-22
1.6277e-23
3.9548e-23
8.11921e-24
5.08435e-23
8.45115e-23
1.2242e-24
1.58081e-26
4.89039e-24
7.06135e-26
9.14976e-28
1.21327e-19
4.34747e-19
3.93838e-18
3.66946e-20
2.03358e-20
2.79524e-20
2.79079e-20
1.3927e-19
2.41243e-19
8.97169e-20
2.75949e-19
8.17581e-21
3.96484e-20
8.66063e-20
3.87738e-19
9.88517e-21
7.9608e-21
9.30628e-21
6.51033e-20
2.82746e-20
6.20072e-20
4.02193e-20
2.2881e-19
1.1971e-20
3.28148e-19
2.38468e-22
1.12806e-17
2.5906e-16
1.05088e-18
1.52479e-17
3.00435e-22
1.15598e-21
3.54403e-21
1.3183e-20
3.7263e-22
6.21998e-23
3.99377e-23
1.82913e-21
8.60304e-22
1.29463e-21
1.2985e-21
1.57094e-21
4.63498e-22
1.82919e-22
5.71619e-21
1.05282e-20
3.93127e-21
1.26127e-20
9.92763e-19
6.63122e-19
6.56106e-19
3.18567e-20
3.29246e-20
1.53238e-20
1.49405e-20
1.44782e-17
1.05648e-18
9.20281e-19
3.65523e-19
3.81137e-19
2.44698e-17
2.42713e-17
9.71213e-21
9.79397e-24
1.20748e-21
9.34467e-21
3.86324e-22
1.04166e-22
2.04067e-22
3.13435e-24
4.95877e-23
6.45843e-23
2.79532e-23
2.69061e-22
5.16781e-22
3.08423e-22
4.30146e-22
3.69169e-22
2.22958e-21
4.17634e-21
1.46528e-21
5.22501e-21
1.81384e-19
2.50565e-20
1.98776e-20
2.69371e-21
2.06817e-22
8.53351e-22
8.06741e-23
8.68668e-22
4.88946e-21
2.11817e-19
3.48809e-21
4.92955e-23
6.21893e-25
6.08404e-18
1.10905e-19
1.94448e-22
5.79388e-21
1.60674e-21
2.73883e-24
8.45815e-23
2.01187e-23
3.48739e-26
1.08864e-24
4.03882e-18
1.1045e-17
7.80642e-17
4.42405e-18
1.84146e-18
4.605e-18
2.00355e-18
8.41424e-17
3.76746e-18
7.36165e-18
1.2375e-18
4.75445e-18
5.8761e-20
6.75469e-20
7.54265e-26