/*--------------------------------*- C++ -*----------------------------------*\
  =========                 |
  \\      /  F ield         | OpenFOAM: The Open Source CFD Toolbox
   \\    /   O peration     | Website:  https://openfoam.org
    \\  /    A nd           | Version:  9
     \\/     M anipulation  |
\*---------------------------------------------------------------------------*/
FoamFile
{
    format      ascii;
    class       volVectorField;
    location    "0.00135";
    object      rhoU;
}
// * * * * * * * * * * * * * * * * * * * * * * * * * * * * * * * * * * * * * //

dimensions      [1 -2 -1 0 0 0 0];

internalField   nonuniform List<vector> 
11304
(
(0 0 -2.47012e-19)
(3.23871e-17 0 1.60437e-15)
(-6.38821e-18 0 1.27907e-15)
(-5.12077e-15 0 1.44377e-15)
(-3.83375e-13 2.79318e-14 1.95023e-13)
(-1.58193e-11 1.5201e-12 9.16913e-12)
(-5.78699e-10 6.89015e-11 3.85626e-10)
(0 0 -1.12233e-20)
(-5.90748e-19 0 -1.58876e-19)
(0 0 -5.91934e-19)
(0 0 -2.5554e-18)
(-6.80647e-15 0 3.98985e-15)
(-4.47079e-13 4.01693e-14 3.11639e-13)
(-1.58331e-11 1.98662e-12 1.26274e-11)
(0 0 0)
(0 0 0)
(0 0 0)
(0 0 0)
(0 0 3.52503e-18)
(-7.01819e-15 0 5.52773e-15)
(-3.77987e-13 4.05483e-14 3.56341e-13)
(0 0 0)
(0 0 0)
(0 0 0)
(0 0 0)
(0 0 0)
(0 0 0)
(-3.99965e-15 0 5.87261e-15)
(0 0 0)
(0 0 0)
(0 0 0)
(0 0 0)
(0 0 0)
(0 0 0)
(0 0 0)
(-5.01185e-10 7.24701e-11 4.4326e-10)
(-1.13792e-11 1.70917e-12 1.23273e-11)
(-2.3246e-13 2.80428e-14 2.92255e-13)
(-9.55336e-16 0 3.21449e-15)
(-1.86468e-08 2.71169e-09 1.21449e-08)
(-4.7706e-07 8.41169e-08 3.85362e-07)
(-1.31505e-08 2.31621e-09 1.471e-08)
(-2.74399e-10 4.94697e-11 3.81133e-10)
(-5.44693e-12 1.0224e-12 8.59819e-12)
(-9.63909e-14 1.28845e-14 1.73623e-13)
(-0.00213239 0.000217011 0.00274363)
(-1.18404e-06 2.52664e-07 2.6983e-06)
(-4.61413e-08 1.39904e-08 1.33476e-07)
(-8.38532e-10 2.7675e-10 2.80676e-09)
(-1.66622e-11 5.66783e-12 5.44601e-11)
(-0.000110924 1.60674e-05 0.000111071)
(-2.32237e-07 5.19535e-08 3.37524e-07)
(-4.67272e-09 1.11694e-09 9.11689e-09)
(-8.63802e-11 2.13875e-11 1.93706e-10)
(-1.64044e-12 4.13658e-13 3.82105e-12)
(-1.43728 0.35367 2.37012)
(-0.000421705 4.73776e-05 0.000774707)
(-4.73496e-05 8.52484e-06 7.92622e-05)
(-0.368707 0.139874 0.625617)
(-0.000548178 0.000168347 0.000655503)
(-0.000499116 0.00017525 0.000976493)
(-2.97923e-05 9.68066e-06 4.87095e-05)
(-2.2017 0.369069 3.59855)
(-0.0537057 0.0135493 0.101012)
(-0.081933 0.0135146 0.154323)
(-0.24393 0.0374344 0.385347)
(-0.156891 0.0358372 0.247058)
(-0.00949961 0.00140781 0.0164144)
(-0.00612617 0.00144457 0.0105268)
(-0.792989 0.250631 1.32512)
(-0.0137945 0.00567936 0.0257084)
(-0.0297039 0.00886539 0.055729)
(-0.0382108 0.0136612 0.0594148)
(-0.0847142 0.0236535 0.132653)
(-0.00334656 0.000868332 0.00569796)
(-0.00153929 0.000640147 0.00260399)
(-6.12018e-07 -5.24451e-07 8.74796e-07)
(-1.07948e-05 -6.21267e-06 1.48724e-05)
(-1.17904e-08 -1.05328e-08 2.37883e-08)
(-1.1025e-07 -6.72482e-08 1.92231e-07)
(-2.40534e-10 -2.14529e-10 5.89184e-10)
(-2.36416e-09 -1.47739e-09 5.56591e-09)
(-4.63458e-12 -4.07551e-12 1.27528e-11)
(-4.43679e-11 -2.92509e-11 1.25041e-10)
(-7.38964e-14 -5.91035e-14 2.41989e-13)
(-8.00761e-13 -5.42317e-13 2.44701e-12)
(-3.08568e-08 -3.81904e-08 4.44358e-08)
(-7.23398e-10 -8.93582e-10 1.36631e-09)
(-1.53238e-11 -1.87354e-11 3.45824e-11)
(-2.92306e-13 -3.46718e-13 7.53029e-13)
(-2.07782e-15 -2.02228e-15 1.08254e-14)
(-6.25833e-05 -3.04093e-05 7.83242e-05)
(-2.79161e-05 -8.72119e-06 5.41168e-05)
(-6.71971e-07 -3.31942e-07 1.42494e-06)
(-1.40616e-06 -3.93532e-07 2.83951e-06)
(-1.17125e-08 -6.4259e-09 2.99868e-08)
(-4.18602e-08 -1.433e-08 1.15919e-07)
(-2.52274e-10 -1.3994e-10 6.87471e-10)
(-8.15814e-10 -2.91868e-10 2.52244e-09)
(-5.21309e-12 -2.91523e-12 1.49892e-11)
(-1.69409e-11 -6.05865e-12 5.06655e-11)
(-0.00063375 -0.000192092 0.000784025)
(-4.19209e-05 -6.30291e-06 6.88059e-05)
(-0.00129165 -0.000249899 0.00160662)
(-0.0310257 -0.011789 0.0481334)
(-0.140025 -0.0345228 0.220192)
(-8.96774e-05 -3.333e-05 0.000185791)
(-0.000391266 -5.10122e-05 0.000715389)
(-3.58981e-10 -5.65817e-12 1.12574e-11)
(-1.37022e-08 -2.43095e-10 5.5429e-10)
(-5.63369e-07 -7.52391e-09 2.87258e-08)
(-3.15937e-05 4.07457e-07 1.19905e-06)
(-1.08595e-10 -1.17639e-12 1.71188e-11)
(-4.23817e-09 -5.58895e-11 6.8775e-10)
(-1.44099e-07 -3.27945e-09 2.40122e-08)
(-2.5951e-06 -3.10098e-08 4.75186e-07)
(-0.000773233 6.35553e-06 0.000193144)
(-2.98292e-11 -5.2526e-13 3.98999e-12)
(-1.10051e-09 -2.596e-11 1.61666e-10)
(-3.52894e-08 -1.04358e-09 5.78035e-09)
(-1.09753e-06 -2.82651e-08 1.8224e-07)
(-5.39439e-05 8.94411e-07 6.52413e-06)
(0 0 0)
(7.28639e-33 0 0)
(-1.82261e-33 0 0)
(-2.79079e-29 0 0)
(-6.93833e-26 0 0)
(-5.16741e-24 0 0)
(-1.46267e-21 0 0)
(-6.41749e-20 0 0)
(-3.46412e-18 0 0)
(-1.01916e-16 -8.2437e-17 0)
(0 0 0)
(4.82996e-31 0 0)
(-3.97802e-31 0 0)
(-6.97125e-27 0 0)
(-1.54871e-23 0 0)
(-8.52758e-22 0 0)
(-2.12921e-19 0 0)
(-8.51205e-18 0 0)
(-5.71544e-16 -1.89478e-16 0)
(-3.12345e-14 -8.17856e-14 1.21075e-15)
(0 0 0)
(2.9888e-29 0 0)
(-9.43551e-29 0 0)
(-1.67981e-24 0 0)
(-3.15722e-21 0 0)
(-1.29053e-19 0 0)
(-2.83256e-17 0 9.4739e-17)
(-1.11196e-15 -7.56839e-16 2.8151e-15)
(-8.64203e-14 -1.469e-13 4.98057e-15)
(-2.06776e-12 -4.54848e-12 1.46405e-13)
(0 0 0)
(1.6448e-27 0 0)
(-2.38882e-26 0 0)
(-3.78339e-22 0 0)
(-2.30816e-19 0 1.60674e-14)
(-1.15929e-17 0 -1.92209e-14)
(-1.6446e-15 -1.13472e-15 2.50492e-14)
(-1.50981e-13 -1.90218e-13 4.00746e-14)
(-4.8091e-12 -7.39171e-12 2.99088e-13)
(-1.104e-10 -2.14945e-10 8.53387e-12)
(0 0 0)
(7.99801e-26 0 0)
(-6.26908e-24 0 0)
(-3.1889e-20 0 -1.60674e-14)
(-1.58198e-17 0 0)
(-1.92199e-15 -5.6736e-16 -3.0848e-14)
(-1.91748e-13 -1.77768e-13 6.53699e-15)
(-7.57451e-12 -8.2497e-12 3.43226e-13)
(-2.28324e-10 -3.08855e-10 1.41124e-11)
(-5.19748e-09 -8.78897e-09 4.54807e-10)
(0 0 0)
(3.56825e-24 0 0)
(-1.66862e-21 0 0)
(-2.62768e-18 0 1.74208e-14)
(-1.37323e-15 0 2.84389e-14)
(-1.76366e-13 -1.12272e-13 4.16852e-15)
(-8.17625e-12 -6.23056e-12 3.43596e-13)
(-3.13589e-10 -2.85173e-10 1.57316e-11)
(-9.67589e-09 -1.12906e-08 6.72427e-10)
(-2.38091e-07 -3.41223e-07 2.34269e-08)
(0 0 0)
(1.61194e-22 0 0)
(-4.3215e-19 0 -8.52651e-16)
(-2.21596e-16 0 -2.53335e-14)
(-1.07867e-13 -4.5745e-14 1.32635e-15)
(-5.91824e-12 -2.99616e-12 1.63664e-13)
(-2.72208e-10 -1.58302e-10 1.13907e-11)
(-1.10196e-08 -7.60102e-09 6.03408e-10)
(-4.48149e-07 -4.16392e-07 3.30958e-08)
(-8.12466e-06 -1.21755e-05 2.16437e-06)
(0 0 0)
(3.15561e-21 0 0)
(-4.26525e-17 0 -3.65422e-15)
(-4.25047e-14 -9.28443e-15 -3.51956e-14)
(-2.70993e-12 -8.30672e-13 7.28137e-14)
(-1.3968e-10 -4.58713e-11 5.00827e-12)
(-6.2808e-09 -2.32148e-09 2.95611e-10)
(-2.62715e-07 -1.16006e-07 1.64071e-08)
(-0.00561551 -0.0034082 9.865e-05)
(0 0 0)
(6.76578e-33 0 0)
(-8.26115e-35 0 0)
(-3.92136e-31 0 0)
(-3.28245e-28 0 0)
(-1.77709e-25 0 0)
(-4.59883e-23 0 0)
(-6.03641e-21 0 0)
(-5.32714e-19 0 0)
(-1.47844e-17 -6.42488e-18 0)
(0 0 0)
(4.1627e-31 0 0)
(-1.64882e-32 0 0)
(-1.03984e-28 0 0)
(-6.88564e-26 0 0)
(-3.45893e-23 0 0)
(-8.52672e-21 0 0)
(-1.05958e-18 0 0)
(-9.31558e-17 0 0)
(-3.49139e-15 -1.49166e-14 1.04169e-15)
(0 0 0)
(2.42171e-29 0 0)
(-3.27269e-30 0 0)
(-2.625e-26 0 0)
(-1.47592e-23 0 0)
(-6.68687e-21 0 0)
(-1.54646e-18 0 0)
(-1.81714e-16 0 0)
(-1.56597e-14 -2.81048e-14 2.65269e-15)
(-3.99007e-13 -8.86898e-13 1.66683e-13)
(0 0 0)
(1.34595e-27 0 0)
(-6.79213e-28 0 0)
(-6.29601e-24 0 0)
(-3.22459e-21 0 0)
(-1.24962e-18 0 0)
(-2.60967e-16 0 0)
(-2.89648e-14 -3.94094e-14 6.44225e-15)
(-9.39103e-13 -1.44464e-12 2.98807e-13)
(-1.92287e-11 -3.99753e-11 8.76382e-12)
(0 0 0)
(6.97255e-26 0 0)
(-1.55614e-25 0 0)
(-1.42139e-21 0 0)
(-6.87174e-19 0 0)
(-2.17354e-16 0 0)
(-3.96508e-14 -3.48925e-14 4.64221e-15)
(-1.48386e-12 -1.61501e-12 3.8663e-13)
(-4.28256e-11 -5.85254e-11 1.42878e-11)
(-9.22239e-10 -1.80584e-09 4.08461e-10)
(0 0 0)
(3.18084e-24 0 0)
(-3.69803e-23 0 0)
(-2.89823e-19 0 0)
(-1.32653e-16 0 0)
(-3.44496e-14 -2.18838e-14 3.50534e-15)
(-1.59733e-12 -1.22829e-12 3.58208e-13)
(-5.93413e-11 -5.36666e-11 1.57106e-11)
(-1.9734e-09 -2.27493e-09 6.06854e-10)
(-4.57794e-08 -7.6809e-08 1.87594e-08)
(0 0 0)
(1.2685e-22 0 0)
(-8.37797e-21 0 0)
(-5.04226e-17 0 0)
(-2.1797e-14 -7.74489e-15 1.51582e-15)
(-1.17273e-12 -6.12931e-13 2.20458e-13)
(-5.12922e-11 -2.99872e-11 1.15139e-11)
(-2.21096e-09 -1.49172e-09 5.32592e-10)
(-8.34686e-08 -7.16205e-08 2.35072e-08)
(-1.35652e-06 -1.82786e-06 6.10935e-07)
(0 0 0)
(4.89727e-21 0 0)
(-2.12283e-18 0 0)
(-7.83184e-15 -9.4739e-16 -1.47784e-15)
(-5.58292e-13 -1.93647e-13 8.98661e-14)
(-2.68172e-11 -9.66455e-12 5.30741e-12)
(-1.27886e-09 -4.82773e-10 2.67087e-10)
(-5.81436e-08 -2.7326e-08 1.29066e-08)
(-1.9507e-05 -1.318e-05 7.04211e-06)
(-10.852 -9.27778 5.32658)
(0 0 0)
(6.57479e-33 0 0)
(-1.76847e-36 0 0)
(-9.69822e-33 0 0)
(-2.44949e-29 0 0)
(-1.5271e-26 0 0)
(-4.75476e-24 0 0)
(-6.80801e-22 0 0)
(-7.07837e-20 0 0)
(-2.14044e-18 0 0)
(0 0 0)
(4.00753e-31 0 0)
(-4.28172e-34 0 0)
(-2.49333e-30 0 0)
(-5.32693e-27 0 0)
(-2.87785e-24 0 0)
(-8.01819e-22 0 0)
(-1.06351e-19 0 0)
(-1.02261e-17 0 0)
(-3.24203e-16 -5.84518e-16 1.14724e-17)
(0 0 0)
(2.26937e-29 0 0)
(-9.81708e-32 0 0)
(-6.33967e-28 0 0)
(-1.10975e-24 0 0)
(-5.19496e-22 0 0)
(-1.28235e-19 0 0)
(-1.58276e-17 0 0)
(-1.34737e-15 -1.51324e-15 0)
(-7.20542e-14 -1.55996e-13 1.61719e-14)
(0 0 0)
(1.18991e-27 0 0)
(-2.11558e-29 0 0)
(-1.5661e-25 0 0)
(-2.16338e-22 0 0)
(-9.2686e-20 0 0)
(-2.11171e-17 0 0)
(-2.58134e-15 -3.59276e-15 0)
(-1.61229e-13 -2.37114e-13 3.00323e-14)
(-3.4287e-12 -6.57731e-12 1.01227e-12)
(0 0 0)
(5.78307e-26 0 0)
(-4.39719e-27 0 0)
(-3.65435e-23 0 0)
(-3.95186e-20 0 0)
(-1.74483e-17 0 0)
(-4.112e-15 -2.64709e-15 0)
(-2.43079e-13 -2.65126e-13 4.23483e-14)
(-6.92341e-12 -9.02868e-12 1.59327e-12)
(-1.50801e-10 -2.65853e-10 4.46895e-11)
(0 0 0)
(2.62491e-24 0 0)
(-9.61779e-25 0 0)
(-7.79784e-21 0 0)
(-7.55765e-18 0 0)
(-3.30554e-15 -9.46096e-16 0)
(-2.61831e-13 -2.00181e-13 3.81798e-14)
(-9.11604e-12 -8.25342e-12 1.74892e-12)
(-2.79945e-10 -3.10383e-10 6.33572e-11)
(-7.27554e-09 -1.10267e-08 2.13712e-09)
(0 0 0)
(1.08488e-22 0 0)
(-2.54217e-22 0 0)
(-1.47227e-18 0 0)
(-1.76513e-15 0 0)
(-1.9389e-13 -1.0791e-13 2.25479e-14)
(-7.95524e-12 -4.95961e-12 1.3078e-12)
(-3.03344e-10 -2.14067e-10 5.58862e-11)
(-1.13075e-08 -9.69233e-09 2.48705e-09)
(-3.35187e-07 -3.74887e-07 9.90512e-08)
(0 0 0)
(3.83627e-21 0 0)
(-7.4645e-20 0 0)
(-2.36848e-16 0 7.50029e-18)
(-1.00787e-13 -3.4485e-14 8.84236e-15)
(-4.57326e-12 -1.9183e-12 6.54169e-13)
(-1.9395e-10 -8.4961e-11 3.02071e-11)
(-8.6063e-09 -4.19031e-09 1.48947e-09)
(-3.34602e-07 -2.17265e-07 7.49989e-08)
(-1.70212e-05 -1.48024e-05 4.46438e-06)
(0 0 0)
(4.73246e-33 0 0)
(-5.69963e-40 0 0)
(-4.95742e-35 0 0)
(-4.14098e-31 0 0)
(-4.89218e-28 0 0)
(-1.87359e-25 0 0)
(-3.74118e-23 0 0)
(-4.20824e-21 0 0)
(-1.35038e-19 0 0)
(0 0 0)
(2.89214e-31 0 0)
(-2.25452e-37 0 0)
(-1.5516e-32 0 0)
(-9.83234e-29 0 0)
(-1.01007e-25 0 0)
(-3.5852e-23 0 0)
(-6.90806e-21 0 0)
(-7.14242e-19 0 0)
(-1.96028e-17 -1.27721e-17 0)
(0 0 0)
(1.64095e-29 0 0)
(-8.29123e-35 0 0)
(-4.60247e-30 0 0)
(-2.29435e-26 0 0)
(-2.06171e-23 0 0)
(-6.85527e-21 0 0)
(-1.2497e-18 0 0)
(-1.21559e-16 0 0)
(-6.37754e-15 -1.8055e-14 1.26376e-15)
(0 0 0)
(8.59324e-28 0 0)
(-2.89285e-32 0 0)
(-1.2786e-27 0 0)
(-5.3839e-24 0 0)
(-4.15234e-21 0 0)
(-1.27278e-18 0 0)
(-2.09139e-16 0 0)
(-1.89562e-14 -3.05426e-14 2.93691e-15)
(-4.90639e-13 -9.45308e-13 1.67833e-13)
(0 0 0)
(4.12508e-26 0 0)
(-9.85567e-30 0 0)
(-3.34812e-25 0 0)
(-1.28129e-21 0 0)
(-8.06679e-19 0 0)
(-2.16323e-16 0 0)
(-3.09852e-14 -3.26161e-14 4.26326e-15)
(-9.91199e-13 -1.28134e-12 2.62414e-13)
(-2.14307e-11 -3.61314e-11 7.43839e-12)
(0 0 0)
(1.80096e-24 0 0)
(-3.3199e-27 0 0)
(-8.75855e-23 0 0)
(-3.00299e-19 0 0)
(-1.44678e-16 0 0)
(-3.22411e-14 -2.24423e-14 3.41061e-15)
(-1.28908e-12 -1.17391e-12 2.84867e-13)
(-3.76384e-11 -4.19536e-11 1.01103e-11)
(-8.3095e-10 -1.22598e-09 3.04634e-10)
(0 0 0)
(7.09321e-23 0 0)
(-1.07462e-24 0 0)
(-2.53973e-20 0 0)
(-6.47898e-17 0 0)
(-2.25327e-14 -1.15144e-14 1.80004e-15)
(-1.13831e-12 -7.30147e-13 2.11458e-13)
(-4.14621e-11 -3.09148e-11 9.04635e-12)
(-1.26682e-09 -1.15973e-09 3.49576e-10)
(-2.94188e-08 -3.58449e-08 1.19618e-08)
(0 0 0)
(2.51126e-21 0 0)
(-3.19915e-22 0 0)
(-7.97016e-18 0 0)
(-1.16953e-14 -1.7053e-15 7.13452e-16)
(-6.84936e-13 -2.87059e-13 1.09502e-13)
(-2.89681e-11 -1.39363e-11 5.30329e-12)
(-1.09728e-09 -6.1269e-10 2.35488e-10)
(-3.54483e-08 -2.42583e-08 1.02177e-08)
(-9.69337e-07 -8.81232e-07 3.77849e-07)
(0 0 0)
(1.23454e-34 0 0)
(0 0 0)
(-8.59917e-39 0 0)
(-7.30727e-34 0 0)
(-2.50156e-30 0 0)
(-1.85419e-27 0 0)
(-5.40844e-25 0 0)
(-7.99955e-23 0 0)
(-3.10959e-21 0 0)
(0 0 0)
(7.90846e-33 0 0)
(0 0 0)
(-3.9195e-36 0 0)
(-2.10275e-31 0 0)
(-5.93984e-28 0 0)
(-3.98458e-25 0 0)
(-1.04326e-22 0 0)
(-1.47568e-20 0 0)
(-5.35768e-19 0 0)
(0 0 0)
(4.69053e-31 0 0)
(0 0 0)
(-1.67686e-33 0 0)
(-5.84241e-29 0 0)
(-1.40409e-25 0 0)
(-8.37071e-23 0 0)
(-1.95212e-20 0 0)
(-2.59231e-18 0 0)
(-9.53911e-17 -7.69036e-17 1.41489e-17)
(0 0 0)
(2.56125e-29 0 0)
(0 0 0)
(-6.61829e-31 0 0)
(-1.59827e-26 0 0)
(-3.27364e-23 0 0)
(-1.66881e-20 0 0)
(-3.43428e-18 0 0)
(-4.13856e-16 0 0)
(-2.85216e-14 -5.6701e-14 1.67227e-14)
(0 0 0)
(1.2798e-27 0 0)
(-2.28413e-39 0 0)
(-2.37139e-28 0 0)
(-4.38494e-24 0 0)
(-7.30674e-21 0 0)
(-3.04106e-18 0 0)
(-5.47806e-16 0 0)
(-5.79481e-14 -7.59367e-14 2.66217e-14)
(-1.44861e-12 -2.3659e-12 8.74593e-13)
(0 0 0)
(5.81342e-26 0 0)
(-1.28131e-35 0 0)
(-7.67701e-26 0 0)
(-1.19835e-21 0 0)
(-1.49402e-18 0 0)
(-4.90728e-16 0 0)
(-7.70586e-14 -6.97186e-14 2.71901e-14)
(-2.44256e-12 -2.6939e-12 1.16459e-12)
(-5.66978e-11 -8.07656e-11 3.40806e-11)
(0 0 0)
(2.38265e-24 0 0)
(-3.44434e-32 0 0)
(-2.36333e-23 0 0)
(-3.11997e-19 0 0)
(-2.67403e-16 0 0)
(-6.9319e-14 -4.16615e-14 2.09373e-14)
(-2.66416e-12 -1.99992e-12 1.05132e-12)
(-8.2344e-11 -7.4935e-11 3.87524e-11)
(-1.98819e-09 -2.3504e-09 1.20228e-09)
(0 0 0)
(8.72735e-23 0 0)
(-5.78666e-29 0 0)
(-8.19049e-21 0 0)
(-7.26103e-17 0 7.49873e-18)
(-4.08293e-14 -1.51582e-14 9.26083e-15)
(-1.8836e-12 -9.32936e-13 6.34857e-13)
(-7.14935e-11 -4.09658e-11 2.75463e-11)
(-2.31638e-09 -1.60886e-09 1.08236e-09)
(-6.04196e-08 -5.39977e-08 3.69841e-08)
(0 0 0)
(-6.45556e-38 0 0)
(0 0 0)
(-3.44105e-48 0 0)
(-8.89968e-38 0 0)
(-2.52852e-33 0 0)
(-5.5999e-30 0 0)
(-3.09379e-27 0 0)
(-6.57525e-25 0 0)
(-3.08423e-23 0 0)
(0 0 0)
(-3.62985e-36 0 0)
(0 0 0)
(-6.05557e-45 0 0)
(-3.4811e-35 0 0)
(-7.16367e-31 0 0)
(-1.31968e-27 0 0)
(-6.57334e-25 0 0)
(-1.29905e-22 0 0)
(-5.86038e-21 0 0)
(0 0 0)
(-1.97534e-34 0 0)
(0 0 0)
(-9.12089e-42 0 0)
(-1.26855e-32 0 0)
(-1.98519e-28 0 0)
(-3.04821e-25 0 0)
(-1.35073e-22 0 0)
(-2.44754e-20 0 0)
(-1.10064e-18 0 0)
(0 0 0)
(-1.02346e-32 0 0)
(0 0 0)
(-1.27536e-38 0 0)
(-4.31002e-30 0 0)
(-5.44469e-26 0 0)
(-6.80295e-23 0 0)
(-2.60658e-20 0 0)
(-4.24105e-18 0 0)
(-1.94702e-16 -1.44094e-16 7.37144e-17)
(0 0 0)
(-5.04271e-31 0 0)
(0 0 0)
(-1.79292e-35 0 0)
(-1.39624e-27 0 0)
(-1.47006e-23 0 0)
(-1.42665e-20 0 0)
(-4.56865e-18 0 0)
(-6.56376e-16 0 0)
(-5.16361e-14 -8.80067e-14 4.86312e-14)
(0 0 0)
(-2.35115e-29 0 0)
(0 0 0)
(-2.49402e-32 0 0)
(-4.52344e-25 0 0)
(-3.78543e-21 0 0)
(-2.71704e-18 0 0)
(-7.08112e-16 0 0)
(-9.00883e-14 -9.81497e-14 6.2812e-14)
(-2.13849e-12 -2.98526e-12 1.99721e-12)
(0 0 0)
(-1.02669e-27 0 0)
(0 0 0)
(-3.12279e-29 0 0)
(-1.51823e-22 0 0)
(-8.82342e-19 0 0)
(-4.55727e-16 0 0)
(-9.61199e-14 -6.86035e-14 5.78855e-14)
(-3.02394e-12 -2.73193e-12 2.2289e-12)
(-7.07388e-11 -8.20113e-11 6.75131e-11)
(0 0 0)
(-4.13279e-26 0 0)
(0 0 0)
(-3.22717e-26 0 0)
(-5.06104e-20 0 0)
(-1.75743e-16 0 6.0195e-17)
(-6.59707e-14 -3.0506e-14 3.41762e-14)
(-2.61286e-12 -1.51645e-12 1.60056e-12)
(-8.05992e-11 -5.61205e-11 6.03967e-11)
(-1.92606e-09 -1.72174e-09 1.90125e-09)
(0 0 0)
(-1.71578e-40 0 0)
(0 0 0)
(0 0 0)
(-2.21438e-45 0 0)
(-1.7275e-37 0 0)
(-3.52552e-33 0 0)
(-5.58253e-30 0 0)
(-2.43755e-27 0 0)
(-1.43865e-25 0 0)
(0 0 0)
(-1.2944e-38 0 0)
(0 0 0)
(0 0 0)
(-3.43905e-43 0 0)
(-6.76054e-35 0 0)
(-9.93788e-31 0 0)
(-1.3339e-27 0 0)
(-5.17635e-25 0 0)
(-2.90165e-23 0 0)
(0 0 0)
(-9.34031e-37 0 0)
(0 0 0)
(0 0 0)
(-1.7585e-40 0 0)
(-2.4525e-32 0 0)
(-2.75607e-28 0 0)
(-3.12688e-25 0 0)
(-1.06686e-22 0 0)
(-5.76121e-21 0 0)
(0 0 0)
(-6.44164e-35 0 0)
(0 0 0)
(0 0 0)
(-1.77308e-37 0 0)
(-8.31666e-30 0 0)
(-7.58998e-26 0 0)
(-7.06546e-23 0 0)
(-2.0721e-20 0 0)
(-1.11634e-18 0 0)
(0 0 0)
(-4.22671e-33 0 0)
(0 0 0)
(0 0 0)
(-1.92304e-34 0 0)
(-2.71863e-27 0 0)
(-2.04484e-23 0 0)
(-1.49193e-20 0 0)
(-3.66271e-18 0 0)
(-2.0077e-16 -1.57309e-16 2.26868e-16)
(0 0 0)
(-2.61308e-31 0 0)
(0 0 0)
(0 0 0)
(-1.95453e-31 0 0)
(-9.03926e-25 0 0)
(-5.16883e-21 0 0)
(-2.84119e-18 0 0)
(-5.73354e-16 0 1.89478e-16)
(-5.34972e-14 -7.92726e-14 7.10906e-14)
(0 0 0)
(-1.49894e-29 0 0)
(0 0 0)
(0 0 0)
(-1.74705e-28 0 0)
(-3.16212e-22 0 0)
(-1.16098e-18 0 0)
(-4.7356e-16 0 9.4739e-17)
(-7.88334e-14 -7.06692e-14 7.75913e-14)
(-1.89553e-12 -2.17133e-12 2.36627e-12)
(0 0 0)
(-7.81846e-28 0 0)
(0 0 0)
(0 0 0)
(-1.31768e-25 0 0)
(-1.10879e-19 0 0)
(-2.20155e-16 0 1.45323e-16)
(-6.80154e-14 -3.65693e-14 5.43247e-14)
(-2.13336e-12 -1.49006e-12 2.09945e-12)
(-4.84828e-11 -4.29767e-11 6.25147e-11)
(0 0 0)
(0 0 0)
(0 0 0)
(0 0 0)
(0 0 0)
(-2.95196e-47 0 0)
(-1.04409e-37 0 0)
(-2.03393e-33 0 0)
(-2.66164e-30 0 0)
(-3.14514e-28 0 0)
(0 0 0)
(0 0 0)
(0 0 0)
(0 0 0)
(0 0 0)
(-4.88674e-44 0 0)
(-4.21456e-35 0 0)
(-5.8087e-31 0 0)
(-6.45688e-28 0 0)
(-6.89649e-26 0 0)
(0 0 0)
(0 0 0)
(0 0 0)
(0 0 0)
(0 0 0)
(-7.85275e-41 0 0)
(-1.58599e-32 0 0)
(-1.61857e-28 0 0)
(-1.55681e-25 0 0)
(-1.4694e-23 0 0)
(0 0 0)
(0 0 0)
(0 0 0)
(0 0 0)
(0 0 0)
(-1.21064e-37 0 0)
(-5.59991e-30 0 0)
(-4.4662e-26 0 0)
(-3.67952e-23 0 0)
(-3.11705e-21 0 0)
(0 0 0)
(0 0 0)
(0 0 0)
(0 0 0)
(0 0 0)
(-1.70072e-34 0 0)
(-1.91742e-27 0 0)
(-1.21539e-23 0 0)
(-8.22821e-21 0 0)
(-6.56834e-19 0 0)
(0 0 0)
(0 0 0)
(0 0 0)
(0 0 0)
(0 0 0)
(-2.06548e-31 0 0)
(-6.74567e-25 0 0)
(-3.15686e-21 0 0)
(-1.66005e-18 0 0)
(-1.3033e-16 -1.05203e-16 1.3452e-16)
(0 0 0)
(0 0 0)
(0 0 0)
(0 0 0)
(0 0 0)
(-2.08985e-28 0 0)
(-2.497e-22 0 0)
(-7.43299e-19 0 0)
(-2.89054e-16 0 0)
(-3.75891e-14 -4.36403e-14 6.18483e-14)
(0 0 0)
(0 0 0)
(0 0 0)
(0 0 0)
(0 0 0)
(-1.71622e-25 0 0)
(-9.032e-20 0 0)
(-1.50211e-16 0 1.79768e-16)
(-4.25377e-14 -2.65269e-14 5.39455e-14)
(-1.05121e-12 -9.22635e-13 1.62552e-12)
(0 0 0)
(0 0 0)
(0 0 0)
(0 0 0)
(0 0 0)
(0 0 0)
(-4.38212e-49 0 0)
(-2.14565e-38 0 0)
(-4.837e-34 0 0)
(-2.14377e-31 0 0)
(0 0 0)
(0 0 0)
(0 0 0)
(0 0 0)
(0 0 0)
(0 0 0)
(-1.00688e-45 0 0)
(-1.05081e-35 0 0)
(-1.44936e-31 0 0)
(-5.42451e-29 0 0)
(0 0 0)
(0 0 0)
(0 0 0)
(0 0 0)
(0 0 0)
(0 0 0)
(-1.86283e-42 0 0)
(-4.63091e-33 0 0)
(-4.23719e-29 0 0)
(-1.30768e-26 0 0)
(0 0 0)
(0 0 0)
(0 0 0)
(0 0 0)
(0 0 0)
(0 0 0)
(-3.03867e-39 0 0)
(-1.82753e-30 0 0)
(-1.22979e-26 0 0)
(-3.07128e-24 0 0)
(0 0 0)
(0 0 0)
(0 0 0)
(0 0 0)
(0 0 0)
(0 0 0)
(-5.01816e-36 0 0)
(-6.46163e-28 0 0)
(-3.57623e-24 0 0)
(-7.23444e-22 0 0)
(0 0 0)
(0 0 0)
(0 0 0)
(0 0 0)
(0 0 0)
(0 0 0)
(-8.60492e-33 0 0)
(-2.09256e-25 0 0)
(-1.0268e-21 0 0)
(-1.71849e-19 0 0)
(0 0 0)
(0 0 0)
(0 0 0)
(0 0 0)
(0 0 0)
(0 0 0)
(-1.37242e-29 0 0)
(-6.64905e-23 0 0)
(-2.79455e-19 0 0)
(-3.99606e-17 -4.2561e-17 9.26911e-17)
(0 0 0)
(0 0 0)
(0 0 0)
(0 0 0)
(0 0 0)
(0 0 0)
(-1.8128e-26 0 0)
(-2.28661e-20 0 0)
(-6.75983e-17 0 1.17391e-16)
(-1.66029e-14 -1.36424e-14 3.16804e-14)
(0 0 0)
(0 0 0)
(0 0 0)
(0 0 0)
(0 0 0)
(0 0 0)
(0 0 0)
(0 0 0)
(-2.10059e-39 0 0)
(-1.21403e-35 0 0)
(0 0 0)
(0 0 0)
(0 0 0)
(0 0 0)
(0 0 0)
(0 0 0)
(0 0 0)
(0 0 0)
(-1.0552e-36 0 0)
(-4.14385e-33 0 0)
(0 0 0)
(0 0 0)
(0 0 0)
(0 0 0)
(0 0 0)
(0 0 0)
(0 0 0)
(0 0 0)
(-5.02233e-34 0 0)
(-1.34988e-30 0 0)
(0 0 0)
(0 0 0)
(0 0 0)
(0 0 0)
(0 0 0)
(0 0 0)
(0 0 0)
(0 0 0)
(-2.2209e-31 0 0)
(-4.12254e-28 0 0)
(0 0 0)
(0 0 0)
(0 0 0)
(0 0 0)
(0 0 0)
(0 0 0)
(0 0 0)
(0 0 0)
(-8.94893e-29 0 0)
(-1.15884e-25 0 0)
(0 0 0)
(0 0 0)
(0 0 0)
(0 0 0)
(0 0 0)
(0 0 0)
(0 0 0)
(0 0 0)
(-3.22893e-26 0 0)
(-2.95106e-23 0 0)
(0 0 0)
(0 0 0)
(0 0 0)
(0 0 0)
(0 0 0)
(0 0 0)
(0 0 0)
(0 0 0)
(-1.02675e-23 0 0)
(-6.90952e-21 0 6.28721e-20)
(0 0 0)
(0 0 0)
(0 0 0)
(0 0 0)
(0 0 0)
(0 0 0)
(0 0 0)
(0 0 0)
(-2.82966e-21 0 0)
(-8.05022e-18 0 0)
(-8.4625e-12 -1.19182e-13 2.04629e-13)
(-2.64131e-12 -2.69059e-14 3.82505e-13)
(-6.92631e-13 -1.15582e-14 7.14513e-14)
(-7.25359e-14 -1.23511e-23 8.90484e-15)
(-3.86805e-12 -8.96231e-14 7.26016e-13)
(-1.77031e-10 -4.89069e-12 3.27594e-11)
(-8.1692e-09 -2.04957e-10 1.4426e-09)
(-3.39945e-07 -3.81407e-09 6.69207e-08)
(-4.7843e-06 7.00513e-08 1.29158e-06)
(0 0 0)
(-3.00598e-19 0 0)
(-8.96029e-15 -3.78419e-16 -2.59856e-15)
(-6.96965e-13 -1.59187e-13 -2.0501e-14)
(-3.64189e-11 -9.1465e-12 1.13516e-12)
(-1.65933e-09 -5.00039e-10 7.01485e-11)
(-6.0667e-08 -2.57906e-08 3.78149e-09)
(-6.40608e-06 -2.56639e-06 2.07357e-07)
(-0.10296 -0.0580303 0.00181605)
(0 0 0)
(-8.11186e-17 0 0)
(-1.34003e-13 -1.78466e-14 1.32635e-15)
(-7.219e-12 -1.41426e-12 1.8531e-13)
(-4.04558e-10 -7.61061e-11 1.24043e-11)
(-2.66669e-08 -4.8666e-09 1.06445e-09)
(-7.49974e-07 -1.8346e-07 4.1874e-08)
(-0.636705 -0.168348 0.0115307)
(0 0 0)
(-1.37932e-14 0 0)
(-1.06264e-12 -1.34212e-13 2.38742e-14)
(-5.39242e-11 -7.90828e-12 1.55556e-12)
(-2.34388e-09 -3.71104e-10 9.39807e-11)
(-7.95284e-08 -1.43208e-08 4.63044e-09)
(-1.18242e-06 -2.33203e-07 4.62734e-08)
(-2.95652 -0.841971 0.0620203)
(0 0 0)
(-7.80171e-14 -4.13293e-15 4.73695e-16)
(-4.22756e-12 -5.2588e-13 9.90023e-14)
(-1.83543e-10 -2.39476e-11 5.52337e-12)
(-6.93865e-09 -9.32677e-10 2.74239e-10)
(-2.6478e-07 -3.20735e-08 1.308e-08)
(-0.000228615 -1.60987e-05 3.43285e-05)
(-5.68434e-16 -1.73112e-35 0)
(-1.57779e-13 -3.78956e-16 1.61203e-15)
(0 0 0)
(1.11749e-19 0 0)
(-8.2637e-16 0 0)
(-1.69963e-13 -3.99558e-14 1.86636e-14)
(-7.9869e-12 -2.28748e-12 1.4435e-12)
(-3.61227e-10 -1.02771e-10 6.81963e-11)
(-1.88646e-08 -5.19933e-09 3.21595e-09)
(-6.54407e-07 -2.39513e-07 1.42564e-07)
(-0.000408545 -0.00021923 0.000129738)
(0 0 0)
(-6.9265e-18 0 0)
(-3.50447e-14 -2.83011e-15 2.27374e-15)
(-1.84538e-12 -3.83893e-13 2.95708e-13)
(-7.84623e-11 -1.73916e-11 1.43275e-11)
(-3.03539e-09 -7.41119e-10 6.66967e-10)
(-1.09778e-07 -3.05586e-08 2.54616e-08)
(-0.00193876 -0.000419164 0.000527305)
(0 0 0)
(-2.29512e-15 0 0)
(-2.8197e-13 -3.60018e-14 3.24007e-14)
(-1.28247e-11 -2.25719e-12 2.20317e-12)
(-5.5219e-10 -9.73935e-11 9.87234e-11)
(-2.70688e-08 -4.49131e-09 4.33319e-09)
(-6.68483e-07 -1.38918e-07 1.38689e-07)
(-0.0121894 -0.00274206 0.00347368)
(0 0 0)
(-2.20429e-14 -9.46124e-16 1.23161e-15)
(-1.32848e-12 -1.78903e-13 1.82562e-13)
(-5.62647e-11 -7.91921e-12 8.73377e-12)
(-2.23287e-09 -3.12592e-10 3.58908e-10)
(-7.6047e-08 -1.07875e-08 1.27759e-08)
(-3.2226e-06 -3.23994e-07 7.16167e-07)
(-0.0052717 -0.000725689 0.00148233)
(0 -9.12486e-33 0)
(-4.17058e-14 -3.16547e-31 3.11284e-15)
(0 0 0)
(1.14109e-19 0 0)
(-1.99866e-17 0 0)
(-3.21139e-14 -4.90921e-15 1.51582e-15)
(-1.66185e-12 -5.00358e-13 2.10821e-13)
(-7.10232e-11 -2.2965e-11 9.8998e-12)
(-3.20873e-09 -1.02476e-09 4.52849e-10)
(-1.61275e-07 -5.47922e-08 2.6345e-08)
(-2.84749e-06 -1.42845e-06 6.45291e-07)
(0 0 0)
(3.03959e-18 0 0)
(-4.64187e-15 0 0)
(-4.14662e-13 -8.2295e-14 4.41484e-14)
(-1.85854e-11 -4.516e-12 2.4956e-12)
(-7.45097e-10 -2.15183e-10 1.07224e-10)
(-2.82091e-08 -9.75682e-09 4.34305e-09)
(-1.10611e-06 -4.34314e-07 2.29256e-07)
(0 0 0)
(3.43892e-17 0 0)
(-6.34184e-14 -4.71625e-15 3.41061e-15)
(-3.49782e-12 -5.53715e-13 4.14646e-13)
(-1.67812e-10 -2.70137e-11 1.94149e-11)
(-7.63673e-09 -1.22214e-09 8.91689e-10)
(-2.77588e-07 -4.98791e-08 3.86461e-08)
(-6.85095e-05 -1.50359e-05 1.27242e-05)
(0 0 0)
(-1.85097e-15 0 0)
(-3.32226e-13 -3.35594e-14 2.85164e-14)
(-1.5088e-11 -2.11813e-12 1.9637e-12)
(-5.70853e-10 -8.43271e-11 8.26932e-11)
(-1.8507e-08 -2.78601e-09 3.00882e-09)
(-5.29198e-07 -7.50625e-08 9.1221e-08)
(-0.000280358 -4.83594e-05 4.5743e-05)
(0 -5.0498e-30 0)
(1.31083e-15 -1.54594e-28 9.4739e-17)
(0 0 0)
(7.85264e-20 0 0)
(-8.97943e-20 0 0)
(-2.10515e-15 0 0)
(-2.54989e-13 -6.4426e-14 3.33481e-14)
(-1.22389e-11 -3.66458e-12 1.94635e-12)
(-5.288e-10 -1.76048e-10 9.0336e-11)
(-2.02472e-08 -8.12333e-09 4.29308e-09)
(-6.31703e-07 -3.25951e-07 1.86717e-07)
(0 0 0)
(2.02545e-18 0 0)
(-2.26638e-17 0 0)
(-5.55957e-14 -5.66247e-15 4.92643e-15)
(-2.96077e-12 -5.90289e-13 4.6686e-13)
(-1.37485e-10 -2.77892e-11 2.21743e-11)
(-6.06523e-09 -1.305e-09 1.03394e-09)
(-2.19976e-07 -5.88624e-08 4.613e-08)
(-1.38113e-05 -4.68484e-06 4.59082e-06)
(0 0 0)
(4.20304e-17 0 0)
(-4.62033e-15 0 9.4739e-17)
(-4.22012e-13 -5.68742e-14 6.84016e-14)
(-1.89163e-11 -3.2951e-12 3.66206e-12)
(-7.93453e-10 -1.43979e-10 1.75732e-10)
(-3.35196e-08 -6.56666e-09 8.32547e-09)
(-1.48888e-06 -3.30705e-07 4.34753e-07)
(0 0 0)
(6.65183e-16 0 0)
(-3.52149e-14 -1.99951e-15 3.03165e-15)
(-1.90908e-12 -2.29347e-13 3.49398e-13)
(-8.71616e-11 -1.0815e-11 1.62895e-11)
(-4.18857e-09 -5.04846e-10 7.33758e-10)
(-1.96707e-07 -2.53391e-08 3.79702e-08)
(-2.71752e-05 -2.64231e-06 5.71424e-06)
(0 -9.93207e-28 -3.61845e-18)
(8.60829e-15 -7.76723e-26 -1.01093e-16)
(0 0 0)
(2.81616e-21 0 0)
(-6.65213e-26 0 0)
(-3.48203e-18 0 0)
(-1.41821e-14 -1.51239e-15 1.51582e-15)
(-8.32471e-13 -2.56982e-13 2.36807e-13)
(-3.63878e-11 -1.25394e-11 1.1753e-11)
(-1.41686e-09 -5.6351e-10 5.31617e-10)
(-4.72211e-08 -2.29238e-08 2.20417e-08)
(0 0 0)
(7.81168e-20 0 0)
(-5.42103e-23 0 0)
(-1.3235e-15 0 0)
(-2.15177e-13 -3.86257e-14 5.14433e-14)
(-1.01658e-11 -2.2216e-12 2.85924e-12)
(-4.39267e-10 -1.00858e-10 1.38049e-10)
(-1.67727e-08 -4.55504e-09 6.4625e-09)
(-5.08756e-07 -1.97255e-07 2.64762e-07)
(0 0 0)
(1.78561e-18 0 0)
(-3.12822e-20 0 0)
(-2.86424e-14 -1.70101e-15 4.54747e-15)
(-1.58363e-12 -2.55034e-13 4.08366e-13)
(-6.74334e-11 -1.2098e-11 1.88493e-11)
(-2.82534e-09 -5.31078e-10 8.69876e-10)
(-1.39708e-07 -2.73311e-08 4.97816e-08)
(0 0 0)
(3.10731e-17 0 0)
(-2.02759e-16 0 0)
(-1.37965e-13 -8.8588e-15 3.11691e-14)
(-6.70885e-12 -8.42907e-13 1.83901e-12)
(-3.09041e-10 -3.83717e-11 8.79873e-11)
(-1.38112e-08 -1.80374e-09 4.52953e-09)
(-4.9687e-07 -7.40636e-08 2.16227e-07)
(0 -1.07666e-25 2.98732e-24)
(3.5511e-16 -1.53422e-23 1.17133e-21)
(-1.69555e-15 -1.85231e-21 9.60125e-17)
(-2.77081e-13 -1.32681e-15 7.05894e-14)
(-1.31523e-11 -1.61533e-13 3.68861e-12)
(-5.95341e-10 -6.31271e-12 1.74467e-10)
(-2.53069e-08 -1.54051e-10 8.54301e-09)
(-8.38953e-07 1.94872e-09 3.68392e-07)
(0 0 0)
(-1.50459e-24 0 0)
(0 0 0)
(-2.61044e-23 0 0)
(-1.53693e-17 0 0)
(-2.85226e-14 -4.91228e-15 1.0895e-14)
(-1.36756e-12 -4.86396e-13 7.14292e-13)
(-5.0559e-11 -2.06266e-11 3.12767e-11)
(-1.56922e-09 -7.70184e-10 1.20802e-09)
(-3.68174e-08 -2.35684e-08 3.8374e-08)
(0 0 0)
(-4.87721e-23 0 0)
(0 0 0)
(-1.58606e-20 0 0)
(-4.07137e-15 0 1.23161e-15)
(-4.05857e-13 -8.87155e-14 1.8512e-13)
(-1.67534e-11 -4.24376e-12 8.8242e-12)
(-6.05982e-10 -1.71567e-10 3.82688e-10)
(-1.78782e-08 -6.5029e-09 1.43926e-08)
(-3.70076e-07 -2.09896e-07 4.05097e-07)
(0 0 0)
(-1.40425e-21 0 0)
(0 0 0)
(-6.87657e-18 0 0)
(-6.59653e-14 -5.28738e-15 2.70006e-14)
(-3.03327e-12 -5.55024e-13 1.38659e-12)
(-1.15656e-10 -2.30626e-11 5.98667e-11)
(-4.30415e-09 -9.11867e-10 2.60432e-09)
(0 0 0)
(-3.80714e-20 0 0)
(0 0 0)
(-2.13499e-15 0 6.63173e-16)
(-2.85258e-13 -2.73296e-14 1.18519e-13)
(-1.24119e-11 -1.6172e-12 5.86842e-12)
(-5.0464e-10 -6.86289e-11 2.73558e-10)
(-1.82607e-08 -2.80835e-09 1.22298e-08)
(0 -1.17302e-23 0)
(-3.90972e-19 -1.1551e-21 0)
(0 -1.05441e-19 0)
(-7.17381e-15 -2.25707e-17 1.89478e-15)
(-5.47359e-13 -4.15069e-15 2.43481e-13)
(-2.36579e-11 -1.81261e-13 1.14167e-11)
(-9.55959e-10 -5.63359e-12 5.23869e-10)
(-3.41495e-08 -6.86287e-11 2.25694e-08)
(0 0 0)
(-3.62196e-26 0 0)
(0 0 0)
(0 0 0)
(-8.19599e-23 0 0)
(-3.46069e-17 0 0)
(-3.41603e-14 -9.25313e-15 2.34005e-14)
(-1.3589e-12 -5.65978e-13 1.11658e-12)
(-3.98487e-11 -1.97162e-11 4.04695e-11)
(-8.68644e-10 -5.53787e-10 1.19023e-09)
(0 0 0)
(-1.45238e-24 0 0)
(0 0 0)
(0 0 0)
(-4.14822e-20 0 0)
(-8.43418e-15 0 3.8843e-15)
(-4.73489e-13 -1.22957e-13 3.34645e-13)
(-1.62197e-11 -4.90244e-12 1.36805e-11)
(-4.50998e-10 -1.61835e-10 4.80705e-10)
(-8.84484e-09 -4.41171e-09 1.29991e-08)
(0 0 0)
(-4.88427e-23 0 0)
(0 0 0)
(0 0 0)
(-1.68957e-17 0 0)
(-9.08558e-14 -1.00019e-14 5.76961e-14)
(-3.53626e-12 -7.40155e-13 2.51964e-12)
(-1.1184e-10 -2.64885e-11 9.49897e-11)
(0 0 0)
(-1.28985e-21 0 0)
(0 0 0)
(0 0 0)
(-5.0067e-15 0 2.36848e-15)
(-3.72921e-13 -4.14561e-14 2.35711e-13)
(-1.39778e-11 -2.01911e-12 1.0263e-11)
(-4.59963e-10 -7.33598e-11 4.11076e-10)
(0 -4.84284e-26 0)
(-2.12216e-20 -5.06047e-24 0)
(0 -4.67671e-22 0)
(0 -9.22098e-20 0)
(-1.09405e-14 -1.48578e-17 7.57912e-15)
(-6.98677e-13 -2.00767e-15 4.56674e-13)
(-2.60264e-11 -1.5925e-13 1.94962e-11)
(-8.56647e-10 -3.7161e-12 7.77399e-10)
(0 0 0)
(0 0 0)
(0 0 0)
(0 0 0)
(0 0 0)
(-1.11676e-22 0 0)
(-2.82736e-17 0 0)
(-2.50199e-14 -7.36414e-15 2.77585e-14)
(-8.6222e-13 -4.28792e-13 1.06184e-12)
(-1.82355e-11 -1.15632e-11 2.98768e-11)
(0 0 0)
(0 0 0)
(0 0 0)
(0 0 0)
(0 0 0)
(-5.60401e-20 0 0)
(-6.8388e-15 0 6.91595e-15)
(-3.65945e-13 -1.096e-13 3.71201e-13)
(-9.79096e-12 -3.67138e-12 1.25644e-11)
(-1.86507e-10 -8.98756e-11 3.28752e-10)
(0 0 0)
(0 0 0)
(0 0 0)
(0 0 0)
(0 0 0)
(-2.10655e-17 0 1.89478e-16)
(-8.25455e-14 -1.05637e-14 7.74018e-14)
(-2.70161e-12 -6.69273e-13 2.80863e-12)
(0 0 0)
(0 0 0)
(0 0 0)
(0 0 0)
(0 0 0)
(-5.18282e-15 0 4.07378e-15)
(-3.33649e-13 -4.06974e-14 2.9836e-13)
(-1.0278e-11 -1.73875e-12 1.10415e-11)
(0 -1.18499e-29 0)
(0 -3.73702e-27 0)
(0 -1.07355e-24 0)
(0 -2.82526e-22 0)
(0 -7.00637e-20 0)
(-1.11282e-14 -1.65451e-17 1.06108e-14)
(-6.11832e-13 -3.29382e-15 5.65106e-13)
(-1.85971e-11 -9.776e-14 2.0507e-11)
(0 0 0)
(0 0 0)
(0 0 0)
(0 0 0)
(0 0 0)
(0 0 0)
(-1.87279e-23 0 0)
(-8.71478e-18 0 0)
(-1.31464e-14 -3.59193e-15 1.95162e-14)
(-3.40185e-13 -2.11613e-13 6.44668e-13)
(0 0 0)
(0 0 0)
(0 0 0)
(0 0 0)
(0 0 0)
(0 0 0)
(-1.45373e-20 0 0)
(-3.20568e-15 0 4.92643e-15)