/*--------------------------------*- C++ -*----------------------------------*\
  =========                 |
  \\      /  F ield         | OpenFOAM: The Open Source CFD Toolbox
   \\    /   O peration     | Website:  https://openfoam.org
    \\  /    A nd           | Version:  9
     \\/     M anipulation  |
\*---------------------------------------------------------------------------*/
FoamFile
{
    format      ascii;
    class       volScalarField;
    location    "0.00335";
    object      overpressureMax;
}
// * * * * * * * * * * * * * * * * * * * * * * * * * * * * * * * * * * * * * //

dimensions      [1 -1 -2 0 0 0 0];

internalField   nonuniform List<scalar> 
28891
(
294510
413788
427539
312980
417366
304591
403850
283547
432787
437029
431766
383008
387931
383802
378800
422714
422643
428097
374212
379189
374300
369499
421441
418216
425775
369494
377260
373128
365429
408998
411400
416651
368746
356702
364205
361168
308896
347203
342988
342258
307857
338192
303940
338558
333882
300264
333864
295897
329490
299937
301489
328456
336312
332390
290902
297733
324575
328337
287230
290051
316561
324229
293887
320604
219289
222132
259253
251575
267446
216392
214800
258009
217087
217258
272826
274958
294993
225180
228580
265890
269706
268198
293400
263675
289252
287590
262055
290930
262800
287692
256722
282004
285138
259722
255456
284022
280063
253349
278518
274773
249803
358935
316761
447213
395067
303945
383175
422365
297910
449122
444181
442051
399803
397917
393189
395112
444100
440678
391685
435588
439002
386778
390223
389860
432508
439026
436704
429932
380594
387774
429838
433509
426274
373450
381082
377236
384689
324444
319050
353988
322678
357110
352117
317301
320118
354381
350970
346032
311496
349423
314756
338989
306105
341450
313040
348395
346346
311054
305076
332232
340023
301163
335853
343478
308384
280991
276573
282890
257277
252361
255596
251419
247783
275967
271948
267207
270990
246186
242647
270250
278466
275341
248487
250634
253371
250151
271944
246537
247653
264389
268407
244492
244368
261201
261228
264799
241238
239778
237991
242101
222431
244157
241206
235171
217156
237948
219539
247768
227237
246352
222733
241648
240117
221403
215910
237841
234214
232063
214460
228772
211570
232499
216621
232684
218047
235808
234529
217303
231369
217332
232100
230690
214748
232818
216231
205633
226915
209041
212458
230529
225425
208608
229229
216931
230390
228268
212973
225616
210981
226420
220025
206615
215684
227924
222837
208845
194070
897.244
1.10731
196091
168845
200370
162968
173006
199335
168019
603653
507699
526212
514479
832471
712767
826998
822082
711692
828092
828329
830762
830841
710027
709411
709202
711294
831564
832206
832489
709221
706916
825172
831972
830926
700080
707167
706197
698422
815067
826953
830410
704786
688984
700515
694873
527626
608537
607628
524348
605374
604677
523197
521292
523987
606052
603668
518119
521310
601250
595853
515986
597034
521091
602362
601469
519715
588522
511441
592975
599645
513489
517265
596552
6.19562e+06
9.36766e+07
7.98692e+06
5.72189e+06
7.78283e+06
3.44709e+06
6.13743e+06
4.21194e+06
5.24182e+06
1.04039e+07
7.07776e+06
6.19136e+06
7.0273e+06
5.871e+06
7.04321e+06
7.58952e+06
2.14967e+07
2.53403e+07
9.29335e+06
1.49679e+07
1.09331e+07
1.09523e+07
6.34636e+06
5.73017e+06
1.21728e+07
4.60067e+06
7.83765e+06
6.17685e+06
4.83494e+06
4.01983e+06
5.10002e+06
7.13996e+06
3.86386e+06
5.75143e+06
4.05668e+06
5.7258e+06
2.82495e+07
7.27661e+07
7.74385e+07
3.78309e+07
3.31562e+07
5.90813e+07
3.13617e+07
2.17485e+07
4.29702e+07
2.09958e+07
1.39274e+07
1.40016e+07
3.95034e+07
2.09006e+07
2.1217e+07
4.82427e+07
2.22989e+07
1.4331e+07
2.19e+07
4.16287e+07
1.3729e+07
1.70966e+07
1.71177e+07
1.0657e+07
1.03918e+07
1.73744e+07
1.03651e+07
1.71391e+07
5.21012e+06
5.17301e+06
7.84287e+06
8.24241e+06
5.92344e+06
7.92638e+06
4.82252e+06
4.67792e+06
3.9272e+06
3.74932e+06
3.70391e+06
3.99671e+06
4.44668e+06
4.2331e+06
3.80624e+06
4.52566e+06
6.19283e+06
6.62813e+06
4.30924e+06
4.01599e+06
6.86223e+06
4.64382e+06
8.13281e+06
4.18085e+06
7.32864e+06
4.20814e+06
7.71044e+06
4.50319e+06
9.03212e+07
6.02937e+06
5.21911e+06
4.36776e+06
3.44291e+06
3.87414e+06
4.17166e+06
3.62043e+06
7.28998e+06
2.37623e+07
2.2381e+07
9.55187e+06
1.45913e+07
1.00706e+07
1.05816e+07
5.81279e+06
5.77879e+06
1.13197e+07
4.46348e+06
8.08583e+06
6.03831e+06
4.89786e+06
5.33622e+06
1.03376e+07
4.60448e+06
3.89781e+06
6.91873e+06
5.85468e+06
4.22189e+06
4.01759e+06
5.06716e+06
6.94262e+06
3.79856e+06
5.34156e+06
5.62858e+06
4.07931e+06
2.50744e+07
6.50144e+07
6.99168e+07
3.68538e+07
5.17758e+07
2.8129e+07
3.10648e+07
1.82984e+07
4.17084e+07
1.99424e+07
1.33161e+07
3.57585e+07
1.90784e+07
1.226e+07
2.07338e+07
4.2089e+07
2.15169e+07
1.39173e+07
3.79307e+07
1.37692e+07
2.09396e+07
1.59378e+07
1.71855e+07
1.00521e+07
1.09964e+07
1.58701e+07
1.01278e+07
1.71555e+07
4.49756e+06
5.18579e+06
4.70967e+06
4.37014e+06
5.97984e+06
4.45952e+06
4.79417e+06
4.72645e+06
3.87313e+06
3.82231e+06
3.66762e+06
4.34221e+06
4.04718e+06
4.30064e+06
3.44039e+06
3.80223e+06
4.55235e+06
3.65323e+06
4.35472e+06
3.99806e+06
3.90486e+06
3.85675e+06
4.63981e+06
4.16085e+06
4.02535e+06
4.13714e+06
4.16994e+06
4.42704e+06
1.10181e+06
968934
966392
942999
1.64149e+06
1.59945e+06
1.4697e+06
1.32989e+06
1.30669e+06
1.38931e+06
1.41413e+06
1.1692e+06
1.18411e+06
1.21026e+06
1.22754e+06
1.38471e+06
1.53508e+06
1.46508e+06
1.26011e+06
1.21568e+06
1.25666e+06
1.29323e+06
1.58591e+06
1.32673e+06
1.49651e+06
1.51634e+06
1.26975e+06
1.28384e+06
1.33503e+06
1.06161e+06
937518
1.0525e+06
946493
1.07193e+06
1.08133e+06
952778
1.61826e+06
1.59968e+06
1.55308e+06
1.30489e+06
1.35051e+06
1.34554e+06
1.32594e+06
965039
953383
1.07957e+06
1.09863e+06
972641
962166
1.11669e+06
1.12479e+06
957984
1.0983e+06
1.10602e+06
969066
962895
1.12959e+06
1.11803e+06
975627
971263
1.13471e+06
970708
1.13499e+06
1.12811e+06
3.75111e+06
3.00317e+06
2.30306e+06
1.50154e+06
2.02817e+06
3.01402e+06
2.73969e+06
1.9283e+06
2.6988e+06
3.33273e+06
2.29957e+06
3.16815e+06
2.48792e+06
3.42502e+06
2.55019e+06
2.98926e+06
2.95166e+06
3.66935e+06
3.80404e+06
2.77931e+06
3.71506e+06
3.12175e+06
3.1883e+06
2.67533e+06
3.0573e+06
2.77507e+06
3.14978e+06
3.34266e+06
2.66725e+06
2.11743e+06
1.81538e+06
1.54471e+06
1.64991e+06
1.90384e+06
2.04288e+06
1.69022e+06
1.7948e+06
2.28274e+06
1.65044e+06
1.9057e+06
2.10366e+06
1.78411e+06
2.45734e+06
2.89456e+06
3.49746e+06
3.41286e+06
2.98182e+06
3.69614e+06
3.61229e+06
3.12158e+06
1.90949e+06
2.31564e+06
2.28379e+06
2.26306e+06
1.80645e+06
2.20815e+06
1.8349e+06
1.97046e+06
2.49968e+06
2.40198e+06
2.39175e+06
1.99332e+06
1.90499e+06
2.52534e+06
203432
197792
200200
190082
188488
187469
186593
197220
192625
195243
181864
184695
184534
182367
200688
204823
204995
194168
190201
189277
194175
197781
203942
204469
188146
193551
186859
193968
2002.54
94455.7
75304.2
701.326
69747.2
300.756
115262
178742
169655
178540
167302
176660
177174
168416
171907
165423
174356
175606
164048
173869
166583
171480
183959
180776
180181
172137
183954
170464
179371
183285
166307
170580
178387
183721
168789
204995
97617.4
1.62882
209732
107758
2.2449
185774
53038.7
0.864312
211721
109579
1.93514
173461
111.712
0.159029
169180
212015
171864
170106
203043
164153
200875
172021
170142
208687
171539
203377
173299
204965
167712
161816
193538
161753
197462
153002
190133
178737
182751
188127
127881
146457
159344
149096
215651
212604
276561
273455
268562
263453
227819
223631
295169
269883
293724
264063
289561
288327
263028
266397
288337
291420
283520
286282
261239
258716
437881
355090
359106
444519
302450
428897
306957
383993
442952
445515
440425
393277
395969
391320
388435
449328
447905
443030
398459
400017
393788
395340
425723
432113
435070
377289
380215
386181
383167
390282
433238
439454
431732
437848
382685
388691
357548
323095
324624
317893
319326
354224
352689
320635
352111
317585
312690
315634
350221
347295
306212
342314
341296
312402
313566
348831
347433
304683
339326
336707
307697
310370
345076
342202
277164
283497
282612
257876
252465
257229
251692
275334
278588
280944
255877
248912
250561
253848
228812
246796
247956
223130
242081
241270
222452
226077
242105
244811
239726
219210
237486
221155
232238
214191
231119
218114
236216
235640
217404
229831
210835
228212
234494
214710
232747
216300
528872
516388
525303
510682
841621
833680
823679
828390
715617
713739
830726
831585
835055
712755
710780
838170
716445
717110
841722
839361
714398
713673
833094
829439
835399
709389
701104
708056
701309
836212
827955
836742
709378
695477
699069
707256
528881
610370
609304
607007
524948
524999
605962
609209
527489
610626
521574
607457
524052
605970
597802
515453
603443
521574
521111
602945
597591
516738
513150
603037
592866
519551
595602
601117
206620
210494
205641
196926
195824
192333
192933
170321
175704
177380
88727.4
44589.1
114390
127905
211217
206865
206233
197200
196587
192223
192920
207573
205080
203363
193643
195440
191160
189627
206261
202377
204241
192430
194381
191438
190130
201240
198823
202128
191327
188706
187723
185540
202094
201859
200133
189192
190090
188203
190358
203201
204073
203153
191249
191608
191055
192653
199305
198268
196293
187818
184059
186188
186182
201802
204684
202659
191209
193931
190846
193450
196218
196089
199122
183163
185956
183192
180747
194285
192221
195388
181915
184367
182391
179781
187988
190824
193161
180318
175565
177668
178162
190833
190154
193088
180379
178262
177629
175748
183491
185924
188397
173449
175934
173650
171315
185436
184470
187290
172294
174940
173244
170757
180849
181145
183407
171324
167153
169201
169085
111776
2607.92
3257.24
1148.03
145241
915.483
137402
28852.5
2407.86
101182
1132.4
146157
846.192
77113.5
180921
170362
182294
179109
166944
177758
168299
171215
183805
183209
180064
170350
169409
180812
183770
171719
183047
180908
170831
181112
170862
171167
180507
181937
180456
170377
179651
170766
80415.1
1048.71
2217.54
777.516
133074
112092
361.288
179161
165979
177043
165390
176081
174140
163649
178910
180063
181683
169735
168404
167334
165957
178132
169799
179690
168320
177810
168448
179427
176668
165322
166353
173619
175784
174986
166970
180874
170858
181244
172474
180373
182321
171524
181140
171929
173095
183700
181106
183159
171917
163516
171398
173161
171229
159145
169175
161527
173937
176295
178254
164953
166788
164357
162678
163996
172115
174658
172020
159575
161736
169787
171964
174827
176183
161958
164748
163339
160535
169256
156608
156271
164900
167003
159270
167279
62.8796
202.262
93541.3
56482.5
749.656
100975
253.002
169516
156765
167488
156077
166934
165148
153141
364300
321637
453780
400532
409425
465493
370234
350232
457961
404895
454176
461861
457984
414743
409456
467750
463007
461072
422305
416291
419599
413720
404672
451868
458699
456838
410283
407997
402693
449986
396161
445467
448858
453613
404458
399573
365127
336716
331713
342661
376126
370266
336745
384017
343776
347495
377512
381271
374769
341102
330099
328191
362234
336646
370633
368138
334319
325254
359209
355609
360347
326672
364463
330832
174887
4808.68
2.36675
7092.08
3.33522
154793
1677.45
1.12981
180061
177550
5349.69
2.79117
204278
151459
1.53116
174652
21.2198
0.244063
176745
226969
218277
215250
171596
216050
174188
167520
202657
210652
205246
170048
163700
198483
221926
180179
223541
217084
174155
171521
211372
168676
175850
212477
201312
169950
208253
163290
188624
164668
196508
149607
187424
161202
193764
264294
300911
300788
268146
232881
227836
306964
258419
314194
266058
230853
234247
271421
302881
263899
313962
268388
255978
224512
213592
301033
285255
248121
238456
224551
264306
297853
231182
255948
231249
266107
239945
302705
312823
307593
281030
286279
281771
277138
307370
299257
305314
279681
275534
281630
273970
297579
295450
292430
275435
270036
272231
267238
275445
273899
299052
307187
305085
279721
281560
271463
293173
296603
298070
302023
276603
272795
320090
317367
311754
292745
290209
285459
287693
307615
307643
313138
277813
282225
287114
282256
311545
317408
319914
292729
290590
285614
287645
260183
289201
284979
293583
288898
268447
263897
296312
268108
292784
297898
301901
273079
276830
301831
273029
276752
271336
296184
292677
268065
290171
282669
287437
259976
264858
262354
257662
260157
288843
284567
293441
268834
288783
264326
251853
280604
276296
279650
284240
259362
254909
290870
261039
285764
282781
287680
263134
258320
251809
280176
275833
279432
284092
259745
255223
262811
238507
241956
259117
235515
254906
239055
268287
244598
246472
262202
243119
264132
241445
234247
252012
253466
257289
239179
259103
237640
230721
246567
249678
254472
231810
250863
235184
253446
232964
252041
257605
239287
259143
238064
259894
239981
243081
236797
255937
259931
240015
266677
245300
246650
262653
243258
264209
242051
253243
229177
233918
231233
250304
245579
226888
227947
249816
246716
232733
251534
254998
235903
220921
242938
239053
228059
246788
242504
224074
243201
220071
224558
240924
218263
222523
236403
217236
235081
231198
238177
216061
220033
233953
249867
254913
235863
232774
251508
246864
228468
220883
243090
239187
229067
247602
243327
225099
221878
226512
244875
242152
219711
237516
224071
234672
217113
213391
216963
221017
235181
238962
176318
182388
180246
152712
149691
98912.4
133580
460912
452220
359952
371273
364519
403162
469169
350605
411489
456649
406790
464868
460134
416898
411176
468231
463914
462862
423314
421423
415131
417028
452567
454035
404840
459127
457803
408750
410645
402179
447658
397710
400515
450113
455259
405555
336817
366316
332156
343035
377343
371358
337218
347928
384703
382294
375749
344123
378053
341643
325783
356790
322428
361527
327345
365382
331338
362766
328578
330316
368868
336925
370970
334793
222919
224319
225457
206331
209534
207453
208347
220973
220532
223348
204745
204371
202544
206669
219538
221939
224423
205551
205653
203621
207640
226162
227189
224497
209736
207619
206838
208968
214693
212712
217037
201606
199881
196618
198348
204248
206624
208430
192880
190575
189155
194513
208339
206290
210613
194671
192941
190909
196729
211565
214228
218043
202284
197289
199230
200214
217136
219845
221068
203736
201313
200509
204712
215976
220230
221177
201232
204786
203984
200308
214089
218644
216153
202672
196660
198879
200681
216384
214982
218869
203161
201138
198131
200175
208123
211787
208523
194724
197614
194360
191673
204837
209088
212830
193889
198130
194970
190854
200702
201857
204392
190847
185374
188516
187394
197796
201483
205276
191426
184350
187629
187832
195268
198855
200250
186831
185593
182223
183307
192042
195200
197141
182312
184067
180886
179347
189611
192969
191874
179028
176831
175980
179978
186034
190539
188995
177849
173689
176476
174930
183194
185479
186364
173807
173036
170926
170229
5634.73
167433
164101
116667
120462
3374.58
4213.55
191384
179303
193951
178648
177940
192280
193024
190695
190901
178826
175913
177256
189099
192485
7021.6
164568
167509
118417
36183
3151.49
110579
190116
178251
189832
175485
188329
176928
191698
188019
173765
183867
172815
185372
186367
175105
194116
178714
192401
191742
179648
178139
193507
181411
184398
183123
170981
172091
169390
168441
187587
173696
186173
183589
172695
171572
184948
2334.59
161943
151450
106962
90430.8
1366.84
2876.89
189168
176654
173642
187007
186367
176022
189947
176638
186927
189967
189251
173585
186163
175999
2074.14
4496.09
162443
1186.29
2633.1
104198
86058.6
188139
173691
172758
183403
185034
175062
186483
188859
174162
187030
184543
173761
172038
186400
171952
181226
184388
181869
168007
178639
169878
180673
170215
178709
166550
169172
177534
181944
172074
181950
184305
181823
168196
179623
170074
181687
180425
171343
166954
178569
169613
183556
179023
165281
166056
174203
177007
167791
176025
179008
164939
173000
165718
175893
175843
167518
164816
176972
165381
179333
180055
168237
167614
477.062
119367
146132
269.972
102776
66380
979.17
175396
163787
174315
171142
161759
160950
172108
175543
163153
164089
177378
178437
166849
165910
162630
171320
172941
169920
158273
168506
159856
168107
165972
158717
153598
157765
165218
168963
167037
151909
163169
154451
165803
156370
164282
153360
162904
165239
163090
144077
160882
149262
173169
168903
171511
161796
157486
160324
159103
151900
161897
164403
162776
142101
148477
160390
23039.7
156.46
63356.1
39.6296
33946.7
281.546
103938
163088
148214
162423
142719
160293
159699
140690
143026
157996
160574
146057
161588
158940
137730
160887
156595
136103
137299
158802
143762
158611
17240.1
116.491
52970.7
10.0019
5055.17
35337.9
35.6123
138844
156759
159381
133089
157944
154796
120177
166732
165945
165252
135674
134478
130962
132153
165685
162562
164189
128850
132254
128689
125137
165966
166949
165317
135615
132024
134293
130615
160772
119229
160119
163740
163072
126000
127199
166042
162657
164284
128218
131891
128048
124100
159931
120147
160693
163695
162947
126976
125414
160336
159137
157478
124094
120098
117637
113313
112835
117009
153779
132448
157532
156979
129586
112621
159024
157337
160327
161996
123615
119820
156902
115274
158712
159952
161757
122572
118229
160358
159584
157346
123019
118510
115958
111098
156850
111421
157460
154212
153716
98929.4
100835
157401
110472
156638
153943
152914
99792.5
101186
119750
148643
154674
151071
106891
156090
125508
155680
149539
153952
99031.6
109295
104699
94232.1
99590.8
155049
152057
158062
155162
114435
107341
96081.2
154407
151044
157512
154386
112231
104462
103492
155446
153659
149265
151414
96921.7
92458.5
153094
125282
156068
151758
95356.9
147362
109382
153870
106202
155741
90069.5
150797
152666
95392.8
155966
148821
153577
95991
106944
101816
90628.8
85832.4
151149
147470
82841.4
147942
143866
73797.2
89984.4
151211
147950
146401
142676
86272.1
78270
79254.7
148143
143082
146808
151500
98451.7
87680.3
146594
140913
74101.1
145242
150376
94900.7
83327.5
111665
145118
152492
149259
75940.8
100981
140180
149997
143392
148602
87162.8
74223.5
72558.7
88694
150600
146036
150365
86439.9
74119.6
88417.2
72247.2
143944
139372
136784
86816.7
81710
67322.4
72479.4
143959
140826
146644
84035.2
64441.3
69285.1
79258.8
147457
142892
63134.2
145042
149423
82690
68610.6
69091.7
143673
138110
131567
137840
68592.8
57548.1
142586
136177
63303.4
131138
138343
63172
51297.6
140460
127722
135989
58090.7
72831.2
64849
50389.5
52387.4
128208
136551
140821
133103
74860.4
60585.3
144281
139357
55947.2
133951
139755
60649
47498.1
144666
123884
60841.1
71194.2
138303
87620.5
133368
123231
120925
130352
55478.1
33104.8
41830.4
45071.6
43176.3
121709
130898
123590
112860
45529.4
33855.4
130630
115527
127605
51860.4
40853.5
36680.6
56821.7
124434
126006
133435
50261.4
29410.9
39603
38495.2
25951.9
38342.9
117342
110064
123314
45537.8
31599.1
807883
757201
573648
486461
592919
573312
830359
800687
822060
704748
826941
815089
700501
694817
688962
783233
816925
800702
678653
691126
678644
667807
791308
781580
798176
669927
682202
675552
663692
648099
657348
768143
769435
783050
666754
656066
511379
599610
517225
513472
596542
588494
507664
583706
505093
498342
578607
494881
501371
569255
497914
503027
581293
508576
590136
581279
503014
558397
491057
564161
565865
492525
572368
497128
438829
431661
396520
308854
317613
404402
314864
364404
453560
400510
449966
448780
445430
399491
396112
435445
443993
440620
390005
394929
391579
386599
446029
392398
441756
437535
441742
392377
388332
427452
432763
436991
387858
378668
383753
382852
360323
330772
326638
325137
359110
355535
321539
313341
351727
347468
356022
322174
351684
317549
349288
319951
354202
350814
311667
345930
316620
342909
338137
304251
347082
308108
342175
312872
20111.3
30811.9
109289
82104.9
99001.4
23360.4
14617
113726
87476.9
101435
24659.7
34665
24960.4
16956.6
99315.9
84558.9
79309.1
26895.1
23715.9
15718.9
13612.2
84768.5
15761
93001.3
72215.4
19869.7
11225.5
8823.95
68351.1
71171.6
86409.1
16446.5
6629.79
10879.7
10079.5
74424.5
11890
62230.2
41662.6
8544.09
6626.23
4762.25
6841.7
56885.3
55432.3
50395.6
6208.25
5994.01
51773.9
412.078
2.97934
328.746
3.42232
703.577
3.64842
559.131
6113.02
46294.8
51238.9
46271.6
4683.37
5349.31
41612.1
305.557
2.00644
386.497
3.39793
527.222
3.34785
695.698
6340.58
47947.3
52433.3
47540.6
4950.14
43315
5562.31
56582.3
6694.36
6142.72
51446
54718.3
49618.7
5856.04
38211.5
61515.7
56190.6
4277.53
8404.9
7257.95
3691.01
42257.6
4228.19
38041.9
3944.05
35858.5
32135.1
3465.61
279.125
1.68804
131.747
3.06151
475.434
2.13517
22.4995
113.443
1.897
25.9877
2.14258
254.11
2.7715
440.343
3788.89
34792
31476.5
41484.3
4173.49
37682
4684.77
4074.72
38096.9
37020.8
44080.9
5217.56
5042
45330.9
3959.56
4159.43
37728.2
5157.81
44977.8
43261.7
4915.96
1802.28
20265.2
17645.4
2807.43
26899.6
23696.2
2445.5
29721.8
33453.3
3610.73
40174.9
3929.26
4490.27
35968.1
2345.83
27326.8
22638.7
3563.91
32963.2
27619.6
2915.49
40268.4
3934.99
36044.7
3629.76
33687.6
29959.9
3171.37
41190.4
28747.9
49257.8
5977.15
2349.32
4700.62
3025.3
48739.5
20795.4
30708
3858.86
5872.96
3256.87
2091.55
315.729
2.04353
252.122
109.329
1.41062
87.1896
1.30961
232.308
1.79629
295.138
80.1226
1.23438
107.595
1.43641
2931.42
27830.5
25024.2
20973.5
1920.95
18686.8
2161.16
3152.22
30597.2
29713.9
22507.4
2400.43
2324.32
23213.2
3047.84
3209.15
30222.8
21700.9
2361.3
22868.3
2237.2
3102.74
22466.2
29139.4
25911.9
2041
2720.39
19746.4
2105.48
25300.2
20482.9
3295.36
30953.3
25467.3
2647.18
23252.3
26471
2770.23
1756.22
17096.5
19706.4
2026.95
85.3932
1.5283
192.763
65.9334
1.00918
0.794817
27.543
1596.17
19470.7
15549.1
1457.25
14201.3
11305.5
1159.7
213.967
1.19197
100.426
73.678
5.16645
1.06531
0.8452
1803.26
21480.5
17541.6
1632.1
15898.7
12943.7
1327.13
1828.98
17765.7
13300.8
22011.8
1706.74
2280.8
16567.1
1496.2
14653.5
11597.5
1612.67
15745.3
19845.6
2033.27
32730.2
12092.6
24391.3
1723.32
3521.45
2496.65
1195.91
15970
1689.35
11270
1110.21
10882.9
1635.92
16501.8
15383.3
1661.7
11138.5
1074.99
16244
10576.2
1573.77
16264.8
1464.78
14224.4
9807.57
1155.17
1008.15
11228.2
93.5858
0.746298
24.8782
1.37817
12.0915
0.919243
8.61399
14839.8
1352.55
1030.76
8953.14
10087.6
13198.1
1521.11
1234.47
12078.5
8346.56
13937.9
975.67
9607.06
1425.34
1404.12
13682.7
10224.7
10086.5
770.913
1033.48
7539.91
8753.75
1220.84
11906.7
8632.35
648.178
6346.43
885.27
1149.84
7611.83
11225.4
9138.67
631.336
6205.86
935.439
671.582
9541.38
6575.79
1223.7
11905.5
8201.12
841.232
1023.31
10017.1
6947.24
7964.62
555.34
5545.82
812.771
8005.75
10594.4
16691.6
1661.98
487.899
1043.31
785.676
70.7297
0.592471
18.3277
3.17601
0.440346
4.14569
0.612421
7132
541.005
489.229
3635.29
4855.36
727.65
5346.98
511.932
7333.98
5063.62
548.988
5419.93
3736.62
372.111
6490.82
760.547
4727.54
414.152
662.678
4130.96
7427.49
6087.79
448.301
418.9
3083.76
4472.05
4237.8
617.427
437.742
2745.03
4360.2
5434.23
342.529
551.196
3448.5
382.369
2585.91
3842.41
2621.66
168.301
1735.64
256.634
330.794
2076.12
3343.37
2437.67
144.434
238.096
1491.66
2.85745
0.502603
13.3749
2.96535
0.340101
0.588874
4.57571
2860.26
243.238
2483.21
155.995
1610.12
1389.3
134.228
1613.32
199.819
2051.65
1140.96
85.2015
892.531
109.443
1681.95
663.713
97.4813
105.533
1102.1
162.353
1020.1
1.88673
0.370447
9.21196
1.0105
0.107766
2.63526
0.223078
1208
82.3603
862.136
62.973
664.466
469.959
44.1622
421.109
81.5353
849.314
730.809
33.7874
360.333
69.7474
679.325
614.566
593.745
65.7899
55.5966
57.4489
63.6176
663.018
607.315
578.549
65.0968
61.9285
57.0586
54.2602
629.847
489.251
550.872
51.6594
52.4816
46.0013
58.9972
604.52
459.677
527.319
49.1644
56.3244
49.2086
42.9595
597.344
223.956
44.0552
27.3878
463.853
291.854
56.8349
375.262
55.1161
584.821
313.985
18.9832
197.669
29.4373
398.586
514.049
496.942
46.5166
38.8725
37.6512
48.0572
370.147
409.76
461.303
43.4272
31.4909
35.2143
38.7677
351.479
383.304
440.151
41.3746
29.2219
33.4391
36.1255
406.474
507.592
483.262
39.1027
48.3935
45.9591
37.1205
415.983
387.596
338.93
44.8263
39.3717
36.9014
32.4499
383.601
352.64
306.852
41.2019
33.3425
36.0676
29.2227
4.95769e-07
1.00259e-05
0.000174967
0.00284248
0.0434894
62.1013
404.417
5.41477e-08
1.09497e-06
1.94679e-05
0.000319345
0.00482724
0.0723769
1.14133
4.65661e-09
9.55042e-08
1.68532e-06
2.76878e-05
0.000414029
0.00562781
0.0721646
2.18279e-10
6.8394e-09
1.21159e-07
1.95675e-06
2.88615e-05
0.000377286
0.00422218
0
2.91038e-10
7.24685e-09
1.15178e-07
1.6548e-06
2.1148e-05
0.000229789
228.276
0.58845
0.0363609
0.00195209
149712
238190
87903.6
14.7564
0.133326
0.011833
282568
181541
154405
1.56387
0.0687515
194997
279687
366486
420991
138819
273474
291690
412071
521595
6763.39
261446
337694
376861
469810
75.6203
14.015
0.268149
0.0110047
14.1781
139895
246316
307355
314399
0.00152153
0.0359164
0.000583866
0.0115639
0.000181602
0.00342975
3.24302e-05
0.000638053
4.9434e-06
9.85464e-05
0.00169021
0.0291702
0.771435
171415
264840
204230
6.53628e-07
1.30933e-05
0.000225877
0.00358626
0.0557833
70.817
123417
192620
7.1901e-08
1.45375e-06
2.57782e-05
0.000421042
0.00637064
0.0961461
157.539
123400
6.28643e-09
1.27446e-07
2.24719e-06
3.67172e-05
0.000544595
0.00736329
0.0945676
0.864324
3.34694e-10
9.21136e-09
1.61963e-07
2.60392e-06
3.8058e-05
0.000490907
0.00543282
0.0456645
0
4.65661e-10
9.72068e-09
1.53275e-07
2.18583e-06
2.75624e-05
0.000294496
0.00243919
268291
239310
284239
184597
215798
35.6126
159757
0.082313
2.4918
0.0151825
0.089199
311397
343230
278360
375486
373843
364579
272802
310401
504344
659638
600836
598388
490181
523265
657179
559759
468267
405629
557331
469273
392546
469575
415137
495302
488922
490681
386245
394691
496871
366454
361381
367352
344441
361527
330577
330012
366629
341829
343900
359250
360689
329936
328370
676365
655178
671723
616404
620349
608549
604658
674036
660321
677181
618458
621088
609195
606473
252551
205935
252286
248580
277815
228341
211157
224433
297142
248362
212257
252879
283800
254605
253799
206643
253582
285383
253598
254466
206567
326147
312799
327536
308602
291170
307820
292136
312412
325005
327093
308114
290158
306559
291735
634387
597453
630273
589384
560399
585915
563379
631788
601150
634889
589865
561354
563734
587322
481106
401405
432627
457005
484134
368523
383740
566649
524515
569889
560869
514027
557407
517037
568480
525157
570559
561474
515550
517582
559085
311541
381288
374034
381082
364769
274743
287905
366446
375494
366390
327925
333342
327908
333183
374751
364413
365541
327249
331785
332542
326207
492742
497331
494897
456784
457682
459569
454772
494327
498070
495644
457381
459075
456170
460164
557032
512857
514695
528660
531157
494218
492328
559794
512627
514598
529116
531317
494180
492381
488428
569820
503170
381865
391455
412205
400763
307194
513008
541210
419668
625021
398545
323804
522399
522328
581732
593989
523386
543554
563271
587598
542666
559958
582260
559783
545443
582836
526201
430607
577636
464349
445332
589959
167966
518958
386530
325047
336161
403171
419799
469850
335073
259014
233963
178902
174545
240006
0.0480349
0.0084945
0.000409659
0.022364
0.00249616
0.000114241
328529
272895
397960
263182
191269
194916
260287
266862
213336
202585
273196
346100
362933
483352
514222
354930
435275
448862
371623
461304
474042
341833
379526
33.9402
0.986601
288939
255802
172700
199166
176434
124339
120372
210931
133232
138137
207166
210844
276220
114938
183929
208576
27741.4
208302
239964
116099
269422
273763
193263
198548
129075
112156
168047
126129
163196
202763
249870
182876
185865
245366
253495
188837
187468
256796
387585
249949
12298.7
767.965
11092.8
195137
77.6215
1509.39
11.1331
209281
1.12773
0.0501804
0.00331538
191355
24859
0.462582
0.329433
0.0160177
0.0127572
0.000802019
440979
235711
544232
620907
429050
441806
0.000675057
0.0104827
9.00778e-05
0.000261248
0.000156094
0.00339414
0.0426157
0.00138618
0.00531183
0.372374
152.407
5.20972
1399.04
0.0635235
0.459968
169995
3.05963
299586
4687.88
474698
42823.5
1.53674e-06
3.26198e-05
3.0368e-06
0.000259292
6.54109e-08
2.20753e-08
1.42754e-08
7.46513e-09
2.90554e-05
1.04477e-06
5.99952e-06
0.00550807
1.17216e-07
1.46704e-06
3.14765e-05
0.000396725
0.000609552
0.00074506
0.000258307
7.26039e-07
3.51138e-08
1.95505e-07
3.16941e-08
3.2071e-07
5.84259e-08
3.79878e-07
5.66215e-08
5.87315e-08
1.00408e-08
4.65661e-09
1.01034e-07
3.50992e-08
5.64614e-09
9.16979e-05
1.07435e-05
9.22271e-06
7.93811e-05
0.00515831
0.0415368
0.00193159
6.28302e-06
2.67781e-05
5.37369e-06
1.31501e-06
3.81454e-06
8.83927e-07
4.46253e-06
0.0129491
0.00855667
0.0672001
1.51322e-06
3.6924e-07
1.31113e-08
1.01936e-06
6.31277e-07
6.29472e-07
2.21873e-07
5.43514e-08
3.07773e-08
1.40717e-08
1.61599e-07
3.34495e-06
1.32699e-07
1.32613e-06
2.96242e-06
1.21348e-07
1.82277e-07
1.96451e-08
7.42613e-07
3.55649e-08
1.62385e-07
4.2186e-08
3.35029e-07
2.33413e-08
1.10595e-09
2.21044e-08
2.40107e-09
9.21136e-09
1.71713e-09
1.2602e-08
1.9354e-09
1.22716e-07
1.07581e-06
1.39025e-06
6.8103e-08
2.22956e-06
9.28994e-08
7.76927e-08
7.85803e-09
6.53963e-08
5.22705e-08
6.15546e-09
1.32131e-07
8.60018e-09
3.65253e-09
1.90252e-07
2.80926e-06
2.56137e-06
1.50946e-06
5.87883e-07
2.39583e-07
4.63027e-07
4.22733e-07
3308.5
19.0252
33166.1
47237.2
207800
3664.71
234043
264.011
252.726
3703.09
0.11815
0.0790417
12.8692
1.29523
1.03407
16.3346
15.3558
0.280936
2.97354e-07
1.08912e-05
2.06588e-06
2.6645e-06
1.04939e-05
1.37185e-06
2.88186e-07
301173
153640
313318
369240
386229
399940
436716
268369
325795
352613
324452
1637.75
0.12178
2485.2
1379.82
2404.09
3288.73
2156.33
2602.06
900.003
542.495
1360.32
189.291
2711.13
197.331
2279.63
2481.43
181.521
206.367
155.337
1877.95
1483.31
110.172
2033.96
149.878
113.188
40.6778
958.161
71.6355
515.833
72.6764
543.028
40.8323
23.6201
3541.64
8.45904
1441.33
0.590005
4.01172
0.295958
0.24829
56.9628
0.267495
0.181298
1.78233
1.08534
0.438807
0.536119
0.324608
0.443631
4.03312
18.7623
3.54758
0.146761
0.05604
0.911213
0.330356
108.111
0.284202
0.306303
0.119511
0.191752
2.19113
1.7352
125.537
1.90762
224.821
0.0304324
0.00872354
0.164095
39.7979
0.0463471
0.0506797
0.0616624
0.017744
0.0217639
17.9955
0.774645
37.1689
0.256275
0.305237
4.42838
0.0167132
19.1603
0.0663695