/*--------------------------------*- C++ -*----------------------------------*\
  =========                 |
  \\      /  F ield         | OpenFOAM: The Open Source CFD Toolbox
   \\    /   O peration     | Website:  https://openfoam.org
    \\  /    A nd           | Version:  9
     \\/     M anipulation  |
\*---------------------------------------------------------------------------*/
FoamFile
{
    format      ascii;
    class       volScalarField;
    location    "0.00335";
    object      rhoE;
}
// * * * * * * * * * * * * * * * * * * * * * * * * * * * * * * * * * * * * * //

dimensions      [1 -1 -2 0 0 0 0];

internalField   nonuniform List<scalar> 
28891
(
288951
275467
293496
308471
297009
330187
275061
314705
305769
300769
291354
292202
298769
308980
300615
294783
312449
309155
328378
318871
307943
314987
282998
277078
283211
281994
286648
292599
285975
274374
284614
283148
297779
293616
303058
289469
318612
297273
308350
290310
299652
300562
309297
320159
333094
343524
311328
332592
322792
320137
293423
281656
285342
294222
296608
302251
288961
303325
305078
323141
303939
312755
312096
296226
480668
464122
385733
406423
310760
493744
524365
337614
467842
475814
300846
297794
324005
458887
439724
375317
371182
372706
323402
358806
309722
310401
357939
325477
379582
330120
363222
318170
313350
359480
394693
336750
346000
369008
324798
333846
377682
269076
300355
280433
279456
272510
271978
278090
282307
277428
284865
278364
264740
271474
266996
260911
287777
294838
288771
287851
283015
283412
274784
262569
336497
305322
282163
296479
266026
264824
282055
279584
280223
276833
279671
270675
271948
287114
277662
262661
289435
273360
267295
280734
294010
279752
287635
281177
291787
273483
285585
261637
270069
257842
272371
259128
263702
275450
286043
274302
276989
276864
267357
269563
280153
302576
296157
301246
347318
339910
346752
339569
420869
357507
371338
357566
344705
388821
402423
305010
305731
310330
344407
352007
348449
341164
316681
349433
357493
318314
325144
365670
356860
327105
346719
335073
375908
377642
388452
366084
469384
420748
428356
421242
480075
416198
471620
407546
449003
413918
457808
410580
412766
464309
492942
437129
447640
428214
490039
437689
501869
396958
466585
397736
465220
404652
404748
468823
401291
470815
398210
410372
480316
406623
473750
531931
474248
520777
506284
460003
449619
515790
414458
483311
406529
416343
488964
425053
500167
438126
450379
531216
507227
424828
436280
514143
578914
255491
253248
637652
766259
548115
747577
780453
594978
761898
344002
303902
336956
298284
330186
370042
426214
304538
345231
364624
423318
433380
361717
378942
336928
338404
339957
340749
304823
321828
322975
316794
372057
435964
365356
414173
397590
335967
343083
267143
283547
308314
308035
279835
296942
298015
335040
342819
337667
314556
334838
323341
317835
348575
342206
340852
324407
331080
324891
325285
316209
306129
360811
304358
341050
316239
305566
292812
301260
299528
310871
316500
311572
308751
93314.7
109044
153807
166559
231716
246933
234204
247239
211774
100988
138363
177987
146889
184405
205580
219142
76541.4
166222
225285
163212
196565
222859
172250
215515
176947
188942
176369
211623
192085
242175
244315
244157
246796
238815
242171
245678
171365
89832.2
139836
160815
179074
126625
146191
156638
82185.5
103429
124750
146437
111775
134136
187852
160703
165619
193883
191376
153620
192975
207129
200453
219777
231412
211536
230603
191417
160439
214221
163339
190338
170111
210460
192942
236128
223925
239948
245940
241180
235998
223166
237183
240161
228218
235546
232468
238218
236291
235237
218878
235421
236096
238029
233470
221578
131738
177134
209550
194843
256511
257051
251361
266636
214604
165641
158206
227755
178299
219927
217023
188691
202883
175123
187939
180573
206157
191435
210108
181891
203916
208325
188821
212126
209748
255774
244189
246337
251410
244541
245851
256979
185477
149009
141987
173051
153925
183791
175608
188278
161908
165587
189720
161984
189672
187708
185521
153428
166210
180772
160863
185825
179521
213628
206496
232167
229577
213747
231043
207483
238414
202346
211261
217285
193406
206618
200236
237914
225182
263582
252102
236474
260472
224705
265558
261673
243235
241742
245211
263570
240895
268984
237032
221821
263914
267501
233616
223456
496444
411028
404044
518040
315764
296922
436498
371485
361024
330798
337822
419449
427354
379142
388274
393438
384625
353618
470191
440480
399938
421820
291941
321175
307142
313072
345625
354476
328572
476101
507422
474218
480681
431869
434867
482550
304788
343684
324184
365040
347812
337347
380677
518089
517061
479827
439603
479458
479127
452334
358358
443137
390879
397359
407723
444135
365348
403176
443400
407012
380607
441301
371683
414167
276404
215275
353571
309677
288163
251394
263372
274448
231280
222499
238969
211817
246481
215461
226983
313985
241381
235809
243267
265930
220249
271970
266509
263324
266288
239740
237789
237458
238244
258127
268158
316973
289334
275879
253787
293638
395345
270922
342353
344766
300325
308075
306192
259165
249936
264212
240693
231760
232640
252193
270580
262904
260339
254308
275391
250931
279455
278228
264933
262204
259601
308752
287929
277754
534346
575856
560865
630429
671752
647152
689451
562950
612299
593022
682415
664808
707088
723900
579012
607530
590542
737952
709775
726959
753340
614521
654358
628688
743943
784289
759885
769121
258266
517711
459510
255000
442961
253997
582291
745111
769575
766748
761953
750914
771296
765504
757102
755758
754976
774351
750728
775599
759368
775499
802571
786646
791027
777195
806988
771980
794015
812864
757334
771365
795388
810468
766101
467712
527854
253249
469493
560120
253251
564491
395070
253247
488977
565841
253250
705492
253524
253245
761100
480548
767166
770428
532367
751204
522562
768608
768836
509634
775237
538647
781588
577421
758369
743589
503400
743173
516029
713188
546475
637230
588836
535148
626527
690426
735160
699566
466624
468338
300427
319124
367863
359895
423221
410486
326349
369841
329282
360980
311023
314136
363371
364564
334215
331944
327529
319402
365453
366831
417155
280297
269018
311965
299929
424873
271271
293848
403586
365801
392881
323428
292312
306371
340146
289537
321739
353783
272948
263957
279048
263623
427388
425712
413444
379777
358394
330599
361003
272888
381386
346765
410861
386871
326621
297786
272425
290709
287441
281122
277651
262337
266793
297079
294639
306914
299528
288261
277282
295119
275846
261674
273767
277033
272879
259632
267167
285336
292567
315869
297754
284848
281552
302626
296859
301898
304795
349473
341655
352798
344970
307633
321120
311006
357489
358740
350428
363552
431119
394865
401366
451822
408955
407012
446002
416210
380351
387817
404058
434370
399737
440132
400032
467444
403231
462566
405753
407333
460337
407095
468874
411525
408841
454627
409569
457789
344049
338606
463567
462695
546777
532629
444458
454999
486620
423673
492989
495176
517085
500809
446407
549549
561184
534354
512573
522506
532960
542826
481391
460329
492548
504940
473141
466811
497072
477002
451538
489494
524217
492067
504776
522957
365914
414248
366650
426707
324046
352182
370918
525791
407754
473178
454499
479833
401794
517759
423709
387634
449534
321604
360914
394124
469576
455939
432717
491389
507612
413301
497605
514809
516804
498759
526028
581961
590857
627634
616902
728590
678204
657697
500452
371346
581734
626591
473902
508609
501571
575614
572274
603060
608526
467331
495862
491804
575338
572149
600486
601224
521498
547737
536251
615227
602021
640438
655166
489790
490566
471134
582183
592958
605866
614450
527113
550765
548133
639063
681012
675356
645397
554568
560050
546130
665405
688853
654279
698690
518689
546240
544562
635287
669841
671793
633991
565861
567518
555103
678540
723393
693430
710267
494933
488073
477858
625264
607527
627091
642923
543592
543988
515355
669793
636030
641785
672518
552798
524717
517913
650904
686042
678028
663208
516599
520019
502039
645021
660854
665514
679572
582453
555491
536939
696238
677960
693538
707547
559337
570253
542716
703475
685437
697444
712735
611091
607238
580352
708311
728444
718652
720860
572816
259790
261427
256120
683985
255537
658166
328156
259286
538945
256081
686857
255363
464676
718394
763388
716047
730670
758328
730203
761938
765303
717031
715586
732652
768288
765209
736176
720316
769397
725160
747495
770799
741331
772264
769658
738125
731229
754273
771919
760897
772679
474865
255871
258807
255191
643542
574128
254149
722206
754869
726753
754216
731286
733362
749309
638693
622709
602792
718181
724873
729508
734097
751057
769489
773665
764789
767795
765275
756386
746843
755223
758431
757333
762318
743774
760553
769010
773021
779971
778713
762605
786096
775466
775330
776995
780905
797483
781298
791922
776866
749231
753049
741881
741060
734351
749424
742531
699208
669193
644812
735982
730932
737483
739259
750028
735388
731362
735787
735929
743333
738264
716919
690589
674429
739037
737171
738640
737362
740904
725751
724510
743639
746331
734878
741198
253402
253751
515304
404812
255121
538713
253878
738675
726269
740463
723936
741050
741518
713691
280400
313394
279669
307989
355047
338803
366960
315958
349066
326142
328100
342588
319334
350387
318652
338307
307904
311959
345983
312257
348028
313741
273319
286316
289583
295995
287998
291962
279105
313881
296514
303190
294763
304638
299035
287007
337321
361213
359337
346321
358055
332508
350960
337379
332583
331495
327966
348241
329944
342114
303604
304068
283792
326838
299978
301385
328090
307444
289696
297341
312688
334687
305834
330204
766999
265352
253251
271158
253253
719697
257449
253248
770699
771333
266724
253252
477608
706954
253249
693913
253298
253246
768273
415316
429988
436569
764119
448949
767452
757395
463312
443866
457757
762105
749294
477396
429915
771234
424766
459609
768001
766978
489725
761667
770692
455102
527664
765005
501750
748785
531504
751420
484728
701459
541761
741596
498653
331835
341038
342402
340490
396064
387837
254292
310403
314421
304919
434081
412602
384883
366088
319963
327522
307369
318760
387207
399932
253265
263939
321853
336578
457773
401129
379243
379585
423876
471081
369723
372703
279777
258723
290118
275316
274108
292699
288682
336694
338455
328109
331485
364136
342089
356945
271443
255156
266987
278665
283642
287722
289432
371035
377879
343402
344984
352781
364238
353136
349106
329301
334397
309820
319305
321773
313216
277794
266547
301740
279499
275465
299489
308994
343097
353028
325830
363346
324458
310101
348727
340287
308827
292411
286825
297372
334575
321094
324154
323503
315810
299424
289368
306596
302871
345298
392506
349335
368185
360363
387114
375483
360036
378002
339549
354838
376901
393022
392778
258941
268657
266479
296561
289698
293119
298353
411473
355449
364282
376651
399090
386742
411781
316395
307530
301225
280449
282598
302132
304077
393833
383737
411147
423900
407737
407647
422555
438333
375927
390377
413900
398994
425444
440157
306696
358539
353970
315927
362623
316961
359099
304927
350952
349403
317339
357759
321451
357459
403451
370807
379973
341419
376171
349817
372107
390813
355203
362426
335400
371510
331875
370684
389694
422937
399788
371951
383048
360256
392064
329307
363151
356932
383167
362482
349779
373886
312568
352551
349880
338322
360675
328605
366279
315569
370926
364289
367795
320171
325197
374202
445730
410196
421011
414082
397370
384411
402588
389010
349914
347072
374502
331057
332763
379424
328954
386598
378367
331507
390027
381631
338749
393282
346830
349325
336570
394142
386008
342269
351198
339932
370841
393497
375689
388905
404310
470184
432341
444470
426056
410521
423767
438137
398579
388950
362327
401619
425688
413401
415145
449865
482834
495715
461531
450003
457406
436954
672237
593883
621413
712016
701906
532303
646065
391059
378592
291387
281992
280814
277795
341647
299519
326656
383122
332462
363467
340640
331650
322851
349161
309891
319090
342358
337633
318366
314385
303322
283208
272512
290405
303035
293349
288834
322745
387787
316768
291164
341079
331455
302428
254864
305659
288794
268329
298054
313625
300861
283357
324979
312242
320037
322189
324940
311674
312013
302763
315335
311656
309778
308874
315849
284802
308583
305497
305362
324789
301531
321055
421998
420583
417295
525875
518246
523842
520164
425194
425841
420841
530059
530118
536320
524168
436859
426136
420803
531642
531932
538843
525308
417249
415303
421487
518515
524142
526798
520912
436260
439519
432105
538320
544958
555948
548869
458290
452834
448197
569512
577874
585991
561938
465910
462309
451213
575220
584172
592388
566879
448424
447533
433058
538476
556932
551724
544741
452972
431508
432179
534637
550011
549382
533300
468259
441515
435582
553727
534686
538753
560154
478462
449443
458920
545241
579934
568983
554051
445322
441476
433085
540979
548524
560638
552588
449414
442089
451835
565337
553616
565123
576973
514396
480864
469479
592942
565103
578235
607804
469574
466254
458559
579481
609883
591931
596762
541547
505341
492862
593511
642068
624345
610847
490753
475767
470269
596935
605421
627384
618858
508316
491305
482788
630143
616680
638525
651517
524040
502355
509000
650662
666845
674018
642640
554683
517896
529023
661031
693237
673043
683031
584705
559745
551386
689716
695665
709177
713588
267448
761025
750005
588839
601046
261723
263844
687665
770018
680939
770069
769454
686265
682136
692539
694542
771471
769404
769975
697969
688465
270979
751631
761418
594550
348074
261160
569135
690876
769272
690065
767746
695642
768765
685222
697381
766446
709204
765538
705169
701987
767508
681624
770377
686635
688727
771411
770253
684142
606232
571119
585528
710657
702897
718834
724262
696510
766351
701824
709020
765044
764125
704022
259101
742802
707159
557548
505369
256669
260467
694277
768779
766522
702411
702821
768179
692901
768981
703808
693284
695397
768077
706926
768727
258446
264559
744449
256216
259853
548681
491922
699238
767400
767889
718081
711814
768282
704676
701963
768266
704732
712437
769127
766062
710295
765750
725029
711356
718725
761692
731704
762898
716710
761933
720147
755857
760647
723824
712185
764839
714662
707982
714872
759181
720872
762286
720386
727257
766164
757465
727582
762423
719053
721867
753291
755083
732036
726841
758494
728027
725809
752940
742202
756331
737776
731750
758748
736628
663884
734793
632905
623592
724052
727184
254438
597984
688953
253920
544447
433337
255696
726843
749391
729743
734303
743465
740901
732106
682530
739180
738333
658947
644869
730902
734458
746212
736144
733033
736836
731564
739281
737067
737744
738847
733232
715547
729960
739803
736068
739631
709590
740628
718383
741113
725101
740561
714463
740971
741262
740369
682171
738016
700129
707116
740223
723078
738950
727487
737386
733784
709405
739772
741571
740547
675325
697392
737410
312648
253636
424622
253344
341994
253949
548213
739186
696730
739185
677694
736512
735666
670676
678621
731074
737728
689175
738864
733991
660419
738010
725805
654665
658819
733415
681048
732926
297393
253536
394875
253270
265977
345793
253334
664139
726428
735195
644307
730801
719202
600641
758839
756026
753882
651969
648131
636180
639992
755272
744874
750293
629126
640609
628544
616676
756195
759771
754254
651777
639576
647495
635023
738686
597168
736679
748656
746600
619503
623320
756627
745226
750722
626905
639324
626377
613189
736101
600045
738450
748555
746272
622600
617594
737406
733370
727735
613208
600009
591969
577934
576761
590346
715872
642308
729587
727503
632467
575738
733015
727309
737404
742992
611600
599105
725798
584327
731961
736129
742226
608189
593926
737441
734760
727189
609563
594792
586458
570794
725550
571671
727431
716063
714517
531676
537680
727227
568781
724845
715191
711961
534594
538832
599254
697486
718880
706108
557645
724125
618535
721626
700596
715701
532333
565013
550308
517212
534070
719455
709160
729717
719814
581560
558734
522946
717234
705689
727823
717126
574466
549566
546510
720837
714746
699643
706937
525607
511672
713101
617696
723826
708330
521103
692927
565578
715291
554991
721717
503944
704192
710782
520505
722410
697979
714278
522688
557452
541124
505999
491124
705892
693155
481925
694152
679842
454949
504005
706311
695079
689817
676989
492615
468441
471378
695715
678355
691188
707258
530459
496912
690431
670892
456011
685799
703389
519297
483671
572906
685209
710987
699544
461705
538847
668250
701181
678167
696797
495130
456096
451290
499660
703078
686308
702254
492761
455763
498771
450276
681439
665774
656856
494297
478780
436098
451246
681221
669661
690289
485698
427652
441728
471355
691597
674647
423710
682469
698723
481382
439605
441254
680368
661229
638790
660323
439798
407854
676235
654078
424380
635881
660597
423938
390066
669272
625475
653931
409386
452250
428884
387541
393187
627421
655919
670660
644170
458277
416570
680250
662147
403130
643596
664319
416608
379292
683606
612706
417393
447600
661752
497050
644918
610618
602851
634650
401952
339677
363637
372647
367375
605560
636512
611806
576633
373923
341722
635818
585396
625506
391704
360950
349454
405797
612594
617177
642560
387091
329595
357393
354305
320387
354014
591234
567712
611008
373952
335593
332284
243458
368163
306925
352826
284144
325793
248551
326681
338897
295301
292512
312392
341207
311544
241662
269682
264361
268805
289258
285568
263718
342020
300554
294505
355478
346565
313315
318573
263635
262287
240879
268224
264300
285340
288297
361835
347811
355036
336394
326386
327877
341967
358931
370698
381142
330313
354881
347983
335362
305141
305222
287094
320073
306290
304386
323469
285341
329322
307918
283664
305093
304855
326244
389777
349619
318669
343727
321387
362255
424429
375869
357337
335720
337672
366862
347525
371913
347179
368625
377464
357574
397209
383663
360023
373809
322924
307183
310919
318355
331754
330774
318732
330646
325104
340909
343445
341913
330393
356409
344821
376042
368103
391243
386434
355151
378421
331631
306999
318527
321764
341678
333037
351264
413127
407136
398702
367504
405653
381935
390655
331082
344848
357716
345875
377688
360294
363151
304917
333458
565163
480111
532468
313490
290550
579438
496502
540175
316940
343931
317741
296650
533551
487631
471726
322915
314435
293422
287939
488217
293530
513654
450559
304283
281763
275588
439175
447471
493218
295318
269980
280871
278811
457094
283478
421363
363205
274870
269971
265234
270521
405902
401812
387547
268906
268362
391390
254276
253252
254067
253254
255006
253254
254644
268665
376048
389932
375985
265034
266723
363024
254009
253250
254212
253253
254564
253253
254986
269244
380676
393309
379534
265710
367746
267264
405046
270145
268740
390475
399780
385363
268011
353685
419317
404032
264006
274515
271582
262523
364814
263881
353171
263162
347182
337028
261953
253943
253249
253574
253253
254434
253250
253301
253529
253250
253310
253250
253881
253252
254347
262770
344267
335244
362672
263743
352181
265038
263493
353297
350368
369873
266388
265943
373320
263202
263707
352295
266237
372347
367600
265624
257763
305326
298454
260292
322913
314380
259381
330499
340618
262320
359054
263125
264545
347483
259130
324056
311578
262201
339278
324841
260565
359307
263139
347690
262368
341252
331140
261210
361898
327899
384400
268319
259139
265078
260842
382944
306720
333194
262947
268054
261426
258490
254035
253250
253876
253518
253249
253463
253248
253826
253249
253983
253445
253248
253514
253249
260605
325412
317907
307188
258061
301181
258665
261162
332845
330479
311232
259267
259076
313085
260899
261306
331842
309102
259169
312180
258856
261037
311123
328929
320272
258363
260073
303960
258525
318641
305896
261523
333827
319087
259889
313200
321765
260199
257647
297016
303855
258327
253459
253249
253727
253410
253248
253247
253314
257245
303236
292978
256896
289468
281968
256149
253780
253248
253496
253429
253258
253248
253247
257765
308523
298182
257335
293890
286205
256569
257830
298768
287131
309922
257522
258966
295634
256994
290646
282723
257286
293490
304222
258343
338678
284001
316235
257564
262094
259509
256240
294075
257479
281873
256025
280879
257345
295456
292544
257409
281535
255937
294787
280087
257188
294846
256915
289530
278112
256138
255769
281770
253479
253247
253307
253248
253275
253247
253267
291131
256633
255826
275919
278832
286865
257056
256337
283964
274363
288782
255688
277595
256816
256762
288122
279185
278829
255174
255833
272302
275408
256303
283521
275096
254867
269258
255461
256124
272486
281763
276395
254825
268901
255587
254926
277428
269843
256310
283519
273993
255351
255807
278649
270788
273386
254634
267221
255279
273492
280135
295959
257410
254466
255857
255211
253422
253246
253291
253253
253246
253255
253247
271261
254599
254469
262382
265470
255066
266717
254526
271776
265998
254619
266903
262638
254176
269626
255148
265146
254281
254903
263635
272015
268599
254366
254293
260989
264498
263905
254790
254340
260135
264215
266939
254102
254624
261910
254201
259734
262905
259824
253666
257595
253887
254072
258451
261644
259361
253606
253840
256982
253252
253246
253278
253252
253246
253246
253256
260426
253853
259476
253635
257280
256725
253581
257288
253745
258390
256102
253458
255479
253519
257460
254906
253489
253509
256005
253651
255799
253250
253246
253268
253248
253245
253252
253246
256270
253451
255403
253402
254908
254421
253355
254298
253449
255371
255074
253329
254146
253419
254945
254783
254731
253409
253384
253389
253404
254904
254765
254693
253408
253400
253388
253381
254821
254469
254623
253374
253376
253360
253393
254758
254395
254564
253368
253386
253368
253352
254740
253805
253355
253313
254405
253975
253387
254184
253383
254708
254030
253292
253739
253319
254242
254531
254488
253361
253342
253339
253365
254171
254270
254399
253354
253324
253333
253342
254124
254204
254346
253348
253318
253329
253335
254262
254515
254454
253343
253366
253360
253338
254286
254215
254093
253357
253343
253337
253326
254205
254127
254012
253348
253328
253335
253318
253245
253245
253245
253245
253245
253400
254257
253245
253245
253245
253245
253245
253245
253248
253245
253245
253245
253245
253245
253245
253245
253245
253245
253245
253245
253245
253245
253245
253245
253245
253245
253245
253245
253245
253245
253816
253246
253245
253245
697543
459911
497531
253282
253245
253245
427935
695262
715125
253249
253245
854670
840653
745151
655415
657968
876876
808657
675682
562384
270321
1.068e+06
705386
582223
696090
253434
253280
253246
253245
253280
659748
1.03487e+06
734398
593234
253245
253245
253245
253245
253245
253245
253245
253245
253245
253245
253245
253245
253247
764361
959153
640204
253245
253245
253245
253245
253245
253422
607770
679018
253245
253245
253245
253245
253245
253245
253639
608927
253245
253245
253245
253245
253245
253245
253245
253247
253245
253245
253245
253245
253245
253245
253245
253245
253245
253245
253245
253245
253245
253245
253245
253245
505425
454437
383880
689470
454699
253334
735034
253245
253251
253245
253245
643325
554443
623115
643397
379751
422366
490045
406183
609922
493758
556680
519737
506676
577135
526326
585653
648468
614671
477719
474978
485797
451281
662799
610298
604073
613416
650679
667855
627383
524779
561932
519913
541668
547635
558740
592901
493619
405261
493351
393664
490206
471441
382964
491872
477943
480342
505277
515203
522068
506857
521418
514581
506208
539567
528803
540384
544465
374796
520732
436777
577200
606350
439167
503469
525936
655923
547477
576225
546847
463449
458387
371897
517194
423643
372647
374172
424855
517917
591317
569633
563090
557364
654750
629896
534247
462543
395660
483094
448912
421263
392758
445280
519723
532378
495419
553662
575688
530252
592338
531392
555627
538813
564591
521167
577476
546291
596068
754026
700585
501550
605723
560304
625061
532490
570981
541513
553184
573990
538726
586988
558145
579214
553346
566789
579382
593531
562471
557447
641570
557055
419663
528187
542141
749094
606010
545389
562997
548484
638481
631409
505306
426279
374146
462653
434899
402725
422172
383524
609522
615517
614322
635603
630861
635530
631271
622517
623223
620835
637395
636039
632456
639210
578977
618445
601653
626382
617625
615596
664718
557156
417060
529917
459192
562013
506657
405599
568089
629876
500727
606940
539714
430687
481283
751854
721159
389552
562604
484771
972826
745245
440690
1.2938e+06
1.47939e+06
1.20038e+06
1.26533e+06
1.16869e+06
1.19359e+06
1.07981e+06
1.14176e+06
1.19589e+06
1.08523e+06
1.19946e+06
1.15996e+06
1.08692e+06
1.28421e+06
1.54995e+06
1.67494e+06
1.76889e+06
1.48383e+06
1.38612e+06
747307
1.2925e+06
1.57643e+06
1.17022e+06
1.06282e+06
1.1597e+06
1.04161e+06
1.17303e+06
1.38385e+06
1.10201e+06
988302
596305
686122
877090
253245
253245
253245
253245
253245
253245
691879
584192
729190
447621
342617
309032
496362
403353
249297
277177
365305
953613
763789
1.0402e+06
816781
853130
921018
817627
682171
726346
642883
1.38599e+06
827653
253330
253247
831172
680437
565632
610433
499589
370016
416242
455694
344034
314994
498443
917994
870878
580179
816163
719025
325210
910843
1.03378e+06
474086
918397
816335
776168
612773
377353
528389
638258
416913
696613
548661
679070
529125
472817
764299
608952
379381
421385
549830
1.40955e+06
1.08246e+06
284549
255167
281419
858630
253439
257027
253273
893460
253248
253245
253245
755052
317483
253246
253246
253245
253245
253245
517335
970536
1.13791e+06
825409
1.62312e+06
1.30588e+06
253245
253245
253245
253245
253245
253245
253245
253245
253245
253246
253626
253258
256750
253245
253246
754225
253253
1.21981e+06
265046
1.70997e+06
366148
253245
253245
253245
253245
253245
253245
253245
253245
253245
253245
253245
253245
253245
253245
253245
253245
253245
253245
253245
253245
253245
253245
253245
253245
253245
253245
253245
253245
253245
253245
253245
253245
253245
253245
253245
253245
253245
253245
253245
253245
253245
253245
253245
253245
253245
253245
253245
253245
253245
253245
253245
253245
253245
253245
253245
253245
253245
253245
253245
253245
253245
253245
253245
253245
253245
253245
253245
253245
253245
253245
253245
253245
253245
253245
253245
253245
253245
253245
253245
253245
253245
253245
253245
253245
253245
253245
253245
253245
253245
253245
253245
253245
253245
253245
253245
253245
253245
253245
253245
253245
253245
253245
253245
261558
253293
339974
378332
892390
262457
981035
253905
253877
262554
253245
253245
253277
253248
253248
253286
253283
253246
253245
253245
253245
253245
253245
253245
253245
1.31099e+06
709765
1.27283e+06
1.4074e+06
1.27632e+06
1.67542e+06
1.45408e+06
1.14639e+06
1.36582e+06
1.49009e+06
1.38481e+06
257350
253245
259480
256701
259276
261507
258653
259775
255498
254602
256653
253718
260049
253738
258963
259471
253699
253761
253633
257952
256961
253520
258345
253620
253528
253347
255644
253424
254536
253427
254604
253347
253304
262146
253266
256856
253246
253255
253246
253246
253387
253246
253245
253249
253248
253246
253246
253246
253246
253255
253292
253254
253245
253245
253247
253246
253515
253246
253246
253245
253245
253250
253249
253559
253250
253807
253245
253245
253245
253345
253245
253245
253245
253245
253245
253290
253247
253338
253246
253246
253256
253245
253293
253245
253386
253245
253245
253247
253245
253245
253248
253286
253246
253248
545254
940411
364232
253437
267465
253262
253768
253304
253245
253245
253245
253246
253245
253245
253245
253245
253246
253245
253245
253245
253245
253245
253281
253248
253284
253249
253248
253281
253284
253275
253248
253247
253267
253248
253275
253267
253245
253245
253245
253245
253245
253245
253245
253245
253245
253245
253245
253245
253245
253245
253253
253246
253260
253247
253259
253246
253254
253249
253246
253245
253247
253245
253249
253247
253294
253882
253518
253267
253906
253296
253265
253245
253245
253245
253245
253245
253245
253245
253245
253245
253245
253245
253245
253245
253245
253245
253245
253246
253245
253246
253245
253246
253248
253342
253254
253278
253253
253275
253249
253245
253245
253245
253245
253245
253245
253245
253245
253245
253245
253245
253245
253246
253245
253249
253250
253414
253260
253258
253246
253301
253254
253245
253245
253246
253246
253248
253249
253348
253260
253704
253623
253283
253288
254383
838003
584217
480890
657994
632687
830860
535648
258102
308138
270365
381792
259806
300485
268342
253250
253245
253246
253258
253252
253246
253722
255100
253307
253397
253900
254802
253289
266378
257986
254589
253721
264719
257885
254663
253245
253245
253245
253245
253245
253245
253245
253245
253245
253245
253245
253245
253245
253245
253245
253245
253245
253245
253245
253245
253245
253245
253245
253245
253245
253245
253245
253245
253245
253245
253245
253245
253245
253245
253245
253245
253245
253245
253245
253245
253245
253245
253245
253245
253245
253245
253245
253245
253245
253245
253245
253245
253245
253245
253245
253245
253245
253245
253245
253245
253245
253245
253245
253245
253245
253245
253245
253245
253245
253245
253245
253245
253245
253245
253245
253245
253245
253245
253245
253245
253245
253245
253245
253245
253245
253245
253245
253245
253245
253245
253245
253245
253245
253245
253245
253245
253245
253245
253245
253245
253245
253245
253245
253245
253245
253245
253245
253245
253245
253245
253245
253245
253245
253245
253245
253245
253245
253245
253245
253245
253245
253245
253245
253245
253245
253245
253245
253245
253245
253245
253245
253245
253245
253245
253245
253245
253245
253245
253245
253245
253245
253245
253245
253245
253245
253245
253245
253245
253245
253245
253245
253245
253245
253245
253245
253245
253245
253245
253245
253245
253245
253245
253245
253245
253245
253245
253245
253245
253245
253245
253245
253245
253245
253245
253245
253245
253245
253245
253245
253245
253245
253245
253245
253245
253245
253245
253245
253245
253245
253245
253245
253245
253245
253245
253245
253245
253245
253245
253245
253245
253245
253245
606264
291207
253253
253245
253245
490162
264118
253245
253245
253245
253400
253293
253245
253245
253245
253255
253245
253245
253245
253245
253245
253245
253245
253245
253245
253245
253245
253245
253245
253245
253245
253245
253245
253245
253245
253245
253245
253245
253245
253245
253245
253245
253245
253245
253245
253245
253245