/*--------------------------------*- C++ -*----------------------------------*\
  =========                 |
  \\      /  F ield         | OpenFOAM: The Open Source CFD Toolbox
   \\    /   O peration     | Website:  https://openfoam.org
    \\  /    A nd           | Version:  9
     \\/     M anipulation  |
\*---------------------------------------------------------------------------*/
FoamFile
{
    format      ascii;
    class       volScalarField;
    location    "0.00335";
    object      T;
}
// * * * * * * * * * * * * * * * * * * * * * * * * * * * * * * * * * * * * * //

dimensions      [0 0 0 1 0 0 0];

internalField   nonuniform List<scalar> 
28891
(
563.496
635.775
616.481
560.849
642.753
579.806
651.458
576.236
610.798
605.131
609.285
605.962
605.236
612.162
612.146
627.874
633.084
619.281
625.559
617.977
618.715
629.391
626.158
628.98
618.073
616.413
609.828
615.733
621.491
643.609
649.736
637.417
623.57
639.042
635.606
629.233
570.987
588.839
599.026
590.473
562.856
599.073
572.078
607.195
613.615
587.106
605.223
584.659
611.183
579.233
563.682
594.556
591.862
599.044
569.173
571.556
599.723
604.122
572.436
580.89
611.698
611.203
576.782
604.218
451.644
480.924
505.538
513.643
528.483
444.1
443.077
537.345
442.439
444.012
516.796
511.124
509.109
447.241
441.042
496.456
489.381
492.455
512.403
488.675
508.649
512.694
491.193
517.766
500.984
524.406
499.121
524.986
518.397
494.873
509.852
531.679
539.101
503.401
532.057
538.949
507.352
550.046
550.756
589.871
588.077
538.995
593.691
623.007
555.363
589.332
597.959
592.308
571.717
578.979
582.391
576.212
594.454
599.627
597.177
602.717
595.982
598.46
590.48
581.993
643.296
615.129
601.351
622.929
592.455
585.513
611.249
603.398
618.274
609.857
602.147
600.235
593.401
528.188
530.038
553.829
533.721
557.151
561.188
536.253
541.591
566.862
577.63
580.521
553.26
570.576
544.34
567.059
532.861
560.563
531.518
556.972
563.992
537.935
554.66
585.989
582.591
546.946
576.166
572.991
545.987
512.557
506.33
508.028
486.387
482.701
489.055
485.312
516.877
545.735
551.509
549.129
544.624
510.617
513.191
522.725
518.338
524.733
492.058
496.584
492.648
488.632
531.405
495.016
500.361
532.823
537.322
503.581
497.118
535.354
544.661
541.557
505.9
498.865
507.553
498.295
449.803
471.739
475.32
474.764
451.667
472.072
449.735
464.432
444.167
467.968
444.82
466.861
469.29
447.303
452.81
478.33
480.646
477.007
452.894
478.772
453.583
462.049
441.455
460.716
444.511
464.939
466.819
446.255
465.275
443.432
463.778
471.294
449.307
469.12
448.001
453.885
483.351
453.445
453.407
482.286
480.061
453.949
466.607
444.161
466.161
472.945
450.028
474.112
450.374
466.134
475.189
450.183
443.77
466.66
474.861
450.483
432.909
288.691
287.927
435.137
412.659
433.38
403.342
406.184
434.707
399.373
593.503
591.401
601.868
586.68
581.02
606.304
643.81
606.569
589.476
595.602
622.849
625.448
596.899
604.774
583.381
584.287
584.871
583.631
577.335
579.354
577.102
577.163
631.47
632.663
609.68
627.999
613.121
587.006
602.396
596.269
582.488
585.956
576.013
584.489
576.886
584.942
602.332
604.461
595.305
594.389
595.958
585.428
593.415
605.336
603.06
593.019
584.219
598.278
595.567
585.29
585.497
594.65
607.224
591.584
597.236
581.651
588.781
582.448
587.714
579.606
579.23
593.48
590.965
580.83
523.01
534.614
555.857
572.698
666.507
671.313
802.148
780.808
632.531
530.722
552.103
634.329
559.645
637.285
629.638
636.65
490.831
587.25
659.454
573.545
640.681
640.952
589.167
618.832
593.81
605.561
578.336
625.635
597.142
793.068
699.833
715.133
751.295
724.534
760.675
695.223
588.27
510.231
561.466
583.293
595.338
546.495
571.559
576.958
497.78
524.217
558.132
571.863
531.461
561.654
596.488
579.376
578.887
606.311
602.817
567.348
600.329
627.747
622.963
660.703
660.686
629.406
661.213
619.48
561.696
614.646
559.636
590.031
565.963
612.004
592.567
662.566
636.061
667.369
708.354
709.981
664.205
630.088
800.4
703.925
729.411
771.379
728.849
768.576
705.015
663.709
627.373
667.004
716.978
714.373
664.655
628.33
561.213
608.865
661.577
700.469
680.312
700.121
765.702
773.875
660.253
597.801
616.78
659.026
633.479
647.288
660.292
634.245
651.532
611.264
618.254
637.112
636.115
634.506
682.114
657.145
712.513
711.497
669.623
679.035
715.834
754.784
697.158
705.872
743.008
692.605
703.806
741.4
616.214
577.796
578.857
597.001
592.567
606.083
607.561
619.17
591.307
607.22
614.584
601.825
611.761
621.249
628.517
600.181
627.157
631.959
610.574
638.531
621.177
639.571
628.714
660.83
662.001
634.066
664.433
634.222
688.084
675.539
706.882
673.385
671.679
703.422
654
682.055
645.691
690.347
710.192
669.681
719.395
656.201
776.958
757.43
713.173
740.737
714.114
752.069
740.845
754.464
700.744
675.199
697.365
735.702
722.115
666.332
661.654
618.797
642.81
658.3
667.378
720.674
695.836
686.78
693.287
706.458
693.75
657.451
654.363
662.6
653.34
687.923
681.764
684.449
672.185
659.356
651.87
657.883
739.742
695.687
722.293
705.998
675.991
661.011
675.544
648.745
654.329
649.231
643.978
642.917
637.712
640.82
693.277
671.66
686.943
651.712
644.542
657.195
648.796
661.184
659.162
652.271
637.905
639.284
638.126
643.953
658.585
639.234
645.889
636.251
630.738
631.392
643.248
632.07
625.725
621.255
628.559
625.694
632.927
633.855
714.493
749.506
737.391
735.602
690.183
704.021
801.543
758.238
763.615
751.439
768.811
751.665
768.188
748.906
771.628
732.365
741.436
739.521
693.572
757.374
728.059
710.6
797.19
817.78
805.659
777.749
775.26
768.702
791.567
758.742
758.278
731.485
745.964
759.244
764.933
737.707
723.347
742.144
728.809
706.757
755.295
722.831
717.249
760.773
701.975
764.946
744.087
688.788
738.114
701.81
773.184
784.669
801.542
768.745
757.541
780.471
746.484
725.981
702.327
746.812
740.012
694.494
722.842
704.841
433.023
435.521
435.253
426.016
428.666
426.048
428.59
433.358
435.36
435.6
424.978
425.743
428.09
427.12
434.432
432.481
432.039
429.558
429.772
429.651
429.268
434.994
433.241
432.919
429.051
427.619
427.975
428.62
289.666
355.613
344.202
288.522
340.976
288.178
367.129
423.244
409.598
422.722
409.776
421.567
421.042
407.11
417.071
406.652
419.506
418.966
401.278
416.559
404.343
407.562
421.261
422.064
420.544
404.367
419.915
405.458
418.651
416.396
400.131
402.127
416.464
418.265
402.997
417.295
357.666
287.927
420.716
363.915
287.927
412.611
330.331
287.926
426.442
364.893
287.927
411.249
288.018
287.926
415.47
424.342
418.243
408.59
429.314
405.167
426.062
418.391
415.266
430.644
408.974
430.711
407.593
431.588
413.546
405.765
412.764
403.163
421.192
395.31
417.147
410.875
410.439
410.73
376.55
389.818
402.481
392.009
440.707
439.164
503.867
509.935
485.958
483.123
435.763
431.105
508
487.33
508.412
487.502
506.824
506.857
487.249
484.718
511.459
509.663
511.882
508.473
487.276
486.965
665.636
553.307
547.801
614.675
542.487
686.802
530.725
605.44
652.515
633.642
653.305
601.552
583.202
597.567
616.903
597.426
613.219
635.193
573.832
570.138
583.739
576.397
688.438
676.898
670.265
649.389
637.762
616.31
633.316
587.044
666.373
638.23
680.266
657.822
621.867
599.475
549.043
526.382
525.822
528.018
527.409
551.549
552.891
529.712
562.71
536.355
537.779
531.327
557.675
568.166
531.645
559.989
564.682
529.845
529.005
554.944
557.425
535.387
574.056
587.445
539.701
533.141
564.004
576.196
503.865
505.668
505.42
484.979
481.229
484.681
480.946
505.878
510.778
507.142
485.115
482.843
481.552
485.819
438.218
458.902
461.429
442.544
464.978
463.455
440.433
433.461
453.785
456.49
461.798
435.565
459.437
438.213
459.992
440.072
459.709
443.042
463.707
462.942
441.725
459.452
437.619
458.759
462.185
437.906
460.786
440.141
607.08
614.285
649.234
663.357
664.049
662.132
616.734
642.347
651.584
631.245
649.133
643.631
647.497
649.488
633.012
666.605
666.431
663.338
642.177
646.904
655.175
653.122
640.704
632.732
637.382
646.253
642.592
638.04
643.651
625.862
621.765
631.59
647.053
632.1
639.546
641.732
614.326
633.799
618.802
635.218
601.122
611.648
615.843
662.996
628.206
649.82
649.049
649.66
629.045
657.862
635.307
635.431
643.042
603.098
619.357
623.154
651.365
654.362
652.522
653.981
655.983
638.549
658.368
656.891
429.91
428.647
431.907
422.305
423.643
426.481
424.982
410.619
411.222
411.06
352.759
324.723
368.021
376.432
422.44
427.86
425.815
421.022
419.978
422.052
423.443
419.022
423.669
421.39
418.303
419.146
420.776
419.574
432.128
434.638
433.546
425.623
424.809
427.644
428.36
418.991
416.621
415.623
417.396
416.583
418.369
417.187
427.846
428.296
427.455
424.241
426.243
425.304
425.503
429.128
430.073
432.062
427.959
427.201
426.756
428.173
423.824
426.341
424.729
422.862
422.763
424.193
421.347
433.992
430.96
433.223
428.93
429.445
429.531
428.974
414.523
412.967
414.152
415.71
416.036
416.228
415.51
422.625
420.03
418.286
421.057
419.829
418.253
419.209
414.56
413.273
415.556
416.747
415.494
417.317
415.491
411.483
411.411
412.075
415.434
414.933
415.024
414.264
411.387
410.693
411.627
413.88
414.436
413.401
412.492
410.44
410.807
411.005
413.151
414.253
413.341
412.135
410.414
410.868
410.341
412.287
409.928
411.232
411.043
366.258
290.202
290.781
288.911
386.044
288.707
381.65
312.687
290.027
359.688
288.898
386.37
288.648
345.357
421.952
416.893
422.954
421.979
412.509
420.785
413.928
417.771
424.305
423.679
422.901
415.262
414.817
423.622
424.848
418.092
425.153
424.617
415.325
424.23
414.801
417.112
424.32
424.999
424.616
411.785
423.943
413.552
347.221
288.822
289.855
288.587
378.871
366.035
288.229
420.616
411.258
419.073
410.596
419.296
417.586
408.299
411.052
410.656
410.806
411.769
410.737
410.203
409.189
421.977
411.659
421.832
407.851
420.99
411.246
422.842
420.891
409.032
406.739
418.387
419.866
419.539
410.405
423.867
411.748
422.45
408.96
423.521
422.753
411.439
423.777
409.301
408.538
422.217
423.163
422.709
410.627
407.117
416.597
417.953
416.168
400.812
414.543
404.81
411.329
411.2
410.812
408.531
409.665
408.107
406.826
408.67
415.667
417.421
415.787
402.81
405.705
413.963
410.895
411.232
411.383
406.309
408.478
407.376
404.895
414.198
399.285
398.196
410.174
412.364
402.197
412.226
287.977
288.094
355.198
332.378
288.562
359.648
288.137
413.803
399.507
412.097
398.73
411.806
410.074
395.745
546.734
547.933
584.685
592.185
596.25
595.095
572.944
500.469
608.748
592.082
603.432
601.259
595.837
585.734
581.185
590.72
584.196
588.98
571.389
566.668
577.722
572.448
567.611
588.64
582.725
587.74
565.412
571.859
574.735
601.644
594.802
600.533
594.737
594.645
581.224
584.364
571.235
536.971
547.045
523.068
560.506
560.833
536.348
539.98
518.775
510.997
547.164
549.656
552.957
526.932
527.12
531.541
553.167
527.349
545.687
551.203
531.981
538.792
562.461
573.402
570.684
547.391
559.831
538.63
421.44
292.18
287.928
294.271
287.928
398.22
289.375
287.927
425.113
423.617
292.68
287.928
417.389
394.282
287.927
411.686
287.943
287.926
423.158
414.158
416.37
416.561
418.13
419.156
420.54
413.294
415.085
416.411
415.386
416.218
408.301
413.729
417.262
425.179
416.254
421.976
420.664
418.243
426.982
414.14
422.007
418.483
428.294
416.015
427.853
406.449
411.586
410.038
413.292
392.58
411.544
405.016
413.027
471.033
506.862
509.239
472.964
429.275
426.372
455.241
427.362
477.936
422.889
440.404
434.11
494.159
513.127
429.23
484.583
423.649
466.598
425.292
422.334
460.722
478.444
434.894
438.767
445.565
505.649
524.29
423.94
514.862
480.774
481.794
446.641
470.299
452.9
470.851
438.694
435.166
445.029
446.128
496.183
505.407
492.439
462.148
480.054
465.717
477.119
471.845
467.565
475.272
444.224
450.222
449.342
453.404
483.908
488.664
512.925
501.363
507.674
476.756
470.669
474.905
504.148
504.599
489.076
490.248
459.983
458.99
457.348
453.753
473.307
435.209
434.186
446.023
448.932
494.769
502.275
482.651
476.184
457.657
449.538
467.609
492.712
472.323
463.785
438.145
443.015
460.086
453.796
468.903
503.764
502.723
488.523
488.297
459.07
459.838
518.148
500.019
524.691
523.424
515.1
491.499
483.83
507.78
484.914
466.624
475.123
520.214
534.685
492.691
473.918
481.763
479.006
458.023
455.052
456.793
458.775
510.666
531.938
539.472
531.981
498.89
540.242
505.247
464.513
500.552
497.754
487.986
488.103
460.458
460.638
530.655
486.174
538.598
550.546
543.472
498.673
502.816
518.279
546.515
552.901
554.158
547.652
510.198
513.898
424.396
419.927
418.197
428.533
420.761
430.241
419.597
422.653
416.97
416.41
428.325
419.109
429.46
419.015
431.388
449.299
452.251
437.872
424.321
440.362
423.153
427.655
445.106
446.987
436.59
422.792
436.396
422.715
455.976
437.224
460.403
448.537
426.362
444.009
429.03
433.486
420.99
419.154
426.683
445.723
440.448
424.236
425.898
417.622
416.632
435.77
420.08
431.999
421.914
431.189
422.92
421.658
422.096
433.074
435.976
423.086
443.276
465.264
470.077
434.758
459.141
453.708
431.958
424.286
443.531
442.095
423.124
437.144
438.208
423.35
437.515
423.523
423.512
437.985
423.516
423.534
438.898
423.3
440.706
439.42
438.789
423.086
423.321
438.914
442.24
438.087
422.699
428.822
450.919
455.256
430.323
447.099
474.237
477.393
437.094
464.146
468.086
438.68
424.61
424.569
445.163
458.16
431.153
459.645
431.07
472.147
447.881
448.018
439.607
439.472
479.513
470.695
412.228
411.314
411.221
396.409
393.249
358.787
380.325
613.741
624.381
550.18
518.999
544.507
568.146
589.338
491.624
565.329
617.879
577.501
598.067
596.694
563.136
569.328
591.364
584.011
587.492
566.132
563.243
565.701
564.639
596.622
587.172
565.992
583.293
588.56
565.605
563.795
583.391
636.922
590.029
574.459
613.674
600.867
570.629
480.957
539.697
502.927
481.831
521.542
539.397
504.274
485.346
531.354
525.287
540.134
511.8
542.876
506.901
529.003
558.953
533.197
553.324
521.757
548.088
521.412
545.82
526.444
525.677
544.859
524.165
543.689
522.114
415.342
415.082
414.668
417.099
416.472
416.845
416.805
415.889
416.317
415.522
417.487
417.715
417.706
417.348
418.063
416.082
415.421
417.978
417.712
418.282
417.378
414.674
414.172
415.398
416.508
416.966
417.447
416.884
416.575
416.612
416.709
417.759
417.688
417.371
417.454
415.201
415.858
416.053
416.877
416.357
416.463
416.885
418.086
415.049
415.825
417.697
416.803
417.351
417.177
417.369
418.243
416.66
417.638
417.69
418.14
417.611
420.368
416.737
417.078
417.558
418.985
418.479
417.581
423.845
419.37
418.002
419.861
417.999
418.75
420.898
425.621
420.773
421.856
419.431
422.236
421.762
419.767
418.461
416.331
416.418
417.776
418.311
418.083
417.586
415.84
416.319
416.41
417.12
417.378
416.977
416.563
428.28
422.608
422.451
422.393
419.778
419.539
422.393
414.577
414.465
415.239
416.604
416.046
416.203
416.352
427.885
421.804
422.372
419.225
421.892
422.287
418.932
413.321
414.243
414.271
416.013
416.202
415.962
415.787
412.346
413.042
413.854
415.892
416.176
415.911
415.582
411.417
412.285
412.374
415.589
415.022
414.982
415.49
411.26
412.175
411.668
415.44
413.995
414.997
414.624
411.058
411.27
411.033
414.16
413.978
412.918
412.624
292.934
412.222
408.444
369.517
371.896
290.886
291.642
425.843
424.854
425.96
424.085
423.837
425.811
425.997
426.03
426.273
424.624
422.225
423.392
425.619
426.429
294.21
408.75
412.283
370.644
318.418
290.688
365.605
425.8
424.276
425.761
422.078
425.399
423.24
426.025
425.091
420.376
423.239
419.453
424.025
424.503
421.595
426.053
424.121
425.871
426.018
425.07
423.952
426.271
411.356
411.289
411.114
412.697
413.469
412.016
411.168
425.002
420.321
424.495
423.116
419.151
417.983
423.684
289.958
405.66
394.166
363.339
353.222
289.101
290.441
425.276
422.482
420.183
424.735
424.435
422.227
425.313
422.517
425.066
425.422
425.583
420.493
425.331
422.326
289.729
291.902
406.003
288.944
290.226
361.666
350.691
425.526
420.424
419.778
424.723
425.313
421.703
424.983
425.604
420.467
424.705
423.37
419.845
418.169
424.42
418.479
423.497
423.921
422.498
413.279
421.806
415.982
421.445
416.378
420.158
412.141
415.19
419.611
422.001
418.539
422.057
423.457
422.043
413.867
420.622
416.168
421.746
421.086
417.184
412.384
419.94
415.423
422.864
420.414
410.447
411.236
417.254
419.021
413.429
418.618
420.809
409.959
418.002
410.018
420.06
418.838
413.123
409.279
412.102
409.728
411.692
411.451
411.427
411.051
288.327
370.565
389.548
288.151
360.596
338.608
288.761
418.192
408.861
417.626
415.524
406.515
405.273
416.095
412.07
407.499
408.518
411.576
411.718
410.378
409.491
407.161
415.352
416.656
414.572
401.321
413.304
403.518
413.315
411.624
402.631
396.786
401.289
410.964
413.911
412.362
394.886
408.501
397.158
411.083
399.427
409.896
396.014
408.007
410.224
408.069
388.036
405.798
392.263
411.148
410.247
411.025
406.089
400.473
404.366
403.039
394.553
406.904
409.522
407.723
386.434
391.503
405.093
307.979
288.056
336.869
287.958
316.659
288.161
361.39
409.025
391.755
408.229
387.415
406.026
405.135
385.699
387.183
402.267
405.633
389.731
407.071
403.857
383.354
405.705
400.312
382.152
383.048
403.318
387.775
402.954
303.214
288.022
330.217
287.934
292.396
317.835
287.955
384.019
400.386
403.949
379.995
401.979
398.085
371.439
411.655
410.329
409.771
383.093
382.26
379.507
380.32
410.451
406.537
408.564
377.812
380.51
377.784
375.109
410.357
411.826
409.839
383.088
380.273
382.215
379.351
404.077
371.16
403.58
407.623
407.082
375.809
376.589
410.707
406.561
408.626
377.523
380.37
377.46
374.58
403.268
371.712
403.985
407.605
406.996
376.48
375.486
403.73
402.215
400.331
374.254
371.559
369.884
367.161
366.998
369.594
397.725
379.875
402.431
401.375
377.76
366.899
402.405
400.439
403.826
405.868
374.121
371.48
399.57
368.607
401.8
403.415
405.633
373.522
370.592
403.706
402.573
400.253
373.761
370.783
369.122
366.077
399.034
366.027
399.778
395.19
394.401
358.29
359.44
399.885
365.542
399.429
395.32
394.887
358.916
359.668
371.108
392.326
398.041
394.6
363.438
399.895
374.864
398.347
392.373
396.544
358.432
364.648
361.852
355.497
358.814
397.82
394.688
401.068
397.788
367.938
363.49
356.724
396.699
393.261
400.509
397.106
366.743
361.95
361.289
398.358
396.533
392.099
393.862
357.232
354.518
396.443
374.763
399.565
395.123
356.838
391.258
365.034
395.212
362.779
397.53
352.923
390.902
392.964
356.128
398.636
392.009
396.365
356.842
363.526
360.395
353.56
350.466
392.32
388.991
348.654
388.287
385.071
343.293
352.994
394.05
391.004
389.667
386.639
350.764
345.94
346.486
391.06
386.877
389.934
394.097
358.07
351.531
389.264
384.788
343.513
388.821
393.229
356.117
349.111
366.292
389.462
395.765
392.874
345.08
360.101
385.751
390.53
385.184
389.989
351.259
343.638
342.615
352.122
390.6
386.082
390.103
350.852
343.651
351.98
342.625
387.7
384.296
382.305
351.037
347.944
339.171
342.368
387.088
383.751
388.886
349.414
337.545
340.581
346.543
387.13
383.422
337.167
385.142
388.958
348.648
340.483
340.316
387.398
383.125
378.496
382.968
340.029
333.085
385.123
380.566
336.876
376.321
381.13
336.834
329.237
384.593
375.409
381.436
333.507
342.637
337.715
328.477
329.692
376.116
381.97
385.179
379.58
343.799
334.953
384.61
380.894
332.666
377.473
381.339
335.412
327.04
389.13
374.316
335.595
342.187
384.275
352.173
380.857
372.843
371.19
377.565
331.77
316.047
322.57
324.822
323.463
371.821
377.982
373.078
366.516
325.12
316.593
378.066
368.144
375.873
329.315
321.772
318.694
332.556
371.918
372.98
377.177
328.69
313.429
321.119
320.509
310.317
319.956
369.123
364.854
372.904
325.069
314.805
609.999
647.685
617.957
627.542
598.612
598.716
584.894
602.641
594.39
586.297
582.966
595.193
580.332
592.078
588.346
617.03
589.709
604.207
591.947
582.465
593.43
605.061
630.751
635.108
613.197
619.528
603.014
601.968
620.547
639.793
621.749
632.615
642.445
622.639
609.518
629.046
613.937
595.269
608.964
601.659
586.971
591.267
605.244
605.56
619.048
626.904
600.519
619.054
609.985
615.112
600.714
595.014
588.555
596.61
584.13
591.308
600.04
631.95
619.564
620.539
613.725
611.651
603.489
606.999
641.736
626.264
603.904
579.152
558.226
608.617
589.793
586.643
617.186
604.337
611.55
625.979
619.008
621.634
616.794
632.342
634.168
625.622
644.927
634.027
628.214
637.648
608.304
605.013
605.52
610.405
613.933
614.959
613.802
626.138
616.312
619.159
624.386
627.073
620.752
631.985
583.495
551.843
558.528
566.319
600.808
596.751
570.158
569.062
585.445
597.55
582.984
557.508
595.956
568.352
626.143
579.164
614.254
609.711
590.758
621.192
581.095
608.175
616.594
587.852
608.268
588.334
618.682
578.875
305.578
314.218
364.384
348.413
358.454
308.226
300.959
367.066
351.681
359.918
309.304
317.226
309.536
302.982
358.636
349.876
346.686
311.065
308.483
301.892
300.054
349.95
301.941
354.862
342.36
305.365
297.945
295.797
340.083
341.853
351.017
302.544
293.82
297.654
296.933
343.757
298.547
336.218
322.494
295.549
293.813
292.126
294.044
333.063
332.086
328.639
293.46
293.266
329.578
288.273
287.928
288.202
287.928
288.525
287.929
288.399
293.38
325.836
329.288
325.818
292.071
292.68
322.472
288.182
287.927
288.251
287.928
288.372
287.928
288.518
293.582
326.888
330.014
326.638
292.309
323.624
292.87
332.894
293.914
293.403
329.383
331.67
328.158
293.144
319.889
335.682
332.248
291.687
295.415
294.379
291.16
322.85
291.653
319.75
291.397
318.1
315.217
290.966
288.159
287.927
288.035
287.928
288.327
287.927
287.944
288.02
287.927
287.947
287.927
288.138
287.928
288.297
291.259
317.323
314.728
322.334
291.605
319.501
292.07
291.518
319.839
319.042
324.221
292.554
292.396
325.102
291.415
291.595
319.579
292.502
324.873
323.669
292.284
289.487
305.739
303.57
290.381
311.116
308.515
290.059
313.37
316.306
291.1
321.419
291.387
291.896
318.25
289.968
311.415
307.625
291.055
315.872
311.641
290.474
321.497
291.393
318.314
291.118
316.502
313.566
290.706
322.105
312.593
327.688
293.222
289.968
292.069
290.566
327.443
306.19
314.223
291.314
293.133
290.775
289.741
288.191
287.927
288.137
288.016
287.927
287.998
287.927
288.12
287.927
288.173
287.992
287.927
288.015
287.927
290.491
311.842
309.563
306.307
289.592
304.428
289.806
290.689
314.047
313.359
307.562
290.019
289.952
308.13
290.596
290.74
313.766
306.953
289.985
307.875
289.876
290.642
307.479
312.862
310.259
289.697
290.301
305.273
289.757
309.82
305.932
290.817
314.349
309.953
290.238
308.18
310.773
290.349
289.448
303.18
305.343
289.689
287.996
287.927
288.086
287.98
287.926
287.926
287.948
289.306
305.129
301.834
289.183
300.671
298.089
288.921
288.104
287.927
288.009
287.986
287.93
287.927
287.926
289.487
306.694
303.466
289.336
302.075
299.488
289.066
289.51
303.65
299.798
307.113
289.401
289.91
302.635
289.216
301.01
298.323
289.32
301.984
305.4
289.693
315.773
298.726
309.108
289.414
291.01
290.099
288.95
302.194
289.388
298.064
288.878
297.711
289.341
302.659
301.729
289.365
297.963
288.848
302.46
297.468
289.287
302.377
289.187
300.603
296.682
288.915
288.786
297.955
288.003
287.926
287.946
287.927
287.936
287.926
287.933
301.194
289.09
288.808
295.944
296.981
299.733
289.239
288.987
298.802
295.438
300.46
288.761
296.59
289.156
289.134
300.138
297.064
296.942
288.58
288.809
294.645
295.77
288.974
298.614
295.666
288.475
293.577
288.68
288.911
294.722
297.971
296.095
288.46
293.441
288.724
288.494
296.448
293.768
288.975
298.558
295.237
288.641
288.802
296.941
294.154
295.069
288.396
292.867
288.618
295.064
297.398
302.763
289.361
288.337
288.817
288.593
287.984
287.926
287.941
287.928
287.926
287.929
287.926
294.278
288.382
288.338
291.114
292.214
288.543
292.657
288.357
294.457
292.399
288.389
292.722
291.203
288.238
293.689
288.571
292.094
288.274
288.487
291.555
294.538
293.348
288.303
288.278
290.635
291.874
291.675
288.448
288.294
290.318
291.762
292.732
288.213
288.391
290.944
288.247
290.179
291.299
290.21
288.066
289.426
288.14
288.203
289.727
290.851
290.047
288.046
288.124
289.21
287.928
287.926
287.937
287.928
287.926
287.926
287.929
290.421
288.129
290.086
288.055
289.314
289.12
288.037
289.317
288.092
289.704
288.902
287.996
288.686
288.016
289.378
288.488
288.006
288.013
288.868
288.061
288.797
287.927
287.926
287.933
287.926
287.926
287.928
287.926
288.961
287.994
288.659
287.978
288.488
288.321
287.962
288.28
287.993
288.648
288.545
287.953
288.228
287.983
288.504
288.447
288.429
287.98
287.972
287.973
287.978
288.49
288.441
288.416
287.979
287.977
287.973
287.97
288.46
288.339
288.392
287.968
287.969
287.964
287.974
288.439
288.314
288.372
287.966
287.972
287.966
287.961
288.43
288.112
287.962
287.948
288.316
288.17
287.972
288.241
287.971
288.42
288.189
287.941
288.09
287.95
288.261
288.36
288.346
287.964
287.958
287.957
287.965
288.237
288.271
288.315
287.961
287.952
287.955
287.958
288.221
288.248
288.297
287.96
287.95
287.953
287.955
288.268
288.355
288.334
287.958
287.966
287.963
287.956
288.276
288.252
288.21
287.963
287.958
287.956
287.952
288.248
288.222
288.183
287.96
287.953
287.955
287.95
287.926
287.926
287.926
287.926
287.926
287.977
288.266
287.926
287.926
287.926
287.926
287.926
287.926
287.927
287.926
287.926
287.926
287.926
287.926
287.926
287.926
287.926
287.926
287.926
287.926
287.926
287.926
287.926
287.926
287.926
287.926
287.926
287.926
287.926
287.926
288.116
287.926
287.926
287.926
391.274
428.377
353.301
287.938
287.926
287.926
493.144
410.66
397.198
287.927
287.926
422.055
506.957
910.866
972.578
389.238
492.031
524.036
925.166
894.864
294.351
479.584
527.127
484.206
622.902
287.989
287.937
287.926
287.926
287.937
393.017
454.735
446.207
449.355
287.926
287.926
287.926
287.926
287.926
287.926
287.926
287.926
287.926
287.926
287.926
287.926
287.926
408.846
446.3
415.625
287.926
287.926
287.926
287.926
287.926
287.985
374.842
411.383
287.926
287.926
287.926
287.926
287.926
287.926
288.057
373.918
287.926
287.926
287.926
287.926
287.926
287.926
287.926
287.926
287.926
287.926
287.926
287.926
287.926
287.926
287.926
287.926
287.926
287.926
287.926
287.926
287.926
287.926
287.926
287.926
497.936
427.62
478.494
409.545
407.09
287.955
403.138
287.926
287.928
287.926
287.926
705.467
748.179
583.322
635.131
538.547
698.455
495.467
610.023
786.295
801.293
725.396
693.302
642.792
890.904
799.864
688.895
641.153
528.17
636.025
577.047
474.605
568.7
968.323
869.6
894.881
907.078
872.783
939.486
881.143
749.456
723.86
747.791
742.116
716.29
697.391
713.496
733.899
675.398
718.015
643.5
688.71
658.858
618.576
813.903
799.264
812.004
839.197
840.829
820.279
819.787
817.766
802.56
815.972
843.276
842.477
819.411
813.157
433.844
404.205
443.538
474.061
543.498
416.913
406.624
424.461
648.315
478.856
417.963
478.273
529.739
452.921
433.319
404.14
440.895
474.837
433.839
441.154
404.208
734.971
676.589
721.068
662.556
650.301
691.212
609.27
634.002
644.94
685.221
618.743
567.38
594.44
576.667
764.823
724.397
762.352
771.48
722.496
771.328
719.142
751.089
716.003
763.469
765.556
675.789
703.728
748.42
921.074
752.562
777.7
626.45
915.714
569.844
798.509
866.752
895.386
867.94
837.861
856.889
839.347
853.114
868.178
895.053
869.127
834.37
830.784
845.801
824.115
465.085
578.794
486.487
509.099
460.739
469.595
442.305
684.551
600.851
665.543
633.717
604.609
665.207
561.336
557.214
585.513
624.146
589.348
524.253
531.826
567.497
876.45
871.488
878.542
930.371
920.299
924.111
926.422
888.074
876.037
883.287
935.872
934.354
938.985
930.255
693.882
666.933
654.576
681.502
670.129
623.268
644.697
670.163
581.452
624.666
605.821
644.229
585.934
549.719
496.316
492.901
482.73
486.467
473.429
463.857
466.571
449.662
484.724
466.989
506.359
475.145
479.819
485.996
473.094
660.775
528.291
553.08
649.252
646.848
670.351
650.296
631.286
662.749
641.39
633.647
606.38
608.824
630.052
523.201
558.47
533.465
549.509
552.616
398.189
577.446
553.451
592.883
593.143
627.92
619.424
614.801
573.674
541.998
554.613
525.201
526.29
559.233
287.926
287.926
287.926
287.926
287.926
287.926
483.51
453.02
473.55
470.423
445.146
434.372
483.3
462.787
422.893
426.561
460.146
581.607
531.987
588.74
530.567
559.13
596.945
567.336
506.431
538.831
514.757
555.544
494.45
287.954
287.926
472.112
442.202
454.813
449.188
446.253
413.379
420.187
468.306
434.905
429.266
477.385
435.923
463.729
381.551
419.448
436.496
312.991
452.625
481.908
427.919
540.132
524.219
466.984
502.65
444.973
429.854
462.052
456.494
462.757
489.765
542.983
517.552
500.446
555.917
522.538
459.867
478.828
501.198
498.65
495.048
300.189
288.631
298.35
438.12
287.992
289.288
287.935
421.325
287.927
287.926
287.926
418.639
309.666
287.926
287.926
287.926
287.926
287.926
455.453
456.038
545.109
486.514
539.398
497.033
287.926
287.926
287.926
287.926
287.926
287.926
287.926
287.926
287.926
287.926
288.055
287.93
289.317
287.926
287.926
435.243
287.928
517.267
293.056
626.03
337.469
287.926
287.926
287.926
287.926
287.926
287.926
287.926
287.926
287.926
287.926
287.926
287.926
287.926
287.926
287.926
287.926
287.926
287.926
287.926
287.926
287.926
287.926
287.926
287.926
287.926
287.926
287.926
287.926
287.926
287.926
287.926
287.926
287.926
287.926
287.926
287.926
287.926
287.926
287.926
287.926
287.926
287.926
287.926
287.926
287.926
287.926
287.926
287.926
287.926
287.926
287.926
287.926
287.926
287.926
287.926
287.926
287.926
287.926
287.926
287.926
287.926
287.926
287.926
287.926
287.926
287.926
287.926
287.926
287.926
287.926
287.926
287.926
287.926
287.926
287.926
287.926
287.926
287.926
287.926
287.926
287.926
287.926
287.926
287.926
287.926
287.926
287.926
287.926
287.926
287.926
287.926
287.926
287.926
287.926
287.926
287.926
287.926
287.926
287.926
287.926
287.926
287.926
287.926
291.377
287.942
324.871
338.767
463.104
291.743
472.7
288.169
288.158
291.801
287.926
287.926
287.937
287.927
287.927
287.94
287.939
287.926
287.926
287.926
287.926
287.926
287.926
287.926
287.926
564.147
427.183
585.181
619.012
626.335
611.754
631.031
516.178
554.38
600.125
557.186
289.563
287.926
290.227
289.17
290.079
290.796
289.807
290.187
288.724
288.39
289.091
288.088
290.497
288.094
290.029
290.27
288.08
288.103
288.058
289.643
289.29
288.019
289.827
288.053
288.022
287.96
288.789
287.986
288.375
287.987
288.405
287.96
287.945
291.025
287.933
289.164
287.926
287.929
287.926
287.926
287.973
287.926
287.926
287.927
287.927
287.926
287.926
287.926
287.926
287.929
287.941
287.929
287.926
287.926
287.926
287.926
288.017
287.926
287.926
287.926
287.926
287.927
287.927
288.03
287.927
288.113
287.926
287.926
287.926
287.959
287.926
287.926
287.926