/*--------------------------------*- C++ -*----------------------------------*\
  =========                 |
  \\      /  F ield         | OpenFOAM: The Open Source CFD Toolbox
   \\    /   O peration     | Website:  https://openfoam.org
    \\  /    A nd           | Version:  9
     \\/     M anipulation  |
\*---------------------------------------------------------------------------*/
FoamFile
{
    format      ascii;
    class       volScalarField;
    location    "0.0005";
    object      alpha.c4;
}
// * * * * * * * * * * * * * * * * * * * * * * * * * * * * * * * * * * * * * //

dimensions      [0 0 0 0 0 0 0];

internalField   nonuniform List<scalar> 
5863
(
5.88686e-28
5.54885e-30
4.13397e-32
8.58527e-26
6.37101e-28
4.14023e-30
3.82779e-30
2.86275e-32
1.75053e-34
9.20273e-37
4.26966e-39
1.78563e-41
4.17752e-32
2.93209e-34
1.81331e-36
9.84227e-39
4.73617e-41
2.05449e-43
3.38609e-34
2.40168e-36
1.48986e-38
8.15133e-41
3.97579e-43
1.75578e-45
1.22282e-23
6.33694e-26
3.33856e-28
3.45501e-13
1.23968e-16
2.62151e-15
3.02857e-18
5.62955e-14
4.30356e-13
3.4272e-13
1.24e-14
1.73224e-15
1.04321e-15
1.40326e-15
9.68978e-16
1.29901e-12
9.15889e-15
3.11645e-14
7.21584e-15
2.39322e-16
1.75309e-15
4.49034e-17
3.0822e-16
4.37769e-17
4.75936e-18
8.05649e-18
3.18492e-16
5.35155e-21
2.24132e-21
5.56572e-21
6.00786e-19
6.22955e-19
2.11991e-20
5.86566e-22
9.1442e-21
1.67876e-21
1.85575e-18
6.92131e-22
7.19886e-22
1.06903e-21
2.37308e-20
7.94988e-20
5.25736e-20
3.47786e-20
1.97719e-21
2.1012e-21
2.45629e-19
2.29966e-19
9.97513e-21
9.18313e-20
6.41343e-19
8.47411e-19
6.8726e-20
1.66937e-19
3.16992e-20
1.23891e-25
2.02974e-24
1.45231e-25
9.98595e-24
9.44369e-24
1.1216e-25
8.3587e-26
1.07928e-26
2.26348e-26
1.65475e-28
9.86965e-31
5.36484e-29
2.48654e-31
1.06849e-33
4.26757e-36
1.59357e-38
5.6084e-41
2.19666e-28
1.4919e-30
8.44333e-33
4.18395e-35
1.86555e-37
7.59968e-40
2.87694e-42
1.58053e-30
1.18295e-32
7.36777e-35
3.97104e-37
1.90059e-39
8.24198e-42
3.2987e-44
9.75304e-33
7.70276e-35
5.07335e-37
2.88138e-39
1.44944e-41
6.58637e-44
2.75238e-46
1.45059e-24
6.26913e-24
4.57164e-23
9.29046e-24
1.12922e-24
4.89708e-25
9.82213e-25
1.61562e-25
1.60547e-26
7.26573e-27
3.16618e-25
6.76358e-24
4.79233e-24
5.49056e-24
8.19678e-25
5.68013e-26
6.83245e-26
5.56665e-25
4.38525e-17
4.45399e-22
6.66134e-21
4.36732e-22
4.38967e-22
4.87527e-22
1.96364e-20
3.78493e-20
4.07558e-20
2.49116e-20
1.15773e-12
2.93505e-16
1.84347e-16
1.16393e-18
9.16865e-19
3.30478e-13
7.16055e-15
3.95132e-15
5.0175e-15
2.52471e-15
7.64218e-17
5.34655e-17
1.26103e-18
1.87148e-16
2.89848e-18
1.23713e-16
3.03503e-18
6.7606e-17
1.92425e-18
1.52245e-18
2.37661e-16
5.18905e-18
1.34596e-16
3.64532e-18
1.14757e-16
2.26213e-18
1.5871e-30
7.93888e-34
1.17579e-29
9.72163e-34
2.62905e-35
2.97068e-35
9.25182e-32
6.43776e-31
4.7467e-32
1.05815e-29
3.07281e-31
7.04104e-31
1.83085e-31
3.36871e-31
2.91192e-30
9.09285e-32
9.35572e-33
6.12907e-34
1.43618e-35
3.09793e-34
1.3395e-33
3.1523e-32
9.85231e-32
1.73144e-33
3.2764e-32
2.69464e-34
1.87133e-33
6.36644e-31
1.03606e-32
2.15656e-31
9.60876e-33
2.14283e-31
1.91663e-33
2.01697e-33
1.11051e-32
2.36097e-31
6.98812e-31
2.05224e-33
1.04266e-32
2.35071e-31
5.99178e-34
1.90306e-31
2.65699e-33
6.19629e-32
3.13628e-33
6.34941e-32
5.50796e-34
4.78732e-39
1.11591e-41
2.55474e-44
5.7577e-47
5.78518e-39
1.32586e-41
2.98042e-44
6.58541e-47
2.09899e-40
5.47039e-43
1.37932e-45
3.41543e-48
9.10826e-40
3.93866e-42
1.56929e-44
5.86556e-47
2.73594e-31
4.95417e-34
2.00129e-32
1.09291e-33
1.69832e-32
3.74197e-35
5.7733e-35
3.59473e-34
6.5939e-33
1.79755e-32
7.11856e-35
2.71203e-34
6.16576e-33
4.89527e-36
1.30365e-33
1.62219e-35
3.8251e-34
2.45837e-35
4.27345e-34
3.54498e-36
9.99352e-36
9.96551e-37
1.39704e-35
3.18419e-35
2.62552e-37
2.46563e-35
1.49239e-35
4.24535e-33
9.84372e-38
3.92561e-40
1.4823e-42
5.32801e-45
2.29204e-35
1.35978e-34
9.08763e-34
6.72697e-33
2.43062e-34
4.35661e-32
1.54399e-33
9.79211e-34
2.70187e-34
4.79142e-32
1.66227e-33
1.2779e-32
4.73171e-34
3.08486e-35
1.97175e-36
1.30291e-33
5.20325e-35
8.9354e-35
3.66281e-36
6.71665e-36
1.19098e-36
3.91968e-34
1.4131e-34
1.36655e-36
4.18619e-34
5.57667e-36
3.913e-35
9.03007e-34
8.24932e-36
2.71954e-33
8.06612e-36
2.69149e-33
4.03349e-35
4.1404e-35
8.68357e-36
2.92172e-33
9.74803e-34
4.23383e-35
8.54083e-36
2.90018e-33
1.30123e-35
2.76682e-34
2.435e-36
7.98275e-34
2.63986e-36
8.29765e-34
1.16846e-35
1.26459e-36
3.28216e-37
9.34987e-35
2.89556e-35
1.65165e-36
2.67683e-37
8.43248e-35
1.16044e-37
2.1766e-36
1.81479e-38
5.3834e-36
2.38988e-38
6.37454e-36
7.91053e-38
1.88459e-32
4.71717e-33
3.17454e-37
3.79172e-32
2.77708e-33
1.01526e-35
8.57643e-37
7.24298e-33
1.47742e-33
4.07692e-35
2.79312e-30
2.0807e-31
6.43159e-27
2.00335e-27
3.38962e-36
2.0785e-38
4.73751e-37
1.09766e-36
4.15943e-38
1.70892e-36
1.70502e-36
1.07356e-33
6.88158e-34
2.30651e-31
1.40568e-32
2.4915e-33
3.8436e-34
1.10477e-31
3.30206e-34
7.72952e-35
1.57234e-32
6.46342e-33
1.66234e-34
1.19683e-34
3.13496e-32
5.56807e-31
1.40212e-30
1.2143e-30
2.44758e-31
5.60326e-29
1.34068e-29
5.23747e-28
1.92371e-29
1.02705e-30
2.08917e-28
1.06183e-29
6.99208e-28
7.1658e-29
1.52436e-28
1.48756e-30
5.41045e-31
1.63744e-29
2.98972e-30
8.39683e-29
4.94288e-29
1.69148e-34
1.47082e-12
4.01402e-11
1.90937e-14
7.05329e-14
1.80712e-10
3.47957e-09
9.29121e-13
1.48038e-12
2.7612e-11
5.90752e-13
4.97716e-13
6.13376e-14
5.49224e-14
4.44228e-14
6.80018e-07
1.1145e-07
3.9523e-11
9.23337e-12
1.52204e-07
1.21485e-05
1.62819e-05
0.000436867
6.88082e-06
0.000358452
5.22726e-06
0.000436636
4.01262e-11
3.45467e-09
4.30792e-10
7.60781e-14
3.11482e-15
2.63181e-11
4.71577e-13
2.92995e-13
1.73481e-09
2.66418e-07
2.31184e-09
3.59186e-11
1.82604e-07
2.539e-09
2.38283e-11
1.54138e-11
4.18918e-13
3.13757e-13
5.91026e-15
2.25949e-11
2.28626e-13
1.90737e-13
8.49634e-15
1.58574e-16
3.11091e-15
1.06621e-07
0.000349448
1.62389e-05
6.86659e-06
1.1639e-05
5.03326e-06
1.51742e-07
1.21759e-08
6.9066e-05
1.41127e-06
4.91042e-08
5.54924e-06
0.000202565
2.48835e-06
3.73964e-11
2.55072e-09
2.67724e-07
1.82121e-09
1.92249e-07
2.44478e-09
2.66241e-11
5.61407e-08
1.26577e-09
1.08188e-11
8.84325e-10
3.07587e-10
4.04334e-08
7.61845e-12
3.2107e-12
2.23069e-10
1.88891e-08
7.60219e-10
8.0977e-08
9.82241e-10
1.10021e-11
1.18177e-12
3.70488e-12
1.45923e-10
1.00592e-10
5.19636e-09
4.01535e-10
1.94552e-08
3.21718e-10
1.20693e-11
4.33418e-10
5.62898e-08
1.27035e-09
9.23527e-10
4.20728e-08
1.32818e-12
1.30768e-12
1.49673e-12
1.60345e-12
2.05032e-11
1.48645e-11
1.55287e-12
1.46979e-12
1.492e-12
1.51611e-12
1.49229e-12
2.62104e-12
6.65394e-12
1.52605e-12
9.53024e-13
9.19143e-13
9.31572e-13
1.67879e-12
9.34381e-13
4.08331e-12
9.73759e-13
1.0933e-19
1.27379e-21
3.73221e-22
5.15048e-24
1.25542e-24
2.16538e-26
3.55517e-15
3.07374e-17
3.61575e-19
3.48045e-15
2.37843e-14
1.27993e-14
3.36957e-15
3.8596e-15
3.6451e-15
3.32487e-15
0.00143853
1.61877e-05
1.16819e-07
0.00389334
0.000865531
0.00423298
0.00446611
7.03303e-06
0.00101472
0.000168692
1.04592e-10
3.15785e-09
0.0366474
0.0806536
0.00926865
0.117335
0.00934973
0.116385
0.00641144
0.0554654
0.00153852
0.00533372
1.80366e-06
1.72803e-05
0.000141933
0.00366482
0.0002264
0.00406055
0.000165125
0.00334577
0.000194104
0.000251323
0.00353633
0.000379738
0.00410536
0.00361583
0.000304354
0.00032944
0.000173146
0.00420128
0.00347569
0.000209335
0.00353618
0.000227965
0.00015307
7.22976e-05
0.00265747
0.000814214
2.29521e-05
0.00218616
9.96205e-05
1.63562e-05
5.52111e-08
0.000127174
2.04242e-06
9.1836e-06
1.41686e-06
6.50827e-06
8.01677e-08
1.25785e-09
2.05131e-07
2.18797e-09
3.08142e-11
1.42804e-07
1.83938e-09
2.12456e-11
0.104285
0.115522
0.130657
0.0316284
0.0290634
0.0273687
0.0255704
0.122711
0.128694
0.136117
0.0332178
0.0287796
0.0308692
0.0268722
0.064607
0.0690651
0.0876581
0.019689
0.0182662
0.0238611
0.0216734
0.0471604
0.00895048
0.0499147
0.0865892
0.0785504
0.0182738
0.0178343
0.00884704
0.0524986
0.0502426
0.0866593
0.09107
0.0191981
0.0180463
0.092865
0.0619436
0.102999
0.0114164
0.0226539
0.00986444
0.0197111
0.00933918
0.00958949
0.0414151
0.0637979
0.0531003
0.01451
0.0163291
0.00294757
0.0396186
0.0226988
0.0404185
0.0686436
0.00645004
0.0132179
0.144751
0.2417
0.00182125
0.000587383
0.125522
0.1698
0.200516
0.168135
0.277622
0.276281
0.237241
0.336001
0.253389
0.268696
0.397092
0.292981
0.414013
0.404522
0.385738
0.284467
0.290335
0.298963
0.417105
0.411235
0.408541
0.402594
0.236951
0.175813
0.24447
0.33184
0.32481
0.383832
0.377435
0.162631
0.171153
0.212549
0.288101
0.340873
0.277796
0.328599
0.236539
0.15306
0.214724
0.299858
0.323539
0.377996
0.356099
0.182539
0.246278
0.348155
0.196336
0.260504
0.393042
0.383398
0.171086
0.106727
0.140939
0.211585
0.249463
0.252964
0.299383
0.30118
0.0942422
0.146211
0.143189
0.207043
0.29782
0.355133
0.09563
0.255198
0.105093
0.125906
0.0350813
0.031521
0.116047
0.204465
0.0433229
0.0723461
0.0563748
0.0126593
0.0229016
0.0904487
0.00645431
0.000715954
0.00737779
0.00612386
0.0354799
0.00540281
0.0321757
0.00617905
0.022279
0.0251752
0.00337654
0.00285111
0.000492969
0.000388955
0.000778684
1.4116e-05
0.000714099
6.99383e-05
6.04727e-05
0.00211543
0.0019403
1.97553e-05
1.50877e-05
0.000742909
7.9092e-05
6.50205e-05
0.00201565
0.00216115
0.0001109
0.0139526
0.00206145
0.000330362
0.00433972
0.00370636
0.0240028
0.00118862
8.29636e-05
4.39828e-05
0.000205445
0.000137823
0.00259858
0.00246117
0.000437712
1.46151e-06
0.000131702
3.03281e-05
6.65127e-06
0.000429552
0.00124777
0.00345926
0.00797458
0.0155293
0.000689122
5.61621e-05
0.00174081
0.000198063
0.000105918
7.54753e-06
0.000333821
1.3581e-06
1.89886e-08
8.56144e-08
6.02207e-06
0.000612824
2.35831e-05
0.000755817
2.99759e-07
1.99569e-05
2.11607e-07
1.43707e-05
7.43142e-14
8.4302e-18
1.44831e-19
2.13313e-15
5.1458e-16
4.32625e-17
1.07566e-17
6.07667e-16
6.09062e-17
1.52455e-15
8.04208e-19
1.76423e-19
1.05179e-18
3.371e-11
0.0147456
2.69581e-15
5.79496e-16
9.17872e-21
5.0739e-12
5.63664e-19
1.73359e-17
1.35608e-20
2.05935e-22
1.07989e-17
1.27228e-17
4.15523e-17
4.47809e-21
3.44165e-21
1.58327e-21
2.82479e-14
6.1657e-16
7.29837e-16
2.46529e-14
1.05773e-13
2.55276e-15
2.45718e-15
1.09937e-13
4.03351e-17
3.87049e-17
2.9681e-15
1.46506e-13
1.22456e-14
1.41788e-17
3.16633e-17
3.39744e-19
2.5985e-19
2.09673e-17
1.9613e-17
1.50563e-19
5.81775e-19
1.52312e-20
6.77392e-19
5.93954e-21
8.83611e-19
7.49748e-21
4.60781e-19
2.25686e-22
8.32596e-23
8.96596e-23
2.23206e-07
2.56084e-10
3.31616e-10
2.12613e-10
1.4071e-08
5.35584e-13
4.95427e-12
1.96969e-12
6.14176e-13
3.95802e-14
8.04759e-15
2.63213e-16
0.171865
0.00384114
0.406204
0.00449358
0.240489
0.000167185
0.245084
0.0196705
0.00738205
0.269803
0.31517
0.0316821
0.00721904
0.000988473
0.00429798
0.000522756
0.315049
0.033007
0.00763968
0.380822
0.288589
0.0113355
0.00250971
0.000563291
0.00101024
0.000101385
0.13903
0.00334803
0.00057001
0.006131
0.0016199
2.97366e-07
1.46072e-08
1.07252e-05
3.15443e-09
1.4129e-10
5.41253e-07
1.70556e-10
1.70995e-12
3.88368e-15
1.79856e-12
8.82798e-17
0.00329601
0.00413837
0.00343583
0.00347737
0.00407706
0.00317439
0.000118746
9.10589e-06
6.05748e-06
0.0798434
0.0692435
0.0175998
0.0239664
0.0882454
0.0210402
0.0633758
0.0601732
0.0314527
0.0129538
0.0074757
0.0360516
0.0146362
0.0493832
0.103282
0.0292665
0.130525
0.0264625
0.116213
0.0249042
0.114881
0.074482
0.00726219
0.044076
0.0165009
0.0414038
0.0160304
0.0814767
0.00216718
0.000777098
0.00204333
0.00428073
0.00332993
0.00338609
0.000569272
0.00171564
0.00179791
0.112585
0.134979
0.0275445
0.0306201
0.118917
0.127471
0.0256784
0.0808492
0.0464117
0.0172707
0.00733461
0.0850334
0.0445574
0.0162856
0.0901112
0.0224911
0.0615818
0.00948237
0.10213
0.0189076
0.0541436
0.0644811
0.00540884
0.0205204
0.00589529
0.0355701
0.012038
0.0383306
0.00180487
0.000533738
0.00167271
0.00266718
0.000766671
0.00207776
0.000335558
0.000370904
0.00108316
0.00520221
0.025088
0.00273877
0.000488539
0.0218106
0.0061598
0.000369312
0.00322934
0.00712495
0.00158332
4.35553e-05
0.0147028
0.0013285
0.000173822
0.000591068
1.97676e-05
2.3462e-05
1.99141e-07
0.000752976
1.34812e-05
1.64098e-05
0.000300656
1.03089e-06
1.3935e-06
7.33422e-08
8.47657e-05
5.14814e-06
6.55689e-06
4.90438e-05
4.21511e-07
2.19985e-06
2.04265e-07
2.07132e-09
1.34033e-07
9.08862e-09
7.31184e-10
4.75391e-08
6.61116e-10
1.47671e-08
8.45747e-10
1.7652e-12
7.02217e-08
1.40249e-10
8.67118e-12
5.88778e-12
1.95885e-14
1.14987e-13
4.94214e-15
1.30715e-12
8.44922e-14
1.55246e-13
9.24454e-12
2.03009e-14
1.02489e-13
2.91631e-16
1.15374e-16
1.11686e-15
0.169594
0.00371063
0.000282398
1.27142e-09
3.54945e-17
0.220693
0.00197056
7.47261e-12
9.4679e-05
1.74505e-10
8.31208e-17
0.0740003
0.000160922
6.25433e-13
1.22472e-06
1.77575e-12
1.21269e-17
7.72896e-08
2.34262e-11
1.95357e-13
1.50721e-17
0.0379316
0.0030555
1.01145e-05
0.218494
0.0377253
0.00211763
6.70048e-07
5.79886e-09
2.18457e-07
3.25814e-13
0.00179704
3.51572e-08
1.39974e-08
6.17723e-14
3.46889e-15
3.17985e-15
6.99192e-08
8.36555e-05
6.2116e-09
2.31527e-15
1.35486e-10
8.07587e-16
6.04478e-17
0.0411167
0.00228291
8.35435e-07
0.194586
0.0346858
0.000670227
1.30175e-07
3.97066e-08
1.78015e-08
8.28786e-14
0.000807762
2.80321e-08
2.69843e-09
2.7203e-14
4.46604e-15
4.088e-12
2.70729e-15
7.85103e-09
1.40863e-05
1.07474e-09
1.09232e-15
2.32545e-11
5.94117e-16
7.0178e-17
0.00178529
0.000110138
1.03221e-08
0.000459544
1.08754e-07
1.63336e-09
1.40146e-13
2.21748e-11
2.11828e-10
4.57474e-15
2.31588e-09
9.11724e-13
8.18293e-15
3.42248e-16
5.25856e-16
4.05065e-14
1.53227e-17
8.26504e-11
1.52308e-11
1.53381e-15
1.09617e-16
1.61266e-16
3.44224e-18
1.99891e-19
1.10403e-09
1.92876e-11
3.7645e-15
3.17466e-13
5.91062e-13
1.13945e-15
1.28882e-16
5.17213e-14
7.49727e-16
1.12804e-17
2.38505e-14
7.90908e-16
1.39826e-17
2.39286e-19
7.65105e-17
2.33907e-17
1.68765e-18
1.48584e-19
2.13849e-19
3.01933e-21
4.33772e-05
0.000173799
1.76757e-05
1.80922e-11
3.54436e-10
5.34639e-12
2.61131e-17
7.20705e-06
9.28534e-05
7.39125e-06
3.30727e-12
1.87176e-10
3.5333e-12
8.5762e-17
5.5622e-17
7.67875e-08
4.52081e-08
2.78357e-09
3.19243e-14
6.7814e-14
1.5643e-15
2.49528e-18
6.16232e-18
1.84715e-18
1.28544e-14
2.3712e-15
3.00871e-16
1.29004e-17
8.46266e-18
5.32375e-18
0.00574312
0.0161598
0.00087536
0.00263829
0.0168269
0.000618846
0.0064404
0.0013524
0.000334043
0.000153764
2.81766e-06
0.000174329
7.2485e-05
0.00182668
0.00499041
0.00219708
0.0176478
0.000356822
0.0172677
0.000394126
0.00488715
0.000924222
7.8661e-07
5.72836e-05
2.3183e-05
6.99892e-05
2.7736e-05
0.000852072
1.02537e-07
2.45199e-05
2.95184e-09
5.2526e-08
6.88071e-06
7.52616e-10
4.64139e-07
1.18121e-09
4.4778e-11
3.30352e-11
1.02902e-13
1.21491e-11
9.19724e-12
4.8912e-09
2.6473e-08
1.51949e-08
1.39213e-06
2.49086e-10
1.70695e-06
2.47648e-10
2.37086e-08
3.61575e-10
5.19648e-14
5.03289e-12
3.94593e-12
4.61017e-12
3.58802e-12
3.58101e-10
3.90506e-13
1.72935e-15
1.36938e-13
2.84013e-15
1.48045e-13
1.33056e-13
2.6032e-06
1.9054e-08
7.63649e-07
9.47251e-05
6.01728e-06
6.90024e-06
6.48754e-09
2.28918e-07
2.54051e-07
2.15073e-13
8.94706e-16
6.92446e-14
1.31442e-10
2.52479e-12
2.26198e-12
6.47554e-16
4.19491e-14
3.47366e-14
5.38979e-17
0.00526636
0.0187447
0.000404318
0.00223958
0.00528313
0.0182902
0.000409621
0.000975398
6.83207e-05
2.79265e-05
9.11938e-07
0.000950629
7.38469e-05
2.96478e-05
0.0041048
0.00162314
0.00779189
9.0039e-05
0.0144519
0.000279554
0.00201235
0.000729441
5.56574e-07
1.39999e-05
4.7206e-06
5.00118e-05
1.86727e-05
0.000288288
3.3868e-08
1.74003e-06
3.22685e-10
1.95444e-08
3.02893e-08
1.94448e-06
3.53205e-10
5.15924e-10
6.65704e-12
5.19493e-12
8.94643e-14
4.65623e-10
7.28827e-12
5.63226e-12
2.09641e-08
1.17833e-08
3.00624e-07
4.64347e-11
1.23507e-06
2.08594e-10
4.93142e-09
3.10121e-10
6.26231e-14
1.29724e-12
7.07177e-13
4.52808e-12
3.24589e-12
7.05008e-11
1.6459e-13
2.0857e-13
4.57094e-15
2.15212e-13
3.69694e-15
6.34298e-14
2.97234e-15
7.81992e-14
1.35784e-15
1.16577e-13
1.51678e-15
6.22121e-14
2.83439e-07
8.39306e-09
2.99012e-07
5.5367e-05
9.74578e-07
4.30436e-06
4.87691e-09
3.87849e-08
1.73863e-07
5.56459e-14
1.16681e-15
5.88886e-14
1.07549e-10
4.18619e-13
1.99043e-12
9.75965e-16
6.93685e-15
3.26468e-14
6.85258e-17
2.23481e-17
2.57182e-17
3.64675e-05
0.00232735
9.43246e-06
5.51191e-06
0.000475035
0.00032433
3.54593e-07
1.68102e-06
1.24757e-06
3.85942e-07
3.75364e-10
3.96841e-05
4.44373e-08
1.38252e-08
8.19081e-07
1.13872e-07
1.6336e-07
1.06249e-10
1.18425e-05
7.21359e-09
1.095e-08
3.28781e-08
8.22521e-12
1.35906e-11
4.4481e-12
9.06124e-10
2.89868e-10
4.59892e-10
1.47223e-11
2.45147e-08
3.60156e-12
7.87564e-12
3.93562e-10
8.86788e-10
1.45038e-13
2.81713e-13
1.60412e-13
5.64178e-14
2.50238e-15
5.5586e-12
7.11451e-14
5.35517e-15
4.77079e-13
1.8549e-13
4.37232e-13
5.57043e-15
1.92213e-11
9.13486e-15
1.6166e-13
5.07761e-14
8.0347e-16
3.43983e-14
1.14263e-15
5.03115e-14
1.28606e-15
5.4707e-14
1.17142e-14
2.11727e-14
1.48277e-16
3.49984e-16
1.84916e-14
1.29647e-16
9.87826e-16
4.36225e-17
1.31513e-15
8.47995e-18
2.52673e-15
1.36688e-17
6.46557e-16
2.99145e-09
3.08428e-12
1.09745e-10
9.72046e-10
9.72862e-13
6.07927e-11
7.19561e-14
4.09804e-14
2.46325e-12
5.99375e-16
5.69618e-17
1.20543e-16
1.78726e-15
1.21867e-16
1.88586e-16
1.1628e-17
1.98535e-17
2.90218e-17
6.76463e-19
9.63932e-20
2.0085e-19
1.26396e-12
1.75943e-09
1.2892e-12
2.04809e-13
1.21245e-10
1.6926e-11
1.79355e-14
1.08086e-13
2.12296e-13
5.8049e-14
1.85114e-15
5.36094e-12
5.30395e-14
2.9208e-15
3.40411e-14
2.86973e-15
3.63392e-14
6.68042e-16
1.73108e-13
9.73152e-16
2.82033e-14
1.5413e-14
2.57775e-16
1.17726e-14
1.53805e-16
1.46981e-14
3.17941e-16
1.25009e-14
3.39103e-14
3.35269e-14
7.99539e-16
5.99913e-16
4.00441e-14
3.6951e-14
4.5942e-16
2.1162e-15
1.01652e-15
8.4167e-17
5.7183e-18
3.7215e-15
7.5522e-16
2.97259e-17
1.34935e-15
3.58708e-17
8.46278e-16
6.13297e-18
1.75219e-15
1.9305e-17
4.60365e-16
5.0567e-17
3.20031e-19
2.0418e-17
4.52833e-19
2.47585e-17
1.02471e-18
2.63333e-17
6.2364e-16
4.16384e-17
7.08301e-17
5.24222e-17
1.08785e-17
2.4847e-17
4.52328e-18
2.08531e-18
7.36733e-18
1.37302e-18
5.92417e-20
3.81735e-19
5.33729e-19
8.14898e-20
2.47111e-19
4.07237e-21
6.44179e-21
1.65071e-20
0.400028
0.288614
0.297354
0.416091
0.41006
0.271774
0.280121
0.398193
0.386913
0.403661
0.292697
0.414051
0.253463
0.275123
0.294662
0.355724
0.374727
0.156849
0.143527
0.210887
0.230033
0.322593
0.37926
0.3725
0.157798
0.163726
0.228759
0.236437
0.333867
0.347343
0.195599
0.259105
0.391904
0.242445
0.180075
0.213926
0.289391
0.342645
0.27892
0.331051
0.201158
0.161933
0.350199
0.229482
0.296805
0.0882748
0.133551
0.200101
0.141555
0.204574
0.251187
0.300054
0.116974
0.0975809
0.16783
0.136146
0.25496
0.104949
0.0312018
0.12606
0.0946085
0.115618
0.0350932
0.227151
0.115896
0.11297
0.080795
0.0834727
0.0307156
0.0312166
0.202436
0.103115
0.109869
0.078992
0.0737001
0.0285346
0.0294436
0.000302
1.08632e-10
0.0003276
4.91227e-05
7.28209e-12
1.23799e-06
8.30055e-12
0.201189
0.0534321
0.0405317
0.0116086
0.0220797
0.0701229
0.0885934
0.141124
0.0962292
0.0420715
0.066862
0.025418
0.0642726
0.0152678
0.144373
0.0836307
0.0922167
0.0643693
0.0572871
0.0277181
0.0270583
0.0388153
0.0104557
0.00812797
0.0105515
0.00139652
0.00150836
0.00802358
0.0407902
0.0111506
0.00865489
0.0015376
0.0112623
0.00860948
0.00159016
0.00635357
0.0355554
0.00534082
0.000715133
0.032027
0.00737753
0.000571293
0.0249058
0.0177253
0.00429025
0.00103936
0.0300089
0.00544879
0.00860117
0.00558361
0.00707155
0.00949404
0.0222021
0.000566457
0.0012529
0.00386845
0.00323992
0.00133653
0.00715865
0.00159147
0.000574602
0.000174918
4.40237e-05
0.037734
0.0134988
0.00921626
0.00288951
0.0119714
0.00217588
0.0102575
0.0129789
0.00182002
9.02684e-05
0.00411102
0.00353134
0.0233543
0.000301253
3.00836e-06
0.000146319
0.000114993
0.00204956
2.65569e-06
0.000160334
0.000125439
0.000124337
0.00901203
9.84486e-05
0.000250051
0.00110336
0.00203877
4.83189e-06
0.00513974
0.000494349
1.368e-05
6.6222e-05
6.52723e-05
0.00134882
1.02791e-06
2.66935e-06
0.00194165
0.000124398
9.74841e-05
0.000153367
0.000119961
2.12174e-06
1.96532e-06
0.00166157
3.8368e-05
2.76715e-05
0.000117539
8.95506e-05
4.92161e-07
0.00234475
0.000480337
3.70198e-05
9.60412e-06
3.6102e-07
0.000111613
5.59697e-06
1.15153e-05
0.000652523
0.000526507
0.00280807
0.000361898
0.000287997
3.98352e-05
4.78634e-17
8.89744e-14
2.86019e-17
5.10728e-19
1.29324e-13
5.39333e-17
5.02366e-14
1.98442e-17
5.94497e-19
3.56305e-19
8.3056e-15
2.93165e-18
4.78069e-20
9.1469e-15
2.19545e-17
1.26593e-15
1.93313e-16
1.10138e-15
2.06908e-16
7.60225e-15
3.81914e-19
3.09789e-18
3.17225e-18
9.90142e-15
4.70206e-15
2.04838e-16
2.34623e-17
1.14929e-14
1.53707e-15
2.46827e-16
5.1132e-15
2.40809e-17
8.26906e-16
7.71426e-17
1.16359e-15
1.08907e-16
3.5936e-15
2.67901e-18
3.0572e-19
3.64727e-18
3.80889e-19
1.32418e-18
1.7316e-18
3.30817e-16
1.60732e-16
7.18438e-18
2.07856e-18
2.91237e-16
1.84957e-16
5.68042e-18
1.48539e-19
2.51109e-20
9.4997e-20
3.18287e-13
2.25113e-13
7.63852e-18
2.66787e-06
1.91698e-13
6.70579e-09
6.33805e-13
8.07102e-09
9.68188e-13
4.96325e-09
2.09179e-14
1.27307e-12
3.04429e-13
2.37708e-16
8.56734e-15
2.0012e-16
9.61623e-14
7.06277e-08
1.70808e-14
8.95696e-13
1.07602e-13
7.9936e-13
1.27525e-12
5.65046e-05
9.65399e-09
1.10829e-06
4.30651e-08
0.000185296
4.88176e-06
2.21125e-06
6.59432e-06
8.55156e-05
1.40765e-06
7.38573e-08
5.18513e-06
1.04297e-06
1.47751e-08
1.07746e-05
4.54172e-07
8.7169e-08
1.76412e-08
2.20367e-06
4.23937e-07
3.31555e-09
1.42084e-05
4.38136e-09
5.6025e-07
5.47771e-07
2.09992e-08
5.77761e-05
2.61078e-06
3.81608e-10
3.93461e-07
1.05032e-08
4.03239e-05
1.7088e-06
4.50737e-08
1.26787e-06
1.47355e-09
3.84153e-06
2.65424e-06
8.92064e-06
4.0841e-08
1.38066e-07
9.49065e-08
3.4251e-06
8.50934e-06
3.68166e-06
1.27309e-09
0.000187626
9.40801e-08
4.40405e-08
1.83681e-08
3.61188e-10
2.00564e-08
3.09495e-08
1.79218e-06
3.4471e-08
1.99218e-06
9.08935e-06
1.2489e-09
1.41834e-07
9.31995e-11
7.51496e-07
1.02919e-08
6.19907e-09
4.12208e-10
3.10359e-08
4.06194e-10
3.48697e-08
2.44773e-06
3.10422e-06
3.07709e-08
5.28745e-10
4.47275e-08
4.44491e-08
3.06453e-06
3.94033e-08
3.48289e-06
5.88073e-10
7.33781e-09
1.2003e-05
1.65589e-07
1.11145e-08
8.32195e-07
1.15616e-07
1.65803e-09
3.0004e-09
7.68464e-10
5.39246e-08
4.70371e-07
1.0428e-07
2.48909e-05
7.0353e-06
1.57278e-08
2.57706e-10
1.4497e-08
2.70968e-08
1.76191e-06
2.42873e-08
1.43878e-06
1.20365e-08
2.74524e-09
4.76278e-11
2.12647e-08
1.25975e-06
3.05233e-07
4.98687e-09
6.77475e-07
1.44028e-07
1.37648e-09
1.43193e-07
4.6527e-05
1.36405e-05
6.74429e-07
2.18801e-11
2.81692e-09
7.77933e-08
5.74214e-10
9.22999e-09
4.56534e-08
3.47948e-10
6.67828e-09
2.78935e-08
5.80836e-07
8.43902e-11
2.29687e-06
3.58277e-10
6.65225e-09
7.15454e-08
1.95848e-08
7.87448e-07
3.92062e-10
1.23786e-10
1.54502e-08
4.87705e-09
2.62934e-07
6.41343e-09
2.36426e-07
5.5164e-11
2.03116e-09
5.85323e-11
2.02252e-09
2.91449e-07
8.57922e-09
3.05764e-07
7.48312e-11
2.52222e-09
7.7501e-11
2.59208e-09
3.93622e-08
1.08982e-09
3.02089e-10
1.77122e-07
4.21632e-11
1.43303e-09
9.12362e-12
7.75088e-24
7.66467e-24
2.56705e-24
1.49046e-26
7.83911e-29
4.48526e-25
4.23791e-24
3.07077e-25
9.95219e-26
6.10328e-26
1.76671e-25
3.36532e-27
3.98708e-27
1.74766e-25
1.52273e-17
9.73467e-20
2.34929e-21
4.50814e-22
1.05101e-23
1.84053e-24
4.37575e-26
7.23624e-27
1.82652e-28
3.49088e-19
5.17363e-16
2.32228e-18
2.5025e-20
1.00088e-20
1.43932e-22
3.98772e-23
7.62172e-25
1.58146e-25
3.81172e-27
2.87251e-18
8.48044e-22
3.5858e-22
6.87598e-22
6.86457e-22
8.37868e-22
7.15859e-20
6.56327e-20
7.06204e-20
6.51144e-20
1.30406e-24
4.39646e-23
1.24935e-24
1.19983e-25
1.02916e-25
8.27882e-24
6.78792e-24
7.75547e-24
7.25415e-24
8.28222e-23
1.12856e-21
5.71713e-23
4.38266e-23
8.04214e-23
2.29313e-21
6.49737e-21
4.04371e-21
3.801e-21
1.72316e-23
3.46284e-22
2.82285e-24
6.83873e-23
7.00531e-24
7.15941e-24
4.37814e-24
4.81551e-22
3.46785e-22
5.40763e-22
1.95267e-22
2.54312e-24
6.19888e-25
2.81006e-25
1.77108e-23
3.94938e-23
2.04248e-23
2.54114e-23
3.34764e-14
2.02649e-16
3.1609e-17
1.6761e-19
2.4493e-18
1.46567e-19
2.68453e-20
2.88496e-20
7.05539e-21
5.43775e-21
4.64352e-15
7.33312e-16
8.12908e-17
3.66041e-16
5.24859e-17
8.58275e-18
1.36063e-18
3.03904e-17
4.45175e-18
6.14073e-19
3.08212e-17
3.45142e-17
5.67285e-19
5.22407e-19
1.17453e-21
1.38322e-19
2.67247e-21
8.01821e-20
1.68795e-21
6.93197e-20
1.47963e-21
4.54091e-22
3.04755e-20
4.69293e-22
1.97477e-20
5.20511e-22
1.28682e-20
4.35764e-22
1.68523e-19
2.8548e-17
4.91534e-19
2.07303e-17
3.62545e-19
1.07131e-17
3.08711e-19
3.65114e-20
2.81872e-18
2.91307e-20
1.00124e-18
4.09873e-20
2.60379e-18
1.36208e-20
2.84471e-31
1.34863e-33
5.62449e-36
2.21688e-38
8.33489e-41
2.97467e-43
3.55037e-30
1.63831e-32
7.08561e-35
2.80928e-37
1.02334e-39
3.47352e-42
8.9221e-32
5.19187e-34
2.60407e-36
1.1513e-38
4.59091e-41
1.68956e-43
6.23806e-34
4.06928e-36
2.238e-38
1.07278e-40
4.60741e-43
1.81684e-45
3.57939e-36
2.48745e-38
1.45831e-40
7.44626e-43
3.39974e-45
1.42052e-47
7.66583e-28
1.27962e-29
7.79601e-32
4.21897e-34
4.52831e-29
1.33741e-27
4.2495e-29
7.83453e-30
2.13658e-31
4.07091e-32
1.01596e-33
1.74226e-25
3.98587e-27
7.72445e-28
1.80343e-29
3.42999e-30
7.98685e-32
2.89366e-35
1.72854e-36
1.97551e-34
2.1104e-36
6.07397e-36
6.91105e-38
5.19e-37
4.19369e-37
1.57737e-27
1.48036e-34
6.16216e-27
1.557e-28
5.4814e-29
1.47272e-30
1.77077e-25
7.24521e-27
1.71974e-36
2.75004e-39
1.17142e-35
1.7197e-38
1.28276e-37
1.40923e-36
2.58785e-38
1.82909e-34
7.89985e-37
8.62204e-36
4.80287e-38
1.23558e-35
1.78986e-38
3.5021e-36
5.40558e-39
8.38886e-37
9.19604e-36
6.7109e-38
5.60292e-35
2.47465e-37
2.71975e-36
2.01504e-38
4.31119e-37
6.49237e-40
2.63651e-38
7.19451e-41
2.81758e-38
3.11954e-37
2.33397e-39
4.24783e-37
2.53363e-39
2.40946e-38
3.84721e-40
2.09901e-38
1.40589e-39
4.56754e-34
4.32568e-35
1.16131e-37
3.29951e-38
1.23826e-38
8.80891e-35
2.28768e-35
2.5824e-36
9.54389e-37
2.47275e-26
3.07646e-25
4.01652e-28
3.48992e-32
1.72003e-30
1.5953e-26
5.57965e-27
1.06808e-28
4.13256e-29
1.44466e-22
7.24146e-25
6.18753e-28
2.30144e-28
6.3119e-29
1.2044e-28
7.56656e-30
2.04732e-30
4.10174e-28
5.72862e-39
2.53223e-38
2.0482e-37
1.85098e-36
3.04872e-38
6.1124e-37
2.04674e-39
1.29562e-40
2.47194e-41
4.55733e-39
2.84468e-39
2.84955e-41
8.21001e-39
5.99988e-41
2.32917e-38
1.15198e-35
1.77157e-37
3.65707e-36
1.71303e-37
2.45429e-36
3.38068e-38
5.55891e-40
1.70859e-38
1.59848e-40
4.91459e-38
1.53712e-40
3.87836e-38
7.40857e-40
2.54815e-38
1.83039e-37
3.69412e-36
1.2201e-35
3.37181e-38
1.78419e-37
2.7616e-36
5.90317e-40
1.63075e-40
4.9753e-38
1.78114e-38
7.36411e-40
1.58085e-40
4.15927e-38
1.14207e-38
3.66857e-36
5.23189e-38
4.28626e-37
5.84117e-38
1.21303e-36
4.37537e-39
2.53052e-40
5.51877e-39
4.8492e-41
9.3116e-39
5.35734e-41
1.62951e-38
1.24493e-40
4.68494e-40
7.51885e-39
1.36176e-37
3.86693e-37
1.28829e-39
5.73348e-39
4.73112e-38
1.30659e-41
6.56776e-42
1.86426e-39
6.12465e-40
2.83684e-41
5.31608e-42
1.03253e-39
8.94401e-41
3.08536e-38
4.16369e-40
3.32046e-39
5.44769e-40
9.51986e-39
4.12895e-41
2.16488e-42
6.21469e-41
2.60257e-42
1.20713e-40
6.66492e-43
1.46426e-40
5.64538e-42
7.94417e-38
3.31709e-39
6.02484e-39
1.22486e-37
8.88003e-40
2.86927e-37
5.87881e-38
4.30774e-38
2.12414e-40
3.66996e-39
1.42736e-38
4.51292e-40
2.18037e-38
2.14607e-38
7.53314e-36
8.79165e-36
2.33745e-33
1.24602e-34
2.64827e-35
4.18788e-36
7.05813e-34
4.45061e-36
1.12772e-36
2.58912e-34
1.00586e-34
2.39919e-36
1.76179e-36
4.47297e-34
2.2674e-26
1.84266e-27
1.5386e-27
7.24012e-27
4.89394e-29
1.0511e-28
2.90902e-27
2.72436e-28
3.10094e-29
2.44331e-29
1.23651e-28
8.14366e-31
1.56152e-30
4.70164e-29
1.04628e-34
2.89692e-34
2.87145e-32
2.22172e-32
2.99194e-31
4.40891e-33
1.46352e-32
7.53105e-31
1.10386e-26
9.60817e-25
8.99785e-25
5.23513e-25
5.23673e-25
8.66094e-27
3.59672e-27
3.03903e-28
7.9747e-27
5.64034e-29
2.36799e-26
2.10056e-26
7.94728e-27
1.61838e-28
3.95429e-30
2.04231e-31
9.79446e-33
2.79466e-30
6.70842e-32
8.51066e-30
8.20287e-31
3.20593e-31
3.69032e-33
2.72556e-32
2.57501e-30
8.97085e-33
4.50025e-32
8.43405e-31
1.09505e-24
2.88914e-24
2.53807e-24
1.09539e-24
2.1895e-22
2.16403e-22
1.43517e-22
4.98595e-34
5.82207e-33
5.84551e-40
3.27324e-44
2.95823e-46
7.32099e-42
8.62724e-38
2.41031e-35
3.83841e-39
8.64131e-42
3.78996e-44
5.56784e-42
1.55804e-39
9.55234e-38
4.12657e-41
1.41468e-43
7.25344e-46
4.97686e-44
8.67216e-42
3.58777e-40
1.62378e-43
6.7481e-46
4.16286e-48
2.84925e-46
3.95512e-44
1.27174e-42
5.69967e-46
2.69404e-48
1.97603e-50
1.34643e-48
1.58823e-46
4.25807e-45
1.80815e-48
9.45144e-51
8.20436e-53
5.59332e-51
5.80499e-49
1.35142e-47
5.27231e-51
3.00097e-53
3.09217e-55
2.11876e-53
1.97615e-51
4.09675e-50
4.85614e-34
5.66854e-33
3.62044e-39
7.18559e-44
3.08634e-46
7.65816e-42
8.36194e-38
2.2897e-35
4.62678e-39
1.02479e-41
3.93689e-44
5.10398e-42
1.45068e-39
8.87563e-38
4.89741e-41
1.64959e-43
7.52915e-46
4.44858e-44
7.88383e-42
3.26964e-40
1.89397e-43
7.72178e-46
4.24152e-48
2.52283e-46
3.53671e-44
1.14022e-42
6.52217e-46
3.01907e-48
1.9701e-50
1.18549e-48
1.40441e-46
3.76879e-45
2.02598e-48
1.03511e-50
8.01259e-53
4.92038e-51
5.10167e-49
1.18537e-47
5.77218e-51
3.20546e-53
2.96826e-55
1.87144e-53
1.73491e-51
3.57659e-50
6.3345e-35
6.01381e-34
5.25852e-45
5.85803e-47
9.49149e-43
1.01436e-38
2.39969e-36
1.81559e-40
5.94452e-43
4.44774e-45
5.37052e-43
1.55225e-40
9.09519e-39
2.21231e-42
1.0461e-44
8.33257e-47
4.68852e-45
8.24569e-43
3.31053e-41
9.86644e-45
5.70611e-47
5.17081e-49
2.69969e-47
3.69937e-45
1.15256e-43
3.93348e-47
2.67881e-49
2.74935e-51
1.30041e-49
1.49073e-47
3.84715e-46
1.4391e-49
1.13628e-51
1.30269e-53
5.56967e-52
5.55198e-50
1.23472e-48
4.96744e-52
4.49677e-54
5.66741e-56
2.19439e-54
1.94919e-52
3.83359e-51
3.02668e-36
2.9316e-35
1.16514e-40
7.08229e-43
3.75829e-44
4.19595e-40
1.0497e-37
5.74337e-39
6.18334e-41
5.26456e-43
2.41129e-44
6.01839e-42
3.63422e-40
4.94133e-41
5.59508e-43
5.13736e-45
2.13637e-46
2.99345e-44
1.23196e-42
3.01928e-43
3.56184e-45
3.35695e-47
1.21815e-48
1.28769e-46
4.07329e-45
1.54572e-45
1.89475e-47
1.84169e-49
5.95989e-51
5.05323e-49
1.31316e-47