/*--------------------------------*- C++ -*----------------------------------*\
  =========                 |
  \\      /  F ield         | OpenFOAM: The Open Source CFD Toolbox
   \\    /   O peration     | Website:  https://openfoam.org
    \\  /    A nd           | Version:  9
     \\/     M anipulation  |
\*---------------------------------------------------------------------------*/
FoamFile
{
    format      ascii;
    class       volScalarField;
    location    "0.0003";
    object      rhoE;
}
// * * * * * * * * * * * * * * * * * * * * * * * * * * * * * * * * * * * * * //

dimensions      [1 -1 -2 0 0 0 0];

internalField   nonuniform List<scalar> 
5384
(
253245
253245
253245
253245
253245
253245
253245
253245
253245
253245
253245
253245
253245
253245
253245
253245
253245
253245
253245
253245
253245
253245
253245
253245
253245
253245
253245
253245
253245
253245
253245
253245
253245
253245
253245
253245
253245
253245
253245
253245
253245
253245
253245
253245
253245
253245
253245
253245
253245
253245
253245
253245
253245
253245
253245
253245
253245
253245
253245
253245
253245
253245
253245
253245
253245
253245
253245
253245
253245
253245
253245
253245
253245
253245
253245
253245
253245
253245
253245
253245
253245
253245
253245
253245
253245
253245
253245
253245
253245
253245
253245
253245
253245
253245
253245
253245
253245
253245
253245
253245
253245
253245
253245
253245
253245
253245
253245
253245
253245
253245
253245
253245
253245
253245
253245
253245
253245
253245
253245
253245
253245
253245
253245
253245
253245
253245
253245
253245
253245
253245
253245
253245
253245
253245
253245
253245
253245
253245
253245
253245
253245
253245
253245
253245
253245
253245
253245
253245
253245
253245
253245
253245
253245
253245
253245
253245
253245
253245
253245
253245
253245
253245
253245
253245
253245
253245
253245
253245
253245
253245
253245
253245
253245
253245
253245
253245
253245
253245
253245
253245
253245
253245
253245
253245
253245
253245
253245
253245
253245
253245
253245
253245
253245
253245
253245
253253
253245
253245
253245
253245
253245
253245
253245
253245
253245
253245
253245
253245
253245
253245
253245
253245
253245
253245
253245
253245
253245
253245
253245
253245
253245
253245
253245
253245
253245
253245
253245
253245
253245
253245
253245
253245
253245
253245
253245
253245
253245
253245
253245
253245
253245
253245
253245
253245
253245
253245
253245
253245
253245
253245
253245
253245
253245
253245
253245
253245
253245
253245
253245
253245
253245
253245
253245
253245
253245
253245
253245
253245
253245
253245
253245
253245
253245
253245
253245
253245
253245
253245
253245
253245
253245
253245
253245
253245
253245
253245
253245
253245
253245
253245
253245
253245
253245
253245
253245
253245
253245
253245
253245
253245
253245
253245
253245
253245
253245
253245
253245
253245
253245
253245
253245
253245
253245
253245
253245
253245
253245
253245
253245
253245
253245
253245
253245
253245
253245
253245
253245
253245
253245
253245
253245
253245
253245
253245
253245
253245
253245
253245
253245
253245
253245
253245
253245
253245
253245
253245
253245
253245
253245
253245
253245
253245
253245
253245
253245
253245
253245
253245
253245
253245
253245
253245
253245
253245
253245
253245
253245
253245
253245
253245
253245
253245
253245
253245
253245
253245
253245
253245
253245
253245
253245
253245
253245
253245
253245
253245
253245
253245
253245
253245
253245
253245
253245
253245
253245
253245
253245
253245
253245
253245
253245
253245
253245
253245
253245
253245
253245
253245
253245
253245
253245
253245
253245
253245
253245
253245
253245
253245
253245
253245
253245
253245
253245
253245
253245
253245
253245
253245
253245
253245
253245
253245
253245
253245
253245
253245
253245
253245
253245
253245
253245
253245
253245
253245
253245
253245
253245
253245
253245
253245
253245
253245
253245
253245
253245
253245
253245
253245
253245
253245
253245
253245
253245
253245
253245
253245
253245
253245
253245
253245
253245
253245
253245
253245
253245
253245
253245
253245
253245
253245
253245
253245
253245
253245
253245
253245
253245
253245
253245
253245
253245
253245
253245
253245
253245
253245
253245
253245
253245
253245
253245
253245
253245
253245
253245
253245
253245
253245
253245
253245
253245
253245
253245
253245
253245
253245
253245
253245
253245
253245
253245
253245
253245
253245
253245
253245
253245
253245
253245
253245
253245
253245
253245
253245
253245
253245
253245
253245
253245
253245
253245
253245
253245
253245
253245
253245
253245
253245
253245
253245
253245
253245
253245
253245
253245
253245
253245
253245
253245
253245
253245
253245
253245
253245
253245
253245
253245
253245
253245
253245
253245
253245
253245
253245
253245
253245
253245
253245
253245
253245
253245
253245
253245
253245
253245
253245
253245
253245
253245
253245
253245
253245
253245
253245
253245
253245
253245
253245
253245
253245
253245
253245
253245
253245
253245
253245
253245
253245
253245
253245
253245
253245
253245
253245
253245
253245
253245
253245
253245
253245
253245
253245
253245
253245
253245
253245
253245
253245
253245
253245
253245
253245
253245
253245
253245
253245
253245
253245
253245
253245
253245
253245
253245
253245
253245
253245
253245
253245
253245
253245
253245
253245
253245
253245
253245
253245
253245
253245
253245
253245
253245
253245
253245
253245
253245
253245
253245
253245
253245
253245
253245
253245
253245
253245
253245
253245
253245
253245
253245
253245
253245
253245
253245
253245
253245
253245
253245
253245
253245
253245
253245
253245
253245
253245
253245
253245
253245
253245
253245
253245
253245
253245
253245
253245
253245
253245
253245
253245
253245
253245
253245
253245
253245
253245
253245
253245
253245
253245
253245
253245
253245
253245
253245
253245
253245
253245
253245
253245
253245
253245
253245
253245
253245
253245
253245
253245
253245
253245
253245
253245
253245
253245
253245
253245
253245
253245
253245
253245
253245
253245
253245
253245
253245
253245
253245
253245
253245
253245
253245
253245
253245
253245
253245
253245
253245
253245
253245
253245
253245
253245
253245
253245
253245
253245
253245
253245
253245
253245
253245
253245
253245
253245
253245
253245
253245
253245
253245
253245
253245
253245
253245
253245
253245
253245
253245
253245
253245
253245
253245
253245
253245
253245
253245
253245
253245
253245
253245
253245
253245
253245
253245
253245
253245
253245
253245
253245
253245
253245
253245
253245
253245
253245
253245
253245
253245
253245
253245
253245
253245
253245
253245
253245
253245
253245
253245
253245
253245
253245
253245
253245
253245
253245
253245
253245
253245
253245
253245
253245
253245
253245
253245
253245
253245
253245
253245
253245
253245
253245
253245
253245
253245
253245
253245
253245
253245
253245
253245
253245
253245
253245
253245
253245
253245
253245
253245
253245
253245
253245
253245
253245
253245
253245
253245
253245
253245
253245
253245
253245
253245
253245
253245
253245
253245
253245
253245
253245
253245
253245
253245
253245
253245
253245
253245
253245
253245
253245
253245
253245
253245
253245
253245
253245
253245
253245
253245
253245
253245
253245
253245
253245
253245
253245
253245
253245
253245
253245
253245
253245
253245
253245
253245
253245
253245
253245
253245
253245
253245
253245
253245
253245
253245
253245
253245
253245
253245
253245
253245
253245
253245
253245
253245
253245
253245
253245
253245
253245
253245
253245
253245
253245
253245
253245
253245
253245
253245
253245
253245
253245
253245
253245
253245
253245
253245
253245
253245
253245
253245
253245
253245
253245
253245
253245
253245
253245
253245
253245
253245
253245
253245
253245
253245
253245
253245
253245
253245
253245
253245
253245
253245
253245
253245
253245
253245
253245
253245
253245
253245
253245
253245
253245
253245
253245
253245
253245
253245
253245
253245
253245
253245
253245
253245
253245
253245
253245
253245
253245
253245
253245
253245
253245
253245
253245
253245
253245
253245
253245
253245
253245
253245
253245
253245
253245
253245
253245
253245
253245
253245
253245
253245
253245
253245
253245
253245
253245
253245
253245
253245
253245
253245
253245
253245
253245
253245
253245
253245
253245
253245
253245
253245
253245
253245
253245
253245
253245
253245
253245
253245
253245
253245
253245
253245
253245
253245
253245
253245
253245
253245
253245
253245
253245
253245
253245
253245
253245
253245
253245
253245
253245
253245
253245
253245
253245
253245
253245
253245
253245
253245
253245
253245
253245
253245
253245
253245
253245
253245
253245
253245
253245
253245
253245
253245
253245
253245
253245
253245
253245
253245
253245
253245
253245
253245
253245
253245
253245
253245
253245
253245
253245
253245
253245
253245
253245
253245
253245
253245
253245
253245
253245
253245
253245
253245
253245
253245
253245
253245
253245
253245
253245
253245
253245
253245
253245
253245
253245
253245
253245
253245
253245
253245
253245
253245
253245
253245
253245
253245
253245
253245
253245
253245
253245
253245
253245
253245
253245
253245
253245
253245
253245
253245
253245
253245
253245
253245
253245
253245
253245
253245
253245
253245
253245
253245
253245
253245
253245
253245
253245
253245
253245
253245
253245
253245
253245
253245
253245
253245
253245
253245
253245
253245
253245
253245
253245
253245
253245
253245
253245
253245
253245
253245
253245
253245
253245
253245
253245
253245
253245
253245
253245
253245
253245
253245
253245
253245
253245
253245
253245
253245
253245
253245
253245
253245
253245
253245
253245
253245
253245
253245
253245
253245
253245
253245
253245
253245
253245
253245
253245
253245
253245
253245
253245
253245
253245
253245
253245
253245
253245
253245
253245
253245
253245
253245
253245
253245
253245
253245
253245
253245
253245
253245
253245
253245
253245
253245
253245
253245
253245
253245
253245
253245
253245
253245
253245
253245
253245
253245
253245
253245
253245
253245
253245
253245
253245
253245
253245
253245
253245
253245
253245
253245
253245
253245
253245
253245
253245
253245
253245
253245
253245
253245
253245
253245
253245
253245
253245
253245
253245
253245
253272
253245
253245
267372
253245
253245
261901
253734
253245
253245
253245
253245
253245
253245
253245
253245
253245
253245
253245
253245
253245
253245
253245
253245
253245
253245
253245
253245
253245
253245
253245
253245
253245
253245
253245
253245
253245
253245
253245
253245
253245
253245
253245
253245
253245
253245
253245
253245
253245
253245
253245
253245
253245
253245
253245
253245
253245
253245
253245
253245
253245
253245
253245
253245
253245
253245
253245
253245
253245
253245
253245
253245
253245
253245
253245
253245
253245
253245
253245
253245
253245
253245
253245
253245
253245
253245
253245
253245
253245
253245
253245
253245
253245
253245
253245
253245
253245
253245
253245
253245
253245
253245
253245
253245
253245
253245
253245
253245
253245
253246
253245
253245
253245
253245
253245
253245
253245
253245
253245
253245
253245
253254
253245
253245
253245
253245
253247
253245
253245
253245
253245
253245
253245
253245
253245
253245
253245
253245
253245
253245
253245
253245
253245
253245
253245
253245
253245
253245
253245
253245
253245
253245
253245
253245
253245
253245
253245
253245
253245
295738
253245
253245
253245
253245
253245
253245
253245
253245
253245
253245
253245
253245
253245
253245
253245
253245
253245
253245
253245
253245
253245
253245
253245
253245
253245
253245
253245
253245
253245
253245
253245
253245
253245
253245
253245
253245
253245
253245
253245
253245
253245
253245
253245
253245
253245
253245
253245
253245
253245
253245
253245
253245
253245
253245
253245
253245
253245
253245
253245
253245
253245
253245
253245
253245
253245
253245
253245
253245
253245
253245
253245
253245
253245
253245
253245
253245
253245
253245
253245
253245
253245
253245
253245
253245
253245
253245
253245
253245
253245
253245
253245
253245
253245
253245
253245
253245
253245
253245
253245
253245
253245
253245
253245
253245
253245
253245
253245
253245
253245
253245
253245
253245
253245
253245
253245
253245
253245
253245
253245
253245
253245
253245
253245
253245
253245
253245
253245
253245
253245
253245
253245
253245
253245
253245
253245
253245
253245
253245
253245
253245
253245
253245
253245
253245
253245
253245
253245
253245
253245
253245
253245
253245
253245
253245
253245
253245
253245
253245
253245
253245
253245
253245
253245
253245
253245
253245
253245
253245
253245
253245
253245
253245
253245
253245
253245
253245
253245
253245
253245
253245
253245
253245
253245
253245
253245
253245
253245
253245
253245
253245
253245
253479
253245
253280
253245
253245
253245
253245
253245
253245
253245
253245
253245
253245
253245
253245
253245
253245
253257
253245
253246
434101
253246
268028
8.84161e+06
253950
253948
2.49266e+06
253245
253250
357003
253245
253245
253246
253254
253280
2.37519e+06
253247
1.20958e+06
253261
253245
253245
253245
253281
327046
2.07822e+06
973354
253246
473355
253245
253245
253245
253247
253245
253273
812435
253245
253247
253245
253245
253247
254880
295001
253245
253245
253245
253245
253271
533802
253432
253245
253246
253245
253245
253249
253351
254472
253245
253245
253245
253245
253252
270449
253266
253245
253245
253245
253245
1.56444e+07
1.10144e+07
9.62248e+06
3.16971e+06
3.50421e+06
2.32848e+06
389910
253245
253245
253245
253247
253247
253245
253245
9.46433e+06
2.60571e+06
6.20265e+06
920034
816565
335443
263723
253245
253245
253245
253245
253245
253245
253245
253245
253245
253245
3.57876e+07
2.6123e+07
1.7025e+07
253988
8.36361e+06
1.34667e+07
1.15522e+07
282307
5.99799e+06
7.7362e+06
344848
2.26473e+06
1.04973e+07
867888
9.93382e+06
262782
6.74111e+06
1.08036e+07
1.55152e+07
5.35795e+06
260297
366671
8.21125e+06
3.40203e+07
4.88697e+06
4.03232e+07
1.48897e+07
7.0426e+06
1.04541e+07
4.54939e+06
1.02672e+07
5.45868e+06
6.90109e+06
1.0696e+07
1.20333e+07
1.38856e+07
623438
253246
7.48051e+06
253276
452806
253245
253245
253245
253245
253245
253245
1.04533e+06
253290
253245
2.22495e+06
2.51299e+06
254930
253260
253245
253273
253245
2.55041e+06
255098
253264
5.68274e+06
1.42525e+06
253268
253245
253245
253245
253245
258594
253246
253245
253247
253245
253245
253245
253245
253245
253245
253245
253245
253245
253245
253245
253245
253245
253245
253245
253245
253245
253245
253245
253245
253248
253246
253259
253262
253253
253245
253245
253245
253245
253245
253245
253245
253245
253245
253245
253245
253245
253245
260667
257198
253264
253478
270946
253340
254915
254574
253271
253248
253246
253364
253262
253555
278941
254137
362562
253980
313221
253626
300508
258319
253252
254245
253392
253738
253317
263194
253245
253245
253245
253259
253257
253251
253245
253247
253246
287321
374659
254069
254325
306518
325909
253755
261227
254470
253418
253258
264920
254136
253358
262267
253503
254855
253256
271444
253370
254062
255303
253248
253267
253248
253491
253274
253443
253248
253245
253247
253249
253245
253247
253245
253245
253245
253246
253313
253245
253245
253280
253247
253245
253245
253246
253245
253245
253253
253245
253245
253245
253245
253245
253245
253245
253245
253245
253245
253245
253245
253245
253245
253245
253245
253245
253245
253245
253245
253245
253245
253245
253245
253245
253245
253245
253245
253245
253245
253245
253245
253245
253245
253245
253245
253245
253245
253245
253245
253245
253245
253245
253245
253245
253245
253245
253245
253245
253245
253245
253245
253245
253245
253245
253245
253245
253245
253245
253245
253245
253245
253245
253245
253245
253245
253245
253245
253245
253245
253245
253245
253245
253245
253245
253245
3.99512e+06
794480
440305
260161
253273
253246
253245
253245
253245
253245
293662
253245
253245
253245
253245
583116
253245
253245
253245
253245
253245
9.15717e+06
253275
253549
253245
253245
253245
253245
253245
253245
253245
253342
253245
253245
253245
253245
253245
253245
253245
253245
253245
253245
253245
253253
253245
253245
566549
253386
253246
253245
253245
253245
253245
253245
253245
253245
253245
253245
253245
253245
253245
253245
253245
253245
253245
253245
253701
253246
253245
349809
253341
253245
253245
253245
253245
253245
253245
253245
253245
253245
253245
253245
253245
253245
253245
253245
253245
253245
253245
253245
253245
253245
253245
253245
253245
253245
253245
253245
253245
253245
253245
253245
253245
253245
253245
253245
253245
253245
253245
253245
253245
253245
253245
253245
253245
253245
253245
253245
253245
253245
253245
253245
253245
253245
253245
253245
253245
253245
253245
253245
253245
253245
253245
253245
253245
253245
253245
253245
253245
253245
253245
253245
253245
253245
253245
253245
253245
253245
253245
253245
253245
253245
253245
253245
253245
253245
253245
253245
253245
253245
253245
253245
253245
253245
253245
253245
253245
253245
253245
253245
253245
253245
253245
253245
253245
253245
253245
253245
253245
253245
253245
253245
253245
253245
253245
253245
253245
253245
253245
253245
253245
253245
253246
253245
253245
253251
253245
253245
253245
253245
253245
253245
253245
253245
253245
253246
253245
253308
253245
253273
253245
253248
253245
253245
253245
253245
253245
253245
253245
253245
253245
253245
253245
253245
253245
253245
253245
253245
253245
253245
253245
253245
253245
253245
253245
253245
253245
253245
253245
253245
253245
253245
253245
253245
253245
253245
253245
253245
253245
253245
253245
253245
253245
253245
253245
253245
253245
253245
253245
253245
253245
253245
253245
253245
253245
253245
253245
253245
253245
253245
253245
253245
253248
253326
253245
253246
253249
253303
253245
253245
253245
253245
253245
253245
253245
253245
253246
253245
253246
253245
253260
253245
253245
253245
253245
253245
253245
253245
253245
253245
253245
253245
253245
253245
253245
253245
253245
253245
253245
253245
253245
253245
253245
253245
253245
253245
253245
253245
253245
253245
253245
253245
253245
253245
253245
253245
253245
253245
253245
253245
253245
253245
253245
253245
253245
253245
253245
253245
253245
253245
253245
253245
253245
253245
253245
253245
253245
253245
253245
253245
253245
253245
253245
253245
253245
253245
253245
253245
253245
253245
253245
253245
253245
253245
253245
253245
253245
253245
253245
253245
253245
253245
253245
253245
253245
253245
253245
253245
253245
253245
253245
253245
253245
253245
253245
253245
253245
253245
253245
253245
253245
253245
253245
253245
253245
253245
253245
253245
253245
253245
253245
253245
253245
253245
253245
253245
253245
253245
253245
253245
253245
253245
253245
253245
253245
253245
253245
253245
253245
253245
253245
253245
253245
253245
253245
253245
253245
253245
253245
253245
253245
253245
253245
253245
253245
253245
253245
253245
253245
253245
253245
253245
253245
253245
253245
253245
253245
253245
253245
253245
253245
253245
253245
253245
253245
253245
253245
253245
253245
253245
253245
253245
253245
253245
253245
253245
253245
253245
253245
253245
253245
253245
253245
253245
253245
253245
253245
253245
253245
253245
253245
253245
253245
253245
253245
253245
253245
253245
253245
253245
253245
253245
253245
253245
253245
253245
253245
253245
253245
253245
253245
253245
253245
253245
253245
253245
253245
253245
253245
253245
253245
253245
253245
253245
253245
253245
253245
253245
253245
253245
253245
253245
253245
253245
253245
253245
253245
253245
253245
253245
253245
253245
253245
253245
253245
253245
253245
253245
253245
253245
253245
253245
253245
253245
253245
253245
254281
265358
253245
253245
253245
253245
253249
253245
281497
6.75407e+06
260147
253245
253260
253245
253245
253416
253245
287650
254775
262703
253271
253685
253245
253245
253245
253245
253245
253245
253245
253245
253245
253245
253245
253245
253245
253245
253245
253245
253245
253245
253245
253245
253245
253245
1.11954e+07
3.34755e+07
3.95207e+06
6.82656e+06
6.13956e+06
5.63764e+06
1.38471e+07
253246
281159
1.75583e+07
1.87287e+07
7.35561e+06
6.2404e+06
8.90097e+06
1.07244e+07
1.04371e+07
9.63073e+06
9.61346e+06
1.14584e+07
1.20153e+07
1.24927e+07
1.15262e+07
1.16595e+07
1.19474e+07
1.76292e+06
359136
254301
3.26876e+07
6.47287e+06
9.65185e+06
3.18849e+07
1.88488e+07
5.95139e+06
1.04941e+07
2.72232e+06
3.93405e+06
4.26916e+06
4.68178e+06
5.3682e+06
6.82246e+06
8.95683e+06
9.65844e+06
1.24764e+07
1.23028e+07
6.03303e+06
9.0805e+06
9.36151e+06
1.32783e+07
7.03918e+06
8.238e+06
7.41416e+06
1.13866e+07
1.25182e+07
4.72909e+06
4.37385e+06
3.85738e+06
3.55308e+06
3.85702e+06
3.84377e+06
3.70708e+06
3.95225e+06
3.44771e+06
3.87551e+06
3.06463e+06
3.12846e+06
4.03346e+06
3.35465e+06
3.81449e+06
3.80656e+06
3.75069e+06
3.63192e+06
4.0076e+06
4.17739e+06
3.66948e+06
3.82632e+06
4.19427e+06
4.61456e+06
4.47929e+06
4.36222e+06
4.01388e+06
4.34687e+06
4.28212e+06
4.20533e+06
3.20707e+06
2.73678e+06
2.73859e+06
3.0869e+06
3.11422e+06
2.85854e+06
3.11637e+06
3.37331e+06
2.95149e+06
3.11892e+06
3.48668e+06
3.22892e+06
3.04424e+06
3.28116e+06
3.32702e+06
2.94293e+06
3.18789e+06
3.50461e+06
3.2537e+06
3.02702e+06
3.2565e+06
3.51846e+06
3.46591e+06
4.01372e+06
3.98535e+06
3.48677e+06
3.51796e+06
3.80009e+06
4.3118e+06
5.83847e+06
4.20035e+06
5.0099e+06
4.27866e+06
7.23766e+06
5.81414e+06
3.61239e+06
3.58423e+06
3.8941e+06
4.71786e+06
3.98721e+06
5.35327e+06
5.50839e+06
4.92056e+06
3.46766e+06
3.15858e+06
3.46866e+06
4.0827e+06
3.7286e+06
4.269e+06
5.51535e+06
3.59295e+06
3.89822e+06
4.72146e+06
4.56254e+06
3.61643e+06
3.98713e+06
7.55673e+06
6.73111e+06
5.80064e+06
6.2004e+06
6.83572e+06
6.30158e+06
7.33713e+06
4.73542e+06
7.04295e+06
4.84134e+06
3.65559e+06
4.93842e+06
3.80143e+06
5.03544e+06
9.39831e+06
7.13772e+06
6.47649e+06
7.45356e+06
7.58766e+06
8.90171e+06
7.66953e+06
6.76516e+06
7.15534e+06
8.50015e+06
8.51792e+06
5.84293e+06
6.69539e+06
7.0687e+06
7.44068e+06
6.16603e+06
7.68549e+06
7.79536e+06
6.02373e+06
7.43054e+06
6.21229e+06
7.90773e+06
6.31892e+06
7.53637e+06
6.18994e+06
7.7272e+06
6.30447e+06
7.70341e+06
1.03793e+07
1.36884e+07
276579
1.98908e+06
1.49642e+07
297666
2.48942e+06
8.76116e+06
3.29986e+07
7.28766e+06
3.42026e+07
9.83948e+06
1.18796e+07
3.5862e+07
7.61315e+06
6.53689e+06
5.28484e+06
3.50706e+06
4.25647e+06
6.34061e+06
8.93913e+06
6.54375e+06
6.35616e+06
4.26472e+06
7.62929e+06
5.30122e+06
3.51473e+06
5.46627e+06
1.13844e+07
255961
253249
253322
870318
293292
635437
1.01389e+07
7.96066e+06
6.83296e+06
9.50728e+06
8.89194e+06
1.15721e+07
7.33598e+06
9.28359e+06
6.94502e+06
5.53289e+06
8.80482e+06
1.1852e+07
9.27957e+06
7.04199e+06
6.83265e+06
5.02752e+06
5.19052e+06
8.6987e+06
9.27431e+06
6.89675e+06
6.83221e+06
7.34299e+06
1.15994e+07
9.52628e+06
1.01553e+07
6.83485e+06
8.22683e+06
7.96192e+06
9.01297e+06
7.9805e+06
8.19749e+06
6.00824e+06
6.92952e+06
7.22809e+06
1.03211e+07
6.54965e+06
9.70568e+06
7.38691e+06
8.23192e+06
6.09544e+06
7.19106e+06
6.54801e+06
6.49006e+06
8.01627e+06
6.65207e+06
7.37863e+06
8.94818e+06
7.19915e+06
9.6053e+06
1.0036e+07
253482
950170
253351
269533
537993
1.13153e+06
1.43186e+07
3.47159e+07
3.29813e+07
1.09173e+07
1.18268e+07
1.35703e+07
3.35893e+07
8.24425e+06
8.64431e+06
7.32374e+06
6.27397e+06
7.63423e+06
6.4481e+06
9.55493e+06
7.39852e+06
8.95587e+06
7.20609e+06
8.38069e+06
6.65355e+06
8.01634e+06
6.50722e+06
9.04123e+06
1.14396e+07
9.18149e+06
6.88787e+06
9.42823e+06
6.98814e+06
8.80155e+06
3.20195e+07
1.03256e+07
1.30434e+07
1.32739e+07
3.1324e+07
1.04713e+07
3.18387e+07
1.19423e+07
9.00859e+06
1.1391e+07
6.86826e+06
8.77906e+06
9.11351e+06
6.94374e+06
9.18093e+06
9.63704e+06
1.19993e+07
9.37048e+06
7.16027e+06
7.32783e+06
8.91309e+06
253306
253245
253255
1.97191e+06
470944
594146
3.28046e+06
8.25283e+06
6.69111e+06
7.15663e+06
7.50781e+06
6.9296e+06
7.83712e+06
7.52455e+06
1.10667e+07
9.42404e+06
8.91367e+06
1.0526e+07
7.98664e+06
9.93636e+06
8.3794e+06
1.04375e+07
9.12301e+06
1.00277e+07
9.23682e+06
8.19948e+06
8.59717e+06
8.81624e+06
8.73302e+06
9.12131e+06
1.07839e+07
7.7549e+06
9.63113e+06
9.94654e+06
7.95998e+06
1.0012e+07
9.48596e+06
1.03995e+07
8.13919e+06
8.80831e+06
9.14488e+06
8.38211e+06
1.5565e+07
3.58525e+07
1.13641e+07
3.87529e+07
1.91783e+07
1.55386e+07
4.02522e+07
1.31697e+07
1.00104e+07
7.51678e+06
1.48965e+07
8.91237e+06
1.18681e+07
1.24574e+07
8.46874e+06
8.39067e+06
6.00781e+06
1.56629e+07
1.1657e+07
8.38058e+06
1.20199e+07
3.29055e+07
3.83907e+07
1.56259e+07
1.55231e+07
3.59563e+07
1.31733e+07
3.39388e+07
1.49208e+07
1.19082e+07
8.9392e+06
1.32089e+07
1.00377e+07
1.02941e+07
7.5387e+06
1.3871e+07
3.18475e+07
1.28504e+07
3.10622e+07
1.10617e+07
3.14129e+07
1.58932e+07
1.46227e+07
1.29062e+07
9.40867e+06
1.06083e+07
1.31709e+07
1.03735e+07
7.98384e+06
7.98153e+06
1.05956e+07
1.2518e+07
9.40517e+06
1.28905e+07
1.31645e+07
1.46207e+07
1.31191e+07
3.38544e+07
1.54744e+07
1.5568e+07
3.28925e+07
1.75181e+07
3.82523e+07
9.32729e+06
1.05715e+07
8.72306e+06
1.14372e+07
1.06736e+07
1.06208e+07
1.16092e+07
8.7968e+06
1.2948e+07
1.17336e+07
1.10602e+07
1.04234e+07
1.05874e+07
1.32316e+07
1.02448e+07
1.51837e+07
1.31721e+07
9.99342e+06
8.94849e+06
7.49617e+06
1.19493e+07
9.2787e+06
6.60378e+06
1.10528e+07
9.26976e+06
7.44496e+06
7.6427e+06
7.41378e+06
1.11042e+07
1.05852e+07
1.32296e+07
1.17155e+07
1.049e+07
1.29411e+07
8.78841e+06
1.06188e+07
1.14564e+07
1.16031e+07
9.31082e+06
1.05643e+07
8.71532e+06
1.15343e+07
1.01701e+07
1.2983e+07
1.079e+07
1.18188e+07
1.35038e+07
1.2477e+07
1.32146e+07
1.05755e+07
8.96457e+06
8.78082e+06
1.01078e+07
1.0685e+07
1.00554e+07
9.2403e+06
9.26825e+06
9.78054e+06
1.09956e+07
1.06357e+07
1.00538e+07
8.52997e+06
1.19834e+07
9.23648e+06
1.05707e+07
1.14412e+07
1.01102e+07
1.06823e+07
8.81357e+06
8.9974e+06
1.35815e+07
1.71525e+07
1.3228e+07
1.49482e+07
2.75634e+07
1.43998e+07
2.73871e+07
8.44136e+06
8.26732e+06
1.24115e+07
1.09176e+07
9.91108e+06
1.14013e+07
9.0609e+06
9.46315e+06
1.32839e+07
1.30055e+07
1.036e+07
1.16231e+07
1.11744e+07
1.06385e+07
1.34079e+07
1.80893e+07
1.33035e+07
2.7174e+07
1.40491e+07
1.43641e+07
2.69231e+07
9.74041e+06
1.0174e+07
1.08476e+07
9.93454e+06
1.04937e+07
8.96769e+06
1.157e+07
9.65131e+06
1.29747e+07
1.04052e+07
1.16384e+07
1.16287e+07
1.06212e+07
1.11306e+07
1.10088e+07
4.23761e+06
1.09602e+07
1.04159e+07
7.06384e+06
9.95954e+06
6.77954e+06
9.05479e+06
1.04329e+07
1.24069e+07
9.91356e+06
1.09323e+07
8.32512e+06
8.48106e+06
1.3864e+07
1.37491e+07
1.16794e+07
1.15557e+07
8.39707e+06
1.47345e+07
1.40091e+07
1.34599e+07
1.60303e+07
1.24858e+07
8.5333e+06
1.53792e+07
1.60249e+07
1.3464e+07
3.11803e+06
2.69309e+06
2.47211e+06
513961
471690
347678
378569
2.60686e+07
3.72935e+07
1.87311e+07
1.48098e+07
1.14629e+07
2.84353e+07
1.77929e+07
1.12656e+07
4.37283e+06
1.17099e+07
3.16598e+06
1.05086e+07
8.72702e+06
1.6089e+06
8.42983e+06
1.15857e+07
1.47402e+07
1.40038e+07
1.16532e+07
1.37368e+07
1.54972e+07
7.21925e+06
2.39945e+06
2.87609e+06
8.32799e+06
8.18234e+06
1.69673e+06
2.0489e+06
8.13773e+06
6.96836e+06
7.23695e+06
2.73139e+06
8.0833e+06
1.48071e+06
1.92525e+06
253259
253245
253245
253862
254445
253245
253245
253245
254309
253248
282307
253245
253245
253250
1.55439e+07
5.47621e+06
1.30223e+07
1.42254e+07
8.59364e+06
1.37165e+07
1.33459e+07
1.17089e+07
1.60764e+06
8.72373e+06
3.1674e+06
1.05106e+07
1.12592e+07
6.00195e+06
1.42094e+07
1.30433e+07
1.55279e+07
8.60989e+06
1.33385e+07
1.19593e+07
5.5035e+06
1.58859e+07
2.11323e+07
1.52728e+07
1.3622e+07
1.17148e+07
7.43689e+06
7.10765e+06
1.21731e+07
1.16918e+07
1.29976e+07
7.44568e+06
1.06626e+07
7.71463e+06
4.01447e+06
2.84662e+07
1.15209e+07
1.77991e+07
1.87021e+07
2.61482e+07
1.70441e+07
3.7269e+07
9.78331e+06
1.59739e+07
1.26125e+07
1.50468e+07
2.42491e+07
2.62778e+07
1.59198e+07
1.52395e+07
6.98666e+06
2.10235e+07
1.35087e+07
1.1662e+07
1.59068e+07
2.60828e+07
1.30072e+07
7.66906e+06
1.06512e+07
3.9724e+06
7.41195e+06
1.34786e+07
1.22072e+07
1.36539e+07
4.49284e+06
7.82103e+06
8.44326e+06
1.10302e+07
1.21901e+07
1.34072e+07
5.25447e+06
1.33276e+06
6.04378e+06
6.07316e+06
5.28365e+06
1.05589e+07
1.12881e+07
1.5716e+06
6.50917e+06
1.51305e+06
6.5349e+06
1.07951e+07
6.76249e+06
1.16105e+07
1.0237e+07
4.73527e+06
4.80885e+06
1.10743e+06
1.02914e+06
6.15474e+06
6.03802e+06
1.04893e+06
6.09488e+06
6.20453e+06
1.02733e+07
1.08346e+07
4.86256e+06
4.78934e+06
4.40716e+06
3.61208e+06
1.02708e+07
4.78356e+06
619144
947555
5.58109e+06
2.874e+06
325953
373655
8.3348e+06
3.51826e+06
1.40524e+06
7.71504e+06
970619
5.64868e+06
4.8504e+06
9.98073e+06
1.03342e+07
3.67809e+06
4.47145e+06
1.17987e+06
2.73771e+06
1.97436e+06
300578
387978
300737
267942
1.92476e+06
4.77847e+06
5.33692e+06
325040
289796
629430
864128
2.7594e+06
5.60607e+06
5.31274e+06
320435
341447
788462
943895
2.56896e+06
3.38079e+06
380448
1.25732e+06
6.75725e+06
852472
317825
1.08895e+07
4.0373e+06
4.87342e+06
1.15721e+07
4.92342e+06
726519
522145
5.35568e+06
637429
4.81001e+06
1.95931e+06
326911
2.54231e+06
291110
5.62267e+06
796142
5.3356e+06
343465
2.78668e+06
2.58135e+06
322328
1.48803e+07
1.74775e+06
8.46895e+06
2.71903e+06
334019
2.48153e+06
9.8327e+06
2.17022e+06
806148
309542
2.17957e+06
5.37559e+06
8.90181e+06
1.19219e+07
1.31432e+06
6.83973e+06
7.45302e+06
5.11404e+06
6.07393e+06
818893
424016
257550
256070
490464
1.62744e+06
1.39709e+06
275328
284021
437810
3.48285e+06
3.82036e+06
3.50361e+06
1.57909e+07
3.84391e+06
1.18752e+07
1.00933e+07
1.42132e+06
1.17544e+07
2.65194e+06
3.29762e+06
291948
351983
5.68057e+06
705359
2.29133e+06
9.13045e+06
2.41952e+06
261475
323586
5.7219e+06
2.43827e+06
2.31402e+06
804775
716324
324951
261672
1.03166e+07
3.18164e+06
944164
530127
4.64891e+06
1.67981e+06
278234
805425
1.70586e+06
6.28816e+06
3.69765e+06
256696
593788
359831
9.5646e+06
478882
5.04526e+06
1.35334e+06
266303
5.04997e+06
479404
334959
8.50664e+06
2.73728e+06
9.84608e+06
1.4889e+07
7.75427e+06
1.76264e+06
6.80575e+06
1.70141e+06
278862
4.69362e+06
1.03624e+07
3.22647e+06
960941
3.75604e+06
407718
1.29237e+06
254949
272593
419150
269186
3.68684e+06
589219
1.697e+06
256653
276368
803895
6.28228e+06
355960
2.70082e+06
3.35271e+06
1.18844e+07
1.0182e+07
2.31423e+06
1.46132e+06
1.30736e+06
422735
3.78292e+06
1.44831e+06
254999
273165
412225
253277
253245
253245
253245
253245
253245
253245
253245
253245
253245
253247
253245
253245
253245
253245
253245
253245
253245
253245
253245
253245