/*--------------------------------*- C++ -*----------------------------------*\
  =========                 |
  \\      /  F ield         | OpenFOAM: The Open Source CFD Toolbox
   \\    /   O peration     | Website:  https://openfoam.org
    \\  /    A nd           | Version:  9
     \\/     M anipulation  |
\*---------------------------------------------------------------------------*/
FoamFile
{
    format      ascii;
    class       volVectorField;
    location    "0.0003";
    object      U;
}
// * * * * * * * * * * * * * * * * * * * * * * * * * * * * * * * * * * * * * //

dimensions      [0 1 -1 0 0 0 0];

internalField   nonuniform List<vector> 
5384
(
(-1.33877e-10 1.18277e-10 7.78581e-10)
(-1.31467e-10 -1.1146e-10 6.58126e-10)
(-5.08763e-10 -7.13946e-12 2.62233e-09)
(-1.5186e-12 -1.25771e-12 8.99444e-12)
(-4.97385e-12 -4.5227e-14 3.09756e-11)
(-9.04898e-15 -7.06976e-15 8.98864e-14)
(-2.97692e-14 1.34018e-17 3.09979e-13)
(-6.59332e-22 0 1.95672e-16)
(-3.74941e-21 3.2014e-20 1.53494e-15)
(-9.03317e-25 0 0)
(-4.14072e-24 1.93907e-22 0)
(-1.29303e-12 1.26764e-12 1.00611e-11)
(-5.82613e-15 6.87495e-15 9.53205e-14)
(0 1.25174e-21 1.80301e-16)
(0 6.02111e-24 0)
(-2.8515e-11 3.16024e-11 1.22415e-10)
(-1.86563e-13 1.95257e-13 9.68767e-13)
(-3.48021e-16 3.47774e-16 6.8316e-15)
(0 0 1.91151e-20)
(0 0 0)
(-7.65497e-16 4.16336e-15 5.73069e-14)
(3.86493e-16 9.53835e-15 6.09315e-14)
(2.35597e-18 1.16007e-16 1.72548e-15)
(0 0 6.62531e-18)
(0 0 1.97122e-17)
(5.81545e-24 0 1.10721e-22)
(0 0 0)
(0 0 0)
(1.42535e-27 0 0)
(-3.73432e-11 2.07342e-10 1.15592e-09)
(3.84442e-11 2.19985e-10 8.12883e-10)
(-2.3622e-13 1.20529e-12 9.56479e-12)
(2.29862e-13 1.62718e-12 8.2457e-12)
(5.25228e-15 1.61842e-13 3.46895e-13)
(6.05141e-13 1.42081e-11 1.86095e-11)
(-7.70554e-15 1.17476e-17 -1.54436e-16)
(0 0 0)
(-1.05348e-14 0 3.25831e-19)
(0 0 0)
(-1.06317e-14 0 3.77032e-18)
(0 0 0)
(-1.03652e-14 0 -3.46431e-18)
(0 0 0)
(1.27837e-16 -1.12584e-17 1.69393e-19)
(-3.63428e-17 -1.08903e-14 0)
(0 0 2.26909e-23)
(0 0 0)
(0 0 0)
(0 0 1.54418e-16)
(0 0 0)
(0 0 0)
(0 0 0)
(0 0 0)
(0 0 0)
(0 0 0)
(7.09366e-13 1.50558e-13 1.03386e-12)
(5.01684e-15 4.64028e-16 7.97183e-15)
(2.62097e-19 0 1.36815e-18)
(1.16432e-21 0 8.95365e-22)
(2.6139e-24 0 0)
(1.06472e-14 1.04406e-15 1.12492e-14)
(0 0 1.2961e-18)
(0 0 1.0119e-20)
(0 0 3.41291e-30)
(0 0 0)
(1.44063e-14 1.09075e-15 9.82678e-15)
(3.65303e-17 0 0)
(7.70802e-20 0 0)
(0 0 0)
(0 0 0)
(0 0 0)
(0 0 0)
(0 0 0)
(0 0 0)
(0 0 0)
(0 0 0)
(0 0 0)
(0 0 0)
(0 0 0)
(0 0 0)
(0 0 0)
(0 0 0)
(0 0 0)
(8.83018e-13 7.43836e-13 1.46413e-12)
(5.11152e-15 5.207e-15 2.25293e-14)
(0 -2.67993e-18 -1.05535e-17)
(0 0 -9.97429e-15)
(0 0 0)
(0 0 3.02659e-21)
(0 0 0)
(0 0 0)
(0 0 0)
(1.13943e-14 2.10816e-14 2.06587e-14)
(2.24739e-11 3.41407e-11 9.89958e-11)
(1.81169e-13 2.7167e-13 7.53729e-13)
(4.62725e-15 7.07773e-15 9.87445e-15)
(5.87366e-16 6.96042e-16 4.68376e-15)
(1.37648e-17 0 0)
(1.64842e-18 0 7.55302e-19)
(5.04916e-20 0 0)
(3.48093e-21 0 0)
(1.73531e-22 0 0)
(4.11222e-13 8.51999e-13 8.98639e-13)
(-2.0602e-19 8.80904e-16 6.91042e-17)
(1.29578e-16 -3.09e-15 -1.0191e-15)
(8.05465e-17 -7.71245e-19 -9.76348e-16)
(9.19311e-22 0 1.05538e-15)
(0 6.95143e-17 4.46162e-17)
(9.74127e-15 3.15529e-14 1.62977e-14)
(6.94315e-15 2.75043e-14 1.41244e-14)
(9.9766e-15 3.24271e-14 1.66291e-14)
(6.03236e-15 2.76433e-14 1.42344e-14)
(0 0 -2.9846e-15)
(4.87326e-16 -9.14848e-15 -4.26955e-15)
(3.24281e-17 0 -4.52366e-17)
(0 0 -8.91265e-18)
(0 0 2.21193e-17)
(0 0 1.86711e-15)
(0 0 0)
(0 0 -3.04105e-15)
(0 0 -4.55681e-19)
(1.3101e-12 2.1606e-13 1.08734e-12)
(7.08793e-11 3.67371e-11 -6.19107e-12)
(1.80971e-14 6.84877e-14 -8.63163e-16)
(0 0 6.65549e-15)
(3.61863e-12 4.30534e-12 -4.09359e-13)
(1.92716e-12 3.08277e-12 -1.55532e-13)
(7.09963e-14 1.33075e-13 -2.88973e-14)
(1.99535e-14 7.12856e-14 2.5849e-14)
(1.94875e-12 3.12448e-12 -1.75856e-13)
(7.14785e-14 1.32089e-13 -1.02175e-14)
(3.46773e-12 4.24236e-12 -2.44504e-13)
(0 4.64028e-16 1.29904e-14)
(0 0 -1.81313e-14)
(2.74792e-17 6.16205e-16 -1.15492e-14)
(4.00264e-20 0 2.34736e-18)
(2.92239e-24 7.71376e-15 -1.2427e-14)
(-2.1562e-20 0 -1.97956e-16)
(8.09585e-17 1.00944e-14 -6.39283e-15)
(5.0998e-26 0 -1.66224e-18)
(0 0 0)
(0 0 0)
(0 1.85722e-18 2.05004e-18)
(1.37775e-17 5.65861e-19 0)
(0 4.93164e-20 2.78098e-18)
(1.18084e-17 3.13347e-17 7.90199e-17)
(0 0 -2.2154e-17)
(0 0 0)
(1.76188e-21 0 0)
(0 0 6.71588e-17)
(2.49794e-19 0 -4.87397e-18)
(0 0 0)
(9.04607e-18 0 3.0886e-16)
(0 0 -9.88369e-18)
(1.59276e-15 1.2335e-20 -1.02462e-14)
(0 0 -5.93475e-20)
(-1.52472e-15 -2.80358e-16 -1.03315e-14)
(1.0418e-18 0 -1.76639e-19)
(0 0 0)
(0 0 0)
(0 0 1.03776e-19)
(9.24226e-21 0 0)
(0 0 0)
(-1.95325e-19 0 -1.94684e-18)
(-1.33055e-16 0 -3.70723e-16)
(0 0 0)
(0 0 0)
(0 0 -3.09135e-15)
(0 0 0)
(0 0 1.82312e-15)
(0 0 -6.65312e-19)
(2.59626e-11 7.61761e-12 5.46917e-11)
(2.1327e-13 6.07607e-14 5.19211e-13)
(4.71361e-16 0 3.26263e-15)
(0 0 7.8114e-19)
(0 0 0)
(-3.65294e-10 7.20431e-10 8.95114e-09)
(3.22246e-10 1.0698e-09 1.06489e-08)
(2.57952e-10 1.36745e-10 1.36482e-09)
(-2.74343e-12 5.41151e-12 5.3725e-11)
(1.63494e-12 8.67173e-12 8.02726e-11)
(2.83828e-12 1.45142e-12 1.72119e-11)
(-2.04718e-14 3.61803e-14 4.05827e-13)
(9.08383e-15 6.9255e-14 7.37035e-13)
(1.92096e-14 8.17205e-15 1.54397e-13)
(0 0 2.0345e-15)
(0 0 5.17011e-15)
(6.65655e-25 0 4.13554e-16)
(0 0 0)
(0 0 0)
(1.55203e-27 0 0)
(3.65369e-09 8.97121e-10 5.89435e-09)
(9.0757e-11 1.86312e-11 1.14882e-10)
(3.72366e-06 2.25959e-06 -4.10542e-07)
(1.96499e-09 1.54057e-09 -2.82965e-10)
(0.00764215 0.000958726 0.002339)
(1.58358e-08 2.4526e-09 1.36696e-08)
(2.14461e-13 2.36548e-13 1.60779e-13)
(0 0 1.9513e-15)
(1.29576e-08 8.61159e-09 -5.0072e-10)
(0 5.27726e-17 3.97412e-15)
(7.41671e-14 1.70947e-13 3.07912e-14)
(1.14121e-20 -8.25247e-16 2.53838e-15)
(0 0 -5.93803e-15)
(5.56833e-15 3.99064e-14 -2.77493e-14)
(9.28056e-15 5.0579e-14 -5.30939e-15)
(7.32649e-14 3.53701e-13 -3.73752e-14)
(0 0 -8.02481e-15)
(0 0 -4.50438e-15)
(0 0 -4.95614e-15)
(6.40754e-11 1.11116e-10 -1.23131e-11)
(6.8011e-13 2.17201e-12 -9.2433e-14)
(9.02483e-13 2.53666e-12 -3.47733e-13)
(5.90321e-11 1.07072e-10 -7.79647e-12)
(3.57308e-10 6.07871e-10 -2.97424e-11)
(4.49705e-12 1.3607e-11 -2.08749e-13)
(4.4706e-12 1.32366e-11 -5.30959e-13)
(3.59945e-10 6.14269e-10 -1.49587e-11)
(5.70239e-14 2.74916e-13 -3.77489e-15)
(5.65598e-14 2.64539e-13 1.82666e-14)
(6.17405e-12 1.85706e-11 -8.45198e-14)
(5.27591e-10 8.8338e-10 -2.12535e-12)
(6.32387e-12 1.05413e-11 2.40119e-12)
(5.10431e-15 1.33567e-14 3.91489e-15)
(8.3525e-15 1.74321e-14 8.84929e-15)
(0 5.10037e-17 -3.04603e-16)
(0 3.969e-18 -1.2585e-14)
(6.03236e-15 1.70558e-14 7.75024e-15)
(5.56833e-15 1.25483e-14 4.54106e-15)
(0 4.06615e-19 1.01015e-14)
(2.32014e-15 8.27064e-15 6.93991e-16)
(0 1.32909e-17 5.06797e-16)
(2.30566e-15 6.7555e-15 6.78302e-16)
(2.02714e-20 -8.65738e-16 7.717e-15)
(3.2482e-15 1.00599e-14 1.14479e-15)
(0 0 -1.73834e-14)
(2.30599e-15 7.55226e-15 5.25834e-16)
(0 0 5.91179e-15)
(8.05558e-23 0 -1.50019e-14)
(0 0 1.5e-14)
(8.475e-08 7.226e-08 -9.5385e-09)
(2.44375e-05 1.39056e-05 -1.06934e-06)
(5.96449e-07 3.95636e-07 -2.92074e-08)
(2.19259e-05 1.16818e-05 4.58785e-07)
(9.77334e-07 6.10145e-07 2.15016e-08)
(5.57229e-06 2.96315e-06 7.5625e-07)
(1.21871e-07 9.09787e-08 1.91538e-08)
(5.78168e-07 2.36127e-07 1.39196e-07)
(9.44437e-09 6.25894e-09 2.27586e-09)
(1.11781e-08 5.88689e-09 5.65937e-09)
(2.16623e-10 1.83757e-10 1.12958e-10)
(4.08676e-10 4.03133e-10 3.24136e-10)
(6.7313e-12 9.38508e-12 5.01052e-12)
(3.16754e-10 3.72135e-10 2.40946e-10)
(5.05541e-12 8.31391e-12 2.56493e-12)
(0 0 0)
(-1.36671e-26 0 0)
(3.32052e-26 0 0)
(1.64672e-25 0 0)
(3.5258e-27 0 0)
(3.36423e-29 0 0)
(2.67768e-31 0 0)
(4.20759e-34 0 0)
(2.16707e-37 0 0)
(2.5614e-41 0 0)
(-4.22771e-41 0 0)
(0 0 0)
(0 0 0)
(-2.38262e-24 0 0)
(1.10024e-23 0 0)
(6.48428e-23 0 0)
(1.24579e-24 0 0)
(1.50109e-26 0 0)
(1.30795e-28 0 0)
(2.18043e-31 0 0)
(1.27083e-34 0 0)
(6.46006e-39 0 0)
(-1.11713e-38 0 0)
(0 0 0)
(0 0 0)
(-2.71161e-22 0 0)
(3.46568e-21 0 0)
(2.2983e-20 0 0)
(4.19293e-22 0 0)
(6.51541e-24 0 0)
(6.37919e-26 0 0)
(1.13384e-28 0 0)
(7.50399e-32 0 0)
(1.60556e-36 0 0)
(-2.77795e-36 0 0)
(0 0 0)
(-1.52564e-20 0 0)
(1.01478e-18 0 0)
(2.88046e-18 0 8.31212e-15)
(1.39618e-19 0 0)
(2.71509e-21 0 0)
(1.24535e-23 0 7.74678e-15)
(2.4594e-26 0 -8.39469e-15)
(4.53637e-29 0 0)
(4.23065e-34 0 0)
(-6.50853e-34 0 0)
(0 0 0)
(-1.23097e-16 -1.71445e-14 0)
(2.71467e-16 -3.32101e-14 0)
(3.24378e-16 -2.43182e-15 0)
(1.95505e-17 0 -8.39469e-15)
(4.09026e-19 0 -8.31212e-15)
(2.35201e-21 0 0)
(1.25381e-23 0 -1.06146e-14)
(1.1019e-26 0 -8.44156e-15)
(1.31813e-31 0 0)
(-1.42933e-31 0 0)
(0 0 0)
(-1.12485e-13 -2.38695e-12 -3.86941e-14)
(6.75013e-14 -3.61306e-12 6.38097e-15)
(7.84082e-14 -3.46614e-13 8.70052e-16)
(2.80798e-15 -9.13535e-15 7.90145e-15)
(4.88241e-17 0 8.27174e-15)
(4.06978e-19 0 9.13994e-15)
(2.42415e-21 0 0)
(2.47549e-24 0 7.39691e-15)
(5.3318e-29 0 0)
(-2.86186e-29 0 0)
(0 0 0)
(-1.28509e-11 -3.17268e-10 -5.79162e-12)
(9.84086e-12 -3.79582e-10 -1.30835e-12)
(7.78331e-12 -2.93406e-11 -6.43774e-14)
(3.88324e-13 -1.06268e-12 -1.21163e-14)
(9.8232e-15 -1.81102e-14 -1.00733e-14)
(6.08172e-17 0 0)
(4.21731e-19 0 -9.23369e-15)
(4.73374e-22 0 -9.53835e-15)
(2.84824e-26 0 0)
(-4.95288e-27 0 0)
(0 0 0)
(-1.69419e-09 -3.83023e-08 -1.05697e-09)
(1.66904e-09 -4.19133e-08 -6.46369e-10)
(4.95228e-10 -1.79415e-09 -1.5347e-11)
(3.68422e-11 -8.68356e-11 -4.97961e-13)
(1.15292e-12 -1.6443e-12 -1.57963e-14)
(1.85771e-14 -1.94879e-14 0)
(6.30943e-17 0 0)
(1.88395e-19 0 -1.09047e-14)
(1.81731e-23 0 0)
(-7.07766e-25 0 0)
(0 0 0)
(3.38919e-09 -6.09172e-09 -8.9382e-11)
(9.75222e-11 -1.08017e-10 -9.30754e-13)
(1.6464e-12 -1.366e-12 -6.12259e-15)
(1.93135e-14 -1.32892e-14 0)
(7.77804e-17 0 -1.11367e-14)
(1.17056e-20 0 0)
(-8.21138e-23 0 0)
(0 0 0)
(0 0 0)
(-1.15985e-26 0 0)
(4.3398e-26 0 0)
(9.42274e-27 0 0)
(2.07991e-28 0 0)
(1.49122e-30 0 0)
(4.72417e-33 0 0)
(7.89787e-36 0 0)
(3.98641e-39 0 0)
(1.41386e-41 0 0)
(-1.39862e-41 0 0)
(0 0 0)
(0 0 0)
(-1.97208e-24 0 0)
(1.59578e-23 0 0)
(3.39189e-24 0 0)
(8.42998e-26 0 0)
(6.65461e-28 0 0)
(2.27963e-30 0 0)
(4.05922e-33 0 0)
(2.22582e-36 0 0)
(3.61882e-39 0 0)
(-3.55865e-39 0 0)
(0 0 0)
(0 0 0)
(-2.19812e-22 0 0)
(5.44908e-21 0 0)
(1.15504e-21 0 0)
(3.2603e-23 0 0)
(2.89658e-25 0 0)
(1.1018e-27 0 0)
(2.07002e-30 0 0)
(1.2343e-33 0 0)
(9.0518e-37 0 0)
(-8.49979e-37 0 0)
(0 0 0)
(-1.23099e-20 0 0)
(1.68454e-18 0 0)
(3.68594e-19 0 0)
(1.18847e-20 0 0)
(1.24744e-22 0 0)
(5.37359e-25 0 0)
(1.06166e-27 0 0)
(7.03138e-31 0 0)
(2.37756e-34 0 0)
(-1.90914e-34 0 0)
(0 0 0)
(-5.45682e-18 -3.18401e-14 0)
(4.65267e-16 -1.72395e-14 2.90017e-16)
(1.0847e-16 -1.15853e-15 0)
(4.15934e-18 0 0)
(5.32856e-20 0 0)
(2.58134e-22 0 0)
(5.42844e-25 0 0)
(4.17288e-28 0 0)
(7.41742e-32 0 0)
(-4.00566e-32 0 0)
(0 0 0)
(-6.98179e-14 -3.93452e-12 4.46592e-14)
(1.15578e-13 -2.1671e-12 8.95521e-14)
(2.92571e-14 -2.30796e-13 6.29016e-15)
(1.49087e-15 -6.81845e-15 0)
(2.15636e-17 0 0)
(1.15412e-19 0 0)
(2.6641e-22 0 0)
(2.49427e-25 0 0)
(3.01523e-29 0 0)
(-7.64167e-30 0 0)
(0 0 0)
(-1.05079e-11 -4.57997e-10 7.69626e-12)
(1.41916e-11 -2.81503e-10 1.02432e-11)
(3.98969e-12 -2.22364e-11 8.44531e-13)
(2.84396e-13 -8.52157e-13 2.47546e-14)
(7.38589e-15 -1.40482e-14 0)
(4.47741e-17 0 0)
(1.18831e-19 0 0)
(1.4011e-22 0 0)
(1.59593e-26 0 0)
(-1.27862e-27 0 0)
(0 0 0)
(-1.93454e-09 -5.43816e-08 1.55887e-09)
(2.00804e-09 -3.9077e-08 1.39714e-09)
(4.04026e-10 -1.56176e-09 7.10548e-11)
(3.05071e-11 -7.2644e-11 2.82927e-12)
(9.28462e-13 -1.29765e-12 5.01924e-14)
(1.4276e-14 -1.47282e-14 0)
(4.56234e-17 0 0)
(6.8847e-20 0 0)
(1.05736e-23 0 0)
(-1.83069e-25 0 0)
(0 0 0)
(3.02224e-09 -5.42682e-09 2.54345e-10)
(7.94354e-11 -8.5181e-11 4.39935e-12)
(1.28782e-12 -1.03447e-12 5.35153e-14)
(1.45454e-14 -9.38368e-15 1.25367e-16)
(2.77998e-17 0 7.4965e-20)
(7.65113e-21 0 4.6939e-24)
(-2.22846e-23 0 0)
(0 0 0)
(0 0 0)
(-3.33703e-28 0 0)
(7.87454e-28 0 0)
(5.03943e-28 0 0)
(7.28724e-30 0 0)
(3.72894e-32 0 0)
(8.82296e-35 0 0)
(8.86883e-38 0 0)
(1.48749e-41 0 0)
(1.64633e-46 0 0)
(-4.50574e-42 0 0)
(0 0 0)
(0 0 0)
(-5.76805e-26 0 0)
(2.82962e-25 0 0)
(1.94482e-25 0 0)
(3.3713e-27 0 0)
(1.96902e-29 0 0)
(5.11391e-32 0 0)
(5.72735e-35 0 0)
(1.13337e-38 0 0)
(1.66685e-43 0 0)
(-1.2544e-39 0 0)
(0 0 0)
(0 0 0)
(-6.50757e-24 0 0)
(1.0476e-22 0 0)
(7.00802e-23 0 0)
(1.48146e-24 0 0)
(9.86782e-27 0 0)
(2.81592e-29 0 0)
(3.54478e-32 0 0)
(8.46212e-36 0 0)
(1.52196e-40 0 0)
(-3.23562e-37 0 0)
(0 0 0)
(-3.65022e-22 0 0)
(4.01462e-20 0 0)
(2.37577e-20 0 0)
(6.09767e-22 0 0)
(4.59569e-24 0 0)
(1.44434e-26 0 0)
(2.05717e-29 0 0)
(6.04761e-33 0 0)
(1.27501e-37 0 0)
(-7.68943e-35 0 0)
(0 0 0)
(-1.5143e-19 -1.38479e-15 5.80035e-17)
(1.55937e-17 -1.04298e-15 0)
(7.98871e-18 0 0)
(2.30404e-19 0 0)
(1.9461e-21 0 0)
(6.77095e-24 0 0)
(1.09586e-26 0 0)
(4.03615e-30 0 0)
(1.00279e-34 0 0)
(-1.67337e-32 0 0)
(0 0 0)
(-4.5857e-15 -2.83848e-13 6.32123e-14)
(5.82548e-15 -2.31299e-13 2.60887e-14)
(2.85905e-15 -2.03126e-14 1.79811e-15)
(7.83078e-17 0 0)
(7.36255e-19 0 0)
(2.85518e-21 0 0)
(5.26151e-24 0 0)
(2.45786e-27 0 0)
(7.52972e-32 0 0)
(-3.31662e-30 0 0)
(0 0 0)
(-7.89707e-13 -2.78974e-11 6.84252e-12)
(8.45778e-13 -2.41481e-11 3.84599e-12)
(5.21131e-13 -2.30466e-12 3.98833e-13)
(2.36916e-14 -7.07473e-14 1.10851e-14)
(2.47501e-16 0 0)
(1.07187e-18 0 0)
(2.24544e-21 0 0)
(1.33936e-24 0 0)
(5.38503e-29 0 0)
(-5.98137e-28 0 0)
(0 0 0)
(-8.66817e-11 -1.95235e-09 5.0616e-10)
(8.88251e-11 -1.81807e-09 4.14314e-10)
(5.75026e-11 -2.70715e-10 4.79611e-11)
(3.13574e-12 -8.38694e-12 1.62498e-12)
(7.55717e-14 -1.10409e-13 2.30661e-14)
(3.58946e-16 0 0)
(8.45354e-19 0 0)
(6.43317e-22 0 0)
(3.69352e-26 0 0)
(-9.84359e-26 0 0)
(0 0 0)
(5.08993e-10 -1.04307e-09 2.17395e-10)
(9.29666e-12 -1.04828e-11 2.51898e-12)
(1.10349e-13 -9.229e-14 2.44309e-14)
(2.81817e-16 0 4.47422e-17)
(2.69393e-19 0 2.51946e-20)
(2.50697e-23 0 6.04296e-25)
(-1.43183e-23 0 0)
(0 0 0)
(0 0 0)
(-1.03354e-30 0 0)
(3.76361e-30 0 0)
(2.50506e-30 0 0)
(2.42882e-32 0 0)
(9.89745e-35 0 0)
(1.56548e-37 0 0)
(4.54052e-41 0 0)
(4.16901e-42 0 0)
(-8.61899e-50 0 0)
(-4.11209e-42 0 0)
(0 0 0)
(0 0 0)
(-1.8135e-28 0 0)
(1.50257e-27 0 0)
(1.06539e-27 0 0)
(1.26734e-29 0 0)
(5.80266e-32 0 0)
(1.05467e-34 0 0)
(3.73245e-38 0 0)
(1.16687e-39 0 0)
(-1.0186e-46 0 0)
(-1.14506e-39 0 0)
(0 0 0)
(0 0 0)
(-2.07623e-26 0 0)
(6.30457e-25 0 0)
(4.26823e-25 0 0)
(6.30614e-27 0 0)
(3.21041e-29 0 0)
(6.62614e-32 0 0)
(2.85272e-35 0 0)
(3.02636e-37 0 0)
(-1.06314e-43 0 0)
(-2.95422e-37 0 0)
(0 0 0)
(-1.18603e-24 0 0)
(2.8005e-22 0 0)
(1.6372e-22 0 0)
(2.9387e-24 0 0)
(1.6429e-26 0 0)
(3.81189e-29 0 0)
(1.99847e-32 0 0)
(7.25343e-35 0 0)
(-9.78541e-41 0 0)
(-7.02084e-35 0 0)
(0 0 0)
(-5.9622e-22 0 0)
(1.25133e-19 0 0)
(6.17445e-20 0 0)
(1.25422e-21 0 0)
(7.63698e-24 0 0)
(1.97807e-26 0 0)
(1.26712e-29 0 0)
(1.62042e-32 0 0)
(-7.92453e-38 0 0)
(-1.52648e-32 0 0)
(0 0 0)
(-2.67048e-19 -3.91521e-15 1.44336e-15)
(5.08151e-17 -3.93832e-15 1.16007e-15)
(2.3313e-17 0 0)
(4.80147e-19 0 0)
(3.18125e-21 0 0)
(9.15281e-24 0 0)
(7.19317e-27 0 0)
(3.58518e-30 0 0)
(-5.62386e-35 0 0)
(-3.01149e-30 0 0)
(0 0 0)
(-1.42274e-14 -6.02272e-13 2.46441e-13)
(1.66872e-14 -5.97005e-13 2.19792e-13)
(8.59836e-15 -4.40299e-14 1.79617e-14)
(1.62784e-16 -1.16007e-16 5.80035e-17)
(1.18059e-18 0 0)
(3.7491e-21 0 0)
(3.62311e-24 0 0)
(9.61066e-28 0 0)
(-3.47648e-32 0 0)
(-5.33703e-28 0 0)
(0 0 0)
(-2.02134e-12 -5.56134e-11 2.65944e-11)
(1.99422e-12 -5.59096e-11 2.56245e-11)
(1.31599e-12 -4.44732e-12 2.16078e-12)
(4.94579e-14 -1.15742e-13 5.89187e-14)
(3.93857e-16 -3.48021e-16 2.32014e-16)
(1.35924e-18 0 0)
(1.60754e-21 0 0)
(3.86163e-25 0 0)
(-1.85593e-29 0 0)
(-8.3886e-26 0 0)
(0 0 0)
(5.839e-12 -1.14368e-11 7.36944e-12)
(1.22464e-13 -1.40124e-13 9.0257e-14)
(6.74439e-16 -1.16007e-16 4.19965e-16)
(6.25593e-19 0 2.75365e-19)
(1.94943e-22 0 3.72471e-23)
(-8.4549e-27 0 0)
(-1.14916e-23 0 0)
(0 0 0)
(0 0 0)
(0 0 0)
(6.66031e-33 0 0)
(4.6602e-33 0 0)
(3.68623e-35 0 0)
(1.05846e-37 0 0)
(3.87861e-41 0 0)
(3.84643e-46 0 0)
(0 0 0)
(0 0 0)
(0 0 0)
(0 0 0)
(0 0 0)
(0 0 0)
(3.07959e-30 0 0)
(2.20983e-30 0 0)
(2.20347e-32 0 0)
(6.88472e-35 0 0)
(3.26613e-38 0 0)
(5.2616e-43 0 0)
(0 0 0)
(0 0 0)
(0 0 0)
(0 0 0)
(0 0 0)
(0 0 0)
(1.42575e-27 0 0)
(1.00849e-27 0 0)
(1.25216e-29 0 0)
(4.30419e-32 0 0)
(2.56639e-35 0 0)
(6.85988e-40 0 0)
(0 0 0)
(0 0 0)
(0 0 0)
(0 0 0)
(0 0 0)
(6.6873e-25 0 0)
(4.53316e-25 0 0)
(6.62237e-27 0 0)
(2.51126e-29 0 0)
(1.84898e-32 0 0)
(8.29054e-37 0 0)
(0 0 0)
(0 0 0)
(0 0 0)
(0 0 0)
(0 0 0)
(3.12365e-22 0 0)
(2.04274e-22 0 0)
(3.18855e-24 0 0)
(1.3348e-26 0 0)
(1.20278e-29 0 0)
(9.0228e-34 0 0)
(0 0 0)
(0 0 0)
(0 0 0)
(0 0 0)
(0 0 0)
(1.38977e-19 0 0)
(9.09661e-20 0 0)
(1.37043e-21 0 0)
(6.34586e-24 0 0)
(6.97487e-27 0 0)
(8.62614e-31 0 0)
(0 0 0)
(0 0 0)
(0 0 0)
(0 0 0)
(0 -5.0683e-15 4.09335e-15)
(5.58909e-17 -5.6739e-15 3.59622e-15)
(3.78426e-17 0 0)
(5.18563e-19 0 0)
(2.66449e-21 0 0)
(3.56882e-24 0 0)
(7.09665e-28 0 0)
(0 0 0)
(0 0 0)
(0 0 0)
(0 0 0)
(-2.0095e-14 -6.34027e-13 5.04325e-13)
(1.93332e-14 -6.58129e-13 5.09677e-13)
(1.3656e-14 -4.67637e-14 3.64224e-14)
(1.72591e-16 0 1.7401e-16)
(9.83442e-19 0 0)
(1.59938e-21 0 0)
(4.93195e-25 0 0)
(0 0 0)
(0 0 0)
(0 0 0)
(0 0 0)
(5.18669e-14 -9.63502e-14 9.29285e-14)
(3.22713e-16 0 6.46207e-16)
(6.26362e-19 0 1.65563e-18)
(2.84345e-22 0 1.74853e-22)
(0 0 0)
(0 0 0)
(0 0 0)
(0 0 0)
(0 0 0)
(0 0 0)
(5.86341e-36 0 0)
(3.25141e-36 0 0)
(1.50044e-38 0 0)
(2.67868e-41 0 0)
(3.02681e-47 0 0)
(3.33977e-56 0 0)
(0 0 0)
(0 0 0)
(0 0 0)
(0 0 0)
(0 0 0)
(0 0 0)
(2.92628e-33 0 0)
(1.74176e-33 0 0)
(1.09057e-35 0 0)
(1.64105e-38 0 0)
(6.59246e-44 0 0)
(3.77492e-53 0 0)
(0 0 0)
(0 0 0)
(0 0 0)
(0 0 0)
(0 0 0)
(0 0 0)
(1.44441e-30 0 0)
(8.96696e-31 0 0)
(7.49684e-33 0 0)
(1.05191e-35 0 0)
(1.20367e-40 0 0)
(3.7586e-50 0 0)
(0 0 0)
(0 0 0)
(0 0 0)
(0 0 0)
(0 0 0)
(0 0 0)
(7.26047e-28 0 0)
(4.51402e-28 0 0)
(4.80263e-30 0 0)
(6.88245e-33 0 0)
(1.85774e-37 0 0)
(3.2825e-47 0 0)
(0 0 0)
(0 0 0)
(0 0 0)
(0 0 0)
(0 0 0)
(0 0 0)
(3.74764e-25 0 0)
(2.26953e-25 0 0)
(2.81644e-27 0 0)
(4.40364e-30 0 0)
(2.43349e-34 0 0)
(2.49864e-44 0 0)
(0 0 0)
(0 0 0)
(0 0 0)
(0 0 0)
(0 0 0)
(0 0 0)
(1.9216e-22 0 0)
(1.14501e-22 0 0)
(1.48363e-24 0 0)
(2.63966e-27 0 0)
(2.70605e-31 0 0)
(1.64312e-41 0 0)
(0 0 0)
(0 0 0)
(0 0 0)
(0 0 0)
(0 -3.55467e-20 5.31617e-22)
(0 0 0)
(9.22439e-20 0 0)
(5.61243e-20 0 0)
(6.89076e-22 0 0)
(1.43322e-24 0 0)
(2.5453e-28 0 0)
(9.22096e-39 0 0)
(0 0 0)
(0 0 0)
(0 0 0)
(0 0 0)
(0 -3.34806e-15 4.63702e-15)
(3.91018e-17 -4.17625e-15 4.1948e-15)
(2.49828e-17 0 1.23254e-16)
(2.77547e-19 0 0)
(6.88481e-22 0 0)
(2.00886e-25 0 0)
(4.34064e-36 0 0)
(0 0 0)
(0 0 0)
(0 0 0)
(0 0 0)
(9.61361e-17 0 4.114e-16)
(2.88561e-19 0 6.52873e-19)
(1.31356e-22 0 1.70183e-21)
(1.67286e-33 0 0)
(0 0 0)
(0 0 0)
(0 0 0)
(0 0 0)
(0 0 0)
(0 0 0)
(1.12919e-39 0 0)
(5.56049e-40 0 0)
(2.59176e-44 0 0)
(7.11656e-44 0 0)
(0 0 0)
(3.57034e-60 0 0)
(0 0 0)
(0 0 0)
(0 0 0)
(0 0 0)
(0 0 0)
(0 0 0)
(6.78506e-37 0 0)
(3.623e-37 0 0)
(5.17632e-41 0 0)
(4.01818e-41 0 0)
(0 0 0)
(4.11171e-57 0 0)
(0 0 0)
(0 0 0)
(0 0 0)
(0 0 0)
(0 0 0)
(0 0 0)
(3.85613e-34 0 0)
(2.20056e-34 0 0)
(8.50877e-38 0 0)
(2.30187e-38 0 0)
(0 0 0)
(4.16513e-54 0 0)
(0 0 0)
(0 0 0)
(0 0 0)
(0 0 0)
(0 0 0)
(0 0 0)
(2.11793e-31 0 0)
(1.25288e-31 0 0)
(1.15889e-34 0 0)
(1.34965e-35 0 0)
(0 0 0)
(3.69627e-51 0 0)
(0 0 0)
(0 0 0)
(0 0 0)
(0 0 0)
(0 0 0)
(0 0 0)
(1.17555e-28 0 0)
(6.85775e-29 0 0)
(1.3118e-31 0 0)
(8.03099e-33 0 0)
(0 0 0)
(2.85609e-48 0 0)
(0 0 0)
(0 0 0)
(0 0 0)
(0 0 0)
(0 0 0)
(0 0 0)
(6.8724e-26 0 0)
(3.77723e-26 0 0)
(1.23488e-28 0 0)
(4.7234e-30 0 0)
(0 0 0)
(1.90492e-45 0 0)
(0 0 0)
(0 0 0)
(0 0 0)
(0 0 0)
(0 0 3.34067e-22)
(0 0 0)
(4.14902e-23 0 0)
(2.15857e-23 0 0)
(9.6592e-26 0 0)
(2.65095e-27 0 0)
(0 0 0)
(1.08344e-42 0 0)
(0 0 0)
(0 0 0)
(0 0 0)
(0 0 0)
(0 0 6.54622e-18)
(2.37279e-20 0 7.31242e-18)
(1.24527e-20 0 1.70799e-19)
(6.26442e-23 0 0)
(1.37314e-24 0 0)
(0 0 0)
(5.16595e-40 0 0)
(0 0 0)
(0 0 0)
(0 0 0)
(0 0 0)
(3.36743e-20 0 3.88436e-19)
(6.39801e-22 0 1.13699e-22)
(0 0 3.96965e-25)
(2.01497e-37 0 0)
(0 0 0)
(0 0 0)
(0 0 0)
(0 0 0)
(0 0 0)
(0 0 0)
(1.1404e-44 0 0)
(4.92504e-45 0 0)
(0 0 0)
(3.23277e-46 0 0)
(0 0 0)
(0 0 0)
(0 0 0)
(0 0 0)
(0 0 0)
(0 0 0)
(0 0 0)
(0 0 0)
(1.11172e-41 0 0)
(5.07375e-42 0 0)
(0 0 0)
(1.67385e-43 0 0)
(0 0 0)
(0 0 0)
(0 0 0)
(0 0 0)
(0 0 0)
(0 0 0)
(0 0 0)
(0 0 0)
(9.92863e-39 0 0)
(4.83481e-39 0 0)
(0 0 0)
(8.35393e-41 0 0)
(0 0 0)
(0 0 0)
(0 0 0)
(0 0 0)
(0 0 0)
(0 0 0)
(0 0 0)
(0 0 0)
(8.00748e-36 0 0)
(4.1876e-36 0 0)
(0 0 0)
(4.08843e-38 0 0)
(0 0 0)
(0 0 0)
(0 0 0)
(0 0 0)
(0 0 0)
(0 0 0)
(0 0 0)
(0 0 0)
(5.7557e-33 0 0)
(3.24446e-33 0 0)
(0 0 0)
(2.009e-35 0 0)
(0 0 0)
(0 0 0)
(0 0 0)
(0 0 0)
(0 0 0)
(0 0 0)
(0 0 0)
(0 0 0)
(3.6422e-30 0 0)
(2.21617e-30 0 0)
(0 0 0)
(1.01091e-32 0 0)
(0 0 0)
(0 0 0)
(0 0 0)
(0 0 0)
(0 0 0)
(0 0 0)
(0 0 7.07506e-26)
(0 0 0)
(2.00544e-27 0 0)
(1.3161e-27 0 0)
(0 0 0)
(5.20421e-30 0 0)
(0 0 0)
(0 0 0)
(0 0 0)
(0 0 0)
(0 0 0)
(0 0 0)
(0 0 3.53984e-25)
(9.50619e-25 0 1.83275e-21)
(6.69997e-25 0 6.056e-23)
(0 0 0)
(2.66669e-27 0 0)
(0 0 0)
(0 0 0)
(0 0 0)
(0 0 0)
(0 0 0)
(0 0 0)
(0 0 7.78372e-22)
(1.30586e-24 0 6.87227e-24)
(0 0 1.91997e-25)
(0 0 0)
(0 0 0)
(0 0 0)
(0 0 0)
(0 0 0)
(0 0 0)
(0 0 0)
(0 0 0)
(1.77624e-55 0 0)
(0 0 0)
(1.62562e-48 0 0)
(0 0 0)
(0 0 0)
(0 0 0)
(0 0 0)
(0 0 0)
(0 0 0)
(0 0 0)
(0 0 0)
(0 0 0)
(7.75784e-53 0 0)
(0 0 0)
(8.81764e-46 0 0)
(0 0 0)
(0 0 0)
(0 0 0)
(0 0 0)
(0 0 0)
(0 0 0)
(0 0 0)
(0 0 0)
(0 0 0)
(3.10876e-50 0 0)
(0 0 0)
(4.53912e-43 0 0)
(0 0 0)
(0 0 0)
(0 0 0)
(0 0 0)
(0 0 0)
(0 0 0)
(0 0 0)
(0 0 0)
(0 0 0)
(1.13342e-47 0 0)
(0 0 0)
(2.21653e-40 0 0)
(0 0 0)
(0 0 0)
(0 0 0)
(0 0 0)
(0 0 0)
(0 0 0)
(0 0 0)
(0 0 0)
(0 0 0)
(3.72198e-45 0 0)
(0 0 0)
(1.02688e-37 0 0)
(0 0 0)
(0 0 0)
(0 0 0)
(0 0 0)
(0 0 0)
(0 0 0)
(0 0 0)
(0 0 0)
(0 0 0)
(1.08714e-42 0 0)
(0 0 0)
(4.523e-35 0 0)
(0 0 0)
(0 0 0)
(0 0 0)
(0 0 0)
(0 0 0)
(0 0 0)
(0 0 2.47136e-33)
(0 0 0)
(0 0 0)
(2.7801e-40 0 0)
(0 0 0)
(1.90817e-32 0 0)
(0 0 0)
(0 0 0)
(0 0 0)
(0 0 0)
(0 0 0)
(0 0 0)
(0 0 1.23702e-32)
(0 0 0)
(6.10255e-38 0 6.85926e-29)
(0 0 0)
(7.84077e-30 0 0)
(0 0 0)
(0 0 0)
(0 0 0)
(0 0 0)
(0 0 0)
(0 0 0)
(0 0 2.39157e-28)
(3.21352e-27 0 2.09441e-43)
(0 0 2.19232e-44)
(0 0 0)
(0 0 0)
(0 0 0)
(0 0 0)
(0 0 0)
(0 0 0)
(0 0 0)
(0 0 0)
(2.64932e-58 0 0)
(0 0 0)
(2.94347e-51 0 0)
(0 0 0)
(0 0 0)
(0 0 0)
(0 0 0)
(0 0 0)
(0 0 0)
(0 0 0)
(0 0 0)
(0 0 0)
(1.17563e-55 0 0)
(0 0 0)
(1.68298e-48 0 0)
(0 0 0)
(0 0 0)
(0 0 0)
(0 0 0)
(0 0 0)
(0 0 0)
(0 0 0)
(0 0 0)
(0 0 0)
(4.78117e-53 0 0)
(0 0 0)
(9.14435e-46 0 0)
(0 0 0)
(0 0 0)
(0 0 0)
(0 0 0)
(0 0 0)
(0 0 0)
(0 0 0)
(0 0 0)
(0 0 0)
(1.7674e-50 0 0)
(0 0 0)
(4.71688e-43 0 0)
(0 0 0)
(0 0 0)
(0 0 0)
(0 0 0)
(0 0 0)
(0 0 0)
(0 0 0)
(0 0 0)
(0 0 0)
(5.87961e-48 0 0)
(0 0 0)
(2.30761e-40 0 0)
(0 0 0)
(0 0 0)
(0 0 0)
(0 0 0)
(0 0 0)
(0 0 0)
(0 0 0)
(0 0 0)
(0 0 0)
(1.73875e-45 0 0)
(0 0 0)
(1.06979e-37 0 0)
(0 0 0)
(0 0 0)
(0 0 0)
(0 0 0)
(0 0 0)
(0 0 0)
(0 0 0)
(0 0 0)
(0 0 0)
(4.50036e-43 0 0)
(0 0 0)
(4.70081e-35 0 0)
(0 0 0)
(0 0 0)
(0 0 0)
(0 0 0)
(0 0 0)
(0 0 0)
(0 0 0)
(0 0 0)
(9.98947e-41 0 0)
(0 0 0)
(1.96602e-32 0 0)
(0 0 0)
(0 0 0)
(0 0 0)
(0 0 0)
(0 0 0)
(0 0 0)
(0 0 0)
(7.92377e-30 0 0)
(0 0 0)
(0 0 0)
(0 0 0)
(0 0 0)
(0 0 0)
(0 0 0)
(5.07316e-06 -3.30219e-05 -2.60365e-06)
(4.62674e-08 -1.31275e-07 -9.19672e-09)
(7.69268e-05 -0.000466717 4.60723e-06)
(1.6353e-07 -4.09786e-07 9.19829e-09)
(1.91949e-07 -1.53339e-06 5.55427e-07)
(6.25326e-09 -1.99483e-08 5.42038e-09)
(2.13248e-10 -3.76653e-09 2.41841e-09)
(1.35982e-10 -4.90717e-10 3.05374e-10)
(-2.23397e-12 -4.38148e-11 4.66402e-11)
(2.15072e-12 -4.56783e-11 4.76e-11)
(1.37868e-12 -3.57924e-12 3.66534e-12)
(-1.52357e-10 -1.53302e-09 2.64073e-09)
(-1.41142e-14 -3.38291e-13 4.91248e-13)
(1.39145e-14 -3.60549e-13 5.10217e-13)
(9.43386e-15 -2.63851e-14 3.6638e-14)
(-1.10458e-12 -1.2253e-11 3.01574e-11)
(0 -9.23239e-16 3.11683e-15)
(1.16194e-17 -9.28056e-16 2.98627e-15)
(6.83194e-18 0 6.13117e-17)
(-5.10431e-15 -7.38945e-14 2.38051e-13)
(0 0 1.1322e-22)
(4.50189e-22 0 1.23183e-18)
(2.88057e-22 0 2.84918e-20)
(0 0 8.49454e-16)
(0 0 1.94852e-30)
(0 0 0)
(1.11777e-35 0 6.03892e-26)
(0 0 2.58855e-20)
(0 0 0)
(0 0 0)
(1.8494e-38 0 0)
(0 0 0)
(1.01374e-10 -5.84868e-11 -6.5674e-13)
(1.26478e-12 -5.90055e-13 -2.13324e-15)
(1.29087e-14 -3.59622e-15 0)
(6.56938e-18 0 0)
(7.8049e-11 -4.3528e-11 3.43799e-12)
(9.515e-13 -4.27881e-13 3.61562e-14)
(8.88022e-15 -2.90017e-15 2.89452e-17)
(4.8483e-18 0 3.85953e-21)
(9.77832e-12 -5.26218e-12 1.87926e-12)
(8.54911e-14 -3.66066e-14 1.41329e-14)
(9.77394e-17 0 1.17851e-17)
(1.61236e-20 0 8.20839e-22)
(1.34664e-13 -7.76989e-14 7.39305e-14)
(3.30081e-16 0 1.52368e-16)
(9.30217e-20 0 1.85705e-20)
(-3.23234e-24 0 0)
(2.15953e-16 0 5.98777e-16)
(1.33494e-19 0 7.92682e-20)
(0 0 0)
(0 0 0)
(6.98193e-20 0 7.6521e-19)
(5.10372e-31 0 0)
(0 0 0)
(0 0 0)
(0 0 2.2698e-22)
(6.19609e-35 0 0)
(0 0 0)
(0 0 0)
(0 0 2.05548e-23)
(0 0 0)
(0 0 0)
(0 0 0)
(0 0 3.38759e-42)
(0 0 0)
(0 0 0)
(0 0 0)
(0 0 0)
(0 0 0)
(0 0 0)
(0 0 0)
(0.0152244 -0.0221563 -0.000298529)
(2.78939e-07 -2.51708e-07 -2.83204e-08)
(6.81142e-09 -5.2683e-09 -1.2101e-10)
(4.1265 -10.4725 2.97135)
(9.86807e-07 -9.80954e-07 3.6438e-08)
(5.96952e-09 -4.47308e-09 2.95442e-10)
(1.86385 -6.62577 2.73398)
(0.138798 -0.428447 0.155376)
(3.84821e-08 -4.60211e-08 1.588e-08)
(1.14318e-09 -8.73528e-10 2.63888e-10)
(5.24927e-07 -1.05508e-05 1.20509e-05)
(5.79816e-08 -1.77487e-07 1.91462e-07)
(7.85944e-10 -1.00644e-09 9.6661e-10)
(1.2013e-11 -9.30295e-12 8.72945e-12)
(1.4754e-10 -1.62604e-09 2.74402e-09)
(9.66007e-11 -2.01914e-10 3.61938e-10)
(4.46178e-12 -6.06093e-12 8.80795e-12)
(9.79673e-14 -7.57526e-14 1.08119e-13)
(-1.91603e-09 -6.50166e-09 2.14406e-08)
(8.25047e-10 -1.01609e-08 3.22884e-08)
(1.03562e-12 -1.31861e-11 3.18207e-11)
(7.27812e-13 -1.17301e-12 2.54548e-12)
(2.89545e-14 -3.62715e-14 7.08098e-14)
(1.05258e-16 0 4.08996e-16)
(-3.0205e-11 -1.57998e-10 6.48868e-10)
(2.83979e-11 -1.69582e-10 7.19127e-10)
(4.60704e-15 -8.02767e-14 2.55003e-13)
(3.30896e-15 -6.13548e-15 1.898e-14)
(1.51283e-17 0 1.35844e-16)
(2.64092e-19 0 5.47963e-20)
(-1.95025e-13 -1.09377e-12 6.45634e-12)
(1.82054e-13 -1.16836e-12 7.02687e-12)
(3.79121e-19 0 6.96042e-16)
(1.03492e-19 0 1.17992e-17)
(0 0 8.21888e-20)
(5.88704e-22 0 5.70391e-22)
(-3.8443e-16 -4.71762e-15 4.55708e-14)
(3.86629e-16 -4.71762e-15 4.94627e-14)
(0 0 0)
(1.64027e-33 0 7.51478e-23)
(0 0 5.99915e-26)
(1.33148e-24 0 6.44985e-41)
(0 0 9.05168e-18)
(0 0 8.78864e-18)
(0 0 0)
(2.74251e-36 0 0)
(0 0 0)
(3.14486e-27 0 0)
(0 0 0)
(0 0 0)
(2.984e-05 -0.000174252 0.000232788)
(-2.4929e-17 -1.00639e-16 2.6759e-19)
(0 0 1.39978e-19)
(0 0 4.52248e-23)
(0 0 7.77219e-31)
(0 0 0)
(-8.62843e-15 -2.33015e-14 3.07054e-14)
(0 0 5.19628e-17)
(0 0 2.57139e-20)
(0 0 1.81915e-28)
(0 0 0)
(-6.50358e-13 -1.03577e-12 2.24306e-12)
(-2.32014e-15 -5.78609e-15 1.69162e-14)
(-1.41017e-24 0 1.2049e-17)
(-1.80819e-27 0 2.83189e-26)
(-2.19727e-30 0 0)
(-1.61856e-11 -1.94717e-11 7.12554e-11)
(-1.32846e-13 -1.48761e-13 6.12579e-13)
(-6.85643e-21 -5.04462e-16 4.27958e-15)
(-1.13422e-24 -1.41096e-18 8.8871e-25)
(-1.44854e-27 -3.29963e-21 0)
(-9.45701e-21 0 1.3688e-17)
(0 0 0)
(-2.27447e-21 0 0)
(0 0 0)
(-1.70713e-21 0 0)
(0 0 0)
(-1.33609e-21 0 0)
(0 0 0)
(0 0 0)
(0 0 0)
(0 0 0)
(0 0 0)
(0 0 0)
(0 0 0)
(0 0 0)
(0 0 0)
(0 0 0)
(0 0 0)
(0 0 0)
(0 0 0)
(3.32177e-09 -4.1358e-09 1.10447e-08)
(2.62089e-10 -1.83227e-10 5.91128e-10)
(1.95866e-11 -2.26967e-11 8.17653e-11)
(1.31921e-12 -9.52212e-13 3.89464e-12)
(1.49377e-13 -1.6167e-13 6.99074e-13)
(5.90347e-15 -4.86023e-15 2.47386e-14)
(1.47399e-16 -1.16007e-16 4.21694e-15)
(0 0 1.23586e-17)
(1.80698e-31 0 1.46781e-19)
(0 0 4.20233e-23)
(3.05499e-34 0 0)
(0 0 0)
(7.75788e-06 -5.89517e-06 -7.74889e-07)
(1.85568e-05 -1.47086e-05 6.81855e-07)
(7.88669e-07 -4.31044e-07 5.75518e-07)
(3.79581e-06 -7.33224e-06 1.04054e-05)
(2.79084e-08 -1.74898e-08 3.25423e-08)
(-1.6917e-05 -1.41553e-05 0.000152616)
(1.8957e-05 -0.00010202 0.00137771)
(-3.51068e-10 -9.68263e-10 1.04017e-08)
(3.48297e-10 -9.82222e-10 1.03447e-08)
(-1.66619e-12 -6.02931e-12 6.06512e-11)
(1.5933e-12 -7.05003e-12 6.27465e-11)
(-9.44409e-15 -3.85993e-14 4.4859e-13)
(9.69184e-15 -5.46639e-14 4.81473e-13)
(0 0 2.81741e-15)
(0 0 2.44477e-15)
(0 0 0)
(0 0 0)
(2.49842e-05 -6.62177e-06 1.94459e-05)
(0.00439119 -0.00108052 0.00736606)
(9.94411e-06 5.98142e-07 1.16036e-05)
(1.69094e-06 -6.3098e-07 6.90966e-06)
(2.56873e-09 -6.80399e-10 4.99681e-09)
(-4.82914e-05 2.88153e-05 0.000428444)
(3.27014e-05 -2.45933e-05 0.00199616)
(3.99598e-07 4.60775e-08 1.39168e-06)
(1.29267e-08 -1.28933e-10 3.11026e-08)
(1.3547e-10 -1.02453e-10 6.88443e-10)
(1.77751e-11 -6.72004e-12 4.71639e-11)
(-1.73145e-09 2.35466e-10 5.44571e-08)
(1.72456e-09 -7.21709e-11 5.09643e-08)
(4.86486e-10 -1.41762e-11 2.19421e-09)
(6.95952e-11 -5.37633e-13 2.35816e-10)
(1.61073e-12 -1.20797e-12 9.38872e-12)
(1.43454e-13 -5.47098e-14 4.45367e-13)
(-8.46795e-12 6.27703e-13 2.8541e-10)
(7.20686e-12 -1.61152e-12 3.05528e-10)
(6.17724e-12 -1.89734e-13 2.85288e-11)
(5.14517e-13 -4.2018e-15 1.89593e-12)
(8.62026e-15 -6.66396e-15 9.27027e-14)
(1.16007e-16 0 3.03753e-15)
(1.32629e-29 0 1.84128e-16)
(0 0 2.34295e-20)
(2.27201e-32 0 0)
(0 0 0)
(2.32014e-15 -1.6063e-18 1.99389e-14)
(0 -6.13317e-21 4.17588e-18)
(0 -2.17187e-23 0)
(-6.3627e-14 3.16804e-15 1.64804e-12)
(4.15507e-14 -1.63411e-14 2.17884e-12)
(5.09138e-14 -8.67376e-16 3.0889e-13)
(0 7.50689e-18 9.75664e-15)
(0 -5.59354e-17 1.72259e-14)
(2.03087e-28 -1.76647e-18 1.56609e-15)
(0 2.0055e-20 0)
(0 -1.56664e-19 0)
(3.518e-31 -4.26575e-21 0)
(11.9891 -24.5372 12.6367)
(0 0 5.46554e-20)
(0 0 1.34832e-21)
(0 0 3.55574e-40)
(0 0 0)
(5.59317e-12 -2.12013e-12 6.34455e-12)
(3.41254e-14 -1.30315e-14 5.37895e-14)
(9.63775e-17 0 2.20023e-17)
(2.39329e-19 0 3.53664e-20)
(5.48247e-22 0 1.494e-38)
(1.25279e-24 0 0)