/*--------------------------------*- C++ -*----------------------------------*\
  =========                 |
  \\      /  F ield         | OpenFOAM: The Open Source CFD Toolbox
   \\    /   O peration     | Website:  https://openfoam.org
    \\  /    A nd           | Version:  9
     \\/     M anipulation  |
\*---------------------------------------------------------------------------*/
FoamFile
{
    format      ascii;
    class       volScalarField;
    location    "0.00315";
    object      overpressureMax;
}
// * * * * * * * * * * * * * * * * * * * * * * * * * * * * * * * * * * * * * //

dimensions      [1 -1 -2 0 0 0 0];

internalField   nonuniform List<scalar> 
27210
(
4.50544e+06
8.02734e+06
1.91444e+06
2.98338e+06
2.10908e+06
2.60777e+06
3.66504e+06
1.95603e+06
1.53136e+06
4.04532e+06
1.40709e+06
2.10001e+06
1.4643e+06
2.6189e+06
1.45247e+06
8.96741e+06
6.75522e+06
7.71252e+06
3.40368e+06
2.67239e+06
2.99964e+06
2.84171e+06
2.58084e+06
2.81675e+06
2.63505e+06
4.05173e+06
3.70837e+06
2.5073e+06
2.63042e+06
2.53359e+06
4.01526e+06
1.91574e+06
1.86194e+06
1.61555e+06
1.54298e+06
1.90283e+06
1.86981e+06
1.62411e+06
5.35694e+06
4.70353e+06
6.1408e+06
1.61828e+06
1.59137e+06
1.40048e+06
1.42092e+06
1.58467e+06
1.62721e+06
1.41012e+06
1.6576e+06
1.44333e+06
1.709e+06
1.44559e+06
1.67216e+06
1.42909e+06
1.6896e+06
2.61718e+06
2.85696e+06
2.87991e+06
1.60653e+06
1.69381e+06
1.4329e+06
1.40252e+06
1.67506e+06
1.62366e+06
1.38316e+06
1.98592e+06
1.80646e+06
1.75585e+06
1.92987e+06
2.00213e+06
1.79515e+06
1.74497e+06
2.06583e+06
2.06893e+06
1.87593e+06
1.71946e+06
1.89063e+06
1.97009e+06
1.71353e+06
2.15273e+06
2.17549e+06
1.93571e+06
1.88332e+06
2.12178e+06
1.86697e+06
1.91472e+06
2.68251e+06
4.92956e+06
2.71168e+06
4.94846e+06
2.75229e+06
2.70526e+06
4.48608e+06
2.13126e+06
1.9089e+06
1.79739e+06
2.00853e+06
1.88844e+06
1.98962e+06
1.81589e+06
218902
15.4276
2.54067
0.0444384
0.0051963
319.648
0.341428
0.0254809
1364.5
216669
76780
203438
145992
28316.3
3858.95
46226.9
15792.5
2765.52
3606.1
49953.6
26294.7
40704.8
207676
132095
204402
195342
160067
375412
210479
212420
152571
151881
169876
136728
136514
172210
15198.1
4159.71
5212.35
16491.3
5507.62
13749.4
19056.9
21089.3
33578.6
27657.4
45902.2
21442.6
33296.3
27280.5
202624
150811
149486
167204
135281
135990
164364
21413.1
76542.8
101655
89672.7
115910
96869.8
116674
182489
232423
197889
224007
238012
226907
111291
83808.9
98367
133827
84002.4
98513
112197
341076
262442
306776
247306
356543
307298
329359
160597
291507
288.823
0.508683
7.38401
2805.69
66986.6
65487
474.435
0.341429
0.398528
4.31288
30.256
4.20948
34.6536
0.0366774
0.0226596
0.0564926
0.0411796
0.00691708
0.103273
0.00867007
0.00143211
0.00320659
0.00182629
0.000396296
0.0139545
0.000814757
9.53162e-05
0.000172384
8.71832e-05
2.01512e-05
0.000889006
6.477e-05
6.11933e-06
8.14523e-06
3.9602e-06
8.84378e-07
5.39041e-05
4.28307e-06
3.60669e-07
3.16591e-07
1.51369e-07
3.23635e-08
163773
254928
70.6984
0.2267
4.10746
1812.74
54765.5
32726.6
201.191
0.0760717
0.213495
2.75704
13.9425
0.855571
8.97157
0.0132748
0.0108965
0.0302405
0.0175983
0.00311434
0.0471405
0.00303837
0.000693775
0.00179277
0.000877303
0.000195841
0.00456993
0.000336418
4.48836e-05
9.40175e-05
4.41e-05
9.94184e-06
0.000361689
2.84777e-05
2.80215e-06
4.19612e-06
1.97077e-06
4.26138e-07
2.35487e-05
1.91163e-06
1.62152e-07
1.54294e-07
7.25704e-08
1.52068e-08
211760
107468
0.557623
1.16711
510.807
17807.9
2415.06
11.8568
0.0614479
0.0620606
0.991639
1.36174
0.113744
0.329552
0.00808186
0.00326203
0.0110659
0.00477128
0.00142013
0.0143396
0.00111396
0.000201372
0.000631117
0.00027071
6.79991e-05
0.00135038
0.000101584
1.18942e-05
2.82476e-05
1.26359e-05
2.76683e-06
9.82311e-05
7.65454e-06
6.95669e-07
1.06028e-06
4.9363e-07
1.03042e-07
5.94603e-06
4.80912e-07
3.94939e-08
3.37459e-08
1.58179e-08
3.33239e-09
199886
468.114
192.573
4.92526
42.1334
998.916
19.1898
11.3166
1.65854
0.0990074
0.106163
0.123529
0.00501449
0.188593
0.0282101
0.0062787
0.00417181
0.00140752
0.000245602
0.0133874
0.00185899
0.000280171
0.000133854
5.36517e-05
1.01265e-05
0.000769498
0.000115275
1.3493e-05
4.43637e-06
1.74168e-06
3.66213e-07
4.60209e-05
6.45505e-06
6.59522e-07
1.5086e-07
5.36093e-08
1.21072e-08
2.43417e-06
3.1419e-07
2.94967e-08
4.80213e-09
1.45519e-09
3.0559e-10
179360
170020
139699
1650.99
0.636738
128134
67523.3
4862.61
57.8328
4.48254
0.0130459
5257.27
76.7861
0.802215
0.0216694
0.00257721
0.000494358
0.775912
0.0540065
0.00748792
0.000935988
0.000108211
2.04344e-05
0.0120583
0.00280848
0.000438127
4.15289e-05
4.40452e-06
7.942e-07
0.000809813
0.000152162
2.14785e-05
1.8311e-06
1.75351e-07
2.87691e-08
4.50611e-05
7.84989e-06
9.73858e-07
7.96135e-08
6.89761e-09
9.16771e-10
2.15085e-06
3.55925e-07
4.01342e-08
3.14321e-09
2.03727e-10
0
254836
206346
12020.5
14.817
0.415746
0.0110163
685.369
102687
945.13
0.734411
0.00742129
0.000658369
71.8423
30.6796
0.152309
0.00422519
0.000375045
3.45177e-05
0.351189
0.0135633
0.00266065
0.000235241
1.83514e-05
1.63646e-06
0.00557378
0.000858319
0.000138264
1.17486e-05
8.63016e-07
7.16536e-08
0.000310407
5.07815e-05
6.96076e-06
5.70319e-07
3.96831e-08
2.96859e-09
1.58272e-05
2.748e-06
3.3855e-07
2.68774e-08
1.71713e-09
4.36557e-11
7.38728e-07
1.28013e-07
1.46683e-08
1.04774e-09
0
0
592.247
356.9
1.28422
0.0396994
0.00455507
0.00037984
93.216
360.522
0.423333
0.00610408
0.000452838
3.29665e-05
0.393088
0.0918621
0.00568155
0.000426624
2.97413e-05
2.09818e-06
0.012115
0.00249873
0.00030207
2.488e-05
1.72653e-06
1.16401e-07
0.000771747
0.000131873
1.63627e-05
1.36871e-06
9.3627e-08
5.93718e-09
4.39979e-05
7.35348e-06
8.66567e-07
7.14645e-08
4.71482e-09
2.32831e-10
2.3233e-06
3.83632e-07
4.32483e-08
3.46336e-09
1.45519e-10
0
1.09372e-07
1.75642e-08
1.77533e-09
5.82077e-11
0
0
0.851623
0.222377
0.0213744
0.00244461
0.00021486
1.60564e-05
0.167004
0.0666746
0.00436816
0.00033089
2.38007e-05
1.58498e-06
0.0138717
0.00279832
0.000311247
2.58051e-05
1.81998e-06
1.16226e-07
0.00102771
0.000171682
2.04416e-05
1.73072e-06
1.20213e-07
7.30506e-09
6.73877e-05
1.08706e-05
1.25229e-06
1.04847e-07
7.13044e-09
3.34694e-10
3.95997e-06
6.29996e-07
7.03585e-08
5.76256e-09
3.0559e-10
0
2.14932e-07
3.3484e-08
3.55067e-09
2.32831e-10
0
0
1.02154e-08
1.42609e-09
5.82077e-11
0
0
0
0.0182259
0.00721657
0.00131159
0.000115096
9.84287e-06
6.88757e-07
0.00631214
0.00148638
0.000179541
1.56182e-05
1.15531e-06
7.40838e-08
0.000772381
0.000133308
1.5912e-05
1.37865e-06
9.87784e-08
5.95173e-09
6.37176e-05
1.03214e-05
1.18851e-06
1.01412e-07
6.97037e-09
3.34694e-10
4.4132e-06
6.95145e-07
7.76927e-08
6.4756e-09
3.7835e-10
0
2.71422e-07
4.17058e-08
4.49654e-09
2.76486e-10
0
0
1.51922e-08
2.11003e-09
1.45519e-10
0
0
0
6.25732e-10
0
0
0
0
0
0.00194004
0.000335234
4.83911e-05
4.94909e-06
4.17189e-07
2.86673e-08
0.000313659
5.86622e-05
7.39968e-06
6.77683e-07
5.14265e-08
3.24508e-09
3.75269e-05
6.23694e-06
7.34566e-07
6.47124e-08
4.70027e-09
2.03727e-10
3.25096e-06
5.16971e-07
5.86588e-08
4.97676e-09
2.76486e-10
0
2.36352e-07
3.63216e-08
3.92902e-09
2.47383e-10
0
0
1.5003e-08
2.11003e-09
1.45519e-10
0
0
0
7.567e-10
0
0
0
0
0
0
0
0
0
0
0
217.623
0.955282
121.936
0.898467
0.220172
0.874279
0.193317
0.633914
5.67865
1380.23
4.24001
1104.94
69175.6
7168.46
77088.4
70430.4
6001.26
77173
249710
95393.6
147541
160524
248238
95879.4
143039
3.52804
469.66
3.30233
223.032
3.18793
395.091
2.79762
0.55758
0.555881
0.215232
0.383189
0.502128
0.449561
0.174977
549.057
1.15655
10.92
5.66084
413.674
1.01358
8.29085
50279.4
16.8278
217.284
2167.38
44425.3
12.8322
149.663
81.209
0.540952
0.280684
0.127746
0.497569
0.0748553
0.182468
3.37432
951.054
1.3195
450.918
76271.2
5324.39
76819.6
83135.8
2814.69
67314.1
273953
95574.5
138533
213485
269586
84448.5
94401.2
1.9977
207.1
2.42427
1.13308
34.7901
1.18044
0.311641
0.223944
0.108905
0.145523
0.187127
0.122021
0.0634814
340.335
0.670622
6.14729
2.3054
134.593
0.384674
3.5222
40274.8
11.3358
115.976
768.493
20239.3
5.80001
36.4376
0.396975
102.661
0.163638
0.123727
52.5044
3.79994
0.813727
310.701
1.45781
61.4072
132914
2023.77
58349.5
134975
456.638
17358
266557
74053.3
64883.3
207324
252669
22022.8
4390.72
1.57942
14.9876
0.823095
34.4524
29.6045
3.92498
0.196554
0.165362
0.0533101
17.4102
1.73388
1.47597
0.331312
85.7403
0.194023
1.83429
1.00353
13.0102
0.166622
0.864167
13176
4.79325
21.4826
91.8522
2101.07
4.36467
4.20492
730.924
46991.1
405.745
35.7603
45374.4
18412.3
12.4894
30.9098
8835.36
413.461
134948
226.274
8071.16
109920
169.645
415.207
230860
9535.2
1178.35
174604
13781.8
312.913
9.05607
1582.47
233.387
366.575
47162.3
5514.66
8332.36
11.9405
7.32484
3.72327
32554.7
4314.14
238.003
10.5295
3.46276
0.881065
0.31536
1505.51
55.7868
4.18618
1.14576
937.648
1.48012
2.5063
20.4877
39.5765
0.722392
0.88491
173741
82384.7
59339.7
221241
213780
139032
75947
165258
33649.9
1593.42
211408
199253
28987.1
429.751
47199.8
575.612
126.797
91182
1788.25
103.516
1.95248
461799
326028
314208
470213
140569
606199
530445
16712.4
81.9708
392546
221033
54546.3
96.0423
77.2266
0.0857013
256115
235764
48.804
2.74709
0.0355674
0.0015047
107705
1702.25
0.08561
0.0104968
0.000885334
7.44554e-05
5.64769
0.0949739
0.00367554
0.000471705
4.68411e-05
3.59194e-06
0.00447346
0.00137102
0.000188194
2.20326e-05
2.14649e-06
1.62836e-07
74751.1
75559.7
478573
324004
406038
476810
378707
404484
81542.5
88344.5
485382
327701
403873
473826
327372
393529
168782
610896
169261
467105
322009
378931
556881
436877
316853
369261
580358
167422
474846
167107
422741
259975
294541
427156
368407
242947
105544
234885
313194
222700
213917
435237
403074
293665
250393
547257
207665
199792
395991
379160
248519
246192
421086
189723
171955
360585
294184
211827
18783.4
234033
187682
108273
166974
176191
141834
140579
149557
130238
129518
151141
168022
136468
134355
143180
127889
123718
146986
110841
108283
86591.1
22931.7
41829.6
21228
52311
19.8676
196.56
25.9038
199.6
179.003
24.0115
21.564
2.60968
0.48363
3.68523
0.933657
0.462845
3.46086
2.80201
16.5255
164.59
105.379
15.4971
145.42
20.2287
12.4142
2.20505
0.974138
0.376353
2.3713
0.446191
2.91405
1.72438
0.0546011
0.102062
0.112627
0.217238
0.0996265
0.109091
0.0567607
0.153913
1.08369
0.187897
0.833428
1.03112
0.182084
0.161389
0.0508083
0.206519
0.0847678
0.0876038
0.0967012
0.100327
0.0428891
0.135744
0.743654
0.782541
0.142199
0.923069
0.157251
0.115121
50.1771
7.88502
38.0572
5.44876
7.52168
36.2941
52.4117
326.952
1891
234.329
1328.28
1827.63
224.618
340.112
46.0706
4.89815
5.83211
28.3489
6.78413
32.858
40.2846
302.974
1233.8
1568.84
181.512
1718.89
206.493
270.109
69207.7
116548
116453
84915.7
104466
104595
84664.4
24071.7
8629.98
26662.4
6941.35
8397.2
26204.1
24133.9
117504
72949.6
119815
85912.3
106984
105409
87656.8
23999.8
6545.9
7524.75
24333.2
8029.4
25446
23750.5
5.28303
68.4308
10.7317
8.44548
6.98986
0.814334
0.252403
1.7391
0.350841
1.22117
0.16502
1.2835
0.499597
0.300344
0.107285
0.625106
0.121267
0.814766
0.358115
0.0210696
0.0577712
0.065955
0.097206
0.0311948
0.0394297
0.047643
0.0658704
0.618941
0.103854
0.382032
0.0879852
0.466234
0.0867552
0.015159
0.0708795
0.0325028
0.0402307
0.0294823
0.0325557
0.0159649
0.0440723
0.264597
0.215836
0.0472835
0.325171
0.0569728
0.0318823
26.4532
4.74007
23.4639
2.65155
33.4067
3.65077
18.2985
188.685
1384.6
152.186
782.499
230.982
1174.89
121.584
19.7555
1.873
1.79094
9.29733
2.63161
13.4413
13.9208
146.294
611.511
731.684
65.4719
951.708
91.8709
107.073
122885
79833.7
126089
92390.2
109034
89922.5
111260
22701.1
6896.96
22777.2
4532.71
23345
6159.11
20646
128857
131125
86079.2
94670.9
114858
113255
96587.2
21696.7
3673.23
4342.4
14584.7
5302.37
17864.4
20179.3
4.23243
0.290266
0.815943
1.78512
0.66877
2.14052
3.61163
32.7634
13.4369
134.379
183.871
17.7532
25.2454
230.726
0.414507
0.118281
0.0781692
0.803981
0.0497701
0.969568
0.366993
0.169275
0.139637
0.0432346
0.131421
0.0339331
0.13771
0.152729
3.92093
6.46338
71.4908
24.2129
8.66416
3.08598
35.0617
1.56236
0.545816
5.793
10.3103
0.635146
1.17716
14.999
5.51054
1.12012
5.99405
0.523747
9.11113
0.673732
3.57245
46.3335
528.533
43.5075
198.436
73.2652
354.46
26.8253
3.09062
0.44635
2.27126
1.39855
0.55533
1.97818
2.21748
26.6506
116.785
119.101
7.81226
216.415
15.1162
14.0139
134201
88742.9
91214.5
99394.6
116047
98141.5
116824
14874.5
3368.49
11107.7
1349.39
17972.6
2441.55
7778.29
135227
93467.1
95500.1
98802.7
115425
117216
94122.6
11048.3
824.315
961.769
2836.72
1617.64
4945.21
7300.41
7235.82
894.124
1211.57
4505.8
1423.8
4984.61
6862.81
20101.4
21157.8
28743.7
46833
17600.7
26503.8
28511
1992.72
528.887
203.777
2764.16
288.708
3221
1544.08
1118.38
59.8695
90.5009
328.647
140.465
548.539
761.309
10227.8
15293.9
28974.3
39800.3
13863.2
9978.43
29205.4
7116.48
2728.22
25152.7
30179.9
4288.27
5641.83
28454.3
83.2257
22.1314
4.791
124.122
8.54289
229.579
41.7499
31.9356
58.338
5.03021
17.2281
8.91639
34.9574
15.9036
897.737
1130.83
17642.1
3445.34
2158.33
408.051
9189.69
320.16
52.8402
1289.1
1193.54
127.437
136.644
3671.16
134144
98705
97244
67947.6
107084
83936.9
90259.1
2042.26
503.331
1460.64
101.437
4193.02
234.194
667.019
128024
83939.8
95200.3
47705
34522.4
63882.4
27743.2
884.069
53.3622
534.477
152.535
131.717
278.74
493.246
171791
139391
138140
148463
128456
128955
147688
158395
131409
126012
125610
73882.5
105040
92852.6
335504
291501
277498
502681
348080
304059
583224
235972
462944
225921
452147
309107
289878
510609
214221
417249
216321
405401
290340
74462.5
155126
154729
109499
229169
228390
110191
155429
78138
157618
109700
229902
228367
111265
160513
85128.2
163433
116787
232571
113653
235715
165860
167627
91126.7
120113
240411
238435
123317
169311
93490.9
95631.3
127986
241480
126019
241189
246590
639354
727182
353813
762959
361803
242440
168631
97618.9
99501.8
129295
236692
239558
130076
165594
102753
101262
130091
232647
130367
227461
163213
115238
104238
129048
217445
221314
131348
228385
165257
162261
286969
199981
206116
277464
325124
248822
476248
263112
489396
316498
217827
159405
156646
262149
193822
187652
269099
210711
153757
150601
256556
173740
180780
251926
299905
565148
216067
428434
220226
440985
295027
204276
147031
142859
243722
166689
159895
247837
193960
137939
132308
238751
147472
153418
232944
192337
131283
140762
230342
144109
151231
227827
229637
690333
343554
548208
236939
650304
331154
220856
514496
555969
302369
607643
317108
210509
183206
144800
143260
131132
132193
153202
155721
10.0265
1815.14
230441
14.1464
20.1169
8.33185
477.877
302.385
2750.15
46472.4
50178.6
249061
282402
197585
110286
148378
49.2159
40.3345
3.08347
26.8897
11.3309
2.84258
21.7728
4.30472
1.87526
8.16271
7.31722
2.39293
13.4006
1.88704
15.1823
6.97491
56.6298
75.0862
564.633
306.624
91.7916
45.1006
371.993
9536.82
3040.25
1876.62
13337.4
2140.13
11777.8
9867.8
21218.9
32707.2
27984.7
46666.5
21581.5
30445.8
28264.2
241854
168262
171375
297413
219342
212601
308495
161428
134356
148018
192515
146438
133313
158498
1.99551
370.885
39815.7
71.9631
1.74212
1.16894
0.527159
84877.8
37926.2
69981.8
94419.6
23692.8
124736
2416.64
14064.7
649.758
23.7943
113193
12359.6
754.573
14.4853
169.344
7.67987
2.38121
3167.88
40.578
4.18947
1.51136
10.3934
0.644804
0.277458
9.42396
1.01719
0.308262
0.0706079
195546
189240
225164
210412
239651
179963
68655.3
227357
54193.5
220773
150170
37188.6
21840
198.389
219304
78.9649
151966
8965.95
88.587
36.3191
0.944887
20060.3
185.663
1.15839
18.4758
1.50992
0.909997
0.179724
62384.1
84891.6
56725.2
77060.6
85020.4
56501.1
62145
63072.3
77130.4
86843.6
55789.5
85654.2
56232.1
64178.5
67223.8
88372.3
54895.8
75597.7
65616.8
90035.3
53116.7
68701.8
72799.4
92805.5
44163.2
91566.9
49728.1
69342.3
65206.8
93086
36367.4
45883.8
68531
90401
26972.7
58305.2
31280.2
70584.4
9996.79
83375.1
17620.2
47382.2
18702.3
50482.6
5038.08
3408.44
33177.8
28004.4
2314.72
8055.37
1272.05
4022.9
346.264
11324.4
924.789
3211.87
122512
96787.1
82170.5
106718
96586.2
123550
106244
121780
96133.9
76704.7
85803.6
96429.6
121215
102560
89425.1
88099.4
13602.9
52257.3
66352.3
114272
20544.1
49920.2
14424.6
4648.85
1993.35
36635.3
18978.2
6342.65
88660.8
78642.3
84535.7
9874.29
13781.1
16526
4510.12
2277.56
5269.96
249.528
639.981
2346.02
6361.06
216.079
932.283
1358.48
178.887
35.0295
1791.52
403.898
83.8467
11.235
3626.83
171189
374150
306650
264483
1181.66
287624
241546
225195
298728
366025
281189
294389
283230
136288
248714
343669
299096
256227
249836
247460
478.756
238702
294382
291548
223448
69760.2
115184
1682.18
1.05496
293371
12272.7
4396.25
47.1264
310594
460936
317356
372456
277375
389732
316973
184340
188422
162183
248782
242878
197889
261720
126555
82862.1
97377.6
82579.9
97039.2
107396
124914
109254
128356
83202.3
97760.4
83531.6
130231
98099.3
86225.6
292.269
154.703
59902.9
69007
196.058
89.9933
57492.8
149.254
61.2444
28047.8
15311.3
42.3635
10.7817
7403.93
23.6915
5.13687
2461.91
357.177
3.45379
0.903628
93.9841
1.46932
0.849773
28.1765
1.33255
0.500413
0.177931
0.353746
0.115647
0.0265763
0.24296
0.0406282
0.0163816
0.00318258
568.538
0.410908
1.46792
0.0594527
0.2037
0.0150474
0.0641265
0.00487967
0.0415099
0.00268632
336.959
108.932
23.6845
0.94224
0.720912
3938.21
0.10636
0.0136234
0.000919794
0.352766
0.0434035
0.00369529
0.000181396
0.249004
0.0396517
0.00572727
0.000309089
1.72485e-05
0.0336254
0.00411679
0.000297746
1.95822e-05
1.20769e-06
0.00128961
0.000170077
1.43884e-05
1.0558e-06
6.87869e-08
574516
654799
490347
473072
938547
897202
497855
1.3099e+06
450500
473123
633216
492896
504694
955473
905337
345590
1.20187e+06
451013
411241
462265
536105
507447
555922
1.03518e+06
896987
332628
1.03595e+06
575944
437277
269308
494475
497182
570368
27606
1.0792e+06
961621
751304
186919
1.05438e+06
845348
299400
527307
480384
2.87878
457298
656407
722367
561730
153.302
681287
212682
3098.65
7.82067
0.0772227
320128
406304
77.177
133.67
0.137776
2886.46
0.673523
0.102885
0.00995113
248423
151137
0.186558
0.0175324
0.00356092
2946.11
0.365056
0.0366503
0.00290455
0.000218879
1.44653e+06
1.3822e+06
918468
1.33479e+06
976039
941641
928256
1.27379e+06
937629
1.45351e+06
1.35974e+06
778258
1.23481e+06
750364
478082
1.35484e+06
1.25199e+06
1.3183e+06
1.16294e+06
737633
1.08013e+06
702576
448814
1.0387e+06
1.19324e+06
1.22101e+06
1.18302e+06
1.21792e+06
977791
953378
1.09719e+06
864048
1.00599e+06
856897
913526
781302
1.10531e+06
1.13903e+06
936946
685368
895373
1.0476e+06
1.17851e+06
591651
825398
872246
860124
987933
1.12189e+06
910356
725880
807921
841534
721717
811301
856192
697805
783844
657794
687171
606421
1.14954e+06
949685
839966
880970
797611
702700
680624
703311
412539
627946
1.18408e+06
1.28977e+06
1.16773e+06
934431
1.24935e+06
918577
1.01301e+06
957538
1.15249e+06
828859
1.09681e+06
1.16463e+06
1.06685e+06
977157
990716
941689
975585
974090
907043
812223
794481
764328
511155
725158
737865
351327
448531
512336
512517
740955
727739
661290
457931
528381
504375
458855
607355
591726
530424
520900
384723
423584
336091
662886
517917
1.42378e+06
1.42761e+06
1.41256e+06
1.4069e+06
1.39273e+06
1.40368e+06
1.25261e+06
1.34826e+06
1.2228e+06
1.31694e+06
1.33546e+06
1.20662e+06
1.26662e+06
1.23862e+06
1.29688e+06
1.31015e+06
1.16829e+06
1.32485e+06
1.18844e+06
1.21967e+06
1.42874e+06
1.39731e+06
1.26459e+06
1.12439e+06
1.14748e+06
234712
761785
908486
356234
923474
356651
234477
1.38361e+06
1.32724e+06
1.36825e+06
1.29606e+06
1.29757e+06
1.3411e+06
1.27378e+06
1.21948e+06
234652
891887
356889
728094
234359
872801
360467
1.12339e+06
1.00855e+06
1.0384e+06
1.27957e+06
1.24276e+06
1.29577e+06
1.12358e+06
1.34739e+06
1.18139e+06
1.22018e+06
1.28937e+06
1.32027e+06
1.2683e+06
1.13786e+06
1.37701e+06
1.22938e+06
1.19663e+06
1.19954e+06
1.04929e+06
1.03271e+06
1.05426e+06
1.10852e+06
1.13695e+06
1.11509e+06
1.00454e+06
1.14581e+06
1.00883e+06
1.03666e+06
1.05565e+06
1.08901e+06
959814
948188
974310
958184
857934
1.02472e+06
908133
889263
1.19645e+06
1.04866e+06
1.12251e+06
1.23318e+06
1.04941e+06
1.12987e+06
992605
985412
1.05219e+06
248252
820023
368939
664313
247000
794657
367147
943801
858287
901688
1.08688e+06
1.20715e+06
1.21674e+06
1.07119e+06
1.2119e+06
1.09282e+06
1.09738e+06
934557
789982
872722
995665
833135
975730
967779
881837
868715
987041
985638
868637
1.01703e+06
1.16275e+06
1.0519e+06
1.03001e+06
1.10518e+06
1.06273e+06
972143
955823
959079
977232
847586
1.03293e+06
889976
906228
932799
939435
871234
808599
967629
894415
845412
882974
788030
758513
763948
825177
838465
807305
776467
892079
808876
801554
831288
829596
760270
724886
747845
711654
656023
771466
711418
671196
1.2451e+06
1.05161e+06
1.12295e+06
913787
1.05686e+06
951047
877662
1.00307e+06
921078
824935
859706
892936
757455
838697
768818
726888
798959
742463
656391
715290
379376
733958
306107
536444
322883
559920
362490
646675
235837
948175
361390
770998
937051
358604
238353
238729
716832
840897
367931
857398
364814
243474
509202
669211
758825
641848
502640
667075
767290
770803
729008
627220
900368
759737
713001
615937
754764
685468
528110
912600
712622
647045
510470
562567
615361
497918
473458
664314
657721
450367
625214
837117
478116
489063
869557
846882
687071
686550
503824
796013
596628
662892
473172
500730
772428
846868
463743
493778
628763
737768
542887
865443
821910
510270
568102
761171
692981
563111
544200
457336
609803
468486
490595
397129
1.29142e+06
1.14715e+06
1.22471e+06
1.19406e+06
1.26598e+06
1.12481e+06
1.16554e+06
1.19566e+06
1.19531e+06
1.05608e+06
1.23456e+06
1.0958e+06
1.10055e+06
1.1364e+06
494940
644690
776713
570528
465607
626071
816648
392130
423304
354763
236920
741.507
319626
2171.64
232447
213547
119444
0.561068
0.0540704
1.03892e+06
1.38517e+06
982109
993228
2.03557e+06
985362
621158
1.14553e+06
874899
1.06865e+06
981594
1.79395e+06
403520
576846
617575
1.01493e+06
1.28208e+06
1.44741e+06
398156
473210
823025
309973
290209
431783
182202
271442
193.849
0.319842
0.0826417
0.00998612
0.000737715
132493
0.574081
0.0462354
0.00578641
0.00057481
4.23637e-05
11.5467
0.232619
0.0133632
0.00187747
0.00016688
1.26675e-05
0.00940461
0.00199562
0.00028077
2.77536e-05
2.146e-06
0.0179013
0.0044574
0.000683097
8.6372e-05
8.41117e-06
6.46527e-07
1.23631e+06
1.90496e+06
1.07166e+06
1.02194e+06
1.84812e+06
948437
1.79978e+06
996085
950164
1.72286e+06
2.28007e+06
2.08572e+06
1.8649e+06
994800
1.82911e+06
1.00117e+06
985493
1.71482e+06
955292
1.69918e+06
1.28038e+06
1.01364e+06
1.58691e+06
2.00912e+06
1.73579e+06
1.55399e+06
1.27788e+06
1.62879e+06
860157
1.22099e+06
1.29013e+06
1.51351e+06
1.61282e+06
1.25083e+06
1.81459e+06
1.98894e+06
1.77595e+06
2.52951e+06
2.45293e+06
1.61004e+06
1.71659e+06
1.54409e+06
2.00071e+06
1.81788e+06
1.3085e+06
1.33723e+06
1.21685e+06
1.33463e+06
1.19047e+06
456909
1.62067e+06
1.59728e+06
1.99381e+06
1.88216e+06
1.60162e+06
1.97182e+06
1.61228e+06
1.65263e+06
2.06723e+06
2.04432e+06
1.67553e+06
1.62964e+06
1.8632e+06
1.62746e+06
1.96371e+06
1.60866e+06
1.95945e+06
1.65263e+06
1.53349e+06
1.57349e+06
1.67924e+06
1.77532e+06
1.5738e+06
1.65478e+06
1.53673e+06
1.48254e+06
1.55795e+06
1.53734e+06
1.49039e+06
1.53616e+06
1.75109e+06
1.59245e+06
1.60427e+06
1.57693e+06
1.62964e+06
1.54333e+06
1.47757e+06
1.49387e+06
1.5171e+06
1.47302e+06
2.5406e+06
2.22434e+06
2.47579e+06
2.59823e+06
2.6645e+06
2.15747e+06
2.33305e+06
2.40276e+06
1.62145e+06
1.59043e+06
1.93057e+06
1.67144e+06
1.72696e+06
1.50401e+06
1.54988e+06
1.83211e+06
2.10347e+06
1.74852e+06
2.11017e+06
1.79e+06
1.67585e+06
1.96884e+06
1.80651e+06
1.71625e+06
1.72829e+06
1.94766e+06
1.87067e+06
1.97169e+06
2.06077e+06
1.84925e+06
1.81936e+06
1.77177e+06
1.72558e+06
1.84556e+06
1.74628e+06
1.90961e+06
1.80164e+06
1.56377e+06
1.62429e+06
1.58161e+06
1.67664e+06
1.55352e+06
1.65295e+06
1.55413e+06
1.46797e+06
1.46637e+06
1.47013e+06
1.43724e+06
1.55639e+06
1.64003e+06
1.62973e+06
1.46838e+06
1.65696e+06
1.51669e+06
1.52202e+06
1.45076e+06
1.35691e+06
1.4029e+06
1.4088e+06
2.25472e+06
1.92408e+06
2.1715e+06
2.17832e+06
2.3336e+06
1.83739e+06
1.94427e+06
2.07127e+06
1.45256e+06
1.3987e+06
1.63986e+06
1.39836e+06
1.47503e+06
1.26828e+06
1.33575e+06
1.64082e+06
1.84984e+06
1.77176e+06
1.69966e+06
1.62836e+06
1.66441e+06
1.7443e+06
1.5227e+06
1.73588e+06
1.56788e+06
1.6174e+06
1.47848e+06
1.39223e+06
1.5438e+06
1.3169e+06
1.49316e+06
1.40629e+06
1.32781e+06
1.34546e+06
1.45062e+06
1.48129e+06
1.34921e+06
1.38003e+06
1.56973e+06
1.403e+06
1.42209e+06
1.46098e+06
1.48176e+06
1.32024e+06
1.79824e+06
1.48408e+06
1.64652e+06
1.48642e+06
1.64655e+06
1.36146e+06
1.37101e+06
1.50315e+06
1.04294e+06
1.25003e+06
1.17087e+06
1.11743e+06
1.08336e+06
1.17759e+06
1.0745e+06
1.29265e+06
987516
1.11358e+06
1.01737e+06
716418
890143
685055
908036
698828
844154
676802
942511
1.09648e+06
886841
842404
717498
884901
766333
688573
821579
647777
698698
606135
661500
624920
613606
686104
801835
499253
499354
672328
806555
623887
485921
628974
751728
408066
437350
529145
574029
383988
227921
227436
26901.7
17351.5
3.30568
1.65578
0.0595177
0.142876
356007
276655
263557
385424
360604
270322
181863
179790
343519
245697
239699
354613
256375
177213
174366
331913
226315
233271
320097
991602
881667
1.10085e+06
614329
446716
419756
820532
363355
398614
773672
342320
586390
1.25379e+06
3.09926e+06
2.83455e+06
2.21202e+06
1.41563e+06
2.14661e+06
2.16258e+06
2.8773e+06
2.2261e+06
2.10985e+06
2.42949e+06
1.95398e+06
1.42244e+06
1.5945e+06
781094
1.22349e+06
628531
870171
1.25933e+06
1.46578e+06
985825
2.81577e+06
3.01502e+06
2.74103e+06
2.75833e+06
1.9922e+06
1.25196e+06
418330
623508
389160
1.64515e+06
1.66475e+06
2.07456e+06
2.12649e+06
1.68149e+06
2.05378e+06
1.63296e+06
2.12178e+06
1.70118e+06
1.68498e+06
2.93781e+06
1.77587e+06
2.25509e+06
1.8632e+06
2.21577e+06
1.85191e+06
1.88825e+06
2.61508e+06
1.74711e+06
1.77838e+06
1.58644e+06
1.5984e+06
1.24768e+06
1.40994e+06
1.78618e+06
851974
1.02838e+06
1.15867e+06
1.07956e+06
957231
914642
1.03384e+06
777116
969284
752127
874227
825648
949972
720751
1.10351e+06
1.11487e+06
982242
1.47609e+06
1.28243e+06
1.30236e+06
1.13211e+06
1.03307e+06
1.16828e+06
1.35178e+06
2.20873e+06
1.27945e+06
2.25343e+06
3.39222e+06
3.17539e+06
1.14294e+06
2.34148e+06
1.01943e+06
2.21479e+06
3.15958e+06
2.67965e+06
1.01593e+06
2.02835e+06
828918
1.40106e+06
2.41538e+06
1.68019e+06
1.76172e+06
1.6991e+06
2.26576e+06
2.19079e+06
1.72266e+06
2.25176e+06
1.72934e+06
1.76014e+06
2.19102e+06
1.73147e+06
2.33957e+06
1.72306e+06
2.25774e+06
1.76277e+06
3.68873e+06
3.29954e+06
3.58969e+06
3.22138e+06
3.49624e+06
3.51619e+06
1.87321e+06
1.8024e+06
2.44783e+06
2.38103e+06
1.82643e+06
1.87534e+06
2.48657e+06
1.84827e+06
2.33773e+06
1.81102e+06
2.26818e+06
1.8781e+06
2.4257e+06
1.75175e+06
3.49968e+06
3.07317e+06
3.39818e+06
2.90899e+06
2.91282e+06
3.19701e+06
1.41546e+06
1.67899e+06
2.03876e+06
1.8148e+06
1.59458e+06
1.50444e+06
1.78809e+06
1.24356e+06
1.60189e+06
1.16622e+06
1.33222e+06
1.32698e+06
1.54724e+06
1.0893e+06
2.59977e+06
2.15597e+06
2.29072e+06
1.90914e+06
1.70982e+06
1.99128e+06
415854
466760
384748
641993
406210
669678
442856
1.16214e+06
702601
659484
1.15265e+06
822714
711884
956609
527508
587951
560814
578008
511249
602597
430081
980524
1.15975e+06
984640
1.11365e+06
983216
1.10855e+06
983640
794946
656359
798527
665942
818137
820095
667228
1.3377e+06
1.42742e+06
1.38103e+06
1.21908e+06
1.30341e+06
1.25638e+06
1.26635e+06
955354
761532
730383
709656
728897
1.00481e+06
924114
1.31219e+06
1.30878e+06
1.29101e+06
1.37168e+06
1.47948e+06
1.44077e+06
1.41099e+06
1.00405e+06
1.09367e+06
986362
1.15698e+06
993340
1.1022e+06
985190
664417
686192
838303
657319
807464
826894
673879
594639
588007
552421
567210
563814
518256
512565
1.32536e+06
1.24028e+06
1.21534e+06
1.18423e+06
1.15232e+06
1.21606e+06
1.12892e+06
1.13695e+06
1.28804e+06
1.24554e+06
1.3385e+06
1.29276e+06
1.17846e+06
1.22284e+06
1.31444e+06
1.21167e+06
1.30634e+06
1.33298e+06
1.30238e+06
1.39087e+06
1.32134e+06
534567
567613
503634
582005
543437
563378
507498
1.13401e+06
1.01458e+06
1.02118e+06
981371
1.08178e+06
1.06675e+06
985192
331988
381608
393916
510226
387674
479326
431459
864243
679473
702248
863583
703727
851460
723794
1.11161e+06
1.19024e+06
1.0526e+06
1.04338e+06
1.14499e+06
1.01372e+06
1.15622e+06
1.2163e+06
1.25567e+06
1.15962e+06
1.1874e+06
1.07742e+06
1.15029e+06
1.10466e+06
543210
518324
534061
473652
491097
484070
466211
1.12792e+06
1.09305e+06
1.2675e+06
1.23567e+06
1.19684e+06
1.29118e+06
1.26692e+06
1.00789e+06
1.03483e+06
1.00116e+06
936565
912618
906815
931957
1.05297e+06
914365
958303
977680
1.04623e+06
953996
908567
914309
718287
701294
698195
610813
699171
887552
581987
526879
581137
578424
577815
593957
502249
1.30137e+06
1.05073e+06
1.30624e+06
1.09852e+06
1.32453e+06
1.21667e+06
1.31897e+06
819125
688720
828283
828549
702673
815779
690196
1.03929e+06
978502
949801
1.07621e+06
1.01619e+06
982780
1.11619e+06
1.08266e+06
1.01268e+06
1.06886e+06
967156
1.11132e+06
986902
1.04794e+06
1.31245e+06
1.02812e+06
1.3031e+06
1.03233e+06
1.03334e+06
1.29986e+06
1.32503e+06
495240
449049
469267
507387
523311
476552
457927
1.27078e+06
1.17209e+06
1.29511e+06
1.12701e+06
1.28824e+06
1.04414e+06
1.26561e+06
1.11795e+06
1.02116e+06
1.01402e+06
1.02468e+06
960242
973369
1.04749e+06
1.02704e+06
895896
945612
968133
1.03762e+06
950439
902606
906948
971373
880835
1.02339e+06
989074
896288
921787
570445
390980
602408
564959
611726
426988
469217
897874
729655
818086
801600
869652
870058
743885
1.17442e+06
1.26019e+06
972224
945007
1.00281e+06
1.13481e+06
1.2328e+06
812620
705904
836354
831959
706131
813998
695885
569346
589297
569603
496019
494935
491903
496151
273014
258875
315213
363816
262194
342103
246394
978824
948022
971331
874528
890118
883295
867750
841928
887465
954458
948813
862515
924050
864123
918832
930575
997559
1.05068e+06
944817
959605
1.02411e+06
931323
1.0134e+06
926361
887395
996524
939638
877011
829090
688079
821443
818220
822474
687792
677731
575953
489083
558188
580584
494592
497295
569046
506179
583433
494131
594111
574024
491149
499379
501426
489046
481027
457579
450265
440527
433692
1.02843e+06
1.02062e+06
1.24257e+06
1.00509e+06
1.21473e+06