/*--------------------------------*- C++ -*----------------------------------*\
  =========                 |
  \\      /  F ield         | OpenFOAM: The Open Source CFD Toolbox
   \\    /   O peration     | Website:  https://openfoam.org
    \\  /    A nd           | Version:  9
     \\/     M anipulation  |
\*---------------------------------------------------------------------------*/
FoamFile
{
    format      ascii;
    class       volScalarField;
    location    "0.0009";
    object      rho;
}
// * * * * * * * * * * * * * * * * * * * * * * * * * * * * * * * * * * * * * //

dimensions      [1 -3 0 0 0 0 0];

internalField   nonuniform List<scalar> 
8235
(
1.78086
3.0302
2.80345
2.2859
2.92358
3.54476
3.95209
3.72774
2.99715
2.86311
2.61397
2.34547
2.72331
2.04057
2.90704
2.95527
3.08639
3.08614
2.81441
3.01192
3.0558
3.10816
1.33112
1.98725
2.07489
3.14209
1.57436
1.43091
1.29456
1.58141
2.33246
2.02757
1.78204
2.19733
1.69673
2.18348
2.79981
3.10743
2.79472
2.1935
2.7269
1.22667
1.26171
1.225
2.99208
3.06119
3.04672
3.08242
2.07181
1.29738
2.17193
1.28583
2.68923
1.30019
1.32193
1.23007
1.22513
1.25656
1.22779
1.22632
1.22738
1.22509
1.22508
1.22612
1.225
1.225
1.225
1.225
1.225
1.225
1.225
1.225
1.225
1.22504
1.22503
1.225
1.22501
1.22501
1.22516
1.22514
1.225
1.225
1.225
1.225
1.225
1.225
1.225
1.225
1.225
1.225
1.225
1.225
2.77788
3.22669
1.26866
1.87715
2.2612
2.20881
2.84193
2.87543
2.76493
3.39396
3.06109
3.08864
1.81504
2.90094
1.47468
1.6657
2.59738
2.78462
1.64348
1.28728
1.2653
1.04935
1.37397
1.07698
1.39129
1.7804
1.17895
1.37172
1.70824
1.32416
1.12541
1.42541
2.70974
2.09143
1.57649
2.10006
1.55778
2.04599
2.65134
2.73994
2.13624
1.6533
2.15684
1.58697
2.04274
2.66584
2.81876
2.79155
2.54679
2.43499
2.01578
2.3573
1.94526
2.52804
2.78898
2.52763
1.89621
2.30745
2.31961
1.90855
2.65498
2.69456
2.88564
2.96295
2.71658
2.72125
2.94258
2.89084
2.98079
2.98885
2.97883
2.69195
2.6606
2.96875
2.86054
2.43659
2.58
2.79659
2.9521
2.7435
2.9411
1.66049
2.01583
1.70704
3.13416
1.7482
2.71642
2.48623
1.66516
1.91967
2.01714
2.24154
2.74955
1.41537
1.14859
1.33918
0.616235
1.00496
0.327696
0.826724
0.375744
0.945415
0.801615
1.33062
1.27962
1.94677
2.09521
1.90695
2.1455
2.24351
1.71135
1.7027
2.18009
2.5464
1.9308
2.88338
2.37413
1.82053
2.23599
2.29393
2.7989
2.44587
1.98556
2.46855
1.86945
2.4111
1.79208
1.92705
1.56836
1.57965
1.55442
1.57833
1.76652
1.98152
1.65265
1.66515
2.1693
1.82359
1.75994
1.85386
2.29876
2.38896
2.23908
2.67502
1.91713
2.18608
2.75548
0.868878
1.15602
0.880801
2.03551
2.20464
1.53275
1.73383
0.415711
0.487987
0.632055
1.66542
1.148
1.31319
0.875027
1.65436
1.97042
1.42851
2.61268
2.06965
2.22654
1.74478
0.916612
1.26569
0.737789
0.557337
0.794187
1.21866
1.379
0.836182
0.518236
0.423637
0.302441
0.367083
0.905741
0.726989
0.319789
0.488206
0.449303
1.1925
1.16138
0.896509
0.819381
1.50765
1.31257
1.06017
1.05201
1.50084
1.66549
1.40347
0.915277
0.435079
0.540363
0.403017
0.312551
0.823293
0.719299
0.181826
0.134895
0.94083
1.02372
0.871554
0.191806
0.817434
0.327623
0.248277
0.149876
0.141028
0.124898
0.423557
0.465788
0.313374
0.280732
0.182255
0.177812
0.313828
0.166816
0.164303
0.187998
0.134839
0.127501
0.128643
0.122336
0.156361
0.222758
0.175238
0.140522
0.130958
0.130734
0.123347
1.4915
1.56434
0.854195
1.46308
0.699178
1.42548
0.694749
0.257217
0.553753
0.447647
0.363287
0.191374
0.178002
0.325893
0.169746
0.152022
0.128388
0.177832
0.16383
0.127884
0.122982
0.826613
1.38997
1.42705
1.38494
0.738893
1.40821
0.706443
0.12693
0.241641
0.184469
0.197977
0.160176
0.132086
0.124335
0.227619
0.133439
0.231328
0.181787
0.387315
0.415156
0.194448
0.146537
0.392129
0.267886
0.339306
0.64691
0.506076
0.232632
0.717775
0.996025
0.680341
0.707948
0.371524
0.75535
0.412423
0.885185
0.544362
0.630573
1.33641
1.07658
1.52115
1.26465
1.55818
1.78042
1.32662
2.22165
1.90047
1.72309
1.40371
2.09535
2.18875
1.77977
2.34273
2.45101
2.05475
2.03879
1.13413
0.633939
0.92145
1.07644
0.810652
0.840857
0.500298
1.61525
1.84083
1.90721
2.11659
2.14189
1.94613
1.86197
1.26061
1.64296
1.28235
1.75201
1.71341
1.33185
1.31099
0.848006
0.721253
0.596967
1.0574
1.19273
1.01247
1.18901
1.134
1.29164
1.08465
1.35017
1.61657
1.58674
1.3556
1.05994
1.3214
1.13237
1.8732
1.6836
1.63158
1.42364
1.35718
1.88608
1.472
1.75968
1.91581
1.41429
1.52933
1.68506
2.7055
2.12423
2.24715
2.6997
2.10287
1.71683
2.73886
2.70738
2.74603
2.27772
1.74502
1.71252
2.24854
2.5912
2.65262
2.7305
2.06363
1.53561
1.64226
2.18079
1.0775
1.50225
2.28252
3.09577
2.34523
2.88414
2.84137
1.48893
1.23154
1.49506
1.31692
1.69508
1.44689
1.16172
1.19217
1.30883
2.02073
1.80203
2.47055
2.01044
1.66798
1.29165
1.49648
2.63115
1.80017
2.09415
1.37336
1.66777
1.9478
1.5483
2.57373
2.6348
2.80056
2.05408
1.74932
2.33374
1.97907
1.225
1.22553
1.2442
2.68195
1.22507
1.22782
2.54558
2.28937
2.90784
2.86396
2.9392
2.50947
2.37824
1.83303
2.78482
2.6864
2.94032
2.80342
2.88588
2.67917
2.30026
2.85018
2.67901
2.88267
2.83643
2.97427
2.4611
2.73934
1.225
1.225
1.225
1.225
1.225
1.225
1.225
1.225
1.225
1.225
1.225
1.225
1.225
1.225
1.225
1.225
1.225
1.22507
1.225
1.22503
1.225
1.22515
1.225
1.22501
1.22504
1.225
1.225
1.225
1.225
1.22501
1.22502
1.225
1.225
1.225
1.225
1.22501
1.225
1.225
1.225
1.225
1.225
1.225
1.225
1.225
1.225
1.225
1.225
1.225
1.225
1.225
1.225
1.225
1.225
1.225
1.225
1.225
1.225
1.225
1.225
1.225
1.225
1.225
1.225
1.225
1.225
1.225
1.225
1.225
1.225
1.23086
1.225
1.22501
1.225
1.225
1.225
1.225
1.225
1.225
1.225
1.22501
1.225
1.22517
1.225
1.225
1.225
1.225
1.225
1.225
1.225
1.225
1.225
1.225
1.225
1.225
1.225
1.225
1.225
1.225
1.225
1.225
1.225
1.225
1.225
1.225
1.225
1.225
1.225
1.225
1.225
1.225
1.225
1.225
1.225
1.225
1.225
1.225
1.225
1.225
1.225
1.225
1.225
1.225
1.225
1.225
1.225
1.225
1.225
1.225
1.225
1.225
1.225
1.225
1.225
1.225
1.225
1.225
1.225
1.225
1.225
1.225
1.225
1.225
1.225
1.225
1.225
1.225
1.225
1.225
1.225
1.225
1.22501
1.22544
1.225
1.22501
1.22521
1.225
1.22503
1.225
1.225
1.22501
1.225
1.22504
1.225
1.225
1.225
1.225
1.225
1.225
1.225
1.225
1.225
1.225
1.225
1.225
1.225
1.225
1.225
1.225
1.225
1.225
1.225
1.225
1.225
1.225
1.225
1.225
1.225
1.225
1.225
1.225
1.225
1.225
1.225
1.225
1.225
1.225
1.225
1.225
1.225
1.225
1.225
1.225
1.225
1.225
1.225
1.225
1.225
1.225
1.225
1.225
1.225
1.225
1.225
1.225
1.225
1.225
1.225
1.225
1.225
1.225
1.225
1.225
1.225
1.225
1.225
1.225
1.225
1.225
1.225
1.225
1.225
1.225
1.225
1.225
1.225
1.225
1.225
1.225
1.225
1.225
1.225
1.225
1.225
1.225
1.225
1.225
1.225
1.225
1.225
1.225
1.225
1.225
1.225
1.225
1.225
1.225
1.225
1.225
1.225
1.225
1.225
1.225
1.225
1.225
1.225
1.225
1.225
1.225
1.225
1.225
1.225
1.225
1.225
1.225
1.225
1.225
1.225
1.225
1.225
1.225
1.85605
1.30819
1.23977
1.2273
1.22597
1.22501
1.225
1.225
1.225
1.225
1.225
1.225
1.225
1.225
1.225
1.225
1.31149
1.48688
1.31893
1.7592
1.53662
1.28581
1.32866
1.27889
1.55315
1.48963
1.22911
1.62501
1.24754
1.24232
1.22676
1.30722
1.22567
1.23114
1.22892
1.26142
1.2253
1.22617
1.22901
1.23997
1.22511
1.24956
1.2252
1.22568
1.22508
1.23173
1.22504
1.22527
1.22529
1.22709
1.22501
1.22501
1.22505
1.22505
1.225
1.22541
1.225
1.225
1.225
1.225
1.225
1.225
1.225
1.225
1.225
1.225
1.225
1.225
1.225
1.225
1.225
1.225
1.22501
1.22511
1.225
1.225
1.22509
1.22501
1.225
1.225
1.225
1.225
1.225
1.225
1.225
1.225
1.225
1.225
1.225
1.225
1.225
1.225
1.225
1.225
1.225
1.225
1.225
1.225
1.225
1.225
1.225
1.225
1.225
1.225
1.225
1.225
1.225
1.225
1.225
1.225
1.225
1.225
1.225
1.225
1.225
1.225
1.225
1.225
1.225
1.225
1.225
1.225
1.225
1.225
1.225
1.225
1.225
1.225
1.225
1.225
1.225
1.225
1.225
1.225
1.225
1.225
1.225
1.225
1.225
1.225
1.225
1.225
1.225
1.225
1.225
1.225
1.225
1.225
1.225
1.225
1.225
1.225
1.225
1.225
1.225
1.225
1.225
1.225
1.225
1.225
1.225
1.225
1.225
1.225
1.225
1.225
1.225
1.225
1.225
1.225
1.225
1.225
1.225
1.225
1.225
1.225
1.225
1.225
1.225
1.225
1.225
1.225
1.225
1.225
1.225
1.225
1.225
1.225
1.225
1.225
1.225
1.225
1.225
1.225
1.225
1.225
1.225
1.225
1.225
1.225
1.225
1.225
1.225
1.225
1.225
1.225
1.225
1.225
1.225
1.225
1.225
1.225
1.225
1.225
1.225
1.225
1.225
1.225
1.225
1.225
1.225
1.225
1.225
1.225
1.225
1.225
1.225
1.225
1.225
1.225
1.225
1.225
1.225
1.225
1.225
1.225
1.225
1.225
1.225
1.225
1.225
1.225
1.225
1.225
1.225
1.225
1.225
1.225
1.225
1.225
1.225
1.225
1.225
1.225
1.225
1.225
1.225
1.225
1.225
1.225
1.225
1.225
1.225
1.225
1.225
1.225
1.225
1.225
1.225
1.225
1.225
1.225
1.225
1.225
1.225
1.225
1.225
1.225
1.225
1.225
1.225
1.225
1.225
1.225
1.225
1.225
1.225
1.225
1.225
1.225
1.225
1.225
1.225
1.225
1.225
1.225
1.225
1.225
1.225
1.225
1.225
1.225
1.225
1.225
1.225
1.225
1.225
1.225
1.225
1.225
1.225
1.225
1.225
1.225
1.225
1.225
1.225
1.225
1.225
1.225
1.225
1.225
1.225
1.225
1.225
1.225
1.225
1.225
1.225
1.225
1.225
1.225
1.225
1.225
1.225
1.225
1.225
1.225
1.225
1.225
1.225
1.225
1.225
1.225
1.225
1.225
1.225
1.225
1.225
1.225
1.225
1.225
1.225
1.225
1.225
1.225
1.225
1.225
1.225
1.225
1.225
1.225
1.225
1.225
1.225
1.225
1.225
1.225
1.225
1.225
1.225
1.225
1.225
1.225
1.225
1.225
1.225
1.225
1.225
1.225
1.225
1.225
1.225
1.225
1.225
1.225
1.225
1.225
1.225
1.225
1.225
1.225
1.225
1.225
1.225
1.225
1.225
1.225
1.225
1.225
1.225
1.225
1.225
1.225
1.225
1.225
1.225
1.225
1.225
1.225
1.225
1.225
1.225
1.225
1.225
1.225
1.225
1.225
1.225
1.225
1.225
1.225
1.225
1.225
1.225
1.225
1.225
1.225
1.225
1.225
1.225
1.225
1.225
1.225
1.225
1.225
1.225
1.225
1.225
1.225
1.225
1.225
1.225
1.225
1.225
1.225
1.225
1.225
1.225
1.225
1.225
1.225
1.225
1.225
1.225
1.225
1.225
1.225
1.225
1.225
1.225
1.225
1.225
1.225
1.225
1.225
1.225
1.225
1.225
1.225
1.225
1.225
1.22877
1.22509
1.225
1.225
1.22501
1.22501
1.225
1.225
1.225
1.98436
1.32984
1.22512
1.22523
1.225
1.225
1.225
1.225
1.225
1.225
1.225
1.225
1.225
1.22501
1.22524
1.2252
1.22501
1.225
1.22501
1.225
1.225
1.31429
2.10648
2.0499
2.15936
2.94594
2.95714
2.22017
1.22519
1.23072
1.22971
1.3125
1.22968
1.33016
1.22887
1.225
1.225
1.225
1.225
1.225
1.225
1.225
1.225
1.225
1.225
1.225
1.225
1.225
1.225
1.24718
1.23005
1.22921
1.29778
1.28807
1.22516
1.22818
1.22771
1.22519
1.225
1.225
1.225
1.225
1.225
1.225
1.225
1.225
1.225
1.225
1.225
1.225
1.225
1.225
1.225
1.225
1.225
1.22915
1.22502
1.225
1.225
1.225
1.2251
1.22503
1.22585
1.225
1.22514
1.225
1.225
1.225
1.225
1.225
1.225
1.225
1.225
1.225
1.225
1.225
1.225
1.225
1.225
1.225
2.67367
2.71344
1.225
2.58583
1.23645
2.5579
1.65876
2.41389
2.79474
1.22521
1.22501
1.265
1.22591
1.76208
1.28798
1.22524
1.22591
1.225
1.56502
1.64266
1.92313
1.74358
2.14279
2.80118
0.766721
1.35955
1.37072
1.39146
0.315177
0.373587
1.21695
0.729248
1.01917
0.521909
1.03472
1.90169
1.225
1.225
1.225
1.225
1.225
1.225
1.225
1.225
1.225
1.225
1.225
1.225
1.225
1.225
1.225
1.225
1.225
1.225
1.225
1.225
1.225
1.225
1.225
1.225
1.225
1.225
1.225
1.225
1.225
1.39448
1.28582
1.22571
1.22509
1.23264
1.22503
1.225
1.22523
1.22502
1.22525
1.22501
1.22508
1.22501
1.225
1.225
1.225
1.225
1.225
1.22516
1.22503
1.225
1.22505
1.225
1.225
1.225
1.225
1.225
1.225
1.225
1.22501
1.225
1.22501
1.225
1.225
1.225
1.225
1.225
1.225
1.225
2.01518
1.22678
1.22509
1.225
1.225
1.99192
1.24135
1.25397
1.22905
1.22522
1.22563
1.22526
1.225
1.225
1.225
1.26879
2.22735
1.27548
1.74981
1.94513
1.25118
1.30803
1.22504
1.22842
1.22505
1.22565
1.22511
1.22629
1.22502
1.225
1.22518
1.225
1.22502
1.22501
1.22505
1.225
1.225
1.225
1.225
1.225
1.225
1.225
1.225
1.225
1.225
1.2778
2.29812
1.28638
1.7763
2.02128
1.25888
1.32429
1.22656
1.22681
1.22584
1.22828
1.22696
1.22757
1.22627
1.22904
1.23484
1.37054
1.25473
1.22549
1.47004
1.23035
1.22597
1.23756
1.42369
1.26358
1.226
1.52721
1.23339
1.2263
1.22529
1.22501
1.22515
1.22503
1.22538
1.22503
1.22526
1.22504
1.22506
1.22966
1.22513
1.22667
1.22515
1.22681
1.22506
1.225
1.225
1.225
1.225
1.225
1.225
1.225
1.225
1.22503
1.2254
1.22546
1.22501
1.22582
1.22501
1.22501
1.22504
1.2261
1.22567
1.22502
1.22618
1.22504
1.22502
1.225
1.225
1.225
1.225
1.225
1.225
1.225
1.225
1.225
1.22527
1.22501
1.22507
1.22501
1.22507
1.225
1.225
1.225
1.225
1.225
1.225
1.225
1.225
1.225
1.225
1.225
1.225
1.225
1.22501
1.225
1.225
1.225
1.22501
1.225
1.225
1.22501
1.225
1.225
1.225
1.225
1.225
1.225
1.225
1.225
1.225
1.225
1.225
1.225
1.225
1.225
1.225
1.225
1.225
1.225
1.225
1.225
1.225
1.225
1.225
1.225
1.225
1.225
1.225
1.225
1.225
1.225
1.225
1.225
2.30601
3.06189
3.52921
2.83654
2.63471
3.09525
3.31069
1.58214
1.36661
1.2442
1.22503
1.225
1.225
2.45766
3.08583
2.7569
3.53086
1.76161
1.32317
1.24135
1.23207
1.22504
2.59407
2.17289
2.45285
2.348
3.18733
3.59943
3.09273
3.64171
2.98108
3.45751
3.50087
2.94312
2.71475
2.67628
1.46089
3.04022
2.49991
3.09886
2.71145
2.67987
3.04727
2.84993
3.32521
2.51209
3.07648
1.93655
3.00426
2.84159
3.28996
1.90122
2.35939
1.34017
1.26545
2.47519
1.85286
1.26929
1.7304
1.25227
1.54376
1.24287
1.68957
1.25482
1.57148
1.27613
1.3801
1.23257
1.22707
1.39187
1.27507
1.22711
1.23515
1.22538
1.22634
1.22504
1.23553
1.22536
1.22621
1.225
1.225
1.225
1.225
1.225
1.225
1.225
1.225
1.225
1.225
1.225
1.225
1.225
1.225
1.225
1.225
1.225
1.225
1.225
1.24395
1.225
1.225
1.225
1.225
1.225
1.225
1.225
1.225
1.22501
1.225
1.225
1.225
1.225
1.225
1.225
1.225
1.225
1.225
1.225
1.225
1.225
1.225
1.225
1.225
1.225
1.225
1.225
1.225
1.225
1.225
1.225
1.225
1.225
1.225
1.225
1.225
1.225
1.225
1.225
1.225
1.225
1.225
1.225
1.225
1.225
1.225
1.225
1.225
3.18329
2.97283
2.68068
3.23684
1.22915
1.225
1.225
1.22503
1.225
1.70985
1.22514
1.23168
1.225
1.225
1.225
1.225
1.225
1.225
1.225
1.225
1.225
1.225
1.225
1.225
1.225
1.225
1.225
1.225
1.225
1.28274
1.23573
1.225
1.225
1.225
1.225
1.225
1.225
1.225
1.225
1.225
1.225
1.225
1.225
1.225
1.225
1.225
1.225
1.225
1.225
1.225
1.225
1.225
1.225
1.225
1.22735
1.22509
1.22514
1.225
1.225
1.225
1.225
1.225
1.225
1.225
1.225
1.225
1.225
1.225
1.225
1.225
1.225
1.225
1.225
1.225
1.225
1.225
1.225
1.225
1.225
1.225
1.225
1.225
1.22501
1.225
1.225
1.225
1.225
1.225
1.225
1.225
1.225
1.225
1.225
1.225
1.225
1.225
1.225
1.225
1.225
1.225
1.225
1.225
1.225
1.225
1.225
1.225
1.225
1.225
1.225
1.225
1.225
1.225
1.225
1.225
1.225
1.225
1.225
1.225
1.225
1.225
1.225
1.225
1.225
1.225
1.225
1.225
1.225
1.225
1.225
1.225
1.225
1.225
1.225
1.225
1.225
1.225
1.225
1.225
1.225
1.225
1.225
1.225
1.225
1.225
1.225
1.225
1.225
1.225
1.225
1.225
1.225
1.225
1.225
1.225
1.225
1.225
1.225
1.225
1.225
1.225
1.225
1.225
1.225
1.225
1.225
1.225
1.225
1.225
1.225
1.225
1.22611
1.2918
1.22555
1.23399
1.26009
1.22525
1.22732
1.225
1.225
1.225
1.225
1.225
1.225
1.225
1.225
1.225
1.225
1.225
1.225
1.225
1.225
1.225
1.22506
1.225
1.225
1.225
1.22502
1.225
1.225
1.225
1.225
1.225
1.225
1.225
1.225
1.225
1.225
1.225
1.225
1.225
1.225
1.225
1.225
1.225
1.225
1.225
1.225
1.225
1.225
1.225
1.225
1.225
1.225
1.225
1.225
1.225
1.225
1.225
1.225
1.225
1.225
1.225
1.225
1.225
1.225
1.225
1.225
1.225
1.225
1.225
1.225
1.225
1.225
1.225
1.225
1.225
1.225
1.225
1.225
1.225
1.225
1.225
1.225
1.225
1.225
1.225
1.225
1.225
1.225
1.225
1.225
1.225
1.225
1.225
1.225
1.225
1.225
1.225
1.225
1.225
1.225
1.225
1.225
1.225
1.225
1.225
1.225
1.225
1.225
1.225
1.225
1.225
1.225
1.225
1.225
1.225
1.225
1.225
1.225
1.22501
1.22625
1.22511
1.22693
1.22555
1.22505
1.22503
1.225
1.225
1.225
1.225
1.225
1.225
1.225
1.225
1.225
1.225
1.225
1.225
1.22532
1.22501
1.225
1.22508
1.22501
1.225
1.225
1.225
1.225
1.225
1.225
1.225
1.225
1.225
1.225
1.225
1.225
1.22884
1.42876
1.24781
1.50065
1.33162
1.23618
1.23289
1.22503
1.22501
1.22501
1.22506
1.2251
1.22571
1.22532
1.22523
1.22519
1.22669
1.22564
1.225
1.23213
1.22504
1.22502
1.22572
1.28914
1.22728
1.22519
1.24906
1.22717
1.22506
1.225
1.225
1.225
1.225
1.22502
1.225
1.22506
1.225
1.225
1.225
1.225
1.225
1.225
1.225
1.225
1.225
1.225
1.225
1.225
1.225
1.225
1.225
1.225
1.225
1.225
1.225
1.225
1.225
1.225
1.225
1.225
1.225
1.225
1.225
1.225
1.225
1.225
1.225
1.225
1.225
1.225
1.225
1.225
1.225
1.225
1.225
1.225
1.225
1.225
1.225
1.225
1.225
1.225
1.225
1.225
1.225
1.225
1.225
1.225
1.225
1.225
1.225
1.225
1.225
1.225
1.225
1.225
1.225
1.225
1.225
1.225
1.225
1.225
1.225
1.225
1.225
1.225
1.225
1.225
1.225
1.225
1.225
1.225
1.225
1.225
1.225
1.225
1.225
1.225
1.225
1.225
1.225
1.225
1.225
1.225
1.225
1.225
1.225
1.225
1.225
1.225
1.225
1.225
1.225
1.225
1.225
1.22501
1.225
1.22501
1.225
1.225
1.225
1.225
1.225
1.225
1.225
1.225
1.225
1.225
1.225
1.225
1.225
1.225
1.225
1.225
1.225
1.225
1.225
1.225
1.225
1.225
1.225
1.225
1.225
1.225
1.225
1.225
1.225
1.225
1.225
1.225
1.225
1.225
1.225
1.225
1.225
1.225
1.225
1.225
1.225
1.225
1.225
1.225
1.225
1.225
1.225
1.225
1.225
1.225
1.225
1.225
1.225
1.225
1.225
1.225
1.225
1.225
1.225
1.225
1.225
1.225
1.225
1.225
1.225
1.225
1.225
1.225
1.225
1.225
1.225
1.225
1.225
1.225
1.225
1.225
1.225
1.225
1.225
1.225
1.225
1.225
1.225
1.225
1.225
1.225
1.225
1.225
1.225
1.225
1.225
1.225
1.225
1.225
1.225
1.225
1.225
1.225
1.225
1.225
1.225
1.225
1.225
1.225
1.225
1.225
1.225
1.225
1.225
1.225
1.225
1.225
1.225
1.225
1.225
1.225
1.225
1.225
1.225
1.225
1.225
1.225
1.225
1.225
1.225
1.225
1.225
1.225
1.225
1.225
1.225
1.225
1.225
1.225
1.225
1.225
1.225
1.225
1.225
1.225
1.225
1.225
1.225
1.225
1.225
1.225
1.225
1.225
1.225
1.225
1.225
1.225
1.225
1.225
1.225
1.225
1.225
1.225
1.225
1.225
1.225
1.225
1.225
1.225
1.225
1.225
1.225
1.225
1.225
1.225
1.225
1.225
1.225
1.225
1.225
1.225
1.225
1.225
1.225
1.225
1.225
1.225
1.225
1.225
1.225
1.225
1.225
1.225
1.225
1.225
1.225
1.225
1.225
1.225
1.225
1.225
1.225
1.225
1.225
1.225
1.225
1.225
1.225
1.225
1.225
1.225
1.225
1.225
1.225
1.225
1.225
1.225
1.225
1.225
1.225
1.225
1.225
1.225
1.225
1.225
1.225
1.225
1.225
1.225
1.225
1.225
1.225
1.225
1.225
1.225
1.225
1.225
1.225
1.225
1.225
1.225
1.225
1.225
1.225
1.225
1.225
1.225
1.225
1.225
1.225
1.225
1.225
1.225
1.225
1.225
1.225
1.225
1.225
1.225
1.225
1.225
1.225
1.225
1.225
1.225
1.225
1.225
1.225
1.225
1.225
1.225
1.225
1.225
1.225
1.225
1.225
1.225
1.225
1.225
1.225
1.225
1.225
1.225
1.225
1.225
1.225
1.225
1.225
1.225
1.225
1.225
1.225
1.225
1.225
1.225
1.225
1.225
1.225
1.225
1.225
1.225
1.225
1.225
1.225
1.225
1.225
1.225
1.225
1.225
1.225
1.225
1.225
1.225
1.225
1.225
1.225
1.225
1.225
1.225
1.225
1.225
1.225
1.225
1.225
1.225
1.225
1.225
1.225
1.225
1.225
1.225
1.225
1.225
1.225
1.225
1.225
1.225
1.225
1.225
1.225
1.225
1.225
1.225
1.225
1.225
1.225
1.225
1.225
1.225
1.225
1.225
1.225
1.225
1.225
1.225
1.225
1.225
1.225
1.225
1.225
1.225
1.225
1.225
1.225
1.225
1.225
1.225
1.225
1.225
1.225
1.225
1.225
1.225
1.225
1.225
1.225
1.225
1.225
1.225
1.225
1.225
1.225
1.225
1.225
1.225
1.225
1.225
1.225
1.225
1.225
1.225
1.225
1.225
1.225
1.225
1.225
1.225
1.225
1.225
1.225
1.225
1.225
1.225
1.225
1.225
1.225
1.225
1.225
1.225
1.225
1.225
1.225
1.225
1.225
1.225
1.225
1.225
1.225
1.225
1.225
1.225
1.225
1.225
1.225
1.225
1.225
1.225
1.225
1.225
1.225
1.225
1.225
1.225
1.225
1.225
1.225
1.225
1.225
1.225
1.225
1.225
1.225
1.225
1.225
1.225
1.225
1.225
1.225
1.225
1.225
1.225
1.225
1.225
1.225
1.225
1.225
1.225
1.225
1.225
1.225
1.225
1.225
1.225
1.225
1.225
1.225
1.225
1.225
1.225
1.225
1.225
1.225
1.225
1.225
1.225
1.225
1.225
1.225
1.225
1.225
1.225
1.225
1.225
1.225
1.225
1.225
1.225
1.225
1.225
1.225
1.225
1.225
1.225
1.225
1.225
1.225
1.225
1.225
1.225
1.225
1.225
1.225
1.225
1.225
1.225
1.225
1.225
1.225
1.225
1.225
1.225
1.225
1.225
1.225
1.225
1.225
1.225
1.225
1.225
1.225
1.225
1.225
1.225
1.225
1.225
1.225
1.225
1.225
1.225
1.225
1.225
1.225
1.225
1.225
1.225
1.225
1.225
1.225
1.225
1.225
1.225
1.225
1.225
1.225
1.225
1.225
1.225
1.225
1.225
1.225
1.225
1.225
1.225
1.225
1.225
1.225
1.225
1.225
1.225
1.225
1.225
1.225
1.225
1.225
1.225
1.225
1.225
1.225
1.225
1.225
1.225
1.225
1.225
1.225
1.225
1.225
1.225
1.225
1.225
1.225
1.225
1.225
1.225
1.225
1.225
1.225
1.225
1.225
1.225
1.225
1.225
1.225
1.225
1.225
1.225
1.225
1.225
1.225
1.225
1.225
1.225
1.225
1.225
1.225
1.225
1.225
1.225
1.225
1.225
1.225
1.225
1.225
1.225
1.225
1.225
1.225
1.225
1.225
1.225
1.225
1.225
1.225
1.225
1.225
1.225
1.225
1.225
1.225
1.225
1.225
1.225
1.225
1.225
1.225
1.225
1.225
1.225
1.225
1.225
1.225
1.225
1.225
1.225
1.225
1.225
1.225
1.225
1.225
1.225
1.225
1.225
1.225
1.225
1.225
1.225
1.225
1.225
1.225
1.225
1.225
1.225
1.225
1.225
1.225
1.225
1.225
1.225
1.225
1.225
1.225
1.225
1.225
1.225
1.225
1.225
1.225
1.225
1.225
1.225
1.225
1.225
1.225
1.225
1.225
1.225
1.225
1.225
1.225
1.225
1.225
1.225
1.225
1.225
1.225
1.225
1.225
1.225
1.225
1.225
1.225
1.225
1.225
1.225
1.225
1.225
1.225
1.225
1.225
1.225
1.225
1.225
1.225
1.225
1.225
1.225
1.225
1.225
1.225
1.225
1.225
1.225
1.225
1.225
1.225
1.225
1.225
1.225
1.225
1.225
1.225
1.225
1.225
1.225
1.225
1.225
1.225
1.225
1.225
1.225
1.225
1.225
1.225
1.225
1.225
1.225
1.225
1.225
1.225
1.225
1.225
1.225
1.225
1.225
1.225
1.225
1.225
1.225
1.225
1.225
1.225
1.225
1.225
1.225
1.225
1.225
1.225
1.225
1.225
1.225
1.225
1.225
1.225
1.225
1.225
1.225
1.225
1.225
1.225
1.225
1.225
1.225
1.225
1.225
1.225
1.225
1.225
1.225
1.225
1.225
1.225
1.225
1.225
1.225
1.225
1.225
1.225
1.225
1.225
1.225
1.225
1.225
2.74851
3.05152
1.58657
1.22504
1.225
1.225
4.63308
1.22506
1.34463
3.31286
1.225
1.22599
3.19209
1.30363
1.225
1.22508
1.24505
1.225
1.22501
2.32149
1.23933
1.225
1.225
1.22525
1.225
1.225
1.23378
1.32383
1.225
1.225
1.225
1.225
1.225
1.23397
1.225
1.225
1.225
1.225
1.225
1.225
1.225
1.225
1.225
1.225
1.225
1.225
1.225
1.225
1.225
1.225
1.225
1.225
4.68238
3.45175
3.5333
3.68962
3.45297
3.3527
4.02319
1.22502
1.22576
1.22531
1.23777
1.22737
1.22594
1.25626
4.46529
3.65502
3.39803
2.66584
1.86785
2.97596
1.48978
1.22504
1.225
1.225
1.22664
1.22501
1.22512
1.22512
1.69033
1.6163
2.32047
1.22797
1.30059
1.24477
1.24332
1.225
1.225
1.225
1.225
1.225
1.22501
1.225
1.2626
1.34884
1.44779
1.22642
1.23024
1.23484
1.22573
1.225
1.225
1.225
1.225
1.225
1.225
1.225
1.22694
1.23278
1.2762
1.22506
1.22705
1.22527
1.22551
1.225
1.225
1.225
1.225
1.225
1.225
1.225
1.22742
1.22503
1.2253
1.22501
1.22501
1.22508
1.225
1.225
1.225
1.225
1.225
1.225
1.225
1.225
1.22502
1.225
1.225
1.225
1.225
1.225
1.225
1.225
1.225
1.225
1.225
1.225
1.225
1.225
1.225
1.225
1.225
1.225
1.225
1.225
1.225
1.225
1.22501
1.22501
1.225
1.225
1.225
1.225
1.225
1.225
1.225
1.225
1.225
1.225
1.225
1.225
1.225
1.225
1.225
1.225
1.225
1.225
1.225
1.225
1.225
1.225
1.225
1.225
1.73926
2.52963
1.26858
1.28417
2.16674
1.24642
2.07594
1.33306
1.23668
1.2566
1.22524
1.52816
1.22837
1.2344
1.22509
1.22772
1.22501
1.22502
1.22557
1.22564
1.225
1.22504
1.22501
1.22518
1.225
1.22535
1.225
1.22502
1.225
1.22507
1.225
1.225
1.22501
1.22502
1.225
1.225
1.225
1.225
1.225
1.225
1.225
1.225
1.225
1.225
1.225
1.225
1.225
1.225
1.225
1.225
1.225
1.225
1.225
1.225
1.225
1.225
1.225
1.225
1.225
1.225
1.225
1.225
1.225
1.225
1.225
1.225
1.225
1.225
1.225
1.225
1.225
1.225
1.225
1.225
1.225
1.225
1.225
1.225
1.225
1.225
1.225
1.225
1.225
1.225
1.225
1.225
1.225
1.225
1.225
1.225
1.225
1.225
1.225
1.225
1.225
1.225
1.225
1.225
1.225
1.225
1.225
1.225
1.225
1.225
1.225
1.225
1.225
1.225
1.225
1.225
1.225
1.225
1.225
1.225
1.225
1.225
1.225
1.225
1.225
1.225
1.225
1.225
1.225
1.225
1.225
1.225
1.225
1.225
1.225
1.225
1.225
1.225
1.225
1.225
1.225
1.225
1.225
1.225
1.225
1.225
1.225
1.225
1.225
1.225
1.225
1.225
1.225
1.225
1.225
1.225
1.225
1.225
1.225
1.225
1.225
1.225
1.225
1.225
1.225
1.225
1.225
1.225
1.225
1.225
1.225
1.225
1.225
1.225
1.225
1.225
1.225
1.225
1.225
1.225
1.225
1.225
1.225
1.225
1.225
1.225
1.225
1.225
1.225
1.225
1.225
1.225
1.225
1.225
1.225
1.225
1.225
1.225
1.225
1.225
1.225
1.225
1.225
1.225
1.225
1.225
1.225
1.225
1.225
1.225
1.225
1.225
1.225
1.225
1.225
1.225
1.225
1.225
1.225
1.225
1.225
1.225
1.225
1.225
1.225
1.225
1.225
1.225
1.225
1.225
1.225
1.225
1.225
1.225
2.39155
1.63818
3.11035
2.79586
1.54557
1.23216
2.86858
1.94129
1.22503
1.23036
3.85063
2.97709
3.65182
4.2215
3.94124
5.18328
3.42287
1.91017
2.33991
2.60621
3.53354
2.93912
3.07283
3.16034
1.27559
1.40727
1.9813
2.04951
2.85781
2.71103
2.67491
1.28622
1.22588
1.23368
1.43742
1.39613
2.07934
1.24894
1.22553
1.225
1.22506
1.22509
1.23931
1.22674
1.22579
1.225
1.225
2.92209
1.49202
1.22503
1.225
1.93556
2.62158
3.34753
2.32216
2.67997
1.225
1.225
1.225
1.225
1.225
1.225
1.225
1.225
1.225
1.225
1.225
1.22524
1.225
1.225
1.225
1.225
1.225
1.225
1.225
1.225
1.225
1.22503
1.225
1.225
1.225
1.225
1.225
1.225
1.225
1.225
1.225
1.225
2.18091
2.57099
2.9476
2.80731
2.70773
2.31221
2.49733
2.33879
1.84113
2.0792
2.81769
2.83215
2.89377
2.68277
2.84396
2.45256
2.97061
2.72894
1.98512
2.73206
3.43629
2.75059
2.68264
2.7319
1.45482
1.80388
2.17004
1.68918
1.88285
2.46258
3.37123
3.17527
3.31348
2.97648
3.0645
2.73568
2.74474
2.81313
2.52331
2.55829
2.75893
2.71538
2.75071
1.94091
2.32196
2.35033
1.93509
1.76754
2.51412
2.51729
1.44882
1.25963
1.25601
0.553956
1.00982
0.458482
0.668213
0.880248
0.260157
0.452262
0.304819
0.666822
0.552359
0.17788
0.30176
0.156641
0.247485
0.95349
1.35719
1.33064
1.33435
1.04776
0.799047
0.893975
0.403247
0.553338
0.6344
0.324131
0.186855
0.160865
0.256233
1.10412
1.40521
1.00566
1.43815
1.27064
1.4792
1.25181
1.03642
0.780676
0.650138
1.35624
1.1928
1.06404
0.905833
0.815421
0.28349
0.584808
0.785509
0.939779
0.725876
0.497881
1.11694
1.42266
1.30219
1.35085
1.38083
1.33693
1.19675
0.646126
0.996511
1.03576
1.12451
1.12588
0.873201
0.917148
1.18582
0.800258
1.0107
1.24856
1.07142
1.08395
0.92604
0.883935
1.11319
1.22106
1.17656
1.28922
1.00142
1.09775
2.69093
1.3962
1.93471
1.22703
1.40853
2.543
2.721
1.91687
2.02511
1.6993
2.01741
1.83171
1.60578
1.68826
1.55924
1.74965
1.37275
1.85396
1.98237
1.60272
1.45128
1.05899
2.46019
1.43823
3.10334
1.54722
2.52592
2.7341
1.65162
2.36958
1.88128
2.46427
2.18935
2.34347
2.31213
3.06231
2.92901
2.04949
1.7553
2.19133
2.02766
3.20243
2.62723
3.40229
2.35672
3.17316
2.21948
2.77825
2.89062
2.82339
2.60156
2.97563
2.93254
2.86706
2.51737
3.05918
1.70244
1.20484
0.494215
0.999672
1.30923
1.34734
1.49424
0.979981
1.46168
1.23495
0.8786
1.41466
2.19166
2.28713
1.25908
2.76836
1.22501
1.22654
2.72345
1.225
1.22535
1.22775
1.225
1.2252
1.22532
1.231
1.29505
1.22515
1.22929
1.22757
1.225
1.22501
1.22501
1.22521
1.53115
1.58569
1.24455
2.64405
1.84107
3.01647
1.8051
1.84637
2.73008
1.22737
1.89929
1.26793
1.27626
1.225
1.225
1.22566
1.225
1.225
1.225
1.225
1.225
1.225
1.225
1.225
1.225
1.24322
1.22508
1.22723
4.79449
4.8813
2.25934
2.73589
4.71397
3.03849
3.23828
4.24707
2.47698
2.67645
4.02619
5.07786
3.69025
3.93113
4.93025
3.89913
3.27777
5.36378
3.2444
1.9977
2.14933
3.03778
3.88469
3.20756
2.59958
4.74848
4.57182
3.46723
5.12462
3.20393
3.99107
2.81233
2.91858
3.7376
3.29266
2.85582
3.57427
2.95311
2.68708
2.9406
0.93947
1.1654
0.797619
1.16758
1.31997
1.31259
1.113
0.834236
0.594707
0.490156
1.1741
1.03669
0.928828
0.78833
0.132037
0.716851
1.95522
3.00998
1.23312
1.22537
1.23262
1.31969
1.23018
1.37696
1.36667
2.41118
2.17983
2.23208
3.07251
1.32485
0.163375
0.124215
0.12734
0.263066
0.282656
0.139209
0.134964
0.138185
0.139056
0.137602
0.135639
0.136297
0.130231
0.131133
0.439257
0.875344
0.711575
0.132271
0.672016
0.196457
0.133193
0.133124
0.13592
0.132518
0.134168
0.134412
0.127861
0.122468
0.15974
0.124215
0.144049
0.127425
0.125472
0.121865
0.129622
0.120508
0.138214
0.151665
0.132962
0.131291
0.120884
0.12806
0.125276
0.114515
0.12042
0.112541
0.114361
0.115931
0.132387
0.12813
0.12468
0.146531
0.11874
0.123259
0.122637
0.125452
0.121062
0.153027
0.140182
0.12403
0.129603
0.121399
0.124416
0.220684
0.211093
0.248645
0.55386
0.457898
0.13962
0.154022
0.191011
0.384204
0.200371
0.113254
0.129347
0.132215
0.190853
1.77266
2.80628
2.5014
1.13872
1.52185
0.821114
0.461108
0.226283
0.264002
0.215784
0.461317
0.537869
0.141567
0.154903
0.227811
0.245796
0.149407
0.118141
0.13678
0.142837
0.20484
0.123844
0.287308
0.143102
0.324657
0.152609
0.220064
0.505956
0.409138
0.884821
0.655276
0.48336
0.209046
0.409836
0.714874
0.444788
0.648019
0.420067
0.692764
0.849718
0.205154
0.394478
0.571212
0.80189
0.761509
0.804304
0.843414
0.980669
0.981867
1.10786
1.31222
0.99891
1.32552
1.14296
1.32818
1.23729
0.945705
0.827089
0.516021
0.564813
0.257915
0.443973
0.751544
0.630711
0.679143
0.86934
0.844751
1.00689
1.05337
1.14414
1.36762
1.55088
1.38446
1.43257
1.56511
1.65376
1.46362
1.31972
1.25366
1.10183
1.60228
1.36897
1.48474
1.23872
0.9642
0.725338
0.87943
0.925039
1.01385
1.01595
1.0968
1.0206
1.09947
0.96158
0.993432
0.850692
0.669076
0.900914
1.40669
1.33768
1.07796
0.904062
1.01199
1.19905
1.25881
0.973317
1.21084
1.30459
1.06952
0.978222
1.12157
1.21809
1.3797
1.39058
1.27776
1.35398
1.34776
1.40077
1.44633
1.22408
1.04047
1.04147
1.38863
1.1587
1.37195
1.14396
1.27934
1.84717
1.3589
1.91613
1.40508
1.47246
1.99866
1.63892
1.44642
1.47548
1.52573
1.51918
1.67867
1.74984
1.75214
1.35323
1.36119
1.6441
1.29321
1.63027
1.29492
1.34991
1.15376
1.14011
1.26255
1.07884
1.51662
1.25245
1.54596
2.07169
1.53538
1.29503
1.23115
1.89367
1.43461
1.49314
1.50309
1.24237
1.3926
1.18123
1.39715
1.71761
1.44717
1.30537
0.983036
1.20576
1.10782
1.12805
1.23232
1.17137
1.27487
1.08021
1.43917
1.18124
1.62441
1.29842
2.1246
2.11086
2.31619
1.55606
1.72533
1.44107
1.56733
1.20957
1.32053
1.71451
1.45542
1.1678
1.08879
1.33259
1.63992
1.43799
1.49745
1.6567
1.77523
1.49794
1.57673
1.8628
1.60092
1.42123
1.71642
1.34913
1.94556
1.48303
2.65332
2.20614
2.10412
1.73114
1.60654
1.96667
1.86394
1.64745
2.51037
2.16487
1.77531
2.09341
1.76657
1.96272
2.10918
2.21271
2.37677
1.90371
1.7781
1.55217
1.63676
2.37723
1.99063
1.99869
1.49606
1.50682
1.75894
1.74716
2.11549
1.35563
0.329526
0.172518
1.32584
1.31507
0.603621
1.3064
0.17935
0.178671
0.28762
0.179407
0.291021
0.290145
0.289756
0.16977
1.30713
1.32267
0.613926
0.620305
0.624201
0.635657
1.32543
0.406893
0.179014
0.22592
0.16724
0.292816
0.313965
0.174897
0.305477
0.370874
0.204358
0.171076
0.288797
0.307013
0.173364
1.33647
0.694556
0.753515
1.34163
0.645367
0.670998
1.33854
0.65751
1.32114
0.717366
1.31629
0.631614
0.660309
1.33122