/*--------------------------------*- C++ -*----------------------------------*\
  =========                 |
  \\      /  F ield         | OpenFOAM: The Open Source CFD Toolbox
   \\    /   O peration     | Website:  https://openfoam.org
    \\  /    A nd           | Version:  9
     \\/     M anipulation  |
\*---------------------------------------------------------------------------*/
FoamFile
{
    format      ascii;
    class       volScalarField;
    location    "0.00195";
    object      rhoE;
}
// * * * * * * * * * * * * * * * * * * * * * * * * * * * * * * * * * * * * * //

dimensions      [1 -1 -2 0 0 0 0];

internalField   nonuniform List<scalar> 
17128
(
597686
1.32385e+06
576193
1.42407e+06
774702
1.18236e+06
1.48593e+06
1.1096e+06
1.18463e+06
710444
2.18569e+06
783158
1.10633e+06
1.0246e+06
1.24692e+06
1.14917e+06
2.29786e+06
1.44704e+06
770156
689751
1.4117e+06
607595
1.54418e+06
814439
1.66658e+06
1.54497e+06
643870
592765
575913
813109
856547
832361
741091
724733
744469
972702
1.06175e+06
922706
722916
974172
629398
535694
583843
825021
1.03648e+06
729919
801763
724420
1.19116e+06
1.49579e+06
855180
759765
882628
1.12138e+06
620102
611053
591417
678462
665416
681105
697081
1.13858e+06
898297
828379
880041
1.08731e+06
779880
1.08355e+06
634827
851006
870910
967758
1.01538e+06
764054
734414
631191
667358
651688
697317
731864
714594
714806
560916
550857
540331
599941
627117
640382
611998
733095
759375
756551
774387
772505
810630
814231
715625
752095
752769
775613
771774
818691
827398
703797
1.0812e+06
1.33791e+06
670548
959324
712621
1.3174e+06
1.22747e+06
910916
924260
1.1241e+06
1.16893e+06
903056
847336
814086
757963
739347
751872
839435
823094
770490
545570
526371
534971
582507
592352
596784
609095
664338
871658
1.11467e+06
1.06478e+06
745559
902478
1.48361e+06
611946
586138
565630
655993
652908
629326
674975
646191
573349
637198
700238
633224
650574
717540
784322
1.94243e+06
958202
775513
1.11269e+06
922093
1.71221e+06
672944
712216
696213
748927
733543
756075
767980
753292
728470
755358
785118
808902
816199
794276
765045
793799
847060
846989
833493
779584
782108
769152
666323
696117
708447
758880
781295
680911
712824
758981
775751
787074
844110
807946
870774
761597
734917
757172
825342
821643
838663
805898
861228
886087
867236
943204
957798
938093
962288
552183
590617
564180
646984
618249
633605
665720
826026
1.092e+06
1.01166e+06
825754
722477
1.16266e+06
1.32278e+06
1.09204e+06
1.34235e+06
1.03919e+06
1.04757e+06
2.073e+06
1.17241e+06
1.35471e+06
1.0904e+06
797938
787675
949667
1.29298e+06
997112
1.41372e+06
1.29917e+06
1.65274e+06
908975
1.12524e+06
1.2287e+06
1.87469e+06
1.6852e+06
834978
933647
839611
982901
882354
892020
998841
613346
647099
662457
683042
698652
728283
720168
1.37213e+06
855698
981624
1.17781e+06
1.52798e+06
837450
1.03301e+06
723819
727961
819683
782605
797614
701201
743658
602672
690356
663862
676145
779465
743763
710037
880420
892679
874012
949056
971385
954599
967238
937223
1.23933e+06
2.27662e+06
1.22424e+06
825298
2.05395e+06
920568
861032
949510
847473
904801
1.05037e+06
923413
1.0203e+06
649698
749197
662873
754659
669193
686017
778982
814067
788152
820880
902109
866870
894879
876855
736233
755197
722966
784166
821644
818470
791398
824191
711585
728270
554316
547361
508353
798140
511067
705084
523180
859275
571386
527984
681794
585840
817800
531814
515776
533491
615992
608342
622084
630694
576021
572070
552381
636037
660639
650644
645288
522114
524010
519763
577811
585366
594925
581398
542836
531146
550178
572373
582789
571919
580877
534307
532846
527771
605021
591527
615421
585593
655669
595018
666264
696716
625390
622834
693006
710740
780237
696635
706853
805985
787766
720876
524387
532045
535569
574706
571873
580078
583075
716849
805088
745023
814989
727585
796286
732446
637145
576548
644412
621245
691598
623805
690183
737222
638635
661367
669116
711478
744009
643415
677098
759593
656113
718837
685837
751421
648847
620436
691379
628134
689071
623797
631574
699426
737888
745291
671453
674704
826437
746287
747770
636544
698506
628545
637215
726755
646940
710717
680256
776398
763477
839565
690461
758511
752983
744909
839927
802629
877661
838014
907939
956940
1.28948e+06
954341
941450
1.67626e+06
1.93496e+06
1.06933e+06
1.14321e+06
772779
782677
793296
843670
859352
889443
874010
807782
865765
797586
820994
892598
891978
826663
679454
638702
650543
739033
750380
719845
734589
707710
781521
887409
733015
925203
835427
808385
836948
797941
810348
910644
904817
920780
889210
886905
907854
894254
974422
960117
967051
977347
624622
646339
683070
666645
705536
726350
753564
993062
863824
885713
898222
994207
1.01178e+06
877051
687541
735667
695811
764624
814816
808157
764012
1.48797e+06
1.716e+06
2.14978e+06
328764
2.21588e+06
1.44008e+06
848797
1.0059e+06
1.09247e+06
950923
1.05073e+06
913381
989410
1.15072e+06
1.01511e+06
1.09314e+06
1.02845e+06
1.0816e+06
1.08948e+06
1.01013e+06
1.03184e+06
761611
848661
769345
801946
896852
885384
802502
690076
684308
665439
782439
764310
753733
778976
914516
917427
1.07216e+06
1.02163e+06
936774
1.03699e+06
894154
729211
786232
695639
716661
861640
816353
754951
918528
914381
904045
978837
998882
999854
983840
826429
847852
861136
924724
933227
949512
950403
793357
839279
837885
859897
859935
910969
907032
1.02085e+06
1.1125e+06
1.03709e+06
1.10035e+06
1.02671e+06
1.09952e+06
1.03527e+06
807125
1.09369e+06
1.68023e+06
1.11342e+06
1.52194e+06
1.381e+06
2.32633e+06
864946
814000
823826
930153
971735
915231
983828
851213
924340
975260
887932
889700
927699
852971
726462
773080
708291
825530
752495
804534
882939
760341
770823
787531
857880
870954
883788
899316
1.68555e+06
859790
1.08583e+06
2.0617e+06
2.27401e+06
1.0937e+06
1.50806e+06
766593
891531
929526
974266
877829
844784
808512
849494
886753
884757
923065
921410
964174
960565
888509
865163
929004
950179
1.01953e+06
994612
1.10006e+06
989609
1.09714e+06
1.07649e+06
968095
1.08707e+06
981567
979633
905175
875719
879843
972048
1.02446e+06
983212
1.00345e+06
692243
775473
716864
836677
777494
810386
876835
802072
803936
825921
909987
887966
920373
947890
829393
936955
842646
1.07283e+06
952402
970530
1.09523e+06
747699
709023
807149
741453
841539
813245
860068
782399
848245
836067
873255
859039
918395
940310
990571
1.35001e+06
2.2714e+06
2.09532e+06
1.20793e+06
2.24953e+06
1.89472e+06
950016
1.12158e+06
967906
1.01096e+06
1.21078e+06
1.19225e+06
995934
999643
1.11891e+06
1.01338e+06
1.1151e+06
1.01204e+06
1.10086e+06
994420
842148
951263
986766
907162
890293
930898
850782
658794
729315
672568
844141
756154
773901
868705
770211
915829
801502
926745
819065
856718
979759
833617
892584
879919
933193
918226
971111
995674
888186
1.3731e+06
1.04004e+06
1.40207e+06
1.33811e+06
1.21972e+06
787721
1.00834e+06
1.11075e+06
954492
1.04063e+06
1.34132e+06
1.23064e+06
1.10842e+06
823919
985530
839499
1.02581e+06
831794
852500
1.06181e+06
1.13091e+06
1.04001e+06
1.03454e+06
1.0479e+06
1.14684e+06
1.15745e+06
1.04792e+06
1.06589e+06
1.13149e+06
1.15623e+06
1.24378e+06
1.2742e+06
1.38664e+06
1.42984e+06
854823
855119
891374
938076
973367
983052
1.02686e+06
941081
970047
974850
1.02684e+06
1.03331e+06
1.08059e+06
1.06903e+06
861213
886648
987910
995820
1.17223e+06
1.02954e+06
1.12753e+06
888897
957345
891437
974721
1.03989e+06
1.05406e+06
965862
917742
980749
984740
1.05203e+06
1.05466e+06
1.15069e+06
1.16866e+06
713448
752177
690465
797959
958700
830982
905142
1.03666e+06
932942
938607
1.00081e+06
1.09626e+06
1.11354e+06
990453
888305
1.02413e+06
859864
881209
1.18501e+06
921959
1.11411e+06
1.14289e+06
1.03761e+06
1.02815e+06
1.0504e+06
1.20811e+06
1.17494e+06
1.06866e+06
927661
989598
930137
1.02169e+06
1.08091e+06
1.09605e+06
1.01245e+06
1.45336e+06
2.12757e+06
1.63905e+06
2.04475e+06
2.14609e+06
1.83903e+06
1.55666e+06
831096
826492
761988
867438
1.04121e+06
942232
953921
781092
841064
784024
961623
890579
925669
1.02131e+06
1.12953e+06
1.24162e+06
1.19118e+06
1.38516e+06
1.31936e+06
1.49582e+06
1.59071e+06
938686
1.00689e+06
982100
1.07518e+06
1.04558e+06
1.09951e+06
1.13615e+06
843650
876216
903863
921759
953557
980213
1.04125e+06
1.91015e+06
1.27338e+06
1.90963e+06
1.11037e+06
641871
1.72245e+06
1.67244e+06
1.06956e+06
1.44115e+06
1.16072e+06
1.33817e+06
1.29388e+06
1.06262e+06
1.15039e+06
1.07075e+06
1.24609e+06
1.09589e+06
1.18072e+06
1.19509e+06
1.10561e+06
1.06576e+06
950113
992362
859776
922010
1.21188e+06
1.06759e+06
1.02306e+06
990849
941549
875883
921556
1.14016e+06
997113
1.0541e+06
1.05468e+06
972643
947675
1.01643e+06
1.17765e+06
1.13628e+06
1.04878e+06
917313
969852
897700
988516
1.10908e+06
1.07273e+06
1.01794e+06
892270
989476
936074
1.06783e+06
1.01642e+06
1.0799e+06
1.14324e+06
1.36096e+06
1.14757e+06
1.3846e+06
872433
1.32323e+06
1.39051e+06
1.64417e+06
869060
1.31389e+06
1.25459e+06
1.41682e+06
1.47889e+06
1.71527e+06
1.60848e+06
1.86023e+06
1.03686e+06
1.15381e+06
1.01083e+06
1.06355e+06
1.28751e+06
1.09688e+06
1.2448e+06
1.00309e+06
1.11926e+06
1.00792e+06
1.06457e+06
1.17278e+06
1.19191e+06
1.05362e+06
1.1302e+06
975318
990659
1.18937e+06
1.01914e+06
1.03798e+06
1.21252e+06
743793
884861
784277
1.03552e+06
877635
944603
1.14039e+06
1.1613e+06
1.20967e+06
1.19107e+06
1.49955e+06
1.48012e+06
1.52948e+06
1.53344e+06
1.01216e+06
930200
1.02667e+06
1.18905e+06
1.07927e+06
1.20678e+06
1.35448e+06
1.00284e+06
957187
935456
1.03668e+06
1.15698e+06
1.1171e+06
1.06973e+06
1.02843e+06
1.08198e+06
963856
1.23288e+06
1.07351e+06
1.12922e+06
1.31361e+06
1.01262e+06
1.0835e+06
1.02197e+06
1.14224e+06
1.19744e+06
1.21944e+06
1.12573e+06
904262
924673
969393
979568
1.03117e+06
1.04272e+06
1.11688e+06
779202
884442
854520
772411
864239
969474
1.01622e+06
1.72068e+06
1.81093e+06
371591
1.02722e+06
2.20586e+06
1.04638e+06
356923
929774
1.27035e+06
990824
1.26522e+06
981271
1.06715e+06
1.34002e+06
1.07862e+06
1.49642e+06
1.19933e+06
1.44388e+06
1.17119e+06
1.32381e+06
1.70874e+06
1.08141e+06
1.27327e+06
1.15723e+06
1.25852e+06
1.21754e+06
1.10804e+06
1.12299e+06
1.13897e+06
1.04542e+06
1.01753e+06
1.08172e+06
1.26376e+06
1.21712e+06
1.11762e+06
976212
919906
1.06481e+06
1.03442e+06
1.16e+06
1.21747e+06
1.33005e+06
1.29953e+06
1.26475e+06
1.2347e+06
1.5981e+06
1.62112e+06
1.68508e+06
1.57592e+06
1.07868e+06
1.18414e+06
1.15265e+06
1.32251e+06
1.17408e+06
1.2073e+06
1.0631e+06
1.06955e+06
1.10421e+06
1.03692e+06
1.16609e+06
1.29875e+06
1.24784e+06
1.20921e+06
1.05277e+06
1.05283e+06
1.12822e+06
1.12677e+06
1.21822e+06
1.19889e+06
1.30742e+06
1.17452e+06
1.08261e+06
905345
934109
1.32793e+06
1.2101e+06
1.12378e+06
1.3599e+06
1.30814e+06
1.11944e+06
1.14339e+06
1.76578e+06
1.39358e+06
1.34248e+06
1.06973e+06
1.27456e+06
1.11045e+06
1.34319e+06
1.13946e+06
1.19269e+06
1.41531e+06
1.31305e+06
1.13925e+06
1.15366e+06
1.21642e+06
1.37305e+06
1.40367e+06
1.19687e+06
990889
902300
989417
1.14667e+06
1.02998e+06
1.13234e+06
1.27549e+06
1.0109e+06
1.04408e+06
954118
1.16882e+06
1.06781e+06
1.14127e+06
1.2572e+06
1.01699e+06
1.23888e+06
1.08392e+06
1.2459e+06
1.10273e+06
1.18261e+06
1.35508e+06
996432
1.33224e+06
1.2623e+06
1.22327e+06
1.08411e+06
1.15668e+06
1.11312e+06
1.19091e+06
1.08132e+06
1.07161e+06
1.28672e+06
1.57746e+06
1.48598e+06
1.3432e+06
1.08186e+06
1.15122e+06
1.01722e+06
1.19812e+06
1.55119e+06
1.41835e+06
1.28237e+06
999729
1.16545e+06
1.06626e+06
1.22393e+06
1.12703e+06
1.21522e+06
1.33021e+06
761838
536169
1.2971e+06
926670
770244
1.36459e+06
498480
679117
700383
1.35828e+06
669035
858240
1.37245e+06
1.28735e+06
1.07721e+06
869130
1.30541e+06
507914
567805
550609
561691
579022
631067
644467
520498
595095
576478
613048
594069
662626
686067
637546
581684
556193
619054
649517
717191
758168
889609
1.36444e+06
1.13126e+06
1.19799e+06
1.21152e+06
1.35932e+06
482186
615876
716831
628965
837773
714975
731878
861740
845924
664698
822838
983788
753106
771529
1.01617e+06
653324
709438
613634
737114
687985
812646
886999
724629
698819
879702
797888
1.12724e+06
834212
1.06367e+06
669143
739594
646543
755510
948796
787365
897387
658585
483078
447423
676449
636410
462738
450688
611881
623331
604237
522785
866387
540508
521528
474966
705975
650597
470296
422109
510784
429733
517214
464521
472643
481441
476174
438297
527939
522553
482013
492683
499598
459073
488309
535748
548712
506424
524930
425023
459081
432845
496575
467741
476583
506292
560029
618881
566161
571266
513839
522735
581390
453493
469956
442454
487628
534619
500832
518974
578768
626591
571952
533284
609086
545925
593758
622708
697693
890474
962770
706255
911239
1.41085e+06
538720
496010
516232
593637
567783
549172
579994
499845
486223
467591
554685
517745
539747
580287
589032
671070
605087
629130
562406
584341
655303
553373
582639
519706
529817
636558
594341
564626
596750
555993
567707
627089
669355
618299
665324
583136
510300
549016
567755
652052
612361
602643
628018
734692
698799
612739
731318
688813
648561
542637
597976
628127
654001
558383
609352
579403
621842
652247
578600
604543
744805
682983
652185
793170
705170
785271
649619
646340
721546
722643
577619
624854
675682
701129
645408
697485
763007
780605
840203
746556
785762
693077
748274
857697
637185
772543
739171
796464
722055
690426
677710
991487
805944
759224
1.20381e+06
885365
956925
1.28352e+06
737796
812029
698865
1.02287e+06
831101
891456
1.12433e+06
845431
819161
738276
743067
844729
677103
761649
765935
801561
702744
831656
929619
993535
1.14631e+06
1.11323e+06
803137
965372
839940
728024
792066
934082
885208
1.10576e+06
1.03375e+06
920485
807328
818022
957573
1.2087e+06
1.11117e+06
886671
914075
1.3641e+06
1.15029e+06
1.24073e+06
1.06763e+06
949764
789180
977164
1.35231e+06
1.24526e+06
1.09908e+06
960585
1.18107e+06
870146
1.05527e+06
1.37835e+06
1.34651e+06
1.18283e+06
1.21008e+06
1.38634e+06
1.08075e+06
1.1844e+06
1.4122e+06
1.39461e+06
1.3146e+06
1.34656e+06
1.21802e+06
1.17641e+06
1.24404e+06
1.53863e+06
1.44891e+06
1.29402e+06
976564
1.24646e+06
1.30049e+06
1.33673e+06
1.0382e+06
1.25489e+06
1.18037e+06
915528
839038
969512
1.0422e+06
1.35288e+06
1.25904e+06
1.17532e+06
1.09916e+06
1.28127e+06
1.35444e+06
1.24229e+06
1.19817e+06
1.23377e+06
1.13772e+06
1.63386e+06
1.30667e+06
1.26485e+06
1.43075e+06
1.76414e+06
1.84392e+06
1.5025e+06
1.13757e+06
1.25838e+06
1.20554e+06
1.40521e+06
1.28402e+06
1.22888e+06
1.12069e+06
978403
1.20266e+06
1.06626e+06
1.30073e+06
1.13224e+06
1.23642e+06
1.44672e+06
1.2684e+06
1.32224e+06
1.36804e+06
1.2042e+06
1.28145e+06
955070
1.01297e+06
1.17732e+06
1.51023e+06
1.46584e+06
1.84306e+06
1.22262e+06
1.44251e+06
1.39378e+06
1.39507e+06
1.54737e+06
1.52534e+06
1.65668e+06
1.78219e+06
1.87091e+06
1.66698e+06
1.21989e+06
1.33891e+06
1.16002e+06
1.25813e+06
1.63826e+06
1.51032e+06
1.33798e+06
1.83808e+06
2.14514e+06
1.73363e+06
1.93724e+06
2.06487e+06
2.00555e+06
2.07647e+06
1.09754e+06
1.36958e+06
1.18199e+06
1.34751e+06
1.17984e+06
1.28089e+06
1.50306e+06
1.25135e+06
1.25851e+06
1.11691e+06
1.33155e+06
1.56378e+06
1.5204e+06
1.8439e+06
260175
294527
1.39959e+06
267246
385750
299316
254367
1.60213e+06
2.10486e+06
1.65528e+06
2.07552e+06
1.82751e+06
1.875e+06
2.07784e+06
1.16062e+06
1.44676e+06
1.37345e+06
1.30757e+06
1.31552e+06
1.25694e+06
1.20325e+06
1.35325e+06
1.74853e+06
1.56186e+06
1.96447e+06
1.77492e+06
2.00508e+06
2.1155e+06
1.12486e+06
1.31376e+06
1.21272e+06
1.38918e+06
1.28336e+06
1.41666e+06
1.56061e+06
963144
934439
826694
1.37128e+06
1.11734e+06
945721
1.1506e+06
1.47833e+06
1.12796e+06
1.22846e+06
1.00733e+06
962845
1.1269e+06
1.22739e+06
1.04654e+06
991800
1.2037e+06
1.45301e+06
1.49644e+06
1.15051e+06
1.25927e+06
1.41682e+06
1.26989e+06
973280
1.01861e+06
850885
1.07441e+06
1.32389e+06
1.21074e+06
1.27401e+06
1.00269e+06
1.2991e+06
1.07443e+06
1.01779e+06
878322
1.30908e+06
1.33673e+06
1.12359e+06
1.22511e+06
1.27633e+06
1.35639e+06
1.35227e+06
1.63215e+06
1.45301e+06
1.29303e+06
1.49839e+06
2.14611e+06
1.73764e+06
1.9485e+06
1.29714e+06
1.49458e+06
1.72802e+06
1.37119e+06
1.40339e+06
1.53593e+06
1.27194e+06
1.15981e+06
1.48875e+06
1.25348e+06
1.72083e+06
1.38524e+06
1.51344e+06
1.92803e+06
1.60144e+06
1.56458e+06
1.28188e+06
1.35758e+06
2.15646e+06
1.72053e+06
1.694e+06
1.22017e+06
1.21557e+06
1.09419e+06
1.25202e+06
1.66186e+06
1.39835e+06
1.43963e+06
1.20392e+06
1.29427e+06
1.10361e+06
1.58106e+06
1.41565e+06
1.45181e+06
1.47448e+06
1.4891e+06
1.42955e+06
1.59442e+06
1.72387e+06
1.93552e+06
1.82982e+06
2.14405e+06
1.36681e+06
1.38183e+06
1.36226e+06
1.08557e+06
1.24216e+06
1.31607e+06
1.39618e+06
1.38863e+06
1.40476e+06
1.22308e+06
1.10064e+06
955484
1.25181e+06
1.37836e+06
1.29292e+06
1.80741e+06
1.43737e+06
1.71263e+06
1.38572e+06
1.56954e+06
2.00029e+06
1.33042e+06
1.72046e+06
1.80822e+06
1.53371e+06
1.44726e+06
1.59961e+06
1.3928e+06
1.36299e+06
1.31655e+06
1.20089e+06
1.29683e+06
1.72402e+06
1.43813e+06
1.5039e+06
1.18872e+06
1.24763e+06
1.02778e+06
1.38834e+06
1.31763e+06
1.39979e+06
1.35707e+06
1.62297e+06
1.72327e+06
1.36499e+06
1.79293e+06
1.75273e+06
2.00468e+06
1.8699e+06
1.37386e+06
1.373e+06
1.34766e+06
1.32888e+06
1.35512e+06
1.09317e+06
1.19347e+06
877934
1.69172e+06
737878
1.37328e+06
702423
745126
959914
716709
925755
915242
717871
960097
777579
1.10427e+06
1.08339e+06
875955
1.08305e+06
773380
1.07317e+06
740444
759746
758809
774786
774901
803280
806782
750488
765630
760983
786609
779110
804949
811720
1.30884e+06
941469
659312
663378
942365
701244
1.30951e+06
771069
1.10572e+06
921158
762219
1.0999e+06
906822
1.67818e+06
752138
712928
748018
798466
777157
771714
804566
713486
750374
747430
798010
778081
802968
772160
859055
875818
855836
938700
966128
960038
945771
2.06345e+06
1.15095e+06
1.04576e+06
1.0282e+06
2.05194e+06
1.14944e+06
1.3912e+06
842358
914846
833369
870846
976733
965599
879520
911133
831501
829559
869310
971613
874925
963840
874852
856695
854581
934349
955192
934730
955567
811949
771676
807382
890867
866461
858113
898449
769732
808553
805643
887102
859162
889464
855020
461455
679683
786049
700340
493292
472413
792011
494831
699682
536646
822063
614143
534858
676354
602044
812050
461544
481134
480015
576921
579226
576634
580827
488706
488061
500198
584607
602526
595152
590536
491169
514073
512211
565762
571409
566863
570647
501064
512956
515169
569714
573769
576097
571298
536328
563527
563095
588783
575192
591321
574329
533087
555660
559968
585705
572242
572555
584110
611337
684559
689662
632908
713559
637745
706657
673829
606967
678859
629199
699301
627327
701619
674327
686400
768520
786227
673119
768626
687540
679768
788287
701407
774147
687095
770283
693437
645945
728575
632705
697128
645975
727221
631184
648867
696431
731360
634120
653967
727798
631257
627187
621056
690388
674759
631495
618145
684616
624693
673209
617797
685693
616427
625619
682719
671585
738718
755771
813082
677476
731803
747901
668504
809433
732108
743642
669150
729331
743523
655608
627950
622688
727085
721627
700976
707943
657117
630148
623405
730328
722831
701469
709398
870345
853434
982599
949770
971797
845926
878514
869809
949978
980139
854127
876731
971007
846264
1.01498e+06
1.04624e+06
1.09611e+06
1.09189e+06
1.0835e+06
1.03599e+06
1.02543e+06
1.00757e+06
1.08354e+06
1.02658e+06
1.07589e+06
1.00688e+06
1.07508e+06
1.02874e+06
756383
763833
749646
852861
844509
867870
876649
747984
767034
752570
848135
842514
866285
872695
979143
969015
1.08372e+06
1.07153e+06
1.07125e+06
958618
989721
973306
1.06744e+06
1.0684e+06
959237
975511
1.06495e+06
954647
825864
910198
817448
934813
1.06719e+06
1.05328e+06
945193
815325
912062
820269
932727
1.05777e+06
939806
1.04976e+06
830182
648925
694130
642239
735296
819364
743895
810118
930880
802374
807793
1.00422e+06
991055
817016
931336
812404
803252
808091
1.00347e+06
817770
990958
693617
649183
642234
735225
828232
743832
818653
1.03206e+06
1.12147e+06
1.10685e+06
1.23644e+06
1.21837e+06
1.35014e+06
1.37024e+06
1.03511e+06
1.11486e+06
1.10453e+06
1.22416e+06
1.21391e+06
1.34681e+06
1.36052e+06
969639
1.09441e+06
959692
999483
1.17736e+06
1.16521e+06
1.00997e+06
1.09214e+06
964002
957418
997829
1.1734e+06
1.00578e+06
1.16368e+06
1.14611e+06
1.13631e+06
1.1317e+06
1.4373e+06
1.47769e+06
1.46561e+06
1.4569e+06
1.13605e+06
1.14223e+06
1.13044e+06
1.43546e+06
1.47757e+06
1.45043e+06
1.46596e+06
1.06106e+06
876838
1.15279e+06
1.3051e+06
1.13939e+06
1.0461e+06
888309
876523
1.30543e+06
1.15109e+06
1.05738e+06
887343
1.13891e+06
1.04488e+06
1.0937e+06
1.66175e+06
1.33779e+06
1.28599e+06
1.103e+06
1.32562e+06
1.27471e+06
1.09593e+06
1.34411e+06
1.29708e+06
1.66689e+06
1.32801e+06
1.27881e+06
1.10885e+06
2.04222e+06
1.5692e+06
1.55363e+06
1.78336e+06
2.07323e+06
1.79759e+06
2.07327e+06
563022
650000
1.35335e+06
706690
492005
654989
689398
1.35389e+06
494466
545396
489220
539438
556611
617427
624848
488246
560242
543154
538543
555553
616368
622059
801619
811970
657949
968586
744216
734912
955629
609228
826168
691693
683328
602261
697885
815421
808412
648902
800368
733720
964063
741030
954108
682447
607064
601407
696780
822663
703730
814160
446294
615245
600561
414734
456565
444686
605492
614295
449689
498216
450113
498310
412402
453346
455920
452420
416314
504766
500704
413040
454181
458257
491024
419580
441966
416090
457325
461201
486219
548124
598329
547228
501229
561187
504398
557128
441289
419220
415893
457243
489845
461328
485676
600157
554012
549472
502113
563761
507043
557970
546674
507709
574152
608604
512213
568739
541121
507700
608159
545696
574522
512556
568763
540655
1.19229e+06
873713
1.09248e+06
862040
1.35154e+06
1.07763e+06
1.1798e+06
860633
1.35181e+06
1.18816e+06
1.08712e+06
869728
1.07585e+06
1.17837e+06
2.07636e+06
1.80798e+06
1.58489e+06
2.04659e+06
1.55932e+06
1.78679e+06
2.07434e+06
1.82233e+06
1.62353e+06
1.8107e+06
1.80267e+06
1.39802e+06
1.83258e+06
1.62733e+06
1.80256e+06
1.40453e+06
1.82978e+06
1.63133e+06
1.80936e+06
1.83538e+06
1.63031e+06
1.37138e+06
1.37355e+06
1.52849e+06
1.41214e+06
1.51545e+06
1.44801e+06
1.24566e+06
1.81481e+06
1.82318e+06
1.62882e+06
1.84418e+06
1.28921e+06
1.78682e+06
1.62247e+06
1.65683e+06
1.78128e+06
1.82362e+06
2.05676e+06
1.90115e+06
2.00256e+06
1.70179e+06
1.84054e+06
1.64821e+06
1.67964e+06
1.93316e+06
1.54477e+06
1.63819e+06
1.94455e+06
1.96209e+06
2.03549e+06
2.06716e+06
2.22584e+06
2.08684e+06
2.11309e+06
1.9727e+06
1.38966e+06
1.35975e+06
1.18704e+06
1.30835e+06
1.94131e+06
1.54983e+06
1.53477e+06
1.2894e+06
1.3369e+06
1.16906e+06
1.36097e+06
1.88994e+06
1.51647e+06
1.63533e+06
1.95202e+06
1.88628e+06
2.11959e+06
2.13863e+06
2.17305e+06
2.25298e+06
2.16862e+06
1.48202e+06
1.39746e+06
1.27651e+06
1.40124e+06
1.96575e+06
1.69468e+06
1.56112e+06
1.86815e+06
1.66428e+06
1.56775e+06
1.18669e+06
1.88501e+06
1.73987e+06
1.60613e+06
1.45372e+06
2.03283e+06
2.02717e+06
2.23425e+06
1.86901e+06
1.85256e+06
1.57699e+06
1.60651e+06
1.60538e+06
1.32778e+06
1.46106e+06
2.24338e+06
1.81495e+06
1.82414e+06
1.66626e+06
1.50596e+06
1.36636e+06
1.68052e+06
2.27789e+06
1.90035e+06
2.13777e+06
1.66395e+06
1.84928e+06
1.91064e+06
1.81813e+06
2.02288e+06
2.08423e+06
1.72622e+06
1.31896e+06
1.27875e+06
1.33563e+06
1.18268e+06
1.34251e+06
1.36466e+06
1.37525e+06
1.67839e+06
1.71483e+06
1.42857e+06
2.10545e+06
1.78167e+06
2.12607e+06
2.25192e+06
1.42083e+06
1.39299e+06
1.13629e+06
1.44737e+06
1.29044e+06
1.42116e+06
1.39261e+06
1.39365e+06
1.42621e+06
1.1967e+06
1.42475e+06
1.22484e+06
1.41325e+06
1.4082e+06
1.0717e+06
1.32227e+06
1.22168e+06
1.39274e+06
1.36573e+06
1.29898e+06
1.37493e+06
1.40934e+06
1.37812e+06
1.16433e+06
1.39259e+06
1.38774e+06
1.41174e+06
1.21631e+06
1.92092e+06
1.69908e+06
1.51327e+06
1.75218e+06
2.20744e+06
1.98295e+06
2.15436e+06
1.65101e+06
1.51906e+06
1.2827e+06
1.65077e+06
1.50171e+06
1.40185e+06
1.48427e+06
1.40724e+06
1.37314e+06
1.33752e+06
1.31093e+06
833349
1.13532e+06
1.39762e+06
1.40947e+06
1.35611e+06
1.05152e+06
1.41203e+06
1.2904e+06
1.28718e+06
1.41503e+06
1.458e+06
2.21004e+06
2.08302e+06
2.0848e+06
1.65965e+06
1.77367e+06
1.77279e+06
1.6643e+06
2.23577e+06
2.00586e+06
2.28538e+06
1.94161e+06
2.20106e+06
2.20778e+06
1.63534e+06
2.20195e+06
1.99505e+06
2.27555e+06
2.09179e+06
2.24552e+06
2.22807e+06
1.96161e+06
1.64352e+06
2.00902e+06
1.35236e+06
1.89905e+06
1.76351e+06
1.02638e+06
2.25099e+06
2.20919e+06
2.18842e+06
2.12432e+06
1.66082e+06
1.85818e+06
2.09934e+06
1.54553e+06
1.49412e+06
1.88274e+06
1.85287e+06
635040
1.3626e+06
1.36871e+06
2.17345e+06
2.18152e+06
1.73662e+06
1.93463e+06
2.21152e+06
2.25267e+06
2.27764e+06
1.42885e+06
1.40311e+06
1.35921e+06
1.39881e+06
949950
1.29414e+06
1.23189e+06
2.0626e+06
2.1386e+06
2.21913e+06
2.28738e+06
2.23989e+06
2.22956e+06
1.96538e+06
1.6349e+06
2.26311e+06
2.31882e+06
2.27936e+06
2.07486e+06
1.88097e+06
2.08186e+06
2.10645e+06
1.92726e+06
1.88622e+06
2.10496e+06
1.41096e+06
2.02611e+06
1.77073e+06
337238
1.11964e+06
1.0117e+06
1.02719e+06
253953
254971
1.13784e+06
260016
1.53538e+06
2.02225e+06
255492
2.09563e+06
255182
253245
404482
253247
253245
1.28401e+06
254210
253245
253245
1.33014e+06
258838
253245
253245
253245
1.11123e+06
254147
253246
253245
253245
253245
253254
253245
253245
253245
253245
253245
253245
253245
253245
253245
253245
253245
253245
253245
253245
253245
253245
253245
253245
253245
253245
253245
253245
253245
1.95914e+06
1.18339e+06
1.21697e+06
1.16744e+06
1.86937e+06
1.20838e+06
1.9574e+06
429523
535116
1.34334e+06
1.19962e+06
546974
1.29e+06
437856
1.0331e+06
674659
1.35501e+06
808941
1.16502e+06
1.34779e+06
687983
1.10326e+06
678684
284999
1.34392e+06
667965
859807
286659
1.71363e+06
2.14754e+06
1.51401e+06
1.26483e+06
2.08572e+06
2.1424e+06
1.03666e+06
1.18934e+06
1.17106e+06
1.17661e+06
1.32011e+06
1.31821e+06
1.30512e+06
1.33348e+06
1.16458e+06
1.1741e+06
1.16996e+06
1.31471e+06
1.30562e+06
1.32183e+06
1.29995e+06
1.19757e+06
1.20415e+06
1.18463e+06
1.34089e+06
1.39967e+06
1.38551e+06
1.35479e+06
1.20063e+06
1.18516e+06
1.17934e+06
1.33664e+06
1.39507e+06
1.34565e+06
1.38327e+06
811799
1.02208e+06
801378
1.00722e+06
1.01821e+06
1.29744e+06
1.30524e+06
800341
1.01746e+06
1.02784e+06
1.00565e+06
1.01643e+06
1.29677e+06
1.30323e+06
253410
1.40106e+06
1.97124e+06
1.97319e+06
408906
702760
253421
1.10201e+06
1.28112e+06
1.27585e+06
1.30235e+06
1.30212e+06
1.28867e+06
1.28474e+06
1.11527e+06
1.30066e+06
1.28259e+06
1.27619e+06
1.30139e+06
1.28693e+06
1.28037e+06
1.16677e+06
1.12375e+06
1.15514e+06
880920
795827
852153
762276
1.28039e+06
1.43129e+06
1.20032e+06
1.18597e+06
1.27291e+06
1.42865e+06
1.34827e+06
1.18601e+06
1.2821e+06
1.27365e+06
1.43663e+06
1.43057e+06
1.35094e+06
1.35063e+06
1.0775e+06
1.1043e+06
1.13973e+06
759185
654320
812335
715353
1.77888e+06
1.26951e+06
1.40566e+06
1.25688e+06
1.39142e+06
1.49929e+06
1.76258e+06
1.25504e+06
1.40302e+06
1.39044e+06
1.51441e+06
1.49917e+06
1.76327e+06
1.78042e+06
1.09496e+06
1.0008e+06
1.07622e+06
551890
683869
645920
515449
1.86987e+06
1.90868e+06
1.56946e+06
1.55548e+06
1.85966e+06
1.89922e+06
1.52126e+06
301095
260794
2.01223e+06
2.0085e+06
803749
1.48586e+06
578732
1.5528e+06
1.85857e+06
1.52986e+06
1.90829e+06
1.56605e+06
1.89804e+06
1.51814e+06
253246
253245
253245
942643
253533
253245
253245
1.12989e+06
1.04361e+06
253246
253245
253245
253246
253245
253245
253248
253245
253245
253245
256378
253245
253245
253245
1.54802e+06
253287
253247
1.17521e+06
253245
253245
253247
253245
253245
1.46985e+06
253939
253245
253245
1.3824e+06
253254
253245
253245
253245
1.20876e+06
282327
253247
253245
253245
253245
253245
253245
253245
253245
253245
253245
253245
253245
253245
253245
253245
253245
253245
253245
253245
253245
253245
253245
253245
253245
1.97702e+06
254646
255038
1.96397e+06
254789
253245
253279
253246
253245
1.37479e+06
254017
253245
253245
1.22138e+06
257721
253246
253245
253245
1.33729e+06
253990
253246
253245
253245
253245
253253
253245
253245
253245
253245
253245
253245
253245
253245
253245
253245
253245
253245
253245
253245
253245
253245
253245
253245
253245
253245
253245
253245
253245
930081
263333
253247
253245
253245
253247
253245
253245
253245
253245
253245
253245
253245
253245
253245
253245
253245
253245
253245
253245
253245
253245
253245
253245
253245
253245
253245
253245
253245
253245
253245
253245
253245
253245
253245
253245
259458
253253
253245
253245
253245
253245
253245
2.05536e+06
990444
253546
253245
253245
253245
253245
1.53769e+06
1.93515e+06
254503
253245
253245
253245
1.3807e+06
1.97175e+06
253666
253245
253245
1.90411e+06
316236
253245
253245
253245
253245
253245
253245
253245
253245
253245
253245
253245
253245
253245
253245
253245
253245
253245
253245
253245
253245
253245
253245
253245
253245
253245
253245
253245
253245
253245
253245
253484
253246
253245
253245
253245
253245
253245
1.95452e+06
320138
253257
253245
253245
253245
253245
1.97416e+06
1.09545e+06
253292
253245
253245
253245
1.59943e+06
1.19122e+06
253262
253245
253245
2.15866e+06
256177
253245
253245
253245
253245
253245
253245
253245
253245
253245
253245
253245
253245
253245
253245
253245
253245
253245
253245
253245
253245
253245
253245
253245
253245
253245
253245
253245
253245
253245
253245
253246
253245
253245
253245
253245
253245
253245
272302
253310
253245
253245
253245
253245
253245
1.42458e+06
253891
253245
253245
253245
253245
1.52708e+06
890679
253245
253245
253245
556672
265565
253245
253245
253245
253245
253245
253245
253245
253245
253245
253245
253245
253245
253245
253245
253245
253245
253245
253245
253245
253245
253245
253245
253245
253245
253245
253245
253245
253245
253245
253245
253245
253245
253245
253245
253245
253245
253245
257203
253249
253245
253245
253245
253245
253245
447577
280626
253289
253245
253245
253245
253245
1.3082e+06
254360
253264
253245
253245
253245
1.16489e+06
291955
253245
253245
253245
253245
253245
253245
253245
253245
253245
253245
253245
253245
253245
253245
253245
253245
253245
253245
253245
253245
253245
253245
253245
253245
253245
253245
253245
253245
253245
253245
253245
253245
253245
253245
253245
253245
253245
253245
253245
253245
253245
253245
253245
253245
253245
253275
253304
253245
253245
253245
253245
253245
760146
254695
253366
253245
253245
253245
253245
254438
253259
253245
253245
253245
253245
253245
253245
253245
253245
253245
253245
253245
253245