/*--------------------------------*- C++ -*----------------------------------*\
  =========                 |
  \\      /  F ield         | OpenFOAM: The Open Source CFD Toolbox
   \\    /   O peration     | Website:  https://openfoam.org
    \\  /    A nd           | Version:  9
     \\/     M anipulation  |
\*---------------------------------------------------------------------------*/
FoamFile
{
    format      ascii;
    class       volVectorField;
    location    "0.0019";
    object      U;
}
// * * * * * * * * * * * * * * * * * * * * * * * * * * * * * * * * * * * * * //

dimensions      [0 1 -1 0 0 0 0];

internalField   nonuniform List<vector> 
16582
(
(428.357 -51.5535 -17.65)
(518.623 -202.989 145.533)
(255.394 -129.08 49.7074)
(513.5 -199.606 182.855)
(236.546 -119.712 197.872)
(385.512 -116.732 221.18)
(396.195 -182.589 201.562)
(585.009 -131.671 24.7648)
(499.701 -115.737 156.682)
(219.381 -70.9765 241.759)
(506.24 -118.667 294.57)
(294.671 -86.9075 206.556)
(269.302 -495.806 27.1124)
(452.609 -294.041 25.3453)
(244.435 -449.073 170.35)
(410.657 -267.939 153.35)
(243.764 -461.648 311.189)
(353.864 -268.739 244.998)
(100.551 -83.7544 76.1003)
(412.283 -149.084 -2.78075)
(523.235 -224.292 148.944)
(263.21 -148.276 49.5063)
(525.613 -223.152 190.433)
(248.026 -137.731 190.246)
(449.069 -205.983 266.097)
(382.368 -193.355 194.172)
(424.907 -92.9425 -9.27957)
(372.669 -98.4501 23.9446)
(381.769 -75.1767 20.4458)
(399.151 -176.076 60.8798)
(492.334 -183.275 12.1187)
(512.995 -114.888 2.08234)
(407.426 -116.295 39.8416)
(232.257 -48.1773 258.91)
(255.501 -79.5004 225.998)
(336.013 -91.4854 213.495)
(370.394 -99.1634 206.406)
(334.495 -43.2131 223.695)
(252.367 -32.9156 240.827)
(360.304 -43.4328 210.754)
(235.729 -125.535 113.624)
(249.202 -94.4021 54.7383)
(219.731 -97.2665 127.709)
(368.52 -168.475 81.0023)
(354.766 -161.157 175.15)
(361.099 -114.629 58.6304)
(335.559 -110.245 124.502)
(221.055 -91.7812 219.391)
(365.093 -162.779 214.543)
(409.727 -184.133 214.215)
(276.064 -138.575 198.167)
(258.646 -94.2539 219.009)
(299.068 -99.5522 211.056)
(378.315 -118.802 206.09)
(428.349 -70.8185 -13.5432)
(418.821 -74.7715 -15.3925)
(423.683 -54.1348 -23.4897)
(458.697 -69.8577 -14.0249)
(448.552 -74.8804 -14.2706)
(442.621 -95.7034 -7.11923)
(455.731 -89.6546 -9.11)
(523.878 -121.296 130.756)
(547.141 -111.34 5.34499)
(507.372 -91.8706 38.069)
(554.042 -54.2212 -2.10606)
(602.019 -65.8729 20.663)
(459.376 -52.8022 39.3312)
(532.65 -58.5011 117.612)
(359.793 -152.612 25.6881)
(399.699 -196.325 73.423)
(484.379 -205.945 15.183)
(459.583 -272.962 23.9238)
(414.149 -255.621 116.192)
(399.501 -246.205 7.87366)
(322.3 -223.318 47.0299)
(412.297 -98.921 -8.13254)
(418.847 -118.877 -5.61408)
(404.697 -125.722 -2.36276)
(435.686 -119.582 -0.771398)
(443.012 -140.976 -0.0989064)
(428.04 -145.881 4.09329)
(450.52 -113.42 -4.25309)
(391.515 -55.6496 13.6703)
(306.477 -82.8375 30.9854)
(315.517 -63.5389 31.5204)
(342.882 -86.5733 28.0264)
(413.323 -77.6496 19.3835)
(404.442 -97.5158 24.0257)
(336.561 -104.767 28.9788)
(238.975 -35.256 265.54)
(246.426 -33.6684 271.731)
(242.372 -47.5289 266.914)
(270.094 -39.1633 249.043)
(266.138 -53.4942 243.16)
(278.291 -37.4204 258.898)
(276.248 -52.5046 254.711)
(224.849 -60.097 250.948)
(232.943 -73.2375 253.43)
(237.022 -60.8744 260.808)
(258.593 -79.2788 227.921)
(261.502 -66.8549 236.109)
(273.136 -67.1161 249.057)
(271.199 -80.7957 242.027)
(261.741 -80.6586 193.975)
(387.675 -102.728 199.975)
(369.193 -100.196 231.725)
(255.149 -33.591 201.254)
(369.753 -44.1065 199.085)
(283.015 -38.3865 200.069)
(390.129 -46.081 245.788)
(546.494 -216.929 27.0227)
(430.264 -186.126 87.3308)
(513.128 -197.587 17.2441)
(574.628 -153.869 25.8677)
(520.502 -141.824 135.199)
(541.422 -132.202 8.24049)
(492.214 -132.308 47.9187)
(500.856 -116.943 5.71734)
(487.039 -91.8481 -7.67891)
(474.344 -96.1352 -4.77479)
(467.624 -117.478 1.53865)
(506.667 -136.83 5.9492)
(493.45 -139.47 10.5568)
(480.891 -113.419 -1.82538)
(227.222 -99.4099 90.3941)
(253.339 -79.1311 59.0387)
(226.563 -87.2319 97.3141)
(287.632 -95.3016 50.6088)
(265.934 -98.4396 86.4906)
(285.753 -110.406 49.7398)
(267.188 -111.366 83.2892)
(246.189 -143.032 110.408)
(374.62 -187.623 93.251)
(367.107 -182.224 184.156)
(401.037 -247.595 139.721)
(297.831 -212.197 70.312)
(288.223 -204.963 153.864)
(423.637 -253.248 242.063)
(365.154 -124.627 25.0888)
(300.258 -127.057 27.7988)
(301.5 -104.319 29.6497)
(396.634 -120.501 27.2655)
(333.172 -146.276 30.1948)
(333.277 -124.725 29.3421)
(390.658 -145.733 29.0055)
(217.303 -93.41 176.746)
(217.005 -85.483 137.515)
(213.692 -82.4067 189.067)
(255.605 -93.2294 175.139)
(258.407 -96.704 125.031)
(261.383 -109.099 119.275)
(259.366 -106.015 166.741)
(401.189 -85.9395 64.5986)
(525.312 -120.705 288.469)
(369.461 -80.8521 178.903)
(379.996 -48.801 91.9372)
(501.172 -54.3585 140.098)
(367.974 -46.3514 180.429)
(524.796 -54.2301 271.608)
(397.427 -154.499 1.58271)
(405.808 -182.145 0.31812)
(391.282 -184.628 4.60129)
(435.615 -171.262 3.5487)
(420.918 -174.016 7.54518)
(415.071 -203.267 10.5924)
(429.629 -201.593 7.16686)
(250.759 -33.086 264.053)
(253.398 -48.331 237.353)
(249.624 -47.805 259.135)
(289.487 -36.9903 231.905)
(285.003 -37.0435 253.022)
(284.933 -52.8973 248.931)
(290.468 -53.4722 228.687)
(460.282 -141.524 6.63978)
(466.519 -164.798 6.75634)
(474.953 -189.118 19.4898)
(500.001 -160.033 8.99373)
(484.786 -163.858 14.7875)
(452.233 -167.459 10.5582)
(473.957 -138.276 3.14834)
(466.093 -116.549 34.2483)
(374.5 -103.475 30.4769)
(438.546 -98.4839 25.7518)
(430.737 -118.681 29.6918)
(403.285 -135.494 44.6342)
(458.33 -137.802 38.5813)
(369.687 -121.726 32.8374)
(217.977 -81.195 230.978)
(232.226 -84.6718 244.582)
(235.225 -96.086 234.911)
(258.968 -91.1339 218.671)
(271.78 -93.7216 234.02)
(262.592 -103.759 209.609)
(274.912 -106.862 225.913)
(246.342 -76.7237 245.99)
(254.042 -64.0644 232.148)
(247.576 -62.5486 252.933)
(284.125 -68.7374 243.3)
(292.212 -86.1769 217.051)
(284.084 -83.918 236.576)
(291.014 -70.0938 223.525)
(546.084 -55.3558 2.4028)
(553.06 -72.5841 -0.468505)
(543.672 -74.1904 4.61408)
(569.249 -84.4436 20.2467)
(581.7 -61.348 5.51855)
(571.598 -62.9061 18.3183)
(580.569 -81.3568 6.59903)
(250.233 -111.188 51.519)
(240.193 -127.887 81.0666)
(232.355 -112.782 84.9698)
(292.715 -144.623 51.7528)
(287.709 -126.875 49.8654)
(271.446 -125.614 81.4261)
(278.004 -141.578 81.7526)
(285.342 -144.148 182.298)
(343.938 -170.079 235.112)
(213.135 -101.13 132.055)
(302.299 -104.732 210.594)
(265.707 -95.9803 190.3)
(396.568 -124.122 201.829)
(353.906 -112.943 220.125)
(375.517 -80.6458 220.48)
(426.206 -109.881 215.309)
(206.845 -53.4842 99.5024)
(371.901 -45.5576 222.441)
(521.656 -53.6785 290.674)
(412.151 -47.0464 214.608)
(320.932 -33.9977 148.934)
(421.184 -275.372 126.285)
(400.326 -273.198 11.9104)
(331.028 -245.747 64.5835)
(393.403 -339.181 23.0617)
(447.701 -347.117 25.153)
(360.71 -313.463 116.665)
(444.257 -338.305 141.644)
(382.613 -185.716 225.32)
(407.405 -202.392 217.881)
(284.586 -155.562 194.241)
(302.117 -206.203 211.491)
(333.714 -224.942 204.184)
(449.827 -263.573 288.43)
(326.973 -198.293 191.133)
(301.11 -41.2875 233.821)
(334.806 -59.7012 220.907)
(299.558 -56.7895 229.387)
(342.792 -42.7431 235.689)
(309.42 -40.0628 245.247)
(309.195 -56.1481 241.938)
(344.03 -59.7564 233.837)
(302.044 -150.893 26.6659)
(307.151 -175.45 27.8613)
(357.489 -181.328 26.48)
(335.628 -168.954 33.0317)
(386.762 -172.366 30.5916)
(384.658 -199.705 34.1698)
(339.994 -191.96 40.4234)
(324.946 -481.401 25.6473)
(234.616 -462.778 15.7095)
(308.821 -433.255 25.0565)
(251.407 -459.991 138.494)
(318.801 -485.488 150.568)
(221.353 -376.734 73.7203)
(288.951 -394.282 123.112)
(423.949 -141.398 32.731)
(366.994 -162.616 40.5636)
(443.51 -184.123 49.2148)
(400.441 -155.533 51.4969)
(450.727 -160.666 43.2521)
(367.332 -141.541 35.6537)
(418.229 -165.992 35.6105)
(226.57 -110.472 119.712)
(234.121 -122.295 156.379)
(224.47 -106.639 165.562)
(267.115 -123.029 115.182)
(274.154 -136.191 154.236)
(265.904 -120.039 159.451)
(274.524 -139.104 113.562)
(534.228 -114.264 12.8551)
(551.368 -91.7156 2.28812)
(540.177 -93.6242 8.25071)
(564.547 -106.153 23.9444)
(571.933 -122.978 11.0978)
(556.888 -128.334 28.8688)
(577.746 -101.885 8.65343)
(405.539 -177.718 106.937)
(403.682 -174.76 204.1)
(499.039 -193.513 298.443)
(500.372 -136.253 163.38)
(398.563 -121.69 76.5008)
(522.233 -141.809 293.51)
(373.825 -116.585 137.289)
(297.051 -85.7008 217.45)
(334.679 -75.8094 217.308)
(297.51 -71.6188 223.845)
(308.146 -71.9151 237.286)
(346.454 -93.2558 228.356)
(308.073 -86.9613 231.635)
(344.719 -76.6651 231.162)
(323.986 -106.219 50.1378)
(340.97 -112.259 89.5162)
(303.853 -105.935 83.4992)
(361.703 -131.969 64.0203)
(323.55 -122.351 52.4492)
(305.678 -120.576 83.9987)
(343.695 -128.62 93.0177)
(517.27 -54.2967 31.6593)
(455.466 -71.166 42.1237)
(513.253 -73.1289 34.1575)
(537.273 -80.7895 50.7776)
(486.841 -55.8688 59.3003)
(540.632 -59.8981 48.1235)
(483.982 -75.819 63.0436)
(401.077 -215.452 3.85339)
(384.418 -246.104 11.8808)
(386.949 -215.419 7.26771)
(410.527 -232.874 15.171)
(425.358 -255.221 14.1292)
(405.967 -260.61 25.0828)
(426.397 -229.835 10.6416)
(518.482 -94.833 -2.62421)
(362.894 -97.9207 54.5867)
(413.168 -98.3793 35.8378)
(427.569 -22.5667 -23.3446)
(399.677 -39.8487 4.00841)
(433.577 -14.4739 -26.8756)
(526.114 -44.4479 -13.3747)
(427.644 -21.899 -30.2472)
(433.445 -49.2713 26.2354)
(262.487 -65.5401 63.3313)
(332.08 -92.5096 171.362)
(219.125 -74.9058 148.254)
(290.407 -42.2481 71.6765)
(377.055 -49.3355 47.9424)
(234.816 -53.0065 168.594)
(333.054 -44.8483 180.851)
(428.377 -15.0285 -25.1048)
(441.978 -18.9815 -67.0417)
(434.237 -20.2272 -57.0894)
(458.519 -22.5741 -23.774)
(464.377 -26.5743 -45.1287)
(459.705 -33.5898 -37.6514)
(457.169 -29.2448 -22.2845)
(427.83 -35.1913 -20.6389)
(426.102 -37.8169 -34.2872)
(429.474 -27.0594 -46.2515)
(456.572 -43.4528 -29.2859)
(459.622 -53.2603 -17.2305)
(452.625 -57.2506 -21.5873)
(458.153 -39.6237 -20.2378)
(416.27 -23.2208 -20.2428)
(357.324 -27.6245 27.1751)
(373.165 -22.7691 25.1239)
(388.251 -35.2972 21.2419)
(447.908 -31.055 -9.87349)
(438.885 -38.9395 -3.10532)
(375.549 -45.3233 23.01)
(251.75 -52.6662 118.977)
(305.787 -33.2626 75.2626)
(264.39 -41.7506 126.005)
(325.707 -43.3741 57.1718)
(292.12 -47.1855 103.726)
(314.356 -56.143 55.1194)
(283.447 -60.8935 99.0717)
(407.417 -29.0826 -8.12151)
(327.566 -47.6898 31.2487)
(341.517 -35.4489 29.8083)
(430.306 -48.3205 4.83019)
(351.765 -70.3569 26.6439)
(422.178 -61.1859 12.965)
(362.612 -56.4818 24.9592)
(228.9 -50.4664 223.056)
(244.468 -41.5149 177.909)
(236.739 -38.4574 232.106)
(268.287 -42.4493 208.195)
(275.592 -45.3886 152.227)
(269.271 -59.0739 145.317)
(263.312 -56.1169 200.645)
(492.951 -33.6877 -20.4968)
(519.859 -46.9066 -12.1032)
(492.209 -37.1114 -26.8433)
(488.471 -49.271 -22.3942)
(524.864 -59.8965 -10.9923)
(516.619 -62.3695 -8.99356)
(492.841 -45.0871 -19.4785)
(275.258 -53.3291 68.0282)
(231.223 -75.8076 104.655)
(240.24 -64.731 112.154)
(293.639 -81.5701 51.9428)
(302.931 -68.7898 53.5906)
(274.945 -73.9388 94.7793)
(268.564 -86.139 90.3647)
(485.112 -62.9114 -17.1197)
(507.276 -96.8418 0.542285)
(491.194 -73.6152 -12.7678)
(522.838 -76.744 -7.34426)
(480.168 -77.997 -11.0025)
(512.896 -78.9626 -4.63097)
(492.846 -58.3033 -17.1388)
(215.05 -72.2433 201.588)
(225.673 -64.2765 158.665)
(220.846 -61.6397 212.86)
(262.851 -72.1682 138.402)
(255.013 -81.1015 184.019)
(258.68 -84.6282 131.507)
(258.089 -68.864 192.578)
(494.257 -48.2521 17.4728)
(409.204 -44.0533 20.2332)
(471.078 -40.8502 4.31731)
(463.918 -53.5009 9.11783)
(427.251 -65.6196 28.6578)
(488.57 -64.219 20.9948)
(400.067 -57.9142 22.2493)
(455.584 -66.4112 14.9506)
(473.987 -97.5004 29.8362)
(381.615 -86.8382 27.8505)
(419.685 -81.5026 31.8612)
(447.128 -81.1768 20.8086)
(481.547 -80.2928 25.222)
(390.021 -71.601 24.8426)
(350.003 -47.5762 47.2476)
(349.209 -48.3351 85.8132)
(320.164 -48.2438 89.3267)
(372.285 -65.8215 49.1175)
(342.223 -62.3975 47.1273)
(314.659 -63.5376 87.2287)
(346.039 -64.8074 85.5606)
(337.714 -46.6392 128.309)
(299.999 -43.8784 190.105)
(306.506 -46.3167 135.07)
(302.874 -61.4656 130.989)
(332.431 -61.1374 178.001)
(336.032 -62.9649 126.607)
(297.473 -59.0479 184.924)
(327.634 -91.0708 48.7874)
(366.694 -81.6748 51.4492)
(333.945 -76.588 47.8073)
(308.833 -77.9194 85.6622)
(340.556 -96.3927 87.3418)
(304.902 -91.8956 84.3176)
(342.377 -80.6194 86.1519)
(298.867 -75.8048 127.063)
(333.665 -94.4249 124.318)
(293.881 -87.4829 173.828)
(331.437 -76.947 174.721)
(296.806 -89.81 123.331)
(333.994 -78.7264 125.243)
(294.691 -73.5116 179.507)
(227.401 -104.328 207.871)
(248.758 -123.799 216.807)
(240.89 -108.84 225.23)
(277.179 -134.356 195.102)
(268.73 -118.079 201.521)
(279.909 -121.369 218.781)
(287.369 -137.583 214.045)
(540.908 -235.871 26.7872)
(430.805 -205.433 100.149)
(500.905 -218.645 20.4354)
(551.77 -300.273 24.467)
(541.163 -294.668 163.132)
(473.552 -280.518 26.0967)
(443.287 -262.594 130.709)
(247.577 -90.0686 238.127)
(263.359 -108.625 211.583)
(251.456 -103.126 229.787)
(294.651 -101.561 210.07)
(285.695 -98.302 229.226)
(288.891 -112.488 221.809)
(298.474 -116.775 203.357)
(459.813 -191.259 10.1382)
(464.747 -213.922 26.5919)
(444.569 -194.769 14.1992)
(437.237 -222.337 19.7793)
(475.956 -228.26 18.2289)
(455.956 -236.773 36.2562)
(454.449 -216.31 13.2757)
(257.137 -48.9652 200.106)
(262.121 -35.1902 181.949)
(264.413 -50.3832 182.189)
(291.353 -37.4541 199.876)
(293.036 -53.777 198.614)
(296.793 -38.5685 186.998)
(299.075 -54.7343 186.838)
(297.786 -103.788 120.269)
(295.975 -101.147 168.212)
(334.999 -108.201 169.001)
(300.92 -118.277 118.565)
(339.505 -124.583 168.325)
(339.207 -126.48 126.186)
(299.886 -115.486 163.232)
(500.357 -111.544 42.7366)
(449.762 -89.0637 46.2774)
(444.518 -107.677 51.6521)
(531.399 -101.322 55.3233)
(474.14 -114.834 75.8025)
(523.721 -122.227 60.913)
(479.157 -95.1819 68.6658)
(526.491 -136.515 17.634)
(533.791 -154.071 10.8636)
(516.783 -159.682 22.623)
(563.102 -144.461 13.7494)
(546.307 -150.368 34.6109)
(533.389 -171.325 40.9477)
(551.111 -165.751 16.7743)
(249.509 -145.304 79.5026)
(273.048 -169.009 52.0972)
(299.958 -163.642 55.941)
(260.491 -164.834 81.0192)
(286.519 -159.492 84.5221)
(309.403 -183.821 63.3666)
(297.307 -179.518 89.9185)
(351.849 -42.9831 229.046)
(323.214 -40.2715 218.728)
(317.741 -40.0544 239.883)
(318.551 -56.7895 236.665)
(362.993 -61.5485 209.726)
(353.66 -60.6355 227.097)
(324.62 -57.4603 216.137)
(314.334 -199.947 34.1904)
(358.651 -237.867 37.0187)
(357.599 -210.097 29.2894)
(383.462 -226.454 41.8645)
(352.595 -235.993 70.1974)
(383.16 -250.924 54.3982)
(345.618 -214.298 53.2924)
(428.498 -181.308 247.718)
(406.115 -181.2 209.507)
(440.27 -169.137 281.813)
(14.1674 -5.14795 7.01126)
(496.76 -136.895 295.705)
(428.716 -131.243 215.849)
(145.392 -44.5946 71.2473)
(339.317 -107.228 210.57)
(349.951 -109.874 225.789)
(309.717 -101.652 225.952)
(344.567 -123.973 208.785)
(303.207 -114.01 205.09)
(313.606 -116.768 221.413)
(356.322 -127.363 224.886)
(585.245 -90.1742 40.1508)
(599.466 -87.6904 21.8009)
(598.405 -64.9774 12.5245)
(595.423 -67.7857 57.4042)
(592.392 -90.6286 59.3183)
(588.67 -67.4005 38.0932)
(596.323 -86.1205 13.7863)
(368.32 -184.182 49.2095)
(437.179 -206.807 57.7509)
(413.441 -191.407 40.4415)
(409.551 -216.354 48.6081)
(402.601 -216.349 87.8657)
(433.008 -228.114 68.4721)
(371.375 -205.532 61.9533)
(259.068 -64.8397 197.388)
(270.122 -81.9587 180.331)
(266.919 -66.075 181.429)
(296.791 -86.8007 192.661)
(294.557 -70.3952 195.962)
(301.586 -71.3365 185.846)
(305.163 -88.1782 184.772)
(318.631 -73.5093 231.985)
(327.367 -91.7746 207.139)
(357.666 -96.189 221.079)
(365.923 -80.1864 207.978)
(319.367 -89.6862 226.421)
(355.065 -78.4702 224.132)
(325.565 -74.7714 211.96)
(330.597 -157.576 62.0893)
(364.177 -149.924 71.3784)
(325.814 -139.478 56.2885)
(309.73 -136.278 86.1578)
(355.123 -164.202 105.772)
(348.426 -145.9 98.207)
(316.059 -153.433 90.1019)
(493.134 -204.38 36.1503)
(524.528 -176.216 13.8658)
(505.315 -182.656 28.5855)
(520.6 -191.478 47.7442)
(524.046 -207.969 22.9436)
(510.005 -211.189 54.6611)
(537.622 -187.003 20.0362)
(439.355 -126.869 57.9842)
(435.053 -146.526 65.9202)
(483.468 -153.857 53.7257)
(469.092 -134.643 83.9477)
(514.414 -143.099 67.2685)
(504.441 -163.526 74.2916)
(464.598 -154.284 93.4092)
(382.071 -274.623 22.0906)
(399.466 -297.266 16.1647)
(381.405 -298.662 36.7588)
(422.64 -279.035 17.9384)
(403.301 -284.303 38.8687)
(404.068 -305.149 51.5025)
(417.461 -301.754 21.4328)
(578.505 -112.202 43.8899)
(578.408 -134.179 65.4674)
(582.001 -128.889 18.3169)
(593.728 -109.579 23.3234)
(568.754 -133.626 48.6854)
(586.355 -112.608 62.2838)
(591.287 -107.532 15.9401)
(311.694 -234.005 85.9162)
(324.367 -255.158 181.46)
(446.285 -279.967 268.907)
(348.221 -301.512 163.356)
(446.585 -336.961 179.64)
(363.649 -311.622 229.697)
(441.96 -331.879 292.942)
(264.053 -131.684 214.375)
(269.141 -123.199 204.282)
(257.087 -116.794 221.576)
(293.303 -127.4 215.156)
(312.301 -150.392 195.648)
(303.927 -132.751 198.152)
(299.674 -143.564 210.214)
(430.513 -248.249 29.4932)
(467.782 -250.797 21.3559)
(448.911 -277.101 56.7033)
(445.484 -263.43 19.6986)
(426.418 -270.641 42.2795)
(450.599 -257.485 47.2509)
(450.722 -240.111 16.2549)
(245.599 -139.955 149.831)
(258.368 -159.828 146.835)
(257.998 -162.469 110.554)
(284.145 -154.557 152.381)
(283.598 -157.156 114.738)
(294.924 -177.143 118.584)
(296.091 -174.897 154.456)
(406.946 -50.796 58.0407)
(404.579 -68.6619 60.5666)
(378.808 -66.3536 93.198)
(439.794 -52.2355 77.5249)
(438.69 -71.3073 81.5342)
(414.102 -49.9445 106.871)
(414.196 -68.5793 109.902)
(320.471 -490.917 194.277)
(213.429 -352.567 95.1633)
(280.759 -382.772 148.279)
(256.231 -484.8 303.572)
(279.731 -437.63 283.517)
(213.025 -348.146 182.236)
(290.563 -406.768 250.753)
(305.926 -133.853 118.649)
(313.458 -148.878 159.808)
(352.066 -162.079 135.57)
(345.879 -142.101 170.037)
(344.623 -143.559 129.663)
(305.753 -131.325 160.019)
(312.701 -151.05 120.942)
(241.507 -441.72 26.9933)
(259.836 -454.723 19.5559)
(266.509 -433.095 40.768)
(248.134 -477.288 20.782)
(254.25 -457.382 46.1185)
(275.841 -450.818 57.1889)
(271.779 -464.424 23.9178)
(258.566 -141.074 210.595)
(261.471 -157.812 185.759)
(287.928 -152.794 191.673)
(270.535 -160.36 207.31)
(297.477 -155.584 211.644)
(300.835 -173.603 192.096)
(310.926 -176.056 212.683)
(555.309 -85.3512 72.3094)
(531.023 -79.9323 121.137)
(571.006 -64.1223 93.0261)
(511.786 -57.8912 87.1074)
(568.387 -86.4523 95.7465)
(558.916 -63.3933 69.2155)
(509.394 -78.858 91.3965)
(466.35 -196.334 68.9168)
(431.857 -166.39 75.7357)
(474.496 -175.411 60.6129)
(495.466 -183.616 81.807)
(460.106 -192.977 113.744)
(461.376 -173.781 103.578)
(488.786 -203.395 89.3107)
(284.896 -190.676 58.5472)
(288.283 -207.945 94.9931)
(273.606 -186.136 85.5385)
(332.592 -225.563 90.7741)
(320.287 -204.593 75.2433)
(310.269 -200.657 99.2942)
(324.754 -222.084 112.81)
(399.224 -103.654 69.818)
(377.11 -83.4376 95.6048)
(377.096 -100.764 98.988)
(435.279 -108.63 94.3515)
(436.583 -89.8157 87.235)
(413.931 -86.7591 114.277)
(414.907 -105.256 120.012)
(370.21 -47.4948 131.628)
(368.9 -63.6979 179.476)
(370.126 -64.8867 131.647)
(408.653 -48.5898 192.14)
(406.248 -48.993 144.322)
(407.238 -67.487 146.424)
(410.857 -67.2844 193.772)
(270.828 -111.224 186.893)
(274.584 -97.7482 179.171)
(300.457 -102.993 189.392)
(280.291 -114.001 178.442)
(306.143 -119.678 186.736)
(310.541 -105.31 184.44)
(318.435 -123.398 185.272)
(360.337 -263.119 50.1654)
(340.211 -268.142 84.0194)
(363.691 -285.672 66.0862)
(360.802 -257.357 88.7424)
(384.93 -272.896 69.4987)
(389.52 -293.847 83.1865)
(369.96 -278.996 105.729)
(410.712 -197.008 120.598)
(420.109 -197.223 220.696)
(483.194 -203.416 294.033)
(522.87 -284.049 203.986)
(433.305 -255.768 160.196)
(452.478 -241.521 281.648)
(474.575 -269.392 287.888)
(330.838 -108.647 202.99)
(362.667 -114.1 219.019)
(321.399 -105.446 220.861)
(325.158 -121.398 215.904)
(390.002 -139.951 207.575)
(371.074 -132.984 219.043)
(336.985 -126.147 200.349)
(548.821 -106.466 77.3617)
(556.758 -129.073 103.64)
(500.08 -119.142 104.946)
(527.626 -100.684 125.875)
(540.664 -127.323 83.2556)
(563.146 -107.91 99.7017)
(504.892 -99.0093 97.6917)
(407.248 -239.401 60.4126)
(407.592 -235.994 102.87)
(433.968 -267.836 90.4037)
(383.199 -246.698 94.979)
(407.631 -260.389 74.1193)
(431.898 -248.196 80.1391)
(376.35 -226.264 77.9634)
(270.459 -36.6932 181.375)
(285.722 -53.8705 201.902)
(272.695 -51.8975 182.378)
(325.014 -41.4616 217.87)
(305.455 -39.7328 192.008)
(308.485 -56.03 193.09)
(329.088 -58.483 220.109)
(337.392 -176.605 70.7033)
(363.842 -183.65 116.081)
(324.747 -172.263 96.4216)
(382.445 -207.515 107.698)
(345.971 -196.469 82.7337)
(335.537 -192.549 106.155)
(374.329 -204.017 129.375)
(232.876 -413.691 58.0483)
(243.324 -381.007 93.1462)
(256.146 -410.131 73.3226)
(233.279 -404.735 101.671)
(244.766 -434.148 79.7961)
(266.501 -432.53 91.5792)
(254.654 -409.39 116.727)
(296.415 -163.202 182.612)
(345.494 -209.798 236.431)
(208.449 -120.951 132.228)
(353.284 -245.414 205.941)
(296.238 -206.029 199.355)
(250.625 -164.812 135.014)
(123.816 -82.8329 70.9558)
(318.055 -147.785 199.085)
(352.729 -142.385 209.541)
(309.478 -129.934 200.827)
(319.554 -133.029 218.413)
(382.825 -168.323 232.652)
(366.722 -146.602 226.706)
(328.743 -151.021 217.639)
(326.068 -40.726 197.199)
(374.114 -62.7286 199.213)
(328.41 -57.8463 196.267)
(387.702 -45.4035 204.741)
(334.77 -41.6932 191.973)
(338.129 -59.0171 192.306)
(392.141 -64.9684 206.323)
(569.767 -155.59 67.9914)
(570.027 -150.364 20.908)
(557.279 -154.461 54.0075)
(545.854 -174.906 59.1755)
(563.744 -175.716 26.5625)
(561.277 -176.703 69.4323)
(556.944 -172.008 23.3694)
(373.775 -63.1042 221.591)
(382.748 -45.6157 235.083)
(385.636 -63.815 234.758)
(421.391 -48.6177 233.99)
(425.468 -67.943 235.788)
(440.551 -49.2502 246.523)
(445.757 -69.7161 247.949)
(378.88 -118.282 103.783)
(399.407 -140.001 84.9205)
(382.333 -136.098 110.418)
(434.911 -127.689 102.82)
(435.461 -146.796 112.804)
(417.364 -123.995 127.344)
(421.35 -143.04 136.321)
(482.779 -224.785 45.0259)
(489.658 -239.802 23.1208)
(476.056 -244.344 53.7353)
(512.154 -228.557 24.977)
(502.579 -230.571 60.6621)
(498.122 -249.496 64.5624)
(502.489 -248.207 26.1852)
(369.724 -81.9776 132.466)
(370.845 -99.2194 134.169)
(371.56 -98.1184 179.057)
(408.227 -85.7196 149.546)
(417.837 -105.067 200.491)
(410.494 -104.316 154.115)
(413.368 -85.933 196.275)
(396.123 -319.051 20.2431)
(388.877 -339.467 57.9153)
(383.855 -319.564 50.0929)
(407.665 -325.127 58.9372)
(411.124 -342.849 24.9508)
(412.541 -344.663 61.8465)
(412.794 -323.213 23.7892)
(272.246 -148.086 208.73)
(295.876 -175.034 193.601)
(282.197 -166.444 205.478)
(324.969 -170.328 196.552)
(309.277 -161.65 208.15)
(323.907 -182.584 210.364)
(342.883 -193.352 200.694)
(278.63 -83.4972 183.636)
(289.395 -69.9703 203.797)
(275.206 -67.493 182.911)
(312.276 -72.8857 194.16)
(344.197 -95.6923 228.335)
(317.994 -90.4138 195.909)
(335.256 -76.406 223.204)
(449.147 -296.467 62.1087)
(438.555 -286.346 22.6809)
(425.629 -290.946 53.6794)
(427.67 -310.764 60.3644)
(447.875 -313.258 25.8455)
(450.669 -315.262 64.0658)
(432.388 -308.147 24.591)
(334.954 -93.1678 192.486)
(379.931 -82.2547 199.195)
(330.919 -75.4047 194.412)
(342.19 -76.9855 192.339)
(400.292 -106.209 209.675)
(348.685 -95.5763 193)
(396.864 -85.3751 208.188)
(550.155 -150.072 106.594)
(495.372 -139.122 112.686)
(531.763 -147.876 89.4397)
(523.461 -168.182 95.2446)
(518.106 -162.206 139.027)
(544.018 -170.751 108.4)
(491.548 -158.888 120.375)
(284.666 -443.701 22.9302)
(311.579 -425.833 61.5379)
(289.214 -427.529 53.7636)
(297.523 -447.226 63.5968)
(316.7 -445.069 26.386)
(318.708 -446.186 65.6481)
(294.961 -453.106 25.7718)
(358.296 -257.189 217.191)
(453.911 -283.869 302.596)
(286.344 -201.934 185.423)
(395.37 -334.565 296.162)
(366.092 -282.703 281.538)
(318.556 -271.931 223.759)
(221.231 -173.455 171.583)
(272.42 -181.605 148.178)
(286.851 -206.577 120.938)
(271.428 -183.821 113.731)
(308.603 -199.029 125.83)
(327.254 -221.356 171.688)
(324.135 -221.652 137.772)
(310.396 -197.341 160.514)
(277.157 -127.033 184.023)
(297.631 -150.073 180.694)
(287.627 -131.286 178.798)
(327.065 -157.399 186.596)
(314.685 -137.618 185.56)
(329.939 -142.956 187.719)
(346.958 -165.427 193.203)
(379.067 -98.373 219.992)
(393.995 -101.229 234.494)
(388.764 -82.3334 234.24)
(438.296 -108.083 242.532)
(430.582 -87.6315 238.29)
(451.89 -90.9397 249.845)
(459.176 -112.858 252.853)
(460.39 -216.41 78.3921)
(433.584 -224.555 112.533)
(457.734 -235.899 87.7171)
(460.695 -211.842 123.005)
(484.818 -222.705 95.9814)
(483.36 -241.569 100.637)
(462.915 -230.667 130.277)
(304.194 -230.093 108.555)
(325.304 -256.643 104.245)
(345.358 -246.916 108.801)
(319.999 -253.31 125.327)
(339.874 -243.962 129.624)
(357.459 -269.177 127.151)
(354.057 -266.697 148.197)
(209.291 -319.309 238.14)
(216.865 -362.468 224.575)
(303.935 -432.33 299)
(96.8779 -161.195 103.559)
(34.2355 -56.432 38.8101)
(233.558 -393.655 229.441)
(205.787 -290.3 193.734)
(331.533 -138.534 212.863)
(401.675 -176.496 227.353)
(361.151 -166.32 201.912)
(402.387 -162.278 210.421)
(384.127 -153.578 221.61)
(346.862 -145.211 199.785)
(342.47 -157.438 213.104)
(536.356 -195.267 63.5293)
(549.622 -217.488 69.7911)
(534.036 -214.535 26.3862)
(554.154 -196.935 26.9546)
(554.367 -197.405 69.8937)
(529.097 -215.178 66.4824)
(544.866 -193.747 25.2428)
(323.424 -168.195 163.118)
(362.152 -182.301 144.308)
(321.927 -170.02 125.621)
(333.718 -190.928 133.468)
(383.102 -204.966 198.343)
(374.517 -203.523 157.032)
(336.482 -189.736 170.267)
(391.317 -227.507 123.891)
(367.272 -237.42 115.228)
(356.125 -216.806 97.9348)
(348.119 -213.559 119.534)
(398.167 -245.446 162.684)
(361.766 -234.591 136.141)
(385.869 -224.639 145.485)
(437.837 -287.431 97.4672)
(391.352 -267.256 110.462)
(410.968 -280.678 86.4795)
(416.334 -301.075 94.9046)
(427.697 -295.2 132.993)
(442.024 -306.728 101.289)
(399.814 -288.138 122.336)
(350.142 -290.687 102.216)
(377.004 -328.328 90.9512)
(369.406 -307.086 80.6374)
(396.025 -314.737 92.6714)
(388.542 -322.511 128.224)
(402.892 -335.398 97.9972)
(379.489 -300.858 119.063)
(401.796 -158.726 94.9456)
(394.446 -173.765 129.546)
(387.588 -154.597 118.778)
(439.9 -185.051 136.027)
(437.004 -165.922 124.07)
(426.583 -162.433 147.24)
(433.388 -182.292 159.789)
(288.045 -288.287 236.168)
(299.898 -253.246 233.859)
(308.738 -308.713 208.997)
(243.809 -230.599 180.099)
(339.537 -260.648 206.6)
(303.365 -234.809 213.812)
(323.058 -306.952 214.327)
(119.691 -114.759 87.0181)
(402.391 -120.885 236.287)
(395.455 -136.411 225.444)
(415.484 -141.969 240.499)
(449.862 -129.713 249.75)
(466.088 -135.079 257.871)
(463.143 -152.505 260.402)
(469.346 -156.63 264.811)
(468.485 -112.637 125.274)
(500.092 -95.3101 150.262)
(469.779 -92.9601 117.592)
(451.913 -90.1505 142.826)
(495.901 -114.779 186.642)
(453.544 -109.793 150.03)
(493.032 -93.8906 179.001)
(260.349 -485.68 25.0283)
(270.681 -494.271 68.4267)
(263.186 -475.133 61.4953)
(284.06 -470.384 65.8942)
(288.085 -486.304 27.023)
(290.172 -489.815 68.4545)
(282.026 -474.021 26.4621)
(500.997 -75 144.579)
(472.011 -53.4747 106.339)
(471.474 -73.4907 111.071)
(489.565 -52.8724 167.843)
(450.288 -51.2861 132.716)
(451.214 -70.8852 137.001)
(491.138 -73.3964 172.775)
(283.768 -99.8517 185.049)
(312.81 -123.917 216.02)
(291.03 -117.225 187.616)
(354.957 -116.598 235.183)
(326.203 -108.786 198.728)
(338.658 -128.849 203.575)
(364.131 -138.718 241.439)
(396.066 -46.1479 227.663)
(416.573 -67.3556 215.206)
(399.521 -65.3157 227.608)
(451.561 -49.6928 221.742)
(456.022 -49.9407 237.935)
(458.701 -71.5561 238.908)
(448.996 -71.4724 220.892)
(292.842 -203.959 189.579)
(276.23 -179.879 185.195)
(284.826 -181.729 206.817)
(336.719 -222.754 209.536)
(316.756 -196.828 197.469)
(328.963 -200.086 218.692)
(353.725 -228.477 232.435)
(301.83 -412.559 96.3454)
(265.929 -387.062 110.306)
(278.882 -409.78 87.15)
(288.494 -433.775 99.4251)
(297.934 -421.017 134.561)
(310.038 -436.433 103.189)
(276.42 -415.167 127.69)
(375.827 -115.738 180.685)
(382.088 -134.138 184.818)
(378.41 -134.304 142.349)
(424.897 -124.721 207.49)
(414.631 -123.169 160.545)
(420.714 -142.452 169.23)
(434.865 -145.222 218.032)
(480.833 -260.79 25.129)
(472.121 -282.28 64.1534)
(473.095 -263.481 60.5185)
(495.515 -267.871 66.2671)
(488.904 -283.997 26.3837)
(494.064 -286.004 66.5111)
(494.832 -266.619 26.6082)
(211.263 -343.24 118.55)
(235.036 -362.521 113.979)
(225.326 -385.713 123.174)
(233.116 -356.323 135.946)
(223.145 -379.377 145.713)
(246.786 -394.473 140.087)
(244.892 -390.883 163.496)
(229.717 -204.787 174.115)
(259.665 -219.377 181.075)
(232.593 -219.591 181.71)
(219.252 -194.904 179.423)
(247.477 -208.522 181.812)
(263.177 -235.284 186.254)
(279.355 -249.615 190.328)
(384.982 -185.619 200.692)
(327.738 -150.249 218.378)
(19.1331 -8.49508 10.5862)
(122.828 -67.4804 86.105)
(425.52 -240.938 291.623)
(150.945 -90.5045 92.2167)
(13.0554 -6.12591 8.91584)
(341.586 -111.444 191.21)
(403.362 -145.733 203.297)
(351.274 -130.733 191.276)
(400.1 -126.758 209.488)
(359.075 -115.373 195.37)
(371.76 -137.063 199.816)
(395.752 -145.852 207.304)
(329.839 -167.955 201.393)
(404.75 -192.967 243.269)
(342.592 -171.619 220.688)
(405.25 -210.86 242.502)
(345.979 -190.706 208.921)
(362.78 -195.863 229.412)
(427.246 -219.462 259.027)
(516.838 -188.234 100.105)
(536.744 -211.106 109.645)
(488.27 -197.702 133.081)
(517.387 -182.472 142.426)
(539.337 -191.042 109.161)
(489.1 -178.427 127.275)
(512.129 -207.809 103.497)
(262.673 -479.764 106.488)
(243.447 -433.028 124.42)
(254.742 -456.603 97.1352)
(275.633 -456.338 102.739)
(271.634 -464.014 142.462)
(282.272 -479.432 107.799)
(264.028 -437.092 132.85)
(311.55 -184.837 185.602)
(311.753 -171.109 184.741)
(344.2 -179.88 190.425)
(331.518 -195.519 191.935)