/*--------------------------------*- C++ -*----------------------------------*\
  =========                 |
  \\      /  F ield         | OpenFOAM: The Open Source CFD Toolbox
   \\    /   O peration     | Website:  https://openfoam.org
    \\  /    A nd           | Version:  9
     \\/     M anipulation  |
\*---------------------------------------------------------------------------*/
FoamFile
{
    format      ascii;
    class       volVectorField;
    location    "0.00145";
    object      U;
}
// * * * * * * * * * * * * * * * * * * * * * * * * * * * * * * * * * * * * * //

dimensions      [0 1 -1 0 0 0 0];

internalField   nonuniform List<vector> 
11838
(
(17.3257 125.224 54.4239)
(6.40814 46.7222 30.3549)
(14.324 143.83 61.9267)
(18.1299 136.573 48.4192)
(18.7071 155.278 54.4845)
(1.50845 15.287 4.85514)
(1.82526 15.3745 2.93348)
(3.17009 19.8455 4.0108)
(1.32573 12.0281 3.67285)
(0.000474407 0.00171561 0.000390882)
(3.36871e-06 2.35113e-05 2.16723e-05)
(3.90849e-07 4.11003e-06 6.19157e-06)
(200.104 20.5503 58.4031)
(38.1081 10.2425 9.84554)
(135.303 50.2059 55.0277)
(22.4139 11.9922 6.06215)
(21.7929 6.59512 4.52711)
(4.08259 1.60817 1.15958)
(5.85733 3.55351 1.2827)
(1.20866 0.740185 0.357783)
(1.67354 0.722496 0.534918)
(0.0221306 0.0196389 0.00212482)
(0.0106534 0.00830894 0.00417438)
(0.000799795 0.000802574 0.000350165)
(0.00921407 0.0679306 -0.000486804)
(0.016515 0.246707 0.0926935)
(243.417 94.0825 96.3666)
(146.755 17.0753 40.4889)
(324.627 74.5442 111.372)
(140.488 24.2902 48.7064)
(265.372 101.017 92.2873)
(106.645 14.5973 33.8896)
(301.505 86.4399 115.646)
(201.333 76.9329 78.1188)
(76.4625 17.352 25.913)
(33.8932 7.16279 8.03403)
(188.232 68.8456 56.9777)
(61.7332 10.7562 18.3062)
(254.269 84.0383 94.0278)
(153.337 58.7914 47.3667)
(90.4761 36.6044 23.5693)
(21.7895 4.93382 4.51498)
(133.077 52.3994 33.8997)
(13.6267 4.55148 2.89172)
(115.577 45.3057 29.651)
(15.021 3.4342 3.32734)
(95.4133 40.4263 25.178)
(68.9778 28.9121 20.5412)
(8.07618 2.9124 1.97638)
(5.74895 1.24147 1.67604)
(37.9021 19.3424 13.895)
(9.88663 2.23765 2.519)
(64.6495 30.1072 20.1533)
(46.6894 20.0356 16.9439)
(12.1325 4.44791 5.52077)
(2.78044 0.558566 0.903046)
(18.0214 9.94201 7.23976)
(0.539205 0.2447 0.190126)
(26.526 10.8981 11.3452)
(1.05039 0.195034 0.370054)
(6.7811 3.8619 2.88463)
(4.21269 1.31166 1.9192)
(0.130367 0.0619186 0.0469377)
(0.065472 0.0727803 -0.0368782)
(0.331725 0.207207 0.141082)
(0.303087 0.0524079 0.105228)
(1.82389 1.06271 0.801566)
(1.01637 0.340394 0.322626)
(0.00233585 0.0139058 0.0155587)
(4.01033e-05 0.000292554 0.000360547)
(7.21999e-05 0.00087996 0.000599363)
(0.103825 1.00877 0.27554)
(0.119514 1.0783 0.0468345)
(0.0398783 0.112382 0.0221017)
(0.00455161 0.0426348 0.0101655)
(0.378515 1.53094 0.17138)
(0.0727992 0.752268 0.186924)
(0.00620269 0.0591352 0.0162775)
(526.087 247.212 75.4786)
(308.932 584.689 25.6185)
(362.959 420.312 240.099)
(142.145 299.17 142.24)
(190.94 285.808 89.0343)
(0.252095 1.23848 0.272218)
(35.3291 57.5632 26.283)
(0.00242163 0.0148033 0.003996)
(0.00272026 0.00725966 0.00333224)
(-5.87822e-06 5.23535e-05 5.07626e-05)
(506.653 641.789 33.8595)
(525.42 337.059 25.0563)
(444.303 301.75 180.689)
(412.736 583.958 219.183)
(149.598 118.372 45.826)
(77.411 69.0763 2.88092)
(220.805 442.276 160.591)
(30.3749 25.4198 9.24002)
(344.147 528.945 249.94)
(77.6881 56.3731 37.5221)
(296.693 420.081 180.736)
(37.7892 78.7835 31.9435)
(0.759493 0.55366 0.230616)
(1.64478 1.31346 0.633464)
(1.17236 4.79752 1.51161)
(0.0277064 0.0261132 0.0118929)
(7.9242 21.2119 5.82169)
(0.115591 0.0983264 0.0297945)
(85.5269 133.429 52.4292)
(0.292872 1.07438 0.28541)
(0.0017191 0.00189451 0.000689913)
(0.00127113 0.00145038 0.000368108)
(0.00986177 0.0581826 0.0139311)
(0.000846215 0.00125079 0.000302272)
(127.986 407.131 187.84)
(4.98894 24.0052 14.1526)
(0.0726639 0.284899 0.0842218)
(0.000798161 0.00095679 0.000390935)
(2.77717 2.80742 1.62101)
(0.000249541 0.00111757 0.00045476)
(0.00041798 0.000540778 0.000272301)
(0.0001108 0.000225318 6.24929e-05)
(7.50919e-06 5.73787e-05 2.18058e-05)
(9.58761e-06 2.42572e-05 1.08388e-05)
(117.101 213.191 33.0371)
(310.442 500.802 22.7085)
(127.067 322.152 13.0359)
(303.608 576.446 81.5256)
(303.345 484.41 75.1376)
(116.117 295.914 42.9437)
(129.179 241.445 9.36889)
(1.4115 2.75558 1.04745)
(123.857 171.857 89.0779)
(11.9417 40.7959 16.6819)
(59.9855 133.312 69.6378)
(8.74824 16.4884 6.19199)
(32.098 45.5551 23.3148)
(2.21615 9.50109 3.51473)
(0.00341494 0.00744987 0.0014906)
(0.165588 0.285502 0.0656787)
(0.00851741 0.0663143 0.0126129)
(0.0907295 0.481516 0.093093)
(0.00891186 0.0183473 0.00363677)
(0.0644652 0.112879 0.0251263)
(0.0032673 0.0262912 0.00463531)
(4.05454e-06 5.72902e-05 1.80502e-05)
(0.00172038 0.00343483 0.00100746)
(7.91242e-05 0.000754354 0.000193024)
(0.000477379 0.00304173 0.000848654)
(7.70873e-05 0.000214659 5.8035e-05)
(0.000307575 0.000700271 0.000224751)
(1.46777e-05 0.000149866 4.05627e-05)
(-4.63034e-05 0.010752 0.00720862)
(2.4698e-05 0.000280748 7.61633e-05)
(-7.61583e-05 0.000493863 0.000462947)
(1.10003e-05 0.000324844 0.000260651)
(1.23417e-06 5.08025e-05 2.51921e-05)
(3.26351e-05 0.000140203 6.17741e-05)
(2.81953e-05 0.000128699 2.84798e-05)
(0.00011379 0.00047117 0.000303637)
(6.03778e-06 3.55406e-05 1.46452e-05)
(589.295 419.447 91.4708)
(624.75 419.914 37.7577)
(481.477 553.024 30.6023)
(495.297 644.901 98.4237)
(613.571 436.331 101.549)
(474.705 552.641 93.7264)
(597.465 405.563 32.7347)
(560.264 418.816 154.095)
(458.616 620.738 159.91)
(528.03 441.971 232.969)
(404.548 474.586 200.698)
(578.512 438.557 169.648)
(448.26 524.726 153.54)
(519.281 411.391 214.12)
(83.8165 145.462 42.2973)
(278.964 531.936 131.753)
(215.245 320.023 130.753)
(43.5504 122.13 45.9377)
(272.701 426.823 118.188)
(85.1148 223.744 59.895)
(37.1887 64.4338 24.6663)
(364.24 334.877 226.671)
(482.384 447.205 287.368)
(329.549 388.259 207.596)
(255.296 418.698 225.314)
(461.155 389.234 250.394)
(423.57 434.419 297.767)
(204.726 240.747 144.283)
(214.976 229.02 135.412)
(139.126 244.981 129.572)
(220.573 290.544 136.12)
(10.9453 13.7966 5.9486)
(341.896 386.394 241.215)
(64.6073 75.2882 43.181)
(81.7628 97.3143 43.3032)
(0.175189 0.351542 0.133034)
(9.72649 29.0045 12.5117)
(0.589158 1.00167 0.338124)
(0.0324069 0.229746 0.0610062)
(3.9991 6.4463 2.93889)
(0.248535 1.4173 0.487789)
(0.0289593 0.0587141 0.016451)
(11.0472 13.8694 4.05395)
(120.11 175.058 59.6056)
(2.71454 3.78454 1.07401)
(2.74656 8.37151 1.91562)
(28.1945 34.2091 11.3577)
(63.1545 95.9315 30.3568)
(1.02956 1.49221 0.369579)
(4.3052 5.69379 1.748)
(0.972446 3.26617 0.782765)
(8.97244 16.8162 5.92514)
(0.122123 0.186844 0.0570412)
(27.6249 45.5451 15.2801)
(0.385952 0.575319 0.154339)
(1.41943 1.9658 0.668914)
(0.00117753 0.00280273 0.000586447)
(0.0330138 0.181895 0.0381385)
(0.00691921 0.0133023 0.00418372)
(0.000330502 0.00304727 0.000696437)
(0.0230903 0.0437705 0.00906661)
(0.0011349 0.0098482 0.00194348)
(0.000321122 0.000867134 0.000232787)
(1.85962 112.524 59.9514)
(15.2392 477.497 227.249)
(65.257 189.311 87.337)
(88.2511 298.613 159.437)
(9.38335 270.645 128.745)
(4.17773 372.82 204.419)
(21.3991 68.2102 34.1038)
(0.13375 7.83537 3.47857)
(7.29853 20.4171 8.78882)
(1.36119 38.5229 17.6652)
(1.24872 4.46021 1.8762)
(0.0881986 19.7943 10.0961)
(37.5758 137.579 82.8563)
(-0.301708 34.6894 21.7082)
(0.252197 1.4722 0.724919)
(-0.54672 187.578 116.996)
(2.91933 12.5422 5.92534)
(-0.0029102 2.093 1.09751)
(0.00723919 1.02042 0.481955)
(0.0121583 0.0729816 0.0366913)
(0.142375 0.662039 0.295657)
(0.000108841 0.100495 0.0534773)
(0.0802893 0.121577 0.0459718)
(2.37181 4.94105 1.83014)
(0.0308399 0.0486383 0.0166267)
(0.0149061 0.060351 0.0181213)
(0.375964 0.543937 0.204456)
(0.496088 1.08975 0.398701)
(0.00614186 0.010299 0.00361312)
(0.0121673 0.0194773 0.00833417)
(0.00222985 0.00927501 0.00322869)
(0.00926106 0.0214843 0.00995168)
(9.01033e-05 0.000238552 0.000111392)
(0.0785007 0.177312 0.0714125)
(0.000858258 0.00160738 0.000650685)
(0.00141653 0.0025143 0.00123209)
(8.03637e-07 8.89692e-06 3.29487e-06)
(6.87883e-05 0.000453327 0.000148878)
(4.48156e-06 1.91231e-05 7.92699e-06)
(1.36445e-07 3.29982e-06 1.18439e-06)
(4.40618e-05 0.000109387 4.02975e-05)
(2.07004e-06 2.2183e-05 7.04152e-06)
(-9.44994e-07 3.13994e-06 1.52593e-06)
(0.00085493 0.00656387 0.00357271)
(-7.94144e-08 0.000351259 9.66921e-05)
(3.46293e-06 4.26561e-05 1.84345e-05)
(-1.05358e-05 0.00846772 0.00477876)
(5.31213e-07 4.95788e-05 2.23928e-05)
(-3.01814e-06 0.000628074 0.000380178)
(5.95084e-05 0.000519641 0.000306147)
(-1.66377e-07 2.55721e-06 1.90484e-06)
(-1.81e-09 1.01718e-07 8.33267e-08)
(-1.6152e-07 1.73625e-06 2.02724e-06)
(1.1168e-06 6.89991e-05 5.67484e-05)
(4.85845e-08 3.03386e-06 2.03193e-06)
(5.5738e-08 2.28178e-06 2.46442e-06)
(3.42315e-09 1.16002e-07 9.19239e-08)
(0.000146238 0.00034856 0.00016504)
(2.96227e-05 0.000118623 5.34569e-05)
(0.000781642 0.00195908 0.0010804)
(5.82776e-06 4.26997e-05 1.55344e-05)
(2.02438e-06 2.50198e-05 8.20883e-06)
(4.67343e-05 0.000238199 0.000127138)
(-1.93744e-06 2.68843e-05 6.60252e-06)
(-3.96643e-09 1.50469e-07 1.02156e-07)
(-4.49839e-05 0.000249159 0.000402012)
(-2.94861e-07 3.82605e-06 6.55121e-06)
(315.404 475.814 -12.7127)
(347.044 469.78 3.4133)
(334.872 437.168 74.8908)
(343.161 388.387 203.574)
(335.384 375.526 178.507)
(283.113 325.618 160.338)
(149.467 484.629 229.6)
(41.6738 196.42 136.375)
(250.63 289.663 166.014)
(36.7707 53.8643 38.5132)
(3.85737 5.95751 4.59463)
(0.0413399 0.311339 0.125793)
(-5.01708 20.7262 18.2442)
(6.68906 33.2409 24.0297)
(-0.0118856 0.0857968 0.097084)
(0.0123651 0.0935807 0.0989723)
(220.746 310.886 -10.0355)
(287.516 622.1 -4.01048)
(258.478 161.226 15.5621)
(336.093 482.332 -58.9913)
(307.926 623.425 -64.6516)
(289.332 183.934 -4.36022)
(177.854 292.885 15.0203)
(271.253 325.599 10.3064)
(353.643 488.079 -43.2918)
(339 564.795 -4.80399)
(339.181 220.202 62.9606)
(333.454 605.019 -54.1555)
(319.728 211.688 21.0859)
(299.449 315.768 50.2705)
(346.029 274.948 149.121)
(331.895 511.741 69.2063)
(366.479 218.831 114.377)
(336.963 419.057 161.53)
(328.172 296.316 101.452)
(332.381 478.648 159.866)
(378.98 214.182 162.165)
(335.884 247.92 151.883)
(341.392 402.371 210.137)
(329.413 431.261 213.883)
(329.413 200.419 131.608)
(331.742 452.817 215.93)
(362.601 208.083 160.866)
(305.1 220.32 126.184)
(239.011 176.383 85.8893)
(320.982 410.199 190.732)
(290.963 187.878 100.722)
(318.489 360.386 155.23)
(270.789 196.193 99.38)
(305.964 387.616 165.869)
(253.68 169.884 85.9916)
(213.147 160.366 83.4815)
(301.907 346.277 152.414)
(283.419 355.231 165.833)
(175.665 125.14 78.2919)
(292.281 370.118 158.493)
(218.859 149.733 82.1384)
(186.298 142.304 84.4497)
(95.5291 71.6662 59.9999)
(272.262 334.648 181.582)
(118.644 90.7844 63.5448)
(195.181 233.236 152.261)
(148.302 114.072 79.9023)
(244.2 296.115 186.862)
(59.9747 50.5986 36.9346)
(44.6208 29.9352 29.8694)
(114.313 150.769 106.475)
(103.903 129.524 112.339)
(4.46909 3.66765 2.63639)
(185.936 229.344 169.823)
(20.6335 17.1736 12.6419)
(14.4135 7.66108 8.38334)
(-11.1356 532.082 304.303)
(106.688 500.522 231.147)
(14.4098 538.98 261.281)
(119.987 453.814 246.734)
(-4.15722 530.347 253.126)
(95.3975 500.055 276.483)
(-0.347082 502.853 282.889)
(-20.6128 507.759 333.963)
(86.5207 374.187 230.511)
(58.3098 413.184 289.423)
(-5.46475 237.269 167.722)
(76.1576 482.08 303.016)
(-6.83655 423.549 267.241)
(-19.5185 439.62 317.078)
(0.512545 1.63712 0.657606)
(35.4927 48.4439 36.8586)
(0.440327 0.4907 0.326299)
(0.294955 0.566928 0.403984)
(3.72108 4.36747 2.144)
(3.956 7.32814 5.10834)
(0.0398955 0.109517 0.0460156)
(42.908 213.876 172.175)
(-0.834449 45.0885 33.3972)
(0.396853 2.29435 1.85226)
(-8.24998 249.445 199.001)
(6.38151 29.9751 26.4493)
(-0.954833 42.5512 36.6079)
(-0.0361641 3.1168 2.50094)
(-0.00277475 0.0183676 0.0305017)
(3.18549e-07 3.96931e-05 5.50681e-05)
(-4.19712e-06 2.69823e-05 3.71825e-05)
(-6.33725e-06 0.000383122 0.00062341)
(0.000931803 0.0264462 0.0393706)
(-0.000404406 0.00316537 0.003946)
(0.000313879 0.00381354 0.00442749)
(0.00480183 0.174197 0.00260581)
(-4.09652e-08 3.41038e-06 1.21424e-07)
(0.000125523 0.00444606 0.00100176)
(-6.56097e-09 5.64895e-08 1.49828e-08)
(-9.32741e-09 8.16448e-06 1.19908e-06)
(-2.97895e-10 8.00533e-10 1.34635e-10)
(-6.08807e-09 8.26111e-08 1.90913e-08)
(-1.24496e-11 2.85973e-11 6.99171e-12)
(9.61003e-07 7.48146e-06 2.88267e-06)
(-1.11896e-10 3.18428e-10 6.08618e-11)
(-3.59622e-14 8.72937e-13 1.83066e-13)
(-2.14675e-11 6.87794e-11 1.46686e-11)
(0.476132 3.55641 0.0720638)
(0.0112346 0.017246 0.00223348)
(0.0466536 0.445372 0.107776)
(0.00471325 0.00720944 0.00135337)
(-0.00913184 0.009646 0.000188486)
(-9.27316e-06 2.02802e-05 1.12812e-06)
(-0.000936291 0.000965187 0.000286904)
(-2.22882e-06 4.85875e-06 7.63605e-07)
(0.0100696 0.107412 0.02748)
(0.000575996 0.000883732 0.000186731)
(3.54059e-05 0.000510856 0.000107226)
(0.000230793 0.000460552 0.000141687)
(-0.000205726 0.000211642 6.57216e-05)
(-1.39848e-07 2.81776e-07 8.67974e-08)
(1.15004e-05 0.000175137 2.80283e-05)
(5.25594e-05 0.000139109 2.91481e-05)
(3.12213e-07 7.41702e-06 1.65576e-06)
(1.32849e-05 4.35374e-05 9.00268e-06)
(5.45588e-08 1.7826e-06 4.30822e-07)
(1.91831e-06 9.05511e-06 1.98453e-06)
(-1.4097e-09 1.42695e-08 4.79166e-09)
(1.65038e-07 9.37351e-07 3.45713e-07)
(6.68788e-07 1.18768e-05 1.85127e-06)
(-6.12655e-11 1.81802e-09 -1.99317e-11)
(3.36428e-08 1.8207e-06 4.7849e-07)
(9.59024e-10 5.5014e-08 8.33046e-09)
(0.000636407 0.00112979 0.000117429)
(2.26702e-06 0.000168227 8.06753e-06)
(1.48709e-05 5.1285e-05 2.14456e-06)
(0.00045919 0.0193912 0.00418772)
(0.000312023 0.000665959 0.000105205)
(-1.37346e-07 4.10235e-05 5.53176e-06)
(6.96542e-06 3.08183e-05 4.62775e-06)
(4.41709e-05 0.000132034 3.52008e-05)
(-1.68488e-07 2.57645e-06 6.62913e-07)
(6.85579e-07 4.611e-06 9.46628e-07)
(2.67918e-08 2.23474e-05 4.29067e-06)
(5.2517e-06 2.40815e-05 5.31925e-06)
(-3.73028e-08 1.25676e-07 3.92812e-08)
(6.51535e-08 7.1791e-07 1.3648e-07)
(9.11776e-07 5.85121e-06 9.62092e-07)
(-1.0933e-08 2.35872e-08 4.19238e-09)
(1.26573e-08 1.96709e-07 2.8932e-08)
(-2.00297e-08 3.45229e-07 7.47267e-08)
(1.77853e-07 1.49103e-06 2.77567e-07)
(-2.89686e-09 5.21593e-09 1.11005e-09)
(2.30081e-09 4.98842e-08 8.85922e-09)
(2.61039e-08 2.96825e-07 5.97448e-08)
(-4.82945e-10 7.85027e-10 2.07364e-10)
(3.3353e-10 8.98695e-09 1.80093e-09)
(-3.46998e-10 1.03378e-09 2.65974e-10)
(2.4372e-09 3.17296e-08 9.88317e-09)
(-5.35327e-11 8.39567e-11 2.85154e-11)
(3.41207e-11 9.93994e-10 2.77724e-10)
(6.35154e-07 3.63477e-06 9.93648e-07)
(-6.32073e-10 2.75845e-09 7.07881e-10)
(1.30811e-08 1.05402e-07 3.21316e-08)
(1.45822e-07 1.11384e-06 2.99521e-07)
(3.60595e-09 3.45283e-08 5.03516e-09)
(10.6195 23.4297 3.13683)
(13.8499 54.026 1.7068)
(0.640281 1.77549 0.0330105)
(0.355808 2.71289 0.300725)
(10.7716 43.1664 6.00114)
(0.477314 1.32243 0.147198)
(13.8454 30.2375 0.832753)
(5.38014 12.3326 2.86261)
(0.164783 1.37078 0.272916)
(1.65273 8.90315 2.58474)
(0.0657682 0.185076 0.0451895)
(5.29563 23.9085 5.79689)
(0.227196 0.635091 0.124845)
(1.6465 3.91241 1.11348)
(-4.31628e-05 3.986e-05 6.26863e-06)
(-0.00041906 0.000246595 6.34996e-06)
(-0.000683442 0.00109657 1.80229e-05)
(-0.00673904 0.00712409 0.000938044)
(-0.000326132 0.000202603 3.68205e-05)
(-0.000495882 0.000796122 0.000103104)
(-5.85292e-05 5.25571e-05 1.01353e-06)
(-1.92986e-05 1.81114e-05 3.83677e-06)
(-0.00317605 0.00332922 0.000786123)
(-4.21286e-05 2.52233e-05 1.11523e-05)
(-6.71376e-05 0.000107003 3.49406e-05)
(-0.000151224 9.31668e-05 3.25424e-05)
(-0.000224747 0.0003623 5.67223e-05)
(-5.47557e-06 4.81262e-06 1.83936e-06)
(0.0561051 0.132482 0.0431642)
(0.349986 2.28976 0.701405)
(0.0143242 0.0398953 0.0101208)
(0.00160993 0.0187165 0.00510013)
(0.359917 0.86183 0.250171)
(0.0568272 0.439057 0.131451)
(0.0020656 0.0060871 0.00182212)
(0.00701517 0.0174507 0.0058079)
(0.000198495 0.00263071 0.000741383)
(0.00110467 0.0108325 0.00251278)
(3.00166e-05 0.000202541 4.9044e-05)
(0.00688294 0.0615794 0.0187799)
(0.000255872 0.000841695 0.000248894)
(0.00123631 0.00325788 0.000810175)
(-1.73912e-07 1.50709e-07 6.48712e-08)
(-9.0766e-06 5.39546e-06 2.49146e-06)
(-1.36398e-05 2.20081e-05 6.0685e-06)
(-3.29471e-05 3.34848e-05 1.21485e-05)
(-1.10117e-06 1.01293e-06 3.52888e-07)
(-1.40145e-06 8.11404e-07 4.45931e-07)
(-2.20974e-06 3.45748e-06 1.13964e-06)
(0.000143827 0.000458197 9.9275e-05)
(0.00034717 0.00342356 0.000586631)
(1.20358e-05 7.33558e-05 1.14446e-05)
(4.53451e-06 7.07659e-05 1.16469e-05)
(0.000414405 0.00113199 0.000177661)
(0.000136277 0.00137636 0.000230992)
(-9.87681e-07 3.69662e-05 7.73748e-06)
(5.53453e-05 0.00017028 3.13271e-05)
(1.56686e-06 2.54023e-05 4.76403e-06)
(1.31567e-05 0.000151209 3.3701e-05)
(-1.20874e-06 5.13143e-06 1.41548e-06)
(4.77164e-05 0.000506165 9.60605e-05)
(2.25748e-07 1.27167e-05 2.48064e-06)
(1.22837e-05 5.12366e-05 1.43569e-05)
(-1.35313e-07 3.61638e-06 1.09163e-06)
(3.10231e-06 3.66871e-05 8.95371e-06)
(-3.73318e-07 1.36899e-06 3.44366e-07)
(-5.45211e-09 3.65168e-07 9.64242e-08)
(3.01018e-06 1.2825e-05 3.15551e-06)
(4.64617e-07 7.22827e-06 1.90696e-06)
(-1.87742e-07 4.26269e-07 1.34025e-07)
(5.36461e-09 6.2032e-07 2.0459e-07)
(-2.21927e-09 6.2107e-08 1.82944e-08)
(-7.55166e-10 2.07564e-07 6.8736e-08)
(-2.2042e-08 3.81951e-08 1.64349e-08)
(6.16724e-08 1.11486e-06 3.38484e-07)
(-5.61796e-08 1.10438e-07 4.09421e-08)
(-7.58831e-08 2.47141e-07 9.87987e-08)
(8.81109e-09 3.54864e-07 -1.54139e-08)
(4.26767e-08 1.42117e-05 2.13948e-06)
(1.12876e-08 5.70999e-07 5.33025e-08)
(2.0459e-07 3.23804e-06 9.01689e-07)
(7.55141e-09 6.46226e-07 5.04407e-08)
(7.69683e-08 3.65921e-06 1.04969e-06)
(1.54822e-08 3.25758e-07 -1.95131e-08)
(6.489e-10 2.40613e-08 -1.26171e-09)
(-2.65371e-10 3.08535e-08 1.93442e-09)
(6.66957e-11 1.91737e-09 -6.34539e-11)
(1.8457e-10 4.1871e-09 -2.33407e-09)
(7.26995e-10 3.32858e-08 1.35959e-09)
(9.80586e-10 2.20629e-08 -1.35407e-09)
(1.05711e-10 4.3618e-09 -2.36644e-09)
(0.0266853 0.087245 0.00129789)
(-0.000360219 0.00808813 0.000107291)
(0.00363286 0.130765 0.0126798)
(0.0195535 0.0637181 0.00662402)
(-0.000258546 0.00595442 0.0006127)
(0.000747052 0.00278097 0.000300482)
(0.00106374 0.00388547 5.3196e-05)
(0.000486206 0.0017685 0.000419764)
(-7.42514e-06 0.000178019 3.5884e-05)
(1.7762e-05 0.000728042 0.00018579)
(5.80023e-05 0.000275468 7.75438e-05)
(-1.88177e-06 3.14759e-05 1.07725e-05)
(-4.00048e-06 2.10361e-05 7.09866e-06)
(1.11935e-05 7.90856e-05 1.7078e-05)
(1.86106e-07 4.42861e-06 5.9412e-07)
(-5.34937e-08 3.89011e-07 4.23669e-08)
(-6.57591e-08 3.35464e-06 5.32802e-07)
(-2.9287e-07 2.30948e-06 4.62493e-07)
(-2.71732e-08 1.61039e-07 3.57146e-08)
(-1.62196e-07 3.02609e-07 7.68256e-08)
(-3.58671e-07 6.82059e-07 9.75227e-08)
(-2.86297e-08 9.4591e-08 2.24809e-08)
(-1.71805e-09 4.51155e-09 9.95558e-10)
(-3.56444e-09 1.82862e-08 4.82338e-09)
(-2.21719e-08 4.16249e-08 1.24064e-08)
(-7.05646e-10 1.19453e-09 5.17881e-10)
(-7.2428e-09 9.17575e-09 3.43864e-09)
(-1.90832e-08 2.5556e-08 5.7888e-09)
(4.79533e-07 4.22645e-06 1.40657e-06)
(4.81909e-09 5.23605e-07 1.77468e-07)
(8.78117e-08 2.37316e-06 5.57083e-07)
(-1.45135e-07 6.18186e-07 2.16894e-07)
(4.60037e-09 2.53534e-07 -1.10801e-09)
(-1.30139e-07 4.34762e-07 6.74752e-08)
(2.24955e-08 2.52683e-06 5.51524e-07)
(1.69081e-10 3.14947e-09 9.78374e-10)
(-5.01508e-12 1.2599e-11 2.39101e-12)
(-1.90097e-12 9.62756e-11 2.87817e-11)
(8.61525e-11 1.01483e-09 7.10703e-11)
(5.00273e-11 4.76367e-10 1.00823e-10)
(1.27559e-12 2.80604e-11 -2.63657e-13)
(-3.73078e-13 1.67958e-11 1.5487e-12)
(2.60955e-09 1.41352e-07 9.22715e-08)
(1.48347e-10 4.68463e-09 2.0517e-09)
(2.49803e-10 5.36943e-09 3.80588e-09)
(1.3569e-11 3.18977e-10 5.32924e-11)
(0.00179824 0.0635887 0.0110998)
(0.00242715 0.00834989 0.00201513)
(-3.59073e-05 0.000845358 0.000226066)
(0.0088231 0.0295233 0.00489779)
(-0.000114212 0.00279465 0.000336495)
(0.000308629 0.00126842 0.00014402)
(6.58561e-05 0.000392611 0.000108253)
(1.72471e-06 0.000104896 2.68676e-05)
(1.48741e-07 1.12876e-05 2.63451e-06)
(-9.6067e-08 9.9043e-07 1.97192e-07)
(7.69317e-06 4.05978e-05 1.07029e-05)
(-2.99972e-07 4.31878e-06 1.12927e-06)
(-1.00793e-06 3.47124e-06 9.26649e-07)
(-4.92697e-07 1.14995e-06 2.97214e-07)
(-2.46662e-08 1.18088e-06 2.14089e-07)
(-1.20698e-07 3.50226e-07 9.34199e-08)
(-5.69251e-09 1.81168e-08 5.77961e-09)
(-6.66621e-08 8.04618e-07 1.40858e-07)
(-1.38337e-08 5.83836e-08 8.73362e-09)
(-9.94971e-08 1.57721e-07 2.8733e-08)
(-4.10801e-08 6.00889e-08 2.05097e-08)
(-7.97247e-10 3.50558e-09 9.87273e-10)
(-2.4784e-09 4.24096e-09 1.50426e-09)
(-7.00503e-11 9.56806e-11 2.15961e-11)
(-3.78498e-09 8.86345e-09 2.93998e-09)
(-1.85508e-10 2.80629e-10 9.0569e-11)
(-2.1424e-09 2.768e-09 9.2342e-10)
(-7.56082e-10 9.32649e-10 3.92602e-10)
(-1.91642e-09 3.76359e-08 1.18255e-08)
(-6.01173e-09 9.94096e-09 3.50395e-09)
(-1.12205e-10 3.0628e-09 -1.33837e-09)
(-7.85275e-09 4.86582e-08 1.64283e-08)
(-9.75809e-11 1.8059e-08 1.84463e-10)
(-7.80376e-09 3.09919e-08 4.4882e-09)
(-5.469e-09 8.83824e-09 1.52746e-09)
(2.84277e-07 1.83586e-06 5.16571e-08)
(-3.16084e-09 6.74401e-08 1.95768e-09)
(3.514e-09 5.30325e-08 1.11905e-09)
(-2.63291e-08 8.52308e-07 1.34064e-07)
(8.66318e-08 7.31637e-07 1.26578e-07)
(-1.43659e-09 1.74628e-08 2.89896e-09)
(8.22801e-11 2.08899e-08 3.61213e-09)
(8.79984e-09 1.36e-07 2.34029e-08)
(-2.41949e-10 1.2889e-09 3.29137e-10)
(2.55511e-11 3.78978e-09 5.9665e-10)
(-1.0242e-09 3.74952e-09 1.04405e-09)
(4.56365e-10 2.24263e-08 3.77458e-09)
(-4.62112e-11 1.25442e-10 3.0807e-11)
(-9.49087e-11 8.36443e-10 1.83901e-10)
(6.15141e-11 6.30383e-09 8.0144e-10)
(-1.22992e-11 3.0382e-11 4.10809e-12)
(-8.68598e-12 2.02765e-10 2.31766e-11)
(-7.81858e-11 1.88019e-10 3.67307e-11)
(-3.96978e-12 1.63612e-09 2.85203e-10)
(-3.76822e-12 7.94109e-12 2.01467e-12)
(-8.73146e-12 6.30721e-11 1.37835e-11)
(-1.2869e-13 2.71767e-10 5.51778e-11)
(-4.85683e-13 1.10661e-12 2.8001e-13)
(-3.87927e-13 8.40367e-12 1.84752e-12)
(-1.35744e-12 3.03646e-12 8.96819e-13)
(-8.402e-13 3.09948e-11 8.09316e-12)
(-5.63021e-14 1.41969e-13 2.9691e-14)
(-3.22654e-13 1.34666e-12 3.71967e-13)
(-2.75544e-11 7.52828e-10 3.56829e-11)
(-3.16266e-12 3.26522e-11 6.85525e-12)
(-2.42532e-13 1.91723e-12 3.40983e-13)
(-4.17625e-15 5.94655e-14 3.02026e-14)
(7.2898e-09 1.48524e-07 8.94307e-08)
(1.22634e-07 1.67738e-06 1.48601e-06)
(2.00672e-06 1.14359e-05 4.03258e-06)
(5.00174e-05 0.000316477 0.000130937)
(4.89552e-09 8.61009e-08 5.89866e-08)
(2.7084e-06 2.491e-05 1.26958e-05)
(7.37375e-06 4.90205e-05 3.4791e-05)
(2.60087e-07 1.88552e-06 1.17172e-06)
(3.4373e-08 9.50196e-07 4.50853e-07)
(6.88585e-08 1.10253e-06 7.74044e-07)
(-2.77294e-08 9.65895e-08 5.06512e-08)
(2.39493e-06 3.48276e-05 3.74145e-05)
(1.59993e-05 0.000386845 0.000511728)
(0.00119373 0.0221591 0.0249874)
(0.00013441 0.00128436 0.000987052)
(7.4387e-05 0.000104017 5.63381e-06)
(6.96905e-06 1.03302e-05 2.70337e-06)
(4.62999e-07 8.228e-07 1.46533e-07)
(2.21729e-08 4.23822e-08 1.06265e-08)
(3.92975e-11 2.05831e-10 1.53304e-11)
(1.83601e-10 3.88921e-09 2.35269e-09)
(7.57871e-08 4.22002e-07 1.24842e-07)
(2.34251e-09 1.4772e-08 3.60404e-09)
(5.38936e-06 6.17299e-06 2.37233e-07)
(2.8853e-06 5.22707e-06 1.73655e-07)
(2.05976e-07 3.04274e-07 9.26883e-09)
(3.70637e-05 5.24569e-05 1.09457e-05)
(2.31673e-06 2.73605e-06 6.86561e-07)
(1.42576e-06 2.48277e-06 5.16461e-07)
(8.57502e-08 1.40083e-07 3.13656e-08)
(4.77914e-07 5.47029e-07 1.30551e-07)
(3.00801e-07 5.26064e-07 1.07094e-07)
(1.8731e-08 2.8194e-08 5.8351e-09)
(1.57464e-06 2.46423e-06 5.44674e-07)
(1.09985e-07 1.38769e-07 4.2748e-08)
(5.77935e-08 1.16992e-07 3.00468e-08)
(4.01783e-09 8.40197e-09 2.35005e-09)
(3.54332e-08 4.67332e-08 6.99061e-09)
(1.55922e-08 3.53421e-08 4.94524e-09)
(1.32123e-09 2.42884e-09 3.35909e-10)
(1.23251e-07 2.30345e-07 5.07179e-08)
(9.99821e-09 1.40819e-08 4.48243e-09)
(4.23686e-09 9.96965e-09 2.51944e-09)
(3.35865e-10 8.37781e-10 2.40966e-10)
(1.63219e-09 2.22574e-09 6.76341e-10)
(6.71019e-10 1.59948e-09 3.77128e-10)
(5.67029e-11 1.09308e-10 3.09459e-11)
(2.412e-09 4.55464e-09 1.59614e-09)
(1.69983e-10 2.5064e-10 8.73379e-11)
(8.4331e-11 1.97432e-10 7.50304e-11)
(4.68637e-12 2.05726e-11 7.08245e-12)
(-4.32987e-11 2.7412e-10 3.23881e-11)
(1.134e-08 8.41385e-08 4.74276e-08)
(1.8639e-09 3.69775e-08 1.50381e-08)
(2.07563e-10 3.46851e-09 1.76107e-09)
(-1.68139e-09 3.35264e-09 9.84479e-10)
(-2.10446e-09 5.09584e-09 1.82508e-09)
(-1.90121e-09 2.31346e-09 6.01561e-10)
(2.63529e-08 6.19321e-08 4.08459e-09)
(1.8628e-09 4.95989e-09 9.61946e-10)
(1.10953e-10 3.61076e-10 6.63021e-11)
(4.23977e-12 1.41013e-11 4.29254e-12)
(0 1.72837e-15 -1.09285e-14)
(-5.20175e-13 8.88657e-12 3.05368e-13)
(-3.55755e-15 1.02705e-13 1.77877e-15)
(-4.70215e-14 5.13856e-13 1.46013e-13)
(0 4.79496e-15 6.34194e-16)
(-1.39208e-15 2.75246e-14 3.59303e-15)
(0 0 0)
(0 6.51237e-18 9.78395e-18)
(0 0 0)
(0 1.3022e-21 -4.02597e-18)
(0 0 -1.3328e-19)
(-3.25438e-13 1.10259e-12 1.05315e-13)
(-1.39208e-15 1.33405e-14 4.43322e-16)
(0 1.09254e-18 0)
(0 0 0)
(2.45387e-07 3.42411e-07 2.8389e-08)
(2.7982e-08 4.23269e-08 9.74103e-09)
(2.64769e-09 4.3722e-09 8.77846e-10)
(1.15961e-10 2.06153e-10 7.0793e-11)
(9.56973e-11 2.66135e-09 7.78953e-10)
(1.15764e-12 4.94982e-11 7.47257e-12)
(1.54676e-14 8.80731e-13 7.48013e-14)
(0 1.20328e-14 2.45443e-16)
(0 0 0)
(0 0 0)
(-117.836 437.508 239.005)
(-33.2943 369.319 257.48)
(-35.1036 412.068 261.858)
(-32.8788 349.538 220.505)
(-28.4456 397.591 226.341)
(-38.175 481.976 279.426)
(-8.17516 455.281 225.595)
(-34.321 460.441 235.134)
(-8.87851 475.848 271.921)
(3.06787e-13 3.021e-12 1.20116e-13)
(1.42936e-12 1.30199e-11 4.34843e-13)
(9.43523e-15 1.76893e-13 3.01618e-15)
(1.1941e-13 1.2761e-12 3.17682e-13)
(1.54676e-16 1.73237e-14 1.98797e-15)
(5.87769e-15 8.93833e-14 1.38657e-14)
(0 0 0)
(0 1.07618e-15 4.52228e-16)
(0 0 0)
(0 8.7444e-19 -1.13342e-17)
(0 0 -3.80683e-19)
(1.91611e-10 9.1439e-10 4.02086e-11)
(1.51954e-11 8.17169e-11 2.02242e-11)
(9.06711e-13 5.91632e-12 1.10345e-12)
(3.41795e-14 2.24867e-13 6.88391e-14)
(1.39208e-15 3.48289e-14 5.2671e-16)
(-117.989 218.786 283.349)
(-1.68524e-08 2.75237e-08 6.84146e-09)
(-1.01061e-08 1.92217e-08 1.44607e-08)
(-2.53371e-07 4.3081e-07 5.20242e-07)
(-7.66782e-06 1.33501e-05 1.3912e-05)
(-1.58128e-08 2.6568e-08 2.40045e-08)
(-3.76601e-07 7.76327e-07 6.18107e-07)
(-3.08464e-08 4.69839e-08 2.83123e-08)
(-1.88511e-09 2.86099e-09 1.22524e-09)
(-2.91049e-09 6.24875e-09 3.53241e-09)
(-2.81246e-10 5.47461e-10 2.65986e-10)
(-41.9411 26.8205 6.06982)
(-22.2141 13.0663 5.29364)
(-0.00574542 0.00337262 0.00145933)
(-0.000243321 0.000189125 8.83397e-05)
(-9.79984e-05 8.20978e-05 4.06612e-05)
(-2.18837e-05 1.79554e-05 5.86133e-06)
(-1.7976e-06 1.57089e-06 7.30452e-07)
(-1.7487e-07 1.24064e-07 7.6496e-08)
(-1.25552e-08 8.08879e-09 7.52737e-09)
(-7.79e-10 1.12194e-09 2.94764e-10)
(-0.0137442 0.026653 0.0119642)
(-0.000108636 0.000175481 0.000122337)
(-0.0664766 0.123685 0.0192337)
(-0.00683994 0.0152757 0.0017587)
(-0.00152137 0.00302883 0.00121316)
(-0.00329045 0.00562469 0.000668962)
(-0.000702284 0.00129454 0.000497309)
(-7.55093e-05 0.000145637 3.62407e-05)
(-0.000284287 0.000591583 4.9304e-05)
(-96.234 535.43 250.333)
(-136.622 510.79 292.613)
(-93.801 554.711 228.732)
(-149.253 616.79 278.63)
(-148.741 508.488 235.706)
(-155.552 610.87 245.068)
(-178.268 485.264 362.957)
(-109.657 582.171 254.614)
(-124.378 344.918 321.542)
(-116.574 584.23 273.376)
(-164.812 383.627 335.524)
(-132.843 599.558 297.808)
(-140.285 447.303 347.46)
(-225.461 465.292 475.691)
(-150.886 424.74 407.863)
(-213.647 436.569 429.463)
(-169.324 464.535 460.924)
(-189.268 569.079 351.297)
(-137.569 606.407 292.699)
(-181.638 613.322 287.057)
(-154.719 590.774 292.762)
(-160.901 610.867 307.102)
(-152.505 551.263 341.056)
(-191.21 591.999 293.198)
(-223.771 469.797 440.878)
(-159.908 458.429 335.587)
(-172.659 475.138 439.705)
(-196.477 430.253 315.069)
(-156.805 478.155 162.59)
(-193.634 591.996 241.48)
(-147.095 585.007 223.994)
(-153.231 581.723 215.996)
(-180.302 558.126 211.862)
(-189.064 555.922 206.003)
(-134.312 529.855 180.66)
(-80.5499 193.411 80.2212)
(-127.264 376.025 191.466)
(-137.123 317.886 158.243)
(-90.1361 269.208 114.854)
(-19.5586 600.092 38.0572)
(-39.5625 547.983 205.269)
(-99.5244 627.196 247.479)
(-91.6682 465.126 230.526)
(-0.0162851 0.0862734 0.0645237)
(355.519 484.077 19.4875)
(-18.4508 554.649 154.102)
(317.992 511.64 99.2645)
(273.258 526.539 146.409)
(-91.4597 626.116 274.078)
(215.984 573.806 222.299)
(204.282 564.892 197.7)
(-100.384 527.842 228.558)
(154.985 465.775 187.081)
(-3.87045 18.65 11.5486)
(108.323 217.153 103.413)
(67.471 568.534 33.0453)
(-0.17136 203.337 46.2137)
(-19.2938 613.718 52.6505)
(67.3994 587.476 36.7448)
(-7.72059 238.814 113.698)
(115.73 179.478 43.3417)
(28.3249 426.398 309.157)
(50.6146 550.003 184.474)
(-50.8457 323.431 305.183)
(-61.4178 580.007 253.155)
(56.4861 317.936 285.631)
(27.9773 585.772 233.929)
(-72.3848 430.005 330.821)
(-35.8801 565.676 190.524)
(-24.9339 632.418 241.766)
(-98.0397 599.253 230.324)
(-103.421 602.022 221.257)
(-28.2218 598.378 225.36)
(-36.1855 610.35 218.843)
(-93.7178 559.022 190.593)
(-10.89 108.185 58.4198)
(-49.3267 485.268 237.849)
(-49.106 239.904 120.006)
(-70.6692 334.027 191.31)
(-24.9775 277.345 136.439)
(-40.4565 371.874 209.129)
(-16.9094 78.5932 41.4714)
(-4.35039e-05 0.000349534 0.00020097)
(-2.89773e-06 4.77295e-05 2.40627e-05)
(250.369 211.66 92.5522)
(188.414 550.591 23.6165)
(430.632 153.041 39.6786)
(354.31 507.756 16.5883)
(189.099 569.397 21.2047)
(421.779 190.283 89.7467)
(257.631 174.933 39.7409)
(120.701 353.324 132.903)
(1.0548 339.157 49.9739)
(-8.02642 360.958 141.666)
(129.403 330.026 47.2887)
(278.341 355.425 122.906)
(494.75 310.738 43.6837)
(484.129 335.912 119.283)
(287.19 330.485 44.4095)
(100.721 225.807 177.566)
(-14.1833 593.166 108.372)
(70.4731 548.105 132.345)
(-28.95 260.488 258.271)
(73.4732 574.672 86.0238)
(-13.6055 241.537 193.163)