/*--------------------------------*- C++ -*----------------------------------*\
  =========                 |
  \\      /  F ield         | OpenFOAM: The Open Source CFD Toolbox
   \\    /   O peration     | Website:  https://openfoam.org
    \\  /    A nd           | Version:  9
     \\/     M anipulation  |
\*---------------------------------------------------------------------------*/
FoamFile
{
    format      ascii;
    class       volScalarField;
    location    "0.0002";
    object      rho.air;
}
// * * * * * * * * * * * * * * * * * * * * * * * * * * * * * * * * * * * * * //

dimensions      [1 -3 0 0 0 0 0];

internalField   nonuniform List<scalar> 
4273
(
1.43594
1.46444
0.483257
0.88981
3.26433
0.0118663
0.0183782
0.903657
0.16551
0.552253
2.15889
0.0118095
0.885813
0.0118828
0.717386
0.0230369
0.595255
0.0176304
0.489654
0.0116568
0.0200962
0.501226
0.0122044
0.486163
0.775937
0.0156921
0.026456
0.594878
1.49001
0.0396331
1.29465
2.91783
0.0555493
1.2308
0.0176614
0.0405186
0.0436078
0.0128038
0.0323453
0.0116457
0.0121553
0.0120268
0.0430733
0.145579
0.0112921
0.0179043
0.0170037
0.0427834
0.0372039
2.26043
0.384339
0.0355349
1.15469
0.114443
2.27722
1.60358
1.67892
1.37894
0.186385
0.530956
1.66707
2.01838
0.0118285
0.985619
0.0381875
3.59239
0.561235
2.0105
0.0772446
0.0303305
0.578077
0.0121669
2.10099
3.58676
0.0814839
0.704282
0.0258321
0.0730102
0.0626522
0.573841
2.68484
0.0778352
1.08072
0.227452
1.97868
1.55407
1.22506
1.37838
2.13604
1.22754
0.0232599
0.0236368
0.485436
0.776516
0.0119588
0.0834963
0.476362
0.111168
0.182049
0.630509
0.77025
0.149124
0.123436
0.575648
0.0114221
0.0112951
0.0114541
0.0123285
0.0116823
0.0117644
0.0121797
0.0115897
0.011817
0.0220158
0.013211
0.0119727
0.0194174
0.0146593
0.615366
0.615171
0.186627
0.14728
0.165501
0.581886
0.677763
0.159939
0.106889
0.562256
0.734533
0.109792
0.142927
0.775535
0.021841
0.0114541
0.0115875
0.0130767
0.0147724
0.0179099
0.0193106
0.0115887
0.0117756
0.0112169
0.0120951
0.0111496
0.0115645
0.0152899
0.141703
0.766023
0.159809
0.105905
0.556829
0.110747
0.540097
0.0265581
0.0177545
0.0128684
0.0124396
0.0113197
0.011495
0.0183829
0.116237
0.842464
0.173677
0.741708
0.14609
0.108166
0.554582
0.0287949
0.023815
0.0129803
0.0116253
0.0194071
0.0125582
0.0114891
0.0233442
0.505236
0.0878022
0.0233017
0.779871
0.0119031
0.486486
0.0155204
0.0115416
0.0112952
0.0116447
0.0120711
0.0110852
0.0115431
0.013151
0.0310172
0.0123503
0.0134008
0.0254111
0.0121666
0.0215065
0.0237836
0.53005
0.023876
0.784263
0.0121686
0.0920429
0.500806
0.012298
0.0123673
0.0122934
0.0121773
0.0113896
0.0122034
0.0181375
0.0806086
0.481124
0.0233124
0.0236179
0.779155
0.0119548
0.484704
0.159998
0.562195
0.109129
0.106654
0.73361
0.142702
0.552509
0.0115951
0.0112147
0.0115625
0.0117769
0.0120928
0.0111569
0.0118812
0.0183702
0.0176828
0.011328
0.0127064
0.0130209
0.023559
0.0118279
0.131817
0.115145
0.0655634
0.0286914
0.0483427
0.0815028
0.187426
0.0349813
0.124193
0.0268455
0.101969
0.159513
0.0452293
0.0772416
0.0127353
0.0211599
0.0180384
0.0113626
0.0113504
0.0115691
0.0146143
0.0322353
0.13621
0.107719
0.0200799
0.0714447
0.0604504
0.022983
0.0121621
0.0122119
0.0516711
0.0268561
0.011994
0.043256
0.0169912
0.0181131
0.0114616
0.0184867
0.0214295
0.0142465
0.0113051
0.0115418
0.107954
0.0413345
0.139959
0.0225789
0.0709916
0.0198983
0.0596861
0.0112267
0.0113484
0.0116045
0.0113432
0.0123398
0.0116456
0.011799
0.0176209
0.0507209
0.0423619
0.0120645
0.0266201
0.0120231
0.0422661
0.0114474
0.0117547
0.0114578
0.0123099
0.0120251
0.0117281
0.0117966
0.0121703
0.0122166
0.0513813
0.0265706
0.0119516
0.0430128
0.0168049
0.0205994
0.0430422
0.0732527
0.11626
0.035007
0.0623518
0.0231858
0.0116815
0.0121186
0.0114233
0.0114523
0.0123295
0.0118641
0.0117649
0.0114432
0.0218306
0.0147487
0.0115856
0.0130779
0.0118081
0.0193199
0.0122504
0.0516135
0.0433001
0.0121998
0.0268502
0.0119946
0.0435458
0.0230305
0.144077
0.0728412
0.0206451
0.115903
0.0348994
0.0625762
0.112575
0.109974
0.0487658
0.0274643
0.0797733
0.0386352
0.151234
0.0477458
0.111261
0.0267813
0.103634
0.0779096
0.147083
0.0382625
0.164553
0.609619
0.674669
0.62049
0.148368
0.167027
0.585882
0.0264254
0.0127131
0.0112842
0.0130222
0.0183265
0.0236035
0.0176132
0.0256015
0.0380915
0.0158634
0.0566986
0.022332
0.0255071
0.0872965
0.124244
0.05556
0.0268507
0.101967
0.0452685
0.159643
0.0349264
0.0487203
0.0486285
0.0183744
0.0695697
0.0269493
0.119608
0.0302173
0.181759
0.632066
0.111712
0.774566
0.122171
0.149966
0.894135
0.0308168
0.0123138
0.0131522
0.0134001
0.0218144
0.0252974
0.0200186
0.131861
0.115312
0.188184
0.0655667
0.028676
0.048266
0.0395956
0.0327461
0.0329662
0.0159607
0.0578862
0.0189703
0.0260246
0.0796416
0.0427436
0.0206806
0.0729306
0.115848
0.0230545
0.0348741
0.143989
0.111024
0.0476745
0.0267676
0.103497
0.0355151
0.0382076
0.146622
0.0111391
0.0115314
0.0114612
0.0118001
0.0112818
0.0115025
0.0114046
0.0116753
0.011502
0.0114165
0.0118895
0.0112437
0.0116888
0.0116248
0.0109675
0.0115035
0.0114485
0.0118068
0.0114163
0.0114204
0.0111438
0.010635
0.0122759
0.0108053
0.0110314
0.0108281
0.0111017
0.0107206
0.0118711
0.0122473
0.0118899
0.0120805
0.0117444
0.012109
0.0121951
0.0105361
0.0133046
0.0121599
0.0130884
0.0111528
0.0114222
0.0110893
0.0122812
0.0137396
0.0140792
0.0117792
0.0144307
0.0120992
0.0119292
0.0109787
0.0113699
0.0113102
0.0116612
0.0110913
0.0113689
0.0113213
0.0131605
0.0124705
0.0149044
0.0114611
0.0151723
0.0115052
0.0125308
0.0112287
0.0119076
0.0115186
0.0119404
0.0114612
0.0118652
0.0113904
0.0108851
0.0111485
0.0116064
0.0111883
0.0110079
0.0111596
0.0110447
0.0115014
0.0114414
0.0114157
0.0118883
0.0115791
0.0110808
0.0116354
0.0127122
0.0122384
0.0118545
0.0122478
0.0121728
0.0120804
0.0124382
0.0802849
0.0138538
0.0284681
0.0991583
0.0167311
0.102544
0.0763604
0.0804455
0.100738
0.0140747
0.0270967
0.101684
0.0162203
0.0772751
0.187484
0.747545
0.172914
0.740282
0.179489
0.181086
0.700493
0.0291275
0.011913
0.0121239
0.0211551
0.0122125
0.0251824
0.0254207
0.0109826
0.0110869
0.0112585
0.0116479
0.0109845
0.011165
0.0111511
0.0108851
0.0111884
0.0111492
0.0116141
0.0110428
0.0111596
0.0110118
0.0109987
0.0111395
0.0112404
0.0116823
0.0110533
0.0111755
0.0111339
0.0112954
0.0120039
0.0120108
0.0118705
0.0116915
0.0115916
0.011549
0.0111035
0.0113597
0.0114356
0.0117046
0.0114651
0.0111975
0.0113716
0.0112702
0.0115585
0.0115201
0.0117227
0.0113736
0.0115046
0.0114625
0.0107524
0.0113759
0.0112178
0.0113795
0.0108739
0.0108503
0.0109696
0.0117661
0.0111237
0.0130933
0.0118621
0.0112119
0.0129591
0.0116419
0.0116054
0.0128789
0.0115254
0.0115995
0.012263
0.0118871
0.0112121
0.0125122
0.0142412
0.0121932
0.0137986
0.012523
0.0121661
0.0144682
0.0117627
0.0114782
0.0118608
0.012061
0.0120249
0.0113423
0.011683
0.0114673
0.0111119
0.0115542
0.0126575
0.0111265
0.0115628
0.0122682
0.0116574
0.011109
0.0118595
0.0131158
0.0111838
0.0128618
0.0116378
0.0124387
0.0120528
0.0138143
0.0137564
0.0121686
0.0143923
0.012121
0.0106449
0.0110135
0.0107863
0.0121491
0.0110973
0.0107971
0.0107222
0.0106436
0.0110251
0.0112265
0.0121014
0.0110862
0.0109943
0.0107859
0.0107552
0.0111015
0.0110925
0.0115134
0.0110896
0.0109107
0.0109007
0.0109684
0.0118919
0.0114975
0.0117228
0.0114846
0.0111091
0.0113949
0.0107528
0.010937
0.0111497
0.0111529
0.0109372
0.0108375
0.0111008
0.0109439
0.0111965
0.0113601
0.0115216
0.0113494
0.0110956
0.011111
0.0105442
0.0133319
0.0131805
0.0121055
0.0114599
0.0111647
0.0111377
0.0123546
0.0136749
0.0138077
0.0118112
0.0143862
0.0119742
0.012031
0.012731
0.0158483
0.0109373
0.0135864
0.0113615
0.0161252
0.0118925
0.0112638
0.0124632
0.0109849
0.0113647
0.0109937
0.011403
0.0118858
0.0115002
0.0115936
0.0111739
0.0113158
0.0110416
0.011421
0.0115106
0.0127361
0.0139297
0.0144325
0.0118759
0.0154009
0.0120964
0.0122426
0.0120914
0.011967
0.0131462
0.0111637
0.0134033
0.0112035
0.0116771
0.0127695
0.0134278
0.0160368
0.0110069
0.0119912
0.0165125
0.0112612
0.0116461
0.0116153
0.0112959
0.0111784
0.0114851
0.0110628
0.0115747
0.0824549
0.100996
0.0292892
0.013942
0.105823
0.0170587
0.0778869
0.0820019
0.0276173
0.0139106
0.100553
0.0774789
0.104163
0.0164461
0.190719
0.745999
0.174052
0.744869
0.180614
0.17953
0.719885
0.0294709
0.0119621
0.011951
0.0213002
0.0254267
0.0122419
0.0254161
0.0107179
0.0139387
0.0120857
0.0129043
0.0113982
0.0110213
0.0117099
0.0108239
0.0111683
0.0112788
0.0115003
0.0109782
0.0110699
0.0112464
0.0107607
0.0116032
0.0111055
0.0111044
0.0109522
0.0109461
0.0110328
0.0106324
0.0121818
0.0110303
0.010797
0.0107183
0.0107788
0.0110868
0.0108428
0.0117365
0.0113855
0.011738
0.0110844
0.0110752
0.0114116
0.0107002
0.0109415
0.0109399
0.0110489
0.0108294
0.0108714
0.0108332
0.0108264
0.0112815
0.0111748
0.0115012
0.0110773
0.0109853
0.0112459
0.0145189
0.017136
0.0115833
0.0153163
0.0187656
0.01261
0.0130065
0.0130712
0.0138554
0.0121026
0.013357
0.0124816
0.0124552
0.01423
0.0134887
0.0146609
0.0138427
0.0123124
0.0128745
0.012506
0.0154912
0.0127163
0.0118515
0.0122397
0.0122447
0.0124361
0.012175
0.0120744
0.0847553
0.0145157
0.0305729
0.102376
0.107462
0.0181599
0.0788356
0.0844553
0.102724
0.014498
0.0290775
0.0788103
0.0175983
0.106898
0.196616
0.759183
0.174973
0.759112
0.183897
0.183856
0.741837
0.0304896
0.0124774
0.0124688
0.0214101
0.0259227
0.0131402
0.0259539
0.0118462
0.0116763
0.0115141
0.0136584
0.0120877
0.0123102
0.0114432
0.0120819
0.0122312
0.0122324
0.0133969
0.012476
0.0121473
0.0124811
0.0118426
0.0115054
0.0116651
0.0136009
0.0114356
0.0122855
0.0120797
0.0117153
0.0120781
0.011709
0.0120759
0.0116779
0.0116716
0.0120281
0.0116706
0.0114926
0.0114859
0.0114063
0.0114524
0.0118103
0.0114558
0.0118682
0.0118842
0.0122499
0.0120785
0.0121949
0.0117354
0.0121093
0.0122022
0.0155787
0.0141721
0.0155996
0.0128435
0.013325
0.01295
0.0801096
0.0277491
0.0997923
0.0138463
0.102257
0.0769248
0.0160302
0.0800084
0.0262882
0.0140606
0.100841
0.0774798
0.101065
0.0155817
0.187333
0.742667
0.172914
0.749632
0.178443
0.181388
0.704309
0.0290136
0.0119273
0.0121248
0.0211733
0.0251896
0.0254639
0.0121788
0.01064
0.0121148
0.0107857
0.0110123
0.010797
0.0107207
0.0110716
0.0107507
0.0115101
0.0110913
0.0110996
0.0109075
0.0108941
0.0110874
0.0109346
0.0111897
0.0113578
0.0115195
0.0110886
0.0110988
0.0113466
0.0106381
0.0120619
0.0112292
0.0110248
0.0109934
0.0110605
0.010777
0.0109543
0.0117187
0.011483
0.0118886
0.0110916
0.0113794
0.0114797
0.01075
0.0109387
0.0111527
0.0111591
0.0108399
0.0111021
0.0109318
0.010958
0.0114468
0.0114972
0.0118043
0.0114076
0.0111401
0.0114133
0.0112792
0.0113644
0.0124905
0.0109924
0.0120099
0.0109869
0.0114116
0.0127874
0.0133761
0.0166903
0.0110912
0.0124983
0.0163989
0.0113047
0.012191
0.0135741
0.0134069
0.0119914
0.0120701
0.0137742
0.0120227
0.0114967
0.011414
0.0114387
0.0118866
0.0116329
0.0110751
0.0115782
0.0122932
0.013769
0.0137466
0.01175
0.0142633
0.0120291
0.0119605
0.0114046
0.0125596
0.0109445
0.0117108
0.0110391
0.0122856
0.0113776
0.0113346
0.0124354
0.0110262
0.0114881
0.011048
0.0114418
0.0119621
0.0115322
0.0116247
0.0112637
0.0113521
0.0111201
0.0115319
0.0114477
0.0131858
0.0115325
0.0147872
0.0124792
0.0116106
0.0148559
0.0126028
0.0130815
0.014868
0.0115219
0.0124388
0.0116022
0.0125847
0.0147991
0.0182571
0.0309648
0.0154477
0.0310903
0.0168205
0.0167326
0.0343541
0.0132203
0.0118379
0.0118054
0.0127834
0.0116996
0.0129519
0.0128969
0.0114773
0.0128557
0.0115249
0.011044
0.0124242
0.0115253
0.0109878
0.0113436
0.0125226
0.0114643
0.0108958
0.0113343
0.0122006
0.0109374
0.0114686
0.0116106
0.0113244
0.0112195
0.0115249
0.0114064
0.0110368
0.0107014
0.0110809
0.0114039
0.0110834
0.0108458
0.011047
0.0108521
0.0108277
0.0110311
0.0114768
0.0111866
0.0108531
0.0110078
0.0110855
0.0105124
0.0109217
0.0111019
0.0110076
0.0106359
0.0106199
0.0107513
0.0108246
0.0114734
0.0110295
0.0111869
0.0110855
0.0108492
0.0110072
0.0112489
0.0120041
0.0120035
0.0119066
0.0115865
0.0116476
0.0115872
0.0109772
0.0113691
0.0113091
0.0116604
0.0113191
0.0113672
0.0110923
0.011179
0.0115322
0.0115321
0.0117524
0.0114813
0.0112834
0.0114802
0.0131379
0.0123079
0.0114564
0.0146129
0.012512
0.0147195
0.011483
0.0177967
0.0305242
0.0155524
0.0305203
0.016674
0.0166706
0.0330155
0.0130095
0.0117827
0.0117799
0.0128308
0.0128827
0.0115513
0.0128837
0.0109992
0.0111552
0.0112341
0.0116396
0.0110592
0.0111539
0.0111376
0.0110158
0.0116936
0.011693
0.0117092
0.011172
0.0117252
0.0111759
0.0110017
0.0111584
0.0112362
0.0116611
0.011139
0.0111611
0.0110616
0.0113485
0.0120547
0.0120544
0.0118502
0.0115688
0.0118868
0.011569
0.0112285
0.0115174
0.0119075
0.0119389
0.0113902
0.0118645
0.0114598
0.0112322
0.0114954
0.0114958
0.0116879
0.0114404
0.0113306
0.0114406
0.0107657
0.0112791
0.0111128
0.011233
0.0108589
0.0109515
0.0108563
0.0129499
0.0114953
0.0147451
0.0124015
0.0115435
0.0146788
0.0125311
0.0128465
0.0149039
0.0115013
0.0123561
0.0125576
0.0115258
0.0147164
0.0178851
0.0305038
0.0153831
0.030481
0.03337
0.0166
0.0165928
0.0130555
0.011768
0.0117688
0.012728
0.0128337
0.0116072
0.012833
0.0111046
0.0114358
0.011362
0.0117047
0.0112
0.0114645
0.0113727
0.010746
0.0111893
0.0113524
0.011359
0.0108382
0.0108653
0.0109622
0.0109799
0.011086
0.0116406
0.0112563
0.0109825
0.0111487
0.0111626
0.0109987
0.0116797
0.0111403
0.0112415
0.0111351
0.0110528
0.0111756
0.0112964
0.0120122
0.0120046
0.0118719
0.011693
0.0115926
0.0115502
0.0111357
0.0115295
0.0114584
0.0117984
0.011501
0.0114018
0.0112783
0.0112701
0.0115599
0.0115215
0.0117226
0.0115041
0.0114631
0.0113755
0.0114513
0.0126236
0.0115386
0.0111071
0.0122333
0.0115488
0.0111183
0.0116531
0.0118531
0.0111096
0.0131083
0.0116373
0.0111819
0.0128521
0.012433
0.013804
0.0120551
0.0137615
0.0121212
0.0121662
0.0143818
0.0116715
0.0115006
0.0114139
0.01189
0.011623
0.0116883
0.0112403
0.013174
0.0125479
0.0150724
0.011536
0.0151146
0.0126213
0.0116085
0.0130736
0.0124316
0.0115202
0.0148255
0.0125772
0.0116003
0.0147817
0.0182408
0.0310752
0.0154476
0.0309439
0.0168127
0.0167281
0.0343202
0.013218
0.0118406
0.0118058
0.0127839
0.0129534
0.0128962
0.0117006
0.0129238
0.0110974
0.0134524
0.0167078
0.0165039
0.0113586
0.0125058
0.011242
0.0109866
0.0113414
0.0122988
0.0113827
0.0109832
0.0117889
0.0121931
0.011993
0.0134116
0.013579
0.0120239
0.0137667
0.0120731
0.0129629
0.0120941
0.0133331
0.0136448
0.0124399
0.0139363
0.0124453
0.0143465
0.0115726
0.0152554
0.0171581
0.0125134
0.0130037
0.018558
0.0134827
0.0123144
0.0138406
0.014651
0.0125084
0.0154582
0.0128734
0.54874
1.25807
0.2792
0.279322
0.800885
0.160761
1.26141
0.222462
0.222604
0.662778
1.64649
0.135471
0.988228
0.413582
1.1056
0.357709
0.21409
0.23995
0.393637
0.128136
0.0745159
0.246872
0.0749019
0.111522
0.633168
0.0328269
0.253766
0.198415
0.0970678
0.171492
0.818199
0.199732
0.300166
0.0618823
0.258652
0.0881223
0.175607
0.827682
0.203721
0.0632868
0.291797
0.251305
0.351051
2.52584
0.713541
0.555253
1.22458
0.273786
2.09651
0.306176
0.531119
1.16523
2.26328
0.629737
0.261227
2.01066
1.08795
0.353419
0.115201
0.266362
0.293469
0.0878858
0.855177
0.381256
0.265508
0.29243
1.08396
0.351086
0.0875846
0.85351
0.537931
0.81963
0.268769
0.429571
0.226839
1.43234
0.963195
0.26634
1.65868
0.951571
0.819773
0.42787
0.227286
1.42633
0.531119
0.305847
1.16619
2.26164
0.261378
0.629517
1.29319
2.53747
0.556185
0.716997
0.352382
1.22959
0.274641
1.49804
0.851891
0.264932
0.114146
0.291988
0.0874436
0.349758
0.380338
1.65838
0.266704
0.820055
0.427549
0.952814
0.530632
1.42514
1.74283
2.21715
2.1997
1.225
1.22583
1.225
1.22617
2.18308
2.05992
2.075
1.22595
1.225
1.22614
1.225
1.7137
1.28969
0.913407
1.26498
0.385827
0.411067
0.270967
1.53302
1.14044
0.880519
0.388917
0.343259
0.506782
0.259079
0.885993
1.54479
1.22045
0.371773
0.348444
0.261425
0.49726
1.2324
1.58073
0.512438
1.22583
0.371506
0.376218
0.267444
1.67466
1.67436
1.58916
1.58425
1.63955
1.60328
1.74718
0.457583
2.82687
1.81339
2.9602
0.982656
1.78795
0.884402
2.229
3.34369
1.16737
3.32379
1.2238
0.577557
2.23122
1.78692
0.222101
1.59019
1.62226
0.705892
0.726797
0.599565
2.15521
2.17461
0.414728
1.79533
1.41333
0.909009
2.49688
1.61146
1.74449
1.59789
1.68114
1.58541
1.64629
1.60286
1.49834
2.66233
2.43785
2.88657
2.22068
1.164
3.05154
2.17512
2.79166
2.33891
1.11987
3.15191
1.32956
2.98956
2.30948
2.06281
2.411
2.27532
1.11092
0.858627
1.98909
2.0621
2.31682
2.41644
0.855758
2.26048
1.10383
1.98719
2.32893
2.23834
2.10429
2.32922
1.01733
1.26025
2.22645
2.01649
1.8522
1.52358
1.43075
2.02823
1.55322
1.93474
1.93041
1.52954
1.38334
1.85093
1.43303
2.02918
1.55473
2.01817
1.85081
1.52909
1.43288
1.93066
2.02844
1.38332
2.20959
2.17052
2.06259
1.72199
1.72355
1.88125
1.57139
2.21376
2.07669
2.19959
1.6765
1.66223
1.84294
1.50574
2.2145
2.21104
2.20271
1.70977
1.69334
1.86201
1.55251
2.07304
2.22146
2.22378
1.73164
1.72471
1.89145
1.5735
1.29717
1.96084
1.44468
1.23799
2.04172
1.29005
1.61784
1.83673
2.41031
2.61373
2.41377
2.68884
1.9555
2.10615
0.385428
3.60946
3.26468
0.744502
0.0245844
2.08457
0.0828611
0.555461
0.0127423
0.819296
2.26066
0.078897
0.557465
1.65059
0.0185051
0.0872945
1.3517
0.167366
1.45812
1.60202
1.64558
1.39638
0.181123
1.61199
0.0454695
0.017533
0.029869
0.0457677
0.0706541
0.0298284
0.112591
0.0647113
0.117521
0.134195
0.0287745
0.188704
0.0486968
0.0397368
0.10901
0.596361
0.118474
0.175831
0.742188
0.147426
0.843693
0.0199543
0.0114838
0.0116138
0.0298195
0.0129946
0.0251165
0.0194546
0.0562685
0.103663
0.126655
0.0272761
0.161411
0.0461466
0.035473
0.110027
0.541385
0.106041
0.160097
0.717202
0.142148
0.767235
0.012616
0.0112934
0.0114906
0.0267702
0.0128844
0.0240216
0.0177866
0.0381049
0.0223896
0.056874
0.0256912
0.0159162
0.0382538
0.0256491
0.611176
0.186814
0.62185
0.148691
0.164839
0.587283
0.676514
0.656167
0.161114
0.597184
0.597438
0.145373
0.161094
0.571309
0.0134246
0.0139294
0.0110672
0.016987
0.0176421
0.0125634
0.0115403
0.0116514
0.0111711
0.0112944
0.0116116
0.0114937
0.0115699
0.0110674
0.0117219
0.0118166
0.0111701
0.0130538
0.0128487
0.0116879
0.0111554
0.0126416
0.0118729
0.0137902
0.0141706
0.0149792
0.0120782
0.0121817
0.0130281
0.0135408
0.0109788
0.016725
0.0124234
0.0167331
0.0113962
0.0112629
0.0113536
0.0109795
0.012355
0.0118206
0.0113881
0.0109906
0.0115036
0.0111671
0.0113127
0.0115893
0.0114277
0.0115013
0.0110381
0.0122764
0.0118058
0.0135642
0.0136694
0.01196
0.0140095
0.0119893
1.06599
0.246677
0.728355
0.12319
0.220557
0.0757514
0.338738
0.151496
1.16462
0.260477
0.261641
1.99639
0.50715
1.16543
0.30154
0.563247
0.201573
0.258789
0.171926
0.0974893
0.062397
0.414176
0.99048
0.222715
0.663658
0.134922
0.222659
0.988223
2.49716
0.555215
0.70735
0.342017
1.19724
0.271831
1.43841
2.00354
0.629237
0.531148
0.304961
1.14899
0.260166
1.28532
0.39852
1.60027
0.501949
0.786388
0.259826
0.218363
0.927748
0.518583
1.36029
0.400278
0.259653
0.932105
0.780439
0.216
2.97005
1.81384
0.982171
2.83285
0.884783
0.457908
1.79002
3.63028
1.17674
2.13262
0.546329
3.21017
1.08696
2.10724
1.66983
1.68248
1.59743
1.58551
1.64944
1.61107
1.74676
1.62948
1.732
1.65637
1.6575
1.59773
1.62962
1.63019
2.04148
1.40324
2.03334
1.83212
1.53928
1.56956
1.9233
2.04122
1.45863
2.05126
1.54651
1.93812
1.84085
1.5858
1.98159
1.67273
2.1672
1.38447
1.23182
1.28999
1.24391
2.18464
1.61528
2.04548
1.4156
1.23322
1.24284
1.32033
1.22983
1.32614
1.39656
1.74719
1.26991
1.85492
1.25232
2.21141
1.54505
2.07172
1.41792
1.23652
1.24809
1.32522
2.19752
1.46878
1.62238
1.42196
1.2334
1.24322
1.32504
1.22559
1.22848
1.2528
1.51656
1.22619
1.23365
1.28046
1.25515
1.25319
1.22529
1.22731
1.29111
1.23741
1.2259
1.26041
1.2624
1.22763
1.22547
1.30055
1.24321
1.22609
1.25939
1.2566
1.22541
1.22744
1.29525
1.2414
1.22605
1.26145
1.26185
1.22766
1.22546
1.30213
1.24301
1.22611
1.23165
1.22524
1.22501
1.22506
1.22555
1.22812
1.22514
1.23165
1.22517
1.22505
1.22501
1.22543
1.22793
1.22514
1.23186
1.22517
1.22501
1.22505
1.22544
1.22804
1.22514
1.23036
1.22513
1.22503
1.22501
1.22689
1.22544
1.22511
1.28542
1.22556
1.22583
1.225
1.225
1.225
1.22707
3.01404
2.36162
1.62689
1.225
1.225
1.225
1.225
1.225
1.28564
3.34001
1.226
3.06908
0.419917
1.24439
1.81924
2.03423
3.17319
0.512481
1.22737
1.25633
1.32932
1.71839
1.22639
0.801025
1.32457
0.265448
0.805816
1.73228
1.24716
0.346005
1.03599
2.4733
1.23986
1.5824
1.22512
1.23541
1.225
1.225
2.20046
1.23155
1.90063
1.22506
0.259657
1.79746
1.40338
1.23795
1.23426
1.22908
1.27574
1.22501
1.34528
1.89203
2.61422
2.82998
2.34196
0.258212
2.4757
2.57609
1.22545
2.61345
0.175943
2.47756
0.6011
2.15392
0.0968877
0.171334
0.0619652
0.81472
0.1992
0.299185
0.55847
0.0634763
0.251742
0.0884574
0.832093
0.204223
0.575085
0.293461
0.218516
0.784869
0.926055
1.59933
0.398736
0.501922
1.35014
0.605604
0.276119
0.396029
1.74617
0.92968
1.31588
1.29777
0.395979
0.348796
0.264472
1.54814
0.896643
1.25051
1.15686
0.374856
0.36095
0.507076
1.56765
0.898114
1.23534
1.18981
0.258844
0.476186
0.354326
1.49885
0.879189
1.14883
1.17166
0.910223
0.414705
2.49679
2.17512
1.41276
2.15556
0.886331
1.225
1.225
1.225
1.30248
1.22619
1.23716
2.68915
0.884157
1.79114
0.457987
1.80969
2.9614
0.981524
3.59193
0.222936
1.59383
0.729273
1.62958
1.7929
0.709941
2.68812
2.33809
0.845033
1.91837
2.38662
2.41011
2.09845
2.32542
1.225
1.225
1.22577
1.225
1.22531
1.49009
2.48385
1.225
1.22751
1.22501
1.225
1.22617
2.55521
1.23665
0.978593
1.61936
0.693159
2.44796
2.48153
2.20585
1.89383
1.85063
1.06593
2.20023
2.28424
2.45916
2.04015
2.39393
1.22718
1.23041
1.225
1.22511
1.22526
1.25762
1.9407
1.225
1.225
1.22587
1.22501
1.22699
2.15739
1.61114
1.97277
2.57368
1.5465
0.793874
0.542107
1.96644
1.54003
1.56512
2.62702
1.99722
0.555995
0.801549
2.01445
1.56971
0.695126
2.03093
0.955189
2.47457
2.4504
2.19306
1.89311
1.22593
1.225
1.22536
1.225
1.22504
1.22996
1.46617
1.225
1.22539
1.225
1.225
1.22538
1.29821
1.49756
3.28569
1.17105
1.50074
2.45043
2.91488
2.23426
2.70093
3.00688
1.3316
1.12361
2.35088
2.96189
2.1878
2.83319
1.08525
2.23115
1.89853
2.25493
2.43806
2.00086
2.33768
2.29149
2.01054
2.27212
2.31364
0.938863
1.1822
2.17871
1.22519
1.225
1.225
1.79377
1.225
1.31026
1.225
1.87534
2.01972
2.19018
0.684168
2.43926
0.970669
1.60449
1.90152
2.44901
2.22739
2.07077
0.699879
1.63749
0.99112
0.794629
1.88087
2.18508
2.22296
2.43661
1.98452
2.35295
1.22502
1.2627
1.22799
1.225
1.225
1.225
1.225
1.5626
1.8621
1.68674
2.21552
2.07136
2.2027
2.20836
1.45804
1.56975
1.53957
1.83042
1.92173
2.03342
2.04059
1.22544
1.22501
1.22672
1.225
1.225
1.225
1.225
1.26113
1.22504
1.22824
1.225
1.225
1.225
1.225
1.22522
1.22533
1.24401
1.225
1.225
1.225
1.225
1.66322
1.49148
1.63711
2.19512
2.08275
2.22106
2.19651
1.87816
1.57301
1.72379
2.22074
2.08188
2.23914
2.18129
1.7388
1.71788
1.88286
2.2145
2.06464
2.17467
2.20125
3.37963
2.7016
1.9807
1.54467
2.19789
2.53902
2.38362
1.89372
2.66013
2.64323
2.49411
1.38269
2.00178
2.0644
2.64589
2.26597
2.72232
2.48385
1.3641
1.90695
2.06974
2.63444
1.77416
2.62906
2.18675
1.45624
2.50314
2.07926
3.28082
2.48263
2.74567
3.6741
1.78909
2.73991
3.2707
2.6875
1.52748
3.34652
2.52088
2.18238
1.97593
2.97897
1.65552
2.45176
2.67533
1.57702
2.68253
2.68709
2.60425
1.42718
2.01568
2.50448
2.65336
2.63347
1.84654
2.43504
1.95801
2.10394
2.41266
2.61324
2.40767
1.83479
1.37679
1.39686
2.44562
2.62757
2.68692
2.13011
2.43783
1.89767
1.28999
1.29721
1.44503
1.61733
1.96083
2.042
1.97893
1.66205
2.53204
1.89207
1.79617
1.5758
1.24694
1.27562
1.94958
2.51684
1.74296
1.86496
1.67206
1.2556
1.28525
2.58865
2.18048
2.56312
1.82946
2.06078
1.27945
1.34331
2.5586
1.9323
2.59383
2.04416
1.82742
1.2776
1.33638
1.23114
1.24057
1.36719
1.96069
1.59141
2.11611
1.42493
1.38112
1.23202
1.28736
1.97608
1.6871
2.16904
1.44503
1.45413
1.23992
1.3488
1.59563
1.78531
2.10453
2.21005
1.23753
1.24989
1.42431
2.08937
1.77284
2.23247
1.57094
1.24476
1.2352
1.40139
2.06966
1.65602
2.17946
1.50995
1.23444
1.44497
1.33298
2.06633
1.67112
2.20881
1.48891
1.35059
1.25528
1.44951
1.77416
1.5969
2.11024
2.20262
1.24746
1.34047
1.44405
2.07813
1.67451
2.20207
1.50758
1.22831
1.25851
1.28307
1.35362
1.44491
1.8
1.91614
1.33522
2.03935
1.81172
2.1546
1.92557
2.59538
2.56013
1.27972
2.06806
1.94105
2.18303
2.58254
1.83024
2.55745
1.63153
2.35331
2.44896
1.74585
1.54708
1.23775
1.25417
1.65071
2.45657
2.37846
1.75929
1.57707
1.2399
1.25564
2.2108
2.09825
1.59593
1.45889
1.34884
1.24005
1.25741
1.22574
1.25715
1.48368
2.42475
1.24619
1.41433
1.78374
1.23355
1.40176
1.23788
1.24438
1.47051
2.39098
1.58413
1.60893
1.24616
2.53011
1.43475
1.59088
1.23649
1.22544
1.79868
1.48519
2.43362
1.2471
1.41824
1.23436
1.22576
1.24519
1.47929
2.40645
1.41882
1.23943
1.23409
1.22549
1.225
1.225
1.225
1.225
1.225
1.225
1.22535
1.23641
1.22506
1.22589
1.55328
1.22856
1.26185
1.26785
1.24961
1.22517
1.22741
1.23455
1.31577
1.74064
1.31722
1.22508
1.24594
1.22666
1.68914
1.22938
1.27989
1.28944
1.22682
1.22741
1.25037
1.31715
1.23164
1.74396
1.29474
1.22572
1.22627
1.23505
1.25844
1.2289
1.28439
1.55045
1.22718
1.23296
2.04581
1.4577
1.28364
1.23162
1.22517
1.23697
2.14111
1.33267
1.233
1.30166
1.22837
1.22525
1.47912
2.24466
1.37588
1.2336
1.34477
1.23028
1.22528
1.27891
1.40357
2.02457
1.23107
1.29769
1.227
1.22513
1.23277
1.49362
2.12148
1.23449
1.32143
1.22776
1.2252
1.24225
1.29501
1.25577
1.22544
1.22743
1.22592
1.22617
1.29733
1.24312
1.25988
1.2275
1.22547
1.22606
1.22611
1.26364
1.26112
1.3004
1.2276
1.2262
1.22549
1.22611
1.25307
1.23613
1.25028
1.22708
1.22572
1.22525
1.22581
1.23363
1.28014
1.51585
1.22559
1.25266
1.22845
1.22505
1.23395
1.72706
1.31296
1.22723
1.24869
1.2273
1.22516
1.225
1.225
1.225
1.225
1.225
1.225
1.225
1.225
1.225
1.22502
1.225
1.225
1.225
1.225
1.22664
1.30137
1.25983
1.22591
1.22509
1.22503
1.22726
1.22711
1.25047
1.28267
1.22576
1.22505
1.2271
1.22502
1.22591
1.25853
1.23899
1.22557
1.22503
1.22501
1.2266
1.22611
1.29199
1.25895
1.22611
1.22506
1.22752
1.22503
1.22552
1.26632
1.24625
1.22587
1.22504
1.22502
1.22697
1.22718
1.28767
1.36157
1.22717
1.22514
1.22505
1.23037
1.22994
1.35173
1.2842
1.22703
1.22513
1.22505
1.22996
1.2259
1.25956
1.29918
1.22662
1.22508
1.22503
1.22899
1.22707
1.29591
1.25901
1.22655
1.22508
1.22503
1.22874
1.22534
1.25787
1.2392
1.22536
1.22502
1.22501
1.22599
1.22514
1.23229
1.24163
1.22527
1.22501
1.225
1.22572
1.22517
1.23367
1.24263
1.22532
1.22501
1.225
1.22576
1.2252
1.23308
1.2283
1.22506
1.22501
1.225
1.22517
1.23342
1.22533
1.2288
1.22507
1.22501
1.225
1.22518
1.22596
1.25893
1.24113
1.22543
1.22502
1.22501
1.22604
1.22507
1.22519
1.22501
1.23375
1.22883
1.22534
1.22586
1.22548
1.22522
1.23088
1.22505
1.22501
1.22512
1.225
1.22526
1.2256
1.23186
1.22506
1.22501
1.22514
1.225
1.22556
1.22854
1.23305
1.22501
1.22517
1.22507
1.225
1.22883
1.22579
1.23321
1.22507
1.22501
1.22517
1.225
1.22502
1.22589
1.23591
1.22526
1.225
1.225
1.22502
1.22524
1.22556
1.23531
1.22525
1.225
1.225
1.22501
1.23017
1.22513
1.22678
1.22503
1.22501
1.2251
1.225
1.22512
1.22537
1.22949
1.22501
1.22509
1.22503
1.225
1.22522
1.23563
1.22525
1.22501
1.22501
1.225
1.225
1.22502
1.22509
1.22624
1.22503
1.225
1.225
1.225
1.22511
1.23069
1.2253
1.22519
1.225
1.225
1.22501
1.22538
1.22558
1.24132
1.22534
1.225
1.22501
1.22501
1.22508
1.22521
1.22982
1.2252
1.225
1.225
1.22501
1.22509
1.22529
1.22899
1.22509
1.225
1.225
1.225
1.22504
1.22515
1.22707
1.22506
1.225
1.225
1.225
1.22514
1.22532
1.23098
1.22514
1.225
1.22501
1.225
1.22506
1.22518
1.22851
1.22511
1.225
1.225
1.225
1.22501
1.22545
1.23072
1.2252
1.225
1.225
1.22501
1.225
1.22513
1.22711
1.22504
1.225
1.225
1.225
1.22503
1.22672
1.22514
1.22505
1.225
1.225
1.225
1.22501
1.22543
1.23059
1.2251
1.225
1.225
1.22501
1.22503
1.22504
1.22561
1.22501
1.225
1.225
1.225
1.22505
1.2252
1.22786
1.22506
1.225
1.225
1.225
1.22504
1.22502
1.22638
1.22512
1.225
1.225
1.225
1.225
1.225
1.22501
1.22503
1.22557
1.22504
1.225
1.225
1.22549
1.22503
1.22501
1.225
1.225
1.225
1.22559
1.225
1.22504
1.22501
1.225
1.225
1.225
1.88813
2.50516
1.22503
1.34443
2.38657
1.22576
3.2714
1.54482
0.0622479
1.78582
1.22548
1.89294
1.33529
1.56846
2.60561
1.72249
0.0628884
0.200898
0.816588
0.171408
0.0972474
0.56053
0.300602
0.258483
0.20282
0.0863503
0.28476
0.8187
0.1754
0.572429
0.250096
1.23506
1.29757
2.43762
1.225
1.22501
1.225
1.59359
1.81061
2.96665
2.82823
0.456886
3.6082
0.980111
0.883418
0.213501
0.67533
0.694389
1.59545
1.56817
2.6703
0.591642
0.690271
2.20181
2.02793
2.48212
2.44928
1.61205
0.975283
1.97014
2.57329
1.9713
0.542123
1.54327
2.61381
0.794317
2.1998
0.695929
0.96244
2.04221
2.47234
2.44873
1.62885
2.00382
2.57633
2.00984
0.555945
1.56701
2.62639
0.802273
2.07268
2.63207
1.78587
2.63976
1.45119
2.17871
2.46885
2.53946
2.70003
1.54681
3.37989
2.2012
3.0167
1.97733
2.74493
1.89364
2.7418
3.67347
2.4824
3.28213
1.78933
2.6788
1.65599
2.68477
2.68184
2.61272
2.45112
1.57766
2.62775
1.89837
2.68629
2.44447
2.13083
1.89965
1.39654
1.27987
2.58912
2.06729
2.1815
1.83367
2.56224
1.94169
1.27653
2.5931
2.03951
2.15435
1.81971
2.55731
1.92784
2.7285
0.57159
1.2259
2.31048
1.51258
1.23293
0.233546
0.0167932
0.266086
0.0790312
0.247699
0.0115386
0.0210436
0.076855
0.325725
2.6665
0.0113746
0.0580369
0.0232752
0.198206
1.33862
2.23177
1.28615
2.16534
1.23117
0.26026
1.45789
2.93786
2.10418
0.24653
2.32908
2.0798
1.23316
1.58437
1.81402
0.319174
0.765629
2.64204
2.28433
1.28451
1.22528
0.0285182
0.0348219
0.0190595
0.0347974
0.0675027
0.0284311
0.0896468
0.0481219
0.111044
0.107884
0.0271068
0.149609
0.0374873
0.037095
0.0114595
0.0113382
0.0145204
0.0216701
0.0128065
0.0184082
0.0187338
0.0232175
0.0715758
0.0606106
0.0418548
0.108941
0.0330855
0.140932
0.0458572
0.102722
0.105868
0.026296
0.140589
0.0351684
0.0365489
0.0115666
0.0146339
0.0113945
0.0212779
0.012739
0.0177391
0.0186281
0.0261081
0.0160105
0.0795276
0.0329782
0.0189631
0.0326587
0.0259498
0.0211358
0.0716713
0.0612357
0.0407067
0.108433
0.0328924
0.136456
0.0114561
0.0113222
0.0112182
0.0116059
0.0115142
0.0113961
0.011033
0.0113874
0.0110325
0.0115169
0.0125298
0.0114598
0.0121282
0.0110724
0.0113722
0.0110524