/*--------------------------------*- C++ -*----------------------------------*\
  =========                 |
  \\      /  F ield         | OpenFOAM: The Open Source CFD Toolbox
   \\    /   O peration     | Website:  https://openfoam.org
    \\  /    A nd           | Version:  9
     \\/     M anipulation  |
\*---------------------------------------------------------------------------*/
FoamFile
{
    format      ascii;
    class       volScalarField;
    location    "0.00095";
    object      impulseMax;
}
// * * * * * * * * * * * * * * * * * * * * * * * * * * * * * * * * * * * * * //

dimensions      [1 -1 -1 0 0 0 0];

internalField   nonuniform List<scalar> 
8368
(
247.623
102.458
188.968
33.63
61.7178
96.575
162.506
122.448
128.441
161.451
183.798
205.671
177.918
224.398
153.583
69.3179
83.8351
128.6
177.935
75.2446
119.28
135.644
6.00007
27.6438
30.0356
74.5406
263.203
282.439
295.635
263.43
209.516
227.796
247.705
224.38
261.937
230.388
189.018
140.16
182.208
224.388
92.86
0.0605289
1.50791
4.03121e-05
84.2694
163.605
154.01
91.6274
27.6249
3.30898
31.1326
2.71219
69.8159
2.96607
3.76445
0.145008
0.00377456
1.26455
0.10442
0.0446187
0.0871796
0.00307877
0.00260356
0.0375951
1.85533e-06
2.85957e-06
1.66603e-06
8.5163e-06
1.20407e-05
2.47555e-05
4.10963e-06
3.9964e-05
8.65172e-05
0.001255
0.000925985
0.000111899
0.000271806
0.00023183
0.00574564
0.00484648
0.000173031
0.000147737
8.11386e-06
2.95418e-08
1.2488e-08
5.8098e-08
2.09978e-07
4.15072e-07
2.008e-09
5.23751e-09
1.04383e-08
1.16531e-09
62.1047
262.222
1.89765
22.2855
227.935
270.336
86.5689
102.797
218.933
172.1
148.821
83.9963
19.7491
74.5497
291.825
277.455
172.969
148.852
279.184
318.135
319.21
338.382
304.026
338.322
302.822
264.158
330.706
306.265
272.373
313.783
335.984
298.752
207.832
246.868
293.565
243.597
289.254
255.71
200.914
180.715
234.629
274.346
237.519
283.191
245.476
192.37
132.756
142.787
181.885
207.403
240.94
216.789
248.795
187.364
151.276
189.434
255.451
224.708
222.545
253.714
56.0806
58.3031
105.053
132.033
183.477
180.824
128.691
74.2422
122.648
138.84
121.917
184.666
199.968
135.459
96.7263
42.5288
50.8982
163.36
110.026
174.24
121.612
794.646
362.516
266.474
1521.74
550.259
795.232
645.639
295.726
497.224
476.786
218.178
338.291
1024.71
683.109
536.923
327.495
359.153
291.761
324.195
316.724
344.852
346.051
308.581
323.005
398.254
477.461
464.8
559.776
457.528
416.522
407.927
792.515
1076.49
966.148
1240.01
867.886
815.123
927.323
677.865
1013.7
583.419
560.657
728.403
686.062
554.68
365.224
517.84
381.362
354.507
391.483
374.924
345.033
299.973
369.809
335.065
445.133
325.547
348.945
309.429
264.8
399.431
273.959
226.629
317.009
274.01
217.126
444.03
458.723
338.061
511.63
668.461
435.142
568.848
291.157
288.108
293.623
418.796
360.353
377.152
331.558
1140.75
1203.87
710.562
1235.84
1064.44
876.847
750.61
494.012
424.48
374.372
343.736
460.46
413.644
535.367
328.247
320.528
308.797
298.96
302.567
347.115
321.38
301.697
315.395
298.944
374.321
367.685
340.693
330.219
898.595
670.386
684.067
679.51
1083.85
966.427
694.734
328.608
313.888
326.717
321.259
307.045
330.889
321.244
337.945
326.348
355.393
345.128
675.281
300.527
638.4
329.261
291.199
284.778
325.622
312.861
370.681
357.645
324.952
284.713
271.727
274.522
333.084
278.148
282.687
275.767
273.162
281.096
273.573
281.785
291.488
298.358
286.115
290.677
298.245
280.446
288.769
1261.59
1289.15
630.73
1400.66
584.957
1383.58
597.712
306.283
430.588
394.809
381.358
303.877
285.682
352.151
313.166
297.634
311.117
310.578
295.479
295.592
296.717
653.97
1166.24
1220.87
1303.82
647.589
1351.68
619.055
318.371
324.474
318.333
310.394
303.226
311.005
302.856
327.665
324.14
324.799
335.097
336.918
340.009
337.44
331.352
338.129
332.247
348.413
351.279
344.791
341.867
350.879
344.765
348.139
351.17
344.228
353.575
346.805
350.895
332.066
336.391
380.647
349.461
376.326
346.315
377.322
320.261
336.543
406.392
354.785
406.178
359.087
536.727
437.81
447.042
604.056
493.367
487.653
602.894
337.187
357.917
354.154
342.838
353.748
355.634
351.148
647.551
707.561
616.133
805.026
695.335
886.429
712.452
319.658
281.087
311.926
326.452
309.309
333.966
341.311
346.256
340.578
335.711
329.887
320.469
337.882
332.058
333.221
317.001
340.074
301.606
273.523
284.684
313.855
344.039
328.153
349.381
319.516
355.933
296.991
328.143
302.735
246.532
286.985
292.689
270.51
325.135
308.343
263.696
177.845
230.863
239.667
196.921
247.636
282.804
106.49
71.7654
108.403
37.9521
16.8009
15.8753
36.7259
56.9159
64.9261
101.399
28.3187
10.3904
13.6849
33.5329
337.893
282.161
218.597
119.518
190.134
100.586
122.937
10.3596
0.184332
278.903
299.059
259.939
282.522
323.683
319.418
303.006
235.871
256.182
206.297
236.247
262.007
305.555
282.461
192.838
252.641
230.649
295.471
265.121
243.153
276.483
166.14
160.284
133.477
227.767
251.839
205.017
232.216
1.26757e-05
0.0148461
0.719449
112.779
0.00222936
0.104877
50.1114
223.368
168.074
181.644
160.156
203.191
216.05
252.905
136.249
175.596
140.041
66.406
101.379
176.242
207.326
80.2941
54.2336
94.5663
155.268
125.121
196.257
169.744
6.20598e-12
2.19994e-12
1.10787e-11
3.05353e-05
4.36565e-06
9.28982e-06
4.94681e-06
1.70455e-06
1.18707e-08
1.16966e-06
2.00462e-07
8.72734e-10
5.21936e-12
5.19645e-09
2.0628e-10
3.69484e-12
2.43696e-10
0.00175688
0.000142597
0.000895016
1.22364e-05
0.00454076
5.70625e-05
0.000336141
0.00110508
7.9217e-06
2.03488e-05
0.000119172
3.63061e-05
0.000213206
0.000631004
7.19645e-05
8.16783e-06
4.73833e-05
4.63925e-07
0.000262565
2.16389e-06
1.31333e-05
1.31972e-05
7.85772e-08
4.46006e-08
2.55506e-07
3.85684e-07
2.24557e-06
1.54907e-06
8.20284e-09
3.671e-09
2.11664e-08
1.56213e-10
1.28505e-07
2.39703e-10
1.43278e-09
4.30543e-10
9.71122e-12
3.42147e-12
9.28807e-12
1.29464e-11
7.66381e-11
2.28078e-11
5.32799e-10
4.60705e-11
1.43781e-11
7.00609e-11
1.26343e-10
7.06838e-12
9.58088e-12
2.54163e-10
4.57446e-11
1.03354e-11
0.229088
1.05379e-05
0.000324517
3.74772e-08
1.78792e-05
4.16794e-09
1.75162e-07
1.73026e-11
5.24573e-11
6.15442e-12
0.000396968
3.2535e-05
0.00669154
5.46435e-06
1.91901e-06
1.87086e-07
1.46211e-07
3.96201e-08
9.88393e-07
3.75257e-07
0.000119564
2.37413e-07
1.65092e-07
8.71373e-09
1.09509e-08
4.19182e-09
9.55852e-08
5.5765e-08
4.23892e-06
9.58647e-09
8.6939e-09
1.31928e-09
2.98476e-10
1.55534e-10
3.45308e-06
1.4947e-09
5.4744e-10
1.93338e-10
4.189e-09
2.39254e-12
5.21229e-12
3.61511e-12
6.14299e-14
1.27433e-13
2.46037e-08
1.29789e-06
2.69165e-07
5.10946e-06
6.23174e-07
1.28403e-07
4.53957e-08
1.57435e-09
2.36769e-08
1.55462e-09
2.88929e-08
1.47914e-09
2.55394e-08
1.40873e-09
2.24781e-10
4.85429e-09
1.67491e-10
4.18615e-09
2.35537e-10
4.77585e-09
1.8017e-10
2.41562e-13
1.16912e-11
5.46736e-13
7.5487e-12
4.83851e-13
7.05581e-12
1.89799e-13
3.39476e-10
1.06832e-12
1.46235e-10
2.44517e-11
5.88417e-13
2.13227e-12
1.16519e-13
1.09983e-11
2.12042e-13
0.00042938
0.0146114
3.73222e-05
0.000197377
0.00747931
1.81284e-05
0.00085835
9.67442e-05
4.33596e-05
0.000210604
7.5814e-07
0.00171148
4.07547e-06
1.57756e-05
6.289e-09
1.09167e-06
3.62728e-08
4.21613e-09
1.46999e-07
2.71455e-08
2.84665e-09
4.60607e-06
3.02773e-05
3.77718e-07
5.87237e-07
5.19815e-06
1.34749e-05
3.84436e-07
3.55142e-06
4.02257e-07
5.28383e-06
1.91545e-07
8.91404e-06
2.85928e-07
2.61474e-06
9.97396e-10
1.97298e-08
1.10455e-08
4.71605e-10
1.76525e-08
9.33515e-10
6.11054e-10
1.34725e-06
2.14674e-06
9.47016e-08
8.15994e-08
1.35422e-06
1.31959e-06
9.20333e-08
5.36056e-07
2.30858e-08
2.63243e-07
9.02084e-09
4.53259e-07
2.55908e-08
2.94258e-07
4.07173e-11
1.00075e-09
2.54229e-10
9.03185e-12
9.92082e-10
3.88448e-11
1.0149e-11
2.73114e-08
3.3881e-06
1.08522e-07
2.34308e-07
1.20786e-07
4.15275e-07
1.17755e-08
1.74864e-09
3.79647e-09
5.29629e-09
5.8682e-10
2.77696e-09
1.26328e-08
1.95033e-08
1.94328e-10
3.11605e-08
6.82535e-10
1.4611e-09
2.07335e-10
9.4786e-12
3.7195e-11
8.42964e-11
1.1064e-08
1.64466e-08
3.91126e-10
2.94716e-10
9.83619e-09
1.11314e-08
2.8047e-10
3.32963e-10
1.35697e-11
8.71793e-11
1.70995e-12
3.5938e-10
1.60256e-11
5.67017e-11
1.47598e-14
4.22213e-13
4.65661e-14
6.23654e-16
4.51005e-13
1.02903e-14
2.39067e-15
2.84291e-11
2.39857e-12
3.2378e-13
4.27207e-11
8.991e-13
1.78198e-11
8.05095e-12
2.80644e-13
1.5529e-13
3.06495e-12
1.07539e-12
2.67132e-14
2.07261e-13
8.62721e-15
3.30838e-12
1.75247e-13
4.46598e-12
1.08412e-13
8.16986e-14
2.58754e-12
6.74585e-14
2.79916e-13
1.43907e-10
1.3505e-11
36.6081
4.18133
0.651318
0.0662431
0.0278289
0.000172957
0.000113881
2.39568e-08
1.43055e-05
1.93618e-09
9.87867e-11
5.52572e-10
1.60876e-07
1.31976e-09
3.90326e-09
9.07907e-10
4.88238
47.2852
3.73491
28.614
41.0808
2.4165
6.52809
2.37205
15.372
13.5872
0.160125
29.2346
0.863482
0.64491
0.0509212
3.99227
0.0243509
0.199678
0.135371
1.50258
0.00856472
0.0316755
0.117121
0.546767
0.00297716
0.911633
0.00527836
0.018578
0.00230552
0.247551
0.00122631
0.0077393
0.0080962
0.0710455
0.000334436
0.000436574
0.00144847
0.00166522
7.0213e-06
0.0135199
6.09222e-05
5.24364e-05
2.78655e-07
0.000141755
5.84509e-07
8.91253e-07
4.38875e-06
8.99475e-06
3.70246e-08
1.44602e-08
4.50735e-08
1.75601e-08
1.52413e-10
4.61425e-07
1.95278e-09
5.60831e-10
0.000194825
0.00365384
0.000104649
7.13777e-06
0.00327754
0.000223978
7.41324e-06
9.39105e-06
3.60531e-07
4.7651e-07
1.911e-07
1.0902e-05
4.26078e-07
6.62214e-07
1.1995e-10
1.53157e-09
1.73683e-11
3.64298e-11
4.41092e-10
2.10681e-10
1.33721e-11
1.85975e-08
1.4195e-08
3.95739e-10
3.95065e-08
1.25411e-09
1.32754e-08
8.96987e-09
2.07997e-09
4.26402e-12
4.21057e-11
7.55566e-11
1.29858e-09
1.278e-10
3.68145e-11
4.02392e-12
0
9.84333e-14
0
5.09317e-15
0
0
0
5.61288e-15
0
0
0
1.65979e-10
3.31089e-09
4.90098e-12
7.71101e-10
6.45481e-14
0
1.35125e-15
0
2.68057e-12
1.93394e-10
7.19592e-13
9.25553e-11
3.11827e-16
0
2.13082e-13
2.6311e-11
6.44442e-15
2.39878e-12
0
6.07023e-14
0
6.23654e-16
3.66916e-14
0
8.31538e-15
0
5.4731e-11
3.74192e-14
8.83717e-13
1.80132e-13
1.41583e-11
7.06807e-15
2.39691e-13
3.91343e-12
1.14336e-15
6.86019e-14
2.26594e-14
1.78292e-12
1.03942e-16
2.76486e-14
4.51733e-13
0
4.6774e-15
0
3.27418e-14
0
0
1.03942e-16
0
0
0
0
0
0
1.14336e-15
0
0
1.03942e-15
0
8.96505e-10
6.64561e-09
1.52278e-10
8.08372e-11
3.15699e-09
1.1705e-10
1.48568e-09
2.56165e-10
1.86465e-11
1.32017e-10
1.57997e-11
6.79026e-10
3.81008e-11
1.469e-10
0
3.11827e-16
4.15769e-15
2.75447e-14
1.03942e-16
1.9749e-15
0
0
5.92471e-15
0
0
0
3.11827e-16
0
7.58368e-11
6.33431e-11
1.03717e-11
2.60458e-12
7.21563e-11
6.21871e-11
6.23248e-12
4.4976e-11
1.61869e-12
1.82237e-11
2.88419e-12
3.96303e-11
5.11209e-12
2.70692e-11
0
0
0
3.11827e-16
0
0
0
8.7378e-12
5.94175e-12
1.17548e-12
2.24619e-13
9.40106e-12
6.5677e-12
5.92055e-13
1.34875e-12
4.39676e-14
2.63805e-13
3.12866e-14
1.35177e-12
1.05294e-13
3.59432e-13
6.44442e-15
1.55913e-14
1.35125e-15
0
1.57992e-14
4.26163e-15
1.03942e-16
0
0
0
0
0
0
0
3.11827e-16
1.11634e-13
1.03942e-16
1.18494e-14
1.76702e-15
3.82507e-14
0
0
0
0
0
0
0
0
7.05726e-12
1.55186e-13
2.0804e-12
5.98302e-12
9.94727e-14
1.60331e-12
2.01128e-12
5.47152e-13
6.44442e-15
9.43796e-14
3.85106e-13
4.15769e-15
6.90177e-14
1.70881e-13
5.14514e-14
0
5.09317e-15
2.99354e-14
0
5.61288e-15
1.67347e-14
0
0
0
0
0
0
0
1.9749e-15
0
1.24731e-15
0
0
0
6.23654e-16
0
0
0
0
0
0
0
0
0
0
0
5.32496e-13
1.08048e-12
1.38243e-14
1.93197e-12
3.07669e-14
6.04112e-13
2.14537e-13
5.43618e-14
1.61422e-13
6.23654e-16
2.50293e-13
1.9749e-15
7.12004e-14
3.13906e-14
3.11827e-16
6.23654e-16
0
2.91038e-15
0
3.11827e-16
0
0
0
0
0
0
0
0
0
0
0
0
0
0
0
1.07061e-14
0
0
0
1.9749e-15
0
0
0
0
0
0
0
0
0
0
0
0
0
0
0
0
0
0
0
0
0
0
0
0
0
0
0
2.1568e-13
1.1205e-13
8.79351e-14
4.87032e-12
2.39067e-15
3.93733e-13
8.3819e-13
1.60071e-14
8.31538e-15
9.04298e-14
3.01433e-15
2.98158e-12
6.74393e-11
1.24646e-09
3.70792e-11
4.25644e-12
3.51637e-13
3.17024e-14
0
0
0
1.03942e-16
0
1.32215e-13
8.13868e-14
1.14336e-15
1.21197e-12
3.70034e-14
2.17239e-14
0
1.06021e-14
4.6774e-15
0
1.48637e-13
3.84586e-15
1.14336e-15
0
1.03942e-16
0
0
1.24731e-15
0
0
0
0
0
0
0
0
0
0
0
0
0
0
0
0
0
0
0
0
0
0
0
0
0
0
0
0
0
0
0
0
0
0
0
0
6.86019e-15
0
0
0
0
0
0
0
0
0
8.39174e-08
3.59884e-05
2.94874e-05
0.107897
0.00256498
4.07136e-08
8.92692e-08
0.000197459
0.000347492
3.07162e-08
2.74656e-08
7.11926e-10
24.8074
4.66566
0.00453591
0.00849155
3.86562e-07
2.79842e-06
6.50261e-07
1.44871e-07
1.31694e-06
3.32127e-09
4.1671e-08
1.68404e-08
5.63397e-09
0.000285631
0.00899287
0.00741334
0.000271126
1.33992e-05
0.000327818
1.28773e-05
1.77141e-06
4.08946
28.519
27.1767
30.6621
85.3302
82.8779
33.1188
0.00693817
0.230702
0.189832
3.98831
0.186759
4.73607
0.151546
1.15713e-05
1.00533e-05
4.74354e-07
6.33288e-07
2.137e-08
1.49259e-07
5.25839e-07
8.31681e-07
2.64083e-09
4.47697e-08
1.75674e-09
4.90476e-08
9.81374e-07
3.24798e-08
0.917318
0.195895
0.166627
3.124
2.81745
0.00582952
0.113954
0.100247
0.00691054
0
0
0
0
0
0
0
0
0
0
0
0
0
0
0
0
2.61401e-08
0.181436
0.000881075
4.35876e-07
6.31397e-05
5.61998e-06
0.00453597
0.0013225
0.0384948
0.000157746
0.00543047
3.29156e-06
3.50098e-07
0.000108737
4.2935e-05
2.69201e-05
5.22024e-06
4.28933e-06
2.13112e-06
2.5583e-09
2.34239e-09
5.98946e-09
1.3794e-08
4.13461e-08
2.53523e-07
4.77034e-07
159.851
80.6857
6.57888e-08
47.4796
0.473073
86.0809
268.35
214.253
72.5389
0.00729516
0.000198078
1.40049
0.0283073
17.7665
2.52013
0.00703446
0.0326687
3.30852e-05
587.31
524.925
334.474
239.684
205.907
158.126
480.318
1098.21
961.044
540.354
319.355
318.517
373.458
334.335
350.671
356.829
337.675
244.009
0
5.99747e-14
5.21894e-13
6.24485e-13
2.20358e-14
4.41755e-14
2.18279e-15
2.18279e-15
0
0
4.1229e-10
8.54341e-11
3.46086e-12
5.49127e-13
9.63545e-14
1.6215e-14
1.03942e-16
0
0
0
1.53211e-12
2.05546e-12
1.45685e-12
4.23149e-13
4.28762e-13
1.72232e-13
1.71401e-13
7.96198e-14
2.14121e-14
6.93066
2.31945
0.0346536
0.00250746
0.261637
0.000997828
7.81458e-05
0.0111932
0.00092662
0.00832651
0.000297005
0.00264712
0.000248108
2.3421e-06
2.48349e-05
7.88873e-06
7.4424e-06
4.43002e-05
0.00461081
0.000776814
7.7592e-05
0.00144385
0.000141843
2.39032e-05
1.37609e-06
2.42103e-06
4.40025e-06
7.52755e-07
2.37658e-06
0.000303051
3.04036e-05
0.000254867
9.18226e-06
7.62993e-05
7.67984e-06
8.65568e-08
9.37016e-07
2.93123e-07
2.48855e-07
40.1607
0.0899516
0.00264205
2.59335e-06
5.81086e-09
35.6482
1.23616
1.68254
0.168217
0.00660356
0.0162611
0.00688851
1.49889e-05
4.17993e-05
3.13348e-07
3.0801
49.7459
3.59783
28.4648
36.4857
1.84835
5.66495
0.00127763
0.17244
0.00240996
0.0212299
0.00471331
0.0414364
0.000642538
4.24898e-05
0.00541806
8.0834e-05
0.000677272
0.000167049
0.00139754
2.04708e-05
1.25501e-07
3.47148e-06
1.83509e-07
1.8235e-06
1.95564e-07
1.71216e-06
1.38139e-07
5.04775e-10
5.45666e-12
3.46896
51.2415
3.24909
25.9625
38.1912
1.78581
6.1675
0.0807071
0.0949122
0.0454639
0.165682
0.0950854
0.100548
0.0513606
0.190475
0.652714
10.8045
2.24748
0.0300968
15.6114
0.363828
0.0575001
0.782486
10.9722
2.78069
0.0464704
17.2507
0.422958
0.0736757
0.0158121
0.000733234
0.00860098
0.00141786
0.0194973
0.0012516
0.0115273
0.00184877
0.0017669
0.226494
0.00490342
0.0477447
0.00631536
0.0562159
0.00155021
3.93418e-05
6.48577e-05
0.000128574
1.94249e-05
5.55357e-05
0.000141983
0.000174977
5.03428e-05
0.000757485
0.0119618
0.013293
0.000204994
0.0238008
0.000372387
0.000420402
0.00107144
0.0284366
0.0186508
0.000540089
0.0329674
0.000955931
0.000601296
2.38565e-05
6.38909e-06
1.15738e-05
1.319e-05
3.4326e-05
1.78083e-05
3.18397e-05
1.91024e-05
6.22412e-05
0.00772523
0.000220551
0.00189975
0.000241406
0.0020352
5.94821e-05
1.31049e-06
2.4849e-06
5.13702e-06
6.42419e-07
1.91501e-06
7.05354e-06
7.47163e-06
1.92138e-06
7.35105e-06
0.000115527
2.83867e-05
6.88887e-07
0.000240386
3.65126e-06
1.04963e-06
1.07541e-05
0.000351874
4.03885e-05
1.35711e-06
0.000357021
1.07593e-05
1.2593e-06
2.36788e-07
4.22747e-08
1.31481e-07
4.94864e-08
3.26646e-07
4.99651e-08
3.42006e-07
4.27543e-08
7.75813e-09
1.33648e-08
1.2461e-08
8.62753e-09
1.85965e-08
3.68301e-07
3.03628e-07
1.40725e-08
2.56327e-07
2.4155e-08
1.33972e-08
1.13398e-09
5.96563e-10
1.37223e-09
5.61775e-10
1.9175e-11
5.10359e-10
1.94403e-11
1.87305e-11
5.02174e-10
8.83104e-12
2.0765e-10
350.026
311.333
158.752
94.5941
62.7403
126.736
151.439
13.2724
5.29564
0.673016
0.000863047
7.439e-05
2.82231e-06
395.358
138.923
115.493
262.057
23.9599
4.88146
0.457827
0.204071
0.0013636
325.247
326.998
305.43
351.239
276.83
190.805
264.07
197.837
83.1028
119.052
123.473
79.8675
65.9726
63.0489
8.06492
222.942
212.901
143.111
97.0879
191.996
120.858
247.8
173.258
62.6256
89.6898
31.4271
150.369
79.2022
101.599
22.7504
40.551
6.47956
1.38575
45.8582
20.3291
1.68451
15.764
0.791454
9.47518
0.54315
13.8951
0.955853
10.8383
1.91783
5.13077
0.23395
0.0589932
5.83954
1.73918
0.0642861
0.349411
0.0112357
0.0429723
0.00130168
0.341135
0.0114581
0.0407521
1.87401e-11
2.68171e-14
5.88417e-13
0
2.7025e-15
0
0
0
0
0
0
0
0
0
0
0
0
0
6.75055e-06
1.3714
3.56617e-11
6.23654e-16
0
0
0
0
0
3.09746e-07
0.000662786
3.533e-13
0
0
0
0
0
0
4.22064e-09
1.5531e-05
1.37204e-14
0
0
0
0
0
0
4.12604e-11
3.64369e-07
1.9749e-15
0
0
0
0
0
0
3.85626e-14
4.79584e-10
0
5.19711e-14
0
0
0
0
3.7731e-14
7.73017e-11
0
5.36342e-14
0
0
131.863
102.371
67.9052
126.128
0.306633
1.82404e-08
1.57452e-06
0.001737
7.16997e-09
26.4162
0.009022
0.476821
1.44168e-13
7.90387e-12
1.90214e-14
0
0
0
0
0
0
0
0
0
0
0
0
0
0
3.71719
0.360152
0.000119546
5.51927e-10
2.52822e-08
6.023e-06
4.78799e-11
3.98311e-05
3.11827e-16
6.30929e-14
0
0
0
0
0
0
0
0
0
0
0
0
0
0
0
0.0764818
0.00328191
0.00494078
2.32044e-06
1.31127e-10
4.7681e-10
1.92984e-07
4.029e-11
1.0968e-06
6.267e-06
0
1.14336e-15
0
0
0
0
0
0
0
0
0
0
0
0
0
0
0
4.88215e-06
0.000376315
3.30509e-07
8.36901e-07
3.70169e-08
3.85283e-12
3.43779e-12
1.79174e-09
6.23654e-15
1.17373e-06
2.74365e-08
1.01769e-07
0
0
0
0
0
0
0
0
0
0
0
0
0
0
0
0
0
5.82077e-15
0
0
0
0
0
0
2.84282e-13
0
0
1.16415e-14
3.6068e-14
0
0
8.17818e-12
0
5.84155e-14
0
8.31538e-16
0
0
0
0
0
1.66395e-08
3.93244e-09
2.73965e-10
1.46143e-13
4.1818e-12
1.49687e-12
5.71992e-11
2.1516e-14
7.52126e-13
1.71508e-10
2.01928e-11
2.25898e-12
3.11827e-16
3.27418e-14
8.83509e-15
3.4644e-13
0
3.11827e-15
3.77549e-12
8.22911e-13
6.92255e-14
0
0
0
1.14336e-14
0
0
6.49639e-14
3.22221e-15
0
0
0
0
0
0
0
0.0660702
5.17023
0.0317212
0.647912
2.77792
0.0148594
0.136096
2.6398e-11
8.25247e-10
6.0184e-10
1.98801e-11
1.18662e-09
7.13285e-10
2.97135e-11
0
0
0
0
0
0
0
1.99472e-05
0.00300741
1.73462e-05
0.000142599
7.83451e-05
0.000677772
4.35472e-06
1.33422e-11
1.12569e-13
2.52985e-12
7.77488e-14
1.25425e-11
3.05278e-13
2.60219e-12
0
0
0
0
0
0
0
7.00353e-07
7.40003e-05
5.84252e-07
4.79821e-06
2.34429e-06
1.93468e-05
2.50363e-07
1.14336e-14
3.61095e-13
3.50389e-13
1.14336e-14
4.35102e-13
1.48637e-14
3.6307e-13
0
0
0
0
0
0
0
1.5954e-08
4.6722e-07
2.06574e-08
2.67066e-07
2.781e-08
4.03813e-07
9.51577e-09
0
6.34048e-15
0
0
6.34048e-15
0
3.22221e-15
0
0
0
0
0
0
0
0
1.02976e-12
0
2.55412e-11
1.793e-13
9.94104e-13
3.32615e-14
1.68469e-09
1.57431e-12
1.69909e-10
1.56706e-11
5.00847e-11
6.5203e-13
2.01596e-12
6.23654e-16
7.2032e-14
3.11827e-16
4.64622e-14
6.23654e-16
6.14299e-14
4.15769e-16
0
0
0
0
0
0
0
0
0
0
0
0
0
0
0.00097077
0.113908
0.00673933
0.142588
0.0522144
0.00308985
0.00216883
1.37638e-08
3.46178e-07
2.53723e-07
1.33399e-06
5.45695e-08
2.77421e-08
3.0253e-06
1.83135e-05
0.000148446
6.73392e-05
4.12561e-05
0.000139522
0.0226221
0.000496508
3.97526e-05
0.00741758
0.000498496
9.76545e-06
1.53523e-07
4.93256e-09
1.2952e-07
2.47167e-07
4.04273e-09
7.39354e-09
1.02475e-07
2.66436e-06
9.12523e-07
1.09506e-05
1.99352e-07
0.24713
13.6063
1.53596
17.6361
8.32709
0.762837
0.495014
0.00151717
0.000737986
0.000343684
0.00319459
0.00574683
0.0373697
0.0180495
0.0118569
0.0117708
0.115497
0.0407608
0.000214494
0.514484
0.002618
0.000965543
0.0449063
5.43952
0.151754
0.0114904
1.93564
0.144184
0.00364306
0.000269953
5.09504e-06
5.95394e-05
2.29475e-05
0.00102879
0.000278268
0.0033222
8.73257e-05
1.32318e-13
1.21176e-12
8.94111e-13
5.29586e-13
1.99569e-14
1.53835e-14
7.55037e-13
2.48653e-10
4.16195e-12
1.4201e-10
6.2329e-12
1.21479e-10
2.24488e-10
2.96235e-12
2.09652e-13
1.70465e-14
1.01863e-13
1.50924e-13
1.03942e-15
2.80644e-15
6.09102e-14
0
0
0
0
0
0
0
0
0
0
0
0
0
0
0
0
0
0
0
0
0
0
0
0
0
0
0
0
0
0
0
0
0
0
0
9.27723e-08
2.61464e-05
3.03562e-06
2.24056e-05
5.79035e-07
3.19229e-06
7.00953e-07
1.86601e-08
8.77091e-11
3.48657e-09
3.73644e-09
4.76899e-10
1.73535e-08
9.16611e-11
3.45737e-09
8.35398e-08
1.4118e-08
2.71066e-08
4.80041e-08
1.14295e-05
7.44312e-07
2.2913e-07
1.43814e-06
3.90852e-07
2.77502e-08
1.57507e-09
4.57072e-10
1.98611e-11
1.61184e-09
2.0724e-11
4.88482e-11
4.95766e-10
2.15391e-09
1.22129e-08
1.72804e-08
1.53347e-09
6.18074e-07
4.7686e-07
2.0916e-06
1.51031e-07
1.11674e-05
7.53316e-05
0.000193531
1.36543e-06
0.000365439
2.43275e-06
6.00836e-06
3.60649e-07
5.86998e-08
9.10502e-08
2.04638e-07
7.79567e-15
1.03942e-16
2.39067e-15
6.23654e-16
0
4.98923e-15
0
1.62202e-12
4.65661e-14
9.51383e-13
6.16378e-14
9.84437e-13
1.70278e-12
3.99138e-14
0
6.23654e-16
4.15769e-16
3.11827e-16
0
0
1.03942e-16
0
0
0
0
0
0
0
0
0
0
0
0
0
0
0
0
0
0
0
0
0
0
0
0
0
0
0
0
0
0
0
0
0
0
0
5.16564e-09
2.74755e-07
9.95666e-08
7.67516e-07
1.13302e-08
8.69675e-08
4.88197e-08
2.83647e-10
7.26795e-12
9.61279e-12
2.91052e-10
9.16646e-12
1.88324e-10
9.8292e-12
3.83588e-10
6.03902e-09
6.94629e-10
3.63636e-09
1.68325e-09
2.41403e-07
1.40914e-08
1.68046e-08
2.22993e-08
1.96818e-08
1.22602e-09
3.55471e-11
1.8983e-12
1.36403e-12
4.32251e-11
1.33254e-12
1.94507e-12
3.60487e-11
1.29717e-10
1.1179e-09
1.45419e-09
8.60029e-11
3.30536e-08
2.91052e-08
8.63039e-08
1.63259e-08
1.59992e-07
1.47264e-06
1.2599e-06
8.18494e-08
3.65522e-06
9.71843e-08
8.87387e-08
4.85317e-07
4.34199e-05
2.65261e-06
3.37706e-07
1.34603e-05
1.42075e-06
1.75581e-07
8.95958e-09
5.01113e-09
6.3565e-09
5.70769e-09
2.26184e-08
2.31413e-08
5.65309e-08
1.24776e-08
0
0
0
0
0
0
0
7.34872e-14
4.75016e-14
3.11827e-16
1.14336e-15
4.76056e-14
8.06592e-14
4.15769e-16
0
0
0
0
0
0
0
0
0
0
0
0
0
0
0
0
0
0
0
0
0
0
0
0
0
0
0
0
0
0
0
0
0
0
0
0
0
0
0
0
0
0
7.47916e-11
2.39378e-09
3.32831e-09
1.62921e-08
2.27164e-10
9.01679e-10
1.04106e-09
3.22907e-12
1.19534e-13
1.98114e-13
3.29726e-12
1.88759e-13
4.23721e-12
1.2182e-13
5.67504e-12
2.33326e-10
1.8104e-11
6.91631e-11
1.31348e-11
2.53915e-09
8.74228e-11
1.23617e-10
1.52825e-10
1.89652e-10
6.89449e-12
2.42809e-13
3.03407e-13
1.14336e-14
3.18791e-13
5.92471e-15
1.15376e-14
2.47279e-13
9.7477e-13
6.99739e-12
1.24286e-11
4.78446e-13
3.27444e-08
7.21393e-07
9.36691e-08
8.46285e-07
5.79638e-08
5.09202e-07
6.61816e-08
6.30659e-10
1.17642e-09
1.62987e-09
3.98286e-10
1.77128e-09
7.21071e-09
4.13346e-09
4.21921e-09
1.22634e-09
3.35349e-08
1.82464e-08
1.08293e-09
2.43757e-08
1.35781e-09
8.95337e-10
4.32039e-09
1.53546e-07
4.83485e-08
5.04338e-09
6.68621e-08
1.06714e-08
2.65373e-09
6.15677e-11
4.40362e-11
6.17938e-11
4.31824e-11
2.35214e-10
2.37772e-10
6.22997e-10
1.30855e-10
0
0
0
0
0
0
0
0
0
0
0
0
0
0
0
0
0
0
0
0
0
0
0
0
0
0
0
0
0
0
0
0
0
0
0
0
0
0
0
0
0
0
0
0
0
0
0
0
0
0
0
0
0
0
0
0
0
1.45519e-15
0
2.91038e-15
0
0
0
0
0
0
0
0
0
0
3.53404e-15
2.11107e-13
8.62721e-15
2.68067e-13
4.6774e-15
1.16415e-13
8.62721e-15
0
0
0
0
0
0
0
0
0
0
0
0
0
0
0
0
0
0
0
0
0
0
0
0
0
0
7.21151e-13
0
0
4.05375e-15
0
0
0
0
0
0
0
0
0
0
0
0
0
0
0
0
0
0
0
0
0
0
0
0
8.90785e-14
1.03942e-16
0
0
0
0
0
0
0
0
0
0
0
0
0
0
0
0
0
0
0
0
0
0
0
0
0
0
0
0
1.18494e-14
6.776e-13
2.1516e-14
6.89137e-13
2.12042e-14
3.4935e-13
2.1516e-14
0
0
0
0
0
0
0
0
0
0
0
0
0
0
0
0
0
0
0
0
0
0
0
0
0
0
0
0
0
0
0
0
0
0
0
0
0
0
0
0
0
0
0
0
0
0
0
0
0
0
0
0
0
0
0
0
0
0
0
0
0
0
0
0
0
0
0
0
0
0
0
0
0
0
0
0
0
3.32345e-12
7.39029e-14
1.20261e-13
2.08269e-12
2.35949e-14
6.46729e-13
1.55965e-12
4.1329e-11
1.91545e-12
1.31695e-12
4.49177e-11
1.73022e-12
4.35402e-11
3.45377e-11
6.96798e-12
1.65493e-10
7.04988e-12
5.83667e-12
1.52503e-10
3.39434e-12
9.8861e-11
6.23654e-16
4.05375e-15
3.74192e-15
0
0
0
0
0
0
0
0
0
0
0
0
0
0
0
0
0
0
0
0
0
0
0
0
0
0
0
0
0
0
0
0
0
0
0
0
0
0
0
0
0
0
0
0
0
0
0
0
0
0
0
0
0
0
0
0
0
0
0
0
0
0
0
0
0
0
0
0
0
0
0
0
0
0
0
0
0
0
0
0
0
0
0
0
0
0
0
0
0
0
0
0
0
0
0
1.03942e-16
9.09495e-14
2.18279e-15
2.93304e-12
1.45519e-13
1.11385e-12
5.49855e-14
2.28278e-12
2.10826e-12
7.30074e-11
7.62937e-11
2.2148e-12
4.00182e-11
1.18369e-12
0
0
0
2.18279e-15
0
0
0
5.28027e-14
0
0
5.19711e-14
0
2.81684e-14
0
1.03942e-16
0
1.03942e-16
0
0
0
0
0
0
0
0
0
0
0
0
0
0
0
0
0
0
0
0
0
0
0
0
0
0
0
0
0
0
0
0
0
5.67525e-14
7.06807e-15
1.14336e-15
0
0
0
0
0
0
0
0
0
0
0
0
0
0
0
0
0
0
0
0
0
0
0
0
0
0
0
0
0
0
0
0
0
0
0
0
0
0
0
1.75662e-14
2.91038e-15
1.04982e-13
4.15769e-16
2.89999e-14
1.56953e-14
0
0
0
0
0
0
0
0
0
0
0
0
0
0
0
0
0
0
0
0
0
0
0
0
0
0
0
0
0
0
0
0
0
0
0
0
0
0
0
0
0
0
0
0
0
0
0
0
0
0
0
0
0
0
0
0
1.76702e-15
0
0
0
0
0
0
0
0
0
0
283.316
68.714
12.0344
0.00151541
9.46233e-07
9.78036e-10
296.603
0.0096844
9.93499
105.233
0.000428646
0.074736
241.391
5.36479
1.43692e-05
0.00470892
0.867007
6.62508e-07
0.00018641
36.2572
0.562455
1.14987e-07
6.93585e-05
0.0100354
4.32767e-09
1.15234e-06
0.358484
4.3036
4.15061e-05
1.15334e-10
2.53475e-07
9.20419e-12
2.06985e-08
0.359724
4.24364e-05
1.03942e-16
0.0001895
8.59984e-06
5.25462e-07
1.15688e-07
2.83783e-07
1.64319e-08
7.46387e-09
7.57819e-10
2.83127e-09
1.15168e-10
7.32932e-11
2.20562e-11
5.0703e-12
3.9207e-13
1.32308e-12
9.30283e-14
339.195
273.69
244.848
142.952
160.216
135.26
173.8
0.00402571
0.109145
0.0526984
3.14964
0.511226
0.219058
5.47415
213.11
185.044
103.934
82.6963
32.3878
86.1051
24.4474
0.00653937
0.000310263
2.43282e-05
0.508781
0.000990187
0.0214944
0.0187991
30.8621
15.1069
41.779
0.171547
5.53355
2.32695
0.844561
1.55887e-06
1.2878e-06
1.6297e-07
6.67885e-05
4.66824e-05
0.000719274
5.16065e-06
1.79406
4.85796
8.23401
0.0555959
0.182491
0.356402
0.0267318
3.27759e-07
7.65651e-08
3.80205e-08
2.62717e-05
1.11121e-06
2.21873e-06
1.29227e-05
0.0777928
0.316498
2.12958
0.00236242
0.070837
0.009752
0.0179416
2.72429e-08
1.35937e-08
3.61157e-09
1.09264e-06
3.92535e-07
4.61014e-06
1.02257e-07
0.0958138
0.00121556
0.0122492
0.000369754
0.000310324
0.00297514
3.69103e-05
7.20934e-10
7.26295e-10
2.61499e-10
1.69969e-07
5.5198e-09
1.86039e-08
2.18882e-08
0.000731448
4.79219e-06
8.55816e-05
2.64071e-07
2.39573e-05
2.74927e-06
2.5041e-06
5.3316e-11
5.26778e-11
2.36088e-11
1.13142e-09
1.00162e-09
2.68746e-09
4.70266e-10
3.54443e-12
3.76313e-12
1.47026e-12
1.90669e-10
3.51531e-11
7.41215e-11
8.55904e-11
7.72959e-05
0.00193169
0.000863951
9.85889e-05
5.44872e-06
5.51541e-07
3.60029e-08
3.23484e-08
4.83669e-09
8.17631e-09
2.43626e-09
1.24152e-09
6.83756e-10
4.44728e-10
1.32576e-10
2.597e-11
2.88623e-11
1.19489e-11
2.29702e-12
2.62329e-12
1.09857e-12
1.35853e-13
1.78989e-13
5.74801e-14
2.96501e-08
5.00562e-08
1.36238e-09
36.8067
63.211
4.88535
5.51577
47.3146
2.54682
51.4319
12.7776
1.0143
2.93589
0.0254478
20.1377
0.393741
1.29318
0.00454105
0.180508
0.0012024
0.000761438
0.0553956
0.0257575
0.000119993
0.00164048
0.000364575
0.0059275
2.39428e-05
0.0116092
4.83083e-05
0.000801027
6.93188e-05
0.00223376
8.6194e-06
1.76958e-05
0.000290152
0.000554431
2.11956e-06
1.07533e-05
3.50242e-06
9.9849e-06
1.00105e-07
8.9856e-05
3.81606e-07
1.14451e-06
2.60921e-08
9.1706e-07
1.71117e-08
1.76874e-07
1.01452e-07
3.38641e-07
8.72178e-09
4.10196e-09
2.55042e-08
3.98966e-08
8.39529e-10
5.03396e-08
1.34647e-09
0
0
0
0
0
0
0
0
0
0
0
0
0
0
0
0
0
0
0
0
0
0
0
0
0
0
0
0
0
0
0
0
0
0
0
0
0
0
0
0
0
0
0
0
0
0
0
0
0
0
0
0
0
0
0
0
0
0
0
0
0
0
0
0
0
0
0
0
0
0
0
0
0
0
0
0
0
0
0
0
0
0
0
0
0
0
0
0
0
0
0
0
0
0
0
0
0
0
0
0
0
0
0
0
0
0
0
1.72024e-12
1.1429e-11
6.6679e-12
6.12844e-07
7.36209e-06
3.01596e-08
5.5713e-13
1.24233e-09
3.28528e-11
5.76205e-10
1.01001e-12
2.26955e-11
1.57254e-11
3.51553e-12
1.70195e-12
2.39983e-10
8.54119e-11
1.97144e-11
8.03889e-11
2.23819e-06
4.45364e-08
2.50984e-07
3.59463e-08
4.02512e-07
4.84707e-07
2.09157e-08
9.87475e-09
3.76219e-07
1.6104e-08
4.40576e-10
8.45352e-12
6.14922e-13
1.52909e-12
9.38517e-11
5.97496e-11
4.63067e-11
1.46086e-11
2.25883e-09
5.89357e-08
4.704e-09
1.42575e-09
3.6375e-10
3.77188e-08
2.099e-09
7.84249e-09
1.85433e-13
1.75974e-13
8.04513e-14
2.82567e-12
3.39631e-12
1.1392e-11
6.43195e-13
5.58896e-11
2.98773e-09
6.96515e-11
2.97581e-10
2.19136e-10
1.15411e-09
1.34393e-11
2.21397e-14
4.75016e-14
1.59032e-14
1.16415e-14
6.23654e-15
2.91038e-15
3.22221e-15
47.1072
16.2346
173.697
129.963
11.2359
0.314546
85.8488
23.298
0.00122545
0.242428
114.432
65.0051
113.794
137.911
200.324
230.19
139.98
25.3948
34.9506
46.1795
95.3153
93.434
111.322
73.0491
2.43919
8.16847
23.2897
28.1855
74.6593
51.2715
52.0069
2.87594
0.0391679
0.394131
9.38164
7.49574
27.1323
1.24437
0.0227539
0.000142259
0.00269592
0.00416052
0.684808
0.0824806
0.0355943
6.93326e-10
6.5024e-06
91.5527
10.3749
0.000957914
6.11646e-07
428.217
352.765
209.572
189.205
146.779
8.14831e-11
1.58475e-10
2.44452e-07
2.22927e-09
1.77217e-10
2.85309e-09
1.68989e-09
1.45045e-09
1.30559e-08
3.29187e-09
3.12006e-06
0.0101118
1.74084e-10
2.4022e-07
1.13568e-09
1.53125e-08
5.47326e-05
3.55553e-07
6.32003e-06
0.000172866
5.4857e-05
0.00148184
6.48183e-06
1.73079e-10
1.78499e-09
7.18951e-10
6.10429e-06
4.5131e-07
3.41625e-08
1.03757e-08
2.12924e-06
2.22925e-08
239.633
146.259
111.494
69.9156
152.631
169.143
179.44
229.645
240.201
218.426
69.482
112.855
115.231
192.52
140.955
186.26
142.032
95.524
450.703
372.14
215.515
99.7906
117.97
76.1131
8.90596
18.5439
420.456
404.554
380.506
343.408
294.623
278.002
205.269
159.314
166.657
123.008
135.331
141.469
51.0136
53.6346
78.2163
99.6929
103.38
22.9611
37.4571
39.4904
21.9555
18.1457
46.487
47.1791
8.17228
1.30635
1.2262
363.389
527.69
422.195
477.451
410.066
330.473
366.165
312.677
351.427
330.193
305.426
326.278
309.82
322.875
693.348
1239.92
1160.74
1021.55
701.428
678.249
705.249
332.061
331.766
341.806
342.313
333.762
320.248
329.967
527.713
436.528
412.197
535.629
547.221
435.214
439.153
337.151
350.529
325.991
373.854
336.436
377.24
343.202
355.896
345.899
345.787
351.652
351.744
365.567
354.903
684.089
838.276
652.773
894.779
780.464
634.259
675.372
325.709
326.343
323.647
319.644