/*--------------------------------*- C++ -*----------------------------------*\
  =========                 |
  \\      /  F ield         | OpenFOAM: The Open Source CFD Toolbox
   \\    /   O peration     | Website:  https://openfoam.org
    \\  /    A nd           | Version:  9
     \\/     M anipulation  |
\*---------------------------------------------------------------------------*/
FoamFile
{
    format      ascii;
    class       volScalarField;
    location    "0.0013";
    object      rhoE;
}
// * * * * * * * * * * * * * * * * * * * * * * * * * * * * * * * * * * * * * //

dimensions      [1 -1 -2 0 0 0 0];

internalField   nonuniform List<scalar> 
12345
(
253245
253245
253245
253245
253245
253245
253245
253245
253245
253245
253245
253245
253245
253245
253245
253245
253245
253245
253245
253245
253245
253245
253245
253245
253245
253245
253245
253245
253245
253245
253245
253245
253245
253245
253245
253245
253245
253245
253245
253245
253245
253245
253245
253245
253245
253245
253245
253245
253245
253245
253245
253245
253245
253245
253245
253245
253245
253245
253245
253245
253245
253245
253245
253245
253245
253245
253245
253245
253245
253245
253245
253245
253245
253245
253245
253245
253245
253245
253245
253245
253245
253245
253245
253245
253245
253245
253245
253245
253245
253245
253245
253245
253245
253245
253245
253245
253245
253245
253245
253245
253245
253245
253245
253245
253245
253245
253245
253245
253245
253245
253245
253245
253245
253245
253245
253245
253245
253245
253245
253245
253245
253245
253245
253245
253245
253245
253245
253245
253245
253245
253245
253245
253245
253245
253245
253245
253245
253245
253245
253245
253245
253245
253245
253245
253245
253245
253245
253245
253245
253245
253245
253245
253245
253245
253245
253245
253245
253245
253245
253245
253245
253245
253245
253245
253245
253245
253245
253245
253245
253245
253245
253245
253245
253245
253245
253245
253245
253245
253245
253245
253245
253245
253245
253245
253245
253245
253245
253245
253245
253245
253245
253245
253245
253245
253245
253245
253245
253245
253245
253245
253245
253245
253245
253245
253245
253245
253245
253245
253245
253245
253245
253245
253245
253245
253245
253245
253245
253245
253245
253245
253245
253245
253245
253245
253245
253245
253245
253245
253245
253245
253245
253245
253245
253245
253245
253245
253245
253245
253245
253245
253245
253245
253245
253245
253245
253245
253245
253245
253245
253245
253245
253245
253245
253245
253245
253245
253245
253245
253245
253245
253245
253245
253245
253245
253245
253245
253245
253245
253245
253245
253245
253245
253245
253245
253245
253245
253245
253245
253245
253245
253245
253245
253245
253245
253245
253245
253245
253245
253245
253245
253245
253245
253245
253245
253245
253245
253245
253245
253245
253245
253245
253245
253245
253245
253245
253245
253245
253245
253245
253245
253245
253245
253245
253245
253245
253245
253245
253245
253245
253245
253245
253245
253245
253245
253245
253245
253245
253245
253245
253245
253245
253245
253245
253245
253245
253245
253245
253245
253245
253245
253245
253245
253245
253245
253245
253245
253245
253245
253245
253245
253245
253245
253245
253245
253245
253245
253245
253245
253245
253245
253245
253245
253245
253245
253245
253245
253245
253245
253245
253245
253245
253245
253245
253245
253245
253245
253245
253245
253245
253245
253245
253245
253245
253245
253245
253245
253245
253245
253245
253245
253245
253245
253245
253245
253245
253245
253245
253245
253245
253245
253245
253245
253245
253245
253245
253245
253245
253245
253245
253245
253245
253245
253245
253245
253245
253245
253245
253245
253245
253245
253245
253245
253245
253245
253245
253245
253245
253245
253245
253245
253245
253245
253245
253245
253245
253245
253245
253245
253245
253245
253245
253245
253245
253245
253245
253245
253245
253245
253245
253245
253245
253245
253245
253245
253245
253245
253245
253245
253245
253245
253245
253245
253245
253245
253245
253245
253245
253245
253245
253245
253245
253245
253245
253245
253245
253245
253245
253245
253245
253245
253245
253245
253245
253245
253245
253245
253245
253245
253245
253245
253245
253245
253245
253245
253245
253245
253245
253245
253245
253245
253245
253245
253245
253245
253245
253245
253245
253245
253245
253245
253245
253245
253245
253245
253245
253245
253245
253245
253245
253245
253245
253245
253245
253245
253245
253245
253245
253245
253245
253245
253245
253245
253245
253245
253245
253245
253245
253245
253245
253245
253245
253245
253245
253245
253245
253245
253245
253245
253245
253245
253245
253245
253245
253245
253245
253245
253245
253245
253245
253245
253245
253245
253245
253245
253245
253245
253245
253245
253245
253245
253245
253245
253245
253245
253245
253245
253245
253245
253245
253245
253245
253245
253245
253245
253245
253245
253245
253245
253245
253245
253245
253245
253245
253245
253245
253245
253245
253245
253245
253245
253245
253245
253245
253245
253245
253245
253245
253245
253245
253245
253245
253245
253245
253245
253245
253245
253245
253245
253245
253245
253245
253245
253245
253245
253245
253245
253245
253245
253245
253245
253245
253245
253245
253245
253245
253245
253245
253245
253245
253245
253245
253245
253245
253245
253245
253245
253245
253245
253245
253245
253245
253245
253245
253245
253245
253245
253245
253245
253245
253245
253245
253245
253245
253245
253245
253245
253245
253245
253245
253245
253245
253245
253245
253245
253245
253245
253245
253245
253245
253245
253245
253245
253245
253245
253245
253245
253245
253245
253245
253245
253245
253245
253245
253245
253245
253245
253245
253245
253245
253245
253245
253245
253245
253245
253245
253245
253245
253245
253245
253245
253245
253245
253245
253245
253245
253245
253245
253245
253245
253245
253245
253245
253245
253245
253245
253245
253245
253245
253245
253245
253245
253245
253245
253245
253245
253245
253245
253245
253245
253245
253245
253245
253245
253245
253245
253245
253245
253245
253245
253245
253245
253245
253245
253245
253245
253245
253245
253245
253245
253245
253245
253245
253245
253245
253245
253245
253245
253245
253245
253245
253245
253245
253245
253245
253245
253245
253245
253245
253245
253245
253245
253245
253245
253245
253245
253245
253245
253245
253245
253245
253245
253245
253245
253245
253245
253245
253245
253245
253245
253245
253245
253245
253245
253245
253245
253245
253245
253245
253245
253245
253245
253245
253245
253245
253245
253245
253245
253245
253245
253245
253245
253245
253245
253245
253245
253245
253245
253245
253245
253245
253245
253245
253245
253245
253245
253245
253245
253245
253245
253245
253245
253245
253245
253245
253245
253245
253245
253245
253245
253245
253245
253245
253245
253245
253245
253245
253245
253245
253245
253245
253245
253245
253245
253245
253245
253245
253245
253245
253245
253245
253245
253245
253245
253245
253245
253245
253245
253245
253245
253245
253245
253245
253245
253245
253245
253245
253245
253245
253245
253245
253245
253245
253245
253245
253245
253245
253245
253245
253245
253245
253245
253245
253245
253245
253245
253245
253245
253245
253245
253245
253245
253245
253245
253245
253245
253245
253245
253245
253245
253245
253245
253245
253245
253245
253245
253245
253245
253245
253245
253245
253245
253245
253245
253245
253245
253245
253245
253245
253245
253245
253245
253245
253245
253245
253245
253245
253245
253245
253245
253245
253245
253245
253245
253245
253245
253245
253245
253245
253245
253245
253245
253245
253245
253245
253245
253245
253245
253245
253245
253245
253245
253245
253245
253245
253245
253245
253245
253245
253245
253245
253245
253245
253245
253245
253245
253245
253245
253245
253245
253245
253245
253245
253245
253245
253245
253245
253245
253245
253245
253245
253245
253245
253245
253245
253245
253245
253245
253245
253245
253245
253245
253245
253245
253245
253245
253245
253245
253245
253245
253245
253245
253245
253245
253245
253245
253245
253245
253245
253245
253245
253245
253245
253245
253245
253245
253245
253245
253245
253245
253245
253245
253245
253245
253245
253245
253245
253245
253245
253245
253245
253245
253245
253245
253245
253245
253245
253245
253245
253245
253245
253245
253245
253245
253245
253245
253245
253245
253245
253245
253245
253245
253245
253245
253245
253245
253245
253245
253245
253245
253245
253245
253245
253245
253245
253245
253245
253245
253245
253245
253245
253245
253245
253245
253245
253245
253245
253245
253245
253245
253245
253245
253245
253245
253245
253245
253245
253245
253245
253245
253245
253245
253245
253245
253245
253245
253245
253245
253245
253245
253245
253245
253245
253245
253245
253245
253245
253245
253245
253245
253245
253245
253245
253245
253245
253245
253245
253245
253245
253245
253245
253245
253245
253245
253245
253245
253245
253245
253245
253245
253245
253245
253245
253245
253245
253245
253245
253245
253245
253245
253245
253245
253245
253245
253245
253245
253245
253245
253245
253245
253245
253245
253245
253245
253245
253245
253245
253245
253245
253245
253245
253245
253245
253245
253245
253245
253245
253245
253245
253245
253245
253245
253245
253245
253245
253245
253245
253245
253245
253245
253245
253245
253245
253245
253245
253245
253245
253245
253245
253245
253245
253245
253245
253245
253245
253245
253245
253245
253245
253245
253245
253245
253245
253245
253245
253245
253245
253245
253245
253245
253245
253245
253245
253245
253245
253245
253245
253245
253245
253245
253245
253245
253245
253245
253245
253245
253245
253245
253245
253245
253245
253245
253245
253245
253245
253245
253245
253245
253245
253245
253245
253245
253245
253245
253245
253245
253245
253245
253245
253245
253245
253245
253245
253245
253245
253245
253245
253245
253245
253245
253245
253245
253245
253245
253245
253245
253245
253245
253245
253245
253245
253245
253245
253245
253245
253245
253245
253245
253245
253245
253245
253245
253245
253245
253245
253245
253245
253245
253245
253245
253245
253245
253245
253245
253245
253245
253245
253245
253245
253245
253245
253245
253245
253245
253245
253245
253245
253245
253245
253245
253245
253245
253245
253245
253245
253245
253245
253245
253245
253245
253245
253245
253245
253245
253245
253245
253245
253245
253245
253245
253245
253245
253245
253245
253245
253245
253245
253245
253245
253245
253245
253245
253245
253245
253245
253245
253245
253245
253245
253245
253245
253245
253245
253245
253245
253245
253245
253245
253245
253245
253245
253245
253245
253245
253245
253245
253245
253245
253245
253245
253245
253245
253245
253245
253245
253245
253245
253245
253245
253245
253245
253245
253245
253245
253245
253245
253245
253245
253245
253245
253245
253245
253245
253245
253245
253245
253245
253245
253245
253245
253245
253245
253245
253245
253245
253245
253245
253245
253245
253245
253245
253245
253245
253245
253245
253245
253245
253245
253245
253245
253245
253245
253245
253245
253245
253245
253245
253245
253245
253245
253245
253245
253245
253245
253245
253245
253245
253245
253245
253245
253245
253245
253245
253245
253245
253245
253245
253245
253245
253245
253245
253245
253245
253245
253245
253245
253245
253245
253245
253245
253245
253245
253245
253245
253245
253245
253245
253245
253245
253245
253245
253245
253245
253245
253245
253245
253245
253245
253245
253245
253245
253245
253245
253245
253245
253245
253245
253245
253245
253245
253245
253245
253245
253245
253245
253245
253245
253245
253245
253245
253245
253245
253245
253245
253245
253245
253245
253245
253245
253245
253245
253245
253245
253245
253245
253245
253245
253245
253245
253245
253245
253245
253245
253245
253245
253245
253245
253245
253245
253245
253245
253245
253245
253245
253245
253245
253245
253245
253245
253245
253245
253245
253245
253245
253245
253245
253245
253245
253245
253245
253245
253245
253245
253245
253245
253245
253245
253245
253245
253245
253245
253245
253245
253245
253245
253245
253245
253245
253245
253245
253245
253245
253245
253245
253245
253245
253245
253245
253245
253245
253245
253245
253245
253245
253245
253245
253245
253245
253245
253245
253245
253245
253245
253245
253245
253245
253245
253245
253245
253245
253245
253245
253245
253245
253245
253245
253245
253245
253245
253245
253245
253245
253245
253245
253245
253245
253245
253245
253245
253245
253245
253245
253245
253245
253245
253245
253245
253245
253245
253245
253245
253245
253245
253245
253245
253245
253245
253245
253245
253245
253245
253245
253245
253245
253245
253245
253245
253245
253245
253245
253245
253245
253245
253245
253245
253245
253245
253245
253245
253245
253245
253245
253245
253245
253245
253245
253245
253245
253245
253245
253245
253245
253245
253245
253245
253245
253245
253245
253245
253245
253245
253245
253245
253245
253245
253245
253245
253245
253245
253245
253245
253245
253245
253245
253245
253245
253245
253245
253245
253245
253245
253245
253245
253245
253245
253245
253245
253245
253245
253245
253245
253245
253245
253245
253245
253245
253245
253245
253245
253245
253245
253245
253245
253245
253245
253245
253245
253245
253245
253245
253245
253245
253245
253245
253245
253245
253245
253245
253245
253245
253245
253245
253245
253245
253245
253245
253245
253245
253245
253245
253245
253245
253245
253245
253245
253245
253245
253245
253245
253245
253245
253245
253245
253245
253245
253245
253245
253245
253245
253245
253245
253245
253245
253245
253245
253245
253245
253245
253245
253245
253245
253245
253245
253245
253245
253245
253245
253245
253245
253245
253245
253245
253245
253245
253245
253245
253245
253245
253245
253245
253245
253245
253245
253245
253245
253245
253245
253245
253245
253245
253245
253245
253245
253245
253245
253245
253245
253245
253245
253245
253245
253245
253245
253245
253245
253245
253245
253245
253245
253245
253245
253245
253245
253245
253245
253245
253245
253245
253245
253245
253245
253245
253245
253245
253245
253245
253245
253245
253245
253245
253245
253245
253245
253245
253245
253245
253245
253245
253245
253245
253245
253245
253245
253245
253245
253245
253245
253245
253245
253245
253245
253245
253245
253245
253245
253245
253245
253245
253245
253245
253245
253245
253245
253245
253245
253245
253245
253245
253245
253245
253245
253245
253245
253245
253245
253245
253245
253245
253245
253245
253245
253245
253245
253245
253245
253245
253245
253245
253245
253245
253245
253245
253245
253245
253245
253245
253245
253245
253245
253245
253245
253245
253245
253245
253245
253245
253245
253245
253245
253245
253245
253245
253245
253245
253245
253245
253245
253245
253245
253245
253245
253245
253245
253245
253245
253245
253245
253245
253245
253245
253245
253245
253245
253245
253245
253245
253245
253245
253245
253245
253245
253245
253245
253245
253245
253245
253245
253245
253245
253245
253245
253245
253245
253245
253245
253245
253245
253245
253245
253245
253245
253245
253245
253245
253245
253245
253245
253245
253245
253245
253245
253245
253245
253245
253245
253245
253245
253245
253245
253371
257337
253245
253245
253260
253245
253245
253245
253245
253245
253268
253245
253245
253245
253245
253245
253245
253245
253246
253245
253245
253245
253245
253245
253245
253245
253245
253245
253245
253245
253247
253245
253245
253245
253245
253245
253245
253245
253245
253245
253245
253245
253245
253245
253245
253245
253245
253245
253245
253245
253245
253245
253245
253245
253245
253245
253245
253245
253245
253245
253245
253245
253245
253245
253245
253245
253245
253245
253245
253245
253245
253245
253245
253247
253245
253245
253245
253245
253249
253245
253245
253245
253246
253245
253245
253245
253245
253245
253245
253245
253245
253245
253245
253245
253245
253245
253245
253245
253245
253245
253245
253245
253245
253245
253245
253245
253245
253245
253245
253245
253245
253245
253245
253245
253245
253245
253249
253245
253245
253245
253245
253245
253245
253245
253245
253245
253245
253245
253245
253245
253245
253245
253245
253245
253245
253245
253245
253245
253245
253245
253245
253245
253245
253245
253245
253245
253245
253245
253245
253245
253245
253245
253245
253245
253245
253245
253245
253245
253245
253245
253245
253245
253245
253245
253245
253245
253245
253245
253245
253245
253245
253245
253245
253245
253245
253245
253245
253245
253245
253245
253245
253245
253245
253245
253245
253245
253245
253245
253245
253262
253246
253255
253245
253245
253248
253245
253246
253245
253245
253245
253245
253245
253245
253245
253245
253245
253245
253245
253245
253245
253245
253245
253245
253245
253245
253245
253245
253245
253245
253245
253245
253245
253245
253245
253245
253245
253245
253245
253245
253245
253245
253245
253245
253245
253245
253245
253245
253245
253245
253245
253245
253245
253245
253245
253245
253245
253245
253245
253245
253245
253245
253245
253245
253245
253245
253245
253245
253245
253245
253245
253245
253245
253245
253245
253245
253245
253245
253245
253245
253245
253245
253245
253245
253245
253245
253245
253245
253245
253245
253245
253245
253245
253245
253245
253245
253245
253245
253245
253245
253245
253245
253245
253245
253245
253245
253245
253245
253245
253245
253245
253245
253245
253245
253245
253245
253245
253245
253245
253245
253245
253245
253245
253245
253245
253245
253245
253245
253245
253245
253245
253245
253245
253245
253245
253245
253245
253245
253245
253245
253245
253245
253245
253245
253245
253245
253245
253245
253245
253245
253245
253245
253245
253245
253245
253245
253245
253245
253245
253245
253245
253245
253245
253245
253245
253245
253245
253245
253245
253245
253245
253245
253245
253245
253245
253245
253245
253245
253245
253245
253245
253245
253245
253245
253245
253245
253245
253245
253245
253245
253245
253245
253245
253245
253245
253245
253245
253245
253245
253245
253245
253245
253245
253245
253245
253245
253245
253245
253591
253245
253479
253245
253351
253245
253245
253245
253245
253245
253245
253245
253245
253245
253245
253245
253245
253245
253245
253245
253245
253245
253322
253245
253246
253245
253245
253245
253245
253245
253245
253245
253245
253245
253245
253245
253245
253245
253245
253245
253245
253245
253245
253245
253245
253245
253245
253245
253245
253245
253245
253245
253245
253245
253245
253245
253245
253245
253245
253245
253245
253245
253245
253245
253245
253245
253245
253245
253245
253245
253245
253245
253245
253245
253245
253245
253245
253245
253245
253245
253245
253245
253245
253245
253245
253245
253245
253245
253245
253245
253245
253245
253245
253245
3.07427e+06
2.11155e+06
3.63582e+06
2.91943e+06
346304
3.71956e+06
253269
2.33557e+06
2.69204e+06
3.7028e+06
335709
253423
303962
2.24029e+06
256888
1.15254e+06
253245
253245
253246
1.27973e+06
253330
253245
253245
253245
253245
253245
253245
253245
253245
253245
253245
253245
253245
253245
253245
253245
253245
253245
253245
253245
253245
253245
253245
253245
253245
253245
253245
253245
253245
253245
253245
253245
253245
253245
3.72026e+06
1.57563e+06
3.0381e+06
3.68259e+06
323761
253760
319791
940663
253396
255245
2.37492e+06
371990
255526
1.49899e+06
259603
3.22818e+06
253921
253246
253247
253429
253245
253245
253245
262220
253246
253245
253252
253245
291966
253247
253245
253245
253245
253245
255162
308270
254388
4.66446e+06
1.08491e+06
253249
253254
253245
253279
253250
253245
253245
253245
253245
253245
253245
3.91782e+06
2.66091e+06
4.91877e+06
1.23554e+06
2.3602e+06
4.49149e+06
4.05976e+06
4.51154e+06
5.47169e+06
6.54965e+06
4.2982e+06
3.57962e+06
674001
720602
1.74944e+06
1.65518e+06
3.45749e+06
2.7185e+06
264428
752769
255317
293978
586861
254506
271503
253594
253309
253283
253822
256541
266111
269683
253304
361317
253621
253763
253346
253247
253256
253261
7.40532e+06
1.8351e+06
6.80051e+06
8.10647e+06
9.57874e+06
952992
2.76492e+06
5.31604e+06
253285
253269
269706
253291
253577
253246
253252
1.40919e+06
2.94733e+06
3.31301e+06
682501
333961
299648
484867
253627
1.17293e+06
256081
266243
363569
254207
271924
261098
257485
253265
253258
253282
253403
253844
253564
253248
254757
253250
253257
253293
253342
253245
253245
253245
253246
253245
253245
253246
253246
253245
253251
253245
253245
253245
253245
253245
253245
682270
253685
274556
254134
285577
253261
253267
253975
253245
253245
253245
253245
253245
253245
253245
253709
253397
254730
253291
253265
253248
253252
253245
253309
253246
253247
253370
253248
253257
253271
253250
253245
253245
253245
253245
253246
253246
253245
253245
253245
253245
253245
253245
253245
253246
253245
253245
253245
253246
253245
253245
253245
253245
253245
253249
253245
3.01807e+06
2.57021e+06
3.12372e+06
2.1049e+06
3.6971e+06
2.71998e+06
3.40978e+06
389239
3.52071e+06
264851
3.58461e+06
260984
1.87427e+06
256824
3.70893e+06
3.30338e+06
2.46228e+06
2.76963e+06
520463
3.3934e+06
257084
254015
653352
253249
265130
253246
253276
253245
337395
2.13367e+06
253585
1.97383e+06
255036
1.44729e+06
253339
253254
253278
257461
253248
253355
253245
253270
253245
327721
253245
253245
253245
253245
253245
253245
253245
253245
253249
253246
253245
253245
253245
253245
253249
253245
253246
253368
253255
253260
253245
253245
253245
253245
253245
253246
253245
253245
253246
253245
253245
253245
253245
253248
253245
253245
253245
253245
253245
3.32188e+06
1.13769e+07
9.99923e+06
254299
253246
8.06473e+06
7.81391e+06
1.1227e+07
6.70723e+06
277879
287094
256612
253302
253250
255123
253424
253255
253245
253253
253261
253245
1.05832e+07
1.13699e+07
1.02411e+07
5.77148e+06
253365
253245
253249
253245
253245
4.67563e+06
5.6108e+06
7.23791e+06
8.04502e+06
5.513e+06
7.01828e+06
4.7753e+06
7.95717e+06
5.10297e+06
5.2286e+06
1.13418e+07
4.75143e+06
3.62421e+06
3.52397e+06
771978
439187
1.53512e+06
1.26047e+06
286285
254252
263572
253517
253844
256071
253272
257627
255183
256973
253264
295117
253450
253636
253592
253247
253246
253247
253262
253276
253267
253333
253246
253254
253598
253247
253280
253245
253245
253248
2.44546e+06
7.77237e+06
2.35757e+06
8.50097e+06
9.82921e+06
1.16003e+07
2.91359e+06
8.67703e+06
3.55011e+06
776905
1.24535e+07
1.16866e+06
2.15234e+06
323547
827084
254475
284618
253364
6.42425e+06
6.21721e+06
7.08281e+06
7.91392e+06
6.21859e+06
7.27025e+06
6.3213e+06
6.34993e+06
8.06237e+06
5.74822e+06
8.03194e+06
5.96677e+06
7.48386e+06
6.19642e+06
7.77247e+06
1.01355e+07
8.07577e+06
1.06284e+07
9.80696e+06
8.6157e+06
5.61475e+06
5.64362e+06
9.12066e+06
7.17278e+06
6.17094e+06
4.86231e+06
9.03762e+06
4.36736e+06
3.61691e+06
1.66544e+06
3.13378e+06
3.37748e+06
6.82457e+06
2.89185e+06
1.20326e+07
1.09041e+07
1.32835e+07
5.9438e+06
5.46457e+06
1.09607e+07
1.45423e+06
792559
1.08881e+06
274039
1.94485e+06
469527
608211
981995
259109
266411
278304
316536
373767
521014
995973
256100
321256
253861
255880
267294
253245
253247
253247
253247
253267
253276
253245
1.94777e+06
1.73101e+06
1.94052e+06
2.1731e+06
2.45866e+06
844304
3.78218e+06
2.03992e+06
1.13495e+06
1.84667e+06
2.13709e+06
2.02874e+06
491360
258905
2.05301e+06
1.99825e+06
2.12115e+06
2.39222e+06
2.73043e+06
2.48147e+06
2.85716e+06
2.01491e+06
2.02298e+06
2.09772e+06
2.5243e+06
2.77532e+06
2.87844e+06
2.56578e+06
2.20547e+06
2.04077e+06
2.14814e+06
2.42084e+06
2.27564e+06
2.35547e+06
2.35385e+06
3.67107e+06
1.68054e+06
412874
274264
595803
3.46884e+06
3.72009e+06
2.48136e+06
3.72517e+06
3.825e+06
4.40586e+06
2.57067e+06
2.59075e+06
4.47532e+06
2.40887e+06
2.79919e+06
3.28159e+06
2.06861e+06
2.23e+06
2.6112e+06
3.04298e+06
2.33447e+06
2.64624e+06
3.17655e+06
2.15322e+06
2.23642e+06
3.01854e+06
2.6153e+06
1.85674e+06
1.92776e+06
1.90139e+06
2.21602e+06
2.21984e+06
2.06236e+06
2.0474e+06
2.03343e+06
2.0069e+06
2.12475e+06
2.38208e+06
2.3872e+06
2.28077e+06
2.57335e+06
2.64124e+06
2.28297e+06
2.35186e+06
2.17031e+06
2.26111e+06
2.50769e+06
2.43456e+06
3.37978e+06
2.3775e+06
3.19209e+06
3.96595e+06
2.1321e+06
2.31901e+06
3.38697e+06
2.04994e+06
2.16881e+06
1.89003e+06
2.02406e+06
1.97251e+06
2.21679e+06
1.99859e+06
2.57059e+06
2.69118e+06
3.07432e+06
3.73274e+06
3.06092e+06
3.38558e+06
3.53493e+06
253249
261846
255196
2.02189e+06
254166
1.61611e+06
253351
3.1224e+06
2.5397e+06
2.71139e+06
3.28597e+06
2.60018e+06
3.2946e+06
2.40608e+06
2.74465e+06
2.52672e+06
3.25182e+06
3.11654e+06
2.60962e+06
3.33594e+06
2.66031e+06
2.32258e+06
2.19482e+06
2.4985e+06
2.28392e+06
3.20475e+06
2.521e+06
2.84256e+06
1.92012e+06
2.04334e+06
1.96046e+06
1.77188e+06
1.9579e+06
1.90194e+06
1.66066e+06
2.81133e+06
2.88974e+06
3.37507e+06
2.50061e+06
2.55675e+06
3.26321e+06
3.28328e+06
3.18583e+06
3.17276e+06
3.27241e+06
3.60646e+06
3.62082e+06
3.65055e+06
3.6571e+06
3.12135e+06
3.5694e+06
3.50319e+06
3.75501e+06
3.24177e+06
3.5647e+06
3.50879e+06
3.57781e+06
270153
537172
255413
253248
288280
3.09034e+06
2.26307e+06
2.09012e+06
2.01903e+06
1.32444e+06
2.0228e+06
1.73858e+06
1.68311e+06
3.67609e+06
3.58271e+06
4.00793e+06
2.70686e+06
3.53395e+06
2.33193e+06
3.28429e+06
2.74834e+06
2.56406e+06
3.22058e+06
3.21005e+06
1.51495e+06
2.57333e+06
2.4865e+06
3.21933e+06
3.74152e+06
3.74772e+06
2.94625e+06
3.51188e+06
3.56748e+06
2.85437e+06
2.82447e+06
3.25868e+06
3.02112e+06
3.81123e+06
2.6358e+06
3.48473e+06
3.31725e+06
3.54544e+06
2.85664e+06
2.51952e+06
2.75179e+06
2.8868e+06
2.9983e+06
3.53106e+06
1.94165e+06
1.201e+06
1.62223e+06
2.02343e+06
2.00685e+06
1.80241e+06
1.47802e+06
3.51319e+06
2.56038e+06
3.18264e+06
2.83434e+06
3.48168e+06
3.59643e+06
3.89233e+06
2.89608e+06
3.49647e+06
3.8073e+06
3.90835e+06
3.70872e+06
3.80618e+06
3.693e+06
3.57944e+06
3.19966e+06
3.68407e+06
3.78395e+06
3.40082e+06
3.6337e+06
3.39803e+06
3.69104e+06
3.51678e+06
3.59263e+06
3.30863e+06
3.38665e+06
3.65814e+06
3.69955e+06
253254
255573
353849
253246
264646
253492
253247
3.44656e+06
2.73496e+06
2.5366e+06
1.29742e+06
2.65453e+06
3.10248e+06
1.99315e+06
1.11263e+06
1.62821e+06
1.74457e+06
2.20068e+06
2.41136e+06
2.01059e+06
2.36828e+06
1.89119e+06
2.12474e+06
3.07502e+06
3.17632e+06
1.21003e+06
2.29922e+06
2.35422e+06
2.021e+06
950626
1.919e+06
760835
1.69741e+06
1.56826e+06
619897
253247
253245
253255
255726
253245
253293
253245
3.31553e+06
3.70899e+06
3.3965e+06
3.39952e+06
3.62727e+06
3.60005e+06
3.27149e+06
3.03818e+06
3.55927e+06
3.76847e+06
3.65083e+06
3.40589e+06
3.73272e+06
3.2532e+06
3.53624e+06
3.76952e+06
3.84361e+06
3.09329e+06
3.79511e+06
3.68956e+06
3.62084e+06
3.53969e+06
3.74645e+06
3.51003e+06
2.85959e+06
3.86192e+06
3.6661e+06
2.31548e+06
1.78857e+06
1.78877e+06
1.34131e+06
671396
425416
827351
1.25081e+06
1.79764e+06
1.76449e+06
1.4435e+06
899408
831129
1.32352e+06
493108
343708
1.48378e+06
1.07604e+06
715619
1.7525e+06
1.36703e+06
469511
1.95199e+06
1.64604e+06
1.48421e+06
1.3243e+06
1.14962e+06
644771
516522
3.43891e+06
3.51047e+06
3.73535e+06
3.80628e+06
3.51451e+06
3.72978e+06
3.33612e+06
2.4177e+06
1.35653e+06
1.74358e+06
332887
2.84101e+06
808883
1.19403e+06
3.61712e+06
2.69002e+06
3.34389e+06
3.74e+06
3.50163e+06
3.51628e+06
3.04747e+06
4.03031e+06
3.90454e+06
3.77272e+06
2.61934e+06
3.94082e+06
3.7414e+06
3.35991e+06
372396
682361
1.35238e+06
1.80977e+06
1.21489e+06
2.05154e+06
1.69364e+06
917675
624207
306274
1.8273e+06
1.24263e+06
902752
390711
253246
253245
253246
377302
258259
253905
264541
879689
471584
1.3517e+06
1.19229e+06
282594
390915
717967
2.4884e+06
3.70035e+06
2.15852e+06
3.28367e+06
3.02225e+06
3.65782e+06
1.46476e+06
281483
261085
429390
1.09623e+06
275290
662788
717259
3.33572e+06
1.41319e+06
3.17646e+06
3.01417e+06
1.4068e+06
1.16256e+06
3.20632e+06
3.77623e+06
2.92217e+06
3.53549e+06
3.86829e+06
1.86856e+06
2.88181e+06
3.5461e+06
1.8463e+06
3.33417e+06
1.5492e+06
2.40916e+06
3.76361e+06
3.65746e+06
2.68771e+06
2.67938e+06
3.48822e+06
2.45225e+06
2.43872e+06
2.19041e+06
971735
769064
2.62944e+06
2.00862e+06
1.12131e+06
900220
612839
1.84396e+06
314343
3.70079e+06
829103
2.63197e+06
3.22595e+06
3.12898e+06
3.86476e+06
1.56936e+06
487770
949945
901282
264078
302994
499288
310240
278322
382983
679417
959833
267555
318518
538039
582606
355872
831129
257754
403653
292451
270172
729208
2.57846e+06
2.32194e+06
2.73368e+06
1.06483e+06
870892
2.96615e+06
1.27502e+06
435005
1.03434e+06
266657
333220
300414
261232
1.35848e+06
1.64988e+06
391770
3.33728e+06
2.11367e+06
1.8264e+06
555751
341783
514172
722192
257157
340523
265522
280947
2.87167e+06
401338
932995
1.74148e+06
2.7294e+06
3.4077e+06
805438
291802
347034
979419
1.75155e+06
271904
431995
647532
267642
388719
270638
540926
1.27131e+06
590802
293475
1.83091e+06
884464
2.71539e+06
2.49221e+06
350999
711668
1.55432e+06
462649
294704
317735
1.12932e+06
2.04004e+06
1.77031e+06
1.37002e+06
261597
253724
255420
303744
293893
440493
264273
256625
291562
319712
843350
678739
298282
279225
346266
942222
1.89823e+06
2.64611e+06
747833
1.5862e+06
408165
268015
868246
2.08986e+06
1.11653e+06
492605
301641
638792
795504
3.28482e+06
637563
396825
2.45848e+06
1.72387e+06
275977
254998
254249
275696
260998
292681
258419
373163
253245
253245
253245
253247
253245
253245
253245
374707
817775
1.69454e+06
2.15802e+06
302248
526943
1.19472e+06
254744
500425
263049
342980
754131
276672
257053
312046
288372
274187
257841
255926
254896
254216
253249
253245
253245
253245
253245
253245
253246
253245
253245
253246
253245
253247
253250
253245
256166
266952
253796
281028
258298
254359
253441
436816
258200
363339
254302
275751
266436
253851
258495
277504
434605
253477
254967
254332
261304
275440
290806
452190
254918
253434
254256
262152
253596
260500
271626
356573
258058
498996
265711
280035
1.98033e+06
279732
398110
432702
941739
257465
296443
267105
255542
671432
506842
1.14404e+06
330576
254147
273248
255638
255569
305067
259500
253526
253747
257243
253419
281277
263592
254533
253705
253245
253245
253245
253245
253245
253245
253740
253245
253245
253245
253245
253245
253245
253245
253245
253245
253245
253245
253245
253245
253245
253245
253245
253245
253245
253245
253245
253245
253245
253245
253245
253245
253245
253245
253245
253245
253245
253255
253245
253245
253245
253245
253245
253245
253245
253245
253245
253245
253295
253251
253252
253245
253245
253310
253245
253245
253245
253249
253245
253245
253245
253260
253366
253245
253246
253245
253245
253246
253303
253245
253245
253245
253245
253263
253313
253245
285537
260794
269711
253346
452407
254464
255756
271098
255842
257402
395120
341226
615609
763588
266549
277889
254082
257019
1.32341e+06
314572
366688