/*--------------------------------*- C++ -*----------------------------------*\
  =========                 |
  \\      /  F ield         | OpenFOAM: The Open Source CFD Toolbox
   \\    /   O peration     | Website:  https://openfoam.org
    \\  /    A nd           | Version:  9
     \\/     M anipulation  |
\*---------------------------------------------------------------------------*/
FoamFile
{
    format      ascii;
    class       volVectorField;
    location    "0.0001";
    object      rhoU;
}
// * * * * * * * * * * * * * * * * * * * * * * * * * * * * * * * * * * * * * //

dimensions      [1 -2 -1 0 0 0 0];

internalField   nonuniform List<vector> 
3630
(
(0 0 0)
(0 0 -5.19032e-18)
(0 0 -5.19032e-18)
(0 0 -5.19749e-18)
(0 0 0)
(1.82181e-16 0 0)
(-1.37258e-38 0 0)
(0 0 5.07587e-18)
(-9.05406e-37 0 -1.69099e-18)
(-1.00152e-34 0 2.30361e-18)
(0 0 5.08128e-18)
(-2.62819e-32 0 -2.28485e-18)
(-5.319e-30 0 -1.74711e-16)
(0 0 9.74946e-18)
(-4.02234e-28 0 1.74813e-16)
(2.53615e-28 0 1.79364e-16)
(0 0 4.14234e-22)
(4.97362e-24 0 1.95677e-20)
(0 4.54747e-15 0)
(0 4.54747e-15 -4.5203e-15)
(0 0 9.39101e-17)
(0 4.54747e-15 9.93476e-18)
(0 4.54747e-15 -4.37323e-15)
(0 0 -5.09099e-23)
(0 4.54747e-15 9.93583e-18)
(0 0 -7.46259e-20)
(0 4.54615e-15 1.72759e-17)
(0 0 4.3081e-15)
(0 0 -3.59336e-19)
(0 0 0)
(0 0 0)
(0 6.05897e-17 -4.48628e-15)
(8.38073e-17 0 -3.74599e-17)
(-4.37919e-15 4.51827e-15 -2.27165e-17)
(0 0 1.24398e-14)
(0 0 -9.33534e-16)
(0 0 1.24398e-14)
(0 0 0)
(0 0 -1.29902e-15)
(0 0 0)
(0 0 0)
(0 0 -1.1848e-14)
(1.88043e-16 0 0)
(1.88043e-16 0 4.07141e-15)
(0 4.54747e-15 0)
(0 8.70646e-50 0)
(0 1.30885e-47 0)
(0 4.54747e-15 3.26624e-16)
(0 4.54747e-15 4.43238e-15)
(0 1.69298e-47 1.81566e-19)
(0 2.66225e-45 0)
(0 2.32925e-45 2.14936e-21)
(0 4.54747e-15 4.10773e-15)
(0 6.17822e-43 2.03854e-20)
(0 0 1.77851e-14)
(0 0 -9.33534e-16)
(0 0 0)
(0 0 0)
(0 0 -1.29902e-15)
(0 0 0)
(0 0 0)
(0 0 -1.45471e-14)
(1.88043e-16 0 -4.2245e-15)
(1.88043e-16 0 4.07141e-15)
(0 4.54747e-15 -4.40545e-15)
(0 3.45381e-45 -5.52992e-19)
(0 8.93922e-43 -1.32484e-30)
(0 4.54747e-15 3.26624e-16)
(0 4.54747e-15 4.43238e-15)
(0 3.33552e-43 1.81566e-19)
(0 1.33858e-40 0)
(0 9.60736e-41 -7.25044e-29)
(0 4.54676e-15 2.57116e-19)
(0 3.46284e-38 -1.21314e-27)
(0 0 1.77851e-14)
(0 0 -9.33537e-16)
(0 0 0)
(0 0 -8.40308e-18)
(0 0 -1.30165e-15)
(0 0 -6.36964e-20)
(1.88043e-16 0 -4.2245e-15)
(1.88043e-16 0 4.07141e-15)
(0 4.54563e-15 -4.25759e-15)
(0 -5.70921e-42 -5.52992e-19)
(0 3.1154e-39 -9.86277e-21)
(0 4.54747e-15 1.58417e-16)
(0 4.54338e-15 0)
(0 -7.03573e-40 1.81566e-19)
(0 -1.63983e-37 0)
(0 2.19332e-36 2.35166e-18)
(0 -3.2089e-35 1.75611e-16)
(0 0 1.77851e-14)
(0 0 -1.01171e-15)
(0 0 0)
(0 0 -1.26177e-15)
(1.88043e-16 0 -4.2245e-15)
(1.88043e-16 0 8.65087e-18)
(0 -4.00242e-42 -5.52992e-19)
(0 0 -3.10481e-18)
(0 4.54021e-15 1.77621e-16)
(0 0 1.74999e-19)
(1.47634e-30 0 1.7252e-16)
(0 0 -6.4438e-17)
(0 0 1.8055e-14)
(5.62347e-22 0 -1.85037e-15)
(0 0 0)
(-3.32564e-25 0 1.92757e-15)
(0 0 0)
(0 0 -1.69756e-14)
(0 0 0)
(0 0 -1.67267e-14)
(0 0 0)
(0 0 0)
(0 0 0)
(0 0 1.41483e-15)
(0 0 1.06764e-15)
(0 0 -1.76502e-14)
(0 0 1.25485e-15)
(0 0 1.68994e-14)
(0 0 -1.31413e-15)
(0 0 -1.43488e-15)
(0 0 1.35499e-14)
(0 0 -1.69756e-14)
(0 0 0)
(0 0 0)
(0 0 0)
(0 0 -1.35499e-14)
(0 0 0)
(0 0 1.6436e-14)
(0 0 0)
(0 0 0)
(0 0 0)
(0 0 1.299e-15)
(0 0 0)
(0 0 0)
(0 0 -1.60467e-14)
(0 0 1.26814e-15)
(0 0 0)
(0 0 -1.38725e-14)
(0 0 0)
(0 0 1.46341e-14)
(0 0 1.58963e-14)
(0 0 -1.72455e-14)
(0 0 1.07069e-15)
(0 0 0)
(0 0 0)
(0 0 -1.41204e-15)
(0 0 0)
(0 0 1.75153e-14)
(0 0 -1.14055e-14)
(0 0 0)
(0 0 0)
(0 0 0)
(0 0 1.39437e-14)
(0 0 1.23317e-14)
(0 0 0)
(0 0 1.28052e-14)
(0 0 1.28068e-14)
(0 0 1.24957e-14)
(0 0 1.22741e-14)
(0 0 -1.50868e-14)
(0 0 -1.43839e-14)
(0 0 -1.45108e-14)
(0 0 0)
(0 0 0)
(0 0 0)
(0 0 -1.63233e-14)
(0 0 0)
(0 0 0)
(0 0 0)
(0 0 1.41483e-15)
(0 0 1.06773e-15)
(0 0 -1.76502e-14)
(0 0 1.25485e-15)
(0 0 1.68994e-14)
(0 0 -1.31413e-15)
(0 0 -1.43488e-15)
(0 0 1.6436e-14)
(0 0 0)
(0 0 1.42012e-14)
(0 0 0)
(0 0 -1.30432e-14)
(0 0 0)
(0 0 -1.35499e-14)
(0 0 0)
(0 0 -1.44966e-15)
(0 0 0)
(0 0 0)
(0 0 -3.4732e-17)
(0 0 1.28319e-15)
(0 0 0)
(0 0 -1.60469e-14)
(0 0 1.26814e-15)
(0 0 0)
(0 0 -1.38725e-14)
(0 0 0)
(0 0 1.46341e-14)
(0 0 1.58963e-14)
(0 0 -1.75153e-14)
(0 0 1.07069e-15)
(0 0 0)
(0 0 0)
(0 0 -1.41204e-15)
(0 0 0)
(0 0 1.75153e-14)
(0 0 -1.49075e-14)
(0 0 -1.69756e-14)
(0 0 -1.55719e-14)
(0 0 0)
(0 0 1.17484e-14)
(0 0 1.37413e-14)
(0 0 1.21621e-14)
(0 0 1.28052e-14)
(0 0 1.28068e-14)
(0 0 1.23357e-14)
(0 0 0)
(0 0 -1.50868e-14)
(0 0 -1.43839e-14)
(0 0 -1.5576e-14)
(0 0 0)
(0 0 0)
(0 0 0)
(0 0 -1.63233e-14)
(0 0 -8.91869e-22)
(0 0 0)
(0 0 0)
(0 0 1.41483e-15)
(0 0 1.06773e-15)
(0 0 -1.76502e-14)
(0 0 1.25485e-15)
(0 0 1.68994e-14)
(0 0 -1.31413e-15)
(0 0 -1.43488e-15)
(0 0 1.6436e-14)
(0 0 0)
(0 0 1.42013e-14)
(0 0 0)
(0 0 -1.30431e-14)
(0 0 0)
(0 0 -1.35499e-14)
(0 0 0)
(0 0 -1.42471e-15)
(0 0 0)
(0 0 0)
(0 0 -3.40913e-17)
(0 0 1.28318e-15)
(0 0 0)
(0 0 -1.60469e-14)
(0 0 1.26889e-15)
(0 0 0)
(0 0 -1.40075e-14)
(0 0 0)
(0 0 1.46483e-14)
(0 0 1.58963e-14)
(0 0 -1.75153e-14)
(0 0 1.05496e-15)
(0 0 6.37827e-20)
(0 0 0)
(0 0 -1.41203e-15)
(0 0 0)
(0 0 1.75153e-14)
(0 0 0)
(0 0 0)
(0 0 0)
(0 0 -1.63233e-14)
(0 0 -8.86654e-22)
(0 0 0)
(0 0 0)
(0 0 1.41483e-15)
(0 0 9.85242e-16)
(0 0 -1.76502e-14)
(0 0 1.25485e-15)
(0 0 1.68994e-14)
(0 0 -1.38055e-15)
(0 0 -1.43488e-15)
(0 0 1.57904e-14)
(0 0 0)
(0 0 1.41821e-14)
(0 0 0)
(0 0 -1.30321e-14)
(0 0 0)
(0 0 -1.24581e-14)
(0 0 -1.60469e-14)
(0 0 1.26959e-15)
(0 0 0)
(0 0 -1.39997e-14)
(0 0 0)
(0 0 1.46685e-14)
(0 0 1.60469e-14)
(3.85591e-29 0 -1.69066e-16)
(0 0 -2.54279e-24)
(0 4.5451e-15 -1.57592e-16)
(0 0 -4.51257e-18)
(0 8.23998e-15 -2.51092e-22)
(-1.59516e-20 1.49363e-16 -2.0028e-20)
(3.88331e-26 -3.82335e-30 8.84911e-15)
(0 0 -8.03638e-15)
(0 0 3.55614e-16)
(-1.37536e-16 0 0)
(-2.37222e-21 -1.42005e-18 0)
(3.60499e-20 -3.8224e-23 1.30091e-16)
(0 0 -1.21436e-18)
(0 0 -5.05509e-20)
(4.89363e-20 0 -4.79462e-18)
(0 0 -1.1977e-15)
(0 0 1.55633e-14)
(0 0 -6.53282e-16)
(0 0 -1.53106e-14)
(0 0 2.16575e-15)
(0 0 -1.29286e-16)
(0 0 -1.28038e-15)
(0 0 -1.35228e-14)
(0 0 1.34862e-15)
(0 0 1.67267e-14)
(0 0 -1.33418e-14)
(0 0 1.27757e-15)
(0 0 1.31252e-14)
(0 0 -1.12074e-15)
(3.19065e-21 -1.10937e-18 -3.35315e-17)
(6.75234e-25 -1.14677e-18 -2.02279e-16)
(0 0 -5.50017e-18)
(9.06767e-21 0 0)
(-1.48616e-36 0 4.54747e-15)
(5.43748e-20 0 -5.04924e-18)
(-1.79022e-34 0 -1.82562e-16)
(9.03248e-21 0 3.08072e-19)
(-1.88575e-32 0 1.82789e-16)
(5.43748e-20 0 -5.04631e-18)
(-4.23402e-30 0 -1.82789e-16)
(9.03234e-21 0 3.08072e-19)
(-3.19872e-28 0 -4.17664e-15)
(5.24441e-20 0 -4.88304e-18)
(-1.94925e-26 0 4.17664e-15)
(8.79567e-21 0 3.08073e-19)
(-9.0697e-25 0 1.87906e-16)
(2.18408e-20 0 7.83139e-20)
(2.38895e-22 0 1.82974e-18)
(5.92196e-21 -1.14636e-18 -1.70686e-16)
(3.98786e-21 -1.14677e-18 -4.20172e-15)
(1.18689e-18 0 -1.55486e-16)
(0 0 4.57744e-17)
(0 0 0)
(0 0 0)
(0 0 0)
(0 0 0)
(0 0 0)
(0 0 0)
(0 0 0)
(0 0 0)
(0 0 0)
(0 0 0)
(0 0 0)
(0 0 0)
(0 0 1.35347e-20)
(0 0 0)
(0 0 0)
(0 0 0)
(1.4407e-17 0 2.25679e-15)
(1.58443e-21 0 0)
(0 0 4.51393e-15)
(0 0 0)
(0 0 0)
(0 0 0)
(0 5.14621e-21 0)
(0 0 0)
(0 0 0)
(-3.71955e-19 0 0)
(0 0 0)
(0 0 0)
(0 4.97329e-16 -2.8958e-23)
(0 3.6277e-16 1.38487e-19)
(0 0 0)
(0 0 2.80405e-21)
(0 3.56953e-16 0)
(0 0 -2.85081e-21)
(0 0 -8.36336e-15)
(0 0 0)
(0 0 0)
(0 0 -8.56558e-21)
(0 0 0)
(0 0 0)
(0 0 0)
(0 0 8.36336e-15)
(0 0 0)
(0 0 -8.36336e-15)
(0 0 0)
(0 0 7.70912e-15)
(0 0 2.79947e-21)
(0 0 0)
(0 0 -1.71663e-25)
(0 0 0)
(0 0 0)
(0 0 -8.36336e-15)
(0 0 0)
(0 0 0)
(0 0 0)
(0 0 0)
(0 0 -9.09495e-15)
(0 0 0)
(0 0 0)
(0 0 0)
(0 0 6.04138e-15)
(0 0 0)
(0 0 0)
(0 0 0)
(0 0 0)
(0 0 -7.70912e-15)
(0 0 0)
(0 0 0)
(4.18168e-15 4.54747e-15 0)
(0 0 0)
(-3.57871e-16 0 -7.56798e-19)
(4.18168e-15 4.54747e-15 -6.61186e-18)
(0 0 0)
(-3.57453e-16 0 -1.41979e-19)
(4.18168e-15 4.54747e-15 -6.61186e-18)
(0 0 0)
(0 0 -1.75832e-17)
(4.18168e-15 4.54747e-15 -6.61186e-18)
(0 0 0)
(0 -8.71886e-15 -8.28381e-15)
(-4.2969e-26 4.54747e-15 -1.74712e-16)
(0 0 3.40814e-22)
(0 0 0)
(0 0 2.19638e-19)
(0 0 0)
(0 0 0)
(4.54747e-15 0 0)
(4.18168e-15 4.54747e-15 -1.83145e-17)
(0 0 1.34338e-15)
(4.54747e-15 0 4.86213e-18)
(4.54747e-15 0 0)
(0 0 1.31433e-15)
(4.54747e-15 0 1.87474e-16)
(0 0 0)
(-3.57345e-16 0 1.29479e-19)
(0 0 3.25743e-20)
(0 0 0)
(4.54747e-15 0 -2.44468e-17)
(4.18168e-15 4.54747e-15 -1.83141e-17)
(0 0 1.34338e-15)
(4.54747e-15 0 4.86213e-18)
(4.54747e-15 0 -1.87786e-16)
(0 0 1.31433e-15)
(4.54747e-15 0 1.87474e-16)
(0 0 0)
(0 0 4.88015e-21)
(0 0 3.25743e-20)
(0 0 0)
(4.54747e-15 0 -2.44468e-17)
(4.18168e-15 4.54747e-15 -1.83141e-17)
(0 0 1.34338e-15)
(4.54747e-15 0 4.86213e-18)
(4.54747e-15 0 -1.87786e-16)
(0 0 1.31433e-15)
(4.54747e-15 0 1.87474e-16)
(0 0 0)
(0 0 -2.90542e-18)
(0 0 -1.40154e-19)
(0 0 0)
(4.54747e-15 0 -2.44468e-17)
(4.18168e-15 4.54747e-15 -1.57829e-17)
(0 0 0)
(4.54747e-15 0 4.20422e-18)
(4.54747e-15 0 -1.87786e-16)
(0 0 0)
(4.54605e-15 0 0)
(0 0 0)
(0 0 0)
(0 0 0)
(0 0 0)
(0 0 0)
(0 0 0)
(0 0 0)
(0 0 0)
(0 0 0)
(0 0 0)
(0 0 0)
(0 0 -1.49519e-14)
(0 0 0)
(0 0 0)
(0 0 0)
(-3.65795e-16 0 -7.47953e-19)
(-2.56405e-19 0 0)
(-3.57979e-16 0 -7.56798e-19)
(0 0 0)
(-3.65792e-16 0 -7.56798e-19)
(-7.75436e-18 0 0)
(0 0 0)
(0 0 -1.22186e-15)
(0 0 0)
(0 0 0)
(0 0 -9.49968e-19)
(0 0 -1.49519e-14)
(0 0 0)
(0 0 0)
(-3.65475e-16 0 -1.39112e-19)
(-2.47043e-19 0 0)
(-3.51373e-16 0 -1.41979e-19)
(0 0 0)
(-3.58952e-16 0 -1.41979e-19)
(-7.40303e-18 0 0)
(0 0 0)
(0 0 -1.22186e-15)
(0 0 0)
(0 0 0)
(0 0 -9.49968e-19)
(0 0 -1.49519e-14)
(0 0 0)
(0 0 0)
(-3.8037e-22 0 -1.55826e-17)
(0 0 0)
(0 0 -1.52465e-17)
(0 0 0)
(-1.3091e-21 0 -1.06517e-17)
(0 0 0)
(0 0 0)
(0 0 -1.22186e-15)
(0 0 0)
(0 0 0)
(0 0 -9.49968e-19)
(0 0 -1.49519e-14)
(0 0 0)
(0 -4.54747e-15 -4.18233e-15)
(0 0 -1.52402e-17)
(0 0 0)
(0 0 3.69015e-15)
(0 0 -1.77845e-16)
(9.19866e-18 0 -3.53139e-15)
(0 0 -4.35943e-15)
(0 0 1.03821e-15)
(4.39626e-15 0 0)
(-4.47583e-24 0 0)
(8.79239e-15 0 -4.54747e-15)
(0 0 0)
(0 0 0)
(0 0 0)
(0 0 0)
(0 0 0)
(0 0 0)
(0 0 0)
(0 0 0)
(0 0 0)
(0 0 0)
(0 0 0)
(0 0 0)
(0 0 0)
(0 0 0)
(0 0 0)
(0 0 0)
(0 0 3.76036e-19)
(0 0 1.04128e-19)
(0 0 3.66451e-23)
(0 0 3.86792e-19)
(0 0 0)
(0 0 1.41764e-21)
(0 0 0)
(0 0 0)
(0 0 0)
(0 0 0)
(0 0 0)
(0 0 0)
(0 0 0)
(0 0 0)
(0 0 0)
(0 0 0)
(0 0 0)
(0 0 0)
(0 0 0)
(0 0 0)
(0 0 0)
(0 0 0)
(0 0 0)
(0 0 -1.35499e-14)
(0 0 0)
(0 0 0)
(0 0 1.26249e-14)
(0 0 0)
(0 0 -1.58963e-14)
(0 0 -1.24444e-15)
(0 0 0)
(0 0 1.60312e-14)
(0 0 0)
(0 0 -1.6734e-14)
(0 0 1.58963e-14)
(0 0 1.42017e-15)
(0 0 -6.5595e-17)
(0 0 1.55679e-14)
(0 0 -1.01839e-18)
(0 0 0)
(0 0 0)
(0 0 -7.2277e-17)
(0 0 0)
(0 0 0)
(0 0 0)
(0 0 0)
(0 0 0)
(0 0 0)
(0 0 0)
(0 0 0)
(0 0 0)
(0 0 0)
(0 0 0)
(0 0 0)
(0 0 0)
(0 0 0)
(0 0 0)
(0 0 0)
(-3.5746e-16 0 1.29507e-19)
(-3.6527e-16 0 1.2669e-19)
(0 0 6.37578e-23)
(-3.6527e-16 0 1.2877e-19)
(-7.74437e-18 0 0)
(0 0 2.02746e-21)
(0 0 0)
(0 0 0)
(0 0 0)
(0 0 0)
(0 0 0)
(0 0 0)
(0 0 0)
(0 0 0)
(0 0 0)
(0 0 0)
(0 0 0)
(0 0 0)
(0 0 0)
(0 0 0)
(0 0 0)
(0 0 0)
(0 0 0)
(0 0 -1.37413e-14)
(0 0 0)
(0 0 -8.96795e-16)
(0 0 0)
(0 0 1.26249e-14)
(0 0 -1.58963e-14)
(0 0 -1.24444e-15)
(0 0 0)
(0 0 1.60312e-14)
(0 0 0)
(0 0 -1.6734e-14)
(0 0 1.58963e-14)
(0 0 1.42017e-15)
(0 0 -6.5595e-17)
(0 0 1.55679e-14)
(0 0 -1.01839e-18)
(0 0 0)
(0 0 0)
(0 0 -7.2277e-17)
(0 0 0)
(0 0 0)
(0 0 0)
(0 0 0)
(0 0 0)
(0 0 0)
(0 0 0)
(0 0 0)
(0 0 0)
(0 0 0)
(0 0 0)
(0 0 0)
(0 0 0)
(0 0 0)
(0 0 0)
(0 0 0)
(0 0 7.6572e-20)
(0 0 4.3069e-21)
(0 0 2.24233e-24)
(0 0 7.68976e-20)
(0 0 0)
(0 0 9.17228e-23)
(0 0 0)
(0 0 0)
(0 0 0)
(0 0 0)
(0 0 0)
(0 0 0)
(0 0 0)
(0 0 0)
(0 0 0)
(0 0 0)
(0 0 0)
(0 0 0)
(0 0 0)
(0 0 0)
(0 0 0)
(0 0 0)
(0 0 0)
(0 0 -1.37413e-14)
(0 0 0)
(0 0 -8.96795e-16)
(0 0 0)
(0 0 1.26249e-14)
(0 0 -1.58963e-14)
(0 0 -1.24444e-15)
(0 0 0)
(0 0 1.60312e-14)
(0 0 0)
(0 0 -1.6734e-14)
(0 0 1.58963e-14)
(0 0 1.42017e-15)
(0 0 -6.5595e-17)
(0 0 1.55679e-14)
(0 0 -1.01839e-18)
(0 0 0)
(0 0 0)
(0 0 -7.2277e-17)
(0 0 0)
(0 0 0)
(0 0 0)
(0 0 0)
(0 0 0)
(0 0 0)
(0 0 0)
(0 0 0)
(0 0 0)
(0 0 0)
(0 0 0)
(0 0 0)
(0 0 0)
(0 0 0)
(0 0 0)
(0 0 0)
(0 0 -2.99088e-18)
(-6.17113e-20 0 -2.80631e-18)
(0 0 -3.74976e-21)
(-6.16758e-20 0 -2.92019e-18)
(0 0 0)
(0 0 -1.12508e-19)
(0 0 0)
(0 0 -8.37061e-21)
(0 0 0)
(0 0 0)
(0 0 0)
(0 0 0)
(0 0 0)
(0 0 0)
(0 0 0)
(0 0 0)
(0 0 0)
(0 0 0)
(0 0 0)
(0 0 0)
(0 0 0)
(0 0 0)
(0 0 0)
(0 0 -1.37413e-14)
(0 0 0)
(0 0 -8.96795e-16)
(0 0 0)
(0 0 1.26249e-14)
(0 0 -1.58963e-14)
(0 0 -1.24297e-15)
(0 0 0)
(0 0 1.58963e-14)
(0 0 0)
(0 0 -1.67267e-14)
(0 0 1.58963e-14)
(0 0 1.42017e-15)
(0 0 -6.71804e-17)
(0 0 0)
(0 0 0)
(0 0 0)
(0 0 0)
(0 0 0)
(0 0 -6.46923e-19)
(0 0 0)
(0 0 0)
(0 0 0)
(0 0 0)
(0 0 5.68614e-21)
(0 0 -9.69929e-23)
(0 0 0)
(0 0 0)
(0 0 2.29282e-17)
(0 0 0)
(0 0 4.47027e-19)
(0 0 -6.23483e-21)
(0 0 -3.63535e-19)
(0 0 4.93898e-20)
(0 0 8.17787e-20)
(0 0 1.93757e-18)
(0 0 5.27487e-21)
(0 0 7.4063e-24)
(0 0 0)
(0 0 0)
(0 0 -9.1836e-16)
(0 0 0)
(0 0 0)
(0 0 -1.53012e-14)
(0 0 1.17922e-15)
(0 0 4.93363e-17)
(0 0 1.53666e-14)
(0 5.78754e-19 2.13542e-15)
(0 0 -2.15589e-18)
(0 0 1.23051e-17)
(-8.14556e-19 0 -6.07842e-17)
(0 0 1.01727e-17)
(0 0 -1.14535e-17)
(0 1.01269e-16 0)
(0 1.00558e-16 8.66171e-18)
(-4.54747e-15 0 -3.19546e-17)
(-4.52039e-15 0 2.12922e-18)
(-4.53348e-15 0 -2.69625e-18)
(0 0 2.82945e-18)
(-1.26192e-20 0 -2.65463e-16)
(-2.25321e-18 0 -1.62503e-16)
(-4.4815e-15 0 -2.86516e-16)
(-4.4815e-15 8.08824e-16 -3.89061e-15)
(0 0 8.03082e-15)
(4.36027e-15 0 1.76436e-17)
(0 0 0)
(-4.4815e-15 0 2.64219e-16)
(0 0 0)
(0 0 0)
(0 0 1.18263e-15)
(0 0 0)
(0 0 6.29086e-18)
(0 0 0)
(0 0 1.18278e-15)
(0 0 0)
(0 0 6.29086e-18)
(0 0 0)
(0 0 1.18278e-15)
(0 0 0)
(0 0 1.71954e-17)
(0 0 0)
(0 0 1.18263e-15)
(0 0 0)
(-8.16853e-15 0 -1.18217e-16)
(-2.27845e-18 9.09495e-15 9.32165e-17)
(0 0 0)
(-8.95478e-23 0 3.9312e-19)
(0 0 -4.18519e-15)
(0 0 -9.61956e-20)
(0 0 0)
(0 0 7.93775e-15)
(0 0 -8.62456e-15)
(0 0 7.953e-15)
(0 0 7.93775e-15)
(0 0 -7.95343e-15)
(0 0 -7.95092e-15)
(0 0 0)
(0 0 0)
(0 0 1.35499e-14)
(0 0 0)
(0 0 0)
(0 0 0)
(0 0 0)
(0 0 1.58963e-14)
(0 0 -1.29243e-15)
(0 0 0)
(0 0 1.19874e-14)
(0 0 0)
(0 0 -1.49519e-14)
(0 0 -1.6436e-14)
(0 0 -3.10514e-18)
(0 0 -7.95345e-15)
(0 0 -6.38076e-16)
(0 0 7.93775e-15)
(0 0 8.37351e-15)
(0 0 -5.13732e-15)
(0 0 0)
(0 0 0)
(0 0 0)
(0 0 0)
(0 0 0)
(0 0 0)
(0 0 0)
(0 0 1.58963e-14)
(0 0 -1.29243e-15)
(0 0 6.68588e-18)
(0 0 1.19874e-14)
(0 0 0)
(0 0 -1.49519e-14)
(0 0 -1.6436e-14)
(0 0 -7.93981e-16)
(0 0 0)
(0 0 -1.42309e-17)
(0 0 0)
(0 0 0)
(0 0 -1.36663e-19)
(0 0 1.45406e-17)
(0 0 0)
(0 0 1.58963e-14)
(0 0 -1.29243e-15)
(0 0 6.68588e-18)
(0 0 1.19874e-14)
(0 0 0)
(0 0 -1.49519e-14)
(0 0 -1.6436e-14)
(0 0 0)
(0 0 -1.42309e-17)
(0 0 0)
(0 0 0)
(0 0 -1.35573e-19)
(0 0 1.20402e-17)
(0 0 0)
(0 0 1.58963e-14)
(0 0 -1.2728e-15)
(0 0 0)
(0 0 1.19874e-14)
(0 0 -3.54918e-19)
(0 0 -1.41424e-14)
(0 0 -1.6436e-14)
(0 0 0)
(0 0 0)
(0 0 0)
(0 0 0)
(0 0 0)
(0 0 0)
(0 0 0)
(0 0 0)
(0 0 0)
(0 0 0)
(0 0 0)
(0 0 0)
(0 0 0)
(0 0 0)
(0 0 0)
(0 0 0)
(0 0 0)
(0 0 0)
(0 0 0)
(0 0 0)
(0 0 0)
(0 0 0)
(0 0 0)
(0 0 4.53464e-16)
(0 0 0)
(0 0 0)
(0 0 0)
(0 0 -3.31513e-16)
(0 0 0)
(0 0 -4.53464e-16)
(0 0 0)
(0 0 0)
(0 0 -3.12733e-17)
(0 0 4.67695e-16)
(0 0 0)
(0 0 4.31368e-16)
(0 0 0)
(0 0 4.53464e-16)
(0 0 0)
(0 0 0)
(0 0 0)
(0 0 -4.53464e-16)
(0 0 1.30163e-16)
(0 0 -4.53464e-16)
(0 0 0)
(0 0 0)
(0 0 -2.63303e-17)
(0 0 3.48542e-16)
(0 0 0)
(0 0 0)
(0 0 -3.03197e-19)
(0 0 6.92917e-16)
(0 0 0)
(0 0 -8.05856e-18)
(0 0 0)
(0 0 -6.92917e-16)
(0 0 -1.43131e-14)
(0 0 0)
(0 0 -1.40914e-14)
(0 0 -1.3551e-18)
(0 0 1.31149e-14)
(0 0 -6.74229e-17)
(0 0 -4.55172e-20)
(0 0 0)
(0 0 0)
(0 0 -1.42248e-17)
(0 0 6.92917e-16)
(0 0 -6.25185e-16)
(0 0 -5.18786e-17)
(0 0 -1.4029e-18)
(-2.19516e-22 0 -8.79992e-15)
(0 0 0)
(0 0 1.2571e-20)
(0 0 0)
(0 0 0)
(0 0 1.45899e-20)
(0 0 2.96304e-19)
(1.19168e-18 0 1.2517e-17)
(-3.26693e-17 -3.81055e-21 5.27879e-17)
(-4.94146e-19 0 0)
(0 0 0)
(0 4.47098e-15 0)
(0 0 1.69512e-25)
(0 6.67819e-15 2.27373e-15)
(0 -4.45212e-15 0)
(0 0 1.79677e-22)
(0 6.67819e-15 -5.54363e-21)
(0 -4.45212e-15 -6.90422e-21)
(0 0 -3.71838e-22)
(0 6.67819e-15 -2.31859e-17)
(0 -4.45212e-15 -6.90379e-21)
(0 0 1.05469e-20)
(0 6.67819e-15 1.13535e-17)
(0 -4.45212e-15 0)
(0 0 6.82079e-21)
(0 4.30423e-15 -2.22606e-15)
(-8.10502e-18 2.57813e-15 -2.26691e-15)
(0 0 2.22607e-15)
(0 5.51075e-25 2.2259e-15)
(0 4.54747e-15 0)
(0 0 0)
(0 0 0)
(0 0 0)
(0 0 0)
(0 6.66283e-30 0)
(0 -1.99152e-40 0)
(0 0 0)
(0 0 0)
(0 4.54747e-15 1.68197e-16)
(0 0 0)
(0 0 0)
(0 0 0)
(0 0 0)
(0 -4.13358e-24 -2.1302e-18)
(0 0 -1.88043e-16)
(0 0 -6.62654e-19)
(0 0 -1.83994e-32)
(0 4.54747e-15 2.49567e-16)
(0 0 0)
(0 0 0)
(0 0 0)
(0 0 0)
(0 -7.46259e-19 -2.1302e-18)
(0 0 0)
(0 0 -6.62603e-19)
(0 0 8.22132e-20)
(0 4.54747e-15 1.68983e-16)
(0 0 0)
(0 0 0)
(0 -5.7639e-22 -3.45846e-16)
(0 0 0)
(0 1.75174e-15 0)
(0 -2.13629e-24 0)
(0 0 0)
(0 0 0)
(0 0 4.08154e-18)
(1.82169e-16 0 8.67068e-16)
(0 0 8.78889e-21)
(0 0 0)
(0 -1.3154e-15 3.14209e-15)
(0 0 0)
(0 1.03381e-15 0)
(0 -2.1337e-24 0)
(0 -6.37958e-18 1.4748e-16)
(-9.02947e-17 0 1.34035e-20)
(0 -8.77737e-16 7.01906e-16)
(0 0 1.80438e-16)
(0 0 1.02288e-18)
(0 -1.49568e-16 0)
(4.54747e-15 8.71886e-15 0)
(0 4.54747e-15 0)
(4.54747e-15 8.8109e-15 5.21568e-20)
(0 4.54747e-15 8.759e-22)
(0 0 0)
(0 0 0)
(0 4.54747e-15 -1.64824e-16)
(0 0 -1.68135e-17)
(0 0 0)
(0 0 0)
(0 0 0)
(0 0 0)
(0 0 0)
(0 0 0)
(0 0 -6.38794e-16)
(0 0 0)
(0 0 0)
(0 0 0)
(0 0 0)
(0 0 -7.70912e-15)
(0 4.35943e-15 0)
(0 0 0)
(0 0 0)
(0 -9.09495e-15 0)
(0 -4.35943e-15 0)
(0 0 -6.96118e-18)
(0 0 6.76877e-16)
(0 -8.01561e-15 1.8075e-19)
(0 0 3.36972e-16)
(4.54747e-15 8.71886e-15 -2.25342e-21)
(4.54747e-15 8.8109e-15 -1.0287e-21)
(0 0 0)
(0 0 0)
(0 4.54747e-15 -8.19903e-17)
(0 0 0)
(0 0 0)
(0 0 0)
(0 0 0)
(0 0 0)
(0 0 -7.70912e-15)
(0 0 9.09495e-15)
(0 0 2.82645e-18)
(0 0 9.45391e-20)
(0 0 -5.88845e-16)
(0 0 -7.70912e-15)
(0 4.35943e-15 0)
(0 0 0)
(0 0 0)
(0 -7.20611e-15 4.4278e-18)
(0 0 -3.54851e-16)
(0 0 -6.96118e-18)
(0 0 6.76877e-16)
(0 -7.61086e-15 1.8075e-19)
(0 0 3.36972e-16)
(4.54747e-15 8.71886e-15 -1.48796e-21)
(4.54747e-15 8.8109e-15 -2.87165e-19)
(0 0 1.29848e-19)
(0 0 7.3159e-16)
(0 0 -8.36336e-15)
(0 4.54747e-15 -1.70067e-16)
(0 0 0)
(0 0 -7.70912e-15)
(0 0 -2.12768e-18)
(0 0 0)
(0 0 0)
(0 0 0)
(0 0 -7.70912e-15)
(0 0 9.09495e-15)
(0 0 2.83219e-18)
(0 0 9.35815e-20)
(0 0 -5.8885e-16)
(0 0 -7.70912e-15)
(0 4.35943e-15 -1.79177e-16)
(0 0 0)
(0 0 0)
(0 -7.20611e-15 4.4278e-18)
(0 0 -3.54946e-16)
(0 0 -6.96118e-18)
(0 0 6.76877e-16)
(0 -7.61086e-15 1.8075e-19)
(0 0 3.36972e-16)
(4.54747e-15 8.71886e-15 -1.22606e-26)
(0 0 -1.48677e-18)
(4.54359e-15 9.08024e-15 0)
(0 7.89886e-18 4.54747e-15)
(0 0 0)
(0 0 -7.70912e-15)
(0 4.54747e-15 -4.05976e-15)
(-2.46471e-30 0 1.29727e-15)
(0 0 6.00309e-15)
(0 0 0)
(0 0 0)
(0 0 0)
(0 0 0)
(0 0 0)
(0 0 -9.09495e-15)
(0 0 9.09495e-15)
(0 0 5.51616e-17)
(0 0 9.40668e-20)
(0 -2.96461e-18 0)
(0 0 -7.70912e-15)
(0 4.54747e-15 -1.00604e-18)
(0 0 0)
(0 0 0)
(0 -7.47594e-15 4.4278e-18)
(0 0 -3.54946e-16)
(0 0 0)
(0 0 0)
(0 -9.09495e-15 5.03818e-18)
(0 -4.37745e-15 3.21407e-16)
(0 0 0)
(0 0 -7.58093e-20)
(0 0 8.96003e-15)
(8.22663e-15 -2.94637e-17 0)
(0 0 0)
(9.09495e-15 -1.02797e-19 1.82843e-16)
(-7.81564e-15 0 0)
(0 0 0)
(0 0 0)
(0 0 0)
(3.16062e-16 0 -4.54747e-15)
(0 0 -4.53923e-15)
(7.82513e-15 0 0)
(-8.79239e-15 0 -4.54747e-15)
(0 0 7.77482e-21)
(0 0 0)
(0 0 8.09844e-19)
(0 0 0)
(0 0 8.15776e-19)
(0 0 0)
(0 0 1.73092e-18)
(0 0 0)
(-9.0937e-15 0 4.36275e-15)
(-9.09495e-15 -2.78595e-20 0)
(0 0 7.83007e-21)
(0 0 -4.2293e-15)
(-4.54747e-15 0 0)
(0 -1.40438e-16 0)
(-4.35943e-15 0 0)
(0 0 -1.0285e-18)
(-4.54747e-15 0 0)
(0 -1.40438e-16 8.74343e-23)
(-4.35943e-15 0 -4.22742e-15)
(0 0 4.06245e-15)
(0 0 -4.05189e-15)
(-4.54747e-15 0 0)
(0 -1.78971e-16 4.27381e-22)
(-4.35943e-15 0 4.23186e-15)
(0 0 -7.86003e-19)
(-4.54747e-15 0 0)
(0 -1.78971e-16 4.27391e-22)
(-4.35943e-15 0 -4.1532e-15)
(0 0 4.14536e-15)
(0 0 -4.16665e-15)
(-4.54747e-15 0 -4.95849e-18)
(0 -1.78971e-16 -7.43186e-22)
(-4.35943e-15 0 4.23186e-15)
(0 0 -8.03217e-19)
(-4.54747e-15 0 0)
(0 -1.78971e-16 -7.43186e-22)
(-4.35943e-15 0 -4.22519e-15)
(0 0 4.06455e-15)
(0 0 -4.42615e-15)
(-4.54747e-15 0 1.10391e-21)
(0 -1.78971e-16 1.28927e-20)
(-4.35943e-15 0 4.05573e-15)
(0 0 -1.05178e-18)
(-4.3962e-15 0 0)
(0 -1.78971e-16 1.30211e-20)
(-4.23933e-15 0 -4.54747e-15)
(0 0 0)
(0 0 0)
(0 0 0)
(0 0 0)
(0 0 0)
(0 0 0)
(0 0 0)
(0 0 0)
(0 0 0)
(0 0 0)
(0 0 0)
(0 0 0)
(0 0 0)
(0 0 0)
(0 -7.23085e-53 0)
(0 0 0)
(0 -3.23252e-54 0)
(0 0 0)
(0 0 0)
(0 -1.49305e-51 0)
(0 2.24799e-59 0)
(0 0 0)
(3.35346e-16 0 0)
(0 0 6.54234e-16)
(0 0 0)
(0 0 0)
(2.35434e-21 0 0)
(0 0 0)
(0 0 0)
(0 0 0)
(0 0 0)
(0 0 0)
(0 0 0)
(0 0 0)
(0 0 0)
(0 -2.39966e-43 0)
(0 0 -7.3159e-16)
(0 -5.40808e-44 0)
(0 0 0)
(0 -2.12072e-46 6.15557e-16)
(0 0 0)
(0 -1.45302e-41 0)
(0 0 0)
(3.35512e-16 0 0)
(0 0 6.54234e-16)
(0 0 0)
(0 0 0)
(0 0 0)
(0 0 0)
(0 0 -2.01931e-19)
(0 0 -6.91284e-16)
(0 0 0)
(0 0 0)
(0 0 0)
(0 0 0)
(0 0 0)
(0 -1.38754e-34 0)
(0 0 -7.3159e-16)
(0 -3.58966e-35 0)
(0 0 0)
(0 -1.90777e-37 6.15557e-16)
(0 0 0)
(0 -3.44528e-33 0)
(0 0 0)
(0 0 0)
(0 0 6.54234e-16)
(0 0 0)
(0 0 5.15541e-16)
(0 0 0)
(0 0 0)
(0 0 0)
(0 0 0)
(0 0 2.56673e-19)
(0 0 0)
(0 0 0)
(0 0 0)
(0 0 0)
(0 -1.77443e-26 0)
(0 0 -7.3159e-16)
(0 -5.31973e-27 0)
(0 0 0)
(0 -4.32881e-29 6.15557e-16)
(0 0 0)
(0 -2.55271e-25 0)
(0 1.04095e-15 3.40949e-15)
(0 3.99384e-15 -9.8403e-16)
(0 0 -7.14341e-15)
(-7.60347e-18 4.54747e-15 -4.36689e-15)
(0 -1.08715e-16 0)
(-3.51492e-16 0 0)
(0 -6.94889e-17 0)
(0 0 -4.5006e-15)
(0 0 0)
(0 0 -6.92912e-16)
(3.51298e-16 0 1.88042e-16)
(0 0 6.46669e-18)
(3.47407e-21 0 0)
(0 0 -6.74586e-16)
(0 0 -6.51926e-17)
(0 0 0)
(0 0 0)
(0 0 -1.45638e-17)
(0 0 0)
(0 0 -6.10842e-16)
(0 0 -1.67352e-18)
(0 1.30979e-15 1.19395e-15)
(0 2.52037e-15 -1.01399e-15)
(0 0 -9.25528e-17)
(0 0 9.09495e-15)
(0 0 -9.11509e-17)
(8.50317e-15 0 0)
(0 0 0)
(0 0 -6.54234e-16)
(0 -5.97503e-15 4.46028e-18)
(0 0 -4.14526e-16)
(-8.1594e-15 0 0)
(8.57426e-15 -3.4774e-16 -4.54747e-15)
(0 0 0)
(0 3.45265e-16 0)
(0 0 0)
(-8.10556e-54 0 0)
(0 0 0)
(0 0 0)
(-3.02024e-51 0 0)
(0 0 -9.09495e-15)
(0 0 0)
(0 0 8.65588e-23)
(0 0 -8.96003e-15)
(0 0 0)
(0 0 0)
(0 0 0)
(0 0 0)
(0 0 0)
(0 0 0)
(0 0 9.09495e-15)
(0 0 0)
(0 0 0)
(0 0 0)
(0 0 1.8064e-18)
(-3.44191e-46 0 0)
(0 0 0)
(-1.04992e-48 0 0)
(0 0 -6.7218e-16)
(0 0 0)
(0 0 0)
(0 0 -3.0764e-16)
(0 0 0)
(0 0 0)
(0 0 0)
(0 0 0)
(0 0 0)
(0 0 0)
(0 0 9.09495e-15)
(0 0 -8.36336e-15)
(0 0 0)
(0 0 -8.96003e-15)
(0 0 0)
(0 0 0)
(0 0 0)
(0 0 0)
(0 0 0)
(0 0 0)
(0 0 0)
(0 0 0)
(0 0 0)
(0 0 0)
(0 0 0)
(0 0 0)
(0 0 0)
(0 0 9.09495e-15)
(0 0 6.54234e-16)
(0 0 7.1883e-20)
(0 0 0)
(0 0 0)
(0 0 0)
(0 0 0)
(0 0 0)
(0 0 8.36336e-15)
(0 0 0)
(0 0 0)
(0 0 0)
(0 0 0)
(0 0 0)
(0 0 0)
(0 0 0)
(0 0 0)
(0 0 0)
(0 0 0)
(0 0 0)
(0 0 0)
(0 0 0)
(0 0 0)
(0 0 6.43455e-16)
(0 0 0)
(0 0 0)
(0 0 0)
(0 0 0)
(0 0 0)
(0 0 0)
(0 0 0)
(0 0 0)
(0 0 0)
(0 0 0)
(0 0 0)
(0 0 0)
(0 0 0)
(0 0 0)
(0 0 -3.07459e-16)
(0 0 0)
(0 0 0)
(0 0 0)
(0 0 0)
(0 0 0)
(0 -9.13477e-54 0)
(0 0 0)
(0 -1.15824e-54 0)
(0 0 -9.09495e-15)
(0 0 0)
(0 -4.2265e-52 0)
(0 -3.65155e-57 0)
(0 -2.13696e-51 0)
(0 0 7.15507e-15)
(0 0 0)
(0 -4.75532e-47 0)
(0 0 0)
(0 -1.49323e-49 0)
(0 -4.79274e-49 0)
(0 0 -5.40121e-15)
(0 0 0)
(0 0 0)
(0 0 0)
(0 0 9.09495e-15)
(0 0 0)
(0 0 0)
(0 -1.42365e-50 7.3159e-16)
(0 0 6.01535e-16)
(0 0 6.94252e-16)
(0 -3.82248e-46 -1.72797e-17)
(0 0 -7.3159e-16)
(0 -1.54434e-48 0)
(0 -1.42932e-48 -6.77698e-16)
(0 0 9.09495e-15)
(0 0 -6.76877e-16)
(0 0 9.09495e-15)
(0 0 0)
(0 0 -9.09495e-15)
(0 0 0)
(0 0 -9.09495e-15)
(0 0 0)
(-1.06302e-43 0 0)
(0 0 8.36336e-15)
(0 0 0)
(0 0 6.32093e-16)
(-3.08247e-41 0 0)
(0 0 -9.09495e-15)
(0 0 0)
(0 0 2.99052e-16)
(0 0 0)
(0 0 0)
(0 0 0)
(0 0 0)
(0 0 0)
(0 0 0)
(0 0 0)
(0 0 0)
(0 0 0)
(0 0 0)
(0 0 -1.37952e-17)
(-1.9922e-36 0 0)
(0 0 0)
(-8.12768e-39 0 0)
(0 0 -6.54234e-16)
(0 0 0)
(0 0 0)
(0 0 8.37966e-15)
(0 0 9.09495e-15)
(0 0 0)
(0 0 0)
(0 0 0)
(0 0 0)
(0 0 0)
(0 0 9.09495e-15)
(0 0 -8.36336e-15)
(0 0 0)
(0 0 0)
(0 0 0)
(0 0 0)
(0 0 0)
(0 0 0)
(0 0 -5.78102e-19)
(7.53979e-18 0 0)
(0 0 0)
(2.26257e-19 0 0)
(0 0 0)
(0 0 0)
(0 0 0)
(0 0 0)
(0 0 0)
(0 0 0)
(0 0 0)
(0 0 9.20976e-16)
(0 0 0)
(0 0 0)
(0 0 0)
(0 0 0)
(0 0 0)
(0 0 0)
(0 0 0)
(0 0 0)
(0 0 0)
(0 0 0)
(0 0 0)
(0 0 0)
(0 0 6.30452e-15)
(0 0 0)
(0 0 0)
(0 0 0)
(0 0 0)
(0 0 0)
(0 0 0)
(0 -1.22508e-43 0)
(0 0 0)
(0 -1.44161e-44 0)
(0 0 -9.09495e-15)
(0 -5.83319e-47 0)
(0 0 0)
(0 -4.08342e-42 0)
(0 -2.26596e-41 0)
(0 0 7.15507e-15)
(0 0 0)
(0 -2.63866e-37 0)
(0 0 0)
(0 -1.08024e-39 0)
(0 -4.69084e-39 0)
(0 0 -9.09495e-15)
(0 0 -9.09495e-15)
(0 0 0)
(0 0 0)
(0 0 7.01621e-15)
(0 0 8.96003e-15)
(0 0 0)
(0 -2.23682e-41 7.3159e-16)
(0 0 6.01535e-16)
(0 0 6.94252e-16)
(0 -3.45234e-37 -1.72797e-17)
(0 0 -7.3159e-16)
(0 -1.83822e-39 0)
(0 -1.72408e-39 -6.77698e-16)
(0 0 9.09495e-15)
(0 0 -6.76877e-16)
(0 0 9.09495e-15)
(0 0 0)
(0 0 -9.09495e-15)
(0 0 0)
(0 0 -9.09495e-15)
(0 0 0)
(-4.52859e-34 0 0)
(0 0 8.36336e-15)
(0 0 -7.3159e-16)
(0 0 6.32223e-16)
(-9.49103e-32 0 0)
(0 0 -9.09495e-15)
(0 0 8.06306e-15)
(0 0 -8.36336e-15)
(0 0 9.09495e-15)
(0 0 0)
(0 0 0)
(0 0 0)
(0 0 0)
(0 0 0)
(0 0 0)
(0 0 0)
(0 0 0)
(0 0 0)
(0 0 -1.40945e-17)
(-2.91718e-27 0 0)
(0 0 0)
(-1.74994e-29 0 0)
(0 0 -6.72938e-16)
(0 0 0)
(0 0 6.814e-15)
(0 0 0)
(0 0 0)
(0 0 0)
(0 0 0)
(0 0 0)
(0 0 0)
(0 0 0)
(0 0 9.09495e-15)
(0 0 -8.36336e-15)
(0 0 0)
(0 0 0)
(0 0 0)
(0 0 0)
(0 0 0)
(0 0 7.3159e-16)
(0 0 -5.88055e-19)
(0 0 -3.58638e-17)
(0 0 -1.55905e-17)
(0 0 0)
(0 0 0)
(0 0 -6.44374e-16)
(0 0 9.09495e-15)
(0 0 0)
(0 0 0)
(0 0 0)
(0 0 0)
(0 0 0)
(0 0 -9.09495e-15)
(0 0 7.3159e-16)
(0 0 0)
(0 0 0)
(0 0 0)
(0 0 9.09495e-15)
(0 0 0)
(0 0 0)
(0 0 0)
(0 0 9.20976e-16)
(0 0 0)
(0 0 0)
(0 0 0)
(0 0 0)
(0 0 0)
(0 0 0)
(0 0 0)
(0 0 0)
(0 0 0)
(0 0 0)
(0 0 0)
(0 0 0)
(0 0 0)
(0 0 0)
(0 0 0)
(0 0 0)
(0 0 0)
(0 0 0)
(0 0 0)
(0 0 0)
(0 -5.19331e-34 0)
(0 0 0)
(0 -6.01e-35 0)
(0 0 -9.09495e-15)
(0 -3.33039e-37 0)
(0 0 0)
(0 -1.24945e-32 0)
(0 -6.92096e-32 0)
(0 0 7.15507e-15)
(0 0 0)
(0 -3.87424e-28 0)
(0 0 0)
(0 -2.30993e-30 0)
(0 -1.01053e-29 0)
(0 0 -9.09495e-15)
(0 0 -9.09495e-15)
(0 0 0)
(0 0 0)
(0 0 7.01621e-15)
(0 0 8.96003e-15)
(0 0 0)
(0 -1.09307e-32 7.3159e-16)
(0 0 6.01535e-16)
(0 0 6.94252e-16)
(0 -8.09706e-29 -1.72797e-17)
(0 0 -7.3159e-16)
(0 -6.23532e-31 0)
(0 -5.98568e-31 -6.77698e-16)
(0 0 9.09495e-15)
(0 0 -6.76877e-16)
(0 0 9.09495e-15)
(0 0 0)
(0 0 -9.09495e-15)
(0 0 0)
(0 0 -9.09495e-15)
(0 0 0)
(-4.36955e-25 0 0)
(0 0 8.36336e-15)
(0 0 0)
(0 0 6.32094e-16)
(-5.80465e-23 0 0)
(0 0 -9.09495e-15)
(0 6.14713e-23 0)
(0 0 0)
(0 0 0)
(0 5.61263e-22 0)
(0 0 0)
(0 0 0)
(0 0 0)
(0 0 0)
(0 0 0)
(0 0 0)
(0 0 0)
(0 0 0)
(0 0 -2.39346e-18)
(-2.3602e-19 0 2.20829e-17)
(0 0 7.96832e-15)
(-6.32703e-21 0 0)
(0 0 -6.53247e-16)
(0 0 3.98683e-16)
(0 -3.44107e-18 -9.09495e-15)
(0 1.57704e-21 7.15322e-15)
(0 0 -6.5969e-15)
(0 1.39973e-22 0)
(0 0 0)
(0 0 0)
(0 -3.30706e-18 0)
(0 0 0)
(0 0 9.09495e-15)
(0 0 -8.36336e-15)
(0 0 0)
(0 0 -9.09495e-15)
(0 0 0)
(0 0 0)
(0 0 0)
(0 0 6.50297e-15)
(0 0 0)
(0 0 0)
(0 0 0)
(0 0 0)
(0 0 -6.74799e-16)
(0 0 0)
(0 0 8.96003e-15)
(0 0 0)
(0 0 -8.36336e-15)
(0 0 0)
(0 0 6.54234e-16)
(0 0 -1.08695e-19)
(0 0 0)
(0 0 0)
(0 0 0)
(0 0 0)
(0 0 0)
(0 0 8.36336e-15)
(0 0 0)
(0 0 0)
(0 0 0)
(0 0 0)
(0 0 0)
(0 0 0)
(0 0 0)
(0 0 0)
(0 0 0)
(0 0 0)
(0 0 0)
(0 0 0)
(0 0 0)
(0 0 0)
(0 0 0)
(0 0 6.42934e-16)
(0 0 1.47801e-17)
(0 0 0)
(0 0 0)
(0 0 0)
(0 0 0)
(0 0 -5.45789e-16)
(0 0 0)
(0 0 -6.66092e-19)
(0 0 0)
(0 0 0)
(0 0 0)
(0 0 0)
(0 0 0)
(0 0 5.56409e-16)
(0 0 6.60999e-15)
(0 0 0)
(0 0 0)
(0 0 0)
(0 0 0)
(0 -4.68478e-21 0)
(0 0 0)
(0 -5.86515e-26 0)
(0 0 -9.09495e-15)
(0 -4.92695e-28 0)
(0 0 0)
(0 -7.81494e-24 0)
(0 -2.35313e-19 0)
(0 0 7.15507e-15)
(0 0 0)
(0 -7.84516e-20 0)
(0 0 0)
(0 -8.65139e-22 0)
(0 -4.82302e-18 0)
(0 0 -9.09495e-15)
(0 0 -9.09495e-15)
(0 0 0)
(0 0 0)
(0 0 7.01621e-15)
(0 0 8.96003e-15)
(0 0 0)
(0 -7.66409e-25 7.3159e-16)
(0 0 6.01535e-16)
(0 0 0)
(0 -1.01794e-21 0)
(0 0 -7.3159e-16)
(0 -2.31248e-23 0)
(0 -2.78827e-23 0)
(0 0 9.09495e-15)
(0 0 -6.78311e-16)
(0 0 9.09495e-15)
(0 0 0)
(0 0 -9.09495e-15)
(0 0 0)
(0 0 -9.09495e-15)
(0 0 -2.92355e-19)
(0 0 0)
(0 0 0)
(0 0 -1.0231e-17)
(0 0 0)
(0 0 5.24423e-17)
(0 0 -1.35321e-17)
(0 0 -6.27149e-17)
(0 0 0)
(0 0 0)
(0 0 -6.74398e-15)
(0 0 0)
(0 0 -5.63781e-16)
(0 0 -5.66967e-16)
(0 0 -6.09714e-16)
(0 0 8.96003e-15)
(0 0 0)
(0 0 -5.79261e-16)
(0 0 0)
(0 0 -7.77857e-15)
(0 0 -3.26362e-17)
(0 0 -2.13574e-18)
(0 0 0)
(0 0 0)
(0 0 -5.25956e-16)
(0 0 0)
(0 0 -3.13488e-17)
(0 0 -7.83131e-17)
(0 0 -1.40755e-17)
(0 0 0)
(0 0 0)
(0 0 -6.74328e-17)
(0 0 0)
(0 0 -1.18469e-18)
(0 0 -6.21523e-16)
(0 0 0)
(0 0 0)
(0 -1.29581e-37 0)
(0 0 0)
(0 -4.54747e-15 0)
(0 0 0)
(0 0 0)
(0 0 0)
(0 0 0)
(0 -4.54747e-15 0)
(0 0 0)
(0 0 0)
(0 0 0)
(0 0 0)
(0 -4.54747e-15 0)
(0 0 0)
(0 0 0)
(0 -3.02273e-22 0)
(0 0 0)
(0 -4.54747e-15 0)
(0 0 0)
(0 0 0)
(0 0 -4.74449e-24)
(4.54747e-15 4.40545e-15 -4.42705e-18)
(0 -1.24042e-16 0)
(0 0 2.27374e-15)
(0 0 3.8519e-25)
(0 0 0)
(2.14476e-15 0 -2.27374e-15)
(0 0 0)
(4.54747e-15 0 0)
(0 0 -1.34256e-15)
(4.54747e-15 0 -5.4163e-18)
(0 0 0)
(0 0 -9.02749e-15)
(0 0 0)
(0 0 0)
(0 0 0)
(0 0 8.36336e-15)
(0 0 8.19359e-19)
(0 0 0)
(4.54747e-15 0 1.42388e-17)
(0 0 -1.34256e-15)
(4.54747e-15 0 -5.41628e-18)
(0 0 0)
(0 0 -8.36336e-15)
(0 0 4.72884e-18)
(0 0 0)
(0 0 0)
(0 0 8.36336e-15)
(0 0 8.19425e-19)
(0 0 0)
(4.54747e-15 0 1.42388e-17)
(0 0 -1.34256e-15)
(4.54747e-15 0 -5.41628e-18)
(0 0 0)
(0 0 -8.36336e-15)
(0 0 4.72884e-18)
(0 0 0)
(0 0 0)
(0 0 8.36336e-15)
(0 0 8.19419e-19)
(0 0 0)
(4.54747e-15 0 1.42388e-17)
(0 0 -1.34338e-15)
(4.54747e-15 0 5.73727e-18)
(0 0 0)
(0 0 -8.36336e-15)
(0 0 4.72884e-18)
(0 0 0)
(0 0 0)
(0 0 8.71886e-15)
(0 0 -4.63829e-20)
(0 0 0)
(0 0 0)
(0 0 0)
(3.32341e-16 0 -3.41061e-15)
(0 0 0)
(7.82327e-15 0 -4.54747e-15)
(-7.81564e-15 0 -4.54747e-15)
(0 0 0)
(0 0 0)
(0 0 0)
(0 0 0)
(0 0 0)
(0 0 0)
(0 0 0)
(0 0 0)
(0 4.54747e-15 0)
(0 0 0)