/*--------------------------------*- C++ -*----------------------------------*\
  =========                 |
  \\      /  F ield         | OpenFOAM: The Open Source CFD Toolbox
   \\    /   O peration     | Website:  https://openfoam.org
    \\  /    A nd           | Version:  9
     \\/     M anipulation  |
\*---------------------------------------------------------------------------*/
FoamFile
{
    format      ascii;
    class       volScalarField;
    location    "0.00215";
    object      overpressure;
}
// * * * * * * * * * * * * * * * * * * * * * * * * * * * * * * * * * * * * * //

dimensions      [1 -1 -2 0 0 0 0];

internalField   nonuniform List<scalar> 
17581
(
0
1.01863e-10
5.58794e-09
1.57132e-07
4.24661e-06
0.000108882
0.00231296
0
0
2.76486e-10
9.80799e-09
2.51064e-07
6.16293e-06
0.000136522
0
0
0
4.36557e-10
1.21945e-08
2.80561e-07
5.98624e-06
0
0
0
0
4.36557e-10
1.12777e-08
2.28058e-07
0
0
0
0
0
3.20142e-10
7.77072e-09
0.00233067
0.000109262
4.03517e-06
1.30312e-07
0.0292931
15651.8
0.0188022
0.00144533
5.64045e-05
1.7761e-06
279843
1.74355
0.0478232
0.000549346
1.71752e-05
0.00156405
2.51309
166808
420916
0.000439058
0.102766
2.90682
373063
327735
9.68863e-05
0.00252196
22.4572
1676.29
463727
0
0
0
0
0
0
0
1.42609e-09
2.47237e-08
3.17901e-07
0
0
0
0
0
1.45519e-11
2.28465e-09
5.04806e-08
8.89297e-07
1.14583e-05
0
0
0
0
1.45519e-11
2.73576e-09
7.21338e-08
1.61627e-06
2.85732e-05
0.00034684
0
0
0
0
2.53203e-09
7.61647e-08
2.04553e-06
4.58895e-05
0.000752692
0.00448278
0
0
0
1.83354e-09
5.9983e-08
1.84051e-06
4.92617e-05
0.00101914
0.00463126
0.352538
0
0
9.16771e-10
3.46336e-08
1.16727e-06
3.55513e-05
0.00086256
0.00445514
0.445782
22186.8
0
3.34694e-10
1.43336e-08
5.13333e-07
1.75274e-05
0.000497381
0.00362179
0.286824
463724
462821
4.36557e-11
4.26371e-09
1.55123e-07
5.61288e-06
0.000195418
0.0210342
1150.72
468703
274643
0
0
0
0
0
0
0
3.63798e-10
6.85395e-09
8.54925e-08
0
0
0
0
0
0
6.25732e-10
1.37661e-08
2.30124e-07
2.78298e-06
0
0
0
0
0
7.42148e-10
1.92958e-08
4.1489e-07
7.25547e-06
9.16412e-05
0
0
0
0
6.8394e-10
2.04745e-08
5.25411e-07
1.23557e-05
0.000221872
0.00254954
0
0
0
4.80213e-10
1.63709e-08
4.75702e-07
1.36277e-05
0.000342357
0.0023775
0.224854
0
0
2.61934e-10
9.66247e-09
3.05459e-07
9.83493e-06
0.00031376
0.00306704
0.0516532
6605.72
0
5.82077e-11
4.01633e-09
1.35682e-07
4.43828e-06
0.000160007
0.00262615
0.0416369
486974
489641
0
1.28057e-09
4.42815e-08
1.39062e-06
4.16963e-05
0.00129455
57.873
410272
348332
195132
0
0
0
0
0
0
0
0
8.44011e-10
1.11759e-08
0
0
0
0
0
0
0
1.70257e-09
2.96277e-08
3.76342e-07
0
0
0
0
0
4.36557e-11
2.47383e-09
5.2416e-08
9.1696e-07
1.16371e-05
0
0
0
0
1.45519e-11
2.73576e-09
6.66332e-08
1.48706e-06
2.65011e-05
0.000328642
0
0
0
0
2.18279e-09
6.20057e-08
1.64754e-06
3.83845e-05
0.00063872
0.0108442
0
0
0
1.29512e-09
4.20405e-08
1.26314e-06
3.52051e-05
0.000786839
0.00347462
9.59546
0
0
5.09317e-10
2.01107e-08
6.51577e-07
2.03897e-05
0.000554938
0.00343988
0.383565
164964
0
1.45519e-10
6.73754e-09
2.22703e-07
7.40217e-06
0.000239247
0.00277327
0.0844537
92592.7
480160
0
0
0
0
0
0
0
0
1.45519e-11
1.29512e-09
0
0
0
0
0
0
0
1.45519e-10
3.23053e-09
4.35975e-08
0
0
0
0
0
0
2.03727e-10
5.48607e-09
9.44565e-08
1.26817e-06
0
0
0
0
0
2.03727e-10
6.79574e-09
1.43031e-07
2.54027e-06
3.47368e-05
0
0
0
0
1.89175e-10
6.38829e-09
1.55022e-07
3.40318e-06
6.14197e-05
0.000812566
0
0
0
1.01863e-10
4.42378e-09
1.21741e-07
3.10283e-06
6.96709e-05
0.00116661
0.0194232
0
0
0
2.22644e-09
6.7972e-08
1.91358e-06
4.97078e-05
0.00104283
0.00500264
5.95277
0
0
8.14907e-10
2.64263e-08
7.8528e-07
2.24715e-05
0.000574128
0.0043854
3.20404
48896.3
0
0
0
0
0
0
0
0
0
8.73115e-11
0
0
0
0
0
0
0
0
2.76486e-10
4.5693e-09
0
0
0
0
0
0
0
4.94765e-10
9.29867e-09
1.30691e-07
0
0
0
0
0
0
5.82077e-10
1.34896e-08
2.40092e-07
3.5158e-06
0
0
0
0
0
5.67525e-10
1.43773e-08
3.06594e-07
5.77688e-06
9.08545e-05
0
0
0
0
3.7835e-10
1.14378e-08
2.78262e-07
6.27351e-06
0.00012546
0.00202024
0
0
0
1.60071e-10
6.66478e-09
1.78887e-07
4.53793e-06
0.000107455
0.00207202
0.0395479
0
0
0
2.77942e-09
7.96572e-08
2.14484e-06
5.54353e-05
0.00128921
0.199615
6636.95
0
0
0
0
0
0
0
0
0
0
0
0
0
0
0
0
0
0
0
2.76486e-10
0
0
0
0
0
0
0
0
6.40284e-10
9.44419e-09
0
0
0
0
0
0
0
9.16771e-10
1.68802e-08
2.43846e-07
0
0
0
0
0
0
9.8953e-10
2.11148e-08
3.83399e-07
5.87013e-06
0
0
0
0
0
7.42148e-10
1.93104e-08
4.131e-07
7.96594e-06
0.000130694
0
0
0
0
4.36557e-10
1.28202e-08
3.08733e-07
6.96916e-06
0.000142933
0.00230804
0
0
0
1.45519e-10
5.99539e-09
1.57408e-07
3.87523e-06
9.0934e-05
0.00181358
0.244716
0
0
0
0
0
0
0
0
0
0
0
0
0
0
0
0
0
0
0
0
0
0
0
0
0
0
0
0
0
4.94765e-10
0
0
0
0
0
0
0
0
8.87667e-10
1.29803e-08
0
0
0
0
0
0
0
1.1205e-09
2.00525e-08
2.92814e-07
0
0
0
0
0
0
1.00408e-09
2.16678e-08
3.90079e-07
5.95785e-06
0
0
0
0
0
6.40284e-10
1.64582e-08
3.46059e-07
6.53464e-06
0.000105527
0
0
0
0
2.76486e-10
8.78936e-09
2.03538e-07
4.35521e-06
8.53335e-05
0.00137034
0
0
0
0
0
0
0
0
0
0
0
0
0
0
0
0
0
0
0
0
0
0
0
0
0
0
0
0
0
0
0
0
0
0
0
0
0
0
0
5.38421e-10
0
0
0
0
0
0
0
0
8.29459e-10
1.2602e-08
0
0
0
0
0
0
0
9.16771e-10
1.66765e-08
2.39219e-07
0
0
0
0
0
0
7.13044e-10
1.5003e-08
2.62473e-07
3.88364e-06
0
0
0
0
0
3.34694e-10
9.1095e-09
1.82219e-07
3.23064e-06
4.82878e-05
0
0
0
0
0
0
0
0
0
0
0
0
0
0
0
0
0
0
0
0
0
0
0
0
0
0
0
0
0
0
0
0
0
0
0
0
0
0
0
0
0
0
0
0
0
0
0
0
0
4.36557e-10
0
0
0
0
0
0
0
0
5.67525e-10
8.67294e-09
0
0
0
0
0
0
0
4.94765e-10
9.5315e-09
1.34052e-07
0
0
0
0
0
0
2.76486e-10
6.89761e-09
1.1464e-07
1.5718e-06
0
0
0
0
0
0
0
0
0
0
0
0
0
0
0
0
0
0
0
0
0
0
0
0
0
0
0
0
0
0
0
0
0
0
0
0
0
0
0
0
0
0
0
0
0
0
0
0
0
0
0
0
0
0
0
0
0
0
0
2.03727e-10
0
0
0
0
0
0
0
0
2.47383e-10
4.10364e-09
0
0
0
0
0
0
0
1.74623e-10
3.62343e-09
4.76721e-08
5.49029e-05
1.90779e-05
3.59264e-06
5.90939e-07
1.54858e-05
0.000399781
0.0116022
3.89409
823.98
8.87667e-10
3.62925e-08
1.2275e-06
3.82416e-05
0.00115202
0.189825
7321.65
461370
250996
4.68572e-09
1.84344e-07
7.30883e-06
0.000295023
0.00464728
0.196515
631.576
250516
1.97906e-08
7.63466e-07
2.4583e-05
0.000625365
0.00778815
0.833468
65405.9
238190
4.66825e-08
1.65211e-06
4.91536e-05
0.00131386
0.487275
49734.7
364461
6.0958e-08
1.96673e-06
2.03727e-10
1.08121e-08
3.72544e-07
1.1354e-05
0.000278225
0.0262812
396.549
467866
289315
1.36788e-09
5.02623e-08
1.64639e-06
5.26124e-05
0.0016683
0.0296995
31.9334
285139
5.34055e-09
2.06375e-07
7.73602e-06
0.000269892
0.00379331
0.248161
4101.51
269158
1.37661e-08
5.20231e-07
1.75491e-05
0.000478185
0.030617
142.056
432296
283998
1.94996e-08
6.61006e-07
0
1.5134e-09
5.31873e-08
1.67979e-06
4.92069e-05
0.00134602
0.0034354
2123.57
256.468
1.45519e-10
7.75617e-09
2.59868e-07
8.49781e-06
0.00024757
0.00276265
0.267009
84088.2
8.58563e-10
3.12139e-08
9.79358e-07
2.77893e-05
0.000680009
0.0100678
3.60173
495662
2.28465e-09
8.16071e-08
2.51208e-06
7.07848e-05
0.0019025
0.148883
1286.91
474158
3.55067e-09
1.21494e-07
0
1.45519e-10
7.26141e-09
2.23619e-07
6.37048e-06
0.000167332
0.0044479
137.434
23.4968
0
1.22236e-09
4.04689e-08
1.26177e-06
3.73228e-05
0.000922933
0.00886357
6751.31
176014
8.73115e-11
5.20959e-09
1.60813e-07
4.46994e-06
0.000110167
0.00255354
0.0477749
52043.4
3.34694e-10
1.35042e-08
3.84694e-07
1.02214e-05
0.000266772
0.00768273
125.862
327652
5.67525e-10
2.11148e-08
0
0
8.00355e-10
2.50729e-08
6.95843e-07
1.82588e-05
0.000527624
0.00924063
2.9183
0
1.01863e-10
5.2969e-09
1.57728e-07
4.3136e-06
0.000105788
0.00227851
0.14007
5.24576
0
6.98492e-10
2.23663e-08
6.341e-07
1.68839e-05
0.000479898
0.0114939
0.487598
0
1.89175e-09
5.85424e-08
1.70877e-06
5.05378e-05
0.0013891
0.0189293
8.41029
0
2.86673e-09
8.62201e-08
2.53982e-06
7.56924e-05
0.00202568
0.190285
10.9845
0
0
0
1.94996e-09
5.50499e-08
1.40593e-06
3.47667e-05
0.000893534
0.0168336
4.47337
0
0
3.7835e-10
1.31549e-08
3.54165e-07
8.7223e-06
0.000194861
0.00417119
0.575081
5.30961
0
0
1.97906e-09
5.67234e-08
1.53092e-06
4.10595e-05
0.00108487
0.0108576
0
1.01863e-10
5.39876e-09
1.56841e-07
4.42623e-06
0.000119121
0.00265022
0.0426999
0
2.03727e-10
8.00355e-09
2.30983e-07
6.44872e-06
0.000167066
0.00349594
0.619286
0
0
0
4.36557e-11
3.25963e-09
7.98609e-08
1.80812e-06
3.89268e-05
0.000806621
0.0400333
0
0
0
6.98492e-10
2.10857e-08
5.0629e-07
1.09267e-05
0.000209362
0.00353131
0.230441
0
0
4.36557e-11
3.4488e-09
9.11677e-08
2.23485e-06
5.37812e-05
0.00119656
0
0
2.76486e-10
9.77889e-09
2.59242e-07
6.59088e-06
0.000152208
0.00272358
0
0
4.36557e-10
1.4712e-08
3.86615e-07
9.66499e-06
0.000212668
0.00352808
0
0
0
0
8.73115e-11
3.65253e-09
8.11706e-08
1.5758e-06
2.756e-05
0.000398946
0
0
0
0
9.8953e-10
2.37633e-08
4.97588e-07
9.06752e-06
0.00013653
0.00143891
0
0
0
1.01863e-10
4.45289e-09
1.01994e-07
2.17123e-06
4.30928e-05
0
0
0
4.36557e-10
1.23837e-08
2.91548e-07
6.35983e-06
0.000118818
0
0
0
6.98492e-10
1.8641e-08
4.39439e-07
9.4073e-06
0.00016745
0
0
0
0
0
8.73115e-11
3.11411e-09
5.94446e-08
9.48989e-07
1.22111e-05
0
0
0
0
0
8.87667e-10
1.96451e-08
3.48737e-07
5.11827e-06
5.678e-05
0
0
0
0
1.01863e-10
4.05998e-09
8.29605e-08
1.46733e-06
0
0
0
0
4.36557e-10
1.1496e-08
2.34199e-07
4.16927e-06
0
0
0
0
7.13044e-10
1.75351e-08
3.55372e-07
6.21281e-06
0
0
0
0
0
0
1.45519e-11
1.9063e-09
3.02534e-08
3.6956e-07
0
0
0
0
0
0
6.1118e-10
1.16415e-08
1.67784e-07
1.88639e-06
0
0
0
0
0
8.73115e-11
2.79397e-09
4.76575e-08
0
0
0
0
0
3.20142e-10
7.78527e-09
1.30618e-07
0
0
0
0
0
5.38421e-10
1.18744e-08
1.98401e-07
272904
372956
1185.53
106.303
238715
102.182
211361
3679.53
251502
19327.9
282769
0.00804209
17.8327
0.034664
452.051
0.411125
1969.19
0.000669976
0.00670364
0.00152568
0.0449607
0.00207743
0.0644451
2.15636e-05
0.000199668
5.73037e-05
0.000521033
8.29161e-05
0.000727189
6.57019e-07
6.41531e-06
1.74899e-06
1.62109e-05
2.6186e-06
2.36111e-05
255172
254796
211206
222471
380012
317335
424507
354244
205997
262058
375342
373606
211352
153102
255053
215097
59945.9
364709
139256
260216
240276
284756
438079
214081
267575
270959
483811
328201
216079
272476
389817
444110
284080
195775
309838
208819
484053
333218
224411
239265
263602
369964
477803
269110
445447
301720
407039
416279
332185
444634
345245
2165.95
235840
33375.1
332192
256050
293020
249135
407854
275883
453050
390338
379005
468066
256066
288036
245118
281862
392847
411049
513477
211331
218501
219280
240105
241653
250773
248904
331640
456145
183215
336422
455925
23446.9
460916
476817
415900
419936
332686
220791
432061
293574
344235
458240
18796.3
456196
398093
418346
5243.95
196893
211768
213679
221533
223638
242228
239319
404761
332125
351187
351523
270494
356609
332624
214800
231683
223311
255536
246421
255872
265555
211139
258915
208966
203602
256137
266447
269281
209009
205925
203539
258916
256056
266245
268877
202688
215799
204086
237545
235995
251074
252921
204290
214174
202698
237924
236103
251264
253424
240012
227512
228814
261537
271244
274141
259183
256967
348421
336995
285141
369275
162247
388987
221034
210217
217310
264769
274552
274815
284172
200653
227703
218374
238538
228686
248094
258988
211510
219410
207133
241018
245742
257091
262541
417329
302996
311084
417512
332618
323497
349588
218747
234973
209348
220940
237421
246274
264975
481971
376817
414688
462008
32888.6
511809
310283
245081
242414
233367
267076
291892
280269
277541
229059
242484
227601
307181
288465
295842
308875
231045
217254
224443
259606
251907
269831
279004
316611
447570
477885
380236
396682
261238
422711
254607
230149
232826
263286
282495
287349
259433
474340
109720
25603.3
419777
328174
359600
346486
252972
264768
267895
285507
288933
306991
302853
434190
244123
385578
13192.4
444526
116259
403868
274392
321972
276835
287238
333074
338735
284475
250767
288401
253960
274401
308060
313232
270312
233161
243435
260844
269038
280439
290432
304607
153039
66.8396
106160
63944.3
267065
7360.22
150.47
1697.68
283971
89794.5
135.361
54869
283724
131023
278866
6642.95
132132
36399.3
102694
15.669
63.2762
163718
81.9667
118630
284300
162239
123688
79.3792
237365
241360
252899
259826
272369
274800
296570
245608
276200
239625
346205
286918
293879
356992
248900
497662
355110
210671
391149
227.677
2783.46
350606
675.613
277019
88312.8
272586
10.9996
25400.3
23.8579
11684.6
45197.4
278979
253676
39105.2
109481
220777
252787
218042
283055
288008
284522
288093
293652
332864
282515
293599
376279
351845
306478
252739
220828
218025
282752
287128
283743
287745
233074
269802
235013
279348
337734
281473
334977
235621
268020
233315
279650
339216
335516
282288
260916
248876
238366
269875
308507
294798
281801
295903
271391
260127
281332
340677
322433
293937
258608
285818
274184
309701
295937
315770
333962
278581
262683
329854
287746
354305
322079
333632
408523
187711
389000
438692
407399
3289.53
183709
274723
325378
272956
296097
372901
298123
370311
255391
290824
274626
311386
294231
322615
346911
420381
2669.79
167962
80120.9
440135
727.619
381434
299998
312230
353971
386822
316728
360730
296634
226573
267912
235933
286951
286753
291358
286573
275296
325526
273150
296322
373462
370471
298782
278810
341732
284289
379644
303197
310127
390012
418158
510277
385181
439071
524145
445210
2641.26
10595.6
338162
32124.9
339957
2301.36
26126.9
11.4144
335435
375494
333058
322580
315832
323487
317445
374751
334643
332695
322029
313697
316615
322069
308210
294560
253576
303376
391399
315679
371958
281491
306282
285303
331585
358896
366250
325837
227729
283846
251718
287773
258944
289564
324893
395648
450231
345948
222804
482382
2715.21
434089
485090
484461
281766
153539
485435
1326.86
422098
1837.54
5242.68
265003
20870
9.04685
477.011
2.37004
339672
372258
347855
308793
323509
325982
300816
307731
347775
401282
401201
327140
375638
323911
353755
300957
291501
319981
420362
333733
403909
263698
295488
274528
305924
274508
295468
331208
249831
303796
268864
311399
276944
298185
338391
297594
270457
266092
295205
300559
340466
334234
279277
302577
308142
310807
316513
356036
349200
264102
312676
284553
330032
299549
325461
364283
249904
518911
253986
508902
497372
209643
440483
276688
265265
249009
296499
279695
300820
284681
298447
322846
397658
340628
328872
347385
293390
309312
335848
313334
395735
377837
339345
334303
325427
346955
290724
415263
331585
352644
442448
337874
330216
335858
403354
400053
399382
403942
338306
330329
335966
403281
400143
404153
399260
361154
25134
441191
111.065
257317
4799.98
429058
7681.07
188103
48.7906
288246
462681
7567.97
494031
310163
304204
334364
334780
366271
379131
419256
432332
47186.9
448951
28.8685
142496
383.003
345927
197495
285.414
3625.78
0.967771
11794.6
69799.8
7.94078
370233
369304
358206
328203
267861
288082
328177
333731
412426
339789
370618
431226
434606
363173
305881
314908
292435
343886
410926
382216
367907
313478
412677
330729
437696
351968
375592
454642
334427
426295
423553
436954
434482
482744
482287
332361
428155
424215
438985
435216
482966
482901
288080
372498
312484
372786
313400
343830
425327
260170
324908
285292
348677
300873
330454
391325
342778
344691
350694
402941
406773
411791
408423
277197
289338
325971
322956
308463
351431
373233
20.2638
12.5932
287.106
0.873273
10.9573
1883.04
147.818
3.12762
265.26
43238.7
42543.7
2107.95
3.31621
486.49
3692.91
6.61118e-05
0.114438
0.044484
0.000515057
0.000358488
0.000310913
0.00588506
0.00104968
0.00078341
0.00489906
0.00618288
0.00710482
0.0123332
0.00525142
0.25007
0.00716891
0.0177871
0.103488
0.0449113
0.011516
0.00576302
0.00144418
0.000152895
0.00020595
0.000150706
0.000220097
0.00107307
0.000243154
2.80622e-05
1.56353e-05
2.66751e-05
1.49626e-05
2.65128e-05
8.9855e-06
3.389e-07
1.15251e-08
1.18677e-06
4.65952e-08
1.5425e-09
0.1214
1.51697
0.433538
2.43252
1.33071
19.1147
0.187889
34.3988
3500.99
264.495
466.293
0.00101675
0.0453453
0.0204551
0.254532
0.00506669
0.00122745
0.00835692
0.102282
0.112828
1.30745
0.00301438
0.0470191
0.000477331
2.43967e-05
40.52
0.161787
0.00202637
0.0218351
0.0147672
0.0534294
0.00377935
0.188407
0.0679809
0.986188
0.0154492
0.0105813
0.0115908
0.00174761
0.00171305
0.0323199
0.000263977
0.00157748
0.000431374
0.000291144
0.000393983
0.0078367
0.000746749
0.000446164
0.00436726
4.87903e-05
0.000235089
0.000568688
7.83199e-05
0.00170871
0.000649315
0.000129638
0.000756604
0.000128728
0.00474606
0.0827755
0.00731867
0.0169995
0.00444774
0.000967859
0.000568897
0.000423701
2.87499e-05
0.000112007
2.68551e-05
5.74471e-05
0.000241191
0.00371807
0.00013899
5.17689e-06
1.73153e-07
0.733523
0.00149744
2.01651e-05
5.81642e-05
7.5264e-07
1.9916e-06
2.51603e-08
110.817
1.26207
0.101945
9.18121
0.0112944
0.163599
1.94268e-08
6.2013e-07
1.68802e-09
2.6921e-09
2.40107e-09
2.32249e-08
9.0411e-08
1.84518e-08
8.09814e-08
2.06088e-05
0.000730546
7.41769e-07
2.97185e-06
5.87941e-07
2.65441e-06
2.48769e-05
2.04622e-05
0.000114063
0.000107353
0.00116594
0.000955179
0
5.67525e-10
0
2.91038e-10
0
0
0
0
0
0
0
1.5425e-09
0
0
1.45519e-10
1.64437e-09
4.51109e-10
3.34694e-10
1.01863e-10
0
0
0
0
0
0
0
0
0
0
0
0
0
0
1.45519e-10
0
4.36557e-11
1.68802e-09
7.05768e-09
1.08994e-08
1.81899e-09
0
0
0
0
0
0
0
3.49246e-09
7.42148e-10
1.89175e-09
0
0
0
0
0
0
0
0
0
0
0
0
0
0
0
0
0
0
0
0
0
0
0
0
0
0
0
0
0
0
0
0
0
0
0
0
0
0
0
0
0
0
0
0
0
0
0
0
0
0
0
0
0
3.71758e-07
6.08707e-08
5.52958e-07
1.90383e-07
2.90936e-07
4.45478e-07
2.63184e-06
1.22076e-07
3.61615e-08
9.64646e-08
1.26893e-08
5.39148e-08
1.63545e-06
1.44937e-08
6.37374e-09
7.33417e-09
6.08852e-08
2.29309e-07
0
8.73115e-11
0
0
8.73115e-11
0
0
1.9744e-05
1.58114e-06
3.26594e-05
1.14271e-05
3.11259e-05
1.152e-05
0.000104238
3.34768e-06
9.63089e-07
1.79875e-06
6.29313e-05
8.10454e-06
2.0719e-07
0.000508825
0.000287091
0.00132343
0.000811739
0.000840586
0.000525653
0.000149756
0.000392808
0.00021778
2.85248e-05
9.61772e-05
0.00021742
0.000486122
8.84994e-05
0.000211653
3.01926e-05
1.97926e-05
0.000337178
4.70195e-05
0.000127298
6.48876e-05
0.000139788
1.59048e-05
6.00045e-06
2.67139e-05
6.10716e-05
0.000114811
8.16789e-06
1.75597e-05
5.27798e-05
7.61982e-05
0.000523198
1.99112e-05
0.000206188
1.39493e-06
2.29567e-05
6.87432e-08
3.14796e-06
4.32192e-09
1.45212e-06
8.42061e-07
1.20124e-05
7.1551e-06
3.9974e-06
5.48454e-06
2.49766e-06
4.70797e-06
8.16838e-05
4.78624e-05
6.63645e-05
3.84069e-07
1.01121e-07
3.16865e-06
7.51112e-07
3.30028e-05
9.99935e-07
1.41162e-06
2.92654e-07
9.39239e-07
2.11807e-05
5.78375e-06
0.000110925
1.31361e-05
7.08725e-05
2.858e-08
5.90808e-09
2.13069e-07
9.86461e-06
4.24916e-08
7.19592e-08
1.92405e-07
1.82044e-08
1.37006e-07
2.69824e-05
2.52019e-06
1.60223e-05
3.16169e-07
1.77458e-06
5.46945e-06
1.52795e-09
3.34694e-10
1.09721e-08
2.40107e-09
3.8126e-09
1.98634e-08
1.44064e-09
1.44064e-08
2.71248e-07
1.01111e-06
1.77824e-08
2.0345e-07
4.7771e-07
4.0399e-07
2.43622e-06
5.04951e-08
1.74623e-10
1.86701e-07
1.32277e-08
1.10595e-09
1.78974e-07
6.99802e-08
2.41518e-07
6.01533e-07
1.41151e-06
2.29484e-07
5.90881e-07
7.27887e-08
4.82687e-08
9.38846e-07
1.31578e-07
3.61877e-07
1.59358e-07
3.87823e-07
4.13129e-08
4.77288e-06
1.55407e-06
2.91492e-05
1.17802e-05
1.48652e-06
2.8316e-05
5.04854e-06
3.30084e-06
7.69594e-06
8.6076e-07
1.68722e-05
1.01617e-06
1.86568e-05
2.68553e-06
1.47265e-08
6.43195e-08
1.5588e-07
3.18221e-07
1.9354e-08
4.67699e-08
1.37792e-07
5.89353e-09
1.17245e-07
1.3315e-08
4.18659e-08
1.85682e-08
4.94765e-08
4.38013e-09
9.82487e-07
4.13551e-07
7.90368e-06
2.79213e-06
1.3494e-06
3.14758e-07
6.62572e-06
3.70856e-07
9.75779e-07
7.47532e-08
1.15916e-06
1.19835e-07
2.38976e-06
1.5687e-07
2.2699e-06
4.49476e-05
4.03736e-06
6.97456e-06
7.47452e-06
1.86245e-05
8.66494e-07
8.58563e-10
4.1473e-09
1.18453e-08
1.87138e-08
1.35333e-09
2.09548e-09
9.42964e-09
2.47383e-10
5.63159e-09
6.54836e-10
2.75031e-09
6.40284e-10
3.09956e-09
2.32831e-10
3.0981e-08
2.33558e-08
4.37343e-07
1.59125e-07
5.98957e-08
1.33296e-08
2.5623e-07
1.70592e-07
1.39898e-06
3.65511e-06
7.25858e-06
3.83588e-07
7.91581e-07
1.554e-06
1.28784e-08
4.78467e-08
3.68163e-09
5.97065e-08
4.32192e-09
1.01048e-07
6.72298e-09
0
1.45519e-10
6.25732e-10
6.69388e-10
1.45519e-11
0
4.80213e-10
0
2.61934e-10
1.45519e-11
1.89175e-10
0
1.89175e-10
0
1.35333e-09
1.09139e-09
1.95141e-08
3.73984e-09
2.41562e-09
3.20142e-10
1.25438e-08
5.23869e-10
1.38243e-09
3.34694e-10
3.33239e-09
1.16415e-10
4.42378e-09
8.58563e-10
1.60027e-06
3.2261e-06
1.64844e-07
6.40386e-07
1.46743e-06
3.36433e-06
3.54034e-07
2.09984e-08
1.91649e-08
7.5961e-09
9.31468e-08
3.34694e-09
4.67262e-08
2.98169e-08
2.32831e-10
1.17871e-09
1.68657e-08
4.97821e-08
2.78524e-08
2.65281e-08
2.80852e-09
9.45874e-10
1.01863e-10
1.70257e-09
3.92902e-10
4.48199e-09
1.28057e-09
5.56029e-08
3.62343e-09
3.08501e-09
6.8685e-09
1.18453e-08
2.28902e-08
2.22208e-08
2.57423e-07
1.88919e-05
6.58911e-08
4.65231e-06
6.8103e-09
7.37389e-07
4.80213e-10
9.00473e-08
4.24916e-09
4.21423e-08
2.90747e-08
1.29949e-08
1.51424e-06
1.83616e-07
1.46031e-06
1.77533e-09
8.58563e-10
1.22673e-08
4.75848e-09
4.32192e-09
2.99769e-09
3.8401e-07
2.82307e-08
3.33268e-07
1.74623e-10
2.91038e-11
1.00408e-09
4.65661e-10
6.40284e-10
3.49246e-10
6.28352e-08
2.92493e-09
5.23869e-08
0
4.36557e-11
0
6.8103e-09
1.89175e-10
3.60887e-09
5.67525e-10
2.40107e-09
4.94765e-10
2.28465e-09
2.18279e-10
1.17434e-08
4.83124e-09
8.33388e-08
4.10073e-08
4.51109e-09
8.17527e-08
1.22382e-08
8.55653e-09
1.76224e-08
3.0559e-09
5.42204e-08
2.40107e-09
5.92845e-08
7.34872e-09
0
2.32831e-10
8.58563e-10
1.00408e-09
5.82077e-11
1.01863e-10
6.98492e-10
0
6.98492e-10
5.82077e-11
4.94765e-10
1.45519e-11
3.49246e-10
0
2.47383e-09
1.38243e-09
2.29047e-08
4.84579e-09
3.4488e-09
5.67525e-10
1.95869e-08
9.8953e-10
2.60479e-09
4.51109e-10
7.37782e-09
2.91038e-10
7.45058e-09
8.29459e-10
0
0
8.73115e-11
1.01863e-10
0
0
4.36557e-11
0
2.91038e-11
0
0
0
0
0
1.16415e-10
5.82077e-11
2.13913e-09
3.7835e-10
2.32831e-10
0
1.35333e-09
0
3.92902e-10
0
5.96629e-10
0
4.51109e-10
0
0
0
0
0
0
0
0
0
0
8.73115e-11
0
0
0
2.91038e-11
0
0
0
7.567e-10
2.23226e-08
5.73185e-07
1.21042e-05
0
0
0
0
1.03319e-09
2.47674e-08
4.91709e-07
0
0
0
0
0
8.73115e-10
1.91794e-08
0
0
0
0
0
0
6.1118e-10
0
0
0
0
0
2.51748e-09
5.81495e-08
0
0
0
0
0
1.45519e-10
4.27826e-09
0
0
0
0
0
1.45519e-11
2.41562e-09
0
0
0
0
0
0
1.16415e-10
0
0
0
0
0
0
0
0
0
0
0
0
0
0
0
0
4.80213e-10
9.70613e-09
0.00168511
0.000114674
5.72453e-06
2.38942e-07
8.30914e-09
0.000540964
3.78342e-05
1.78641e-06
7.08242e-08
2.37196e-09
7.7991e-05
4.61466e-06
2.08354e-07
7.87259e-09
2.03727e-10
8.53323e-06
4.37649e-07
1.75933e-08
5.67525e-10
0
5.11267e-07
2.40398e-08
9.02219e-10
0
0
5.25615e-08
2.00816e-09
0
0
0
8.84174e-08
3.60887e-09
8.73115e-11
0
0
0
9.29285e-08
4.58385e-09
1.45519e-10
0
0
0
0
3.84171e-09
1.45519e-10
0
0
0
0
0
8.73115e-11
0
0
0
0
0
0
0
0
0
0
0
0
2.56114e-09
8.30041e-08
2.36323e-06
6.65797e-05
0
0
0
0
1.16415e-10
5.76256e-09
1.72164e-07
4.74887e-06
0
0
0
0
0
2.61934e-10
9.24047e-09
2.46553e-07
0
0
0
0
0
0
3.34694e-10
1.05065e-08
0
0
0
0
0
0
0
2.76486e-10
0
0
0
0
0
0
7.27596e-10
2.4389e-08
7.11312e-07
2.13626e-05
0
0
0
0
0
1.67347e-09
5.11791e-08
1.46737e-06
0
0
0
0
0
1.45519e-11
2.6921e-09
7.32252e-08
0
0
0
0
0
0
5.82077e-11
3.0559e-09
0
0
0
0
0
0
0
4.36557e-11
0
0
0
0
0
0
0
0
0
0
0
0
3.28873e-09
9.80799e-08
2.94724e-06
0
0
0
0
0
1.16415e-10
6.22822e-09
1.82728e-07
0
0
0
0
0
0
2.61934e-10
8.52742e-09
0
0
0
0
0
0
0
3.0559e-10
0
0
0
0
0
0
0
0
0
0
0
0
0
0
0
0
0
0
0
0
0
0
0
0
2.03727e-10
9.66247e-09
3.11426e-07
0
0
0
0
0
0
5.23869e-10
1.67929e-08
0
0
0
0
0
0
0
6.8394e-10
0
0
0
0
0
0
0
0
0
0
0
0
0
0
0
0
0
0
0
0
0
0
0
0
0
0
0
0
0
0
0
8.73115e-11
5.19503e-09
0
0
0
0
0
0
5.38421e-10
1.72877e-08
0
0
0
0
0
0
0
8.14907e-10
0
0
0
0
0
0
0
0
0
0
0
0
0
0
0
0
0
0
0
0
0
0
0
0
0
0
0
1.58616e-09
0
0
0
0
0
0
0
0
0
1.16415e-10
8.16362e-09
0
0
0
0
0
0
7.567e-10
0
0
0
0
0
0
0
1.55705e-09
0
0
0
0
0
0
0
0
0
0
0
0
0
0
0
0
0
0
0
0
0
0
0
0
0
0
0
0
0
0
0
0
0
0
0
0
1.73168e-09
4.43397e-08
0
0
0
0
0
2.13913e-09
5.36675e-08
0
0
0
0
0
1.45519e-11
2.80852e-09
0
0
0
0
0
0
5.82077e-11
3.33239e-09
0
0
0
0
0
0
0
5.82077e-11
0
0
0
0
0
0
0
0
0
0
0
0
0
0
0
0
0
0
0
0
0
0
0
0
0
0
0
0
0
0
0
0
0
0
0
0
0
0
1.74623e-10
4.46744e-09
0
0
0
0
0
0
0
1.60071e-10
0
0
0
0
0
0
0
0
0
0
0
0
0
0
0
0
0
0
0
0
0
0
0
0
0
0
0
0
0
0
0
0
0
0
0
0
0
0
0
0
0
0
0
0
0
0
0
1.45519e-10
0
0
0
0
0
0
0
0
0
0
0
0
0
0
0
0
0
0
0
0
0
0
0
0
0
0
0
0
0
0
0
0
0
0
0
0
0
0
0
0
0
0
0
0
0
0
0
0
0
0
0
0
0
0
0
0
0
0
0
0
0
0
0
0
0
0
0
0
0
0
0
0
0
0
0
0
0
0
0
0
0
0
0
0
0
0
0
0
0
0
0
0
0
0
0
0
0
0
0
0
0
0
0
0
0
0
0
0
0
0
0
0
0
0
0
0
0
0
0
0
0
0
0
0
0
0
0
0
0
0
0
0
0
0
0
0
0
0
0
0
0
4.36557e-11
5.23869e-10
0
0
0
0
0
0
0
0
0
0
0
0
0
0
0
0
0
0
0
0
0
0
0
0
0
0
0
0
0
0
0
0
0
0
0
0
0
0
0
0
0
0
0
0
0
0
0
0
0
0
0
0
0
0
0
0
0
0
0
0
0
0
0
0
0
0
0
0
0
0
0
0
0
0
0
0
0
0
0
0
0
0
0
0
0
0
0
0
0
0
0
0
0
0
0
0
0
0
0
0
0
0
0
0
0
0
0
0
0
0
0
0
0
0
0
0
0
0
0
0
0
0
0
0
0
0
0
0
0
0
0
0
0
0
0
0
1.16415e-10
2.32831e-10
4.36557e-11
4.36557e-10
0
0
0
0
0
0
0
0
0
0
0
0
0
0
0
0
0
0
0
0
0
0
0
0
0
0
0
0
0
0
0
0
0
0
0
0
0
0
0
0
0
0
0
0
0
0
0
0
0
0
0
0
0
0
0
0
0
0
0
0
0
0
0
0
0
0
0
0
0
0
0
0
0
0
0
0
0
0
0
0
0
0
0
0
0
0
0
0
0
0
0
0
0
0
0
0
0
0
0
0
0
0
0
0
0
0
0
8.00355e-10
2.03727e-10
7.567e-10
0
4.36557e-11
0
0
0
0
0
0
0
0
0
0
0
0
0
0
0
0
0
0
0
0
0
0
0
0
0
0
0
0
0
0
0
0
0
0
0
0
0
0
0
0
0
0
0
0
0
0
0
0
0
0
0
0
0
0
0
0
0
0
0
0
0
0
0
0
0
0
0
0
0
0
0
0
0
0
0
0
0
0
0
0
0
0
0
0
0
0
0
0
0
0
0
0
0
0
0
0
0
0
0
0
0
0
0
0
0
0
0
0
0
2.28465e-09
2.61934e-10
1.38243e-08
5.29428e-07
0
0
7.13044e-10
1.45519e-11
3.79805e-09
1.32684e-07
0
0
4.36557e-11
4.94765e-10
2.08966e-08
0
2.22644e-09
0
3.76895e-09
0
0
5.01735e-07
7.567e-10
3.93484e-08
0
0
0
0
0
0
0
0
0
0
1.45519e-10
5.73345e-09
3.20142e-10
0
0
0
0
0
0
0
0
0
2.61934e-10
7.85803e-10
2.56114e-09
0
2.03727e-10
6.98492e-10
2.21189e-09
1.6109e-08
3.49537e-08
1.11686e-07
1.77533e-09
2.86527e-08
1.07379e-07
0
0
0
0
0
0
0
0
0
4.36557e-11
0
0
0
0
0
0
0
0
0
4.36557e-11
2.18279e-10
7.71252e-10
0
0
4.36557e-11
4.36557e-10
1.07248e-08
3.06463e-08
2.76486e-10
4.43833e-09
2.62371e-08
0
0
0
0
0
0
0
0
0
0
0
0
0
4.36557e-11
0
0
0
0
1.49885e-09
4.84579e-09
0
5.67525e-10
3.75439e-09
0
0
0
0
0
0
0
0
0
0
1.01863e-10
4.65661e-10
0
0
1.01863e-10
2.61934e-10
2.32831e-10
5.51518e-09
1.45519e-10
1.98343e-08
1.39698e-09
4.94765e-10
1.15979e-08
1.29425e-07
9.24047e-09
5.08444e-08
1.58616e-09
0
0
5.67525e-10
3.46336e-09
0
1.60071e-10
0
2.50584e-08
1.58616e-09
9.07166e-08
3.20579e-08
5.84114e-08
5.23287e-08
0
0
0
0
2.91038e-11
1.01863e-10
0
1.01863e-10
0
2.47383e-10
0
5.26779e-09
6.79574e-09
4.94765e-10
7.45058e-09
1.1205e-09
1.42172e-08
1.83354e-09
0
0
0
0
0
0
0
0
0
0
0
0
0
0
0
0
0
0
0
0
0
0
0
0
0
0
0
0
0
0
0
0
0
0
0
0
0
0
0
0
0
0
0
0
0
0
0
0
0
0
0
0
0
0
0
0
0
0
0
0
0
0
0
0
0
0
0
0
0
0
0
0
2.61934e-10
1.01863e-10
0
1.74623e-10
0
1.16415e-10
8.29459e-10
1.80444e-09
4.88944e-09
6.98492e-10
1.20781e-09
1.74623e-10
0
1.16415e-10
0
4.65661e-10
0
2.47383e-10
0
0
0
0
0
0
0
0
0
0
0
0
0
0
0
0
0
0
0
0
0
0
0
0
0
0
0
0
0
0
0
0
0
0
0
0
0
0
0
0
0
0
0
0
0
0
0
0
0
0
0
0
0
0
0
0
0
0
0
0
0
0
0
0
0
0
1.01863e-10
0
0
0
5.82077e-11
0
0
0
4.36557e-11
0
0
0
0
0
0
0
0
0
0
0
0
0
0
0
0
0
0
0
0
0
0
0
0
0
0
0
0
0
0
0
0
0
0
0
0
0
0
0
0
0
0
0
0
0
0
0
0
0
0
0
0
0
0
0
0
0
0
0
0
0
0
0
0
0
0
0
0
0
0
0
0
0
0
0
0
0
0
0
0
0
0
0
0
0
0
0
0
0
0
0
0
0
0
0
0
0
0
0
0
0
1.04774e-09
1.92085e-09
1.45519e-11
3.63798e-10
6.98492e-10
2.56114e-09
1.45519e-10
1.37079e-08
4.46744e-09
1.29512e-09
1.13505e-09
9.24047e-09
7.05768e-09
2.59024e-09
3.84753e-08
7.24103e-08
4.1764e-09
1.80153e-08
2.84344e-08
9.98407e-08
6.73754e-09
1.45519e-10
5.23869e-10
1.45519e-10
2.47383e-09
0
1.03319e-09
5.82077e-10
8.55653e-09
1.45228e-08
5.64614e-09
1.83209e-08
0
0
0
0
0
0
0
2.97325e-07
5.85582e-06
0
0
0
0
0
3.3484e-08
8.73115e-11
0
0
0
0
0
0
0
0
0
0
0
0
0
0
4.1764e-09
2.32831e-10
2.37196e-09
8.58563e-10
1.36788e-09
1.4843e-09
0
0
0
0
0
0
0
0
0
0
0
0
0
0
0
0
0
0
0
0
0
0
0
0
0
0
0
0
0
0
0
0
0
0
0
0
0
0
2.47383e-10
4.36557e-11
0
0
1.16415e-10
1.01863e-10
0
0
0
0
0
0
0
0
0
0
0
0
0
0
0
3.7835e-10
3.34694e-10
2.03727e-10
6.40095e-07
1.56462e-07
1.73604e-07
1.15688e-08
1.19035e-08
5.75674e-08
4.74683e-08
1.45519e-11
0
6.98492e-10
4.29281e-09
2.61934e-10
3.71074e-09
3.7835e-10
2.77942e-09
3.46772e-08
4.59841e-09
0
0
0
0
0
0
0
0
0
0
0
0
0
0
6.69388e-10
0
0
1.45519e-11
1.01863e-10
2.47383e-10
2.18279e-10
0
0
0
0
0
0
0
0
0
0
0
0
0
0
3.39642e-08
2.19734e-09
2.15368e-09
1.88593e-08
8.94943e-09
9.74978e-10
5.38421e-10
0
0
5.82077e-11
0
0
0
0
0
0
0
0
0
0
0
0
0
0
0
0
0
0
0
0
0
0
0
0
0
0
0
0
0
0
0
0
0
0
0
0
0
0
0
0
0
0
0
0
0
0
1.24119e-06
1.82068e-06
3.14467e-08
1.12242e-06
6.96018e-08
3.5595e-05
6.80579e-07
2.77505e-08
4.97329e-06
3.60902e-07
4.3348e-06
1.49375e-06
3.75712e-06
2.36441e-06
5.11835e-07
1.97513e-07
5.326e-08
4.80213e-08
4.1876e-07
2.89394e-07
1.05661e-07
2.59504e-07
4.10015e-07
1.79352e-07
6.30418e-07
0.000150638
1.65892e-09
1.52795e-09
3.70123e-05
5.73753e-06
7.16964e-06
5.65851e-07
3.13137e-06
4.72908e-07
3.16092e-06
2.40107e-07
1.74769e-08
2.28567e-07
1.96014e-08
2.22851e-05
4.24756e-07
1.20098e-06
1.8948e-07
1.99632e-06
1.47489e-06
5.33306e-06
4.084e-07
7.49715e-08
1.1713e-06
2.3171e-07
6.39557e-08
2.68857e-06
3.29617e-06
3.92858e-07
8.13394e-07
2.6339e-08
4.42058e-07
1.01383e-07
1.37836e-06
1.18584e-07
7.75617e-08
2.00198e-06
1.58572e-07
3.08908e-07
2.76661e-07
7.61764e-07
3.3062e-08
7.50879e-09
5.42641e-08
1.54148e-07
3.59432e-07
1.49303e-08
4.11965e-08
6.95436e-08
3.25963e-09
9.0251e-08
1.81026e-08
1.39553e-08
1.33878e-08
3.1534e-08
3.8126e-09
6.77828e-08
2.52679e-07
7.3851e-08
1.08423e-05
1.43365e-07
8.8464e-07
1.76852e-06
5.17872e-06
1.57583e-07
5.01605e-07
3.72034e-07
2.34548e-07
1.58325e-08
5.5843e-07
5.61704e-08
1.1385e-06
1.2049e-07
8.07049e-08
3.46336e-09
4.36557e-11
2.75932e-05
0.000171641
0.0023704
2.72739e-05
0.000137299
1.16258e-05
0.000198032
3.50461e-06
1.74248e-05
1.62047e-06
3.55035e-05
2.21777e-05
5.22409e-05
7.13688e-05
1.41988e-05
7.93353e-06
2.69031e-06
7.69571e-05
1.51352e-05
1.15656e-05
2.15899e-06
4.32364e-06
2.30967e-06
2.58095e-05
4.84433e-07
8.79797e-06
9.07929e-06
1.51314e-06
6.1118e-08
2.05182e-09
151798
2.37149
18.1877
0.0968454
0.00653246
3.00635e-06
80.2615
0.0462123
38.9933
5.81809
0.00167617
0.0500912
0.00061986
3.08923e-07
2.99709
0.198049
0.442835
0.0935767
0.00110759
0.00439097
794.328
0.0603632
42.9676
0.186072