/*--------------------------------*- C++ -*----------------------------------*\
  =========                 |
  \\      /  F ield         | OpenFOAM: The Open Source CFD Toolbox
   \\    /   O peration     | Website:  https://openfoam.org
    \\  /    A nd           | Version:  9
     \\/     M anipulation  |
\*---------------------------------------------------------------------------*/
FoamFile
{
    format      ascii;
    class       surfaceScalarField;
    location    "0.00215";
    object      phi;
}
// * * * * * * * * * * * * * * * * * * * * * * * * * * * * * * * * * * * * * //

dimensions      [0 3 -1 0 0 0 0];

internalField   nonuniform List<scalar> 
52181
(
-1.42109e-14
0
0
0
0
-5.8975e-13
3.55271e-15
0
-6.03961e-14
0
-1.63851e-11
1.98952e-13
-5.68434e-14
-1.93268e-12
2.41585e-13
-4.42206e-10
5.90816e-12
-1.91847e-12
-5.56781e-11
7.63833e-12
-1.13003e-08
1.67969e-10
-6.47304e-11
-1.6019e-09
2.17298e-10
-2.35412e-07
4.82639e-09
-2.02523e-09
-4.81676e-08
6.00691e-09
1.23935e-07
-4.22709e-08
1.33746e-07
-4.79401e-07
-1.02555e-06
-1.3113e-06
-5.18662e-07
-3.54134e-07
-4.38618e-07
-2.98587e-07
-2.97769e-07
0
0
0
0
-3.55271e-14
0
0
0
-9.80549e-13
1.42109e-14
0
1.42109e-14
-2.50751e-11
4.44089e-13
-1.20792e-13
4.47642e-13
-6.06704e-10
1.21148e-11
-3.73035e-12
1.18305e-11
-1.30892e-08
3.21418e-10
-1.07008e-10
2.96325e-10
7.95933e-09
-2.1786e-07
-2.72728e-09
7.0339e-09
0
0
0
0
0
0
0
0
-4.26326e-14
0
0
0
-1.14397e-12
2.4869e-14
-7.10543e-15
1.42109e-14
-2.58567e-11
6.6791e-13
-1.7053e-13
5.61329e-13
-5.28281e-10
1.66303e-11
-4.53326e-12
1.30882e-11
3.88379e-10
-8.99092e-09
-1.04997e-10
2.88473e-10
0
0
0
0
0
0
0
0
0
0
0
0
-4.26326e-14
0
0
0
-9.73444e-13
3.19744e-14
-7.10543e-15
2.13163e-14
-1.85452e-11
7.17648e-13
-1.63425e-13
5.25802e-13
1.55644e-11
-2.9717e-10
-3.58114e-12
1.06795e-11
0
0
0
0
0
0
0
0
0
0
0
0
-2.84217e-14
0
0
-6.03961e-13
-7.10543e-15
1.42109e-14
-9.166e-12
-1.13687e-13
3.69482e-13
1.52802e-07
-6.63473e-07
-4.33146e-08
1.45986e-07
-2.81734e-07
-8.38147e-07
-3.06198e-07
-3.60067e-07
-8.52485e-07
-1.02811e-06
-3.85512e-07
7.79e-09
-1.14228e-07
-1.9913e-09
5.73991e-09
2.9797e-10
-3.67299e-09
-6.27054e-11
1.93225e-10
-1.07349e-10
-1.86873e-12
6.21725e-12
4.3327e-07
-7.85075e-06
-4.36475e-06
1.74037e-06
-4.06688e-07
-0.0332632
-0.683277
-0.478715
0.0424821
0.0957783
0.0632824
5.53471e-07
2.89126e-07
-2.90478e-06
-4.48009e-06
1.00818e-06
-2.67867e-07
1.09489e-07
-2.02404e-08
8.30912e-08
-2.62978e-07
-6.63226e-07
-2.85091e-07
-2.41887e-07
-2.82578e-07
-2.51374e-07
-3.1416e-07
4.42907e-09
-3.22588e-08
-7.742e-10
2.76322e-09
-9.16401e-10
-2.24532e-11
8.42064e-11
-0.364554
-2.8718
-3.6618
0.5519
2.71437
3.49654
5.80453e-06
-0.000161052
-5.34536e-05
2.07196e-05
-7.92072e-06
1.52681e-05
4.24134e-07
-6.29403e-07
1.36465e-06
1.0291e-06
-4.6354e-06
-4.92188e-06
-6.07053e-06
-5.75011e-06
4.49834e-08
-5.09269e-09
2.52798e-08
-2.32482e-07
-2.08988e-07
-2.55352e-07
-1.97821e-07
-1.60398e-10
7.81746e-10
3.71081e-08
1.71821e-07
-4.43713e-10
3.43515e-08
-1.78501e-06
-1.09711e-06
-1.21992e-06
-1.99214e-06
2.96974e-06
-0.000368651
1.3676e-06
-1.53135e-06
2.70624e-05
0.210647
-5.15202
0.116449
-0.0942603
1.1952
-7.32273
0.495918
-0.399251
6.8802
-0.24623
0.830652
1.53187e-08
4.93082e-08
1.06335e-08
1.366e-08
-2.7505e-07
-1.66677e-07
-3.36683e-07
-1.89021e-07
-2.74833e-05
5.67389e-07
-1.43983e-06
3.01566e-06
1.02795e-06
-1.4794e-07
-3.01196e-05
-9.40047e-06
-1.02244e-05
-1.44922e-06
-1.02333e-06
-1.02864e-06
3.1857e-06
-1.98185e-05
-0.000392654
-1.87914e-06
1.00983e-05
-1.51205
0.39776
-6.53519
1.63853
5.13841
-0.190344
6.60112
-6.02614
-0.236411
1.77852
0.46762
-1.47051
-2.69885e-07
1.04627e-08
2.98984e-09
6.26827e-10
1.58971e-09
9.71548e-08
1.06136e-08
6.71182e-08
-2.53457e-06
-6.93536e-07
-7.06723e-07
-3.08788e-06
-2.3892e-07
-8.46132e-08
-3.30139e-07
-9.69039e-08
2.60558e-05
-0.00281107
-0.000442703
-6.78977e-06
5.91111e-05
0.000151976
0.00220982
-0.142645
-0.0645168
-0.000591421
0.0104689
0.00576531
-5.80085
0.422486
5.48821
-2.91882
-0.193145
2.83786
0
0
0
0
0
0
0
0
0
0
0
0
0
0
0
-7.10543e-15
-7.10543e-15
0
-8.52651e-14
-2.13163e-13
0
-1.25056e-12
-4.78906e-12
2.4869e-14
-1.38343e-11
-8.78586e-11
4.29878e-13
-1.167e-09
5.76605e-12
0
0
0
0
0
0
0
0
0
0
0
0
-7.10543e-15
-7.10543e-15
0
-1.56319e-13
-2.27374e-13
0
-3.06244e-12
-6.33804e-12
3.90799e-14
-4.60858e-11
-1.51559e-10
8.70415e-13
-5.09409e-10
-2.82519e-09
1.59375e-11
-3.56821e-08
2.18016e-10
0
0
0
0
0
0
0
0
0
-7.10543e-15
-7.10543e-15
0
-2.13163e-13
-1.84741e-13
0
-5.27223e-12
-5.91882e-12
4.61853e-14
-1.05771e-10
-1.72243e-10
1.26477e-12
-1.6507e-09
-4.173e-09
3.00169e-11
-1.80454e-08
-7.21733e-08
5.79757e-10
-1.81909e-07
7.87749e-09
-2.26229e-07
-1.36902e-07
-1.33416e-07
0
0
0
0
0
0
-7.10543e-15
0
0
-2.20268e-13
-1.13687e-13
0
-6.4162e-12
-3.93641e-12
4.26326e-14
-1.62416e-10
-1.30804e-10
1.33937e-12
-3.36779e-09
-3.86922e-09
3.87637e-11
-5.19937e-08
-8.77804e-08
9.85402e-10
-1.89604e-07
1.87518e-08
-6.17033e-07
-1.73682e-07
-3.68779e-07
-1.09838e-07
-2.01126e-07
-1.17145e-07
-1.51276e-07
4.99293e-08
-3.09922e-08
-1.18226e-06
2.01751e-07
0
0
0
-7.10543e-15
0
0
-1.77636e-13
-4.9738e-14
0
-5.56355e-12
-1.85452e-12
2.84217e-14
-1.66388e-10
-6.69687e-11
1.04095e-12
-4.26266e-09
-2.31042e-09
3.4504e-11
-8.40715e-08
-6.53398e-08
1.06817e-09
-1.68394e-07
-1.76745e-07
2.73774e-08
-7.47189e-07
-1.63334e-07
-4.559e-07
-6.19589e-07
-1.53223e-07
-3.71049e-07
-5.65219e-07
-7.87247e-07
2.72994e-08
1.18668e-06
3.62679e-06
-1.51414e-06
-2.39086e-05
3.73841e-06
0
0
0
-9.9476e-14
-1.42109e-14
0
-3.39639e-12
-6.39488e-13
1.77636e-14
-1.13587e-10
-2.35687e-11
5.8975e-13
-3.40636e-09
-8.85208e-10
2.11529e-11
-7.94386e-08
-3.07233e-08
7.43707e-10
-1.80863e-07
-1.18954e-07
2.33705e-08
-7.3229e-07
-1.66279e-07
-4.47552e-07
-3.42973e-07
-1.17839e-07
-2.42302e-07
-7.58268e-07
-6.31021e-07
2.40302e-08
2.07022e-06
8.84871e-06
-9.09593e-05
-1.72511e-05
-1.35466e-05
-0.00011707
9.5175e-06
-7.12253e-05
-1.54945e-05
-1.19609e-05
-9.11258e-05
0.0631006
0.121138
-0.14595
-1.15383
0.0982085
-3.55271e-14
0
0
-1.4424e-12
-1.63425e-13
7.10543e-15
-5.16778e-11
-6.27409e-12
2.38032e-13
-1.76259e-09
-2.30642e-10
8.92442e-12
-4.9269e-08
-8.80658e-09
3.38051e-10
-1.50736e-07
1.22276e-08
-3.42415e-07
-1.40263e-07
-2.54598e-07
-7.80304e-08
-9.31861e-08
-7.50058e-08
-7.71598e-08
-6.62709e-07
-3.82264e-07
2.09976e-08
1.37963e-06
5.36992e-06
-6.68465e-05
-1.19483e-05
-1.10198e-05
-8.57448e-05
6.61821e-06
-3.24019e-05
-8.43003e-06
-6.97401e-06
-4.08989e-05
-4.85171
-5.20324
0.394443
4.956
5.31179
1.56873
5.45161
-1.18298
-5.31611
4.5821
-4.47642e-13
0
-2.84217e-14
-1.59659e-11
6.75016e-14
-1.16529e-12
-5.76975e-10
2.66454e-12
-4.39684e-11
-2.02041e-08
1.01434e-10
-1.62639e-09
3.90315e-09
-5.86398e-08
-1.26476e-07
-1.11114e-07
-1.03402e-07
-1.27389e-07
-2.44207e-06
-2.918e-06
1.33272e-07
7.56641e-07
3.86726e-07
-2.69738e-06
-1.81616e-06
-1.78044e-06
-0.0315265
-0.124133
0.000649993
0.0046538
0.00745525
-4.05994
-5.85044
0.371682
4.06962
5.70922
-3.81116
0.4261
3.99737
4.9849
-4.7968
0
0
0
0
0
0
0
0
0
0
0
0
0
0
0
0
0
0
-2.13163e-14
-6.39488e-14
0
-3.55271e-13
-1.30029e-12
7.10543e-15
-3.94351e-12
-2.25882e-11
1.74083e-13
-2.8087e-10
2.27374e-12
0
0
0
0
0
0
0
0
0
0
0
0
0
0
0
-4.9738e-14
-6.39488e-14
0
-8.52651e-13
-1.7053e-12
1.42109e-14
-1.22142e-11
-3.87317e-11
3.48166e-13
-1.34115e-10
-7.10251e-10
6.02896e-12
-9.34362e-09
7.6593e-11
0
0
0
0
0
0
0
0
0
0
0
0
-6.39488e-14
-5.68434e-14
0
-1.42109e-12
-1.60583e-12
1.77636e-14
-2.70788e-11
-4.42384e-11
5.00933e-13
-3.98117e-10
-1.12879e-09
1.10063e-11
-4.58499e-09
-2.13663e-08
1.93765e-10
-8.91287e-08
2.41321e-09
-1.40237e-07
-1.40236e-07
-1.39465e-07
0
0
0
0
0
0
0
0
0
-6.39488e-14
-2.84217e-14
0
-1.72662e-12
-1.08713e-12
1.77636e-14
-4.15099e-11
-3.38645e-11
5.32907e-13
-8.60119e-10
-1.06186e-09
1.40616e-11
-1.37331e-08
-2.96949e-08
3.25514e-10
-9.04835e-08
5.86057e-09
-1.29181e-07
-1.18261e-07
-9.1773e-08
-7.64941e-08
-5.28595e-08
-7.60802e-08
-7.23773e-08
-4.01825e-07
5.08573e-08
1.39611e-07
0
0
0
0
0
0
-4.26326e-14
-1.42109e-14
0
-1.51346e-12
-5.40012e-13
1.42109e-14
-4.28457e-11
-1.75433e-11
4.1922e-13
-1.16885e-09
-5.92614e-10
1.26867e-11
-2.64318e-08
-2.15643e-08
3.57041e-10
-8.40362e-08
-1.16114e-07
9.01418e-09
-1.18321e-07
-9.20649e-08
-7.8629e-08
-1.63172e-07
-1.34163e-07
-1.10293e-07
-4.899e-08
-2.04419e-07
-3.17329e-07
5.12263e-08
1.85514e-06
-7.74938e-06
1.11612e-06
3.12474e-06
0
0
0
-2.84217e-14
0
0
-9.45022e-13
-1.91847e-13
3.55271e-15
-2.95302e-11
-6.58673e-12
2.41585e-13
-9.39281e-10
-2.19167e-10
8.03979e-12
-2.86088e-08
-8.14769e-09
2.54403e-10
-1.19765e-07
-9.50645e-08
7.92237e-09
-1.69948e-07
-1.48266e-07
-1.18142e-07
-8.77237e-08
-9.26414e-08
-6.94445e-08
-5.32034e-08
-3.70714e-07
-3.17523e-07
6.47012e-08
-1.58748e-06
4.42217e-07
1.27171e-06
1.16916e-06
-1.90249e-06
-4.85608e-06
-2.51676e-06
-2.01257e-06
-2.60763e-06
-6.4195e-06
-3.37756e-06
-2.66319e-06
0.0386071
-0.472757
0.0173083
0.0287095
-7.10543e-15
0
0
-4.1922e-13
-4.9738e-14
0
-1.3614e-11
-1.85452e-12
9.9476e-14
-4.42199e-10
-6.40412e-11
3.54916e-12
-1.59084e-08
-2.09837e-09
1.18312e-10
-1.31122e-07
-7.46121e-08
3.93803e-09
-1.13912e-07
-1.41244e-07
-1.00909e-07
-4.29733e-08
-3.24222e-07
-1.76062e-07
5.41074e-08
-1.23305e-06
3.39719e-07
9.11609e-07
-2.25586e-06
-5.04073e-06
-2.80817e-06
-2.18648e-06
1.08706e-06
-2.28739e-06
-2.82527e-06
-2.053e-06
-2.31797e-06
-5.01449
-4.64992
-1.55637
1.80413
4.58799
4.91998
5.33619
-5.2924
1.90737
4.44884
-1.35003e-13
0
-7.10543e-15
-4.55458e-12
2.84217e-14
-3.48166e-13
-1.43082e-10
1.1191e-12
-1.28324e-11
-4.27384e-09
3.8284e-11
-4.42668e-10
-1.2883e-07
1.22767e-09
-1.32603e-08
3.94353e-08
-3.5131e-07
-2.88864e-06
-7.92208e-07
-5.33746e-07
-2.11504e-07
-9.67156e-08
-1.22516e-07
-6.96216e-08
-7.75204e-08
-2.5299e-08
-2.35322e-08
-3.35867e-08
-0.00143391
-0.00723227
-0.000473946
0.000129735
0.000207634
0.000368815
-3.65686
-5.47569
-1.42657
1.54823
3.27927
4.51859
-4.50504
-3.51125
-1.66986
3.79587
4.92371
1.97778
3.26029
1.18026
3.56301
-2.97191
-0.991446
0
0
0
0
0
0
0
0
0
0
0
0
0
0
0
0
0
0
0
-7.10543e-15
0
-4.26326e-14
-1.63425e-13
0
-4.9738e-13
-2.86349e-12
2.13163e-14
-3.74598e-11
2.94875e-13
0
0
0
0
0
0
0
0
0
0
0
0
0
0
0
-7.10543e-15
-7.10543e-15
0
-1.06581e-13
-2.13163e-13
0
-1.55609e-12
-4.80327e-12
4.26326e-14
-1.68257e-11
-8.84199e-11
7.74492e-13
-1.16233e-09
1.01572e-11
0
0
0
0
0
0
0
0
0
0
0
0
-7.10543e-15
-7.10543e-15
0
-1.77636e-13
-1.98952e-13
0
-3.38218e-12
-5.52802e-12
6.03961e-14
-5.04983e-11
-1.33149e-10
1.39977e-12
-5.54657e-10
-2.52738e-09
2.51887e-11
-3.22482e-08
3.34499e-10
0
0
0
0
0
0
0
0
0
-7.10543e-15
0
0
-2.13163e-13
-1.42109e-13
0
-5.13722e-12
-4.42668e-12
6.75016e-14
-1.03228e-10
-1.28239e-10
1.79412e-12
-1.61231e-09
-3.27872e-09
4.19362e-11
-1.89637e-08
-5.79692e-08
8.14453e-10
1.14561e-08
-1.02257e-07
-2.33931e-07
-1.00247e-07
-1.17077e-07
-3.04857e-08
-2.35444e-08
-3.03115e-08
-3.05821e-08
0
0
0
0
0
0
-7.10543e-15
0
0
-1.91847e-13
-7.10543e-14
0
-5.42144e-12
-2.46558e-12
5.32907e-14
-1.37611e-10
-7.93534e-11
1.6378e-12
-2.93323e-09
-2.47011e-09
4.637e-11
-4.52419e-08
-6.22608e-08
1.22261e-09
-1.37354e-07
2.42138e-08
-5.92366e-07
-1.28561e-07
-1.50768e-07
-7.71577e-08
-2.39152e-07
-8.18712e-08
-8.70395e-08
-3.6144e-08
-3.45931e-08
-3.3831e-08
-6.92689e-08
1.58649e-07
-4.62383e-06
4.27229e-07
-1.0282e-06
2.7743e-07
0
0
0
0
0
0
-1.27898e-13
-2.13163e-14
0
-3.97193e-12
-9.59233e-13
3.19744e-14
-1.17765e-10
-3.22586e-11
1.07292e-12
-3.17647e-09
-1.1059e-09
3.39995e-11
-6.60172e-08
-3.60844e-08
1.0845e-09
-1.32003e-07
-1.2005e-07
3.0203e-08
-6.17588e-07
-1.28073e-07
-1.50746e-07
-4.83303e-07
-1.23772e-07
-1.36142e-07
-4.74254e-08
-4.40417e-08
-4.42079e-08
-9.54378e-08
-1.35673e-07
-4.81208e-07
-6.18515e-07
9.71233e-08
-0.000716213
-0.000474941
3.87327e-05
5.35314e-05
4.26212e-05
0
0
0
-5.68434e-14
-7.10543e-15
0
-1.98952e-12
-2.62901e-13
1.42109e-14
-6.41123e-11
-9.18732e-12
4.90274e-13
-1.99645e-09
-3.11196e-10
1.64917e-11
-5.20307e-08
-1.08956e-08
5.67002e-10
-1.39202e-07
1.9452e-08
-4.64281e-07
-1.50399e-07
-1.46427e-07
-8.37839e-08
-1.34568e-07
-8.35493e-08
-7.24962e-08
-3.63474e-08
-3.14651e-08
-3.74908e-08
-4.51305e-08
-1.18959e-07
-6.22976e-07
-3.91491e-07
9.71939e-08
-3.3445e-06
3.86644e-06
7.08858e-06
-1.51335e-05
-0.000137827
-1.7496e-05
-6.8738e-06
7.7226e-06
-1.27839e-05
-0.000101758
-1.41461e-05
-6.2126e-06
-6.21471e-06
-6.24314e-06
-3.19607e-05
-2.87069
-2.31516
0.859862
0.798879
0.506711
-1.42109e-14
0
0
-6.75016e-13
3.55271e-15
-4.9738e-14
-2.25384e-11
1.59872e-13
-1.81899e-12
-7.4823e-10
5.53513e-12
-6.22649e-11
-2.42846e-08
1.89516e-10
-2.08312e-09
-1.08821e-07
6.94215e-09
-6.75548e-08
-1.62076e-07
-1.0675e-07
-1.48965e-07
5.29933e-08
-1.25009e-07
-4.34641e-07
-1.1382e-07
1.26666e-07
-2.27201e-06
1.403e-06
1.10715e-06
-3.83927e-06
-1.71703e-05
-4.64769e-06
-2.78102e-06
2.08158e-06
-1.66191e-06
-5.40243e-06
-1.96898e-06
-1.67635e-06
-2.02885e-06
-2.24693e-06
-3.50752e-06
-1.59586
-2.39271
-1.74067
0.385573
0.404114
0.261268
4.19235
-3.60453
-4.19659
-3.02524
3.63444
2.89907
0
0
0
0
0
0
0
0
0
0
0
0
0
0
0
0
0
0
0
0
0
-7.10543e-15
-1.42109e-14
0
-5.68434e-14
-3.12639e-13
0
-4.3201e-12
3.55271e-14
0
0
0
0
0
0
0
0
0
0
0
0
0
0
0
0
0
0
-7.10543e-15
-2.13163e-14
0
-1.77636e-13
-4.90274e-13
3.55271e-15
-2.06768e-12
-8.98126e-12
9.23706e-14
-1.25283e-10
1.23634e-12
0
0
0
0
0
0
0
0
0
0
0
0
0
0
0
-1.42109e-14
-2.13163e-14
0
-3.69482e-13
-5.61329e-13
7.10543e-15
-5.52092e-12
-1.25624e-11
1.59872e-13
-6.32951e-11
-2.372e-10
2.85993e-12
-3.38675e-09
3.9126e-11
0
0
0
0
0
0
0
0
0
0
0
0
-2.13163e-14
-1.42109e-14
0
-5.25802e-13
-4.61853e-13
7.10543e-15
-1.0175e-11
-1.20011e-11
2.02505e-13
-1.59545e-10
-2.84615e-10
4.55458e-12
-1.91001e-09
-5.48338e-09
8.59508e-11
-7.47419e-08
1.2252e-09
0
0
0
0
0
0
0
0
0
-2.13163e-14
-7.10543e-15
0
-5.47118e-13
-2.70006e-13
3.55271e-15
-1.28679e-11
-7.90124e-12
1.88294e-13
-2.62133e-10
-2.17156e-10
5.00933e-12
-4.28651e-09
-5.33342e-09
1.21336e-10
-5.34284e-08
-9.60181e-08
2.41719e-09
3.50187e-08
-1.9087e-07
-4.70476e-07
-1.87508e-07
-1.99229e-07
-6.09014e-08
-5.25183e-08
-6.24057e-08
0
0
0
0
0
0
-1.42109e-14
0
0
-4.12115e-13
-1.13687e-13
3.55271e-15
-1.11768e-11
-3.60956e-12
1.27898e-13
-2.75875e-10
-1.07455e-10
3.82627e-12
-5.77843e-09
-3.09038e-09
1.09566e-10
-9.05773e-08
-7.41916e-08
2.83019e-09
-1.83987e-07
5.52152e-08
-7.21026e-08
-9.46138e-08
-9.52037e-08
-4.31852e-07
-7.17252e-07
-1.74129e-07
-1.96096e-07
-1.62413e-07
-5.07858e-07
-1.65369e-07
-1.78621e-07
3.21094e-07
-5.1266e-06
7.26313e-07
-3.11918e-06
5.85649e-07
0
0
0
-7.10543e-15
0
0
-2.20268e-13
-3.55271e-14
0
-6.60805e-12
-1.1724e-12
6.03961e-14
-1.84052e-10
-3.65148e-11
2.01794e-12
-4.65164e-09
-1.10037e-09
6.31637e-11
-9.02341e-08
-3.18518e-08
1.92123e-09
-1.952e-07
4.8463e-08
-6.90225e-07
-1.85009e-07
-1.99416e-07
-7.18553e-08
-8.28521e-08
-8.19842e-08
-3.14382e-07
-1.29556e-07
-3.09673e-07
-1.47578e-07
-1.3965e-07
-4.02288e-07
-7.66449e-07
-6.08198e-07
1.71681e-07
-0.000331942
-0.000215076
3.40197e-05
3.73344e-05
2.28928e-05
0
0
0
-8.52651e-14
0
-7.10543e-15
-2.66454e-12
2.13163e-14
-2.62901e-13
-7.87139e-11
7.28306e-13
-8.61888e-12
-2.23307e-09
2.3654e-11
-2.68578e-10
-5.52247e-08
7.71756e-10
-8.03018e-09
-1.6795e-07
2.43303e-08
-2.34751e-07
-3.15828e-07
-1.70342e-07
-2.03437e-07
-8.69569e-08
-5.57669e-08
-4.89838e-08
1.03699e-07
-2.60628e-07
-7.00844e-07
-3.00282e-07
2.23986e-07
1.21876e-05
-0.000102723
-0.000218305
-0.000100446
1.95097e-05
2.59138e-05
0.141998
-1.3329
0.229762
0.237103
-0.802958
0
0
0
0
0
0
0
0
0
0
0
0
0
0
0
0
0
0
0
0
0
0
0
0
-7.10543e-15
-2.84217e-14
0
-4.54747e-13
3.55271e-15
0
0
0
0
0
0
0
0
0
0
0
0
0
0
0
0
0
0
0
0
0
-1.42109e-14
-4.26326e-14
0
-2.27374e-13
-8.73968e-13
7.10543e-15
-1.27969e-11
1.38556e-13
0
0
0
0
0
0
0
0
0
0
0
0
0
0
0
0
0
0
-2.84217e-14
-5.68434e-14
0
-5.61329e-13
-1.16529e-12
1.77636e-14
-6.76437e-12
-2.20624e-11
2.91323e-13
-3.40471e-10
4.12825e-12
0
0
0
0
0
0
0
0
0
0
0
0
0
0
0
-4.9738e-14
-4.26326e-14
0
-9.73444e-13
-1.10845e-12
2.13163e-14
-1.55538e-11
-2.52456e-11
4.40536e-13
-1.926e-10
-5.11925e-10
8.12506e-12
-8.57982e-09
1.19073e-10
0
0
0
0
0
0
0
0
0
0
0
0
-5.68434e-14
-2.13163e-14
0
-1.18661e-12
-7.53175e-13
1.77636e-14
-2.3789e-11
-1.95115e-11
4.76064e-13
-4.05926e-10
-4.74031e-10
1.07718e-11
-5.45958e-09
-1.03495e-08
2.11003e-10
-1.80462e-07
3.3131e-09
0
0
0
0
0
0
0
0
0
-3.55271e-14
-7.10543e-15
0
-1.03029e-12
-3.62377e-13
1.06581e-14
-2.44711e-11
-1.03171e-11
3.69482e-13
-5.25453e-10
-2.76117e-10
9.73799e-12
-9.78455e-09
-7.08322e-09
2.34724e-10
-1.42632e-07
-1.54528e-07
4.88171e-09
8.06726e-08
-1.61645e-07
-1.19415e-07
-1.71357e-07
-4.64026e-07
-9.7193e-07
-4.41499e-07
-5.12117e-07
0
0
0
0
0
0
-2.13163e-14
0
0
-6.39488e-13
-1.27898e-13
3.55271e-15
-1.69607e-11
-3.86535e-12
2.0961e-13
-4.21636e-10
-1.08443e-10
6.00764e-12
-9.60627e-09
-2.96326e-09
1.64356e-10
-1.79494e-07
-8.11591e-08
4.16495e-09
8.59884e-08
-1.26909e-07
-1.79436e-07
-1.77527e-07
-4.44396e-07
-4.09643e-07
-9.64047e-07
-4.74374e-07
-4.38584e-07
-2.64226e-07
-6.71467e-07
-2.88596e-07
-2.88391e-07
6.54796e-07
-8.58159e-06
-4.05925e-06
1.83436e-06
1.65004e-06
0
0
0
-7.10543e-15
0
0
-2.77112e-13
0
-2.84217e-14
-7.90124e-12
8.17124e-14
-1.03029e-12
-2.10562e-10
2.52953e-12
-3.05604e-11
-5.33689e-09
7.35874e-11
-8.57725e-10
-1.18098e-07
2.07598e-09
-2.48628e-08
5.30414e-08
-2.64491e-07
-3.17252e-07
-6.66668e-07
-3.18579e-07
-3.68217e-07
-1.99379e-07
-1.08066e-07
-1.06839e-07
-2.58756e-07
-2.61897e-07
-2.22794e-07
-1.54045e-05
2.58161e-06
4.94261e-06
3.96483e-06
-3.47279e-05
-9.13482e-06
-9.03324e-06
-5.98882e-06
-4.17586e-06
-4.11028e-06
-3.46787e-06
-5.95931e-06
-5.83528e-06
-4.77341e-06
-0.237354
0.0210836
0.0338353
0.0361343
0
0
0
0
0
0
0
0
0
0
0
0
0
0
0
0
0
0
0
0
0
0
0
0
0
0
0
-2.84217e-14
0
0
0
0
0
0
0
0
0
0
0
0
0
0
0
0
0
0
0
0
0
0
0
0
0
-1.42109e-14
-6.39488e-14
0
-9.09495e-13
1.06581e-14
0
0
0
0
0
0
0
0
0
0
0
0
0
0
0
0
0
0
0
0
0
-4.26326e-14
-7.81597e-14
0
-4.9738e-13
-1.50635e-12
2.4869e-14
-2.30003e-11
3.6593e-13
0
0
0
0
0
0
0
0
0
0
0
0
0
0
0
0
0
0
-6.39488e-14
-7.81597e-14
0
-1.09424e-12
-1.6982e-12
3.55271e-14
-1.36282e-11
-3.31184e-11
6.78568e-13
-5.40965e-10
1.01181e-11
0
0
0
0
0
0
0
0
0
0
0
0
0
0
0
-7.81597e-14
-4.9738e-14
0
-1.60583e-12
-1.34293e-12
3.55271e-14
-2.67661e-11
-3.09086e-11
8.70415e-13
-3.5088e-10
-6.46828e-10
1.67084e-11
-1.14937e-08
2.65207e-10
0
0
0
0
0
0
0
0
0
0
0
0
-7.10543e-14
-2.13163e-14
0
-1.65556e-12
-7.4607e-13
2.84217e-14
-3.38787e-11
-1.90781e-11
7.88702e-13
-6.05901e-10
-4.59536e-10
1.81366e-11
-8.62217e-09
-1.03741e-08
3.75053e-10
-1.8529e-07
6.55591e-09
0
0
0
0
0
0
0
0
0
-4.26326e-14
-7.10543e-15
0
-1.18661e-12
-2.91323e-13
1.77636e-14
-2.80096e-11
-8.06466e-12
5.08038e-13
-6.11792e-10
-2.07166e-10
1.31166e-11
-1.18849e-08
-5.23274e-09
3.1994e-10
-1.72093e-07
-1.23084e-07
7.16988e-09
1.29113e-07
-8.74902e-07
-3.28315e-07
-3.3158e-07
-3.31335e-07
-2.57067e-07
-2.76317e-07
-2.61892e-07
0
0
0
0
0
0
-2.13163e-14
0
0
-5.82645e-13
7.10543e-15
-7.81597e-14
-1.51346e-11
2.27374e-13
-2.40163e-12
-3.66683e-10
6.34159e-12
-6.51781e-11
-8.38295e-09
1.67208e-10
-1.67289e-09
-1.58627e-07
4.25756e-09
-4.46597e-08
9.48027e-08
-3.55759e-07
-8.2536e-07
-3.23998e-07
-3.49339e-07
-3.57869e-07
-4.23439e-07
-1.67447e-07
-1.82114e-07
-1.84055e-07
-2.20709e-07
-2.39981e-07
-2.24367e-07
-2.38439e-05
5.07716e-06
5.50922e-06
4.02102e-06
-3.17598e-05
-7.29841e-06
-6.65746e-06
-4.29629e-06
-7.4041e-06
-7.43706e-06
-4.49049e-06
0
0
0
0
0
0
0
0
0
0
0
0
0
0
0
0
0
0
0
0
0
0
0
0
0
0
0
0
0
0
0
0
0
0
0
0
0
0
0
0
0
0
0
0
0
0
0
0
0
0
0
0
0
0
0
0
-4.26326e-14
0
0
0
0
0
0
0
0
0
0
0
0
0
0
0
0
0
0
0
0
0
0
0
0
0
-2.13163e-14
-7.81597e-14
0
-1.1724e-12
2.4869e-14
0
0
0
0
0
0
0
0
0
0
0
0
0
0
0
0
0
0
0
0
0
-5.68434e-14
-8.52651e-14
0
-7.17648e-13
-1.64846e-12
4.26326e-14
-2.53877e-11
6.39488e-13
0
0
0
0
0
0
0
0
0
0
0
0
0
0
0
0
0
0
-7.81597e-14
-7.10543e-14
3.55271e-15
-1.35003e-12
-1.55609e-12
5.32907e-14
-1.71099e-11
-2.99707e-11
1.02318e-12
-4.86381e-10
1.57456e-11
0
0
0
0
0
0
0
0
0
0
0
0
0
0
0
-8.52651e-14
-4.26326e-14
0
-1.69109e-12
-1.00187e-12
4.61853e-14
-2.81162e-11
-2.22329e-11
1.10489e-12
-3.71251e-10
-4.46704e-10
2.15685e-11
-7.65552e-09
3.54166e-10
0
0
0
0
0
0
0
0
0
0
0
0
-6.39488e-14
-1.42109e-14
0
-1.42109e-12
-4.47642e-13
3.19744e-14
-2.86704e-11
-1.08002e-11
8.2423e-13
-5.03796e-10
-2.41712e-10
1.88152e-11
-7.0338e-09
-5.06117e-09
3.91072e-10
-8.87541e-08
6.88018e-09
0
0
0
0
0
0
0
0
0
-2.84217e-14
0
0
-8.10019e-13
1.42109e-14
-1.35003e-13
-1.83107e-11
4.1922e-13
-3.61666e-12
-3.77582e-10
1.05658e-11
-8.64873e-11
-6.89123e-09
2.48161e-10
-1.92234e-09
-1.00315e-07
5.3861e-09
-4.13867e-08
9.14297e-08
-2.3922e-07
-5.43686e-07
-2.29203e-07
-2.57898e-07
-1.81032e-07
-2.12149e-07
-1.74093e-07
-1.5212e-07
0
0
0
0
0
0
0
0
0
0
0
0
0
0
0
0
0
0
0
0
0
0
0
0
0
0
0
0
0
0
0
0
0
0
0
0
0
0
0
0
0
0
0
0
0
0
0
0
0
0
0
0
0
0
0
0
0
0
0
0
0
0
0
0
0
0
0
0
0
0
0
0
0
0
0
0
0
0
0
0
0
0
0
0
0
-4.9738e-14
0
0
0
0
0
0
0
0
0
0
0
0
0
0
0
0
0
0
0
0
0
0
0
0
0
-2.84217e-14
-6.39488e-14
0
-1.01608e-12
3.19744e-14
0
0
0
0
0
0
0
0
0
0
0
0
0
0
0
0
0
0
0
0
0
-5.68434e-14
-6.39488e-14
3.55271e-15
-7.03437e-13
-1.19371e-12
4.9738e-14
-1.79128e-11
7.4607e-13
0
0
0
0
0
0
0
0
0
0
0
0
0
0
0
0
0
0
-7.10543e-14
-4.26326e-14
3.55271e-15
-1.11555e-12
-9.09495e-13
5.32907e-14
-1.40048e-11
-1.67546e-11
1.00187e-12
-2.5436e-10
1.54223e-11
0
0
0
0
0
0
0
0
0
0
0
0
0
0
0
-6.39488e-14
-1.42109e-14
0
-1.15108e-12
-4.68958e-13
3.90799e-14
-1.85594e-11
-9.6847e-12
8.91731e-13
-2.34856e-10
-1.76229e-10
1.70104e-11
-2.66818e-09
2.71317e-10
0
0
0
0
0
0
0
0
0
0
0
0
-2.84217e-14
0
-7.10543e-15
-7.60281e-13
1.77636e-14
-1.63425e-13
-1.45377e-11
5.22249e-13
-3.70193e-12
-2.34984e-10
1.14397e-11
-7.50688e-11
-2.97585e-09
2.21583e-10
-1.32975e-09
3.56565e-09
-1.97771e-08
0
0
0
0
0
0
0
0
0
0
0
0
0
0
0
0
0
0
0
0
0
0
0
0
0
0
0
0
0
0
0
0
0
0
0
0
0
0
0
0
0
0
0
0
0
0
0
0
0
0
0
0
0
0
0
0
0
0
0
0
0
0
0
0
0
0
0
0
0
0
0
0
0
0
0
0
0
0
0
0
0
0
0
0
0
0
0
0
0
0
0
0
0
0
0
0
0
0
0
0
0
0
0
0
0
0
0
0
0
0
0
0
0
0
-2.84217e-14
0
0
0
0
0
0
0
0
0
0
0
0
0
0
0
0
0
0
0
0
0
0
0
0
0
-2.13163e-14
-4.26326e-14
0
-6.03961e-13
3.19744e-14
0
0
0
0
0
0
0
0
0
0
0
0
0
0
0
0
0
0
0
0
0
-4.26326e-14
-3.55271e-14
0
-4.83169e-13
-5.7554e-13
3.90799e-14
-8.12861e-12
5.86198e-13
0
0
0
0
0
0
0
0
0
0
0
0
0
0
0
0
0
0
-4.26326e-14
-1.42109e-14
0
-6.25278e-13
-3.48166e-13
3.55271e-14
-7.54596e-12
-5.87619e-12
6.46594e-13
-8.02061e-11
9.58877e-12
0
0
0
0
0
0
0
0
0
0
0
0
0
0
0
-2.13163e-14
0
-7.10543e-15
-5.04485e-13
1.77636e-14
-1.35003e-13
-7.62412e-12
4.54747e-13
-2.66454e-12
-8.83134e-11
8.10019e-12
-4.33786e-11
1.17762e-10
-5.61151e-10
0
0
0
0
0
0
0
0
0
0
0
0
0
0
0
0
0
0
0
0
0
0
0
0
0
0
0
0
0
0
0
0
0
0
0
0
0
0
0
0
0
0
0
0
0
0
0
0
0
0
0
0
0
0
0
0
0
0
0
0
0
0
0
0
0
0
0
0
0
0
0
0
0
0
0
0
0
0
0
0
0
0
0
0
0
0
0
0
0
0
0
0
0
0
-1.42109e-14
0
0
0
0
0
0
0
0
0
0
0
0
0
0
0
0
-1.42109e-14
-1.42109e-14
-2.41585e-13
0
0
0
0
0
0
0
0
0
0
0
0
0
0
-1.42109e-14
-7.10543e-15
-2.20268e-13
-1.84741e-13
-2.3519e-12
0
0
0
0
0
0
0
0
0
0
0
0
-1.42109e-14
0
-2.27374e-13
-7.81597e-14
-2.57216e-12
-1.32871e-12
-1.63567e-11
1.23801e-09
1.60441e-10
6.03842e-09
6.44384e-10
5.39917e-10
9.64704e-11
2.07404e-09
2.02789e-10
9.70033e-11
3.04397e-11
3.84169e-10
4.68745e-11
-1.67211e-09
6.48015e-12
6.36078e-11
1.65841e-11
1.00329e-11
-4.29058e-08
1.63716e-10
4.89013e-10
2.91848e-10
-1.18552e-06
3.70779e-09
1.44843e-08
7.44681e-09
8.49158e-08
4.96983e-07
2.14899e-07
-3.64406e-06
-1.45914e-05
-1.52752e-05
-4.31545e-06
-2.55477e-06
-4.46012e-07
-2.66239e-06
-4.67556e-07
5.39e-06
-6.66002e-05
-0.000422757
1.30413e-05
-7.11818e-07
3.69188e-05
-0.0738168
0.00134348
-0.0149738
0.00257408
0.00589878
-0.000368522
-3.78009e-12
-1.49214e-13
1.42109e-14
-1.289e-10
-6.04672e-12
6.11067e-13
-4.02972e-09
-2.3153e-10
2.27089e-11
-1.20281e-07
-9.42901e-09
7.91559e-10
-9.28851e-08
2.44136e-08
-4.56e-07
-3.09256e-07
-1.87264e-06
-1.01846e-06
-1.13767e-07
-8.96955e-08
-9.22579e-08
-1.41448e-05
1.04795e-06
5.19045e-06
-1.29832e-05
-5.56483e-05
-4.46012e-05
-6.07125e-06
-5.29078e-06
-3.17908e-06
-3.27834e-06
-0.570345
0.00468133
-0.182002
0.0468424
-5.93995
0.398422
-3.97439
5.9761
0.437279
-3.59642
4.98407
-4.82167
-1.91775e-11
-6.11067e-13
7.81597e-14
-7.59968e-10
-2.74696e-11
3.0731e-12
-3.08114e-08
-1.07085e-09
1.25379e-10
-1.94858e-07
-3.83522e-08
5.33018e-09
-2.20159e-07
-2.57422e-07
-2.00063e-07
-7.72729e-07
-1.37256e-07
3.42247e-08
1.04649e-06
2.72641e-06
-4.74207e-05
-1.92194e-05
-1.74332e-05
-5.93022e-05
5.34011e-06
-3.53284e-06
-2.68719e-06
-2.57678e-06
-3.80791e-06
0.00264541
0.00425114
-0.0770985
-0.0111218
0.000347253
-2.31774
0.464972
2.5472
6.06754
-5.99226
-8.0334e-11
-1.66978e-12
3.37508e-13
-2.63898e-09
-5.71276e-11
1.35287e-11
-6.91916e-08
-1.691e-09
5.11722e-10
-3.34159e-07
-4.72416e-08
1.74819e-08
-4.85986e-07
-2.55769e-07
-3.4831e-07
-2.7478e-06
-1.78033e-07
4.01328e-08
1.43441e-07
3.58051e-06
9.07174e-06
-7.70861e-05
-6.76438e-06
7.40908e-07
0.337187
0.379295
-3.04281
-0.65546
0.0468109
0.461958
-2.07724
6.15199
-6.1113
-1.76946e-10
-4.76064e-13
8.17124e-13
-5.37373e-09
-1.1191e-11
3.10543e-11
-1.45497e-07
1.0708e-09
3.43198e-08
-9.9233e-07
-1.78068e-06
-1.12489e-06
-5.97232e-07
-5.81987e-05
-7.72597e-07
1.19684e-06
-1.87709e-06
9.5869e-07
1.34057e-05
-2.64052
-0.0844864
0.172331
-0.327654
0.114211
0.307391
-0.839222
-6.88623
-0.762856
1.23299
7.17901
1.01873
-2.12623e-10
1.14042e-12
3.76588e-13
3.94849e-11
1.69464e-11
-1.12266e-12
-4.9738e-14
3.55271e-15
-3.88454e-11
-1.8332e-12
2.55795e-13
-1.19388e-09
-6.67626e-11
9.27614e-12
-2.97789e-08
-2.21535e-09
3.05473e-10
-6.76386e-08
8.6179e-09
-1.15864e-07
-8.17178e-08
-2.75551e-07
-1.22749e-07
-2.23264e-06
-7.4654e-07
8.44777e-07
2.28918e-07
-1.82718e-06
-3.98206e-06
-1.91181e-06
-2.4645e-06
-0.0470439
-0.00344613
-0.00908475
0.000944244
0.00253175
-5.69605
-1.56607
-3.69891
1.7928
5.38433
-1.34686
-3.28488
1.61611
4.70843
-4.4046
3.52582
-5.2367e-12
-1.91847e-13
3.19744e-14
-1.72683e-10
-7.4678e-12
1.26832e-12
-5.51032e-09
-2.54488e-10
4.47784e-11
-1.73432e-07
-8.97103e-09
1.51745e-09
-1.16792e-06
-8.1074e-08
4.72105e-08
-3.50557e-06
-3.96065e-07
-1.06978e-06
-1.48511e-07
-6.33084e-08
-8.69648e-08
-3.70353e-08
-4.64334e-08
-4.04282e-08
-1.06332e-07
-6.77818e-07
-1.67428e-06
2.67797e-07
3.92501e-07
-2.90864e-06
-4.53907e-06
-2.91124e-06
-2.33912e-06
-0.000259061
0.00010649
0.000210614
-0.00425948
-0.000492158
7.35886e-05
-2.1118
-1.38806
1.64845
2.32285
5.48165
-5.14538
-2.15294e-11
-5.04485e-13
1.38556e-13
-8.09223e-10
-1.80975e-11
5.16209e-12
-2.84969e-08
-6.02689e-10
1.83423e-10
-1.58447e-07
-1.79932e-08
6.14381e-09
-1.87002e-07
-1.95816e-07
-1.49395e-07
-6.80215e-08
-7.90443e-07
-8.20743e-08
6.97307e-08
-1.17441e-06
1.48365e-06
2.56124e-06
-1.00039e-05
-1.69846e-06
1.23121e-06
-0.0411818
0.0174411
0.0274025
-0.391437
-0.0455669
0.0116083
-1.35528
-1.9021
1.59509
5.43756
-5.1065
-5.49534e-11
-1.84741e-13
3.44613e-13
-1.87633e-09
-4.91696e-12
1.27116e-11
-5.23053e-08
4.38956e-10
1.3366e-08
-3.35737e-07
-2.12998e-07
-2.78451e-07
-1.98033e-07
2.52385e-07
-3.58969e-06
-1.23511e-07
-9.75417e-07
1.1934e-06
2.64017e-07
-4.0153e-06
-3.84252e-06
-3.80616e-06
-0.0178852
-0.000223447
0.000351285
-0.00222421
0.000277823
0.000964901
-6.09633
-0.443254
2.50483
-2.54424
0.653094
5.35779
-1.62615
-0.662494
5.27028
0.868369
-4.77092
2.03308
-7.05356e-11
5.08038e-13
9.23706e-14
1.73301e-11
4.30589e-12
-1.56319e-13
-7.10543e-15
0
-5.46407e-12
-2.70006e-13
3.55271e-14
-1.73031e-10
-9.28679e-12
1.33582e-12
-5.08119e-09
-3.08972e-10
4.60147e-11
-1.44618e-07
-1.01359e-08
1.5174e-09
-3.00371e-07
-6.3556e-08
5.06909e-08
-7.56284e-07
-2.51586e-06
-4.37229e-07
-8.05031e-08
-4.18549e-08
-6.21127e-08
-2.38339e-07
-1.89303e-07
-5.9393e-08
-8.17991e-08
1.51926e-07
-1.12322e-06
-2.11194e-07
-1.8616e-07
0.00737614
-0.153187
-0.0381713
-0.0985483
0.00839903
0.0115709
0.000895076
0.000911196
0.00138791
-0.0199901
-0.013083
-0.00531833
-8.02913e-13
-2.84217e-14
3.55271e-15
-2.68301e-11
-1.22213e-12
1.91847e-13
-8.78472e-10
-4.08917e-11
6.57252e-12
-2.591e-08
-1.32334e-09
2.2656e-10
-1.13983e-07
-4.24856e-08
7.83722e-09
-1.71724e-07
-1.12761e-07
-1.02488e-07
-1.05751e-07
-7.02604e-07
-1.00962e-07
7.66579e-08
-2.48508e-06
1.47362e-06
2.62003e-06
-1.00646e-05
-2.15891e-06
2.31794e-06
0.246209
0.414627
-2.65101
-0.839726
-1.62897
0.40342
-3.25429e-12
-9.23706e-14
1.77636e-14
-1.02482e-10
-3.21876e-12
7.63833e-13
-2.92695e-09
-1.02659e-10
2.6386e-11
-7.18114e-08
-3.01695e-09
8.88427e-10
-3.97298e-07
-7.76904e-08
2.69219e-08
-9.57237e-07
-1.55027e-07
-2.16809e-07
-4.75861e-08
-5.25984e-08
-5.11089e-08
-7.36433e-08
-5.4793e-07
-5.03659e-06
-3.68567e-07
1.79001e-07
1.47289e-07
-6.81634e-05
1.17179e-05
3.32727e-05
-0.000433127
-3.71206e-05
1.07542e-05
-5.53909
-1.62294
-2.93404
5.55497
1.81184
2.96951
-8.60467e-12
-4.26326e-14
5.32907e-14
-2.67072e-10
-1.22924e-12
2.01794e-12
-7.57942e-09
6.89795e-11
-2.02004e-07
2.25021e-09
7.20373e-08
-5.5837e-07
-2.50443e-06
-1.88415e-06
-4.48503e-07
-9.32508e-08
-7.53833e-08
-2.05902e-07
2.09199e-06
-8.42073e-06
-8.48878e-07
4.32539e-06
1.34562e-06
-3.06316e-05
-7.72061e-06
-2.34807e-05
-7.18402e-06
-5.64643e-06
-2.55591e-06
-2.37514e-06
0.00442222
-0.110696
-0.00243876
-0.0505444
0.00288062
0.00801086
-5.52563
-2.79801
-1.19575
5.64522
1.41563
2.88477
-1.28395e-11
8.52651e-14
1.42109e-14
3.0056e-12
6.25278e-13
-2.13163e-14
0
0
-7.4607e-13
-3.55271e-14
3.55271e-15
-2.29292e-11
-1.47793e-12
1.84741e-13
-6.53102e-10
-4.69527e-11
6.14619e-12
-1.70205e-08
-1.44686e-09
1.93957e-10
-4.20932e-07
-4.19986e-08
5.90483e-09
-2.72426e-07
2.04563e-07
-5.92235e-07
-1.92212e-06
-6.95636e-06
-1.22852e-06
-6.2002e-07
-2.99567e-07
-2.38065e-06
-7.23296e-07
-2.20205e-07
-3.39632e-07
-0.0107495
-0.00231187
0.000489077
0.000507053
0.000757864
7.14455e-05
-0.00169462
-0.000695033
-0.00069772
0.000140522
-1.27898e-13
0
0
-4.19931e-12
-1.98952e-13
2.84217e-14
-1.30676e-10
-6.71463e-12
1.00897e-12
-3.87031e-09
-2.05276e-10
3.32321e-11
-9.57345e-08
-5.91457e-09
1.08756e-09
-3.72116e-07
-1.70358e-07
3.24652e-08
-6.02853e-07