/*--------------------------------*- C++ -*----------------------------------*\
  =========                 |
  \\      /  F ield         | OpenFOAM: The Open Source CFD Toolbox
   \\    /   O peration     | Website:  https://openfoam.org
    \\  /    A nd           | Version:  9
     \\/     M anipulation  |
\*---------------------------------------------------------------------------*/
FoamFile
{
    format      ascii;
    class       volVectorField;
    location    "0.00215";
    object      U;
}
// * * * * * * * * * * * * * * * * * * * * * * * * * * * * * * * * * * * * * //

dimensions      [0 1 -1 0 0 0 0];

internalField   nonuniform List<vector> 
17581
(
(-6.49639e-15 0 2.19224e-15)
(-4.29598e-13 3.2946e-14 1.42691e-13)
(-1.3034e-11 1.31799e-12 4.81578e-12)
(-3.59016e-10 3.86611e-11 1.39737e-10)
(-9.65585e-09 1.15183e-09 4.0228e-09)
(-2.44515e-07 3.3566e-08 1.17784e-07)
(-4.91645e-06 8.23458e-07 3.04486e-06)
(0 0 -8.22862e-20)
(-1.93916e-14 0 6.29251e-15)
(-7.86344e-13 7.91941e-14 3.7358e-13)
(-2.1516e-11 2.58541e-12 1.12972e-11)
(-5.43034e-10 7.29166e-11 3.08947e-10)
(-1.30428e-08 1.97505e-09 8.30164e-09)
(-2.7561e-07 4.8149e-08 2.07356e-07)
(0 0 0)
(0 0 0)
(-2.92621e-14 1.39208e-15 1.59833e-14)
(-1.00899e-12 1.27144e-13 6.53908e-13)
(-2.47378e-11 3.57982e-12 1.77164e-11)
(-5.49524e-10 8.92669e-11 4.4296e-10)
(-1.10396e-08 2.02328e-09 1.04602e-08)
(0 0 0)
(0 0 0)
(0 0 0)
(-3.13199e-14 2.32014e-15 2.36513e-14)
(-9.57801e-13 1.42147e-13 8.1326e-13)
(-2.05909e-11 3.48408e-12 1.96544e-11)
(-3.82261e-10 7.30864e-11 4.28432e-10)
(0 0 0)
(0 0 0)
(0 0 0)
(0 0 0)
(-2.44138e-14 2.01079e-15 2.49802e-14)
(-6.78667e-13 1.13842e-13 7.22027e-13)
(-1.23997e-11 2.41681e-12 1.49469e-11)
(-4.34863e-06 8.30887e-07 3.94002e-06)
(-1.80754e-07 3.7733e-08 2.1087e-07)
(-5.90845e-09 1.29681e-09 8.26069e-09)
(-1.8034e-10 4.05381e-11 2.6956e-10)
(-5.67919e-05 1.09578e-05 4.46929e-05)
(-27.4271 3.39537 23.274)
(-2.77873e-05 7.09599e-06 3.80494e-05)
(-2.12797e-06 4.79047e-07 2.93375e-06)
(-6.81093e-08 1.73407e-08 1.23073e-07)
(-1.97068e-09 5.23601e-10 3.89928e-09)
(-290.619 36.9088 285.196)
(-0.00204078 0.000597461 0.00368739)
(-4.89818e-05 1.31469e-05 0.000106095)
(-5.30939e-07 1.47004e-07 1.2495e-06)
(-1.50859e-08 4.39484e-09 3.9113e-08)
(-3.78608e-06 6.80551e-08 2.30682e-07)
(-0.00605467 0.000224074 8.86349e-05)
(-266.702 13.6123 7.32262)
(-568.025 29.7156 62.2805)
(-1.05253e-06 2.5422e-08 2.33819e-07)
(-0.000242549 1.57515e-05 5.62265e-05)
(-0.00688031 0.000311173 0.00124675)
(-472.602 24.1047 163.499)
(-498.683 28.1391 162.132)
(-2.28385e-07 8.82696e-10 5.61584e-08)
(-5.86061e-06 6.28463e-08 1.94355e-06)
(-0.0506539 0.00179117 0.0203122)
(-3.39853 0.150252 2.18187)
(-451.669 24.8231 292.149)
(0 0 0)
(-1.04391e-24 0 0)
(-5.30803e-22 0 0)
(-1.26892e-19 0 0)
(-1.62555e-17 0 0)
(-1.40264e-15 -1.54676e-15 0)
(-9.07786e-14 -1.39054e-13 3.09352e-15)
(-1.75119e-12 -3.1161e-12 1.18636e-13)
(-2.44839e-11 -5.5312e-11 2.0896e-12)
(-2.49658e-10 -7.31443e-10 2.91852e-11)
(0 0 0)
(-1.76431e-22 0 0)
(-7.5136e-20 0 0)
(-1.70903e-17 0 0)
(-2.19799e-15 -1.84824e-15 0)
(-1.42295e-13 -1.70287e-13 4.64028e-15)
(-3.41427e-12 -4.73505e-12 1.85611e-13)
(-6.32923e-11 -1.07842e-10 4.29087e-12)
(-9.02359e-10 -1.98588e-09 8.36926e-11)
(-9.1332e-09 -2.63434e-08 1.23032e-09)
(0 0 0)
(-2.77935e-20 0 0)
(-1.06717e-17 0 0)
(-2.65115e-15 -9.25429e-16 0)
(-1.73656e-13 -1.59616e-13 5.56833e-15)
(-4.83326e-12 -5.08332e-12 2.28766e-13)
(-1.13122e-10 -1.40417e-10 6.366e-12)
(-2.20177e-09 -3.37527e-09 1.62304e-10)
(-3.25177e-08 -6.29012e-08 3.43736e-09)
(-3.20732e-07 -7.88221e-07 5.15503e-08)
(0 0 0)
(-3.96407e-18 0 0)
(-1.83827e-15 -1.54676e-16 0)
(-1.57746e-13 -1.13808e-13 3.8669e-15)
(-5.03843e-12 -4.05693e-12 2.29663e-13)
(-1.41295e-10 -1.28581e-10 6.70537e-12)
(-3.51305e-09 -3.76368e-09 2.12245e-10)
(-7.03488e-08 -9.11559e-08 5.89478e-09)
(-1.01922e-06 -1.55956e-06 1.26092e-07)
(-4.401e-06 -1.00667e-05 1.18791e-06)
(0 0 0)
(-4.9993e-16 0 0)
(-1.10333e-13 -5.75249e-14 1.6241e-15)
(-3.89834e-12 -2.37116e-12 1.29572e-13)
(-1.24239e-10 -8.26463e-11 5.16231e-12)
(-3.68201e-09 -2.76894e-09 1.8723e-10)
(-9.21715e-08 -8.19452e-08 6.34613e-09)
(-1.74202e-06 -1.84114e-06 1.6943e-07)
(-7.20722e-06 -9.08203e-06 5.82054e-07)
(-0.000345565 -0.000776793 0.000151306)
(0 0 0)
(-5.53095e-14 -1.90903e-14 6.96042e-16)
(-2.19631e-12 -1.00242e-12 7.36258e-14)
(-7.65173e-11 -3.71501e-11 2.85044e-12)
(-2.54687e-09 -1.3493e-09 1.12052e-10)
(-7.52369e-08 -4.67879e-08 4.36689e-09)
(-1.6951e-06 -1.30923e-06 1.39448e-07)
(-8.19508e-06 -7.56477e-06 5.27975e-07)
(-0.000732536 -0.000805189 3.76982e-05)
(-27.5754 -39.758 11.6336)
(-1.84064e-14 -2.59816e-15 0)
(-8.92912e-13 -3.02072e-13 2.7919e-14)
(-3.2849e-11 -1.19701e-11 1.13246e-12)
(-1.16717e-09 -4.42119e-10 4.55764e-11)
(-3.95386e-08 -1.67571e-08 1.96723e-09)
(-1.07604e-06 -5.80224e-07 7.787e-08)
(-7.5465e-06 -4.9103e-06 4.66301e-07)
(-0.000562496 -0.000415604 2.3451e-05)
(-424.731 -395.721 19.6234)
(-360.99 -435.676 137.477)
(-2.58309e-13 -6.00143e-14 4.33093e-15)
(-1.00726e-11 -2.90512e-12 3.2714e-13)
(-3.61145e-10 -1.09098e-10 1.30128e-11)
(-1.3037e-08 -3.99701e-09 5.53123e-10)
(-4.52985e-07 -1.52577e-07 2.62862e-08)
(-4.72825e-05 -1.99066e-05 1.9459e-06)
(-2.52413 -1.22157 0.0374643)
(-466.209 -328.77 18.1707)
(-391.483 -312.586 23.3538)
(0 0 0)
(-9.89085e-26 0 0)
(-6.82312e-23 0 0)
(-1.93706e-20 0 0)
(-3.05371e-18 0 0)
(-3.24204e-16 0 0)
(-2.26571e-14 -3.8669e-14 4.40827e-15)
(-5.01086e-13 -8.98822e-13 1.94892e-13)
(-6.98694e-12 -1.52415e-11 3.62847e-12)
(-7.11782e-11 -1.94708e-10 4.66018e-11)
(0 0 0)
(-1.8738e-23 0 0)
(-1.09603e-20 0 0)
(-2.79451e-18 0 0)
(-4.01475e-16 0 0)
(-3.77369e-14 -4.58004e-14 6.34171e-15)
(-9.72182e-13 -1.33587e-12 3.23737e-13)
(-1.73971e-11 -2.9043e-11 7.21393e-12)
(-2.36785e-10 -5.06988e-10 1.23837e-10)
(-2.41242e-09 -6.31129e-09 1.54974e-09)
(0 0 0)
(-3.51349e-21 0 0)
(-1.65697e-18 0 0)
(-3.65072e-16 0 0)
(-4.73402e-14 -4.30301e-14 6.7284e-15)
(-1.36041e-12 -1.43924e-12 3.87618e-13)
(-3.0361e-11 -3.74613e-11 1.03393e-11)
(-5.58698e-10 -8.58213e-10 2.2637e-10)
(-7.77945e-09 -1.58417e-08 3.92185e-09)
(-8.31301e-08 -2.07002e-07 4.75202e-08)
(0 0 0)
(-6.28632e-19 0 0)
(-2.27927e-16 0 0)
(-4.24788e-14 -2.87512e-14 5.33632e-15)
(-1.42912e-12 -1.16257e-12 3.62947e-13)
(-3.77128e-11 -3.45803e-11 1.09314e-11)
(-8.9334e-10 -9.6332e-10 2.88648e-10)
(-1.80357e-08 -2.49204e-08 6.60967e-09)
(-2.70163e-07 -4.70765e-07 1.12362e-07)
(-2.80174e-06 -5.50358e-06 1.26793e-06)
(0 0 0)
(-1.0205e-16 0 0)
(-2.75286e-14 -1.40041e-14 2.86151e-15)
(-1.11551e-12 -6.90943e-13 2.47791e-13)
(-3.34939e-11 -2.27585e-11 8.60223e-12)
(-9.44512e-10 -7.1349e-10 2.59424e-10)
(-2.55781e-08 -2.28197e-08 7.23909e-09)
(-5.58832e-07 -6.43213e-07 1.73218e-07)
(-3.43367e-06 -4.69953e-06 1.2859e-06)
(-0.000252605 -0.00047123 0.000111043)
(0 0 0)
(-1.42319e-14 -2.46501e-15 8.50718e-16)
(-6.47007e-13 -2.94263e-13 1.25829e-13)
(-2.11801e-11 -1.06447e-11 4.95605e-12)
(-6.58592e-10 -3.49618e-10 1.62998e-10)
(-2.09748e-08 -1.20315e-08 5.1132e-09)
(-6.31845e-07 -4.47761e-07 1.52425e-07)
(-5.69055e-06 -5.06118e-06 1.53439e-06)
(-7.99151e-05 -9.41764e-05 2.7881e-05)
(-8.24217 -12.9305 4.16416)
(-2.47482e-15 0 0)
(-2.61314e-13 -8.41709e-14 4.21492e-14)
(-9.44707e-12 -3.57723e-12 2.04946e-12)
(-3.04636e-10 -1.22417e-10 7.12882e-11)
(-9.90624e-09 -4.09552e-09 2.34e-09)
(-3.57753e-07 -1.55419e-07 7.56387e-08)
(-5.45738e-06 -3.35671e-06 1.31506e-06)
(-7.90726e-05 -6.03488e-05 2.10312e-05)
(-401.747 -373.836 170.896)
(-355.567 -429.042 174.613)
(-7.64099e-14 -1.26834e-14 7.32754e-15)
(-3.03621e-12 -8.61855e-13 6.06754e-13)
(-1.02211e-10 -3.21158e-11 2.23877e-11)
(-3.18596e-09 -1.11074e-09 7.51369e-10)
(-9.46504e-08 -3.60225e-08 2.27719e-08)
(-2.86426e-06 -1.23753e-06 6.37315e-07)
(-0.125807 -0.0547304 0.0306332)
(-404.141 -280.515 154.519)
(-375.257 -292.389 182.94)
(-271.891 -248.791 107.522)
(0 0 0)
(-1.81003e-27 0 0)
(-1.91097e-24 0 0)
(-6.81641e-22 0 0)
(-1.3107e-19 0 0)
(-1.45724e-17 0 0)
(-1.06634e-15 -1.39208e-15 0)
(-5.53164e-14 -1.08892e-13 1.99532e-14)
(-8.72385e-13 -1.9367e-12 4.68436e-13)
(-8.97631e-12 -2.52023e-11 6.21714e-12)
(0 0 0)
(-3.41787e-25 0 0)
(-3.0799e-22 0 0)
(-9.73708e-20 0 0)
(-1.8249e-17 0 0)
(-1.62767e-15 -2.0071e-15 0)
(-1.11165e-13 -1.59804e-13 3.64262e-14)
(-2.18195e-12 -3.6311e-12 9.42827e-13)
(-3.02051e-11 -6.43065e-11 1.63196e-11)
(-3.00471e-10 -8.40485e-10 2.12087e-10)
(0 0 0)
(-6.25608e-23 0 0)
(-4.62463e-20 0 0)
(-1.44387e-17 0 0)
(-2.82057e-15 -1.5443e-15 0)
(-1.63937e-13 -1.7607e-13 4.44693e-14)
(-3.79523e-12 -4.71817e-12 1.3528e-12)
(-6.97888e-11 -1.06221e-10 2.9694e-11)
(-9.87603e-10 -1.96446e-09 5.36122e-10)
(-9.95517e-09 -2.58513e-08 7.06992e-09)
(0 0 0)
(-1.08474e-20 0 0)
(-6.68889e-18 0 0)
(-2.42736e-15 -4.63676e-16 0)
(-1.75616e-13 -1.41093e-13 4.25359e-14)
(-4.76495e-12 -4.45383e-12 1.45364e-12)
(-1.09975e-10 -1.20183e-10 3.80961e-11)
(-2.15243e-09 -2.92123e-09 9.0502e-10)
(-3.18151e-08 -5.5565e-08 1.77118e-08)
(-3.45459e-07 -7.03349e-07 2.46401e-07)
(0 0 0)
(-1.72654e-18 0 0)
(-1.21805e-15 0 0)
(-1.38303e-13 -8.44652e-14 2.7455e-14)
(-4.33299e-12 -3.05082e-12 1.15195e-12)
(-1.18899e-10 -9.35294e-11 3.4649e-11)
(-2.98245e-09 -2.74147e-09 1.00099e-09)
(-6.16396e-08 -7.05781e-08 2.70588e-08)
(-8.86289e-07 -1.23207e-06 5.32783e-07)
(-1.20951e-05 -2.15471e-05 1.09445e-05)
(0 0 0)
(-2.44593e-16 0 0)
(-8.07845e-14 -3.36643e-14 1.36115e-14)
(-2.86686e-12 -1.48408e-12 6.75547e-13)
(-8.8418e-11 -4.96598e-11 2.2289e-11)
(-2.60644e-09 -1.61837e-09 7.22435e-10)
(-6.92896e-08 -5.09799e-08 2.38393e-08)
(-1.37992e-06 -1.28024e-06 6.78617e-07)
(-5.57681e-06 -6.28783e-06 2.53714e-06)
(-0.0105133 -0.0163545 0.0133388)
(0 0 0)
(-3.02783e-14 -6.9268e-15 2.93884e-15)
(-1.33088e-12 -5.01895e-13 2.71766e-13)
(-4.46495e-11 -1.80032e-11 1.00259e-11)
(-1.4331e-09 -6.10164e-10 3.3984e-10)
(-4.43756e-08 -2.12301e-08 1.20431e-08)
(-1.12756e-06 -6.98212e-07 4.28354e-07)
(-6.67236e-06 -5.00967e-06 2.38916e-06)
(-0.000650511 -0.000579791 0.000370277)
(-145.138 -158.427 147.014)
(-6.34171e-15 -1.54676e-16 4.67138e-16)
(-4.33717e-13 -1.11212e-13 7.64222e-14)
(-1.53135e-11 -4.59805e-12 3.2127e-12)
(-5.05286e-10 -1.57756e-10 1.11236e-10)
(-1.67607e-08 -5.34299e-09 3.87419e-09)
(-5.40854e-07 -1.87158e-07 1.47094e-07)
(-5.9473e-06 -2.4236e-06 2.43104e-06)
(-0.000160402 -8.97729e-05 9.76221e-05)
(-108.922 -83.838 94.9949)
(-337.527 -291.184 298.443)
(0 0 0)
(-2.26143e-29 0 0)
(-4.55826e-26 0 0)
(-2.13797e-23 0 0)
(-5.10272e-21 0 0)
(-6.92566e-19 0 0)
(-5.89558e-17 0 0)
(-2.50084e-15 -8.3525e-15 6.96042e-16)
(-9.72678e-14 -2.20723e-13 4.74082e-14)
(-1.14862e-12 -3.04246e-12 7.71835e-13)
(0 0 0)
(-5.20471e-27 0 0)
(-7.26819e-24 0 0)
(-3.21015e-21 0 0)
(-7.3731e-19 0 0)
(-9.71343e-17 0 0)
(-8.41055e-15 -1.2775e-14 1.85611e-15)
(-2.35122e-13 -3.86549e-13 1.02086e-13)
(-3.55986e-12 -7.03414e-12 1.97684e-12)
(-3.75849e-11 -9.62304e-11 2.62698e-11)
(0 0 0)
(-9.86895e-25 0 0)
(-1.15686e-21 0 0)
(-4.92909e-19 0 0)
(-1.06172e-16 0 0)
(-1.30903e-14 -1.38519e-14 2.47482e-15)
(-4.05369e-13 -4.94372e-13 1.53748e-13)
(-7.53187e-12 -1.09334e-11 3.5154e-12)
(-1.08375e-10 -1.97652e-10 6.28472e-11)
(-1.15181e-09 -2.76135e-09 8.49557e-10)
(0 0 0)
(-1.71333e-22 0 0)
(-1.90514e-19 0 0)
(-7.59491e-17 0 0)
(-1.42388e-14 -1.01617e-14 2.32014e-15)
(-4.96254e-13 -4.6906e-13 1.66277e-13)
(-1.12419e-11 -1.20901e-11 4.4931e-12)
(-2.10702e-10 -2.71974e-10 1.01871e-10)
(-3.15812e-09 -5.16539e-09 1.93824e-09)
(-3.51848e-08 -7.39058e-08 2.73593e-08)
(0 0 0)
(-2.80643e-20 0 0)
(-3.20137e-17 0 0)
(-1.08645e-14 -4.46983e-15 1.39208e-15)
(-4.6077e-13 -3.26276e-13 1.33795e-13)
(-1.19901e-11 -9.63671e-12 4.1655e-12)
(-2.75436e-10 -2.53273e-10 1.12718e-10)
(-5.47785e-09 -6.05782e-09 2.79172e-09)
(-8.54759e-08 -1.16845e-07 5.57317e-08)
(-9.92578e-07 -1.57653e-06 7.83141e-07)
(0 0 0)
(-5.07453e-18 0 0)
(-4.97498e-15 -1.08063e-15 3.8669e-16)
(-3.08102e-13 -1.62018e-13 7.74153e-14)
(-9.19477e-12 -5.48005e-12 2.80203e-12)
(-2.44002e-10 -1.59724e-10 8.54643e-11)
(-5.95133e-09 -4.43599e-09 2.52068e-09)
(-1.21085e-07 -1.09453e-07 6.62738e-08)
(-1.78657e-06 -1.9432e-06 1.26654e-06)
(-2.45651e-05 -3.36303e-05 2.15695e-05)
(0 0 0)
(-1.23523e-15 0 0)
(-1.51556e-13 -5.62002e-14 2.88471e-14)
(-5.00866e-12 -2.19569e-12 1.33261e-12)
(-1.46138e-10 -6.84838e-11 4.39896e-11)
(-4.03764e-09 -2.05446e-09 1.4225e-09)
(-1.00494e-07 -5.9631e-08 4.4635e-08)
(-1.86229e-06 -1.41923e-06 1.12166e-06)
(-8.55766e-06 -7.63015e-06 4.9485e-06)
(-0.00819425 -0.00939244 0.00675357)
(0 0 1.31377e-18)
(-4.978e-14 -8.97121e-15 6.50955e-15)
(-1.9056e-12 -6.17776e-13 4.42262e-13)
(-5.92307e-11 -2.05759e-11 1.53932e-11)
(-1.7401e-09 -6.39467e-10 5.11383e-10)
(-4.90507e-08 -1.9297e-08 1.7372e-08)
(-1.18665e-06 -5.56976e-07 5.64782e-07)
(-8.43049e-06 -4.47605e-06 4.97594e-06)
(-0.00565209 -0.003762 0.00347797)
(-64.2573 -58.9957 43.906)
(0 0 0)
(4.88399e-32 0 0)
(-4.69426e-28 0 0)
(-3.79784e-25 0 0)
(-1.23951e-22 0 0)
(-2.0503e-20 0 0)
(-2.20726e-18 0 0)
(-1.41646e-16 0 0)
(-4.61924e-15 -1.80971e-14 2.39748e-15)
(-1.15698e-13 -3.2213e-13 8.19471e-14)
(0 0 0)
(-2.10241e-29 0 0)
(-8.13691e-26 0 0)
(-6.02329e-23 0 0)
(-1.81669e-20 0 0)
(-2.78834e-18 0 0)
(-2.88027e-16 0 0)
(-1.80339e-14 -3.19671e-14 6.88308e-15)
(-3.59638e-13 -6.87771e-13 2.08581e-13)
(-4.18894e-12 -1.0115e-11 3.07209e-12)
(0 0 0)
(-5.37088e-27 0 0)
(-1.39834e-23 0 0)
(-9.45043e-21 0 0)
(-2.55698e-18 0 0)
(-3.54722e-16 0 0)
(-3.37957e-14 -3.97902e-14 1.20647e-14)
(-7.34339e-13 -1.03828e-12 3.64339e-13)
(-1.11517e-11 -1.91296e-11 6.66978e-12)
(-1.24885e-10 -2.81e-10 9.32361e-11)
(0 0 0)
(-1.07628e-24 0 0)
(-2.41139e-21 0 0)
(-1.43052e-18 0 0)
(-3.30688e-16 0 0)
(-3.99136e-14 -3.79515e-14 1.22194e-14)
(-1.06085e-12 -1.12416e-12 4.56603e-13)
(-2.013e-11 -2.50893e-11 1.01757e-11)
(-3.09733e-10 -4.77778e-10 1.87295e-10)
(-3.58685e-09 -7.42539e-09 2.72735e-09)
(0 0 0)
(-2.0438e-22 0 0)
(-4.11189e-19 0 0)
(-1.99951e-16 0 0)
(-3.75128e-14 -2.49057e-14 1.0518e-14)
(-1.11756e-12 -9.05974e-13 4.26906e-13)
(-2.52907e-11 -2.32171e-11 1.10259e-11)
(-4.96359e-10 -5.33809e-10 2.5111e-10)
(-8.19814e-09 -1.09414e-08 4.94126e-09)
(-1.03907e-07 -1.85427e-07 7.70206e-08)
(0 0 0)
(-4.13371e-20 0 0)
(-6.68477e-17 0 0)
(-2.42415e-14 -1.00067e-14 4.87229e-15)
(-8.68412e-13 -5.28621e-13 2.91719e-13)
(-2.24936e-11 -1.52413e-11 8.59256e-12)
(-5.24808e-10 -3.96969e-10 2.26882e-10)
(-1.10912e-08 -9.75999e-09 5.54035e-09)
(-2.0083e-07 -2.15631e-07 1.14826e-07)
(-2.76142e-06 -3.77553e-06 1.85109e-06)
(0 0 0)
(-9.46886e-18 0 0)
(-9.82141e-15 -1.69618e-15 1.16007e-15)
(-4.86648e-13 -2.17433e-13 1.39286e-13)
(-1.41463e-11 -7.03328e-12 4.76015e-12)
(-3.69458e-10 -1.97741e-10 1.38246e-10)
(-9.10708e-09 -5.3332e-09 3.84539e-09)
(-2.04387e-07 -1.3839e-07 9.80973e-08)
(-3.67737e-06 -3.00489e-06 1.95892e-06)
(-5.89421e-05 -6.6168e-05 4.4809e-05)
(0 0 0)
(-2.02574e-15 0 5.62042e-17)
(-1.93714e-13 -5.97049e-14 4.58118e-14)
(-6.20162e-12 -2.29663e-12 1.84797e-12)
(-1.73597e-10 -6.84938e-11 5.69907e-11)
(-4.59211e-09 -1.92264e-09 1.68285e-09)
(-1.15536e-07 -5.28592e-08 4.83878e-08)
(-2.49425e-06 -1.47179e-06 1.22805e-06)
(-0.000350687 -0.000253976 0.000210881)
(-10.4949 -9.34204 7.14935)
(0 0 0)
(-1.03866e-34 0 0)
(-1.08431e-30 0 0)
(-2.2668e-27 0 0)
(-1.20826e-24 0 0)
(-2.92735e-22 0 0)
(-4.10003e-20 0 0)
(-3.28634e-18 0 0)
(-1.57079e-16 0 0)
(-2.62949e-15 -1.85462e-14 4.18973e-15)
(0 0 0)
(-1.45892e-32 0 0)
(-2.23224e-28 0 0)
(-3.8951e-25 0 0)
(-1.87468e-22 0 0)
(-4.18453e-20 0 0)
(-5.36865e-18 0 0)
(-4.12872e-16 0 0)
(-1.95859e-14 -4.28547e-14 1.44622e-14)
(-3.01773e-13 -7.18969e-13 2.9052e-13)
(0 0 0)
(-3.60468e-30 0 0)
(-4.52149e-26 0 0)
(-6.6097e-23 0 0)
(-2.79503e-20 0 0)
(-5.56433e-18 0 0)
(-6.37326e-16 0 0)
(-4.57033e-14 -6.57088e-14 2.68363e-14)
(-7.92543e-13 -1.3407e-12 6.09887e-13)
(-9.32047e-12 -1.99552e-11 9.00521e-12)
(0 0 0)
(-9.31107e-28 0 0)
(-9.11694e-24 0 0)
(-1.09595e-20 0 0)
(-3.87542e-18 0 0)
(-6.62056e-16 0 0)
(-6.62669e-14 -6.99998e-14 3.51114e-14)
(-1.40439e-12 -1.72539e-12 9.06479e-13)
(-2.17194e-11 -3.24535e-11 1.68174e-11)
(-2.54624e-10 -4.97993e-10 2.50407e-10)
(0 0 0)
(-2.22539e-25 0 0)
(-1.8127e-21 0 0)
(-1.72157e-18 0 0)
(-4.81406e-16 0 0)
(-6.92052e-14 -5.39065e-14 3.13992e-14)
(-1.73716e-12 -1.59963e-12 9.67962e-13)
(-3.34985e-11 -3.58425e-11 2.16341e-11)
(-5.37882e-10 -7.02256e-10 4.17266e-10)
(-6.64292e-09 -1.15893e-08 6.66434e-09)
(0 0 0)
(-4.83428e-23 0 0)
(-3.42452e-19 0 0)
(-2.42974e-16 0 0)
(-5.20258e-14 -3.01194e-14 2.18866e-14)
(-1.55058e-12 -1.07054e-12 7.6e-13)
(-3.53437e-11 -2.73814e-11 1.95749e-11)
(-7.09664e-10 -6.32719e-10 4.53521e-10)
(-1.23651e-08 -1.34253e-08 9.49261e-09)
(-1.66517e-07 -2.41715e-07 1.67667e-07)
(0 0 0)
(-1.02979e-20 0 0)
(-5.95158e-17 0 0)
(-2.87967e-14 -1.0009e-14 8.3525e-15)
(-1.00319e-12 -5.09481e-13 4.34021e-13)
(-2.57804e-11 -1.44562e-11 1.24984e-11)
(-6.00412e-10 -3.68971e-10 3.25578e-10)
(-1.29562e-08 -8.99269e-09 8.05843e-09)
(-2.45962e-07 -2.06119e-07 1.82926e-07)
(-3.32066e-06 -3.66929e-06 3.29782e-06)
(0 0 0)
(-2.82023e-18 0 0)
(-9.50608e-15 -1.08273e-15 1.95353e-15)
(-4.51079e-13 -1.6241e-13 1.69967e-13)
(-1.29052e-11 -5.29131e-12 5.55276e-12)
(-3.28412e-10 -1.44172e-10 1.55208e-10)
(-7.89191e-09 -3.71087e-09 4.14206e-09)
(-1.78626e-07 -9.50115e-08 1.0724e-07)
(-3.25468e-06 -2.24755e-06 2.38752e-06)
(-0.000373919 -0.00032028 0.000356193)
(0 0 0)
(-4.37121e-37 0 0)
(-2.9325e-34 0 0)
(-3.41983e-30 0 0)
(-4.74739e-27 0 0)
(-2.03751e-24 0 0)
(-3.68005e-22 0 0)
(-3.89464e-20 0 0)
(-2.36258e-18 0 0)
(-1.1744e-25 -5.00062e-17 1.52008e-17)
(0 0 0)
(-2.10393e-35 0 0)
(-7.94384e-32 0 0)
(-6.80259e-28 0 0)
(-8.17443e-25 0 0)
(-3.16216e-22 0 0)
(-5.19374e-20 0 0)
(-5.13054e-18 0 0)
(-3.08995e-16 0 0)
(-9.58991e-15 -3.30201e-14 1.5548e-14)
(0 0 0)
(-9.51567e-34 0 0)
(-2.01425e-29 0 0)
(-1.33179e-25 0 0)
(-1.37104e-22 0 0)
(-4.64129e-20 0 0)
(-6.78241e-18 0 0)
(-6.14718e-16 0 0)
(-3.57941e-14 -6.31099e-14 3.47248e-14)
(-4.9651e-13 -1.04049e-12 6.10002e-13)
(0 0 0)
(-4.31141e-32 0 0)
(-4.8326e-27 0 0)
(-2.59065e-23 0 0)
(-2.1875e-20 0 0)
(-6.21538e-18 0 0)
(-7.91906e-16 0 7.7338e-17)
(-6.48426e-14 -8.11984e-14 5.43686e-14)
(-1.12524e-12 -1.66916e-12 1.11815e-12)
(-1.3396e-11 -2.51828e-11 1.67396e-11)
(0 0 0)
(-3.34895e-30 0 0)
(-1.14016e-24 0 0)
(-4.9592e-21 0 0)
(-3.20255e-18 0 0)
(-7.35157e-16 0 7.7338e-17)
(-8.15254e-14 -7.6904e-14 5.83902e-14)
(-1.72107e-12 -1.84782e-12 1.41761e-12)
(-2.69525e-11 -3.47353e-11 2.67709e-11)
(-3.20995e-10 -5.36646e-10 4.13587e-10)
(0 0 0)
(-9.34448e-28 0 0)
(-2.79083e-22 0 0)
(-8.99289e-19 0 0)
(-4.13448e-16 0 0)
(-7.52823e-14 -4.82305e-14 4.4392e-14)
(-1.82776e-12 -1.43643e-12 1.29417e-12)
(-3.50959e-11 -3.16965e-11 2.89427e-11)
(-5.65199e-10 -6.13437e-10 5.68473e-10)
(-7.04228e-09 -1.00549e-08 9.43766e-09)
(0 0 0)
(-4.08803e-25 0 0)
(-7.03905e-20 0 0)
(-1.44854e-16 0 0)
(-4.57196e-14 -2.04537e-14 2.49802e-14)
(-1.35204e-12 -7.73282e-13 8.41437e-13)
(-3.03545e-11 -1.93334e-11 2.14761e-11)
(-5.9838e-10 -4.30605e-10 4.94275e-10)
(-1.02415e-08 -8.7444e-09 1.04231e-08)
(-1.35147e-07 -1.51479e-07 1.85824e-07)
(0 0 0)
(-1.689e-22 0 0)
(-1.61934e-17 0 4.59333e-18)
(-1.90071e-14 -3.09352e-15 7.79484e-15)
(-6.96675e-13 -2.84913e-13 3.83661e-13)
(-1.74962e-11 -7.99706e-12 1.08997e-11)
(-3.89743e-10 -1.93118e-10 2.75127e-10)
(-7.9153e-09 -4.32907e-09 6.55083e-09)
(-1.40984e-07 -9.16249e-08 1.44588e-07)
(-1.9411e-06 -1.60845e-06 2.46592e-06)
(0 0 0)
(0 0 0)
(-1.70822e-40 0 0)
(-5.38084e-34 0 0)
(-4.68953e-30 0 0)
(-5.30437e-27 0 0)
(-1.74105e-24 0 0)
(-2.54894e-22 0 0)
(-2.05314e-20 0 0)
(-2.56746e-28 0 0)
(0 0 0)
(0 0 0)
(-8.45237e-38 0 0)
(-1.4192e-31 0 0)
(-9.51472e-28 0 0)
(-9.26562e-25 0 0)
(-2.71658e-22 0 0)
(-3.68829e-20 0 0)
(-2.8221e-18 0 0)
(-5.62978e-26 -6.51225e-17 4.5126e-17)
(0 0 0)
(0 0 0)
(-4.06903e-35 0 0)
(-3.52282e-29 0 0)
(-1.91299e-25 0 0)
(-1.57944e-22 0 0)
(-4.04217e-20 0 0)
(-4.98246e-18 0 0)
(-3.60733e-16 0 0)
(-1.39208e-14 -3.81819e-14 2.69809e-14)
(0 0 0)
(0 0 0)
(-1.9282e-32 0 0)
(-8.33025e-27 0 0)
(-3.80206e-23 0 0)
(-2.54552e-20 0 0)
(-5.51575e-18 0 0)
(-6.01445e-16 0 2.32014e-16)
(-3.99766e-14 -6.21815e-14 5.11204e-14)
(-5.62247e-13 -1.04439e-12 8.47034e-13)
(0 0 0)
(0 0 0)
(-8.90675e-30 0 0)
(-1.94619e-24 0 0)
(-7.27469e-21 0 0)
(-3.71927e-18 0 0)
(-6.65034e-16 0 4.64028e-16)
(-6.32294e-14 -6.95483e-14 6.50412e-14)
(-1.10972e-12 -1.42252e-12 1.33369e-12)
(-1.31252e-11 -2.13126e-11 2.0172e-11)
(0 0 0)
(0 0 0)
(-3.88265e-27 0 0)
(-4.70427e-22 0 0)
(-1.27754e-18 0 0)
(-4.73702e-16 0 2.32014e-16)
(-6.90632e-14 -5.32953e-14 6.16384e-14)
(-1.44175e-12 -1.31946e-12 1.44707e-12)
(-2.23042e-11 -2.42456e-11 2.71967e-11)
(-2.61601e-10 -3.64025e-10 4.19064e-10)
(0 0 0)
(0 0 0)
(-1.53106e-24 0 0)
(-1.1703e-19 0 0)
(-1.944e-16 0 0)
(-5.14621e-14 -2.50554e-14 3.66582e-14)
(-1.26889e-12 -8.2135e-13 1.09487e-12)
(-2.37996e-11 -1.76063e-11 2.41025e-11)
(-3.70168e-10 -3.22752e-10 4.6209e-10)
(-4.40057e-09 -4.91618e-09 7.44517e-09)
(0 0 0)
(0 0 0)
(-5.24895e-22 0 0)
(-2.73766e-17 0 1.68101e-17)
(-2.39288e-14 -5.56833e-15 1.59776e-14)
(-7.42635e-13 -3.3673e-13 5.65272e-13)
(-1.617e-11 -8.30718e-12 1.41135e-11)
(-2.99886e-10 -1.71859e-10 3.0891e-10)
(-4.68986e-09 -3.11864e-09 6.05355e-09)
(-5.57138e-08 -4.70465e-08 9.86129e-08)
(0 0 0)
(0 0 0)
(0 0 0)
(-1.59288e-40 0 0)
(-4.16173e-34 0 0)
(-3.66903e-30 0 0)
(-3.18793e-27 0 0)
(-7.99208e-25 0 0)
(-9.27286e-23 0 0)
(-1.75002e-31 0 0)
(0 0 0)
(0 0 0)
(0 0 0)
(-8.26319e-38 0 0)
(-1.14271e-31 0 0)
(-7.40638e-28 0 0)
(-5.56535e-25 0 0)
(-1.27869e-22 0 0)
(-1.37563e-20 0 0)
(-4.42817e-29 0 0)
(0 0 0)
(0 0 0)
(0 0 0)
(-4.16886e-35 0 0)
(-2.94366e-29 0 0)
(-1.47954e-25 0 0)
(-9.61058e-23 0 0)
(-1.9976e-20 0 0)
(-2.00195e-18 0 0)
(-1.0675e-26 -6.02063e-17 6.8298e-17)
(0 0 0)
(0 0 0)
(0 0 0)
(-2.07109e-32 0 0)
(-7.16094e-27 0 0)
(-2.94516e-23 0 0)
(-1.60037e-20 0 0)
(-2.92416e-18 0 0)
(-2.69927e-16 0 0)
(-1.31475e-14 -3.05757e-14 3.17276e-14)
(0 0 0)
(0 0 0)
(0 0 0)
(-1.0043e-29 0 0)
(-1.70783e-24 0 0)
(-5.71332e-21 0 0)
(-2.45491e-18 0 0)
(-3.80915e-16 0 0)
(-3.14122e-14 -4.23992e-14 4.91096e-14)
(-4.5351e-13 -7.30029e-13 8.17742e-13)
(0 0 0)
(0 0 0)
(0 0 0)
(-4.59957e-27 0 0)
(-4.25387e-22 0 0)
(-1.02579e-18 0 0)
(-3.2898e-16 0 0)
(-4.24871e-14 -3.80972e-14 5.28218e-14)
(-7.60553e-13 -8.28845e-13 1.0907e-12)
(-8.9132e-12 -1.22012e-11 1.6303e-11)
(0 0 0)
(0 0 0)
(0 0 0)
(-1.90007e-24 0 0)
(-1.11646e-19 0 0)
(-1.60184e-16 0 0)
(-3.70324e-14 -2.18356e-14 4.24586e-14)
(-8.15958e-13 -6.15097e-13 9.81264e-13)
(-1.24026e-11 -1.0986e-11 1.79983e-11)
(-1.3915e-10 -1.54756e-10 2.6711e-10)
(0 0 0)
(0 0 0)
(0 0 0)
(-6.74778e-22 0 0)
(-2.75983e-17 0 2.77173e-17)
(-2.06265e-14 -5.41366e-15 1.8378e-14)
(-5.68613e-13 -2.92028e-13 5.85768e-13)
(-1.03491e-11 -6.12981e-12 1.25298e-11)
(-1.4965e-10 -1.03064e-10 2.24965e-10)
(-1.61129e-09 -1.38627e-09 3.2928e-09)
(0 0 0)
(0 0 0)
(0 0 0)
(0 0 0)
(-4.9894e-41 0 0)
(-1.50111e-34 0 0)
(-1.29013e-30 0 0)
(-1.01955e-27 0 0)
(-2.07731e-25 0 0)
(-9.91048e-36 0 0)
(0 0 0)
(0 0 0)
(0 0 0)
(0 0 0)
(-2.69097e-38 0 0)
(-4.26817e-32 0 0)
(-2.64476e-28 0 0)
(-1.79994e-25 0 0)
(-3.27275e-23 0 0)
(-3.38274e-33 0 0)
(0 0 0)
(0 0 0)
(0 0 0)
(0 0 0)
(-1.35342e-35 0 0)
(-1.15175e-29 0 0)
(-5.31318e-26 0 0)
(-3.14751e-23 0 0)
(-5.1797e-21 0 0)
(-1.10195e-30 0 0)
(0 0 0)
(0 0 0)
(0 0 0)
(0 0 0)
(-6.51788e-33 0 0)
(-2.9131e-27 0 0)
(-1.06749e-23 0 0)
(-5.4419e-21 0 0)
(-8.18213e-19 0 0)
(-3.36534e-28 -3.00484e-17 6.85393e-17)
(0 0 0)
(0 0 0)
(0 0 0)
(0 0 0)
(-3.10215e-30 0 0)
(-6.93052e-25 0 0)
(-2.15627e-21 0 0)
(-9.09187e-19 0 0)
(-1.24288e-16 0 0)
(-6.49639e-15 -1.56467e-14 2.47982e-14)
(0 0 0)
(0 0 0)
(0 0 0)
(0 0 0)
(-1.47591e-27 0 0)
(-1.6246e-22 0 0)
(-4.23951e-19 0 0)
(-1.40223e-16 0 0)
(-1.67e-14 -1.87158e-14 3.13992e-14)
(-2.58773e-13 -3.52823e-13 5.35434e-13)
(0 0 0)
(0 0 0)
(0 0 0)
(0 0 0)
(-6.79782e-25 0 0)
(-4.11018e-20 0 0)
(-7.61857e-17 0 0)
(-1.87491e-14 -1.16007e-14 2.88471e-14)
(-3.58216e-13 -3.24356e-13 5.89625e-13)
(-4.1399e-12 -4.59617e-12 8.47588e-12)
(0 0 0)
(0 0 0)
(0 0 0)
(0 0 0)
(-2.83583e-22 0 0)
(-1.14262e-17 0 0)
(-1.15654e-14 -3.40287e-15 1.58543e-14)
(-3.05066e-13 -1.76795e-13 4.24508e-13)
(-4.48514e-12 -3.16483e-12 7.29413e-12)
(-4.66833e-11 -4.06487e-11 1.00609e-10)
(-1.32531e-07 9.04701e-10 6.4975e-09)
(-4.56237e-08 1.66927e-10 9.89232e-09)
(-8.48299e-09 -1.39852e-11 1.77071e-09)
(-1.39443e-09 -5.76276e-12 3.11e-10)
(-3.63528e-08 -1.08248e-10 9.19831e-09)
(-9.31492e-07 -1.23818e-09 2.69808e-07)
(-2.61035e-05 -5.0418e-09 9.83866e-06)
(-0.00883866 0.00035602 0.00305936)
(-1.84565 0.0908325 0.736649)
(-2.25409e-12 -4.2704e-13 7.03776e-14)
(-8.5742e-11 -1.74883e-11 2.94217e-12)
(-2.89301e-09 -6.61414e-10 1.14798e-10)
(-8.95963e-08 -2.45319e-08 4.36171e-09)
(-2.66045e-06 -8.45775e-07 1.78156e-07)
(-0.000428675 -0.00016622 1.89282e-05)
(-15.6436 -7.96196 0.285617)
(-481.533 -322.987 19.742)
(-392.229 -296.305 23.8144)
(-1.12504e-11 -2.00614e-12 3.71454e-13)
(-4.3746e-10 -8.05375e-11 1.51825e-11)
(-1.73351e-08 -3.17836e-09 6.97968e-10)
(-7.00313e-07 -1.34815e-07 3.74028e-08)
(-1.09402e-05 -2.87433e-06 7.11811e-07)
(-0.000454525 -0.000136944 1.75148e-05)
(-1.44549 -0.509485 0.0196843)
(-481.955 -194.597 24.581)
(-4.7544e-11 -7.27873e-12 1.65186e-12)
(-1.82486e-09 -2.88195e-10 7.12167e-11)
(-5.88157e-08 -1.00107e-08 2.87005e-09)
(-1.4977e-06 -2.58205e-07 9.58647e-08)
(-1.87529e-05 -3.51735e-06 8.21012e-07)
(-0.00197898 -0.000507714 4.44542e-05)
(-119.141 -41.814 3.04075)
(-489.752 -175.798 24.2918)
(-1.12688e-10 -9.41933e-12 4.02397e-12)
(-3.98594e-09 -2.85102e-10 1.58693e-10)
(-1.18783e-07 -7.5704e-09 5.71736e-09)
(-3.18392e-06 -2.15674e-07 1.92125e-07)
(-0.00116848 -7.49382e-05 0.000187463)
(-97.218 -8.81075 28.4203)
(-563.876 -71.1938 104.08)
(-1.47125e-10 -5.9442e-13 5.49138e-12)
(-4.7423e-09 6.95114e-13 1.96325e-10)
(-6.68974e-13 -1.21769e-13 1.13068e-13)
(-2.5538e-11 -5.20363e-12 5.22697e-12)
(-8.72521e-10 -1.9203e-10 1.86056e-10)
(-2.6441e-08 -6.60071e-09 5.90317e-09)
(-6.40788e-07 -1.86409e-07 1.43996e-07)
(-5.94012e-05 -1.96873e-05 1.2032e-05)
(-0.865802 -0.367777 0.225064)
(-446.237 -297.622 171.626)
(-364.756 -272.547 147.918)
(-3.33899e-12 -6.18623e-13 6.7895e-13)
(-1.1819e-10 -2.29314e-11 2.53632e-11)
(-3.86734e-09 -7.82594e-10 8.91086e-10)
(-1.23031e-07 -2.68941e-08 2.95819e-08)
(-3.86918e-06 -9.38256e-07 8.48587e-07)
(-6.82974e-05 -2.02795e-05 1.22288e-05)
(-0.0719216 -0.0230898 0.0165952)
(-424.921 -177.457 151.219)
(-1.28802e-11 -2.02318e-12 2.73158e-12)
(-4.89782e-10 -7.71746e-11 1.04825e-10)
(-1.83443e-08 -3.04255e-09 3.75342e-09)
(-6.38959e-07 -1.09252e-07 1.21849e-07)
(-8.94882e-06 -1.73154e-06 1.69836e-06)
(-0.000573772 -0.000137692 0.000118268)
(-9.28125 -2.55988 2.6961)
(-421.6 -160.561 146.677)
(-3.32307e-11 -3.16604e-12 6.82152e-12)
(-1.24641e-09 -1.03751e-10 2.52356e-10)
(-4.20241e-08 -3.00635e-09 8.47952e-09)
(-1.141e-06 -7.48484e-08 2.36512e-07)
(-7.22904e-05 -4.85164e-06 1.72303e-05)
(-0.324609 -0.0226027 0.115785)
(-461.479 -44.3034 260.025)
(-401.817 -61.3643 182.498)
(-4.67227e-11 -3.07496e-13 9.82405e-12)
(-1.58176e-09 -4.86672e-12 3.31832e-10)
(-9.12588e-14 -1.07621e-14 1.05953e-14)
(-3.63048e-12 -7.61796e-13 7.17232e-13)
(-1.22699e-10 -2.70936e-11 2.66111e-11)
(-3.85295e-09 -9.22673e-10 9.28071e-10)
(-1.12167e-07 -3.05233e-08 3.10558e-08)
(-2.97632e-06 -9.51631e-07 1.07489e-06)
(-7.56427e-06 -2.70387e-06 3.02363e-06)
(-3.77738 -1.74563 3.01175)
(-0.454246 -0.228334 0.367831)
(-5.17391e-13 -8.21353e-14 8.71599e-14)
(-1.81773e-11 -3.68215e-12 3.62483e-12)
(-6.00878e-10 -1.23318e-10 1.2675e-10)
(-1.96228e-08 -4.07403e-09 4.43747e-09)
(-5.69863e-07 -1.32112e-07 1.55151e-07)
(-6.22127e-06 -1.81358e-06 1.98032e-06)
(-0.000581875 -0.000174411 0.000228639)
(-114.771 -52.4426 88.2568)
(-2.11705e-12 -3.54318e-13 3.83828e-13)
(-7.30991e-11 -1.25682e-11 1.42791e-11)
(-2.2792e-09 -4.12505e-10 5.07821e-10)
(-6.4287e-08 -1.25478e-08 1.78502e-08)
(-1.54475e-06 -3.19698e-07 5.56519e-07)
(-2.29086e-05 -6.03587e-06 7.31875e-06)
(-0.00793254 -0.00241699 0.00312983)
(-447.012 -137.439 298.322)
(-5.69471e-12 -6.28797e-13 1.01359e-12)
(-1.93109e-10 -2.10035e-11 3.71065e-11)
(-5.92706e-09 -6.4339e-10 1.32288e-09)
(-1.66399e-07 -1.81382e-08 4.50298e-08)
(-4.4035e-06 -4.71982e-07 1.50431e-06)
(-0.000326578 -2.20388e-05 0.000154061)
(-2.60074 -0.238435 1.67854)
(-452.156 -104.458 288.699)
(-8.70315e-12 -7.17696e-14 1.54088e-12)
(-2.8733e-10 -1.7944e-12 5.34844e-11)
(-7.88847e-15 0 5.41366e-16)
(-4.95789e-13 -1.03562e-13 9.07948e-14)
(-1.6696e-11 -4.1199e-12 3.75329e-12)
(-5.08791e-10 -1.32853e-10 1.26352e-10)
(-1.43529e-08 -4.14307e-09 4.05561e-09)
(-3.69827e-07 -1.22942e-07 1.2676e-07)
(-9.11228e-06 -3.62812e-06 4.62857e-06)
(-0.245165 -0.105203 0.197433)
(-0.0426688 -0.0267921 0.02469)
(-8.01222e-14 -6.7635e-15 8.73919e-15)
(-2.93431e-12 -5.91366e-13 5.67583e-13)
(-9.37075e-11 -2.0354e-11 1.94509e-11)
(-2.90379e-09 -6.45732e-10 6.53058e-10)
(-8.53442e-08 -1.98499e-08 2.20713e-08)
(-2.05461e-06 -5.58512e-07 6.67832e-07)
(-1.95159e-05 -6.23552e-06 6.6256e-06)
(-12.019 -4.94268 9.14021)
(-217.448 -118.415 126.664)
(-3.54208e-13 -4.48306e-14 5.29765e-14)
(-1.23238e-11 -2.19186e-12 2.37358e-12)
(-3.74529e-10 -6.76005e-11 7.82174e-11)
(-1.03514e-08 -1.92965e-09 2.43765e-09)
(-2.52682e-07 -4.98533e-08 6.98933e-08)
(-5.68054e-06 -1.2071e-06 2.03842e-06)
(-0.000102734 -2.81449e-05 4.36108e-05)
(-79.8649 -32.1569 55.0781)
(-1.00462e-12 -1.13352e-13 1.69061e-13)
(-3.20942e-11 -3.97765e-12 6.43228e-12)
(-9.06998e-10 -1.13912e-10 2.05675e-10)
(-2.39398e-08 -2.99856e-09 6.24166e-09)
(-6.19288e-07 -7.42228e-08 1.84655e-07)
(-1.7181e-05 -1.9468e-06 6.54609e-06)
(-0.2622 -0.0234847 0.144975)
(-363.51 -41.2842 207.702)
(-1.59239e-12 -1.28381e-14 2.75701e-13)
(-5.00869e-11 -3.9133e-13 9.97509e-12)
(0 0 0)
(-5.07844e-14 -5.99742e-15 7.50178e-15)
(-1.89204e-12 -5.09032e-13 4.91096e-13)
(-5.65451e-11 -1.6489e-11 1.63875e-11)
(-1.54882e-09 -4.88904e-10 4.99509e-10)
(-4.00287e-08 -1.37228e-08 1.4416e-08)
(-1.14659e-06 -4.09363e-07 4.40922e-07)