/*--------------------------------*- C++ -*----------------------------------*\
  =========                 |
  \\      /  F ield         | OpenFOAM: The Open Source CFD Toolbox
   \\    /   O peration     | Website:  https://openfoam.org
    \\  /    A nd           | Version:  9
     \\/     M anipulation  |
\*---------------------------------------------------------------------------*/
FoamFile
{
    format      ascii;
    class       volScalarField;
    location    "0.00105";
    object      alpha.c4;
}
// * * * * * * * * * * * * * * * * * * * * * * * * * * * * * * * * * * * * * //

dimensions      [0 0 0 0 0 0 0];

internalField   nonuniform List<scalar> 
8874
(
0.617761
0.379613
0.63384
0.283877
0.289852
0.235719
0.633978
0.280501
0.634295
0.306374
0.232562
0.231962
0.623458
0.290941
0.208564
0.51488
0.517854
0.399494
0.35314
0.498725
0.372908
0.530726
0.471865
0.310251
0.414679
0.305405
0.45267
0.330013
0.434414
0.307751
0.276278
0.293127
0.252651
0.256451
0.270061
0.442529
0.408988
0.303767
0.287421
0.42912
0.422234
0.312202
0.470854
0.301461
0.469876
0.332247
0.4514
0.3272
0.488938
0.255886
0.2348
0.260089
0.237759
0.258108
0.264255
0.456741
0.462151
0.317875
0.250082
0.484811
0.424422
0.278529
0.233266
0.167375
0.188881
0.630616
0.634627
0.638273
0.569422
0.584843
0.594043
0.580199
0.633108
0.637598
0.638222
0.573636
0.564865
0.583772
0.575778
0.637949
0.63088
0.634208
0.59374
0.588509
0.596747
0.600762
0.608744
0.612419
0.621561
0.588813
0.585245
0.595545
0.590952
0.626823
0.611115
0.586879
0.564853
0.579779
0.595261
0.616384
0.653247
0.632589
0.672828
0.664138
0.671333
0.662699
0.670186
0.654495
0.679894
0.666909
0.674233
0.669404
0.682368
0.676535
0.675384
0.67837
0.672817
0.679866
0.673946
0.682389
0.675406
0.680898
0.643402
0.650901
0.660827
0.655527
0.652565
0.662763
0.64551
0.663235
0.668229
0.675217
0.665698
0.67079
0.672535
0.677681
0.664181
0.652255
0.65358
0.656506
0.655191
0.665455
0.666897
0.653537
0.647007
0.657899
0.649943
0.656417
0.660578
0.666825
0.643887
0.622869
0.634077
0.625802
0.635584
0.646471
0.636563
0.659588
0.649286
0.652188
0.644205
0.647031
0.657177
0.66232
0.637312
0.626135
0.652915
0.629279
0.662844
0.645751
0.655634
0.658117
0.648043
0.665122
0.655155
0.646779
0.636765
0.639286
0.649363
0.639575
0.627343
0.629905
0.64188
0.63492
0.63712
0.620888
0.62395
0.631464
0.64396
0.628744
0.606403
0.61233
0.577163
0.612604
0.590939
0.617524
0.0843963
0.0166788
0.00733676
0.0605256
0.042031
0.0320032
0.0135641
0.0325601
0.0261592
0.0782819
0.0152502
0.00615711
0.0129849
0.293341
0.586701
0.00144915
0.00163662
9.51522e-06
0.142964
0.000105085
3.87232e-05
6.56718e-09
2.06273e-10
0.0273027
0.0233703
0.00301861
3.61136e-07
3.79133e-07
1.19536e-08
0.0981828
0.053435
0.0436802
0.125699
0.0537175
0.0121975
0.0266333
0.0231323
0.0074905
0.015479
0.00553974
0.0119335
0.00502327
1.01082e-05
0.00053309
9.98032e-06
1.0115e-05
0.00010551
0.000105008
4.18486e-07
3.18478e-07
3.1872e-07
1.82774e-07
2.30835e-10
7.66688e-06
1.06931e-08
6.56619e-09
9.56116e-09
7.23062e-12
3.16356e-10
0.414461
0.209983
0.0733451
0.0636173
0.182569
0.0363371
0.0706272
0.0215575
0.0159181
0.00137959
0.00401449
0.000197348
0.611687
0.545955
0.270857
0.158983
0.0440686
0.62897
0.445142
0.0417237
0.201965
0.0552715
0.0062656
0.617135
0.374617
0.0083742
0.176193
0.0364808
0.00156172
0.235872
0.0811157
0.0360853
0.00366049
0.582663
0.35905
0.274444
0.628492
0.601233
0.257986
0.142471
0.35718
0.236351
0.114607
0.479261
0.296189
0.103735
0.0320975
0.0810493
0.0203889
0.192217
0.210087
0.108384
0.0661182
0.0766605
0.0214366
0.0131488
0.600877
0.250778
0.117877
0.629467
0.602819
0.271915
0.11583
0.130776
0.0793629
0.0192131
0.42692
0.119754
0.0745388
0.0137739
0.0108522
0.0342895
0.00610871
0.0854687
0.197694
0.0713937
0.0116174
0.042711
0.00578107
0.00216289
0.480956
0.254231
0.104076
0.469352
0.216935
0.111807
0.033174
0.0732507
0.0665538
0.0114156
0.140313
0.012459
0.0190272
0.00166505
0.00476601
0.00169183
0.000470047
0.0614859
0.0630137
0.0164926
0.00449085
0.00867689
0.000446442
8.62719e-05
0.133998
0.0698272
0.0175919
0.0181874
0.00507848
0.00467239
0.000464894
0.00173053
0.00925327
0.000497783
0.000826672
0.000231033
0.000135559
1.54553e-07
0.00780462
0.00163448
8.82908e-05
9.77005e-05
1.58266e-05
5.01191e-09
0.248769
0.257752
0.235597
0.12515
0.144712
0.111795
0.0378958
0.164272
0.201983
0.161171
0.0340694
0.048084
0.0281062
0.00371014
0.00140508
0.136875
0.13916
0.105774
0.0202999
0.0266645
0.014457
0.000404576
0.000885386
0.000189609
0.0245264
0.0173076
0.0109826
0.00143554
0.001128
0.000362286
0.46055
0.502691
0.335534
0.332756
0.481378
0.309216
0.483948
0.433938
0.430501
0.30758
0.24644
0.399462
0.280635
0.460367
0.408146
0.288843
0.393081
0.224751
0.433114
0.26275
0.361189
0.373678
0.193143
0.252471
0.184837
0.327905
0.230527
0.313247
0.30602
0.392942
0.194934
0.207794
0.356475
0.167482
0.347123
0.251046
0.237353
0.153273
0.0948707
0.195673
0.128962
0.294274
0.218697
0.154037
0.190381
0.0723427
0.274337
0.117314
0.136342
0.166105
0.0607427
0.0612075
0.0488413
0.120095
0.0859126
0.0933503
0.179995
0.0664651
0.143828
0.0413643
0.0385001
0.0826071
0.222549
0.178017
0.2089
0.232523
0.179053
0.207955
0.145743
0.143969
0.178546
0.0934728
0.0573247
0.0820903
0.11263
0.0516625
0.082667
0.0393271
0.0337039
0.0581017
0.0254933
0.3601
0.38565
0.211361
0.255811
0.348963
0.398375
0.213647
0.298628
0.22036
0.164445
0.114156
0.291272
0.222924
0.163444
0.385713
0.268149
0.442601
0.224287
0.427553
0.222802
0.393134
0.317642
0.116345
0.23609
0.168531
0.235034
0.168508
0.319857
0.099505
0.154691
0.0511965
0.0744348
0.103076
0.153583
0.0463909
0.0611223
0.0397752
0.0319755
0.0157071
0.0656315
0.0352456
0.0278389
0.102407
0.075129
0.160987
0.0456089
0.160161
0.0464015
0.101874
0.061571
0.0148337
0.0326797
0.0263253
0.0343742
0.0273025
0.0600617
0.00876319
0.0226297
0.00796032
0.0186682
0.0033797
0.00759951
0.00697789
0.0159832
0.00213597
0.0174616
0.00262953
0.00655448
0.12343
0.0779582
0.117369
0.20317
0.155428
0.160726
0.0753612
0.110581
0.115449
0.0202753
0.00809626
0.0156273
0.0455919
0.0240709
0.0260296
0.00676109
0.0125835
0.0139808
0.00274021
0.000617504
0.000860168
0.309463
0.425776
0.205923
0.212269
0.36745
0.375767
0.16649
0.23612
0.212751
0.152474
0.0803943
0.291147
0.167503
0.120071
0.240283
0.160669
0.228247
0.0814637
0.304979
0.121691
0.1714
0.174803
0.0545233
0.0738181
0.0539546
0.117497
0.0845048
0.117217
0.0673944
0.143919
0.0402506
0.050564
0.0901776
0.110155
0.0300157
0.0381824
0.0277994
0.0227211
0.00775276
0.0522937
0.019657
0.0163529
0.0429036
0.0331415
0.0434247
0.00996413
0.0734192
0.0187995
0.0239298
0.023253
0.00410914
0.00520153
0.00452227
0.0112423
0.00958409
0.0120468
0.00306431
0.0130382
0.0015457
0.00297548
0.00869578
0.000872174
0.00139509
0.00138418
0.00178172
8.51018e-05
0.00450737
0.000344682
0.000470868
0.0962018
0.0456107
0.0726804
0.0983302
0.0448266
0.0725016
0.0293069
0.0285054
0.0481456
0.0102903
0.00282362
0.00699076
0.0165297
0.00400597
0.00847309
0.00132457
0.00151985
0.0037488
0.000350356
6.71355e-06
5.18592e-05
0.0569285
0.151571
0.0487374
0.0372194
0.107649
0.0845909
0.0245655
0.0343702
0.0407879
0.0305692
0.00749781
0.0689329
0.0191182
0.0143221
0.0243003
0.0155339
0.0129492
0.00261083
0.038031
0.00949336
0.00773322
0.0137095
0.00231621
0.00179805
0.00121757
0.00693617
0.00501386
0.00399837
0.00436282
0.0225944
0.00427766
0.00346278
0.0115118
0.00973611
0.00135579
0.00163238
0.00185808
0.00164565
9.46915e-05
0.00512904
0.000490221
0.000428397
0.00118717
0.000916498
0.000673473
2.65249e-05
0.00310596
0.000286302
0.000196557
0.000361161
6.59176e-06
3.69772e-06
2.67547e-06
7.65908e-05
6.17237e-05
3.86061e-05
0.0146449
0.00281101
0.00597506
0.00629866
0.000821065
0.00362961
0.000712859
0.000315449
0.00175969
0.000447595
8.36921e-06
7.98835e-05
0.000219706
1.5556e-06
4.50939e-05
2.4482e-07
1.00459e-07
4.60203e-06
0.627942
0.619604
0.620927
0.56323
0.553898
0.543505
0.533403
0.624775
0.61592
0.620096
0.558523
0.574414
0.559295
0.539822
0.476571
0.115658
0.45881
0.43659
0.0780889
0.31579
0.0856195
0.626011
0.6214
0.582984
0.578948
0.559835
0.616627
0.559186
0.602879
0.594355
0.602713
0.579788
0.577041
0.567146
0.565588
0.603106
0.561194
0.533718
0.57401
0.430109
0.490695
0.50033
0.60248
0.54809
0.494247
0.397651
0.550781
0.484849
0.403658
0.598132
0.570316
0.530547
0.467381
0.601726
0.52984
0.564666
0.531132
0.509472
0.550477
0.59313
0.403402
0.415354
0.500082
0.547897
0.515786
0.566668
0.529042
0.491853
0.466174
0.421577
0.58994
0.567117
0.548903
0.529271
0.571534
0.522966
0.550019
0.195057
0.322838
0.293837
0.445586
0.200127
0.31744
0.294553
0.380963
0.560896
0.357538
0.402564
0.454926
0.497435
0.286405
0.552574
0.458513
0.363602
0.382546
0.395117
0.49333
0.287575
0.358419
0.527649
0.374733
0.339841
0.462247
0.43013
0.250186
0.197758
0.446354
0.30542
0.293243
0.318227
0.301686
0.192436
0.524772
0.453777
0.376548
0.341588
0.267362
0.429011
0.352582
0.439584
0.517154
0.501239
0.545064
0.50813
0.48696
0.463923
0.000109915
0.0320324
0.00287485
0.00141188
0.00520305
0.000842225
0.00183702
8.55286e-05
0.000368155
6.43741e-06
0.00278316
4.41135e-05
2.41326e-06
0.0323391
0.0078009
0.00648632
0.00652565
0.0173448
0.0156097
0.0130148
0.00376052
0.00368205
0.00837771
0.00341711
0.0022635
0.00241026
0.000284823
0.00565909
0.00104312
0.00113306
0.00261593
0.000138893
0.00050447
0.000563565
0.000686477
0.000752985
0.00209286
0.00120624
7.95477e-05
0.000412905
1.68741e-05
0.000106151
0.000184931
0.000828716
0.00032163
0.000368424
1.3712e-05
0.00149569
0.000142467
0.000169055
5.49954e-05
5.37889e-07
1.73105e-05
0.0143349
0.021155
1.82303e-05
0.442136
0.160299
0.279685
0.0852596
0.12246
0.0201125
0.108943
0.0029643
0.0522774
0.0295164
0.000199022
0.00170297
0.000265131
0.0197862
0.245517
0.00316454
0.0222783
0.0130144
0.0284087
0.0135987
0.369588
0.435578
0.329982
0.257732
0.372294
0.328304
0.223326
0.387983
0.315992
0.268058
0.23311
0.355838
0.309211
0.194896
0.11365
0.243956
0.156369
0.357322
0.281742
0.191956
0.253532
0.125521
0.265021
0.25635
0.298462
0.167586
0.203057
0.197595
0.294941
0.310418
0.306345
0.136385
0.408147
0.208626
0.20744
0.125939
0.0655329
0.115433
0.12865
0.209853
0.118662
0.199066
0.358147
0.153524
0.256998
0.107352
0.283838
0.191079
0.175226
0.207241
0.179071
0.110392
0.281856
0.269955
0.382674
0.171959
0.0757896
0.121247
0.11951
0.213726
0.127063
0.20423
0.0687701
0.18739
0.369835
0.268102
0.195438
0.286424
0.262273
0.171185
0.359148
0.316613
0.38345
0.424525
0.392689
0.470381
0.451189
0.289243
0.109298
0.175763
0.294669
0.378539
0.177922
0.268325
0.113473
0.108373
0.0603576
0.117019
0.197875
0.189915
0.112471
0.428485
0.395947
0.312704
0.380743
0.478619
0.458666
0.415972
0.0911971
0.168435
0.229512
0.13337
0.202174
0.242226
0.142681
0.115306
0.119368
0.196374
0.0644777
0.203667
0.067372
0.115641
0.399724
0.369349
0.422618
0.32834
0.289052
0.378942
0.348761
0.355624
0.171696
0.256353
0.193363
0.263471
0.101895
0.162772
0.200245
0.111501
0.188122
0.0668378
0.11596
0.0586608
0.10516
0.175939
0.102985
0.0954862
0.185516
0.0560603
0.102172
0.0517787
1.38741e-09
1.38344e-10
1.35719e-11
7.71923e-09
1.1757e-13
3.18138e-16
1.5243e-14
2.46975e-16
1.43764e-15
1.2426e-12
4.34578e-13
3.72884e-14
7.00187e-15
4.76305e-16
2.63102e-15
1.29376e-16
3.62942e-15
2.09848e-16
1.92732e-14
1.57926e-14
2.90592e-13
1.54707e-15
4.28143e-12
1.25535e-12
5.95094e-14
5.77806e-14
5.73776e-13
5.01263e-11
6.59365e-12
2.51675e-10
5.33221e-10
4.05168e-09
3.33381e-11
7.1427e-15
6.7572e-13
5.51094e-14
2.85262e-13
5.46991e-11
4.4463e-12
3.43717e-12
0.00440513
3.2755e-05
0.000213754
3.33992e-07
3.0412e-06
6.42566e-11
4.21963e-12
9.17144e-11
7.41724e-13
1.83195e-13
0.000478491
0.000434531
0.000152493
9.93204e-06
2.87766e-05
2.40558e-08
2.10474e-10
0.000107938
6.64615e-06
4.96623e-08
7.14936e-07
4.81706e-09
3.25786e-12
1.5939e-12
1.42522e-11
2.71711e-08
4.3408e-09
5.12153e-09
3.51799e-10
4.30698e-10
1.72819e-10
9.47256e-13
1.75452e-09
1.2119e-12
1.63155e-12
2.28419e-11
2.87972e-11
6.28173e-14
7.30625e-08
7.82071e-05
8.00187e-06
1.82523e-06
1.95339e-06
1.25472e-08
1.92509e-05
4.2076e-08
4.80628e-08
3.17396e-07
3.55502e-07
1.66472e-09
1.38833e-15
1.70485e-17
3.3102e-17
1.04288e-17
7.79734e-17
5.61846e-14
3.48633e-15
9.92033e-16
2.12119e-16
0.0758264
0.349357
0.205063
0.0410966
0.00288072
0.103687
0.00511549
0.00191324
7.14736e-05
0.0694337
0.000700353
2.27531e-05
5.94565e-07
3.90505e-14
0.0071887
0.0159981
0.000950814
0.000395916
0.000215785
0.000876113
0.00234269
0.000679142
5.15574e-06
1.2434e-07
0.00540721
0.0189205
0.00242563
0.00574539
0.0147511
0.00187096
0.00698731
0.00269941
0.00307912
0.00258937
0.000223229
0.00778769
0.000895656
0.000770728
0.00129032
6.68406e-05
0.000318169
2.62516e-05
0.000713982
2.97435e-05
0.000158475
1.85632e-06
9.91135e-05
5.29622e-08
2.64533e-06
4.88275e-12
3.72933e-13
0.000394009
4.45721e-06
1.53774e-07
1.67983e-06
3.26416e-05
3.39473e-09
9.74467e-11
1.66584e-10
2.68988e-09
1.044e-14
4.48761e-16
5.96042e-06
1.02461e-09
1.11881e-08
2.1603e-10
1.00224e-13
1.85981e-13
4.53769e-15
1.43452e-14
7.96016e-15
3.55537e-16
4.0294e-05
0.000231221
6.19875e-06
1.01005e-05
6.5227e-05
9.7137e-08
2.46699e-07
2.661e-06
4.62341e-07
2.99653e-09
8.28858e-09
2.14046e-07
3.19977e-05
3.38207e-08
3.76194e-07
9.77762e-07
9.27357e-06
7.19622e-09
2.65035e-08
4.63808e-08
1.06042e-07
6.47527e-11
1.37072e-06
8.73047e-10
1.96608e-09
1.33428e-09
1.92639e-12
2.58839e-11
3.78404e-12
5.13784e-09
3.29865e-12
6.13294e-12
9.83892e-11
1.83073e-10
1.36169e-13
1.82902e-13
1.88359e-13
2.02307e-13
3.86443e-15
5.32534e-12
8.92827e-15
6.68986e-14
6.07301e-15
1.44189e-16
3.59219e-16
0.0355119
0.0955963
0.00919501
0.121216
0.0138937
0.0484188
0.00338868
0.0334565
0.00350491
0.00914933
0.00020209
0.0254366
0.00144964
0.000105833
0.00770534
0.0219829
0.000601178
2.66488e-05
0.0111943
5.45054e-05
9.30934e-07
1.66229e-05
0.000333971
3.72355e-07
1.17295e-11
2.5233e-08
1.30008e-11
7.41366e-13
0.000304228
1.66365e-07
4.63932e-09
5.75421e-05
7.91485e-09
2.23926e-10
0.000320411
2.13181e-06
4.60747e-06
6.17607e-06
3.71916e-05
4.64823e-05
7.72406e-05
6.47106e-08
2.03945e-07
2.66732e-06
3.56128e-07
2.49519e-07
3.41148e-07
2.76656e-10
8.66099e-06
8.50154e-09
1.14811e-08
9.50293e-09
8.13191e-12
3.27885e-10
9.399e-08
2.23988e-13
7.69383e-15
3.0891e-14
1.69281e-09
8.94988e-13
2.04588e-13
1.12929e-14
9.15415e-09
7.83228e-12
5.45852e-12
7.01539e-12
2.2993e-10
3.05981e-10
1.98228e-10
2.4079e-13
2.22988e-13
9.1935e-12
3.86316e-14
2.19076e-08
1.14142e-06
4.01662e-12
6.62788e-15
1.2136e-10
2.67731e-10
2.58138e-13
3.61249e-15
2.08155e-13
5.67804e-14
1.37399e-13
5.58681e-15
7.05404e-14
6.50044e-15
0.410499
0.237638
0.342829
0.0899398
0.160934
0.0462088
0.0389782
0.225896
0.134815
0.208292
0.0275587
0.00714383
0.0460798
0.00362158
0.124667
0.037581
0.0179595
0.00172073
0.000463893
0.000211469
0.0331675
0.373814
0.270326
0.315353
0.197091
0.271746
0.242209
0.162984
0.277669
0.214173
0.267064
0.155514
0.142785
0.109989
0.121856
0.393575
0.426653
0.413437
0.354433
0.332011
0.310044
0.335919
0.259628
0.191844
0.237423
0.118792
0.134949
0.103686
0.0918354
0.146255
0.120648
0.0640164
0.154265
0.254585
0.216848
0.129876
0.215587
0.135042
0.150093
0.128568
0.117193
0.0734296
0.0622769
0.0660867
0.0921858
0.0512136
0.120356
0.163025
0.0706144
0.0968893
0.0403386
0.120631
0.0717871
0.128422
0.201305
0.0777714
0.129292
0.0998449
0.0737784
0.170154
0.0555125
0.100398
0.126914
0.0401112
0.0815747
0.215961
0.0842532
0.0827943
0.138111
0.135367
0.047248
0.0674475
0.204501
0.0784933
0.0717872
0.127975
0.117132
0.0392357
0.318801
0.385082
0.362136
0.266075
0.230264
0.275579
0.30653
0.0933696
0.162369
0.150547
0.0504273
0.0427089
0.0730625
0.0830921
0.146193
0.295883
0.209562
0.0793301
0.150924
0.199483
0.119831
0.0532179
0.188692
0.0883041
0.100654
0.152994
0.0688854
0.0415762
0.0778843
0.0418935
0.027792
0.104728
0.0600589
0.147595
0.0860243
0.0823842
0.0898065
0.146116
0.0344542
0.0393138
0.0683351
0.0605065
0.244264
0.171493
0.216498
0.289291
0.366089
0.322401
0.240739
0.0365152
0.0286965
0.0545367
0.127291
0.0746463
0.0497233
0.0892568
0.0445874
0.0528807
0.0267678
0.059928
0.107296
0.162681
0.0944546
0.202959
0.223583
0.268141
0.346347
0.283685
0.236412
0.30541
0.0620087
0.168098
0.0585237
0.115726
0.0955501
0.0886203
0.0452729
0.0662593
0.0925849
0.0400438
0.21313
0.142708
0.111179
0.0675016
0.0231087
0.0360401
0.018808
0.0755619
0.0429279
0.0679484
0.0373237
0.017298
0.0156525
0.0320177
0.0661039
0.0630326
0.0334722
0.0356865
0.0292564
0.0265388
0.0126391
0.0321373
0.0603286
0.0565948
0.0296936
0.131911
0.0361344
0.0610101
0.13868
0.203783
0.064081
0.106673
0.03708
0.0159264
0.0313133
0.0396804
0.0706578
0.0339735
0.0625627
0.00190456
0.000119468
0.0174092
0.0357834
0.0149763
0.00042402
7.96027e-06
0.246535
0.302764
0.265015
0.126604
0.215941
0.178384
0.160651
0.107144
0.0413589
0.0649088
0.0256043
0.0150303
0.045426
0.0271885
0.13583
0.262754
0.234489
0.213889
0.145327
0.12064
0.243974
0.0277173
0.0605566
0.0526052
0.0109531
0.0281935
0.0148618
0.0226121
0.087259
0.103329
0.168986
0.147021
0.0370698
0.0746208
0.0838573
0.0211238
0.0717583
0.0613819
0.0459255
0.0206097
0.0152009
0.0550258
0.0107923
0.0462854
0.0451112
0.0412919
0.0244845
0.0223801
0.0214132
0.0457329
0.0252709
0.0460689
0.0476858
0.0821764
0.0241386
0.0253808
0.0561687
0.176364
0.0932229
0.0682674
0.0487837
0.105167
0.0287363
0.044896
0.022534
0.0496528
0.00932758
0.0173161
0.0202025
0.00775984
0.0141033
0.0177368
0.0551238
0.0409344
0.0101141
0.0126571
0.0343475
0.0109168
0.0218161
0.0404533
0.044459
0.0773753
0.0438838
0.0241088
0.00807168
0.0364583
0.0199551
0.0348554
0.0718895
0.0416174
0.0192245
0.0185829
0.0126598
0.0267798
0.0389345
0.0540871
0.0282118
0.0197797
0.0137481
0.00607128
0.0164761
0.0097815
0.032544
0.0470864
0.0243623
0.0143727
0.00695272
0.0152499
0.0345092
0.01851
0.0639538
0.0356759
0.0184804
0.00931057
0.00744006
0.0613899
0.0524726
0.0298187
0.0247126
0.0359216
0.0290922
0.0106721
0.0792897
0.0662843
0.0347102
0.0285382
5.95226e-05
1.15038e-09
6.73846e-05
7.09631e-11
0.00417599
0.00651049
2.38533e-06
0.0705562
0.17376
0.141898
0.18174
0.120498
0.0973447
0.21381
0.505575
0.45436
0.318835
0.410012
0.43607
0.432921
0.311063
0.194962
0.311659
0.206634
0.30262
0.514727
0.372238
0.470797
0.370072
0.363822
0.441904
0.264775
0.496945
0.531639
0.530716
0.439684
0.49261
0.483425
0.458805
0.430755
0.309934
0.295416
0.193079
0.285716
0.300561
0.184178
0.063561
0.105819
0.139396
0.215249
0.169817
0.111015
0.145397
0.0117736
0.0101549
0.0217748
0.0296892
0.0326441
0.056204
0.0162864
0.0160377
0.0384706
0.083228
0.116073
0.0258804
0.0569615
0.0598931
0.0112611
0.0692001
0.0267098
0.0554614
0.026301
0.0206204
0.00850459
0.125744
0.146175
0.185016
0.0644235
0.0483863
0.0818842
0.107629
0.00460112
0.0210704
0.0159126
0.0290859
0.0130289
0.00907837
0.0362459
0.00277961
0.0112461
0.0136142
0.0255274
0.00589159
0.00743661
0.021353
0.0532473
0.0123176
0.0213735
0.090049
0.0383816
0.0566153
0.0229565
0.00690991
0.00370369
0.0113655
0.0116096
0.0291309
0.0473005
0.0197894
0.0049471
0.00776567
0.00271606
0.0102758
0.0244935
0.0386106
0.0173211
1.07646e-06
2.05624e-05
4.40743e-10
1.96926e-06
7.78424e-11
6.37776e-08
3.72096e-12
0.0349952
0.0172677
0.0105748
0.00306328
0.0126226
0.00551967
0.00721936
0.0105782
0.00305901
0.00746854
0.0218814
0.0116243
0.0176403
0.00839264
0.0023108
0.00627547
0.00527578
0.0160982
0.00716187
0.00610986
0.0144437
0.00161349
0.0179326
0.00834375
0.00497304
0.0114047
0.000826026
0.00254419
0.0270339
0.0597942
0.0459283
0.0648871
0.12843
0.100772
0.0851008
0.0173917
0.0218296
0.00966533
0.00265747
0.00702339
0.0131684
0.00524968
0.0322318
0.00474941
0.00934465
0.00669314
0.024189
0.0134463
0.00332348
0.00450196
0.0036137
0.010084
0.0227637
0.00976122
0.00437242
0.0115354
0.0043075
0.0104663
0.00477292
0.00521364
0.0234013
0.0120638
0.0112537
0.00477631
0.00535768
0.0122701
0.00477278
0.0249154
0.0122689
0.0111354
0.00248276
0.00224591
0.00575825
0.0035933
0.0177016
0.00875491
0.00814634
0.00108054
0.00715156
0.00291703
0.00902427
0.00396314
0.00914606
0.0187554
0.0618626
0.0663262
0.053496
0.0278886
0.0226122
0.0189592
0.0236328
0.0783262
0.019231
0.033055
0.00904711
0.0244909
0.041923
0.0164385
0.0178323
0.00623416
0.013725
0.00188017
0.00345395
0.00480224
0.00741534
0.00124699
0.000472424
0.00180715
0.00529807
0.00239674
0.0137674
0.00695477
0.000691938
0.00129184
0.0022828
0.00743517
0.00390502
0.00462571
0.0115001
0.00066399
0.00567702
0.00248946
0.00591918
0.00265015
0.0160723
0.00804497
0.0312009
0.0572
0.0763212
0.0128028
0.0344857
0.0261397
0.0166514
0.0120769
0.0103646
0.00421166
0.00104326
0.0013764
0.00383924
0.0030922
0.0242736
0.00906198
0.00471159
0.0336897
0.0229515
0.054846
0.0129671
0.000753784
2.98766e-07
6.42778e-11
7.20909e-05
9.50202e-09
3.4614e-09
1.50464e-12
0.000744384
0.00782631
0.00419649
0.00382695
0.0150276
0.00826397
0.0018033
5.57703e-05
0.00782699
0.00128486
0.000145286
0.0445802
0.0310923
0.0408936
0.00722014
0.477504
0.383198
0.212893
0.201456
0.198606
0.0821294
0.0448114
0.00248302
0.461598
0.27055
0.3761
0.530832
0.483971
0.37843
0.465191
0.322619
0.202493
0.315665
0.449299
0.447806
0.325494
0.318428
0.315019
0.301151
0.193916
0.446471
0.425813
0.304528
0.317851
0.458072
0.514031
0.505578
0.546971
0.546754
0.518376
0.509912
0.572188
0.529947
0.55037
0.556228
0.595089
0.433332
0.468351
0.47402
0.332073
0.615822
0.564352
0.612037
0.338349
0.350696
0.187086
0.172094
0.615048
0.6073
0.606876
0.583707
0.583703
0.558535
0.558688
0.601857
0.613863
0.606063
0.571675
0.582058
0.559565
0.561898
0.579893
0.57767
0.585817
0.559538
0.553657
0.551394
0.546408
0.604387
0.592963
0.603542
0.579888
0.564802
0.554422
0.535685
0.584337
0.584311
0.529528
0.42065
0.416249
0.50517
0.506448
0.581578
0.544445
0.586921
0.454979
0.497923
0.536239
0.522173
0.460034
0.385077
0.430342
0.525606
0.521871
0.506179
0.486852
0.580627
0.504985
0.526251
0.392998
0.413536
0.501588
0.480072
0.408572
0.343208
0.403883
0.515889
0.515189
0.466903
0.469533
0.554295
0.563348
0.569953
0.517336
0.51531
0.537262
0.534769
0.460782
0.48131
0.476779
0.524377
0.52252
0.512615
0.512687
0.397887
0.31832
0.372806
0.510398
0.48774
0.462743
0.44085
0.390369
0.23928
0.318419
0.347296
0.421654
0.472249
0.428173
0.271581
0.175208
0.261105
0.297443
0.287731
0.388495
0.394237
0.257496
0.161946
0.242567
0.270397
0.285022
0.385178
0.365483
0.463527
0.418545
0.397808
0.4479
0.43494
0.492983
0.497019
0.260125
0.124841
0.167654
0.373503
0.264071
0.202261
0.29743
0.0953666
0.0405075
0.065993
0.0872417
0.11951
0.0280235
0.0203874
0.134905
0.080833
0.0468756
0.0840756
0.137627
0.215138
0.139885
0.0131447
0.0214718
0.0689762
0.026877
0.0445672
0.0131406
0.00743621
0.0228093
0.0574364
0.0339174
0.0094663
0.00601609
0.0173322
0.0118524
0.0213695
0.0107965
0.0243978
0.046255
0.0223798
0.0412791
0.0809871
3.42805e-06
0.0010775
2.36111e-05
0.014652
9.83117e-05
0.000162895
5.69119e-08
6.33659e-06
0.00113086
0.00172126
0.0106915
0.000949277
0.00689757
0.00468075
0.000559783
0.0146468
0.00149074
0.00364958
0.0258386
0.013554
0.00326569
0.00706831
0.00722431
0.0135655
0.00365096
0.00707311
0.025855
0.00326858
0.00149167
0.0057602
0.00224791
0.000827244
0.0081501
0.00359578
0.00875548
0.0177043
9.23177e-05
0.000262012
0.0026899
0.00500703
0.000617034
0.00268892
0.000261891
0.00155799
0.00199446
0.00071537
0.00333684
0.0111563
0.0054536
0.00770938
0.00466148
0.00197784
0.00511669
0.00127303
0.00110889
0.00323602
0.000367367
0.0373937
0.0136379
0.0313819
0.0052598
0.0131079
0.0106307
0.00396572
0.0279043
0.0113879
0.00882515
0.0518652
0.041118
0.0138703
0.0175695
0.0133057
0.00382827
0.0102737
0.003118
0.00279202
0.000958624
0.000639787
0.000933137
0.000208947
0.000128272
0.00168868
0.000410613
0.00377801
0.0023214
0.00138861
0.00055914
0.00343437
0.00751252
0.00343519
0.00158883
0.000559289
0.00238752
0.000536511
0.000782461
0.00393776
0.00296972
0.0121269
0.00962719
0.0031247
0.00121625
0.00635787
0.00107618
0.0025267
0.000342719
0.000111178
0.00697973
0.0190132
0.0144576
0.0268489
0.0203673
0.0380245
0.0503942
0.000454286
0.00104427
0.000303247
0.00259701
0.00513517
0.0063453
0.00201436
0.00453481
0.0016944
0.0030227
0.00030218
0.000664528
0.00110356
0.00213066
0.000111353
0.000343427
0.00252928
0.00312666
0.00636292
0.0012173
0.000478798
0.0287433
0.00573054
0.010891
0.00656538
0.00462892
0.0133858
0.00207278
0.00294368
0.00811051
0.00178276
0.00597881
0.000280469
0.00116931
0.00206317
0.00187375
0.000895726
0.00340963
0.000727315
0.000114164
0.00161471
0.000317725
0.000698693
0.000276945
0.000104115
0.00181104
0.000885295
0.0034504
0.00633228
0.00514222
0.000432839
9.5433e-05
0.000499381
0.00167249
0.000491143
0.00186263
1.38375e-10
3.81919e-09
4.0646e-07
5.48501e-11
2.12577e-12
1.60274e-13
2.13029e-12
0.00319523
0.000902065
7.35147e-05
0.00042188
0.00170917
2.45005e-05
0.000192617
0.000158223
0.000232905
5.12586e-05
0.000585968
0.00348563
0.00128986
0.00176186
0.00532863
0.00132252
0.00447255
0.00914118
0.0231197
0.00742229
0.00249969
4.24102e-06
1.80267e-05
0.000417513
2.35999e-05
8.16347e-05
0.000497229
0.00118962
4.24461e-06
1.8048e-05
8.17117e-05
0.000497437
0.00119054
0.000417922
0.000145385
0.000676858
0.00311394
0.00119156
0.000138103
2.68697e-05
0.000290809
0.000934389
0.000881972
0.00133836
0.00376225
4.3386e-05
0.000230941
0.00038797
0.00133753
0.000944384
0.000282213
4.05096e-05
0.000326236
0.00133875
0.00103335
0.00355229
0.00441001
0.00086066
0.0025018
0.000629736
0.000161217
0.00146239
0.000546129
0.000552348
0.00187077
0.00146655
0.000264151
0.00038528
4.04091e-05
7.17631e-05
0.00725483
0.000953906
0.00223804
0.00339985
0.0103643
0.0194043
0.00691906
0.000409737
0.00125322
0.000252252
0.00099603
0.00372798
0.00143555
5.67148e-05
3.38673e-05
0.000460319
0.0016673
0.00354136
0.000118857
0.000579525
0.00111616
0.00839131
0.00142323
0.00670304
0.00540824
0.00142143
0.00103578
0.0068724
0.000432258
0.000148686
0.00130794
9.82448e-05
0.000371264
3.58162e-06
2.53287e-05
0.000187189
0.00206352
0.000686119
1.38391e-05
8.86344e-05
0.00039148
9.20296e-05
3.58388e-06
3.27591e-05
0.000432295
0.000371616
2.53537e-05
0.00130831
0.000148734
0.652721
0.636609
0.649378
0.600958
0.673946
0.657146
0.667387
0.634835
0.649532
0.616641
0.627669
0.668899
0.641152
0.659997
0.625872
0.655501
0.658544
0.666638
0.652606
0.630946
0.640355
0.676585
0.65977
0.684227
0.653714
0.63421
0.682008
0.663624
0.686456
0.672538
0.682445
0.680471
0.663629
0.672323
0.659447
0.649304
0.613067
0.350094
0.600049
0.394118
0.604109
0.628759
0.541266
0.571489
0.525067
0.580747
0.634549
0.650524
0.630984
0.444571
0.555839
0.520809
0.612023
0.633702
0.630006
0.625486
0.612303
0.620854
0.577503
0.470107
0.569978
0.501403
0.208813
0.418594
0.545602
0.525724
0.210134
0.259376
0.115895
0.276091
0.0437058
0.0670009
0.136173
0.0722646
0.0117803
0.0059871
0.685972
0.682087
0.689925
0.687927
0.692145
0.680011
0.685557
0.6907
0.688439
0.689924
0.687954
0.692189
0.684044
0.685541
0.670495
0.660399
0.671405
0.65761
0.66818
0.666681
0.656463
0.678089
0.680224
0.683233
0.687509
0.685269
0.68087
0.675795
0.660479
0.592456
0.575292
0.595876
0.631506
0.61069
0.635761
0.669434
0.675388
0.68238
0.674271
0.672828
0.66693
0.679903
0.676538
0.681106
0.686586
0.67727
0.671744
0.676545
0.682011
0.681979
0.685062
0.686562
0.677208
0.675691
0.680472
0.681981
0.680904
0.675408
0.682398
0.678376
0.672812
0.679873
0.671331
0.665397
0.599838
0.63231
0.609054
0.623174
0.639719
0.644019
0.663521
0.657717
0.667947
0.649158
0.658712
0.663543
0.653751
0.665698
0.670788
0.677684
0.663238
0.675222
0.66823
0.67019
0.676863
0.677329
0.681902
0.667728
0.672591
0.67733
0.672324
0.662884
0.645671
0.655625
0.660916
0.64352
0.653316
0.651017
0.674628
0.668884
0.676134
0.662118
0.663639
0.671195
0.669673
0.676193
0.662957
0.67055
0.657473
0.663641
0.671268
0.66547
0.657467
0.67127
0.665486
0.670577
0.668898
0.662964
0.676198
0.671198
0.662119
0.669677
0.674634
0.668885
0.676139
0.667393
0.666813
0.664055
0.6626
0.656507
0.655107
0.653761
0.652276
0.666708
0.663977
0.657763
0.656339
0.649694
0.646848
0.65362
0.659437
0.664332
0.671534
0.659126
0.654328
0.661897
0.666638
0.639702
0.647671
0.657319
0.634182
0.643783
0.642636
0.652149
0.654339
0.659133
0.661902
0.666642
0.671539
0.664344
0.666644
0.590395
0.560583
0.545081
0.614085
0.627641
0.55303
0.471205
0.646465
0.634071
0.643842
0.625591
0.635365
0.632393
0.622627
0.66229
0.654421
0.659511
0.646886
0.652028
0.649215
0.644184
0.642666
0.643792
0.652178
0.657376
0.639775
0.649415
0.64774
0.650332
0.648591
0.656982
0.656976
0.650318
0.664903
0.658755
0.648748
0.657016
0.647302
0.657013
0.664883
0.655501
0.663358
0.660049
0.648065
0.649393
0.643599
0.642367
0.653059
0.654576
0.642597
0.654522
0.653012
0.659905
0.658411
0.649651
0.648146
0.649257
0.642346
0.653658
0.647752
0.6356
0.643272
0.654499
0.643646
0.654439
0.647695
0.659841
0.653529
0.642364
0.649453
0.644678
0.622135
0.637196
0.634069
0.628089
0.641998
0.618009
0.64495
0.631065
0.643573
0.62912
0.642336
0.640908
0.627992
0.659365
0.642312
0.651873
0.646864
0.637484
0.644892
0.654519
0.647803
0.64448
0.639545
0.647811
0.652609
0.65565
0.660392
0.626274
0.626591
0.636214
0.626577
0.635662
0.636195
0.645179
0.639605
0.61803
0.629882
0.623707
0.633381
0.610939
0.620429
0.646721
0.639573
0.639249
0.637309
0.636778
0.629944
0.627344
0.655491
0.645187
0.64028
0.639633
0.650117
0.645295
0.63466
0.650459
0.645291
0.634709
0.650079
0.655371
0.645162
0.640297
0.620362
0.623642
0.633336
0.629847
0.639552
0.627551
0.617786
0.635661
0.628239
0.640605
0.637937
0.619139
0.625038
0.632987
0.633798
0.613265
0.63722
0.636143
0.613227
0.647563
0.646118
0.633643
0.646125
0.637288
0.647575
0.636195
0.613792
0.613762
0.60159
0.596771
0.606055
0.612459
0.622132
0.618616
0.608937
0.60968
0.628722
0.634378
0.614797
0.636907
0.647345
0.639808
0.639824
0.625747
0.634144
0.63699
0.647364
0.615375
0.609832
0.610223
0.601625
0.620469
0.619962
0.629159
0.628732
0.637433
0.62122
0.620471
0.599933
0.629812
0.62888
0.638048
0.636702