/*--------------------------------*- C++ -*----------------------------------*\
  =========                 |
  \\      /  F ield         | OpenFOAM: The Open Source CFD Toolbox
   \\    /   O peration     | Website:  https://openfoam.org
    \\  /    A nd           | Version:  9
     \\/     M anipulation  |
\*---------------------------------------------------------------------------*/
FoamFile
{
    format      ascii;
    class       volScalarField;
    location    "0.00105";
    object      p;
}
// * * * * * * * * * * * * * * * * * * * * * * * * * * * * * * * * * * * * * //

dimensions      [1 -1 -2 0 0 0 0];

internalField   nonuniform List<scalar> 
8874
(
203304
1.98749e+06
116325
1.69327e+06
2.46611e+06
1.78368e+06
64135.1
1.57042e+06
29982.7
1.07471e+06
1.69823e+06
1.35821e+06
15778.8
962877
1.31056e+06
1.2734e+06
1.62868e+06
1.82462e+06
1.88687e+06
1.43901e+06
1.69708e+06
1.47072e+06
1.21066e+06
1.80873e+06
1.34917e+06
1.48446e+06
1.38194e+06
1.60644e+06
1.16387e+06
2.30097e+06
2.24613e+06
2.07056e+06
1.93534e+06
1.57269e+06
1.74801e+06
853107
1.21489e+06
1.35174e+06
1.44413e+06
1.02689e+06
1.01667e+06
1.23937e+06
675443
1.29726e+06
634969
923698
812148
1.10982e+06
529663
1.47167e+06
1.62397e+06
1.40198e+06
1.52271e+06
1.17348e+06
1.31204e+06
531775
580776
844309
942795
497745
604154
841669
1.14669e+06
1.34442e+06
1.19619e+06
117484
97520.6
92362.2
640000
619952
517920
535561
100280
80637.1
51810.9
414352
555411
338375
456227
24865
16404.4
13351.5
190490
279023
224325
151521
393793
370124
185975
559885
726202
479908
648602
11903.8
25842.1
174568
202730
161512
138453
16100.9
124977
148832
7667.98
7863.54
3678.55
3574.64
3632.19
3441.58
7704.76
33469.9
31777.7
33039.2
7740.03
31849.9
7661.54
3833.04
3985.97
4154.08
3723.25
4191.24
4020.03
3891.06
296808
285192
118744
122074
276913
117034
287742
3525.17
3610.82
3755.82
3563.76
3659.06
3714.35
3831.25
3979.05
5009.33
7078.11
6206.78
4659.01
3602.96
3977.71
11845.9
42200.2
34912.6
40270.9
10753.8
34242.3
7806.61
130929
334700
306012
318857
141843
126919
294808
3491.06
3940.51
3884.05
3620.59
3611.15
3490.78
3532.03
3173.7
4977.98
3448.12
4485.84
3557.76
3175.92
3538.45
3562.23
3368.63
3607.92
3514.77
3258.75
3610.54
3470.65
3446.24
3066.54
4973.97
4016.33
3063.8
3411.75
3169.95
7569.64
5625.27
4066.15
3070.12
3984.61
22283.6
12737.4
71312.3
14706.4
43407.4
8709.93
888323
2.48618e+06
4.66468e+06
1.61983e+06
1.4698e+06
2.57472e+06
2.47332e+06
1.46875e+06
2.59295e+06
1.59854e+06
4.49782e+06
4.60252e+06
4.5122e+06
610938
52185.1
734611
892280
189902
671937
526541
308907
101474
101308
4.14681e+06
4.19661e+06
5.10403e+06
106640
106814
101616
1.76097e+06
2.60282e+06
2.64039e+06
1.71277e+06
1.71983e+06
2.85375e+06
2.71106e+06
1.61334e+06
4.99198e+06
4.40558e+06
2.6783e+06
1.39758e+06
802959
195494
807264
195237
195677
529985
529293
107346
105922
105940
104011
101309
173071
101576
101474
101552
101299
101313
499237
580673
575406
480714
323421
482237
437582
543660
692038
873468
837019
562556
225569
508626
2.6147e+06
3.12634e+06
3.83406e+06
66597
291038
676467
1.92702e+06
3.19191e+06
5.16743e+06
23666.2
218792
711775
1.47008e+06
2.15863e+06
1.81291e+06
327110
390473
2.13846e+06
2.31717e+06
465909
2.12871e+06
2.43008e+06
130669
197349
1.90936e+06
2.47877e+06
870050
2.4919e+06
2.58925e+06
341533
550165
2.62237e+06
2.89561e+06
2.60257e+06
2.90111e+06
3.00319e+06
1.98546e+06
2.6495e+06
3.58526e+06
2.96488e+06
4.24568e+06
4.6825e+06
140876
1.80097e+06
2.41649e+06
32290.7
62568.5
1.2029e+06
1.41552e+06
478960
2.56007e+06
2.82845e+06
204735
381784
1.43036e+06
1.2773e+06
2.80274e+06
572500
1.16796e+06
2.76636e+06
1.54842e+06
2.16053e+06
4.81521e+06
2.39117e+06
2.68246e+06
2.2328e+06
167030
1.05926e+06
1.21808e+06
197579
287248
1.09804e+06
1.19663e+06
390545
1.23116e+06
1.1166e+06
324533
615204
1.18455e+06
952004
1.02121e+06
881423
763165
1.96621e+06
1.82133e+06
2.27718e+06
2.2572e+06
2.36367e+06
1.35188e+06
586354
345543
1.18184e+06
1.20977e+06
716785
824883
973296
653813
896334
1.16456e+06
789026
766116
600747
471158
103620
2.42419e+06
1.49917e+06
466749
644646
198392
101437
2.75131e+06
2.41207e+06
2.57134e+06
3.25116e+06
3.01344e+06
3.17153e+06
3.87815e+06
2.16357e+06
1.84875e+06
2.08663e+06
3.69109e+06
3.1382e+06
3.62987e+06
4.66731e+06
4.07331e+06
1.62792e+06
1.48216e+06
1.61985e+06
2.3376e+06
2.10369e+06
2.25217e+06
1.09697e+06
1.53e+06
779363
2.27306e+06
2.39152e+06
2.42794e+06
1.95305e+06
1.78396e+06
1.21923e+06
1.7239e+06
1.74881e+06
2.24709e+06
2.06142e+06
1.59234e+06
2.21075e+06
1.8347e+06
1.83272e+06
1.93437e+06
2.34862e+06
2.44212e+06
1.90954e+06
2.33769e+06
1.89861e+06
1.7098e+06
2.00299e+06
1.52928e+06
2.11709e+06
1.5552e+06
2.17501e+06
1.67974e+06
1.8361e+06
2.454e+06
1.84822e+06
2.31013e+06
1.92154e+06
2.32517e+06
1.78531e+06
1.97209e+06
1.94126e+06
2.53587e+06
2.52239e+06
1.95496e+06
2.57895e+06
1.9302e+06
1.96625e+06
1.8617e+06
2.56666e+06
2.64567e+06
1.93561e+06
2.61714e+06
1.90394e+06
1.99145e+06
2.56017e+06
1.88678e+06
2.73812e+06
1.97154e+06
2.63865e+06
1.91438e+06
1.9955e+06
2.71927e+06
1.85608e+06
2.83479e+06
1.96177e+06
2.6864e+06
1.92264e+06
1.80045e+06
2.65336e+06
1.86803e+06
2.72739e+06
1.73366e+06
1.8676e+06
2.87962e+06
2.87215e+06
2.72488e+06
2.11966e+06
2.18577e+06
2.2996e+06
2.66195e+06
2.3989e+06
2.47768e+06
3.39524e+06
3.60137e+06
3.36835e+06
2.8657e+06
3.35715e+06
3.11257e+06
3.71953e+06
3.79042e+06
3.40778e+06
4.05525e+06
1.27955e+06
1.39217e+06
2.02938e+06
1.65481e+06
1.5333e+06
1.16494e+06
1.8626e+06
1.34545e+06
1.64904e+06
2.23713e+06
2.17474e+06
1.61633e+06
1.37722e+06
2.04132e+06
1.00853e+06
1.48055e+06
721698
1.30183e+06
924333
1.63759e+06
784609
1.05869e+06
1.83471e+06
820016
1.37168e+06
1.0756e+06
1.75305e+06
819361
1.37565e+06
1.66274e+06
2.68534e+06
2.27915e+06
1.67354e+06
1.3931e+06
2.37003e+06
1.29727e+06
1.55004e+06
2.78755e+06
2.40643e+06
1.64484e+06
1.18199e+06
2.41929e+06
1.00155e+06
1.89355e+06
800021
1.4154e+06
1.05879e+06
1.90813e+06
756754
911684
1.75926e+06
677421
1.36622e+06
836882
1.86792e+06
706445
1.15248e+06
1.44173e+06
2.29614e+06
1.10805e+06
2.10205e+06
943815
1.5936e+06
713381
982526
829514
1.34649e+06
836572
2.43193e+06
2.71787e+06
2.36696e+06
1.73657e+06
1.74439e+06
1.96874e+06
2.53211e+06
1.94953e+06
2.23399e+06
4.2515e+06
4.62828e+06
4.18906e+06
2.86414e+06
2.62708e+06
3.24445e+06
3.71467e+06
2.76957e+06
3.59408e+06
3.37963e+06
1.46284e+06
2.4773e+06
687868
652455
1.1337e+06
1.02125e+06
702538
657818
1.08201e+06
696966
727127
1.18601e+06
1.15179e+06
727216
692478
1.12498e+06
688050
1.03827e+06
687983
1.14855e+06
673431
1.09208e+06
697113
690804
1.15461e+06
674110
1.18233e+06
681315
1.12923e+06
691852
645490
710387
1.22595e+06
1.16634e+06
678283
674125
1.15994e+06
621017
632043
1.18757e+06
1.05605e+06
644085
628354
1.12119e+06
632882
1.16393e+06
651203
1.14156e+06
658607
1.14494e+06
640611
625192
1.02279e+06
797124
1.07662e+06
675864
1.09618e+06
678038
819841
685507
857447
947845
713549
781577
840210
883770
878623
475925
800212
679976
770518
1.79068e+06
1.92936e+06
1.76674e+06
1.60081e+06
1.97227e+06
1.74143e+06
2.0512e+06
2.12768e+06
1.89126e+06
2.41123e+06
2.02697e+06
2.27115e+06
2.20951e+06
2.30726e+06
2.29189e+06
1.80299e+06
1.9548e+06
2.19361e+06
1.14101e+06
163387
411980
679769
692648
1.21665e+06
1.23243e+06
691632
682652
1.23092e+06
678538
663950
1.22686e+06
1.15564e+06
679297
696502
1.20395e+06
728340
1.19164e+06
795637
895658
709968
1.15135e+06
813408
762200
963385
803085
790039
813470
1.07082e+06
824549
847560
661108
1.09763e+06
1.06516e+06
704702
754420
932834
884907
893411
971490
501021
816864
789921
754452
837479
829990
722186
251261
858928
654308
559388
711827
162741
134725
125170
452014
400111
308415
2.38075e+06
2.15386e+06
2.3646e+06
2.19558e+06
1.24267e+06
2.04708e+06
1.41956e+06
875658
1.80224e+06
1.3799e+06
178185
562416
887343
115131
376225
104914
102853
142238
108574
114351
68155.3
474980
642064
528180
715387
137066
160905
143474
738903
715125
802141
827028
204675
398028
204372
263313
495119
305602
466028
19974.7
37321.6
223655
317793
358957
30880.6
261206
419327
444126
257467
635627
788022
705217
835321
173045
247816
881306
267079
971420
944801
912970
93206
203219
576993
817858
149408
780774
614567
48452.4
216316
247485
290389
46565.8
256619
96776
135774
394564
125257
65580.4
333463
422532
306091
119255
162562
89989.1
149790
193682
221106
246819
296783
484436
769624
884943
341665
824480
868187
567197
351565
799107
235670
755609
298241
598700
312724
100909
320822
205868
298743
157800
327250
113325
298007
331941
318626
229421
168185
344873
985145
355183
406229
975025
426705
970543
955764
421524
205520
255821
348740
264830
419696
368778
144683
198768
235032
265427
291703
235392
268928
893872
524308
884097
389437
437437
864998
882266
510669
963121
2.43709e+06
4.35537e+06
1.30452e+06
1.90101e+06
864874
401810
3.01556e+06
144468
827424
299112
119610
1.55965e+06
2.47734e+06
1.5062e+06
2.71178e+06
1.42967e+06
2.63913e+06
1.53157e+06
4.57461e+06
5.01004e+06
4.66485e+06
1.29184e+06
1.49109e+06
2.43228e+06
1.10109e+06
1.45112e+06
1.24567e+06
1.70267e+06
1.04111e+06
571325
717304
747195
902831
986582
882478
4.38825e+06
1.2045e+06
2.85205e+06
253257
566128
1.15688e+06
764068
611637
640008
191473
810652
492052
529294
370506
107050
214819
773174
596952
210883
490236
696832
563036
756025
529165
892377
429128
852727
487806
560663
571408
831851
528201
713381
332372
807047
737633
792071
614311
808334
269723
230025
285306
330799
277672
292485
346142
285267
347673
360253
373648
300865
314020
387680
366162
297497
337838
238785
264309
300776
276212
372338
261314
337190
242791
361091
281764
345904
331966
243193
256476
382052
210325
348221
360912
495459
527654
448799
470871
404705
429297
362644
262188
415896
365091
437682
283808
381395
350846
953663
528789
858256
976956
465104
487504
906405
705403
424008
558210
411752
715296
357665
585583
335121
252749
304070
329363
274993
310114
367666
530063
540723
496482
495907
483247
474939
434908
528548
596266
531330
504864
443052
500379
440287
405765
384611
449266
392335
329181
315772
371228
549498
531786
914005
911925
536568
484219
877998
442874
358416
330684
409118
378944
331910
410131
360737
445852
303235
447918
318651
493705
401088
514951
521844
481161
568326
595954
535780
553506
510921
568690
514283
652195
605881
680219
619868
470869
477852
419027
652095
578997
595128
522950
359917
407493
444851
374763
534511
468234
502590
101322
101302
101298
101379
101298
101298
101298
101298
101298
101298
101298
101298
101298
101298
101298
101298
101298
101298
101298
101298
101298
101298
101298
101298
101298
101298
101298
101300
101298
101304
101310
101353
101299
101298
101298
101298
101298
101300
101298
101298
713664
221724
520408
104563
119042
101300
101298
101303
101298
101298
529256
456333
397173
119519
175672
101470
101304
417615
139841
102102
105806
101398
101298
101298
101299
101763
101373
101400
101309
101313
101304
101298
101351
101298
101298
101299
101300
101298
101840
327252
125345
109897
109899
101437
180911
101713
101848
103208
103734
101329
101298
101298
101298
101298
101298
101298
101298
101298
101298
916805
569179
686845
959283
4.30239e+06
655774
956430
1.43129e+06
1.30738e+06
513232
737824
167759
106988
101298
2.294e+06
1.07929e+06
1.88897e+06
3.01591e+06
1.18833e+06
3.4012e+06
4.12816e+06
3.14523e+06
232137
105061
1.34544e+06
1.35951e+06
1.93554e+06
2.24819e+06
1.35077e+06
1.85749e+06
1.33044e+06
1.4251e+06
2.19603e+06
1.49297e+06
1.17586e+06
1.38292e+06
1.69196e+06
1.35802e+06
3.89915e+06
1.22298e+06
2.56358e+06
361518
1.34761e+06
457519
959468
128299
413770
102105
125621
101299
101298
652004
131055
103209
114273
287580
101404
101304
101307
101377
101298
101298
224821
101331
101539
101308
101298
101298
101298
101298
101298
101298
456071
924606
147204
175732
347404
102531
104447
119019
107758
101376
101527
103760
251606
101832
105430
109117
162816
101459
101804
102129
103035
101302
114285
101330
101364
101346
101298
101300
101298
101448
101298
101299
101304
101308
101298
101298
101298
101298
101298
101298
101298
101298
101298
101298
101298
1.0193e+06
800943
1.25365e+06
748051
1.21471e+06
864795
1.38949e+06
823842
1.29505e+06
1.16019e+06
869005
696388
732802
356795
760070
631936
523012
187199
731078
243679
107716
202366
586252
103972
101299
101603
101299
101298
671042
103932
101440
390263
101519
101310
671426
121366
144758
160249
308811
348306
455443
102430
104489
125911
106486
105070
106359
101312
182974
101528
101601
101562
101299
101314
102749
101298
101298
101298
101349
101298
101298
101298
101539
101299
101298
101299
101309
101313
101308
101298
101298
101299
101298
101501
111473
101298
101298
101304
101308
101298
101298
101298
101298
101298
101298
101298
101298
523266
663227
611232
876088
776907
1.11339e+06
1.04947e+06
590645
467253
466882
1.17849e+06
1.29164e+06
721835
822792
463112
593554
735809
635687
476207
390045
638736
590283
637121
625390
743646
697437
714303
759475
581345
524850
512250
716362
644076
663421
733418
542798
505857
520799
581886
620059
641059
599425
453186
445253
431308
549980
578632
600922
572748
420991
439389
518869
402692
343156
357632
421424
348548
414962
401719
420660
433793
501916
525711
418510
389316
452488
347111
320675
402529
375365
487356
370586
415437
363547
305232
406517
344604
364139
409895
306363
442966
395158
329520
462060
401178
277361
372258
409309
318408
370770
446836
466422
310532
430182
427366
402362
384261
505663
600386
544064
568900
652526
701729
668306
622260
592854
613548
549644
838202
779196
705151
771706
691419
634049
656621
838071
768881
737290
789394
599035
434065
552925
482167
448642
578133
628481
451458
509093
554018
396459
445432
365655
413332
504380
531530
491115
670564
708890
642660
611850
634137
886773
852247
860484
572741
580963
901021
609430
670578
563097
415678
501505
535198
447196
554653
503855
609556
483729
409572
378862
447798
652462
643384
607740
543163
579113
608228
563330
482807
370549
496129
400698
447168
460309
561329
687187
894157
885907
612041
918646
601421
846704
862606
624216
784479
562405
751677
509368
655953
705318
655354
530970
465044
434901
519340
568970
628072
588781
721788
593126
500026
468762
550644
701509
844594
755361
661480
614621
708603
634389
753530
848536
693469
708886
606544
652543
553836
1.15124e+06
396321
1.30951e+06
1.06549e+06
1.25451e+06
786626
144357
644661
602395
639358
789793
691271
742240
738011
473002
561397
512753
672594
718955
617939
669803
840912
674088
731698
750744
800097
862203
693537
766673
724078
661105
1.02746e+06
941083
1.08628e+06
889630
940123
896682
810277
828625
1.15348e+06
963533
924996
1.05411e+06
913502
855056
894913
1.21286e+06
1.06799e+06
952877
682968
446708
466936
481884
524281
557823
571115
437173
511648
443538
432238
371104
511857
506119
817204
701012
745056
860188
907782
809582
1.00312e+06
565107
656737
596014
887398
742624
797796
807318
791613
881944
771889
799552
784975
879692
742002
663282
554656
470367
458138
392592
449983
526173
792295
530121
599693
545647
439735
488736
619073
569800
655757
531741
466331
437633
517018
550737
653744
769233
600900
722367
507667
473498
554619
691657
790609
646454
532343
606278
450731
503999
760772
831810
836158
539531
564927
678326
711477
622883
659512
830466
490143
513544
635945
671922
229969
101315
225660
101300
841083
842336
111547
934639
752998
807276
775077
832292
892129
719201
463205
388850
345707
224282
279719
240474
304318
384205
376285
431150
330245
321463
382454
313812
473473
417136
418727
472008
393353
445080
347370
456128
464236
413638
481926
222677
277223
269191
346114
290544
298973
332524
927271
779491
733304
661111
698811
893979
858400
739357
773140
669553
586623
550857
490631
664185
1.27697e+06
1.04105e+06
890553
854544
1.20991e+06
998293
971506
793348
525009
686238
552031
675547
714976
808272
748824
742181
693586
867153
920151
847297
793867
1.06536e+06
1.11258e+06
1.02533e+06
953854
1.25521e+06
1.07868e+06
1.01864e+06
710432
796630
876704
836654
762981
866641
769462
823063
1.13239e+06
953117
739353
797942
906852
976506
853149
860884
781425
789955
599012
547472
724503
835919
822855
817500
809499
658618
603381
757191
103837
120096
101301
105552
101299
101673
101298
575215
664626
719653
775193
732919
778597
765829
1.07894e+06
1.26498e+06
1.07465e+06
839606
1.04612e+06
797491
1.02729e+06
1.0261e+06
951375
854543
732268
933103
848270
682055
627730
735037
786709
788036
763531
564774
681243
1.07484e+06
936074
994475
907512
795628
849748
851396
726930
654626
785240
799221
787636
751871
817504
707489
716463
748174
734382
724854
749585
687979
843360
872736
710052
554509
728766
852577
660347
813634
661546
816285
796360
524066
631304
637585
837647
803056
636536
835133
521635
630320
675646
838033
832492
810510
859818
634513
749272
767980
822511
758369
831618
702949
842502
720477
581625
983464
949250
1.01323e+06
1.12965e+06
1.17711e+06
1.21173e+06
1.17062e+06
802564
1.02824e+06
910139
1.26873e+06
1.00681e+06
923796
1.12655e+06
968520
1.12335e+06
927797
1.17408e+06
1.37295e+06
1.14921e+06
1.25333e+06
762502
656156
814581
853429
862846
733379
814998
729346
789224
814238
738928
816870
816659
684106
742649
843250
864129
849237
874471
677752
782961
1.00209e+06
870721
824660
1.14724e+06
958246
1.00623e+06
1.10385e+06
833397
771482
849140
736596
882404
934849
819845
1.12212e+06
1.34025e+06
1.38268e+06
1.00488e+06
1.13486e+06
939067
1.24512e+06
644212
103336
101300
337183
101475
101372
101298
543893
764173
753121
701093
747133
761249
634746
170227
658001
532249
303572
614478
679560
630580
773373
477453
431704
384845
318527
287859
386776
463010
837779
364839
419224
356319
286038
271476
345707
362732
325295
347253
289062
246729
215294
311702
275997
265085
257603
306202
200496
200874
249531
254557
430354
459266
376953
442520
323661
464296
378675
391992
184918
425156
239499
114131
495602
468138
469359
565087
15105.9
95758.3
12018.1
367250
474709
529321
420203
11446.6
34445
26083.2
85856.8
66324.4
118556
146382
88333
29611
54778.7
171770
120271
218367
183119
238743
376076
218458
270471
395001
296900
409526
19406.2
43756.2
27491.4
67616.5
94468.4
115989
139801
93176.2
74388
154025
319831
273611
197322
237700
165357
215258
120804
358633
355949
282801
271124
458821
521011
491218
304506
296295
356262
365241
74242.7
165064
147020
252832
252597
186647
202550
447617
411783
383872
256531
209492
274523
327495
303898
408776
266474
444542
371255
331322
425808
456923
451088
430904
344235
415834
374296
430611
343633
355004
335667
199124
221310
255480
263825
530338
575771
546881
471157
463667
412845
429285
499955
470867
438099
425316
372844
332063
387180
390061
402192
373508
324839
335449
302267
295479
443140
509866
517416
488306
485718
407372
449462
264231
336356
311127
214325
256990
280418
238545
524201
662047
571952
538916
493799
688746
704071
328870
379784
441449
376725
320492
275941
327293
719768
699868
564171
664023
614531
719791
727747
696733
595867
663297
733761
727762
715943
726001
577645
688960
530747
450484
559076
485035
395152
114500
703039
143491
719799
396877
403768
101949
125517
402966
442393
671301
384179
651398
630059
336063
719865
649670
710871
672257
735936
703361
728735
773194
735652
710862
728702
672119
703264
649619
810504
833239
766177
773352
861607
749459
635506
202351
272414
593236
634848
346924
593216
272382
1.24154e+06
1.00163e+06
867458
1.11876e+06
1.22304e+06
1.31661e+06
1.09463e+06
830108
824524
799020
737867
731151
793544
601534
1.11403e+06
1.33077e+06
1.14817e+06
1.30955e+06
1.29107e+06
1.31467e+06
1.28624e+06
1.118e+06
1.28921e+06
1.30866e+06
998111
1.05718e+06
1.25758e+06
1.22455e+06
799190
817773
821429
825580
796460
655145
592369
491292
250628
210754
544319
302948
613662
578731
738090
554985
783894
767752
783805
657465
554965
781204
556402
616163
839986
822742
824317
840886
781616
622743
785267
702828
765248
469082
333179
1.28986e+06
1.12803e+06
1.17622e+06
1.03478e+06
1.08465e+06
984095
927761
581965
612948
458158
867333
800258
898783
746558
788288
779872
802178
551895
650120
707888
760666
333252
469416
766642
781152
785168
622479
529057
939305
1.3481e+06
1.17586e+06
1.28721e+06
1.39105e+06
1.12326e+06
1.44548e+06
758147
779142
645760
777155
402260
594654
722851
788780
713983
844753
662430
357145
749596
494434
654293
464629
338494
785206
711968
855121
855798
816250
761945
506292
796211
892039
793918
898804
101302
101343
102730
101299
101298
101298
101298
754332
640636
231321
536930
711644
164730
362013
355457
405478
237676
587113
748352
672414
699651
1.35991e+06
1.14894e+06
1.34356e+06
1.35197e+06
1.1959e+06
1.33828e+06
1.23741e+06
112478
133382
412274
143481
193764
438549
522650
112482
133402
193800
438565
522686
412302
303593
729431
868977
847126
479054
253943
661348
807910
777220
861680
857827
329257
600758
733254
861202
810695
657081
320536
691477
868182
830620
868563
1.35e+06
1.18214e+06
1.24102e+06
1.0601e+06
778594
1.38394e+06
1.26198e+06
829761
969495
815933
547624
708729
265266
392557
1.3136e+06
1.29374e+06
1.37759e+06
1.41152e+06
1.22287e+06
1.09749e+06
1.34729e+06
741754
832555
617868
794112
827509
864802
387520
196498
555239
703978
757453
299898
513012
659297
1.31155e+06
1.05566e+06
1.30886e+06
1.31301e+06
1.08199e+06
975756
1.33318e+06
616227
386040
730817
396913
586828
121983
197331
556947
808805
721227
188789
388022
606693
397568
121985
221716
616097
586739
197329
730477
385974
277659
302160
130111
398266
3732.59
3540.39
3635.04
10884.8
3303.36
380040
159162
7768.35
43173.1
7854.77
62069.4
3354.86
3451.78
3502.5
3290.09
8784.63
3808.62
31809.5
264735
30700.2
284070
327722
7818.65
7935.14
4004.96
3715.61
3980.32
3896.73
3976.63
3724.13
3486.8
3485.91
27907.6
273992
29920.7
224552
393038
58529.7
444966
427094
301068
190944
13267.9
3253.49
8789.34
257623
135765
143987
36333.9
3876.65
6996.83
5926.16
24531.4
9169.73
78800.5
176683
87178.2
158294
302874
191625
115619
140375
295791
349272
442841
321294
553715
456040
337805
497418
739837
803403
31742.2
31456.3
7600.86
7756.66
7702.22
30919.6
7732.43
4093.16
4044.41
4264.79
4264.42
4297.62
3959.71
4250.33
111633
253931
111817
266584
113553
114216
275507
3884.18
3920.78
3969.01
4068.04
4009.33
3910.87
3819.2
35206.6
375497
410411
134096
11658.7
377975
46457.2
33108.2
7681.46
7733.35
31727.3
7687.01
33516.1
7698.75
31132
30657.5
7678.11
7620.27
31975.2
31157.8
7821.75
4244.42
3979.24
4250.64
4082.23
3760.27
3896.94
4245.14
3893.18
4035.76
4193.51
3834.78
3999.09
4155.43
3684.85
3654.73
67109.7
5168.69
23099.7
5150.43
4063.77
4874.91
116611
274520
113178
293962
121331
116722
284085
3565.94
3661.38
3833.56
3527.27
3757.08
3610.12
3630.9
3848.82
3832.45
3931.25
3484.9
3680.91
3832.55
3724.09
117059
288680
122651
118710
297518
125458
285599
3733.11
3972.15
4050.45
3577.07
3964.86
3930.38
3607.1
7635.38
34575
32480.4
35839.4
7898.76
7631.54
33958.2
35968.9
7626.58
33915.8
32417.3
7775.22
34619.5
7625.48
3930.07
3580.76
3607.15
3733.89
3972.62
4049.68
3637.12
4016.61
4041.09
3640.1
4009.55
3565.25
3756.76
3347.03
7948.51
8042.82
35826.6
8187.2
37497.8
38347.8
7985.91
3487.41
3562.22
3649.04
3481.49
3426.36
3460.51
3504
309034
294711
122572
327409
137607
307200
128649
3423.7
3482.21
3460.87
3503.68
3649.15
3561.13
3500.9
46596.3
98075.4
119110
9964.41
6948.59
111138
193770
129961
313678
133912
319828
139571
145411
334367
3585.09
3496.7
3565.21
3351.98
3468.36
3245.43
3146.34
307398
137874
128586
122455
309268
130438
294859
37759.5
9201.66
7877.34
7886.85
37852.8
7900.22
35804.2
4717.08
3778.77
4025.9
3780.01
3972.93
3356.14
3587.77
3864.76
4916.49
7113.29
7664.25
5346.43
3297.42
3801.2
4039.4
3737.73
3286.61
3935.43
3535.76
3762.99
3226.66
12543.5
45039.3
36155.5
38608.5
50813.3
14422.9
8104.4
9871.68
7964.26
38575.6
7955.18
36668.8
40533.7
8273.47
8651.03
54326.1
42198.2
44873.7
15595.6
9170.64
62802
3788.68
4089.83
3227.45
7562.7
4082.71
3401.74
5753.39
3502.58
3040.78
3445.96
3211.29
3643.93
3046.24
3477.63
3329.46
4018.84
4446.38
3331.42
3290.34
3453.02
3489.59
164206
352457
148397
352254
326223
148547
137024
137810
355074
322616
345350
148494
378343
174660
3299.07
3071.04
3142.91
3205.58
3304.46
3847.87
4883.16
3347.22
3941.23
3762.63
4550.99
3210.2
3288.92
4853.35
3300.52
3299.89
4688.55
3221.21
3444.08
3191.73
3372.31
170317
353792
150679
330355
140427
154977
354831
3270.21
4164.54
3194.4
3405.16
8521.9
6039.73
3735.98
8540.81
48716.8
10282.6
8155.54
37632
4738.23
4010.7
9359.28
3996.61
10030.1
4748.69
7948.95
46433.6
35112.9
194090
359451
179543
340222
154549
163848
357145
106968
58837.7
18237.5
60973.4
17033.5
9358.94
43965.6
44102.2
65239.9
22639
16697
9427.1
58313.7
106252
84000.4
86318.7
29901.1
69212.6
21504.2
51749
11174.3
18419
13946.2
52535.9
12619.1
9741.2
5369.08
4328.75
8339.84
11160.7
4486.6
12188.3
38543.2
52922.8
4007.16
6335.18
3618.05
6953.83
21927.2
6364.18
3812.55
3253.63
3974.74
4433.69
8110.43
10820.8
49428.4
35416.1
11445.3
3114.48
4332.81
3806.46
6754.81
8640.53
7893.03
26806.8
3178.78
4095.13
14281.4
7323.01
3808.67
11527.3
38663.6
3124.34
3839.63
8192.14
29273.7
3926.28
4145.96
8939.3
194419
416332
230189
399657
190051
379108
165795
613379
723644
309805
284399
425848
180495
187109
188279
371358
163936
400475
197877
419219
232808
14697.5
71832.4
53350.3
10116
15202.3
4402.8
5513.36
12946.5
8646.32
4003.44
22844.7
5109.87
15600.5
74942
37630.8
70120.3
21388
8171.95
3974.05
5338.88
15330.1
248279
392517
216810
396114
202673
179224
376704
214837
288294
186062
116614
199820
69165.6
168180
102225
157516
56294.6
158471
193289
269753
287668
157978
131692
222320
54396.3
42204.8
143329
119821
45376.3
35360.2
113925
135473
242424
112531
211258
76687.9
23665.1
7193.67
30962.3
90609.9
150040
82142.3
49987.5
111421
129085
125415
109743
195541
196279
22910.7
27146.1
75590.1
87825
28324
146164
79238.5
6875.54
34959.6
89376.5
77004.4
24568.9
155296
89406.5
49657.7
28373.9
115128
37848.2
167079
87236.3
97064
75354.5
181727
118990
64065.8
221814
121845
167574
273052
411781
225824
435019
449637
278392
328571
126995
206332
207604
43151.2
59075.6
116661
133103
29203.5
171594
90355.1
50586.4
9456.63
40949.9
118717
57357
114782
173731
39612.4
94696.8
11438.1
42780.3
333987
427189
288656
414425
237217
429039
279666
142430
70848
98114.5
174614
208013
241183
261275
152574
205464
227949
118527
36829.5
66457.7
157326
145759
238022
192304
205299
148883
200900
157605
213360
247432
222426
98515
165997
201058
156464
147026
163656
159966
207398
191378
232454
194990
146706
79909.7
196265
209147
201519
152631
241204
176765
254719
220500
254560
176934
216191
285874
236820
279218
204407
233755
302191
263233
186527
282977
242239
374223
384194
307476
273254
409254
249818
272861
223624
224149
167014
112192
196077
237136
263300
303964
141114
208530
237161
281724
216101
290145
237007
347706
293241
308786
364043
275882
228089
321524
270318
231389
237509
277965
389164
404594
302007
439661
329045
344957
457988
372185
264324
256251
290216
297547
333569
324033
251411
340697
286301
238058
252091
205444
286272
261763
371488
332356
290248
256034
224131
324083
403794
335091
335002
489920
302909
369948
442908
426129
484298
363471
521555
390119
344574
456018
416692
335108
281659
353964
258556
328132
386501
455781
521529
344410
390874
321178
364696
484447
369003
411569
506252
431865
311354
348933
388640
389252
419814
478343
420075
293047
338847
366922
446472
511906
380083
396778
639176
534062
465909
497602
572455
639149
472696
426154
375081
415018
553605
572284
472671
374933
426476
414910
638909
535136
612116
451695
420054
676384
566865
494479
827563
671013
779316
591729
670833
553089
494224
719913
628388
719738
535472
624521
535374
465968
209482
589353
405258
128588
349586
820161
728874
101912
101298
101298
101298
101298
101298
101298
354708
138727
429483
109105
265653
105047
200488
542710
658410
735647
306984
438678
132576
191768
1.10938e+06
635480
338276
880558
1.28242e+06
1.05675e+06
1.34508e+06
166009
257167
130935
409602
547086
756984
621384
396058
805493
700968
128056
522554
329133
214741
139736
158968
132537
102469
103617
102755
101998
246115
515641
636650
107170
123335
250788
158120
1.30481e+06
660417
1.22937e+06
1.29424e+06
963078
846301
1.34106e+06
288709
662217
602818
116231
312733
247402
109487
519723
158444
252105
402991
249232
123855
107281
194123
102067
104660
114159
104660
317890
194131
140008
128261
106854
441270
401525
602397
227641
821006
991321
1.26859e+06
1.23289e+06
307479
718374
909525
101724
145107
102719
103855
108720
261734
175672
113957
131065
105426
200636
306140
404839
525718
593041
176671
524524
112550
288707
225365
107260
716124
125322
404929
162910
103616
134725
452647
103854
108718
261758
102717
101723
145034
114490
124834
102456
509871
376738
127382
176724
104833
139428
433700
172348
484111
748149
104607
154079
385721
602476
1.03874e+06
1.16138e+06
213212
565494
782980
110969
110973
122382
101654
102085
101654
101445
106237
183316
113833
118029
101977
315448
560781
195839
104525
125624
113193
195846
101677
104525
107638
173677
335892
102549
101505
103664
114067
241616
522596
111323
102195
125067
172327
107950
515830
269005
115992
101885
109914
105807
165226
102060
287632
120930
133374
420477
161368
103724
108914
106029
114567
101463
101789
101575
101382
3320.59
3729.22
3606.91
5621.61
3690.2
3572.57
3810.74
3046.87
3857.08
3760.9
3672.52
3807.47
3691.59
3619.1
3549.52
3450.16
3560.66
3730.47
3333.43
3478.67
3560.28
3449.7
3301.52
3480.9
3185.07
3609.74
3121.15
3062.85
3752.7
3564.3
3539.01
3556.37
3367.5
3513.98
3446.62
3168.62
4063.62
3170.53
3068.64
3059.5
7569.17
3427.7
4481.02
3065.93
4146.25
3026.9
3109.32
5529.52
3026.33
4144.99
3652.69
3443.72
3210.44
3477.42
3502.07
3302.27
3042.57
11510.6
38608.6
7360.22
3177.49
14271.3
4120.22
5918.51
173868
103668
114117
140875
107716
101506
102561
102622
141538
106539
101869
101367
103478
118754
101298
101298
101310
101307
101298
101298
101298
101420
102216
102171
104743
125424
240266
126768
107799
231771
134509
102702
102741
108197
101362
101299
101298
101298
101298
101298
101298
101298
122129
101442
101962
101402
101318
101949
104643
102374
102729
105050
101426
101310
101345
101333
101441
163044
105607
102272
116312
101792
101331
105806
104644
101442
101318
101402
101962
122131
101673
102374