/*--------------------------------*- C++ -*----------------------------------*\
  =========                 |
  \\      /  F ield         | OpenFOAM: The Open Source CFD Toolbox
   \\    /   O peration     | Website:  https://openfoam.org
    \\  /    A nd           | Version:  9
     \\/     M anipulation  |
\*---------------------------------------------------------------------------*/
FoamFile
{
    format      ascii;
    class       volScalarField;
    location    "0.0023";
    object      rhoE;
}
// * * * * * * * * * * * * * * * * * * * * * * * * * * * * * * * * * * * * * //

dimensions      [1 -1 -2 0 0 0 0];

internalField   nonuniform List<scalar> 
18789
(
912821
253245
253245
253245
253245
253245
253245
253245
253246
540719
253313
254488
255359
253245
253249
258658
253262
253247
253246
254833
253263
253260
705980
505856
783118
858916
644988
1.15176e+06
253463
616469
406616
464134
738330
591718
633265
692213
253479
253253
253254
253292
253264
253350
253359
255921
253793
269412
264919
254572
254480
281975
792991
538263
618860
759446
639004
652758
745617
253247
253684
253401
253289
260378
262605
272722
253380
757478
352741
266920
933943
266522
291876
277581
421585
598974
308182
486754
350245
1.19418e+06
654495
1.23964e+06
265892
1.17729e+06
1.26379e+06
1.36798e+06
364888
253304
253245
253245
253245
253246
253246
253245
253245
253245
253245
253245
253245
253245
253245
253245
253245
253245
253245
253245
253245
253245
253245
253245
253245
253245
253245
253245
253245
253245
253245
253245
253245
253245
253245
253245
253245
253245
253245
253245
253245
253245
253245
253245
290108
253245
253245
253245
253245
253245
253245
253245
253245
253245
253245
253245
253245
253245
253245
253245
253245
253245
253245
253245
253245
253245
253245
253245
253245
253245
253245
253245
253245
253245
253245
253245
253245
253245
253245
253245
253245
253245
253245
253245
253245
253245
253245
253245
253373
253245
253245
253245
253245
253245
253245
253245
253245
253245
253245
253245
253245
253245
253245
253245
253245
253245
253245
253245
253245
253245
253245
253245
253245
253245
253245
253245
253245
253245
253245
253245
253245
253245
253245
253245
253245
253245
253245
253245
253245
253245
253245
253245
253245
253245
253245
253245
253245
253245
253245
253245
253245
253245
253245
253245
253245
253245
253245
253245
253245
253245
253245
253245
253245
253245
253245
253245
253245
253245
253245
253245
253245
253245
253245
253245
253245
253245
253245
253245
253245
253245
253245
253245
253245
253245
348098
253302
253245
253245
253245
253440
253247
253245
253245
253245
253245
253245
253245
253245
253245
253245
253245
253245
253245
253245
253245
253245
253245
253245
253245
253245
253245
253245
253245
253245
253245
253245
253245
253245
253245
253245
253245
253245
253245
253245
253245
253245
253245
253245
253245
253245
253245
707493
253246
253245
253245
253245
253245
253245
253245
253245
253245
253245
253245
253245
253245
253245
253245
253245
253245
253245
253245
253245
253245
253245
253245
253245
253245
253245
253245
253245
253245
253245
253245
253245
253245
253245
253245
253245
253245
253245
253245
253245
253245
253245
253245
253245
253245
253245
253245
253245
253245
253245
253245
253245
253245
253245
253245
253245
253245
253245
253245
253245
253245
253245
253245
253245
253245
253245
253245
253245
253245
253245
253245
253245
253245
253245
253245
253245
253245
253245
253245
253245
253245
253245
253245
253245
253245
253245
253245
253245
253245
253245
253245
253245
253245
253245
253245
253245
253245
253245
253245
253245
253245
253245
253245
253245
253245
253245
253245
253245
253245
253245
253245
253245
253245
253245
253245
253245
253245
253245
253245
253245
253245
253245
253245
253245
253245
253245
253245
253245
253245
253245
253245
253245
253245
253245
253245
253245
253245
253245
253245
253245
253245
253245
253245
253245
253245
253245
253245
253245
253245
253245
253245
253245
253245
253245
253245
253245
253245
253245
253245
253245
253245
253245
253245
253245
253245
253245
253245
253245
253245
253245
253245
253245
253245
253245
253245
253245
253245
253245
253245
253245
253245
253245
253245
253245
253245
253245
253245
253245
253245
253245
253245
253245
253245
253245
253245
253245
253245
253245
253245
253245
253245
253245
253245
253245
253245
253245
253245
253245
253245
253245
253245
253245
253245
253245
253245
253245
253245
253245
253245
253245
253245
253245
253245
253245
253245
253245
253245
253245
253245
253245
253245
253245
253245
253245
253245
253245
253245
253245
253245
253245
253245
253245
253245
253245
253245
253245
253245
253245
253245
253245
253245
321630
253247
253332
312115
253246
253289
261455
253292
253246
337339
258244
253266
253246
253245
253245
253245
253245
253245
253245
253245
253245
253245
253245
253245
253245
253245
253245
253245
253245
253245
253245
253245
253245
253245
253250
253245
253245
253246
253248
253245
253245
253245
253245
253245
253245
253245
253245
253245
253245
253245
253245
253245
293612
253246
253272
273460
253245
253248
253358
253257
253246
254951
253249
253246
253245
253245
253245
253245
253245
253245
253245
253245
253245
253245
253245
253245
253245
253245
253245
253245
253245
253245
253245
253245
253245
253246
253245
253245
253245
253245
253245
253245
253245
253245
253245
253245
253245
253245
253245
253245
253245
253245
257206
253245
253246
253552
253245
253245
253246
253246
253245
253249
253245
253245
253245
253245
253245
253245
253245
253245
253245
253245
253245
253245
253245
253245
253245
253245
253245
253245
253245
253245
253245
253245
253245
253245
253245
253245
253245
253245
253245
253245
253245
253306
253245
253245
253257
253245
253245
253245
253245
253245
253250
253245
253245
253245
253245
253245
253245
253245
253245
253245
253245
253245
253245
253245
253245
253245
253264
253246
253245
253245
253245
253245
253245
253245
253245
253245
253245
253245
253245
253245
253245
253245
253245
253245
253245
253245
253245
253245
253245
253245
256199
253307
253245
258285
253312
253249
253246
253246
253245
253245
253246
253245
253245
253245
253245
253245
253245
253245
253245
253245
253245
565622
253248
253245
253686
253245
2.37284e+06
257049
253245
253245
1.48685e+06
253247
253245
253245
253245
253245
260187
253248
253245
253245
253245
253245
253245
253245
253245
253245
253245
253245
253245
253245
253245
253245
253245
253245
253245
253245
253245
253245
253245
253245
479804
476149
1.93586e+06
1.32361e+06
1.1031e+06
1.81845e+06
1.46394e+06
933271
451189
389253
911872
1.26613e+06
544954
279042
827677
263241
311852
1.60099e+06
258802
258395
335954
253646
1.11687e+06
253254
267869
253300
518885
253348
253268
253245
253246
253246
253245
253246
253245
253245
253245
984675
1.25403e+06
779367
291388
1.81195e+06
528360
1.13396e+06
253977
300326
254113
253256
292057
253795
253252
253246
253246
253245
253245
253249
253245
253245
253245
453987
762971
254234
254680
270706
361208
279231
254640
263233
255459
260853
253251
253412
253268
253245
253255
253246
253249
253245
253245
253245
253245
253245
253245
253245
253245
253245
253245
253245
253245
253245
253245
253245
253245
253245
253245
253245
253245
253245
253245
253245
253245
253245
253245
253245
253245
253245
253245
253245
253245
253245
253245
253245
253245
253245
253245
253245
253245
253245
253245
253245
253245
253245
253245
253245
253245
253245
253245
253245
253245
253245
253245
253245
253245
253245
253245
253245
253245
253245
253245
253245
253245
253245
253245
253245
253245
253245
253245
253245
253246
253245
253245
253246
253245
253245
253245
253245
253245
253245
253245
253245
253245
253245
253245
253245
253245
253245
253245
253245
318096
368238
361378
262987
265759
264780
263779
253324
253253
253266
253247
253252
253264
253331
348384
303664
330134
261506
260539
262921
259674
253312
253247
253249
253256
253251
253260
253296
253245
253245
253245
253245
253245
253245
253245
253245
253245
253245
253245
253245
253245
253245
253245
253245
253245
253245
253245
253245
253245
253245
253245
253245
253245
253245
253245
253245
253245
253245
253245
253245
253245
253245
253245
253245
253245
253245
253245
253245
253245
253245
253245
253245
253245
253245
253245
253245
253245
253245
253245
253245
253245
253245
253245
253245
253245
253245
253245
253245
253245
253245
253245
253245
253245
253245
253245
253245
253245
253245
253245
253245
253245
253245
253245
309628
283132
289269
256312
258131
257877
256132
253264
253248
253252
253245
253278
253246
253249
273049
262982
264739
255069
253928
254757
254182
253255
253245
253245
253246
253246
253247
253249
253245
253245
253245
253245
253245
253245
253245
253245
253245
253245
253245
253245
253245
253245
253245
253245
253245
253245
253245
253245
253245
253245
253245
253245
253245
253245
253245
253245
253245
253245
253245
253245
253245
253245
253245
253245
253245
253245
253245
253245
253245
253245
253245
253245
253245
253245
253245
253245
253245
253245
253245
253245
253245
253245
253245
253245
253245
253245
253245
253245
253245
253245
253245
253245
253245
253245
253245
253245
253245
253245
254526
258759
255431
253384
253497
253650
253318
253245
253245
253245
253245
253246
253245
253245
253294
253902
253382
253281
253247
253261
253251
253245
253245
253245
253245
253245
253245
253245
253249
253245
253245
253245
253245
253246
253246
253306
253250
253492
253480
253261
253265
254156
253245
253245
253245
253245
253245
253245
253245
253245
253245
253245
253245
253245
253245
253245
253246
253246
253303
253247
253249
253245
253256
253245
253245
253245
253245
253245
253245
253247
253245
253245
253245
253245
253245
253245
253245
253245
253245
253245
253245
253245
253245
253245
253245
253245
253245
253245
253245
253245
253245
253245
253245
253245
253245
253245
253245
253245
253245
253246
253261
253245
253245
253246
253245
253245
253245
253245
253245
253245
253245
253245
253245
253245
253245
253245
253245
253245
253245
253245
253245
253245
253245
253245
253245
253245
253684
258693
254273
253468
253316
253672
253276
253245
253247
253245
253245
253245
253245
253245
1.4868e+06
996005
1.21022e+06
2.02273e+06
1.38038e+06
281322
1.60797e+06
755667
902801
429819
389615
420237
253247
253514
253463
253370
253261
253254
253268
478056
697184
690097
554303
892076
905077
545649
674740
469045
646204
569970
965478
927255
598305
598695
422945
535271
657423
1.01016e+06
631070
1.03981e+06
459797
380604
354338
676032
956067
1.0319e+06
679397
274013
317151
283804
549593
782296
645905
545365
1.16657e+06
2.55393e+06
3.02813e+06
569550
3.21605e+06
1.10606e+06
870947
254228
264050
255923
410419
272016
352225
302223
253252
253274
253638
253959
255368
262166
253384
253245
253245
253247
253281
253245
253252
253247
976477
727062
774142
921327
753969
600539
1.10534e+06
1.31716e+06
1.10275e+06
1.66127e+06
1.27115e+06
2.04555e+06
839527
454538
693855
489833
1.02209e+06
889664
904279
1.18322e+06
259366
319353
267366
626219
431420
701821
338205
256441
673849
255976
254769
283176
268989
253535
253353
255980
253691
255013
296133
261863
266058
253246
253298
253250
253438
253360
254449
253263
253245
253245
253245
253245
253254
253246
253246
272351
1.95552e+06
297171
267292
465103
555040
255820
254084
253838
253699
253250
265590
253364
253279
558645
634924
507540
292133
370727
289018
392624
253245
253246
985085
253245
253245
253245
253245
253245
253246
255432
253500
747620
989992
847234
266181
255810
253245
253245
253245
253245
253245
253245
253245
253245
253245
253245
253245
253245
253245
253245
253245
253245
253245
253245
253245
253245
253245
253245
253245
253258
253248
253245
253263
253246
253285
253250
253443
253456
260642
254016
253800
253315
256023
883675
620702
509378
747109
390671
475800
617746
684376
583235
679631
848986
694501
484922
557279
253245
253245
253245
253245
253245
253245
253245
253333
253246
253249
253320
253246
253254
253245
253245
253245
253245
253246
253245
253245
253245
253245
253245
253245
253245
253245
253245
253245
253245
253245
253245
253245
253245
253245
253245
253895
253250
253631
253247
279686
253435
253246
253729
253245
253248
253246
253245
253245
253245
253245
253245
253245
253245
253245
253245
253245
253245
253245
253245
253245
253245
253245
253245
254154
254369
253332
253324
254274
253325
254227
254014
253309
253851
253294
254087
253312
253836
253496
253628
253277
253259
253653
253459
253264
253381
253251
253288
253249
253349
253254
253308
253252
253260
253246
253245
253269
253249
253245
253247
253245
253245
253245
253246
253245
253245
253245
253245
253245
253245
253245
253245
253245
253245
253245
253245
253245
253245
253245
253245
253350
254043
253257
253289
253412
253842
253252
253261
253249
253247
253245
253274
253247
253246
253245
253246
253245
253245
253245
253245
253245
253245
253245
253245
253245
253245
253245
253245
253245
253245
253245
253245
253245
253245
253245
253245
253245
253245
253245
253245
253245
253245
253245
253245
253245
253245
253245
253245
253245
253245
253245
253245
253245
253245
253245
253245
1.15147e+06
255945
253256
950882
1.50077e+06
379327
333320
292182
253246
253301
642377
253615
253332
253247
253246
253245
253245
253249
253245
253245
253245
253245
253245
253245
253245
253245
253245
253245
253245
253261
253245
253245
253247
253246
253245
253245
253245
253245
253245
253245
253245
253245
265466
254250
264701
253511
256505
253473
256134
257083
299152
256523
289341
262780
387579
346700
253245
253245
253245
253246
253245
253245
253245
253245
253245
253245
253245
253245
253245
253245
253245
253245
253245
253245
253245
253245
253245
253245
253245
253245
253245
253245
253245
253245
253245
253245
253245
253245
253245
253245
253245
253245
253245
253245
253245
253245
253245
253245
253245
253245
253245
253245
253245
253245
253245
253245
253245
253245
253245
253245
253245
253245
253245
253245
253245
253245
253245
253245
253245
253245
253245
253245
253245
253245
253245
253245
253245
253245
253245
891159
1.745e+06
1.61141e+06
998078
1.54319e+06
3.15667e+06
811713
1.52492e+06
1.52324e+06
1.67092e+06
1.79213e+06
288660
255238
1.70309e+06
3.49557e+06
253250
1.79424e+06
1.87521e+06
1.2501e+06
1.78773e+06
1.20153e+06
272892
253246
2.94187e+06
1.92041e+06
253245
2.58274e+06
2.04122e+06
921241
709008
865776
1.47692e+06
253250
253245
3.06613e+06
2.36939e+06
253400
253245
2.53806e+06
3.70497e+06
253998
253256
253246
253245
1.49469e+06
1.11881e+06
253754
253245
253245
1.64629e+06
253322
253245
253245
253245
1.06819e+06
255477
253245
253245
253245
253245
253245
253245
253245
253255
253245
253245
253245
253245
253245
253245
253245
253245
253245
1.34893e+06
1.47229e+06
2.43501e+06
1.51058e+06
2.06444e+06
1.57415e+06
2.81391e+06
1.65727e+06
2.35605e+06
1.33679e+06
1.47695e+06
1.79807e+06
1.69061e+06
1.9856e+06
2.03231e+06
1.54683e+06
1.98615e+06
1.56871e+06
2.06776e+06
2.09531e+06
2.32669e+06
2.55423e+06
1.83759e+06
2.40378e+06
2.21407e+06
2.34909e+06
2.86338e+06
2.20378e+06
3.59162e+06
3.34997e+06
2.535e+06
3.50302e+06
3.59928e+06
317546
3.81614e+06
3.14226e+06
2.31437e+06
2.17007e+06
3.44608e+06
2.73702e+06
3.70707e+06
2.42404e+06
2.22132e+06
2.12337e+06
2.75807e+06
1.83547e+06
3.41371e+06
3.27802e+06
2.65925e+06
3.86567e+06
1.6368e+06
290377
3.46125e+06
887497
256390
3.72227e+06
459189
256528
253248
322974
253534
2.13468e+06
1.84173e+06
3.34388e+06
3.74215e+06
3.3916e+06
1.15207e+06
374765
1.29603e+06
1.62328e+06
2.61826e+06
1.78918e+06
1.57354e+06
1.84723e+06
3.0966e+06
1.74935e+06
2.54656e+06
2.38746e+06
3.6296e+06
2.25804e+06
3.10993e+06
2.10213e+06
1.93164e+06
2.26449e+06
3.0446e+06
2.90503e+06
3.37155e+06
3.02684e+06
3.14015e+06
3.61442e+06
3.32239e+06
3.15934e+06
1.96199e+06
1.26989e+06
1.91816e+06
2.92113e+06
1.19642e+06
1.1152e+06
1.99978e+06
536847
259481
2.42719e+06
531717
276169
253261
285292
253613
253246
255558
253255
253247
253245
253248
253245
2.10156e+06
1.74309e+06
1.344e+06
1.38673e+06
1.3764e+06
1.42131e+06
1.45394e+06
1.40809e+06
1.73583e+06
1.49331e+06
1.70517e+06
1.55605e+06
1.53408e+06
1.76008e+06
1.68807e+06
1.77748e+06
1.59518e+06
1.62493e+06
1.88434e+06
1.56959e+06
1.80558e+06
1.84556e+06
1.37525e+06
1.41329e+06
1.61671e+06
1.98124e+06
1.89655e+06
708184
1.90168e+06
1.82443e+06
1.14255e+06
1.73014e+06
1.08713e+06
745621
1.52388e+06
1.65346e+06
1.62766e+06
1.79935e+06
1.9397e+06
1.76505e+06
1.69251e+06
1.86021e+06
862492
1.96306e+06
1.22442e+06
2.22628e+06
799036
2.15345e+06
1.32868e+06
2.10948e+06
2.74557e+06
2.47767e+06
2.1656e+06
2.17447e+06
1.9448e+06
2.51199e+06
1.90643e+06
2.50321e+06
2.18621e+06
2.18206e+06
1.88898e+06
2.21954e+06
2.58148e+06
1.8695e+06
2.18506e+06
2.63817e+06
2.54625e+06
2.96079e+06
3.72112e+06
3.05238e+06
3.01723e+06
2.52653e+06
3.14905e+06
3.575e+06
2.521e+06
2.97634e+06
2.93721e+06
3.03164e+06
2.97646e+06
3.43766e+06
3.89313e+06
3.49393e+06
3.969e+06
3.71849e+06
3.61127e+06
3.72261e+06
3.76328e+06
2.01624e+06
2.57377e+06
2.26957e+06
1.91283e+06
2.52251e+06
2.22671e+06
2.90961e+06
2.94353e+06
2.53974e+06
1.21312e+06
2.81753e+06
1.64111e+06
2.82832e+06
1.12402e+06
3.06241e+06
1.51775e+06
3.36849e+06
3.71279e+06
3.65351e+06
2.27676e+06
2.26325e+06
1.85562e+06
2.71746e+06
1.88437e+06
2.81466e+06
2.20471e+06
2.19326e+06
1.95938e+06
2.34774e+06
2.08486e+06
2.44234e+06
2.72586e+06
3.29126e+06
3.36945e+06
2.99524e+06
3.3294e+06
2.62787e+06
3.00344e+06
3.87992e+06
2.7557e+06
3.19408e+06
3.32187e+06
3.33276e+06
3.43636e+06
3.78192e+06
3.96123e+06
4.01713e+06
3.70604e+06
3.63578e+06
3.85915e+06
3.56741e+06
3.88726e+06
3.72551e+06
3.72788e+06
3.30378e+06
3.07615e+06
3.71185e+06
3.7922e+06
2.67754e+06
3.22888e+06
2.66699e+06
505988
2.11886e+06
2.07115e+06
3.4564e+06
1.43961e+06
1.06971e+06
3.73427e+06
3.19446e+06
3.00869e+06
2.85696e+06
2.5675e+06
1.65256e+06
297923
1.30215e+06
274770
258046
778050
392012
254790
1.77733e+06
2.58527e+06
2.10973e+06
2.35984e+06
2.01795e+06
3.16657e+06
2.97267e+06
2.54134e+06
3.55016e+06
3.61847e+06
3.74571e+06
3.57979e+06
3.11907e+06
3.66222e+06
2.86993e+06
2.39192e+06
3.4562e+06
1.60823e+06
261399
481971
899577
1.05044e+06
772798
1.40797e+06
613628
1.13387e+06
1.12644e+06
2.50924e+06
687472
1.61883e+06
1.03279e+06
1.84813e+06
1.67581e+06
1.05607e+06
671124
926948
2.37607e+06
2.6068e+06
1.57056e+06
2.38238e+06
1.45447e+06
1.00971e+06
1.88776e+06
1.60061e+06
2.43386e+06
1.73692e+06
1.77235e+06
1.62439e+06
2.72711e+06
1.25329e+06
2.69635e+06
2.68357e+06
3.39797e+06
657902
2.74156e+06
2.67565e+06
426743
2.80885e+06
1.30517e+06
2.86259e+06
255630
2.78039e+06
302207
1.14584e+06
2.1943e+06
1.2069e+06
1.12358e+06
2.39776e+06
2.25984e+06
1.65878e+06
2.31425e+06
2.48278e+06
1.66681e+06
504854
2.51551e+06
280243
253591
2.47424e+06
261591
256076
253246
1.33253e+06
253253
1.48281e+06
2.8102e+06
2.15225e+06
1.13936e+06
813608
1.21827e+06
361580
255637
1.4413e+06
255261
377619
253308
262386
253250
253245
253603
253246
253246
253245
253246
253245
1.71058e+06
1.99937e+06
1.87866e+06
1.95333e+06
1.83457e+06
2.14371e+06
2.11077e+06
2.04601e+06
2.21582e+06
2.59006e+06
1.99829e+06
2.32986e+06
2.61048e+06
2.31842e+06
1.42673e+06
1.96999e+06
2.89871e+06
1.22022e+06
1.7174e+06
2.19951e+06
2.85845e+06
253245
253245
253245
253245
253245
253245
253245
653890
305465
253247
253245
253245
1.52635e+06
772792
1.21506e+06
1.01912e+06
938652
1.02761e+06
755326
804748
1.19092e+06
711818
1.09469e+06
1.0574e+06
708392
1.0458e+06
1.68865e+06
887528
1.68709e+06
1.49945e+06
749227
1.75251e+06
1.63314e+06
1.04085e+06
1.11009e+06
1.53956e+06
253278
266240
253245
253245
253245
253245
253245
253245
253245
253245
253245
253245
253245
253245
253245
253245
253245
253245
253245
253245
253245
253245
253245
253245
253245
253245
253245
253245
253245
253245
808184
860504
767179
852602
917393
1.39633e+06
957993
1.06952e+06
1.42143e+06
1.02812e+06
842876
900773
1.0099e+06
981158
953444
775911
1.17286e+06
1.17039e+06
1.51849e+06
1.07149e+06
1.51468e+06
2.02323e+06
1.33809e+06
939250
1.16765e+06
1.34591e+06
1.42876e+06
1.28667e+06
1.25092e+06
1.64516e+06
1.87584e+06
1.48067e+06
1.28907e+06
1.83459e+06
1.04913e+06
954866
1.06932e+06
746344
785546
1.19618e+06
1.12628e+06
1.2818e+06
968322
1.04976e+06
1.74401e+06
1.68999e+06
1.97391e+06
1.48167e+06
1.72821e+06
1.71438e+06
805185
877931
773685
875420
890798
790907
789710
732783
734812
720458
746546
814449
892708
929648
820240
906301
800919
832744
1.10013e+06
975763
1.06883e+06
974216
988399
1.09021e+06
1.08332e+06
1.22817e+06
1.19704e+06
1.22599e+06
1.20423e+06
1.12523e+06
997421
1.03778e+06
1.1546e+06
1.00958e+06
1.11755e+06
1.15894e+06
1.25711e+06
1.30199e+06
1.25721e+06
1.29737e+06
758902
859369
778088
723052
709682
876269
806010
787527
1.1789e+06
1.20663e+06
978194
1.13715e+06
1.09781e+06
1.28781e+06
1.23913e+06
802973
757829
767716
795906
899200
961855
849266
1.00521e+06
858870
1.01017e+06
893091
850430
908067
847096
908210
955081
1.07702e+06
1.16611e+06
1.02724e+06
1.07874e+06
952683
1.02572e+06
1.27989e+06
1.07694e+06
1.20761e+06
1.13569e+06
1.20709e+06
1.13715e+06
1.28553e+06
1.44406e+06
1.36627e+06
1.35605e+06
1.45777e+06
1.38323e+06
1.2253e+06
1.33051e+06
1.53075e+06
1.2224e+06
1.394e+06
1.51568e+06
1.56586e+06
1.74656e+06
1.58408e+06
1.71838e+06
836363
994501
882216
898847
837862
1.06953e+06
1.02026e+06
943894
1.36162e+06
1.46654e+06
1.22022e+06
1.55589e+06
1.40241e+06
1.79459e+06
1.61133e+06
1.06963e+06
983146
979456
1.07791e+06
1.22469e+06
1.27354e+06
1.12147e+06
1.43531e+06
1.11272e+06
1.41259e+06
1.24112e+06
1.18932e+06
1.35112e+06
1.19667e+06
1.35673e+06
1.37539e+06
1.62494e+06
1.8715e+06
1.59179e+06
1.60261e+06
1.39375e+06
1.58699e+06
1.8832e+06
1.46376e+06
1.70192e+06
1.65908e+06
1.67457e+06
1.63344e+06
1.91021e+06
1.11243e+06
1.4364e+06
1.22412e+06
1.29256e+06
1.15387e+06
1.61521e+06
1.53789e+06
1.36213e+06
1.88174e+06
1.55618e+06
1.5904e+06
1.8112e+06
1.11011e+06
777592
862357
769302
1.08289e+06
790370
877399
1.59771e+06
1.05195e+06
1.45922e+06
1.19166e+06
1.58244e+06
1.08973e+06
1.47351e+06
1.07452e+06
726547
994423
871942
1.44199e+06
807872
1.19902e+06
1.62727e+06
1.1066e+06
1.69131e+06
1.61927e+06
1.3623e+06
1.71298e+06
1.95027e+06
1.63486e+06
942966
1.5707e+06
1.34991e+06
1.63308e+06
1.18634e+06
1.90092e+06
2.02704e+06
865432
1.77775e+06
2.69463e+06
654729
778325
1.97705e+06
1.56135e+06
525644
818352
255537
253247
253246
253245
253245
253245
253245
1.12579e+06
423503
532459
669180
862297
470230
278345
309787
422748
241111
264509
384623
623628
354180
418707
469656
333102
293605
530664
1.70054e+06
1.79615e+06
1.63273e+06
804667
1.18668e+06
625888
752359
422382
738983
877328
502112
942889
727578
619697
667841
853154
1.24921e+06
628772
659642
650165
677854
809430
799102
870163
1.15704e+06
1.09891e+06
1.38991e+06
1.13808e+06
1.68904e+06
1.4943e+06
1.32104e+06
1.07777e+06
1.47475e+06
684975
638387
705314
701724
914238
1.44073e+06
1.58241e+06
1.26242e+06
1.52727e+06
727716
641078
696687
646184
656772
715346
711212
649132
670294
659617
640394
687547
710965
718329
756681
810774
760829
748007
870026
943991
942822
1.03571e+06
1.17417e+06
1.03925e+06
991608
1.15598e+06
1.17284e+06
995272
1.29368e+06
1.02465e+06
1.34362e+06
1.11719e+06
1.26279e+06
1.42045e+06
1.6043e+06
1.24928e+06
1.49653e+06
1.20587e+06
1.33485e+06
1.3603e+06
1.51782e+06
1.58171e+06
949843
1.22807e+06
1.06514e+06
1.34955e+06
1.21588e+06
1.14088e+06
606596
568113
620745
593491
561228
586024
641159
608004
701160
726514
599546
717441
799089
777421
1.09357e+06
1.00404e+06
761210
953099
532673
578042
513664
583300
591957
525617
521239
535051
585291
603008
535374
593891
527832
543909
508697
577256
520828
578340
529438
522585
579023
617265
547225
636793
555871
644072
571836
615315
678880
728382
655537
683061
610909
657616
540242
628722
564967
671569
648666
604943
754448
779544
700169
835515
703231
839816
747790
818672
907239
1.025e+06
885591
917486
805960
906819
686743
808184
724968
867359
845885
773892
849148
479445
364687
699692
321609
617486
543110
1.04238e+06
561421
1.0565e+06
855787
934039
1.44416e+06
1.14453e+06
769687
562760
1.03472e+06
1.14024e+06
1.47574e+06
1.47472e+06
1.08045e+06
1.03445e+06
1.02964e+06
1.0482e+06
1.06789e+06
1.02172e+06
1.09874e+06
1.10531e+06
1.0434e+06
1.17721e+06
1.09835e+06
902267
969395
1.1411e+06
1.16922e+06
777001
818520
814368
863919
913419
906989
859975
1.16334e+06
1.27205e+06
827600
1.59645e+06
1.6912e+06
1.31053e+06
1.27315e+06
620468
603806
589825
543444
546163
558509
531134
882550
941747
972219
942708
970502
1.03287e+06
1.06124e+06
1.01946e+06
1.1582e+06
1.04447e+06
1.12398e+06
1.02897e+06
1.13295e+06
1.23239e+06
1.0635e+06
1.26501e+06
1.33449e+06
827719
1.17861e+06
758726
1.15633e+06
807111
808856
771233
853886
893563
896240
853761
791564
700081
713242
733606
743136
825029
815049
605404
629587
615044
544607
567330
558216
554278
1.29512e+06
1.30369e+06
1.47163e+06
1.25015e+06
1.39446e+06
1.33627e+06
1.42223e+06
770269
828900
794932
875806
885701
850551
911019
709426
720983
556356
631011
561106
1.64912e+06
742758
833965
943020
895890
922651
1.0623e+06
967620
1.0006e+06
956926
1.01071e+06
1.04986e+06
1.1063e+06
1.00451e+06
1.05514e+06
952923
711372
737755
718459
741774
798298
819135
822996
932401
1.18909e+06
1.33291e+06
654137
702563
1.05684e+06
871675
748515
765003
744414
673931
689143
670586
655090
1.43907e+06
1.55189e+06
1.4929e+06
1.51521e+06
1.42653e+06
1.55317e+06
1.61241e+06
1.06862e+06
835557
959203
1.20425e+06
1.15751e+06
1.1472e+06
1.14466e+06
935251
705102
554729
1.58538e+06
942959
1.42866e+06
1.26153e+06
985934
1.17869e+06
1.10255e+06
1.26506e+06
1.19629e+06
1.11394e+06
1.37278e+06
628580
665910
654281
600849
589058
578295
566374
646685
688482
821374
1.12637e+06
846664
1.02118e+06
1.06033e+06
877857
953666
971931
914212
997191
1.0101e+06
903282
945042
1.09408e+06
984511
1.03943e+06
992074
1.04267e+06
942832
690974
744503
734151
675566
634801
664396
623694
1.6397e+06
1.6631e+06
1.62596e+06
1.52757e+06
1.51744e+06
1.44414e+06
1.32022e+06
748279
690134
673035
699543
683708
778029
761089
745220
770475
752224
805613
833118
851103
824631
1.03688e+06
1.20952e+06
1.08066e+06
1.21404e+06
1.12334e+06
1.15731e+06
1.25173e+06
1.44278e+06
1.30349e+06
1.43629e+06
1.4623e+06
1.43825e+06
1.55026e+06
1.58052e+06
836189
783958
588021
932803
1.31154e+06
891814
1.00779e+06
789083
863117
839601
934703
874498
894013
961527
850135
785635
870786
785319
724176
765700
710396
1.33917e+06
1.32289e+06
1.18448e+06
1.23463e+06
1.2317e+06
1.28158e+06
1.29095e+06
620015
717074
964465
607502
614789
864376
679475
912493
1.07031e+06
680926
971297
1.03815e+06
966708
1.0374e+06
1.33657e+06
1.32451e+06
1.42425e+06
1.0799e+06
1.29898e+06
1.46971e+06
1.34317e+06
1.26659e+06
1.33062e+06
1.15001e+06
1.21375e+06
1.32854e+06
1.15925e+06
1.25823e+06
983478
972285
886670
907652
1.00812e+06
1.00351e+06
911575
968765
974123
1.03608e+06
1.12905e+06
938766
1.00879e+06
1.07835e+06
910246
1.05058e+06
1.00766e+06
1.02081e+06
1.14162e+06
1.19451e+06
1.06e+06
1.25037e+06
1.56954e+06
1.44776e+06
1.46834e+06
1.80895e+06
1.5965e+06
1.74828e+06
1.44419e+06
1.45751e+06
1.55918e+06
1.12132e+06
1.30626e+06
1.28286e+06
985466
901305
559094
635914
619512
697382
594255
606271
830918
848850
825884
920771
897232
941117
915708
1.03289e+06
1.25564e+06
1.22846e+06
1.33189e+06
1.09238e+06
1.17266e+06
1.14044e+06
1.29597e+06
1.38976e+06
1.42691e+06
1.34031e+06
1.40227e+06
1.49623e+06
1.4162e+06
699205
738603
727977
811162
791081
778973
820699
1.05462e+06
936189
966462
969312
934810
865110
837641
1.4074e+06
1.49846e+06
1.07418e+06
1.35121e+06
956853
1.02251e+06
708716
1.15919e+06
1.09048e+06
972347
1.06296e+06
786789
1.67023e+06
1.76806e+06
660084
668426
643431
777923
720019
698569
712844
1.26126e+06
1.20413e+06
1.3133e+06
1.14405e+06
1.32501e+06
1.14757e+06
1.25909e+06
1.7651e+06
1.85031e+06
1.51316e+06
1.41023e+06
1.56075e+06
1.29683e+06
1.62575e+06
1.43455e+06
1.18557e+06
1.34563e+06
1.57404e+06
1.59396e+06
1.53057e+06
1.63383e+06
832165
962785
946631
865610
944794
924985
847984
1.15849e+06
1.07489e+06
1.18524e+06
1.2243e+06
1.09595e+06
1.11383e+06
1.20203e+06
690960
1.21929e+06
1.06916e+06
808123
1.17659e+06
618837
923172
767139
824045
814854
854923
918202
862106
910711
894427
1.03247e+06
925566
943627
1.01206e+06
913485
1.05067e+06
1.30373e+06
1.36402e+06
1.13581e+06
1.52527e+06
1.30442e+06
1.37156e+06
1.61893e+06
1.32004e+06
1.46276e+06
1.58947e+06
1.18038e+06
789105
867836
974208
1.71362e+06
1.85685e+06
1.70422e+06
1.93514e+06
1.83178e+06
1.98697e+06
1.56996e+06
1.70991e+06
1.58053e+06
1.56859e+06
1.63027e+06
1.71834e+06
1.68018e+06
1.66547e+06
566191
666664
834913
596972
579179
694844
635346
1.38026e+06
1.34463e+06
1.45464e+06
1.30084e+06
1.30801e+06
1.36811e+06
1.28997e+06
952333
874725
974065
1.07784e+06
994353
982063
1.1012e+06
1.07665e+06
1.20496e+06
1.18931e+06
1.22066e+06
1.11342e+06
1.10775e+06
1.22808e+06
1.09731e+06
1.05152e+06
975398
997684
1.248e+06
1.12472e+06
1.08574e+06
1.43653e+06
1.25942e+06
1.21297e+06
1.24324e+06
1.10442e+06
1.06191e+06
1.19932e+06
948847
1.02579e+06
1.19026e+06
1.47314e+06
1.20257e+06
1.40787e+06
1.30915e+06
1.60135e+06
1.51121e+06
1.50856e+06
1.38002e+06
1.45768e+06
1.45396e+06
1.37712e+06
1.79166e+06
2.12532e+06
2.09293e+06
1.80625e+06
1.86135e+06
1.81839e+06
2.0792e+06
550852
498876
497049
513310
519963
563155
560854
1.12242e+06
1.12784e+06
996227
1.04282e+06
1.15113e+06
1.01509e+06
1.10627e+06
1.36201e+06
1.32158e+06
1.14612e+06
1.27325e+06
1.27117e+06
1.43371e+06
1.20941e+06
906157
880300
970764
1.02231e+06
868973
914153
1.01611e+06
1.7104e+06
1.34838e+06
1.16115e+06
1.31919e+06
1.39939e+06
1.43561e+06
1.21618e+06
1.34199e+06
1.13178e+06
1.27541e+06
1.17069e+06
1.12473e+06
1.44291e+06
1.01375e+06
1.65134e+06
1.49556e+06
1.54795e+06
1.56492e+06
1.49806e+06
1.60603e+06
1.47586e+06
1.27203e+06
1.44266e+06
1.44462e+06
1.04002e+06
1.22819e+06
1.0689e+06
823858
631465
649347
669259
644692
662011
722956
730110
944413
1.0148e+06
392483
956534
308999
430724
1.0391e+06
1.14348e+06
1.11638e+06
819767
1.30914e+06
897716
819853
1.45222e+06
541577
516716
569174
683224
630856
611163
620679
658149
723442
672543
709967
647743
646606
713349
1.20562e+06
1.05802e+06
1.09215e+06
1.39525e+06
1.45382e+06
1.20999e+06
1.25042e+06
1.85826e+06
1.51953e+06
1.59936e+06
1.83104e+06
2.16731e+06
2.14169e+06
1.95247e+06
581839
573166
512088
901046