/*--------------------------------*- C++ -*----------------------------------*\
  =========                 |
  \\      /  F ield         | OpenFOAM: The Open Source CFD Toolbox
   \\    /   O peration     | Website:  https://openfoam.org
    \\  /    A nd           | Version:  9
     \\/     M anipulation  |
\*---------------------------------------------------------------------------*/
FoamFile
{
    format      ascii;
    class       volScalarField;
    location    "0.0023";
    object      T;
}
// * * * * * * * * * * * * * * * * * * * * * * * * * * * * * * * * * * * * * //

dimensions      [0 0 0 1 0 0 0];

internalField   nonuniform List<scalar> 
18789
(
443.019
287.926
287.926
287.926
287.926
287.926
287.926
287.926
287.926
521.659
287.948
288.373
288.678
287.926
287.927
289.858
287.931
287.926
287.926
288.464
287.932
287.93
508.823
359.914
487.088
467.247
394.568
585.37
288.001
515.513
477.521
473.346
464.093
442.768
436.29
471.833
288.006
287.928
287.929
287.941
287.932
287.961
287.964
288.928
288.113
294.46
292.162
288.404
288.354
300.058
499.904
469.01
462.751
452.503
411.538
426.541
435.017
287.926
288.072
287.978
287.94
290.48
291.197
294.916
287.972
422.801
323.603
293.24
464.014
293.117
301.183
296.41
340.077
383.996
306.315
359.171
318.332
576.682
404.679
557.877
293.071
580.94
504.097
524.566
336.006
287.947
287.926
287.926
287.926
287.926
287.926
287.926
287.926
287.926
287.926
287.926
287.926
287.926
287.926
287.926
287.926
287.926
287.926
287.926
287.926
287.926
287.926
287.926
287.926
287.926
287.926
287.926
287.926
287.926
287.926
287.926
287.926
287.926
287.926
287.926
287.926
287.926
287.926
287.926
287.926
287.926
287.926
287.926
304.722
287.926
287.926
287.926
287.926
287.926
287.926
287.926
287.926
287.926
287.926
287.926
287.926
287.926
287.926
287.926
287.926
287.926
287.926
287.926
287.926
287.926
287.926
287.926
287.926
287.926
287.926
287.926
287.926
287.926
287.926
287.926
287.926
287.926
287.926
287.926
287.926
287.926
287.926
287.926
287.926
287.926
287.926
287.926
287.973
287.926
287.926
287.926
287.926
287.926
287.926
287.926
287.926
287.926
287.926
287.926
287.926
287.926
287.926
287.926
287.926
287.926
287.926
287.926
287.926
287.926
287.926
287.926
287.926
287.926
287.926
287.926
287.926
287.926
287.926
287.926
287.926
287.926
287.926
287.926
287.926
287.926
287.926
287.926
287.926
287.926
287.926
287.926
287.926
287.926
287.926
287.926
287.926
287.926
287.926
287.926
287.926
287.926
287.926
287.926
287.926
287.926
287.926
287.926
287.926
287.926
287.926
287.926
287.926
287.926
287.926
287.926
287.926
287.926
287.926
287.926
287.926
287.926
287.926
287.926
287.926
287.926
287.926
287.926
287.926
287.926
287.926
287.926
287.926
287.926
323.895
287.946
287.926
287.926
287.926
287.992
287.926
287.926
287.926
287.926
287.926
287.926
287.926
287.926
287.926
287.926
287.926
287.926
287.926
287.926
287.926
287.926
287.926
287.926
287.926
287.926
287.926
287.926
287.926
287.926
287.926
287.926
287.926
287.926
287.926
287.926
287.926
287.926
287.926
287.926
287.926
287.926
287.926
287.926
287.926
287.926
287.926
416.077
287.926
287.926
287.926
287.926
287.926
287.926
287.926
287.926
287.926
287.926
287.926
287.926
287.926
287.926
287.926
287.926
287.926
287.926
287.926
287.926
287.926
287.926
287.926
287.926
287.926
287.926
287.926
287.926
287.926
287.926
287.926
287.926
287.926
287.926
287.926
287.926
287.926
287.926
287.926
287.926
287.926
287.926
287.926
287.926
287.926
287.926
287.926
287.926
287.926
287.926
287.926
287.926
287.926
287.926
287.926
287.926
287.926
287.926
287.926
287.926
287.926
287.926
287.926
287.926
287.926
287.926
287.926
287.926
287.926
287.926
287.926
287.926
287.926
287.926
287.926
287.926
287.926
287.926
287.926
287.926
287.926
287.926
287.926
287.926
287.926
287.926
287.926
287.926
287.926
287.926
287.926
287.926
287.926
287.926
287.926
287.926
287.926
287.926
287.926
287.926
287.926
287.926
287.926
287.926
287.926
287.926
287.926
287.926
287.926
287.926
287.926
287.926
287.926
287.926
287.926
287.926
287.926
287.926
287.926
287.926
287.926
287.926
287.926
287.926
287.926
287.926
287.926
287.926
287.926
287.926
287.926
287.926
287.926
287.926
287.926
287.926
287.926
287.926
287.926
287.926
287.926
287.926
287.926
287.926
287.926
287.926
287.926
287.926
287.926
287.926
287.926
287.926
287.926
287.926
287.926
287.926
287.926
287.926
287.926
287.926
287.926
287.926
287.926
287.926
287.926
287.926
287.926
287.926
287.926
287.926
287.926
287.926
287.926
287.926
287.926
287.926
287.926
287.926
287.926
287.926
287.926
287.926
287.926
287.926
287.926
287.926
287.926
287.926
287.926
287.926
287.926
287.926
287.926
287.926
287.926
287.926
287.926
287.926
287.926
287.926
287.926
287.926
287.926
287.926
287.926
287.926
287.926
287.926
287.926
287.926
287.926
287.926
287.926
287.926
287.926
287.926
287.926
287.926
287.926
287.926
287.926
287.926
287.926
287.926
287.926
287.926
287.926
287.926
287.926
287.926
287.926
287.926
287.926
287.926
287.926
287.926
287.926
287.926
287.926
287.926
287.926
287.926
287.926
287.926
287.926
287.926
287.926
287.926
287.926
287.926
287.926
322.611
287.926
287.956
317.58
287.926
287.941
291.46
287.942
287.926
324.866
290.022
287.933
287.926
287.926
287.926
287.926
287.926
287.926
287.926
287.926
287.926
287.926
287.926
287.926
287.926
287.926
287.926
287.926
287.926
287.926
287.926
287.926
287.926
287.926
287.927
287.926
287.926
287.926
287.927
287.926
287.926
287.926
287.926
287.926
287.926
287.926
287.926
287.926
287.926
287.926
287.926
287.926
307.09
287.926
287.935
297.042
287.926
287.926
287.966
287.93
287.926
288.603
287.927
287.926
287.926
287.926
287.926
287.926
287.926
287.926
287.926
287.926
287.926
287.926
287.926
287.926
287.926
287.926
287.926
287.926
287.926
287.926
287.926
287.926
287.926
287.926
287.926
287.926
287.926
287.926
287.926
287.926
287.926
287.926
287.926
287.926
287.926
287.926
287.926
287.926
287.926
287.926
289.654
287.926
287.926
288.047
287.926
287.926
287.926
287.926
287.926
287.927
287.926
287.926
287.926
287.926
287.926
287.926
287.926
287.926
287.926
287.926
287.926
287.926
287.926
287.926
287.926
287.926
287.926
287.926
287.926
287.926
287.926
287.926
287.926
287.926
287.926
287.926
287.926
287.926
287.926
287.926
287.926
287.946
287.926
287.926
287.93
287.926
287.926
287.926
287.926
287.926
287.927
287.926
287.926
287.926
287.926
287.926
287.926
287.926
287.926
287.926
287.926
287.926
287.926
287.926
287.926
287.926
287.932
287.926
287.926
287.926
287.926
287.926
287.926
287.926
287.926
287.926
287.926
287.926
287.926
287.926
287.926
287.926
287.926
287.926
287.926
287.926
287.926
287.926
287.926
287.926
289.069
287.947
287.926
289.889
287.949
287.927
287.926
287.926
287.926
287.926
287.926
287.926
287.926
287.926
287.926
287.926
287.926
287.926
287.926
287.926
287.926
418.989
287.927
287.926
288.112
287.926
690.424
289.834
287.926
287.926
576.999
287.926
287.926
287.926
287.926
287.926
290.714
287.927
287.926
287.926
287.926
287.926
287.926
287.926
287.926
287.926
287.926
287.926
287.926
287.926
287.926
287.926
287.926
287.926
287.926
287.926
287.926
287.926
287.926
287.926
443.323
435.18
727.025
743.806
550.392
702.984
675.206
512.552
405.965
366.253
511.076
650.788
405.279
301.318
512.745
292.534
317.827
692.371
290.618
290.363
330.569
288.084
590.893
287.929
295.066
287.946
423.497
287.968
287.934
287.926
287.926
287.926
287.926
287.926
287.926
287.926
287.926
517.499
571.044
441.729
304.64
599.133
400.971
516.127
288.195
315.373
288.27
287.93
308.167
288.157
287.928
287.926
287.926
287.926
287.926
287.927
287.926
287.926
287.926
357.755
433.626
288.27
288.443
295.065
326.967
298.328
288.434
291.689
288.741
290.834
287.928
287.987
287.934
287.926
287.929
287.926
287.927
287.926
287.926
287.926
287.926
287.926
287.926
287.926
287.926
287.926
287.926
287.926
287.926
287.926
287.926
287.926
287.926
287.926
287.926
287.926
287.926
287.926
287.926
287.926
287.926
287.926
287.926
287.926
287.926
287.926
287.926
287.926
287.926
287.926
287.926
287.926
287.926
287.926
287.926
287.926
287.926
287.926
287.926
287.926
287.926
287.926
287.926
287.926
287.926
287.926
287.926
287.926
287.926
287.926
287.926
287.926
287.926
287.926
287.926
287.926
287.926
287.926
287.926
287.926
287.926
287.926
287.926
287.926
287.926
287.926
287.926
287.926
287.926
287.926
287.926
287.926
287.926
287.926
287.926
287.926
287.926
287.926
287.926
287.926
287.926
287.926
287.926
287.926
287.926
287.926
287.926
287.926
320.971
338.336
335.765
291.805
293.076
292.687
292.084
287.955
287.928
287.933
287.926
287.928
287.932
287.957
330.124
312.668
321.879
291.255
290.892
291.906
290.532
287.95
287.926
287.927
287.929
287.928
287.931
287.944
287.926
287.926
287.926
287.926
287.926
287.926
287.926
287.926
287.926
287.926
287.926
287.926
287.926
287.926
287.926
287.926
287.926
287.926
287.926
287.926
287.926
287.926
287.926
287.926
287.926
287.926
287.926
287.926
287.926
287.926
287.926
287.926
287.926
287.926
287.926
287.926
287.926
287.926
287.926
287.926
287.926
287.926
287.926
287.926
287.926
287.926
287.926
287.926
287.926
287.926
287.926
287.926
287.926
287.926
287.926
287.926
287.926
287.926
287.926
287.926
287.926
287.926
287.926
287.926
287.926
287.926
287.926
287.926
287.926
287.926
287.926
287.926
287.926
287.926
287.926
312.672
301.704
303.959
289.143
289.883
289.79
289.07
287.933
287.927
287.928
287.926
287.938
287.926
287.927
297.054
292.356
293.211
288.641
288.186
288.516
288.291
287.929
287.926
287.926
287.926
287.926
287.926
287.927
287.926
287.926
287.926
287.926
287.926
287.926
287.926
287.926
287.926
287.926
287.926
287.926
287.926
287.926
287.926
287.926
287.926
287.926
287.926
287.926
287.926
287.926
287.926
287.926
287.926
287.926
287.926
287.926
287.926
287.926
287.926
287.926
287.926
287.926
287.926
287.926
287.926
287.926
287.926
287.926
287.926
287.926
287.926
287.926
287.926
287.926
287.926
287.926
287.926
287.926
287.926
287.926
287.926
287.926
287.926
287.926
287.926
287.926
287.926
287.926
287.926
287.926
287.926
287.926
287.926
287.926
287.926
287.926
287.926
287.926
288.46
290.477
288.898
287.978
288.02
288.081
287.952
287.926
287.926
287.926
287.926
287.926
287.926
287.926
287.944
288.203
287.98
287.939
287.926
287.931
287.928
287.926
287.926
287.926
287.926
287.926
287.926
287.926
287.927
287.926
287.926
287.926
287.926
287.926
287.926
287.946
287.927
288.013
288.006
287.931
287.932
288.256
287.926
287.926
287.926
287.926
287.926
287.926
287.926
287.926
287.926
287.926
287.926
287.926
287.926
287.926
287.926
287.926
287.946
287.926
287.927
287.926
287.93
287.926
287.926
287.926
287.926
287.926
287.926
287.926
287.926
287.926
287.926
287.926
287.926
287.926
287.926
287.926
287.926
287.926
287.926
287.926
287.926
287.926
287.926
287.926
287.926
287.926
287.926
287.926
287.926
287.926
287.926
287.926
287.926
287.926
287.926
287.926
287.926
287.926
287.932
287.926
287.926
287.926
287.926
287.926
287.926
287.926
287.926
287.926
287.926
287.926
287.926
287.926
287.926
287.926
287.926
287.926
287.926
287.926
287.926
287.926
287.926
287.926
287.926
287.926
288.086
290.107
288.32
288.004
287.95
288.078
287.936
287.926
287.926
287.926
287.926
287.926
287.926
287.926
594.826
575.753
585.303
639.971
602.127
303.75
627.534
485.515
506.096
385.181
361.097
367.944
287.926
288.038
288.025
287.976
287.932
287.929
287.935
441.347
498.692
495.54
637.542
731.229
732.47
635.446
486.17
423.276
469.498
637.562
717.944
728.833
633.059
446.129
386.124
417.845
598.883
698.848
620.79
672.201
385.616
350.759
345.902
572.047
588.028
636.319
542.655
298.664
324.013
305.105
457.268
519.716
507.92
430.892
686.828
853.39
896.352
443.102
958.762
609.385
580.334
288.359
293.842
289.258
385.779
298.291
342.547
318.99
287.928
287.937
288.101
288.278
288.988
293.238
287.985
287.926
287.926
287.926
287.94
287.926
287.928
287.926
493.366
475.784
460.517
562.236
511.585
506.777
560.713
560.961
552.098
600.52
580.915
634.669
478.357
362.721
427.994
372.948
503.06
510.244
493.873
546.975
290.511
316.912
294.42
418.287
369.961
445.359
327.448
289.536
469.904
289.456
288.63
307.324
296.465
288.05
287.967
289.115
288.11
288.724
310.88
292.547
294.053
287.926
287.946
287.927
288.005
287.974
288.509
287.932
287.926
287.926
287.926
287.926
287.929
287.926
287.926
300.539
737.438
314.628
295.663
414.476
436.578
289.243
288.354
288.186
288.122
287.927
294.677
287.975
287.94
382.429
408.999
369.991
301.953
326.8
301.512
334.478
287.926
287.926
499.079
287.926
287.926
287.926
287.926
287.926
287.926
288.69
288.011
536.742
547.864
486.098
292.567
288.854
287.926
287.926
287.926
287.926
287.926
287.926
287.926
287.926
287.926
287.926
287.926
287.926
287.926
287.926
287.926
287.926
287.926
287.926
287.926
287.926
287.926
287.926
287.926
287.93
287.927
287.926
287.931
287.926
287.939
287.927
287.994
287.997
290.742
288.192
288.12
287.949
288.946
529.304
482.734
486.223
563.445
504.802
503.199
568.561
410.686
388.967
453.08
466.051
436.981
359.219
376.697
287.926
287.926
287.926
287.926
287.926
287.926
287.926
287.955
287.926
287.927
287.951
287.926
287.928
287.926
287.926
287.926
287.926
287.926
287.926
287.926
287.926
287.926
287.926
287.926
287.926
287.926
287.926
287.926
287.926
287.926
287.926
287.926
287.926
287.926
287.926
288.155
287.927
288.062
287.926
298.723
287.991
287.926
288.099
287.926
287.927
287.926
287.926
287.926
287.926
287.926
287.926
287.926
287.926
287.926
287.926
287.926
287.926
287.926
287.926
287.926
287.926
287.926
287.926
288.257
288.336
287.956
287.953
288.302
287.953
288.283
288.206
287.947
288.145
287.942
288.232
287.949
288.14
288.015
288.063
287.937
287.93
288.072
288.002
287.932
287.974
287.928
287.941
287.927
287.962
287.929
287.948
287.928
287.931
287.926
287.926
287.934
287.927
287.926
287.926
287.926
287.926
287.926
287.926
287.926
287.926
287.926
287.926
287.926
287.926
287.926
287.926
287.926
287.926
287.926
287.926
287.926
287.926
287.926
287.926
287.961
288.206
287.93
287.94
287.983
288.135
287.928
287.931
287.927
287.926
287.926
287.935
287.926
287.926
287.926
287.926
287.926
287.926
287.926
287.926
287.926
287.926
287.926
287.926
287.926
287.926
287.926
287.926
287.926
287.926
287.926
287.926
287.926
287.926
287.926
287.926
287.926
287.926
287.926
287.926
287.926
287.926
287.926
287.926
287.926
287.926
287.926
287.926
287.926
287.926
287.926
287.926
287.926
287.926
287.926
287.926
511.657
288.955
287.929
469.536
539.844
336.485
321.022
304.786
287.926
287.945
408.197
288.061
287.956
287.926
287.926
287.926
287.926
287.927
287.926
287.926
287.926
287.926
287.926
287.926
287.926
287.926
287.926
287.926
287.926
287.932
287.926
287.926
287.926
287.926
287.926
287.926
287.926
287.926
287.926
287.926
287.926
287.926
292.464
288.271
292.072
288.016
289.087
288.003
288.976
289.286
304.256
289.068
300.459
291.296
330.331
318.41
287.926
287.926
287.926
287.926
287.926
287.926
287.926
287.926
287.926
287.926
287.926
287.926
287.926
287.926
287.926
287.926
287.926
287.926
287.926
287.926
287.926
287.926
287.926
287.926
287.926
287.926
287.926
287.926
287.926
287.926
287.926
287.926
287.926
287.926
287.926
287.926
287.926
287.926
287.926
287.926
287.926
287.926
287.926
287.926
287.926
287.926
287.926
287.926
287.926
287.926
287.926
287.926
287.926
287.926
287.926
287.926
287.926
287.926
287.926
287.926
287.926
287.926
287.926
287.926
287.926
287.926
287.926
287.926
287.926
287.926
287.926
287.926
287.926
1044.69
1084.31
902.592
462.792
1202.16
918.424
492.682
1109.97
875.677
664.001
1144.35
303.135
288.685
1128.47
826.269
287.927
1111.26
854.049
588.887
640.643
651.143
296.207
287.926
828.323
610.315
287.926
1014.83
759.503
433.077
398.757
580.894
513.089
287.927
287.926
789.296
619.666
287.985
287.926
816.568
926.13
288.185
287.929
287.926
287.926
629.418
463.503
288.1
287.926
287.926
672.744
287.951
287.926
287.926
287.926
465.441
288.717
287.926
287.926
287.926
287.926
287.926
287.926
287.926
287.929
287.926
287.926
287.926
287.926
287.926
287.926
287.926
287.926
287.926
1161.72
1158.89
1027.7
1124.16
940.791
1198.26
977.657
1124.99
954.001
1151.72
1154.15
959.418
1118.08
973.34
828.804
1140.87
1008.36
1142.62
1047.65
975.525
1039.53
969.253
774.081
827.36
965.322
786.594
793.879
825.343
934.16
741.436
973.671
970.908
717.085
322.312
950.96
876.629
1014.74
836.567
953.337
954.665
966.535
800.487
791.426
850.022
791.55
720.758
755.585
673.056
814.019
915.821
538.278
302.177
757.531
527.505
289.347
910.491
397.52
289.128
287.926
328.651
288.047
785.741
716.195
766.594
928.092
771.296
582.831
357.014
665.573
585.721
707.339
1072.71
1116.98
1079.78
926.242
1109.71
955.017
874.028
789.612
1000.55
956.417
1078.7
1094.61
1069.41
1027.53
997.714
1013.35
860.384
814.486
855.541
890.787
850.896
719.388
516.665
686.667
690.967
508.897
474.077
594.087
393.455
290.196
656.829
419.523
296.496
287.931
303.401
288.073
287.926
289.031
287.929
287.926
287.926
287.927
287.926
688.269
636.288
1175.94
1166.97
1180.23
1165.46
1167.79
1177.66
1105.46
1148.12
1075.86
1130.29
1153.06
1082.48
1100.49
1100.94
1129.77
1137.3
1078.61
1149.59
1082.5
1085.8
1157.27
1156.97
1118.19
1082.38
1081.89
815.583
969.125
1019.87
890.718
1016.22
890.042
817.87
1141.53
1106.78
1091.27
1059.41
946.398
1020.4
1118.84
1084.55
810.48
1022.98
887.924
976.188
817.032
1024.29
881.026
1068.71
1041.89
1055.95
847.673
891.686
956.917
937.594
891.587
861.707
915.653
815.099
847.569
797.146
852.048
811.922
867.119
806.695
829.342
930.437
874.559
891.564
860.155
893.978
833.364
921.431
897.118
985.27
964.507
913.215
890.072
984.002
919.649
966.408
899.461
940.208
900.747
971.326
891.725
999.528
982.454
960.997
868.225
870.706
899.349
961.031
911.971
928.865
737.375
1006.26
800.75
923.633
768.189
989.369
727.808
988.897
958.314
991.986
783.386
788.121
778.609
782.696
791.439
783.381
766.528
776.344
756.575
726.077
746.293
746.014
769.14
778.562
723.964
741.839
769.428
755.099
736.243
814.475
793.452
852.557
814.861
813.197
794.865
850.369
827.616
868.721
894.595
866.756
847.085
818.801
870.561
773.059
804.155
704.307
741.043
773.255
817.242
667.884
753.542
765.695
409.231
684.479
684.064
809.91
583.812
572.311
863.789
865.406
824.922
802.736
757.421
675.229
313.641
616.013
299.72
290.368
500.821
366.114
288.633
764.924
776.545
753.783
726.87
732.178
778.123
748.092
747.464
907.135
880.088
878.208
807.827
761.063
822.544
793.728
719.651
822.897
664.516
292.235
406.462
595.173
664.643
563.853
631.703
558.513
631.491
597.337
704.357
811.954
1004.9
882.931
964.786
1012.16
887.08
807.905
797.711
975.146
1018.33
844.219
1023.73
868.144
784.802
1136.65
1157.74
1100.03
1164.02
1072.51
1173.35
1018.94
500.755
858.737
802.98
869.446
417.348
862.059
800.331
359.409
857.866
593.872
688.501
288.927
833.972
314.82
675.973
837.675
738.912
619.862
784.607
710.614
572.931
764.698
647.61
560.206
373.59
608.172
299.943
288.058
797.744
292.15
289.203
287.926
625.974
287.929
540.314
782.949
566.379
505.82
415.665
512.37
325.455
288.801
499.619
288.699
330.343
287.946
291.304
287.927
287.926
288.076
287.926
287.926
287.926
287.926
287.926
1107.81
1064.3
1079.95
1052.87
1055.39
1039.72
1002.29
1040
929.764
991.246
988.251
1011.69
920.541
950.95
844.963
1069.4
940.219
718.542
661.271
963.519
719.553
287.926
287.926
287.926
287.926
287.926
287.926
287.926
389.718
307.169
287.926
287.926
287.926
940.712
857.144
920.932
1104.09
1182.39
886.214
682.234
904.741
1013.56
1046.09
1117.56
1148.8
768.749
941.022
919.248
872.366
854.076
949.552
546.605
1066.37
840.258
462.907
485.922
584.488
287.936
293.082
287.926
287.926
287.926
287.926
287.926
287.926
287.926
287.926
287.926
287.926
287.926
287.926
287.926
287.926
287.926
287.926
287.926
287.926
287.926
287.926
287.926
287.926
287.926
287.926
287.926
287.926
287.926
287.926
1084.95
1160.62
1042.63
1072.88
1161.51
1189.07
1181.61
1136.02
1190.48
1175.68
1163.26
1161.65
1174.73
1100.44
1137.51
955.322
910.825
965.889
1147.01
1149.32
924.886
888.753
987.127
1136.95
972.129
1001.26
831.413
909.13
869.058
810.157
807.321
929.052
918.514
806.451
1187.36
1185.72
1190.09
1099.46
1049.22
1155.71
1107.71
1118.09
861.51
819.113
977.466
905.561
935.521
754.528
744.249
592.873
1123.96
1146.45
1130.03
1166.41
1152.8
1138.91
1114.64
1100.82
1118.32
1112.58
1110.9
1130.64
1167.63
1154.73
1141.9
1156.54
1142.44
1134.86
1187.82
1170.8
1189.43
1185.33
1174.87
1192.71
1184.59
1190.01
1182.72
1186.74
1186.56
1186.99
1184.67
1170.09
1181.38
1176.05
1190.84
1178.98
1188.13
1176.61
1184.7
1179.44
1133.69
1169.14
1142.93
1119.5
1115.87
1169.47
1142.56
1145.36
1177.13
1180.83
1184.61
1178.97
1188.38
1172.3
1179.29
1048.1
1100.27
1096.48
1050.8
1066.18
1132.55
1120.68
1090.96
1116.06
1083.48
1071.58
981.481
918.758
983.844
917.446
999.525
1029.44
947.362
941.769
1017.11
1006.41
933.434
1103.52
1144.54
1156.47
1105.9
1152.81
1096.34
1114.4
1104.83
1155.34
1154.01
1116.63
1035.7
1049.3
956.886
1002.18
1029.86
1061.09
960.679
1035.28
1009.05
1064.86
958.457
1120.08
1091.6
1071.25
916.428
982.251
1032.26
942.813
1006.89
1154.32
1122.62
1055.61
1025.73
1073.9
1041.33
1083.1
832.428
866.593
867.355
828.467
839.904
886.631
887.572
864.276
879.118
842.221
845.852
810.897
783.852
801.651
800.074
814.043
830.96
797.667
794.02
814.279
815.694
799.764
842.65
890.963
945.431
881.914
892.209
842.008
898.598
887.795
873.538
843.624
767.741
788.469
836.61
782.841
809.202
789.862
772.184
795.348
761.474
903.867
959.755
992.168
889.546
960.736
1000.15
1029.42
1013.52
1052.98
1103.94
989.219
1103.3
1105.6
1124.78
981.195
1019.1
1074.54
916.538
965.727
933.558
907.337
1118.51
1094.99
1068.79
952.958
779.288
915.736
981.243
967.024
905.996
858.443
1001.59
904.379
930.996
863.223
870.983
647.202
954.61
870.325
613.397
536.059
872.985
663.524
663.866
418.383
288.732
287.926
287.926
287.926
287.926
287.926
287.926
634.142
577.433
551.633
599.775
579.25
563.947
520.804
508.493
607.587
556.365
540.803
623.032
542.943
497.997
490.426
592.134
512.582
525.356
578.336
745.721
784.795
728.228
646.353
598.004
605.102
673.976
560.403
597.946
667.714
557.639
637.06
1049.95
1061.81
1077.65
841.958
750.743
1057.8
1091.3
1093.11
1078.62
899.625
895.224
849.32
778.193
761.008
844.359
770.455
817.55
723.742
769.628
752.077
714.511
1098.43
1074.61
1110.2
1028.7
803.199
742.038
749.564
647.718
587.675
1090.75
1042.86
1094.4
1070.15
1055.44
1105.73
1079.32
1080.07
1083.4
1067.89
1083.6
1075.76
1031.24
1031.39
964.26
902.876
965.774
961.144
855.316
814.6
824.04
791.897
798.931
806.472
777.134
802.646
798.313
775.905
764.878
800.742
798.902
772.565
796.541
750.63
766.419
730.526
791.562
758.782
773.523
797.475
761.012
795.372
759.907
745.442
754.61
729.968
717.246
737.265
935.429
1021.48
974.679
1061.43
1025.78
1064
1025.45
1056.54
948.499
886.222
1055.86
881.416
869.076
838.203
866.845
775.706
830.61
758.878
981.509
1005.97
985.928
1034.01
1018.77
997.339
969.562
995.794
1045.41
1053
1029.12
1032.47
1009.17
1020.13
990.693
1038.63
1002.22
1049.42
1032.36
1013.76
1000.73
1054.02
1032.8
1014.3
1029.81
1016.15
998.642
942.405
949.312
891.45
877.392
952.943
937.889
883.137
1032.75
1011.31
995.845
945.634
873.033
934.244
813.814
846.197
831.688
806.453
839.903
818.07
801.96
801.196
786.865
797.497
777.617
803.054
784.977
798.403
824.62
795.267
791.592
772.276
762.845
771.957
599.984
627.206
567.231
656.834
576.795
667.191
615.4
770.873
758.928
824.754
862.029
904.191
967.946
952.497
827.846
752.406
849.437
943.937
1008.96
958.398
829.33
781.779
793.732
812.738
801.183
817.606
822.765
844.067
804.717
862.732
838.837
836.804
834.529
869.722
888.214
866.204
842.285
844.958
892.427
865.037
867.909
883.1
916.258
971.217
962.583
1097.83
1003.22
907.912
959.322
950.662
990.056
976.018
953.057
899.786
914.842
939.259
883.217
888.021
906.824
825.151
850.826
854.101
878.331
924.602
946.305
925.501
901.871
878.389
903.892
925.9
839.766
884.704
907.165
828.46
901.536
815.727
911.12
858.316
886.229
928.176
915.91
910.315
882.132
952.954
974.07
926.281
941.18
885.923
899.057
928.77
915.732
1008.51
1010.84
1036.29
971.661
977.388
938.436
1002.85
972.712
967.613
995.551
922.809
950.196
946.183
967.869
947.059
912.606
940.921
955.116
926.901
966.77
930.716
563.043
737.361
630.561
806.829
622.202
1050.33
643.483
924.555
926.727
919.709
933.843
941.149
931.528
926.567
917.4
885.628
931.122
908.66
889.124
941.085
907.94
968.715
927.123
1007.79
969.287
1034.4
956.229
994.972
846.357
932.59
926.56
803.439
805.714
906.677
874.037
1007.65
1021.64
1062.69
971.817
986.677
1027
1013.3
924.19
931.221
919.94
951.061
939.692
939.281
945.655
842.008
867.495
855.955
908.227
859.507
886.547
927.195
911.318
895.926
734.827
1108.97
709.551
933.289
990.689
926.102
963.968
940.431
948.748
957.135
932.897
983.334
1044.46
999.662
1012.48
986.573
997.861
1001.47
1020.04
803.009
807.026
842.861
901.854
853.912
905.613
899.357
1005.76
1023.22
1036.18
957.448
972.482
985.148
944.679
940.696
927.068
934.676
1001.65
904.813
964.681
976.906
953.891
899.975
896.726
894.431
941.31
889.703
944.688
1038.92
1036.45
1024.93
999.155
979.085
985.039
979.257
1077.5
1009.74
1044.16
1041.25
1066.97
1068.58
1094.64
985.812
967.654
991.481
1036.97
1002.3
979.601
1004.03
917.966
969.568
936.127
926.185
886.89
913.267
952.376
926.433
910.064
931.471
917.249
913.493
934.234
934.971
648.588
723.821
728.356
649.843
883.552
701.848
618.723
944.488
910.965
905.722
906.947
950.184
939.765
913.26
834.762
856.729
856.627
852.036
864.04
830.725
851.025
974.001
966.838
951.605
934.441
935.3
953.432
945.424
781.815
804.581
884.3
760.806
778.612
861.059
780.637
533.424
505.156
549.114
735.45
521.322
653.483
471.957
911.437
928.499
913.899
947.19
938.549
945.951
978.905
986.151
939.37
952.967
927.52
947.442
963.993
975.262
1082.7
1056.92
1059.04
983.432
1043.4
1009.54
1019.2
972.018
952.156
1013.2
980.026
988.561
953.28
992.336
886.86
913.149
884.93
885.236
882.405
913.914
906.777
969.121
1043.07
1009.27
979.783
1050.89
1021.59
1019.8
944.518
981.664
996.318
906.61
951.969
953.956
866.808
896.119
778.934
803.023
796.908
817.893
759.352
757.839
1042.11
1054.88
1096.11
1074.4
1117.05
1085.93
1126.27
945.304
969.58
956.333
938.723
949.649
958.797
933.055
926.2
995.996
954.402
938.561
917.373
946.402
982.575
1065.57
1011.36
1025.53
1038.81
1064.35
1084.9
1022.79
828.941
826.999
857.09
862.175
827.554
852.673
824.516
1009.23
1007.96
879.269
998.237
908.51
913.743
782.687
1025.99
970.249
967.456
990.169
975.223
1160.09
1076.38
795.635
771.59
790.29
833.098
765.814
776.661
806.961
1013.49
950.106
1020.4
1027.74
975.316
988.712
1054.77
965.856
946.74
954.126
972.224
937.178
937.546
994.791
960.498
968.312
954.547
967.145
1002.35
1007.39
968.006
1107.72
1116.01
1100.3
1093.4
1140.14
1134
1119.25
1081.96
1065.36
1093.21
1038.58
999.333
1012.32
1026.01
836.74
959.437
938.715
906.665
994.293
806.943
906.497
963.281
904.715
904.716
973.893
908.274
962.371
913.32
1054.99
1028
1013.95
993.182
1045.01
1023.33
1009.56
914.386
962.929
893.676
911.343
891.195
932.469
964.32
908.507
975.152
1002.94
937.039
771.74
818.971
880.906
1049.83
1047.45
1045.15
997.759
1044.69
1037.72
966.833
993.049
951.894
959.237
961.236
998.056
1006.16
958.252
761.61
770.028
852.102
713.543
745.562
782.674
722.602
1031.47
1000.84
1021.35
973.409
982.374
1021.15
988.72
838.574
862.799
859.132
840.876
872.342
867.99
857.071
1083.18
1127.04
1108.17
1060.83
1068.22
1035.31
1092.73
963.743
907.302
956.383
947.61
915.556
956.941
914.45
897.42
885.154
837.12
894.861
880.849
836.729
845.129
960.649
974.563
960.73
987.435
1056.29
1035.63
1026.59
1002.32
1049.02
1039.04
1011.02
963.233
972.681
1001.06
954.057
931.135
952.229
983.915
1013.16
1016.59
1005.14
633.902
660.798
664.062
721.148
719.47
694.328
687.984
1172.88
1132.08
1145.23
1114.44
1140.4
1152.51
1167.84
1035.27
1047.24
1040.33
1007.43
1068.06
1031.25
1014.54
1053.74
1082.26
1120.49
1048.3
1103.45
1034.85
1068.57
900.271
871.096
879.262
872.911
909.391
897.982
903.631
511.832
594.686
514.722
644.732
602.72
529.985
455.907
1040.09
1039.95
988.823
984.965
1095.4
1042.03
1036.47
861.505
976.988
954.398
869.66
940.536
884.158
770.559
738.113
730.928
732.424
698.306
698.813
693.101
688.747
530.459
509.415
332.628
450.777
308.126
341.995
515.837
501.87
512.578
540.163
528.733
582.226
594.02
548.192
604.412
633
584.028
700.378
651.94
609.118
581.511
776.274
730.54
774.622
678.572
725.799
718.755
672.248
830.008
829.199
859.47
827.772
865.309
829.061
856.728
1010.93
940.424
996.095
936.295
944.57
986.826
995.851
612.573
664.987
656.892
838.519
697.543
741.858
682.073
1174.48
1125.13
1153.55
1157.14
1147.4
1156.57
1171.01
1050.75
1080.38
1121.29
1041.31
1056.23
1005.79
1083.85
726.875
875.661
725.349
721.14
792.989
710.817
658.681
766.348
823.981
700.514
796.546
750.989
709.463
686.371
697.667
818.796
835.166
725.43
909.546
1115.43
683.585
985.607
976.787
910.244
924.704
969.393
996.46
920.323
1095.8
1157.38
1151.21
1113.38
1121.99
1065.57
1055.89
1113.91
1043.43
1057.15
1044.21
1068.69
1091.79
1027.53
911.699
926.602
981.301
983.503
939.938
981.784
972.455
877.084
899.133
919.868
914.114
880.577
927.91
958.446
892.878
970.691
997.444
807.645
802.871
856.847
829.42
987.485
1055.59
1060.79
1023.83
1021.82
1098.1
1105.51
513.386
520.322
548.317
514.562
587.15
492.121
515.156
721.257
937.839
807.284
980.645
859.162
774.015
653.508
735.588
717.296
731.603
668.819
688.622
683.001
663.573
727.832
697.732
681.82
645.696
627.267
590.818
608.804
525.593
509.954
534.293
541.67
525.217
317.113
449.028
786.547
704.266
854.881
877.872
955.119
980.221
800.903
873.474
841.317
896.697
879.812
896.329
824.717
843.998
1004.13
1073.74
1025.34
1068.65
1058.16
962.709
910.957
1063.52
1165.82
1175.34
1066.24
1078.12
1161.47
1157.09
838.402
869.602
883.586
761.101
813.235
897.057
918.975
895.268
885.51
836.035
830.656
831.02
879.01
886.332
1184.62
1193.02
1189.41
1187.15
1159.55
1165.57
1183.29
834.498
862.454
839.445
869.04
869.094
870.653
848.448
1166.89
1148.07
1172.37
1148.49
1134.61
1088.22
1117.57
759.492
666.408
635.435
706.454
730.816
672.883
650.84
990.38
1051.61
1076.4
989.91
1019.03
1078.72
1019.52
1088.16
1131.94
1134.35